! Sonnet Data File
! From: emgraph Version : 16.52
! From Emgraph Data: Waveguide2
! Data File Written: 09/24/2017 16:23:30
!< HDATE 09/24/2017 15:59:00
!< MDATE 09/24/2017 16:00:56
!< PARAMS
!< hWid = 5.0
!< gap = 6.0
!< Pwid = 700.0
!< END PARAMS
# GHZ S MA R 50.00000
6.00000000 0.507704 -135.7 0.861529 -45.70 0.861529 -45.70 0.507704 -135.7
!< P1 F=6.0 Eeff=(6.18535061 -2.8087e-5) Z0=(20.6158018 4.67887e-5) R=2.83674e-4 C=0.43417165 
!< P2 F=6.0 Eeff=(6.18535061 -2.8087e-5) Z0=(20.6158018 4.67887e-5) R=2.83674e-4 C=0.43417165 
