! Sonnet Data File
! From: emgraph Version : 16.52
! From Emgraph Data: Waveguide2
! Data File Written: 09/24/2017 16:11:41
!< HDATE 09/24/2017 15:59:00
!< MDATE 09/24/2017 16:00:56
!< PARAMS
!< hWid = 5.0
!< gap = 6.0
!< Pwid = 500.0
!< END PARAMS
# GHZ S MA R 50.00000
6.00000000 0.477876 -134.8 0.878425 -44.82 0.878425 -44.82 0.477876 -134.8
!< P1 F=6.0 Eeff=(6.29492038 -2.8758e-5) Z0=(21.9069288 5.00191e-5) R=4.07652e-4 C=0.30188704 
!< P2 F=6.0 Eeff=(6.29492038 -2.8758e-5) Z0=(21.9069288 5.00191e-5) R=4.07652e-4 C=0.30188704 
