! Sonnet Data File
! From: emgraph Version : 16.52
! From Emgraph Data: Waveguide2
! Data File Written: 09/24/2017 16:43:43
!< HDATE 09/24/2017 16:36:37
!< MDATE 09/24/2017 16:37:36
!< PARAMS
!< hWid = 5.0
!< gap = 6.0
!< Pwid = 100.0
!< END PARAMS
# GHZ S MA R 50.00000
6.00000000 0.290042 -129.8 0.957012 -39.77 0.957012 -39.77 0.290042 -129.8
!< P1 F=6.0 Eeff=(6.44191799 -2.9685e-5) Z0=(30.6645392 7.06641e-5) R=0.00236137 C=0.05192514 
!< P2 F=6.0 Eeff=(6.44191799 -2.9685e-5) Z0=(30.6645392 7.06641e-5) R=0.00236137 C=0.05192514 
