! Sonnet Data File
! From: emgraph Version : 16.52
! From Emgraph Data: Qubit_Test_beforeopt
! Data File Written: 10/17/2017 17:27:26
!< HDATE 10/17/2017 16:56:33
!< MDATE 10/17/2017 16:56:33
!< PARAMS
!< Lj = 11.0
!< Gap = 20.0
!< Pwid = 2000.0
!< Airgap = 6.000000259
!< Width = 10.0
!< Airgap_1 = 6.000061273
!< END PARAMS
# GHZ S MA R 51.80000
8.75000000 2.352e-4 133.56 0.999996 -80.08 0.999996 -80.08 2.313e-4 -114.4
!< P1 F=8.75 Eeff=(6.44671347 -3.0537e-5) Z0=(51.7984997 1.14031e-4) R=0.03698389 C=0.00303725 
!< P2 F=8.75 Eeff=(6.44671347 -3.0537e-5) Z0=(51.7984997 1.14031e-4) R=0.03698389 C=0.00303725 
8.75010000 2.358e-4 133.78 0.999996 -80.08 0.999996 -80.08 2.319e-4 -114.6
8.75020000 2.364e-4 134.01 0.999996 -80.08 0.999996 -80.08 2.326e-4 -114.8
8.75030000 2.371e-4 134.24 0.999996 -80.08 0.999996 -80.08 2.332e-4 -115.1
8.75040000 2.377e-4 134.47 0.999996 -80.08 0.999996 -80.08 2.338e-4 -115.3
8.75050000 2.383e-4 134.70 0.999996 -80.08 0.999996 -80.08 2.344e-4 -115.5
8.75060000 2.389e-4 134.93 0.999996 -80.08 0.999996 -80.08 2.351e-4 -115.7
8.75070000 2.396e-4 135.15 0.999996 -80.08 0.999996 -80.08 2.357e-4 -116.0
8.75080000 2.402e-4 135.38 0.999996 -80.08 0.999996 -80.08 2.364e-4 -116.2
8.75090000 2.409e-4 135.61 0.999996 -80.09 0.999996 -80.09 2.370e-4 -116.4
8.75100000 2.415e-4 135.84 0.999996 -80.09 0.999996 -80.09 2.377e-4 -116.7
8.75110000 2.422e-4 136.06 0.999996 -80.09 0.999996 -80.09 2.384e-4 -116.9
8.75120000 2.428e-4 136.29 0.999996 -80.09 0.999996 -80.09 2.391e-4 -117.1
8.75130000 2.435e-4 136.51 0.999996 -80.09 0.999996 -80.09 2.397e-4 -117.4
8.75140000 2.442e-4 136.74 0.999996 -80.09 0.999996 -80.09 2.404e-4 -117.6
8.75150000 2.449e-4 136.96 0.999996 -80.09 0.999996 -80.09 2.411e-4 -117.8
8.75160000 2.456e-4 137.19 0.999996 -80.09 0.999996 -80.09 2.418e-4 -118.0
8.75170000 2.463e-4 137.41 0.999996 -80.09 0.999996 -80.09 2.426e-4 -118.3
8.75180000 2.470e-4 137.64 0.999996 -80.09 0.999996 -80.09 2.433e-4 -118.5
8.75190000 2.477e-4 137.86 0.999996 -80.10 0.999996 -80.10 2.440e-4 -118.7
8.75200000 2.484e-4 138.08 0.999996 -80.10 0.999996 -80.10 2.447e-4 -119.0
8.75210000 2.492e-4 138.30 0.999996 -80.10 0.999996 -80.10 2.455e-4 -119.2
8.75220000 2.499e-4 138.53 0.999996 -80.10 0.999996 -80.10 2.462e-4 -119.4
8.75230000 2.506e-4 138.75 0.999996 -80.10 0.999996 -80.10 2.470e-4 -119.6
8.75240000 2.514e-4 138.97 0.999996 -80.10 0.999996 -80.10 2.477e-4 -119.9
8.75250000 2.521e-4 139.19 0.999996 -80.10 0.999996 -80.10 2.485e-4 -120.1
8.75260000 2.529e-4 139.41 0.999996 -80.10 0.999996 -80.10 2.493e-4 -120.3
8.75270000 2.537e-4 139.63 0.999996 -80.10 0.999996 -80.10 2.500e-4 -120.5
8.75280000 2.544e-4 139.85 0.999996 -80.10 0.999996 -80.10 2.508e-4 -120.7
8.75290000 2.552e-4 140.07 0.999996 -80.10 0.999996 -80.10 2.516e-4 -121.0
8.75300000 2.560e-4 140.29 0.999996 -80.11 0.999996 -80.11 2.524e-4 -121.2
8.75310000 2.568e-4 140.50 0.999996 -80.11 0.999996 -80.11 2.532e-4 -121.4
8.75320000 2.576e-4 140.72 0.999996 -80.11 0.999996 -80.11 2.540e-4 -121.6
8.75330000 2.584e-4 140.94 0.999996 -80.11 0.999996 -80.11 2.549e-4 -121.9
8.75340000 2.592e-4 141.16 0.999996 -80.11 0.999996 -80.11 2.557e-4 -122.1
8.75350000 2.601e-4 141.37 0.999996 -80.11 0.999996 -80.11 2.565e-4 -122.3
8.75360000 2.609e-4 141.59 0.999996 -80.11 0.999996 -80.11 2.574e-4 -122.5
8.75370000 2.617e-4 141.80 0.999996 -80.11 0.999996 -80.11 2.582e-4 -122.7
8.75380000 2.626e-4 142.02 0.999996 -80.11 0.999996 -80.11 2.591e-4 -122.9
8.75390000 2.634e-4 142.23 0.999996 -80.11 0.999996 -80.11 2.599e-4 -123.2
8.75400000 2.643e-4 142.45 0.999996 -80.12 0.999996 -80.12 2.608e-4 -123.4
8.75410000 2.652e-4 142.66 0.999996 -80.12 0.999996 -80.12 2.617e-4 -123.6
8.75420000 2.660e-4 142.87 0.999996 -80.12 0.999996 -80.12 2.626e-4 -123.8
8.75430000 2.669e-4 143.08 0.999996 -80.12 0.999996 -80.12 2.635e-4 -124.0
8.75440000 2.678e-4 143.29 0.999996 -80.12 0.999996 -80.12 2.644e-4 -124.2
8.75450000 2.687e-4 143.51 0.999996 -80.12 0.999996 -80.12 2.653e-4 -124.5
8.75460000 2.696e-4 143.72 0.999996 -80.12 0.999996 -80.12 2.662e-4 -124.7
8.75470000 2.705e-4 143.93 0.999996 -80.12 0.999996 -80.12 2.671e-4 -124.9
8.75480000 2.715e-4 144.14 0.999996 -80.12 0.999996 -80.12 2.681e-4 -125.1
8.75490000 2.724e-4 144.35 0.999996 -80.12 0.999996 -80.12 2.690e-4 -125.3
8.75500000 2.733e-4 144.55 0.999996 -80.13 0.999996 -80.13 2.699e-4 -125.5
8.75510000 2.743e-4 144.76 0.999996 -80.13 0.999996 -80.13 2.709e-4 -125.7
8.75520000 2.752e-4 144.97 0.999996 -80.13 0.999996 -80.13 2.719e-4 -125.9
8.75530000 2.762e-4 145.18 0.999996 -80.13 0.999996 -80.13 2.728e-4 -126.1
8.75540000 2.771e-4 145.38 0.999996 -80.13 0.999996 -80.13 2.738e-4 -126.4
8.75550000 2.781e-4 145.59 0.999996 -80.13 0.999996 -80.13 2.748e-4 -126.6
8.75560000 2.791e-4 145.79 0.999996 -80.13 0.999996 -80.13 2.758e-4 -126.8
8.75570000 2.801e-4 146.00 0.999996 -80.13 0.999996 -80.13 2.768e-4 -127.0
8.75580000 2.811e-4 146.20 0.999996 -80.13 0.999996 -80.13 2.778e-4 -127.2
8.75590000 2.821e-4 146.40 0.999996 -80.13 0.999996 -80.13 2.788e-4 -127.4
8.75600000 2.831e-4 146.61 0.999996 -80.14 0.999996 -80.14 2.798e-4 -127.6
8.75610000 2.841e-4 146.81 0.999996 -80.14 0.999996 -80.14 2.809e-4 -127.8
8.75620000 2.851e-4 147.01 0.999996 -80.14 0.999996 -80.14 2.819e-4 -128.0
8.75630000 2.862e-4 147.21 0.999996 -80.14 0.999996 -80.14 2.829e-4 -128.2
8.75640000 2.872e-4 147.41 0.999996 -80.14 0.999996 -80.14 2.840e-4 -128.4
8.75650000 2.883e-4 147.61 0.999996 -80.14 0.999996 -80.14 2.851e-4 -128.6
8.75660000 2.893e-4 147.81 0.999996 -80.14 0.999996 -80.14 2.861e-4 -128.8
8.75670000 2.904e-4 148.01 0.999996 -80.14 0.999996 -80.14 2.872e-4 -129.0
8.75680000 2.915e-4 148.21 0.999996 -80.14 0.999996 -80.14 2.883e-4 -129.2
8.75690000 2.926e-4 148.41 0.999996 -80.14 0.999996 -80.14 2.894e-4 -129.4
8.75700000 2.937e-4 148.60 0.999996 -80.15 0.999996 -80.15 2.905e-4 -129.6
8.75710000 2.948e-4 148.80 0.999996 -80.15 0.999996 -80.15 2.916e-4 -129.8
8.75720000 2.959e-4 149.00 0.999996 -80.15 0.999996 -80.15 2.928e-4 -130.0
8.75730000 2.970e-4 149.19 0.999996 -80.15 0.999996 -80.15 2.939e-4 -130.2
8.75740000 2.981e-4 149.39 0.999996 -80.15 0.999996 -80.15 2.950e-4 -130.4
8.75750000 2.993e-4 149.58 0.999996 -80.15 0.999996 -80.15 2.962e-4 -130.6
8.75760000 3.004e-4 149.77 0.999996 -80.15 0.999996 -80.15 2.973e-4 -130.8
8.75770000 3.016e-4 149.97 0.999996 -80.15 0.999996 -80.15 2.985e-4 -131.0
8.75780000 3.027e-4 150.16 0.999996 -80.15 0.999996 -80.15 2.997e-4 -131.2
8.75790000 3.039e-4 150.35 0.999996 -80.15 0.999996 -80.15 3.009e-4 -131.4
8.75800000 3.051e-4 150.54 0.999996 -80.16 0.999996 -80.16 3.020e-4 -131.6
8.75810000 3.063e-4 150.73 0.999996 -80.16 0.999996 -80.16 3.032e-4 -131.8
8.75820000 3.075e-4 150.92 0.999996 -80.16 0.999996 -80.16 3.045e-4 -131.9
8.75830000 3.087e-4 151.11 0.999996 -80.16 0.999996 -80.16 3.057e-4 -132.1
8.75840000 3.099e-4 151.30 0.999996 -80.16 0.999996 -80.16 3.069e-4 -132.3
8.75850000 3.111e-4 151.49 0.999996 -80.16 0.999996 -80.16 3.081e-4 -132.5
8.75860000 3.124e-4 151.67 0.999996 -80.16 0.999996 -80.16 3.094e-4 -132.7
8.75870000 3.136e-4 151.86 0.999996 -80.16 0.999996 -80.16 3.106e-4 -132.9
8.75880000 3.149e-4 152.05 0.999996 -80.16 0.999996 -80.16 3.119e-4 -133.1
8.75890000 3.161e-4 152.23 0.999996 -80.16 0.999996 -80.16 3.132e-4 -133.3
8.75900000 3.174e-4 152.42 0.999996 -80.17 0.999996 -80.17 3.145e-4 -133.4
8.75910000 3.187e-4 152.60 0.999996 -80.17 0.999996 -80.17 3.157e-4 -133.6
8.75920000 3.200e-4 152.78 0.999996 -80.17 0.999996 -80.17 3.170e-4 -133.8
8.75930000 3.213e-4 152.97 0.999996 -80.17 0.999996 -80.17 3.184e-4 -134.0
8.75940000 3.226e-4 153.15 0.999996 -80.17 0.999996 -80.17 3.197e-4 -134.2
8.75950000 3.239e-4 153.33 0.999996 -80.17 0.999996 -80.17 3.210e-4 -134.4
8.75960000 3.252e-4 153.51 0.999996 -80.17 0.999996 -80.17 3.223e-4 -134.6
8.75970000 3.266e-4 153.69 0.999996 -80.17 0.999996 -80.17 3.237e-4 -134.7
8.75980000 3.279e-4 153.87 0.999996 -80.17 0.999996 -80.17 3.250e-4 -134.9
8.75990000 3.293e-4 154.05 0.999996 -80.17 0.999996 -80.17 3.264e-4 -135.1
8.76000000 3.306e-4 154.23 0.999996 -80.18 0.999996 -80.18 3.278e-4 -135.3
8.76010000 3.320e-4 154.41 0.999996 -80.18 0.999996 -80.18 3.292e-4 -135.5
8.76020000 3.334e-4 154.58 0.999996 -80.18 0.999996 -80.18 3.306e-4 -135.6
8.76030000 3.348e-4 154.76 0.999996 -80.18 0.999996 -80.18 3.320e-4 -135.8
8.76040000 3.362e-4 154.94 0.999996 -80.18 0.999996 -80.18 3.334e-4 -136.0
8.76050000 3.376e-4 155.11 0.999996 -80.18 0.999996 -80.18 3.348e-4 -136.2
8.76060000 3.390e-4 155.29 0.999996 -80.18 0.999996 -80.18 3.362e-4 -136.3
8.76070000 3.405e-4 155.46 0.999996 -80.18 0.999996 -80.18 3.377e-4 -136.5
8.76080000 3.419e-4 155.64 0.999996 -80.18 0.999996 -80.18 3.392e-4 -136.7
8.76090000 3.434e-4 155.81 0.999996 -80.18 0.999996 -80.18 3.406e-4 -136.9
8.76100000 3.448e-4 155.98 0.999996 -80.19 0.999996 -80.19 3.421e-4 -137.0
8.76110000 3.463e-4 156.15 0.999996 -80.19 0.999996 -80.19 3.436e-4 -137.2
8.76120000 3.478e-4 156.32 0.999996 -80.19 0.999996 -80.19 3.451e-4 -137.4
8.76130000 3.493e-4 156.49 0.999996 -80.19 0.999996 -80.19 3.466e-4 -137.6
8.76140000 3.508e-4 156.66 0.999996 -80.19 0.999996 -80.19 3.481e-4 -137.7
8.76150000 3.523e-4 156.83 0.999996 -80.19 0.999996 -80.19 3.496e-4 -137.9
8.76160000 3.538e-4 157.00 0.999996 -80.19 0.999996 -80.19 3.512e-4 -138.1
8.76170000 3.554e-4 157.17 0.999996 -80.19 0.999996 -80.19 3.527e-4 -138.2
8.76180000 3.569e-4 157.34 0.999996 -80.19 0.999996 -80.19 3.543e-4 -138.4
8.76190000 3.585e-4 157.50 0.999996 -80.20 0.999996 -80.20 3.559e-4 -138.6
8.76200000 3.601e-4 157.67 0.999996 -80.20 0.999996 -80.20 3.574e-4 -138.7
8.76210000 3.616e-4 157.83 0.999996 -80.20 0.999996 -80.20 3.590e-4 -138.9
8.76220000 3.632e-4 158.00 0.999996 -80.20 0.999996 -80.20 3.606e-4 -139.1
8.76230000 3.648e-4 158.16 0.999996 -80.20 0.999996 -80.20 3.622e-4 -139.2
8.76240000 3.665e-4 158.33 0.999996 -80.20 0.999996 -80.20 3.639e-4 -139.4
8.76250000 3.681e-4 158.49 0.999996 -80.20 0.999996 -80.20 3.655e-4 -139.6
8.76260000 3.697e-4 158.65 0.999996 -80.20 0.999996 -80.20 3.672e-4 -139.7
8.76270000 3.714e-4 158.81 0.999996 -80.20 0.999996 -80.20 3.688e-4 -139.9
8.76280000 3.730e-4 158.97 0.999996 -80.20 0.999996 -80.20 3.705e-4 -140.0
8.76290000 3.747e-4 159.13 0.999996 -80.21 0.999996 -80.21 3.722e-4 -140.2
8.76300000 3.764e-4 159.29 0.999996 -80.21 0.999996 -80.21 3.739e-4 -140.4
8.76310000 3.781e-4 159.45 0.999996 -80.21 0.999996 -80.21 3.756e-4 -140.5
8.76320000 3.798e-4 159.61 0.999996 -80.21 0.999996 -80.21 3.773e-4 -140.7
8.76330000 3.815e-4 159.77 0.999996 -80.21 0.999996 -80.21 3.790e-4 -140.8
8.76340000 3.832e-4 159.93 0.999996 -80.21 0.999996 -80.21 3.808e-4 -141.0
8.76350000 3.850e-4 160.08 0.999996 -80.21 0.999996 -80.21 3.825e-4 -141.2
8.76360000 3.867e-4 160.24 0.999996 -80.21 0.999996 -80.21 3.843e-4 -141.3
8.76370000 3.885e-4 160.39 0.999996 -80.21 0.999996 -80.21 3.861e-4 -141.5
8.76380000 3.903e-4 160.55 0.999996 -80.21 0.999996 -80.21 3.878e-4 -141.6
8.76390000 3.921e-4 160.70 0.999996 -80.22 0.999996 -80.22 3.897e-4 -141.8
8.76400000 3.939e-4 160.86 0.999996 -80.22 0.999996 -80.22 3.915e-4 -141.9
8.76410000 3.957e-4 161.01 0.999996 -80.22 0.999996 -80.22 3.933e-4 -142.1
8.76420000 3.975e-4 161.16 0.999996 -80.22 0.999996 -80.22 3.951e-4 -142.2
8.76430000 3.994e-4 161.32 0.999996 -80.22 0.999996 -80.22 3.970e-4 -142.4
8.76440000 4.012e-4 161.47 0.999996 -80.22 0.999996 -80.22 3.988e-4 -142.5
8.76450000 4.031e-4 161.62 0.999996 -80.22 0.999996 -80.22 4.007e-4 -142.7
8.76460000 4.050e-4 161.77 0.999996 -80.22 0.999996 -80.22 4.026e-4 -142.8
8.76470000 4.069e-4 161.92 0.999996 -80.22 0.999996 -80.22 4.045e-4 -143.0
8.76480000 4.088e-4 162.07 0.999996 -80.22 0.999996 -80.22 4.064e-4 -143.1
8.76490000 4.107e-4 162.21 0.999996 -80.23 0.999996 -80.23 4.084e-4 -143.3
8.76500000 4.126e-4 162.36 0.999996 -80.23 0.999996 -80.23 4.103e-4 -143.4
8.76510000 4.146e-4 162.51 0.999996 -80.23 0.999996 -80.23 4.123e-4 -143.6
8.76520000 4.165e-4 162.66 0.999996 -80.23 0.999996 -80.23 4.142e-4 -143.7
8.76530000 4.185e-4 162.80 0.999996 -80.23 0.999996 -80.23 4.162e-4 -143.9
8.76540000 4.205e-4 162.95 0.999996 -80.23 0.999996 -80.23 4.182e-4 -144.0
8.76550000 4.225e-4 163.09 0.999996 -80.23 0.999996 -80.23 4.202e-4 -144.2
8.76560000 4.245e-4 163.24 0.999996 -80.23 0.999996 -80.23 4.222e-4 -144.3
8.76570000 4.265e-4 163.38 0.999996 -80.23 0.999996 -80.23 4.243e-4 -144.5
8.76580000 4.286e-4 163.52 0.999996 -80.24 0.999996 -80.24 4.263e-4 -144.6
8.76590000 4.306e-4 163.67 0.999996 -80.24 0.999996 -80.24 4.284e-4 -144.8
8.76600000 4.327e-4 163.81 0.999996 -80.24 0.999996 -80.24 4.305e-4 -144.9
8.76610000 4.348e-4 163.95 0.999996 -80.24 0.999996 -80.24 4.326e-4 -145.0
8.76620000 4.369e-4 164.09 0.999996 -80.24 0.999996 -80.24 4.347e-4 -145.2
8.76630000 4.390e-4 164.23 0.999996 -80.24 0.999996 -80.24 4.368e-4 -145.3
8.76640000 4.411e-4 164.37 0.999996 -80.24 0.999996 -80.24 4.389e-4 -145.5
8.76650000 4.433e-4 164.51 0.999996 -80.24 0.999996 -80.24 4.411e-4 -145.6
8.76660000 4.454e-4 164.65 0.999996 -80.24 0.999996 -80.24 4.432e-4 -145.7
8.76670000 4.476e-4 164.78 0.999996 -80.24 0.999996 -80.24 4.454e-4 -145.9
8.76680000 4.498e-4 164.92 0.999996 -80.25 0.999996 -80.25 4.476e-4 -146.0
8.76690000 4.520e-4 165.06 0.999996 -80.25 0.999996 -80.25 4.498e-4 -146.1
8.76700000 4.542e-4 165.20 0.999996 -80.25 0.999996 -80.25 4.521e-4 -146.3
8.76710000 4.564e-4 165.33 0.999996 -80.25 0.999996 -80.25 4.543e-4 -146.4
8.76720000 4.587e-4 165.47 0.999996 -80.25 0.999996 -80.25 4.566e-4 -146.6
8.76730000 4.609e-4 165.60 0.999996 -80.25 0.999996 -80.25 4.588e-4 -146.7
8.76740000 4.632e-4 165.73 0.999996 -80.25 0.999996 -80.25 4.611e-4 -146.8
8.76750000 4.655e-4 165.87 0.999996 -80.25 0.999996 -80.25 4.634e-4 -147.0
8.76760000 4.678e-4 166.00 0.999996 -80.25 0.999996 -80.25 4.657e-4 -147.1
8.76770000 4.702e-4 166.13 0.999996 -80.26 0.999996 -80.26 4.681e-4 -147.2
8.76780000 4.725e-4 166.27 0.999996 -80.26 0.999996 -80.26 4.704e-4 -147.4
8.76790000 4.749e-4 166.40 0.999996 -80.26 0.999996 -80.26 4.728e-4 -147.5
8.76800000 4.772e-4 166.53 0.999996 -80.26 0.999996 -80.26 4.752e-4 -147.6
8.76810000 4.796e-4 166.66 0.999996 -80.26 0.999996 -80.26 4.776e-4 -147.8
8.76820000 4.820e-4 166.79 0.999996 -80.26 0.999996 -80.26 4.800e-4 -147.9
8.76830000 4.845e-4 166.92 0.999996 -80.26 0.999996 -80.26 4.824e-4 -148.0
8.76840000 4.869e-4 167.05 0.999996 -80.26 0.999996 -80.26 4.849e-4 -148.1
8.76850000 4.894e-4 167.17 0.999996 -80.26 0.999996 -80.26 4.874e-4 -148.3
8.76860000 4.919e-4 167.30 0.999996 -80.27 0.999996 -80.27 4.899e-4 -148.4
8.76870000 4.944e-4 167.43 0.999996 -80.27 0.999996 -80.27 4.924e-4 -148.5
8.76880000 4.969e-4 167.56 0.999996 -80.27 0.999996 -80.27 4.949e-4 -148.7
8.76890000 4.994e-4 167.68 0.999996 -80.27 0.999996 -80.27 4.974e-4 -148.8
8.76900000 5.019e-4 167.81 0.999996 -80.27 0.999996 -80.27 5.000e-4 -148.9
8.76910000 5.045e-4 167.93 0.999996 -80.27 0.999996 -80.27 5.026e-4 -149.0
8.76920000 5.071e-4 168.06 0.999996 -80.27 0.999996 -80.27 5.051e-4 -149.2
8.76930000 5.097e-4 168.18 0.999996 -80.27 0.999996 -80.27 5.078e-4 -149.3
8.76940000 5.123e-4 168.30 0.999996 -80.27 0.999996 -80.27 5.104e-4 -149.4
8.76950000 5.150e-4 168.43 0.999996 -80.27 0.999996 -80.27 5.130e-4 -149.5
8.76960000 5.176e-4 168.55 0.999996 -80.28 0.999996 -80.28 5.157e-4 -149.7
8.76970000 5.203e-4 168.67 0.999996 -80.28 0.999996 -80.28 5.184e-4 -149.8
8.76980000 5.230e-4 168.79 0.999996 -80.28 0.999996 -80.28 5.211e-4 -149.9
8.76990000 5.257e-4 168.91 0.999996 -80.28 0.999996 -80.28 5.238e-4 -150.0
8.77000000 5.285e-4 169.03 0.999996 -80.28 0.999996 -80.28 5.266e-4 -150.1
8.77010000 5.312e-4 169.15 0.999996 -80.28 0.999996 -80.28 5.293e-4 -150.3
8.77020000 5.340e-4 169.27 0.999996 -80.28 0.999996 -80.28 5.321e-4 -150.4
8.77030000 5.368e-4 169.39 0.999996 -80.28 0.999996 -80.28 5.349e-4 -150.5
8.77040000 5.396e-4 169.51 0.999996 -80.28 0.999996 -80.28 5.377e-4 -150.6
8.77050000 5.424e-4 169.63 0.999996 -80.29 0.999996 -80.29 5.406e-4 -150.7
8.77060000 5.453e-4 169.75 0.999996 -80.29 0.999996 -80.29 5.434e-4 -150.9
8.77070000 5.482e-4 169.86 0.999996 -80.29 0.999996 -80.29 5.463e-4 -151.0
8.77080000 5.511e-4 169.98 0.999996 -80.29 0.999996 -80.29 5.492e-4 -151.1
8.77090000 5.540e-4 170.10 0.999996 -80.29 0.999996 -80.29 5.522e-4 -151.2
8.77100000 5.569e-4 170.21 0.999996 -80.29 0.999996 -80.29 5.551e-4 -151.3
8.77110000 5.599e-4 170.33 0.999996 -80.29 0.999996 -80.29 5.581e-4 -151.4
8.77120000 5.629e-4 170.44 0.999996 -80.29 0.999996 -80.29 5.611e-4 -151.6
8.77130000 5.659e-4 170.56 0.999996 -80.29 0.999996 -80.29 5.641e-4 -151.7
8.77140000 5.689e-4 170.67 0.999996 -80.30 0.999996 -80.30 5.671e-4 -151.8
8.77150000 5.720e-4 170.78 0.999996 -80.30 0.999996 -80.30 5.702e-4 -151.9
8.77160000 5.750e-4 170.90 0.999996 -80.30 0.999996 -80.30 5.733e-4 -152.0
8.77170000 5.781e-4 171.01 0.999996 -80.30 0.999996 -80.30 5.764e-4 -152.1
8.77180000 5.812e-4 171.12 0.999996 -80.30 0.999996 -80.30 5.795e-4 -152.2
8.77190000 5.844e-4 171.23 0.999996 -80.30 0.999996 -80.30 5.826e-4 -152.3
8.77200000 5.876e-4 171.34 0.999996 -80.30 0.999996 -80.30 5.858e-4 -152.5
8.77210000 5.907e-4 171.45 0.999996 -80.30 0.999996 -80.30 5.890e-4 -152.6
8.77220000 5.940e-4 171.56 0.999996 -80.30 0.999996 -80.30 5.922e-4 -152.7
8.77230000 5.972e-4 171.67 0.999996 -80.31 0.999996 -80.31 5.955e-4 -152.8
8.77240000 6.004e-4 171.78 0.999996 -80.31 0.999996 -80.31 5.987e-4 -152.9
8.77250000 6.037e-4 171.89 0.999996 -80.31 0.999996 -80.31 6.020e-4 -153.0
8.77260000 6.070e-4 172.00 0.999996 -80.31 0.999996 -80.31 6.053e-4 -153.1
8.77270000 6.104e-4 172.11 0.999996 -80.31 0.999996 -80.31 6.087e-4 -153.2
8.77280000 6.137e-4 172.21 0.999996 -80.31 0.999996 -80.31 6.121e-4 -153.3
8.77290000 6.171e-4 172.32 0.999996 -80.31 0.999996 -80.31 6.154e-4 -153.4
8.77300000 6.205e-4 172.43 0.999996 -80.31 0.999996 -80.31 6.189e-4 -153.5
8.77310000 6.240e-4 172.53 0.999996 -80.31 0.999996 -80.31 6.223e-4 -153.7
8.77320000 6.274e-4 172.64 0.999996 -80.32 0.999996 -80.32 6.258e-4 -153.8
8.77330000 6.309e-4 172.74 0.999996 -80.32 0.999996 -80.32 6.293e-4 -153.9
8.77340000 6.344e-4 172.85 0.999996 -80.32 0.999996 -80.32 6.328e-4 -154.0
8.77350000 6.380e-4 172.95 0.999996 -80.32 0.999996 -80.32 6.364e-4 -154.1
8.77360000 6.416e-4 173.06 0.999996 -80.32 0.999996 -80.32 6.399e-4 -154.2
8.77370000 6.452e-4 173.16 0.999996 -80.32 0.999996 -80.32 6.435e-4 -154.3
8.77380000 6.488e-4 173.26 0.999996 -80.32 0.999996 -80.32 6.472e-4 -154.4
8.77390000 6.524e-4 173.36 0.999996 -80.32 0.999996 -80.32 6.508e-4 -154.5
8.77400000 6.561e-4 173.47 0.999996 -80.32 0.999996 -80.32 6.545e-4 -154.6
8.77410000 6.598e-4 173.57 0.999996 -80.33 0.999996 -80.33 6.582e-4 -154.7
8.77420000 6.636e-4 173.67 0.999996 -80.33 0.999996 -80.33 6.620e-4 -154.8
8.77430000 6.673e-4 173.77 0.999996 -80.33 0.999996 -80.33 6.658e-4 -154.9
8.77440000 6.711e-4 173.87 0.999996 -80.33 0.999996 -80.33 6.696e-4 -155.0
8.77450000 6.750e-4 173.97 0.999996 -80.33 0.999996 -80.33 6.734e-4 -155.1
8.77460000 6.788e-4 174.07 0.999996 -80.33 0.999996 -80.33 6.773e-4 -155.2
8.77470000 6.827e-4 174.17 0.999996 -80.33 0.999996 -80.33 6.812e-4 -155.3
8.77480000 6.866e-4 174.27 0.999996 -80.33 0.999996 -80.33 6.851e-4 -155.4
8.77490000 6.906e-4 174.37 0.999996 -80.33 0.999996 -80.33 6.890e-4 -155.5
8.77500000 6.946e-4 174.46 0.999996 -80.34 0.999996 -80.34 6.930e-4 -155.6
8.77510000 6.986e-4 174.56 0.999996 -80.34 0.999996 -80.34 6.971e-4 -155.7
8.77520000 7.026e-4 174.66 0.999996 -80.34 0.999996 -80.34 7.011e-4 -155.8
8.77530000 7.067e-4 174.76 0.999996 -80.34 0.999996 -80.34 7.052e-4 -155.9
8.77540000 7.108e-4 174.85 0.999996 -80.34 0.999996 -80.34 7.093e-4 -156.0
8.77550000 7.150e-4 174.95 0.999996 -80.34 0.999996 -80.34 7.135e-4 -156.1
8.77560000 7.192e-4 175.04 0.999996 -80.34 0.999996 -80.34 7.177e-4 -156.2
8.77570000 7.234e-4 175.14 0.999996 -80.34 0.999996 -80.34 7.219e-4 -156.3
8.77580000 7.276e-4 175.23 0.999996 -80.35 0.999996 -80.35 7.261e-4 -156.4
8.77590000 7.319e-4 175.33 0.999996 -80.35 0.999996 -80.35 7.304e-4 -156.5
8.77600000 7.362e-4 175.42 0.999996 -80.35 0.999996 -80.35 7.348e-4 -156.6
8.77610000 7.406e-4 175.52 0.999996 -80.35 0.999996 -80.35 7.391e-4 -156.7
8.77620000 7.450e-4 175.61 0.999996 -80.35 0.999996 -80.35 7.435e-4 -156.8
8.77630000 7.494e-4 175.70 0.999995 -80.35 0.999995 -80.35 7.480e-4 -156.8
8.77640000 7.539e-4 175.79 0.999995 -80.35 0.999995 -80.35 7.524e-4 -156.9
8.77650000 7.584e-4 175.89 0.999995 -80.35 0.999995 -80.35 7.569e-4 -157.0
8.77660000 7.629e-4 175.98 0.999995 -80.35 0.999995 -80.35 7.615e-4 -157.1
8.77670000 7.675e-4 176.07 0.999995 -80.36 0.999995 -80.36 7.661e-4 -157.2
8.77680000 7.721e-4 176.16 0.999995 -80.36 0.999995 -80.36 7.707e-4 -157.3
8.77690000 7.768e-4 176.25 0.999995 -80.36 0.999995 -80.36 7.753e-4 -157.4
8.77700000 7.815e-4 176.34 0.999995 -80.36 0.999995 -80.36 7.800e-4 -157.5
8.77710000 7.862e-4 176.43 0.999995 -80.36 0.999995 -80.36 7.848e-4 -157.6
8.77720000 7.910e-4 176.52 0.999995 -80.36 0.999995 -80.36 7.896e-4 -157.7
8.77730000 7.958e-4 176.61 0.999995 -80.36 0.999995 -80.36 7.944e-4 -157.8
8.77740000 8.007e-4 176.70 0.999995 -80.36 0.999995 -80.36 7.993e-4 -157.9
8.77750000 8.056e-4 176.79 0.999995 -80.37 0.999995 -80.37 8.042e-4 -157.9
8.77760000 8.105e-4 176.88 0.999995 -80.37 0.999995 -80.37 8.091e-4 -158.0
8.77770000 8.155e-4 176.96 0.999995 -80.37 0.999995 -80.37 8.141e-4 -158.1
8.77780000 8.205e-4 177.05 0.999995 -80.37 0.999995 -80.37 8.191e-4 -158.2
8.77790000 8.256e-4 177.14 0.999995 -80.37 0.999995 -80.37 8.242e-4 -158.3
8.77800000 8.307e-4 177.22 0.999995 -80.37 0.999995 -80.37 8.293e-4 -158.4
8.77810000 8.359e-4 177.31 0.999995 -80.37 0.999995 -80.37 8.345e-4 -158.5
8.77820000 8.411e-4 177.40 0.999995 -80.37 0.999995 -80.37 8.397e-4 -158.6
8.77830000 8.463e-4 177.48 0.999995 -80.38 0.999995 -80.38 8.450e-4 -158.6
8.77840000 8.516e-4 177.57 0.999995 -80.38 0.999995 -80.38 8.503e-4 -158.7
8.77850000 8.570e-4 177.65 0.999995 -80.38 0.999995 -80.38 8.557e-4 -158.8
8.77860000 8.624e-4 177.74 0.999995 -80.38 0.999995 -80.38 8.611e-4 -158.9
8.77870000 8.678e-4 177.82 0.999995 -80.38 0.999995 -80.38 8.665e-4 -159.0
8.77880000 8.733e-4 177.91 0.999995 -80.38 0.999995 -80.38 8.720e-4 -159.1
8.77890000 8.789e-4 177.99 0.999995 -80.38 0.999995 -80.38 8.776e-4 -159.2
8.77900000 8.845e-4 178.07 0.999995 -80.38 0.999995 -80.38 8.832e-4 -159.2
8.77910000 8.901e-4 178.16 0.999995 -80.38 0.999995 -80.38 8.888e-4 -159.3
8.77920000 8.958e-4 178.24 0.999995 -80.39 0.999995 -80.39 8.945e-4 -159.4
8.77930000 9.016e-4 178.32 0.999995 -80.39 0.999995 -80.39 9.003e-4 -159.5
8.77940000 9.074e-4 178.40 0.999995 -80.39 0.999995 -80.39 9.061e-4 -159.6
8.77950000 9.133e-4 178.48 0.999995 -80.39 0.999995 -80.39 9.120e-4 -159.7
8.77960000 9.192e-4 178.57 0.999995 -80.39 0.999995 -80.39 9.179e-4 -159.7
8.77970000 9.251e-4 178.65 0.999995 -80.39 0.999995 -80.39 9.239e-4 -159.8
8.77980000 9.312e-4 178.73 0.999995 -80.39 0.999995 -80.39 9.299e-4 -159.9
8.77990000 9.373e-4 178.81 0.999995 -80.40 0.999995 -80.40 9.360e-4 -160.0
8.78000000 9.434e-4 178.89 0.999995 -80.40 0.999995 -80.40 9.421e-4 -160.1
8.78010000 9.496e-4 178.97 0.999995 -80.40 0.999995 -80.40 9.483e-4 -160.2
8.78020000 9.559e-4 179.05 0.999995 -80.40 0.999995 -80.40 9.546e-4 -160.2
8.78030000 9.622e-4 179.13 0.999995 -80.40 0.999995 -80.40 9.609e-4 -160.3
8.78040000 9.686e-4 179.20 0.999995 -80.40 0.999995 -80.40 9.673e-4 -160.4
8.78050000 9.750e-4 179.28 0.999995 -80.40 0.999995 -80.40 9.738e-4 -160.5
8.78060000 9.815e-4 179.36 0.999995 -80.40 0.999995 -80.40 9.803e-4 -160.6
8.78070000 9.881e-4 179.44 0.999995 -80.41 0.999995 -80.41 9.869e-4 -160.6
8.78080000 9.947e-4 179.52 0.999995 -80.41 0.999995 -80.41 9.935e-4 -160.7
8.78090000 0.001001 179.59 0.999995 -80.41 0.999995 -80.41 0.001000 -160.8
8.78100000 0.001008 179.67 0.999995 -80.41 0.999995 -80.41 0.001007 -160.9
8.78110000 0.001015 179.75 0.999995 -80.41 0.999995 -80.41 0.001014 -160.9
8.78120000 0.001022 179.82 0.999995 -80.41 0.999995 -80.41 0.001021 -161.0
8.78130000 0.001029 179.90 0.999995 -80.41 0.999995 -80.41 0.001028 -161.1
8.78140000 0.001036 179.97 0.999995 -80.41 0.999995 -80.41 0.001035 -161.2
8.78150000 0.001043 -180.0 0.999995 -80.42 0.999995 -80.42 0.001042 -161.3
8.78160000 0.001050 -179.9 0.999995 -80.42 0.999995 -80.42 0.001049 -161.3
8.78170000 0.001058 -179.8 0.999995 -80.42 0.999995 -80.42 0.001056 -161.4
8.78180000 0.001065 -179.7 0.999995 -80.42 0.999995 -80.42 0.001064 -161.5
8.78190000 0.001072 -179.7 0.999995 -80.42 0.999995 -80.42 0.001071 -161.6
8.78200000 0.001080 -179.6 0.999995 -80.42 0.999995 -80.42 0.001079 -161.6
8.78210000 0.001087 -179.5 0.999995 -80.42 0.999995 -80.42 0.001086 -161.7
8.78220000 0.001095 -179.4 0.999995 -80.43 0.999995 -80.43 0.001094 -161.8
8.78230000 0.001103 -179.4 0.999995 -80.43 0.999995 -80.43 0.001102 -161.9
8.78240000 0.001110 -179.3 0.999995 -80.43 0.999995 -80.43 0.001109 -161.9
8.78250000 0.001118 -179.2 0.999995 -80.43 0.999995 -80.43 0.001117 -162.0
8.78260000 0.001126 -179.1 0.999994 -80.43 0.999994 -80.43 0.001125 -162.1
8.78270000 0.001134 -179.1 0.999994 -80.43 0.999994 -80.43 0.001133 -162.2
8.78280000 0.001143 -179.0 0.999994 -80.43 0.999994 -80.43 0.001141 -162.2
8.78290000 0.001151 -178.9 0.999994 -80.43 0.999994 -80.43 0.001150 -162.3
8.78300000 0.001159 -178.9 0.999994 -80.44 0.999994 -80.44 0.001158 -162.4
8.78310000 0.001168 -178.8 0.999994 -80.44 0.999994 -80.44 0.001166 -162.5
8.78320000 0.001176 -178.7 0.999994 -80.44 0.999994 -80.44 0.001175 -162.5
8.78330000 0.001185 -178.6 0.999994 -80.44 0.999994 -80.44 0.001184 -162.6
8.78340000 0.001193 -178.6 0.999994 -80.44 0.999994 -80.44 0.001192 -162.7
8.78350000 0.001202 -178.5 0.999994 -80.44 0.999994 -80.44 0.001201 -162.7
8.78360000 0.001211 -178.4 0.999994 -80.44 0.999994 -80.44 0.001210 -162.8
8.78370000 0.001220 -178.4 0.999994 -80.45 0.999994 -80.45 0.001219 -162.9
8.78380000 0.001229 -178.3 0.999994 -80.45 0.999994 -80.45 0.001228 -163.0
8.78390000 0.001238 -178.2 0.999994 -80.45 0.999994 -80.45 0.001237 -163.0
8.78400000 0.001248 -178.2 0.999994 -80.45 0.999994 -80.45 0.001247 -163.1
8.78410000 0.001257 -178.1 0.999994 -80.45 0.999994 -80.45 0.001256 -163.2
8.78420000 0.001267 -178.0 0.999994 -80.45 0.999994 -80.45 0.001265 -163.2
8.78430000 0.001276 -178.0 0.999994 -80.45 0.999994 -80.45 0.001275 -163.3
8.78440000 0.001286 -177.9 0.999994 -80.46 0.999994 -80.46 0.001285 -163.4
8.78450000 0.001296 -177.8 0.999994 -80.46 0.999994 -80.46 0.001295 -163.4
8.78460000 0.001306 -177.8 0.999994 -80.46 0.999994 -80.46 0.001305 -163.5
8.78470000 0.001316 -177.7 0.999994 -80.46 0.999994 -80.46 0.001315 -163.6
8.78480000 0.001326 -177.6 0.999994 -80.46 0.999994 -80.46 0.001325 -163.6
8.78490000 0.001336 -177.6 0.999994 -80.46 0.999994 -80.46 0.001335 -163.7
8.78500000 0.001347 -177.5 0.999994 -80.47 0.999994 -80.47 0.001346 -163.8
8.78510000 0.001357 -177.4 0.999994 -80.47 0.999994 -80.47 0.001356 -163.9
8.78520000 0.001368 -177.4 0.999994 -80.47 0.999994 -80.47 0.001367 -163.9
8.78530000 0.001379 -177.3 0.999994 -80.47 0.999994 -80.47 0.001378 -164.0
8.78540000 0.001390 -177.2 0.999994 -80.47 0.999994 -80.47 0.001389 -164.1
8.78550000 0.001401 -177.2 0.999994 -80.47 0.999994 -80.47 0.001400 -164.1
8.78560000 0.001412 -177.1 0.999994 -80.47 0.999994 -80.47 0.001411 -164.2
8.78570000 0.001424 -177.0 0.999993 -80.48 0.999993 -80.48 0.001423 -164.3
8.78580000 0.001435 -177.0 0.999993 -80.48 0.999993 -80.48 0.001434 -164.3
8.78590000 0.001447 -176.9 0.999993 -80.48 0.999993 -80.48 0.001446 -164.4
8.78600000 0.001459 -176.9 0.999993 -80.48 0.999993 -80.48 0.001458 -164.5
8.78610000 0.001471 -176.8 0.999993 -80.48 0.999993 -80.48 0.001470 -164.5
8.78620000 0.001483 -176.7 0.999993 -80.48 0.999993 -80.48 0.001482 -164.6
8.78630000 0.001495 -176.7 0.999993 -80.49 0.999993 -80.49 0.001494 -164.6
8.78640000 0.001508 -176.6 0.999993 -80.49 0.999993 -80.49 0.001507 -164.7
8.78650000 0.001521 -176.5 0.999993 -80.49 0.999993 -80.49 0.001520 -164.8
8.78660000 0.001533 -176.5 0.999993 -80.49 0.999993 -80.49 0.001532 -164.8
8.78670000 0.001546 -176.4 0.999993 -80.49 0.999993 -80.49 0.001545 -164.9
8.78680000 0.001560 -176.4 0.999993 -80.49 0.999993 -80.49 0.001558 -165.0
8.78690000 0.001573 -176.3 0.999993 -80.50 0.999993 -80.50 0.001572 -165.0
8.78700000 0.001586 -176.2 0.999993 -80.50 0.999993 -80.50 0.001585 -165.1
8.78710000 0.001600 -176.2 0.999993 -80.50 0.999993 -80.50 0.001599 -165.2
8.78720000 0.001614 -176.1 0.999993 -80.50 0.999993 -80.50 0.001613 -165.2
8.78730000 0.001628 -176.1 0.999993 -80.50 0.999993 -80.50 0.001627 -165.3
8.78740000 0.001642 -176.0 0.999993 -80.50 0.999993 -80.50 0.001641 -165.3
8.78750000 0.001657 -175.9 0.999993 -80.51 0.999993 -80.51 0.001656 -165.4
8.78760000 0.001672 -175.9 0.999992 -80.51 0.999992 -80.51 0.001671 -165.5
8.78770000 0.001687 -175.8 0.999992 -80.51 0.999992 -80.51 0.001686 -165.5
8.78780000 0.001702 -175.8 0.999992 -80.51 0.999992 -80.51 0.001701 -165.6
8.78790000 0.001717 -175.7 0.999992 -80.51 0.999992 -80.51 0.001716 -165.7
8.78800000 0.001733 -175.6 0.999992 -80.52 0.999992 -80.52 0.001732 -165.7
8.78810000 0.001748 -175.6 0.999992 -80.52 0.999992 -80.52 0.001747 -165.8
8.78820000 0.001764 -175.5 0.999992 -80.52 0.999992 -80.52 0.001763 -165.8
8.78830000 0.001781 -175.5 0.999992 -80.52 0.999992 -80.52 0.001780 -165.9
8.78840000 0.001797 -175.4 0.999992 -80.52 0.999992 -80.52 0.001796 -166.0
8.78850000 0.001814 -175.4 0.999992 -80.52 0.999992 -80.52 0.001813 -166.0
8.78860000 0.001831 -175.3 0.999992 -80.53 0.999992 -80.53 0.001830 -166.1
8.78870000 0.001848 -175.2 0.999992 -80.53 0.999992 -80.53 0.001847 -166.1
8.78880000 0.001866 -175.2 0.999992 -80.53 0.999992 -80.53 0.001865 -166.2
8.78890000 0.001884 -175.1 0.999992 -80.53 0.999992 -80.53 0.001883 -166.3
8.78900000 0.001902 -175.1 0.999991 -80.53 0.999991 -80.53 0.001901 -166.3
8.78910000 0.001920 -175.0 0.999991 -80.54 0.999991 -80.54 0.001919 -166.4