! Sonnet Data File
! From: emgraph Version : 16.52
! From Emgraph Data: Qubit_Test_beforeopt
! Data File Written: 10/17/2017 16:50:24
!< HDATE 10/17/2017 14:53:42
!< MDATE 10/17/2017 15:05:37
!< PARAMS
!< Lj = 11.0
!< Gap = 6.0
!< Pwid = 2000.0
!< Airgap = 6.000000259
!< Width = 10.0
!< Airgap_1 = 6.000061273
!< END PARAMS
# GHZ S MA R 51.80000
6.00000000 0.002678 54.095 0.999994 -54.92 0.999994 -54.92 0.002677 16.138
!< P1 F=6.0 Eeff=(6.44816627 -3.029e-5) Z0=(51.8053416 1.16625e-4) R=0.04413035 C=0.00303744 
!< P2 F=6.0 Eeff=(6.44816627 -3.029e-5) Z0=(51.8053416 1.16625e-4) R=0.04413035 C=0.00303744 
6.00100000 0.002678 54.089 0.999994 -54.93 0.999994 -54.93 0.002677 16.125
6.00200000 0.002678 54.083 0.999994 -54.94 0.999994 -54.94 0.002677 16.111
6.00300000 0.002679 54.077 0.999994 -54.95 0.999994 -54.95 0.002678 16.098
6.00400000 0.002679 54.071 0.999994 -54.96 0.999994 -54.96 0.002678 16.085
6.00500000 0.002679 54.064 0.999994 -54.97 0.999994 -54.97 0.002678 16.072
6.00600000 0.002680 54.058 0.999994 -54.98 0.999994 -54.98 0.002679 16.058
6.00700000 0.002680 54.052 0.999994 -54.98 0.999994 -54.98 0.002679 16.045
6.00800000 0.002681 54.046 0.999994 -54.99 0.999994 -54.99 0.002679 16.032
6.00900000 0.002681 54.040 0.999994 -55.00 0.999994 -55.00 0.002680 16.019
6.01000000 0.002681 54.034 0.999994 -55.01 0.999994 -55.01 0.002680 16.005
6.01100000 0.002682 54.028 0.999994 -55.02 0.999994 -55.02 0.002680 15.992
6.01200000 0.002682 54.022 0.999994 -55.03 0.999994 -55.03 0.002681 15.979
6.01300000 0.002682 54.016 0.999994 -55.04 0.999994 -55.04 0.002681 15.966
6.01400000 0.002683 54.010 0.999994 -55.05 0.999994 -55.05 0.002682 15.953
6.01500000 0.002683 54.004 0.999994 -55.06 0.999994 -55.06 0.002682 15.939
6.01600000 0.002683 53.998 0.999994 -55.07 0.999994 -55.07 0.002682 15.926
6.01700000 0.002684 53.992 0.999994 -55.08 0.999994 -55.08 0.002683 15.913
6.01800000 0.002684 53.985 0.999994 -55.09 0.999994 -55.09 0.002683 15.900
6.01900000 0.002684 53.979 0.999994 -55.09 0.999994 -55.09 0.002683 15.887
6.02000000 0.002685 53.973 0.999994 -55.10 0.999994 -55.10 0.002684 15.874
6.02100000 0.002685 53.967 0.999994 -55.11 0.999994 -55.11 0.002684 15.860
6.02200000 0.002685 53.961 0.999994 -55.12 0.999994 -55.12 0.002684 15.847
6.02300000 0.002686 53.955 0.999994 -55.13 0.999994 -55.13 0.002685 15.834
6.02400000 0.002686 53.949 0.999994 -55.14 0.999994 -55.14 0.002685 15.821
6.02500000 0.002687 53.943 0.999994 -55.15 0.999994 -55.15 0.002685 15.808
6.02600000 0.002687 53.937 0.999994 -55.16 0.999994 -55.16 0.002686 15.795
6.02700000 0.002687 53.931 0.999994 -55.17 0.999994 -55.17 0.002686 15.782
6.02800000 0.002688 53.925 0.999994 -55.18 0.999994 -55.18 0.002687 15.768
6.02900000 0.002688 53.919 0.999994 -55.19 0.999994 -55.19 0.002687 15.755
6.03000000 0.002688 53.913 0.999994 -55.19 0.999994 -55.19 0.002687 15.742
6.03100000 0.002689 53.907 0.999993 -55.20 0.999993 -55.20 0.002688 15.729
6.03200000 0.002689 53.901 0.999993 -55.21 0.999993 -55.21 0.002688 15.716
6.03300000 0.002689 53.895 0.999993 -55.22 0.999993 -55.22 0.002688 15.703
6.03400000 0.002690 53.889 0.999993 -55.23 0.999993 -55.23 0.002689 15.690
6.03500000 0.002690 53.883 0.999993 -55.24 0.999993 -55.24 0.002689 15.677
6.03600000 0.002690 53.877 0.999993 -55.25 0.999993 -55.25 0.002689 15.664
6.03700000 0.002691 53.871 0.999993 -55.26 0.999993 -55.26 0.002690 15.650
6.03800000 0.002691 53.865 0.999993 -55.27 0.999993 -55.27 0.002690 15.637
6.03900000 0.002691 53.859 0.999993 -55.28 0.999993 -55.28 0.002690 15.624
6.04000000 0.002692 53.853 0.999993 -55.29 0.999993 -55.29 0.002691 15.611
6.04100000 0.002692 53.847 0.999993 -55.30 0.999993 -55.30 0.002691 15.598
6.04200000 0.002693 53.841 0.999993 -55.30 0.999993 -55.30 0.002692 15.585
6.04300000 0.002693 53.835 0.999993 -55.31 0.999993 -55.31 0.002692 15.572
6.04400000 0.002693 53.829 0.999993 -55.32 0.999993 -55.32 0.002692 15.559
6.04500000 0.002694 53.823 0.999993 -55.33 0.999993 -55.33 0.002693 15.546
6.04600000 0.002694 53.817 0.999993 -55.34 0.999993 -55.34 0.002693 15.533
6.04700000 0.002694 53.811 0.999993 -55.35 0.999993 -55.35 0.002693 15.520
6.04800000 0.002695 53.805 0.999993 -55.36 0.999993 -55.36 0.002694 15.507
6.04900000 0.002695 53.799 0.999993 -55.37 0.999993 -55.37 0.002694 15.494
6.05000000 0.002695 53.794 0.999993 -55.38 0.999993 -55.38 0.002694 15.481
6.05100000 0.002696 53.788 0.999993 -55.39 0.999993 -55.39 0.002695 15.467
6.05200000 0.002696 53.782 0.999993 -55.40 0.999993 -55.40 0.002695 15.454
6.05300000 0.002696 53.776 0.999993 -55.41 0.999993 -55.41 0.002695 15.441
6.05400000 0.002697 53.770 0.999993 -55.41 0.999993 -55.41 0.002696 15.428
6.05500000 0.002697 53.764 0.999993 -55.42 0.999993 -55.42 0.002696 15.415
6.05600000 0.002697 53.758 0.999993 -55.43 0.999993 -55.43 0.002696 15.402
6.05700000 0.002698 53.752 0.999993 -55.44 0.999993 -55.44 0.002697 15.389
6.05800000 0.002698 53.746 0.999993 -55.45 0.999993 -55.45 0.002697 15.376
6.05900000 0.002699 53.740 0.999993 -55.46 0.999993 -55.46 0.002698 15.363
6.06000000 0.002699 53.734 0.999993 -55.47 0.999993 -55.47 0.002698 15.350
6.06100000 0.002699 53.728 0.999993 -55.48 0.999993 -55.48 0.002698 15.337
6.06200000 0.002700 53.722 0.999993 -55.49 0.999993 -55.49 0.002699 15.324
6.06300000 0.002700 53.716 0.999993 -55.50 0.999993 -55.50 0.002699 15.311
6.06400000 0.002700 53.711 0.999993 -55.51 0.999993 -55.51 0.002699 15.298
6.06500000 0.002701 53.705 0.999993 -55.52 0.999993 -55.52 0.002700 15.285
6.06600000 0.002701 53.699 0.999993 -55.52 0.999993 -55.52 0.002700 15.272
6.06700000 0.002701 53.693 0.999993 -55.53 0.999993 -55.53 0.002700 15.259
6.06800000 0.002702 53.687 0.999993 -55.54 0.999993 -55.54 0.002701 15.246
6.06900000 0.002702 53.681 0.999993 -55.55 0.999993 -55.55 0.002701 15.233
6.07000000 0.002702 53.675 0.999993 -55.56 0.999993 -55.56 0.002701 15.220
6.07100000 0.002703 53.669 0.999993 -55.57 0.999993 -55.57 0.002702 15.207
6.07200000 0.002703 53.663 0.999993 -55.58 0.999993 -55.58 0.002702 15.194
6.07300000 0.002703 53.658 0.999993 -55.59 0.999993 -55.59 0.002703 15.181
6.07400000 0.002704 53.652 0.999993 -55.60 0.999993 -55.60 0.002703 15.169
6.07500000 0.002704 53.646 0.999993 -55.61 0.999993 -55.61 0.002703 15.156
6.07600000 0.002705 53.640 0.999993 -55.62 0.999993 -55.62 0.002704 15.143
6.07700000 0.002705 53.634 0.999993 -55.63 0.999993 -55.63 0.002704 15.130
6.07800000 0.002705 53.628 0.999993 -55.63 0.999993 -55.63 0.002704 15.117
6.07900000 0.002706 53.622 0.999993 -55.64 0.999993 -55.64 0.002705 15.104
6.08000000 0.002706 53.616 0.999993 -55.65 0.999993 -55.65 0.002705 15.091
6.08100000 0.002706 53.611 0.999993 -55.66 0.999993 -55.66 0.002705 15.078
6.08200000 0.002707 53.605 0.999993 -55.67 0.999993 -55.67 0.002706 15.065
6.08300000 0.002707 53.599 0.999993 -55.68 0.999993 -55.68 0.002706 15.052
6.08400000 0.002707 53.593 0.999993 -55.69 0.999993 -55.69 0.002706 15.039
6.08500000 0.002708 53.587 0.999993 -55.70 0.999993 -55.70 0.002707 15.026
6.08600000 0.002708 53.581 0.999993 -55.71 0.999993 -55.71 0.002707 15.013
6.08700000 0.002708 53.575 0.999993 -55.72 0.999993 -55.72 0.002708 15.000
6.08800000 0.002709 53.570 0.999993 -55.73 0.999993 -55.73 0.002708 14.987
6.08900000 0.002709 53.564 0.999993 -55.73 0.999993 -55.73 0.002708 14.975
6.09000000 0.002709 53.558 0.999993 -55.74 0.999993 -55.74 0.002709 14.962
6.09100000 0.002710 53.552 0.999993 -55.75 0.999993 -55.75 0.002709 14.949
6.09200000 0.002710 53.546 0.999993 -55.76 0.999993 -55.76 0.002709 14.936
6.09300000 0.002711 53.540 0.999993 -55.77 0.999993 -55.77 0.002710 14.923
6.09400000 0.002711 53.535 0.999993 -55.78 0.999993 -55.78 0.002710 14.910
6.09500000 0.002711 53.529 0.999993 -55.79 0.999993 -55.79 0.002710 14.897
6.09600000 0.002712 53.523 0.999993 -55.80 0.999993 -55.80 0.002711 14.884
6.09700000 0.002712 53.517 0.999993 -55.81 0.999993 -55.81 0.002711 14.871
6.09800000 0.002712 53.511 0.999993 -55.82 0.999993 -55.82 0.002711 14.858
6.09900000 0.002713 53.506 0.999993 -55.83 0.999993 -55.83 0.002712 14.846
6.10000000 0.002713 53.500 0.999993 -55.84 0.999993 -55.84 0.002712 14.833
6.10100000 0.002713 53.494 0.999993 -55.84 0.999993 -55.84 0.002712 14.820
6.10200000 0.002714 53.488 0.999993 -55.85 0.999993 -55.85 0.002713 14.807
6.10300000 0.002714 53.482 0.999993 -55.86 0.999993 -55.86 0.002713 14.794
6.10400000 0.002714 53.476 0.999992 -55.87 0.999992 -55.87 0.002714 14.781
6.10500000 0.002715 53.471 0.999992 -55.88 0.999992 -55.88 0.002714 14.768
6.10600000 0.002715 53.465 0.999992 -55.89 0.999992 -55.89 0.002714 14.756
6.10700000 0.002715 53.459 0.999992 -55.90 0.999992 -55.90 0.002715 14.743
6.10800000 0.002716 53.453 0.999992 -55.91 0.999992 -55.91 0.002715 14.730
6.10900000 0.002716 53.448 0.999992 -55.92 0.999992 -55.92 0.002715 14.717
6.11000000 0.002717 53.442 0.999992 -55.93 0.999992 -55.93 0.002716 14.704
6.11100000 0.002717 53.436 0.999992 -55.94 0.999992 -55.94 0.002716 14.691
6.11200000 0.002717 53.430 0.999992 -55.95 0.999992 -55.95 0.002716 14.678
6.11300000 0.002718 53.424 0.999992 -55.95 0.999992 -55.95 0.002717 14.666
6.11400000 0.002718 53.419 0.999992 -55.96 0.999992 -55.96 0.002717 14.653
6.11500000 0.002718 53.413 0.999992 -55.97 0.999992 -55.97 0.002717 14.640
6.11600000 0.002719 53.407 0.999992 -55.98 0.999992 -55.98 0.002718 14.627
6.11700000 0.002719 53.401 0.999992 -55.99 0.999992 -55.99 0.002718 14.614
6.11800000 0.002719 53.395 0.999992 -56.00 0.999992 -56.00 0.002719 14.601
6.11900000 0.002720 53.390 0.999992 -56.01 0.999992 -56.01 0.002719 14.589
6.12000000 0.002720 53.384 0.999992 -56.02 0.999992 -56.02 0.002719 14.576
6.12100000 0.002720 53.378 0.999992 -56.03 0.999992 -56.03 0.002720 14.563
6.12200000 0.002721 53.372 0.999992 -56.04 0.999992 -56.04 0.002720 14.550
6.12300000 0.002721 53.367 0.999992 -56.05 0.999992 -56.05 0.002720 14.537
6.12400000 0.002721 53.361 0.999992 -56.06 0.999992 -56.06 0.002721 14.525
6.12500000 0.002722 53.355 0.999992 -56.06 0.999992 -56.06 0.002721 14.512
6.12600000 0.002722 53.349 0.999992 -56.07 0.999992 -56.07 0.002721 14.499
6.12700000 0.002723 53.344 0.999992 -56.08 0.999992 -56.08 0.002722 14.486
6.12800000 0.002723 53.338 0.999992 -56.09 0.999992 -56.09 0.002722 14.473
6.12900000 0.002723 53.332 0.999992 -56.10 0.999992 -56.10 0.002722 14.461
6.13000000 0.002724 53.326 0.999992 -56.11 0.999992 -56.11 0.002723 14.448
6.13100000 0.002724 53.321 0.999992 -56.12 0.999992 -56.12 0.002723 14.435
6.13200000 0.002724 53.315 0.999992 -56.13 0.999992 -56.13 0.002724 14.422
6.13300000 0.002725 53.309 0.999992 -56.14 0.999992 -56.14 0.002724 14.409
6.13400000 0.002725 53.303 0.999992 -56.15 0.999992 -56.15 0.002724 14.397
6.13500000 0.002725 53.298 0.999992 -56.16 0.999992 -56.16 0.002725 14.384
6.13600000 0.002726 53.292 0.999992 -56.16 0.999992 -56.16 0.002725 14.371
6.13700000 0.002726 53.286 0.999992 -56.17 0.999992 -56.17 0.002725 14.358
6.13800000 0.002726 53.281 0.999992 -56.18 0.999992 -56.18 0.002726 14.346
6.13900000 0.002727 53.275 0.999992 -56.19 0.999992 -56.19 0.002726 14.333
6.14000000 0.002727 53.269 0.999992 -56.20 0.999992 -56.20 0.002726 14.320
6.14100000 0.002728 53.263 0.999992 -56.21 0.999992 -56.21 0.002727 14.307
6.14200000 0.002728 53.258 0.999992 -56.22 0.999992 -56.22 0.002727 14.294
6.14300000 0.002728 53.252 0.999992 -56.23 0.999992 -56.23 0.002727 14.282
6.14400000 0.002729 53.246 0.999992 -56.24 0.999992 -56.24 0.002728 14.269
6.14500000 0.002729 53.241 0.999992 -56.25 0.999992 -56.25 0.002728 14.256
6.14600000 0.002729 53.235 0.999992 -56.26 0.999992 -56.26 0.002728 14.243
6.14700000 0.002730 53.229 0.999992 -56.27 0.999992 -56.27 0.002729 14.231
6.14800000 0.002730 53.223 0.999992 -56.27 0.999992 -56.27 0.002729 14.218
6.14900000 0.002730 53.218 0.999992 -56.28 0.999992 -56.28 0.002730 14.205
6.15000000 0.002731 53.212 0.999992 -56.29 0.999992 -56.29 0.002730 14.192
6.15100000 0.002731 53.206 0.999992 -56.30 0.999992 -56.30 0.002730 14.180
6.15200000 0.002731 53.201 0.999992 -56.31 0.999992 -56.31 0.002731 14.167
6.15300000 0.002732 53.195 0.999992 -56.32 0.999992 -56.32 0.002731 14.154
6.15400000 0.002732 53.189 0.999992 -56.33 0.999992 -56.33 0.002731 14.141
6.15500000 0.002732 53.183 0.999992 -56.34 0.999992 -56.34 0.002732 14.129
6.15600000 0.002733 53.178 0.999992 -56.35 0.999992 -56.35 0.002732 14.116
6.15700000 0.002733 53.172 0.999992 -56.36 0.999992 -56.36 0.002732 14.103
6.15800000 0.002734 53.166 0.999992 -56.37 0.999992 -56.37 0.002733 14.091
6.15900000 0.002734 53.161 0.999992 -56.38 0.999992 -56.38 0.002733 14.078
6.16000000 0.002734 53.155 0.999992 -56.38 0.999992 -56.38 0.002733 14.065
6.16100000 0.002735 53.149 0.999992 -56.39 0.999992 -56.39 0.002734 14.052
6.16200000 0.002735 53.144 0.999992 -56.40 0.999992 -56.40 0.002734 14.040
6.16300000 0.002735 53.138 0.999992 -56.41 0.999992 -56.41 0.002735 14.027
6.16400000 0.002736 53.132 0.999992 -56.42 0.999992 -56.42 0.002735 14.014
6.16500000 0.002736 53.127 0.999992 -56.43 0.999992 -56.43 0.002735 14.002
6.16600000 0.002736 53.121 0.999992 -56.44 0.999992 -56.44 0.002736 13.989
6.16700000 0.002737 53.115 0.999992 -56.45 0.999992 -56.45 0.002736 13.976
6.16800000 0.002737 53.110 0.999992 -56.46 0.999992 -56.46 0.002736 13.963
6.16900000 0.002737 53.104 0.999992 -56.47 0.999992 -56.47 0.002737 13.951
6.17000000 0.002738 53.098 0.999992 -56.48 0.999992 -56.48 0.002737 13.938
6.17100000 0.002738 53.093 0.999992 -56.49 0.999992 -56.49 0.002737 13.925
6.17200000 0.002739 53.087 0.999992 -56.49 0.999992 -56.49 0.002738 13.913
6.17300000 0.002739 53.081 0.999992 -56.50 0.999992 -56.50 0.002738 13.900
6.17400000 0.002739 53.076 0.999992 -56.51 0.999992 -56.51 0.002738 13.887
6.17500000 0.002740 53.070 0.999992 -56.52 0.999992 -56.52 0.002739 13.875
6.17600000 0.002740 53.064 0.999992 -56.53 0.999992 -56.53 0.002739 13.862
6.17700000 0.002740 53.059 0.999992 -56.54 0.999992 -56.54 0.002739 13.849
6.17800000 0.002741 53.053 0.999992 -56.55 0.999992 -56.55 0.002740 13.837
6.17900000 0.002741 53.047 0.999992 -56.56 0.999992 -56.56 0.002740 13.824
6.18000000 0.002741 53.042 0.999992 -56.57 0.999992 -56.57 0.002741 13.811
6.18100000 0.002742 53.036 0.999992 -56.58 0.999992 -56.58 0.002741 13.799
6.18200000 0.002742 53.030 0.999992 -56.59 0.999992 -56.59 0.002741 13.786
6.18300000 0.002742 53.025 0.999992 -56.60 0.999992 -56.60 0.002742 13.773
6.18400000 0.002743 53.019 0.999992 -56.60 0.999992 -56.60 0.002742 13.761
6.18500000 0.002743 53.014 0.999992 -56.61 0.999992 -56.61 0.002742 13.748
6.18600000 0.002743 53.008 0.999992 -56.62 0.999992 -56.62 0.002743 13.735
6.18700000 0.002744 53.002 0.999992 -56.63 0.999992 -56.63 0.002743 13.723
6.18800000 0.002744 52.997 0.999992 -56.64 0.999992 -56.64 0.002743 13.710
6.18900000 0.002745 52.991 0.999992 -56.65 0.999992 -56.65 0.002744 13.697
6.19000000 0.002745 52.985 0.999992 -56.66 0.999992 -56.66 0.002744 13.685
6.19100000 0.002745 52.980 0.999992 -56.67 0.999992 -56.67 0.002744 13.672
6.19200000 0.002746 52.974 0.999992 -56.68 0.999992 -56.68 0.002745 13.659
6.19300000 0.002746 52.968 0.999992 -56.69 0.999992 -56.69 0.002745 13.647
6.19400000 0.002746 52.963 0.999992 -56.70 0.999992 -56.70 0.002746 13.634
6.19500000 0.002747 52.957 0.999992 -56.70 0.999992 -56.70 0.002746 13.621
6.19600000 0.002747 52.952 0.999992 -56.71 0.999992 -56.71 0.002746 13.609
6.19700000 0.002747 52.946 0.999992 -56.72 0.999992 -56.72 0.002747 13.596
6.19800000 0.002748 52.940 0.999992 -56.73 0.999992 -56.73 0.002747 13.583
6.19900000 0.002748 52.935 0.999992 -56.74 0.999992 -56.74 0.002747 13.571
6.20000000 0.002748 52.929 0.999992 -56.75 0.999992 -56.75 0.002748 13.558
6.20100000 0.002749 52.923 0.999992 -56.76 0.999992 -56.76 0.002748 13.545
6.20200000 0.002749 52.918 0.999992 -56.77 0.999992 -56.77 0.002748 13.533
6.20300000 0.002750 52.912 0.999992 -56.78 0.999992 -56.78 0.002749 13.520
6.20400000 0.002750 52.907 0.999992 -56.79 0.999992 -56.79 0.002749 13.508
6.20500000 0.002750 52.901 0.999992 -56.80 0.999992 -56.80 0.002749 13.495
6.20600000 0.002751 52.895 0.999992 -56.81 0.999992 -56.81 0.002750 13.482
6.20700000 0.002751 52.890 0.999992 -56.81 0.999992 -56.81 0.002750 13.470
6.20800000 0.002751 52.884 0.999992 -56.82 0.999992 -56.82 0.002750 13.457
6.20900000 0.002752 52.879 0.999992 -56.83 0.999992 -56.83 0.002751 13.444
6.21000000 0.002752 52.873 0.999992 -56.84 0.999992 -56.84 0.002751 13.432
6.21100000 0.002752 52.867 0.999992 -56.85 0.999992 -56.85 0.002752 13.419
6.21200000 0.002753 52.862 0.999992 -56.86 0.999992 -56.86 0.002752 13.407
6.21300000 0.002753 52.856 0.999992 -56.87 0.999992 -56.87 0.002752 13.394
6.21400000 0.002753 52.851 0.999992 -56.88 0.999992 -56.88 0.002753 13.381
6.21500000 0.002754 52.845 0.999992 -56.89 0.999992 -56.89 0.002753 13.369
6.21600000 0.002754 52.839 0.999992 -56.90 0.999992 -56.90 0.002753 13.356
6.21700000 0.002755 52.834 0.999992 -56.91 0.999992 -56.91 0.002754 13.343
6.21800000 0.002755 52.828 0.999992 -56.92 0.999992 -56.92 0.002754 13.331
6.21900000 0.002755 52.823 0.999992 -56.92 0.999992 -56.92 0.002754 13.318
6.22000000 0.002756 52.817 0.999992 -56.93 0.999992 -56.93 0.002755 13.306
6.22100000 0.002756 52.811 0.999992 -56.94 0.999992 -56.94 0.002755 13.293
6.22200000 0.002756 52.806 0.999992 -56.95 0.999992 -56.95 0.002755 13.280
6.22300000 0.002757 52.800 0.999992 -56.96 0.999992 -56.96 0.002756 13.268
6.22400000 0.002757 52.795 0.999992 -56.97 0.999992 -56.97 0.002756 13.255
6.22500000 0.002757 52.789 0.999992 -56.98 0.999992 -56.98 0.002757 13.243
6.22600000 0.002758 52.783 0.999992 -56.99 0.999992 -56.99 0.002757 13.230
6.22700000 0.002758 52.778 0.999992 -57.00 0.999992 -57.00 0.002757 13.217
6.22800000 0.002758 52.772 0.999992 -57.01 0.999992 -57.01 0.002758 13.205
6.22900000 0.002759 52.767 0.999992 -57.02 0.999992 -57.02 0.002758 13.192
6.23000000 0.002759 52.761 0.999992 -57.03 0.999992 -57.03 0.002758 13.180
6.23100000 0.002759 52.756 0.999992 -57.03 0.999992 -57.03 0.002759 13.167
6.23200000 0.002760 52.750 0.999992 -57.04 0.999992 -57.04 0.002759 13.154
6.23300000 0.002760 52.744 0.999992 -57.05 0.999992 -57.05 0.002759 13.142
6.23400000 0.002761 52.739 0.999992 -57.06 0.999992 -57.06 0.002760 13.129
6.23500000 0.002761 52.733 0.999992 -57.07 0.999992 -57.07 0.002760 13.117
6.23600000 0.002761 52.728 0.999992 -57.08 0.999992 -57.08 0.002760 13.104
6.23700000 0.002762 52.722 0.999992 -57.09 0.999992 -57.09 0.002761 13.092
6.23800000 0.002762 52.717 0.999992 -57.10 0.999992 -57.10 0.002761 13.079
6.23900000 0.002762 52.711 0.999992 -57.11 0.999992 -57.11 0.002761 13.066
6.24000000 0.002763 52.705 0.999992 -57.12 0.999992 -57.12 0.002762 13.054
6.24100000 0.002763 52.700 0.999992 -57.13 0.999992 -57.13 0.002762 13.041
6.24200000 0.002763 52.694 0.999992 -57.14 0.999992 -57.14 0.002763 13.029
6.24300000 0.002764 52.689 0.999992 -57.14 0.999992 -57.14 0.002763 13.016
6.24400000 0.002764 52.683 0.999992 -57.15 0.999992 -57.15 0.002763 13.003
6.24500000 0.002764 52.678 0.999992 -57.16 0.999992 -57.16 0.002764 12.991
6.24600000 0.002765 52.672 0.999992 -57.17 0.999992 -57.17 0.002764 12.978
6.24700000 0.002765 52.667 0.999992 -57.18 0.999992 -57.18 0.002764 12.966
6.24800000 0.002766 52.661 0.999992 -57.19 0.999992 -57.19 0.002765 12.953
6.24900000 0.002766 52.655 0.999992 -57.20 0.999992 -57.20 0.002765 12.941
6.25000000 0.002766 52.650 0.999992 -57.21 0.999992 -57.21 0.002765 12.928
6.25100000 0.002767 52.644 0.999992 -57.22 0.999992 -57.22 0.002766 12.915
6.25200000 0.002767 52.639 0.999992 -57.23 0.999992 -57.23 0.002766 12.903
6.25300000 0.002767 52.633 0.999992 -57.24 0.999992 -57.24 0.002766 12.890
6.25400000 0.002768 52.628 0.999992 -57.24 0.999992 -57.24 0.002767 12.878
6.25500000 0.002768 52.622 0.999992 -57.25 0.999992 -57.25 0.002767 12.865
6.25600000 0.002768 52.617 0.999992 -57.26 0.999992 -57.26 0.002768 12.853
6.25700000 0.002769 52.611 0.999992 -57.27 0.999992 -57.27 0.002768 12.840
6.25800000 0.002769 52.605 0.999992 -57.28 0.999992 -57.28 0.002768 12.828
6.25900000 0.002769 52.600 0.999992 -57.29 0.999992 -57.29 0.002769 12.815
6.26000000 0.002770 52.594 0.999992 -57.30 0.999992 -57.30 0.002769 12.802
6.26100000 0.002770 52.589 0.999992 -57.31 0.999992 -57.31 0.002769 12.790
6.26200000 0.002771 52.583 0.999992 -57.32 0.999992 -57.32 0.002770 12.777
6.26300000 0.002771 52.578 0.999992 -57.33 0.999992 -57.33 0.002770 12.765
6.26400000 0.002771 52.572 0.999992 -57.34 0.999992 -57.34 0.002770 12.752
6.26500000 0.002772 52.567 0.999992 -57.35 0.999992 -57.35 0.002771 12.740
6.26600000 0.002772 52.561 0.999992 -57.35 0.999992 -57.35 0.002771 12.727
6.26700000 0.002772 52.556 0.999992 -57.36 0.999992 -57.36 0.002771 12.715
6.26800000 0.002773 52.550 0.999992 -57.37 0.999992 -57.37 0.002772 12.702
6.26900000 0.002773 52.545 0.999992 -57.38 0.999992 -57.38 0.002772 12.690
6.27000000 0.002773 52.539 0.999992 -57.39 0.999992 -57.39 0.002772 12.677
6.27100000 0.002774 52.533 0.999992 -57.40 0.999992 -57.40 0.002773 12.664
6.27200000 0.002774 52.528 0.999992 -57.41 0.999992 -57.41 0.002773 12.652
6.27300000 0.002774 52.522 0.999992 -57.42 0.999992 -57.42 0.002774 12.639
6.27400000 0.002775 52.517 0.999992 -57.43 0.999992 -57.43 0.002774 12.627
6.27500000 0.002775 52.511 0.999992 -57.44 0.999992 -57.44 0.002774 12.614
6.27600000 0.002775 52.506 0.999992 -57.45 0.999992 -57.45 0.002775 12.602
6.27700000 0.002776 52.500 0.999992 -57.46 0.999992 -57.46 0.002775 12.589
6.27800000 0.002776 52.495 0.999992 -57.46 0.999992 -57.46 0.002775 12.577
6.27900000 0.002777 52.489 0.999992 -57.47 0.999992 -57.47 0.002776 12.564
6.28000000 0.002777 52.484 0.999992 -57.48 0.999992 -57.48 0.002776 12.552
6.28100000 0.002777 52.478 0.999992 -57.49 0.999992 -57.49 0.002776 12.539
6.28200000 0.002778 52.473 0.999992 -57.50 0.999992 -57.50 0.002777 12.527
6.28300000 0.002778 52.467 0.999992 -57.51 0.999992 -57.51 0.002777 12.514
6.28400000 0.002778 52.462 0.999992 -57.52 0.999992 -57.52 0.002777 12.502
6.28500000 0.002779 52.456 0.999992 -57.53 0.999992 -57.53 0.002778 12.489
6.28600000 0.002779 52.451 0.999992 -57.54 0.999992 -57.54 0.002778 12.476
6.28700000 0.002779 52.445 0.999992 -57.55 0.999992 -57.55 0.002779 12.464
6.28800000 0.002780 52.440 0.999992 -57.56 0.999992 -57.56 0.002779 12.451
6.28900000 0.002780 52.434 0.999992 -57.57 0.999992 -57.57 0.002779 12.439
6.29000000 0.002780 52.429 0.999992 -57.57 0.999992 -57.57 0.002780 12.426
6.29100000 0.002781 52.423 0.999992 -57.58 0.999992 -57.58 0.002780 12.414
6.29200000 0.002781 52.417 0.999992 -57.59 0.999992 -57.59 0.002780 12.401
6.29300000 0.002782 52.412 0.999992 -57.60 0.999992 -57.60 0.002781 12.389
6.29400000 0.002782 52.406 0.999992 -57.61 0.999992 -57.61 0.002781 12.376
6.29500000 0.002782 52.401 0.999992 -57.62 0.999992 -57.62 0.002781 12.364
6.29600000 0.002783 52.395 0.999992 -57.63 0.999992 -57.63 0.002782 12.351
6.29700000 0.002783 52.390 0.999992 -57.64 0.999992 -57.64 0.002782 12.339
6.29800000 0.002783 52.384 0.999992 -57.65 0.999992 -57.65 0.002782 12.326
6.29900000 0.002784 52.379 0.999992 -57.66 0.999992 -57.66 0.002783 12.314
6.30000000 0.002784 52.373 0.999992 -57.67 0.999992 -57.67 0.002783 12.301
6.30100000 0.002784 52.368 0.999992 -57.67 0.999992 -57.67 0.002783 12.289
6.30200000 0.002785 52.362 0.999992 -57.68 0.999992 -57.68 0.002784 12.276
6.30300000 0.002785 52.357 0.999992 -57.69 0.999992 -57.69 0.002784 12.264
6.30400000 0.002785 52.351 0.999992 -57.70 0.999992 -57.70 0.002785 12.251
6.30500000 0.002786 52.346 0.999992 -57.71 0.999992 -57.71 0.002785 12.239
6.30600000 0.002786 52.340 0.999992 -57.72 0.999992 -57.72 0.002785 12.226
6.30700000 0.002787 52.335 0.999992 -57.73 0.999992 -57.73 0.002786 12.214
6.30800000 0.002787 52.329 0.999992 -57.74 0.999992 -57.74 0.002786 12.201
6.30900000 0.002787 52.324 0.999992 -57.75 0.999992 -57.75 0.002786 12.189
6.31000000 0.002788 52.318 0.999992 -57.76 0.999992 -57.76 0.002787 12.176
6.31100000 0.002788 52.313 0.999992 -57.77 0.999992 -57.77 0.002787 12.164
6.31200000 0.002788 52.307 0.999992 -57.78 0.999992 -57.78 0.002787 12.151
6.31300000 0.002789 52.302 0.999992 -57.78 0.999992 -57.78 0.002788 12.139
6.31400000 0.002789 52.296 0.999992 -57.79 0.999992 -57.79 0.002788 12.126
6.31500000 0.002789 52.291 0.999992 -57.80 0.999992 -57.80 0.002788 12.114
6.31600000 0.002790 52.285 0.999992 -57.81 0.999992 -57.81 0.002789 12.101
6.31700000 0.002790 52.280 0.999992 -57.82 0.999992 -57.82 0.002789 12.089
6.31800000 0.002790 52.274 0.999992 -57.83 0.999992 -57.83 0.002789 12.076
6.31900000 0.002791 52.269 0.999992 -57.84 0.999992 -57.84 0.002790 12.064
6.32000000 0.002791 52.263 0.999992 -57.85 0.999992 -57.85 0.002790 12.051
6.32100000 0.002792 52.258 0.999992 -57.86 0.999992 -57.86 0.002791 12.039
6.32200000 0.002792 52.252 0.999992 -57.87 0.999992 -57.87 0.002791 12.026
6.32300000 0.002792 52.247 0.999992 -57.88 0.999992 -57.88 0.002791 12.014
6.32400000 0.002793 52.241 0.999992 -57.89 0.999992 -57.89 0.002792 12.001
6.32500000 0.002793 52.236 0.999992 -57.89 0.999992 -57.89 0.002792 11.989
6.32600000 0.002793 52.230 0.999992 -57.90 0.999992 -57.90 0.002792 11.976
6.32700000 0.002794 52.225 0.999992 -57.91 0.999992 -57.91 0.002793 11.964
6.32800000 0.002794 52.219 0.999992 -57.92 0.999992 -57.92 0.002793 11.951
6.32900000 0.002794 52.214 0.999992 -57.93 0.999992 -57.93 0.002793 11.939
6.33000000 0.002795 52.208 0.999992 -57.94 0.999992 -57.94 0.002794 11.926
6.33100000 0.002795 52.203 0.999992 -57.95 0.999992 -57.95 0.002794 11.914
6.33200000 0.002795 52.197 0.999992 -57.96 0.999992 -57.96 0.002794 11.901
6.33300000 0.002796 52.192 0.999992 -57.97 0.999992 -57.97 0.002795 11.889
6.33400000 0.002796 52.187 0.999992 -57.98 0.999992 -57.98 0.002795 11.876
6.33500000 0.002796 52.181 0.999992 -57.99 0.999992 -57.99 0.002795 11.864
6.33600000 0.002797 52.176 0.999992 -58.00 0.999992 -58.00 0.002796 11.851
6.33700000 0.002797 52.170 0.999992 -58.00 0.999992 -58.00 0.002796 11.839
6.33800000 0.002798 52.165 0.999992 -58.01 0.999992 -58.01 0.002797 11.826
6.33900000 0.002798 52.159 0.999992 -58.02 0.999992 -58.02 0.002797 11.814
6.34000000 0.002798 52.154 0.999992 -58.03 0.999992 -58.03 0.002797 11.801
6.34100000 0.002799 52.148 0.999992 -58.04 0.999992 -58.04 0.002798 11.789
6.34200000 0.002799 52.143 0.999993 -58.05 0.999993 -58.05 0.002798 11.776
6.34300000 0.002799 52.137 0.999993 -58.06 0.999993 -58.06 0.002798 11.764
6.34400000 0.002800 52.132 0.999993 -58.07 0.999993 -58.07 0.002799 11.751
6.34500000 0.002800 52.126 0.999993 -58.08 0.999993 -58.08 0.002799 11.739
6.34600000 0.002800 52.121 0.999993 -58.09 0.999993 -58.09 0.002799 11.726
6.34700000 0.002801 52.115 0.999993 -58.10 0.999993 -58.10 0.002800 11.714
6.34800000 0.002801 52.110 0.999993 -58.11 0.999993 -58.11 0.002800 11.701
6.34900000 0.002801 52.104 0.999993 -58.11 0.999993 -58.11 0.002800 11.689
6.35000000 0.002802 52.099 0.999993 -58.12 0.999993 -58.12 0.002801 11.676
6.35100000 0.002802 52.093 0.999993 -58.13 0.999993 -58.13 0.002801 11.664
6.35200000 0.002803 52.088 0.999993 -58.14 0.999993 -58.14 0.002801 11.651
6.35300000 0.002803 52.082 0.999993 -58.15 0.999993 -58.15 0.002802 11.639
6.35400000 0.002803 52.077 0.999993 -58.16 0.999993 -58.16 0.002802 11.626
6.35500000 0.002804 52.071 0.999993 -58.17 0.999993 -58.17 0.002803 11.614
6.35600000 0.002804 52.066 0.999993 -58.18 0.999993 -58.18 0.002803 11.601
6.35700000 0.002804 52.061 0.999993 -58.19 0.999993 -58.19 0.002803 11.589
6.35800000 0.002805 52.055 0.999993 -58.20 0.999993 -58.20 0.002804 11.576
6.35900000 0.002805 52.050 0.999993 -58.21 0.999993 -58.21 0.002804 11.564
6.36000000 0.002805 52.044 0.999993 -58.21 0.999993 -58.21 0.002804 11.551
6.36100000 0.002806 52.039 0.999993 -58.22 0.999993 -58.22 0.002805 11.539
6.36200000 0.002806 52.033 0.999993 -58.23 0.999993 -58.23 0.002805 11.526
6.36300000 0.002806 52.028 0.999993 -58.24 0.999993 -58.24 0.002805 11.514
6.36400000 0.002807 52.022 0.999993 -58.25 0.999993 -58.25 0.002806 11.501
6.36500000 0.002807 52.017 0.999993 -58.26 0.999993 -58.26 0.002806 11.489
6.36600000 0.002807 52.011 0.999993 -58.27 0.999993 -58.27 0.002806 11.476
6.36700000 0.002808 52.006 0.999993 -58.28 0.999993 -58.28 0.002807 11.464
6.36800000 0.002808 52.000 0.999993 -58.29 0.999993 -58.29 0.002807 11.452
6.36900000 0.002809 51.995 0.999993 -58.30 0.999993 -58.30 0.002807 11.439
6.37000000 0.002809 51.989 0.999993 -58.31 0.999993 -58.31 0.002808 11.427
6.37100000 0.002809 51.984 0.999993 -58.32 0.999993 -58.32 0.002808 11.414
6.37200000 0.002810 51.978 0.999993 -58.32 0.999993 -58.32 0.002809 11.402
6.37300000 0.002810 51.973 0.999993 -58.33 0.999993 -58.33 0.002809 11.389
6.37400000 0.002810 51.968 0.999993 -58.34 0.999993 -58.34 0.002809 11.377
6.37500000 0.002811 51.962 0.999993 -58.35 0.999993 -58.35 0.002810 11.364
6.37600000 0.002811 51.957 0.999993 -58.36 0.999993 -58.36 0.002810 11.352
6.37700000 0.002811 51.951 0.999993 -58.37 0.999993 -58.37 0.002810 11.339
6.37800000 0.002812 51.946 0.999993 -58.38 0.999993 -58.38 0.002811 11.327
6.37900000 0.002812 51.940 0.999993 -58.39 0.999993 -58.39 0.002811 11.314
6.38000000 0.002812 51.935 0.999993 -58.40 0.999993 -58.40 0.002811 11.302
6.38100000 0.002813 51.929 0.999993 -58.41 0.999993 -58.41 0.002812 11.289
6.38200000 0.002813 51.924 0.999993 -58.42 0.999993 -58.42 0.002812 11.277
6.38300000 0.002814 51.918 0.999993 -58.43 0.999993 -58.43 0.002812 11.264
6.38400000 0.002814 51.913 0.999993 -58.43 0.999993 -58.43 0.002813 11.252
6.38500000 0.002814 51.907 0.999993 -58.44 0.999993 -58.44 0.002813 11.239
6.38600000 0.002815 51.902 0.999993 -58.45 0.999993 -58.45 0.002813 11.227
6.38700000 0.002815 51.897 0.999993 -58.46 0.999993 -58.46 0.002814 11.214
6.38800000 0.002815 51.891 0.999993 -58.47 0.999993 -58.47 0.002814 11.202
6.38900000 0.002816 51.886 0.999993 -58.48 0.999993 -58.48 0.002815 11.190
6.39000000 0.002816 51.880 0.999993 -58.49 0.999993 -58.49 0.002815 11.177
6.39100000 0.002816 51.875 0.999993 -58.50 0.999993 -58.50 0.002815 11.165