! Sonnet Data File
! From: emgraph Version : 16.52
! From Project: transmon_trial
! Data is De-embedded 
! Data File Written: 10/20/2017 09:13:08
!< HDATE 10/19/2017 20:03:37
!< MDATE 10/19/2017 20:10:25
!< PARAMS
!< Lj = 15.24
!< Gap = 16.0
!< Width = 50.0
!< Airgap = 30.0
!< Pwidth = 2000.0
!< END PARAMS
# GHZ S MA R 51.00000
8.65000000 0.025901 -170.5 0.999660 -80.38 0.999660 -80.38 0.025901 -170.2
!< P1 F=8.65 Eeff=(6.43962691 -3.1336e-5) Z0=(50.4019059 1.05256e-4) R=0.0 C=0.0 
!< P2 F=8.65 Eeff=(6.43962691 -3.1336e-5) Z0=(50.4019059 1.05256e-4) R=0.0 C=0.0 
8.65010000 0.025910 -170.5 0.999659 -80.38 0.999659 -80.38 0.025910 -170.2
8.65020000 0.025918 -170.5 0.999659 -80.38 0.999659 -80.38 0.025918 -170.2
8.65030000 0.025927 -170.5 0.999659 -80.38 0.999659 -80.38 0.025927 -170.3
8.65040000 0.025935 -170.5 0.999659 -80.38 0.999659 -80.38 0.025935 -170.3
8.65050000 0.025943 -170.5 0.999659 -80.38 0.999659 -80.38 0.025943 -170.3
8.65060000 0.025952 -170.5 0.999658 -80.38 0.999658 -80.38 0.025952 -170.3
8.65070000 0.025960 -170.5 0.999658 -80.39 0.999658 -80.39 0.025960 -170.3
8.65080000 0.025968 -170.5 0.999658 -80.39 0.999658 -80.39 0.025968 -170.3
8.65090000 0.025977 -170.5 0.999658 -80.39 0.999658 -80.39 0.025977 -170.3
8.65100000 0.025985 -170.5 0.999657 -80.39 0.999657 -80.39 0.025985 -170.3
8.65110000 0.025994 -170.5 0.999657 -80.39 0.999657 -80.39 0.025994 -170.3
8.65120000 0.026002 -170.5 0.999657 -80.39 0.999657 -80.39 0.026002 -170.3
8.65130000 0.026011 -170.5 0.999657 -80.39 0.999657 -80.39 0.026010 -170.3
8.65140000 0.026019 -170.5 0.999657 -80.40 0.999657 -80.40 0.026019 -170.3
8.65150000 0.026027 -170.5 0.999656 -80.40 0.999656 -80.40 0.026027 -170.3
8.65160000 0.026036 -170.5 0.999656 -80.40 0.999656 -80.40 0.026036 -170.3
8.65170000 0.026044 -170.5 0.999656 -80.40 0.999656 -80.40 0.026044 -170.3
8.65180000 0.026053 -170.5 0.999656 -80.40 0.999656 -80.40 0.026053 -170.3
8.65190000 0.026061 -170.5 0.999655 -80.40 0.999655 -80.40 0.026061 -170.3
8.65200000 0.026070 -170.5 0.999655 -80.40 0.999655 -80.40 0.026070 -170.3
8.65210000 0.026078 -170.5 0.999655 -80.41 0.999655 -80.41 0.026078 -170.3
8.65220000 0.026087 -170.6 0.999655 -80.41 0.999655 -80.41 0.026087 -170.3
8.65230000 0.026095 -170.6 0.999655 -80.41 0.999655 -80.41 0.026095 -170.3
8.65240000 0.026104 -170.6 0.999654 -80.41 0.999654 -80.41 0.026104 -170.3
8.65250000 0.026112 -170.6 0.999654 -80.41 0.999654 -80.41 0.026112 -170.3
8.65260000 0.026121 -170.6 0.999654 -80.41 0.999654 -80.41 0.026121 -170.3
8.65270000 0.026129 -170.6 0.999654 -80.41 0.999654 -80.41 0.026129 -170.3
8.65280000 0.026138 -170.6 0.999653 -80.42 0.999653 -80.42 0.026138 -170.3
8.65290000 0.026146 -170.6 0.999653 -80.42 0.999653 -80.42 0.026146 -170.3
8.65300000 0.026155 -170.6 0.999653 -80.42 0.999653 -80.42 0.026155 -170.3
8.65310000 0.026163 -170.6 0.999653 -80.42 0.999653 -80.42 0.026163 -170.3
8.65320000 0.026172 -170.6 0.999653 -80.42 0.999653 -80.42 0.026172 -170.3
8.65330000 0.026181 -170.6 0.999652 -80.42 0.999652 -80.42 0.026180 -170.3
8.65340000 0.026189 -170.6 0.999652 -80.42 0.999652 -80.42 0.026189 -170.3
8.65350000 0.026198 -170.6 0.999652 -80.43 0.999652 -80.43 0.026198 -170.3
8.65360000 0.026206 -170.6 0.999652 -80.43 0.999652 -80.43 0.026206 -170.3
8.65370000 0.026215 -170.6 0.999651 -80.43 0.999651 -80.43 0.026215 -170.3
8.65380000 0.026223 -170.6 0.999651 -80.43 0.999651 -80.43 0.026223 -170.3
8.65390000 0.026232 -170.6 0.999651 -80.43 0.999651 -80.43 0.026232 -170.3
8.65400000 0.026241 -170.6 0.999651 -80.43 0.999651 -80.43 0.026241 -170.3
8.65410000 0.026249 -170.6 0.999651 -80.43 0.999651 -80.43 0.026249 -170.3
8.65420000 0.026258 -170.6 0.999650 -80.44 0.999650 -80.44 0.026258 -170.3
8.65430000 0.026267 -170.6 0.999650 -80.44 0.999650 -80.44 0.026267 -170.3
8.65440000 0.026275 -170.6 0.999650 -80.44 0.999650 -80.44 0.026275 -170.3
8.65450000 0.026284 -170.6 0.999650 -80.44 0.999650 -80.44 0.026284 -170.3
8.65460000 0.026293 -170.6 0.999649 -80.44 0.999649 -80.44 0.026292 -170.3
8.65470000 0.026301 -170.6 0.999649 -80.44 0.999649 -80.44 0.026301 -170.3
8.65480000 0.026310 -170.6 0.999649 -80.44 0.999649 -80.44 0.026310 -170.3
8.65490000 0.026319 -170.6 0.999649 -80.45 0.999649 -80.45 0.026319 -170.3
8.65500000 0.026327 -170.6 0.999648 -80.45 0.999648 -80.45 0.026327 -170.3
8.65510000 0.026336 -170.6 0.999648 -80.45 0.999648 -80.45 0.026336 -170.3
8.65520000 0.026345 -170.6 0.999648 -80.45 0.999648 -80.45 0.026345 -170.3
8.65530000 0.026353 -170.6 0.999648 -80.45 0.999648 -80.45 0.026353 -170.3
8.65540000 0.026362 -170.6 0.999648 -80.45 0.999648 -80.45 0.026362 -170.3
8.65550000 0.026371 -170.6 0.999647 -80.45 0.999647 -80.45 0.026371 -170.3
8.65560000 0.026379 -170.6 0.999647 -80.46 0.999647 -80.46 0.026379 -170.3
8.65570000 0.026388 -170.6 0.999647 -80.46 0.999647 -80.46 0.026388 -170.3
8.65580000 0.026397 -170.6 0.999647 -80.46 0.999647 -80.46 0.026397 -170.3
8.65590000 0.026406 -170.6 0.999646 -80.46 0.999646 -80.46 0.026406 -170.3
8.65600000 0.026414 -170.6 0.999646 -80.46 0.999646 -80.46 0.026414 -170.3
8.65610000 0.026423 -170.6 0.999646 -80.46 0.999646 -80.46 0.026423 -170.3
8.65620000 0.026432 -170.6 0.999646 -80.46 0.999646 -80.46 0.026432 -170.3
8.65630000 0.026441 -170.6 0.999645 -80.47 0.999645 -80.47 0.026441 -170.3
8.65640000 0.026450 -170.6 0.999645 -80.47 0.999645 -80.47 0.026450 -170.3
8.65650000 0.026458 -170.6 0.999645 -80.47 0.999645 -80.47 0.026458 -170.3
8.65660000 0.026467 -170.6 0.999645 -80.47 0.999645 -80.47 0.026467 -170.3
8.65670000 0.026476 -170.6 0.999645 -80.47 0.999645 -80.47 0.026476 -170.3
8.65680000 0.026485 -170.6 0.999644 -80.47 0.999644 -80.47 0.026485 -170.4
8.65690000 0.026494 -170.6 0.999644 -80.47 0.999644 -80.47 0.026494 -170.4
8.65700000 0.026502 -170.6 0.999644 -80.48 0.999644 -80.48 0.026502 -170.4
8.65710000 0.026511 -170.6 0.999644 -80.48 0.999644 -80.48 0.026511 -170.4
8.65720000 0.026520 -170.6 0.999643 -80.48 0.999643 -80.48 0.026520 -170.4
8.65730000 0.026529 -170.6 0.999643 -80.48 0.999643 -80.48 0.026529 -170.4
8.65740000 0.026538 -170.6 0.999643 -80.48 0.999643 -80.48 0.026538 -170.4
8.65750000 0.026547 -170.6 0.999643 -80.48 0.999643 -80.48 0.026547 -170.4
8.65760000 0.026556 -170.6 0.999642 -80.48 0.999642 -80.48 0.026556 -170.4
8.65770000 0.026565 -170.6 0.999642 -80.49 0.999642 -80.49 0.026565 -170.4
8.65780000 0.026573 -170.6 0.999642 -80.49 0.999642 -80.49 0.026573 -170.4
8.65790000 0.026582 -170.6 0.999642 -80.49 0.999642 -80.49 0.026582 -170.4
8.65800000 0.026591 -170.6 0.999641 -80.49 0.999641 -80.49 0.026591 -170.4
8.65810000 0.026600 -170.6 0.999641 -80.49 0.999641 -80.49 0.026600 -170.4
8.65820000 0.026609 -170.6 0.999641 -80.49 0.999641 -80.49 0.026609 -170.4
8.65830000 0.026618 -170.6 0.999641 -80.49 0.999641 -80.49 0.026618 -170.4
8.65840000 0.026627 -170.6 0.999640 -80.50 0.999640 -80.50 0.026627 -170.4
8.65850000 0.026636 -170.6 0.999640 -80.50 0.999640 -80.50 0.026636 -170.4
8.65860000 0.026645 -170.6 0.999640 -80.50 0.999640 -80.50 0.026645 -170.4
8.65870000 0.026654 -170.6 0.999640 -80.50 0.999640 -80.50 0.026654 -170.4
8.65880000 0.026663 -170.6 0.999640 -80.50 0.999640 -80.50 0.026663 -170.4
8.65890000 0.026672 -170.6 0.999639 -80.50 0.999639 -80.50 0.026672 -170.4
8.65900000 0.026681 -170.6 0.999639 -80.50 0.999639 -80.50 0.026681 -170.4
8.65910000 0.026690 -170.6 0.999639 -80.51 0.999639 -80.51 0.026690 -170.4
8.65920000 0.026699 -170.6 0.999639 -80.51 0.999639 -80.51 0.026699 -170.4
8.65930000 0.026708 -170.6 0.999638 -80.51 0.999638 -80.51 0.026708 -170.4
8.65940000 0.026717 -170.6 0.999638 -80.51 0.999638 -80.51 0.026717 -170.4
8.65950000 0.026726 -170.6 0.999638 -80.51 0.999638 -80.51 0.026726 -170.4
8.65960000 0.026735 -170.6 0.999638 -80.51 0.999638 -80.51 0.026735 -170.4
8.65970000 0.026744 -170.6 0.999637 -80.51 0.999637 -80.51 0.026744 -170.4
8.65980000 0.026753 -170.6 0.999637 -80.52 0.999637 -80.52 0.026753 -170.4
8.65990000 0.026762 -170.7 0.999637 -80.52 0.999637 -80.52 0.026762 -170.4
8.66000000 0.026771 -170.7 0.999637 -80.52 0.999637 -80.52 0.026771 -170.4
8.66010000 0.026780 -170.7 0.999636 -80.52 0.999636 -80.52 0.026780 -170.4
8.66020000 0.026789 -170.7 0.999636 -80.52 0.999636 -80.52 0.026789 -170.4
8.66030000 0.026798 -170.7 0.999636 -80.52 0.999636 -80.52 0.026798 -170.4
8.66040000 0.026807 -170.7 0.999636 -80.52 0.999636 -80.52 0.026807 -170.4
8.66050000 0.026816 -170.7 0.999635 -80.53 0.999635 -80.53 0.026816 -170.4
8.66060000 0.026826 -170.7 0.999635 -80.53 0.999635 -80.53 0.026825 -170.4
8.66070000 0.026835 -170.7 0.999635 -80.53 0.999635 -80.53 0.026835 -170.4
8.66080000 0.026844 -170.7 0.999635 -80.53 0.999635 -80.53 0.026844 -170.4
8.66090000 0.026853 -170.7 0.999634 -80.53 0.999634 -80.53 0.026853 -170.4
8.66100000 0.026862 -170.7 0.999634 -80.53 0.999634 -80.53 0.026862 -170.4
8.66110000 0.026871 -170.7 0.999634 -80.53 0.999634 -80.53 0.026871 -170.4
8.66120000 0.026880 -170.7 0.999634 -80.54 0.999634 -80.54 0.026880 -170.4
8.66130000 0.026889 -170.7 0.999633 -80.54 0.999633 -80.54 0.026889 -170.4
8.66140000 0.026899 -170.7 0.999633 -80.54 0.999633 -80.54 0.026899 -170.4
8.66150000 0.026908 -170.7 0.999633 -80.54 0.999633 -80.54 0.026908 -170.4
8.66160000 0.026917 -170.7 0.999633 -80.54 0.999633 -80.54 0.026917 -170.4
8.66170000 0.026926 -170.7 0.999632 -80.54 0.999632 -80.54 0.026926 -170.4
8.66180000 0.026935 -170.7 0.999632 -80.54 0.999632 -80.54 0.026935 -170.4
8.66190000 0.026945 -170.7 0.999632 -80.55 0.999632 -80.55 0.026945 -170.4
8.66200000 0.026954 -170.7 0.999632 -80.55 0.999632 -80.55 0.026954 -170.4
8.66210000 0.026963 -170.7 0.999631 -80.55 0.999631 -80.55 0.026963 -170.4
8.66220000 0.026972 -170.7 0.999631 -80.55 0.999631 -80.55 0.026972 -170.4
8.66230000 0.026981 -170.7 0.999631 -80.55 0.999631 -80.55 0.026981 -170.4
8.66240000 0.026991 -170.7 0.999631 -80.55 0.999631 -80.55 0.026991 -170.4
8.66250000 0.027000 -170.7 0.999630 -80.55 0.999630 -80.55 0.027000 -170.4
8.66260000 0.027009 -170.7 0.999630 -80.56 0.999630 -80.56 0.027009 -170.4
8.66270000 0.027019 -170.7 0.999630 -80.56 0.999630 -80.56 0.027018 -170.4
8.66280000 0.027028 -170.7 0.999630 -80.56 0.999630 -80.56 0.027028 -170.4
8.66290000 0.027037 -170.7 0.999629 -80.56 0.999629 -80.56 0.027037 -170.4
8.66300000 0.027046 -170.7 0.999629 -80.56 0.999629 -80.56 0.027046 -170.4
8.66310000 0.027056 -170.7 0.999629 -80.56 0.999629 -80.56 0.027056 -170.4
8.66320000 0.027065 -170.7 0.999629 -80.56 0.999629 -80.56 0.027065 -170.4
8.66330000 0.027074 -170.7 0.999628 -80.57 0.999628 -80.57 0.027074 -170.5
8.66340000 0.027084 -170.7 0.999628 -80.57 0.999628 -80.57 0.027084 -170.5
8.66350000 0.027093 -170.7 0.999628 -80.57 0.999628 -80.57 0.027093 -170.5
8.66360000 0.027102 -170.7 0.999628 -80.57 0.999628 -80.57 0.027102 -170.5
8.66370000 0.027112 -170.7 0.999627 -80.57 0.999627 -80.57 0.027112 -170.5
8.66380000 0.027121 -170.7 0.999627 -80.57 0.999627 -80.57 0.027121 -170.5
8.66390000 0.027130 -170.7 0.999627 -80.57 0.999627 -80.57 0.027130 -170.5
8.66400000 0.027140 -170.7 0.999627 -80.58 0.999627 -80.58 0.027140 -170.5
8.66410000 0.027149 -170.7 0.999626 -80.58 0.999626 -80.58 0.027149 -170.5
8.66420000 0.027159 -170.7 0.999626 -80.58 0.999626 -80.58 0.027159 -170.5
8.66430000 0.027168 -170.7 0.999626 -80.58 0.999626 -80.58 0.027168 -170.5
8.66440000 0.027177 -170.7 0.999626 -80.58 0.999626 -80.58 0.027177 -170.5
8.66450000 0.027187 -170.7 0.999625 -80.58 0.999625 -80.58 0.027187 -170.5
8.66460000 0.027196 -170.7 0.999625 -80.58 0.999625 -80.58 0.027196 -170.5
8.66470000 0.027206 -170.7 0.999625 -80.59 0.999625 -80.59 0.027206 -170.5
8.66480000 0.027215 -170.7 0.999625 -80.59 0.999625 -80.59 0.027215 -170.5
8.66490000 0.027224 -170.7 0.999624 -80.59 0.999624 -80.59 0.027224 -170.5
8.66500000 0.027234 -170.7 0.999624 -80.59 0.999624 -80.59 0.027234 -170.5
8.66510000 0.027243 -170.7 0.999624 -80.59 0.999624 -80.59 0.027243 -170.5
8.66520000 0.027253 -170.7 0.999623 -80.59 0.999623 -80.59 0.027253 -170.5
8.66530000 0.027262 -170.7 0.999623 -80.59 0.999623 -80.59 0.027262 -170.5
8.66540000 0.027272 -170.7 0.999623 -80.60 0.999623 -80.60 0.027272 -170.5
8.66550000 0.027281 -170.7 0.999623 -80.60 0.999623 -80.60 0.027281 -170.5
8.66560000 0.027291 -170.7 0.999622 -80.60 0.999622 -80.60 0.027291 -170.5
8.66570000 0.027300 -170.7 0.999622 -80.60 0.999622 -80.60 0.027300 -170.5
8.66580000 0.027310 -170.7 0.999622 -80.60 0.999622 -80.60 0.027310 -170.5
8.66590000 0.027319 -170.7 0.999622 -80.60 0.999622 -80.60 0.027319 -170.5
8.66600000 0.027329 -170.7 0.999621 -80.60 0.999621 -80.60 0.027329 -170.5
8.66610000 0.027338 -170.7 0.999621 -80.61 0.999621 -80.61 0.027338 -170.5
8.66620000 0.027348 -170.7 0.999621 -80.61 0.999621 -80.61 0.027348 -170.5
8.66630000 0.027358 -170.7 0.999621 -80.61 0.999621 -80.61 0.027358 -170.5
8.66640000 0.027367 -170.7 0.999620 -80.61 0.999620 -80.61 0.027367 -170.5
8.66650000 0.027377 -170.7 0.999620 -80.61 0.999620 -80.61 0.027377 -170.5
8.66660000 0.027386 -170.7 0.999620 -80.61 0.999620 -80.61 0.027386 -170.5
8.66670000 0.027396 -170.7 0.999620 -80.62 0.999620 -80.62 0.027396 -170.5
8.66680000 0.027406 -170.7 0.999619 -80.62 0.999619 -80.62 0.027406 -170.5
8.66690000 0.027415 -170.7 0.999619 -80.62 0.999619 -80.62 0.027415 -170.5
8.66700000 0.027425 -170.7 0.999619 -80.62 0.999619 -80.62 0.027425 -170.5
8.66710000 0.027434 -170.7 0.999618 -80.62 0.999618 -80.62 0.027434 -170.5
8.66720000 0.027444 -170.7 0.999618 -80.62 0.999618 -80.62 0.027444 -170.5
8.66730000 0.027454 -170.7 0.999618 -80.62 0.999618 -80.62 0.027454 -170.5
8.66740000 0.027463 -170.8 0.999618 -80.63 0.999618 -80.63 0.027463 -170.5
8.66750000 0.027473 -170.8 0.999617 -80.63 0.999617 -80.63 0.027473 -170.5
8.66760000 0.027483 -170.8 0.999617 -80.63 0.999617 -80.63 0.027483 -170.5
8.66770000 0.027492 -170.8 0.999617 -80.63 0.999617 -80.63 0.027492 -170.5
8.66780000 0.027502 -170.8 0.999617 -80.63 0.999617 -80.63 0.027502 -170.5
8.66790000 0.027512 -170.8 0.999616 -80.63 0.999616 -80.63 0.027512 -170.5
8.66800000 0.027521 -170.8 0.999616 -80.63 0.999616 -80.63 0.027521 -170.5
8.66810000 0.027531 -170.8 0.999616 -80.64 0.999616 -80.64 0.027531 -170.5
8.66820000 0.027541 -170.8 0.999616 -80.64 0.999616 -80.64 0.027541 -170.5
8.66830000 0.027551 -170.8 0.999615 -80.64 0.999615 -80.64 0.027551 -170.5
8.66840000 0.027560 -170.8 0.999615 -80.64 0.999615 -80.64 0.027560 -170.5
8.66850000 0.027570 -170.8 0.999615 -80.64 0.999615 -80.64 0.027570 -170.5
8.66860000 0.027580 -170.8 0.999614 -80.64 0.999614 -80.64 0.027580 -170.5
8.66870000 0.027590 -170.8 0.999614 -80.64 0.999614 -80.64 0.027590 -170.5
8.66880000 0.027599 -170.8 0.999614 -80.65 0.999614 -80.65 0.027599 -170.5
8.66890000 0.027609 -170.8 0.999614 -80.65 0.999614 -80.65 0.027609 -170.5
8.66900000 0.027619 -170.8 0.999613 -80.65 0.999613 -80.65 0.027619 -170.5
8.66910000 0.027629 -170.8 0.999613 -80.65 0.999613 -80.65 0.027629 -170.5
8.66920000 0.027639 -170.8 0.999613 -80.65 0.999613 -80.65 0.027639 -170.5
8.66930000 0.027648 -170.8 0.999613 -80.65 0.999613 -80.65 0.027648 -170.5
8.66940000 0.027658 -170.8 0.999612 -80.66 0.999612 -80.66 0.027658 -170.5
8.66950000 0.027668 -170.8 0.999612 -80.66 0.999612 -80.66 0.027668 -170.5
8.66960000 0.027678 -170.8 0.999612 -80.66 0.999612 -80.66 0.027678 -170.6
8.66970000 0.027688 -170.8 0.999611 -80.66 0.999611 -80.66 0.027688 -170.6
8.66980000 0.027698 -170.8 0.999611 -80.66 0.999611 -80.66 0.027698 -170.6
8.66990000 0.027708 -170.8 0.999611 -80.66 0.999611 -80.66 0.027707 -170.6
8.67000000 0.027717 -170.8 0.999611 -80.66 0.999611 -80.66 0.027717 -170.6
8.67010000 0.027727 -170.8 0.999610 -80.67 0.999610 -80.67 0.027727 -170.6
8.67020000 0.027737 -170.8 0.999610 -80.67 0.999610 -80.67 0.027737 -170.6
8.67030000 0.027747 -170.8 0.999610 -80.67 0.999610 -80.67 0.027747 -170.6
8.67040000 0.027757 -170.8 0.999610 -80.67 0.999610 -80.67 0.027757 -170.6
8.67050000 0.027767 -170.8 0.999609 -80.67 0.999609 -80.67 0.027767 -170.6
8.67060000 0.027777 -170.8 0.999609 -80.67 0.999609 -80.67 0.027777 -170.6
8.67070000 0.027787 -170.8 0.999609 -80.67 0.999609 -80.67 0.027787 -170.6
8.67080000 0.027797 -170.8 0.999608 -80.68 0.999608 -80.68 0.027797 -170.6
8.67090000 0.027807 -170.8 0.999608 -80.68 0.999608 -80.68 0.027807 -170.6
8.67100000 0.027817 -170.8 0.999608 -80.68 0.999608 -80.68 0.027817 -170.6
8.67110000 0.027827 -170.8 0.999608 -80.68 0.999608 -80.68 0.027827 -170.6
8.67120000 0.027837 -170.8 0.999607 -80.68 0.999607 -80.68 0.027837 -170.6
8.67130000 0.027847 -170.8 0.999607 -80.68 0.999607 -80.68 0.027847 -170.6
8.67140000 0.027857 -170.8 0.999607 -80.68 0.999607 -80.68 0.027857 -170.6
8.67150000 0.027867 -170.8 0.999606 -80.69 0.999606 -80.69 0.027867 -170.6
8.67160000 0.027877 -170.8 0.999606 -80.69 0.999606 -80.69 0.027877 -170.6
8.67170000 0.027887 -170.8 0.999606 -80.69 0.999606 -80.69 0.027887 -170.6
8.67180000 0.027897 -170.8 0.999606 -80.69 0.999606 -80.69 0.027897 -170.6
8.67190000 0.027907 -170.8 0.999605 -80.69 0.999605 -80.69 0.027907 -170.6
8.67200000 0.027917 -170.8 0.999605 -80.69 0.999605 -80.69 0.027917 -170.6
8.67210000 0.027927 -170.8 0.999605 -80.70 0.999605 -80.70 0.027927 -170.6
8.67220000 0.027937 -170.8 0.999604 -80.70 0.999604 -80.70 0.027937 -170.6
8.67230000 0.027947 -170.8 0.999604 -80.70 0.999604 -80.70 0.027947 -170.6
8.67240000 0.027957 -170.8 0.999604 -80.70 0.999604 -80.70 0.027957 -170.6
8.67250000 0.027967 -170.8 0.999604 -80.70 0.999604 -80.70 0.027967 -170.6
8.67260000 0.027977 -170.8 0.999603 -80.70 0.999603 -80.70 0.027977 -170.6
8.67270000 0.027987 -170.8 0.999603 -80.70 0.999603 -80.70 0.027987 -170.6
8.67280000 0.027998 -170.8 0.999603 -80.71 0.999603 -80.71 0.027998 -170.6
8.67290000 0.028008 -170.8 0.999602 -80.71 0.999602 -80.71 0.028008 -170.6
8.67300000 0.028018 -170.8 0.999602 -80.71 0.999602 -80.71 0.028018 -170.6
8.67310000 0.028028 -170.8 0.999602 -80.71 0.999602 -80.71 0.028028 -170.6
8.67320000 0.028038 -170.8 0.999602 -80.71 0.999602 -80.71 0.028038 -170.6
8.67330000 0.028048 -170.8 0.999601 -80.71 0.999601 -80.71 0.028048 -170.6
8.67340000 0.028059 -170.8 0.999601 -80.71 0.999601 -80.71 0.028058 -170.6
8.67350000 0.028069 -170.8 0.999601 -80.72 0.999601 -80.72 0.028069 -170.6
8.67360000 0.028079 -170.8 0.999600 -80.72 0.999600 -80.72 0.028079 -170.6
8.67370000 0.028089 -170.8 0.999600 -80.72 0.999600 -80.72 0.028089 -170.6
8.67380000 0.028099 -170.8 0.999600 -80.72 0.999600 -80.72 0.028099 -170.6
8.67390000 0.028110 -170.8 0.999600 -80.72 0.999600 -80.72 0.028110 -170.6
8.67400000 0.028120 -170.8 0.999599 -80.72 0.999599 -80.72 0.028120 -170.6
8.67410000 0.028130 -170.8 0.999599 -80.73 0.999599 -80.73 0.028130 -170.6
8.67420000 0.028140 -170.8 0.999599 -80.73 0.999599 -80.73 0.028140 -170.6
8.67430000 0.028151 -170.8 0.999598 -80.73 0.999598 -80.73 0.028151 -170.6
8.67440000 0.028161 -170.8 0.999598 -80.73 0.999598 -80.73 0.028161 -170.6
8.67450000 0.028171 -170.8 0.999598 -80.73 0.999598 -80.73 0.028171 -170.6
8.67460000 0.028181 -170.8 0.999598 -80.73 0.999598 -80.73 0.028181 -170.6
8.67470000 0.028192 -170.9 0.999597 -80.73 0.999597 -80.73 0.028192 -170.6
8.67480000 0.028202 -170.9 0.999597 -80.74 0.999597 -80.74 0.028202 -170.6
8.67490000 0.028212 -170.9 0.999597 -80.74 0.999597 -80.74 0.028212 -170.6
8.67500000 0.028223 -170.9 0.999596 -80.74 0.999596 -80.74 0.028223 -170.6
8.67510000 0.028233 -170.9 0.999596 -80.74 0.999596 -80.74 0.028233 -170.6
8.67520000 0.028243 -170.9 0.999596 -80.74 0.999596 -80.74 0.028243 -170.6
8.67530000 0.028254 -170.9 0.999596 -80.74 0.999596 -80.74 0.028254 -170.6
8.67540000 0.028264 -170.9 0.999595 -80.74 0.999595 -80.74 0.028264 -170.6
8.67550000 0.028274 -170.9 0.999595 -80.75 0.999595 -80.75 0.028274 -170.6
8.67560000 0.028285 -170.9 0.999595 -80.75 0.999595 -80.75 0.028285 -170.6
8.67570000 0.028295 -170.9 0.999594 -80.75 0.999594 -80.75 0.028295 -170.6
8.67580000 0.028306 -170.9 0.999594 -80.75 0.999594 -80.75 0.028306 -170.7
8.67590000 0.028316 -170.9 0.999594 -80.75 0.999594 -80.75 0.028316 -170.7
8.67600000 0.028326 -170.9 0.999593 -80.75 0.999593 -80.75 0.028326 -170.7
8.67610000 0.028337 -170.9 0.999593 -80.76 0.999593 -80.76 0.028337 -170.7
8.67620000 0.028347 -170.9 0.999593 -80.76 0.999593 -80.76 0.028347 -170.7
8.67630000 0.028358 -170.9 0.999593 -80.76 0.999593 -80.76 0.028358 -170.7
8.67640000 0.028368 -170.9 0.999592 -80.76 0.999592 -80.76 0.028368 -170.7
8.67650000 0.028379 -170.9 0.999592 -80.76 0.999592 -80.76 0.028379 -170.7
8.67660000 0.028389 -170.9 0.999592 -80.76 0.999592 -80.76 0.028389 -170.7
8.67670000 0.028400 -170.9 0.999591 -80.76 0.999591 -80.76 0.028400 -170.7
8.67680000 0.028410 -170.9 0.999591 -80.77 0.999591 -80.77 0.028410 -170.7
8.67690000 0.028421 -170.9 0.999591 -80.77 0.999591 -80.77 0.028421 -170.7
8.67700000 0.028431 -170.9 0.999590 -80.77 0.999590 -80.77 0.028431 -170.7
8.67710000 0.028442 -170.9 0.999590 -80.77 0.999590 -80.77 0.028442 -170.7
8.67720000 0.028452 -170.9 0.999590 -80.77 0.999590 -80.77 0.028452 -170.7
8.67730000 0.028463 -170.9 0.999590 -80.77 0.999590 -80.77 0.028463 -170.7
8.67740000 0.028473 -170.9 0.999589 -80.78 0.999589 -80.78 0.028473 -170.7
8.67750000 0.028484 -170.9 0.999589 -80.78 0.999589 -80.78 0.028484 -170.7
8.67760000 0.028495 -170.9 0.999589 -80.78 0.999589 -80.78 0.028495 -170.7
8.67770000 0.028505 -170.9 0.999588 -80.78 0.999588 -80.78 0.028505 -170.7
8.67780000 0.028516 -170.9 0.999588 -80.78 0.999588 -80.78 0.028516 -170.7
8.67790000 0.028526 -170.9 0.999588 -80.78 0.999588 -80.78 0.028526 -170.7
8.67800000 0.028537 -170.9 0.999587 -80.78 0.999587 -80.78 0.028537 -170.7
8.67810000 0.028548 -170.9 0.999587 -80.79 0.999587 -80.79 0.028548 -170.7
8.67820000 0.028558 -170.9 0.999587 -80.79 0.999587 -80.79 0.028558 -170.7
8.67830000 0.028569 -170.9 0.999587 -80.79 0.999587 -80.79 0.028569 -170.7
8.67840000 0.028580 -170.9 0.999586 -80.79 0.999586 -80.79 0.028579 -170.7
8.67850000 0.028590 -170.9 0.999586 -80.79 0.999586 -80.79 0.028590 -170.7
8.67860000 0.028601 -170.9 0.999586 -80.79 0.999586 -80.79 0.028601 -170.7
8.67870000 0.028612 -170.9 0.999585 -80.79 0.999585 -80.79 0.028612 -170.7
8.67880000 0.028622 -170.9 0.999585 -80.80 0.999585 -80.80 0.028622 -170.7
8.67890000 0.028633 -170.9 0.999585 -80.80 0.999585 -80.80 0.028633 -170.7
8.67900000 0.028644 -170.9 0.999584 -80.80 0.999584 -80.80 0.028644 -170.7
8.67910000 0.028654 -170.9 0.999584 -80.80 0.999584 -80.80 0.028654 -170.7
8.67920000 0.028665 -170.9 0.999584 -80.80 0.999584 -80.80 0.028665 -170.7
8.67930000 0.028676 -170.9 0.999583 -80.80 0.999583 -80.80 0.028676 -170.7
8.67940000 0.028687 -170.9 0.999583 -80.81 0.999583 -80.81 0.028687 -170.7
8.67950000 0.028697 -170.9 0.999583 -80.81 0.999583 -80.81 0.028697 -170.7
8.67960000 0.028708 -170.9 0.999582 -80.81 0.999582 -80.81 0.028708 -170.7
8.67970000 0.028719 -170.9 0.999582 -80.81 0.999582 -80.81 0.028719 -170.7
8.67980000 0.028730 -170.9 0.999582 -80.81 0.999582 -80.81 0.028730 -170.7
8.67990000 0.028741 -170.9 0.999582 -80.81 0.999582 -80.81 0.028740 -170.7
8.68000000 0.028751 -170.9 0.999581 -80.81 0.999581 -80.81 0.028751 -170.7
8.68010000 0.028762 -170.9 0.999581 -80.82 0.999581 -80.82 0.028762 -170.7
8.68020000 0.028773 -170.9 0.999581 -80.82 0.999581 -80.82 0.028773 -170.7
8.68030000 0.028784 -170.9 0.999580 -80.82 0.999580 -80.82 0.028784 -170.7
8.68040000 0.028795 -170.9 0.999580 -80.82 0.999580 -80.82 0.028795 -170.7
8.68050000 0.028806 -170.9 0.999580 -80.82 0.999580 -80.82 0.028806 -170.7
8.68060000 0.028816 -170.9 0.999579 -80.82 0.999579 -80.82 0.028816 -170.7
8.68070000 0.028827 -170.9 0.999579 -80.83 0.999579 -80.83 0.028827 -170.7
8.68080000 0.028838 -170.9 0.999579 -80.83 0.999579 -80.83 0.028838 -170.7
8.68090000 0.028849 -170.9 0.999578 -80.83 0.999578 -80.83 0.028849 -170.7
8.68100000 0.028860 -170.9 0.999578 -80.83 0.999578 -80.83 0.028860 -170.7
8.68110000 0.028871 -170.9 0.999578 -80.83 0.999578 -80.83 0.028871 -170.7
8.68120000 0.028882 -170.9 0.999577 -80.83 0.999577 -80.83 0.028882 -170.7
8.68130000 0.028893 -170.9 0.999577 -80.83 0.999577 -80.83 0.028893 -170.7
8.68140000 0.028904 -170.9 0.999577 -80.84 0.999577 -80.84 0.028904 -170.7
8.68150000 0.028915 -170.9 0.999577 -80.84 0.999577 -80.84 0.028915 -170.7
8.68160000 0.028926 -170.9 0.999576 -80.84 0.999576 -80.84 0.028926 -170.7
8.68170000 0.028937 -170.9 0.999576 -80.84 0.999576 -80.84 0.028937 -170.7
8.68180000 0.028948 -171.0 0.999576 -80.84 0.999576 -80.84 0.028948 -170.8
8.68190000 0.028959 -171.0 0.999575 -80.84 0.999575 -80.84 0.028959 -170.8
8.68200000 0.028970 -171.0 0.999575 -80.85 0.999575 -80.85 0.028970 -170.8
8.68210000 0.028981 -171.0 0.999575 -80.85 0.999575 -80.85 0.028981 -170.8
8.68220000 0.028992 -171.0 0.999574 -80.85 0.999574 -80.85 0.028992 -170.8
8.68230000 0.029003 -171.0 0.999574 -80.85 0.999574 -80.85 0.029003 -170.8
8.68240000 0.029014 -171.0 0.999574 -80.85 0.999574 -80.85 0.029014 -170.8
8.68250000 0.029025 -171.0 0.999573 -80.85 0.999573 -80.85 0.029025 -170.8
8.68260000 0.029036 -171.0 0.999573 -80.86 0.999573 -80.86 0.029036 -170.8
8.68270000 0.029047 -171.0 0.999573 -80.86 0.999573 -80.86 0.029047 -170.8
8.68280000 0.029058 -171.0 0.999572 -80.86 0.999572 -80.86 0.029058 -170.8
8.68290000 0.029069 -171.0 0.999572 -80.86 0.999572 -80.86 0.029069 -170.8
8.68300000 0.029080 -171.0 0.999572 -80.86 0.999572 -80.86 0.029080 -170.8
8.68310000 0.029092 -171.0 0.999571 -80.86 0.999571 -80.86 0.029092 -170.8
8.68320000 0.029103 -171.0 0.999571 -80.86 0.999571 -80.86 0.029103 -170.8
8.68330000 0.029114 -171.0 0.999571 -80.87 0.999571 -80.87 0.029114 -170.8
8.68340000 0.029125 -171.0 0.999570 -80.87 0.999570 -80.87 0.029125 -170.8
8.68350000 0.029136 -171.0 0.999570 -80.87 0.999570 -80.87 0.029136 -170.8
8.68360000 0.029147 -171.0 0.999570 -80.87 0.999570 -80.87 0.029147 -170.8
8.68370000 0.029159 -171.0 0.999569 -80.87 0.999569 -80.87 0.029159 -170.8
8.68380000 0.029170 -171.0 0.999569 -80.87 0.999569 -80.87 0.029170 -170.8
8.68390000 0.029181 -171.0 0.999569 -80.88 0.999569 -80.88 0.029181 -170.8
8.68400000 0.029192 -171.0 0.999568 -80.88 0.999568 -80.88 0.029192 -170.8
8.68410000 0.029203 -171.0 0.999568 -80.88 0.999568 -80.88 0.029203 -170.8
8.68420000 0.029215 -171.0 0.999568 -80.88 0.999568 -80.88 0.029215 -170.8
8.68430000 0.029226 -171.0 0.999567 -80.88 0.999567 -80.88 0.029226 -170.8
8.68440000 0.029237 -171.0 0.999567 -80.88 0.999567 -80.88 0.029237 -170.8
8.68450000 0.029248 -171.0 0.999567 -80.88 0.999567 -80.88 0.029248 -170.8
8.68460000 0.029260 -171.0 0.999566 -80.89 0.999566 -80.89 0.029260 -170.8
8.68470000 0.029271 -171.0 0.999566 -80.89 0.999566 -80.89 0.029271 -170.8
8.68480000 0.029282 -171.0 0.999566 -80.89 0.999566 -80.89 0.029282 -170.8
8.68490000 0.029294 -171.0 0.999565 -80.89 0.999565 -80.89 0.029294 -170.8
8.68500000 0.029305 -171.0 0.999565 -80.89 0.999565 -80.89 0.029305 -170.8
8.68510000 0.029316 -171.0 0.999565 -80.89 0.999565 -80.89 0.029316 -170.8
8.68520000 0.029328 -171.0 0.999564 -80.90 0.999564 -80.90 0.029328 -170.8
8.68530000 0.029339 -171.0 0.999564 -80.90 0.999564 -80.90 0.029339 -170.8
8.68540000 0.029350 -171.0 0.999564 -80.90 0.999564 -80.90 0.029350 -170.8
8.68550000 0.029362 -171.0 0.999563 -80.90 0.999563 -80.90 0.029362 -170.8
8.68560000 0.029373 -171.0 0.999563 -80.90 0.999563 -80.90 0.029373 -170.8
8.68570000 0.029385 -171.0 0.999563 -80.90 0.999563 -80.90 0.029385 -170.8
8.68580000 0.029396 -171.0 0.999562 -80.91 0.999562 -80.91 0.029396 -170.8
8.68590000 0.029407 -171.0 0.999562 -80.91 0.999562 -80.91 0.029407 -170.8
8.68600000 0.029419 -171.0 0.999562 -80.91 0.999562 -80.91 0.029419 -170.8
8.68610000 0.029430 -171.0 0.999561 -80.91 0.999561 -80.91 0.029430 -170.8
8.68620000 0.029442 -171.0 0.999561 -80.91 0.999561 -80.91 0.029442 -170.8
8.68630000 0.029453 -171.0 0.999561 -80.91 0.999561 -80.91 0.029453 -170.8
8.68640000 0.029465 -171.0 0.999560 -80.91 0.999560 -80.91 0.029465 -170.8
8.68650000 0.029476 -171.0 0.999560 -80.92 0.999560 -80.92 0.029476 -170.8
8.68660000 0.029488 -171.0 0.999560 -80.92 0.999560 -80.92 0.029488 -170.8
8.68670000 0.029499 -171.0 0.999559 -80.92 0.999559 -80.92 0.029499 -170.8
8.68680000 0.029511 -171.0 0.999559 -80.92 0.999559 -80.92 0.029511 -170.8
8.68690000 0.029522 -171.0 0.999559 -80.92 0.999559 -80.92 0.029522 -170.8
8.68700000 0.029534 -171.0 0.999558 -80.92 0.999558 -80.92 0.029534 -170.8
8.68710000 0.029545 -171.0 0.999558 -80.93 0.999558 -80.93 0.029545 -170.8
8.68720000 0.029557 -171.0 0.999558 -80.93 0.999558 -80.93 0.029557 -170.8
8.68730000 0.029569 -171.0 0.999557 -80.93 0.999557 -80.93 0.029569 -170.8
8.68740000 0.029580 -171.0 0.999557 -80.93 0.999557 -80.93 0.029580 -170.8
8.68750000 0.029592 -171.0 0.999557 -80.93 0.999557 -80.93 0.029592 -170.8
8.68760000 0.029603 -171.0 0.999556 -80.93 0.999556 -80.93 0.029603 -170.8
8.68770000 0.029615 -171.0 0.999556 -80.94 0.999556 -80.94 0.029615 -170.9
8.68780000 0.029627 -171.0 0.999556 -80.94 0.999556 -80.94 0.029627 -170.9
8.68790000 0.029638 -171.0 0.999555 -80.94 0.999555 -80.94 0.029638 -170.9
8.68800000 0.029650 -171.0 0.999555 -80.94 0.999555 -80.94 0.029650 -170.9
8.68810000 0.029662 -171.0 0.999554 -80.94 0.999554 -80.94 0.029662 -170.9
8.68820000 0.029673 -171.0 0.999554 -80.94 0.999554 -80.94 0.029673 -170.9
8.68830000 0.029685 -171.0 0.999554 -80.94 0.999554 -80.94 0.029685 -170.9
8.68840000 0.029697 -171.0 0.999553 -80.95 0.999553 -80.95 0.029697 -170.9
8.68850000 0.029708 -171.0 0.999553 -80.95 0.999553 -80.95 0.029708 -170.9
8.68860000 0.029720 -171.0 0.999553 -80.95 0.999553 -80.95 0.029720 -170.9
8.68870000 0.029732 -171.0 0.999552 -80.95 0.999552 -80.95 0.029732 -170.9
8.68880000 0.029744 -171.1 0.999552 -80.95 0.999552 -80.95 0.029744 -170.9
8.68890000 0.029755 -171.1 0.999552 -80.95 0.999552 -80.95 0.029755 -170.9
8.68900000 0.029767 -171.1 0.999551 -80.96 0.999551 -80.96 0.029767 -170.9
8.68910000 0.029779 -171.1 0.999551 -80.96 0.999551 -80.96 0.029779 -170.9
8.68920000 0.029791 -171.1 0.999551 -80.96 0.999551 -80.96 0.029791 -170.9