! Sonnet Data File
! From: emgraph Version : 16.52
! From Project: transmon_trial
! Data is De-embedded 
! Data File Written: 10/20/2017 09:13:07
!< HDATE 10/19/2017 20:03:37
!< MDATE 10/19/2017 20:10:25
!< PARAMS
!< Lj = 15.24
!< Gap = 6.0
!< Width = 40.0
!< Airgap = 24.0
!< Pwidth = 2000.0
!< END PARAMS
# GHZ S MA R 51.00000
8.65000000 0.067491 -172.9 0.997709 -82.81 0.997709 -82.81 0.067491 -172.7
!< P1 F=8.65 Eeff=(6.44261619 -3.0744e-5) Z0=(50.478933 1.09474e-4) R=0.0 C=0.0 
!< P2 F=8.65 Eeff=(6.44261619 -3.0744e-5) Z0=(50.478933 1.09474e-4) R=0.0 C=0.0 
8.65010000 0.067532 -172.9 0.997707 -82.81 0.997707 -82.81 0.067532 -172.7
8.65020000 0.067573 -172.9 0.997704 -82.81 0.997704 -82.81 0.067573 -172.7
8.65030000 0.067614 -172.9 0.997701 -82.82 0.997701 -82.82 0.067614 -172.7
8.65040000 0.067655 -172.9 0.997698 -82.82 0.997698 -82.82 0.067655 -172.7
8.65050000 0.067696 -172.9 0.997695 -82.82 0.997695 -82.82 0.067696 -172.7
8.65060000 0.067737 -172.9 0.997693 -82.83 0.997693 -82.83 0.067737 -172.7
8.65070000 0.067778 -172.9 0.997690 -82.83 0.997690 -82.83 0.067778 -172.8
8.65080000 0.067820 -172.9 0.997687 -82.83 0.997687 -82.83 0.067819 -172.8
8.65090000 0.067861 -172.9 0.997684 -82.84 0.997684 -82.84 0.067861 -172.8
8.65100000 0.067902 -172.9 0.997681 -82.84 0.997681 -82.84 0.067902 -172.8
8.65110000 0.067944 -172.9 0.997678 -82.84 0.997678 -82.84 0.067944 -172.8
8.65120000 0.067985 -172.9 0.997676 -82.85 0.997676 -82.85 0.067985 -172.8
8.65130000 0.068027 -172.9 0.997673 -82.85 0.997673 -82.85 0.068027 -172.8
8.65140000 0.068068 -172.9 0.997670 -82.85 0.997670 -82.85 0.068068 -172.8
8.65150000 0.068110 -173.0 0.997667 -82.86 0.997667 -82.86 0.068110 -172.8
8.65160000 0.068152 -173.0 0.997664 -82.86 0.997664 -82.86 0.068152 -172.8
8.65170000 0.068194 -173.0 0.997661 -82.86 0.997661 -82.86 0.068194 -172.8
8.65180000 0.068235 -173.0 0.997658 -82.87 0.997658 -82.87 0.068235 -172.8
8.65190000 0.068277 -173.0 0.997656 -82.87 0.997656 -82.87 0.068277 -172.8
8.65200000 0.068319 -173.0 0.997653 -82.87 0.997653 -82.87 0.068319 -172.8
8.65210000 0.068361 -173.0 0.997650 -82.88 0.997650 -82.88 0.068361 -172.8
8.65220000 0.068403 -173.0 0.997647 -82.88 0.997647 -82.88 0.068403 -172.8
8.65230000 0.068445 -173.0 0.997644 -82.88 0.997644 -82.88 0.068445 -172.8
8.65240000 0.068488 -173.0 0.997641 -82.89 0.997641 -82.89 0.068488 -172.8
8.65250000 0.068530 -173.0 0.997638 -82.89 0.997638 -82.89 0.068530 -172.8
8.65260000 0.068572 -173.0 0.997635 -82.89 0.997635 -82.89 0.068572 -172.8
8.65270000 0.068615 -173.0 0.997632 -82.90 0.997632 -82.90 0.068614 -172.8
8.65280000 0.068657 -173.0 0.997629 -82.90 0.997629 -82.90 0.068657 -172.8
8.65290000 0.068699 -173.0 0.997627 -82.90 0.997627 -82.90 0.068699 -172.8
8.65300000 0.068742 -173.0 0.997624 -82.91 0.997624 -82.91 0.068742 -172.8
8.65310000 0.068784 -173.0 0.997621 -82.91 0.997621 -82.91 0.068784 -172.8
8.65320000 0.068827 -173.0 0.997618 -82.91 0.997618 -82.91 0.068827 -172.8
8.65330000 0.068870 -173.0 0.997615 -82.92 0.997615 -82.92 0.068870 -172.8
8.65340000 0.068913 -173.0 0.997612 -82.92 0.997612 -82.92 0.068912 -172.8
8.65350000 0.068955 -173.0 0.997609 -82.92 0.997609 -82.92 0.068955 -172.8
8.65360000 0.068998 -173.0 0.997606 -82.93 0.997606 -82.93 0.068998 -172.9
8.65370000 0.069041 -173.0 0.997603 -82.93 0.997603 -82.93 0.069041 -172.9
8.65380000 0.069084 -173.0 0.997600 -82.93 0.997600 -82.93 0.069084 -172.9
8.65390000 0.069127 -173.0 0.997597 -82.94 0.997597 -82.94 0.069127 -172.9
8.65400000 0.069170 -173.0 0.997594 -82.94 0.997594 -82.94 0.069170 -172.9
8.65410000 0.069213 -173.0 0.997591 -82.94 0.997591 -82.94 0.069213 -172.9
8.65420000 0.069257 -173.0 0.997588 -82.95 0.997588 -82.95 0.069256 -172.9
8.65430000 0.069300 -173.0 0.997585 -82.95 0.997585 -82.95 0.069300 -172.9
8.65440000 0.069343 -173.0 0.997582 -82.95 0.997582 -82.95 0.069343 -172.9
8.65450000 0.069387 -173.0 0.997579 -82.96 0.997579 -82.96 0.069386 -172.9
8.65460000 0.069430 -173.0 0.997576 -82.96 0.997576 -82.96 0.069430 -172.9
8.65470000 0.069473 -173.1 0.997573 -82.96 0.997573 -82.96 0.069473 -172.9
8.65480000 0.069517 -173.1 0.997570 -82.97 0.997570 -82.97 0.069517 -172.9
8.65490000 0.069561 -173.1 0.997567 -82.97 0.997567 -82.97 0.069561 -172.9
8.65500000 0.069604 -173.1 0.997564 -82.97 0.997564 -82.97 0.069604 -172.9
8.65510000 0.069648 -173.1 0.997561 -82.98 0.997561 -82.98 0.069648 -172.9
8.65520000 0.069692 -173.1 0.997557 -82.98 0.997557 -82.98 0.069692 -172.9
8.65530000 0.069736 -173.1 0.997554 -82.99 0.997554 -82.99 0.069736 -172.9
8.65540000 0.069780 -173.1 0.997551 -82.99 0.997551 -82.99 0.069780 -172.9
8.65550000 0.069824 -173.1 0.997548 -82.99 0.997548 -82.99 0.069824 -172.9
8.65560000 0.069868 -173.1 0.997545 -83.00 0.997545 -83.00 0.069868 -172.9
8.65570000 0.069912 -173.1 0.997542 -83.00 0.997542 -83.00 0.069912 -172.9
8.65580000 0.069956 -173.1 0.997539 -83.00 0.997539 -83.00 0.069956 -172.9
8.65590000 0.070000 -173.1 0.997536 -83.01 0.997536 -83.01 0.070000 -172.9
8.65600000 0.070044 -173.1 0.997533 -83.01 0.997533 -83.01 0.070044 -172.9
8.65610000 0.070089 -173.1 0.997530 -83.01 0.997530 -83.01 0.070089 -172.9
8.65620000 0.070133 -173.1 0.997526 -83.02 0.997526 -83.02 0.070133 -172.9
8.65630000 0.070178 -173.1 0.997523 -83.02 0.997523 -83.02 0.070177 -173.0
8.65640000 0.070222 -173.1 0.997520 -83.02 0.997520 -83.02 0.070222 -173.0
8.65650000 0.070267 -173.1 0.997517 -83.03 0.997517 -83.03 0.070267 -173.0
8.65660000 0.070311 -173.1 0.997514 -83.03 0.997514 -83.03 0.070311 -173.0
8.65670000 0.070356 -173.1 0.997511 -83.03 0.997511 -83.03 0.070356 -173.0
8.65680000 0.070401 -173.1 0.997508 -83.04 0.997508 -83.04 0.070401 -173.0
8.65690000 0.070446 -173.1 0.997504 -83.04 0.997504 -83.04 0.070446 -173.0
8.65700000 0.070490 -173.1 0.997501 -83.04 0.997501 -83.04 0.070490 -173.0
8.65710000 0.070535 -173.1 0.997498 -83.05 0.997498 -83.05 0.070535 -173.0
8.65720000 0.070580 -173.1 0.997495 -83.05 0.997495 -83.05 0.070580 -173.0
8.65730000 0.070626 -173.1 0.997492 -83.05 0.997492 -83.05 0.070625 -173.0
8.65740000 0.070671 -173.1 0.997488 -83.06 0.997488 -83.06 0.070671 -173.0
8.65750000 0.070716 -173.1 0.997485 -83.06 0.997485 -83.06 0.070716 -173.0
8.65760000 0.070761 -173.1 0.997482 -83.07 0.997482 -83.07 0.070761 -173.0
8.65770000 0.070806 -173.2 0.997479 -83.07 0.997479 -83.07 0.070806 -173.0
8.65780000 0.070852 -173.2 0.997475 -83.07 0.997475 -83.07 0.070852 -173.0
8.65790000 0.070897 -173.2 0.997472 -83.08 0.997472 -83.08 0.070897 -173.0
8.65800000 0.070943 -173.2 0.997469 -83.08 0.997469 -83.08 0.070943 -173.0
8.65810000 0.070988 -173.2 0.997466 -83.08 0.997466 -83.08 0.070988 -173.0
8.65820000 0.071034 -173.2 0.997462 -83.09 0.997462 -83.09 0.071034 -173.0
8.65830000 0.071080 -173.2 0.997459 -83.09 0.997459 -83.09 0.071080 -173.0
8.65840000 0.071125 -173.2 0.997456 -83.09 0.997456 -83.09 0.071125 -173.0
8.65850000 0.071171 -173.2 0.997453 -83.10 0.997453 -83.10 0.071171 -173.0
8.65860000 0.071217 -173.2 0.997449 -83.10 0.997449 -83.10 0.071217 -173.0
8.65870000 0.071263 -173.2 0.997446 -83.10 0.997446 -83.10 0.071263 -173.0
8.65880000 0.071309 -173.2 0.997443 -83.11 0.997443 -83.11 0.071309 -173.0
8.65890000 0.071355 -173.2 0.997439 -83.11 0.997439 -83.11 0.071355 -173.0
8.65900000 0.071401 -173.2 0.997436 -83.11 0.997436 -83.11 0.071401 -173.1
8.65910000 0.071448 -173.2 0.997433 -83.12 0.997433 -83.12 0.071448 -173.1
8.65920000 0.071494 -173.2 0.997429 -83.12 0.997429 -83.12 0.071494 -173.1
8.65930000 0.071540 -173.2 0.997426 -83.13 0.997426 -83.13 0.071540 -173.1
8.65940000 0.071587 -173.2 0.997423 -83.13 0.997423 -83.13 0.071587 -173.1
8.65950000 0.071633 -173.2 0.997419 -83.13 0.997419 -83.13 0.071633 -173.1
8.65960000 0.071680 -173.2 0.997416 -83.14 0.997416 -83.14 0.071680 -173.1
8.65970000 0.071726 -173.2 0.997413 -83.14 0.997413 -83.14 0.071726 -173.1
8.65980000 0.071773 -173.2 0.997409 -83.14 0.997409 -83.14 0.071773 -173.1
8.65990000 0.071820 -173.2 0.997406 -83.15 0.997406 -83.15 0.071820 -173.1
8.66000000 0.071866 -173.2 0.997403 -83.15 0.997403 -83.15 0.071866 -173.1
8.66010000 0.071913 -173.2 0.997399 -83.15 0.997399 -83.15 0.071913 -173.1
8.66020000 0.071960 -173.2 0.997396 -83.16 0.997396 -83.16 0.071960 -173.1
8.66030000 0.072007 -173.2 0.997392 -83.16 0.997392 -83.16 0.072007 -173.1
8.66040000 0.072054 -173.2 0.997389 -83.16 0.997389 -83.16 0.072054 -173.1
8.66050000 0.072101 -173.2 0.997386 -83.17 0.997386 -83.17 0.072101 -173.1
8.66060000 0.072149 -173.3 0.997382 -83.17 0.997382 -83.17 0.072149 -173.1
8.66070000 0.072196 -173.3 0.997379 -83.18 0.997379 -83.18 0.072196 -173.1
8.66080000 0.072243 -173.3 0.997375 -83.18 0.997375 -83.18 0.072243 -173.1
8.66090000 0.072291 -173.3 0.997372 -83.18 0.997372 -83.18 0.072291 -173.1
8.66100000 0.072338 -173.3 0.997368 -83.19 0.997368 -83.19 0.072338 -173.1
8.66110000 0.072386 -173.3 0.997365 -83.19 0.997365 -83.19 0.072386 -173.1
8.66120000 0.072433 -173.3 0.997361 -83.19 0.997361 -83.19 0.072433 -173.1
8.66130000 0.072481 -173.3 0.997358 -83.20 0.997358 -83.20 0.072481 -173.1
8.66140000 0.072529 -173.3 0.997355 -83.20 0.997355 -83.20 0.072529 -173.1
8.66150000 0.072576 -173.3 0.997351 -83.21 0.997351 -83.21 0.072576 -173.1
8.66160000 0.072624 -173.3 0.997348 -83.21 0.997348 -83.21 0.072624 -173.1
8.66170000 0.072672 -173.3 0.997344 -83.21 0.997344 -83.21 0.072672 -173.2
8.66180000 0.072720 -173.3 0.997341 -83.22 0.997341 -83.22 0.072720 -173.2
8.66190000 0.072768 -173.3 0.997337 -83.22 0.997337 -83.22 0.072768 -173.2
8.66200000 0.072816 -173.3 0.997333 -83.22 0.997333 -83.22 0.072816 -173.2
8.66210000 0.072865 -173.3 0.997330 -83.23 0.997330 -83.23 0.072865 -173.2
8.66220000 0.072913 -173.3 0.997326 -83.23 0.997326 -83.23 0.072913 -173.2
8.66230000 0.072961 -173.3 0.997323 -83.23 0.997323 -83.23 0.072961 -173.2
8.66240000 0.073010 -173.3 0.997319 -83.24 0.997319 -83.24 0.073010 -173.2
8.66250000 0.073058 -173.3 0.997316 -83.24 0.997316 -83.24 0.073058 -173.2
8.66260000 0.073107 -173.3 0.997312 -83.25 0.997312 -83.25 0.073107 -173.2
8.66270000 0.073155 -173.3 0.997309 -83.25 0.997309 -83.25 0.073155 -173.2
8.66280000 0.073204 -173.3 0.997305 -83.25 0.997305 -83.25 0.073204 -173.2
8.66290000 0.073253 -173.3 0.997301 -83.26 0.997301 -83.26 0.073253 -173.2
8.66300000 0.073302 -173.3 0.997298 -83.26 0.997298 -83.26 0.073302 -173.2
8.66310000 0.073351 -173.3 0.997294 -83.26 0.997294 -83.26 0.073351 -173.2
8.66320000 0.073400 -173.3 0.997291 -83.27 0.997291 -83.27 0.073400 -173.2
8.66330000 0.073449 -173.3 0.997287 -83.27 0.997287 -83.27 0.073449 -173.2
8.66340000 0.073498 -173.3 0.997283 -83.28 0.997283 -83.28 0.073498 -173.2
8.66350000 0.073547 -173.4 0.997280 -83.28 0.997280 -83.28 0.073547 -173.2
8.66360000 0.073596 -173.4 0.997276 -83.28 0.997276 -83.28 0.073596 -173.2
8.66370000 0.073646 -173.4 0.997272 -83.29 0.997272 -83.29 0.073646 -173.2
8.66380000 0.073695 -173.4 0.997269 -83.29 0.997269 -83.29 0.073695 -173.2
8.66390000 0.073744 -173.4 0.997265 -83.29 0.997265 -83.29 0.073744 -173.2
8.66400000 0.073794 -173.4 0.997261 -83.30 0.997261 -83.30 0.073794 -173.2
8.66410000 0.073844 -173.4 0.997258 -83.30 0.997258 -83.30 0.073844 -173.2
8.66420000 0.073893 -173.4 0.997254 -83.31 0.997254 -83.31 0.073893 -173.3
8.66430000 0.073943 -173.4 0.997250 -83.31 0.997250 -83.31 0.073943 -173.3
8.66440000 0.073993 -173.4 0.997247 -83.31 0.997247 -83.31 0.073993 -173.3
8.66450000 0.074043 -173.4 0.997243 -83.32 0.997243 -83.32 0.074043 -173.3
8.66460000 0.074093 -173.4 0.997239 -83.32 0.997239 -83.32 0.074093 -173.3
8.66470000 0.074143 -173.4 0.997235 -83.32 0.997235 -83.32 0.074143 -173.3
8.66480000 0.074193 -173.4 0.997232 -83.33 0.997232 -83.33 0.074193 -173.3
8.66490000 0.074243 -173.4 0.997228 -83.33 0.997228 -83.33 0.074243 -173.3
8.66500000 0.074293 -173.4 0.997224 -83.34 0.997224 -83.34 0.074293 -173.3
8.66510000 0.074344 -173.4 0.997220 -83.34 0.997220 -83.34 0.074344 -173.3
8.66520000 0.074394 -173.4 0.997217 -83.34 0.997217 -83.34 0.074394 -173.3
8.66530000 0.074445 -173.4 0.997213 -83.35 0.997213 -83.35 0.074445 -173.3
8.66540000 0.074495 -173.4 0.997209 -83.35 0.997209 -83.35 0.074495 -173.3
8.66550000 0.074546 -173.4 0.997205 -83.35 0.997205 -83.35 0.074546 -173.3
8.66560000 0.074597 -173.4 0.997201 -83.36 0.997201 -83.36 0.074597 -173.3
8.66570000 0.074647 -173.4 0.997198 -83.36 0.997198 -83.36 0.074647 -173.3
8.66580000 0.074698 -173.4 0.997194 -83.37 0.997194 -83.37 0.074698 -173.3
8.66590000 0.074749 -173.4 0.997190 -83.37 0.997190 -83.37 0.074749 -173.3
8.66600000 0.074800 -173.4 0.997186 -83.37 0.997186 -83.37 0.074800 -173.3
8.66610000 0.074851 -173.4 0.997182 -83.38 0.997182 -83.38 0.074851 -173.3
8.66620000 0.074902 -173.5 0.997178 -83.38 0.997178 -83.38 0.074902 -173.3
8.66630000 0.074954 -173.5 0.997175 -83.39 0.997175 -83.39 0.074954 -173.3
8.66640000 0.075005 -173.5 0.997171 -83.39 0.997171 -83.39 0.075005 -173.3
8.66650000 0.075056 -173.5 0.997167 -83.39 0.997167 -83.39 0.075056 -173.3
8.66660000 0.075108 -173.5 0.997163 -83.40 0.997163 -83.40 0.075108 -173.3
8.66670000 0.075159 -173.5 0.997159 -83.40 0.997159 -83.40 0.075159 -173.4
8.66680000 0.075211 -173.5 0.997155 -83.41 0.997155 -83.41 0.075211 -173.4
8.66690000 0.075263 -173.5 0.997151 -83.41 0.997151 -83.41 0.075263 -173.4
8.66700000 0.075314 -173.5 0.997147 -83.41 0.997147 -83.41 0.075314 -173.4
8.66710000 0.075366 -173.5 0.997143 -83.42 0.997143 -83.42 0.075366 -173.4
8.66720000 0.075418 -173.5 0.997139 -83.42 0.997139 -83.42 0.075418 -173.4
8.66730000 0.075470 -173.5 0.997135 -83.42 0.997135 -83.42 0.075470 -173.4
8.66740000 0.075522 -173.5 0.997132 -83.43 0.997132 -83.43 0.075522 -173.4
8.66750000 0.075574 -173.5 0.997128 -83.43 0.997128 -83.43 0.075574 -173.4
8.66760000 0.075627 -173.5 0.997124 -83.44 0.997124 -83.44 0.075627 -173.4
8.66770000 0.075679 -173.5 0.997120 -83.44 0.997120 -83.44 0.075679 -173.4
8.66780000 0.075731 -173.5 0.997116 -83.44 0.997116 -83.44 0.075731 -173.4
8.66790000 0.075784 -173.5 0.997112 -83.45 0.997112 -83.45 0.075784 -173.4
8.66800000 0.075836 -173.5 0.997108 -83.45 0.997108 -83.45 0.075836 -173.4
8.66810000 0.075889 -173.5 0.997104 -83.46 0.997104 -83.46 0.075889 -173.4
8.66820000 0.075942 -173.5 0.997100 -83.46 0.997100 -83.46 0.075942 -173.4
8.66830000 0.075994 -173.5 0.997096 -83.46 0.997096 -83.46 0.075994 -173.4
8.66840000 0.076047 -173.5 0.997091 -83.47 0.997091 -83.47 0.076047 -173.4
8.66850000 0.076100 -173.5 0.997087 -83.47 0.997087 -83.47 0.076100 -173.4
8.66860000 0.076153 -173.5 0.997083 -83.48 0.997083 -83.48 0.076153 -173.4
8.66870000 0.076206 -173.5 0.997079 -83.48 0.997079 -83.48 0.076206 -173.4
8.66880000 0.076260 -173.5 0.997075 -83.48 0.997075 -83.48 0.076259 -173.4
8.66890000 0.076313 -173.6 0.997071 -83.49 0.997071 -83.49 0.076313 -173.4
8.66900000 0.076366 -173.6 0.997067 -83.49 0.997067 -83.49 0.076366 -173.4
8.66910000 0.076420 -173.6 0.997063 -83.50 0.997063 -83.50 0.076419 -173.4
8.66920000 0.076473 -173.6 0.997059 -83.50 0.997059 -83.50 0.076473 -173.5
8.66930000 0.076527 -173.6 0.997055 -83.50 0.997055 -83.50 0.076527 -173.5
8.66940000 0.076580 -173.6 0.997051 -83.51 0.997051 -83.51 0.076580 -173.5
8.66950000 0.076634 -173.6 0.997046 -83.51 0.997046 -83.51 0.076634 -173.5
8.66960000 0.076688 -173.6 0.997042 -83.52 0.997042 -83.52 0.076688 -173.5
8.66970000 0.076742 -173.6 0.997038 -83.52 0.997038 -83.52 0.076742 -173.5
8.66980000 0.076796 -173.6 0.997034 -83.52 0.997034 -83.52 0.076796 -173.5
8.66990000 0.076850 -173.6 0.997030 -83.53 0.997030 -83.53 0.076850 -173.5
8.67000000 0.076904 -173.6 0.997026 -83.53 0.997026 -83.53 0.076904 -173.5
8.67010000 0.076958 -173.6 0.997021 -83.54 0.997021 -83.54 0.076958 -173.5
8.67020000 0.077012 -173.6 0.997017 -83.54 0.997017 -83.54 0.077012 -173.5
8.67030000 0.077067 -173.6 0.997013 -83.54 0.997013 -83.54 0.077067 -173.5
8.67040000 0.077121 -173.6 0.997009 -83.55 0.997009 -83.55 0.077121 -173.5
8.67050000 0.077176 -173.6 0.997004 -83.55 0.997004 -83.55 0.077176 -173.5
8.67060000 0.077230 -173.6 0.997000 -83.56 0.997000 -83.56 0.077230 -173.5
8.67070000 0.077285 -173.6 0.996996 -83.56 0.996996 -83.56 0.077285 -173.5
8.67080000 0.077340 -173.6 0.996992 -83.56 0.996992 -83.56 0.077340 -173.5
8.67090000 0.077395 -173.6 0.996987 -83.57 0.996987 -83.57 0.077395 -173.5
8.67100000 0.077450 -173.6 0.996983 -83.57 0.996983 -83.57 0.077450 -173.5
8.67110000 0.077505 -173.6 0.996979 -83.58 0.996979 -83.58 0.077505 -173.5
8.67120000 0.077560 -173.6 0.996975 -83.58 0.996975 -83.58 0.077560 -173.5
8.67130000 0.077615 -173.6 0.996970 -83.58 0.996970 -83.58 0.077615 -173.5
8.67140000 0.077671 -173.6 0.996966 -83.59 0.996966 -83.59 0.077670 -173.5
8.67150000 0.077726 -173.7 0.996962 -83.59 0.996962 -83.59 0.077726 -173.6
8.67160000 0.077781 -173.7 0.996957 -83.60 0.996957 -83.60 0.077781 -173.6
8.67170000 0.077837 -173.7 0.996953 -83.60 0.996953 -83.60 0.077837 -173.6
8.67180000 0.077893 -173.7 0.996949 -83.60 0.996949 -83.60 0.077893 -173.6
8.67190000 0.077948 -173.7 0.996944 -83.61 0.996944 -83.61 0.077948 -173.6
8.67200000 0.078004 -173.7 0.996940 -83.61 0.996940 -83.61 0.078004 -173.6
8.67210000 0.078060 -173.7 0.996935 -83.62 0.996935 -83.62 0.078060 -173.6
8.67220000 0.078116 -173.7 0.996931 -83.62 0.996931 -83.62 0.078116 -173.6
8.67230000 0.078172 -173.7 0.996927 -83.63 0.996927 -83.63 0.078172 -173.6
8.67240000 0.078228 -173.7 0.996922 -83.63 0.996922 -83.63 0.078228 -173.6
8.67250000 0.078285 -173.7 0.996918 -83.63 0.996918 -83.63 0.078284 -173.6
8.67260000 0.078341 -173.7 0.996913 -83.64 0.996913 -83.64 0.078341 -173.6
8.67270000 0.078397 -173.7 0.996909 -83.64 0.996909 -83.64 0.078397 -173.6
8.67280000 0.078454 -173.7 0.996904 -83.65 0.996904 -83.65 0.078454 -173.6
8.67290000 0.078510 -173.7 0.996900 -83.65 0.996900 -83.65 0.078510 -173.6
8.67300000 0.078567 -173.7 0.996895 -83.65 0.996895 -83.65 0.078567 -173.6
8.67310000 0.078624 -173.7 0.996891 -83.66 0.996891 -83.66 0.078624 -173.6
8.67320000 0.078681 -173.7 0.996886 -83.66 0.996886 -83.66 0.078681 -173.6
8.67330000 0.078738 -173.7 0.996882 -83.67 0.996882 -83.67 0.078738 -173.6
8.67340000 0.078795 -173.7 0.996877 -83.67 0.996877 -83.67 0.078795 -173.6
8.67350000 0.078852 -173.7 0.996873 -83.68 0.996873 -83.68 0.078852 -173.6
8.67360000 0.078909 -173.7 0.996868 -83.68 0.996868 -83.68 0.078909 -173.6
8.67370000 0.078966 -173.7 0.996864 -83.68 0.996864 -83.68 0.078966 -173.6
8.67380000 0.079024 -173.7 0.996859 -83.69 0.996859 -83.69 0.079024 -173.7
8.67390000 0.079081 -173.7 0.996855 -83.69 0.996855 -83.69 0.079081 -173.7
8.67400000 0.079139 -173.8 0.996850 -83.70 0.996850 -83.70 0.079139 -173.7
8.67410000 0.079196 -173.8 0.996845 -83.70 0.996845 -83.70 0.079196 -173.7
8.67420000 0.079254 -173.8 0.996841 -83.71 0.996841 -83.71 0.079254 -173.7
8.67430000 0.079312 -173.8 0.996836 -83.71 0.996836 -83.71 0.079312 -173.7
8.67440000 0.079370 -173.8 0.996832 -83.71 0.996832 -83.71 0.079370 -173.7
8.67450000 0.079428 -173.8 0.996827 -83.72 0.996827 -83.72 0.079428 -173.7
8.67460000 0.079486 -173.8 0.996822 -83.72 0.996822 -83.72 0.079486 -173.7
8.67470000 0.079544 -173.8 0.996818 -83.73 0.996818 -83.73 0.079544 -173.7
8.67480000 0.079603 -173.8 0.996813 -83.73 0.996813 -83.73 0.079602 -173.7
8.67490000 0.079661 -173.8 0.996808 -83.74 0.996808 -83.74 0.079661 -173.7
8.67500000 0.079719 -173.8 0.996804 -83.74 0.996804 -83.74 0.079719 -173.7
8.67510000 0.079778 -173.8 0.996799 -83.74 0.996799 -83.74 0.079778 -173.7
8.67520000 0.079837 -173.8 0.996794 -83.75 0.996794 -83.75 0.079837 -173.7
8.67530000 0.079895 -173.8 0.996789 -83.75 0.996789 -83.75 0.079895 -173.7
8.67540000 0.079954 -173.8 0.996785 -83.76 0.996785 -83.76 0.079954 -173.7
8.67550000 0.080013 -173.8 0.996780 -83.76 0.996780 -83.76 0.080013 -173.7
8.67560000 0.080072 -173.8 0.996775 -83.77 0.996775 -83.77 0.080072 -173.7
8.67570000 0.080131 -173.8 0.996770 -83.77 0.996770 -83.77 0.080131 -173.7
8.67580000 0.080191 -173.8 0.996766 -83.77 0.996766 -83.77 0.080190 -173.7
8.67590000 0.080250 -173.8 0.996761 -83.78 0.996761 -83.78 0.080250 -173.7
8.67600000 0.080309 -173.8 0.996756 -83.78 0.996756 -83.78 0.080309 -173.7
8.67610000 0.080369 -173.8 0.996751 -83.79 0.996751 -83.79 0.080369 -173.8
8.67620000 0.080428 -173.8 0.996746 -83.79 0.996746 -83.79 0.080428 -173.8
8.67630000 0.080488 -173.8 0.996742 -83.80 0.996742 -83.80 0.080488 -173.8
8.67640000 0.080548 -173.9 0.996737 -83.80 0.996737 -83.80 0.080548 -173.8
8.67650000 0.080608 -173.9 0.996732 -83.80 0.996732 -83.80 0.080608 -173.8
8.67660000 0.080668 -173.9 0.996727 -83.81 0.996727 -83.81 0.080668 -173.8
8.67670000 0.080728 -173.9 0.996722 -83.81 0.996722 -83.81 0.080728 -173.8
8.67680000 0.080788 -173.9 0.996717 -83.82 0.996717 -83.82 0.080788 -173.8
8.67690000 0.080848 -173.9 0.996712 -83.82 0.996712 -83.82 0.080848 -173.8
8.67700000 0.080908 -173.9 0.996707 -83.83 0.996707 -83.83 0.080908 -173.8
8.67710000 0.080969 -173.9 0.996703 -83.83 0.996703 -83.83 0.080969 -173.8
8.67720000 0.081029 -173.9 0.996698 -83.83 0.996698 -83.83 0.081029 -173.8
8.67730000 0.081090 -173.9 0.996693 -83.84 0.996693 -83.84 0.081090 -173.8
8.67740000 0.081151 -173.9 0.996688 -83.84 0.996688 -83.84 0.081151 -173.8
8.67750000 0.081212 -173.9 0.996683 -83.85 0.996683 -83.85 0.081212 -173.8
8.67760000 0.081273 -173.9 0.996678 -83.85 0.996678 -83.85 0.081273 -173.8
8.67770000 0.081334 -173.9 0.996673 -83.86 0.996673 -83.86 0.081334 -173.8
8.67780000 0.081395 -173.9 0.996668 -83.86 0.996668 -83.86 0.081395 -173.8
8.67790000 0.081456 -173.9 0.996663 -83.87 0.996663 -83.87 0.081456 -173.8
8.67800000 0.081517 -173.9 0.996658 -83.87 0.996658 -83.87 0.081517 -173.8
8.67810000 0.081579 -173.9 0.996653 -83.87 0.996653 -83.87 0.081579 -173.8
8.67820000 0.081640 -173.9 0.996648 -83.88 0.996648 -83.88 0.081640 -173.8
8.67830000 0.081702 -173.9 0.996642 -83.88 0.996642 -83.88 0.081702 -173.9
8.67840000 0.081764 -173.9 0.996637 -83.89 0.996637 -83.89 0.081764 -173.9
8.67850000 0.081826 -173.9 0.996632 -83.89 0.996632 -83.89 0.081825 -173.9
8.67860000 0.081887 -173.9 0.996627 -83.90 0.996627 -83.90 0.081887 -173.9
8.67870000 0.081949 -173.9 0.996622 -83.90 0.996622 -83.90 0.081949 -173.9
8.67880000 0.082012 -174.0 0.996617 -83.91 0.996617 -83.91 0.082011 -173.9
8.67890000 0.082074 -174.0 0.996612 -83.91 0.996612 -83.91 0.082074 -173.9
8.67900000 0.082136 -174.0 0.996607 -83.91 0.996607 -83.91 0.082136 -173.9
8.67910000 0.082199 -174.0 0.996601 -83.92 0.996601 -83.92 0.082198 -173.9
8.67920000 0.082261 -174.0 0.996596 -83.92 0.996596 -83.92 0.082261 -173.9
8.67930000 0.082324 -174.0 0.996591 -83.93 0.996591 -83.93 0.082324 -173.9
8.67940000 0.082386 -174.0 0.996586 -83.93 0.996586 -83.93 0.082386 -173.9
8.67950000 0.082449 -174.0 0.996581 -83.94 0.996581 -83.94 0.082449 -173.9
8.67960000 0.082512 -174.0 0.996575 -83.94 0.996575 -83.94 0.082512 -173.9
8.67970000 0.082575 -174.0 0.996570 -83.95 0.996570 -83.95 0.082575 -173.9
8.67980000 0.082638 -174.0 0.996565 -83.95 0.996565 -83.95 0.082638 -173.9
8.67990000 0.082702 -174.0 0.996560 -83.96 0.996560 -83.96 0.082702 -173.9
8.68000000 0.082765 -174.0 0.996554 -83.96 0.996554 -83.96 0.082765 -173.9
8.68010000 0.082828 -174.0 0.996549 -83.96 0.996549 -83.96 0.082828 -173.9
8.68020000 0.082892 -174.0 0.996544 -83.97 0.996544 -83.97 0.082892 -173.9
8.68030000 0.082956 -174.0 0.996539 -83.97 0.996539 -83.97 0.082956 -173.9
8.68040000 0.083019 -174.0 0.996533 -83.98 0.996533 -83.98 0.083019 -174.0
8.68050000 0.083083 -174.0 0.996528 -83.98 0.996528 -83.98 0.083083 -174.0
8.68060000 0.083147 -174.0 0.996523 -83.99 0.996523 -83.99 0.083147 -174.0
8.68070000 0.083211 -174.0 0.996517 -83.99 0.996517 -83.99 0.083211 -174.0
8.68080000 0.083276 -174.0 0.996512 -84.00 0.996512 -84.00 0.083275 -174.0
8.68090000 0.083340 -174.0 0.996506 -84.00 0.996506 -84.00 0.083340 -174.0
8.68100000 0.083404 -174.0 0.996501 -84.01 0.996501 -84.01 0.083404 -174.0
8.68110000 0.083469 -174.1 0.996496 -84.01 0.996496 -84.01 0.083469 -174.0
8.68120000 0.083533 -174.1 0.996490 -84.02 0.996490 -84.02 0.083533 -174.0
8.68130000 0.083598 -174.1 0.996485 -84.02 0.996485 -84.02 0.083598 -174.0
8.68140000 0.083663 -174.1 0.996479 -84.02 0.996479 -84.02 0.083663 -174.0
8.68150000 0.083728 -174.1 0.996474 -84.03 0.996474 -84.03 0.083728 -174.0
8.68160000 0.083793 -174.1 0.996468 -84.03 0.996468 -84.03 0.083793 -174.0
8.68170000 0.083858 -174.1 0.996463 -84.04 0.996463 -84.04 0.083858 -174.0
8.68180000 0.083923 -174.1 0.996457 -84.04 0.996457 -84.04 0.083923 -174.0
8.68190000 0.083989 -174.1 0.996452 -84.05 0.996452 -84.05 0.083989 -174.0
8.68200000 0.084054 -174.1 0.996446 -84.05 0.996446 -84.05 0.084054 -174.0
8.68210000 0.084120 -174.1 0.996441 -84.06 0.996441 -84.06 0.084120 -174.0
8.68220000 0.084185 -174.1 0.996435 -84.06 0.996435 -84.06 0.084185 -174.0
8.68230000 0.084251 -174.1 0.996429 -84.07 0.996429 -84.07 0.084251 -174.0
8.68240000 0.084317 -174.1 0.996424 -84.07 0.996424 -84.07 0.084317 -174.1
8.68250000 0.084383 -174.1 0.996418 -84.08 0.996418 -84.08 0.084383 -174.1
8.68260000 0.084449 -174.1 0.996413 -84.08 0.996413 -84.08 0.084449 -174.1
8.68270000 0.084515 -174.1 0.996407 -84.09 0.996407 -84.09 0.084515 -174.1
8.68280000 0.084582 -174.1 0.996401 -84.09 0.996401 -84.09 0.084582 -174.1
8.68290000 0.084648 -174.1 0.996396 -84.10 0.996396 -84.10 0.084648 -174.1
8.68300000 0.084715 -174.1 0.996390 -84.10 0.996390 -84.10 0.084715 -174.1
8.68310000 0.084781 -174.1 0.996384 -84.10 0.996384 -84.10 0.084781 -174.1
8.68320000 0.084848 -174.1 0.996379 -84.11 0.996379 -84.11 0.084848 -174.1
8.68330000 0.084915 -174.2 0.996373 -84.11 0.996373 -84.11 0.084915 -174.1
8.68340000 0.084982 -174.2 0.996367 -84.12 0.996367 -84.12 0.084982 -174.1
8.68350000 0.085049 -174.2 0.996361 -84.12 0.996361 -84.12 0.085049 -174.1
8.68360000 0.085117 -174.2 0.996356 -84.13 0.996356 -84.13 0.085116 -174.1
8.68370000 0.085184 -174.2 0.996350 -84.13 0.996350 -84.13 0.085184 -174.1
8.68380000 0.085251 -174.2 0.996344 -84.14 0.996344 -84.14 0.085251 -174.1
8.68390000 0.085319 -174.2 0.996338 -84.14 0.996338 -84.14 0.085319 -174.1
8.68400000 0.085387 -174.2 0.996332 -84.15 0.996332 -84.15 0.085387 -174.1
8.68410000 0.085454 -174.2 0.996327 -84.15 0.996327 -84.15 0.085454 -174.1
8.68420000 0.085522 -174.2 0.996321 -84.16 0.996321 -84.16 0.085522 -174.1
8.68430000 0.085590 -174.2 0.996315 -84.16 0.996315 -84.16 0.085590 -174.1
8.68440000 0.085659 -174.2 0.996309 -84.17 0.996309 -84.17 0.085659 -174.1
8.68450000 0.085727 -174.2 0.996303 -84.17 0.996303 -84.17 0.085727 -174.2
8.68460000 0.085795 -174.2 0.996297 -84.18 0.996297 -84.18 0.085795 -174.2
8.68470000 0.085864 -174.2 0.996291 -84.18 0.996291 -84.18 0.085864 -174.2
8.68480000 0.085932 -174.2 0.996285 -84.19 0.996285 -84.19 0.085932 -174.2
8.68490000 0.086001 -174.2 0.996279 -84.19 0.996279 -84.19 0.086001 -174.2
8.68500000 0.086070 -174.2 0.996273 -84.20 0.996273 -84.20 0.086070 -174.2
8.68510000 0.086139 -174.2 0.996267 -84.20 0.996267 -84.20 0.086139 -174.2
8.68520000 0.086208 -174.2 0.996261 -84.21 0.996261 -84.21 0.086208 -174.2
8.68530000 0.086277 -174.2 0.996255 -84.21 0.996255 -84.21 0.086277 -174.2
8.68540000 0.086347 -174.3 0.996249 -84.22 0.996249 -84.22 0.086347 -174.2
8.68550000 0.086416 -174.3 0.996243 -84.22 0.996243 -84.22 0.086416 -174.2
8.68560000 0.086486 -174.3 0.996237 -84.23 0.996237 -84.23 0.086486 -174.2
8.68570000 0.086555 -174.3 0.996231 -84.23 0.996231 -84.23 0.086555 -174.2
8.68580000 0.086625 -174.3 0.996225 -84.24 0.996225 -84.24 0.086625 -174.2
8.68590000 0.086695 -174.3 0.996219 -84.24 0.996219 -84.24 0.086695 -174.2
8.68600000 0.086765 -174.3 0.996213 -84.25 0.996213 -84.25 0.086765 -174.2
8.68610000 0.086835 -174.3 0.996207 -84.25 0.996207 -84.25 0.086835 -174.2
8.68620000 0.086906 -174.3 0.996201 -84.26 0.996201 -84.26 0.086905 -174.2
8.68630000 0.086976 -174.3 0.996195 -84.26 0.996195 -84.26 0.086976 -174.2
8.68640000 0.087046 -174.3 0.996188 -84.27 0.996188 -84.27 0.087046 -174.3
8.68650000 0.087117 -174.3 0.996182 -84.27 0.996182 -84.27 0.087117 -174.3
8.68660000 0.087188 -174.3 0.996176 -84.28 0.996176 -84.28 0.087188 -174.3
8.68670000 0.087259 -174.3 0.996170 -84.28 0.996170 -84.28 0.087259 -174.3
8.68680000 0.087330 -174.3 0.996163 -84.29 0.996163 -84.29 0.087330 -174.3
8.68690000 0.087401 -174.3 0.996157 -84.29 0.996157 -84.29 0.087401 -174.3
8.68700000 0.087472 -174.3 0.996151 -84.30 0.996151 -84.30 0.087472 -174.3
8.68710000 0.087544 -174.3 0.996145 -84.30 0.996145 -84.30 0.087543 -174.3
8.68720000 0.087615 -174.3 0.996138 -84.31 0.996138 -84.31 0.087615 -174.3
8.68730000 0.087687 -174.3 0.996132 -84.31 0.996132 -84.31 0.087687 -174.3
8.68740000 0.087758 -174.3 0.996126 -84.32 0.996126 -84.32 0.087758 -174.3
8.68750000 0.087830 -174.4 0.996119 -84.32 0.996119 -84.32 0.087830 -174.3
8.68760000 0.087902 -174.4 0.996113 -84.33 0.996113 -84.33 0.087902 -174.3
8.68770000 0.087974 -174.4 0.996107 -84.33 0.996107 -84.33 0.087974 -174.3
8.68780000 0.088047 -174.4 0.996100 -84.34 0.996100 -84.34 0.088047 -174.3
8.68790000 0.088119 -174.4 0.996094 -84.34 0.996094 -84.34 0.088119 -174.3
8.68800000 0.088192 -174.4 0.996087 -84.35 0.996087 -84.35 0.088192 -174.3
8.68810000 0.088264 -174.4 0.996081 -84.35 0.996081 -84.35 0.088264 -174.3
8.68820000 0.088337 -174.4 0.996074 -84.36 0.996074 -84.36 0.088337 -174.3
8.68830000 0.088410 -174.4 0.996068 -84.36 0.996068 -84.36 0.088410 -174.4
8.68840000 0.088483 -174.4 0.996061 -84.37 0.996061 -84.37 0.088483 -174.4
8.68850000 0.088556 -174.4 0.996055 -84.37 0.996055 -84.37 0.088556 -174.4
8.68860000 0.088629 -174.4 0.996048 -84.38 0.996048 -84.38 0.088629 -174.4
8.68870000 0.088703 -174.4 0.996042 -84.38 0.996042 -84.38 0.088703 -174.4
8.68880000 0.088776 -174.4 0.996035 -84.39 0.996035 -84.39 0.088776 -174.4
8.68890000 0.088850 -174.4 0.996029 -84.39 0.996029 -84.39 0.088850 -174.4
8.68900000 0.088924 -174.4 0.996022 -84.40 0.996022 -84.40 0.088924 -174.4
8.68910000 0.088998 -174.4 0.996015 -84.40 0.996015 -84.40 0.088998 -174.4
8.68920000 0.089072 -174.4 0.996009 -84.41 0.996009 -84.41 0.089072 -174.4