! Sonnet Data File
! From: emgraph Version : 16.52
! From Project: transmon_trial
! Data is De-embedded 
! Data File Written: 10/20/2017 09:13:08
!< HDATE 10/19/2017 20:03:37
!< MDATE 10/19/2017 20:10:25
!< PARAMS
!< Lj = 15.24
!< Gap = 26.0
!< Width = 50.0
!< Airgap = 30.0
!< Pwidth = 2000.0
!< END PARAMS
# GHZ S MA R 51.00000
8.65000000 0.012534 -170.5 0.999917 -79.88 0.999917 -79.88 0.012534 -169.3
!< P1 F=8.65 Eeff=(6.43962691 -3.1336e-5) Z0=(50.4019059 1.05256e-4) R=0.0 C=0.0 
!< P2 F=8.65 Eeff=(6.43962691 -3.1336e-5) Z0=(50.4019059 1.05256e-4) R=0.0 C=0.0 
8.65010000 0.012538 -170.5 0.999917 -79.88 0.999917 -79.88 0.012538 -169.3
8.65020000 0.012542 -170.5 0.999917 -79.89 0.999917 -79.89 0.012542 -169.3
8.65030000 0.012546 -170.5 0.999917 -79.89 0.999917 -79.89 0.012546 -169.3
8.65040000 0.012550 -170.5 0.999917 -79.89 0.999917 -79.89 0.012550 -169.3
8.65050000 0.012554 -170.5 0.999917 -79.89 0.999917 -79.89 0.012554 -169.3
8.65060000 0.012558 -170.5 0.999917 -79.89 0.999917 -79.89 0.012558 -169.3
8.65070000 0.012562 -170.5 0.999917 -79.89 0.999917 -79.89 0.012562 -169.3
8.65080000 0.012566 -170.5 0.999917 -79.89 0.999917 -79.89 0.012566 -169.3
8.65090000 0.012570 -170.5 0.999917 -79.89 0.999917 -79.89 0.012570 -169.3
8.65100000 0.012574 -170.5 0.999917 -79.90 0.999917 -79.90 0.012574 -169.3
8.65110000 0.012578 -170.5 0.999917 -79.90 0.999917 -79.90 0.012578 -169.3
8.65120000 0.012582 -170.5 0.999917 -79.90 0.999917 -79.90 0.012582 -169.3
8.65130000 0.012586 -170.5 0.999917 -79.90 0.999917 -79.90 0.012586 -169.3
8.65140000 0.012590 -170.5 0.999917 -79.90 0.999917 -79.90 0.012590 -169.3
8.65150000 0.012594 -170.5 0.999917 -79.90 0.999917 -79.90 0.012594 -169.4
8.65160000 0.012598 -170.5 0.999917 -79.90 0.999917 -79.90 0.012598 -169.4
8.65170000 0.012602 -170.5 0.999916 -79.90 0.999916 -79.90 0.012602 -169.4
8.65180000 0.012606 -170.5 0.999916 -79.90 0.999916 -79.90 0.012606 -169.4
8.65190000 0.012610 -170.5 0.999916 -79.91 0.999916 -79.91 0.012610 -169.4
8.65200000 0.012614 -170.5 0.999916 -79.91 0.999916 -79.91 0.012614 -169.4
8.65210000 0.012618 -170.5 0.999916 -79.91 0.999916 -79.91 0.012618 -169.4
8.65220000 0.012622 -170.5 0.999916 -79.91 0.999916 -79.91 0.012622 -169.4
8.65230000 0.012626 -170.5 0.999916 -79.91 0.999916 -79.91 0.012626 -169.4
8.65240000 0.012630 -170.5 0.999916 -79.91 0.999916 -79.91 0.012630 -169.4
8.65250000 0.012634 -170.5 0.999916 -79.91 0.999916 -79.91 0.012634 -169.4
8.65260000 0.012638 -170.5 0.999916 -79.91 0.999916 -79.91 0.012638 -169.4
8.65270000 0.012643 -170.5 0.999916 -79.91 0.999916 -79.91 0.012642 -169.4
8.65280000 0.012647 -170.5 0.999916 -79.92 0.999916 -79.92 0.012647 -169.4
8.65290000 0.012651 -170.5 0.999916 -79.92 0.999916 -79.92 0.012651 -169.4
8.65300000 0.012655 -170.5 0.999916 -79.92 0.999916 -79.92 0.012655 -169.4
8.65310000 0.012659 -170.5 0.999916 -79.92 0.999916 -79.92 0.012659 -169.4
8.65320000 0.012663 -170.5 0.999916 -79.92 0.999916 -79.92 0.012663 -169.4
8.65330000 0.012667 -170.5 0.999916 -79.92 0.999916 -79.92 0.012667 -169.4
8.65340000 0.012671 -170.5 0.999916 -79.92 0.999916 -79.92 0.012671 -169.4
8.65350000 0.012675 -170.5 0.999916 -79.92 0.999916 -79.92 0.012675 -169.4
8.65360000 0.012679 -170.5 0.999916 -79.93 0.999916 -79.93 0.012679 -169.4
8.65370000 0.012683 -170.5 0.999915 -79.93 0.999915 -79.93 0.012683 -169.4
8.65380000 0.012687 -170.5 0.999915 -79.93 0.999915 -79.93 0.012687 -169.4
8.65390000 0.012691 -170.5 0.999915 -79.93 0.999915 -79.93 0.012691 -169.4
8.65400000 0.012696 -170.5 0.999915 -79.93 0.999915 -79.93 0.012695 -169.4
8.65410000 0.012700 -170.5 0.999915 -79.93 0.999915 -79.93 0.012700 -169.4
8.65420000 0.012704 -170.5 0.999915 -79.93 0.999915 -79.93 0.012704 -169.4
8.65430000 0.012708 -170.5 0.999915 -79.93 0.999915 -79.93 0.012708 -169.4
8.65440000 0.012712 -170.5 0.999915 -79.93 0.999915 -79.93 0.012712 -169.4
8.65450000 0.012716 -170.5 0.999915 -79.94 0.999915 -79.94 0.012716 -169.4
8.65460000 0.012720 -170.5 0.999915 -79.94 0.999915 -79.94 0.012720 -169.4
8.65470000 0.012724 -170.5 0.999915 -79.94 0.999915 -79.94 0.012724 -169.4
8.65480000 0.012728 -170.5 0.999915 -79.94 0.999915 -79.94 0.012728 -169.4
8.65490000 0.012733 -170.5 0.999915 -79.94 0.999915 -79.94 0.012733 -169.4
8.65500000 0.012737 -170.5 0.999915 -79.94 0.999915 -79.94 0.012737 -169.4
8.65510000 0.012741 -170.5 0.999915 -79.94 0.999915 -79.94 0.012741 -169.4
8.65520000 0.012745 -170.5 0.999915 -79.94 0.999915 -79.94 0.012745 -169.4
8.65530000 0.012749 -170.5 0.999915 -79.94 0.999915 -79.94 0.012749 -169.4
8.65540000 0.012753 -170.5 0.999915 -79.95 0.999915 -79.95 0.012753 -169.4
8.65550000 0.012757 -170.5 0.999914 -79.95 0.999914 -79.95 0.012757 -169.4
8.65560000 0.012762 -170.5 0.999914 -79.95 0.999914 -79.95 0.012761 -169.4
8.65570000 0.012766 -170.5 0.999914 -79.95 0.999914 -79.95 0.012766 -169.4
8.65580000 0.012770 -170.5 0.999914 -79.95 0.999914 -79.95 0.012770 -169.4
8.65590000 0.012774 -170.5 0.999914 -79.95 0.999914 -79.95 0.012774 -169.4
8.65600000 0.012778 -170.5 0.999914 -79.95 0.999914 -79.95 0.012778 -169.4
8.65610000 0.012782 -170.5 0.999914 -79.95 0.999914 -79.95 0.012782 -169.4
8.65620000 0.012786 -170.5 0.999914 -79.96 0.999914 -79.96 0.012786 -169.4
8.65630000 0.012791 -170.5 0.999914 -79.96 0.999914 -79.96 0.012791 -169.4
8.65640000 0.012795 -170.5 0.999914 -79.96 0.999914 -79.96 0.012795 -169.4
8.65650000 0.012799 -170.5 0.999914 -79.96 0.999914 -79.96 0.012799 -169.4
8.65660000 0.012803 -170.5 0.999914 -79.96 0.999914 -79.96 0.012803 -169.4
8.65670000 0.012807 -170.5 0.999914 -79.96 0.999914 -79.96 0.012807 -169.4
8.65680000 0.012812 -170.5 0.999914 -79.96 0.999914 -79.96 0.012811 -169.4
8.65690000 0.012816 -170.5 0.999914 -79.96 0.999914 -79.96 0.012816 -169.4
8.65700000 0.012820 -170.5 0.999914 -79.96 0.999914 -79.96 0.012820 -169.4
8.65710000 0.012824 -170.5 0.999914 -79.97 0.999914 -79.97 0.012824 -169.4
8.65720000 0.012828 -170.5 0.999914 -79.97 0.999914 -79.97 0.012828 -169.4
8.65730000 0.012832 -170.5 0.999914 -79.97 0.999914 -79.97 0.012832 -169.4
8.65740000 0.012837 -170.5 0.999913 -79.97 0.999913 -79.97 0.012837 -169.4
8.65750000 0.012841 -170.5 0.999913 -79.97 0.999913 -79.97 0.012841 -169.4
8.65760000 0.012845 -170.5 0.999913 -79.97 0.999913 -79.97 0.012845 -169.4
8.65770000 0.012849 -170.5 0.999913 -79.97 0.999913 -79.97 0.012849 -169.4
8.65780000 0.012854 -170.5 0.999913 -79.97 0.999913 -79.97 0.012853 -169.4
8.65790000 0.012858 -170.5 0.999913 -79.98 0.999913 -79.98 0.012858 -169.4
8.65800000 0.012862 -170.5 0.999913 -79.98 0.999913 -79.98 0.012862 -169.4
8.65810000 0.012866 -170.5 0.999913 -79.98 0.999913 -79.98 0.012866 -169.4
8.65820000 0.012870 -170.5 0.999913 -79.98 0.999913 -79.98 0.012870 -169.4
8.65830000 0.012875 -170.5 0.999913 -79.98 0.999913 -79.98 0.012875 -169.4
8.65840000 0.012879 -170.5 0.999913 -79.98 0.999913 -79.98 0.012879 -169.4
8.65850000 0.012883 -170.5 0.999913 -79.98 0.999913 -79.98 0.012883 -169.4
8.65860000 0.012887 -170.5 0.999913 -79.98 0.999913 -79.98 0.012887 -169.5
8.65870000 0.012892 -170.5 0.999913 -79.98 0.999913 -79.98 0.012892 -169.5
8.65880000 0.012896 -170.5 0.999913 -79.99 0.999913 -79.99 0.012896 -169.5
8.65890000 0.012900 -170.5 0.999913 -79.99 0.999913 -79.99 0.012900 -169.5
8.65900000 0.012904 -170.5 0.999913 -79.99 0.999913 -79.99 0.012904 -169.5
8.65910000 0.012909 -170.5 0.999913 -79.99 0.999913 -79.99 0.012909 -169.5
8.65920000 0.012913 -170.5 0.999912 -79.99 0.999912 -79.99 0.012913 -169.5
8.65930000 0.012917 -170.5 0.999912 -79.99 0.999912 -79.99 0.012917 -169.5
8.65940000 0.012921 -170.5 0.999912 -79.99 0.999912 -79.99 0.012921 -169.5
8.65950000 0.012926 -170.5 0.999912 -79.99 0.999912 -79.99 0.012926 -169.5
8.65960000 0.012930 -170.5 0.999912 -79.99 0.999912 -79.99 0.012930 -169.5
8.65970000 0.012934 -170.6 0.999912 -80.00 0.999912 -80.00 0.012934 -169.5
8.65980000 0.012939 -170.6 0.999912 -80.00 0.999912 -80.00 0.012938 -169.5
8.65990000 0.012943 -170.6 0.999912 -80.00 0.999912 -80.00 0.012943 -169.5
8.66000000 0.012947 -170.6 0.999912 -80.00 0.999912 -80.00 0.012947 -169.5
8.66010000 0.012951 -170.6 0.999912 -80.00 0.999912 -80.00 0.012951 -169.5
8.66020000 0.012956 -170.6 0.999912 -80.00 0.999912 -80.00 0.012956 -169.5
8.66030000 0.012960 -170.6 0.999912 -80.00 0.999912 -80.00 0.012960 -169.5
8.66040000 0.012964 -170.6 0.999912 -80.00 0.999912 -80.00 0.012964 -169.5
8.66050000 0.012969 -170.6 0.999912 -80.01 0.999912 -80.01 0.012968 -169.5
8.66060000 0.012973 -170.6 0.999912 -80.01 0.999912 -80.01 0.012973 -169.5
8.66070000 0.012977 -170.6 0.999912 -80.01 0.999912 -80.01 0.012977 -169.5
8.66080000 0.012981 -170.6 0.999912 -80.01 0.999912 -80.01 0.012981 -169.5
8.66090000 0.012986 -170.6 0.999912 -80.01 0.999912 -80.01 0.012986 -169.5
8.66100000 0.012990 -170.6 0.999911 -80.01 0.999911 -80.01 0.012990 -169.5
8.66110000 0.012994 -170.6 0.999911 -80.01 0.999911 -80.01 0.012994 -169.5
8.66120000 0.012999 -170.6 0.999911 -80.01 0.999911 -80.01 0.012999 -169.5
8.66130000 0.013003 -170.6 0.999911 -80.01 0.999911 -80.01 0.013003 -169.5
8.66140000 0.013007 -170.6 0.999911 -80.02 0.999911 -80.02 0.013007 -169.5
8.66150000 0.013012 -170.6 0.999911 -80.02 0.999911 -80.02 0.013012 -169.5
8.66160000 0.013016 -170.6 0.999911 -80.02 0.999911 -80.02 0.013016 -169.5
8.66170000 0.013020 -170.6 0.999911 -80.02 0.999911 -80.02 0.013020 -169.5
8.66180000 0.013025 -170.6 0.999911 -80.02 0.999911 -80.02 0.013025 -169.5
8.66190000 0.013029 -170.6 0.999911 -80.02 0.999911 -80.02 0.013029 -169.5
8.66200000 0.013033 -170.6 0.999911 -80.02 0.999911 -80.02 0.013033 -169.5
8.66210000 0.013038 -170.6 0.999911 -80.02 0.999911 -80.02 0.013038 -169.5
8.66220000 0.013042 -170.6 0.999911 -80.03 0.999911 -80.03 0.013042 -169.5
8.66230000 0.013047 -170.6 0.999911 -80.03 0.999911 -80.03 0.013046 -169.5
8.66240000 0.013051 -170.6 0.999911 -80.03 0.999911 -80.03 0.013051 -169.5
8.66250000 0.013055 -170.6 0.999911 -80.03 0.999911 -80.03 0.013055 -169.5
8.66260000 0.013060 -170.6 0.999911 -80.03 0.999911 -80.03 0.013060 -169.5
8.66270000 0.013064 -170.6 0.999910 -80.03 0.999910 -80.03 0.013064 -169.5
8.66280000 0.013068 -170.6 0.999910 -80.03 0.999910 -80.03 0.013068 -169.5
8.66290000 0.013073 -170.6 0.999910 -80.03 0.999910 -80.03 0.013073 -169.5
8.66300000 0.013077 -170.6 0.999910 -80.03 0.999910 -80.03 0.013077 -169.5
8.66310000 0.013082 -170.6 0.999910 -80.04 0.999910 -80.04 0.013081 -169.5
8.66320000 0.013086 -170.6 0.999910 -80.04 0.999910 -80.04 0.013086 -169.5
8.66330000 0.013090 -170.6 0.999910 -80.04 0.999910 -80.04 0.013090 -169.5
8.66340000 0.013095 -170.6 0.999910 -80.04 0.999910 -80.04 0.013095 -169.5
8.66350000 0.013099 -170.6 0.999910 -80.04 0.999910 -80.04 0.013099 -169.5
8.66360000 0.013104 -170.6 0.999910 -80.04 0.999910 -80.04 0.013103 -169.5
8.66370000 0.013108 -170.6 0.999910 -80.04 0.999910 -80.04 0.013108 -169.5
8.66380000 0.013112 -170.6 0.999910 -80.04 0.999910 -80.04 0.013112 -169.5
8.66390000 0.013117 -170.6 0.999910 -80.05 0.999910 -80.05 0.013117 -169.5
8.66400000 0.013121 -170.6 0.999910 -80.05 0.999910 -80.05 0.013121 -169.5
8.66410000 0.013126 -170.6 0.999910 -80.05 0.999910 -80.05 0.013126 -169.5
8.66420000 0.013130 -170.6 0.999910 -80.05 0.999910 -80.05 0.013130 -169.5
8.66430000 0.013134 -170.6 0.999910 -80.05 0.999910 -80.05 0.013134 -169.5
8.66440000 0.013139 -170.6 0.999909 -80.05 0.999909 -80.05 0.013139 -169.5
8.66450000 0.013143 -170.6 0.999909 -80.05 0.999909 -80.05 0.013143 -169.5
8.66460000 0.013148 -170.6 0.999909 -80.05 0.999909 -80.05 0.013148 -169.5
8.66470000 0.013152 -170.6 0.999909 -80.05 0.999909 -80.05 0.013152 -169.5
8.66480000 0.013157 -170.6 0.999909 -80.06 0.999909 -80.06 0.013157 -169.5
8.66490000 0.013161 -170.6 0.999909 -80.06 0.999909 -80.06 0.013161 -169.5
8.66500000 0.013166 -170.6 0.999909 -80.06 0.999909 -80.06 0.013165 -169.5
8.66510000 0.013170 -170.6 0.999909 -80.06 0.999909 -80.06 0.013170 -169.5
8.66520000 0.013174 -170.6 0.999909 -80.06 0.999909 -80.06 0.013174 -169.5
8.66530000 0.013179 -170.6 0.999909 -80.06 0.999909 -80.06 0.013179 -169.5
8.66540000 0.013183 -170.6 0.999909 -80.06 0.999909 -80.06 0.013183 -169.5
8.66550000 0.013188 -170.6 0.999909 -80.06 0.999909 -80.06 0.013188 -169.5
8.66560000 0.013192 -170.6 0.999909 -80.07 0.999909 -80.07 0.013192 -169.6
8.66570000 0.013197 -170.6 0.999909 -80.07 0.999909 -80.07 0.013197 -169.6
8.66580000 0.013201 -170.6 0.999909 -80.07 0.999909 -80.07 0.013201 -169.6
8.66590000 0.013206 -170.6 0.999909 -80.07 0.999909 -80.07 0.013206 -169.6
8.66600000 0.013210 -170.6 0.999909 -80.07 0.999909 -80.07 0.013210 -169.6
8.66610000 0.013215 -170.6 0.999908 -80.07 0.999908 -80.07 0.013215 -169.6
8.66620000 0.013219 -170.6 0.999908 -80.07 0.999908 -80.07 0.013219 -169.6
8.66630000 0.013224 -170.6 0.999908 -80.07 0.999908 -80.07 0.013224 -169.6
8.66640000 0.013228 -170.6 0.999908 -80.07 0.999908 -80.07 0.013228 -169.6
8.66650000 0.013233 -170.6 0.999908 -80.08 0.999908 -80.08 0.013233 -169.6
8.66660000 0.013237 -170.6 0.999908 -80.08 0.999908 -80.08 0.013237 -169.6
8.66670000 0.013242 -170.6 0.999908 -80.08 0.999908 -80.08 0.013242 -169.6
8.66680000 0.013246 -170.6 0.999908 -80.08 0.999908 -80.08 0.013246 -169.6
8.66690000 0.013251 -170.6 0.999908 -80.08 0.999908 -80.08 0.013251 -169.6
8.66700000 0.013255 -170.6 0.999908 -80.08 0.999908 -80.08 0.013255 -169.6
8.66710000 0.013260 -170.6 0.999908 -80.08 0.999908 -80.08 0.013260 -169.6
8.66720000 0.013264 -170.6 0.999908 -80.08 0.999908 -80.08 0.013264 -169.6
8.66730000 0.013269 -170.6 0.999908 -80.09 0.999908 -80.09 0.013269 -169.6
8.66740000 0.013273 -170.6 0.999908 -80.09 0.999908 -80.09 0.013273 -169.6
8.66750000 0.013278 -170.6 0.999908 -80.09 0.999908 -80.09 0.013278 -169.6
8.66760000 0.013282 -170.6 0.999908 -80.09 0.999908 -80.09 0.013282 -169.6
8.66770000 0.013287 -170.6 0.999907 -80.09 0.999907 -80.09 0.013287 -169.6
8.66780000 0.013292 -170.6 0.999907 -80.09 0.999907 -80.09 0.013292 -169.6
8.66790000 0.013296 -170.6 0.999907 -80.09 0.999907 -80.09 0.013296 -169.6
8.66800000 0.013301 -170.6 0.999907 -80.09 0.999907 -80.09 0.013301 -169.6
8.66810000 0.013305 -170.6 0.999907 -80.09 0.999907 -80.09 0.013305 -169.6
8.66820000 0.013310 -170.6 0.999907 -80.10 0.999907 -80.10 0.013310 -169.6
8.66830000 0.013314 -170.6 0.999907 -80.10 0.999907 -80.10 0.013314 -169.6
8.66840000 0.013319 -170.6 0.999907 -80.10 0.999907 -80.10 0.013319 -169.6
8.66850000 0.013323 -170.6 0.999907 -80.10 0.999907 -80.10 0.013323 -169.6
8.66860000 0.013328 -170.6 0.999907 -80.10 0.999907 -80.10 0.013328 -169.6
8.66870000 0.013333 -170.6 0.999907 -80.10 0.999907 -80.10 0.013333 -169.6
8.66880000 0.013337 -170.6 0.999907 -80.10 0.999907 -80.10 0.013337 -169.6
8.66890000 0.013342 -170.6 0.999907 -80.10 0.999907 -80.10 0.013342 -169.6
8.66900000 0.013346 -170.6 0.999907 -80.11 0.999907 -80.11 0.013346 -169.6
8.66910000 0.013351 -170.6 0.999907 -80.11 0.999907 -80.11 0.013351 -169.6
8.66920000 0.013356 -170.6 0.999907 -80.11 0.999907 -80.11 0.013356 -169.6
8.66930000 0.013360 -170.6 0.999907 -80.11 0.999907 -80.11 0.013360 -169.6
8.66940000 0.013365 -170.6 0.999906 -80.11 0.999906 -80.11 0.013365 -169.6
8.66950000 0.013369 -170.6 0.999906 -80.11 0.999906 -80.11 0.013369 -169.6
8.66960000 0.013374 -170.6 0.999906 -80.11 0.999906 -80.11 0.013374 -169.6
8.66970000 0.013379 -170.6 0.999906 -80.11 0.999906 -80.11 0.013379 -169.6
8.66980000 0.013383 -170.6 0.999906 -80.11 0.999906 -80.11 0.013383 -169.6
8.66990000 0.013388 -170.6 0.999906 -80.12 0.999906 -80.12 0.013388 -169.6
8.67000000 0.013393 -170.6 0.999906 -80.12 0.999906 -80.12 0.013392 -169.6
8.67010000 0.013397 -170.6 0.999906 -80.12 0.999906 -80.12 0.013397 -169.6
8.67020000 0.013402 -170.6 0.999906 -80.12 0.999906 -80.12 0.013402 -169.6
8.67030000 0.013406 -170.6 0.999906 -80.12 0.999906 -80.12 0.013406 -169.6
8.67040000 0.013411 -170.6 0.999906 -80.12 0.999906 -80.12 0.013411 -169.6
8.67050000 0.013416 -170.6 0.999906 -80.12 0.999906 -80.12 0.013416 -169.6
8.67060000 0.013420 -170.7 0.999906 -80.12 0.999906 -80.12 0.013420 -169.6
8.67070000 0.013425 -170.7 0.999906 -80.13 0.999906 -80.13 0.013425 -169.6
8.67080000 0.013430 -170.7 0.999906 -80.13 0.999906 -80.13 0.013430 -169.6
8.67090000 0.013434 -170.7 0.999905 -80.13 0.999905 -80.13 0.013434 -169.6
8.67100000 0.013439 -170.7 0.999905 -80.13 0.999905 -80.13 0.013439 -169.6
8.67110000 0.013444 -170.7 0.999905 -80.13 0.999905 -80.13 0.013444 -169.6
8.67120000 0.013448 -170.7 0.999905 -80.13 0.999905 -80.13 0.013448 -169.6
8.67130000 0.013453 -170.7 0.999905 -80.13 0.999905 -80.13 0.013453 -169.6
8.67140000 0.013458 -170.7 0.999905 -80.13 0.999905 -80.13 0.013458 -169.6
8.67150000 0.013462 -170.7 0.999905 -80.13 0.999905 -80.13 0.013462 -169.6
8.67160000 0.013467 -170.7 0.999905 -80.14 0.999905 -80.14 0.013467 -169.6
8.67170000 0.013472 -170.7 0.999905 -80.14 0.999905 -80.14 0.013472 -169.6
8.67180000 0.013476 -170.7 0.999905 -80.14 0.999905 -80.14 0.013476 -169.6
8.67190000 0.013481 -170.7 0.999905 -80.14 0.999905 -80.14 0.013481 -169.6
8.67200000 0.013486 -170.7 0.999905 -80.14 0.999905 -80.14 0.013486 -169.6
8.67210000 0.013491 -170.7 0.999905 -80.14 0.999905 -80.14 0.013490 -169.6
8.67220000 0.013495 -170.7 0.999905 -80.14 0.999905 -80.14 0.013495 -169.6
8.67230000 0.013500 -170.7 0.999905 -80.14 0.999905 -80.14 0.013500 -169.6
8.67240000 0.013505 -170.7 0.999905 -80.15 0.999905 -80.15 0.013505 -169.6
8.67250000 0.013509 -170.7 0.999904 -80.15 0.999904 -80.15 0.013509 -169.6
8.67260000 0.013514 -170.7 0.999904 -80.15 0.999904 -80.15 0.013514 -169.7
8.67270000 0.013519 -170.7 0.999904 -80.15 0.999904 -80.15 0.013519 -169.7
8.67280000 0.013524 -170.7 0.999904 -80.15 0.999904 -80.15 0.013523 -169.7
8.67290000 0.013528 -170.7 0.999904 -80.15 0.999904 -80.15 0.013528 -169.7
8.67300000 0.013533 -170.7 0.999904 -80.15 0.999904 -80.15 0.013533 -169.7
8.67310000 0.013538 -170.7 0.999904 -80.15 0.999904 -80.15 0.013538 -169.7
8.67320000 0.013543 -170.7 0.999904 -80.16 0.999904 -80.16 0.013542 -169.7
8.67330000 0.013547 -170.7 0.999904 -80.16 0.999904 -80.16 0.013547 -169.7
8.67340000 0.013552 -170.7 0.999904 -80.16 0.999904 -80.16 0.013552 -169.7
8.67350000 0.013557 -170.7 0.999904 -80.16 0.999904 -80.16 0.013557 -169.7
8.67360000 0.013562 -170.7 0.999904 -80.16 0.999904 -80.16 0.013561 -169.7
8.67370000 0.013566 -170.7 0.999904 -80.16 0.999904 -80.16 0.013566 -169.7
8.67380000 0.013571 -170.7 0.999904 -80.16 0.999904 -80.16 0.013571 -169.7
8.67390000 0.013576 -170.7 0.999904 -80.16 0.999904 -80.16 0.013576 -169.7
8.67400000 0.013581 -170.7 0.999903 -80.16 0.999903 -80.16 0.013581 -169.7
8.67410000 0.013585 -170.7 0.999903 -80.17 0.999903 -80.17 0.013585 -169.7
8.67420000 0.013590 -170.7 0.999903 -80.17 0.999903 -80.17 0.013590 -169.7
8.67430000 0.013595 -170.7 0.999903 -80.17 0.999903 -80.17 0.013595 -169.7
8.67440000 0.013600 -170.7 0.999903 -80.17 0.999903 -80.17 0.013600 -169.7
8.67450000 0.013605 -170.7 0.999903 -80.17 0.999903 -80.17 0.013604 -169.7
8.67460000 0.013609 -170.7 0.999903 -80.17 0.999903 -80.17 0.013609 -169.7
8.67470000 0.013614 -170.7 0.999903 -80.17 0.999903 -80.17 0.013614 -169.7
8.67480000 0.013619 -170.7 0.999903 -80.17 0.999903 -80.17 0.013619 -169.7
8.67490000 0.013624 -170.7 0.999903 -80.18 0.999903 -80.18 0.013624 -169.7
8.67500000 0.013629 -170.7 0.999903 -80.18 0.999903 -80.18 0.013629 -169.7
8.67510000 0.013633 -170.7 0.999903 -80.18 0.999903 -80.18 0.013633 -169.7
8.67520000 0.013638 -170.7 0.999903 -80.18 0.999903 -80.18 0.013638 -169.7
8.67530000 0.013643 -170.7 0.999903 -80.18 0.999903 -80.18 0.013643 -169.7
8.67540000 0.013648 -170.7 0.999903 -80.18 0.999903 -80.18 0.013648 -169.7
8.67550000 0.013653 -170.7 0.999903 -80.18 0.999903 -80.18 0.013653 -169.7
8.67560000 0.013658 -170.7 0.999902 -80.18 0.999902 -80.18 0.013657 -169.7
8.67570000 0.013662 -170.7 0.999902 -80.19 0.999902 -80.19 0.013662 -169.7
8.67580000 0.013667 -170.7 0.999902 -80.19 0.999902 -80.19 0.013667 -169.7
8.67590000 0.013672 -170.7 0.999902 -80.19 0.999902 -80.19 0.013672 -169.7
8.67600000 0.013677 -170.7 0.999902 -80.19 0.999902 -80.19 0.013677 -169.7
8.67610000 0.013682 -170.7 0.999902 -80.19 0.999902 -80.19 0.013682 -169.7
8.67620000 0.013687 -170.7 0.999902 -80.19 0.999902 -80.19 0.013687 -169.7
8.67630000 0.013691 -170.7 0.999902 -80.19 0.999902 -80.19 0.013691 -169.7
8.67640000 0.013696 -170.7 0.999902 -80.19 0.999902 -80.19 0.013696 -169.7
8.67650000 0.013701 -170.7 0.999902 -80.19 0.999902 -80.19 0.013701 -169.7
8.67660000 0.013706 -170.7 0.999902 -80.20 0.999902 -80.20 0.013706 -169.7
8.67670000 0.013711 -170.7 0.999902 -80.20 0.999902 -80.20 0.013711 -169.7
8.67680000 0.013716 -170.7 0.999902 -80.20 0.999902 -80.20 0.013716 -169.7
8.67690000 0.013721 -170.7 0.999902 -80.20 0.999902 -80.20 0.013721 -169.7
8.67700000 0.013726 -170.7 0.999901 -80.20 0.999901 -80.20 0.013726 -169.7
8.67710000 0.013731 -170.7 0.999901 -80.20 0.999901 -80.20 0.013730 -169.7
8.67720000 0.013735 -170.7 0.999901 -80.20 0.999901 -80.20 0.013735 -169.7
8.67730000 0.013740 -170.7 0.999901 -80.20 0.999901 -80.20 0.013740 -169.7
8.67740000 0.013745 -170.7 0.999901 -80.21 0.999901 -80.21 0.013745 -169.7
8.67750000 0.013750 -170.7 0.999901 -80.21 0.999901 -80.21 0.013750 -169.7
8.67760000 0.013755 -170.7 0.999901 -80.21 0.999901 -80.21 0.013755 -169.7
8.67770000 0.013760 -170.7 0.999901 -80.21 0.999901 -80.21 0.013760 -169.7
8.67780000 0.013765 -170.7 0.999901 -80.21 0.999901 -80.21 0.013765 -169.7
8.67790000 0.013770 -170.7 0.999901 -80.21 0.999901 -80.21 0.013770 -169.7
8.67800000 0.013775 -170.7 0.999901 -80.21 0.999901 -80.21 0.013775 -169.7
8.67810000 0.013780 -170.7 0.999901 -80.21 0.999901 -80.21 0.013780 -169.7
8.67820000 0.013785 -170.7 0.999901 -80.22 0.999901 -80.22 0.013785 -169.7
8.67830000 0.013790 -170.7 0.999901 -80.22 0.999901 -80.22 0.013790 -169.7
8.67840000 0.013795 -170.7 0.999901 -80.22 0.999901 -80.22 0.013794 -169.7
8.67850000 0.013799 -170.7 0.999900 -80.22 0.999900 -80.22 0.013799 -169.7
8.67860000 0.013804 -170.7 0.999900 -80.22 0.999900 -80.22 0.013804 -169.7
8.67870000 0.013809 -170.7 0.999900 -80.22 0.999900 -80.22 0.013809 -169.7
8.67880000 0.013814 -170.7 0.999900 -80.22 0.999900 -80.22 0.013814 -169.7
8.67890000 0.013819 -170.7 0.999900 -80.22 0.999900 -80.22 0.013819 -169.7
8.67900000 0.013824 -170.7 0.999900 -80.22 0.999900 -80.22 0.013824 -169.7
8.67910000 0.013829 -170.7 0.999900 -80.23 0.999900 -80.23 0.013829 -169.7
8.67920000 0.013834 -170.7 0.999900 -80.23 0.999900 -80.23 0.013834 -169.7
8.67930000 0.013839 -170.7 0.999900 -80.23 0.999900 -80.23 0.013839 -169.7
8.67940000 0.013844 -170.7 0.999900 -80.23 0.999900 -80.23 0.013844 -169.8
8.67950000 0.013849 -170.7 0.999900 -80.23 0.999900 -80.23 0.013849 -169.8
8.67960000 0.013854 -170.7 0.999900 -80.23 0.999900 -80.23 0.013854 -169.8
8.67970000 0.013859 -170.7 0.999900 -80.23 0.999900 -80.23 0.013859 -169.8
8.67980000 0.013864 -170.7 0.999900 -80.23 0.999900 -80.23 0.013864 -169.8
8.67990000 0.013869 -170.7 0.999899 -80.24 0.999899 -80.24 0.013869 -169.8
8.68000000 0.013874 -170.7 0.999899 -80.24 0.999899 -80.24 0.013874 -169.8
8.68010000 0.013879 -170.7 0.999899 -80.24 0.999899 -80.24 0.013879 -169.8
8.68020000 0.013884 -170.7 0.999899 -80.24 0.999899 -80.24 0.013884 -169.8
8.68030000 0.013889 -170.7 0.999899 -80.24 0.999899 -80.24 0.013889 -169.8
8.68040000 0.013894 -170.7 0.999899 -80.24 0.999899 -80.24 0.013894 -169.8
8.68050000 0.013899 -170.7 0.999899 -80.24 0.999899 -80.24 0.013899 -169.8
8.68060000 0.013904 -170.7 0.999899 -80.24 0.999899 -80.24 0.013904 -169.8
8.68070000 0.013909 -170.7 0.999899 -80.25 0.999899 -80.25 0.013909 -169.8
8.68080000 0.013914 -170.7 0.999899 -80.25 0.999899 -80.25 0.013914 -169.8
8.68090000 0.013919 -170.7 0.999899 -80.25 0.999899 -80.25 0.013919 -169.8
8.68100000 0.013925 -170.7 0.999899 -80.25 0.999899 -80.25 0.013924 -169.8
8.68110000 0.013930 -170.7 0.999899 -80.25 0.999899 -80.25 0.013930 -169.8
8.68120000 0.013935 -170.7 0.999899 -80.25 0.999899 -80.25 0.013935 -169.8
8.68130000 0.013940 -170.8 0.999898 -80.25 0.999898 -80.25 0.013940 -169.8
8.68140000 0.013945 -170.8 0.999898 -80.25 0.999898 -80.25 0.013945 -169.8
8.68150000 0.013950 -170.8 0.999898 -80.25 0.999898 -80.25 0.013950 -169.8
8.68160000 0.013955 -170.8 0.999898 -80.26 0.999898 -80.26 0.013955 -169.8
8.68170000 0.013960 -170.8 0.999898 -80.26 0.999898 -80.26 0.013960 -169.8
8.68180000 0.013965 -170.8 0.999898 -80.26 0.999898 -80.26 0.013965 -169.8
8.68190000 0.013970 -170.8 0.999898 -80.26 0.999898 -80.26 0.013970 -169.8
8.68200000 0.013975 -170.8 0.999898 -80.26 0.999898 -80.26 0.013975 -169.8
8.68210000 0.013980 -170.8 0.999898 -80.26 0.999898 -80.26 0.013980 -169.8
8.68220000 0.013985 -170.8 0.999898 -80.26 0.999898 -80.26 0.013985 -169.8
8.68230000 0.013991 -170.8 0.999898 -80.26 0.999898 -80.26 0.013991 -169.8
8.68240000 0.013996 -170.8 0.999898 -80.27 0.999898 -80.27 0.013996 -169.8
8.68250000 0.014001 -170.8 0.999898 -80.27 0.999898 -80.27 0.014001 -169.8
8.68260000 0.014006 -170.8 0.999898 -80.27 0.999898 -80.27 0.014006 -169.8
8.68270000 0.014011 -170.8 0.999897 -80.27 0.999897 -80.27 0.014011 -169.8
8.68280000 0.014016 -170.8 0.999897 -80.27 0.999897 -80.27 0.014016 -169.8
8.68290000 0.014021 -170.8 0.999897 -80.27 0.999897 -80.27 0.014021 -169.8
8.68300000 0.014026 -170.8 0.999897 -80.27 0.999897 -80.27 0.014026 -169.8
8.68310000 0.014032 -170.8 0.999897 -80.27 0.999897 -80.27 0.014031 -169.8
8.68320000 0.014037 -170.8 0.999897 -80.28 0.999897 -80.28 0.014037 -169.8
8.68330000 0.014042 -170.8 0.999897 -80.28 0.999897 -80.28 0.014042 -169.8
8.68340000 0.014047 -170.8 0.999897 -80.28 0.999897 -80.28 0.014047 -169.8
8.68350000 0.014052 -170.8 0.999897 -80.28 0.999897 -80.28 0.014052 -169.8
8.68360000 0.014057 -170.8 0.999897 -80.28 0.999897 -80.28 0.014057 -169.8
8.68370000 0.014062 -170.8 0.999897 -80.28 0.999897 -80.28 0.014062 -169.8
8.68380000 0.014068 -170.8 0.999897 -80.28 0.999897 -80.28 0.014068 -169.8
8.68390000 0.014073 -170.8 0.999897 -80.28 0.999897 -80.28 0.014073 -169.8
8.68400000 0.014078 -170.8 0.999897 -80.29 0.999897 -80.29 0.014078 -169.8
8.68410000 0.014083 -170.8 0.999896 -80.29 0.999896 -80.29 0.014083 -169.8
8.68420000 0.014088 -170.8 0.999896 -80.29 0.999896 -80.29 0.014088 -169.8
8.68430000 0.014094 -170.8 0.999896 -80.29 0.999896 -80.29 0.014093 -169.8
8.68440000 0.014099 -170.8 0.999896 -80.29 0.999896 -80.29 0.014099 -169.8
8.68450000 0.014104 -170.8 0.999896 -80.29 0.999896 -80.29 0.014104 -169.8
8.68460000 0.014109 -170.8 0.999896 -80.29 0.999896 -80.29 0.014109 -169.8
8.68470000 0.014114 -170.8 0.999896 -80.29 0.999896 -80.29 0.014114 -169.8
8.68480000 0.014120 -170.8 0.999896 -80.29 0.999896 -80.29 0.014120 -169.8
8.68490000 0.014125 -170.8 0.999896 -80.30 0.999896 -80.30 0.014125 -169.8
8.68500000 0.014130 -170.8 0.999896 -80.30 0.999896 -80.30 0.014130 -169.8
8.68510000 0.014135 -170.8 0.999896 -80.30 0.999896 -80.30 0.014135 -169.8
8.68520000 0.014140 -170.8 0.999896 -80.30 0.999896 -80.30 0.014140 -169.8
8.68530000 0.014146 -170.8 0.999896 -80.30 0.999896 -80.30 0.014146 -169.8
8.68540000 0.014151 -170.8 0.999895 -80.30 0.999895 -80.30 0.014151 -169.8
8.68550000 0.014156 -170.8 0.999895 -80.30 0.999895 -80.30 0.014156 -169.8
8.68560000 0.014161 -170.8 0.999895 -80.30 0.999895 -80.30 0.014161 -169.8
8.68570000 0.014167 -170.8 0.999895 -80.31 0.999895 -80.31 0.014167 -169.8
8.68580000 0.014172 -170.8 0.999895 -80.31 0.999895 -80.31 0.014172 -169.8
8.68590000 0.014177 -170.8 0.999895 -80.31 0.999895 -80.31 0.014177 -169.8
8.68600000 0.014182 -170.8 0.999895 -80.31 0.999895 -80.31 0.014182 -169.8
8.68610000 0.014188 -170.8 0.999895 -80.31 0.999895 -80.31 0.014188 -169.8
8.68620000 0.014193 -170.8 0.999895 -80.31 0.999895 -80.31 0.014193 -169.9
8.68630000 0.014198 -170.8 0.999895 -80.31 0.999895 -80.31 0.014198 -169.9
8.68640000 0.014204 -170.8 0.999895 -80.31 0.999895 -80.31 0.014203 -169.9
8.68650000 0.014209 -170.8 0.999895 -80.32 0.999895 -80.32 0.014209 -169.9
8.68660000 0.014214 -170.8 0.999895 -80.32 0.999895 -80.32 0.014214 -169.9
8.68670000 0.014219 -170.8 0.999895 -80.32 0.999895 -80.32 0.014219 -169.9
8.68680000 0.014225 -170.8 0.999894 -80.32 0.999894 -80.32 0.014225 -169.9
8.68690000 0.014230 -170.8 0.999894 -80.32 0.999894 -80.32 0.014230 -169.9
8.68700000 0.014235 -170.8 0.999894 -80.32 0.999894 -80.32 0.014235 -169.9
8.68710000 0.014241 -170.8 0.999894 -80.32 0.999894 -80.32 0.014241 -169.9
8.68720000 0.014246 -170.8 0.999894 -80.32 0.999894 -80.32 0.014246 -169.9
8.68730000 0.014251 -170.8 0.999894 -80.33 0.999894 -80.33 0.014251 -169.9
8.68740000 0.014257 -170.8 0.999894 -80.33 0.999894 -80.33 0.014257 -169.9
8.68750000 0.014262 -170.8 0.999894 -80.33 0.999894 -80.33 0.014262 -169.9
8.68760000 0.014267 -170.8 0.999894 -80.33 0.999894 -80.33 0.014267 -169.9
8.68770000 0.014273 -170.8 0.999894 -80.33 0.999894 -80.33 0.014273 -169.9
8.68780000 0.014278 -170.8 0.999894 -80.33 0.999894 -80.33 0.014278 -169.9
8.68790000 0.014283 -170.8 0.999894 -80.33 0.999894 -80.33 0.014283 -169.9
8.68800000 0.014289 -170.8 0.999894 -80.33 0.999894 -80.33 0.014289 -169.9
8.68810000 0.014294 -170.8 0.999893 -80.34 0.999893 -80.34 0.014294 -169.9
8.68820000 0.014299 -170.8 0.999893 -80.34 0.999893 -80.34 0.014299 -169.9
8.68830000 0.014305 -170.8 0.999893 -80.34 0.999893 -80.34 0.014305 -169.9
8.68840000 0.014310 -170.8 0.999893 -80.34 0.999893 -80.34 0.014310 -169.9
8.68850000 0.014315 -170.8 0.999893 -80.34 0.999893 -80.34 0.014315 -169.9
8.68860000 0.014321 -170.8 0.999893 -80.34 0.999893 -80.34 0.014321 -169.9
8.68870000 0.014326 -170.8 0.999893 -80.34 0.999893 -80.34 0.014326 -169.9
8.68880000 0.014332 -170.8 0.999893 -80.34 0.999893 -80.34 0.014332 -169.9
8.68890000 0.014337 -170.8 0.999893 -80.35 0.999893 -80.35 0.014337 -169.9
8.68900000 0.014342 -170.8 0.999893 -80.35 0.999893 -80.35 0.014342 -169.9
8.68910000 0.014348 -170.8 0.999893 -80.35 0.999893 -80.35 0.014348 -169.9
8.68920000 0.014353 -170.8 0.999893 -80.35 0.999893 -80.35 0.014353 -169.9