! Sonnet Data File
! From: emgraph Version : 16.52
! From Project: transmon_trial
! Data is De-embedded 
! Data File Written: 10/20/2017 09:13:07
!< HDATE 10/19/2017 20:03:37
!< MDATE 10/19/2017 20:10:25
!< PARAMS
!< Lj = 15.24
!< Gap = 6.0
!< Width = 50.0
!< Airgap = 30.0
!< Pwidth = 2000.0
!< END PARAMS
# GHZ S MA R 51.00000
8.65000000 0.072879 -173.0 0.997330 -82.78 0.997330 -82.78 0.072879 -172.6
!< P1 F=8.65 Eeff=(6.43962691 -3.1336e-5) Z0=(50.4019059 1.05256e-4) R=0.0 C=0.0 
!< P2 F=8.65 Eeff=(6.43962691 -3.1336e-5) Z0=(50.4019059 1.05256e-4) R=0.0 C=0.0 
8.65010000 0.072920 -173.0 0.997327 -82.78 0.997327 -82.78 0.072920 -172.6
8.65020000 0.072961 -173.0 0.997324 -82.78 0.997324 -82.78 0.072961 -172.6
8.65030000 0.073002 -173.0 0.997321 -82.79 0.997321 -82.79 0.073002 -172.6
8.65040000 0.073043 -173.0 0.997318 -82.79 0.997318 -82.79 0.073043 -172.6
8.65050000 0.073084 -173.0 0.997315 -82.79 0.997315 -82.79 0.073084 -172.6
8.65060000 0.073125 -173.0 0.997312 -82.80 0.997312 -82.80 0.073125 -172.6
8.65070000 0.073166 -173.0 0.997309 -82.80 0.997309 -82.80 0.073166 -172.6
8.65080000 0.073207 -173.0 0.997306 -82.80 0.997306 -82.80 0.073207 -172.6
8.65090000 0.073249 -173.0 0.997303 -82.81 0.997303 -82.81 0.073248 -172.6
8.65100000 0.073290 -173.0 0.997300 -82.81 0.997300 -82.81 0.073290 -172.6
8.65110000 0.073331 -173.0 0.997297 -82.81 0.997297 -82.81 0.073331 -172.6
8.65120000 0.073373 -173.0 0.997294 -82.82 0.997294 -82.82 0.073372 -172.6
8.65130000 0.073414 -173.1 0.997291 -82.82 0.997291 -82.82 0.073414 -172.6
8.65140000 0.073456 -173.1 0.997288 -82.82 0.997288 -82.82 0.073455 -172.6
8.65150000 0.073497 -173.1 0.997285 -82.83 0.997285 -82.83 0.073497 -172.6
8.65160000 0.073539 -173.1 0.997282 -82.83 0.997282 -82.83 0.073539 -172.6
8.65170000 0.073580 -173.1 0.997279 -82.83 0.997279 -82.83 0.073580 -172.6
8.65180000 0.073622 -173.1 0.997275 -82.84 0.997275 -82.84 0.073622 -172.6
8.65190000 0.073664 -173.1 0.997272 -82.84 0.997272 -82.84 0.073664 -172.6
8.65200000 0.073706 -173.1 0.997269 -82.84 0.997269 -82.84 0.073706 -172.6
8.65210000 0.073748 -173.1 0.997266 -82.85 0.997266 -82.85 0.073748 -172.6
8.65220000 0.073790 -173.1 0.997263 -82.85 0.997263 -82.85 0.073789 -172.6
8.65230000 0.073832 -173.1 0.997260 -82.85 0.997260 -82.85 0.073831 -172.6
8.65240000 0.073874 -173.1 0.997257 -82.86 0.997257 -82.86 0.073874 -172.6
8.65250000 0.073916 -173.1 0.997254 -82.86 0.997254 -82.86 0.073916 -172.6
8.65260000 0.073958 -173.1 0.997250 -82.86 0.997250 -82.86 0.073958 -172.6
8.65270000 0.074000 -173.1 0.997247 -82.87 0.997247 -82.87 0.074000 -172.7
8.65280000 0.074042 -173.1 0.997244 -82.87 0.997244 -82.87 0.074042 -172.7
8.65290000 0.074085 -173.1 0.997241 -82.87 0.997241 -82.87 0.074085 -172.7
8.65300000 0.074127 -173.1 0.997238 -82.88 0.997238 -82.88 0.074127 -172.7
8.65310000 0.074170 -173.1 0.997235 -82.88 0.997235 -82.88 0.074170 -172.7
8.65320000 0.074212 -173.1 0.997232 -82.88 0.997232 -82.88 0.074212 -172.7
8.65330000 0.074255 -173.1 0.997228 -82.89 0.997228 -82.89 0.074255 -172.7
8.65340000 0.074297 -173.1 0.997225 -82.89 0.997225 -82.89 0.074297 -172.7
8.65350000 0.074340 -173.1 0.997222 -82.89 0.997222 -82.89 0.074340 -172.7
8.65360000 0.074383 -173.1 0.997219 -82.90 0.997219 -82.90 0.074383 -172.7
8.65370000 0.074426 -173.1 0.997216 -82.90 0.997216 -82.90 0.074425 -172.7
8.65380000 0.074468 -173.1 0.997212 -82.90 0.997212 -82.90 0.074468 -172.7
8.65390000 0.074511 -173.1 0.997209 -82.91 0.997209 -82.91 0.074511 -172.7
8.65400000 0.074554 -173.1 0.997206 -82.91 0.997206 -82.91 0.074554 -172.7
8.65410000 0.074597 -173.1 0.997203 -82.91 0.997203 -82.91 0.074597 -172.7
8.65420000 0.074640 -173.1 0.997199 -82.92 0.997199 -82.92 0.074640 -172.7
8.65430000 0.074683 -173.1 0.997196 -82.92 0.997196 -82.92 0.074683 -172.7
8.65440000 0.074727 -173.1 0.997193 -82.92 0.997193 -82.92 0.074727 -172.7
8.65450000 0.074770 -173.2 0.997190 -82.93 0.997190 -82.93 0.074770 -172.7
8.65460000 0.074813 -173.2 0.997186 -82.93 0.997186 -82.93 0.074813 -172.7
8.65470000 0.074857 -173.2 0.997183 -82.93 0.997183 -82.93 0.074857 -172.7
8.65480000 0.074900 -173.2 0.997180 -82.94 0.997180 -82.94 0.074900 -172.7
8.65490000 0.074944 -173.2 0.997177 -82.94 0.997177 -82.94 0.074943 -172.7
8.65500000 0.074987 -173.2 0.997173 -82.94 0.997173 -82.94 0.074987 -172.7
8.65510000 0.075031 -173.2 0.997170 -82.95 0.997170 -82.95 0.075031 -172.7
8.65520000 0.075074 -173.2 0.997167 -82.95 0.997167 -82.95 0.075074 -172.7
8.65530000 0.075118 -173.2 0.997164 -82.95 0.997164 -82.95 0.075118 -172.7
8.65540000 0.075162 -173.2 0.997160 -82.96 0.997160 -82.96 0.075162 -172.7
8.65550000 0.075206 -173.2 0.997157 -82.96 0.997157 -82.96 0.075206 -172.8
8.65560000 0.075250 -173.2 0.997154 -82.96 0.997154 -82.96 0.075249 -172.8
8.65570000 0.075294 -173.2 0.997150 -82.97 0.997150 -82.97 0.075293 -172.8
8.65580000 0.075338 -173.2 0.997147 -82.97 0.997147 -82.97 0.075337 -172.8
8.65590000 0.075382 -173.2 0.997144 -82.97 0.997144 -82.97 0.075382 -172.8
8.65600000 0.075426 -173.2 0.997140 -82.98 0.997140 -82.98 0.075426 -172.8
8.65610000 0.075470 -173.2 0.997137 -82.98 0.997137 -82.98 0.075470 -172.8
8.65620000 0.075514 -173.2 0.997133 -82.98 0.997133 -82.98 0.075514 -172.8
8.65630000 0.075559 -173.2 0.997130 -82.99 0.997130 -82.99 0.075558 -172.8
8.65640000 0.075603 -173.2 0.997127 -82.99 0.997127 -82.99 0.075603 -172.8
8.65650000 0.075647 -173.2 0.997123 -83.00 0.997123 -83.00 0.075647 -172.8
8.65660000 0.075692 -173.2 0.997120 -83.00 0.997120 -83.00 0.075692 -172.8
8.65670000 0.075736 -173.2 0.997117 -83.00 0.997117 -83.00 0.075736 -172.8
8.65680000 0.075781 -173.2 0.997113 -83.01 0.997113 -83.01 0.075781 -172.8
8.65690000 0.075826 -173.2 0.997110 -83.01 0.997110 -83.01 0.075826 -172.8
8.65700000 0.075870 -173.2 0.997106 -83.01 0.997106 -83.01 0.075870 -172.8
8.65710000 0.075915 -173.2 0.997103 -83.02 0.997103 -83.02 0.075915 -172.8
8.65720000 0.075960 -173.2 0.997100 -83.02 0.997100 -83.02 0.075960 -172.8
8.65730000 0.076005 -173.2 0.997096 -83.02 0.997096 -83.02 0.076005 -172.8
8.65740000 0.076050 -173.2 0.997093 -83.03 0.997093 -83.03 0.076050 -172.8
8.65750000 0.076095 -173.2 0.997089 -83.03 0.997089 -83.03 0.076095 -172.8
8.65760000 0.076140 -173.3 0.997086 -83.03 0.997086 -83.03 0.076140 -172.8
8.65770000 0.076185 -173.3 0.997082 -83.04 0.997082 -83.04 0.076185 -172.8
8.65780000 0.076231 -173.3 0.997079 -83.04 0.997079 -83.04 0.076230 -172.8
8.65790000 0.076276 -173.3 0.997075 -83.04 0.997075 -83.04 0.076276 -172.8
8.65800000 0.076321 -173.3 0.997072 -83.05 0.997072 -83.05 0.076321 -172.8
8.65810000 0.076367 -173.3 0.997068 -83.05 0.997068 -83.05 0.076367 -172.8
8.65820000 0.076412 -173.3 0.997065 -83.05 0.997065 -83.05 0.076412 -172.9
8.65830000 0.076458 -173.3 0.997061 -83.06 0.997061 -83.06 0.076458 -172.9
8.65840000 0.076503 -173.3 0.997058 -83.06 0.997058 -83.06 0.076503 -172.9
8.65850000 0.076549 -173.3 0.997054 -83.07 0.997054 -83.07 0.076549 -172.9
8.65860000 0.076595 -173.3 0.997051 -83.07 0.997051 -83.07 0.076595 -172.9
8.65870000 0.076640 -173.3 0.997047 -83.07 0.997047 -83.07 0.076640 -172.9
8.65880000 0.076686 -173.3 0.997044 -83.08 0.997044 -83.08 0.076686 -172.9
8.65890000 0.076732 -173.3 0.997040 -83.08 0.997040 -83.08 0.076732 -172.9
8.65900000 0.076778 -173.3 0.997037 -83.08 0.997037 -83.08 0.076778 -172.9
8.65910000 0.076824 -173.3 0.997033 -83.09 0.997033 -83.09 0.076824 -172.9
8.65920000 0.076870 -173.3 0.997030 -83.09 0.997030 -83.09 0.076870 -172.9
8.65930000 0.076917 -173.3 0.997026 -83.09 0.997026 -83.09 0.076916 -172.9
8.65940000 0.076963 -173.3 0.997022 -83.10 0.997022 -83.10 0.076963 -172.9
8.65950000 0.077009 -173.3 0.997019 -83.10 0.997019 -83.10 0.077009 -172.9
8.65960000 0.077056 -173.3 0.997015 -83.10 0.997015 -83.10 0.077055 -172.9
8.65970000 0.077102 -173.3 0.997012 -83.11 0.997012 -83.11 0.077102 -172.9
8.65980000 0.077148 -173.3 0.997008 -83.11 0.997008 -83.11 0.077148 -172.9
8.65990000 0.077195 -173.3 0.997004 -83.12 0.997004 -83.12 0.077195 -172.9
8.66000000 0.077242 -173.3 0.997001 -83.12 0.997001 -83.12 0.077242 -172.9
8.66010000 0.077288 -173.3 0.996997 -83.12 0.996997 -83.12 0.077288 -172.9
8.66020000 0.077335 -173.3 0.996993 -83.13 0.996993 -83.13 0.077335 -172.9
8.66030000 0.077382 -173.3 0.996990 -83.13 0.996990 -83.13 0.077382 -172.9
8.66040000 0.077429 -173.3 0.996986 -83.13 0.996986 -83.13 0.077429 -172.9
8.66050000 0.077476 -173.3 0.996983 -83.14 0.996983 -83.14 0.077476 -172.9
8.66060000 0.077523 -173.4 0.996979 -83.14 0.996979 -83.14 0.077523 -172.9
8.66070000 0.077570 -173.4 0.996975 -83.14 0.996975 -83.14 0.077570 -172.9
8.66080000 0.077617 -173.4 0.996971 -83.15 0.996971 -83.15 0.077617 -173.0
8.66090000 0.077664 -173.4 0.996968 -83.15 0.996968 -83.15 0.077664 -173.0
8.66100000 0.077712 -173.4 0.996964 -83.15 0.996964 -83.15 0.077711 -173.0
8.66110000 0.077759 -173.4 0.996960 -83.16 0.996960 -83.16 0.077759 -173.0
8.66120000 0.077806 -173.4 0.996957 -83.16 0.996957 -83.16 0.077806 -173.0
8.66130000 0.077854 -173.4 0.996953 -83.17 0.996953 -83.17 0.077854 -173.0
8.66140000 0.077901 -173.4 0.996949 -83.17 0.996949 -83.17 0.077901 -173.0
8.66150000 0.077949 -173.4 0.996946 -83.17 0.996946 -83.17 0.077949 -173.0
8.66160000 0.077997 -173.4 0.996942 -83.18 0.996942 -83.18 0.077997 -173.0
8.66170000 0.078044 -173.4 0.996938 -83.18 0.996938 -83.18 0.078044 -173.0
8.66180000 0.078092 -173.4 0.996934 -83.18 0.996934 -83.18 0.078092 -173.0
8.66190000 0.078140 -173.4 0.996930 -83.19 0.996930 -83.19 0.078140 -173.0
8.66200000 0.078188 -173.4 0.996927 -83.19 0.996927 -83.19 0.078188 -173.0
8.66210000 0.078236 -173.4 0.996923 -83.19 0.996923 -83.19 0.078236 -173.0
8.66220000 0.078284 -173.4 0.996919 -83.20 0.996919 -83.20 0.078284 -173.0
8.66230000 0.078332 -173.4 0.996915 -83.20 0.996915 -83.20 0.078332 -173.0
8.66240000 0.078381 -173.4 0.996912 -83.21 0.996912 -83.21 0.078381 -173.0
8.66250000 0.078429 -173.4 0.996908 -83.21 0.996908 -83.21 0.078429 -173.0
8.66260000 0.078477 -173.4 0.996904 -83.21 0.996904 -83.21 0.078477 -173.0
8.66270000 0.078526 -173.4 0.996900 -83.22 0.996900 -83.22 0.078526 -173.0
8.66280000 0.078574 -173.4 0.996896 -83.22 0.996896 -83.22 0.078574 -173.0
8.66290000 0.078623 -173.4 0.996892 -83.22 0.996892 -83.22 0.078623 -173.0
8.66300000 0.078671 -173.4 0.996889 -83.23 0.996889 -83.23 0.078671 -173.0
8.66310000 0.078720 -173.4 0.996885 -83.23 0.996885 -83.23 0.078720 -173.0
8.66320000 0.078769 -173.4 0.996881 -83.24 0.996881 -83.24 0.078769 -173.0
8.66330000 0.078818 -173.4 0.996877 -83.24 0.996877 -83.24 0.078818 -173.0
8.66340000 0.078867 -173.4 0.996873 -83.24 0.996873 -83.24 0.078867 -173.1
8.66350000 0.078916 -173.5 0.996869 -83.25 0.996869 -83.25 0.078916 -173.1
8.66360000 0.078965 -173.5 0.996865 -83.25 0.996865 -83.25 0.078965 -173.1
8.66370000 0.079014 -173.5 0.996861 -83.25 0.996861 -83.25 0.079014 -173.1
8.66380000 0.079063 -173.5 0.996857 -83.26 0.996857 -83.26 0.079063 -173.1
8.66390000 0.079112 -173.5 0.996854 -83.26 0.996854 -83.26 0.079112 -173.1
8.66400000 0.079162 -173.5 0.996850 -83.27 0.996850 -83.27 0.079162 -173.1
8.66410000 0.079211 -173.5 0.996846 -83.27 0.996846 -83.27 0.079211 -173.1
8.66420000 0.079261 -173.5 0.996842 -83.27 0.996842 -83.27 0.079260 -173.1
8.66430000 0.079310 -173.5 0.996838 -83.28 0.996838 -83.28 0.079310 -173.1
8.66440000 0.079360 -173.5 0.996834 -83.28 0.996834 -83.28 0.079360 -173.1
8.66450000 0.079409 -173.5 0.996830 -83.28 0.996830 -83.28 0.079409 -173.1
8.66460000 0.079459 -173.5 0.996826 -83.29 0.996826 -83.29 0.079459 -173.1
8.66470000 0.079509 -173.5 0.996822 -83.29 0.996822 -83.29 0.079509 -173.1
8.66480000 0.079559 -173.5 0.996818 -83.30 0.996818 -83.30 0.079559 -173.1
8.66490000 0.079609 -173.5 0.996814 -83.30 0.996814 -83.30 0.079609 -173.1
8.66500000 0.079659 -173.5 0.996810 -83.30 0.996810 -83.30 0.079659 -173.1
8.66510000 0.079709 -173.5 0.996806 -83.31 0.996806 -83.31 0.079709 -173.1
8.66520000 0.079759 -173.5 0.996802 -83.31 0.996802 -83.31 0.079759 -173.1
8.66530000 0.079810 -173.5 0.996798 -83.31 0.996798 -83.31 0.079810 -173.1
8.66540000 0.079860 -173.5 0.996794 -83.32 0.996794 -83.32 0.079860 -173.1
8.66550000 0.079910 -173.5 0.996790 -83.32 0.996790 -83.32 0.079910 -173.1
8.66560000 0.079961 -173.5 0.996786 -83.33 0.996786 -83.33 0.079961 -173.1
8.66570000 0.080011 -173.5 0.996782 -83.33 0.996782 -83.33 0.080011 -173.1
8.66580000 0.080062 -173.5 0.996777 -83.33 0.996777 -83.33 0.080062 -173.1
8.66590000 0.080113 -173.5 0.996773 -83.34 0.996773 -83.34 0.080113 -173.2
8.66600000 0.080164 -173.5 0.996769 -83.34 0.996769 -83.34 0.080163 -173.2
8.66610000 0.080214 -173.5 0.996765 -83.35 0.996765 -83.35 0.080214 -173.2
8.66620000 0.080265 -173.5 0.996761 -83.35 0.996761 -83.35 0.080265 -173.2
8.66630000 0.080316 -173.6 0.996757 -83.35 0.996757 -83.35 0.080316 -173.2
8.66640000 0.080367 -173.6 0.996753 -83.36 0.996753 -83.36 0.080367 -173.2
8.66650000 0.080419 -173.6 0.996749 -83.36 0.996749 -83.36 0.080419 -173.2
8.66660000 0.080470 -173.6 0.996745 -83.36 0.996745 -83.36 0.080470 -173.2
8.66670000 0.080521 -173.6 0.996740 -83.37 0.996740 -83.37 0.080521 -173.2
8.66680000 0.080573 -173.6 0.996736 -83.37 0.996736 -83.37 0.080572 -173.2
8.66690000 0.080624 -173.6 0.996732 -83.38 0.996732 -83.38 0.080624 -173.2
8.66700000 0.080676 -173.6 0.996728 -83.38 0.996728 -83.38 0.080675 -173.2
8.66710000 0.080727 -173.6 0.996724 -83.38 0.996724 -83.38 0.080727 -173.2
8.66720000 0.080779 -173.6 0.996719 -83.39 0.996719 -83.39 0.080779 -173.2
8.66730000 0.080831 -173.6 0.996715 -83.39 0.996715 -83.39 0.080830 -173.2
8.66740000 0.080882 -173.6 0.996711 -83.40 0.996711 -83.40 0.080882 -173.2
8.66750000 0.080934 -173.6 0.996707 -83.40 0.996707 -83.40 0.080934 -173.2
8.66760000 0.080986 -173.6 0.996703 -83.40 0.996703 -83.40 0.080986 -173.2
8.66770000 0.081038 -173.6 0.996698 -83.41 0.996698 -83.41 0.081038 -173.2
8.66780000 0.081091 -173.6 0.996694 -83.41 0.996694 -83.41 0.081090 -173.2
8.66790000 0.081143 -173.6 0.996690 -83.42 0.996690 -83.42 0.081143 -173.2
8.66800000 0.081195 -173.6 0.996686 -83.42 0.996686 -83.42 0.081195 -173.2
8.66810000 0.081247 -173.6 0.996681 -83.42 0.996681 -83.42 0.081247 -173.2
8.66820000 0.081300 -173.6 0.996677 -83.43 0.996677 -83.43 0.081300 -173.2
8.66830000 0.081352 -173.6 0.996673 -83.43 0.996673 -83.43 0.081352 -173.3
8.66840000 0.081405 -173.6 0.996668 -83.43 0.996668 -83.43 0.081405 -173.3
8.66850000 0.081458 -173.6 0.996664 -83.44 0.996664 -83.44 0.081458 -173.3
8.66860000 0.081510 -173.6 0.996660 -83.44 0.996660 -83.44 0.081510 -173.3
8.66870000 0.081563 -173.6 0.996655 -83.45 0.996655 -83.45 0.081563 -173.3
8.66880000 0.081616 -173.6 0.996651 -83.45 0.996651 -83.45 0.081616 -173.3
8.66890000 0.081669 -173.6 0.996647 -83.45 0.996647 -83.45 0.081669 -173.3
8.66900000 0.081722 -173.7 0.996642 -83.46 0.996642 -83.46 0.081722 -173.3
8.66910000 0.081775 -173.7 0.996638 -83.46 0.996638 -83.46 0.081775 -173.3
8.66920000 0.081829 -173.7 0.996634 -83.47 0.996634 -83.47 0.081829 -173.3
8.66930000 0.081882 -173.7 0.996629 -83.47 0.996629 -83.47 0.081882 -173.3
8.66940000 0.081935 -173.7 0.996625 -83.47 0.996625 -83.47 0.081935 -173.3
8.66950000 0.081989 -173.7 0.996620 -83.48 0.996620 -83.48 0.081989 -173.3
8.66960000 0.082042 -173.7 0.996616 -83.48 0.996616 -83.48 0.082042 -173.3
8.66970000 0.082096 -173.7 0.996611 -83.49 0.996611 -83.49 0.082096 -173.3
8.66980000 0.082150 -173.7 0.996607 -83.49 0.996607 -83.49 0.082150 -173.3
8.66990000 0.082204 -173.7 0.996603 -83.49 0.996603 -83.49 0.082203 -173.3
8.67000000 0.082257 -173.7 0.996598 -83.50 0.996598 -83.50 0.082257 -173.3
8.67010000 0.082311 -173.7 0.996594 -83.50 0.996594 -83.50 0.082311 -173.3
8.67020000 0.082365 -173.7 0.996589 -83.51 0.996589 -83.51 0.082365 -173.3
8.67030000 0.082420 -173.7 0.996585 -83.51 0.996585 -83.51 0.082419 -173.3
8.67040000 0.082474 -173.7 0.996580 -83.51 0.996580 -83.51 0.082474 -173.3
8.67050000 0.082528 -173.7 0.996576 -83.52 0.996576 -83.52 0.082528 -173.3
8.67060000 0.082582 -173.7 0.996571 -83.52 0.996571 -83.52 0.082582 -173.3
8.67070000 0.082637 -173.7 0.996567 -83.53 0.996567 -83.53 0.082637 -173.4
8.67080000 0.082691 -173.7 0.996562 -83.53 0.996562 -83.53 0.082691 -173.4
8.67090000 0.082746 -173.7 0.996558 -83.53 0.996558 -83.53 0.082746 -173.4
8.67100000 0.082801 -173.7 0.996553 -83.54 0.996553 -83.54 0.082801 -173.4
8.67110000 0.082855 -173.7 0.996548 -83.54 0.996548 -83.54 0.082855 -173.4
8.67120000 0.082910 -173.7 0.996544 -83.55 0.996544 -83.55 0.082910 -173.4
8.67130000 0.082965 -173.7 0.996539 -83.55 0.996539 -83.55 0.082965 -173.4
8.67140000 0.083020 -173.7 0.996535 -83.55 0.996535 -83.55 0.083020 -173.4
8.67150000 0.083075 -173.7 0.996530 -83.56 0.996530 -83.56 0.083075 -173.4
8.67160000 0.083131 -173.8 0.996525 -83.56 0.996525 -83.56 0.083130 -173.4
8.67170000 0.083186 -173.8 0.996521 -83.57 0.996521 -83.57 0.083186 -173.4
8.67180000 0.083241 -173.8 0.996516 -83.57 0.996516 -83.57 0.083241 -173.4
8.67190000 0.083297 -173.8 0.996512 -83.58 0.996512 -83.58 0.083296 -173.4
8.67200000 0.083352 -173.8 0.996507 -83.58 0.996507 -83.58 0.083352 -173.4
8.67210000 0.083408 -173.8 0.996502 -83.58 0.996502 -83.58 0.083408 -173.4
8.67220000 0.083463 -173.8 0.996498 -83.59 0.996498 -83.59 0.083463 -173.4
8.67230000 0.083519 -173.8 0.996493 -83.59 0.996493 -83.59 0.083519 -173.4
8.67240000 0.083575 -173.8 0.996488 -83.60 0.996488 -83.60 0.083575 -173.4
8.67250000 0.083631 -173.8 0.996483 -83.60 0.996483 -83.60 0.083631 -173.4
8.67260000 0.083687 -173.8 0.996479 -83.60 0.996479 -83.60 0.083687 -173.4
8.67270000 0.083743 -173.8 0.996474 -83.61 0.996474 -83.61 0.083743 -173.4
8.67280000 0.083799 -173.8 0.996469 -83.61 0.996469 -83.61 0.083799 -173.4
8.67290000 0.083856 -173.8 0.996465 -83.62 0.996465 -83.62 0.083856 -173.4
8.67300000 0.083912 -173.8 0.996460 -83.62 0.996460 -83.62 0.083912 -173.5
8.67310000 0.083969 -173.8 0.996455 -83.62 0.996455 -83.62 0.083968 -173.5
8.67320000 0.084025 -173.8 0.996450 -83.63 0.996450 -83.63 0.084025 -173.5
8.67330000 0.084082 -173.8 0.996445 -83.63 0.996445 -83.63 0.084082 -173.5
8.67340000 0.084138 -173.8 0.996441 -83.64 0.996441 -83.64 0.084138 -173.5
8.67350000 0.084195 -173.8 0.996436 -83.64 0.996436 -83.64 0.084195 -173.5
8.67360000 0.084252 -173.8 0.996431 -83.65 0.996431 -83.65 0.084252 -173.5
8.67370000 0.084309 -173.8 0.996426 -83.65 0.996426 -83.65 0.084309 -173.5
8.67380000 0.084366 -173.8 0.996421 -83.65 0.996421 -83.65 0.084366 -173.5
8.67390000 0.084423 -173.8 0.996416 -83.66 0.996416 -83.66 0.084423 -173.5
8.67400000 0.084481 -173.8 0.996412 -83.66 0.996412 -83.66 0.084480 -173.5
8.67410000 0.084538 -173.8 0.996407 -83.67 0.996407 -83.67 0.084538 -173.5
8.67420000 0.084595 -173.9 0.996402 -83.67 0.996402 -83.67 0.084595 -173.5
8.67430000 0.084653 -173.9 0.996397 -83.68 0.996397 -83.68 0.084653 -173.5
8.67440000 0.084710 -173.9 0.996392 -83.68 0.996392 -83.68 0.084710 -173.5
8.67450000 0.084768 -173.9 0.996387 -83.68 0.996387 -83.68 0.084768 -173.5
8.67460000 0.084826 -173.9 0.996382 -83.69 0.996382 -83.69 0.084826 -173.5
8.67470000 0.084884 -173.9 0.996377 -83.69 0.996377 -83.69 0.084884 -173.5
8.67480000 0.084942 -173.9 0.996372 -83.70 0.996372 -83.70 0.084942 -173.5
8.67490000 0.085000 -173.9 0.996367 -83.70 0.996367 -83.70 0.085000 -173.5
8.67500000 0.085058 -173.9 0.996362 -83.71 0.996362 -83.71 0.085058 -173.5
8.67510000 0.085116 -173.9 0.996357 -83.71 0.996357 -83.71 0.085116 -173.5
8.67520000 0.085175 -173.9 0.996352 -83.71 0.996352 -83.71 0.085174 -173.6
8.67530000 0.085233 -173.9 0.996347 -83.72 0.996347 -83.72 0.085233 -173.6
8.67540000 0.085291 -173.9 0.996342 -83.72 0.996342 -83.72 0.085291 -173.6
8.67550000 0.085350 -173.9 0.996337 -83.73 0.996337 -83.73 0.085350 -173.6
8.67560000 0.085409 -173.9 0.996332 -83.73 0.996332 -83.73 0.085409 -173.6
8.67570000 0.085468 -173.9 0.996327 -83.73 0.996327 -83.73 0.085467 -173.6
8.67580000 0.085526 -173.9 0.996322 -83.74 0.996322 -83.74 0.085526 -173.6
8.67590000 0.085585 -173.9 0.996317 -83.74 0.996317 -83.74 0.085585 -173.6
8.67600000 0.085644 -173.9 0.996312 -83.75 0.996312 -83.75 0.085644 -173.6
8.67610000 0.085704 -173.9 0.996307 -83.75 0.996307 -83.75 0.085703 -173.6
8.67620000 0.085763 -173.9 0.996302 -83.76 0.996302 -83.76 0.085763 -173.6
8.67630000 0.085822 -173.9 0.996297 -83.76 0.996297 -83.76 0.085822 -173.6
8.67640000 0.085882 -173.9 0.996291 -83.77 0.996291 -83.77 0.085882 -173.6
8.67650000 0.085941 -173.9 0.996286 -83.77 0.996286 -83.77 0.085941 -173.6
8.67660000 0.086001 -173.9 0.996281 -83.77 0.996281 -83.77 0.086001 -173.6
8.67670000 0.086060 -174.0 0.996276 -83.78 0.996276 -83.78 0.086060 -173.6
8.67680000 0.086120 -174.0 0.996271 -83.78 0.996271 -83.78 0.086120 -173.6
8.67690000 0.086180 -174.0 0.996266 -83.79 0.996266 -83.79 0.086180 -173.6
8.67700000 0.086240 -174.0 0.996260 -83.79 0.996260 -83.79 0.086240 -173.6
8.67710000 0.086300 -174.0 0.996255 -83.80 0.996255 -83.80 0.086300 -173.6
8.67720000 0.086360 -174.0 0.996250 -83.80 0.996250 -83.80 0.086360 -173.6
8.67730000 0.086421 -174.0 0.996245 -83.80 0.996245 -83.80 0.086421 -173.6
8.67740000 0.086481 -174.0 0.996239 -83.81 0.996239 -83.81 0.086481 -173.7
8.67750000 0.086542 -174.0 0.996234 -83.81 0.996234 -83.81 0.086541 -173.7
8.67760000 0.086602 -174.0 0.996229 -83.82 0.996229 -83.82 0.086602 -173.7
8.67770000 0.086663 -174.0 0.996224 -83.82 0.996224 -83.82 0.086663 -173.7
8.67780000 0.086724 -174.0 0.996218 -83.83 0.996218 -83.83 0.086723 -173.7
8.67790000 0.086784 -174.0 0.996213 -83.83 0.996213 -83.83 0.086784 -173.7
8.67800000 0.086845 -174.0 0.996208 -83.84 0.996208 -83.84 0.086845 -173.7
8.67810000 0.086906 -174.0 0.996202 -83.84 0.996202 -83.84 0.086906 -173.7
8.67820000 0.086968 -174.0 0.996197 -83.84 0.996197 -83.84 0.086967 -173.7
8.67830000 0.087029 -174.0 0.996192 -83.85 0.996192 -83.85 0.087029 -173.7
8.67840000 0.087090 -174.0 0.996186 -83.85 0.996186 -83.85 0.087090 -173.7
8.67850000 0.087152 -174.0 0.996181 -83.86 0.996181 -83.86 0.087152 -173.7
8.67860000 0.087213 -174.0 0.996175 -83.86 0.996175 -83.86 0.087213 -173.7
8.67870000 0.087275 -174.0 0.996170 -83.87 0.996170 -83.87 0.087275 -173.7
8.67880000 0.087337 -174.0 0.996164 -83.87 0.996164 -83.87 0.087336 -173.7
8.67890000 0.087398 -174.0 0.996159 -83.88 0.996159 -83.88 0.087398 -173.7
8.67900000 0.087460 -174.1 0.996154 -83.88 0.996154 -83.88 0.087460 -173.7
8.67910000 0.087522 -174.1 0.996148 -83.88 0.996148 -83.88 0.087522 -173.7
8.67920000 0.087584 -174.1 0.996143 -83.89 0.996143 -83.89 0.087584 -173.7
8.67930000 0.087647 -174.1 0.996137 -83.89 0.996137 -83.89 0.087647 -173.7
8.67940000 0.087709 -174.1 0.996132 -83.90 0.996132 -83.90 0.087709 -173.7
8.67950000 0.087771 -174.1 0.996126 -83.90 0.996126 -83.90 0.087771 -173.8
8.67960000 0.087834 -174.1 0.996121 -83.91 0.996121 -83.91 0.087834 -173.8
8.67970000 0.087897 -174.1 0.996115 -83.91 0.996115 -83.91 0.087897 -173.8
8.67980000 0.087959 -174.1 0.996109 -83.92 0.996109 -83.92 0.087959 -173.8
8.67990000 0.088022 -174.1 0.996104 -83.92 0.996104 -83.92 0.088022 -173.8
8.68000000 0.088085 -174.1 0.996098 -83.92 0.996098 -83.92 0.088085 -173.8
8.68010000 0.088148 -174.1 0.996093 -83.93 0.996093 -83.93 0.088148 -173.8
8.68020000 0.088211 -174.1 0.996087 -83.93 0.996087 -83.93 0.088211 -173.8
8.68030000 0.088275 -174.1 0.996082 -83.94 0.996082 -83.94 0.088275 -173.8
8.68040000 0.088338 -174.1 0.996076 -83.94 0.996076 -83.94 0.088338 -173.8
8.68050000 0.088401 -174.1 0.996070 -83.95 0.996070 -83.95 0.088401 -173.8
8.68060000 0.088465 -174.1 0.996065 -83.95 0.996065 -83.95 0.088465 -173.8
8.68070000 0.088529 -174.1 0.996059 -83.96 0.996059 -83.96 0.088529 -173.8
8.68080000 0.088592 -174.1 0.996053 -83.96 0.996053 -83.96 0.088592 -173.8
8.68090000 0.088656 -174.1 0.996048 -83.97 0.996048 -83.97 0.088656 -173.8
8.68100000 0.088720 -174.1 0.996042 -83.97 0.996042 -83.97 0.088720 -173.8
8.68110000 0.088784 -174.1 0.996036 -83.98 0.996036 -83.98 0.088784 -173.8
8.68120000 0.088849 -174.1 0.996030 -83.98 0.996030 -83.98 0.088848 -173.8
8.68130000 0.088913 -174.1 0.996025 -83.98 0.996025 -83.98 0.088913 -173.8
8.68140000 0.088977 -174.2 0.996019 -83.99 0.996019 -83.99 0.088977 -173.8
8.68150000 0.089042 -174.2 0.996013 -83.99 0.996013 -83.99 0.089042 -173.8
8.68160000 0.089106 -174.2 0.996007 -84.00 0.996007 -84.00 0.089106 -173.9
8.68170000 0.089171 -174.2 0.996001 -84.00 0.996001 -84.00 0.089171 -173.9
8.68180000 0.089236 -174.2 0.995996 -84.01 0.995996 -84.01 0.089236 -173.9
8.68190000 0.089301 -174.2 0.995990 -84.01 0.995990 -84.01 0.089301 -173.9
8.68200000 0.089366 -174.2 0.995984 -84.02 0.995984 -84.02 0.089366 -173.9
8.68210000 0.089431 -174.2 0.995978 -84.02 0.995978 -84.02 0.089431 -173.9
8.68220000 0.089496 -174.2 0.995972 -84.03 0.995972 -84.03 0.089496 -173.9
8.68230000 0.089562 -174.2 0.995966 -84.03 0.995966 -84.03 0.089561 -173.9
8.68240000 0.089627 -174.2 0.995960 -84.04 0.995960 -84.04 0.089627 -173.9
8.68250000 0.089693 -174.2 0.995954 -84.04 0.995954 -84.04 0.089692 -173.9
8.68260000 0.089758 -174.2 0.995948 -84.04 0.995948 -84.04 0.089758 -173.9
8.68270000 0.089824 -174.2 0.995943 -84.05 0.995943 -84.05 0.089824 -173.9
8.68280000 0.089890 -174.2 0.995937 -84.05 0.995937 -84.05 0.089890 -173.9
8.68290000 0.089956 -174.2 0.995931 -84.06 0.995931 -84.06 0.089956 -173.9
8.68300000 0.090022 -174.2 0.995925 -84.06 0.995925 -84.06 0.090022 -173.9
8.68310000 0.090088 -174.2 0.995919 -84.07 0.995919 -84.07 0.090088 -173.9
8.68320000 0.090155 -174.2 0.995913 -84.07 0.995913 -84.07 0.090154 -173.9
8.68330000 0.090221 -174.2 0.995907 -84.08 0.995907 -84.08 0.090221 -173.9
8.68340000 0.090288 -174.2 0.995900 -84.08 0.995900 -84.08 0.090287 -173.9
8.68350000 0.090354 -174.2 0.995894 -84.09 0.995894 -84.09 0.090354 -173.9
8.68360000 0.090421 -174.3 0.995888 -84.09 0.995888 -84.09 0.090421 -173.9
8.68370000 0.090488 -174.3 0.995882 -84.10 0.995882 -84.10 0.090488 -174.0
8.68380000 0.090555 -174.3 0.995876 -84.10 0.995876 -84.10 0.090555 -174.0
8.68390000 0.090622 -174.3 0.995870 -84.11 0.995870 -84.11 0.090622 -174.0
8.68400000 0.090689 -174.3 0.995864 -84.11 0.995864 -84.11 0.090689 -174.0
8.68410000 0.090757 -174.3 0.995858 -84.12 0.995858 -84.12 0.090756 -174.0
8.68420000 0.090824 -174.3 0.995852 -84.12 0.995852 -84.12 0.090824 -174.0
8.68430000 0.090892 -174.3 0.995845 -84.13 0.995845 -84.13 0.090891 -174.0
8.68440000 0.090959 -174.3 0.995839 -84.13 0.995839 -84.13 0.090959 -174.0
8.68450000 0.091027 -174.3 0.995833 -84.14 0.995833 -84.14 0.091027 -174.0
8.68460000 0.091095 -174.3 0.995827 -84.14 0.995827 -84.14 0.091095 -174.0
8.68470000 0.091163 -174.3 0.995820 -84.14 0.995820 -84.14 0.091163 -174.0
8.68480000 0.091231 -174.3 0.995814 -84.15 0.995814 -84.15 0.091231 -174.0
8.68490000 0.091299 -174.3 0.995808 -84.15 0.995808 -84.15 0.091299 -174.0
8.68500000 0.091368 -174.3 0.995802 -84.16 0.995802 -84.16 0.091367 -174.0
8.68510000 0.091436 -174.3 0.995795 -84.16 0.995795 -84.16 0.091436 -174.0
8.68520000 0.091505 -174.3 0.995789 -84.17 0.995789 -84.17 0.091505 -174.0
8.68530000 0.091573 -174.3 0.995783 -84.17 0.995783 -84.17 0.091573 -174.0
8.68540000 0.091642 -174.3 0.995776 -84.18 0.995776 -84.18 0.091642 -174.0
8.68550000 0.091711 -174.3 0.995770 -84.18 0.995770 -84.18 0.091711 -174.0
8.68560000 0.091780 -174.3 0.995764 -84.19 0.995764 -84.19 0.091780 -174.1
8.68570000 0.091849 -174.3 0.995757 -84.19 0.995757 -84.19 0.091849 -174.1
8.68580000 0.091919 -174.4 0.995751 -84.20 0.995751 -84.20 0.091919 -174.1
8.68590000 0.091988 -174.4 0.995744 -84.20 0.995744 -84.20 0.091988 -174.1
8.68600000 0.092058 -174.4 0.995738 -84.21 0.995738 -84.21 0.092057 -174.1
8.68610000 0.092127 -174.4 0.995731 -84.21 0.995731 -84.21 0.092127 -174.1
8.68620000 0.092197 -174.4 0.995725 -84.22 0.995725 -84.22 0.092197 -174.1
8.68630000 0.092267 -174.4 0.995718 -84.22 0.995718 -84.22 0.092267 -174.1
8.68640000 0.092337 -174.4 0.995712 -84.23 0.995712 -84.23 0.092337 -174.1
8.68650000 0.092407 -174.4 0.995705 -84.23 0.995705 -84.23 0.092407 -174.1
8.68660000 0.092477 -174.4 0.995699 -84.24 0.995699 -84.24 0.092477 -174.1
8.68670000 0.092548 -174.4 0.995692 -84.24 0.995692 -84.24 0.092547 -174.1
8.68680000 0.092618 -174.4 0.995686 -84.25 0.995686 -84.25 0.092618 -174.1
8.68690000 0.092689 -174.4 0.995679 -84.25 0.995679 -84.25 0.092689 -174.1
8.68700000 0.092759 -174.4 0.995673 -84.26 0.995673 -84.26 0.092759 -174.1
8.68710000 0.092830 -174.4 0.995666 -84.26 0.995666 -84.26 0.092830 -174.1
8.68720000 0.092901 -174.4 0.995659 -84.27 0.995659 -84.27 0.092901 -174.1
8.68730000 0.092972 -174.4 0.995653 -84.27 0.995653 -84.27 0.092972 -174.1
8.68740000 0.093043 -174.4 0.995646 -84.28 0.995646 -84.28 0.093043 -174.1
8.68750000 0.093115 -174.4 0.995639 -84.28 0.995639 -84.28 0.093115 -174.1
8.68760000 0.093186 -174.4 0.995633 -84.29 0.995633 -84.29 0.093186 -174.2
8.68770000 0.093258 -174.4 0.995626 -84.29 0.995626 -84.29 0.093258 -174.2
8.68780000 0.093330 -174.4 0.995619 -84.30 0.995619 -84.30 0.093329 -174.2
8.68790000 0.093401 -174.5 0.995612 -84.30 0.995612 -84.30 0.093401 -174.2
8.68800000 0.093473 -174.5 0.995606 -84.31 0.995606 -84.31 0.093473 -174.2
8.68810000 0.093545 -174.5 0.995599 -84.31 0.995599 -84.31 0.093545 -174.2
8.68820000 0.093618 -174.5 0.995592 -84.32 0.995592 -84.32 0.093617 -174.2
8.68830000 0.093690 -174.5 0.995585 -84.32 0.995585 -84.32 0.093690 -174.2
8.68840000 0.093762 -174.5 0.995578 -84.33 0.995578 -84.33 0.093762 -174.2
8.68850000 0.093835 -174.5 0.995571 -84.33 0.995571 -84.33 0.093835 -174.2
8.68860000 0.093908 -174.5 0.995565 -84.34 0.995565 -84.34 0.093908 -174.2
8.68870000 0.093980 -174.5 0.995558 -84.34 0.995558 -84.34 0.093980 -174.2
8.68880000 0.094053 -174.5 0.995551 -84.35 0.995551 -84.35 0.094053 -174.2
8.68890000 0.094126 -174.5 0.995544 -84.35 0.995544 -84.35 0.094126 -174.2
8.68900000 0.094200 -174.5 0.995537 -84.36 0.995537 -84.36 0.094200 -174.2
8.68910000 0.094273 -174.5 0.995530 -84.36 0.995530 -84.36 0.094273 -174.2
8.68920000 0.094347 -174.5 0.995523 -84.37 0.995523 -84.37 0.094346 -174.2