! Sonnet Data File
! From: emgraph Version : 16.52
! From Emgraph Data: transmon_trial
! Data File Written: 10/20/2017 14:29:51
!< HDATE 10/20/2017 14:13:03
!< MDATE 10/20/2017 14:13:03
!< PARAMS
!< Lj = 15.24
!< Gap = 6.0
!< Width = 10.0
!< Pwidth = 2000.0
!< END PARAMS
# GHZ S MA R 51.00000
8.75000000 0.099681 -178.3 0.994966 -88.63 0.994966 -88.63 0.099681 -179.0
!< P1 F=8.75 Eeff=(6.44679771 -2.9786e-5) Z0=(51.799172 1.19069e-4) R=0.0 C=0.0 
!< P2 F=8.75 Eeff=(6.44679771 -2.9786e-5) Z0=(51.799172 1.19069e-4) R=0.0 C=0.0 
8.75005000 0.099823 -178.3 0.994951 -88.64 0.994951 -88.64 0.099823 -179.1
8.75010000 0.099965 -178.3 0.994937 -88.65 0.994937 -88.65 0.099965 -179.1
8.75015000 0.100107 -178.3 0.994922 -88.66 0.994922 -88.66 0.100107 -179.1
8.75020000 0.100250 -178.3 0.994908 -88.67 0.994908 -88.67 0.100250 -179.1
8.75025000 0.100393 -178.3 0.994893 -88.67 0.994893 -88.67 0.100393 -179.1
8.75030000 0.100536 -178.3 0.994879 -88.68 0.994879 -88.68 0.100536 -179.1
8.75035000 0.100679 -178.3 0.994864 -88.69 0.994864 -88.69 0.100679 -179.1
8.75040000 0.100823 -178.4 0.994850 -88.70 0.994850 -88.70 0.100823 -179.1
8.75045000 0.100967 -178.4 0.994835 -88.71 0.994835 -88.71 0.100967 -179.1
8.75050000 0.101111 -178.4 0.994820 -88.72 0.994820 -88.72 0.101111 -179.1
8.75055000 0.101256 -178.4 0.994805 -88.73 0.994805 -88.73 0.101256 -179.1
8.75060000 0.101401 -178.4 0.994791 -88.74 0.994791 -88.74 0.101401 -179.1
8.75065000 0.101546 -178.4 0.994776 -88.74 0.994776 -88.74 0.101546 -179.2
8.75070000 0.101691 -178.4 0.994761 -88.75 0.994761 -88.75 0.101692 -179.2
8.75075000 0.101837 -178.4 0.994746 -88.76 0.994746 -88.76 0.101837 -179.2
8.75080000 0.101983 -178.4 0.994731 -88.77 0.994731 -88.77 0.101983 -179.2
8.75085000 0.102130 -178.4 0.994715 -88.78 0.994715 -88.78 0.102130 -179.2
8.75090000 0.102276 -178.4 0.994700 -88.79 0.994700 -88.79 0.102276 -179.2
8.75095000 0.102423 -178.4 0.994685 -88.80 0.994685 -88.80 0.102423 -179.2
8.75100000 0.102571 -178.5 0.994670 -88.81 0.994670 -88.81 0.102571 -179.2
8.75105000 0.102718 -178.5 0.994654 -88.82 0.994654 -88.82 0.102718 -179.2
8.75110000 0.102866 -178.5 0.994639 -88.82 0.994639 -88.82 0.102866 -179.2
8.75115000 0.103014 -178.5 0.994624 -88.83 0.994624 -88.83 0.103014 -179.2
8.75120000 0.103163 -178.5 0.994608 -88.84 0.994608 -88.84 0.103163 -179.3
8.75125000 0.103311 -178.5 0.994593 -88.85 0.994593 -88.85 0.103312 -179.3
8.75130000 0.103460 -178.5 0.994577 -88.86 0.994577 -88.86 0.103461 -179.3
8.75135000 0.103610 -178.5 0.994561 -88.87 0.994561 -88.87 0.103610 -179.3
8.75140000 0.103760 -178.5 0.994546 -88.88 0.994546 -88.88 0.103760 -179.3
8.75145000 0.103910 -178.5 0.994530 -88.89 0.994530 -88.89 0.103910 -179.3
8.75150000 0.104060 -178.6 0.994514 -88.90 0.994514 -88.90 0.104060 -179.3
8.75155000 0.104210 -178.6 0.994498 -88.91 0.994498 -88.91 0.104211 -179.3
8.75160000 0.104361 -178.6 0.994482 -88.92 0.994482 -88.92 0.104362 -179.3
8.75165000 0.104513 -178.6 0.994466 -88.92 0.994466 -88.92 0.104513 -179.3
8.75170000 0.104664 -178.6 0.994450 -88.93 0.994450 -88.93 0.104664 -179.3
8.75175000 0.104816 -178.6 0.994434 -88.94 0.994434 -88.94 0.104816 -179.4
8.75180000 0.104968 -178.6 0.994418 -88.95 0.994418 -88.95 0.104968 -179.4
8.75185000 0.105121 -178.6 0.994402 -88.96 0.994402 -88.96 0.105121 -179.4
8.75190000 0.105273 -178.6 0.994385 -88.97 0.994385 -88.97 0.105274 -179.4
8.75195000 0.105427 -178.6 0.994369 -88.98 0.994369 -88.98 0.105427 -179.4
8.75200000 0.105580 -178.6 0.994353 -88.99 0.994353 -88.99 0.105580 -179.4
8.75205000 0.105734 -178.7 0.994336 -89.00 0.994336 -89.00 0.105734 -179.4
8.75210000 0.105888 -178.7 0.994320 -89.01 0.994320 -89.01 0.105888 -179.4
8.75215000 0.106042 -178.7 0.994303 -89.02 0.994303 -89.02 0.106042 -179.4
8.75220000 0.106197 -178.7 0.994286 -89.03 0.994286 -89.03 0.106197 -179.4
8.75225000 0.106352 -178.7 0.994270 -89.04 0.994270 -89.04 0.106352 -179.4
8.75230000 0.106507 -178.7 0.994253 -89.05 0.994253 -89.05 0.106508 -179.5
8.75235000 0.106663 -178.7 0.994236 -89.06 0.994236 -89.06 0.106663 -179.5
8.75240000 0.106819 -178.7 0.994219 -89.06 0.994219 -89.06 0.106819 -179.5
8.75245000 0.106975 -178.7 0.994202 -89.07 0.994202 -89.07 0.106976 -179.5
8.75250000 0.107132 -178.7 0.994185 -89.08 0.994185 -89.08 0.107132 -179.5
8.75255000 0.107289 -178.7 0.994168 -89.09 0.994168 -89.09 0.107289 -179.5
8.75260000 0.107446 -178.8 0.994151 -89.10 0.994151 -89.10 0.107447 -179.5
8.75265000 0.107604 -178.8 0.994134 -89.11 0.994134 -89.11 0.107604 -179.5
8.75270000 0.107762 -178.8 0.994117 -89.12 0.994117 -89.12 0.107762 -179.5
8.75275000 0.107920 -178.8 0.994100 -89.13 0.994100 -89.13 0.107921 -179.5
8.75280000 0.108079 -178.8 0.994082 -89.14 0.994082 -89.14 0.108079 -179.5
8.75285000 0.108238 -178.8 0.994065 -89.15 0.994065 -89.15 0.108238 -179.6
8.75290000 0.108397 -178.8 0.994047 -89.16 0.994047 -89.16 0.108397 -179.6
8.75295000 0.108557 -178.8 0.994030 -89.17 0.994030 -89.17 0.108557 -179.6
8.75300000 0.108717 -178.8 0.994012 -89.18 0.994012 -89.18 0.108717 -179.6
8.75305000 0.108877 -178.8 0.993994 -89.19 0.993994 -89.19 0.108877 -179.6
8.75310000 0.109038 -178.9 0.993977 -89.20 0.993977 -89.20 0.109038 -179.6
8.75315000 0.109199 -178.9 0.993959 -89.21 0.993959 -89.21 0.109199 -179.6
8.75320000 0.109360 -178.9 0.993941 -89.22 0.993941 -89.22 0.109361 -179.6
8.75325000 0.109522 -178.9 0.993923 -89.23 0.993923 -89.23 0.109522 -179.6
8.75330000 0.109684 -178.9 0.993905 -89.24 0.993905 -89.24 0.109684 -179.6
8.75335000 0.109847 -178.9 0.993887 -89.25 0.993887 -89.25 0.109847 -179.7
8.75340000 0.110009 -178.9 0.993869 -89.26 0.993869 -89.26 0.110009 -179.7
8.75345000 0.110172 -178.9 0.993851 -89.27 0.993851 -89.27 0.110173 -179.7
8.75350000 0.110336 -178.9 0.993832 -89.28 0.993832 -89.28 0.110336 -179.7
8.75355000 0.110500 -178.9 0.993814 -89.29 0.993814 -89.29 0.110500 -179.7
8.75360000 0.110664 -179.0 0.993796 -89.30 0.993796 -89.30 0.110664 -179.7
8.75365000 0.110828 -179.0 0.993777 -89.31 0.993777 -89.31 0.110828 -179.7
8.75370000 0.110993 -179.0 0.993759 -89.32 0.993759 -89.32 0.110993 -179.7
8.75375000 0.111158 -179.0 0.993740 -89.33 0.993740 -89.33 0.111158 -179.7
8.75380000 0.111324 -179.0 0.993722 -89.34 0.993722 -89.34 0.111324 -179.7
8.75385000 0.111490 -179.0 0.993703 -89.35 0.993703 -89.35 0.111490 -179.8
8.75390000 0.111656 -179.0 0.993684 -89.36 0.993684 -89.36 0.111656 -179.8
8.75395000 0.111823 -179.0 0.993665 -89.37 0.993665 -89.37 0.111823 -179.8
8.75400000 0.111990 -179.0 0.993646 -89.38 0.993646 -89.38 0.111990 -179.8
8.75405000 0.112157 -179.0 0.993627 -89.39 0.993627 -89.39 0.112157 -179.8
8.75410000 0.112325 -179.1 0.993608 -89.40 0.993608 -89.40 0.112325 -179.8
8.75415000 0.112493 -179.1 0.993589 -89.41 0.993589 -89.41 0.112493 -179.8
8.75420000 0.112661 -179.1 0.993570 -89.42 0.993570 -89.42 0.112661 -179.8
8.75425000 0.112830 -179.1 0.993550 -89.43 0.993550 -89.43 0.112830 -179.8
8.75430000 0.112999 -179.1 0.993531 -89.44 0.993531 -89.44 0.112999 -179.8
8.75435000 0.113169 -179.1 0.993512 -89.45 0.993512 -89.45 0.113169 -179.9
8.75440000 0.113339 -179.1 0.993492 -89.46 0.993492 -89.46 0.113339 -179.9
8.75445000 0.113509 -179.1 0.993473 -89.47 0.993473 -89.47 0.113509 -179.9
8.75450000 0.113680 -179.1 0.993453 -89.48 0.993453 -89.48 0.113680 -179.9
8.75455000 0.113851 -179.2 0.993433 -89.49 0.993433 -89.49 0.113851 -179.9
8.75460000 0.114022 -179.2 0.993413 -89.50 0.993413 -89.50 0.114022 -179.9
8.75465000 0.114194 -179.2 0.993394 -89.51 0.993394 -89.51 0.114194 -179.9
8.75470000 0.114366 -179.2 0.993374 -89.52 0.993374 -89.52 0.114366 -179.9
8.75475000 0.114538 -179.2 0.993354 -89.53 0.993354 -89.53 0.114539 -179.9
8.75480000 0.114711 -179.2 0.993334 -89.54 0.993334 -89.54 0.114711 -179.9
8.75485000 0.114885 -179.2 0.993313 -89.55 0.993313 -89.55 0.114885 -180.0
8.75490000 0.115058 -179.2 0.993293 -89.56 0.993293 -89.56 0.115058 -180.0
8.75495000 0.115232 -179.2 0.993273 -89.57 0.993273 -89.57 0.115232 -180.0
8.75500000 0.115407 -179.2 0.993252 -89.58 0.993252 -89.58 0.115407 -180.0
8.75505000 0.115582 -179.3 0.993232 -89.59 0.993232 -89.59 0.115582 -180.0
8.75510000 0.115757 -179.3 0.993211 -89.61 0.993211 -89.61 0.115757 179.99
8.75515000 0.115932 -179.3 0.993191 -89.62 0.993191 -89.62 0.115933 179.98
8.75520000 0.116108 -179.3 0.993170 -89.63 0.993170 -89.63 0.116108 179.97
8.75525000 0.116285 -179.3 0.993149 -89.64 0.993149 -89.64 0.116285 179.96
8.75530000 0.116461 -179.3 0.993128 -89.65 0.993128 -89.65 0.116462 179.95
8.75535000 0.116639 -179.3 0.993108 -89.66 0.993108 -89.66 0.116639 179.94
8.75540000 0.116816 -179.3 0.993087 -89.67 0.993087 -89.67 0.116816 179.93
8.75545000 0.116994 -179.3 0.993065 -89.68 0.993065 -89.68 0.116994 179.92
8.75550000 0.117172 -179.4 0.993044 -89.69 0.993044 -89.69 0.117173 179.91
8.75555000 0.117351 -179.4 0.993023 -89.70 0.993023 -89.70 0.117351 179.90
8.75560000 0.117530 -179.4 0.993002 -89.71 0.993002 -89.71 0.117531 179.89
8.75565000 0.117710 -179.4 0.992980 -89.72 0.992980 -89.72 0.117710 179.87
8.75570000 0.117890 -179.4 0.992959 -89.73 0.992959 -89.73 0.117890 179.86
8.75575000 0.118070 -179.4 0.992937 -89.74 0.992937 -89.74 0.118070 179.85
8.75580000 0.118251 -179.4 0.992916 -89.76 0.992916 -89.76 0.118251 179.84
8.75585000 0.118432 -179.4 0.992894 -89.77 0.992894 -89.77 0.118432 179.83
8.75590000 0.118614 -179.4 0.992872 -89.78 0.992872 -89.78 0.118614 179.82
8.75595000 0.118796 -179.5 0.992850 -89.79 0.992850 -89.79 0.118796 179.81
8.75600000 0.118978 -179.5 0.992828 -89.80 0.992828 -89.80 0.118978 179.80
8.75605000 0.119161 -179.5 0.992806 -89.81 0.992806 -89.81 0.119161 179.79
8.75610000 0.119344 -179.5 0.992784 -89.82 0.992784 -89.82 0.119344 179.78
8.75615000 0.119528 -179.5 0.992762 -89.83 0.992762 -89.83 0.119528 179.77
8.75620000 0.119712 -179.5 0.992739 -89.84 0.992739 -89.84 0.119712 179.75
8.75625000 0.119896 -179.5 0.992717 -89.85 0.992717 -89.85 0.119896 179.74
8.75630000 0.120081 -179.5 0.992694 -89.87 0.992694 -89.87 0.120081 179.73
8.75635000 0.120266 -179.5 0.992672 -89.88 0.992672 -89.88 0.120266 179.72
8.75640000 0.120452 -179.6 0.992649 -89.89 0.992649 -89.89 0.120452 179.71
8.75645000 0.120638 -179.6 0.992626 -89.90 0.992626 -89.90 0.120638 179.70
8.75650000 0.120825 -179.6 0.992604 -89.91 0.992604 -89.91 0.120825 179.69
8.75655000 0.121012 -179.6 0.992581 -89.92 0.992581 -89.92 0.121012 179.68
8.75660000 0.121199 -179.6 0.992558 -89.93 0.992558 -89.93 0.121199 179.67
8.75665000 0.121387 -179.6 0.992534 -89.94 0.992534 -89.94 0.121387 179.65
8.75670000 0.121575 -179.6 0.992511 -89.96 0.992511 -89.96 0.121575 179.64
8.75675000 0.121764 -179.6 0.992488 -89.97 0.992488 -89.97 0.121764 179.63
8.75680000 0.121953 -179.6 0.992465 -89.98 0.992465 -89.98 0.121953 179.62
8.75685000 0.122143 -179.7 0.992441 -89.99 0.992441 -89.99 0.122143 179.61
8.75690000 0.122333 -179.7 0.992418 -90.00 0.992418 -90.00 0.122333 179.60
8.75695000 0.122523 -179.7 0.992394 -90.01 0.992394 -90.01 0.122523 179.59
8.75700000 0.122714 -179.7 0.992370 -90.02 0.992370 -90.02 0.122714 179.57
8.75705000 0.122905 -179.7 0.992346 -90.04 0.992346 -90.04 0.122905 179.56
8.75710000 0.123097 -179.7 0.992322 -90.05 0.992322 -90.05 0.123097 179.55
8.75715000 0.123289 -179.7 0.992298 -90.06 0.992298 -90.06 0.123289 179.54
8.75720000 0.123482 -179.7 0.992274 -90.07 0.992274 -90.07 0.123482 179.53
8.75725000 0.123675 -179.7 0.992250 -90.08 0.992250 -90.08 0.123675 179.52
8.75730000 0.123869 -179.8 0.992226 -90.09 0.992226 -90.09 0.123869 179.51
8.75735000 0.124063 -179.8 0.992201 -90.11 0.992201 -90.11 0.124063 179.49
8.75740000 0.124257 -179.8 0.992177 -90.12 0.992177 -90.12 0.124257 179.48
8.75745000 0.124452 -179.8 0.992152 -90.13 0.992152 -90.13 0.124452 179.47
8.75750000 0.124647 -179.8 0.992128 -90.14 0.992128 -90.14 0.124647 179.46
8.75755000 0.124843 -179.8 0.992103 -90.15 0.992103 -90.15 0.124843 179.45
8.75760000 0.125039 -179.8 0.992078 -90.16 0.992078 -90.16 0.125039 179.44
8.75765000 0.125236 -179.8 0.992053 -90.18 0.992053 -90.18 0.125236 179.42
8.75770000 0.125433 -179.9 0.992028 -90.19 0.992028 -90.19 0.125433 179.41
8.75775000 0.125631 -179.9 0.992003 -90.20 0.992003 -90.20 0.125631 179.40
8.75780000 0.125829 -179.9 0.991977 -90.21 0.991977 -90.21 0.125829 179.39
8.75785000 0.126028 -179.9 0.991952 -90.22 0.991952 -90.22 0.126028 179.38
8.75790000 0.126227 -179.9 0.991927 -90.24 0.991927 -90.24 0.126227 179.36
8.75795000 0.126426 -179.9 0.991901 -90.25 0.991901 -90.25 0.126426 179.35
8.75800000 0.126626 -179.9 0.991875 -90.26 0.991875 -90.26 0.126626 179.34
8.75805000 0.126826 -179.9 0.991849 -90.27 0.991849 -90.27 0.126827 179.33
8.75810000 0.127027 -180.0 0.991824 -90.28 0.991824 -90.28 0.127028 179.32
8.75815000 0.127229 -180.0 0.991798 -90.30 0.991798 -90.30 0.127229 179.30
8.75820000 0.127431 -180.0 0.991772 -90.31 0.991772 -90.31 0.127431 179.29
8.75825000 0.127633 -180.0 0.991745 -90.32 0.991745 -90.32 0.127633 179.28
8.75830000 0.127836 180.00 0.991719 -90.33 0.991719 -90.33 0.127836 179.27
8.75835000 0.128039 179.99 0.991693 -90.34 0.991693 -90.34 0.128039 179.26
8.75840000 0.128243 179.97 0.991666 -90.36 0.991666 -90.36 0.128243 179.24
8.75845000 0.128447 179.96 0.991639 -90.37 0.991639 -90.37 0.128447 179.23
8.75850000 0.128652 179.95 0.991613 -90.38 0.991613 -90.38 0.128652 179.22
8.75855000 0.128857 179.94 0.991586 -90.39 0.991586 -90.39 0.128857 179.21
8.75860000 0.129063 179.92 0.991559 -90.41 0.991559 -90.41 0.129063 179.20
8.75865000 0.129269 179.91 0.991532 -90.42 0.991532 -90.42 0.129269 179.18
8.75870000 0.129476 179.90 0.991505 -90.43 0.991505 -90.43 0.129476 179.17
8.75875000 0.129683 179.89 0.991478 -90.44 0.991478 -90.44 0.129683 179.16
8.75880000 0.129891 179.87 0.991450 -90.46 0.991450 -90.46 0.129891 179.15
8.75885000 0.130099 179.86 0.991423 -90.47 0.991423 -90.47 0.130099 179.13
8.75890000 0.130308 179.85 0.991395 -90.48 0.991395 -90.48 0.130308 179.12
8.75895000 0.130517 179.84 0.991367 -90.49 0.991367 -90.49 0.130517 179.11
8.75900000 0.130727 179.82 0.991340 -90.51 0.991340 -90.51 0.130727 179.10
8.75905000 0.130937 179.81 0.991312 -90.52 0.991312 -90.52 0.130937 179.08
8.75910000 0.131148 179.80 0.991284 -90.53 0.991284 -90.53 0.131148 179.07
8.75915000 0.131359 179.79 0.991255 -90.54 0.991255 -90.54 0.131359 179.06
8.75920000 0.131571 179.77 0.991227 -90.56 0.991227 -90.56 0.131571 179.05
8.75925000 0.131783 179.76 0.991199 -90.57 0.991199 -90.57 0.131783 179.03
8.75930000 0.131996 179.75 0.991170 -90.58 0.991170 -90.58 0.131996 179.02
8.75935000 0.132209 179.73 0.991142 -90.60 0.991142 -90.60 0.132209 179.01
8.75940000 0.132423 179.72 0.991113 -90.61 0.991113 -90.61 0.132423 178.99
8.75945000 0.132637 179.71 0.991084 -90.62 0.991084 -90.62 0.132638 178.98
8.75950000 0.132852 179.69 0.991055 -90.63 0.991055 -90.63 0.132852 178.97
8.75955000 0.133068 179.68 0.991026 -90.65 0.991026 -90.65 0.133068 178.96
8.75960000 0.133284 179.67 0.990997 -90.66 0.990997 -90.66 0.133284 178.94
8.75965000 0.133500 179.66 0.990967 -90.67 0.990967 -90.67 0.133500 178.93
8.75970000 0.133717 179.64 0.990938 -90.69 0.990938 -90.69 0.133717 178.92
8.75975000 0.133934 179.63 0.990908 -90.70 0.990908 -90.70 0.133935 178.90
8.75980000 0.134153 179.62 0.990879 -90.71 0.990879 -90.71 0.134153 178.89
8.75985000 0.134371 179.60 0.990849 -90.72 0.990849 -90.72 0.134371 178.88
8.75990000 0.134590 179.59 0.990819 -90.74 0.990819 -90.74 0.134590 178.87
8.75995000 0.134810 179.58 0.990789 -90.75 0.990789 -90.75 0.134810 178.85
8.76000000 0.135030 179.56 0.990759 -90.76 0.990759 -90.76 0.135030 178.84
8.76005000 0.135251 179.55 0.990728 -90.78 0.990728 -90.78 0.135251 178.83
8.76010000 0.135472 179.54 0.990698 -90.79 0.990698 -90.79 0.135472 178.81
8.76015000 0.135694 179.52 0.990667 -90.80 0.990667 -90.80 0.135694 178.80
8.76020000 0.135916 179.51 0.990637 -90.82 0.990637 -90.82 0.135916 178.79
8.76025000 0.136139 179.50 0.990606 -90.83 0.990606 -90.83 0.136139 178.77
8.76030000 0.136363 179.48 0.990575 -90.84 0.990575 -90.84 0.136363 178.76
8.76035000 0.136587 179.47 0.990544 -90.86 0.990544 -90.86 0.136587 178.75
8.76040000 0.136811 179.46 0.990513 -90.87 0.990513 -90.87 0.136812 178.73
8.76045000 0.137037 179.44 0.990481 -90.88 0.990481 -90.88 0.137037 178.72
8.76050000 0.137262 179.43 0.990450 -90.90 0.990450 -90.90 0.137262 178.71
8.76055000 0.137489 179.41 0.990418 -90.91 0.990418 -90.91 0.137489 178.69
8.76060000 0.137715 179.40 0.990387 -90.93 0.990387 -90.93 0.137716 178.68
8.76065000 0.137943 179.39 0.990355 -90.94 0.990355 -90.94 0.137943 178.67
8.76070000 0.138171 179.37 0.990323 -90.95 0.990323 -90.95 0.138171 178.65
8.76075000 0.138399 179.36 0.990291 -90.97 0.990291 -90.97 0.138400 178.64
8.76080000 0.138628 179.35 0.990258 -90.98 0.990258 -90.98 0.138629 178.62
8.76085000 0.138858 179.33 0.990226 -90.99 0.990226 -90.99 0.138858 178.61
8.76090000 0.139088 179.32 0.990193 -91.01 0.990193 -91.01 0.139089 178.60
8.76095000 0.139319 179.30 0.990161 -91.02 0.990161 -91.02 0.139320 178.58
8.76100000 0.139551 179.29 0.990128 -91.04 0.990128 -91.04 0.139551 178.57
8.76105000 0.139783 179.28 0.990095 -91.05 0.990095 -91.05 0.139783 178.56
8.76110000 0.140015 179.26 0.990062 -91.06 0.990062 -91.06 0.140016 178.54
8.76115000 0.140249 179.25 0.990029 -91.08 0.990029 -91.08 0.140249 178.53
8.76120000 0.140482 179.23 0.989995 -91.09 0.989995 -91.09 0.140483 178.51
8.76125000 0.140717 179.22 0.989962 -91.11 0.989962 -91.11 0.140717 178.50
8.76130000 0.140952 179.21 0.989928 -91.12 0.989928 -91.12 0.140952 178.49
8.76135000 0.141187 179.19 0.989894 -91.13 0.989894 -91.13 0.141188 178.47
8.76140000 0.141424 179.18 0.989861 -91.15 0.989861 -91.15 0.141424 178.46
8.76145000 0.141660 179.16 0.989826 -91.16 0.989826 -91.16 0.141661 178.44
8.76150000 0.141898 179.15 0.989792 -91.18 0.989792 -91.18 0.141898 178.43
8.76155000 0.142136 179.13 0.989758 -91.19 0.989758 -91.19 0.142136 178.41
8.76160000 0.142375 179.12 0.989723 -91.20 0.989723 -91.20 0.142375 178.40
8.76165000 0.142614 179.11 0.989689 -91.22 0.989689 -91.22 0.142614 178.39
8.76170000 0.142854 179.09 0.989654 -91.23 0.989654 -91.23 0.142854 178.37
8.76175000 0.143094 179.08 0.989619 -91.25 0.989619 -91.25 0.143094 178.36
8.76180000 0.143335 179.06 0.989584 -91.26 0.989584 -91.26 0.143335 178.34
8.76185000 0.143577 179.05 0.989548 -91.28 0.989548 -91.28 0.143577 178.33
8.76190000 0.143819 179.03 0.989513 -91.29 0.989513 -91.29 0.143819 178.31
8.76195000 0.144062 179.02 0.989477 -91.31 0.989477 -91.31 0.144062 178.30
8.76200000 0.144306 179.00 0.989442 -91.32 0.989442 -91.32 0.144306 178.29
8.76205000 0.144550 178.99 0.989406 -91.33 0.989406 -91.33 0.144550 178.27
8.76210000 0.144795 178.97 0.989370 -91.35 0.989370 -91.35 0.144795 178.26
8.76215000 0.145040 178.96 0.989334 -91.36 0.989334 -91.36 0.145040 178.24
8.76220000 0.145286 178.94 0.989297 -91.38 0.989297 -91.38 0.145287 178.23
8.76225000 0.145533 178.93 0.989261 -91.39 0.989261 -91.39 0.145533 178.21
8.76230000 0.145781 178.91 0.989224 -91.41 0.989224 -91.41 0.145781 178.20
8.76235000 0.146029 178.90 0.989187 -91.42 0.989187 -91.42 0.146029 178.18
8.76240000 0.146277 178.88 0.989150 -91.44 0.989150 -91.44 0.146277 178.17
8.76245000 0.146527 178.87 0.989113 -91.45 0.989113 -91.45 0.146527 178.15
8.76250000 0.146777 178.85 0.989076 -91.47 0.989076 -91.47 0.146777 178.14
8.76255000 0.147027 178.84 0.989038 -91.48 0.989038 -91.48 0.147027 178.12
8.76260000 0.147279 178.82 0.989001 -91.50 0.989001 -91.50 0.147279 178.11
8.76265000 0.147531 178.81 0.988963 -91.51 0.988963 -91.51 0.147531 178.09
8.76270000 0.147783 178.79 0.988925 -91.53 0.988925 -91.53 0.147783 178.08
8.76275000 0.148036 178.78 0.988887 -91.54 0.988887 -91.54 0.148037 178.06
8.76280000 0.148290 178.76 0.988849 -91.56 0.988849 -91.56 0.148291 178.05
8.76285000 0.148545 178.75 0.988810 -91.57 0.988810 -91.57 0.148545 178.03
8.76290000 0.148800 178.73 0.988771 -91.59 0.988771 -91.59 0.148801 178.02
8.76295000 0.149056 178.72 0.988733 -91.60 0.988733 -91.60 0.149057 178.00
8.76300000 0.149313 178.70 0.988694 -91.62 0.988694 -91.62 0.149313 177.99
8.76305000 0.149570 178.69 0.988655 -91.63 0.988655 -91.63 0.149571 177.97
8.76310000 0.149828 178.67 0.988615 -91.65 0.988615 -91.65 0.149829 177.96
8.76315000 0.150087 178.65 0.988576 -91.67 0.988576 -91.67 0.150087 177.94
8.76320000 0.150346 178.64 0.988536 -91.68 0.988536 -91.68 0.150347 177.93
8.76325000 0.150607 178.62 0.988496 -91.70 0.988496 -91.70 0.150607 177.91
8.76330000 0.150867 178.61 0.988456 -91.71 0.988456 -91.71 0.150868 177.89
8.76335000 0.151129 178.59 0.988416 -91.73 0.988416 -91.73 0.151129 177.88
8.76340000 0.151391 178.58 0.988376 -91.74 0.988376 -91.74 0.151391 177.86
8.76345000 0.151654 178.56 0.988335 -91.76 0.988335 -91.76 0.151654 177.85
8.76350000 0.151918 178.54 0.988294 -91.77 0.988294 -91.77 0.151918 177.83
8.76355000 0.152182 178.53 0.988253 -91.79 0.988253 -91.79 0.152182 177.82
8.76360000 0.152447 178.51 0.988212 -91.81 0.988212 -91.81 0.152447 177.80
8.76365000 0.152713 178.50 0.988171 -91.82 0.988171 -91.82 0.152713 177.78
8.76370000 0.152979 178.48 0.988130 -91.84 0.988130 -91.84 0.152979 177.77
8.76375000 0.153246 178.46 0.988088 -91.85 0.988088 -91.85 0.153246 177.75
8.76380000 0.153514 178.45 0.988046 -91.87 0.988046 -91.87 0.153514 177.74
8.76385000 0.153783 178.43 0.988004 -91.89 0.988004 -91.89 0.153783 177.72
8.76390000 0.154052 178.42 0.987962 -91.90 0.987962 -91.90 0.154052 177.70
8.76395000 0.154322 178.40 0.987919 -91.92 0.987919 -91.92 0.154322 177.69
8.76400000 0.154593 178.38 0.987877 -91.93 0.987877 -91.93 0.154593 177.67
8.76405000 0.154864 178.37 0.987834 -91.95 0.987834 -91.95 0.154865 177.66
8.76410000 0.155137 178.35 0.987791 -91.97 0.987791 -91.97 0.155137 177.64
8.76415000 0.155410 178.33 0.987748 -91.98 0.987748 -91.98 0.155410 177.62
8.76420000 0.155684 178.32 0.987704 -92.00 0.987704 -92.00 0.155684 177.61
8.76425000 0.155958 178.30 0.987661 -92.02 0.987661 -92.02 0.155958 177.59
8.76430000 0.156233 178.28 0.987617 -92.03 0.987617 -92.03 0.156234 177.57
8.76435000 0.156509 178.27 0.987573 -92.05 0.987573 -92.05 0.156510 177.56
8.76440000 0.156786 178.25 0.987529 -92.07 0.987529 -92.07 0.156786 177.54
8.76445000 0.157064 178.23 0.987484 -92.08 0.987484 -92.08 0.157064 177.53
8.76450000 0.157342 178.22 0.987440 -92.10 0.987440 -92.10 0.157342 177.51
8.76455000 0.157621 178.20 0.987395 -92.12 0.987395 -92.12 0.157621 177.49
8.76460000 0.157901 178.18 0.987350 -92.13 0.987350 -92.13 0.157901 177.48
8.76465000 0.158182 178.17 0.987305 -92.15 0.987305 -92.15 0.158182 177.46
8.76470000 0.158463 178.15 0.987259 -92.17 0.987259 -92.17 0.158463 177.44
8.76475000 0.158745 178.13 0.987214 -92.18 0.987214 -92.18 0.158745 177.43
8.76480000 0.159028 178.12 0.987168 -92.20 0.987168 -92.20 0.159028 177.41
8.76485000 0.159312 178.10 0.987122 -92.22 0.987122 -92.22 0.159312 177.39
8.76490000 0.159596 178.08 0.987076 -92.23 0.987076 -92.23 0.159597 177.37
8.76495000 0.159882 178.07 0.987029 -92.25 0.987029 -92.25 0.159882 177.36
8.76500000 0.160168 178.05 0.986982 -92.27 0.986982 -92.27 0.160168 177.34
8.76505000 0.160455 178.03 0.986936 -92.28 0.986936 -92.28 0.160455 177.32
8.76510000 0.160743 178.01 0.986888 -92.30 0.986888 -92.30 0.160743 177.31
8.76515000 0.161031 178.00 0.986841 -92.32 0.986841 -92.32 0.161031 177.29
8.76520000 0.161320 177.98 0.986794 -92.34 0.986794 -92.34 0.161321 177.27
8.76525000 0.161611 177.96 0.986746 -92.35 0.986746 -92.35 0.161611 177.25
8.76530000 0.161902 177.94 0.986698 -92.37 0.986698 -92.37 0.161902 177.24
8.76535000 0.162193 177.93 0.986650 -92.39 0.986650 -92.39 0.162194 177.22
8.76540000 0.162486 177.91 0.986601 -92.41 0.986601 -92.41 0.162486 177.20
8.76545000 0.162779 177.89 0.986552 -92.42 0.986552 -92.42 0.162780 177.19
8.76550000 0.163074 177.87 0.986504 -92.44 0.986504 -92.44 0.163074 177.17
8.76555000 0.163369 177.86 0.986454 -92.46 0.986454 -92.46 0.163369 177.15
8.76560000 0.163665 177.84 0.986405 -92.48 0.986405 -92.48 0.163665 177.13
8.76565000 0.163961 177.82 0.986355 -92.49 0.986355 -92.49 0.163962 177.11
8.76570000 0.164259 177.80 0.986306 -92.51 0.986306 -92.51 0.164259 177.10
8.76575000 0.164558 177.78 0.986256 -92.53 0.986256 -92.53 0.164558 177.08
8.76580000 0.164857 177.77 0.986205 -92.55 0.986205 -92.55 0.164857 177.06
8.76585000 0.165157 177.75 0.986155 -92.57 0.986155 -92.57 0.165157 177.04
8.76590000 0.165458 177.73 0.986104 -92.58 0.986104 -92.58 0.165458 177.03
8.76595000 0.165760 177.71 0.986053 -92.60 0.986053 -92.60 0.165760 177.01
8.76600000 0.166063 177.69 0.986002 -92.62 0.986002 -92.62 0.166063 176.99
8.76605000 0.166366 177.68 0.985950 -92.64 0.985950 -92.64 0.166366 176.97
8.76610000 0.166671 177.66 0.985898 -92.66 0.985898 -92.66 0.166671 176.95
8.76615000 0.166976 177.64 0.985846 -92.67 0.985846 -92.67 0.166976 176.94
8.76620000 0.167282 177.62 0.985794 -92.69 0.985794 -92.69 0.167283 176.92
8.76625000 0.167590 177.60 0.985742 -92.71 0.985742 -92.71 0.167590 176.90
8.76630000 0.167898 177.58 0.985689 -92.73 0.985689 -92.73 0.167898 176.88
8.76635000 0.168206 177.57 0.985636 -92.75 0.985636 -92.75 0.168207 176.86
8.76640000 0.168516 177.55 0.985583 -92.77 0.985583 -92.77 0.168516 176.84
8.76645000 0.168827 177.53 0.985529 -92.78 0.985529 -92.78 0.168827 176.83
8.76650000 0.169139 177.51 0.985475 -92.80 0.985475 -92.80 0.169139 176.81
8.76655000 0.169451 177.49 0.985421 -92.82 0.985421 -92.82 0.169451 176.79
8.76660000 0.169764 177.47 0.985367 -92.84 0.985367 -92.84 0.169765 176.77
8.76665000 0.170079 177.45 0.985313 -92.86 0.985313 -92.86 0.170079 176.75
8.76670000 0.170394 177.43 0.985258 -92.88 0.985258 -92.88 0.170394 176.73
8.76675000 0.170710 177.42 0.985203 -92.90 0.985203 -92.90 0.170710 176.71
8.76680000 0.171027 177.40 0.985147 -92.92 0.985147 -92.92 0.171027 176.69
8.76685000 0.171345 177.38 0.985092 -92.93 0.985092 -92.93 0.171345 176.68
8.76690000 0.171664 177.36 0.985036 -92.95 0.985036 -92.95 0.171664 176.66
8.76695000 0.171984 177.34 0.984980 -92.97 0.984980 -92.97 0.171984 176.64
8.76700000 0.172305 177.32 0.984923 -92.99 0.984923 -92.99 0.172305 176.62
8.76705000 0.172627 177.30 0.984867 -93.01 0.984867 -93.01 0.172627 176.60
8.76710000 0.172949 177.28 0.984810 -93.03 0.984810 -93.03 0.172950 176.58
8.76715000 0.173273 177.26 0.984752 -93.05 0.984752 -93.05 0.173273 176.56
8.76720000 0.173598 177.24 0.984695 -93.07 0.984695 -93.07 0.173598 176.54
8.76725000 0.173923 177.22 0.984637 -93.09 0.984637 -93.09 0.173923 176.52
8.76730000 0.174250 177.20 0.984579 -93.11 0.984579 -93.11 0.174250 176.50
8.76735000 0.174577 177.18 0.984521 -93.13 0.984521 -93.13 0.174578 176.48
8.76740000 0.174906 177.16 0.984462 -93.15 0.984462 -93.15 0.174906 176.46
8.76745000 0.175235 177.14 0.984403 -93.17 0.984403 -93.17 0.175236 176.44
8.76750000 0.175566 177.12 0.984344 -93.19 0.984344 -93.19 0.175566 176.42
8.76755000 0.175897 177.10 0.984284 -93.21 0.984284 -93.21 0.175897 176.40
8.76760000 0.176230 177.08 0.984224 -93.23 0.984224 -93.23 0.176230 176.38
8.76765000 0.176563 177.06 0.984164 -93.25 0.984164 -93.25 0.176563 176.36
8.76770000 0.176898 177.04 0.984104 -93.27 0.984104 -93.27 0.176898 176.34
8.76775000 0.177233 177.02 0.984043 -93.29 0.984043 -93.29 0.177233 176.32
8.76780000 0.177569 177.00 0.983982 -93.31 0.983982 -93.31 0.177570 176.30
8.76785000 0.177907 176.98 0.983921 -93.33 0.983921 -93.33 0.177907 176.28
8.76790000 0.178245 176.96 0.983859 -93.35 0.983859 -93.35 0.178246 176.26
8.76795000 0.178585 176.94 0.983797 -93.37 0.983797 -93.37 0.178585 176.24
8.76800000 0.178925 176.92 0.983735 -93.39 0.983735 -93.39 0.178926 176.22
8.76805000 0.179267 176.90 0.983672 -93.41 0.983672 -93.41 0.179267 176.20
8.76810000 0.179610 176.88 0.983609 -93.43 0.983609 -93.43 0.179610 176.18
8.76815000 0.179953 176.86 0.983546 -93.45 0.983546 -93.45 0.179953 176.16
8.76820000 0.180298 176.84 0.983483 -93.47 0.983483 -93.47 0.180298 176.14
8.76825000 0.180644 176.82 0.983419 -93.49 0.983419 -93.49 0.180644 176.12
8.76830000 0.180990 176.80 0.983355 -93.51 0.983355 -93.51 0.180991 176.10
8.76835000 0.181338 176.78 0.983290 -93.53 0.983290 -93.53 0.181338 176.08
8.76840000 0.181687 176.76 0.983225 -93.55 0.983225 -93.55 0.181687 176.06
8.76845000 0.182037 176.74 0.983160 -93.57 0.983160 -93.57 0.182037 176.04
8.76850000 0.182388 176.71 0.983095 -93.59 0.983095 -93.59 0.182388 176.02
8.76855000 0.182740 176.69 0.983029 -93.61 0.983029 -93.61 0.182740 176.00
8.76860000 0.183093 176.67 0.982963 -93.63 0.982963 -93.63 0.183094 175.98
8.76865000 0.183448 176.65 0.982896 -93.66 0.982896 -93.66 0.183448 175.95
8.76870000 0.183803 176.63 0.982830 -93.68 0.982830 -93.68 0.183803 175.93
8.76875000 0.184160 176.61 0.982762 -93.70 0.982762 -93.70 0.184160 175.91
8.76880000 0.184517 176.59 0.982695 -93.72 0.982695 -93.72 0.184517 175.89
8.76885000 0.184876 176.57 0.982627 -93.74 0.982627 -93.74 0.184876 175.87
8.76890000 0.185236 176.54 0.982559 -93.76 0.982559 -93.76 0.185236 175.85
8.76895000 0.185597 176.52 0.982490 -93.78 0.982490 -93.78 0.185597 175.83
8.76900000 0.185959 176.50 0.982421 -93.81 0.982421 -93.81 0.185959 175.81
8.76905000 0.186322 176.48 0.982352 -93.83 0.982352 -93.83 0.186322 175.78
8.76910000 0.186686 176.46 0.982283 -93.85 0.982283 -93.85 0.186686 175.76
8.76915000 0.187051 176.43 0.982213 -93.87 0.982213 -93.87 0.187052 175.74
8.76920000 0.187418 176.41 0.982142 -93.89 0.982142 -93.89 0.187418 175.72
8.76925000 0.187786 176.39 0.982072 -93.91 0.982072 -93.91 0.187786 175.70
8.76930000 0.188155 176.37 0.982001 -93.94 0.982001 -93.94 0.188155 175.67
8.76935000 0.188525 176.35 0.981929 -93.96 0.981929 -93.96 0.188525 175.65
8.76940000 0.188896 176.32 0.981857 -93.98 0.981857 -93.98 0.188896 175.63
8.76945000 0.189268 176.30 0.981785 -94.00 0.981785 -94.00 0.189268 175.61
8.76950000 0.189642 176.28 0.981713 -94.03 0.981713 -94.03 0.189642 175.59
8.76955000 0.190016 176.26 0.981640 -94.05 0.981640 -94.05 0.190017 175.56
8.76960000 0.190392 176.23 0.981567 -94.07 0.981567 -94.07 0.190393 175.54