! Sonnet Data File
! From: emgraph Version : 16.52
! From Project: transmon_trial
! Data is De-embedded 
! Data File Written: 10/20/2017 09:13:07
!< HDATE 10/19/2017 20:03:37
!< MDATE 10/19/2017 20:10:25
!< PARAMS
!< Lj = 15.24
!< Gap = 16.0
!< Width = 40.0
!< Airgap = 24.0
!< Pwidth = 2000.0
!< END PARAMS
# GHZ S MA R 51.00000
8.65000000 0.019305 -170.6 0.999809 -80.38 0.999809 -80.38 0.019305 -170.2
!< P1 F=8.65 Eeff=(6.44261619 -3.0744e-5) Z0=(50.478933 1.09474e-4) R=0.0 C=0.0 
!< P2 F=8.65 Eeff=(6.44261619 -3.0744e-5) Z0=(50.478933 1.09474e-4) R=0.0 C=0.0 
8.65010000 0.019313 -170.6 0.999809 -80.38 0.999809 -80.38 0.019313 -170.2
8.65020000 0.019321 -170.6 0.999809 -80.38 0.999809 -80.38 0.019321 -170.2
8.65030000 0.019329 -170.6 0.999808 -80.38 0.999808 -80.38 0.019328 -170.2
8.65040000 0.019336 -170.6 0.999808 -80.39 0.999808 -80.39 0.019336 -170.2
8.65050000 0.019344 -170.6 0.999808 -80.39 0.999808 -80.39 0.019344 -170.2
8.65060000 0.019352 -170.6 0.999808 -80.39 0.999808 -80.39 0.019352 -170.2
8.65070000 0.019360 -170.6 0.999808 -80.39 0.999808 -80.39 0.019360 -170.2
8.65080000 0.019368 -170.6 0.999808 -80.39 0.999808 -80.39 0.019368 -170.2
8.65090000 0.019376 -170.6 0.999808 -80.39 0.999808 -80.39 0.019376 -170.2
8.65100000 0.019384 -170.6 0.999807 -80.39 0.999807 -80.39 0.019384 -170.2
8.65110000 0.019392 -170.6 0.999807 -80.40 0.999807 -80.40 0.019391 -170.2
8.65120000 0.019399 -170.6 0.999807 -80.40 0.999807 -80.40 0.019399 -170.2
8.65130000 0.019407 -170.6 0.999807 -80.40 0.999807 -80.40 0.019407 -170.2
8.65140000 0.019415 -170.6 0.999807 -80.40 0.999807 -80.40 0.019415 -170.2
8.65150000 0.019423 -170.6 0.999807 -80.40 0.999807 -80.40 0.019423 -170.2
8.65160000 0.019431 -170.6 0.999806 -80.40 0.999806 -80.40 0.019431 -170.2
8.65170000 0.019439 -170.6 0.999806 -80.40 0.999806 -80.40 0.019439 -170.2
8.65180000 0.019447 -170.6 0.999806 -80.40 0.999806 -80.40 0.019447 -170.2
8.65190000 0.019455 -170.6 0.999806 -80.41 0.999806 -80.41 0.019455 -170.2
8.65200000 0.019463 -170.6 0.999806 -80.41 0.999806 -80.41 0.019463 -170.2
8.65210000 0.019471 -170.6 0.999806 -80.41 0.999806 -80.41 0.019471 -170.2
8.65220000 0.019479 -170.6 0.999806 -80.41 0.999806 -80.41 0.019479 -170.2
8.65230000 0.019487 -170.6 0.999805 -80.41 0.999805 -80.41 0.019487 -170.2
8.65240000 0.019495 -170.6 0.999805 -80.41 0.999805 -80.41 0.019495 -170.2
8.65250000 0.019503 -170.6 0.999805 -80.41 0.999805 -80.41 0.019503 -170.2
8.65260000 0.019511 -170.6 0.999805 -80.42 0.999805 -80.42 0.019511 -170.2
8.65270000 0.019519 -170.6 0.999805 -80.42 0.999805 -80.42 0.019519 -170.2
8.65280000 0.019527 -170.6 0.999805 -80.42 0.999805 -80.42 0.019527 -170.2
8.65290000 0.019535 -170.6 0.999804 -80.42 0.999804 -80.42 0.019535 -170.2
8.65300000 0.019543 -170.6 0.999804 -80.42 0.999804 -80.42 0.019543 -170.2
8.65310000 0.019551 -170.6 0.999804 -80.42 0.999804 -80.42 0.019551 -170.2
8.65320000 0.019559 -170.6 0.999804 -80.42 0.999804 -80.42 0.019559 -170.3
8.65330000 0.019567 -170.6 0.999804 -80.43 0.999804 -80.43 0.019567 -170.3
8.65340000 0.019575 -170.6 0.999804 -80.43 0.999804 -80.43 0.019575 -170.3
8.65350000 0.019583 -170.6 0.999803 -80.43 0.999803 -80.43 0.019583 -170.3
8.65360000 0.019591 -170.6 0.999803 -80.43 0.999803 -80.43 0.019591 -170.3
8.65370000 0.019599 -170.6 0.999803 -80.43 0.999803 -80.43 0.019599 -170.3
8.65380000 0.019607 -170.6 0.999803 -80.43 0.999803 -80.43 0.019607 -170.3
8.65390000 0.019615 -170.6 0.999803 -80.43 0.999803 -80.43 0.019615 -170.3
8.65400000 0.019623 -170.6 0.999803 -80.44 0.999803 -80.44 0.019623 -170.3
8.65410000 0.019632 -170.6 0.999803 -80.44 0.999803 -80.44 0.019632 -170.3
8.65420000 0.019640 -170.6 0.999802 -80.44 0.999802 -80.44 0.019640 -170.3
8.65430000 0.019648 -170.6 0.999802 -80.44 0.999802 -80.44 0.019648 -170.3
8.65440000 0.019656 -170.6 0.999802 -80.44 0.999802 -80.44 0.019656 -170.3
8.65450000 0.019664 -170.6 0.999802 -80.44 0.999802 -80.44 0.019664 -170.3
8.65460000 0.019672 -170.6 0.999802 -80.44 0.999802 -80.44 0.019672 -170.3
8.65470000 0.019680 -170.6 0.999802 -80.44 0.999802 -80.44 0.019680 -170.3
8.65480000 0.019688 -170.6 0.999801 -80.45 0.999801 -80.45 0.019688 -170.3
8.65490000 0.019697 -170.6 0.999801 -80.45 0.999801 -80.45 0.019697 -170.3
8.65500000 0.019705 -170.6 0.999801 -80.45 0.999801 -80.45 0.019705 -170.3
8.65510000 0.019713 -170.6 0.999801 -80.45 0.999801 -80.45 0.019713 -170.3
8.65520000 0.019721 -170.6 0.999801 -80.45 0.999801 -80.45 0.019721 -170.3
8.65530000 0.019729 -170.6 0.999801 -80.45 0.999801 -80.45 0.019729 -170.3
8.65540000 0.019737 -170.6 0.999800 -80.45 0.999800 -80.45 0.019737 -170.3
8.65550000 0.019746 -170.6 0.999800 -80.46 0.999800 -80.46 0.019746 -170.3
8.65560000 0.019754 -170.6 0.999800 -80.46 0.999800 -80.46 0.019754 -170.3
8.65570000 0.019762 -170.6 0.999800 -80.46 0.999800 -80.46 0.019762 -170.3
8.65580000 0.019770 -170.7 0.999800 -80.46 0.999800 -80.46 0.019770 -170.3
8.65590000 0.019778 -170.7 0.999800 -80.46 0.999800 -80.46 0.019778 -170.3
8.65600000 0.019787 -170.7 0.999799 -80.46 0.999799 -80.46 0.019787 -170.3
8.65610000 0.019795 -170.7 0.999799 -80.46 0.999799 -80.46 0.019795 -170.3
8.65620000 0.019803 -170.7 0.999799 -80.47 0.999799 -80.47 0.019803 -170.3
8.65630000 0.019811 -170.7 0.999799 -80.47 0.999799 -80.47 0.019811 -170.3
8.65640000 0.019820 -170.7 0.999799 -80.47 0.999799 -80.47 0.019820 -170.3
8.65650000 0.019828 -170.7 0.999799 -80.47 0.999799 -80.47 0.019828 -170.3
8.65660000 0.019836 -170.7 0.999798 -80.47 0.999798 -80.47 0.019836 -170.3
8.65670000 0.019844 -170.7 0.999798 -80.47 0.999798 -80.47 0.019844 -170.3
8.65680000 0.019853 -170.7 0.999798 -80.47 0.999798 -80.47 0.019853 -170.3
8.65690000 0.019861 -170.7 0.999798 -80.48 0.999798 -80.48 0.019861 -170.3
8.65700000 0.019869 -170.7 0.999798 -80.48 0.999798 -80.48 0.019869 -170.3
8.65710000 0.019878 -170.7 0.999798 -80.48 0.999798 -80.48 0.019878 -170.3
8.65720000 0.019886 -170.7 0.999797 -80.48 0.999797 -80.48 0.019886 -170.3
8.65730000 0.019894 -170.7 0.999797 -80.48 0.999797 -80.48 0.019894 -170.3
8.65740000 0.019903 -170.7 0.999797 -80.48 0.999797 -80.48 0.019903 -170.3
8.65750000 0.019911 -170.7 0.999797 -80.48 0.999797 -80.48 0.019911 -170.3
8.65760000 0.019919 -170.7 0.999797 -80.49 0.999797 -80.49 0.019919 -170.3
8.65770000 0.019928 -170.7 0.999797 -80.49 0.999797 -80.49 0.019928 -170.3
8.65780000 0.019936 -170.7 0.999796 -80.49 0.999796 -80.49 0.019936 -170.3
8.65790000 0.019944 -170.7 0.999796 -80.49 0.999796 -80.49 0.019944 -170.3
8.65800000 0.019953 -170.7 0.999796 -80.49 0.999796 -80.49 0.019953 -170.3
8.65810000 0.019961 -170.7 0.999796 -80.49 0.999796 -80.49 0.019961 -170.3
8.65820000 0.019969 -170.7 0.999796 -80.49 0.999796 -80.49 0.019969 -170.3
8.65830000 0.019978 -170.7 0.999796 -80.49 0.999796 -80.49 0.019978 -170.3
8.65840000 0.019986 -170.7 0.999795 -80.50 0.999795 -80.50 0.019986 -170.3
8.65850000 0.019995 -170.7 0.999795 -80.50 0.999795 -80.50 0.019995 -170.3
8.65860000 0.020003 -170.7 0.999795 -80.50 0.999795 -80.50 0.020003 -170.3
8.65870000 0.020011 -170.7 0.999795 -80.50 0.999795 -80.50 0.020011 -170.3
8.65880000 0.020020 -170.7 0.999795 -80.50 0.999795 -80.50 0.020020 -170.3
8.65890000 0.020028 -170.7 0.999795 -80.50 0.999795 -80.50 0.020028 -170.3
8.65900000 0.020037 -170.7 0.999794 -80.50 0.999794 -80.50 0.020037 -170.3
8.65910000 0.020045 -170.7 0.999794 -80.51 0.999794 -80.51 0.020045 -170.3
8.65920000 0.020054 -170.7 0.999794 -80.51 0.999794 -80.51 0.020054 -170.3
8.65930000 0.020062 -170.7 0.999794 -80.51 0.999794 -80.51 0.020062 -170.3
8.65940000 0.020071 -170.7 0.999794 -80.51 0.999794 -80.51 0.020071 -170.3
8.65950000 0.020079 -170.7 0.999794 -80.51 0.999794 -80.51 0.020079 -170.3
8.65960000 0.020087 -170.7 0.999793 -80.51 0.999793 -80.51 0.020087 -170.4
8.65970000 0.020096 -170.7 0.999793 -80.51 0.999793 -80.51 0.020096 -170.4
8.65980000 0.020104 -170.7 0.999793 -80.52 0.999793 -80.52 0.020104 -170.4
8.65990000 0.020113 -170.7 0.999793 -80.52 0.999793 -80.52 0.020113 -170.4
8.66000000 0.020121 -170.7 0.999793 -80.52 0.999793 -80.52 0.020121 -170.4
8.66010000 0.020130 -170.7 0.999793 -80.52 0.999793 -80.52 0.020130 -170.4
8.66020000 0.020139 -170.7 0.999792 -80.52 0.999792 -80.52 0.020138 -170.4
8.66030000 0.020147 -170.7 0.999792 -80.52 0.999792 -80.52 0.020147 -170.4
8.66040000 0.020156 -170.7 0.999792 -80.52 0.999792 -80.52 0.020156 -170.4
8.66050000 0.020164 -170.7 0.999792 -80.53 0.999792 -80.53 0.020164 -170.4
8.66060000 0.020173 -170.7 0.999792 -80.53 0.999792 -80.53 0.020173 -170.4
8.66070000 0.020181 -170.7 0.999791 -80.53 0.999791 -80.53 0.020181 -170.4
8.66080000 0.020190 -170.7 0.999791 -80.53 0.999791 -80.53 0.020190 -170.4
8.66090000 0.020198 -170.7 0.999791 -80.53 0.999791 -80.53 0.020198 -170.4
8.66100000 0.020207 -170.7 0.999791 -80.53 0.999791 -80.53 0.020207 -170.4
8.66110000 0.020216 -170.7 0.999791 -80.53 0.999791 -80.53 0.020216 -170.4
8.66120000 0.020224 -170.7 0.999791 -80.54 0.999791 -80.54 0.020224 -170.4
8.66130000 0.020233 -170.7 0.999790 -80.54 0.999790 -80.54 0.020233 -170.4
8.66140000 0.020241 -170.7 0.999790 -80.54 0.999790 -80.54 0.020241 -170.4
8.66150000 0.020250 -170.7 0.999790 -80.54 0.999790 -80.54 0.020250 -170.4
8.66160000 0.020259 -170.7 0.999790 -80.54 0.999790 -80.54 0.020259 -170.4
8.66170000 0.020267 -170.7 0.999790 -80.54 0.999790 -80.54 0.020267 -170.4
8.66180000 0.020276 -170.7 0.999790 -80.54 0.999790 -80.54 0.020276 -170.4
8.66190000 0.020285 -170.7 0.999789 -80.55 0.999789 -80.55 0.020285 -170.4
8.66200000 0.020293 -170.7 0.999789 -80.55 0.999789 -80.55 0.020293 -170.4
8.66210000 0.020302 -170.7 0.999789 -80.55 0.999789 -80.55 0.020302 -170.4
8.66220000 0.020311 -170.7 0.999789 -80.55 0.999789 -80.55 0.020311 -170.4
8.66230000 0.020319 -170.7 0.999789 -80.55 0.999789 -80.55 0.020319 -170.4
8.66240000 0.020328 -170.7 0.999788 -80.55 0.999788 -80.55 0.020328 -170.4
8.66250000 0.020337 -170.7 0.999788 -80.55 0.999788 -80.55 0.020337 -170.4
8.66260000 0.020345 -170.7 0.999788 -80.56 0.999788 -80.56 0.020345 -170.4
8.66270000 0.020354 -170.7 0.999788 -80.56 0.999788 -80.56 0.020354 -170.4
8.66280000 0.020363 -170.7 0.999788 -80.56 0.999788 -80.56 0.020363 -170.4
8.66290000 0.020371 -170.7 0.999788 -80.56 0.999788 -80.56 0.020371 -170.4
8.66300000 0.020380 -170.7 0.999787 -80.56 0.999787 -80.56 0.020380 -170.4
8.66310000 0.020389 -170.7 0.999787 -80.56 0.999787 -80.56 0.020389 -170.4
8.66320000 0.020398 -170.7 0.999787 -80.56 0.999787 -80.56 0.020398 -170.4
8.66330000 0.020406 -170.7 0.999787 -80.57 0.999787 -80.57 0.020406 -170.4
8.66340000 0.020415 -170.7 0.999787 -80.57 0.999787 -80.57 0.020415 -170.4
8.66350000 0.020424 -170.7 0.999786 -80.57 0.999786 -80.57 0.020424 -170.4
8.66360000 0.020433 -170.7 0.999786 -80.57 0.999786 -80.57 0.020433 -170.4
8.66370000 0.020442 -170.7 0.999786 -80.57 0.999786 -80.57 0.020441 -170.4
8.66380000 0.020450 -170.7 0.999786 -80.57 0.999786 -80.57 0.020450 -170.4
8.66390000 0.020459 -170.7 0.999786 -80.57 0.999786 -80.57 0.020459 -170.4
8.66400000 0.020468 -170.8 0.999786 -80.58 0.999786 -80.58 0.020468 -170.4
8.66410000 0.020477 -170.8 0.999785 -80.58 0.999785 -80.58 0.020477 -170.4
8.66420000 0.020486 -170.8 0.999785 -80.58 0.999785 -80.58 0.020486 -170.4
8.66430000 0.020494 -170.8 0.999785 -80.58 0.999785 -80.58 0.020494 -170.4
8.66440000 0.020503 -170.8 0.999785 -80.58 0.999785 -80.58 0.020503 -170.4
8.66450000 0.020512 -170.8 0.999785 -80.58 0.999785 -80.58 0.020512 -170.4
8.66460000 0.020521 -170.8 0.999784 -80.58 0.999784 -80.58 0.020521 -170.4
8.66470000 0.020530 -170.8 0.999784 -80.59 0.999784 -80.59 0.020530 -170.4
8.66480000 0.020539 -170.8 0.999784 -80.59 0.999784 -80.59 0.020539 -170.4
8.66490000 0.020548 -170.8 0.999784 -80.59 0.999784 -80.59 0.020548 -170.4
8.66500000 0.020556 -170.8 0.999784 -80.59 0.999784 -80.59 0.020556 -170.4
8.66510000 0.020565 -170.8 0.999784 -80.59 0.999784 -80.59 0.020565 -170.4
8.66520000 0.020574 -170.8 0.999783 -80.59 0.999783 -80.59 0.020574 -170.4
8.66530000 0.020583 -170.8 0.999783 -80.59 0.999783 -80.59 0.020583 -170.4
8.66540000 0.020592 -170.8 0.999783 -80.60 0.999783 -80.60 0.020592 -170.4
8.66550000 0.020601 -170.8 0.999783 -80.60 0.999783 -80.60 0.020601 -170.4
8.66560000 0.020610 -170.8 0.999783 -80.60 0.999783 -80.60 0.020610 -170.4
8.66570000 0.020619 -170.8 0.999782 -80.60 0.999782 -80.60 0.020619 -170.4
8.66580000 0.020628 -170.8 0.999782 -80.60 0.999782 -80.60 0.020628 -170.4
8.66590000 0.020637 -170.8 0.999782 -80.60 0.999782 -80.60 0.020637 -170.5
8.66600000 0.020646 -170.8 0.999782 -80.60 0.999782 -80.60 0.020646 -170.5
8.66610000 0.020655 -170.8 0.999782 -80.61 0.999782 -80.61 0.020655 -170.5
8.66620000 0.020664 -170.8 0.999782 -80.61 0.999782 -80.61 0.020664 -170.5
8.66630000 0.020673 -170.8 0.999781 -80.61 0.999781 -80.61 0.020673 -170.5
8.66640000 0.020682 -170.8 0.999781 -80.61 0.999781 -80.61 0.020682 -170.5
8.66650000 0.020691 -170.8 0.999781 -80.61 0.999781 -80.61 0.020691 -170.5
8.66660000 0.020700 -170.8 0.999781 -80.61 0.999781 -80.61 0.020700 -170.5
8.66670000 0.020709 -170.8 0.999781 -80.61 0.999781 -80.61 0.020709 -170.5
8.66680000 0.020718 -170.8 0.999780 -80.62 0.999780 -80.62 0.020718 -170.5
8.66690000 0.020727 -170.8 0.999780 -80.62 0.999780 -80.62 0.020727 -170.5
8.66700000 0.020736 -170.8 0.999780 -80.62 0.999780 -80.62 0.020736 -170.5
8.66710000 0.020745 -170.8 0.999780 -80.62 0.999780 -80.62 0.020745 -170.5
8.66720000 0.020754 -170.8 0.999780 -80.62 0.999780 -80.62 0.020754 -170.5
8.66730000 0.020763 -170.8 0.999779 -80.62 0.999779 -80.62 0.020763 -170.5
8.66740000 0.020772 -170.8 0.999779 -80.62 0.999779 -80.62 0.020772 -170.5
8.66750000 0.020781 -170.8 0.999779 -80.63 0.999779 -80.63 0.020781 -170.5
8.66760000 0.020790 -170.8 0.999779 -80.63 0.999779 -80.63 0.020790 -170.5
8.66770000 0.020799 -170.8 0.999779 -80.63 0.999779 -80.63 0.020799 -170.5
8.66780000 0.020808 -170.8 0.999779 -80.63 0.999779 -80.63 0.020808 -170.5
8.66790000 0.020817 -170.8 0.999778 -80.63 0.999778 -80.63 0.020817 -170.5
8.66800000 0.020827 -170.8 0.999778 -80.63 0.999778 -80.63 0.020827 -170.5
8.66810000 0.020836 -170.8 0.999778 -80.63 0.999778 -80.63 0.020836 -170.5
8.66820000 0.020845 -170.8 0.999778 -80.64 0.999778 -80.64 0.020845 -170.5
8.66830000 0.020854 -170.8 0.999778 -80.64 0.999778 -80.64 0.020854 -170.5
8.66840000 0.020863 -170.8 0.999777 -80.64 0.999777 -80.64 0.020863 -170.5
8.66850000 0.020872 -170.8 0.999777 -80.64 0.999777 -80.64 0.020872 -170.5
8.66860000 0.020881 -170.8 0.999777 -80.64 0.999777 -80.64 0.020881 -170.5
8.66870000 0.020891 -170.8 0.999777 -80.64 0.999777 -80.64 0.020891 -170.5
8.66880000 0.020900 -170.8 0.999777 -80.64 0.999777 -80.64 0.020900 -170.5
8.66890000 0.020909 -170.8 0.999776 -80.65 0.999776 -80.65 0.020909 -170.5
8.66900000 0.020918 -170.8 0.999776 -80.65 0.999776 -80.65 0.020918 -170.5
8.66910000 0.020927 -170.8 0.999776 -80.65 0.999776 -80.65 0.020927 -170.5
8.66920000 0.020937 -170.8 0.999776 -80.65 0.999776 -80.65 0.020937 -170.5
8.66930000 0.020946 -170.8 0.999776 -80.65 0.999776 -80.65 0.020946 -170.5
8.66940000 0.020955 -170.8 0.999775 -80.65 0.999775 -80.65 0.020955 -170.5
8.66950000 0.020964 -170.8 0.999775 -80.65 0.999775 -80.65 0.020964 -170.5
8.66960000 0.020974 -170.8 0.999775 -80.66 0.999775 -80.66 0.020974 -170.5
8.66970000 0.020983 -170.8 0.999775 -80.66 0.999775 -80.66 0.020983 -170.5
8.66980000 0.020992 -170.8 0.999775 -80.66 0.999775 -80.66 0.020992 -170.5
8.66990000 0.021001 -170.8 0.999774 -80.66 0.999774 -80.66 0.021001 -170.5
8.67000000 0.021011 -170.8 0.999774 -80.66 0.999774 -80.66 0.021011 -170.5
8.67010000 0.021020 -170.8 0.999774 -80.66 0.999774 -80.66 0.021020 -170.5
8.67020000 0.021029 -170.8 0.999774 -80.66 0.999774 -80.66 0.021029 -170.5
8.67030000 0.021039 -170.8 0.999774 -80.67 0.999774 -80.67 0.021039 -170.5
8.67040000 0.021048 -170.8 0.999773 -80.67 0.999773 -80.67 0.021048 -170.5
8.67050000 0.021057 -170.8 0.999773 -80.67 0.999773 -80.67 0.021057 -170.5
8.67060000 0.021067 -170.8 0.999773 -80.67 0.999773 -80.67 0.021067 -170.5
8.67070000 0.021076 -170.8 0.999773 -80.67 0.999773 -80.67 0.021076 -170.5
8.67080000 0.021085 -170.8 0.999773 -80.67 0.999773 -80.67 0.021085 -170.5
8.67090000 0.021095 -170.8 0.999772 -80.68 0.999772 -80.68 0.021095 -170.5
8.67100000 0.021104 -170.8 0.999772 -80.68 0.999772 -80.68 0.021104 -170.5
8.67110000 0.021113 -170.8 0.999772 -80.68 0.999772 -80.68 0.021113 -170.5
8.67120000 0.021123 -170.8 0.999772 -80.68 0.999772 -80.68 0.021123 -170.5
8.67130000 0.021132 -170.8 0.999772 -80.68 0.999772 -80.68 0.021132 -170.5
8.67140000 0.021142 -170.8 0.999771 -80.68 0.999771 -80.68 0.021142 -170.5
8.67150000 0.021151 -170.8 0.999771 -80.68 0.999771 -80.68 0.021151 -170.5
8.67160000 0.021160 -170.8 0.999771 -80.69 0.999771 -80.69 0.021160 -170.5
8.67170000 0.021170 -170.8 0.999771 -80.69 0.999771 -80.69 0.021170 -170.5
8.67180000 0.021179 -170.8 0.999771 -80.69 0.999771 -80.69 0.021179 -170.5
8.67190000 0.021189 -170.9 0.999770 -80.69 0.999770 -80.69 0.021189 -170.5
8.67200000 0.021198 -170.9 0.999770 -80.69 0.999770 -80.69 0.021198 -170.6
8.67210000 0.021208 -170.9 0.999770 -80.69 0.999770 -80.69 0.021208 -170.6
8.67220000 0.021217 -170.9 0.999770 -80.69 0.999770 -80.69 0.021217 -170.6
8.67230000 0.021227 -170.9 0.999770 -80.70 0.999770 -80.70 0.021227 -170.6
8.67240000 0.021236 -170.9 0.999769 -80.70 0.999769 -80.70 0.021236 -170.6
8.67250000 0.021246 -170.9 0.999769 -80.70 0.999769 -80.70 0.021246 -170.6
8.67260000 0.021255 -170.9 0.999769 -80.70 0.999769 -80.70 0.021255 -170.6
8.67270000 0.021265 -170.9 0.999769 -80.70 0.999769 -80.70 0.021265 -170.6
8.67280000 0.021274 -170.9 0.999769 -80.70 0.999769 -80.70 0.021274 -170.6
8.67290000 0.021284 -170.9 0.999768 -80.70 0.999768 -80.70 0.021284 -170.6
8.67300000 0.021293 -170.9 0.999768 -80.71 0.999768 -80.71 0.021293 -170.6
8.67310000 0.021303 -170.9 0.999768 -80.71 0.999768 -80.71 0.021303 -170.6
8.67320000 0.021312 -170.9 0.999768 -80.71 0.999768 -80.71 0.021312 -170.6
8.67330000 0.021322 -170.9 0.999768 -80.71 0.999768 -80.71 0.021322 -170.6
8.67340000 0.021331 -170.9 0.999767 -80.71 0.999767 -80.71 0.021331 -170.6
8.67350000 0.021341 -170.9 0.999767 -80.71 0.999767 -80.71 0.021341 -170.6
8.67360000 0.021351 -170.9 0.999767 -80.71 0.999767 -80.71 0.021351 -170.6
8.67370000 0.021360 -170.9 0.999767 -80.72 0.999767 -80.72 0.021360 -170.6
8.67380000 0.021370 -170.9 0.999767 -80.72 0.999767 -80.72 0.021370 -170.6
8.67390000 0.021379 -170.9 0.999766 -80.72 0.999766 -80.72 0.021379 -170.6
8.67400000 0.021389 -170.9 0.999766 -80.72 0.999766 -80.72 0.021389 -170.6
8.67410000 0.021399 -170.9 0.999766 -80.72 0.999766 -80.72 0.021399 -170.6
8.67420000 0.021408 -170.9 0.999766 -80.72 0.999766 -80.72 0.021408 -170.6
8.67430000 0.021418 -170.9 0.999766 -80.72 0.999766 -80.72 0.021418 -170.6
8.67440000 0.021428 -170.9 0.999765 -80.73 0.999765 -80.73 0.021428 -170.6
8.67450000 0.021437 -170.9 0.999765 -80.73 0.999765 -80.73 0.021437 -170.6
8.67460000 0.021447 -170.9 0.999765 -80.73 0.999765 -80.73 0.021447 -170.6
8.67470000 0.021457 -170.9 0.999765 -80.73 0.999765 -80.73 0.021457 -170.6
8.67480000 0.021466 -170.9 0.999764 -80.73 0.999764 -80.73 0.021466 -170.6
8.67490000 0.021476 -170.9 0.999764 -80.73 0.999764 -80.73 0.021476 -170.6
8.67500000 0.021486 -170.9 0.999764 -80.74 0.999764 -80.74 0.021486 -170.6
8.67510000 0.021495 -170.9 0.999764 -80.74 0.999764 -80.74 0.021495 -170.6
8.67520000 0.021505 -170.9 0.999764 -80.74 0.999764 -80.74 0.021505 -170.6
8.67530000 0.021515 -170.9 0.999763 -80.74 0.999763 -80.74 0.021515 -170.6
8.67540000 0.021525 -170.9 0.999763 -80.74 0.999763 -80.74 0.021525 -170.6
8.67550000 0.021534 -170.9 0.999763 -80.74 0.999763 -80.74 0.021534 -170.6
8.67560000 0.021544 -170.9 0.999763 -80.74 0.999763 -80.74 0.021544 -170.6
8.67570000 0.021554 -170.9 0.999763 -80.75 0.999763 -80.75 0.021554 -170.6
8.67580000 0.021564 -170.9 0.999762 -80.75 0.999762 -80.75 0.021564 -170.6
8.67590000 0.021574 -170.9 0.999762 -80.75 0.999762 -80.75 0.021573 -170.6
8.67600000 0.021583 -170.9 0.999762 -80.75 0.999762 -80.75 0.021583 -170.6
8.67610000 0.021593 -170.9 0.999762 -80.75 0.999762 -80.75 0.021593 -170.6
8.67620000 0.021603 -170.9 0.999762 -80.75 0.999762 -80.75 0.021603 -170.6
8.67630000 0.021613 -170.9 0.999761 -80.75 0.999761 -80.75 0.021613 -170.6
8.67640000 0.021623 -170.9 0.999761 -80.76 0.999761 -80.76 0.021623 -170.6
8.67650000 0.021632 -170.9 0.999761 -80.76 0.999761 -80.76 0.021632 -170.6
8.67660000 0.021642 -170.9 0.999761 -80.76 0.999761 -80.76 0.021642 -170.6
8.67670000 0.021652 -170.9 0.999760 -80.76 0.999760 -80.76 0.021652 -170.6
8.67680000 0.021662 -170.9 0.999760 -80.76 0.999760 -80.76 0.021662 -170.6
8.67690000 0.021672 -170.9 0.999760 -80.76 0.999760 -80.76 0.021672 -170.6
8.67700000 0.021682 -170.9 0.999760 -80.76 0.999760 -80.76 0.021682 -170.6
8.67710000 0.021692 -170.9 0.999760 -80.77 0.999760 -80.77 0.021692 -170.6
8.67720000 0.021702 -170.9 0.999759 -80.77 0.999759 -80.77 0.021702 -170.6
8.67730000 0.021712 -170.9 0.999759 -80.77 0.999759 -80.77 0.021712 -170.6
8.67740000 0.021721 -170.9 0.999759 -80.77 0.999759 -80.77 0.021721 -170.6
8.67750000 0.021731 -170.9 0.999759 -80.77 0.999759 -80.77 0.021731 -170.6
8.67760000 0.021741 -170.9 0.999758 -80.77 0.999758 -80.77 0.021741 -170.6
8.67770000 0.021751 -170.9 0.999758 -80.78 0.999758 -80.78 0.021751 -170.6
8.67780000 0.021761 -170.9 0.999758 -80.78 0.999758 -80.78 0.021761 -170.6
8.67790000 0.021771 -170.9 0.999758 -80.78 0.999758 -80.78 0.021771 -170.6
8.67800000 0.021781 -170.9 0.999758 -80.78 0.999758 -80.78 0.021781 -170.6
8.67810000 0.021791 -170.9 0.999757 -80.78 0.999757 -80.78 0.021791 -170.7
8.67820000 0.021801 -170.9 0.999757 -80.78 0.999757 -80.78 0.021801 -170.7
8.67830000 0.021811 -170.9 0.999757 -80.78 0.999757 -80.78 0.021811 -170.7
8.67840000 0.021821 -170.9 0.999757 -80.79 0.999757 -80.79 0.021821 -170.7
8.67850000 0.021831 -170.9 0.999757 -80.79 0.999757 -80.79 0.021831 -170.7
8.67860000 0.021841 -170.9 0.999756 -80.79 0.999756 -80.79 0.021841 -170.7
8.67870000 0.021851 -170.9 0.999756 -80.79 0.999756 -80.79 0.021851 -170.7
8.67880000 0.021861 -170.9 0.999756 -80.79 0.999756 -80.79 0.021861 -170.7
8.67890000 0.021871 -170.9 0.999756 -80.79 0.999756 -80.79 0.021871 -170.7
8.67900000 0.021882 -170.9 0.999755 -80.79 0.999755 -80.79 0.021882 -170.7
8.67910000 0.021892 -170.9 0.999755 -80.80 0.999755 -80.80 0.021892 -170.7
8.67920000 0.021902 -170.9 0.999755 -80.80 0.999755 -80.80 0.021902 -170.7
8.67930000 0.021912 -170.9 0.999755 -80.80 0.999755 -80.80 0.021912 -170.7
8.67940000 0.021922 -170.9 0.999755 -80.80 0.999755 -80.80 0.021922 -170.7
8.67950000 0.021932 -170.9 0.999754 -80.80 0.999754 -80.80 0.021932 -170.7
8.67960000 0.021942 -171.0 0.999754 -80.80 0.999754 -80.80 0.021942 -170.7
8.67970000 0.021952 -171.0 0.999754 -80.81 0.999754 -80.81 0.021952 -170.7
8.67980000 0.021962 -171.0 0.999754 -80.81 0.999754 -80.81 0.021962 -170.7
8.67990000 0.021973 -171.0 0.999753 -80.81 0.999753 -80.81 0.021973 -170.7
8.68000000 0.021983 -171.0 0.999753 -80.81 0.999753 -80.81 0.021983 -170.7
8.68010000 0.021993 -171.0 0.999753 -80.81 0.999753 -80.81 0.021993 -170.7
8.68020000 0.022003 -171.0 0.999753 -80.81 0.999753 -80.81 0.022003 -170.7
8.68030000 0.022013 -171.0 0.999752 -80.81 0.999752 -80.81 0.022013 -170.7
8.68040000 0.022024 -171.0 0.999752 -80.82 0.999752 -80.82 0.022024 -170.7
8.68050000 0.022034 -171.0 0.999752 -80.82 0.999752 -80.82 0.022034 -170.7
8.68060000 0.022044 -171.0 0.999752 -80.82 0.999752 -80.82 0.022044 -170.7
8.68070000 0.022054 -171.0 0.999752 -80.82 0.999752 -80.82 0.022054 -170.7
8.68080000 0.022065 -171.0 0.999751 -80.82 0.999751 -80.82 0.022064 -170.7
8.68090000 0.022075 -171.0 0.999751 -80.82 0.999751 -80.82 0.022075 -170.7
8.68100000 0.022085 -171.0 0.999751 -80.82 0.999751 -80.82 0.022085 -170.7
8.68110000 0.022095 -171.0 0.999751 -80.83 0.999751 -80.83 0.022095 -170.7
8.68120000 0.022106 -171.0 0.999750 -80.83 0.999750 -80.83 0.022106 -170.7
8.68130000 0.022116 -171.0 0.999750 -80.83 0.999750 -80.83 0.022116 -170.7
8.68140000 0.022126 -171.0 0.999750 -80.83 0.999750 -80.83 0.022126 -170.7
8.68150000 0.022136 -171.0 0.999750 -80.83 0.999750 -80.83 0.022136 -170.7
8.68160000 0.022147 -171.0 0.999750 -80.83 0.999750 -80.83 0.022147 -170.7
8.68170000 0.022157 -171.0 0.999749 -80.84 0.999749 -80.84 0.022157 -170.7
8.68180000 0.022167 -171.0 0.999749 -80.84 0.999749 -80.84 0.022167 -170.7
8.68190000 0.022178 -171.0 0.999749 -80.84 0.999749 -80.84 0.022178 -170.7
8.68200000 0.022188 -171.0 0.999749 -80.84 0.999749 -80.84 0.022188 -170.7
8.68210000 0.022199 -171.0 0.999748 -80.84 0.999748 -80.84 0.022199 -170.7
8.68220000 0.022209 -171.0 0.999748 -80.84 0.999748 -80.84 0.022209 -170.7
8.68230000 0.022219 -171.0 0.999748 -80.84 0.999748 -80.84 0.022219 -170.7
8.68240000 0.022230 -171.0 0.999748 -80.85 0.999748 -80.85 0.022230 -170.7
8.68250000 0.022240 -171.0 0.999747 -80.85 0.999747 -80.85 0.022240 -170.7
8.68260000 0.022251 -171.0 0.999747 -80.85 0.999747 -80.85 0.022251 -170.7
8.68270000 0.022261 -171.0 0.999747 -80.85 0.999747 -80.85 0.022261 -170.7
8.68280000 0.022271 -171.0 0.999747 -80.85 0.999747 -80.85 0.022271 -170.7
8.68290000 0.022282 -171.0 0.999746 -80.85 0.999746 -80.85 0.022282 -170.7
8.68300000 0.022292 -171.0 0.999746 -80.86 0.999746 -80.86 0.022292 -170.7
8.68310000 0.022303 -171.0 0.999746 -80.86 0.999746 -80.86 0.022303 -170.7
8.68320000 0.022313 -171.0 0.999746 -80.86 0.999746 -80.86 0.022313 -170.7
8.68330000 0.022324 -171.0 0.999746 -80.86 0.999746 -80.86 0.022324 -170.7
8.68340000 0.022334 -171.0 0.999745 -80.86 0.999745 -80.86 0.022334 -170.7
8.68350000 0.022345 -171.0 0.999745 -80.86 0.999745 -80.86 0.022345 -170.7
8.68360000 0.022355 -171.0 0.999745 -80.86 0.999745 -80.86 0.022355 -170.7
8.68370000 0.022366 -171.0 0.999745 -80.87 0.999745 -80.87 0.022366 -170.7
8.68380000 0.022376 -171.0 0.999744 -80.87 0.999744 -80.87 0.022376 -170.7
8.68390000 0.022387 -171.0 0.999744 -80.87 0.999744 -80.87 0.022387 -170.7
8.68400000 0.022397 -171.0 0.999744 -80.87 0.999744 -80.87 0.022397 -170.8
8.68410000 0.022408 -171.0 0.999744 -80.87 0.999744 -80.87 0.022408 -170.8
8.68420000 0.022419 -171.0 0.999743 -80.87 0.999743 -80.87 0.022419 -170.8
8.68430000 0.022429 -171.0 0.999743 -80.87 0.999743 -80.87 0.022429 -170.8
8.68440000 0.022440 -171.0 0.999743 -80.88 0.999743 -80.88 0.022440 -170.8
8.68450000 0.022450 -171.0 0.999743 -80.88 0.999743 -80.88 0.022450 -170.8
8.68460000 0.022461 -171.0 0.999742 -80.88 0.999742 -80.88 0.022461 -170.8
8.68470000 0.022472 -171.0 0.999742 -80.88 0.999742 -80.88 0.022472 -170.8
8.68480000 0.022482 -171.0 0.999742 -80.88 0.999742 -80.88 0.022482 -170.8
8.68490000 0.022493 -171.0 0.999742 -80.88 0.999742 -80.88 0.022493 -170.8
8.68500000 0.022504 -171.0 0.999741 -80.89 0.999741 -80.89 0.022504 -170.8
8.68510000 0.022514 -171.0 0.999741 -80.89 0.999741 -80.89 0.022514 -170.8
8.68520000 0.022525 -171.0 0.999741 -80.89 0.999741 -80.89 0.022525 -170.8
8.68530000 0.022536 -171.0 0.999741 -80.89 0.999741 -80.89 0.022536 -170.8
8.68540000 0.022546 -171.0 0.999741 -80.89 0.999741 -80.89 0.022546 -170.8
8.68550000 0.022557 -171.0 0.999740 -80.89 0.999740 -80.89 0.022557 -170.8
8.68560000 0.022568 -171.0 0.999740 -80.89 0.999740 -80.89 0.022568 -170.8
8.68570000 0.022578 -171.0 0.999740 -80.90 0.999740 -80.90 0.022578 -170.8
8.68580000 0.022589 -171.0 0.999740 -80.90 0.999740 -80.90 0.022589 -170.8
8.68590000 0.022600 -171.0 0.999739 -80.90 0.999739 -80.90 0.022600 -170.8
8.68600000 0.022611 -171.0 0.999739 -80.90 0.999739 -80.90 0.022611 -170.8
8.68610000 0.022622 -171.0 0.999739 -80.90 0.999739 -80.90 0.022621 -170.8
8.68620000 0.022632 -171.0 0.999739 -80.90 0.999739 -80.90 0.022632 -170.8
8.68630000 0.022643 -171.0 0.999738 -80.91 0.999738 -80.91 0.022643 -170.8
8.68640000 0.022654 -171.0 0.999738 -80.91 0.999738 -80.91 0.022654 -170.8
8.68650000 0.022665 -171.0 0.999738 -80.91 0.999738 -80.91 0.022665 -170.8
8.68660000 0.022676 -171.0 0.999738 -80.91 0.999738 -80.91 0.022675 -170.8
8.68670000 0.022686 -171.0 0.999737 -80.91 0.999737 -80.91 0.022686 -170.8
8.68680000 0.022697 -171.0 0.999737 -80.91 0.999737 -80.91 0.022697 -170.8
8.68690000 0.022708 -171.0 0.999737 -80.91 0.999737 -80.91 0.022708 -170.8
8.68700000 0.022719 -171.1 0.999737 -80.92 0.999737 -80.92 0.022719 -170.8
8.68710000 0.022730 -171.1 0.999736 -80.92 0.999736 -80.92 0.022730 -170.8
8.68720000 0.022741 -171.1 0.999736 -80.92 0.999736 -80.92 0.022741 -170.8
8.68730000 0.022752 -171.1 0.999736 -80.92 0.999736 -80.92 0.022752 -170.8
8.68740000 0.022762 -171.1 0.999736 -80.92 0.999736 -80.92 0.022762 -170.8
8.68750000 0.022773 -171.1 0.999735 -80.92 0.999735 -80.92 0.022773 -170.8
8.68760000 0.022784 -171.1 0.999735 -80.93 0.999735 -80.93 0.022784 -170.8
8.68770000 0.022795 -171.1 0.999735 -80.93 0.999735 -80.93 0.022795 -170.8
8.68780000 0.022806 -171.1 0.999735 -80.93 0.999735 -80.93 0.022806 -170.8
8.68790000 0.022817 -171.1 0.999734 -80.93 0.999734 -80.93 0.022817 -170.8
8.68800000 0.022828 -171.1 0.999734 -80.93 0.999734 -80.93 0.022828 -170.8
8.68810000 0.022839 -171.1 0.999734 -80.93 0.999734 -80.93 0.022839 -170.8
8.68820000 0.022850 -171.1 0.999734 -80.93 0.999734 -80.93 0.022850 -170.8
8.68830000 0.022861 -171.1 0.999733 -80.94 0.999733 -80.94 0.022861 -170.8
8.68840000 0.022872 -171.1 0.999733 -80.94 0.999733 -80.94 0.022872 -170.8
8.68850000 0.022883 -171.1 0.999733 -80.94 0.999733 -80.94 0.022883 -170.8
8.68860000 0.022894 -171.1 0.999733 -80.94 0.999733 -80.94 0.022894 -170.8
8.68870000 0.022905 -171.1 0.999732 -80.94 0.999732 -80.94 0.022905 -170.8
8.68880000 0.022916 -171.1 0.999732 -80.94 0.999732 -80.94 0.022916 -170.8
8.68890000 0.022927 -171.1 0.999732 -80.95 0.999732 -80.95 0.022927 -170.8
8.68900000 0.022938 -171.1 0.999732 -80.95 0.999732 -80.95 0.022938 -170.8
8.68910000 0.022950 -171.1 0.999731 -80.95 0.999731 -80.95 0.022949 -170.8
8.68920000 0.022961 -171.1 0.999731 -80.95 0.999731 -80.95 0.022961 -170.8