! Sonnet Data File
! From: emgraph Version : 16.52
! From Project: transmon_trial
! Data is De-embedded 
! Data File Written: 10/20/2017 09:13:07
!< HDATE 10/19/2017 20:03:37
!< MDATE 10/19/2017 20:10:25
!< PARAMS
!< Lj = 15.24
!< Gap = 16.0
!< Width = 30.0
!< Airgap = 18.0
!< Pwidth = 2000.0
!< END PARAMS
# GHZ S MA R 51.00000
8.65000000 0.010082 -170.3 0.999945 -80.38 0.999945 -80.38 0.010082 -170.5
!< P1 F=8.65 Eeff=(6.44482017 -3.0292e-5) Z0=(50.6172123 1.12884e-4) R=0.0 C=0.0 
!< P2 F=8.65 Eeff=(6.44482017 -3.0292e-5) Z0=(50.6172123 1.12884e-4) R=0.0 C=0.0 
8.65010000 0.010089 -170.3 0.999945 -80.38 0.999945 -80.38 0.010089 -170.5
8.65020000 0.010097 -170.3 0.999944 -80.38 0.999944 -80.38 0.010097 -170.5
8.65030000 0.010104 -170.3 0.999944 -80.38 0.999944 -80.38 0.010104 -170.5
8.65040000 0.010111 -170.3 0.999944 -80.38 0.999944 -80.38 0.010111 -170.5
8.65050000 0.010118 -170.3 0.999944 -80.38 0.999944 -80.38 0.010118 -170.5
8.65060000 0.010125 -170.3 0.999944 -80.38 0.999944 -80.38 0.010125 -170.5
8.65070000 0.010132 -170.3 0.999944 -80.39 0.999944 -80.39 0.010132 -170.5
8.65080000 0.010139 -170.3 0.999944 -80.39 0.999944 -80.39 0.010139 -170.5
8.65090000 0.010146 -170.3 0.999944 -80.39 0.999944 -80.39 0.010146 -170.5
8.65100000 0.010154 -170.3 0.999944 -80.39 0.999944 -80.39 0.010154 -170.5
8.65110000 0.010161 -170.3 0.999944 -80.39 0.999944 -80.39 0.010161 -170.5
8.65120000 0.010168 -170.3 0.999944 -80.39 0.999944 -80.39 0.010168 -170.5
8.65130000 0.010175 -170.3 0.999944 -80.39 0.999944 -80.39 0.010175 -170.5
8.65140000 0.010182 -170.3 0.999944 -80.39 0.999944 -80.39 0.010182 -170.5
8.65150000 0.010189 -170.3 0.999944 -80.40 0.999944 -80.40 0.010189 -170.5
8.65160000 0.010197 -170.3 0.999943 -80.40 0.999943 -80.40 0.010197 -170.5
8.65170000 0.010204 -170.3 0.999943 -80.40 0.999943 -80.40 0.010204 -170.5
8.65180000 0.010211 -170.3 0.999943 -80.40 0.999943 -80.40 0.010211 -170.5
8.65190000 0.010218 -170.3 0.999943 -80.40 0.999943 -80.40 0.010218 -170.5
8.65200000 0.010225 -170.3 0.999943 -80.40 0.999943 -80.40 0.010225 -170.5
8.65210000 0.010233 -170.3 0.999943 -80.40 0.999943 -80.40 0.010233 -170.5
8.65220000 0.010240 -170.3 0.999943 -80.41 0.999943 -80.41 0.010240 -170.5
8.65230000 0.010247 -170.3 0.999943 -80.41 0.999943 -80.41 0.010247 -170.5
8.65240000 0.010254 -170.3 0.999943 -80.41 0.999943 -80.41 0.010254 -170.5
8.65250000 0.010261 -170.3 0.999943 -80.41 0.999943 -80.41 0.010261 -170.5
8.65260000 0.010269 -170.3 0.999943 -80.41 0.999943 -80.41 0.010269 -170.5
8.65270000 0.010276 -170.3 0.999943 -80.41 0.999943 -80.41 0.010276 -170.5
8.65280000 0.010283 -170.3 0.999943 -80.41 0.999943 -80.41 0.010283 -170.5
8.65290000 0.010290 -170.3 0.999942 -80.42 0.999942 -80.42 0.010290 -170.5
8.65300000 0.010298 -170.3 0.999942 -80.42 0.999942 -80.42 0.010298 -170.5
8.65310000 0.010305 -170.3 0.999942 -80.42 0.999942 -80.42 0.010305 -170.5
8.65320000 0.010312 -170.3 0.999942 -80.42 0.999942 -80.42 0.010312 -170.5
8.65330000 0.010320 -170.3 0.999942 -80.42 0.999942 -80.42 0.010320 -170.5
8.65340000 0.010327 -170.3 0.999942 -80.42 0.999942 -80.42 0.010327 -170.5
8.65350000 0.010334 -170.3 0.999942 -80.42 0.999942 -80.42 0.010334 -170.5
8.65360000 0.010342 -170.3 0.999942 -80.42 0.999942 -80.42 0.010342 -170.5
8.65370000 0.010349 -170.3 0.999942 -80.43 0.999942 -80.43 0.010349 -170.5
8.65380000 0.010356 -170.3 0.999942 -80.43 0.999942 -80.43 0.010356 -170.5
8.65390000 0.010363 -170.3 0.999942 -80.43 0.999942 -80.43 0.010363 -170.5
8.65400000 0.010371 -170.3 0.999942 -80.43 0.999942 -80.43 0.010371 -170.5
8.65410000 0.010378 -170.4 0.999942 -80.43 0.999942 -80.43 0.010378 -170.6
8.65420000 0.010385 -170.4 0.999941 -80.43 0.999941 -80.43 0.010385 -170.6
8.65430000 0.010393 -170.4 0.999941 -80.43 0.999941 -80.43 0.010393 -170.6
8.65440000 0.010400 -170.4 0.999941 -80.44 0.999941 -80.44 0.010400 -170.6
8.65450000 0.010408 -170.4 0.999941 -80.44 0.999941 -80.44 0.010408 -170.6
8.65460000 0.010415 -170.4 0.999941 -80.44 0.999941 -80.44 0.010415 -170.6
8.65470000 0.010422 -170.4 0.999941 -80.44 0.999941 -80.44 0.010422 -170.6
8.65480000 0.010430 -170.4 0.999941 -80.44 0.999941 -80.44 0.010430 -170.6
8.65490000 0.010437 -170.4 0.999941 -80.44 0.999941 -80.44 0.010437 -170.6
8.65500000 0.010444 -170.4 0.999941 -80.44 0.999941 -80.44 0.010444 -170.6
8.65510000 0.010452 -170.4 0.999941 -80.44 0.999941 -80.44 0.010452 -170.6
8.65520000 0.010459 -170.4 0.999941 -80.45 0.999941 -80.45 0.010459 -170.6
8.65530000 0.010467 -170.4 0.999941 -80.45 0.999941 -80.45 0.010467 -170.6
8.65540000 0.010474 -170.4 0.999941 -80.45 0.999941 -80.45 0.010474 -170.6
8.65550000 0.010481 -170.4 0.999940 -80.45 0.999940 -80.45 0.010481 -170.6
8.65560000 0.010489 -170.4 0.999940 -80.45 0.999940 -80.45 0.010489 -170.6
8.65570000 0.010496 -170.4 0.999940 -80.45 0.999940 -80.45 0.010496 -170.6
8.65580000 0.010504 -170.4 0.999940 -80.45 0.999940 -80.45 0.010504 -170.6
8.65590000 0.010511 -170.4 0.999940 -80.46 0.999940 -80.46 0.010511 -170.6
8.65600000 0.010519 -170.4 0.999940 -80.46 0.999940 -80.46 0.010519 -170.6
8.65610000 0.010526 -170.4 0.999940 -80.46 0.999940 -80.46 0.010526 -170.6
8.65620000 0.010534 -170.4 0.999940 -80.46 0.999940 -80.46 0.010534 -170.6
8.65630000 0.010541 -170.4 0.999940 -80.46 0.999940 -80.46 0.010541 -170.6
8.65640000 0.010549 -170.4 0.999940 -80.46 0.999940 -80.46 0.010549 -170.6
8.65650000 0.010556 -170.4 0.999940 -80.46 0.999940 -80.46 0.010556 -170.6
8.65660000 0.010564 -170.4 0.999940 -80.46 0.999940 -80.46 0.010564 -170.6
8.65670000 0.010571 -170.4 0.999939 -80.47 0.999939 -80.47 0.010571 -170.6
8.65680000 0.010579 -170.4 0.999939 -80.47 0.999939 -80.47 0.010579 -170.6
8.65690000 0.010586 -170.4 0.999939 -80.47 0.999939 -80.47 0.010586 -170.6
8.65700000 0.010594 -170.4 0.999939 -80.47 0.999939 -80.47 0.010594 -170.6
8.65710000 0.010601 -170.4 0.999939 -80.47 0.999939 -80.47 0.010601 -170.6
8.65720000 0.010609 -170.4 0.999939 -80.47 0.999939 -80.47 0.010609 -170.6
8.65730000 0.010616 -170.4 0.999939 -80.47 0.999939 -80.47 0.010616 -170.6
8.65740000 0.010624 -170.4 0.999939 -80.48 0.999939 -80.48 0.010624 -170.6
8.65750000 0.010631 -170.4 0.999939 -80.48 0.999939 -80.48 0.010631 -170.6
8.65760000 0.010639 -170.4 0.999939 -80.48 0.999939 -80.48 0.010639 -170.6
8.65770000 0.010646 -170.4 0.999939 -80.48 0.999939 -80.48 0.010646 -170.6
8.65780000 0.010654 -170.4 0.999939 -80.48 0.999939 -80.48 0.010654 -170.6
8.65790000 0.010662 -170.4 0.999939 -80.48 0.999939 -80.48 0.010662 -170.6
8.65800000 0.010669 -170.4 0.999938 -80.48 0.999938 -80.48 0.010669 -170.6
8.65810000 0.010677 -170.4 0.999938 -80.49 0.999938 -80.49 0.010677 -170.6
8.65820000 0.010684 -170.4 0.999938 -80.49 0.999938 -80.49 0.010684 -170.6
8.65830000 0.010692 -170.4 0.999938 -80.49 0.999938 -80.49 0.010692 -170.6
8.65840000 0.010700 -170.4 0.999938 -80.49 0.999938 -80.49 0.010700 -170.6
8.65850000 0.010707 -170.4 0.999938 -80.49 0.999938 -80.49 0.010707 -170.6
8.65860000 0.010715 -170.4 0.999938 -80.49 0.999938 -80.49 0.010715 -170.6
8.65870000 0.010722 -170.4 0.999938 -80.49 0.999938 -80.49 0.010722 -170.6
8.65880000 0.010730 -170.4 0.999938 -80.49 0.999938 -80.49 0.010730 -170.6
8.65890000 0.010738 -170.4 0.999938 -80.50 0.999938 -80.50 0.010738 -170.6
8.65900000 0.010745 -170.4 0.999938 -80.50 0.999938 -80.50 0.010745 -170.6
8.65910000 0.010753 -170.4 0.999938 -80.50 0.999938 -80.50 0.010753 -170.6
8.65920000 0.010761 -170.4 0.999937 -80.50 0.999937 -80.50 0.010761 -170.6
8.65930000 0.010768 -170.4 0.999937 -80.50 0.999937 -80.50 0.010768 -170.6
8.65940000 0.010776 -170.4 0.999937 -80.50 0.999937 -80.50 0.010776 -170.6
8.65950000 0.010784 -170.4 0.999937 -80.50 0.999937 -80.50 0.010784 -170.6
8.65960000 0.010791 -170.4 0.999937 -80.51 0.999937 -80.51 0.010791 -170.6
8.65970000 0.010799 -170.4 0.999937 -80.51 0.999937 -80.51 0.010799 -170.6
8.65980000 0.010807 -170.4 0.999937 -80.51 0.999937 -80.51 0.010807 -170.6
8.65990000 0.010815 -170.4 0.999937 -80.51 0.999937 -80.51 0.010815 -170.6
8.66000000 0.010822 -170.4 0.999937 -80.51 0.999937 -80.51 0.010822 -170.6
8.66010000 0.010830 -170.4 0.999937 -80.51 0.999937 -80.51 0.010830 -170.6
8.66020000 0.010838 -170.4 0.999937 -80.51 0.999937 -80.51 0.010838 -170.6
8.66030000 0.010845 -170.4 0.999937 -80.52 0.999937 -80.52 0.010845 -170.6
8.66040000 0.010853 -170.4 0.999936 -80.52 0.999936 -80.52 0.010853 -170.6
8.66050000 0.010861 -170.4 0.999936 -80.52 0.999936 -80.52 0.010861 -170.6
8.66060000 0.010869 -170.4 0.999936 -80.52 0.999936 -80.52 0.010869 -170.6
8.66070000 0.010876 -170.4 0.999936 -80.52 0.999936 -80.52 0.010876 -170.6
8.66080000 0.010884 -170.4 0.999936 -80.52 0.999936 -80.52 0.010884 -170.6
8.66090000 0.010892 -170.4 0.999936 -80.52 0.999936 -80.52 0.010892 -170.7
8.66100000 0.010900 -170.4 0.999936 -80.52 0.999936 -80.52 0.010900 -170.7
8.66110000 0.010908 -170.4 0.999936 -80.53 0.999936 -80.53 0.010908 -170.7
8.66120000 0.010915 -170.4 0.999936 -80.53 0.999936 -80.53 0.010915 -170.7
8.66130000 0.010923 -170.4 0.999936 -80.53 0.999936 -80.53 0.010923 -170.7
8.66140000 0.010931 -170.4 0.999936 -80.53 0.999936 -80.53 0.010931 -170.7
8.66150000 0.010939 -170.4 0.999935 -80.53 0.999935 -80.53 0.010939 -170.7
8.66160000 0.010947 -170.4 0.999935 -80.53 0.999935 -80.53 0.010947 -170.7
8.66170000 0.010954 -170.4 0.999935 -80.53 0.999935 -80.53 0.010954 -170.7
8.66180000 0.010962 -170.4 0.999935 -80.54 0.999935 -80.54 0.010962 -170.7
8.66190000 0.010970 -170.4 0.999935 -80.54 0.999935 -80.54 0.010970 -170.7
8.66200000 0.010978 -170.4 0.999935 -80.54 0.999935 -80.54 0.010978 -170.7
8.66210000 0.010986 -170.4 0.999935 -80.54 0.999935 -80.54 0.010986 -170.7
8.66220000 0.010994 -170.4 0.999935 -80.54 0.999935 -80.54 0.010994 -170.7
8.66230000 0.011002 -170.5 0.999935 -80.54 0.999935 -80.54 0.011002 -170.7
8.66240000 0.011009 -170.5 0.999935 -80.54 0.999935 -80.54 0.011009 -170.7
8.66250000 0.011017 -170.5 0.999935 -80.55 0.999935 -80.55 0.011017 -170.7
8.66260000 0.011025 -170.5 0.999935 -80.55 0.999935 -80.55 0.011025 -170.7
8.66270000 0.011033 -170.5 0.999934 -80.55 0.999934 -80.55 0.011033 -170.7
8.66280000 0.011041 -170.5 0.999934 -80.55 0.999934 -80.55 0.011041 -170.7
8.66290000 0.011049 -170.5 0.999934 -80.55 0.999934 -80.55 0.011049 -170.7
8.66300000 0.011057 -170.5 0.999934 -80.55 0.999934 -80.55 0.011057 -170.7
8.66310000 0.011065 -170.5 0.999934 -80.55 0.999934 -80.55 0.011065 -170.7
8.66320000 0.011073 -170.5 0.999934 -80.56 0.999934 -80.56 0.011073 -170.7
8.66330000 0.011081 -170.5 0.999934 -80.56 0.999934 -80.56 0.011081 -170.7
8.66340000 0.011089 -170.5 0.999934 -80.56 0.999934 -80.56 0.011089 -170.7
8.66350000 0.011097 -170.5 0.999934 -80.56 0.999934 -80.56 0.011097 -170.7
8.66360000 0.011105 -170.5 0.999934 -80.56 0.999934 -80.56 0.011105 -170.7
8.66370000 0.011113 -170.5 0.999934 -80.56 0.999934 -80.56 0.011113 -170.7
8.66380000 0.011120 -170.5 0.999933 -80.56 0.999933 -80.56 0.011120 -170.7
8.66390000 0.011128 -170.5 0.999933 -80.56 0.999933 -80.56 0.011128 -170.7
8.66400000 0.011136 -170.5 0.999933 -80.57 0.999933 -80.57 0.011136 -170.7
8.66410000 0.011144 -170.5 0.999933 -80.57 0.999933 -80.57 0.011144 -170.7
8.66420000 0.011152 -170.5 0.999933 -80.57 0.999933 -80.57 0.011152 -170.7
8.66430000 0.011160 -170.5 0.999933 -80.57 0.999933 -80.57 0.011160 -170.7
8.66440000 0.011168 -170.5 0.999933 -80.57 0.999933 -80.57 0.011168 -170.7
8.66450000 0.011177 -170.5 0.999933 -80.57 0.999933 -80.57 0.011177 -170.7
8.66460000 0.011185 -170.5 0.999933 -80.57 0.999933 -80.57 0.011185 -170.7
8.66470000 0.011193 -170.5 0.999933 -80.58 0.999933 -80.58 0.011193 -170.7
8.66480000 0.011201 -170.5 0.999933 -80.58 0.999933 -80.58 0.011201 -170.7
8.66490000 0.011209 -170.5 0.999932 -80.58 0.999932 -80.58 0.011209 -170.7
8.66500000 0.011217 -170.5 0.999932 -80.58 0.999932 -80.58 0.011217 -170.7
8.66510000 0.011225 -170.5 0.999932 -80.58 0.999932 -80.58 0.011225 -170.7
8.66520000 0.011233 -170.5 0.999932 -80.58 0.999932 -80.58 0.011233 -170.7
8.66530000 0.011241 -170.5 0.999932 -80.58 0.999932 -80.58 0.011241 -170.7
8.66540000 0.011249 -170.5 0.999932 -80.59 0.999932 -80.59 0.011249 -170.7
8.66550000 0.011257 -170.5 0.999932 -80.59 0.999932 -80.59 0.011257 -170.7
8.66560000 0.011265 -170.5 0.999932 -80.59 0.999932 -80.59 0.011265 -170.7
8.66570000 0.011273 -170.5 0.999932 -80.59 0.999932 -80.59 0.011273 -170.7
8.66580000 0.011281 -170.5 0.999932 -80.59 0.999932 -80.59 0.011281 -170.7
8.66590000 0.011290 -170.5 0.999932 -80.59 0.999932 -80.59 0.011290 -170.7
8.66600000 0.011298 -170.5 0.999931 -80.59 0.999931 -80.59 0.011298 -170.7
8.66610000 0.011306 -170.5 0.999931 -80.60 0.999931 -80.60 0.011306 -170.7
8.66620000 0.011314 -170.5 0.999931 -80.60 0.999931 -80.60 0.011314 -170.7
8.66630000 0.011322 -170.5 0.999931 -80.60 0.999931 -80.60 0.011322 -170.7
8.66640000 0.011330 -170.5 0.999931 -80.60 0.999931 -80.60 0.011330 -170.7
8.66650000 0.011339 -170.5 0.999931 -80.60 0.999931 -80.60 0.011339 -170.7
8.66660000 0.011347 -170.5 0.999931 -80.60 0.999931 -80.60 0.011347 -170.7
8.66670000 0.011355 -170.5 0.999931 -80.60 0.999931 -80.60 0.011355 -170.7
8.66680000 0.011363 -170.5 0.999931 -80.61 0.999931 -80.61 0.011363 -170.7
8.66690000 0.011371 -170.5 0.999931 -80.61 0.999931 -80.61 0.011371 -170.7
8.66700000 0.011379 -170.5 0.999930 -80.61 0.999930 -80.61 0.011379 -170.7
8.66710000 0.011388 -170.5 0.999930 -80.61 0.999930 -80.61 0.011388 -170.7
8.66720000 0.011396 -170.5 0.999930 -80.61 0.999930 -80.61 0.011396 -170.7
8.66730000 0.011404 -170.5 0.999930 -80.61 0.999930 -80.61 0.011404 -170.7
8.66740000 0.011412 -170.5 0.999930 -80.61 0.999930 -80.61 0.011412 -170.7
8.66750000 0.011421 -170.5 0.999930 -80.61 0.999930 -80.61 0.011421 -170.8
8.66760000 0.011429 -170.5 0.999930 -80.62 0.999930 -80.62 0.011429 -170.8
8.66770000 0.011437 -170.5 0.999930 -80.62 0.999930 -80.62 0.011437 -170.8
8.66780000 0.011445 -170.5 0.999930 -80.62 0.999930 -80.62 0.011445 -170.8
8.66790000 0.011454 -170.5 0.999930 -80.62 0.999930 -80.62 0.011454 -170.8
8.66800000 0.011462 -170.5 0.999930 -80.62 0.999930 -80.62 0.011462 -170.8
8.66810000 0.011470 -170.5 0.999929 -80.62 0.999929 -80.62 0.011470 -170.8
8.66820000 0.011479 -170.5 0.999929 -80.62 0.999929 -80.62 0.011479 -170.8
8.66830000 0.011487 -170.5 0.999929 -80.63 0.999929 -80.63 0.011487 -170.8
8.66840000 0.011495 -170.5 0.999929 -80.63 0.999929 -80.63 0.011495 -170.8
8.66850000 0.011503 -170.5 0.999929 -80.63 0.999929 -80.63 0.011503 -170.8
8.66860000 0.011512 -170.5 0.999929 -80.63 0.999929 -80.63 0.011512 -170.8
8.66870000 0.011520 -170.5 0.999929 -80.63 0.999929 -80.63 0.011520 -170.8
8.66880000 0.011528 -170.5 0.999929 -80.63 0.999929 -80.63 0.011528 -170.8
8.66890000 0.011537 -170.5 0.999929 -80.63 0.999929 -80.63 0.011537 -170.8
8.66900000 0.011545 -170.5 0.999929 -80.64 0.999929 -80.64 0.011545 -170.8
8.66910000 0.011553 -170.5 0.999928 -80.64 0.999928 -80.64 0.011553 -170.8
8.66920000 0.011562 -170.5 0.999928 -80.64 0.999928 -80.64 0.011562 -170.8
8.66930000 0.011570 -170.5 0.999928 -80.64 0.999928 -80.64 0.011570 -170.8
8.66940000 0.011579 -170.5 0.999928 -80.64 0.999928 -80.64 0.011579 -170.8
8.66950000 0.011587 -170.5 0.999928 -80.64 0.999928 -80.64 0.011587 -170.8
8.66960000 0.011595 -170.5 0.999928 -80.64 0.999928 -80.64 0.011595 -170.8
8.66970000 0.011604 -170.5 0.999928 -80.65 0.999928 -80.65 0.011604 -170.8
8.66980000 0.011612 -170.5 0.999928 -80.65 0.999928 -80.65 0.011612 -170.8
8.66990000 0.011621 -170.5 0.999928 -80.65 0.999928 -80.65 0.011621 -170.8
8.67000000 0.011629 -170.5 0.999928 -80.65 0.999928 -80.65 0.011629 -170.8
8.67010000 0.011638 -170.5 0.999927 -80.65 0.999927 -80.65 0.011638 -170.8
8.67020000 0.011646 -170.5 0.999927 -80.65 0.999927 -80.65 0.011646 -170.8
8.67030000 0.011654 -170.6 0.999927 -80.65 0.999927 -80.65 0.011654 -170.8
8.67040000 0.011663 -170.6 0.999927 -80.66 0.999927 -80.66 0.011663 -170.8
8.67050000 0.011671 -170.6 0.999927 -80.66 0.999927 -80.66 0.011671 -170.8
8.67060000 0.011680 -170.6 0.999927 -80.66 0.999927 -80.66 0.011680 -170.8
8.67070000 0.011688 -170.6 0.999927 -80.66 0.999927 -80.66 0.011688 -170.8
8.67080000 0.011697 -170.6 0.999927 -80.66 0.999927 -80.66 0.011697 -170.8
8.67090000 0.011705 -170.6 0.999927 -80.66 0.999927 -80.66 0.011705 -170.8
8.67100000 0.011714 -170.6 0.999927 -80.66 0.999927 -80.66 0.011714 -170.8
8.67110000 0.011722 -170.6 0.999926 -80.67 0.999926 -80.67 0.011722 -170.8
8.67120000 0.011731 -170.6 0.999926 -80.67 0.999926 -80.67 0.011731 -170.8
8.67130000 0.011739 -170.6 0.999926 -80.67 0.999926 -80.67 0.011739 -170.8
8.67140000 0.011748 -170.6 0.999926 -80.67 0.999926 -80.67 0.011748 -170.8
8.67150000 0.011756 -170.6 0.999926 -80.67 0.999926 -80.67 0.011756 -170.8
8.67160000 0.011765 -170.6 0.999926 -80.67 0.999926 -80.67 0.011765 -170.8
8.67170000 0.011774 -170.6 0.999926 -80.67 0.999926 -80.67 0.011774 -170.8
8.67180000 0.011782 -170.6 0.999926 -80.68 0.999926 -80.68 0.011782 -170.8
8.67190000 0.011791 -170.6 0.999926 -80.68 0.999926 -80.68 0.011791 -170.8
8.67200000 0.011799 -170.6 0.999926 -80.68 0.999926 -80.68 0.011799 -170.8
8.67210000 0.011808 -170.6 0.999925 -80.68 0.999925 -80.68 0.011808 -170.8
8.67220000 0.011816 -170.6 0.999925 -80.68 0.999925 -80.68 0.011816 -170.8
8.67230000 0.011825 -170.6 0.999925 -80.68 0.999925 -80.68 0.011825 -170.8
8.67240000 0.011834 -170.6 0.999925 -80.68 0.999925 -80.68 0.011834 -170.8
8.67250000 0.011842 -170.6 0.999925 -80.69 0.999925 -80.69 0.011842 -170.8
8.67260000 0.011851 -170.6 0.999925 -80.69 0.999925 -80.69 0.011851 -170.8
8.67270000 0.011860 -170.6 0.999925 -80.69 0.999925 -80.69 0.011860 -170.8
8.67280000 0.011868 -170.6 0.999925 -80.69 0.999925 -80.69 0.011868 -170.8
8.67290000 0.011877 -170.6 0.999925 -80.69 0.999925 -80.69 0.011877 -170.8
8.67300000 0.011886 -170.6 0.999924 -80.69 0.999924 -80.69 0.011886 -170.8
8.67310000 0.011894 -170.6 0.999924 -80.69 0.999924 -80.69 0.011894 -170.8
8.67320000 0.011903 -170.6 0.999924 -80.70 0.999924 -80.70 0.011903 -170.8
8.67330000 0.011912 -170.6 0.999924 -80.70 0.999924 -80.70 0.011912 -170.8
8.67340000 0.011920 -170.6 0.999924 -80.70 0.999924 -80.70 0.011920 -170.8
8.67350000 0.011929 -170.6 0.999924 -80.70 0.999924 -80.70 0.011929 -170.8
8.67360000 0.011938 -170.6 0.999924 -80.70 0.999924 -80.70 0.011938 -170.8
8.67370000 0.011946 -170.6 0.999924 -80.70 0.999924 -80.70 0.011946 -170.8
8.67380000 0.011955 -170.6 0.999924 -80.70 0.999924 -80.70 0.011955 -170.8
8.67390000 0.011964 -170.6 0.999924 -80.71 0.999924 -80.71 0.011964 -170.8
8.67400000 0.011973 -170.6 0.999923 -80.71 0.999923 -80.71 0.011973 -170.9
8.67410000 0.011981 -170.6 0.999923 -80.71 0.999923 -80.71 0.011981 -170.9
8.67420000 0.011990 -170.6 0.999923 -80.71 0.999923 -80.71 0.011990 -170.9
8.67430000 0.011999 -170.6 0.999923 -80.71 0.999923 -80.71 0.011999 -170.9
8.67440000 0.012008 -170.6 0.999923 -80.71 0.999923 -80.71 0.012008 -170.9
8.67450000 0.012016 -170.6 0.999923 -80.71 0.999923 -80.71 0.012016 -170.9
8.67460000 0.012025 -170.6 0.999923 -80.72 0.999923 -80.72 0.012025 -170.9
8.67470000 0.012034 -170.6 0.999923 -80.72 0.999923 -80.72 0.012034 -170.9
8.67480000 0.012043 -170.6 0.999923 -80.72 0.999923 -80.72 0.012043 -170.9
8.67490000 0.012052 -170.6 0.999922 -80.72 0.999922 -80.72 0.012052 -170.9
8.67500000 0.012060 -170.6 0.999922 -80.72 0.999922 -80.72 0.012060 -170.9
8.67510000 0.012069 -170.6 0.999922 -80.72 0.999922 -80.72 0.012069 -170.9
8.67520000 0.012078 -170.6 0.999922 -80.72 0.999922 -80.72 0.012078 -170.9
8.67530000 0.012087 -170.6 0.999922 -80.73 0.999922 -80.73 0.012087 -170.9
8.67540000 0.012096 -170.6 0.999922 -80.73 0.999922 -80.73 0.012096 -170.9
8.67550000 0.012105 -170.6 0.999922 -80.73 0.999922 -80.73 0.012105 -170.9
8.67560000 0.012114 -170.6 0.999922 -80.73 0.999922 -80.73 0.012114 -170.9
8.67570000 0.012122 -170.6 0.999922 -80.73 0.999922 -80.73 0.012122 -170.9
8.67580000 0.012131 -170.6 0.999921 -80.73 0.999921 -80.73 0.012131 -170.9
8.67590000 0.012140 -170.6 0.999921 -80.73 0.999921 -80.73 0.012140 -170.9
8.67600000 0.012149 -170.6 0.999921 -80.74 0.999921 -80.74 0.012149 -170.9
8.67610000 0.012158 -170.6 0.999921 -80.74 0.999921 -80.74 0.012158 -170.9
8.67620000 0.012167 -170.6 0.999921 -80.74 0.999921 -80.74 0.012167 -170.9
8.67630000 0.012176 -170.6 0.999921 -80.74 0.999921 -80.74 0.012176 -170.9
8.67640000 0.012185 -170.6 0.999921 -80.74 0.999921 -80.74 0.012185 -170.9
8.67650000 0.012194 -170.6 0.999921 -80.74 0.999921 -80.74 0.012194 -170.9
8.67660000 0.012203 -170.6 0.999921 -80.74 0.999921 -80.74 0.012203 -170.9
8.67670000 0.012212 -170.6 0.999920 -80.75 0.999920 -80.75 0.012212 -170.9
8.67680000 0.012221 -170.6 0.999920 -80.75 0.999920 -80.75 0.012221 -170.9
8.67690000 0.012230 -170.6 0.999920 -80.75 0.999920 -80.75 0.012230 -170.9
8.67700000 0.012239 -170.6 0.999920 -80.75 0.999920 -80.75 0.012239 -170.9
8.67710000 0.012248 -170.6 0.999920 -80.75 0.999920 -80.75 0.012248 -170.9
8.67720000 0.012257 -170.6 0.999920 -80.75 0.999920 -80.75 0.012257 -170.9
8.67730000 0.012266 -170.6 0.999920 -80.75 0.999920 -80.75 0.012266 -170.9
8.67740000 0.012275 -170.6 0.999920 -80.76 0.999920 -80.76 0.012275 -170.9
8.67750000 0.012284 -170.6 0.999920 -80.76 0.999920 -80.76 0.012284 -170.9
8.67760000 0.012293 -170.6 0.999919 -80.76 0.999919 -80.76 0.012293 -170.9
8.67770000 0.012302 -170.6 0.999919 -80.76 0.999919 -80.76 0.012302 -170.9
8.67780000 0.012311 -170.6 0.999919 -80.76 0.999919 -80.76 0.012311 -170.9
8.67790000 0.012320 -170.6 0.999919 -80.76 0.999919 -80.76 0.012320 -170.9
8.67800000 0.012329 -170.7 0.999919 -80.76 0.999919 -80.76 0.012329 -170.9
8.67810000 0.012338 -170.7 0.999919 -80.77 0.999919 -80.77 0.012338 -170.9
8.67820000 0.012347 -170.7 0.999919 -80.77 0.999919 -80.77 0.012347 -170.9
8.67830000 0.012356 -170.7 0.999919 -80.77 0.999919 -80.77 0.012356 -170.9
8.67840000 0.012365 -170.7 0.999919 -80.77 0.999919 -80.77 0.012365 -170.9
8.67850000 0.012374 -170.7 0.999918 -80.77 0.999918 -80.77 0.012374 -170.9
8.67860000 0.012384 -170.7 0.999918 -80.77 0.999918 -80.77 0.012384 -170.9
8.67870000 0.012393 -170.7 0.999918 -80.77 0.999918 -80.77 0.012393 -170.9
8.67880000 0.012402 -170.7 0.999918 -80.78 0.999918 -80.78 0.012402 -170.9
8.67890000 0.012411 -170.7 0.999918 -80.78 0.999918 -80.78 0.012411 -170.9
8.67900000 0.012420 -170.7 0.999918 -80.78 0.999918 -80.78 0.012420 -170.9
8.67910000 0.012429 -170.7 0.999918 -80.78 0.999918 -80.78 0.012429 -170.9
8.67920000 0.012438 -170.7 0.999918 -80.78 0.999918 -80.78 0.012438 -170.9
8.67930000 0.012448 -170.7 0.999918 -80.78 0.999918 -80.78 0.012448 -170.9
8.67940000 0.012457 -170.7 0.999917 -80.78 0.999917 -80.78 0.012457 -170.9
8.67950000 0.012466 -170.7 0.999917 -80.79 0.999917 -80.79 0.012466 -170.9
8.67960000 0.012475 -170.7 0.999917 -80.79 0.999917 -80.79 0.012475 -170.9
8.67970000 0.012484 -170.7 0.999917 -80.79 0.999917 -80.79 0.012484 -170.9
8.67980000 0.012494 -170.7 0.999917 -80.79 0.999917 -80.79 0.012494 -170.9
8.67990000 0.012503 -170.7 0.999917 -80.79 0.999917 -80.79 0.012503 -170.9
8.68000000 0.012512 -170.7 0.999917 -80.79 0.999917 -80.79 0.012512 -170.9
8.68010000 0.012521 -170.7 0.999917 -80.79 0.999917 -80.79 0.012521 -170.9
8.68020000 0.012531 -170.7 0.999916 -80.80 0.999916 -80.80 0.012531 -170.9
8.68030000 0.012540 -170.7 0.999916 -80.80 0.999916 -80.80 0.012540 -170.9
8.68040000 0.012549 -170.7 0.999916 -80.80 0.999916 -80.80 0.012549 -171.0
8.68050000 0.012559 -170.7 0.999916 -80.80 0.999916 -80.80 0.012559 -171.0
8.68060000 0.012568 -170.7 0.999916 -80.80 0.999916 -80.80 0.012568 -171.0
8.68070000 0.012577 -170.7 0.999916 -80.80 0.999916 -80.80 0.012577 -171.0
8.68080000 0.012586 -170.7 0.999916 -80.80 0.999916 -80.80 0.012586 -171.0
8.68090000 0.012596 -170.7 0.999916 -80.81 0.999916 -80.81 0.012596 -171.0
8.68100000 0.012605 -170.7 0.999916 -80.81 0.999916 -80.81 0.012605 -171.0
8.68110000 0.012614 -170.7 0.999915 -80.81 0.999915 -80.81 0.012614 -171.0
8.68120000 0.012624 -170.7 0.999915 -80.81 0.999915 -80.81 0.012624 -171.0
8.68130000 0.012633 -170.7 0.999915 -80.81 0.999915 -80.81 0.012633 -171.0
8.68140000 0.012642 -170.7 0.999915 -80.81 0.999915 -80.81 0.012642 -171.0
8.68150000 0.012652 -170.7 0.999915 -80.82 0.999915 -80.82 0.012652 -171.0
8.68160000 0.012661 -170.7 0.999915 -80.82 0.999915 -80.82 0.012661 -171.0
8.68170000 0.012671 -170.7 0.999915 -80.82 0.999915 -80.82 0.012671 -171.0
8.68180000 0.012680 -170.7 0.999915 -80.82 0.999915 -80.82 0.012680 -171.0
8.68190000 0.012689 -170.7 0.999914 -80.82 0.999914 -80.82 0.012689 -171.0
8.68200000 0.012699 -170.7 0.999914 -80.82 0.999914 -80.82 0.012699 -171.0
8.68210000 0.012708 -170.7 0.999914 -80.82 0.999914 -80.82 0.012708 -171.0
8.68220000 0.012718 -170.7 0.999914 -80.83 0.999914 -80.83 0.012718 -171.0
8.68230000 0.012727 -170.7 0.999914 -80.83 0.999914 -80.83 0.012727 -171.0
8.68240000 0.012737 -170.7 0.999914 -80.83 0.999914 -80.83 0.012737 -171.0
8.68250000 0.012746 -170.7 0.999914 -80.83 0.999914 -80.83 0.012746 -171.0
8.68260000 0.012756 -170.7 0.999914 -80.83 0.999914 -80.83 0.012756 -171.0
8.68270000 0.012765 -170.7 0.999913 -80.83 0.999913 -80.83 0.012765 -171.0
8.68280000 0.012775 -170.7 0.999913 -80.83 0.999913 -80.83 0.012775 -171.0
8.68290000 0.012784 -170.7 0.999913 -80.84 0.999913 -80.84 0.012784 -171.0
8.68300000 0.012794 -170.7 0.999913 -80.84 0.999913 -80.84 0.012794 -171.0
8.68310000 0.012803 -170.7 0.999913 -80.84 0.999913 -80.84 0.012803 -171.0
8.68320000 0.012813 -170.7 0.999913 -80.84 0.999913 -80.84 0.012813 -171.0
8.68330000 0.012822 -170.7 0.999913 -80.84 0.999913 -80.84 0.012822 -171.0
8.68340000 0.012832 -170.7 0.999913 -80.84 0.999913 -80.84 0.012832 -171.0
8.68350000 0.012841 -170.7 0.999912 -80.84 0.999912 -80.84 0.012841 -171.0
8.68360000 0.012851 -170.7 0.999912 -80.85 0.999912 -80.85 0.012851 -171.0
8.68370000 0.012860 -170.7 0.999912 -80.85 0.999912 -80.85 0.012860 -171.0
8.68380000 0.012870 -170.7 0.999912 -80.85 0.999912 -80.85 0.012870 -171.0
8.68390000 0.012880 -170.7 0.999912 -80.85 0.999912 -80.85 0.012880 -171.0
8.68400000 0.012889 -170.7 0.999912 -80.85 0.999912 -80.85 0.012889 -171.0
8.68410000 0.012899 -170.7 0.999912 -80.85 0.999912 -80.85 0.012899 -171.0
8.68420000 0.012908 -170.7 0.999912 -80.85 0.999912 -80.85 0.012908 -171.0
8.68430000 0.012918 -170.7 0.999911 -80.86 0.999911 -80.86 0.012918 -171.0
8.68440000 0.012928 -170.7 0.999911 -80.86 0.999911 -80.86 0.012928 -171.0
8.68450000 0.012937 -170.7 0.999911 -80.86 0.999911 -80.86 0.012937 -171.0
8.68460000 0.012947 -170.7 0.999911 -80.86 0.999911 -80.86 0.012947 -171.0
8.68470000 0.012957 -170.7 0.999911 -80.86 0.999911 -80.86 0.012957 -171.0
8.68480000 0.012966 -170.7 0.999911 -80.86 0.999911 -80.86 0.012966 -171.0
8.68490000 0.012976 -170.7 0.999911 -80.87 0.999911 -80.87 0.012976 -171.0
8.68500000 0.012986 -170.7 0.999911 -80.87 0.999911 -80.87 0.012986 -171.0
8.68510000 0.012995 -170.7 0.999910 -80.87 0.999910 -80.87 0.012995 -171.0
8.68520000 0.013005 -170.7 0.999910 -80.87 0.999910 -80.87 0.013005 -171.0
8.68530000 0.013015 -170.7 0.999910 -80.87 0.999910 -80.87 0.013015 -171.0
8.68540000 0.013025 -170.7 0.999910 -80.87 0.999910 -80.87 0.013025 -171.0
8.68550000 0.013034 -170.8 0.999910 -80.87 0.999910 -80.87 0.013034 -171.0
8.68560000 0.013044 -170.8 0.999910 -80.88 0.999910 -80.88 0.013044 -171.0
8.68570000 0.013054 -170.8 0.999910 -80.88 0.999910 -80.88 0.013054 -171.0
8.68580000 0.013064 -170.8 0.999910 -80.88 0.999910 -80.88 0.013064 -171.0
8.68590000 0.013073 -170.8 0.999909 -80.88 0.999909 -80.88 0.013073 -171.0
8.68600000 0.013083 -170.8 0.999909 -80.88 0.999909 -80.88 0.013083 -171.0
8.68610000 0.013093 -170.8 0.999909 -80.88 0.999909 -80.88 0.013093 -171.0
8.68620000 0.013103 -170.8 0.999909 -80.88 0.999909 -80.88 0.013103 -171.0
8.68630000 0.013113 -170.8 0.999909 -80.89 0.999909 -80.89 0.013113 -171.0
8.68640000 0.013122 -170.8 0.999909 -80.89 0.999909 -80.89 0.013122 -171.0
8.68650000 0.013132 -170.8 0.999909 -80.89 0.999909 -80.89 0.013132 -171.0
8.68660000 0.013142 -170.8 0.999909 -80.89 0.999909 -80.89 0.013142 -171.0
8.68670000 0.013152 -170.8 0.999908 -80.89 0.999908 -80.89 0.013152 -171.1
8.68680000 0.013162 -170.8 0.999908 -80.89 0.999908 -80.89 0.013162 -171.1
8.68690000 0.013172 -170.8 0.999908 -80.89 0.999908 -80.89 0.013172 -171.1
8.68700000 0.013182 -170.8 0.999908 -80.90 0.999908 -80.90 0.013182 -171.1
8.68710000 0.013191 -170.8 0.999908 -80.90 0.999908 -80.90 0.013191 -171.1
8.68720000 0.013201 -170.8 0.999908 -80.90 0.999908 -80.90 0.013201 -171.1
8.68730000 0.013211 -170.8 0.999908 -80.90 0.999908 -80.90 0.013211 -171.1
8.68740000 0.013221 -170.8 0.999907 -80.90 0.999907 -80.90 0.013221 -171.1
8.68750000 0.013231 -170.8 0.999907 -80.90 0.999907 -80.90 0.013231 -171.1
8.68760000 0.013241 -170.8 0.999907 -80.91 0.999907 -80.91 0.013241 -171.1
8.68770000 0.013251 -170.8 0.999907 -80.91 0.999907 -80.91 0.013251 -171.1
8.68780000 0.013261 -170.8 0.999907 -80.91 0.999907 -80.91 0.013261 -171.1
8.68790000 0.013271 -170.8 0.999907 -80.91 0.999907 -80.91 0.013271 -171.1
8.68800000 0.013281 -170.8 0.999907 -80.91 0.999907 -80.91 0.013281 -171.1
8.68810000 0.013291 -170.8 0.999907 -80.91 0.999907 -80.91 0.013291 -171.1
8.68820000 0.013301 -170.8 0.999906 -80.91 0.999906 -80.91 0.013301 -171.1
8.68830000 0.013311 -170.8 0.999906 -80.92 0.999906 -80.92 0.013311 -171.1
8.68840000 0.013321 -170.8 0.999906 -80.92 0.999906 -80.92 0.013321 -171.1
8.68850000 0.013331 -170.8 0.999906 -80.92 0.999906 -80.92 0.013331 -171.1
8.68860000 0.013341 -170.8 0.999906 -80.92 0.999906 -80.92 0.013341 -171.1
8.68870000 0.013351 -170.8 0.999906 -80.92 0.999906 -80.92 0.013351 -171.1
8.68880000 0.013361 -170.8 0.999906 -80.92 0.999906 -80.92 0.013361 -171.1
8.68890000 0.013371 -170.8 0.999905 -80.92 0.999905 -80.92 0.013371 -171.1
8.68900000 0.013381 -170.8 0.999905 -80.93 0.999905 -80.93 0.013381 -171.1
8.68910000 0.013391 -170.8 0.999905 -80.93 0.999905 -80.93 0.013391 -171.1
8.68920000 0.013401 -170.8 0.999905 -80.93 0.999905 -80.93 0.013402 -171.1