! Sonnet Data File
! From: emgraph Version : 16.52
! From Project: transmon_trial
! Data is De-embedded 
! Data File Written: 10/20/2017 09:13:08
!< HDATE 10/19/2017 20:03:37
!< MDATE 10/19/2017 20:10:25
!< PARAMS
!< Lj = 15.24
!< Gap = 26.0
!< Width = 40.0
!< Airgap = 24.0
!< Pwidth = 2000.0
!< END PARAMS
# GHZ S MA R 51.00000
8.65000000 0.005926 -172.6 0.999978 -79.91 0.999978 -79.91 0.005926 -167.2
!< P1 F=8.65 Eeff=(6.44261619 -3.0744e-5) Z0=(50.478933 1.09474e-4) R=0.0 C=0.0 
!< P2 F=8.65 Eeff=(6.44261619 -3.0744e-5) Z0=(50.478933 1.09474e-4) R=0.0 C=0.0 
8.65010000 0.005930 -172.6 0.999978 -79.91 0.999978 -79.91 0.005929 -167.2
8.65020000 0.005933 -172.6 0.999978 -79.91 0.999978 -79.91 0.005933 -167.2
8.65030000 0.005937 -172.6 0.999978 -79.92 0.999978 -79.92 0.005937 -167.2
8.65040000 0.005940 -172.6 0.999978 -79.92 0.999978 -79.92 0.005940 -167.3
8.65050000 0.005944 -172.6 0.999978 -79.92 0.999978 -79.92 0.005944 -167.3
8.65060000 0.005948 -172.6 0.999978 -79.92 0.999978 -79.92 0.005947 -167.3
8.65070000 0.005951 -172.6 0.999978 -79.92 0.999978 -79.92 0.005951 -167.3
8.65080000 0.005955 -172.6 0.999978 -79.92 0.999978 -79.92 0.005954 -167.3
8.65090000 0.005958 -172.6 0.999978 -79.92 0.999978 -79.92 0.005958 -167.3
8.65100000 0.005962 -172.6 0.999978 -79.92 0.999978 -79.92 0.005962 -167.3
8.65110000 0.005966 -172.6 0.999978 -79.92 0.999978 -79.92 0.005965 -167.3
8.65120000 0.005969 -172.6 0.999978 -79.93 0.999978 -79.93 0.005969 -167.3
8.65130000 0.005973 -172.6 0.999978 -79.93 0.999978 -79.93 0.005973 -167.3
8.65140000 0.005976 -172.6 0.999978 -79.93 0.999978 -79.93 0.005976 -167.3
8.65150000 0.005980 -172.6 0.999978 -79.93 0.999978 -79.93 0.005980 -167.3
8.65160000 0.005984 -172.6 0.999978 -79.93 0.999978 -79.93 0.005983 -167.3
8.65170000 0.005987 -172.6 0.999978 -79.93 0.999978 -79.93 0.005987 -167.3
8.65180000 0.005991 -172.6 0.999978 -79.93 0.999978 -79.93 0.005991 -167.3
8.65190000 0.005994 -172.6 0.999978 -79.93 0.999978 -79.93 0.005994 -167.3
8.65200000 0.005998 -172.6 0.999978 -79.94 0.999978 -79.94 0.005998 -167.3
8.65210000 0.006002 -172.6 0.999978 -79.94 0.999978 -79.94 0.006001 -167.3
8.65220000 0.006005 -172.6 0.999978 -79.94 0.999978 -79.94 0.006005 -167.3
8.65230000 0.006009 -172.6 0.999978 -79.94 0.999978 -79.94 0.006009 -167.3
8.65240000 0.006013 -172.6 0.999978 -79.94 0.999978 -79.94 0.006012 -167.3
8.65250000 0.006016 -172.6 0.999978 -79.94 0.999978 -79.94 0.006016 -167.3
8.65260000 0.006020 -172.6 0.999978 -79.94 0.999978 -79.94 0.006020 -167.3
8.65270000 0.006024 -172.6 0.999978 -79.94 0.999978 -79.94 0.006023 -167.3
8.65280000 0.006027 -172.6 0.999978 -79.94 0.999978 -79.94 0.006027 -167.3
8.65290000 0.006031 -172.6 0.999978 -79.95 0.999978 -79.95 0.006031 -167.3
8.65300000 0.006035 -172.6 0.999978 -79.95 0.999978 -79.95 0.006034 -167.3
8.65310000 0.006038 -172.6 0.999978 -79.95 0.999978 -79.95 0.006038 -167.3
8.65320000 0.006042 -172.6 0.999978 -79.95 0.999978 -79.95 0.006042 -167.3
8.65330000 0.006046 -172.6 0.999978 -79.95 0.999978 -79.95 0.006045 -167.3
8.65340000 0.006049 -172.6 0.999978 -79.95 0.999978 -79.95 0.006049 -167.3
8.65350000 0.006053 -172.6 0.999978 -79.95 0.999978 -79.95 0.006053 -167.3
8.65360000 0.006057 -172.6 0.999978 -79.95 0.999978 -79.95 0.006056 -167.3
8.65370000 0.006060 -172.6 0.999978 -79.95 0.999978 -79.95 0.006060 -167.3
8.65380000 0.006064 -172.6 0.999978 -79.96 0.999978 -79.96 0.006064 -167.3
8.65390000 0.006068 -172.6 0.999978 -79.96 0.999978 -79.96 0.006067 -167.4
8.65400000 0.006071 -172.6 0.999978 -79.96 0.999978 -79.96 0.006071 -167.4
8.65410000 0.006075 -172.6 0.999978 -79.96 0.999978 -79.96 0.006075 -167.4
8.65420000 0.006079 -172.6 0.999978 -79.96 0.999978 -79.96 0.006078 -167.4
8.65430000 0.006082 -172.6 0.999978 -79.96 0.999978 -79.96 0.006082 -167.4
8.65440000 0.006086 -172.6 0.999977 -79.96 0.999977 -79.96 0.006086 -167.4
8.65450000 0.006090 -172.6 0.999977 -79.96 0.999977 -79.96 0.006089 -167.4
8.65460000 0.006093 -172.6 0.999977 -79.96 0.999977 -79.96 0.006093 -167.4
8.65470000 0.006097 -172.6 0.999977 -79.97 0.999977 -79.97 0.006097 -167.4
8.65480000 0.006101 -172.6 0.999977 -79.97 0.999977 -79.97 0.006101 -167.4
8.65490000 0.006104 -172.6 0.999977 -79.97 0.999977 -79.97 0.006104 -167.4
8.65500000 0.006108 -172.6 0.999977 -79.97 0.999977 -79.97 0.006108 -167.4
8.65510000 0.006112 -172.6 0.999977 -79.97 0.999977 -79.97 0.006112 -167.4
8.65520000 0.006116 -172.6 0.999977 -79.97 0.999977 -79.97 0.006115 -167.4
8.65530000 0.006119 -172.6 0.999977 -79.97 0.999977 -79.97 0.006119 -167.4
8.65540000 0.006123 -172.6 0.999977 -79.97 0.999977 -79.97 0.006123 -167.4
8.65550000 0.006127 -172.6 0.999977 -79.97 0.999977 -79.97 0.006127 -167.4
8.65560000 0.006131 -172.6 0.999977 -79.98 0.999977 -79.98 0.006130 -167.4
8.65570000 0.006134 -172.6 0.999977 -79.98 0.999977 -79.98 0.006134 -167.4
8.65580000 0.006138 -172.6 0.999977 -79.98 0.999977 -79.98 0.006138 -167.4
8.65590000 0.006142 -172.6 0.999977 -79.98 0.999977 -79.98 0.006141 -167.4
8.65600000 0.006145 -172.6 0.999977 -79.98 0.999977 -79.98 0.006145 -167.4
8.65610000 0.006149 -172.6 0.999977 -79.98 0.999977 -79.98 0.006149 -167.4
8.65620000 0.006153 -172.6 0.999977 -79.98 0.999977 -79.98 0.006153 -167.4
8.65630000 0.006157 -172.6 0.999977 -79.98 0.999977 -79.98 0.006156 -167.4
8.65640000 0.006160 -172.6 0.999977 -79.99 0.999977 -79.99 0.006160 -167.4
8.65650000 0.006164 -172.6 0.999977 -79.99 0.999977 -79.99 0.006164 -167.4
8.65660000 0.006168 -172.6 0.999977 -79.99 0.999977 -79.99 0.006168 -167.4
8.65670000 0.006172 -172.6 0.999977 -79.99 0.999977 -79.99 0.006171 -167.4
8.65680000 0.006175 -172.6 0.999977 -79.99 0.999977 -79.99 0.006175 -167.4
8.65690000 0.006179 -172.6 0.999977 -79.99 0.999977 -79.99 0.006179 -167.4
8.65700000 0.006183 -172.6 0.999977 -79.99 0.999977 -79.99 0.006183 -167.4
8.65710000 0.006187 -172.6 0.999977 -79.99 0.999977 -79.99 0.006187 -167.4
8.65720000 0.006191 -172.6 0.999977 -79.99 0.999977 -79.99 0.006190 -167.4
8.65730000 0.006194 -172.6 0.999977 -80.00 0.999977 -80.00 0.006194 -167.4
8.65740000 0.006198 -172.6 0.999977 -80.00 0.999977 -80.00 0.006198 -167.4
8.65750000 0.006202 -172.6 0.999977 -80.00 0.999977 -80.00 0.006202 -167.5
8.65760000 0.006206 -172.6 0.999977 -80.00 0.999977 -80.00 0.006205 -167.5
8.65770000 0.006209 -172.6 0.999977 -80.00 0.999977 -80.00 0.006209 -167.5
8.65780000 0.006213 -172.6 0.999977 -80.00 0.999977 -80.00 0.006213 -167.5
8.65790000 0.006217 -172.6 0.999977 -80.00 0.999977 -80.00 0.006217 -167.5
8.65800000 0.006221 -172.6 0.999977 -80.00 0.999977 -80.00 0.006221 -167.5
8.65810000 0.006225 -172.6 0.999977 -80.00 0.999977 -80.00 0.006224 -167.5
8.65820000 0.006228 -172.6 0.999977 -80.01 0.999977 -80.01 0.006228 -167.5
8.65830000 0.006232 -172.6 0.999977 -80.01 0.999977 -80.01 0.006232 -167.5
8.65840000 0.006236 -172.6 0.999977 -80.01 0.999977 -80.01 0.006236 -167.5
8.65850000 0.006240 -172.6 0.999977 -80.01 0.999977 -80.01 0.006240 -167.5
8.65860000 0.006244 -172.6 0.999976 -80.01 0.999976 -80.01 0.006243 -167.5
8.65870000 0.006247 -172.6 0.999976 -80.01 0.999976 -80.01 0.006247 -167.5
8.65880000 0.006251 -172.6 0.999976 -80.01 0.999976 -80.01 0.006251 -167.5
8.65890000 0.006255 -172.6 0.999976 -80.01 0.999976 -80.01 0.006255 -167.5
8.65900000 0.006259 -172.6 0.999976 -80.01 0.999976 -80.01 0.006259 -167.5
8.65910000 0.006263 -172.6 0.999976 -80.02 0.999976 -80.02 0.006263 -167.5
8.65920000 0.006267 -172.6 0.999976 -80.02 0.999976 -80.02 0.006266 -167.5
8.65930000 0.006270 -172.6 0.999976 -80.02 0.999976 -80.02 0.006270 -167.5
8.65940000 0.006274 -172.6 0.999976 -80.02 0.999976 -80.02 0.006274 -167.5
8.65950000 0.006278 -172.6 0.999976 -80.02 0.999976 -80.02 0.006278 -167.5
8.65960000 0.006282 -172.6 0.999976 -80.02 0.999976 -80.02 0.006282 -167.5
8.65970000 0.006286 -172.6 0.999976 -80.02 0.999976 -80.02 0.006286 -167.5
8.65980000 0.006290 -172.6 0.999976 -80.02 0.999976 -80.02 0.006289 -167.5
8.65990000 0.006294 -172.6 0.999976 -80.03 0.999976 -80.03 0.006293 -167.5
8.66000000 0.006297 -172.6 0.999976 -80.03 0.999976 -80.03 0.006297 -167.5
8.66010000 0.006301 -172.6 0.999976 -80.03 0.999976 -80.03 0.006301 -167.5
8.66020000 0.006305 -172.6 0.999976 -80.03 0.999976 -80.03 0.006305 -167.5
8.66030000 0.006309 -172.6 0.999976 -80.03 0.999976 -80.03 0.006309 -167.5
8.66040000 0.006313 -172.6 0.999976 -80.03 0.999976 -80.03 0.006313 -167.5
8.66050000 0.006317 -172.6 0.999976 -80.03 0.999976 -80.03 0.006316 -167.5
8.66060000 0.006321 -172.6 0.999976 -80.03 0.999976 -80.03 0.006320 -167.5
8.66070000 0.006324 -172.6 0.999976 -80.03 0.999976 -80.03 0.006324 -167.5
8.66080000 0.006328 -172.6 0.999976 -80.04 0.999976 -80.04 0.006328 -167.5
8.66090000 0.006332 -172.6 0.999976 -80.04 0.999976 -80.04 0.006332 -167.5
8.66100000 0.006336 -172.6 0.999976 -80.04 0.999976 -80.04 0.006336 -167.6
8.66110000 0.006340 -172.6 0.999976 -80.04 0.999976 -80.04 0.006340 -167.6
8.66120000 0.006344 -172.6 0.999976 -80.04 0.999976 -80.04 0.006344 -167.6
8.66130000 0.006348 -172.6 0.999976 -80.04 0.999976 -80.04 0.006348 -167.6
8.66140000 0.006352 -172.6 0.999976 -80.04 0.999976 -80.04 0.006351 -167.6
8.66150000 0.006356 -172.6 0.999976 -80.04 0.999976 -80.04 0.006355 -167.6
8.66160000 0.006359 -172.6 0.999976 -80.04 0.999976 -80.04 0.006359 -167.6
8.66170000 0.006363 -172.6 0.999976 -80.05 0.999976 -80.05 0.006363 -167.6
8.66180000 0.006367 -172.6 0.999976 -80.05 0.999976 -80.05 0.006367 -167.6
8.66190000 0.006371 -172.6 0.999976 -80.05 0.999976 -80.05 0.006371 -167.6
8.66200000 0.006375 -172.6 0.999976 -80.05 0.999976 -80.05 0.006375 -167.6
8.66210000 0.006379 -172.6 0.999976 -80.05 0.999976 -80.05 0.006379 -167.6
8.66220000 0.006383 -172.6 0.999976 -80.05 0.999976 -80.05 0.006383 -167.6
8.66230000 0.006387 -172.6 0.999976 -80.05 0.999976 -80.05 0.006387 -167.6
8.66240000 0.006391 -172.6 0.999976 -80.05 0.999976 -80.05 0.006391 -167.6
8.66250000 0.006395 -172.6 0.999975 -80.05 0.999975 -80.05 0.006394 -167.6
8.66260000 0.006399 -172.6 0.999975 -80.06 0.999975 -80.06 0.006398 -167.6
8.66270000 0.006403 -172.6 0.999975 -80.06 0.999975 -80.06 0.006402 -167.6
8.66280000 0.006407 -172.6 0.999975 -80.06 0.999975 -80.06 0.006406 -167.6
8.66290000 0.006410 -172.6 0.999975 -80.06 0.999975 -80.06 0.006410 -167.6
8.66300000 0.006414 -172.6 0.999975 -80.06 0.999975 -80.06 0.006414 -167.6
8.66310000 0.006418 -172.6 0.999975 -80.06 0.999975 -80.06 0.006418 -167.6
8.66320000 0.006422 -172.6 0.999975 -80.06 0.999975 -80.06 0.006422 -167.6
8.66330000 0.006426 -172.6 0.999975 -80.06 0.999975 -80.06 0.006426 -167.6
8.66340000 0.006430 -172.6 0.999975 -80.07 0.999975 -80.07 0.006430 -167.6
8.66350000 0.006434 -172.6 0.999975 -80.07 0.999975 -80.07 0.006434 -167.6
8.66360000 0.006438 -172.6 0.999975 -80.07 0.999975 -80.07 0.006438 -167.6
8.66370000 0.006442 -172.6 0.999975 -80.07 0.999975 -80.07 0.006442 -167.6
8.66380000 0.006446 -172.6 0.999975 -80.07 0.999975 -80.07 0.006446 -167.6
8.66390000 0.006450 -172.6 0.999975 -80.07 0.999975 -80.07 0.006450 -167.6
8.66400000 0.006454 -172.6 0.999975 -80.07 0.999975 -80.07 0.006454 -167.6
8.66410000 0.006458 -172.6 0.999975 -80.07 0.999975 -80.07 0.006458 -167.6
8.66420000 0.006462 -172.6 0.999975 -80.07 0.999975 -80.07 0.006462 -167.6
8.66430000 0.006466 -172.6 0.999975 -80.08 0.999975 -80.08 0.006466 -167.6
8.66440000 0.006470 -172.6 0.999975 -80.08 0.999975 -80.08 0.006470 -167.6
8.66450000 0.006474 -172.6 0.999975 -80.08 0.999975 -80.08 0.006474 -167.6
8.66460000 0.006478 -172.6 0.999975 -80.08 0.999975 -80.08 0.006478 -167.7
8.66470000 0.006482 -172.6 0.999975 -80.08 0.999975 -80.08 0.006482 -167.7
8.66480000 0.006486 -172.6 0.999975 -80.08 0.999975 -80.08 0.006486 -167.7
8.66490000 0.006490 -172.6 0.999975 -80.08 0.999975 -80.08 0.006490 -167.7
8.66500000 0.006494 -172.6 0.999975 -80.08 0.999975 -80.08 0.006494 -167.7
8.66510000 0.006498 -172.6 0.999975 -80.08 0.999975 -80.08 0.006498 -167.7
8.66520000 0.006502 -172.6 0.999975 -80.09 0.999975 -80.09 0.006502 -167.7
8.66530000 0.006506 -172.6 0.999975 -80.09 0.999975 -80.09 0.006506 -167.7
8.66540000 0.006510 -172.6 0.999975 -80.09 0.999975 -80.09 0.006510 -167.7
8.66550000 0.006514 -172.6 0.999975 -80.09 0.999975 -80.09 0.006514 -167.7
8.66560000 0.006518 -172.6 0.999975 -80.09 0.999975 -80.09 0.006518 -167.7
8.66570000 0.006522 -172.6 0.999975 -80.09 0.999975 -80.09 0.006522 -167.7
8.66580000 0.006526 -172.6 0.999975 -80.09 0.999975 -80.09 0.006526 -167.7
8.66590000 0.006530 -172.6 0.999975 -80.09 0.999975 -80.09 0.006530 -167.7
8.66600000 0.006534 -172.6 0.999975 -80.10 0.999975 -80.10 0.006534 -167.7
8.66610000 0.006538 -172.5 0.999975 -80.10 0.999975 -80.10 0.006538 -167.7
8.66620000 0.006542 -172.5 0.999975 -80.10 0.999975 -80.10 0.006542 -167.7
8.66630000 0.006546 -172.5 0.999974 -80.10 0.999974 -80.10 0.006546 -167.7
8.66640000 0.006550 -172.5 0.999974 -80.10 0.999974 -80.10 0.006550 -167.7
8.66650000 0.006554 -172.5 0.999974 -80.10 0.999974 -80.10 0.006554 -167.7
8.66660000 0.006559 -172.5 0.999974 -80.10 0.999974 -80.10 0.006558 -167.7
8.66670000 0.006563 -172.5 0.999974 -80.10 0.999974 -80.10 0.006562 -167.7
8.66680000 0.006567 -172.5 0.999974 -80.10 0.999974 -80.10 0.006566 -167.7
8.66690000 0.006571 -172.5 0.999974 -80.11 0.999974 -80.11 0.006570 -167.7
8.66700000 0.006575 -172.5 0.999974 -80.11 0.999974 -80.11 0.006575 -167.7
8.66710000 0.006579 -172.5 0.999974 -80.11 0.999974 -80.11 0.006579 -167.7
8.66720000 0.006583 -172.5 0.999974 -80.11 0.999974 -80.11 0.006583 -167.7
8.66730000 0.006587 -172.5 0.999974 -80.11 0.999974 -80.11 0.006587 -167.7
8.66740000 0.006591 -172.5 0.999974 -80.11 0.999974 -80.11 0.006591 -167.7
8.66750000 0.006595 -172.5 0.999974 -80.11 0.999974 -80.11 0.006595 -167.7
8.66760000 0.006599 -172.5 0.999974 -80.11 0.999974 -80.11 0.006599 -167.7
8.66770000 0.006603 -172.5 0.999974 -80.11 0.999974 -80.11 0.006603 -167.7
8.66780000 0.006607 -172.5 0.999974 -80.12 0.999974 -80.12 0.006607 -167.7
8.66790000 0.006612 -172.5 0.999974 -80.12 0.999974 -80.12 0.006611 -167.7
8.66800000 0.006616 -172.5 0.999974 -80.12 0.999974 -80.12 0.006615 -167.7
8.66810000 0.006620 -172.5 0.999974 -80.12 0.999974 -80.12 0.006620 -167.7
8.66820000 0.006624 -172.5 0.999974 -80.12 0.999974 -80.12 0.006624 -167.8
8.66830000 0.006628 -172.5 0.999974 -80.12 0.999974 -80.12 0.006628 -167.8
8.66840000 0.006632 -172.5 0.999974 -80.12 0.999974 -80.12 0.006632 -167.8
8.66850000 0.006636 -172.5 0.999974 -80.12 0.999974 -80.12 0.006636 -167.8
8.66860000 0.006640 -172.5 0.999974 -80.13 0.999974 -80.13 0.006640 -167.8
8.66870000 0.006645 -172.5 0.999974 -80.13 0.999974 -80.13 0.006644 -167.8
8.66880000 0.006649 -172.5 0.999974 -80.13 0.999974 -80.13 0.006648 -167.8
8.66890000 0.006653 -172.5 0.999974 -80.13 0.999974 -80.13 0.006653 -167.8
8.66900000 0.006657 -172.5 0.999974 -80.13 0.999974 -80.13 0.006657 -167.8
8.66910000 0.006661 -172.5 0.999974 -80.13 0.999974 -80.13 0.006661 -167.8
8.66920000 0.006665 -172.5 0.999974 -80.13 0.999974 -80.13 0.006665 -167.8
8.66930000 0.006669 -172.5 0.999974 -80.13 0.999974 -80.13 0.006669 -167.8
8.66940000 0.006673 -172.5 0.999974 -80.13 0.999974 -80.13 0.006673 -167.8
8.66950000 0.006678 -172.5 0.999974 -80.14 0.999974 -80.14 0.006677 -167.8
8.66960000 0.006682 -172.5 0.999974 -80.14 0.999974 -80.14 0.006682 -167.8
8.66970000 0.006686 -172.5 0.999974 -80.14 0.999974 -80.14 0.006686 -167.8
8.66980000 0.006690 -172.5 0.999974 -80.14 0.999974 -80.14 0.006690 -167.8
8.66990000 0.006694 -172.5 0.999973 -80.14 0.999973 -80.14 0.006694 -167.8
8.67000000 0.006698 -172.5 0.999973 -80.14 0.999973 -80.14 0.006698 -167.8
8.67010000 0.006703 -172.5 0.999973 -80.14 0.999973 -80.14 0.006702 -167.8
8.67020000 0.006707 -172.5 0.999973 -80.14 0.999973 -80.14 0.006707 -167.8
8.67030000 0.006711 -172.5 0.999973 -80.15 0.999973 -80.15 0.006711 -167.8
8.67040000 0.006715 -172.5 0.999973 -80.15 0.999973 -80.15 0.006715 -167.8
8.67050000 0.006719 -172.5 0.999973 -80.15 0.999973 -80.15 0.006719 -167.8
8.67060000 0.006724 -172.5 0.999973 -80.15 0.999973 -80.15 0.006723 -167.8
8.67070000 0.006728 -172.5 0.999973 -80.15 0.999973 -80.15 0.006727 -167.8
8.67080000 0.006732 -172.5 0.999973 -80.15 0.999973 -80.15 0.006732 -167.8
8.67090000 0.006736 -172.5 0.999973 -80.15 0.999973 -80.15 0.006736 -167.8
8.67100000 0.006740 -172.5 0.999973 -80.15 0.999973 -80.15 0.006740 -167.8
8.67110000 0.006745 -172.5 0.999973 -80.15 0.999973 -80.15 0.006744 -167.8
8.67120000 0.006749 -172.5 0.999973 -80.16 0.999973 -80.16 0.006749 -167.8
8.67130000 0.006753 -172.5 0.999973 -80.16 0.999973 -80.16 0.006753 -167.8
8.67140000 0.006757 -172.5 0.999973 -80.16 0.999973 -80.16 0.006757 -167.8
8.67150000 0.006761 -172.5 0.999973 -80.16 0.999973 -80.16 0.006761 -167.8
8.67160000 0.006766 -172.5 0.999973 -80.16 0.999973 -80.16 0.006765 -167.8
8.67170000 0.006770 -172.5 0.999973 -80.16 0.999973 -80.16 0.006770 -167.8
8.67180000 0.006774 -172.5 0.999973 -80.16 0.999973 -80.16 0.006774 -167.8
8.67190000 0.006778 -172.5 0.999973 -80.16 0.999973 -80.16 0.006778 -167.9
8.67200000 0.006783 -172.5 0.999973 -80.16 0.999973 -80.16 0.006782 -167.9
8.67210000 0.006787 -172.5 0.999973 -80.17 0.999973 -80.17 0.006787 -167.9
8.67220000 0.006791 -172.5 0.999973 -80.17 0.999973 -80.17 0.006791 -167.9
8.67230000 0.006795 -172.5 0.999973 -80.17 0.999973 -80.17 0.006795 -167.9
8.67240000 0.006800 -172.5 0.999973 -80.17 0.999973 -80.17 0.006799 -167.9
8.67250000 0.006804 -172.5 0.999973 -80.17 0.999973 -80.17 0.006804 -167.9
8.67260000 0.006808 -172.5 0.999973 -80.17 0.999973 -80.17 0.006808 -167.9
8.67270000 0.006812 -172.5 0.999973 -80.17 0.999973 -80.17 0.006812 -167.9
8.67280000 0.006817 -172.5 0.999973 -80.17 0.999973 -80.17 0.006816 -167.9
8.67290000 0.006821 -172.5 0.999973 -80.18 0.999973 -80.18 0.006821 -167.9
8.67300000 0.006825 -172.5 0.999973 -80.18 0.999973 -80.18 0.006825 -167.9
8.67310000 0.006829 -172.5 0.999973 -80.18 0.999973 -80.18 0.006829 -167.9
8.67320000 0.006834 -172.5 0.999973 -80.18 0.999973 -80.18 0.006833 -167.9
8.67330000 0.006838 -172.5 0.999972 -80.18 0.999972 -80.18 0.006838 -167.9
8.67340000 0.006842 -172.5 0.999972 -80.18 0.999972 -80.18 0.006842 -167.9
8.67350000 0.006847 -172.5 0.999972 -80.18 0.999972 -80.18 0.006846 -167.9
8.67360000 0.006851 -172.5 0.999972 -80.18 0.999972 -80.18 0.006851 -167.9
8.67370000 0.006855 -172.5 0.999972 -80.18 0.999972 -80.18 0.006855 -167.9
8.67380000 0.006859 -172.5 0.999972 -80.19 0.999972 -80.19 0.006859 -167.9
8.67390000 0.006864 -172.5 0.999972 -80.19 0.999972 -80.19 0.006863 -167.9
8.67400000 0.006868 -172.5 0.999972 -80.19 0.999972 -80.19 0.006868 -167.9
8.67410000 0.006872 -172.5 0.999972 -80.19 0.999972 -80.19 0.006872 -167.9
8.67420000 0.006877 -172.5 0.999972 -80.19 0.999972 -80.19 0.006876 -167.9
8.67430000 0.006881 -172.5 0.999972 -80.19 0.999972 -80.19 0.006881 -167.9
8.67440000 0.006885 -172.5 0.999972 -80.19 0.999972 -80.19 0.006885 -167.9
8.67450000 0.006890 -172.5 0.999972 -80.19 0.999972 -80.19 0.006889 -167.9
8.67460000 0.006894 -172.5 0.999972 -80.20 0.999972 -80.20 0.006894 -167.9
8.67470000 0.006898 -172.5 0.999972 -80.20 0.999972 -80.20 0.006898 -167.9
8.67480000 0.006903 -172.5 0.999972 -80.20 0.999972 -80.20 0.006902 -167.9
8.67490000 0.006907 -172.5 0.999972 -80.20 0.999972 -80.20 0.006907 -167.9
8.67500000 0.006911 -172.5 0.999972 -80.20 0.999972 -80.20 0.006911 -167.9
8.67510000 0.006916 -172.5 0.999972 -80.20 0.999972 -80.20 0.006915 -167.9
8.67520000 0.006920 -172.5 0.999972 -80.20 0.999972 -80.20 0.006920 -167.9
8.67530000 0.006924 -172.5 0.999972 -80.20 0.999972 -80.20 0.006924 -167.9
8.67540000 0.006929 -172.5 0.999972 -80.20 0.999972 -80.20 0.006928 -167.9
8.67550000 0.006933 -172.5 0.999972 -80.21 0.999972 -80.21 0.006933 -168.0
8.67560000 0.006937 -172.5 0.999972 -80.21 0.999972 -80.21 0.006937 -168.0
8.67570000 0.006942 -172.5 0.999972 -80.21 0.999972 -80.21 0.006941 -168.0
8.67580000 0.006946 -172.5 0.999972 -80.21 0.999972 -80.21 0.006946 -168.0
8.67590000 0.006950 -172.5 0.999972 -80.21 0.999972 -80.21 0.006950 -168.0
8.67600000 0.006955 -172.5 0.999972 -80.21 0.999972 -80.21 0.006955 -168.0
8.67610000 0.006959 -172.5 0.999972 -80.21 0.999972 -80.21 0.006959 -168.0
8.67620000 0.006964 -172.5 0.999972 -80.21 0.999972 -80.21 0.006963 -168.0
8.67630000 0.006968 -172.5 0.999972 -80.22 0.999972 -80.22 0.006968 -168.0
8.67640000 0.006972 -172.5 0.999972 -80.22 0.999972 -80.22 0.006972 -168.0
8.67650000 0.006977 -172.5 0.999971 -80.22 0.999971 -80.22 0.006977 -168.0
8.67660000 0.006981 -172.5 0.999971 -80.22 0.999971 -80.22 0.006981 -168.0
8.67670000 0.006986 -172.5 0.999971 -80.22 0.999971 -80.22 0.006985 -168.0
8.67680000 0.006990 -172.5 0.999971 -80.22 0.999971 -80.22 0.006990 -168.0
8.67690000 0.006994 -172.5 0.999971 -80.22 0.999971 -80.22 0.006994 -168.0
8.67700000 0.006999 -172.5 0.999971 -80.22 0.999971 -80.22 0.006999 -168.0
8.67710000 0.007003 -172.5 0.999971 -80.22 0.999971 -80.22 0.007003 -168.0
8.67720000 0.007008 -172.5 0.999971 -80.23 0.999971 -80.23 0.007007 -168.0
8.67730000 0.007012 -172.5 0.999971 -80.23 0.999971 -80.23 0.007012 -168.0
8.67740000 0.007016 -172.5 0.999971 -80.23 0.999971 -80.23 0.007016 -168.0
8.67750000 0.007021 -172.5 0.999971 -80.23 0.999971 -80.23 0.007021 -168.0
8.67760000 0.007025 -172.5 0.999971 -80.23 0.999971 -80.23 0.007025 -168.0
8.67770000 0.007030 -172.5 0.999971 -80.23 0.999971 -80.23 0.007030 -168.0
8.67780000 0.007034 -172.5 0.999971 -80.23 0.999971 -80.23 0.007034 -168.0
8.67790000 0.007039 -172.5 0.999971 -80.23 0.999971 -80.23 0.007038 -168.0
8.67800000 0.007043 -172.5 0.999971 -80.24 0.999971 -80.24 0.007043 -168.0
8.67810000 0.007048 -172.5 0.999971 -80.24 0.999971 -80.24 0.007047 -168.0
8.67820000 0.007052 -172.5 0.999971 -80.24 0.999971 -80.24 0.007052 -168.0
8.67830000 0.007057 -172.5 0.999971 -80.24 0.999971 -80.24 0.007056 -168.0
8.67840000 0.007061 -172.5 0.999971 -80.24 0.999971 -80.24 0.007061 -168.0
8.67850000 0.007065 -172.5 0.999971 -80.24 0.999971 -80.24 0.007065 -168.0
8.67860000 0.007070 -172.5 0.999971 -80.24 0.999971 -80.24 0.007070 -168.0
8.67870000 0.007074 -172.5 0.999971 -80.24 0.999971 -80.24 0.007074 -168.0
8.67880000 0.007079 -172.5 0.999971 -80.24 0.999971 -80.24 0.007079 -168.0
8.67890000 0.007083 -172.5 0.999971 -80.25 0.999971 -80.25 0.007083 -168.0
8.67900000 0.007088 -172.5 0.999971 -80.25 0.999971 -80.25 0.007088 -168.0
8.67910000 0.007092 -172.5 0.999971 -80.25 0.999971 -80.25 0.007092 -168.0
8.67920000 0.007097 -172.5 0.999971 -80.25 0.999971 -80.25 0.007097 -168.1
8.67930000 0.007101 -172.5 0.999971 -80.25 0.999971 -80.25 0.007101 -168.1
8.67940000 0.007106 -172.5 0.999971 -80.25 0.999971 -80.25 0.007106 -168.1
8.67950000 0.007110 -172.5 0.999971 -80.25 0.999971 -80.25 0.007110 -168.1
8.67960000 0.007115 -172.5 0.999970 -80.25 0.999970 -80.25 0.007115 -168.1
8.67970000 0.007119 -172.5 0.999970 -80.26 0.999970 -80.26 0.007119 -168.1
8.67980000 0.007124 -172.5 0.999970 -80.26 0.999970 -80.26 0.007124 -168.1
8.67990000 0.007128 -172.5 0.999970 -80.26 0.999970 -80.26 0.007128 -168.1
8.68000000 0.007133 -172.5 0.999970 -80.26 0.999970 -80.26 0.007133 -168.1
8.68010000 0.007137 -172.5 0.999970 -80.26 0.999970 -80.26 0.007137 -168.1
8.68020000 0.007142 -172.5 0.999970 -80.26 0.999970 -80.26 0.007142 -168.1
8.68030000 0.007146 -172.5 0.999970 -80.26 0.999970 -80.26 0.007146 -168.1
8.68040000 0.007151 -172.5 0.999970 -80.26 0.999970 -80.26 0.007151 -168.1
8.68050000 0.007156 -172.5 0.999970 -80.26 0.999970 -80.26 0.007155 -168.1
8.68060000 0.007160 -172.5 0.999970 -80.27 0.999970 -80.27 0.007160 -168.1
8.68070000 0.007165 -172.5 0.999970 -80.27 0.999970 -80.27 0.007164 -168.1
8.68080000 0.007169 -172.5 0.999970 -80.27 0.999970 -80.27 0.007169 -168.1
8.68090000 0.007174 -172.5 0.999970 -80.27 0.999970 -80.27 0.007174 -168.1
8.68100000 0.007178 -172.5 0.999970 -80.27 0.999970 -80.27 0.007178 -168.1
8.68110000 0.007183 -172.5 0.999970 -80.27 0.999970 -80.27 0.007183 -168.1
8.68120000 0.007187 -172.5 0.999970 -80.27 0.999970 -80.27 0.007187 -168.1
8.68130000 0.007192 -172.5 0.999970 -80.27 0.999970 -80.27 0.007192 -168.1
8.68140000 0.007197 -172.5 0.999970 -80.28 0.999970 -80.28 0.007196 -168.1
8.68150000 0.007201 -172.5 0.999970 -80.28 0.999970 -80.28 0.007201 -168.1
8.68160000 0.007206 -172.5 0.999970 -80.28 0.999970 -80.28 0.007206 -168.1
8.68170000 0.007210 -172.5 0.999970 -80.28 0.999970 -80.28 0.007210 -168.1
8.68180000 0.007215 -172.5 0.999970 -80.28 0.999970 -80.28 0.007215 -168.1
8.68190000 0.007220 -172.5 0.999970 -80.28 0.999970 -80.28 0.007219 -168.1
8.68200000 0.007224 -172.5 0.999970 -80.28 0.999970 -80.28 0.007224 -168.1
8.68210000 0.007229 -172.5 0.999970 -80.28 0.999970 -80.28 0.007229 -168.1
8.68220000 0.007233 -172.5 0.999970 -80.29 0.999970 -80.29 0.007233 -168.1
8.68230000 0.007238 -172.5 0.999970 -80.29 0.999970 -80.29 0.007238 -168.1
8.68240000 0.007243 -172.5 0.999970 -80.29 0.999970 -80.29 0.007242 -168.1
8.68250000 0.007247 -172.5 0.999970 -80.29 0.999970 -80.29 0.007247 -168.1
8.68260000 0.007252 -172.5 0.999969 -80.29 0.999969 -80.29 0.007252 -168.1
8.68270000 0.007256 -172.5 0.999969 -80.29 0.999969 -80.29 0.007256 -168.1
8.68280000 0.007261 -172.5 0.999969 -80.29 0.999969 -80.29 0.007261 -168.1
8.68290000 0.007266 -172.5 0.999969 -80.29 0.999969 -80.29 0.007265 -168.2
8.68300000 0.007270 -172.5 0.999969 -80.29 0.999969 -80.29 0.007270 -168.2
8.68310000 0.007275 -172.5 0.999969 -80.30 0.999969 -80.30 0.007275 -168.2
8.68320000 0.007280 -172.5 0.999969 -80.30 0.999969 -80.30 0.007279 -168.2
8.68330000 0.007284 -172.5 0.999969 -80.30 0.999969 -80.30 0.007284 -168.2
8.68340000 0.007289 -172.5 0.999969 -80.30 0.999969 -80.30 0.007289 -168.2
8.68350000 0.007294 -172.5 0.999969 -80.30 0.999969 -80.30 0.007293 -168.2
8.68360000 0.007298 -172.5 0.999969 -80.30 0.999969 -80.30 0.007298 -168.2
8.68370000 0.007303 -172.5 0.999969 -80.30 0.999969 -80.30 0.007303 -168.2
8.68380000 0.007308 -172.5 0.999969 -80.30 0.999969 -80.30 0.007307 -168.2
8.68390000 0.007312 -172.5 0.999969 -80.31 0.999969 -80.31 0.007312 -168.2
8.68400000 0.007317 -172.5 0.999969 -80.31 0.999969 -80.31 0.007317 -168.2
8.68410000 0.007322 -172.5 0.999969 -80.31 0.999969 -80.31 0.007321 -168.2
8.68420000 0.007326 -172.5 0.999969 -80.31 0.999969 -80.31 0.007326 -168.2
8.68430000 0.007331 -172.5 0.999969 -80.31 0.999969 -80.31 0.007331 -168.2
8.68440000 0.007336 -172.5 0.999969 -80.31 0.999969 -80.31 0.007335 -168.2
8.68450000 0.007340 -172.5 0.999969 -80.31 0.999969 -80.31 0.007340 -168.2
8.68460000 0.007345 -172.5 0.999969 -80.31 0.999969 -80.31 0.007345 -168.2
8.68470000 0.007350 -172.5 0.999969 -80.31 0.999969 -80.31 0.007350 -168.2
8.68480000 0.007354 -172.5 0.999969 -80.32 0.999969 -80.32 0.007354 -168.2
8.68490000 0.007359 -172.5 0.999969 -80.32 0.999969 -80.32 0.007359 -168.2
8.68500000 0.007364 -172.5 0.999969 -80.32 0.999969 -80.32 0.007364 -168.2
8.68510000 0.007369 -172.5 0.999969 -80.32 0.999969 -80.32 0.007368 -168.2
8.68520000 0.007373 -172.5 0.999969 -80.32 0.999969 -80.32 0.007373 -168.2
8.68530000 0.007378 -172.5 0.999969 -80.32 0.999969 -80.32 0.007378 -168.2
8.68540000 0.007383 -172.5 0.999969 -80.32 0.999969 -80.32 0.007383 -168.2
8.68550000 0.007388 -172.5 0.999968 -80.32 0.999968 -80.32 0.007387 -168.2
8.68560000 0.007392 -172.5 0.999968 -80.33 0.999968 -80.33 0.007392 -168.2
8.68570000 0.007397 -172.5 0.999968 -80.33 0.999968 -80.33 0.007397 -168.2
8.68580000 0.007402 -172.5 0.999968 -80.33 0.999968 -80.33 0.007402 -168.2
8.68590000 0.007407 -172.5 0.999968 -80.33 0.999968 -80.33 0.007406 -168.2
8.68600000 0.007411 -172.5 0.999968 -80.33 0.999968 -80.33 0.007411 -168.2
8.68610000 0.007416 -172.5 0.999968 -80.33 0.999968 -80.33 0.007416 -168.2
8.68620000 0.007421 -172.5 0.999968 -80.33 0.999968 -80.33 0.007421 -168.2
8.68630000 0.007426 -172.5 0.999968 -80.33 0.999968 -80.33 0.007425 -168.2
8.68640000 0.007430 -172.5 0.999968 -80.34 0.999968 -80.34 0.007430 -168.2
8.68650000 0.007435 -172.5 0.999968 -80.34 0.999968 -80.34 0.007435 -168.2
8.68660000 0.007440 -172.5 0.999968 -80.34 0.999968 -80.34 0.007440 -168.3
8.68670000 0.007445 -172.5 0.999968 -80.34 0.999968 -80.34 0.007444 -168.3
8.68680000 0.007449 -172.5 0.999968 -80.34 0.999968 -80.34 0.007449 -168.3
8.68690000 0.007454 -172.5 0.999968 -80.34 0.999968 -80.34 0.007454 -168.3
8.68700000 0.007459 -172.5 0.999968 -80.34 0.999968 -80.34 0.007459 -168.3
8.68710000 0.007464 -172.5 0.999968 -80.34 0.999968 -80.34 0.007464 -168.3
8.68720000 0.007469 -172.5 0.999968 -80.34 0.999968 -80.34 0.007468 -168.3
8.68730000 0.007473 -172.5 0.999968 -80.35 0.999968 -80.35 0.007473 -168.3
8.68740000 0.007478 -172.5 0.999968 -80.35 0.999968 -80.35 0.007478 -168.3
8.68750000 0.007483 -172.5 0.999968 -80.35 0.999968 -80.35 0.007483 -168.3
8.68760000 0.007488 -172.5 0.999968 -80.35 0.999968 -80.35 0.007488 -168.3
8.68770000 0.007493 -172.5 0.999968 -80.35 0.999968 -80.35 0.007493 -168.3
8.68780000 0.007498 -172.5 0.999968 -80.35 0.999968 -80.35 0.007497 -168.3
8.68790000 0.007502 -172.5 0.999968 -80.35 0.999968 -80.35 0.007502 -168.3
8.68800000 0.007507 -172.5 0.999968 -80.35 0.999968 -80.35 0.007507 -168.3
8.68810000 0.007512 -172.5 0.999968 -80.36 0.999968 -80.36 0.007512 -168.3
8.68820000 0.007517 -172.5 0.999967 -80.36 0.999967 -80.36 0.007517 -168.3
8.68830000 0.007522 -172.5 0.999967 -80.36 0.999967 -80.36 0.007522 -168.3
8.68840000 0.007527 -172.5 0.999967 -80.36 0.999967 -80.36 0.007526 -168.3
8.68850000 0.007532 -172.5 0.999967 -80.36 0.999967 -80.36 0.007531 -168.3
8.68860000 0.007536 -172.5 0.999967 -80.36 0.999967 -80.36 0.007536 -168.3
8.68870000 0.007541 -172.5 0.999967 -80.36 0.999967 -80.36 0.007541 -168.3
8.68880000 0.007546 -172.5 0.999967 -80.36 0.999967 -80.36 0.007546 -168.3
8.68890000 0.007551 -172.5 0.999967 -80.37 0.999967 -80.37 0.007551 -168.3
8.68900000 0.007556 -172.5 0.999967 -80.37 0.999967 -80.37 0.007556 -168.3
8.68910000 0.007561 -172.5 0.999967 -80.37 0.999967 -80.37 0.007561 -168.3
8.68920000 0.007566 -172.5 0.999967 -80.37 0.999967 -80.37 0.007565 -168.3