! Sonnet Data File
! From: emgraph Version : 16.52
! From Project: transmon_trial
! Data is De-embedded 
! Data File Written: 10/20/2017 15:56:55
!< HDATE 10/20/2017 14:38:19
!< MDATE 10/20/2017 14:38:19
!< PARAMS
!< Lj = 15.24
!< Gap = 6.0
!< Width = 30.0
!< Airgap = 18.0
!< Pwidth = 2000.0
!< END PARAMS
# GHZ S MA R 51.00000
8.75000000 0.175441 179.71 0.984425 -90.46 0.984425 -90.46 0.175441 179.34
!< P1 F=8.75 Eeff=(6.44478859 -3.0299e-5) Z0=(50.6169052 1.12794e-4) R=0.0 C=0.0 
!< P2 F=8.75 Eeff=(6.44478859 -3.0299e-5) Z0=(50.6169052 1.12794e-4) R=0.0 C=0.0 
8.75005000 0.175611 179.70 0.984394 -90.47 0.984394 -90.47 0.175610 179.33
8.75010000 0.175781 179.69 0.984364 -90.48 0.984364 -90.48 0.175780 179.32
8.75015000 0.175951 179.68 0.984333 -90.49 0.984333 -90.49 0.175951 179.31
8.75020000 0.176122 179.67 0.984303 -90.50 0.984303 -90.50 0.176122 179.30
8.75025000 0.176293 179.66 0.984272 -90.51 0.984272 -90.51 0.176293 179.28
8.75030000 0.176464 179.65 0.984241 -90.52 0.984241 -90.52 0.176464 179.27
8.75035000 0.176636 179.64 0.984210 -90.53 0.984210 -90.53 0.176635 179.26
8.75040000 0.176808 179.62 0.984179 -90.54 0.984179 -90.54 0.176807 179.25
8.75045000 0.176980 179.61 0.984148 -90.55 0.984148 -90.55 0.176980 179.24
8.75050000 0.177152 179.60 0.984117 -90.56 0.984117 -90.56 0.177152 179.23
8.75055000 0.177325 179.59 0.984086 -90.57 0.984086 -90.57 0.177325 179.22
8.75060000 0.177499 179.58 0.984054 -90.58 0.984054 -90.58 0.177499 179.21
8.75065000 0.177672 179.57 0.984023 -90.59 0.984023 -90.59 0.177672 179.20
8.75070000 0.177846 179.56 0.983991 -90.60 0.983991 -90.60 0.177846 179.19
8.75075000 0.178020 179.55 0.983960 -90.61 0.983960 -90.61 0.178020 179.18
8.75080000 0.178195 179.54 0.983928 -90.62 0.983928 -90.62 0.178195 179.17
8.75085000 0.178370 179.53 0.983896 -90.64 0.983896 -90.64 0.178370 179.16
8.75090000 0.178545 179.52 0.983864 -90.65 0.983864 -90.65 0.178545 179.15
8.75095000 0.178721 179.51 0.983832 -90.66 0.983832 -90.66 0.178721 179.14
8.75100000 0.178897 179.50 0.983800 -90.67 0.983800 -90.67 0.178897 179.12
8.75105000 0.179073 179.49 0.983768 -90.68 0.983768 -90.68 0.179073 179.11
8.75110000 0.179250 179.48 0.983736 -90.69 0.983736 -90.69 0.179250 179.10
8.75115000 0.179427 179.47 0.983703 -90.70 0.983703 -90.70 0.179426 179.09
8.75120000 0.179604 179.46 0.983671 -90.71 0.983671 -90.71 0.179604 179.08
8.75125000 0.179781 179.44 0.983638 -90.72 0.983638 -90.72 0.179781 179.07
8.75130000 0.179959 179.43 0.983606 -90.73 0.983606 -90.73 0.179959 179.06
8.75135000 0.180138 179.42 0.983573 -90.74 0.983573 -90.74 0.180138 179.05
8.75140000 0.180316 179.41 0.983540 -90.75 0.983540 -90.75 0.180316 179.04
8.75145000 0.180495 179.40 0.983507 -90.76 0.983507 -90.76 0.180495 179.03
8.75150000 0.180675 179.39 0.983474 -90.78 0.983474 -90.78 0.180675 179.02
8.75155000 0.180854 179.38 0.983441 -90.79 0.983441 -90.79 0.180854 179.00
8.75160000 0.181035 179.37 0.983408 -90.80 0.983408 -90.80 0.181034 178.99
8.75165000 0.181215 179.36 0.983374 -90.81 0.983374 -90.81 0.181215 178.98
8.75170000 0.181396 179.35 0.983341 -90.82 0.983341 -90.82 0.181396 178.97
8.75175000 0.181577 179.34 0.983307 -90.83 0.983307 -90.83 0.181577 178.96
8.75180000 0.181758 179.32 0.983274 -90.84 0.983274 -90.84 0.181758 178.95
8.75185000 0.181940 179.31 0.983240 -90.85 0.983240 -90.85 0.181940 178.94
8.75190000 0.182122 179.30 0.983206 -90.86 0.983206 -90.86 0.182122 178.93
8.75195000 0.182305 179.29 0.983172 -90.87 0.983172 -90.87 0.182305 178.92
8.75200000 0.182487 179.28 0.983138 -90.89 0.983138 -90.89 0.182487 178.90
8.75205000 0.182671 179.27 0.983104 -90.90 0.983104 -90.90 0.182671 178.89
8.75210000 0.182854 179.26 0.983069 -90.91 0.983069 -90.91 0.182854 178.88
8.75215000 0.183038 179.25 0.983035 -90.92 0.983035 -90.92 0.183038 178.87
8.75220000 0.183222 179.24 0.983001 -90.93 0.983001 -90.93 0.183222 178.86
8.75225000 0.183407 179.22 0.982966 -90.94 0.982966 -90.94 0.183407 178.85
8.75230000 0.183592 179.21 0.982931 -90.95 0.982931 -90.95 0.183592 178.84
8.75235000 0.183778 179.20 0.982897 -90.96 0.982897 -90.96 0.183777 178.83
8.75240000 0.183963 179.19 0.982862 -90.98 0.982862 -90.98 0.183963 178.81
8.75245000 0.184149 179.18 0.982827 -90.99 0.982827 -90.99 0.184149 178.80
8.75250000 0.184336 179.17 0.982792 -91.00 0.982792 -91.00 0.184336 178.79
8.75255000 0.184523 179.16 0.982756 -91.01 0.982756 -91.01 0.184523 178.78
8.75260000 0.184710 179.15 0.982721 -91.02 0.982721 -91.02 0.184710 178.77
8.75265000 0.184897 179.13 0.982686 -91.03 0.982686 -91.03 0.184897 178.76
8.75270000 0.185085 179.12 0.982650 -91.04 0.982650 -91.04 0.185085 178.75
8.75275000 0.185274 179.11 0.982615 -91.05 0.982615 -91.05 0.185274 178.73
8.75280000 0.185462 179.10 0.982579 -91.07 0.982579 -91.07 0.185462 178.72
8.75285000 0.185652 179.09 0.982543 -91.08 0.982543 -91.08 0.185651 178.71
8.75290000 0.185841 179.08 0.982507 -91.09 0.982507 -91.09 0.185841 178.70
8.75295000 0.186031 179.07 0.982471 -91.10 0.982471 -91.10 0.186031 178.69
8.75300000 0.186221 179.05 0.982435 -91.11 0.982435 -91.11 0.186221 178.68
8.75305000 0.186412 179.04 0.982399 -91.12 0.982399 -91.12 0.186411 178.66
8.75310000 0.186602 179.03 0.982362 -91.14 0.982362 -91.14 0.186602 178.65
8.75315000 0.186794 179.02 0.982326 -91.15 0.982326 -91.15 0.186794 178.64
8.75320000 0.186986 179.01 0.982289 -91.16 0.982289 -91.16 0.186985 178.63
8.75325000 0.187178 179.00 0.982252 -91.17 0.982252 -91.17 0.187178 178.62
8.75330000 0.187370 178.98 0.982215 -91.18 0.982215 -91.18 0.187370 178.61
8.75335000 0.187563 178.97 0.982178 -91.19 0.982178 -91.19 0.187563 178.59
8.75340000 0.187756 178.96 0.982141 -91.21 0.982141 -91.21 0.187756 178.58
8.75345000 0.187950 178.95 0.982104 -91.22 0.982104 -91.22 0.187950 178.57
8.75350000 0.188144 178.94 0.982067 -91.23 0.982067 -91.23 0.188144 178.56
8.75355000 0.188338 178.93 0.982030 -91.24 0.982030 -91.24 0.188338 178.55
8.75360000 0.188533 178.91 0.981992 -91.25 0.981992 -91.25 0.188533 178.54
8.75365000 0.188728 178.90 0.981954 -91.26 0.981954 -91.26 0.188728 178.52
8.75370000 0.188924 178.89 0.981917 -91.28 0.981917 -91.28 0.188924 178.51
8.75375000 0.189120 178.88 0.981879 -91.29 0.981879 -91.29 0.189120 178.50
8.75380000 0.189316 178.87 0.981841 -91.30 0.981841 -91.30 0.189316 178.49
8.75385000 0.189513 178.85 0.981803 -91.31 0.981803 -91.31 0.189513 178.48
8.75390000 0.189710 178.84 0.981764 -91.32 0.981764 -91.32 0.189710 178.46
8.75395000 0.189908 178.83 0.981726 -91.34 0.981726 -91.34 0.189908 178.45
8.75400000 0.190106 178.82 0.981688 -91.35 0.981688 -91.35 0.190106 178.44
8.75405000 0.190304 178.81 0.981649 -91.36 0.981649 -91.36 0.190304 178.43
8.75410000 0.190503 178.80 0.981610 -91.37 0.981610 -91.37 0.190503 178.41
8.75415000 0.190702 178.78 0.981571 -91.38 0.981571 -91.38 0.190702 178.40
8.75420000 0.190902 178.77 0.981533 -91.40 0.981533 -91.40 0.190902 178.39
8.75425000 0.191102 178.76 0.981493 -91.41 0.981493 -91.41 0.191101 178.38
8.75430000 0.191302 178.75 0.981454 -91.42 0.981454 -91.42 0.191302 178.37
8.75435000 0.191503 178.73 0.981415 -91.43 0.981415 -91.43 0.191503 178.35
8.75440000 0.191704 178.72 0.981376 -91.45 0.981376 -91.45 0.191704 178.34
8.75445000 0.191906 178.71 0.981336 -91.46 0.981336 -91.46 0.191906 178.33
8.75450000 0.192108 178.70 0.981296 -91.47 0.981296 -91.47 0.192108 178.32
8.75455000 0.192310 178.69 0.981256 -91.48 0.981256 -91.48 0.192310 178.30
8.75460000 0.192513 178.67 0.981217 -91.49 0.981217 -91.49 0.192513 178.29
8.75465000 0.192716 178.66 0.981176 -91.51 0.981176 -91.51 0.192716 178.28
8.75470000 0.192920 178.65 0.981136 -91.52 0.981136 -91.52 0.192920 178.27
8.75475000 0.193124 178.64 0.981096 -91.53 0.981096 -91.53 0.193124 178.25
8.75480000 0.193329 178.62 0.981056 -91.54 0.981056 -91.54 0.193328 178.24
8.75485000 0.193534 178.61 0.981015 -91.56 0.981015 -91.56 0.193533 178.23
8.75490000 0.193739 178.60 0.980974 -91.57 0.980974 -91.57 0.193739 178.22
8.75495000 0.193945 178.59 0.980933 -91.58 0.980933 -91.58 0.193945 178.20
8.75500000 0.194151 178.57 0.980892 -91.59 0.980892 -91.59 0.194151 178.19
8.75505000 0.194358 178.56 0.980851 -91.61 0.980851 -91.61 0.194357 178.18
8.75510000 0.194565 178.55 0.980810 -91.62 0.980810 -91.62 0.194565 178.17
8.75515000 0.194772 178.54 0.980769 -91.63 0.980769 -91.63 0.194772 178.15
8.75520000 0.194980 178.52 0.980727 -91.64 0.980727 -91.64 0.194980 178.14
8.75525000 0.195188 178.51 0.980686 -91.66 0.980686 -91.66 0.195188 178.13
8.75530000 0.195397 178.50 0.980644 -91.67 0.980644 -91.67 0.195397 178.12
8.75535000 0.195606 178.49 0.980602 -91.68 0.980602 -91.68 0.195606 178.10
8.75540000 0.195816 178.47 0.980560 -91.69 0.980560 -91.69 0.195816 178.09
8.75545000 0.196026 178.46 0.980518 -91.71 0.980518 -91.71 0.196026 178.08
8.75550000 0.196237 178.45 0.980476 -91.72 0.980476 -91.72 0.196237 178.06
8.75555000 0.196448 178.44 0.980433 -91.73 0.980433 -91.73 0.196448 178.05
8.75560000 0.196659 178.42 0.980391 -91.75 0.980391 -91.75 0.196659 178.04
8.75565000 0.196871 178.41 0.980348 -91.76 0.980348 -91.76 0.196871 178.03
8.75570000 0.197083 178.40 0.980305 -91.77 0.980305 -91.77 0.197083 178.01
8.75575000 0.197296 178.38 0.980262 -91.78 0.980262 -91.78 0.197296 178.00
8.75580000 0.197509 178.37 0.980219 -91.80 0.980219 -91.80 0.197509 177.99
8.75585000 0.197723 178.36 0.980176 -91.81 0.980176 -91.81 0.197723 177.97
8.75590000 0.197937 178.35 0.980133 -91.82 0.980133 -91.82 0.197937 177.96
8.75595000 0.198152 178.33 0.980089 -91.84 0.980089 -91.84 0.198151 177.95
8.75600000 0.198367 178.32 0.980045 -91.85 0.980045 -91.85 0.198366 177.94
8.75605000 0.198582 178.31 0.980002 -91.86 0.980002 -91.86 0.198582 177.92
8.75610000 0.198798 178.29 0.979958 -91.88 0.979958 -91.88 0.198798 177.91
8.75615000 0.199014 178.28 0.979914 -91.89 0.979914 -91.89 0.199014 177.90
8.75620000 0.199231 178.27 0.979869 -91.90 0.979869 -91.90 0.199231 177.88
8.75625000 0.199448 178.25 0.979825 -91.91 0.979825 -91.91 0.199448 177.87
8.75630000 0.199666 178.24 0.979780 -91.93 0.979780 -91.93 0.199666 177.86
8.75635000 0.199884 178.23 0.979736 -91.94 0.979736 -91.94 0.199884 177.84
8.75640000 0.200103 178.21 0.979691 -91.95 0.979691 -91.95 0.200103 177.83
8.75645000 0.200322 178.20 0.979646 -91.97 0.979646 -91.97 0.200322 177.82
8.75650000 0.200542 178.19 0.979601 -91.98 0.979601 -91.98 0.200541 177.80
8.75655000 0.200762 178.17 0.979556 -91.99 0.979556 -91.99 0.200761 177.79
8.75660000 0.200982 178.16 0.979510 -92.01 0.979510 -92.01 0.200982 177.78
8.75665000 0.201203 178.15 0.979465 -92.02 0.979465 -92.02 0.201203 177.76
8.75670000 0.201424 178.13 0.979419 -92.03 0.979419 -92.03 0.201424 177.75
8.75675000 0.201646 178.12 0.979373 -92.05 0.979373 -92.05 0.201646 177.74
8.75680000 0.201869 178.11 0.979327 -92.06 0.979327 -92.06 0.201869 177.72
8.75685000 0.202092 178.09 0.979281 -92.07 0.979281 -92.07 0.202092 177.71
8.75690000 0.202315 178.08 0.979235 -92.09 0.979235 -92.09 0.202315 177.69
8.75695000 0.202539 178.07 0.979188 -92.10 0.979188 -92.10 0.202539 177.68
8.75700000 0.202763 178.05 0.979142 -92.12 0.979142 -92.12 0.202763 177.67
8.75705000 0.202988 178.04 0.979095 -92.13 0.979095 -92.13 0.202988 177.65
8.75710000 0.203213 178.03 0.979048 -92.14 0.979048 -92.14 0.203213 177.64
8.75715000 0.203439 178.01 0.979001 -92.16 0.979001 -92.16 0.203439 177.63
8.75720000 0.203665 178.00 0.978954 -92.17 0.978954 -92.17 0.203665 177.61
8.75725000 0.203892 177.99 0.978906 -92.18 0.978906 -92.18 0.203892 177.60
8.75730000 0.204119 177.97 0.978859 -92.20 0.978859 -92.20 0.204119 177.58
8.75735000 0.204347 177.96 0.978811 -92.21 0.978811 -92.21 0.204347 177.57
8.75740000 0.204575 177.94 0.978763 -92.23 0.978763 -92.23 0.204575 177.56
8.75745000 0.204804 177.93 0.978715 -92.24 0.978715 -92.24 0.204804 177.54
8.75750000 0.205033 177.92 0.978667 -92.25 0.978667 -92.25 0.205033 177.53
8.75755000 0.205263 177.90 0.978619 -92.27 0.978619 -92.27 0.205263 177.51
8.75760000 0.205493 177.89 0.978570 -92.28 0.978570 -92.28 0.205493 177.50
8.75765000 0.205724 177.87 0.978522 -92.29 0.978522 -92.29 0.205723 177.49
8.75770000 0.205955 177.86 0.978473 -92.31 0.978473 -92.31 0.205955 177.47
8.75775000 0.206187 177.85 0.978424 -92.32 0.978424 -92.32 0.206186 177.46
8.75780000 0.206419 177.83 0.978375 -92.34 0.978375 -92.34 0.206419 177.44
8.75785000 0.206651 177.82 0.978325 -92.35 0.978325 -92.35 0.206651 177.43
8.75790000 0.206885 177.80 0.978276 -92.37 0.978276 -92.37 0.206885 177.42
8.75795000 0.207118 177.79 0.978226 -92.38 0.978226 -92.38 0.207118 177.40
8.75800000 0.207353 177.78 0.978176 -92.39 0.978176 -92.39 0.207352 177.39
8.75805000 0.207587 177.76 0.978126 -92.41 0.978126 -92.41 0.207587 177.37
8.75810000 0.207823 177.75 0.978076 -92.42 0.978076 -92.42 0.207823 177.36
8.75815000 0.208058 177.73 0.978026 -92.44 0.978026 -92.44 0.208058 177.34
8.75820000 0.208295 177.72 0.977975 -92.45 0.977975 -92.45 0.208295 177.33
8.75825000 0.208532 177.71 0.977925 -92.46 0.977925 -92.46 0.208531 177.32
8.75830000 0.208769 177.69 0.977874 -92.48 0.977874 -92.48 0.208769 177.30
8.75835000 0.209007 177.68 0.977823 -92.49 0.977823 -92.49 0.209007 177.29
8.75840000 0.209245 177.66 0.977772 -92.51 0.977772 -92.51 0.209245 177.27
8.75845000 0.209484 177.65 0.977720 -92.52 0.977720 -92.52 0.209484 177.26
8.75850000 0.209724 177.63 0.977669 -92.54 0.977669 -92.54 0.209723 177.24
8.75855000 0.209963 177.62 0.977617 -92.55 0.977617 -92.55 0.209963 177.23
8.75860000 0.210204 177.60 0.977565 -92.57 0.977565 -92.57 0.210204 177.21
8.75865000 0.210445 177.59 0.977513 -92.58 0.977513 -92.58 0.210445 177.20
8.75870000 0.210687 177.58 0.977461 -92.60 0.977461 -92.60 0.210686 177.18
8.75875000 0.210929 177.56 0.977408 -92.61 0.977408 -92.61 0.210929 177.17
8.75880000 0.211171 177.55 0.977356 -92.62 0.977356 -92.62 0.211171 177.16
8.75885000 0.211415 177.53 0.977303 -92.64 0.977303 -92.64 0.211414 177.14
8.75890000 0.211658 177.52 0.977250 -92.65 0.977250 -92.65 0.211658 177.13
8.75895000 0.211903 177.50 0.977197 -92.67 0.977197 -92.67 0.211902 177.11
8.75900000 0.212147 177.49 0.977144 -92.68 0.977144 -92.68 0.212147 177.10
8.75905000 0.212393 177.47 0.977090 -92.70 0.977090 -92.70 0.212393 177.08
8.75910000 0.212639 177.46 0.977036 -92.71 0.977036 -92.71 0.212639 177.07
8.75915000 0.212885 177.44 0.976983 -92.73 0.976983 -92.73 0.212885 177.05
8.75920000 0.213132 177.43 0.976928 -92.74 0.976928 -92.74 0.213132 177.04
8.75925000 0.213380 177.41 0.976874 -92.76 0.976874 -92.76 0.213380 177.02
8.75930000 0.213628 177.40 0.976820 -92.77 0.976820 -92.77 0.213628 177.01
8.75935000 0.213877 177.38 0.976765 -92.79 0.976765 -92.79 0.213876 176.99
8.75940000 0.214126 177.37 0.976710 -92.80 0.976710 -92.80 0.214126 176.98
8.75945000 0.214376 177.35 0.976655 -92.82 0.976655 -92.82 0.214376 176.96
8.75950000 0.214626 177.34 0.976600 -92.83 0.976600 -92.83 0.214626 176.94
8.75955000 0.214877 177.32 0.976545 -92.85 0.976545 -92.85 0.214877 176.93
8.75960000 0.215129 177.31 0.976489 -92.86 0.976489 -92.86 0.215128 176.91
8.75965000 0.215381 177.29 0.976433 -92.88 0.976433 -92.88 0.215380 176.90
8.75970000 0.215633 177.28 0.976377 -92.89 0.976377 -92.89 0.215633 176.88
8.75975000 0.215886 177.26 0.976321 -92.91 0.976321 -92.91 0.215886 176.87
8.75980000 0.216140 177.25 0.976265 -92.93 0.976265 -92.93 0.216140 176.85
8.75985000 0.216395 177.23 0.976208 -92.94 0.976208 -92.94 0.216395 176.84
8.75990000 0.216650 177.21 0.976151 -92.96 0.976151 -92.96 0.216649 176.82
8.75995000 0.216905 177.20 0.976094 -92.97 0.976094 -92.97 0.216905 176.81
8.76000000 0.217161 177.18 0.976037 -92.99 0.976037 -92.99 0.217161 176.79
8.76005000 0.217418 177.17 0.975980 -93.00 0.975980 -93.00 0.217418 176.77
8.76010000 0.217675 177.15 0.975922 -93.02 0.975922 -93.02 0.217675 176.76
8.76015000 0.217933 177.14 0.975865 -93.03 0.975865 -93.03 0.217933 176.74
8.76020000 0.218192 177.12 0.975807 -93.05 0.975807 -93.05 0.218191 176.73
8.76025000 0.218451 177.11 0.975748 -93.06 0.975748 -93.06 0.218451 176.71
8.76030000 0.218710 177.09 0.975690 -93.08 0.975690 -93.08 0.218710 176.70
8.76035000 0.218971 177.07 0.975631 -93.10 0.975631 -93.10 0.218970 176.68
8.76040000 0.219231 177.06 0.975573 -93.11 0.975573 -93.11 0.219231 176.66
8.76045000 0.219493 177.04 0.975514 -93.13 0.975514 -93.13 0.219493 176.65
8.76050000 0.219755 177.03 0.975454 -93.14 0.975454 -93.14 0.219755 176.63
8.76055000 0.220018 177.01 0.975395 -93.16 0.975395 -93.16 0.220018 176.62
8.76060000 0.220281 177.00 0.975335 -93.18 0.975335 -93.18 0.220281 176.60
8.76065000 0.220545 176.98 0.975275 -93.19 0.975275 -93.19 0.220545 176.58
8.76070000 0.220809 176.96 0.975215 -93.21 0.975215 -93.21 0.220809 176.57
8.76075000 0.221074 176.95 0.975155 -93.22 0.975155 -93.22 0.221074 176.55
8.76080000 0.221340 176.93 0.975094 -93.24 0.975094 -93.24 0.221340 176.54
8.76085000 0.221606 176.92 0.975034 -93.26 0.975034 -93.26 0.221606 176.52
8.76090000 0.221873 176.90 0.974973 -93.27 0.974973 -93.27 0.221873 176.50
8.76095000 0.222141 176.88 0.974912 -93.29 0.974912 -93.29 0.222141 176.49
8.76100000 0.222409 176.87 0.974850 -93.30 0.974850 -93.30 0.222409 176.47
8.76105000 0.222678 176.85 0.974789 -93.32 0.974789 -93.32 0.222678 176.46
8.76110000 0.222947 176.83 0.974727 -93.34 0.974727 -93.34 0.222947 176.44
8.76115000 0.223218 176.82 0.974665 -93.35 0.974665 -93.35 0.223217 176.42
8.76120000 0.223488 176.80 0.974602 -93.37 0.974602 -93.37 0.223488 176.41
8.76125000 0.223760 176.79 0.974540 -93.39 0.974540 -93.39 0.223759 176.39
8.76130000 0.224032 176.77 0.974477 -93.40 0.974477 -93.40 0.224031 176.37
8.76135000 0.224304 176.75 0.974414 -93.42 0.974414 -93.42 0.224304 176.36
8.76140000 0.224577 176.74 0.974351 -93.44 0.974351 -93.44 0.224577 176.34
8.76145000 0.224851 176.72 0.974288 -93.45 0.974288 -93.45 0.224851 176.32
8.76150000 0.225126 176.70 0.974224 -93.47 0.974224 -93.47 0.225126 176.31
8.76155000 0.225401 176.69 0.974160 -93.49 0.974160 -93.49 0.225401 176.29
8.76160000 0.225677 176.67 0.974096 -93.50 0.974096 -93.50 0.225677 176.27
8.76165000 0.225953 176.65 0.974032 -93.52 0.974032 -93.52 0.225953 176.26
8.76170000 0.226231 176.64 0.973967 -93.54 0.973967 -93.54 0.226230 176.24
8.76175000 0.226508 176.62 0.973902 -93.55 0.973902 -93.55 0.226508 176.22
8.76180000 0.226787 176.60 0.973837 -93.57 0.973837 -93.57 0.226787 176.21
8.76185000 0.227066 176.59 0.973772 -93.59 0.973772 -93.59 0.227066 176.19
8.76190000 0.227346 176.57 0.973706 -93.60 0.973706 -93.60 0.227346 176.17
8.76195000 0.227626 176.55 0.973641 -93.62 0.973641 -93.62 0.227626 176.15
8.76200000 0.227907 176.54 0.973575 -93.64 0.973575 -93.64 0.227907 176.14
8.76205000 0.228189 176.52 0.973508 -93.65 0.973508 -93.65 0.228189 176.12
8.76210000 0.228472 176.50 0.973442 -93.67 0.973442 -93.67 0.228471 176.10
8.76215000 0.228755 176.48 0.973375 -93.69 0.973375 -93.69 0.228755 176.09
8.76220000 0.229039 176.47 0.973308 -93.71 0.973308 -93.71 0.229038 176.07
8.76225000 0.229323 176.45 0.973241 -93.72 0.973241 -93.72 0.229323 176.05
8.76230000 0.229608 176.43 0.973173 -93.74 0.973173 -93.74 0.229608 176.03
8.76235000 0.229894 176.42 0.973106 -93.76 0.973106 -93.76 0.229894 176.02
8.76240000 0.230181 176.40 0.973038 -93.77 0.973038 -93.77 0.230180 176.00
8.76245000 0.230468 176.38 0.972969 -93.79 0.972969 -93.79 0.230468 175.98
8.76250000 0.230756 176.36 0.972901 -93.81 0.972901 -93.81 0.230756 175.96
8.76255000 0.231044 176.35 0.972832 -93.83 0.972832 -93.83 0.231044 175.95
8.76260000 0.231334 176.33 0.972763 -93.84 0.972763 -93.84 0.231334 175.93
8.76265000 0.231624 176.31 0.972694 -93.86 0.972694 -93.86 0.231624 175.91
8.76270000 0.231914 176.29 0.972624 -93.88 0.972624 -93.88 0.231914 175.89
8.76275000 0.232206 176.28 0.972554 -93.90 0.972554 -93.90 0.232206 175.88
8.76280000 0.232498 176.26 0.972484 -93.91 0.972484 -93.91 0.232498 175.86
8.76285000 0.232791 176.24 0.972414 -93.93 0.972414 -93.93 0.232791 175.84
8.76290000 0.233084 176.22 0.972343 -93.95 0.972343 -93.95 0.233084 175.82
8.76295000 0.233379 176.20 0.972272 -93.97 0.972272 -93.97 0.233378 175.80
8.76300000 0.233674 176.19 0.972201 -93.99 0.972201 -93.99 0.233673 175.79
8.76305000 0.233969 176.17 0.972130 -94.00 0.972130 -94.00 0.233969 175.77
8.76310000 0.234266 176.15 0.972058 -94.02 0.972058 -94.02 0.234265 175.75
8.76315000 0.234563 176.13 0.971986 -94.04 0.971986 -94.04 0.234563 175.73
8.76320000 0.234861 176.12 0.971914 -94.06 0.971914 -94.06 0.234860 175.71
8.76325000 0.235159 176.10 0.971842 -94.08 0.971842 -94.08 0.235159 175.70
8.76330000 0.235458 176.08 0.971769 -94.09 0.971769 -94.09 0.235458 175.68
8.76335000 0.235759 176.06 0.971696 -94.11 0.971696 -94.11 0.235758 175.66
8.76340000 0.236059 176.04 0.971623 -94.13 0.971623 -94.13 0.236059 175.64
8.76345000 0.236361 176.02 0.971549 -94.15 0.971549 -94.15 0.236361 175.62
8.76350000 0.236663 176.01 0.971475 -94.17 0.971475 -94.17 0.236663 175.60
8.76355000 0.236966 175.99 0.971401 -94.18 0.971401 -94.18 0.236966 175.59
8.76360000 0.237270 175.97 0.971327 -94.20 0.971327 -94.20 0.237270 175.57
8.76365000 0.237574 175.95 0.971252 -94.22 0.971252 -94.22 0.237574 175.55
8.76370000 0.237880 175.93 0.971177 -94.24 0.971177 -94.24 0.237879 175.53
8.76375000 0.238186 175.91 0.971102 -94.26 0.971102 -94.26 0.238186 175.51
8.76380000 0.238492 175.90 0.971026 -94.28 0.971026 -94.28 0.238492 175.49
8.76385000 0.238800 175.88 0.970950 -94.30 0.970950 -94.30 0.238800 175.47
8.76390000 0.239108 175.86 0.970874 -94.31 0.970874 -94.31 0.239108 175.46
8.76395000 0.239417 175.84 0.970797 -94.33 0.970797 -94.33 0.239417 175.44
8.76400000 0.239727 175.82 0.970721 -94.35 0.970721 -94.35 0.239727 175.42
8.76405000 0.240038 175.80 0.970644 -94.37 0.970644 -94.37 0.240038 175.40
8.76410000 0.240349 175.78 0.970566 -94.39 0.970566 -94.39 0.240349 175.38
8.76415000 0.240661 175.76 0.970489 -94.41 0.970489 -94.41 0.240661 175.36
8.76420000 0.240974 175.75 0.970411 -94.43 0.970411 -94.43 0.240974 175.34
8.76425000 0.241288 175.73 0.970332 -94.45 0.970332 -94.45 0.241288 175.32
8.76430000 0.241602 175.71 0.970254 -94.47 0.970254 -94.47 0.241602 175.30
8.76435000 0.241918 175.69 0.970175 -94.48 0.970175 -94.48 0.241918 175.29
8.76440000 0.242234 175.67 0.970096 -94.50 0.970096 -94.50 0.242234 175.27
8.76445000 0.242551 175.65 0.970016 -94.52 0.970016 -94.52 0.242550 175.25
8.76450000 0.242868 175.63 0.969936 -94.54 0.969936 -94.54 0.242868 175.23
8.76455000 0.243187 175.61 0.969856 -94.56 0.969856 -94.56 0.243187 175.21
8.76460000 0.243506 175.59 0.969776 -94.58 0.969776 -94.58 0.243506 175.19
8.76465000 0.243826 175.57 0.969695 -94.60 0.969695 -94.60 0.243826 175.17
8.76470000 0.244147 175.55 0.969614 -94.62 0.969614 -94.62 0.244147 175.15
8.76475000 0.244469 175.53 0.969533 -94.64 0.969533 -94.64 0.244469 175.13
8.76480000 0.244791 175.51 0.969451 -94.66 0.969451 -94.66 0.244791 175.11
8.76485000 0.245115 175.50 0.969369 -94.68 0.969369 -94.68 0.245114 175.09
8.76490000 0.245439 175.48 0.969287 -94.70 0.969287 -94.70 0.245439 175.07
8.76495000 0.245764 175.46 0.969204 -94.72 0.969204 -94.72 0.245764 175.05
8.76500000 0.246089 175.44 0.969121 -94.74 0.969121 -94.74 0.246089 175.03
8.76505000 0.246416 175.42 0.969038 -94.76 0.969038 -94.76 0.246416 175.01
8.76510000 0.246744 175.40 0.968954 -94.78 0.968954 -94.78 0.246743 174.99
8.76515000 0.247072 175.38 0.968870 -94.80 0.968870 -94.80 0.247072 174.97
8.76520000 0.247401 175.36 0.968786 -94.82 0.968786 -94.82 0.247401 174.95
8.76525000 0.247731 175.34 0.968701 -94.84 0.968701 -94.84 0.247731 174.93
8.76530000 0.248062 175.32 0.968616 -94.86 0.968616 -94.86 0.248062 174.91
8.76535000 0.248393 175.30 0.968531 -94.88 0.968531 -94.88 0.248393 174.89
8.76540000 0.248726 175.28 0.968445 -94.90 0.968445 -94.90 0.248726 174.87
8.76545000 0.249059 175.26 0.968359 -94.92 0.968359 -94.92 0.249059 174.85
8.76550000 0.249394 175.24 0.968273 -94.94 0.968273 -94.94 0.249393 174.83
8.76555000 0.249729 175.22 0.968186 -94.96 0.968186 -94.96 0.249729 174.81
8.76560000 0.250065 175.20 0.968099 -94.98 0.968099 -94.98 0.250064 174.79
8.76565000 0.250401 175.18 0.968012 -95.00 0.968012 -95.00 0.250401 174.77
8.76570000 0.250739 175.16 0.967924 -95.02 0.967924 -95.02 0.250739 174.75
8.76575000 0.251078 175.13 0.967836 -95.04 0.967836 -95.04 0.251078 174.73
8.76580000 0.251417 175.11 0.967747 -95.06 0.967747 -95.06 0.251417 174.71
8.76585000 0.251758 175.09 0.967658 -95.08 0.967658 -95.08 0.251757 174.69
8.76590000 0.252099 175.07 0.967569 -95.10 0.967569 -95.10 0.252099 174.67
8.76595000 0.252441 175.05 0.967480 -95.12 0.967480 -95.12 0.252441 174.65
8.76600000 0.252784 175.03 0.967390 -95.14 0.967390 -95.14 0.252784 174.62
8.76605000 0.253128 175.01 0.967300 -95.16 0.967300 -95.16 0.253128 174.60
8.76610000 0.253472 174.99 0.967209 -95.18 0.967209 -95.18 0.253472 174.58
8.76615000 0.253818 174.97 0.967118 -95.20 0.967118 -95.20 0.253818 174.56
8.76620000 0.254165 174.95 0.967026 -95.23 0.967026 -95.23 0.254165 174.54
8.76625000 0.254512 174.93 0.966935 -95.25 0.966935 -95.25 0.254512 174.52
8.76630000 0.254861 174.91 0.966843 -95.27 0.966843 -95.27 0.254860 174.50
8.76635000 0.255210 174.88 0.966750 -95.29 0.966750 -95.29 0.255210 174.48
8.76640000 0.255560 174.86 0.966657 -95.31 0.966657 -95.31 0.255560 174.46
8.76645000 0.255911 174.84 0.966564 -95.33 0.966564 -95.33 0.255911 174.43
8.76650000 0.256263 174.82 0.966470 -95.35 0.966470 -95.35 0.256263 174.41
8.76655000 0.256616 174.80 0.966376 -95.37 0.966376 -95.37 0.256616 174.39
8.76660000 0.256970 174.78 0.966282 -95.40 0.966282 -95.40 0.256970 174.37
8.76665000 0.257325 174.76 0.966187 -95.42 0.966187 -95.42 0.257325 174.35
8.76670000 0.257681 174.73 0.966092 -95.44 0.966092 -95.44 0.257681 174.33
8.76675000 0.258038 174.71 0.965996 -95.46 0.965996 -95.46 0.258038 174.30
8.76680000 0.258395 174.69 0.965900 -95.48 0.965900 -95.48 0.258395 174.28
8.76685000 0.258754 174.67 0.965804 -95.50 0.965804 -95.50 0.258754 174.26
8.76690000 0.259114 174.65 0.965707 -95.53 0.965707 -95.53 0.259114 174.24
8.76695000 0.259474 174.63 0.965610 -95.55 0.965610 -95.55 0.259474 174.22
8.76700000 0.259836 174.60 0.965512 -95.57 0.965512 -95.57 0.259836 174.20
8.76705000 0.260198 174.58 0.965414 -95.59 0.965414 -95.59 0.260198 174.17
8.76710000 0.260562 174.56 0.965316 -95.61 0.965316 -95.61 0.260562 174.15
8.76715000 0.260926 174.54 0.965217 -95.64 0.965217 -95.64 0.260926 174.13
8.76720000 0.261291 174.52 0.965118 -95.66 0.965118 -95.66 0.261291 174.11
8.76725000 0.261658 174.49 0.965018 -95.68 0.965018 -95.68 0.261658 174.08
8.76730000 0.262025 174.47 0.964918 -95.70 0.964918 -95.70 0.262025 174.06
8.76735000 0.262394 174.45 0.964818 -95.72 0.964818 -95.72 0.262393 174.04
8.76740000 0.262763 174.43 0.964717 -95.75 0.964717 -95.75 0.262763 174.02
8.76745000 0.263133 174.40 0.964615 -95.77 0.964615 -95.77 0.263133 173.99
8.76750000 0.263505 174.38 0.964514 -95.79 0.964514 -95.79 0.263504 173.97
8.76755000 0.263877 174.36 0.964411 -95.81 0.964411 -95.81 0.263877 173.95
8.76760000 0.264250 174.34 0.964309 -95.84 0.964309 -95.84 0.264250 173.93
8.76765000 0.264625 174.31 0.964206 -95.86 0.964206 -95.86 0.264624 173.90
8.76770000 0.265000 174.29 0.964102 -95.88 0.964102 -95.88 0.265000 173.88
8.76775000 0.265376 174.27 0.963998 -95.91 0.963998 -95.91 0.265376 173.86
8.76780000 0.265754 174.25 0.963894 -95.93 0.963894 -95.93 0.265753 173.83
8.76785000 0.266132 174.22 0.963789 -95.95 0.963789 -95.95 0.266132 173.81
8.76790000 0.266511 174.20 0.963684 -95.97 0.963684 -95.97 0.266511 173.79
8.76795000 0.266892 174.18 0.963578 -96.00 0.963578 -96.00 0.266892 173.77
8.76800000 0.267273 174.15 0.963472 -96.02 0.963472 -96.02 0.267273 173.74
8.76805000 0.267656 174.13 0.963365 -96.04 0.963365 -96.04 0.267656 173.72
8.76810000 0.268040 174.11 0.963258 -96.07 0.963258 -96.07 0.268039 173.70
8.76815000 0.268424 174.08 0.963151 -96.09 0.963151 -96.09 0.268424 173.67
8.76820000 0.268810 174.06 0.963043 -96.11 0.963043 -96.11 0.268810 173.65
8.76825000 0.269197 174.04 0.962934 -96.14 0.962934 -96.14 0.269197 173.62
8.76830000 0.269585 174.01 0.962825 -96.16 0.962825 -96.16 0.269584 173.60
8.76835000 0.269973 173.99 0.962716 -96.18 0.962716 -96.18 0.269973 173.58
8.76840000 0.270363 173.97 0.962606 -96.21 0.962606 -96.21 0.270363 173.55
8.76845000 0.270754 173.94 0.962496 -96.23 0.962496 -96.23 0.270754 173.53
8.76850000 0.271147 173.92 0.962385 -96.26 0.962385 -96.26 0.271146 173.51
8.76855000 0.271540 173.89 0.962274 -96.28 0.962274 -96.28 0.271540 173.48
8.76860000 0.271934 173.87 0.962162 -96.30 0.962162 -96.30 0.271934 173.46
8.76865000 0.272329 173.85 0.962050 -96.33 0.962050 -96.33 0.272329 173.43
8.76870000 0.272726 173.82 0.961937 -96.35 0.961937 -96.35 0.272726 173.41
8.76875000 0.273123 173.80 0.961824 -96.38 0.961824 -96.38 0.273123 173.39
8.76880000 0.273522 173.77 0.961710 -96.40 0.961710 -96.40 0.273522 173.36
8.76885000 0.273922 173.75 0.961596 -96.42 0.961596 -96.42 0.273922 173.34
8.76890000 0.274323 173.73 0.961481 -96.45 0.961481 -96.45 0.274323 173.31
8.76895000 0.274725 173.70 0.961366 -96.47 0.961366 -96.47 0.274725 173.29
8.76900000 0.275128 173.68 0.961250 -96.50 0.961250 -96.50 0.275128 173.26
8.76905000 0.275532 173.65 0.961134 -96.52 0.961134 -96.52 0.275532 173.24
8.76910000 0.275938 173.63 0.961017 -96.55 0.961017 -96.55 0.275938 173.21
8.76915000 0.276344 173.60 0.960900 -96.57 0.960900 -96.57 0.276344 173.19
8.76920000 0.276752 173.58 0.960782 -96.60 0.960782 -96.60 0.276752 173.16
8.76925000 0.277161 173.55 0.960664 -96.62 0.960664 -96.62 0.277161 173.14
8.76930000 0.277571 173.53 0.960545 -96.65 0.960545 -96.65 0.277571 173.11
8.76935000 0.277982 173.50 0.960425 -96.67 0.960425 -96.67 0.277982 173.09
8.76940000 0.278394 173.48 0.960305 -96.70 0.960305 -96.70 0.278394 173.06
8.76945000 0.278808 173.45 0.960185 -96.72 0.960185 -96.72 0.278807 173.04
8.76950000 0.279222 173.43 0.960064 -96.75 0.960064 -96.75 0.279222 173.01
8.76955000 0.279638 173.40 0.959943 -96.77 0.959943 -96.77 0.279638 172.99
8.76960000 0.280055 173.38 0.959821 -96.80 0.959821 -96.80 0.280055 172.96