! Sonnet Data File
! From: emgraph Version : 16.52
! From Project: transmon_trial
! Data is De-embedded 
! Data File Written: 10/20/2017 15:56:55
!< HDATE 10/20/2017 14:38:19
!< MDATE 10/20/2017 14:38:19
!< PARAMS
!< Lj = 15.24
!< Gap = 6.0
!< Width = 20.0
!< Airgap = 12.0
!< Pwidth = 2000.0
!< END PARAMS
# GHZ S MA R 51.00000
8.75000000 0.152495 -179.8 0.988242 -89.95 0.988242 -89.95 0.152495 179.86
!< P1 F=8.75 Eeff=(6.44618815 -2.9977e-5) Z0=(50.9066419 1.15687e-4) R=0.0 C=0.0 
!< P2 F=8.75 Eeff=(6.44618815 -2.9977e-5) Z0=(50.9066419 1.15687e-4) R=0.0 C=0.0 
8.75005000 0.152657 -179.8 0.988217 -89.96 0.988217 -89.96 0.152657 179.85
8.75010000 0.152819 -179.8 0.988192 -89.97 0.988192 -89.97 0.152819 179.84
8.75015000 0.152981 -179.8 0.988167 -89.98 0.988167 -89.98 0.152981 179.83
8.75020000 0.153144 -179.8 0.988142 -89.99 0.988142 -89.99 0.153143 179.82
8.75025000 0.153307 -179.8 0.988116 -90.00 0.988116 -90.00 0.153306 179.81
8.75030000 0.153470 -179.9 0.988091 -90.00 0.988091 -90.00 0.153470 179.80
8.75035000 0.153633 -179.9 0.988065 -90.01 0.988065 -90.01 0.153633 179.79
8.75040000 0.153797 -179.9 0.988040 -90.02 0.988040 -90.02 0.153797 179.78
8.75045000 0.153961 -179.9 0.988014 -90.03 0.988014 -90.03 0.153961 179.77
8.75050000 0.154126 -179.9 0.987988 -90.04 0.987988 -90.04 0.154126 179.76
8.75055000 0.154290 -179.9 0.987962 -90.05 0.987962 -90.05 0.154290 179.75
8.75060000 0.154456 -179.9 0.987937 -90.06 0.987937 -90.06 0.154455 179.74
8.75065000 0.154621 -179.9 0.987911 -90.07 0.987911 -90.07 0.154621 179.73
8.75070000 0.154787 -179.9 0.987885 -90.09 0.987885 -90.09 0.154787 179.72
8.75075000 0.154953 -179.9 0.987858 -90.10 0.987858 -90.10 0.154953 179.71
8.75080000 0.155119 -180.0 0.987832 -90.11 0.987832 -90.11 0.155119 179.70
8.75085000 0.155286 -180.0 0.987806 -90.12 0.987806 -90.12 0.155286 179.69
8.75090000 0.155453 -180.0 0.987779 -90.13 0.987779 -90.13 0.155453 179.68
8.75095000 0.155620 -180.0 0.987753 -90.14 0.987753 -90.14 0.155620 179.67
8.75100000 0.155788 -180.0 0.987726 -90.15 0.987726 -90.15 0.155788 179.66
8.75105000 0.155956 180.00 0.987700 -90.16 0.987700 -90.16 0.155956 179.65
8.75110000 0.156124 179.99 0.987673 -90.17 0.987673 -90.17 0.156124 179.63
8.75115000 0.156293 179.98 0.987646 -90.18 0.987646 -90.18 0.156293 179.62
8.75120000 0.156462 179.97 0.987619 -90.19 0.987619 -90.19 0.156462 179.61
8.75125000 0.156631 179.96 0.987592 -90.20 0.987592 -90.20 0.156631 179.60
8.75130000 0.156801 179.95 0.987565 -90.21 0.987565 -90.21 0.156801 179.59
8.75135000 0.156971 179.93 0.987538 -90.22 0.987538 -90.22 0.156971 179.58
8.75140000 0.157141 179.92 0.987511 -90.23 0.987511 -90.23 0.157141 179.57
8.75145000 0.157312 179.91 0.987484 -90.24 0.987484 -90.24 0.157312 179.56
8.75150000 0.157483 179.90 0.987456 -90.25 0.987456 -90.25 0.157483 179.55
8.75155000 0.157654 179.89 0.987429 -90.26 0.987429 -90.26 0.157654 179.54
8.75160000 0.157826 179.88 0.987401 -90.27 0.987401 -90.27 0.157826 179.53
8.75165000 0.157998 179.87 0.987374 -90.28 0.987374 -90.28 0.157998 179.52
8.75170000 0.158170 179.86 0.987346 -90.29 0.987346 -90.29 0.158170 179.51
8.75175000 0.158343 179.85 0.987318 -90.30 0.987318 -90.30 0.158343 179.50
8.75180000 0.158516 179.84 0.987290 -90.31 0.987290 -90.31 0.158516 179.49
8.75185000 0.158689 179.83 0.987262 -90.32 0.987262 -90.32 0.158689 179.48
8.75190000 0.158863 179.82 0.987234 -90.33 0.987234 -90.33 0.158863 179.47
8.75195000 0.159037 179.81 0.987206 -90.34 0.987206 -90.34 0.159037 179.46
8.75200000 0.159211 179.80 0.987178 -90.35 0.987178 -90.35 0.159211 179.45
8.75205000 0.159386 179.79 0.987150 -90.36 0.987150 -90.36 0.159386 179.43
8.75210000 0.159561 179.78 0.987121 -90.38 0.987121 -90.38 0.159561 179.42
8.75215000 0.159737 179.77 0.987093 -90.39 0.987093 -90.39 0.159736 179.41
8.75220000 0.159912 179.76 0.987064 -90.40 0.987064 -90.40 0.159912 179.40
8.75225000 0.160088 179.75 0.987035 -90.41 0.987035 -90.41 0.160088 179.39
8.75230000 0.160265 179.74 0.987007 -90.42 0.987007 -90.42 0.160265 179.38
8.75235000 0.160442 179.73 0.986978 -90.43 0.986978 -90.43 0.160442 179.37
8.75240000 0.160619 179.71 0.986949 -90.44 0.986949 -90.44 0.160619 179.36
8.75245000 0.160797 179.70 0.986920 -90.45 0.986920 -90.45 0.160796 179.35
8.75250000 0.160974 179.69 0.986891 -90.46 0.986891 -90.46 0.160974 179.34
8.75255000 0.161153 179.68 0.986861 -90.47 0.986861 -90.47 0.161152 179.33
8.75260000 0.161331 179.67 0.986832 -90.48 0.986832 -90.48 0.161331 179.32
8.75265000 0.161510 179.66 0.986803 -90.49 0.986803 -90.49 0.161510 179.30
8.75270000 0.161690 179.65 0.986773 -90.50 0.986773 -90.50 0.161689 179.29
8.75275000 0.161869 179.64 0.986744 -90.52 0.986744 -90.52 0.161869 179.28
8.75280000 0.162049 179.63 0.986714 -90.53 0.986714 -90.53 0.162049 179.27
8.75285000 0.162230 179.62 0.986684 -90.54 0.986684 -90.54 0.162229 179.26
8.75290000 0.162410 179.61 0.986654 -90.55 0.986654 -90.55 0.162410 179.25
8.75295000 0.162592 179.60 0.986624 -90.56 0.986624 -90.56 0.162591 179.24
8.75300000 0.162773 179.58 0.986594 -90.57 0.986594 -90.57 0.162773 179.23
8.75305000 0.162955 179.57 0.986564 -90.58 0.986564 -90.58 0.162955 179.22
8.75310000 0.163137 179.56 0.986534 -90.59 0.986534 -90.59 0.163137 179.20
8.75315000 0.163320 179.55 0.986503 -90.60 0.986503 -90.60 0.163320 179.19
8.75320000 0.163503 179.54 0.986473 -90.61 0.986473 -90.61 0.163503 179.18
8.75325000 0.163686 179.53 0.986443 -90.63 0.986443 -90.63 0.163686 179.17
8.75330000 0.163870 179.52 0.986412 -90.64 0.986412 -90.64 0.163870 179.16
8.75335000 0.164054 179.51 0.986381 -90.65 0.986381 -90.65 0.164054 179.15
8.75340000 0.164238 179.50 0.986350 -90.66 0.986350 -90.66 0.164238 179.14
8.75345000 0.164423 179.49 0.986319 -90.67 0.986319 -90.67 0.164423 179.13
8.75350000 0.164608 179.47 0.986288 -90.68 0.986288 -90.68 0.164608 179.11
8.75355000 0.164794 179.46 0.986257 -90.69 0.986257 -90.69 0.164794 179.10
8.75360000 0.164980 179.45 0.986226 -90.70 0.986226 -90.70 0.164980 179.09
8.75365000 0.165166 179.44 0.986195 -90.71 0.986195 -90.71 0.165166 179.08
8.75370000 0.165353 179.43 0.986163 -90.73 0.986163 -90.73 0.165353 179.07
8.75375000 0.165540 179.42 0.986132 -90.74 0.986132 -90.74 0.165540 179.06
8.75380000 0.165728 179.41 0.986100 -90.75 0.986100 -90.75 0.165728 179.05
8.75385000 0.165916 179.40 0.986068 -90.76 0.986068 -90.76 0.165915 179.03
8.75390000 0.166104 179.38 0.986036 -90.77 0.986036 -90.77 0.166104 179.02
8.75395000 0.166293 179.37 0.986005 -90.78 0.986005 -90.78 0.166292 179.01
8.75400000 0.166482 179.36 0.985972 -90.79 0.985972 -90.79 0.166481 179.00
8.75405000 0.166671 179.35 0.985940 -90.81 0.985940 -90.81 0.166671 178.99
8.75410000 0.166861 179.34 0.985908 -90.82 0.985908 -90.82 0.166861 178.98
8.75415000 0.167051 179.33 0.985876 -90.83 0.985876 -90.83 0.167051 178.97
8.75420000 0.167242 179.32 0.985843 -90.84 0.985843 -90.84 0.167242 178.95
8.75425000 0.167433 179.30 0.985811 -90.85 0.985811 -90.85 0.167433 178.94
8.75430000 0.167624 179.29 0.985778 -90.86 0.985778 -90.86 0.167624 178.93
8.75435000 0.167816 179.28 0.985745 -90.88 0.985745 -90.88 0.167816 178.92
8.75440000 0.168008 179.27 0.985712 -90.89 0.985712 -90.89 0.168008 178.91
8.75445000 0.168201 179.26 0.985679 -90.90 0.985679 -90.90 0.168201 178.90
8.75450000 0.168394 179.25 0.985646 -90.91 0.985646 -90.91 0.168394 178.88
8.75455000 0.168587 179.23 0.985613 -90.92 0.985613 -90.92 0.168587 178.87
8.75460000 0.168781 179.22 0.985580 -90.93 0.985580 -90.93 0.168781 178.86
8.75465000 0.168975 179.21 0.985546 -90.95 0.985546 -90.95 0.168975 178.85
8.75470000 0.169170 179.20 0.985513 -90.96 0.985513 -90.96 0.169170 178.84
8.75475000 0.169365 179.19 0.985479 -90.97 0.985479 -90.97 0.169365 178.82
8.75480000 0.169560 179.18 0.985445 -90.98 0.985445 -90.98 0.169560 178.81
8.75485000 0.169756 179.16 0.985411 -90.99 0.985411 -90.99 0.169756 178.80
8.75490000 0.169952 179.15 0.985377 -91.00 0.985377 -91.00 0.169952 178.79
8.75495000 0.170149 179.14 0.985343 -91.02 0.985343 -91.02 0.170149 178.78
8.75500000 0.170346 179.13 0.985309 -91.03 0.985309 -91.03 0.170346 178.76
8.75505000 0.170543 179.12 0.985275 -91.04 0.985275 -91.04 0.170543 178.75
8.75510000 0.170741 179.11 0.985240 -91.05 0.985240 -91.05 0.170741 178.74
8.75515000 0.170940 179.09 0.985206 -91.06 0.985206 -91.06 0.170939 178.73
8.75520000 0.171138 179.08 0.985171 -91.08 0.985171 -91.08 0.171138 178.72
8.75525000 0.171338 179.07 0.985136 -91.09 0.985136 -91.09 0.171337 178.70
8.75530000 0.171537 179.06 0.985102 -91.10 0.985102 -91.10 0.171537 178.69
8.75535000 0.171737 179.05 0.985067 -91.11 0.985067 -91.11 0.171737 178.68
8.75540000 0.171938 179.03 0.985031 -91.12 0.985031 -91.12 0.171937 178.67
8.75545000 0.172138 179.02 0.984996 -91.14 0.984996 -91.14 0.172138 178.65
8.75550000 0.172340 179.01 0.984961 -91.15 0.984961 -91.15 0.172339 178.64
8.75555000 0.172541 179.00 0.984925 -91.16 0.984925 -91.16 0.172541 178.63
8.75560000 0.172743 178.98 0.984890 -91.17 0.984890 -91.17 0.172743 178.62
8.75565000 0.172946 178.97 0.984854 -91.19 0.984854 -91.19 0.172946 178.61
8.75570000 0.173149 178.96 0.984818 -91.20 0.984818 -91.20 0.173149 178.59
8.75575000 0.173352 178.95 0.984782 -91.21 0.984782 -91.21 0.173352 178.58
8.75580000 0.173556 178.94 0.984746 -91.22 0.984746 -91.22 0.173556 178.57
8.75585000 0.173761 178.92 0.984710 -91.23 0.984710 -91.23 0.173760 178.56
8.75590000 0.173965 178.91 0.984674 -91.25 0.984674 -91.25 0.173965 178.54
8.75595000 0.174170 178.90 0.984637 -91.26 0.984637 -91.26 0.174170 178.53
8.75600000 0.174376 178.89 0.984601 -91.27 0.984601 -91.27 0.174376 178.52
8.75605000 0.174582 178.87 0.984564 -91.28 0.984564 -91.28 0.174582 178.51
8.75610000 0.174789 178.86 0.984527 -91.30 0.984527 -91.30 0.174788 178.49
8.75615000 0.174996 178.85 0.984490 -91.31 0.984490 -91.31 0.174995 178.48
8.75620000 0.175203 178.84 0.984453 -91.32 0.984453 -91.32 0.175203 178.47
8.75625000 0.175411 178.82 0.984416 -91.33 0.984416 -91.33 0.175411 178.46
8.75630000 0.175619 178.81 0.984379 -91.35 0.984379 -91.35 0.175619 178.44
8.75635000 0.175828 178.80 0.984341 -91.36 0.984341 -91.36 0.175827 178.43
8.75640000 0.176037 178.79 0.984304 -91.37 0.984304 -91.37 0.176037 178.42
8.75645000 0.176246 178.77 0.984266 -91.39 0.984266 -91.39 0.176246 178.40
8.75650000 0.176457 178.76 0.984228 -91.40 0.984228 -91.40 0.176456 178.39
8.75655000 0.176667 178.75 0.984190 -91.41 0.984190 -91.41 0.176667 178.38
8.75660000 0.176878 178.74 0.984152 -91.42 0.984152 -91.42 0.176878 178.37
8.75665000 0.177089 178.72 0.984114 -91.44 0.984114 -91.44 0.177089 178.35
8.75670000 0.177301 178.71 0.984076 -91.45 0.984076 -91.45 0.177301 178.34
8.75675000 0.177514 178.70 0.984037 -91.46 0.984037 -91.46 0.177514 178.33
8.75680000 0.177727 178.69 0.983999 -91.47 0.983999 -91.47 0.177726 178.31
8.75685000 0.177940 178.67 0.983960 -91.49 0.983960 -91.49 0.177940 178.30
8.75690000 0.178154 178.66 0.983921 -91.50 0.983921 -91.50 0.178153 178.29
8.75695000 0.178368 178.65 0.983882 -91.51 0.983882 -91.51 0.178368 178.27
8.75700000 0.178583 178.63 0.983843 -91.53 0.983843 -91.53 0.178582 178.26
8.75705000 0.178798 178.62 0.983804 -91.54 0.983804 -91.54 0.178797 178.25
8.75710000 0.179013 178.61 0.983765 -91.55 0.983765 -91.55 0.179013 178.24
8.75715000 0.179229 178.59 0.983725 -91.57 0.983725 -91.57 0.179229 178.22
8.75720000 0.179446 178.58 0.983685 -91.58 0.983685 -91.58 0.179446 178.21
8.75725000 0.179663 178.57 0.983646 -91.59 0.983646 -91.59 0.179663 178.20
8.75730000 0.179881 178.56 0.983606 -91.60 0.983606 -91.60 0.179880 178.18
8.75735000 0.180099 178.54 0.983566 -91.62 0.983566 -91.62 0.180098 178.17
8.75740000 0.180317 178.53 0.983525 -91.63 0.983525 -91.63 0.180317 178.16
8.75745000 0.180536 178.52 0.983485 -91.64 0.983485 -91.64 0.180536 178.14
8.75750000 0.180755 178.50 0.983444 -91.66 0.983444 -91.66 0.180755 178.13
8.75755000 0.180975 178.49 0.983404 -91.67 0.983404 -91.67 0.180975 178.12
8.75760000 0.181196 178.48 0.983363 -91.68 0.983363 -91.68 0.181196 178.10
8.75765000 0.181417 178.46 0.983322 -91.70 0.983322 -91.70 0.181417 178.09
8.75770000 0.181638 178.45 0.983281 -91.71 0.983281 -91.71 0.181638 178.08
8.75775000 0.181860 178.44 0.983240 -91.72 0.983240 -91.72 0.181860 178.06
8.75780000 0.182082 178.42 0.983199 -91.74 0.983199 -91.74 0.182082 178.05
8.75785000 0.182305 178.41 0.983157 -91.75 0.983157 -91.75 0.182305 178.04
8.75790000 0.182529 178.40 0.983115 -91.76 0.983115 -91.76 0.182528 178.02
8.75795000 0.182753 178.38 0.983074 -91.78 0.983074 -91.78 0.182752 178.01
8.75800000 0.182977 178.37 0.983032 -91.79 0.983032 -91.79 0.182977 177.99
8.75805000 0.183202 178.36 0.982990 -91.81 0.982990 -91.81 0.183202 177.98
8.75810000 0.183427 178.34 0.982947 -91.82 0.982947 -91.82 0.183427 177.97
8.75815000 0.183653 178.33 0.982905 -91.83 0.982905 -91.83 0.183653 177.95
8.75820000 0.183879 178.32 0.982863 -91.85 0.982863 -91.85 0.183879 177.94
8.75825000 0.184106 178.30 0.982820 -91.86 0.982820 -91.86 0.184106 177.93
8.75830000 0.184334 178.29 0.982777 -91.87 0.982777 -91.87 0.184334 177.91
8.75835000 0.184562 178.27 0.982734 -91.89 0.982734 -91.89 0.184561 177.90
8.75840000 0.184790 178.26 0.982691 -91.90 0.982691 -91.90 0.184790 177.88
8.75845000 0.185019 178.25 0.982648 -91.91 0.982648 -91.91 0.185019 177.87
8.75850000 0.185248 178.23 0.982604 -91.93 0.982604 -91.93 0.185248 177.86
8.75855000 0.185478 178.22 0.982561 -91.94 0.982561 -91.94 0.185478 177.84
8.75860000 0.185709 178.21 0.982517 -91.96 0.982517 -91.96 0.185709 177.83
8.75865000 0.185940 178.19 0.982473 -91.97 0.982473 -91.97 0.185940 177.81
8.75870000 0.186172 178.18 0.982429 -91.98 0.982429 -91.98 0.186171 177.80
8.75875000 0.186404 178.16 0.982385 -92.00 0.982385 -92.00 0.186403 177.79
8.75880000 0.186636 178.15 0.982341 -92.01 0.982341 -92.01 0.186636 177.77
8.75885000 0.186869 178.14 0.982296 -92.03 0.982296 -92.03 0.186869 177.76
8.75890000 0.187103 178.12 0.982251 -92.04 0.982251 -92.04 0.187103 177.74
8.75895000 0.187337 178.11 0.982206 -92.05 0.982206 -92.05 0.187337 177.73
8.75900000 0.187572 178.09 0.982161 -92.07 0.982161 -92.07 0.187572 177.71
8.75905000 0.187807 178.08 0.982116 -92.08 0.982116 -92.08 0.187807 177.70
8.75910000 0.188043 178.07 0.982071 -92.10 0.982071 -92.10 0.188043 177.69
8.75915000 0.188279 178.05 0.982026 -92.11 0.982026 -92.11 0.188279 177.67
8.75920000 0.188516 178.04 0.981980 -92.13 0.981980 -92.13 0.188516 177.66
8.75925000 0.188754 178.02 0.981934 -92.14 0.981934 -92.14 0.188753 177.64
8.75930000 0.188991 178.01 0.981888 -92.15 0.981888 -92.15 0.188991 177.63
8.75935000 0.189230 177.99 0.981842 -92.17 0.981842 -92.17 0.189230 177.61
8.75940000 0.189469 177.98 0.981796 -92.18 0.981796 -92.18 0.189469 177.60
8.75945000 0.189709 177.97 0.981749 -92.20 0.981749 -92.20 0.189708 177.58
8.75950000 0.189949 177.95 0.981703 -92.21 0.981703 -92.21 0.189949 177.57
8.75955000 0.190189 177.94 0.981656 -92.23 0.981656 -92.23 0.190189 177.56
8.75960000 0.190431 177.92 0.981609 -92.24 0.981609 -92.24 0.190431 177.54
8.75965000 0.190673 177.91 0.981562 -92.26 0.981562 -92.26 0.190672 177.53
8.75970000 0.190915 177.89 0.981514 -92.27 0.981514 -92.27 0.190915 177.51
8.75975000 0.191158 177.88 0.981467 -92.28 0.981467 -92.28 0.191158 177.50
8.75980000 0.191401 177.86 0.981419 -92.30 0.981419 -92.30 0.191401 177.48
8.75985000 0.191645 177.85 0.981371 -92.31 0.981371 -92.31 0.191645 177.47
8.75990000 0.191890 177.83 0.981323 -92.33 0.981323 -92.33 0.191890 177.45
8.75995000 0.192135 177.82 0.981275 -92.34 0.981275 -92.34 0.192135 177.44
8.76000000 0.192381 177.81 0.981227 -92.36 0.981227 -92.36 0.192381 177.42
8.76005000 0.192627 177.79 0.981178 -92.37 0.981178 -92.37 0.192627 177.41
8.76010000 0.192874 177.78 0.981129 -92.39 0.981129 -92.39 0.192874 177.39
8.76015000 0.193122 177.76 0.981080 -92.40 0.981080 -92.40 0.193122 177.38
8.76020000 0.193370 177.75 0.981031 -92.42 0.981031 -92.42 0.193370 177.36
8.76025000 0.193619 177.73 0.980982 -92.43 0.980982 -92.43 0.193618 177.35
8.76030000 0.193868 177.72 0.980933 -92.45 0.980933 -92.45 0.193868 177.33
8.76035000 0.194118 177.70 0.980883 -92.46 0.980883 -92.46 0.194117 177.32
8.76040000 0.194368 177.69 0.980833 -92.48 0.980833 -92.48 0.194368 177.30
8.76045000 0.194619 177.67 0.980783 -92.49 0.980783 -92.49 0.194619 177.29
8.76050000 0.194871 177.66 0.980733 -92.51 0.980733 -92.51 0.194870 177.27
8.76055000 0.195123 177.64 0.980683 -92.52 0.980683 -92.52 0.195123 177.26
8.76060000 0.195376 177.63 0.980632 -92.54 0.980632 -92.54 0.195375 177.24
8.76065000 0.195629 177.61 0.980581 -92.55 0.980581 -92.55 0.195629 177.23
8.76070000 0.195883 177.59 0.980531 -92.57 0.980531 -92.57 0.195883 177.21
8.76075000 0.196138 177.58 0.980479 -92.59 0.980479 -92.59 0.196137 177.19
8.76080000 0.196393 177.56 0.980428 -92.60 0.980428 -92.60 0.196392 177.18
8.76085000 0.196648 177.55 0.980377 -92.62 0.980377 -92.62 0.196648 177.16
8.76090000 0.196905 177.53 0.980325 -92.63 0.980325 -92.63 0.196905 177.15
8.76095000 0.197162 177.52 0.980273 -92.65 0.980273 -92.65 0.197162 177.13
8.76100000 0.197419 177.50 0.980221 -92.66 0.980221 -92.66 0.197419 177.12
8.76105000 0.197678 177.49 0.980169 -92.68 0.980169 -92.68 0.197677 177.10
8.76110000 0.197937 177.47 0.980116 -92.69 0.980116 -92.69 0.197936 177.09
8.76115000 0.198196 177.46 0.980064 -92.71 0.980064 -92.71 0.198196 177.07
8.76120000 0.198456 177.44 0.980011 -92.72 0.980011 -92.72 0.198456 177.05
8.76125000 0.198717 177.42 0.979958 -92.74 0.979958 -92.74 0.198717 177.04
8.76130000 0.198978 177.41 0.979904 -92.76 0.979904 -92.76 0.198978 177.02
8.76135000 0.199240 177.39 0.979851 -92.77 0.979851 -92.77 0.199240 177.01
8.76140000 0.199503 177.38 0.979797 -92.79 0.979797 -92.79 0.199502 176.99
8.76145000 0.199766 177.36 0.979743 -92.80 0.979743 -92.80 0.199766 176.97
8.76150000 0.200030 177.35 0.979689 -92.82 0.979689 -92.82 0.200029 176.96
8.76155000 0.200294 177.33 0.979635 -92.84 0.979635 -92.84 0.200294 176.94
8.76160000 0.200559 177.31 0.979581 -92.85 0.979581 -92.85 0.200559 176.93
8.76165000 0.200825 177.30 0.979526 -92.87 0.979526 -92.87 0.200825 176.91
8.76170000 0.201091 177.28 0.979471 -92.88 0.979471 -92.88 0.201091 176.89
8.76175000 0.201358 177.27 0.979416 -92.90 0.979416 -92.90 0.201358 176.88
8.76180000 0.201626 177.25 0.979360 -92.92 0.979360 -92.92 0.201626 176.86
8.76185000 0.201895 177.23 0.979305 -92.93 0.979305 -92.93 0.201894 176.84
8.76190000 0.202163 177.22 0.979249 -92.95 0.979249 -92.95 0.202163 176.83
8.76195000 0.202433 177.20 0.979193 -92.96 0.979193 -92.96 0.202433 176.81
8.76200000 0.202703 177.19 0.979137 -92.98 0.979137 -92.98 0.202703 176.80
8.76205000 0.202974 177.17 0.979081 -93.00 0.979081 -93.00 0.202974 176.78
8.76210000 0.203246 177.15 0.979024 -93.01 0.979024 -93.01 0.203246 176.76
8.76215000 0.203518 177.14 0.978967 -93.03 0.978967 -93.03 0.203518 176.75
8.76220000 0.203791 177.12 0.978910 -93.05 0.978910 -93.05 0.203791 176.73
8.76225000 0.204065 177.10 0.978853 -93.06 0.978853 -93.06 0.204065 176.71
8.76230000 0.204339 177.09 0.978796 -93.08 0.978796 -93.08 0.204339 176.70
8.76235000 0.204614 177.07 0.978738 -93.10 0.978738 -93.10 0.204614 176.68
8.76240000 0.204890 177.05 0.978680 -93.11 0.978680 -93.11 0.204890 176.66
8.76245000 0.205166 177.04 0.978622 -93.13 0.978622 -93.13 0.205166 176.65
8.76250000 0.205443 177.02 0.978563 -93.15 0.978563 -93.15 0.205443 176.63
8.76255000 0.205721 177.00 0.978505 -93.16 0.978505 -93.16 0.205720 176.61
8.76260000 0.205999 176.99 0.978446 -93.18 0.978446 -93.18 0.205999 176.60
8.76265000 0.206278 176.97 0.978387 -93.20 0.978387 -93.20 0.206278 176.58
8.76270000 0.206558 176.95 0.978328 -93.21 0.978328 -93.21 0.206558 176.56
8.76275000 0.206838 176.94 0.978268 -93.23 0.978268 -93.23 0.206838 176.54
8.76280000 0.207119 176.92 0.978208 -93.25 0.978208 -93.25 0.207119 176.53
8.76285000 0.207401 176.90 0.978148 -93.26 0.978148 -93.26 0.207401 176.51
8.76290000 0.207684 176.89 0.978088 -93.28 0.978088 -93.28 0.207683 176.49
8.76295000 0.207967 176.87 0.978028 -93.30 0.978028 -93.30 0.207967 176.48
8.76300000 0.208251 176.85 0.977967 -93.31 0.977967 -93.31 0.208251 176.46
8.76305000 0.208535 176.84 0.977906 -93.33 0.977906 -93.33 0.208535 176.44
8.76310000 0.208821 176.82 0.977845 -93.35 0.977845 -93.35 0.208821 176.42
8.76315000 0.209107 176.80 0.977784 -93.37 0.977784 -93.37 0.209107 176.41
8.76320000 0.209394 176.78 0.977722 -93.38 0.977722 -93.38 0.209393 176.39
8.76325000 0.209681 176.77 0.977660 -93.40 0.977660 -93.40 0.209681 176.37
8.76330000 0.209969 176.75 0.977598 -93.42 0.977598 -93.42 0.209969 176.36
8.76335000 0.210258 176.73 0.977536 -93.44 0.977536 -93.44 0.210258 176.34
8.76340000 0.210548 176.71 0.977473 -93.45 0.977473 -93.45 0.210548 176.32
8.76345000 0.210838 176.70 0.977410 -93.47 0.977410 -93.47 0.210838 176.30
8.76350000 0.211129 176.68 0.977347 -93.49 0.977347 -93.49 0.211129 176.28
8.76355000 0.211421 176.66 0.977284 -93.51 0.977284 -93.51 0.211421 176.27
8.76360000 0.211714 176.64 0.977220 -93.52 0.977220 -93.52 0.211714 176.25
8.76365000 0.212007 176.63 0.977156 -93.54 0.977156 -93.54 0.212007 176.23
8.76370000 0.212301 176.61 0.977092 -93.56 0.977092 -93.56 0.212301 176.21
8.76375000 0.212596 176.59 0.977028 -93.58 0.977028 -93.58 0.212596 176.20
8.76380000 0.212892 176.57 0.976963 -93.59 0.976963 -93.59 0.212891 176.18
8.76385000 0.213188 176.56 0.976898 -93.61 0.976898 -93.61 0.213188 176.16
8.76390000 0.213485 176.54 0.976833 -93.63 0.976833 -93.63 0.213485 176.14
8.76395000 0.213783 176.52 0.976767 -93.65 0.976767 -93.65 0.213782 176.12
8.76400000 0.214081 176.50 0.976702 -93.67 0.976702 -93.67 0.214081 176.11
8.76405000 0.214381 176.48 0.976636 -93.68 0.976636 -93.68 0.214380 176.09
8.76410000 0.214681 176.47 0.976570 -93.70 0.976570 -93.70 0.214680 176.07
8.76415000 0.214982 176.45 0.976503 -93.72 0.976503 -93.72 0.214981 176.05
8.76420000 0.215283 176.43 0.976436 -93.74 0.976436 -93.74 0.215283 176.03
8.76425000 0.215586 176.41 0.976369 -93.76 0.976369 -93.76 0.215585 176.01
8.76430000 0.215889 176.39 0.976302 -93.77 0.976302 -93.77 0.215889 176.00
8.76435000 0.216193 176.38 0.976235 -93.79 0.976235 -93.79 0.216193 175.98
8.76440000 0.216497 176.36 0.976167 -93.81 0.976167 -93.81 0.216497 175.96
8.76445000 0.216803 176.34 0.976099 -93.83 0.976099 -93.83 0.216803 175.94
8.76450000 0.217109 176.32 0.976030 -93.85 0.976030 -93.85 0.217109 175.92
8.76455000 0.217416 176.30 0.975962 -93.87 0.975962 -93.87 0.217416 175.90
8.76460000 0.217724 176.28 0.975893 -93.88 0.975893 -93.88 0.217724 175.88
8.76465000 0.218033 176.27 0.975823 -93.90 0.975823 -93.90 0.218033 175.87
8.76470000 0.218342 176.25 0.975754 -93.92 0.975754 -93.92 0.218342 175.85
8.76475000 0.218653 176.23 0.975684 -93.94 0.975684 -93.94 0.218653 175.83
8.76480000 0.218964 176.21 0.975614 -93.96 0.975614 -93.96 0.218964 175.81
8.76485000 0.219276 176.19 0.975544 -93.98 0.975544 -93.98 0.219275 175.79
8.76490000 0.219588 176.17 0.975473 -94.00 0.975473 -94.00 0.219588 175.77
8.76495000 0.219902 176.15 0.975402 -94.02 0.975402 -94.02 0.219902 175.75
8.76500000 0.220216 176.13 0.975331 -94.04 0.975331 -94.04 0.220216 175.73
8.76505000 0.220531 176.12 0.975259 -94.05 0.975259 -94.05 0.220531 175.71
8.76510000 0.220847 176.10 0.975187 -94.07 0.975187 -94.07 0.220847 175.70
8.76515000 0.221164 176.08 0.975115 -94.09 0.975115 -94.09 0.221164 175.68
8.76520000 0.221482 176.06 0.975043 -94.11 0.975043 -94.11 0.221482 175.66
8.76525000 0.221800 176.04 0.974970 -94.13 0.974970 -94.13 0.221800 175.64
8.76530000 0.222120 176.02 0.974897 -94.15 0.974897 -94.15 0.222119 175.62
8.76535000 0.222440 176.00 0.974824 -94.17 0.974824 -94.17 0.222440 175.60
8.76540000 0.222761 175.98 0.974750 -94.19 0.974750 -94.19 0.222761 175.58
8.76545000 0.223083 175.96 0.974676 -94.21 0.974676 -94.21 0.223082 175.56
8.76550000 0.223405 175.94 0.974602 -94.23 0.974602 -94.23 0.223405 175.54
8.76555000 0.223729 175.92 0.974528 -94.25 0.974528 -94.25 0.223729 175.52
8.76560000 0.224053 175.90 0.974453 -94.27 0.974453 -94.27 0.224053 175.50
8.76565000 0.224378 175.88 0.974378 -94.29 0.974378 -94.29 0.224378 175.48
8.76570000 0.224705 175.86 0.974302 -94.31 0.974302 -94.31 0.224704 175.46
8.76575000 0.225032 175.84 0.974226 -94.32 0.974226 -94.32 0.225031 175.44
8.76580000 0.225359 175.83 0.974150 -94.34 0.974150 -94.34 0.225359 175.42
8.76585000 0.225688 175.81 0.974074 -94.36 0.974074 -94.36 0.225688 175.40
8.76590000 0.226018 175.79 0.973997 -94.38 0.973997 -94.38 0.226018 175.38
8.76595000 0.226348 175.77 0.973920 -94.40 0.973920 -94.40 0.226348 175.36
8.76600000 0.226680 175.75 0.973842 -94.42 0.973842 -94.42 0.226679 175.34
8.76605000 0.227012 175.73 0.973765 -94.44 0.973765 -94.44 0.227012 175.32
8.76610000 0.227345 175.71 0.973687 -94.46 0.973687 -94.46 0.227345 175.30
8.76615000 0.227679 175.69 0.973608 -94.48 0.973608 -94.48 0.227679 175.28
8.76620000 0.228014 175.67 0.973530 -94.50 0.973530 -94.50 0.228014 175.26
8.76625000 0.228350 175.65 0.973450 -94.52 0.973450 -94.52 0.228349 175.24
8.76630000 0.228686 175.63 0.973371 -94.55 0.973371 -94.55 0.228686 175.22
8.76635000 0.229024 175.60 0.973291 -94.57 0.973291 -94.57 0.229024 175.20
8.76640000 0.229363 175.58 0.973211 -94.59 0.973211 -94.59 0.229362 175.18
8.76645000 0.229702 175.56 0.973131 -94.61 0.973131 -94.61 0.229702 175.16
8.76650000 0.230042 175.54 0.973050 -94.63 0.973050 -94.63 0.230042 175.14
8.76655000 0.230384 175.52 0.972969 -94.65 0.972969 -94.65 0.230383 175.12
8.76660000 0.230726 175.50 0.972888 -94.67 0.972888 -94.67 0.230726 175.10
8.76665000 0.231069 175.48 0.972806 -94.69 0.972806 -94.69 0.231069 175.08
8.76670000 0.231413 175.46 0.972724 -94.71 0.972724 -94.71 0.231413 175.06
8.76675000 0.231758 175.44 0.972641 -94.73 0.972641 -94.73 0.231758 175.03
8.76680000 0.232104 175.42 0.972558 -94.75 0.972558 -94.75 0.232104 175.01
8.76685000 0.232451 175.40 0.972475 -94.77 0.972475 -94.77 0.232451 174.99
8.76690000 0.232799 175.38 0.972391 -94.79 0.972391 -94.79 0.232798 174.97
8.76695000 0.233147 175.36 0.972308 -94.81 0.972308 -94.81 0.233147 174.95
8.76700000 0.233497 175.34 0.972223 -94.83 0.972223 -94.83 0.233497 174.93
8.76705000 0.233848 175.31 0.972139 -94.86 0.972139 -94.86 0.233848 174.91
8.76710000 0.234200 175.29 0.972054 -94.88 0.972054 -94.88 0.234199 174.89
8.76715000 0.234552 175.27 0.971968 -94.90 0.971968 -94.90 0.234552 174.86
8.76720000 0.234906 175.25 0.971882 -94.92 0.971882 -94.92 0.234905 174.84
8.76725000 0.235260 175.23 0.971796 -94.94 0.971796 -94.94 0.235260 174.82
8.76730000 0.235616 175.21 0.971710 -94.96 0.971710 -94.96 0.235616 174.80
8.76735000 0.235972 175.19 0.971623 -94.98 0.971623 -94.98 0.235972 174.78
8.76740000 0.236330 175.17 0.971536 -95.01 0.971536 -95.01 0.236330 174.76
8.76745000 0.236688 175.14 0.971448 -95.03 0.971448 -95.03 0.236688 174.74
8.76750000 0.237048 175.12 0.971360 -95.05 0.971360 -95.05 0.237048 174.71
8.76755000 0.237408 175.10 0.971271 -95.07 0.971271 -95.07 0.237408 174.69
8.76760000 0.237770 175.08 0.971183 -95.09 0.971183 -95.09 0.237769 174.67
8.76765000 0.238132 175.06 0.971093 -95.11 0.971093 -95.11 0.238132 174.65
8.76770000 0.238496 175.04 0.971004 -95.14 0.971004 -95.14 0.238495 174.63
8.76775000 0.238860 175.01 0.970914 -95.16 0.970914 -95.16 0.238860 174.60
8.76780000 0.239226 174.99 0.970823 -95.18 0.970823 -95.18 0.239225 174.58
8.76785000 0.239592 174.97 0.970733 -95.20 0.970733 -95.20 0.239592 174.56
8.76790000 0.239960 174.95 0.970641 -95.22 0.970641 -95.22 0.239960 174.54
8.76795000 0.240328 174.92 0.970550 -95.25 0.970550 -95.25 0.240328 174.51
8.76800000 0.240698 174.90 0.970458 -95.27 0.970458 -95.27 0.240698 174.49
8.76805000 0.241069 174.88 0.970365 -95.29 0.970365 -95.29 0.241068 174.47
8.76810000 0.241440 174.86 0.970273 -95.31 0.970273 -95.31 0.241440 174.45
8.76815000 0.241813 174.84 0.970179 -95.34 0.970179 -95.34 0.241813 174.42
8.76820000 0.242187 174.81 0.970086 -95.36 0.970086 -95.36 0.242187 174.40
8.76825000 0.242562 174.79 0.969992 -95.38 0.969992 -95.38 0.242562 174.38
8.76830000 0.242938 174.77 0.969897 -95.40 0.969897 -95.40 0.242937 174.36
8.76835000 0.243315 174.75 0.969802 -95.43 0.969802 -95.43 0.243314 174.33
8.76840000 0.243693 174.72 0.969707 -95.45 0.969707 -95.45 0.243692 174.31
8.76845000 0.244072 174.70 0.969611 -95.47 0.969611 -95.47 0.244072 174.29
8.76850000 0.244452 174.68 0.969515 -95.50 0.969515 -95.50 0.244452 174.26
8.76855000 0.244833 174.65 0.969418 -95.52 0.969418 -95.52 0.244833 174.24
8.76860000 0.245216 174.63 0.969321 -95.54 0.969321 -95.54 0.245215 174.22
8.76865000 0.245599 174.61 0.969224 -95.56 0.969224 -95.56 0.245599 174.20
8.76870000 0.245984 174.58 0.969126 -95.59 0.969126 -95.59 0.245983 174.17
8.76875000 0.246369 174.56 0.969027 -95.61 0.969027 -95.61 0.246369 174.15
8.76880000 0.246756 174.54 0.968929 -95.63 0.968929 -95.63 0.246756 174.12
8.76885000 0.247144 174.51 0.968829 -95.66 0.968829 -95.66 0.247143 174.10
8.76890000 0.247533 174.49 0.968730 -95.68 0.968730 -95.68 0.247532 174.08
8.76895000 0.247923 174.47 0.968629 -95.70 0.968629 -95.70 0.247923 174.05
8.76900000 0.248314 174.44 0.968529 -95.73 0.968529 -95.73 0.248314 174.03
8.76905000 0.248706 174.42 0.968428 -95.75 0.968428 -95.75 0.248706 174.01
8.76910000 0.249100 174.40 0.968326 -95.78 0.968326 -95.78 0.249099 173.98
8.76915000 0.249494 174.37 0.968224 -95.80 0.968224 -95.80 0.249494 173.96
8.76920000 0.249890 174.35 0.968122 -95.82 0.968122 -95.82 0.249890 173.93
8.76925000 0.250287 174.33 0.968019 -95.85 0.968019 -95.85 0.250287 173.91
8.76930000 0.250685 174.30 0.967915 -95.87 0.967915 -95.87 0.250685 173.89
8.76935000 0.251084 174.28 0.967811 -95.90 0.967811 -95.90 0.251084 173.86
8.76940000 0.251484 174.25 0.967707 -95.92 0.967707 -95.92 0.251484 173.84
8.76945000 0.251886 174.23 0.967602 -95.94 0.967602 -95.94 0.251886 173.81
8.76950000 0.252288 174.20 0.967497 -95.97 0.967497 -95.97 0.252288 173.79
8.76955000 0.252692 174.18 0.967391 -95.99 0.967391 -95.99 0.252692 173.76
8.76960000 0.253097 174.16 0.967284 -96.02 0.967284 -96.02 0.253097 173.74