! Sonnet Data File
! From: emgraph Version : 16.52
! From Project: transmon_trial
! Data is De-embedded 
! Data File Written: 10/20/2017 09:13:06
!< HDATE 10/19/2017 20:03:37
!< MDATE 10/19/2017 20:10:25
!< PARAMS
!< Lj = 15.24
!< Gap = 6.0
!< Width = 10.0
!< Airgap = 6.0
!< Pwidth = 2000.0
!< END PARAMS
# GHZ S MA R 51.00000
8.65000000 0.005669 -170.8 0.999975 -82.30 0.999975 -82.30 0.005669 -173.9
!< P1 F=8.65 Eeff=(6.44686054 -2.9785e-5) Z0=(51.7994694 1.19079e-4) R=0.0 C=0.0 
!< P2 F=8.65 Eeff=(6.44686054 -2.9785e-5) Z0=(51.7994694 1.19079e-4) R=0.0 C=0.0 
8.65010000 0.005700 -170.8 0.999975 -82.30 0.999975 -82.30 0.005700 -173.9
8.65020000 0.005731 -170.8 0.999975 -82.30 0.999975 -82.30 0.005731 -173.9
8.65030000 0.005762 -170.8 0.999975 -82.30 0.999975 -82.30 0.005762 -173.9
8.65040000 0.005793 -170.8 0.999974 -82.31 0.999974 -82.31 0.005793 -173.9
8.65050000 0.005824 -170.9 0.999974 -82.31 0.999974 -82.31 0.005825 -173.9
8.65060000 0.005855 -170.9 0.999974 -82.31 0.999974 -82.31 0.005856 -173.9
8.65070000 0.005886 -170.9 0.999974 -82.32 0.999974 -82.32 0.005887 -173.9
8.65080000 0.005918 -170.9 0.999974 -82.32 0.999974 -82.32 0.005918 -173.9
8.65090000 0.005949 -170.9 0.999974 -82.32 0.999974 -82.32 0.005949 -173.9
8.65100000 0.005980 -170.9 0.999973 -82.32 0.999973 -82.32 0.005981 -173.9
8.65110000 0.006012 -170.9 0.999973 -82.33 0.999973 -82.33 0.006012 -173.9
8.65120000 0.006043 -170.9 0.999973 -82.33 0.999973 -82.33 0.006043 -173.9
8.65130000 0.006074 -170.9 0.999973 -82.33 0.999973 -82.33 0.006075 -173.9
8.65140000 0.006106 -170.9 0.999973 -82.33 0.999973 -82.33 0.006106 -173.9
8.65150000 0.006138 -170.9 0.999972 -82.34 0.999972 -82.34 0.006138 -173.9
8.65160000 0.006169 -170.9 0.999972 -82.34 0.999972 -82.34 0.006169 -173.9
8.65170000 0.006201 -171.0 0.999972 -82.34 0.999972 -82.34 0.006201 -173.9
8.65180000 0.006232 -171.0 0.999972 -82.35 0.999972 -82.35 0.006233 -173.9
8.65190000 0.006264 -171.0 0.999972 -82.35 0.999972 -82.35 0.006264 -173.9
8.65200000 0.006296 -171.0 0.999971 -82.35 0.999971 -82.35 0.006296 -173.9
8.65210000 0.006328 -171.0 0.999971 -82.35 0.999971 -82.35 0.006328 -173.9
8.65220000 0.006359 -171.0 0.999971 -82.36 0.999971 -82.36 0.006360 -173.9
8.65230000 0.006391 -171.0 0.999971 -82.36 0.999971 -82.36 0.006392 -173.9
8.65240000 0.006423 -171.0 0.999970 -82.36 0.999970 -82.36 0.006424 -173.9
8.65250000 0.006455 -171.0 0.999970 -82.36 0.999970 -82.36 0.006456 -173.8
8.65260000 0.006487 -171.0 0.999970 -82.37 0.999970 -82.37 0.006488 -173.8
8.65270000 0.006519 -171.0 0.999970 -82.37 0.999970 -82.37 0.006520 -173.8
8.65280000 0.006551 -171.0 0.999970 -82.37 0.999970 -82.37 0.006552 -173.8
8.65290000 0.006583 -171.1 0.999969 -82.38 0.999969 -82.38 0.006584 -173.8
8.65300000 0.006616 -171.1 0.999969 -82.38 0.999969 -82.38 0.006616 -173.8
8.65310000 0.006648 -171.1 0.999969 -82.38 0.999969 -82.38 0.006648 -173.8
8.65320000 0.006680 -171.1 0.999969 -82.38 0.999969 -82.38 0.006681 -173.8
8.65330000 0.006713 -171.1 0.999968 -82.39 0.999968 -82.39 0.006713 -173.8
8.65340000 0.006745 -171.1 0.999968 -82.39 0.999968 -82.39 0.006745 -173.8
8.65350000 0.006777 -171.1 0.999968 -82.39 0.999968 -82.39 0.006778 -173.8
8.65360000 0.006810 -171.1 0.999968 -82.40 0.999968 -82.40 0.006810 -173.8
8.65370000 0.006842 -171.1 0.999968 -82.40 0.999968 -82.40 0.006843 -173.8
8.65380000 0.006875 -171.1 0.999967 -82.40 0.999967 -82.40 0.006875 -173.8
8.65390000 0.006907 -171.1 0.999967 -82.40 0.999967 -82.40 0.006908 -173.8
8.65400000 0.006940 -171.1 0.999967 -82.41 0.999967 -82.41 0.006940 -173.8
8.65410000 0.006973 -171.1 0.999967 -82.41 0.999967 -82.41 0.006973 -173.8
8.65420000 0.007005 -171.2 0.999966 -82.41 0.999966 -82.41 0.007006 -173.8
8.65430000 0.007038 -171.2 0.999966 -82.42 0.999966 -82.42 0.007038 -173.8
8.65440000 0.007071 -171.2 0.999966 -82.42 0.999966 -82.42 0.007071 -173.8
8.65450000 0.007104 -171.2 0.999966 -82.42 0.999966 -82.42 0.007104 -173.8
8.65460000 0.007137 -171.2 0.999965 -82.42 0.999965 -82.42 0.007137 -173.8
8.65470000 0.007170 -171.2 0.999965 -82.43 0.999965 -82.43 0.007170 -173.8
8.65480000 0.007203 -171.2 0.999965 -82.43 0.999965 -82.43 0.007203 -173.8
8.65490000 0.007236 -171.2 0.999965 -82.43 0.999965 -82.43 0.007236 -173.8
8.65500000 0.007269 -171.2 0.999964 -82.43 0.999964 -82.43 0.007269 -173.8
8.65510000 0.007302 -171.2 0.999964 -82.44 0.999964 -82.44 0.007302 -173.8
8.65520000 0.007335 -171.2 0.999964 -82.44 0.999964 -82.44 0.007336 -173.8
8.65530000 0.007368 -171.2 0.999964 -82.44 0.999964 -82.44 0.007369 -173.8
8.65540000 0.007402 -171.2 0.999963 -82.45 0.999963 -82.45 0.007402 -173.8
8.65550000 0.007435 -171.2 0.999963 -82.45 0.999963 -82.45 0.007435 -173.8
8.65560000 0.007468 -171.3 0.999963 -82.45 0.999963 -82.45 0.007469 -173.8
8.65570000 0.007502 -171.3 0.999963 -82.45 0.999963 -82.45 0.007502 -173.8
8.65580000 0.007535 -171.3 0.999962 -82.46 0.999962 -82.46 0.007536 -173.8
8.65590000 0.007569 -171.3 0.999962 -82.46 0.999962 -82.46 0.007569 -173.8
8.65600000 0.007602 -171.3 0.999962 -82.46 0.999962 -82.46 0.007603 -173.8
8.65610000 0.007636 -171.3 0.999962 -82.47 0.999962 -82.47 0.007636 -173.8
8.65620000 0.007670 -171.3 0.999961 -82.47 0.999961 -82.47 0.007670 -173.8
8.65630000 0.007703 -171.3 0.999961 -82.47 0.999961 -82.47 0.007704 -173.8
8.65640000 0.007737 -171.3 0.999961 -82.47 0.999961 -82.47 0.007737 -173.8
8.65650000 0.007771 -171.3 0.999961 -82.48 0.999961 -82.48 0.007771 -173.8
8.65660000 0.007805 -171.3 0.999960 -82.48 0.999960 -82.48 0.007805 -173.8
8.65670000 0.007839 -171.3 0.999960 -82.48 0.999960 -82.48 0.007839 -173.8
8.65680000 0.007873 -171.3 0.999960 -82.49 0.999960 -82.49 0.007873 -173.8
8.65690000 0.007907 -171.3 0.999959 -82.49 0.999959 -82.49 0.007907 -173.8
8.65700000 0.007941 -171.3 0.999959 -82.49 0.999959 -82.49 0.007941 -173.8
8.65710000 0.007975 -171.4 0.999959 -82.50 0.999959 -82.50 0.007975 -173.8
8.65720000 0.008009 -171.4 0.999959 -82.50 0.999959 -82.50 0.008009 -173.8
8.65730000 0.008043 -171.4 0.999958 -82.50 0.999958 -82.50 0.008043 -173.8
8.65740000 0.008077 -171.4 0.999958 -82.50 0.999958 -82.50 0.008078 -173.8
8.65750000 0.008112 -171.4 0.999958 -82.51 0.999958 -82.51 0.008112 -173.8
8.65760000 0.008146 -171.4 0.999957 -82.51 0.999957 -82.51 0.008146 -173.8
8.65770000 0.008180 -171.4 0.999957 -82.51 0.999957 -82.51 0.008181 -173.8
8.65780000 0.008215 -171.4 0.999957 -82.52 0.999957 -82.52 0.008215 -173.8
8.65790000 0.008249 -171.4 0.999957 -82.52 0.999957 -82.52 0.008250 -173.7
8.65800000 0.008284 -171.4 0.999956 -82.52 0.999956 -82.52 0.008284 -173.7
8.65810000 0.008318 -171.4 0.999956 -82.52 0.999956 -82.52 0.008319 -173.7
8.65820000 0.008353 -171.4 0.999956 -82.53 0.999956 -82.53 0.008353 -173.7
8.65830000 0.008388 -171.4 0.999955 -82.53 0.999955 -82.53 0.008388 -173.7
8.65840000 0.008422 -171.4 0.999955 -82.53 0.999955 -82.53 0.008423 -173.7
8.65850000 0.008457 -171.4 0.999955 -82.54 0.999955 -82.54 0.008457 -173.7
8.65860000 0.008492 -171.4 0.999954 -82.54 0.999954 -82.54 0.008492 -173.7
8.65870000 0.008527 -171.5 0.999954 -82.54 0.999954 -82.54 0.008527 -173.7
8.65880000 0.008562 -171.5 0.999954 -82.54 0.999954 -82.54 0.008562 -173.7
8.65890000 0.008597 -171.5 0.999954 -82.55 0.999954 -82.55 0.008597 -173.7
8.65900000 0.008632 -171.5 0.999953 -82.55 0.999953 -82.55 0.008632 -173.7
8.65910000 0.008667 -171.5 0.999953 -82.55 0.999953 -82.55 0.008667 -173.7
8.65920000 0.008702 -171.5 0.999953 -82.56 0.999953 -82.56 0.008702 -173.7
8.65930000 0.008737 -171.5 0.999952 -82.56 0.999952 -82.56 0.008737 -173.7
8.65940000 0.008772 -171.5 0.999952 -82.56 0.999952 -82.56 0.008773 -173.7
8.65950000 0.008808 -171.5 0.999952 -82.57 0.999952 -82.57 0.008808 -173.7
8.65960000 0.008843 -171.5 0.999951 -82.57 0.999951 -82.57 0.008843 -173.7
8.65970000 0.008878 -171.5 0.999951 -82.57 0.999951 -82.57 0.008879 -173.7
8.65980000 0.008914 -171.5 0.999951 -82.57 0.999951 -82.57 0.008914 -173.7
8.65990000 0.008949 -171.5 0.999950 -82.58 0.999950 -82.58 0.008950 -173.7
8.66000000 0.008985 -171.5 0.999950 -82.58 0.999950 -82.58 0.008985 -173.7
8.66010000 0.009020 -171.5 0.999950 -82.58 0.999950 -82.58 0.009021 -173.7
8.66020000 0.009056 -171.5 0.999949 -82.59 0.999949 -82.59 0.009056 -173.7
8.66030000 0.009092 -171.5 0.999949 -82.59 0.999949 -82.59 0.009092 -173.7
8.66040000 0.009128 -171.6 0.999949 -82.59 0.999949 -82.59 0.009128 -173.7
8.66050000 0.009163 -171.6 0.999948 -82.60 0.999948 -82.60 0.009164 -173.7
8.66060000 0.009199 -171.6 0.999948 -82.60 0.999948 -82.60 0.009199 -173.7
8.66070000 0.009235 -171.6 0.999948 -82.60 0.999948 -82.60 0.009235 -173.7
8.66080000 0.009271 -171.6 0.999947 -82.60 0.999947 -82.60 0.009271 -173.7
8.66090000 0.009307 -171.6 0.999947 -82.61 0.999947 -82.61 0.009307 -173.7
8.66100000 0.009343 -171.6 0.999947 -82.61 0.999947 -82.61 0.009343 -173.7
8.66110000 0.009379 -171.6 0.999946 -82.61 0.999946 -82.61 0.009380 -173.7
8.66120000 0.009415 -171.6 0.999946 -82.62 0.999946 -82.62 0.009416 -173.7
8.66130000 0.009452 -171.6 0.999946 -82.62 0.999946 -82.62 0.009452 -173.7
8.66140000 0.009488 -171.6 0.999945 -82.62 0.999945 -82.62 0.009488 -173.7
8.66150000 0.009524 -171.6 0.999945 -82.63 0.999945 -82.63 0.009524 -173.7
8.66160000 0.009561 -171.6 0.999945 -82.63 0.999945 -82.63 0.009561 -173.7
8.66170000 0.009597 -171.6 0.999944 -82.63 0.999944 -82.63 0.009597 -173.7
8.66180000 0.009634 -171.6 0.999944 -82.63 0.999944 -82.63 0.009634 -173.7
8.66190000 0.009670 -171.6 0.999943 -82.64 0.999943 -82.64 0.009670 -173.7
8.66200000 0.009707 -171.6 0.999943 -82.64 0.999943 -82.64 0.009707 -173.7
8.66210000 0.009743 -171.7 0.999943 -82.64 0.999943 -82.64 0.009744 -173.7
8.66220000 0.009780 -171.7 0.999942 -82.65 0.999942 -82.65 0.009780 -173.7
8.66230000 0.009817 -171.7 0.999942 -82.65 0.999942 -82.65 0.009817 -173.7
8.66240000 0.009854 -171.7 0.999942 -82.65 0.999942 -82.65 0.009854 -173.7
8.66250000 0.009890 -171.7 0.999941 -82.66 0.999941 -82.66 0.009891 -173.7
8.66260000 0.009927 -171.7 0.999941 -82.66 0.999941 -82.66 0.009928 -173.7
8.66270000 0.009964 -171.7 0.999941 -82.66 0.999941 -82.66 0.009965 -173.7
8.66280000 0.010001 -171.7 0.999940 -82.66 0.999940 -82.66 0.010002 -173.7
8.66290000 0.010038 -171.7 0.999940 -82.67 0.999940 -82.67 0.010039 -173.7
8.66300000 0.010076 -171.7 0.999939 -82.67 0.999939 -82.67 0.010076 -173.7
8.66310000 0.010113 -171.7 0.999939 -82.67 0.999939 -82.67 0.010113 -173.7
8.66320000 0.010150 -171.7 0.999939 -82.68 0.999939 -82.68 0.010150 -173.7
8.66330000 0.010187 -171.7 0.999938 -82.68 0.999938 -82.68 0.010188 -173.7
8.66340000 0.010225 -171.7 0.999938 -82.68 0.999938 -82.68 0.010225 -173.7
8.66350000 0.010262 -171.7 0.999937 -82.69 0.999937 -82.69 0.010262 -173.7
8.66360000 0.010300 -171.7 0.999937 -82.69 0.999937 -82.69 0.010300 -173.7
8.66370000 0.010337 -171.7 0.999937 -82.69 0.999937 -82.69 0.010337 -173.7
8.66380000 0.010375 -171.7 0.999936 -82.70 0.999936 -82.70 0.010375 -173.7
8.66390000 0.010412 -171.8 0.999936 -82.70 0.999936 -82.70 0.010413 -173.7
8.66400000 0.010450 -171.8 0.999935 -82.70 0.999935 -82.70 0.010450 -173.7
8.66410000 0.010488 -171.8 0.999935 -82.70 0.999935 -82.70 0.010488 -173.7
8.66420000 0.010526 -171.8 0.999935 -82.71 0.999935 -82.71 0.010526 -173.7
8.66430000 0.010563 -171.8 0.999934 -82.71 0.999934 -82.71 0.010564 -173.7
8.66440000 0.010601 -171.8 0.999934 -82.71 0.999934 -82.71 0.010602 -173.7
8.66450000 0.010639 -171.8 0.999933 -82.72 0.999933 -82.72 0.010640 -173.7
8.66460000 0.010677 -171.8 0.999933 -82.72 0.999933 -82.72 0.010678 -173.7
8.66470000 0.010715 -171.8 0.999933 -82.72 0.999933 -82.72 0.010716 -173.7
8.66480000 0.010754 -171.8 0.999932 -82.73 0.999932 -82.73 0.010754 -173.7
8.66490000 0.010792 -171.8 0.999932 -82.73 0.999932 -82.73 0.010792 -173.7
8.66500000 0.010830 -171.8 0.999931 -82.73 0.999931 -82.73 0.010830 -173.7
8.66510000 0.010868 -171.8 0.999931 -82.74 0.999931 -82.74 0.010869 -173.7
8.66520000 0.010907 -171.8 0.999930 -82.74 0.999930 -82.74 0.010907 -173.7
8.66530000 0.010945 -171.8 0.999930 -82.74 0.999930 -82.74 0.010945 -173.8
8.66540000 0.010984 -171.8 0.999930 -82.75 0.999930 -82.75 0.010984 -173.8
8.66550000 0.011022 -171.8 0.999929 -82.75 0.999929 -82.75 0.011022 -173.8
8.66560000 0.011061 -171.8 0.999929 -82.75 0.999929 -82.75 0.011061 -173.8
8.66570000 0.011099 -171.9 0.999928 -82.75 0.999928 -82.75 0.011100 -173.8
8.66580000 0.011138 -171.9 0.999928 -82.76 0.999928 -82.76 0.011138 -173.8
8.66590000 0.011177 -171.9 0.999927 -82.76 0.999927 -82.76 0.011177 -173.8
8.66600000 0.011216 -171.9 0.999927 -82.76 0.999927 -82.76 0.011216 -173.8
8.66610000 0.011255 -171.9 0.999926 -82.77 0.999926 -82.77 0.011255 -173.8
8.66620000 0.011294 -171.9 0.999926 -82.77 0.999926 -82.77 0.011294 -173.8
8.66630000 0.011333 -171.9 0.999926 -82.77 0.999926 -82.77 0.011333 -173.8
8.66640000 0.011372 -171.9 0.999925 -82.78 0.999925 -82.78 0.011372 -173.8
8.66650000 0.011411 -171.9 0.999925 -82.78 0.999925 -82.78 0.011411 -173.8
8.66660000 0.011450 -171.9 0.999924 -82.78 0.999924 -82.78 0.011450 -173.8
8.66670000 0.011489 -171.9 0.999924 -82.79 0.999924 -82.79 0.011490 -173.8
8.66680000 0.011529 -171.9 0.999923 -82.79 0.999923 -82.79 0.011529 -173.8
8.66690000 0.011568 -171.9 0.999923 -82.79 0.999923 -82.79 0.011568 -173.8
8.66700000 0.011607 -171.9 0.999922 -82.80 0.999922 -82.80 0.011608 -173.8
8.66710000 0.011647 -171.9 0.999922 -82.80 0.999922 -82.80 0.011647 -173.8
8.66720000 0.011687 -171.9 0.999921 -82.80 0.999921 -82.80 0.011687 -173.8
8.66730000 0.011726 -171.9 0.999921 -82.81 0.999921 -82.81 0.011726 -173.8
8.66740000 0.011766 -171.9 0.999920 -82.81 0.999920 -82.81 0.011766 -173.8
8.66750000 0.011806 -171.9 0.999920 -82.81 0.999920 -82.81 0.011806 -173.8
8.66760000 0.011845 -171.9 0.999919 -82.82 0.999919 -82.82 0.011846 -173.8
8.66770000 0.011885 -172.0 0.999919 -82.82 0.999919 -82.82 0.011885 -173.8
8.66780000 0.011925 -172.0 0.999919 -82.82 0.999919 -82.82 0.011925 -173.8
8.66790000 0.011965 -172.0 0.999918 -82.83 0.999918 -82.83 0.011965 -173.8
8.66800000 0.012005 -172.0 0.999918 -82.83 0.999918 -82.83 0.012005 -173.8
8.66810000 0.012045 -172.0 0.999917 -82.83 0.999917 -82.83 0.012046 -173.8
8.66820000 0.012085 -172.0 0.999917 -82.83 0.999917 -82.83 0.012086 -173.8
8.66830000 0.012126 -172.0 0.999916 -82.84 0.999916 -82.84 0.012126 -173.8
8.66840000 0.012166 -172.0 0.999916 -82.84 0.999916 -82.84 0.012166 -173.8
8.66850000 0.012206 -172.0 0.999915 -82.84 0.999915 -82.84 0.012207 -173.8
8.66860000 0.012247 -172.0 0.999915 -82.85 0.999915 -82.85 0.012247 -173.8
8.66870000 0.012287 -172.0 0.999914 -82.85 0.999914 -82.85 0.012287 -173.8
8.66880000 0.012328 -172.0 0.999914 -82.85 0.999914 -82.85 0.012328 -173.8
8.66890000 0.012368 -172.0 0.999913 -82.86 0.999913 -82.86 0.012369 -173.8
8.66900000 0.012409 -172.0 0.999913 -82.86 0.999913 -82.86 0.012409 -173.8
8.66910000 0.012450 -172.0 0.999912 -82.86 0.999912 -82.86 0.012450 -173.8
8.66920000 0.012491 -172.0 0.999911 -82.87 0.999911 -82.87 0.012491 -173.8
8.66930000 0.012531 -172.0 0.999911 -82.87 0.999911 -82.87 0.012532 -173.8
8.66940000 0.012572 -172.0 0.999910 -82.87 0.999910 -82.87 0.012573 -173.8
8.66950000 0.012613 -172.0 0.999910 -82.88 0.999910 -82.88 0.012614 -173.8
8.66960000 0.012654 -172.1 0.999909 -82.88 0.999909 -82.88 0.012655 -173.8
8.66970000 0.012695 -172.1 0.999909 -82.88 0.999909 -82.88 0.012696 -173.8
8.66980000 0.012737 -172.1 0.999908 -82.89 0.999908 -82.89 0.012737 -173.8
8.66990000 0.012778 -172.1 0.999908 -82.89 0.999908 -82.89 0.012778 -173.8
8.67000000 0.012819 -172.1 0.999907 -82.89 0.999907 -82.89 0.012819 -173.8
8.67010000 0.012861 -172.1 0.999907 -82.90 0.999907 -82.90 0.012861 -173.8
8.67020000 0.012902 -172.1 0.999906 -82.90 0.999906 -82.90 0.012902 -173.8
8.67030000 0.012943 -172.1 0.999906 -82.90 0.999906 -82.90 0.012944 -173.8
8.67040000 0.012985 -172.1 0.999905 -82.91 0.999905 -82.91 0.012985 -173.8
8.67050000 0.013027 -172.1 0.999904 -82.91 0.999904 -82.91 0.013027 -173.8
8.67060000 0.013068 -172.1 0.999904 -82.91 0.999904 -82.91 0.013069 -173.8
8.67070000 0.013110 -172.1 0.999903 -82.92 0.999903 -82.92 0.013110 -173.8
8.67080000 0.013152 -172.1 0.999903 -82.92 0.999903 -82.92 0.013152 -173.8
8.67090000 0.013194 -172.1 0.999902 -82.92 0.999902 -82.92 0.013194 -173.8
8.67100000 0.013236 -172.1 0.999902 -82.93 0.999902 -82.93 0.013236 -173.8
8.67110000 0.013278 -172.1 0.999901 -82.93 0.999901 -82.93 0.013278 -173.8
8.67120000 0.013320 -172.1 0.999901 -82.93 0.999901 -82.93 0.013320 -173.8
8.67130000 0.013362 -172.1 0.999900 -82.94 0.999900 -82.94 0.013362 -173.8
8.67140000 0.013404 -172.1 0.999899 -82.94 0.999899 -82.94 0.013404 -173.8
8.67150000 0.013447 -172.1 0.999899 -82.94 0.999899 -82.94 0.013447 -173.8
8.67160000 0.013489 -172.2 0.999898 -82.95 0.999898 -82.95 0.013489 -173.8
8.67170000 0.013531 -172.2 0.999898 -82.95 0.999898 -82.95 0.013532 -173.8
8.67180000 0.013574 -172.2 0.999897 -82.95 0.999897 -82.95 0.013574 -173.8
8.67190000 0.013616 -172.2 0.999896 -82.96 0.999896 -82.96 0.013617 -173.8
8.67200000 0.013659 -172.2 0.999896 -82.96 0.999896 -82.96 0.013659 -173.8
8.67210000 0.013702 -172.2 0.999895 -82.96 0.999895 -82.96 0.013702 -173.8
8.67220000 0.013744 -172.2 0.999895 -82.97 0.999895 -82.97 0.013745 -173.8
8.67230000 0.013787 -172.2 0.999894 -82.97 0.999894 -82.97 0.013787 -173.8
8.67240000 0.013830 -172.2 0.999893 -82.97 0.999893 -82.97 0.013830 -173.8
8.67250000 0.013873 -172.2 0.999893 -82.98 0.999893 -82.98 0.013873 -173.8
8.67260000 0.013916 -172.2 0.999892 -82.98 0.999892 -82.98 0.013916 -173.8
8.67270000 0.013959 -172.2 0.999892 -82.98 0.999892 -82.98 0.013959 -173.8
8.67280000 0.014002 -172.2 0.999891 -82.99 0.999891 -82.99 0.014003 -173.8
8.67290000 0.014046 -172.2 0.999890 -82.99 0.999890 -82.99 0.014046 -173.8
8.67300000 0.014089 -172.2 0.999890 -82.99 0.999890 -82.99 0.014089 -173.9
8.67310000 0.014132 -172.2 0.999889 -83.00 0.999889 -83.00 0.014133 -173.9
8.67320000 0.014176 -172.2 0.999889 -83.00 0.999889 -83.00 0.014176 -173.9
8.67330000 0.014219 -172.2 0.999888 -83.01 0.999888 -83.01 0.014219 -173.9
8.67340000 0.014263 -172.2 0.999887 -83.01 0.999887 -83.01 0.014263 -173.9
8.67350000 0.014306 -172.2 0.999887 -83.01 0.999887 -83.01 0.014307 -173.9
8.67360000 0.014350 -172.2 0.999886 -83.02 0.999886 -83.02 0.014350 -173.9
8.67370000 0.014394 -172.3 0.999885 -83.02 0.999885 -83.02 0.014394 -173.9
8.67380000 0.014438 -172.3 0.999885 -83.02 0.999885 -83.02 0.014438 -173.9
8.67390000 0.014482 -172.3 0.999884 -83.03 0.999884 -83.03 0.014482 -173.9
8.67400000 0.014526 -172.3 0.999883 -83.03 0.999883 -83.03 0.014526 -173.9
8.67410000 0.014570 -172.3 0.999883 -83.03 0.999883 -83.03 0.014570 -173.9
8.67420000 0.014614 -172.3 0.999882 -83.04 0.999882 -83.04 0.014614 -173.9
8.67430000 0.014658 -172.3 0.999881 -83.04 0.999881 -83.04 0.014658 -173.9
8.67440000 0.014703 -172.3 0.999881 -83.04 0.999881 -83.04 0.014703 -173.9
8.67450000 0.014747 -172.3 0.999880 -83.05 0.999880 -83.05 0.014747 -173.9
8.67460000 0.014791 -172.3 0.999879 -83.05 0.999879 -83.05 0.014792 -173.9
8.67470000 0.014836 -172.3 0.999879 -83.05 0.999879 -83.05 0.014836 -173.9
8.67480000 0.014880 -172.3 0.999878 -83.06 0.999878 -83.06 0.014881 -173.9
8.67490000 0.014925 -172.3 0.999877 -83.06 0.999877 -83.06 0.014925 -173.9
8.67500000 0.014970 -172.3 0.999877 -83.06 0.999877 -83.06 0.014970 -173.9
8.67510000 0.015015 -172.3 0.999876 -83.07 0.999876 -83.07 0.015015 -173.9
8.67520000 0.015059 -172.3 0.999875 -83.07 0.999875 -83.07 0.015060 -173.9
8.67530000 0.015104 -172.3 0.999875 -83.07 0.999875 -83.07 0.015105 -173.9
8.67540000 0.015149 -172.3 0.999874 -83.08 0.999874 -83.08 0.015150 -173.9
8.67550000 0.015194 -172.3 0.999873 -83.08 0.999873 -83.08 0.015195 -173.9
8.67560000 0.015240 -172.3 0.999873 -83.09 0.999873 -83.09 0.015240 -173.9
8.67570000 0.015285 -172.4 0.999872 -83.09 0.999872 -83.09 0.015285 -173.9
8.67580000 0.015330 -172.4 0.999871 -83.09 0.999871 -83.09 0.015330 -173.9
8.67590000 0.015376 -172.4 0.999870 -83.10 0.999870 -83.10 0.015376 -173.9
8.67600000 0.015421 -172.4 0.999870 -83.10 0.999870 -83.10 0.015421 -173.9
8.67610000 0.015467 -172.4 0.999869 -83.10 0.999869 -83.10 0.015467 -173.9
8.67620000 0.015512 -172.4 0.999868 -83.11 0.999868 -83.11 0.015512 -173.9
8.67630000 0.015558 -172.4 0.999868 -83.11 0.999868 -83.11 0.015558 -173.9
8.67640000 0.015604 -172.4 0.999867 -83.11 0.999867 -83.11 0.015604 -173.9
8.67650000 0.015649 -172.4 0.999866 -83.12 0.999866 -83.12 0.015650 -173.9
8.67660000 0.015695 -172.4 0.999865 -83.12 0.999865 -83.12 0.015695 -173.9
8.67670000 0.015741 -172.4 0.999865 -83.12 0.999865 -83.12 0.015741 -173.9
8.67680000 0.015787 -172.4 0.999864 -83.13 0.999864 -83.13 0.015787 -173.9
8.67690000 0.015833 -172.4 0.999863 -83.13 0.999863 -83.13 0.015834 -173.9
8.67700000 0.015880 -172.4 0.999862 -83.13 0.999862 -83.13 0.015880 -173.9
8.67710000 0.015926 -172.4 0.999862 -83.14 0.999862 -83.14 0.015926 -173.9
8.67720000 0.015972 -172.4 0.999861 -83.14 0.999861 -83.14 0.015972 -173.9
8.67730000 0.016019 -172.4 0.999860 -83.15 0.999860 -83.15 0.016019 -173.9
8.67740000 0.016065 -172.4 0.999859 -83.15 0.999859 -83.15 0.016065 -173.9
8.67750000 0.016112 -172.4 0.999859 -83.15 0.999859 -83.15 0.016112 -173.9
8.67760000 0.016158 -172.4 0.999858 -83.16 0.999858 -83.16 0.016159 -173.9
8.67770000 0.016205 -172.4 0.999857 -83.16 0.999857 -83.16 0.016205 -173.9
8.67780000 0.016252 -172.5 0.999856 -83.16 0.999856 -83.16 0.016252 -173.9
8.67790000 0.016299 -172.5 0.999856 -83.17 0.999856 -83.17 0.016299 -174.0
8.67800000 0.016346 -172.5 0.999855 -83.17 0.999855 -83.17 0.016346 -174.0
8.67810000 0.016393 -172.5 0.999854 -83.17 0.999854 -83.17 0.016393 -174.0
8.67820000 0.016440 -172.5 0.999853 -83.18 0.999853 -83.18 0.016440 -174.0
8.67830000 0.016487 -172.5 0.999852 -83.18 0.999852 -83.18 0.016487 -174.0
8.67840000 0.016535 -172.5 0.999852 -83.19 0.999852 -83.19 0.016535 -174.0
8.67850000 0.016582 -172.5 0.999851 -83.19 0.999851 -83.19 0.016582 -174.0
8.67860000 0.016629 -172.5 0.999850 -83.19 0.999850 -83.19 0.016630 -174.0
8.67870000 0.016677 -172.5 0.999849 -83.20 0.999849 -83.20 0.016677 -174.0
8.67880000 0.016724 -172.5 0.999848 -83.20 0.999848 -83.20 0.016725 -174.0
8.67890000 0.016772 -172.5 0.999848 -83.20 0.999848 -83.20 0.016772 -174.0
8.67900000 0.016820 -172.5 0.999847 -83.21 0.999847 -83.21 0.016820 -174.0
8.67910000 0.016868 -172.5 0.999846 -83.21 0.999846 -83.21 0.016868 -174.0
8.67920000 0.016916 -172.5 0.999845 -83.21 0.999845 -83.21 0.016916 -174.0
8.67930000 0.016964 -172.5 0.999844 -83.22 0.999844 -83.22 0.016964 -174.0
8.67940000 0.017012 -172.5 0.999843 -83.22 0.999843 -83.22 0.017012 -174.0
8.67950000 0.017060 -172.5 0.999843 -83.23 0.999843 -83.23 0.017060 -174.0
8.67960000 0.017108 -172.5 0.999842 -83.23 0.999842 -83.23 0.017108 -174.0
8.67970000 0.017157 -172.5 0.999841 -83.23 0.999841 -83.23 0.017157 -174.0
8.67980000 0.017205 -172.5 0.999840 -83.24 0.999840 -83.24 0.017205 -174.0
8.67990000 0.017253 -172.6 0.999839 -83.24 0.999839 -83.24 0.017254 -174.0
8.68000000 0.017302 -172.6 0.999838 -83.24 0.999838 -83.24 0.017302 -174.0
8.68010000 0.017351 -172.6 0.999838 -83.25 0.999838 -83.25 0.017351 -174.0
8.68020000 0.017399 -172.6 0.999837 -83.25 0.999837 -83.25 0.017400 -174.0
8.68030000 0.017448 -172.6 0.999836 -83.26 0.999836 -83.26 0.017448 -174.0
8.68040000 0.017497 -172.6 0.999835 -83.26 0.999835 -83.26 0.017497 -174.0
8.68050000 0.017546 -172.6 0.999834 -83.26 0.999834 -83.26 0.017546 -174.0
8.68060000 0.017595 -172.6 0.999833 -83.27 0.999833 -83.27 0.017595 -174.0
8.68070000 0.017644 -172.6 0.999832 -83.27 0.999832 -83.27 0.017645 -174.0
8.68080000 0.017694 -172.6 0.999831 -83.27 0.999831 -83.27 0.017694 -174.0
8.68090000 0.017743 -172.6 0.999831 -83.28 0.999831 -83.28 0.017743 -174.0
8.68100000 0.017792 -172.6 0.999830 -83.28 0.999830 -83.28 0.017792 -174.0
8.68110000 0.017842 -172.6 0.999829 -83.29 0.999829 -83.29 0.017842 -174.0
8.68120000 0.017891 -172.6 0.999828 -83.29 0.999828 -83.29 0.017892 -174.0
8.68130000 0.017941 -172.6 0.999827 -83.29 0.999827 -83.29 0.017941 -174.0
8.68140000 0.017991 -172.6 0.999826 -83.30 0.999826 -83.30 0.017991 -174.0
8.68150000 0.018041 -172.6 0.999825 -83.30 0.999825 -83.30 0.018041 -174.0
8.68160000 0.018090 -172.6 0.999824 -83.30 0.999824 -83.30 0.018091 -174.0
8.68170000 0.018140 -172.6 0.999823 -83.31 0.999823 -83.31 0.018141 -174.0
8.68180000 0.018191 -172.6 0.999822 -83.31 0.999822 -83.31 0.018191 -174.0
8.68190000 0.018241 -172.7 0.999821 -83.32 0.999821 -83.32 0.018241 -174.1
8.68200000 0.018291 -172.7 0.999820 -83.32 0.999820 -83.32 0.018291 -174.1
8.68210000 0.018341 -172.7 0.999820 -83.32 0.999820 -83.32 0.018341 -174.1
8.68220000 0.018392 -172.7 0.999819 -83.33 0.999819 -83.33 0.018392 -174.1
8.68230000 0.018442 -172.7 0.999818 -83.33 0.999818 -83.33 0.018442 -174.1
8.68240000 0.018493 -172.7 0.999817 -83.34 0.999817 -83.34 0.018493 -174.1
8.68250000 0.018544 -172.7 0.999816 -83.34 0.999816 -83.34 0.018544 -174.1
8.68260000 0.018594 -172.7 0.999815 -83.34 0.999815 -83.34 0.018594 -174.1
8.68270000 0.018645 -172.7 0.999814 -83.35 0.999814 -83.35 0.018645 -174.1
8.68280000 0.018696 -172.7 0.999813 -83.35 0.999813 -83.35 0.018696 -174.1
8.68290000 0.018747 -172.7 0.999812 -83.35 0.999812 -83.35 0.018747 -174.1
8.68300000 0.018798 -172.7 0.999811 -83.36 0.999811 -83.36 0.018798 -174.1
8.68310000 0.018849 -172.7 0.999810 -83.36 0.999810 -83.36 0.018850 -174.1
8.68320000 0.018901 -172.7 0.999809 -83.37 0.999809 -83.37 0.018901 -174.1
8.68330000 0.018952 -172.7 0.999808 -83.37 0.999808 -83.37 0.018952 -174.1
8.68340000 0.019004 -172.7 0.999807 -83.37 0.999807 -83.37 0.019004 -174.1
8.68350000 0.019055 -172.7 0.999806 -83.38 0.999806 -83.38 0.019055 -174.1
8.68360000 0.019107 -172.7 0.999805 -83.38 0.999805 -83.38 0.019107 -174.1
8.68370000 0.019159 -172.7 0.999804 -83.39 0.999804 -83.39 0.019159 -174.1
8.68380000 0.019210 -172.7 0.999803 -83.39 0.999803 -83.39 0.019211 -174.1
8.68390000 0.019262 -172.7 0.999802 -83.39 0.999802 -83.39 0.019263 -174.1
8.68400000 0.019314 -172.8 0.999801 -83.40 0.999801 -83.40 0.019315 -174.1
8.68410000 0.019367 -172.8 0.999800 -83.40 0.999800 -83.40 0.019367 -174.1
8.68420000 0.019419 -172.8 0.999799 -83.41 0.999799 -83.41 0.019419 -174.1
8.68430000 0.019471 -172.8 0.999798 -83.41 0.999798 -83.41 0.019471 -174.1
8.68440000 0.019523 -172.8 0.999797 -83.41 0.999797 -83.41 0.019524 -174.1
8.68450000 0.019576 -172.8 0.999796 -83.42 0.999796 -83.42 0.019576 -174.1
8.68460000 0.019628 -172.8 0.999795 -83.42 0.999795 -83.42 0.019629 -174.1
8.68470000 0.019681 -172.8 0.999794 -83.43 0.999794 -83.43 0.019681 -174.1
8.68480000 0.019734 -172.8 0.999793 -83.43 0.999793 -83.43 0.019734 -174.1
8.68490000 0.019787 -172.8 0.999792 -83.43 0.999792 -83.43 0.019787 -174.1
8.68500000 0.019840 -172.8 0.999790 -83.44 0.999790 -83.44 0.019840 -174.1
8.68510000 0.019893 -172.8 0.999789 -83.44 0.999789 -83.44 0.019893 -174.1
8.68520000 0.019946 -172.8 0.999788 -83.44 0.999788 -83.44 0.019946 -174.1
8.68530000 0.019999 -172.8 0.999787 -83.45 0.999787 -83.45 0.019999 -174.1
8.68540000 0.020052 -172.8 0.999786 -83.45 0.999786 -83.45 0.020053 -174.2
8.68550000 0.020106 -172.8 0.999785 -83.46 0.999785 -83.46 0.020106 -174.2
8.68560000 0.020159 -172.8 0.999784 -83.46 0.999784 -83.46 0.020159 -174.2
8.68570000 0.020213 -172.8 0.999783 -83.46 0.999783 -83.46 0.020213 -174.2
8.68580000 0.020267 -172.8 0.999782 -83.47 0.999782 -83.47 0.020267 -174.2
8.68590000 0.020320 -172.8 0.999781 -83.47 0.999781 -83.47 0.020321 -174.2
8.68600000 0.020374 -172.9 0.999780 -83.48 0.999780 -83.48 0.020374 -174.2
8.68610000 0.020428 -172.9 0.999778 -83.48 0.999778 -83.48 0.020428 -174.2
8.68620000 0.020482 -172.9 0.999777 -83.49 0.999777 -83.49 0.020483 -174.2
8.68630000 0.020537 -172.9 0.999776 -83.49 0.999776 -83.49 0.020537 -174.2
8.68640000 0.020591 -172.9 0.999775 -83.49 0.999775 -83.49 0.020591 -174.2
8.68650000 0.020645 -172.9 0.999774 -83.50 0.999774 -83.50 0.020645 -174.2
8.68660000 0.020700 -172.9 0.999773 -83.50 0.999773 -83.50 0.020700 -174.2
8.68670000 0.020754 -172.9 0.999772 -83.51 0.999772 -83.51 0.020754 -174.2
8.68680000 0.020809 -172.9 0.999770 -83.51 0.999770 -83.51 0.020809 -174.2
8.68690000 0.020864 -172.9 0.999769 -83.51 0.999769 -83.51 0.020864 -174.2
8.68700000 0.020918 -172.9 0.999768 -83.52 0.999768 -83.52 0.020919 -174.2
8.68710000 0.020973 -172.9 0.999767 -83.52 0.999767 -83.52 0.020974 -174.2
8.68720000 0.021028 -172.9 0.999766 -83.53 0.999766 -83.53 0.021029 -174.2
8.68730000 0.021084 -172.9 0.999765 -83.53 0.999765 -83.53 0.021084 -174.2
8.68740000 0.021139 -172.9 0.999763 -83.53 0.999763 -83.53 0.021139 -174.2
8.68750000 0.021194 -172.9 0.999762 -83.54 0.999762 -83.54 0.021194 -174.2
8.68760000 0.021250 -172.9 0.999761 -83.54 0.999761 -83.54 0.021250 -174.2
8.68770000 0.021305 -172.9 0.999760 -83.55 0.999760 -83.55 0.021305 -174.2
8.68780000 0.021361 -172.9 0.999759 -83.55 0.999759 -83.55 0.021361 -174.2
8.68790000 0.021417 -172.9 0.999757 -83.55 0.999757 -83.55 0.021417 -174.2
8.68800000 0.021472 -172.9 0.999756 -83.56 0.999756 -83.56 0.021473 -174.2
8.68810000 0.021528 -173.0 0.999755 -83.56 0.999755 -83.56 0.021529 -174.2
8.68820000 0.021584 -173.0 0.999754 -83.57 0.999754 -83.57 0.021585 -174.2
8.68830000 0.021641 -173.0 0.999753 -83.57 0.999753 -83.57 0.021641 -174.2
8.68840000 0.021697 -173.0 0.999751 -83.58 0.999751 -83.58 0.021697 -174.2
8.68850000 0.021753 -173.0 0.999750 -83.58 0.999750 -83.58 0.021753 -174.2
8.68860000 0.021810 -173.0 0.999749 -83.58 0.999749 -83.58 0.021810 -174.3
8.68870000 0.021866 -173.0 0.999748 -83.59 0.999748 -83.59 0.021866 -174.3
8.68880000 0.021923 -173.0 0.999746 -83.59 0.999746 -83.59 0.021923 -174.3
8.68890000 0.021980 -173.0 0.999745 -83.60 0.999745 -83.60 0.021980 -174.3
8.68900000 0.022036 -173.0 0.999744 -83.60 0.999744 -83.60 0.022037 -174.3
8.68910000 0.022093 -173.0 0.999742 -83.60 0.999742 -83.60 0.022094 -174.3
8.68920000 0.022151 -173.0 0.999741 -83.61 0.999741 -83.61 0.022151 -174.3