! Sonnet Data File
! From: emgraph Version : 16.52
! From Project: transmon_trial
! Data is De-embedded 
! Data File Written: 10/20/2017 09:13:08
!< HDATE 10/19/2017 20:03:37
!< MDATE 10/19/2017 20:10:25
!< PARAMS
!< Lj = 15.24
!< Gap = 26.0
!< Width = 20.0
!< Airgap = 12.0
!< Pwidth = 2000.0
!< END PARAMS
# GHZ S MA R 51.00000
8.65000000 0.016263 10.048 0.999864 -80.02 0.999864 -80.02 0.016263 9.9344
!< P1 F=8.65 Eeff=(6.44623598 -2.9974e-5) Z0=(50.9069312 1.15726e-4) R=0.0 C=0.0 
!< P2 F=8.65 Eeff=(6.44623598 -2.9974e-5) Z0=(50.9069312 1.15726e-4) R=0.0 C=0.0 
8.65010000 0.016260 10.047 0.999864 -80.02 0.999864 -80.02 0.016260 9.9333
8.65020000 0.016258 10.046 0.999864 -80.02 0.999864 -80.02 0.016258 9.9323
8.65030000 0.016256 10.045 0.999864 -80.02 0.999864 -80.02 0.016256 9.9313
8.65040000 0.016253 10.044 0.999864 -80.02 0.999864 -80.02 0.016253 9.9303
8.65050000 0.016251 10.043 0.999864 -80.02 0.999864 -80.02 0.016251 9.9293
8.65060000 0.016248 10.042 0.999864 -80.02 0.999864 -80.02 0.016248 9.9282
8.65070000 0.016246 10.040 0.999864 -80.03 0.999864 -80.03 0.016246 9.9272
8.65080000 0.016244 10.039 0.999864 -80.03 0.999864 -80.03 0.016244 9.9262
8.65090000 0.016241 10.038 0.999864 -80.03 0.999864 -80.03 0.016241 9.9252
8.65100000 0.016239 10.037 0.999864 -80.03 0.999864 -80.03 0.016239 9.9242
8.65110000 0.016237 10.036 0.999864 -80.03 0.999864 -80.03 0.016237 9.9231
8.65120000 0.016234 10.035 0.999865 -80.03 0.999865 -80.03 0.016234 9.9221
8.65130000 0.016232 10.034 0.999865 -80.03 0.999865 -80.03 0.016232 9.9211
8.65140000 0.016229 10.033 0.999865 -80.03 0.999865 -80.03 0.016229 9.9201
8.65150000 0.016227 10.031 0.999865 -80.03 0.999865 -80.03 0.016227 9.9191
8.65160000 0.016225 10.030 0.999865 -80.04 0.999865 -80.04 0.016225 9.9180
8.65170000 0.016222 10.029 0.999865 -80.04 0.999865 -80.04 0.016222 9.9170
8.65180000 0.016220 10.028 0.999865 -80.04 0.999865 -80.04 0.016220 9.9160
8.65190000 0.016217 10.027 0.999865 -80.04 0.999865 -80.04 0.016217 9.9150
8.65200000 0.016215 10.026 0.999865 -80.04 0.999865 -80.04 0.016215 9.9139
8.65210000 0.016213 10.025 0.999865 -80.04 0.999865 -80.04 0.016213 9.9129
8.65220000 0.016210 10.024 0.999865 -80.04 0.999865 -80.04 0.016210 9.9119
8.65230000 0.016208 10.022 0.999865 -80.04 0.999865 -80.04 0.016208 9.9109
8.65240000 0.016205 10.021 0.999865 -80.04 0.999865 -80.04 0.016205 9.9099
8.65250000 0.016203 10.020 0.999865 -80.04 0.999865 -80.04 0.016203 9.9088
8.65260000 0.016200 10.019 0.999865 -80.05 0.999865 -80.05 0.016200 9.9078
8.65270000 0.016198 10.018 0.999865 -80.05 0.999865 -80.05 0.016198 9.9068
8.65280000 0.016196 10.017 0.999865 -80.05 0.999865 -80.05 0.016196 9.9058
8.65290000 0.016193 10.016 0.999865 -80.05 0.999865 -80.05 0.016193 9.9048
8.65300000 0.016191 10.015 0.999865 -80.05 0.999865 -80.05 0.016191 9.9037
8.65310000 0.016188 10.014 0.999865 -80.05 0.999865 -80.05 0.016188 9.9027
8.65320000 0.016186 10.012 0.999865 -80.05 0.999865 -80.05 0.016186 9.9017
8.65330000 0.016183 10.011 0.999865 -80.05 0.999865 -80.05 0.016183 9.9007
8.65340000 0.016181 10.010 0.999865 -80.05 0.999865 -80.05 0.016181 9.8996
8.65350000 0.016179 10.009 0.999865 -80.06 0.999865 -80.06 0.016179 9.8986
8.65360000 0.016176 10.008 0.999865 -80.06 0.999865 -80.06 0.016176 9.8976
8.65370000 0.016174 10.007 0.999865 -80.06 0.999865 -80.06 0.016174 9.8966
8.65380000 0.016171 10.006 0.999866 -80.06 0.999866 -80.06 0.016171 9.8956
8.65390000 0.016169 10.005 0.999866 -80.06 0.999866 -80.06 0.016169 9.8945
8.65400000 0.016166 10.003 0.999866 -80.06 0.999866 -80.06 0.016166 9.8935
8.65410000 0.016164 10.002 0.999866 -80.06 0.999866 -80.06 0.016164 9.8925
8.65420000 0.016161 10.001 0.999866 -80.06 0.999866 -80.06 0.016161 9.8915
8.65430000 0.016159 10.000 0.999866 -80.06 0.999866 -80.06 0.016159 9.8904
8.65440000 0.016157 9.9989 0.999866 -80.07 0.999866 -80.07 0.016157 9.8894
8.65450000 0.016154 9.9977 0.999866 -80.07 0.999866 -80.07 0.016154 9.8884
8.65460000 0.016152 9.9966 0.999866 -80.07 0.999866 -80.07 0.016152 9.8874
8.65470000 0.016149 9.9955 0.999866 -80.07 0.999866 -80.07 0.016149 9.8863
8.65480000 0.016147 9.9944 0.999866 -80.07 0.999866 -80.07 0.016147 9.8853
8.65490000 0.016144 9.9932 0.999866 -80.07 0.999866 -80.07 0.016144 9.8843
8.65500000 0.016142 9.9921 0.999866 -80.07 0.999866 -80.07 0.016142 9.8833
8.65510000 0.016139 9.9910 0.999866 -80.07 0.999866 -80.07 0.016139 9.8823
8.65520000 0.016137 9.9899 0.999866 -80.07 0.999866 -80.07 0.016137 9.8812
8.65530000 0.016134 9.9887 0.999866 -80.07 0.999866 -80.07 0.016134 9.8802
8.65540000 0.016132 9.9876 0.999866 -80.08 0.999866 -80.08 0.016132 9.8792
8.65550000 0.016129 9.9865 0.999866 -80.08 0.999866 -80.08 0.016129 9.8782
8.65560000 0.016127 9.9853 0.999866 -80.08 0.999866 -80.08 0.016127 9.8771
8.65570000 0.016124 9.9842 0.999866 -80.08 0.999866 -80.08 0.016124 9.8761
8.65580000 0.016122 9.9831 0.999866 -80.08 0.999866 -80.08 0.016122 9.8751
8.65590000 0.016120 9.9820 0.999866 -80.08 0.999866 -80.08 0.016120 9.8741
8.65600000 0.016117 9.9808 0.999866 -80.08 0.999866 -80.08 0.016117 9.8730
8.65610000 0.016115 9.9797 0.999866 -80.08 0.999866 -80.08 0.016115 9.8720
8.65620000 0.016112 9.9786 0.999866 -80.08 0.999866 -80.08 0.016112 9.8710
8.65630000 0.016110 9.9774 0.999866 -80.09 0.999866 -80.09 0.016110 9.8700
8.65640000 0.016107 9.9763 0.999867 -80.09 0.999867 -80.09 0.016107 9.8689
8.65650000 0.016105 9.9752 0.999867 -80.09 0.999867 -80.09 0.016105 9.8679
8.65660000 0.016102 9.9741 0.999867 -80.09 0.999867 -80.09 0.016102 9.8669
8.65670000 0.016100 9.9729 0.999867 -80.09 0.999867 -80.09 0.016100 9.8659
8.65680000 0.016097 9.9718 0.999867 -80.09 0.999867 -80.09 0.016097 9.8649
8.65690000 0.016095 9.9707 0.999867 -80.09 0.999867 -80.09 0.016095 9.8638
8.65700000 0.016092 9.9695 0.999867 -80.09 0.999867 -80.09 0.016092 9.8628
8.65710000 0.016090 9.9684 0.999867 -80.09 0.999867 -80.09 0.016090 9.8618
8.65720000 0.016087 9.9673 0.999867 -80.10 0.999867 -80.10 0.016087 9.8608
8.65730000 0.016085 9.9661 0.999867 -80.10 0.999867 -80.10 0.016085 9.8597
8.65740000 0.016082 9.9650 0.999867 -80.10 0.999867 -80.10 0.016082 9.8587
8.65750000 0.016079 9.9639 0.999867 -80.10 0.999867 -80.10 0.016079 9.8577
8.65760000 0.016077 9.9627 0.999867 -80.10 0.999867 -80.10 0.016077 9.8567
8.65770000 0.016074 9.9616 0.999867 -80.10 0.999867 -80.10 0.016074 9.8556
8.65780000 0.016072 9.9605 0.999867 -80.10 0.999867 -80.10 0.016072 9.8546
8.65790000 0.016069 9.9594 0.999867 -80.10 0.999867 -80.10 0.016069 9.8536
8.65800000 0.016067 9.9582 0.999867 -80.10 0.999867 -80.10 0.016067 9.8526
8.65810000 0.016064 9.9571 0.999867 -80.11 0.999867 -80.11 0.016064 9.8515
8.65820000 0.016062 9.9560 0.999867 -80.11 0.999867 -80.11 0.016062 9.8505
8.65830000 0.016059 9.9548 0.999867 -80.11 0.999867 -80.11 0.016059 9.8495
8.65840000 0.016057 9.9537 0.999867 -80.11 0.999867 -80.11 0.016057 9.8485
8.65850000 0.016054 9.9526 0.999867 -80.11 0.999867 -80.11 0.016054 9.8474
8.65860000 0.016052 9.9514 0.999867 -80.11 0.999867 -80.11 0.016052 9.8464
8.65870000 0.016049 9.9503 0.999867 -80.11 0.999867 -80.11 0.016049 9.8454
8.65880000 0.016047 9.9492 0.999867 -80.11 0.999867 -80.11 0.016047 9.8444
8.65890000 0.016044 9.9480 0.999868 -80.11 0.999868 -80.11 0.016044 9.8433
8.65900000 0.016041 9.9469 0.999868 -80.11 0.999868 -80.11 0.016041 9.8423
8.65910000 0.016039 9.9458 0.999868 -80.12 0.999868 -80.12 0.016039 9.8413
8.65920000 0.016036 9.9446 0.999868 -80.12 0.999868 -80.12 0.016036 9.8403
8.65930000 0.016034 9.9435 0.999868 -80.12 0.999868 -80.12 0.016034 9.8392
8.65940000 0.016031 9.9423 0.999868 -80.12 0.999868 -80.12 0.016031 9.8382
8.65950000 0.016029 9.9412 0.999868 -80.12 0.999868 -80.12 0.016029 9.8372
8.65960000 0.016026 9.9401 0.999868 -80.12 0.999868 -80.12 0.016026 9.8362
8.65970000 0.016024 9.9389 0.999868 -80.12 0.999868 -80.12 0.016024 9.8351
8.65980000 0.016021 9.9378 0.999868 -80.12 0.999868 -80.12 0.016021 9.8341
8.65990000 0.016018 9.9367 0.999868 -80.12 0.999868 -80.12 0.016018 9.8331
8.66000000 0.016016 9.9355 0.999868 -80.13 0.999868 -80.13 0.016016 9.8321
8.66010000 0.016013 9.9344 0.999868 -80.13 0.999868 -80.13 0.016013 9.8310
8.66020000 0.016011 9.9333 0.999868 -80.13 0.999868 -80.13 0.016011 9.8300
8.66030000 0.016008 9.9321 0.999868 -80.13 0.999868 -80.13 0.016008 9.8290
8.66040000 0.016006 9.9310 0.999868 -80.13 0.999868 -80.13 0.016006 9.8280
8.66050000 0.016003 9.9299 0.999868 -80.13 0.999868 -80.13 0.016003 9.8269
8.66060000 0.016000 9.9287 0.999868 -80.13 0.999868 -80.13 0.016000 9.8259
8.66070000 0.015998 9.9276 0.999868 -80.13 0.999868 -80.13 0.015998 9.8249
8.66080000 0.015995 9.9264 0.999868 -80.13 0.999868 -80.13 0.015995 9.8238
8.66090000 0.015993 9.9253 0.999868 -80.14 0.999868 -80.14 0.015993 9.8228
8.66100000 0.015990 9.9242 0.999868 -80.14 0.999868 -80.14 0.015990 9.8218
8.66110000 0.015987 9.9230 0.999868 -80.14 0.999868 -80.14 0.015987 9.8208
8.66120000 0.015985 9.9219 0.999868 -80.14 0.999868 -80.14 0.015985 9.8197
8.66130000 0.015982 9.9208 0.999869 -80.14 0.999869 -80.14 0.015982 9.8187
8.66140000 0.015980 9.9196 0.999869 -80.14 0.999869 -80.14 0.015980 9.8177
8.66150000 0.015977 9.9185 0.999869 -80.14 0.999869 -80.14 0.015977 9.8167
8.66160000 0.015974 9.9173 0.999869 -80.14 0.999869 -80.14 0.015974 9.8156
8.66170000 0.015972 9.9162 0.999869 -80.14 0.999869 -80.14 0.015972 9.8146
8.66180000 0.015969 9.9151 0.999869 -80.15 0.999869 -80.15 0.015969 9.8136
8.66190000 0.015967 9.9139 0.999869 -80.15 0.999869 -80.15 0.015967 9.8126
8.66200000 0.015964 9.9128 0.999869 -80.15 0.999869 -80.15 0.015964 9.8115
8.66210000 0.015961 9.9116 0.999869 -80.15 0.999869 -80.15 0.015961 9.8105
8.66220000 0.015959 9.9105 0.999869 -80.15 0.999869 -80.15 0.015959 9.8095
8.66230000 0.015956 9.9094 0.999869 -80.15 0.999869 -80.15 0.015956 9.8084
8.66240000 0.015953 9.9082 0.999869 -80.15 0.999869 -80.15 0.015953 9.8074
8.66250000 0.015951 9.9071 0.999869 -80.15 0.999869 -80.15 0.015951 9.8064
8.66260000 0.015948 9.9059 0.999869 -80.15 0.999869 -80.15 0.015948 9.8054
8.66270000 0.015946 9.9048 0.999869 -80.16 0.999869 -80.16 0.015946 9.8043
8.66280000 0.015943 9.9037 0.999869 -80.16 0.999869 -80.16 0.015943 9.8033
8.66290000 0.015940 9.9025 0.999869 -80.16 0.999869 -80.16 0.015940 9.8023
8.66300000 0.015938 9.9014 0.999869 -80.16 0.999869 -80.16 0.015938 9.8013
8.66310000 0.015935 9.9002 0.999869 -80.16 0.999869 -80.16 0.015935 9.8002
8.66320000 0.015932 9.8991 0.999869 -80.16 0.999869 -80.16 0.015932 9.7992
8.66330000 0.015930 9.8980 0.999869 -80.16 0.999869 -80.16 0.015930 9.7982
8.66340000 0.015927 9.8968 0.999869 -80.16 0.999869 -80.16 0.015927 9.7971
8.66350000 0.015924 9.8957 0.999869 -80.16 0.999869 -80.16 0.015924 9.7961
8.66360000 0.015922 9.8945 0.999869 -80.16 0.999869 -80.16 0.015922 9.7951
8.66370000 0.015919 9.8934 0.999869 -80.17 0.999869 -80.17 0.015919 9.7941
8.66380000 0.015917 9.8922 0.999870 -80.17 0.999870 -80.17 0.015917 9.7930
8.66390000 0.015914 9.8911 0.999870 -80.17 0.999870 -80.17 0.015914 9.7920
8.66400000 0.015911 9.8900 0.999870 -80.17 0.999870 -80.17 0.015911 9.7910
8.66410000 0.015909 9.8888 0.999870 -80.17 0.999870 -80.17 0.015909 9.7899
8.66420000 0.015906 9.8877 0.999870 -80.17 0.999870 -80.17 0.015906 9.7889
8.66430000 0.015903 9.8865 0.999870 -80.17 0.999870 -80.17 0.015903 9.7879
8.66440000 0.015901 9.8854 0.999870 -80.17 0.999870 -80.17 0.015901 9.7869
8.66450000 0.015898 9.8842 0.999870 -80.17 0.999870 -80.17 0.015898 9.7858
8.66460000 0.015895 9.8831 0.999870 -80.18 0.999870 -80.18 0.015895 9.7848
8.66470000 0.015893 9.8819 0.999870 -80.18 0.999870 -80.18 0.015893 9.7838
8.66480000 0.015890 9.8808 0.999870 -80.18 0.999870 -80.18 0.015890 9.7827
8.66490000 0.015887 9.8797 0.999870 -80.18 0.999870 -80.18 0.015887 9.7817
8.66500000 0.015885 9.8785 0.999870 -80.18 0.999870 -80.18 0.015885 9.7807
8.66510000 0.015882 9.8774 0.999870 -80.18 0.999870 -80.18 0.015882 9.7797
8.66520000 0.015879 9.8762 0.999870 -80.18 0.999870 -80.18 0.015879 9.7786
8.66530000 0.015876 9.8751 0.999870 -80.18 0.999870 -80.18 0.015876 9.7776
8.66540000 0.015874 9.8739 0.999870 -80.18 0.999870 -80.18 0.015874 9.7766
8.66550000 0.015871 9.8728 0.999870 -80.19 0.999870 -80.19 0.015871 9.7755
8.66560000 0.015868 9.8716 0.999870 -80.19 0.999870 -80.19 0.015868 9.7745
8.66570000 0.015866 9.8705 0.999870 -80.19 0.999870 -80.19 0.015866 9.7735
8.66580000 0.015863 9.8693 0.999870 -80.19 0.999870 -80.19 0.015863 9.7725
8.66590000 0.015860 9.8682 0.999870 -80.19 0.999870 -80.19 0.015860 9.7714
8.66600000 0.015858 9.8670 0.999870 -80.19 0.999870 -80.19 0.015858 9.7704
8.66610000 0.015855 9.8659 0.999871 -80.19 0.999871 -80.19 0.015855 9.7694
8.66620000 0.015852 9.8648 0.999871 -80.19 0.999871 -80.19 0.015852 9.7683
8.66630000 0.015849 9.8636 0.999871 -80.19 0.999871 -80.19 0.015849 9.7673
8.66640000 0.015847 9.8625 0.999871 -80.20 0.999871 -80.20 0.015847 9.7663
8.66650000 0.015844 9.8613 0.999871 -80.20 0.999871 -80.20 0.015844 9.7653
8.66660000 0.015841 9.8602 0.999871 -80.20 0.999871 -80.20 0.015841 9.7642
8.66670000 0.015839 9.8590 0.999871 -80.20 0.999871 -80.20 0.015839 9.7632
8.66680000 0.015836 9.8579 0.999871 -80.20 0.999871 -80.20 0.015836 9.7622
8.66690000 0.015833 9.8567 0.999871 -80.20 0.999871 -80.20 0.015833 9.7611
8.66700000 0.015830 9.8556 0.999871 -80.20 0.999871 -80.20 0.015830 9.7601
8.66710000 0.015828 9.8544 0.999871 -80.20 0.999871 -80.20 0.015828 9.7591
8.66720000 0.015825 9.8533 0.999871 -80.20 0.999871 -80.20 0.015825 9.7580
8.66730000 0.015822 9.8521 0.999871 -80.21 0.999871 -80.21 0.015822 9.7570
8.66740000 0.015819 9.8510 0.999871 -80.21 0.999871 -80.21 0.015819 9.7560
8.66750000 0.015817 9.8498 0.999871 -80.21 0.999871 -80.21 0.015817 9.7550
8.66760000 0.015814 9.8487 0.999871 -80.21 0.999871 -80.21 0.015814 9.7539
8.66770000 0.015811 9.8475 0.999871 -80.21 0.999871 -80.21 0.015811 9.7529
8.66780000 0.015809 9.8464 0.999871 -80.21 0.999871 -80.21 0.015809 9.7519
8.66790000 0.015806 9.8452 0.999871 -80.21 0.999871 -80.21 0.015806 9.7508
8.66800000 0.015803 9.8441 0.999871 -80.21 0.999871 -80.21 0.015803 9.7498
8.66810000 0.015800 9.8429 0.999871 -80.21 0.999871 -80.21 0.015800 9.7488
8.66820000 0.015798 9.8418 0.999871 -80.22 0.999871 -80.22 0.015798 9.7477
8.66830000 0.015795 9.8406 0.999871 -80.22 0.999871 -80.22 0.015795 9.7467
8.66840000 0.015792 9.8395 0.999871 -80.22 0.999871 -80.22 0.015792 9.7457
8.66850000 0.015789 9.8383 0.999872 -80.22 0.999872 -80.22 0.015789 9.7447
8.66860000 0.015786 9.8372 0.999872 -80.22 0.999872 -80.22 0.015786 9.7436
8.66870000 0.015784 9.8360 0.999872 -80.22 0.999872 -80.22 0.015784 9.7426
8.66880000 0.015781 9.8348 0.999872 -80.22 0.999872 -80.22 0.015781 9.7416
8.66890000 0.015778 9.8337 0.999872 -80.22 0.999872 -80.22 0.015778 9.7405
8.66900000 0.015775 9.8325 0.999872 -80.22 0.999872 -80.22 0.015775 9.7395
8.66910000 0.015773 9.8314 0.999872 -80.22 0.999872 -80.22 0.015773 9.7385
8.66920000 0.015770 9.8302 0.999872 -80.23 0.999872 -80.23 0.015770 9.7374
8.66930000 0.015767 9.8291 0.999872 -80.23 0.999872 -80.23 0.015767 9.7364
8.66940000 0.015764 9.8279 0.999872 -80.23 0.999872 -80.23 0.015764 9.7354
8.66950000 0.015761 9.8268 0.999872 -80.23 0.999872 -80.23 0.015761 9.7343
8.66960000 0.015759 9.8256 0.999872 -80.23 0.999872 -80.23 0.015759 9.7333
8.66970000 0.015756 9.8245 0.999872 -80.23 0.999872 -80.23 0.015756 9.7323
8.66980000 0.015753 9.8233 0.999872 -80.23 0.999872 -80.23 0.015753 9.7312
8.66990000 0.015750 9.8222 0.999872 -80.23 0.999872 -80.23 0.015750 9.7302
8.67000000 0.015748 9.8210 0.999872 -80.23 0.999872 -80.23 0.015748 9.7292
8.67010000 0.015745 9.8198 0.999872 -80.24 0.999872 -80.24 0.015745 9.7282
8.67020000 0.015742 9.8187 0.999872 -80.24 0.999872 -80.24 0.015742 9.7271
8.67030000 0.015739 9.8175 0.999872 -80.24 0.999872 -80.24 0.015739 9.7261
8.67040000 0.015736 9.8164 0.999872 -80.24 0.999872 -80.24 0.015736 9.7251
8.67050000 0.015734 9.8152 0.999872 -80.24 0.999872 -80.24 0.015734 9.7240
8.67060000 0.015731 9.8141 0.999872 -80.24 0.999872 -80.24 0.015731 9.7230
8.67070000 0.015728 9.8129 0.999872 -80.24 0.999872 -80.24 0.015728 9.7220
8.67080000 0.015725 9.8117 0.999873 -80.24 0.999873 -80.24 0.015725 9.7209
8.67090000 0.015722 9.8106 0.999873 -80.24 0.999873 -80.24 0.015722 9.7199
8.67100000 0.015719 9.8094 0.999873 -80.25 0.999873 -80.25 0.015719 9.7189
8.67110000 0.015717 9.8083 0.999873 -80.25 0.999873 -80.25 0.015717 9.7178
8.67120000 0.015714 9.8071 0.999873 -80.25 0.999873 -80.25 0.015714 9.7168
8.67130000 0.015711 9.8060 0.999873 -80.25 0.999873 -80.25 0.015711 9.7158
8.67140000 0.015708 9.8048 0.999873 -80.25 0.999873 -80.25 0.015708 9.7147
8.67150000 0.015705 9.8036 0.999873 -80.25 0.999873 -80.25 0.015705 9.7137
8.67160000 0.015702 9.8025 0.999873 -80.25 0.999873 -80.25 0.015702 9.7127
8.67170000 0.015700 9.8013 0.999873 -80.25 0.999873 -80.25 0.015700 9.7116
8.67180000 0.015697 9.8002 0.999873 -80.25 0.999873 -80.25 0.015697 9.7106
8.67190000 0.015694 9.7990 0.999873 -80.26 0.999873 -80.26 0.015694 9.7096
8.67200000 0.015691 9.7979 0.999873 -80.26 0.999873 -80.26 0.015691 9.7085
8.67210000 0.015688 9.7967 0.999873 -80.26 0.999873 -80.26 0.015688 9.7075
8.67220000 0.015685 9.7955 0.999873 -80.26 0.999873 -80.26 0.015685 9.7065
8.67230000 0.015683 9.7944 0.999873 -80.26 0.999873 -80.26 0.015683 9.7054
8.67240000 0.015680 9.7932 0.999873 -80.26 0.999873 -80.26 0.015680 9.7044
8.67250000 0.015677 9.7921 0.999873 -80.26 0.999873 -80.26 0.015677 9.7034
8.67260000 0.015674 9.7909 0.999873 -80.26 0.999873 -80.26 0.015674 9.7023
8.67270000 0.015671 9.7897 0.999873 -80.26 0.999873 -80.26 0.015671 9.7013
8.67280000 0.015668 9.7886 0.999873 -80.27 0.999873 -80.27 0.015668 9.7003
8.67290000 0.015665 9.7874 0.999873 -80.27 0.999873 -80.27 0.015665 9.6992
8.67300000 0.015662 9.7862 0.999873 -80.27 0.999873 -80.27 0.015662 9.6982
8.67310000 0.015660 9.7851 0.999874 -80.27 0.999874 -80.27 0.015660 9.6972
8.67320000 0.015657 9.7839 0.999874 -80.27 0.999874 -80.27 0.015657 9.6961
8.67330000 0.015654 9.7828 0.999874 -80.27 0.999874 -80.27 0.015654 9.6951
8.67340000 0.015651 9.7816 0.999874 -80.27 0.999874 -80.27 0.015651 9.6941
8.67350000 0.015648 9.7804 0.999874 -80.27 0.999874 -80.27 0.015648 9.6930
8.67360000 0.015645 9.7793 0.999874 -80.27 0.999874 -80.27 0.015645 9.6920
8.67370000 0.015642 9.7781 0.999874 -80.28 0.999874 -80.28 0.015642 9.6910
8.67380000 0.015639 9.7769 0.999874 -80.28 0.999874 -80.28 0.015639 9.6899
8.67390000 0.015637 9.7758 0.999874 -80.28 0.999874 -80.28 0.015637 9.6889
8.67400000 0.015634 9.7746 0.999874 -80.28 0.999874 -80.28 0.015634 9.6879
8.67410000 0.015631 9.7735 0.999874 -80.28 0.999874 -80.28 0.015631 9.6868
8.67420000 0.015628 9.7723 0.999874 -80.28 0.999874 -80.28 0.015628 9.6858
8.67430000 0.015625 9.7711 0.999874 -80.28 0.999874 -80.28 0.015625 9.6848
8.67440000 0.015622 9.7700 0.999874 -80.28 0.999874 -80.28 0.015622 9.6837
8.67450000 0.015619 9.7688 0.999874 -80.28 0.999874 -80.28 0.015619 9.6827
8.67460000 0.015616 9.7676 0.999874 -80.29 0.999874 -80.29 0.015616 9.6817
8.67470000 0.015613 9.7665 0.999874 -80.29 0.999874 -80.29 0.015613 9.6806
8.67480000 0.015610 9.7653 0.999874 -80.29 0.999874 -80.29 0.015610 9.6796
8.67490000 0.015607 9.7641 0.999874 -80.29 0.999874 -80.29 0.015607 9.6786
8.67500000 0.015605 9.7630 0.999874 -80.29 0.999874 -80.29 0.015605 9.6775
8.67510000 0.015602 9.7618 0.999874 -80.29 0.999874 -80.29 0.015602 9.6765
8.67520000 0.015599 9.7606 0.999874 -80.29 0.999874 -80.29 0.015599 9.6755
8.67530000 0.015596 9.7595 0.999875 -80.29 0.999875 -80.29 0.015596 9.6744
8.67540000 0.015593 9.7583 0.999875 -80.29 0.999875 -80.29 0.015593 9.6734
8.67550000 0.015590 9.7571 0.999875 -80.30 0.999875 -80.30 0.015590 9.6724
8.67560000 0.015587 9.7560 0.999875 -80.30 0.999875 -80.30 0.015587 9.6713
8.67570000 0.015584 9.7548 0.999875 -80.30 0.999875 -80.30 0.015584 9.6703
8.67580000 0.015581 9.7536 0.999875 -80.30 0.999875 -80.30 0.015581 9.6693
8.67590000 0.015578 9.7525 0.999875 -80.30 0.999875 -80.30 0.015578 9.6682
8.67600000 0.015575 9.7513 0.999875 -80.30 0.999875 -80.30 0.015575 9.6672
8.67610000 0.015572 9.7501 0.999875 -80.30 0.999875 -80.30 0.015572 9.6661
8.67620000 0.015569 9.7490 0.999875 -80.30 0.999875 -80.30 0.015569 9.6651
8.67630000 0.015566 9.7478 0.999875 -80.30 0.999875 -80.30 0.015566 9.6641
8.67640000 0.015563 9.7466 0.999875 -80.31 0.999875 -80.31 0.015563 9.6630
8.67650000 0.015560 9.7455 0.999875 -80.31 0.999875 -80.31 0.015560 9.6620
8.67660000 0.015557 9.7443 0.999875 -80.31 0.999875 -80.31 0.015557 9.6610
8.67670000 0.015554 9.7431 0.999875 -80.31 0.999875 -80.31 0.015554 9.6599
8.67680000 0.015552 9.7419 0.999875 -80.31 0.999875 -80.31 0.015552 9.6589
8.67690000 0.015549 9.7408 0.999875 -80.31 0.999875 -80.31 0.015549 9.6579
8.67700000 0.015546 9.7396 0.999875 -80.31 0.999875 -80.31 0.015546 9.6568
8.67710000 0.015543 9.7384 0.999875 -80.31 0.999875 -80.31 0.015543 9.6558
8.67720000 0.015540 9.7373 0.999875 -80.31 0.999875 -80.31 0.015540 9.6548
8.67730000 0.015537 9.7361 0.999875 -80.32 0.999875 -80.32 0.015537 9.6537
8.67740000 0.015534 9.7349 0.999875 -80.32 0.999875 -80.32 0.015534 9.6527
8.67750000 0.015531 9.7338 0.999876 -80.32 0.999876 -80.32 0.015531 9.6517
8.67760000 0.015528 9.7326 0.999876 -80.32 0.999876 -80.32 0.015528 9.6506
8.67770000 0.015525 9.7314 0.999876 -80.32 0.999876 -80.32 0.015525 9.6496
8.67780000 0.015522 9.7302 0.999876 -80.32 0.999876 -80.32 0.015522 9.6485
8.67790000 0.015519 9.7291 0.999876 -80.32 0.999876 -80.32 0.015519 9.6475
8.67800000 0.015516 9.7279 0.999876 -80.32 0.999876 -80.32 0.015516 9.6465
8.67810000 0.015513 9.7267 0.999876 -80.32 0.999876 -80.32 0.015513 9.6454
8.67820000 0.015510 9.7255 0.999876 -80.33 0.999876 -80.33 0.015510 9.6444
8.67830000 0.015507 9.7244 0.999876 -80.33 0.999876 -80.33 0.015507 9.6434
8.67840000 0.015504 9.7232 0.999876 -80.33 0.999876 -80.33 0.015504 9.6423
8.67850000 0.015501 9.7220 0.999876 -80.33 0.999876 -80.33 0.015501 9.6413
8.67860000 0.015498 9.7209 0.999876 -80.33 0.999876 -80.33 0.015498 9.6403
8.67870000 0.015495 9.7197 0.999876 -80.33 0.999876 -80.33 0.015495 9.6392
8.67880000 0.015492 9.7185 0.999876 -80.33 0.999876 -80.33 0.015492 9.6382
8.67890000 0.015489 9.7173 0.999876 -80.33 0.999876 -80.33 0.015489 9.6371
8.67900000 0.015486 9.7162 0.999876 -80.33 0.999876 -80.33 0.015486 9.6361
8.67910000 0.015483 9.7150 0.999876 -80.34 0.999876 -80.34 0.015483 9.6351
8.67920000 0.015480 9.7138 0.999876 -80.34 0.999876 -80.34 0.015480 9.6340
8.67930000 0.015476 9.7126 0.999876 -80.34 0.999876 -80.34 0.015476 9.6330
8.67940000 0.015473 9.7115 0.999876 -80.34 0.999876 -80.34 0.015473 9.6320
8.67950000 0.015470 9.7103 0.999876 -80.34 0.999876 -80.34 0.015470 9.6309
8.67960000 0.015467 9.7091 0.999876 -80.34 0.999876 -80.34 0.015467 9.6299
8.67970000 0.015464 9.7079 0.999877 -80.34 0.999877 -80.34 0.015464 9.6288
8.67980000 0.015461 9.7067 0.999877 -80.34 0.999877 -80.34 0.015461 9.6278
8.67990000 0.015458 9.7056 0.999877 -80.34 0.999877 -80.34 0.015458 9.6268
8.68000000 0.015455 9.7044 0.999877 -80.35 0.999877 -80.35 0.015455 9.6257
8.68010000 0.015452 9.7032 0.999877 -80.35 0.999877 -80.35 0.015452 9.6247
8.68020000 0.015449 9.7020 0.999877 -80.35 0.999877 -80.35 0.015449 9.6237
8.68030000 0.015446 9.7009 0.999877 -80.35 0.999877 -80.35 0.015446 9.6226
8.68040000 0.015443 9.6997 0.999877 -80.35 0.999877 -80.35 0.015443 9.6216
8.68050000 0.015440 9.6985 0.999877 -80.35 0.999877 -80.35 0.015440 9.6205
8.68060000 0.015437 9.6973 0.999877 -80.35 0.999877 -80.35 0.015437 9.6195
8.68070000 0.015434 9.6961 0.999877 -80.35 0.999877 -80.35 0.015434 9.6185
8.68080000 0.015431 9.6950 0.999877 -80.35 0.999877 -80.35 0.015431 9.6174
8.68090000 0.015428 9.6938 0.999877 -80.36 0.999877 -80.36 0.015428 9.6164
8.68100000 0.015425 9.6926 0.999877 -80.36 0.999877 -80.36 0.015425 9.6154
8.68110000 0.015421 9.6914 0.999877 -80.36 0.999877 -80.36 0.015421 9.6143
8.68120000 0.015418 9.6902 0.999877 -80.36 0.999877 -80.36 0.015418 9.6133
8.68130000 0.015415 9.6891 0.999877 -80.36 0.999877 -80.36 0.015415 9.6122
8.68140000 0.015412 9.6879 0.999877 -80.36 0.999877 -80.36 0.015412 9.6112
8.68150000 0.015409 9.6867 0.999877 -80.36 0.999877 -80.36 0.015409 9.6102
8.68160000 0.015406 9.6855 0.999877 -80.36 0.999877 -80.36 0.015406 9.6091
8.68170000 0.015403 9.6843 0.999877 -80.36 0.999877 -80.36 0.015403 9.6081
8.68180000 0.015400 9.6832 0.999878 -80.37 0.999878 -80.37 0.015400 9.6070
8.68190000 0.015397 9.6820 0.999878 -80.37 0.999878 -80.37 0.015397 9.6060
8.68200000 0.015394 9.6808 0.999878 -80.37 0.999878 -80.37 0.015394 9.6050
8.68210000 0.015390 9.6796 0.999878 -80.37 0.999878 -80.37 0.015390 9.6039
8.68220000 0.015387 9.6784 0.999878 -80.37 0.999878 -80.37 0.015387 9.6029
8.68230000 0.015384 9.6772 0.999878 -80.37 0.999878 -80.37 0.015384 9.6019
8.68240000 0.015381 9.6761 0.999878 -80.37 0.999878 -80.37 0.015381 9.6008
8.68250000 0.015378 9.6749 0.999878 -80.37 0.999878 -80.37 0.015378 9.5998
8.68260000 0.015375 9.6737 0.999878 -80.37 0.999878 -80.37 0.015375 9.5987
8.68270000 0.015372 9.6725 0.999878 -80.38 0.999878 -80.38 0.015372 9.5977
8.68280000 0.015369 9.6713 0.999878 -80.38 0.999878 -80.38 0.015369 9.5967
8.68290000 0.015365 9.6701 0.999878 -80.38 0.999878 -80.38 0.015365 9.5956
8.68300000 0.015362 9.6690 0.999878 -80.38 0.999878 -80.38 0.015362 9.5946
8.68310000 0.015359 9.6678 0.999878 -80.38 0.999878 -80.38 0.015359 9.5935
8.68320000 0.015356 9.6666 0.999878 -80.38 0.999878 -80.38 0.015356 9.5925
8.68330000 0.015353 9.6654 0.999878 -80.38 0.999878 -80.38 0.015353 9.5915
8.68340000 0.015350 9.6642 0.999878 -80.38 0.999878 -80.38 0.015350 9.5904
8.68350000 0.015347 9.6630 0.999878 -80.38 0.999878 -80.38 0.015347 9.5894
8.68360000 0.015343 9.6619 0.999878 -80.39 0.999878 -80.39 0.015343 9.5883
8.68370000 0.015340 9.6607 0.999878 -80.39 0.999878 -80.39 0.015340 9.5873
8.68380000 0.015337 9.6595 0.999878 -80.39 0.999878 -80.39 0.015337 9.5863
8.68390000 0.015334 9.6583 0.999879 -80.39 0.999879 -80.39 0.015334 9.5852
8.68400000 0.015331 9.6571 0.999879 -80.39 0.999879 -80.39 0.015331 9.5842
8.68410000 0.015328 9.6559 0.999879 -80.39 0.999879 -80.39 0.015328 9.5831
8.68420000 0.015325 9.6547 0.999879 -80.39 0.999879 -80.39 0.015325 9.5821
8.68430000 0.015321 9.6535 0.999879 -80.39 0.999879 -80.39 0.015321 9.5811
8.68440000 0.015318 9.6524 0.999879 -80.39 0.999879 -80.39 0.015318 9.5800
8.68450000 0.015315 9.6512 0.999879 -80.40 0.999879 -80.40 0.015315 9.5790
8.68460000 0.015312 9.6500 0.999879 -80.40 0.999879 -80.40 0.015312 9.5779
8.68470000 0.015309 9.6488 0.999879 -80.40 0.999879 -80.40 0.015309 9.5769
8.68480000 0.015305 9.6476 0.999879 -80.40 0.999879 -80.40 0.015305 9.5759
8.68490000 0.015302 9.6464 0.999879 -80.40 0.999879 -80.40 0.015302 9.5748
8.68500000 0.015299 9.6452 0.999879 -80.40 0.999879 -80.40 0.015299 9.5738
8.68510000 0.015296 9.6440 0.999879 -80.40 0.999879 -80.40 0.015296 9.5727
8.68520000 0.015293 9.6428 0.999879 -80.40 0.999879 -80.40 0.015293 9.5717
8.68530000 0.015289 9.6417 0.999879 -80.40 0.999879 -80.40 0.015289 9.5707
8.68540000 0.015286 9.6405 0.999879 -80.41 0.999879 -80.41 0.015286 9.5696
8.68550000 0.015283 9.6393 0.999879 -80.41 0.999879 -80.41 0.015283 9.5686
8.68560000 0.015280 9.6381 0.999879 -80.41 0.999879 -80.41 0.015280 9.5675
8.68570000 0.015277 9.6369 0.999879 -80.41 0.999879 -80.41 0.015277 9.5665
8.68580000 0.015273 9.6357 0.999879 -80.41 0.999879 -80.41 0.015273 9.5655
8.68590000 0.015270 9.6345 0.999879 -80.41 0.999879 -80.41 0.015270 9.5644
8.68600000 0.015267 9.6333 0.999880 -80.41 0.999880 -80.41 0.015267 9.5634
8.68610000 0.015264 9.6321 0.999880 -80.41 0.999880 -80.41 0.015264 9.5623
8.68620000 0.015261 9.6309 0.999880 -80.41 0.999880 -80.41 0.015261 9.5613
8.68630000 0.015257 9.6297 0.999880 -80.42 0.999880 -80.42 0.015257 9.5602
8.68640000 0.015254 9.6285 0.999880 -80.42 0.999880 -80.42 0.015254 9.5592
8.68650000 0.015251 9.6273 0.999880 -80.42 0.999880 -80.42 0.015251 9.5582
8.68660000 0.015248 9.6262 0.999880 -80.42 0.999880 -80.42 0.015248 9.5571
8.68670000 0.015244 9.6250 0.999880 -80.42 0.999880 -80.42 0.015244 9.5561
8.68680000 0.015241 9.6238 0.999880 -80.42 0.999880 -80.42 0.015241 9.5550
8.68690000 0.015238 9.6226 0.999880 -80.42 0.999880 -80.42 0.015238 9.5540
8.68700000 0.015235 9.6214 0.999880 -80.42 0.999880 -80.42 0.015235 9.5530
8.68710000 0.015231 9.6202 0.999880 -80.42 0.999880 -80.42 0.015231 9.5519
8.68720000 0.015228 9.6190 0.999880 -80.43 0.999880 -80.43 0.015228 9.5509
8.68730000 0.015225 9.6178 0.999880 -80.43 0.999880 -80.43 0.015225 9.5498
8.68740000 0.015222 9.6166 0.999880 -80.43 0.999880 -80.43 0.015222 9.5488
8.68750000 0.015218 9.6154 0.999880 -80.43 0.999880 -80.43 0.015218 9.5477
8.68760000 0.015215 9.6142 0.999880 -80.43 0.999880 -80.43 0.015215 9.5467
8.68770000 0.015212 9.6130 0.999880 -80.43 0.999880 -80.43 0.015212 9.5457
8.68780000 0.015209 9.6118 0.999880 -80.43 0.999880 -80.43 0.015209 9.5446
8.68790000 0.015205 9.6106 0.999880 -80.43 0.999880 -80.43 0.015205 9.5436
8.68800000 0.015202 9.6094 0.999881 -80.43 0.999881 -80.43 0.015202 9.5425
8.68810000 0.015199 9.6082 0.999881 -80.44 0.999881 -80.44 0.015199 9.5415
8.68820000 0.015195 9.6070 0.999881 -80.44 0.999881 -80.44 0.015195 9.5405
8.68830000 0.015192 9.6058 0.999881 -80.44 0.999881 -80.44 0.015192 9.5394
8.68840000 0.015189 9.6046 0.999881 -80.44 0.999881 -80.44 0.015189 9.5384
8.68850000 0.015186 9.6034 0.999881 -80.44 0.999881 -80.44 0.015186 9.5373
8.68860000 0.015182 9.6022 0.999881 -80.44 0.999881 -80.44 0.015182 9.5363
8.68870000 0.015179 9.6010 0.999881 -80.44 0.999881 -80.44 0.015179 9.5352
8.68880000 0.015176 9.5998 0.999881 -80.44 0.999881 -80.44 0.015176 9.5342
8.68890000 0.015172 9.5986 0.999881 -80.44 0.999881 -80.44 0.015172 9.5332
8.68900000 0.015169 9.5974 0.999881 -80.45 0.999881 -80.45 0.015169 9.5321
8.68910000 0.015166 9.5962 0.999881 -80.45 0.999881 -80.45 0.015166 9.5311
8.68920000 0.015162 9.5950 0.999881 -80.45 0.999881 -80.45 0.015162 9.5300