! Sonnet Data File
! From: emgraph Version : 16.52
! From Project: transmon_trial
! Data is De-embedded 
! Data File Written: 10/20/2017 15:56:55
!< HDATE 10/20/2017 14:38:19
!< MDATE 10/20/2017 14:38:19
!< PARAMS
!< Lj = 15.24
!< Gap = 6.0
!< Width = 40.0
!< Airgap = 24.0
!< Pwidth = 2000.0
!< END PARAMS
# GHZ S MA R 51.00000
8.75000000 0.185873 179.51 0.982508 -90.57 0.982508 -90.57 0.185873 179.31
!< P1 F=8.75 Eeff=(6.44260211 -3.0756e-5) Z0=(50.4785887 1.09314e-4) R=0.0 C=0.0 
!< P2 F=8.75 Eeff=(6.44260211 -3.0756e-5) Z0=(50.4785887 1.09314e-4) R=0.0 C=0.0 
8.75005000 0.186044 179.50 0.982476 -90.58 0.982476 -90.58 0.186043 179.30
8.75010000 0.186214 179.49 0.982443 -90.59 0.982443 -90.59 0.186214 179.29
8.75015000 0.186385 179.48 0.982411 -90.60 0.982411 -90.60 0.186385 179.28
8.75020000 0.186556 179.47 0.982378 -90.61 0.982378 -90.61 0.186556 179.27
8.75025000 0.186728 179.46 0.982345 -90.62 0.982345 -90.62 0.186728 179.26
8.75030000 0.186900 179.45 0.982313 -90.63 0.982313 -90.63 0.186900 179.25
8.75035000 0.187072 179.44 0.982280 -90.64 0.982280 -90.64 0.187072 179.24
8.75040000 0.187244 179.43 0.982247 -90.65 0.982247 -90.65 0.187244 179.23
8.75045000 0.187417 179.42 0.982214 -90.66 0.982214 -90.66 0.187417 179.22
8.75050000 0.187590 179.41 0.982180 -90.67 0.982180 -90.67 0.187590 179.21
8.75055000 0.187764 179.40 0.982147 -90.68 0.982147 -90.68 0.187764 179.20
8.75060000 0.187938 179.39 0.982114 -90.69 0.982114 -90.69 0.187938 179.19
8.75065000 0.188112 179.38 0.982080 -90.70 0.982080 -90.70 0.188112 179.18
8.75070000 0.188286 179.37 0.982047 -90.71 0.982047 -90.71 0.188286 179.17
8.75075000 0.188461 179.36 0.982013 -90.72 0.982013 -90.72 0.188461 179.15
8.75080000 0.188636 179.35 0.981979 -90.74 0.981979 -90.74 0.188636 179.14
8.75085000 0.188812 179.33 0.981946 -90.75 0.981946 -90.75 0.188812 179.13
8.75090000 0.188988 179.32 0.981912 -90.76 0.981912 -90.76 0.188987 179.12
8.75095000 0.189164 179.31 0.981878 -90.77 0.981878 -90.77 0.189163 179.11
8.75100000 0.189340 179.30 0.981843 -90.78 0.981843 -90.78 0.189340 179.10
8.75105000 0.189517 179.29 0.981809 -90.79 0.981809 -90.79 0.189517 179.09
8.75110000 0.189694 179.28 0.981775 -90.80 0.981775 -90.80 0.189694 179.08
8.75115000 0.189871 179.27 0.981740 -90.81 0.981740 -90.81 0.189871 179.07
8.75120000 0.190049 179.26 0.981706 -90.82 0.981706 -90.82 0.190049 179.06
8.75125000 0.190227 179.25 0.981671 -90.83 0.981671 -90.83 0.190227 179.05
8.75130000 0.190406 179.24 0.981637 -90.84 0.981637 -90.84 0.190406 179.03
8.75135000 0.190585 179.23 0.981602 -90.85 0.981602 -90.85 0.190584 179.02
8.75140000 0.190764 179.22 0.981567 -90.86 0.981567 -90.86 0.190764 179.01
8.75145000 0.190943 179.21 0.981532 -90.88 0.981532 -90.88 0.190943 179.00
8.75150000 0.191123 179.20 0.981497 -90.89 0.981497 -90.89 0.191123 178.99
8.75155000 0.191303 179.18 0.981461 -90.90 0.981461 -90.90 0.191303 178.98
8.75160000 0.191484 179.17 0.981426 -90.91 0.981426 -90.91 0.191484 178.97
8.75165000 0.191665 179.16 0.981391 -90.92 0.981391 -90.92 0.191664 178.96
8.75170000 0.191846 179.15 0.981355 -90.93 0.981355 -90.93 0.191846 178.95
8.75175000 0.192027 179.14 0.981319 -90.94 0.981319 -90.94 0.192027 178.94
8.75180000 0.192209 179.13 0.981284 -90.95 0.981284 -90.95 0.192209 178.92
8.75185000 0.192392 179.12 0.981248 -90.96 0.981248 -90.96 0.192391 178.91
8.75190000 0.192574 179.11 0.981212 -90.98 0.981212 -90.98 0.192574 178.90
8.75195000 0.192757 179.10 0.981176 -90.99 0.981176 -90.99 0.192757 178.89
8.75200000 0.192940 179.09 0.981140 -91.00 0.981140 -91.00 0.192940 178.88
8.75205000 0.193124 179.07 0.981103 -91.01 0.981103 -91.01 0.193124 178.87
8.75210000 0.193308 179.06 0.981067 -91.02 0.981067 -91.02 0.193308 178.86
8.75215000 0.193492 179.05 0.981031 -91.03 0.981031 -91.03 0.193492 178.84
8.75220000 0.193677 179.04 0.980994 -91.04 0.980994 -91.04 0.193677 178.83
8.75225000 0.193862 179.03 0.980957 -91.05 0.980957 -91.05 0.193862 178.82
8.75230000 0.194048 179.02 0.980921 -91.06 0.980921 -91.06 0.194047 178.81
8.75235000 0.194233 179.01 0.980884 -91.08 0.980884 -91.08 0.194233 178.80
8.75240000 0.194420 179.00 0.980847 -91.09 0.980847 -91.09 0.194419 178.79
8.75245000 0.194606 178.98 0.980810 -91.10 0.980810 -91.10 0.194606 178.78
8.75250000 0.194793 178.97 0.980772 -91.11 0.980772 -91.11 0.194793 178.76
8.75255000 0.194980 178.96 0.980735 -91.12 0.980735 -91.12 0.194980 178.75
8.75260000 0.195168 178.95 0.980698 -91.13 0.980698 -91.13 0.195167 178.74
8.75265000 0.195356 178.94 0.980660 -91.14 0.980660 -91.14 0.195355 178.73
8.75270000 0.195544 178.93 0.980622 -91.16 0.980622 -91.16 0.195544 178.72
8.75275000 0.195733 178.92 0.980584 -91.17 0.980584 -91.17 0.195732 178.71
8.75280000 0.195922 178.90 0.980547 -91.18 0.980547 -91.18 0.195921 178.70
8.75285000 0.196111 178.89 0.980509 -91.19 0.980509 -91.19 0.196111 178.68
8.75290000 0.196301 178.88 0.980470 -91.20 0.980470 -91.20 0.196301 178.67
8.75295000 0.196491 178.87 0.980432 -91.21 0.980432 -91.21 0.196491 178.66
8.75300000 0.196682 178.86 0.980394 -91.23 0.980394 -91.23 0.196681 178.65
8.75305000 0.196873 178.85 0.980355 -91.24 0.980355 -91.24 0.196872 178.64
8.75310000 0.197064 178.84 0.980317 -91.25 0.980317 -91.25 0.197064 178.63
8.75315000 0.197255 178.82 0.980278 -91.26 0.980278 -91.26 0.197255 178.61
8.75320000 0.197448 178.81 0.980239 -91.27 0.980239 -91.27 0.197447 178.60
8.75325000 0.197640 178.80 0.980200 -91.28 0.980200 -91.28 0.197640 178.59
8.75330000 0.197833 178.79 0.980161 -91.30 0.980161 -91.30 0.197832 178.58
8.75335000 0.198026 178.78 0.980122 -91.31 0.980122 -91.31 0.198026 178.57
8.75340000 0.198219 178.77 0.980083 -91.32 0.980083 -91.32 0.198219 178.55
8.75345000 0.198413 178.75 0.980044 -91.33 0.980044 -91.33 0.198413 178.54
8.75350000 0.198608 178.74 0.980004 -91.34 0.980004 -91.34 0.198607 178.53
8.75355000 0.198802 178.73 0.979964 -91.35 0.979964 -91.35 0.198802 178.52
8.75360000 0.198997 178.72 0.979925 -91.37 0.979925 -91.37 0.198997 178.51
8.75365000 0.199193 178.71 0.979885 -91.38 0.979885 -91.38 0.199193 178.49
8.75370000 0.199389 178.70 0.979845 -91.39 0.979845 -91.39 0.199389 178.48
8.75375000 0.199585 178.68 0.979805 -91.40 0.979805 -91.40 0.199585 178.47
8.75380000 0.199782 178.67 0.979765 -91.41 0.979765 -91.41 0.199781 178.46
8.75385000 0.199979 178.66 0.979724 -91.43 0.979724 -91.43 0.199978 178.45
8.75390000 0.200176 178.65 0.979684 -91.44 0.979684 -91.44 0.200176 178.43
8.75395000 0.200374 178.64 0.979643 -91.45 0.979643 -91.45 0.200374 178.42
8.75400000 0.200572 178.62 0.979602 -91.46 0.979602 -91.46 0.200572 178.41
8.75405000 0.200771 178.61 0.979562 -91.47 0.979562 -91.47 0.200770 178.40
8.75410000 0.200970 178.60 0.979521 -91.49 0.979521 -91.49 0.200969 178.39
8.75415000 0.201169 178.59 0.979480 -91.50 0.979480 -91.50 0.201169 178.37
8.75420000 0.201369 178.58 0.979438 -91.51 0.979438 -91.51 0.201369 178.36
8.75425000 0.201569 178.56 0.979397 -91.52 0.979397 -91.52 0.201569 178.35
8.75430000 0.201770 178.55 0.979356 -91.53 0.979356 -91.53 0.201769 178.34
8.75435000 0.201971 178.54 0.979314 -91.55 0.979314 -91.55 0.201970 178.32
8.75440000 0.202172 178.53 0.979272 -91.56 0.979272 -91.56 0.202172 178.31
8.75445000 0.202374 178.52 0.979230 -91.57 0.979230 -91.57 0.202374 178.30
8.75450000 0.202576 178.50 0.979189 -91.58 0.979189 -91.58 0.202576 178.29
8.75455000 0.202779 178.49 0.979146 -91.60 0.979146 -91.60 0.202779 178.27
8.75460000 0.202982 178.48 0.979104 -91.61 0.979104 -91.61 0.202982 178.26
8.75465000 0.203185 178.47 0.979062 -91.62 0.979062 -91.62 0.203185 178.25
8.75470000 0.203389 178.45 0.979019 -91.63 0.979019 -91.63 0.203389 178.24
8.75475000 0.203593 178.44 0.978977 -91.65 0.978977 -91.65 0.203593 178.22
8.75480000 0.203798 178.43 0.978934 -91.66 0.978934 -91.66 0.203798 178.21
8.75485000 0.204003 178.42 0.978891 -91.67 0.978891 -91.67 0.204003 178.20
8.75490000 0.204209 178.40 0.978848 -91.68 0.978848 -91.68 0.204208 178.19
8.75495000 0.204414 178.39 0.978805 -91.70 0.978805 -91.70 0.204414 178.17
8.75500000 0.204621 178.38 0.978762 -91.71 0.978762 -91.71 0.204621 178.16
8.75505000 0.204828 178.37 0.978718 -91.72 0.978718 -91.72 0.204827 178.15
8.75510000 0.205035 178.35 0.978675 -91.73 0.978675 -91.73 0.205035 178.14
8.75515000 0.205242 178.34 0.978631 -91.75 0.978631 -91.75 0.205242 178.12
8.75520000 0.205450 178.33 0.978587 -91.76 0.978587 -91.76 0.205450 178.11
8.75525000 0.205659 178.32 0.978543 -91.77 0.978543 -91.77 0.205659 178.10
8.75530000 0.205868 178.30 0.978499 -91.78 0.978499 -91.78 0.205867 178.08
8.75535000 0.206077 178.29 0.978455 -91.80 0.978455 -91.80 0.206077 178.07
8.75540000 0.206287 178.28 0.978411 -91.81 0.978411 -91.81 0.206286 178.06
8.75545000 0.206497 178.27 0.978366 -91.82 0.978366 -91.82 0.206497 178.05
8.75550000 0.206707 178.25 0.978322 -91.83 0.978322 -91.83 0.206707 178.03
8.75555000 0.206919 178.24 0.978277 -91.85 0.978277 -91.85 0.206918 178.02
8.75560000 0.207130 178.23 0.978232 -91.86 0.978232 -91.86 0.207130 178.01
8.75565000 0.207342 178.22 0.978187 -91.87 0.978187 -91.87 0.207342 177.99
8.75570000 0.207554 178.20 0.978142 -91.89 0.978142 -91.89 0.207554 177.98
8.75575000 0.207767 178.19 0.978096 -91.90 0.978096 -91.90 0.207767 177.97
8.75580000 0.207980 178.18 0.978051 -91.91 0.978051 -91.91 0.207980 177.96
8.75585000 0.208194 178.16 0.978005 -91.92 0.978005 -91.92 0.208194 177.94
8.75590000 0.208408 178.15 0.977959 -91.94 0.977959 -91.94 0.208408 177.93
8.75595000 0.208622 178.14 0.977914 -91.95 0.977914 -91.95 0.208622 177.92
8.75600000 0.208837 178.13 0.977867 -91.96 0.977867 -91.96 0.208837 177.90
8.75605000 0.209053 178.11 0.977821 -91.98 0.977821 -91.98 0.209053 177.89
8.75610000 0.209269 178.10 0.977775 -91.99 0.977775 -91.99 0.209268 177.88
8.75615000 0.209485 178.09 0.977728 -92.00 0.977728 -92.00 0.209485 177.86
8.75620000 0.209702 178.07 0.977682 -92.02 0.977682 -92.02 0.209701 177.85
8.75625000 0.209919 178.06 0.977635 -92.03 0.977635 -92.03 0.209919 177.84
8.75630000 0.210137 178.05 0.977588 -92.04 0.977588 -92.04 0.210136 177.82
8.75635000 0.210355 178.03 0.977541 -92.06 0.977541 -92.06 0.210354 177.81
8.75640000 0.210573 178.02 0.977494 -92.07 0.977494 -92.07 0.210573 177.80
8.75645000 0.210792 178.01 0.977446 -92.08 0.977446 -92.08 0.210792 177.78
8.75650000 0.211012 177.99 0.977399 -92.10 0.977399 -92.10 0.211011 177.77
8.75655000 0.211232 177.98 0.977351 -92.11 0.977351 -92.11 0.211231 177.76
8.75660000 0.211452 177.97 0.977303 -92.12 0.977303 -92.12 0.211452 177.74
8.75665000 0.211673 177.95 0.977255 -92.14 0.977255 -92.14 0.211673 177.73
8.75670000 0.211894 177.94 0.977207 -92.15 0.977207 -92.15 0.211894 177.72
8.75675000 0.212116 177.93 0.977159 -92.16 0.977159 -92.16 0.212116 177.70
8.75680000 0.212338 177.91 0.977110 -92.18 0.977110 -92.18 0.212338 177.69
8.75685000 0.212561 177.90 0.977062 -92.19 0.977062 -92.19 0.212561 177.67
8.75690000 0.212784 177.89 0.977013 -92.20 0.977013 -92.20 0.212784 177.66
8.75695000 0.213008 177.87 0.976964 -92.22 0.976964 -92.22 0.213008 177.65
8.75700000 0.213232 177.86 0.976915 -92.23 0.976915 -92.23 0.213232 177.63
8.75705000 0.213457 177.85 0.976866 -92.24 0.976866 -92.24 0.213456 177.62
8.75710000 0.213682 177.83 0.976816 -92.26 0.976816 -92.26 0.213682 177.61
8.75715000 0.213907 177.82 0.976767 -92.27 0.976767 -92.27 0.213907 177.59
8.75720000 0.214133 177.81 0.976717 -92.29 0.976717 -92.29 0.214133 177.58
8.75725000 0.214360 177.79 0.976667 -92.30 0.976667 -92.30 0.214360 177.56
8.75730000 0.214587 177.78 0.976617 -92.31 0.976617 -92.31 0.214587 177.55
8.75735000 0.214814 177.76 0.976567 -92.33 0.976567 -92.33 0.214814 177.54
8.75740000 0.215042 177.75 0.976517 -92.34 0.976517 -92.34 0.215042 177.52
8.75745000 0.215271 177.74 0.976466 -92.35 0.976466 -92.35 0.215271 177.51
8.75750000 0.215500 177.72 0.976416 -92.37 0.976416 -92.37 0.215499 177.49
8.75755000 0.215729 177.71 0.976365 -92.38 0.976365 -92.38 0.215729 177.48
8.75760000 0.215959 177.70 0.976314 -92.40 0.976314 -92.40 0.215959 177.47
8.75765000 0.216189 177.68 0.976263 -92.41 0.976263 -92.41 0.216189 177.45
8.75770000 0.216420 177.67 0.976211 -92.42 0.976211 -92.42 0.216420 177.44
8.75775000 0.216652 177.65 0.976160 -92.44 0.976160 -92.44 0.216652 177.42
8.75780000 0.216884 177.64 0.976108 -92.45 0.976108 -92.45 0.216883 177.41
8.75785000 0.217116 177.63 0.976056 -92.47 0.976056 -92.47 0.217116 177.40
8.75790000 0.217349 177.61 0.976004 -92.48 0.976004 -92.48 0.217349 177.38
8.75795000 0.217582 177.60 0.975952 -92.49 0.975952 -92.49 0.217582 177.37
8.75800000 0.217816 177.58 0.975900 -92.51 0.975900 -92.51 0.217816 177.35
8.75805000 0.218051 177.57 0.975847 -92.52 0.975847 -92.52 0.218050 177.34
8.75810000 0.218286 177.55 0.975794 -92.54 0.975794 -92.54 0.218285 177.32
8.75815000 0.218521 177.54 0.975741 -92.55 0.975741 -92.55 0.218521 177.31
8.75820000 0.218757 177.53 0.975688 -92.57 0.975688 -92.57 0.218757 177.29
8.75825000 0.218993 177.51 0.975635 -92.58 0.975635 -92.58 0.218993 177.28
8.75830000 0.219230 177.50 0.975582 -92.59 0.975582 -92.59 0.219230 177.27
8.75835000 0.219468 177.48 0.975528 -92.61 0.975528 -92.61 0.219467 177.25
8.75840000 0.219706 177.47 0.975474 -92.62 0.975474 -92.62 0.219705 177.24
8.75845000 0.219944 177.45 0.975420 -92.64 0.975420 -92.64 0.219944 177.22
8.75850000 0.220183 177.44 0.975366 -92.65 0.975366 -92.65 0.220183 177.21
8.75855000 0.220423 177.43 0.975312 -92.67 0.975312 -92.67 0.220422 177.19
8.75860000 0.220663 177.41 0.975257 -92.68 0.975257 -92.68 0.220662 177.18
8.75865000 0.220903 177.40 0.975203 -92.70 0.975203 -92.70 0.220903 177.16
8.75870000 0.221144 177.38 0.975148 -92.71 0.975148 -92.71 0.221144 177.15
8.75875000 0.221386 177.37 0.975093 -92.73 0.975093 -92.73 0.221386 177.13
8.75880000 0.221628 177.35 0.975038 -92.74 0.975038 -92.74 0.221628 177.12
8.75885000 0.221871 177.34 0.974982 -92.75 0.974982 -92.75 0.221871 177.10
8.75890000 0.222114 177.32 0.974927 -92.77 0.974927 -92.77 0.222114 177.09
8.75895000 0.222358 177.31 0.974871 -92.78 0.974871 -92.78 0.222358 177.07
8.75900000 0.222602 177.29 0.974815 -92.80 0.974815 -92.80 0.222602 177.06
8.75905000 0.222847 177.28 0.974759 -92.81 0.974759 -92.81 0.222847 177.04
8.75910000 0.223092 177.26 0.974703 -92.83 0.974703 -92.83 0.223092 177.03
8.75915000 0.223338 177.25 0.974646 -92.84 0.974646 -92.84 0.223338 177.01
8.75920000 0.223585 177.24 0.974589 -92.86 0.974589 -92.86 0.223584 177.00
8.75925000 0.223832 177.22 0.974532 -92.87 0.974532 -92.87 0.223831 176.98
8.75930000 0.224079 177.21 0.974475 -92.89 0.974475 -92.89 0.224079 176.97
8.75935000 0.224327 177.19 0.974418 -92.90 0.974418 -92.90 0.224327 176.95
8.75940000 0.224576 177.18 0.974361 -92.92 0.974361 -92.92 0.224576 176.94
8.75945000 0.224825 177.16 0.974303 -92.93 0.974303 -92.93 0.224825 176.92
8.75950000 0.225075 177.15 0.974245 -92.95 0.974245 -92.95 0.225074 176.91
8.75955000 0.225325 177.13 0.974187 -92.96 0.974187 -92.96 0.225325 176.89
8.75960000 0.225576 177.11 0.974129 -92.98 0.974129 -92.98 0.225576 176.88
8.75965000 0.225827 177.10 0.974070 -92.99 0.974070 -92.99 0.225827 176.86
8.75970000 0.226079 177.08 0.974012 -93.01 0.974012 -93.01 0.226079 176.85
8.75975000 0.226332 177.07 0.973953 -93.03 0.973953 -93.03 0.226331 176.83
8.75980000 0.226585 177.05 0.973894 -93.04 0.973894 -93.04 0.226584 176.82
8.75985000 0.226838 177.04 0.973834 -93.06 0.973834 -93.06 0.226838 176.80
8.75990000 0.227093 177.02 0.973775 -93.07 0.973775 -93.07 0.227092 176.78
8.75995000 0.227347 177.01 0.973715 -93.09 0.973715 -93.09 0.227347 176.77
8.76000000 0.227603 176.99 0.973655 -93.10 0.973655 -93.10 0.227602 176.75
8.76005000 0.227859 176.98 0.973595 -93.12 0.973595 -93.12 0.227858 176.74
8.76010000 0.228115 176.96 0.973535 -93.13 0.973535 -93.13 0.228115 176.72
8.76015000 0.228372 176.95 0.973475 -93.15 0.973475 -93.15 0.228372 176.71
8.76020000 0.228630 176.93 0.973414 -93.16 0.973414 -93.16 0.228630 176.69
8.76025000 0.228888 176.92 0.973353 -93.18 0.973353 -93.18 0.228888 176.68
8.76030000 0.229147 176.90 0.973292 -93.20 0.973292 -93.20 0.229147 176.66
8.76035000 0.229406 176.88 0.973230 -93.21 0.973230 -93.21 0.229406 176.64
8.76040000 0.229666 176.87 0.973169 -93.23 0.973169 -93.23 0.229666 176.63
8.76045000 0.229927 176.85 0.973107 -93.24 0.973107 -93.24 0.229927 176.61
8.76050000 0.230188 176.84 0.973045 -93.26 0.973045 -93.26 0.230188 176.60
8.76055000 0.230450 176.82 0.972983 -93.27 0.972983 -93.27 0.230450 176.58
8.76060000 0.230712 176.81 0.972921 -93.29 0.972921 -93.29 0.230712 176.56
8.76065000 0.230975 176.79 0.972858 -93.31 0.972858 -93.31 0.230975 176.55
8.76070000 0.231239 176.77 0.972795 -93.32 0.972795 -93.32 0.231238 176.53
8.76075000 0.231503 176.76 0.972732 -93.34 0.972732 -93.34 0.231503 176.52
8.76080000 0.231768 176.74 0.972669 -93.35 0.972669 -93.35 0.231767 176.50
8.76085000 0.232033 176.73 0.972605 -93.37 0.972605 -93.37 0.232033 176.48
8.76090000 0.232299 176.71 0.972542 -93.39 0.972542 -93.39 0.232299 176.47
8.76095000 0.232566 176.69 0.972478 -93.40 0.972478 -93.40 0.232565 176.45
8.76100000 0.232833 176.68 0.972413 -93.42 0.972413 -93.42 0.232832 176.43
8.76105000 0.233100 176.66 0.972349 -93.44 0.972349 -93.44 0.233100 176.42
8.76110000 0.233369 176.64 0.972284 -93.45 0.972284 -93.45 0.233369 176.40
8.76115000 0.233638 176.63 0.972220 -93.47 0.972220 -93.47 0.233638 176.38
8.76120000 0.233908 176.61 0.972155 -93.48 0.972155 -93.48 0.233907 176.37
8.76125000 0.234178 176.60 0.972089 -93.50 0.972089 -93.50 0.234178 176.35
8.76130000 0.234449 176.58 0.972024 -93.52 0.972024 -93.52 0.234448 176.34
8.76135000 0.234720 176.56 0.971958 -93.53 0.971958 -93.53 0.234720 176.32
8.76140000 0.234992 176.55 0.971892 -93.55 0.971892 -93.55 0.234992 176.30
8.76145000 0.235265 176.53 0.971826 -93.57 0.971826 -93.57 0.235265 176.29
8.76150000 0.235538 176.51 0.971759 -93.58 0.971759 -93.58 0.235538 176.27
8.76155000 0.235812 176.50 0.971693 -93.60 0.971693 -93.60 0.235812 176.25
8.76160000 0.236087 176.48 0.971626 -93.62 0.971626 -93.62 0.236087 176.24
8.76165000 0.236362 176.46 0.971558 -93.63 0.971558 -93.63 0.236362 176.22
8.76170000 0.236638 176.45 0.971491 -93.65 0.971491 -93.65 0.236638 176.20
8.76175000 0.236915 176.43 0.971423 -93.67 0.971423 -93.67 0.236915 176.18
8.76180000 0.237192 176.41 0.971355 -93.68 0.971355 -93.68 0.237192 176.17
8.76185000 0.237470 176.40 0.971287 -93.70 0.971287 -93.70 0.237470 176.15
8.76190000 0.237749 176.38 0.971219 -93.72 0.971219 -93.72 0.237748 176.13
8.76195000 0.238028 176.36 0.971150 -93.73 0.971150 -93.73 0.238027 176.12
8.76200000 0.238307 176.35 0.971081 -93.75 0.971081 -93.75 0.238307 176.10
8.76205000 0.238588 176.33 0.971012 -93.77 0.971012 -93.77 0.238588 176.08
8.76210000 0.238869 176.31 0.970943 -93.79 0.970943 -93.79 0.238869 176.07
8.76215000 0.239151 176.30 0.970873 -93.80 0.970873 -93.80 0.239151 176.05
8.76220000 0.239433 176.28 0.970803 -93.82 0.970803 -93.82 0.239433 176.03
8.76225000 0.239716 176.26 0.970733 -93.84 0.970733 -93.84 0.239716 176.01
8.76230000 0.240000 176.24 0.970663 -93.85 0.970663 -93.85 0.240000 176.00
8.76235000 0.240285 176.23 0.970592 -93.87 0.970592 -93.87 0.240284 175.98
8.76240000 0.240570 176.21 0.970521 -93.89 0.970521 -93.89 0.240569 175.96
8.76245000 0.240856 176.19 0.970450 -93.91 0.970450 -93.91 0.240855 175.94
8.76250000 0.241142 176.18 0.970379 -93.92 0.970379 -93.92 0.241142 175.93
8.76255000 0.241429 176.16 0.970307 -93.94 0.970307 -93.94 0.241429 175.91
8.76260000 0.241717 176.14 0.970235 -93.96 0.970235 -93.96 0.241717 175.89
8.76265000 0.242005 176.12 0.970163 -93.98 0.970163 -93.98 0.242005 175.87
8.76270000 0.242295 176.11 0.970091 -93.99 0.970091 -93.99 0.242294 175.86
8.76275000 0.242584 176.09 0.970018 -94.01 0.970018 -94.01 0.242584 175.84
8.76280000 0.242875 176.07 0.969945 -94.03 0.969945 -94.03 0.242875 175.82
8.76285000 0.243166 176.05 0.969872 -94.05 0.969872 -94.05 0.243166 175.80
8.76290000 0.243458 176.04 0.969798 -94.06 0.969798 -94.06 0.243458 175.78
8.76295000 0.243751 176.02 0.969724 -94.08 0.969724 -94.08 0.243751 175.77
8.76300000 0.244044 176.00 0.969650 -94.10 0.969650 -94.10 0.244044 175.75
8.76305000 0.244338 175.98 0.969576 -94.12 0.969576 -94.12 0.244338 175.73
8.76310000 0.244633 175.96 0.969501 -94.13 0.969501 -94.13 0.244633 175.71
8.76315000 0.244928 175.95 0.969427 -94.15 0.969427 -94.15 0.244928 175.69
8.76320000 0.245225 175.93 0.969351 -94.17 0.969351 -94.17 0.245224 175.68
8.76325000 0.245521 175.91 0.969276 -94.19 0.969276 -94.19 0.245521 175.66
8.76330000 0.245819 175.89 0.969200 -94.21 0.969200 -94.21 0.245819 175.64
8.76335000 0.246117 175.87 0.969124 -94.22 0.969124 -94.22 0.246117 175.62
8.76340000 0.246416 175.86 0.969048 -94.24 0.969048 -94.24 0.246416 175.60
8.76345000 0.246716 175.84 0.968971 -94.26 0.968971 -94.26 0.246716 175.59
8.76350000 0.247016 175.82 0.968895 -94.28 0.968895 -94.28 0.247016 175.57
8.76355000 0.247318 175.80 0.968818 -94.30 0.968818 -94.30 0.247317 175.55
8.76360000 0.247620 175.78 0.968740 -94.32 0.968740 -94.32 0.247619 175.53
8.76365000 0.247922 175.77 0.968662 -94.33 0.968662 -94.33 0.247922 175.51
8.76370000 0.248226 175.75 0.968584 -94.35 0.968584 -94.35 0.248225 175.49
8.76375000 0.248530 175.73 0.968506 -94.37 0.968506 -94.37 0.248529 175.47
8.76380000 0.248835 175.71 0.968428 -94.39 0.968428 -94.39 0.248834 175.46
8.76385000 0.249140 175.69 0.968349 -94.41 0.968349 -94.41 0.249140 175.44
8.76390000 0.249446 175.67 0.968270 -94.43 0.968270 -94.43 0.249446 175.42
8.76395000 0.249753 175.66 0.968190 -94.45 0.968190 -94.45 0.249753 175.40
8.76400000 0.250061 175.64 0.968110 -94.46 0.968110 -94.46 0.250061 175.38
8.76405000 0.250370 175.62 0.968030 -94.48 0.968030 -94.48 0.250370 175.36
8.76410000 0.250679 175.60 0.967950 -94.50 0.967950 -94.50 0.250679 175.34
8.76415000 0.250989 175.58 0.967869 -94.52 0.967869 -94.52 0.250989 175.32
8.76420000 0.251300 175.56 0.967788 -94.54 0.967788 -94.54 0.251300 175.31
8.76425000 0.251612 175.54 0.967707 -94.56 0.967707 -94.56 0.251611 175.29
8.76430000 0.251924 175.52 0.967626 -94.58 0.967626 -94.58 0.251924 175.27
8.76435000 0.252237 175.50 0.967544 -94.60 0.967544 -94.60 0.252237 175.25
8.76440000 0.252551 175.49 0.967461 -94.62 0.967461 -94.62 0.252551 175.23
8.76445000 0.252866 175.47 0.967379 -94.63 0.967379 -94.63 0.252866 175.21
8.76450000 0.253181 175.45 0.967296 -94.65 0.967296 -94.65 0.253181 175.19
8.76455000 0.253498 175.43 0.967213 -94.67 0.967213 -94.67 0.253497 175.17
8.76460000 0.253815 175.41 0.967130 -94.69 0.967130 -94.69 0.253814 175.15
8.76465000 0.254132 175.39 0.967046 -94.71 0.967046 -94.71 0.254132 175.13
8.76470000 0.254451 175.37 0.966962 -94.73 0.966962 -94.73 0.254451 175.11
8.76475000 0.254770 175.35 0.966877 -94.75 0.966877 -94.75 0.254770 175.09
8.76480000 0.255091 175.33 0.966793 -94.77 0.966793 -94.77 0.255090 175.07
8.76485000 0.255412 175.31 0.966708 -94.79 0.966708 -94.79 0.255411 175.05
8.76490000 0.255733 175.29 0.966622 -94.81 0.966622 -94.81 0.255733 175.03
8.76495000 0.256056 175.27 0.966536 -94.83 0.966536 -94.83 0.256056 175.01
8.76500000 0.256379 175.25 0.966450 -94.85 0.966450 -94.85 0.256379 174.99
8.76505000 0.256703 175.23 0.966364 -94.87 0.966364 -94.87 0.256703 174.98
8.76510000 0.257028 175.22 0.966277 -94.89 0.966277 -94.89 0.257028 174.96
8.76515000 0.257354 175.20 0.966190 -94.91 0.966190 -94.91 0.257354 174.94
8.76520000 0.257681 175.18 0.966103 -94.93 0.966103 -94.93 0.257681 174.92
8.76525000 0.258008 175.16 0.966015 -94.95 0.966015 -94.95 0.258008 174.90
8.76530000 0.258337 175.14 0.965927 -94.97 0.965927 -94.97 0.258336 174.88
8.76535000 0.258666 175.12 0.965839 -94.99 0.965839 -94.99 0.258665 174.86
8.76540000 0.258996 175.10 0.965750 -95.01 0.965750 -95.01 0.258995 174.84
8.76545000 0.259326 175.08 0.965661 -95.03 0.965661 -95.03 0.259326 174.81
8.76550000 0.259658 175.06 0.965571 -95.05 0.965571 -95.05 0.259658 174.79
8.76555000 0.259990 175.04 0.965482 -95.07 0.965482 -95.07 0.259990 174.77
8.76560000 0.260324 175.02 0.965392 -95.09 0.965392 -95.09 0.260323 174.75
8.76565000 0.260658 175.00 0.965301 -95.11 0.965301 -95.11 0.260657 174.73
8.76570000 0.260993 174.98 0.965210 -95.13 0.965210 -95.13 0.260992 174.71
8.76575000 0.261328 174.95 0.965119 -95.15 0.965119 -95.15 0.261328 174.69
8.76580000 0.261665 174.93 0.965027 -95.17 0.965027 -95.17 0.261665 174.67
8.76585000 0.262003 174.91 0.964936 -95.19 0.964936 -95.19 0.262002 174.65
8.76590000 0.262341 174.89 0.964843 -95.21 0.964843 -95.21 0.262341 174.63
8.76595000 0.262680 174.87 0.964751 -95.23 0.964751 -95.23 0.262680 174.61
8.76600000 0.263020 174.85 0.964658 -95.25 0.964658 -95.25 0.263020 174.59
8.76605000 0.263361 174.83 0.964564 -95.27 0.964564 -95.27 0.263361 174.57
8.76610000 0.263703 174.81 0.964471 -95.29 0.964471 -95.29 0.263703 174.55
8.76615000 0.264046 174.79 0.964376 -95.31 0.964376 -95.31 0.264045 174.53
8.76620000 0.264389 174.77 0.964282 -95.33 0.964282 -95.33 0.264389 174.51
8.76625000 0.264734 174.75 0.964187 -95.35 0.964187 -95.35 0.264733 174.48
8.76630000 0.265079 174.73 0.964092 -95.38 0.964092 -95.38 0.265079 174.46
8.76635000 0.265425 174.71 0.963996 -95.40 0.963996 -95.40 0.265425 174.44
8.76640000 0.265772 174.69 0.963900 -95.42 0.963900 -95.42 0.265772 174.42
8.76645000 0.266120 174.66 0.963804 -95.44 0.963804 -95.44 0.266120 174.40
8.76650000 0.266469 174.64 0.963707 -95.46 0.963707 -95.46 0.266469 174.38
8.76655000 0.266819 174.62 0.963610 -95.48 0.963610 -95.48 0.266819 174.36
8.76660000 0.267170 174.60 0.963512 -95.50 0.963512 -95.50 0.267170 174.34
8.76665000 0.267521 174.58 0.963414 -95.52 0.963414 -95.52 0.267521 174.31
8.76670000 0.267874 174.56 0.963316 -95.55 0.963316 -95.55 0.267874 174.29
8.76675000 0.268227 174.54 0.963217 -95.57 0.963217 -95.57 0.268227 174.27
8.76680000 0.268582 174.52 0.963118 -95.59 0.963118 -95.59 0.268581 174.25
8.76685000 0.268937 174.49 0.963019 -95.61 0.963019 -95.61 0.268937 174.23
8.76690000 0.269293 174.47 0.962919 -95.63 0.962919 -95.63 0.269293 174.21
8.76695000 0.269650 174.45 0.962819 -95.65 0.962819 -95.65 0.269650 174.18
8.76700000 0.270009 174.43 0.962718 -95.68 0.962718 -95.68 0.270008 174.16
8.76705000 0.270368 174.41 0.962617 -95.70 0.962617 -95.70 0.270367 174.14
8.76710000 0.270727 174.39 0.962515 -95.72 0.962515 -95.72 0.270727 174.12
8.76715000 0.271088 174.36 0.962413 -95.74 0.962413 -95.74 0.271088 174.10
8.76720000 0.271450 174.34 0.962311 -95.76 0.962311 -95.76 0.271450 174.07
8.76725000 0.271813 174.32 0.962208 -95.78 0.962208 -95.78 0.271813 174.05
8.76730000 0.272177 174.30 0.962105 -95.81 0.962105 -95.81 0.272176 174.03
8.76735000 0.272541 174.28 0.962001 -95.83 0.962001 -95.83 0.272541 174.01
8.76740000 0.272907 174.25 0.961897 -95.85 0.961897 -95.85 0.272907 173.98
8.76745000 0.273274 174.23 0.961793 -95.87 0.961793 -95.87 0.273273 173.96
8.76750000 0.273641 174.21 0.961688 -95.90 0.961688 -95.90 0.273641 173.94
8.76755000 0.274010 174.19 0.961582 -95.92 0.961582 -95.92 0.274009 173.92
8.76760000 0.274379 174.16 0.961477 -95.94 0.961477 -95.94 0.274379 173.89
8.76765000 0.274750 174.14 0.961371 -95.96 0.961371 -95.96 0.274749 173.87
8.76770000 0.275121 174.12 0.961264 -95.99 0.961264 -95.99 0.275121 173.85
8.76775000 0.275494 174.10 0.961157 -96.01 0.961157 -96.01 0.275493 173.83
8.76780000 0.275867 174.07 0.961049 -96.03 0.961049 -96.03 0.275867 173.80
8.76785000 0.276242 174.05 0.960941 -96.05 0.960941 -96.05 0.276241 173.78
8.76790000 0.276617 174.03 0.960833 -96.08 0.960833 -96.08 0.276617 173.76
8.76795000 0.276994 174.01 0.960724 -96.10 0.960724 -96.10 0.276993 173.73
8.76800000 0.277371 173.98 0.960615 -96.12 0.960615 -96.12 0.277371 173.71
8.76805000 0.277749 173.96 0.960505 -96.15 0.960505 -96.15 0.277749 173.69
8.76810000 0.278129 173.94 0.960395 -96.17 0.960395 -96.17 0.278129 173.66
8.76815000 0.278509 173.91 0.960284 -96.19 0.960284 -96.19 0.278509 173.64
8.76820000 0.278891 173.89 0.960173 -96.22 0.960173 -96.22 0.278891 173.62
8.76825000 0.279273 173.87 0.960061 -96.24 0.960061 -96.24 0.279273 173.59
8.76830000 0.279657 173.84 0.959949 -96.26 0.959949 -96.26 0.279657 173.57
8.76835000 0.280042 173.82 0.959837 -96.29 0.959837 -96.29 0.280041 173.55
8.76840000 0.280427 173.80 0.959724 -96.31 0.959724 -96.31 0.280427 173.52
8.76845000 0.280814 173.77 0.959610 -96.33 0.959610 -96.33 0.280813 173.50
8.76850000 0.281202 173.75 0.959496 -96.36 0.959496 -96.36 0.281201 173.48
8.76855000 0.281590 173.73 0.959382 -96.38 0.959382 -96.38 0.281590 173.45
8.76860000 0.281980 173.70 0.959267 -96.40 0.959267 -96.40 0.281980 173.43
8.76865000 0.282371 173.68 0.959152 -96.43 0.959152 -96.43 0.282371 173.40
8.76870000 0.282763 173.66 0.959036 -96.45 0.959036 -96.45 0.282763 173.38
8.76875000 0.283156 173.63 0.958919 -96.48 0.958919 -96.48 0.283156 173.36
8.76880000 0.283550 173.61 0.958802 -96.50 0.958802 -96.50 0.283550 173.33
8.76885000 0.283945 173.58 0.958685 -96.52 0.958685 -96.52 0.283945 173.31
8.76890000 0.284341 173.56 0.958567 -96.55 0.958567 -96.55 0.284341 173.28
8.76895000 0.284739 173.54 0.958449 -96.57 0.958449 -96.57 0.284738 173.26
8.76900000 0.285137 173.51 0.958330 -96.60 0.958330 -96.60 0.285137 173.23
8.76905000 0.285536 173.49 0.958211 -96.62 0.958211 -96.62 0.285536 173.21
8.76910000 0.285937 173.46 0.958091 -96.64 0.958091 -96.64 0.285937 173.19
8.76915000 0.286339 173.44 0.957970 -96.67 0.957970 -96.67 0.286338 173.16
8.76920000 0.286741 173.41 0.957849 -96.69 0.957849 -96.69 0.286741 173.14
8.76925000 0.287145 173.39 0.957728 -96.72 0.957728 -96.72 0.287145 173.11
8.76930000 0.287550 173.36 0.957606 -96.74 0.957606 -96.74 0.287550 173.09
8.76935000 0.287956 173.34 0.957483 -96.77 0.957483 -96.77 0.287956 173.06
8.76940000 0.288363 173.31 0.957360 -96.79 0.957360 -96.79 0.288363 173.04
8.76945000 0.288772 173.29 0.957237 -96.82 0.957237 -96.82 0.288771 173.01
8.76950000 0.289181 173.26 0.957113 -96.84 0.957113 -96.84 0.289181 172.99
8.76955000 0.289592 173.24 0.956988 -96.87 0.956988 -96.87 0.289591 172.96
8.76960000 0.290003 173.21 0.956863 -96.89 0.956863 -96.89 0.290003 172.94