! Sonnet Data File
! From: emgraph Version : 16.52
! From Project: transmon_trial
! Data is De-embedded 
! Data File Written: 10/20/2017 09:13:07
!< HDATE 10/19/2017 20:03:37
!< MDATE 10/19/2017 20:10:25
!< PARAMS
!< Lj = 15.24
!< Gap = 6.0
!< Width = 30.0
!< Airgap = 18.0
!< Pwidth = 2000.0
!< END PARAMS
# GHZ S MA R 51.00000
8.65000000 0.058551 -172.7 0.998274 -82.79 0.998274 -82.79 0.058551 -172.9
!< P1 F=8.65 Eeff=(6.44482017 -3.0292e-5) Z0=(50.6172123 1.12884e-4) R=0.0 C=0.0 
!< P2 F=8.65 Eeff=(6.44482017 -3.0292e-5) Z0=(50.6172123 1.12884e-4) R=0.0 C=0.0 
8.65010000 0.058591 -172.7 0.998272 -82.79 0.998272 -82.79 0.058591 -172.9
8.65020000 0.058631 -172.7 0.998269 -82.79 0.998269 -82.79 0.058631 -172.9
8.65030000 0.058671 -172.7 0.998267 -82.80 0.998267 -82.80 0.058671 -172.9
8.65040000 0.058711 -172.7 0.998265 -82.80 0.998265 -82.80 0.058711 -172.9
8.65050000 0.058751 -172.7 0.998262 -82.80 0.998262 -82.80 0.058751 -172.9
8.65060000 0.058792 -172.7 0.998260 -82.81 0.998260 -82.81 0.058791 -172.9
8.65070000 0.058832 -172.7 0.998257 -82.81 0.998257 -82.81 0.058832 -172.9
8.65080000 0.058872 -172.7 0.998255 -82.81 0.998255 -82.81 0.058872 -172.9
8.65090000 0.058913 -172.8 0.998253 -82.82 0.998253 -82.82 0.058913 -172.9
8.65100000 0.058953 -172.8 0.998250 -82.82 0.998250 -82.82 0.058953 -172.9
8.65110000 0.058994 -172.8 0.998248 -82.82 0.998248 -82.82 0.058994 -172.9
8.65120000 0.059034 -172.8 0.998245 -82.83 0.998245 -82.83 0.059034 -172.9
8.65130000 0.059075 -172.8 0.998243 -82.83 0.998243 -82.83 0.059075 -172.9
8.65140000 0.059116 -172.8 0.998241 -82.83 0.998241 -82.83 0.059116 -172.9
8.65150000 0.059156 -172.8 0.998238 -82.84 0.998238 -82.84 0.059156 -172.9
8.65160000 0.059197 -172.8 0.998236 -82.84 0.998236 -82.84 0.059197 -172.9
8.65170000 0.059238 -172.8 0.998233 -82.84 0.998233 -82.84 0.059238 -172.9
8.65180000 0.059279 -172.8 0.998231 -82.85 0.998231 -82.85 0.059279 -172.9
8.65190000 0.059320 -172.8 0.998228 -82.85 0.998228 -82.85 0.059320 -172.9
8.65200000 0.059361 -172.8 0.998226 -82.85 0.998226 -82.85 0.059361 -172.9
8.65210000 0.059402 -172.8 0.998224 -82.86 0.998224 -82.86 0.059402 -172.9
8.65220000 0.059443 -172.8 0.998221 -82.86 0.998221 -82.86 0.059443 -172.9
8.65230000 0.059484 -172.8 0.998219 -82.86 0.998219 -82.86 0.059484 -172.9
8.65240000 0.059526 -172.8 0.998216 -82.87 0.998216 -82.87 0.059526 -173.0
8.65250000 0.059567 -172.8 0.998214 -82.87 0.998214 -82.87 0.059567 -173.0
8.65260000 0.059608 -172.8 0.998211 -82.87 0.998211 -82.87 0.059608 -173.0
8.65270000 0.059650 -172.8 0.998209 -82.88 0.998209 -82.88 0.059650 -173.0
8.65280000 0.059691 -172.8 0.998206 -82.88 0.998206 -82.88 0.059691 -173.0
8.65290000 0.059733 -172.8 0.998204 -82.88 0.998204 -82.88 0.059733 -173.0
8.65300000 0.059774 -172.8 0.998201 -82.89 0.998201 -82.89 0.059774 -173.0
8.65310000 0.059816 -172.8 0.998199 -82.89 0.998199 -82.89 0.059816 -173.0
8.65320000 0.059858 -172.8 0.998196 -82.89 0.998196 -82.89 0.059858 -173.0
8.65330000 0.059899 -172.8 0.998194 -82.90 0.998194 -82.90 0.059899 -173.0
8.65340000 0.059941 -172.8 0.998191 -82.90 0.998191 -82.90 0.059941 -173.0
8.65350000 0.059983 -172.8 0.998189 -82.90 0.998189 -82.90 0.059983 -173.0
8.65360000 0.060025 -172.8 0.998186 -82.91 0.998186 -82.91 0.060025 -173.0
8.65370000 0.060067 -172.8 0.998184 -82.91 0.998184 -82.91 0.060067 -173.0
8.65380000 0.060109 -172.8 0.998181 -82.91 0.998181 -82.91 0.060109 -173.0
8.65390000 0.060151 -172.8 0.998179 -82.92 0.998179 -82.92 0.060151 -173.0
8.65400000 0.060193 -172.9 0.998176 -82.92 0.998176 -82.92 0.060193 -173.0
8.65410000 0.060235 -172.9 0.998173 -82.92 0.998173 -82.92 0.060235 -173.0
8.65420000 0.060278 -172.9 0.998171 -82.93 0.998171 -82.93 0.060278 -173.0
8.65430000 0.060320 -172.9 0.998168 -82.93 0.998168 -82.93 0.060320 -173.0
8.65440000 0.060362 -172.9 0.998166 -82.93 0.998166 -82.93 0.060362 -173.0
8.65450000 0.060405 -172.9 0.998163 -82.94 0.998163 -82.94 0.060405 -173.0
8.65460000 0.060447 -172.9 0.998161 -82.94 0.998161 -82.94 0.060447 -173.0
8.65470000 0.060490 -172.9 0.998158 -82.94 0.998158 -82.94 0.060490 -173.0
8.65480000 0.060532 -172.9 0.998155 -82.95 0.998155 -82.95 0.060532 -173.0
8.65490000 0.060575 -172.9 0.998153 -82.95 0.998153 -82.95 0.060575 -173.0
8.65500000 0.060618 -172.9 0.998150 -82.95 0.998150 -82.95 0.060618 -173.0
8.65510000 0.060661 -172.9 0.998148 -82.96 0.998148 -82.96 0.060661 -173.0
8.65520000 0.060703 -172.9 0.998145 -82.96 0.998145 -82.96 0.060703 -173.0
8.65530000 0.060746 -172.9 0.998142 -82.96 0.998142 -82.96 0.060746 -173.1
8.65540000 0.060789 -172.9 0.998140 -82.97 0.998140 -82.97 0.060789 -173.1
8.65550000 0.060832 -172.9 0.998137 -82.97 0.998137 -82.97 0.060832 -173.1
8.65560000 0.060875 -172.9 0.998134 -82.97 0.998134 -82.97 0.060875 -173.1
8.65570000 0.060919 -172.9 0.998132 -82.98 0.998132 -82.98 0.060918 -173.1
8.65580000 0.060962 -172.9 0.998129 -82.98 0.998129 -82.98 0.060962 -173.1
8.65590000 0.061005 -172.9 0.998126 -82.98 0.998126 -82.98 0.061005 -173.1
8.65600000 0.061048 -172.9 0.998124 -82.99 0.998124 -82.99 0.061048 -173.1
8.65610000 0.061092 -172.9 0.998121 -82.99 0.998121 -82.99 0.061092 -173.1
8.65620000 0.061135 -172.9 0.998119 -82.99 0.998119 -82.99 0.061135 -173.1
8.65630000 0.061179 -172.9 0.998116 -83.00 0.998116 -83.00 0.061179 -173.1
8.65640000 0.061222 -172.9 0.998113 -83.00 0.998113 -83.00 0.061222 -173.1
8.65650000 0.061266 -172.9 0.998110 -83.00 0.998110 -83.00 0.061266 -173.1
8.65660000 0.061309 -172.9 0.998108 -83.01 0.998108 -83.01 0.061309 -173.1
8.65670000 0.061353 -172.9 0.998105 -83.01 0.998105 -83.01 0.061353 -173.1
8.65680000 0.061397 -172.9 0.998102 -83.01 0.998102 -83.01 0.061397 -173.1
8.65690000 0.061441 -172.9 0.998100 -83.02 0.998100 -83.02 0.061441 -173.1
8.65700000 0.061485 -172.9 0.998097 -83.02 0.998097 -83.02 0.061485 -173.1
8.65710000 0.061529 -173.0 0.998094 -83.02 0.998094 -83.02 0.061529 -173.1
8.65720000 0.061573 -173.0 0.998091 -83.03 0.998091 -83.03 0.061573 -173.1
8.65730000 0.061617 -173.0 0.998089 -83.03 0.998089 -83.03 0.061617 -173.1
8.65740000 0.061661 -173.0 0.998086 -83.03 0.998086 -83.03 0.061661 -173.1
8.65750000 0.061705 -173.0 0.998083 -83.04 0.998083 -83.04 0.061705 -173.1
8.65760000 0.061750 -173.0 0.998081 -83.04 0.998081 -83.04 0.061749 -173.1
8.65770000 0.061794 -173.0 0.998078 -83.04 0.998078 -83.04 0.061794 -173.1
8.65780000 0.061838 -173.0 0.998075 -83.05 0.998075 -83.05 0.061838 -173.1
8.65790000 0.061883 -173.0 0.998072 -83.05 0.998072 -83.05 0.061883 -173.1
8.65800000 0.061927 -173.0 0.998069 -83.06 0.998069 -83.06 0.061927 -173.1
8.65810000 0.061972 -173.0 0.998067 -83.06 0.998067 -83.06 0.061972 -173.1
8.65820000 0.062017 -173.0 0.998064 -83.06 0.998064 -83.06 0.062016 -173.2
8.65830000 0.062061 -173.0 0.998061 -83.07 0.998061 -83.07 0.062061 -173.2
8.65840000 0.062106 -173.0 0.998058 -83.07 0.998058 -83.07 0.062106 -173.2
8.65850000 0.062151 -173.0 0.998056 -83.07 0.998056 -83.07 0.062151 -173.2
8.65860000 0.062196 -173.0 0.998053 -83.08 0.998053 -83.08 0.062196 -173.2
8.65870000 0.062241 -173.0 0.998050 -83.08 0.998050 -83.08 0.062241 -173.2
8.65880000 0.062286 -173.0 0.998047 -83.08 0.998047 -83.08 0.062286 -173.2
8.65890000 0.062331 -173.0 0.998044 -83.09 0.998044 -83.09 0.062331 -173.2
8.65900000 0.062376 -173.0 0.998041 -83.09 0.998041 -83.09 0.062376 -173.2
8.65910000 0.062421 -173.0 0.998039 -83.09 0.998039 -83.09 0.062421 -173.2
8.65920000 0.062467 -173.0 0.998036 -83.10 0.998036 -83.10 0.062467 -173.2
8.65930000 0.062512 -173.0 0.998033 -83.10 0.998033 -83.10 0.062512 -173.2
8.65940000 0.062557 -173.0 0.998030 -83.10 0.998030 -83.10 0.062557 -173.2
8.65950000 0.062603 -173.0 0.998027 -83.11 0.998027 -83.11 0.062603 -173.2
8.65960000 0.062648 -173.0 0.998024 -83.11 0.998024 -83.11 0.062648 -173.2
8.65970000 0.062694 -173.0 0.998021 -83.12 0.998021 -83.12 0.062694 -173.2
8.65980000 0.062740 -173.0 0.998019 -83.12 0.998019 -83.12 0.062740 -173.2
8.65990000 0.062785 -173.0 0.998016 -83.12 0.998016 -83.12 0.062785 -173.2
8.66000000 0.062831 -173.1 0.998013 -83.13 0.998013 -83.13 0.062831 -173.2
8.66010000 0.062877 -173.1 0.998010 -83.13 0.998010 -83.13 0.062877 -173.2
8.66020000 0.062923 -173.1 0.998007 -83.13 0.998007 -83.13 0.062923 -173.2
8.66030000 0.062969 -173.1 0.998004 -83.14 0.998004 -83.14 0.062969 -173.2
8.66040000 0.063015 -173.1 0.998001 -83.14 0.998001 -83.14 0.063015 -173.2
8.66050000 0.063061 -173.1 0.997998 -83.14 0.997998 -83.14 0.063061 -173.2
8.66060000 0.063107 -173.1 0.997995 -83.15 0.997995 -83.15 0.063107 -173.2
8.66070000 0.063154 -173.1 0.997992 -83.15 0.997992 -83.15 0.063154 -173.2
8.66080000 0.063200 -173.1 0.997989 -83.15 0.997989 -83.15 0.063200 -173.2
8.66090000 0.063246 -173.1 0.997986 -83.16 0.997986 -83.16 0.063246 -173.3
8.66100000 0.063293 -173.1 0.997983 -83.16 0.997983 -83.16 0.063293 -173.3
8.66110000 0.063339 -173.1 0.997980 -83.16 0.997980 -83.16 0.063339 -173.3
8.66120000 0.063386 -173.1 0.997978 -83.17 0.997978 -83.17 0.063386 -173.3
8.66130000 0.063433 -173.1 0.997975 -83.17 0.997975 -83.17 0.063432 -173.3
8.66140000 0.063479 -173.1 0.997972 -83.18 0.997972 -83.18 0.063479 -173.3
8.66150000 0.063526 -173.1 0.997969 -83.18 0.997969 -83.18 0.063526 -173.3
8.66160000 0.063573 -173.1 0.997966 -83.18 0.997966 -83.18 0.063573 -173.3
8.66170000 0.063620 -173.1 0.997963 -83.19 0.997963 -83.19 0.063620 -173.3
8.66180000 0.063667 -173.1 0.997960 -83.19 0.997960 -83.19 0.063667 -173.3
8.66190000 0.063714 -173.1 0.997957 -83.19 0.997957 -83.19 0.063714 -173.3
8.66200000 0.063761 -173.1 0.997954 -83.20 0.997954 -83.20 0.063761 -173.3
8.66210000 0.063808 -173.1 0.997951 -83.20 0.997951 -83.20 0.063808 -173.3
8.66220000 0.063855 -173.1 0.997947 -83.20 0.997947 -83.20 0.063855 -173.3
8.66230000 0.063903 -173.1 0.997944 -83.21 0.997944 -83.21 0.063903 -173.3
8.66240000 0.063950 -173.1 0.997941 -83.21 0.997941 -83.21 0.063950 -173.3
8.66250000 0.063998 -173.1 0.997938 -83.22 0.997938 -83.22 0.063998 -173.3
8.66260000 0.064045 -173.1 0.997935 -83.22 0.997935 -83.22 0.064045 -173.3
8.66270000 0.064093 -173.1 0.997932 -83.22 0.997932 -83.22 0.064093 -173.3
8.66280000 0.064140 -173.1 0.997929 -83.23 0.997929 -83.23 0.064140 -173.3
8.66290000 0.064188 -173.2 0.997926 -83.23 0.997926 -83.23 0.064188 -173.3
8.66300000 0.064236 -173.2 0.997923 -83.23 0.997923 -83.23 0.064236 -173.3
8.66310000 0.064284 -173.2 0.997920 -83.24 0.997920 -83.24 0.064284 -173.3
8.66320000 0.064332 -173.2 0.997917 -83.24 0.997917 -83.24 0.064332 -173.3
8.66330000 0.064380 -173.2 0.997914 -83.24 0.997914 -83.24 0.064380 -173.3
8.66340000 0.064428 -173.2 0.997911 -83.25 0.997911 -83.25 0.064428 -173.3
8.66350000 0.064476 -173.2 0.997907 -83.25 0.997907 -83.25 0.064476 -173.3
8.66360000 0.064524 -173.2 0.997904 -83.26 0.997904 -83.26 0.064524 -173.4
8.66370000 0.064573 -173.2 0.997901 -83.26 0.997901 -83.26 0.064573 -173.4
8.66380000 0.064621 -173.2 0.997898 -83.26 0.997898 -83.26 0.064621 -173.4
8.66390000 0.064669 -173.2 0.997895 -83.27 0.997895 -83.27 0.064669 -173.4
8.66400000 0.064718 -173.2 0.997892 -83.27 0.997892 -83.27 0.064718 -173.4
8.66410000 0.064766 -173.2 0.997889 -83.27 0.997889 -83.27 0.064766 -173.4
8.66420000 0.064815 -173.2 0.997885 -83.28 0.997885 -83.28 0.064815 -173.4
8.66430000 0.064864 -173.2 0.997882 -83.28 0.997882 -83.28 0.064864 -173.4
8.66440000 0.064913 -173.2 0.997879 -83.29 0.997879 -83.29 0.064913 -173.4
8.66450000 0.064961 -173.2 0.997876 -83.29 0.997876 -83.29 0.064961 -173.4
8.66460000 0.065010 -173.2 0.997873 -83.29 0.997873 -83.29 0.065010 -173.4
8.66470000 0.065059 -173.2 0.997869 -83.30 0.997869 -83.30 0.065059 -173.4
8.66480000 0.065108 -173.2 0.997866 -83.30 0.997866 -83.30 0.065108 -173.4
8.66490000 0.065158 -173.2 0.997863 -83.30 0.997863 -83.30 0.065158 -173.4
8.66500000 0.065207 -173.2 0.997860 -83.31 0.997860 -83.31 0.065207 -173.4
8.66510000 0.065256 -173.2 0.997856 -83.31 0.997856 -83.31 0.065256 -173.4
8.66520000 0.065305 -173.2 0.997853 -83.32 0.997853 -83.32 0.065305 -173.4
8.66530000 0.065355 -173.2 0.997850 -83.32 0.997850 -83.32 0.065355 -173.4
8.66540000 0.065404 -173.2 0.997847 -83.32 0.997847 -83.32 0.065404 -173.4
8.66550000 0.065454 -173.2 0.997843 -83.33 0.997843 -83.33 0.065454 -173.4
8.66560000 0.065504 -173.3 0.997840 -83.33 0.997840 -83.33 0.065504 -173.4
8.66570000 0.065553 -173.3 0.997837 -83.33 0.997837 -83.33 0.065553 -173.4
8.66580000 0.065603 -173.3 0.997834 -83.34 0.997834 -83.34 0.065603 -173.4
8.66590000 0.065653 -173.3 0.997830 -83.34 0.997830 -83.34 0.065653 -173.4
8.66600000 0.065703 -173.3 0.997827 -83.35 0.997827 -83.35 0.065703 -173.4
8.66610000 0.065753 -173.3 0.997824 -83.35 0.997824 -83.35 0.065753 -173.4
8.66620000 0.065803 -173.3 0.997820 -83.35 0.997820 -83.35 0.065803 -173.5
8.66630000 0.065853 -173.3 0.997817 -83.36 0.997817 -83.36 0.065853 -173.5
8.66640000 0.065904 -173.3 0.997814 -83.36 0.997814 -83.36 0.065903 -173.5
8.66650000 0.065954 -173.3 0.997810 -83.36 0.997810 -83.36 0.065954 -173.5
8.66660000 0.066004 -173.3 0.997807 -83.37 0.997807 -83.37 0.066004 -173.5
8.66670000 0.066055 -173.3 0.997804 -83.37 0.997804 -83.37 0.066055 -173.5
8.66680000 0.066105 -173.3 0.997800 -83.38 0.997800 -83.38 0.066105 -173.5
8.66690000 0.066156 -173.3 0.997797 -83.38 0.997797 -83.38 0.066156 -173.5
8.66700000 0.066207 -173.3 0.997794 -83.38 0.997794 -83.38 0.066207 -173.5
8.66710000 0.066257 -173.3 0.997790 -83.39 0.997790 -83.39 0.066257 -173.5
8.66720000 0.066308 -173.3 0.997787 -83.39 0.997787 -83.39 0.066308 -173.5
8.66730000 0.066359 -173.3 0.997783 -83.40 0.997783 -83.40 0.066359 -173.5
8.66740000 0.066410 -173.3 0.997780 -83.40 0.997780 -83.40 0.066410 -173.5
8.66750000 0.066461 -173.3 0.997777 -83.40 0.997777 -83.40 0.066461 -173.5
8.66760000 0.066512 -173.3 0.997773 -83.41 0.997773 -83.41 0.066512 -173.5
8.66770000 0.066564 -173.3 0.997770 -83.41 0.997770 -83.41 0.066564 -173.5
8.66780000 0.066615 -173.3 0.997766 -83.41 0.997766 -83.41 0.066615 -173.5
8.66790000 0.066666 -173.3 0.997763 -83.42 0.997763 -83.42 0.066666 -173.5
8.66800000 0.066718 -173.3 0.997759 -83.42 0.997759 -83.42 0.066718 -173.5
8.66810000 0.066769 -173.3 0.997756 -83.43 0.997756 -83.43 0.066769 -173.5
8.66820000 0.066821 -173.3 0.997753 -83.43 0.997753 -83.43 0.066821 -173.5
8.66830000 0.066873 -173.4 0.997749 -83.43 0.997749 -83.43 0.066872 -173.5
8.66840000 0.066924 -173.4 0.997746 -83.44 0.997746 -83.44 0.066924 -173.5
8.66850000 0.066976 -173.4 0.997742 -83.44 0.997742 -83.44 0.066976 -173.5
8.66860000 0.067028 -173.4 0.997739 -83.45 0.997739 -83.45 0.067028 -173.5
8.66870000 0.067080 -173.4 0.997735 -83.45 0.997735 -83.45 0.067080 -173.6
8.66880000 0.067132 -173.4 0.997732 -83.45 0.997732 -83.45 0.067132 -173.6
8.66890000 0.067184 -173.4 0.997728 -83.46 0.997728 -83.46 0.067184 -173.6
8.66900000 0.067237 -173.4 0.997724 -83.46 0.997724 -83.46 0.067236 -173.6
8.66910000 0.067289 -173.4 0.997721 -83.47 0.997721 -83.47 0.067289 -173.6
8.66920000 0.067341 -173.4 0.997717 -83.47 0.997717 -83.47 0.067341 -173.6
8.66930000 0.067394 -173.4 0.997714 -83.47 0.997714 -83.47 0.067394 -173.6
8.66940000 0.067446 -173.4 0.997710 -83.48 0.997710 -83.48 0.067446 -173.6
8.66950000 0.067499 -173.4 0.997707 -83.48 0.997707 -83.48 0.067499 -173.6
8.66960000 0.067552 -173.4 0.997703 -83.49 0.997703 -83.49 0.067552 -173.6
8.66970000 0.067604 -173.4 0.997700 -83.49 0.997700 -83.49 0.067604 -173.6
8.66980000 0.067657 -173.4 0.997696 -83.49 0.997696 -83.49 0.067657 -173.6
8.66990000 0.067710 -173.4 0.997692 -83.50 0.997692 -83.50 0.067710 -173.6
8.67000000 0.067763 -173.4 0.997689 -83.50 0.997689 -83.50 0.067763 -173.6
8.67010000 0.067816 -173.4 0.997685 -83.50 0.997685 -83.50 0.067816 -173.6
8.67020000 0.067870 -173.4 0.997681 -83.51 0.997681 -83.51 0.067870 -173.6
8.67030000 0.067923 -173.4 0.997678 -83.51 0.997678 -83.51 0.067923 -173.6
8.67040000 0.067976 -173.4 0.997674 -83.52 0.997674 -83.52 0.067976 -173.6
8.67050000 0.068030 -173.4 0.997670 -83.52 0.997670 -83.52 0.068030 -173.6
8.67060000 0.068083 -173.4 0.997667 -83.52 0.997667 -83.52 0.068083 -173.6
8.67070000 0.068137 -173.4 0.997663 -83.53 0.997663 -83.53 0.068137 -173.6
8.67080000 0.068190 -173.4 0.997659 -83.53 0.997659 -83.53 0.068190 -173.6
8.67090000 0.068244 -173.5 0.997656 -83.54 0.997656 -83.54 0.068244 -173.6
8.67100000 0.068298 -173.5 0.997652 -83.54 0.997652 -83.54 0.068298 -173.6
8.67110000 0.068352 -173.5 0.997648 -83.54 0.997648 -83.54 0.068352 -173.7
8.67120000 0.068406 -173.5 0.997645 -83.55 0.997645 -83.55 0.068406 -173.7
8.67130000 0.068460 -173.5 0.997641 -83.55 0.997641 -83.55 0.068460 -173.7
8.67140000 0.068514 -173.5 0.997637 -83.56 0.997637 -83.56 0.068514 -173.7
8.67150000 0.068569 -173.5 0.997633 -83.56 0.997633 -83.56 0.068568 -173.7
8.67160000 0.068623 -173.5 0.997630 -83.57 0.997630 -83.57 0.068623 -173.7
8.67170000 0.068677 -173.5 0.997626 -83.57 0.997626 -83.57 0.068677 -173.7
8.67180000 0.068732 -173.5 0.997622 -83.57 0.997622 -83.57 0.068732 -173.7
8.67190000 0.068786 -173.5 0.997618 -83.58 0.997618 -83.58 0.068786 -173.7
8.67200000 0.068841 -173.5 0.997615 -83.58 0.997615 -83.58 0.068841 -173.7
8.67210000 0.068896 -173.5 0.997611 -83.59 0.997611 -83.59 0.068896 -173.7
8.67220000 0.068951 -173.5 0.997607 -83.59 0.997607 -83.59 0.068951 -173.7
8.67230000 0.069006 -173.5 0.997603 -83.59 0.997603 -83.59 0.069006 -173.7
8.67240000 0.069061 -173.5 0.997599 -83.60 0.997599 -83.60 0.069061 -173.7
8.67250000 0.069116 -173.5 0.997596 -83.60 0.997596 -83.60 0.069116 -173.7
8.67260000 0.069171 -173.5 0.997592 -83.61 0.997592 -83.61 0.069171 -173.7
8.67270000 0.069226 -173.5 0.997588 -83.61 0.997588 -83.61 0.069226 -173.7
8.67280000 0.069282 -173.5 0.997584 -83.61 0.997584 -83.61 0.069282 -173.7
8.67290000 0.069337 -173.5 0.997580 -83.62 0.997580 -83.62 0.069337 -173.7
8.67300000 0.069393 -173.5 0.997576 -83.62 0.997576 -83.62 0.069393 -173.7
8.67310000 0.069448 -173.5 0.997572 -83.63 0.997572 -83.63 0.069448 -173.7
8.67320000 0.069504 -173.5 0.997568 -83.63 0.997568 -83.63 0.069504 -173.7
8.67330000 0.069560 -173.5 0.997565 -83.63 0.997565 -83.63 0.069560 -173.7
8.67340000 0.069616 -173.5 0.997561 -83.64 0.997561 -83.64 0.069616 -173.7
8.67350000 0.069672 -173.6 0.997557 -83.64 0.997557 -83.64 0.069672 -173.8
8.67360000 0.069728 -173.6 0.997553 -83.65 0.997553 -83.65 0.069728 -173.8
8.67370000 0.069784 -173.6 0.997549 -83.65 0.997549 -83.65 0.069784 -173.8
8.67380000 0.069840 -173.6 0.997545 -83.66 0.997545 -83.66 0.069840 -173.8
8.67390000 0.069896 -173.6 0.997541 -83.66 0.997541 -83.66 0.069896 -173.8
8.67400000 0.069953 -173.6 0.997537 -83.66 0.997537 -83.66 0.069953 -173.8
8.67410000 0.070009 -173.6 0.997533 -83.67 0.997533 -83.67 0.070009 -173.8
8.67420000 0.070066 -173.6 0.997529 -83.67 0.997529 -83.67 0.070066 -173.8
8.67430000 0.070123 -173.6 0.997525 -83.68 0.997525 -83.68 0.070122 -173.8
8.67440000 0.070179 -173.6 0.997521 -83.68 0.997521 -83.68 0.070179 -173.8
8.67450000 0.070236 -173.6 0.997517 -83.68 0.997517 -83.68 0.070236 -173.8
8.67460000 0.070293 -173.6 0.997513 -83.69 0.997513 -83.69 0.070293 -173.8
8.67470000 0.070350 -173.6 0.997509 -83.69 0.997509 -83.69 0.070350 -173.8
8.67480000 0.070407 -173.6 0.997505 -83.70 0.997505 -83.70 0.070407 -173.8
8.67490000 0.070464 -173.6 0.997501 -83.70 0.997501 -83.70 0.070464 -173.8
8.67500000 0.070522 -173.6 0.997497 -83.71 0.997497 -83.71 0.070522 -173.8
8.67510000 0.070579 -173.6 0.997493 -83.71 0.997493 -83.71 0.070579 -173.8
8.67520000 0.070637 -173.6 0.997489 -83.71 0.997489 -83.71 0.070637 -173.8
8.67530000 0.070694 -173.6 0.997484 -83.72 0.997484 -83.72 0.070694 -173.8
8.67540000 0.070752 -173.6 0.997480 -83.72 0.997480 -83.72 0.070752 -173.8
8.67550000 0.070810 -173.6 0.997476 -83.73 0.997476 -83.73 0.070810 -173.8
8.67560000 0.070868 -173.6 0.997472 -83.73 0.997472 -83.73 0.070867 -173.8
8.67570000 0.070925 -173.6 0.997468 -83.74 0.997468 -83.74 0.070925 -173.8
8.67580000 0.070984 -173.6 0.997464 -83.74 0.997464 -83.74 0.070983 -173.9
8.67590000 0.071042 -173.7 0.997460 -83.74 0.997460 -83.74 0.071042 -173.9
8.67600000 0.071100 -173.7 0.997456 -83.75 0.997456 -83.75 0.071100 -173.9
8.67610000 0.071158 -173.7 0.997451 -83.75 0.997451 -83.75 0.071158 -173.9
8.67620000 0.071217 -173.7 0.997447 -83.76 0.997447 -83.76 0.071217 -173.9
8.67630000 0.071275 -173.7 0.997443 -83.76 0.997443 -83.76 0.071275 -173.9
8.67640000 0.071334 -173.7 0.997439 -83.77 0.997439 -83.77 0.071334 -173.9
8.67650000 0.071392 -173.7 0.997435 -83.77 0.997435 -83.77 0.071392 -173.9
8.67660000 0.071451 -173.7 0.997430 -83.77 0.997430 -83.77 0.071451 -173.9
8.67670000 0.071510 -173.7 0.997426 -83.78 0.997426 -83.78 0.071510 -173.9
8.67680000 0.071569 -173.7 0.997422 -83.78 0.997422 -83.78 0.071569 -173.9
8.67690000 0.071628 -173.7 0.997418 -83.79 0.997418 -83.79 0.071628 -173.9
8.67700000 0.071687 -173.7 0.997413 -83.79 0.997413 -83.79 0.071687 -173.9
8.67710000 0.071746 -173.7 0.997409 -83.80 0.997409 -83.80 0.071746 -173.9
8.67720000 0.071806 -173.7 0.997405 -83.80 0.997405 -83.80 0.071806 -173.9
8.67730000 0.071865 -173.7 0.997400 -83.80 0.997400 -83.80 0.071865 -173.9
8.67740000 0.071925 -173.7 0.997396 -83.81 0.997396 -83.81 0.071925 -173.9
8.67750000 0.071984 -173.7 0.997392 -83.81 0.997392 -83.81 0.071984 -173.9
8.67760000 0.072044 -173.7 0.997388 -83.82 0.997388 -83.82 0.072044 -173.9
8.67770000 0.072104 -173.7 0.997383 -83.82 0.997383 -83.82 0.072104 -173.9
8.67780000 0.072164 -173.7 0.997379 -83.83 0.997379 -83.83 0.072164 -173.9
8.67790000 0.072224 -173.7 0.997374 -83.83 0.997374 -83.83 0.072224 -173.9
8.67800000 0.072284 -173.7 0.997370 -83.83 0.997370 -83.83 0.072284 -173.9
8.67810000 0.072344 -173.7 0.997366 -83.84 0.997366 -83.84 0.072344 -174.0
8.67820000 0.072405 -173.7 0.997361 -83.84 0.997361 -83.84 0.072405 -174.0
8.67830000 0.072465 -173.8 0.997357 -83.85 0.997357 -83.85 0.072465 -174.0
8.67840000 0.072526 -173.8 0.997352 -83.85 0.997352 -83.85 0.072526 -174.0
8.67850000 0.072586 -173.8 0.997348 -83.86 0.997348 -83.86 0.072586 -174.0
8.67860000 0.072647 -173.8 0.997344 -83.86 0.997344 -83.86 0.072647 -174.0
8.67870000 0.072708 -173.8 0.997339 -83.87 0.997339 -83.87 0.072708 -174.0
8.67880000 0.072769 -173.8 0.997335 -83.87 0.997335 -83.87 0.072769 -174.0
8.67890000 0.072830 -173.8 0.997330 -83.87 0.997330 -83.87 0.072830 -174.0
8.67900000 0.072891 -173.8 0.997326 -83.88 0.997326 -83.88 0.072891 -174.0
8.67910000 0.072952 -173.8 0.997321 -83.88 0.997321 -83.88 0.072952 -174.0
8.67920000 0.073013 -173.8 0.997317 -83.89 0.997317 -83.89 0.073013 -174.0
8.67930000 0.073075 -173.8 0.997312 -83.89 0.997312 -83.89 0.073075 -174.0
8.67940000 0.073136 -173.8 0.997308 -83.90 0.997308 -83.90 0.073136 -174.0
8.67950000 0.073198 -173.8 0.997303 -83.90 0.997303 -83.90 0.073198 -174.0
8.67960000 0.073259 -173.8 0.997299 -83.91 0.997299 -83.91 0.073259 -174.0
8.67970000 0.073321 -173.8 0.997294 -83.91 0.997294 -83.91 0.073321 -174.0
8.67980000 0.073383 -173.8 0.997289 -83.91 0.997289 -83.91 0.073383 -174.0
8.67990000 0.073445 -173.8 0.997285 -83.92 0.997285 -83.92 0.073445 -174.0
8.68000000 0.073507 -173.8 0.997280 -83.92 0.997280 -83.92 0.073507 -174.0
8.68010000 0.073570 -173.8 0.997276 -83.93 0.997276 -83.93 0.073569 -174.0
8.68020000 0.073632 -173.8 0.997271 -83.93 0.997271 -83.93 0.073632 -174.0
8.68030000 0.073694 -173.8 0.997266 -83.94 0.997266 -83.94 0.073694 -174.1
8.68040000 0.073757 -173.8 0.997262 -83.94 0.997262 -83.94 0.073757 -174.1
8.68050000 0.073819 -173.8 0.997257 -83.95 0.997257 -83.95 0.073819 -174.1
8.68060000 0.073882 -173.9 0.997253 -83.95 0.997253 -83.95 0.073882 -174.1
8.68070000 0.073945 -173.9 0.997248 -83.95 0.997248 -83.95 0.073945 -174.1
8.68080000 0.074008 -173.9 0.997243 -83.96 0.997243 -83.96 0.074008 -174.1
8.68090000 0.074071 -173.9 0.997238 -83.96 0.997238 -83.96 0.074071 -174.1
8.68100000 0.074134 -173.9 0.997234 -83.97 0.997234 -83.97 0.074134 -174.1
8.68110000 0.074197 -173.9 0.997229 -83.97 0.997229 -83.97 0.074197 -174.1
8.68120000 0.074261 -173.9 0.997224 -83.98 0.997224 -83.98 0.074261 -174.1
8.68130000 0.074324 -173.9 0.997220 -83.98 0.997220 -83.98 0.074324 -174.1
8.68140000 0.074388 -173.9 0.997215 -83.99 0.997215 -83.99 0.074388 -174.1
8.68150000 0.074451 -173.9 0.997210 -83.99 0.997210 -83.99 0.074451 -174.1
8.68160000 0.074515 -173.9 0.997205 -84.00 0.997205 -84.00 0.074515 -174.1
8.68170000 0.074579 -173.9 0.997200 -84.00 0.997200 -84.00 0.074579 -174.1
8.68180000 0.074643 -173.9 0.997196 -84.00 0.997196 -84.00 0.074643 -174.1
8.68190000 0.074707 -173.9 0.997191 -84.01 0.997191 -84.01 0.074707 -174.1
8.68200000 0.074771 -173.9 0.997186 -84.01 0.997186 -84.01 0.074771 -174.1
8.68210000 0.074836 -173.9 0.997181 -84.02 0.997181 -84.02 0.074836 -174.1
8.68220000 0.074900 -173.9 0.997176 -84.02 0.997176 -84.02 0.074900 -174.1
8.68230000 0.074965 -173.9 0.997171 -84.03 0.997171 -84.03 0.074965 -174.1
8.68240000 0.075029 -173.9 0.997167 -84.03 0.997167 -84.03 0.075029 -174.2
8.68250000 0.075094 -173.9 0.997162 -84.04 0.997162 -84.04 0.075094 -174.2
8.68260000 0.075159 -173.9 0.997157 -84.04 0.997157 -84.04 0.075159 -174.2
8.68270000 0.075224 -173.9 0.997152 -84.05 0.997152 -84.05 0.075224 -174.2
8.68280000 0.075289 -174.0 0.997147 -84.05 0.997147 -84.05 0.075289 -174.2
8.68290000 0.075354 -174.0 0.997142 -84.06 0.997142 -84.06 0.075354 -174.2
8.68300000 0.075419 -174.0 0.997137 -84.06 0.997137 -84.06 0.075419 -174.2
8.68310000 0.075485 -174.0 0.997132 -84.07 0.997132 -84.07 0.075485 -174.2
8.68320000 0.075550 -174.0 0.997127 -84.07 0.997127 -84.07 0.075550 -174.2
8.68330000 0.075616 -174.0 0.997122 -84.07 0.997122 -84.07 0.075616 -174.2
8.68340000 0.075682 -174.0 0.997117 -84.08 0.997117 -84.08 0.075682 -174.2
8.68350000 0.075748 -174.0 0.997112 -84.08 0.997112 -84.08 0.075748 -174.2
8.68360000 0.075814 -174.0 0.997107 -84.09 0.997107 -84.09 0.075813 -174.2
8.68370000 0.075880 -174.0 0.997102 -84.09 0.997102 -84.09 0.075880 -174.2
8.68380000 0.075946 -174.0 0.997097 -84.10 0.997097 -84.10 0.075946 -174.2
8.68390000 0.076012 -174.0 0.997092 -84.10 0.997092 -84.10 0.076012 -174.2
8.68400000 0.076078 -174.0 0.997087 -84.11 0.997087 -84.11 0.076078 -174.2
8.68410000 0.076145 -174.0 0.997082 -84.11 0.997082 -84.11 0.076145 -174.2
8.68420000 0.076212 -174.0 0.997076 -84.12 0.997076 -84.12 0.076212 -174.2
8.68430000 0.076278 -174.0 0.997071 -84.12 0.997071 -84.12 0.076278 -174.2
8.68440000 0.076345 -174.0 0.997066 -84.13 0.997066 -84.13 0.076345 -174.2
8.68450000 0.076412 -174.0 0.997061 -84.13 0.997061 -84.13 0.076412 -174.3
8.68460000 0.076479 -174.0 0.997056 -84.14 0.997056 -84.14 0.076479 -174.3
8.68470000 0.076547 -174.0 0.997051 -84.14 0.997051 -84.14 0.076546 -174.3
8.68480000 0.076614 -174.0 0.997046 -84.15 0.997046 -84.15 0.076614 -174.3
8.68490000 0.076681 -174.0 0.997040 -84.15 0.997040 -84.15 0.076681 -174.3
8.68500000 0.076749 -174.1 0.997035 -84.16 0.997035 -84.16 0.076749 -174.3
8.68510000 0.076817 -174.1 0.997030 -84.16 0.997030 -84.16 0.076816 -174.3
8.68520000 0.076884 -174.1 0.997025 -84.16 0.997025 -84.16 0.076884 -174.3
8.68530000 0.076952 -174.1 0.997019 -84.17 0.997019 -84.17 0.076952 -174.3
8.68540000 0.077020 -174.1 0.997014 -84.17 0.997014 -84.17 0.077020 -174.3
8.68550000 0.077088 -174.1 0.997009 -84.18 0.997009 -84.18 0.077088 -174.3
8.68560000 0.077157 -174.1 0.997004 -84.18 0.997004 -84.18 0.077157 -174.3
8.68570000 0.077225 -174.1 0.996998 -84.19 0.996998 -84.19 0.077225 -174.3
8.68580000 0.077293 -174.1 0.996993 -84.19 0.996993 -84.19 0.077293 -174.3
8.68590000 0.077362 -174.1 0.996988 -84.20 0.996988 -84.20 0.077362 -174.3
8.68600000 0.077431 -174.1 0.996982 -84.20 0.996982 -84.20 0.077431 -174.3
8.68610000 0.077500 -174.1 0.996977 -84.21 0.996977 -84.21 0.077500 -174.3
8.68620000 0.077569 -174.1 0.996971 -84.21 0.996971 -84.21 0.077569 -174.3
8.68630000 0.077638 -174.1 0.996966 -84.22 0.996966 -84.22 0.077638 -174.3
8.68640000 0.077707 -174.1 0.996961 -84.22 0.996961 -84.22 0.077707 -174.3
8.68650000 0.077776 -174.1 0.996955 -84.23 0.996955 -84.23 0.077776 -174.4
8.68660000 0.077846 -174.1 0.996950 -84.23 0.996950 -84.23 0.077846 -174.4
8.68670000 0.077915 -174.1 0.996944 -84.24 0.996944 -84.24 0.077915 -174.4
8.68680000 0.077985 -174.1 0.996939 -84.24 0.996939 -84.24 0.077985 -174.4
8.68690000 0.078055 -174.1 0.996933 -84.25 0.996933 -84.25 0.078055 -174.4
8.68700000 0.078125 -174.1 0.996928 -84.25 0.996928 -84.25 0.078125 -174.4
8.68710000 0.078195 -174.2 0.996922 -84.26 0.996922 -84.26 0.078195 -174.4
8.68720000 0.078265 -174.2 0.996917 -84.26 0.996917 -84.26 0.078265 -174.4
8.68730000 0.078335 -174.2 0.996911 -84.27 0.996911 -84.27 0.078335 -174.4
8.68740000 0.078406 -174.2 0.996906 -84.27 0.996906 -84.27 0.078406 -174.4
8.68750000 0.078476 -174.2 0.996900 -84.28 0.996900 -84.28 0.078476 -174.4
8.68760000 0.078547 -174.2 0.996895 -84.28 0.996895 -84.28 0.078547 -174.4
8.68770000 0.078618 -174.2 0.996889 -84.29 0.996889 -84.29 0.078618 -174.4
8.68780000 0.078688 -174.2 0.996883 -84.29 0.996883 -84.29 0.078688 -174.4
8.68790000 0.078760 -174.2 0.996878 -84.30 0.996878 -84.30 0.078759 -174.4
8.68800000 0.078831 -174.2 0.996872 -84.30 0.996872 -84.30 0.078831 -174.4
8.68810000 0.078902 -174.2 0.996866 -84.31 0.996866 -84.31 0.078902 -174.4
8.68820000 0.078973 -174.2 0.996861 -84.31 0.996861 -84.31 0.078973 -174.4
8.68830000 0.079045 -174.2 0.996855 -84.32 0.996855 -84.32 0.079045 -174.4
8.68840000 0.079117 -174.2 0.996849 -84.32 0.996849 -84.32 0.079117 -174.4
8.68850000 0.079188 -174.2 0.996844 -84.33 0.996844 -84.33 0.079188 -174.5
8.68860000 0.079260 -174.2 0.996838 -84.33 0.996838 -84.33 0.079260 -174.5
8.68870000 0.079332 -174.2 0.996832 -84.34 0.996832 -84.34 0.079332 -174.5
8.68880000 0.079405 -174.2 0.996826 -84.34 0.996826 -84.34 0.079404 -174.5
8.68890000 0.079477 -174.2 0.996821 -84.35 0.996821 -84.35 0.079477 -174.5
8.68900000 0.079549 -174.2 0.996815 -84.35 0.996815 -84.35 0.079549 -174.5
8.68910000 0.079622 -174.3 0.996809 -84.36 0.996809 -84.36 0.079622 -174.5
8.68920000 0.079695 -174.3 0.996803 -84.36 0.996803 -84.36 0.079694 -174.5