! Sonnet Data File
! From: emgraph Version : 16.52
! From Project: transmon_trial
! Data is De-embedded 
! Data File Written: 10/20/2017 15:56:55
!< HDATE 10/20/2017 14:38:19
!< MDATE 10/20/2017 14:38:19
!< PARAMS
!< Lj = 15.24
!< Gap = 6.0
!< Width = 50.0
!< Airgap = 30.0
!< Pwidth = 2000.0
!< END PARAMS
# GHZ S MA R 51.00000
8.75000000 0.189294 179.58 0.981857 -90.42 0.981857 -90.42 0.189293 179.54
!< P1 F=8.75 Eeff=(6.43963157 -3.1356e-5) Z0=(50.4015082 1.05002e-4) R=0.0 C=0.0 
!< P2 F=8.75 Eeff=(6.43963157 -3.1356e-5) Z0=(50.4015082 1.05002e-4) R=0.0 C=0.0 
8.75005000 0.189459 179.57 0.981825 -90.43 0.981825 -90.43 0.189459 179.53
8.75010000 0.189624 179.56 0.981793 -90.44 0.981793 -90.44 0.189624 179.52
8.75015000 0.189790 179.55 0.981760 -90.45 0.981760 -90.45 0.189790 179.51
8.75020000 0.189956 179.54 0.981728 -90.46 0.981728 -90.46 0.189956 179.50
8.75025000 0.190123 179.53 0.981696 -90.47 0.981696 -90.47 0.190122 179.49
8.75030000 0.190289 179.52 0.981663 -90.48 0.981663 -90.48 0.190289 179.48
8.75035000 0.190456 179.51 0.981631 -90.49 0.981631 -90.49 0.190456 179.47
8.75040000 0.190624 179.50 0.981598 -90.50 0.981598 -90.50 0.190624 179.46
8.75045000 0.190791 179.49 0.981566 -90.51 0.981566 -90.51 0.190791 179.45
8.75050000 0.190959 179.48 0.981533 -90.52 0.981533 -90.52 0.190959 179.44
8.75055000 0.191128 179.47 0.981500 -90.53 0.981500 -90.53 0.191127 179.43
8.75060000 0.191296 179.46 0.981467 -90.54 0.981467 -90.54 0.191296 179.42
8.75065000 0.191465 179.45 0.981434 -90.56 0.981434 -90.56 0.191465 179.41
8.75070000 0.191634 179.44 0.981401 -90.57 0.981401 -90.57 0.191634 179.39
8.75075000 0.191804 179.43 0.981368 -90.58 0.981368 -90.58 0.191803 179.38
8.75080000 0.191974 179.42 0.981334 -90.59 0.981334 -90.59 0.191973 179.37
8.75085000 0.192144 179.41 0.981301 -90.60 0.981301 -90.60 0.192143 179.36
8.75090000 0.192314 179.40 0.981267 -90.61 0.981267 -90.61 0.192314 179.35
8.75095000 0.192485 179.38 0.981234 -90.62 0.981234 -90.62 0.192485 179.34
8.75100000 0.192656 179.37 0.981200 -90.63 0.981200 -90.63 0.192656 179.33
8.75105000 0.192827 179.36 0.981166 -90.64 0.981166 -90.64 0.192827 179.32
8.75110000 0.192999 179.35 0.981132 -90.65 0.981132 -90.65 0.192999 179.31
8.75115000 0.193171 179.34 0.981098 -90.66 0.981098 -90.66 0.193171 179.30
8.75120000 0.193343 179.33 0.981064 -90.67 0.981064 -90.67 0.193343 179.29
8.75125000 0.193516 179.32 0.981030 -90.68 0.981030 -90.68 0.193516 179.28
8.75130000 0.193689 179.31 0.980996 -90.69 0.980996 -90.69 0.193689 179.27
8.75135000 0.193862 179.30 0.980962 -90.70 0.980962 -90.70 0.193862 179.26
8.75140000 0.194036 179.29 0.980927 -90.71 0.980927 -90.71 0.194036 179.25
8.75145000 0.194210 179.28 0.980893 -90.72 0.980893 -90.72 0.194210 179.23
8.75150000 0.194384 179.27 0.980858 -90.73 0.980858 -90.73 0.194384 179.22
8.75155000 0.194559 179.26 0.980823 -90.74 0.980823 -90.74 0.194559 179.21
8.75160000 0.194734 179.25 0.980788 -90.75 0.980788 -90.75 0.194733 179.20
8.75165000 0.194909 179.24 0.980753 -90.77 0.980753 -90.77 0.194909 179.19
8.75170000 0.195085 179.23 0.980718 -90.78 0.980718 -90.78 0.195084 179.18
8.75175000 0.195261 179.22 0.980683 -90.79 0.980683 -90.79 0.195260 179.17
8.75180000 0.195437 179.21 0.980648 -90.80 0.980648 -90.80 0.195436 179.16
8.75185000 0.195613 179.20 0.980613 -90.81 0.980613 -90.81 0.195613 179.15
8.75190000 0.195790 179.19 0.980577 -90.82 0.980577 -90.82 0.195790 179.14
8.75195000 0.195967 179.17 0.980542 -90.83 0.980542 -90.83 0.195967 179.13
8.75200000 0.196145 179.16 0.980506 -90.84 0.980506 -90.84 0.196145 179.12
8.75205000 0.196323 179.15 0.980470 -90.85 0.980470 -90.85 0.196323 179.10
8.75210000 0.196501 179.14 0.980435 -90.86 0.980435 -90.86 0.196501 179.09
8.75215000 0.196680 179.13 0.980399 -90.87 0.980399 -90.87 0.196679 179.08
8.75220000 0.196859 179.12 0.980363 -90.88 0.980363 -90.88 0.196858 179.07
8.75225000 0.197038 179.11 0.980326 -90.90 0.980326 -90.90 0.197038 179.06
8.75230000 0.197217 179.10 0.980290 -90.91 0.980290 -90.91 0.197217 179.05
8.75235000 0.197397 179.09 0.980254 -90.92 0.980254 -90.92 0.197397 179.04
8.75240000 0.197578 179.08 0.980217 -90.93 0.980217 -90.93 0.197577 179.03
8.75245000 0.197758 179.07 0.980181 -90.94 0.980181 -90.94 0.197758 179.02
8.75250000 0.197939 179.06 0.980144 -90.95 0.980144 -90.95 0.197939 179.00
8.75255000 0.198121 179.04 0.980107 -90.96 0.980107 -90.96 0.198120 178.99
8.75260000 0.198302 179.03 0.980071 -90.97 0.980071 -90.97 0.198302 178.98
8.75265000 0.198484 179.02 0.980034 -90.98 0.980034 -90.98 0.198484 178.97
8.75270000 0.198666 179.01 0.979997 -90.99 0.979997 -90.99 0.198666 178.96
8.75275000 0.198849 179.00 0.979959 -91.01 0.979959 -91.01 0.198849 178.95
8.75280000 0.199032 178.99 0.979922 -91.02 0.979922 -91.02 0.199032 178.94
8.75285000 0.199216 178.98 0.979885 -91.03 0.979885 -91.03 0.199215 178.93
8.75290000 0.199399 178.97 0.979847 -91.04 0.979847 -91.04 0.199399 178.91
8.75295000 0.199583 178.96 0.979810 -91.05 0.979810 -91.05 0.199583 178.90
8.75300000 0.199768 178.95 0.979772 -91.06 0.979772 -91.06 0.199767 178.89
8.75305000 0.199953 178.93 0.979734 -91.07 0.979734 -91.07 0.199952 178.88
8.75310000 0.200138 178.92 0.979696 -91.08 0.979696 -91.08 0.200137 178.87
8.75315000 0.200323 178.91 0.979658 -91.10 0.979658 -91.10 0.200323 178.86
8.75320000 0.200509 178.90 0.979620 -91.11 0.979620 -91.11 0.200509 178.85
8.75325000 0.200695 178.89 0.979582 -91.12 0.979582 -91.12 0.200695 178.83
8.75330000 0.200882 178.88 0.979543 -91.13 0.979543 -91.13 0.200882 178.82
8.75335000 0.201069 178.87 0.979505 -91.14 0.979505 -91.14 0.201068 178.81
8.75340000 0.201256 178.86 0.979466 -91.15 0.979466 -91.15 0.201256 178.80
8.75345000 0.201444 178.84 0.979427 -91.16 0.979427 -91.16 0.201443 178.79
8.75350000 0.201632 178.83 0.979389 -91.18 0.979389 -91.18 0.201631 178.78
8.75355000 0.201820 178.82 0.979350 -91.19 0.979350 -91.19 0.201820 178.76
8.75360000 0.202009 178.81 0.979311 -91.20 0.979311 -91.20 0.202009 178.75
8.75365000 0.202198 178.80 0.979272 -91.21 0.979272 -91.21 0.202198 178.74
8.75370000 0.202387 178.79 0.979232 -91.22 0.979232 -91.22 0.202387 178.73
8.75375000 0.202577 178.78 0.979193 -91.23 0.979193 -91.23 0.202577 178.72
8.75380000 0.202767 178.76 0.979153 -91.24 0.979153 -91.24 0.202767 178.71
8.75385000 0.202958 178.75 0.979114 -91.26 0.979114 -91.26 0.202958 178.69
8.75390000 0.203149 178.74 0.979074 -91.27 0.979074 -91.27 0.203149 178.68
8.75395000 0.203340 178.73 0.979034 -91.28 0.979034 -91.28 0.203340 178.67
8.75400000 0.203532 178.72 0.978994 -91.29 0.978994 -91.29 0.203532 178.66
8.75405000 0.203724 178.71 0.978954 -91.30 0.978954 -91.30 0.203724 178.65
8.75410000 0.203917 178.70 0.978914 -91.31 0.978914 -91.31 0.203916 178.63
8.75415000 0.204109 178.68 0.978874 -91.33 0.978874 -91.33 0.204109 178.62
8.75420000 0.204303 178.67 0.978833 -91.34 0.978833 -91.34 0.204302 178.61
8.75425000 0.204496 178.66 0.978792 -91.35 0.978792 -91.35 0.204496 178.60
8.75430000 0.204690 178.65 0.978752 -91.36 0.978752 -91.36 0.204690 178.59
8.75435000 0.204884 178.64 0.978711 -91.37 0.978711 -91.37 0.204884 178.58
8.75440000 0.205079 178.63 0.978670 -91.39 0.978670 -91.39 0.205079 178.56
8.75445000 0.205274 178.61 0.978629 -91.40 0.978629 -91.40 0.205274 178.55
8.75450000 0.205470 178.60 0.978588 -91.41 0.978588 -91.41 0.205469 178.54
8.75455000 0.205666 178.59 0.978547 -91.42 0.978547 -91.42 0.205665 178.53
8.75460000 0.205862 178.58 0.978505 -91.43 0.978505 -91.43 0.205862 178.51
8.75465000 0.206059 178.57 0.978464 -91.44 0.978464 -91.44 0.206058 178.50
8.75470000 0.206256 178.55 0.978422 -91.46 0.978422 -91.46 0.206255 178.49
8.75475000 0.206453 178.54 0.978380 -91.47 0.978380 -91.47 0.206453 178.48
8.75480000 0.206651 178.53 0.978338 -91.48 0.978338 -91.48 0.206650 178.47
8.75485000 0.206849 178.52 0.978296 -91.49 0.978296 -91.49 0.206849 178.45
8.75490000 0.207048 178.51 0.978254 -91.51 0.978254 -91.51 0.207047 178.44
8.75495000 0.207247 178.49 0.978212 -91.52 0.978212 -91.52 0.207246 178.43
8.75500000 0.207446 178.48 0.978169 -91.53 0.978169 -91.53 0.207446 178.42
8.75505000 0.207646 178.47 0.978127 -91.54 0.978127 -91.54 0.207645 178.40
8.75510000 0.207846 178.46 0.978084 -91.55 0.978084 -91.55 0.207846 178.39
8.75515000 0.208047 178.45 0.978041 -91.57 0.978041 -91.57 0.208046 178.38
8.75520000 0.208247 178.43 0.977998 -91.58 0.977998 -91.58 0.208247 178.37
8.75525000 0.208449 178.42 0.977955 -91.59 0.977955 -91.59 0.208449 178.36
8.75530000 0.208651 178.41 0.977912 -91.60 0.977912 -91.60 0.208650 178.34
8.75535000 0.208853 178.40 0.977869 -91.61 0.977869 -91.61 0.208852 178.33
8.75540000 0.209055 178.39 0.977825 -91.63 0.977825 -91.63 0.209055 178.32
8.75545000 0.209258 178.37 0.977782 -91.64 0.977782 -91.64 0.209258 178.31
8.75550000 0.209462 178.36 0.977738 -91.65 0.977738 -91.65 0.209461 178.29
8.75555000 0.209666 178.35 0.977694 -91.66 0.977694 -91.66 0.209665 178.28
8.75560000 0.209870 178.34 0.977650 -91.68 0.977650 -91.68 0.209870 178.27
8.75565000 0.210074 178.32 0.977606 -91.69 0.977606 -91.69 0.210074 178.25
8.75570000 0.210280 178.31 0.977562 -91.70 0.977562 -91.70 0.210279 178.24
8.75575000 0.210485 178.30 0.977518 -91.71 0.977518 -91.71 0.210485 178.23
8.75580000 0.210691 178.29 0.977473 -91.73 0.977473 -91.73 0.210691 178.22
8.75585000 0.210897 178.27 0.977428 -91.74 0.977428 -91.74 0.210897 178.20
8.75590000 0.211104 178.26 0.977384 -91.75 0.977384 -91.75 0.211103 178.19
8.75595000 0.211311 178.25 0.977339 -91.76 0.977339 -91.76 0.211311 178.18
8.75600000 0.211519 178.24 0.977294 -91.78 0.977294 -91.78 0.211518 178.17
8.75605000 0.211726 178.22 0.977249 -91.79 0.977249 -91.79 0.211726 178.15
8.75610000 0.211935 178.21 0.977203 -91.80 0.977203 -91.80 0.211935 178.14
8.75615000 0.212144 178.20 0.977158 -91.82 0.977158 -91.82 0.212143 178.13
8.75620000 0.212353 178.19 0.977112 -91.83 0.977112 -91.83 0.212353 178.11
8.75625000 0.212563 178.17 0.977066 -91.84 0.977066 -91.84 0.212562 178.10
8.75630000 0.212773 178.16 0.977020 -91.85 0.977020 -91.85 0.212772 178.09
8.75635000 0.212983 178.15 0.976974 -91.87 0.976974 -91.87 0.212983 178.08
8.75640000 0.213194 178.14 0.976928 -91.88 0.976928 -91.88 0.213194 178.06
8.75645000 0.213405 178.12 0.976882 -91.89 0.976882 -91.89 0.213405 178.05
8.75650000 0.213617 178.11 0.976836 -91.90 0.976836 -91.90 0.213617 178.04
8.75655000 0.213830 178.10 0.976789 -91.92 0.976789 -91.92 0.213829 178.02
8.75660000 0.214042 178.09 0.976742 -91.93 0.976742 -91.93 0.214042 178.01
8.75665000 0.214255 178.07 0.976695 -91.94 0.976695 -91.94 0.214255 178.00
8.75670000 0.214469 178.06 0.976648 -91.96 0.976648 -91.96 0.214468 177.98
8.75675000 0.214683 178.05 0.976601 -91.97 0.976601 -91.97 0.214682 177.97
8.75680000 0.214897 178.03 0.976554 -91.98 0.976554 -91.98 0.214897 177.96
8.75685000 0.215112 178.02 0.976506 -92.00 0.976506 -92.00 0.215112 177.94
8.75690000 0.215327 178.01 0.976459 -92.01 0.976459 -92.01 0.215327 177.93
8.75695000 0.215543 177.99 0.976411 -92.02 0.976411 -92.02 0.215543 177.92
8.75700000 0.215759 177.98 0.976363 -92.03 0.976363 -92.03 0.215759 177.90
8.75705000 0.215976 177.97 0.976315 -92.05 0.976315 -92.05 0.215976 177.89
8.75710000 0.216193 177.96 0.976267 -92.06 0.976267 -92.06 0.216193 177.88
8.75715000 0.216411 177.94 0.976218 -92.07 0.976218 -92.07 0.216410 177.86
8.75720000 0.216629 177.93 0.976170 -92.09 0.976170 -92.09 0.216628 177.85
8.75725000 0.216847 177.92 0.976121 -92.10 0.976121 -92.10 0.216847 177.84
8.75730000 0.217066 177.90 0.976072 -92.11 0.976072 -92.11 0.217066 177.82
8.75735000 0.217285 177.89 0.976023 -92.13 0.976023 -92.13 0.217285 177.81
8.75740000 0.217505 177.88 0.975974 -92.14 0.975974 -92.14 0.217505 177.80
8.75745000 0.217725 177.86 0.975925 -92.15 0.975925 -92.15 0.217725 177.78
8.75750000 0.217946 177.85 0.975875 -92.17 0.975875 -92.17 0.217946 177.77
8.75755000 0.218167 177.84 0.975826 -92.18 0.975826 -92.18 0.218167 177.76
8.75760000 0.218389 177.82 0.975776 -92.19 0.975776 -92.19 0.218388 177.74
8.75765000 0.218611 177.81 0.975726 -92.21 0.975726 -92.21 0.218611 177.73
8.75770000 0.218834 177.80 0.975676 -92.22 0.975676 -92.22 0.218833 177.72
8.75775000 0.219057 177.78 0.975626 -92.24 0.975626 -92.24 0.219056 177.70
8.75780000 0.219280 177.77 0.975575 -92.25 0.975575 -92.25 0.219280 177.69
8.75785000 0.219504 177.76 0.975525 -92.26 0.975525 -92.26 0.219504 177.67
8.75790000 0.219728 177.74 0.975474 -92.28 0.975474 -92.28 0.219728 177.66
8.75795000 0.219953 177.73 0.975423 -92.29 0.975423 -92.29 0.219953 177.65
8.75800000 0.220179 177.72 0.975372 -92.30 0.975372 -92.30 0.220178 177.63
8.75805000 0.220405 177.70 0.975321 -92.32 0.975321 -92.32 0.220404 177.62
8.75810000 0.220631 177.69 0.975270 -92.33 0.975270 -92.33 0.220631 177.61
8.75815000 0.220858 177.67 0.975218 -92.34 0.975218 -92.34 0.220857 177.59
8.75820000 0.221085 177.66 0.975167 -92.36 0.975167 -92.36 0.221085 177.58
8.75825000 0.221313 177.65 0.975115 -92.37 0.975115 -92.37 0.221312 177.56
8.75830000 0.221541 177.63 0.975063 -92.39 0.975063 -92.39 0.221541 177.55
8.75835000 0.221770 177.62 0.975011 -92.40 0.975011 -92.40 0.221769 177.54
8.75840000 0.221999 177.61 0.974958 -92.41 0.974958 -92.41 0.221999 177.52
8.75845000 0.222229 177.59 0.974906 -92.43 0.974906 -92.43 0.222228 177.51
8.75850000 0.222459 177.58 0.974853 -92.44 0.974853 -92.44 0.222459 177.49
8.75855000 0.222690 177.56 0.974800 -92.46 0.974800 -92.46 0.222689 177.48
8.75860000 0.222921 177.55 0.974747 -92.47 0.974747 -92.47 0.222920 177.46
8.75865000 0.223152 177.54 0.974694 -92.48 0.974694 -92.48 0.223152 177.45
8.75870000 0.223385 177.52 0.974641 -92.50 0.974641 -92.50 0.223384 177.44
8.75875000 0.223617 177.51 0.974587 -92.51 0.974587 -92.51 0.223617 177.42
8.75880000 0.223850 177.49 0.974533 -92.53 0.974533 -92.53 0.223850 177.41
8.75885000 0.224084 177.48 0.974479 -92.54 0.974479 -92.54 0.224084 177.39
8.75890000 0.224318 177.47 0.974425 -92.56 0.974425 -92.56 0.224318 177.38
8.75895000 0.224553 177.45 0.974371 -92.57 0.974371 -92.57 0.224552 177.36
8.75900000 0.224788 177.44 0.974317 -92.58 0.974317 -92.58 0.224788 177.35
8.75905000 0.225024 177.42 0.974262 -92.60 0.974262 -92.60 0.225023 177.34
8.75910000 0.225260 177.41 0.974207 -92.61 0.974207 -92.61 0.225259 177.32
8.75915000 0.225497 177.39 0.974152 -92.63 0.974152 -92.63 0.225496 177.31
8.75920000 0.225734 177.38 0.974097 -92.64 0.974097 -92.64 0.225733 177.29
8.75925000 0.225971 177.37 0.974042 -92.66 0.974042 -92.66 0.225971 177.28
8.75930000 0.226210 177.35 0.973986 -92.67 0.973986 -92.67 0.226209 177.26
8.75935000 0.226448 177.34 0.973931 -92.68 0.973931 -92.68 0.226448 177.25
8.75940000 0.226688 177.32 0.973875 -92.70 0.973875 -92.70 0.226687 177.23
8.75945000 0.226927 177.31 0.973819 -92.71 0.973819 -92.71 0.226927 177.22
8.75950000 0.227168 177.29 0.973763 -92.73 0.973763 -92.73 0.227167 177.20
8.75955000 0.227408 177.28 0.973706 -92.74 0.973706 -92.74 0.227408 177.19
8.75960000 0.227650 177.27 0.973650 -92.76 0.973650 -92.76 0.227649 177.17
8.75965000 0.227892 177.25 0.973593 -92.77 0.973593 -92.77 0.227891 177.16
8.75970000 0.228134 177.24 0.973536 -92.79 0.973536 -92.79 0.228134 177.14
8.75975000 0.228377 177.22 0.973479 -92.80 0.973479 -92.80 0.228376 177.13
8.75980000 0.228620 177.21 0.973421 -92.82 0.973421 -92.82 0.228620 177.11
8.75985000 0.228864 177.19 0.973364 -92.83 0.973364 -92.83 0.228864 177.10
8.75990000 0.229109 177.18 0.973306 -92.85 0.973306 -92.85 0.229108 177.08
8.75995000 0.229354 177.16 0.973248 -92.86 0.973248 -92.86 0.229353 177.07
8.76000000 0.229599 177.15 0.973190 -92.88 0.973190 -92.88 0.229599 177.05
8.76005000 0.229845 177.13 0.973132 -92.89 0.973132 -92.89 0.229845 177.04
8.76010000 0.230092 177.12 0.973073 -92.91 0.973073 -92.91 0.230092 177.02
8.76015000 0.230339 177.10 0.973015 -92.92 0.973015 -92.92 0.230339 177.01
8.76020000 0.230587 177.09 0.972956 -92.94 0.972956 -92.94 0.230587 176.99
8.76025000 0.230835 177.07 0.972897 -92.95 0.972897 -92.95 0.230835 176.98
8.76030000 0.231084 177.06 0.972837 -92.97 0.972837 -92.97 0.231084 176.96
8.76035000 0.231333 177.04 0.972778 -92.98 0.972778 -92.98 0.231333 176.95
8.76040000 0.231583 177.03 0.972718 -93.00 0.972718 -93.00 0.231583 176.93
8.76045000 0.231834 177.01 0.972658 -93.01 0.972658 -93.01 0.231833 176.92
8.76050000 0.232085 177.00 0.972598 -93.03 0.972598 -93.03 0.232084 176.90
8.76055000 0.232336 176.98 0.972538 -93.04 0.972538 -93.04 0.232336 176.89
8.76060000 0.232589 176.97 0.972478 -93.06 0.972478 -93.06 0.232588 176.87
8.76065000 0.232841 176.95 0.972417 -93.07 0.972417 -93.07 0.232841 176.85
8.76070000 0.233094 176.94 0.972356 -93.09 0.972356 -93.09 0.233094 176.84
8.76075000 0.233348 176.92 0.972295 -93.10 0.972295 -93.10 0.233348 176.82
8.76080000 0.233603 176.91 0.972234 -93.12 0.972234 -93.12 0.233602 176.81
8.76085000 0.233858 176.89 0.972172 -93.13 0.972172 -93.13 0.233857 176.79
8.76090000 0.234113 176.88 0.972110 -93.15 0.972110 -93.15 0.234113 176.78
8.76095000 0.234369 176.86 0.972048 -93.17 0.972048 -93.17 0.234369 176.76
8.76100000 0.234626 176.84 0.971986 -93.18 0.971986 -93.18 0.234625 176.75
8.76105000 0.234883 176.83 0.971924 -93.20 0.971924 -93.20 0.234883 176.73
8.76110000 0.235141 176.81 0.971861 -93.21 0.971861 -93.21 0.235140 176.71
8.76115000 0.235399 176.80 0.971799 -93.23 0.971799 -93.23 0.235399 176.70
8.76120000 0.235658 176.78 0.971736 -93.24 0.971736 -93.24 0.235658 176.68
8.76125000 0.235918 176.77 0.971672 -93.26 0.971672 -93.26 0.235917 176.67
8.76130000 0.236178 176.75 0.971609 -93.28 0.971609 -93.28 0.236177 176.65
8.76135000 0.236439 176.74 0.971545 -93.29 0.971545 -93.29 0.236438 176.63
8.76140000 0.236700 176.72 0.971481 -93.31 0.971481 -93.31 0.236699 176.62
8.76145000 0.236962 176.70 0.971417 -93.32 0.971417 -93.32 0.236961 176.60
8.76150000 0.237224 176.69 0.971353 -93.34 0.971353 -93.34 0.237224 176.59
8.76155000 0.237487 176.67 0.971289 -93.35 0.971289 -93.35 0.237487 176.57
8.76160000 0.237751 176.66 0.971224 -93.37 0.971224 -93.37 0.237751 176.55
8.76165000 0.238015 176.64 0.971159 -93.39 0.971159 -93.39 0.238015 176.54
8.76170000 0.238280 176.62 0.971094 -93.40 0.971094 -93.40 0.238280 176.52
8.76175000 0.238546 176.61 0.971028 -93.42 0.971028 -93.42 0.238545 176.50
8.76180000 0.238812 176.59 0.970963 -93.44 0.970963 -93.44 0.238811 176.49
8.76185000 0.239078 176.58 0.970897 -93.45 0.970897 -93.45 0.239078 176.47
8.76190000 0.239346 176.56 0.970831 -93.47 0.970831 -93.47 0.239345 176.46
8.76195000 0.239613 176.54 0.970764 -93.48 0.970764 -93.48 0.239613 176.44
8.76200000 0.239882 176.53 0.970698 -93.50 0.970698 -93.50 0.239881 176.42
8.76205000 0.240151 176.51 0.970631 -93.52 0.970631 -93.52 0.240151 176.41
8.76210000 0.240421 176.50 0.970564 -93.53 0.970564 -93.53 0.240420 176.39
8.76215000 0.240691 176.48 0.970497 -93.55 0.970497 -93.55 0.240691 176.37
8.76220000 0.240962 176.46 0.970429 -93.57 0.970429 -93.57 0.240962 176.36
8.76225000 0.241234 176.45 0.970362 -93.58 0.970362 -93.58 0.241233 176.34
8.76230000 0.241506 176.43 0.970294 -93.60 0.970294 -93.60 0.241505 176.32
8.76235000 0.241779 176.41 0.970226 -93.62 0.970226 -93.62 0.241778 176.31
8.76240000 0.242052 176.40 0.970157 -93.63 0.970157 -93.63 0.242052 176.29
8.76245000 0.242326 176.38 0.970088 -93.65 0.970088 -93.65 0.242326 176.27
8.76250000 0.242601 176.36 0.970020 -93.67 0.970020 -93.67 0.242600 176.26
8.76255000 0.242876 176.35 0.969950 -93.68 0.969950 -93.68 0.242876 176.24
8.76260000 0.243152 176.33 0.969881 -93.70 0.969881 -93.70 0.243152 176.22
8.76265000 0.243429 176.31 0.969811 -93.72 0.969811 -93.72 0.243428 176.21
8.76270000 0.243706 176.30 0.969741 -93.73 0.969741 -93.73 0.243706 176.19
8.76275000 0.243984 176.28 0.969671 -93.75 0.969671 -93.75 0.243983 176.17
8.76280000 0.244262 176.26 0.969601 -93.77 0.969601 -93.77 0.244262 176.15
8.76285000 0.244542 176.25 0.969530 -93.78 0.969530 -93.78 0.244541 176.14
8.76290000 0.244821 176.23 0.969459 -93.80 0.969459 -93.80 0.244821 176.12
8.76295000 0.245102 176.21 0.969388 -93.82 0.969388 -93.82 0.245101 176.10
8.76300000 0.245383 176.20 0.969317 -93.83 0.969317 -93.83 0.245383 176.09
8.76305000 0.245665 176.18 0.969245 -93.85 0.969245 -93.85 0.245664 176.07
8.76310000 0.245947 176.16 0.969173 -93.87 0.969173 -93.87 0.245947 176.05
8.76315000 0.246230 176.14 0.969101 -93.89 0.969101 -93.89 0.246230 176.03
8.76320000 0.246514 176.13 0.969029 -93.90 0.969029 -93.90 0.246514 176.02
8.76325000 0.246799 176.11 0.968956 -93.92 0.968956 -93.92 0.246798 176.00
8.76330000 0.247084 176.09 0.968883 -93.94 0.968883 -93.94 0.247083 175.98
8.76335000 0.247369 176.08 0.968810 -93.95 0.968810 -93.95 0.247369 175.96
8.76340000 0.247656 176.06 0.968737 -93.97 0.968737 -93.97 0.247655 175.95
8.76345000 0.247943 176.04 0.968663 -93.99 0.968663 -93.99 0.247943 175.93
8.76350000 0.248231 176.02 0.968589 -94.01 0.968589 -94.01 0.248230 175.91
8.76355000 0.248519 176.01 0.968515 -94.02 0.968515 -94.02 0.248519 175.89
8.76360000 0.248808 175.99 0.968440 -94.04 0.968440 -94.04 0.248808 175.88
8.76365000 0.249098 175.97 0.968366 -94.06 0.968366 -94.06 0.249098 175.86
8.76370000 0.249389 175.95 0.968290 -94.08 0.968290 -94.08 0.249388 175.84
8.76375000 0.249680 175.94 0.968215 -94.10 0.968215 -94.10 0.249679 175.82
8.76380000 0.249972 175.92 0.968140 -94.11 0.968140 -94.11 0.249971 175.80
8.76385000 0.250264 175.90 0.968064 -94.13 0.968064 -94.13 0.250264 175.79
8.76390000 0.250558 175.88 0.967988 -94.15 0.967988 -94.15 0.250557 175.77
8.76395000 0.250852 175.87 0.967911 -94.17 0.967911 -94.17 0.250851 175.75
8.76400000 0.251146 175.85 0.967834 -94.18 0.967834 -94.18 0.251146 175.73
8.76405000 0.251442 175.83 0.967758 -94.20 0.967758 -94.20 0.251441 175.71
8.76410000 0.251738 175.81 0.967680 -94.22 0.967680 -94.22 0.251737 175.70
8.76415000 0.252034 175.79 0.967603 -94.24 0.967603 -94.24 0.252034 175.68
8.76420000 0.252332 175.78 0.967525 -94.26 0.967525 -94.26 0.252332 175.66
8.76425000 0.252630 175.76 0.967447 -94.27 0.967447 -94.27 0.252630 175.64
8.76430000 0.252929 175.74 0.967368 -94.29 0.967368 -94.29 0.252929 175.62
8.76435000 0.253229 175.72 0.967290 -94.31 0.967290 -94.31 0.253228 175.60
8.76440000 0.253529 175.70 0.967211 -94.33 0.967211 -94.33 0.253529 175.59
8.76445000 0.253830 175.69 0.967132 -94.35 0.967132 -94.35 0.253830 175.57
8.76450000 0.254132 175.67 0.967052 -94.37 0.967052 -94.37 0.254131 175.55
8.76455000 0.254434 175.65 0.966972 -94.38 0.966972 -94.38 0.254434 175.53
8.76460000 0.254738 175.63 0.966892 -94.40 0.966892 -94.40 0.254737 175.51
8.76465000 0.255042 175.61 0.966812 -94.42 0.966812 -94.42 0.255041 175.49
8.76470000 0.255346 175.59 0.966731 -94.44 0.966731 -94.44 0.255346 175.47
8.76475000 0.255652 175.58 0.966650 -94.46 0.966650 -94.46 0.255651 175.46
8.76480000 0.255958 175.56 0.966569 -94.48 0.966569 -94.48 0.255957 175.44
8.76485000 0.256265 175.54 0.966487 -94.50 0.966487 -94.50 0.256264 175.42
8.76490000 0.256573 175.52 0.966405 -94.51 0.966405 -94.51 0.256572 175.40
8.76495000 0.256881 175.50 0.966323 -94.53 0.966323 -94.53 0.256880 175.38
8.76500000 0.257190 175.48 0.966240 -94.55 0.966240 -94.55 0.257190 175.36
8.76505000 0.257500 175.46 0.966157 -94.57 0.966157 -94.57 0.257500 175.34
8.76510000 0.257811 175.45 0.966074 -94.59 0.966074 -94.59 0.257810 175.32
8.76515000 0.258122 175.43 0.965991 -94.61 0.965991 -94.61 0.258122 175.30
8.76520000 0.258434 175.41 0.965907 -94.63 0.965907 -94.63 0.258434 175.28
8.76525000 0.258747 175.39 0.965823 -94.65 0.965823 -94.65 0.258747 175.27
8.76530000 0.259061 175.37 0.965739 -94.67 0.965739 -94.67 0.259060 175.25
8.76535000 0.259375 175.35 0.965654 -94.68 0.965654 -94.68 0.259375 175.23
8.76540000 0.259691 175.33 0.965569 -94.70 0.965569 -94.70 0.259690 175.21
8.76545000 0.260007 175.31 0.965484 -94.72 0.965484 -94.72 0.260006 175.19
8.76550000 0.260323 175.29 0.965398 -94.74 0.965398 -94.74 0.260323 175.17
8.76555000 0.260641 175.27 0.965312 -94.76 0.965312 -94.76 0.260641 175.15
8.76560000 0.260959 175.26 0.965226 -94.78 0.965226 -94.78 0.260959 175.13
8.76565000 0.261279 175.24 0.965139 -94.80 0.965139 -94.80 0.261278 175.11
8.76570000 0.261598 175.22 0.965052 -94.82 0.965052 -94.82 0.261598 175.09
8.76575000 0.261919 175.20 0.964965 -94.84 0.964965 -94.84 0.261919 175.07
8.76580000 0.262241 175.18 0.964877 -94.86 0.964877 -94.86 0.262240 175.05
8.76585000 0.262563 175.16 0.964789 -94.88 0.964789 -94.88 0.262563 175.03
8.76590000 0.262886 175.14 0.964701 -94.90 0.964701 -94.90 0.262886 175.01
8.76595000 0.263210 175.12 0.964612 -94.92 0.964612 -94.92 0.263210 174.99
8.76600000 0.263535 175.10 0.964523 -94.94 0.964523 -94.94 0.263534 174.97
8.76605000 0.263860 175.08 0.964434 -94.96 0.964434 -94.96 0.263860 174.95
8.76610000 0.264187 175.06 0.964344 -94.98 0.964344 -94.98 0.264186 174.93
8.76615000 0.264514 175.04 0.964254 -95.00 0.964254 -95.00 0.264513 174.91
8.76620000 0.264842 175.02 0.964164 -95.02 0.964164 -95.02 0.264841 174.89
8.76625000 0.265170 175.00 0.964073 -95.04 0.964073 -95.04 0.265170 174.87
8.76630000 0.265500 174.98 0.963982 -95.06 0.963982 -95.06 0.265500 174.85
8.76635000 0.265830 174.96 0.963891 -95.08 0.963891 -95.08 0.265830 174.83
8.76640000 0.266162 174.94 0.963799 -95.10 0.963799 -95.10 0.266161 174.81
8.76645000 0.266494 174.92 0.963707 -95.12 0.963707 -95.12 0.266493 174.79
8.76650000 0.266827 174.90 0.963614 -95.14 0.963614 -95.14 0.266826 174.77
8.76655000 0.267160 174.88 0.963522 -95.16 0.963522 -95.16 0.267160 174.75
8.76660000 0.267495 174.86 0.963428 -95.18 0.963428 -95.18 0.267495 174.73
8.76665000 0.267830 174.84 0.963335 -95.20 0.963335 -95.20 0.267830 174.71
8.76670000 0.268167 174.82 0.963241 -95.22 0.963241 -95.22 0.268166 174.69
8.76675000 0.268504 174.80 0.963147 -95.24 0.963147 -95.24 0.268503 174.67
8.76680000 0.268842 174.78 0.963052 -95.26 0.963052 -95.26 0.268841 174.65
8.76685000 0.269181 174.76 0.962957 -95.28 0.962957 -95.28 0.269180 174.63
8.76690000 0.269520 174.74 0.962862 -95.30 0.962862 -95.30 0.269520 174.60
8.76695000 0.269861 174.72 0.962766 -95.32 0.962766 -95.32 0.269860 174.58
8.76700000 0.270202 174.70 0.962670 -95.34 0.962670 -95.34 0.270202 174.56
8.76705000 0.270545 174.68 0.962573 -95.36 0.962573 -95.36 0.270544 174.54
8.76710000 0.270888 174.65 0.962477 -95.38 0.962477 -95.38 0.270887 174.52
8.76715000 0.271232 174.63 0.962379 -95.41 0.962379 -95.41 0.271231 174.50
8.76720000 0.271577 174.61 0.962282 -95.43 0.962282 -95.43 0.271576 174.48
8.76725000 0.271922 174.59 0.962184 -95.45 0.962184 -95.45 0.271922 174.46
8.76730000 0.272269 174.57 0.962085 -95.47 0.962085 -95.47 0.272269 174.44
8.76735000 0.272617 174.55 0.961987 -95.49 0.961987 -95.49 0.272616 174.41
8.76740000 0.272965 174.53 0.961887 -95.51 0.961887 -95.51 0.272965 174.39
8.76745000 0.273314 174.51 0.961788 -95.53 0.961788 -95.53 0.273314 174.37
8.76750000 0.273665 174.49 0.961688 -95.55 0.961688 -95.55 0.273664 174.35
8.76755000 0.274016 174.47 0.961588 -95.57 0.961588 -95.57 0.274015 174.33
8.76760000 0.274368 174.44 0.961487 -95.60 0.961487 -95.60 0.274367 174.31
8.76765000 0.274721 174.42 0.961386 -95.62 0.961386 -95.62 0.274720 174.29
8.76770000 0.275075 174.40 0.961284 -95.64 0.961284 -95.64 0.275074 174.26
8.76775000 0.275429 174.38 0.961182 -95.66 0.961182 -95.66 0.275429 174.24
8.76780000 0.275785 174.36 0.961080 -95.68 0.961080 -95.68 0.275784 174.22
8.76785000 0.276142 174.34 0.960977 -95.70 0.960977 -95.70 0.276141 174.20
8.76790000 0.276499 174.31 0.960874 -95.73 0.960874 -95.73 0.276499 174.18
8.76795000 0.276858 174.29 0.960770 -95.75 0.960770 -95.75 0.276857 174.15
8.76800000 0.277217 174.27 0.960666 -95.77 0.960666 -95.77 0.277216 174.13
8.76805000 0.277577 174.25 0.960562 -95.79 0.960562 -95.79 0.277577 174.11
8.76810000 0.277938 174.23 0.960457 -95.81 0.960457 -95.81 0.277938 174.09
8.76815000 0.278301 174.21 0.960352 -95.84 0.960352 -95.84 0.278300 174.07
8.76820000 0.278664 174.18 0.960246 -95.86 0.960246 -95.86 0.278663 174.04
8.76825000 0.279028 174.16 0.960140 -95.88 0.960140 -95.88 0.279027 174.02
8.76830000 0.279393 174.14 0.960033 -95.90 0.960033 -95.90 0.279392 174.00
8.76835000 0.279759 174.12 0.959926 -95.92 0.959926 -95.92 0.279758 173.98
8.76840000 0.280126 174.10 0.959819 -95.95 0.959819 -95.95 0.280125 173.95
8.76845000 0.280494 174.07 0.959711 -95.97 0.959711 -95.97 0.280493 173.93
8.76850000 0.280863 174.05 0.959603 -95.99 0.959603 -95.99 0.280862 173.91
8.76855000 0.281232 174.03 0.959494 -96.01 0.959494 -96.01 0.281232 173.89
8.76860000 0.281603 174.01 0.959385 -96.04 0.959385 -96.04 0.281603 173.86
8.76865000 0.281975 173.98 0.959275 -96.06 0.959275 -96.06 0.281975 173.84
8.76870000 0.282348 173.96 0.959165 -96.08 0.959165 -96.08 0.282347 173.82
8.76875000 0.282722 173.94 0.959055 -96.10 0.959055 -96.10 0.282721 173.79
8.76880000 0.283096 173.91 0.958944 -96.13 0.958944 -96.13 0.283096 173.77
8.76885000 0.283472 173.89 0.958833 -96.15 0.958833 -96.15 0.283472 173.75
8.76890000 0.283849 173.87 0.958721 -96.17 0.958721 -96.17 0.283848 173.72
8.76895000 0.284226 173.85 0.958608 -96.20 0.958608 -96.20 0.284226 173.70
8.76900000 0.284605 173.82 0.958496 -96.22 0.958496 -96.22 0.284605 173.68
8.76905000 0.284985 173.80 0.958382 -96.24 0.958382 -96.24 0.284984 173.65
8.76910000 0.285366 173.78 0.958269 -96.27 0.958269 -96.27 0.285365 173.63
8.76915000 0.285747 173.75 0.958154 -96.29 0.958154 -96.29 0.285747 173.61
8.76920000 0.286130 173.73 0.958040 -96.31 0.958040 -96.31 0.286130 173.58
8.76925000 0.286514 173.71 0.957925 -96.34 0.957925 -96.34 0.286514 173.56
8.76930000 0.286899 173.68 0.957809 -96.36 0.957809 -96.36 0.286898 173.54
8.76935000 0.287285 173.66 0.957693 -96.38 0.957693 -96.38 0.287284 173.51
8.76940000 0.287672 173.64 0.957576 -96.41 0.957576 -96.41 0.287671 173.49
8.76945000 0.288060 173.61 0.957459 -96.43 0.957459 -96.43 0.288059 173.47
8.76950000 0.288449 173.59 0.957342 -96.45 0.957342 -96.45 0.288448 173.44
8.76955000 0.288839 173.57 0.957224 -96.48 0.957224 -96.48 0.288838 173.42
8.76960000 0.289230 173.54 0.957105 -96.50 0.957105 -96.50 0.289229 173.39