! Sonnet Data File
! From: emgraph Version : 16.52
! From Project: transmon_trial
! Data is De-embedded 
! Data File Written: 10/20/2017 09:13:07
!< HDATE 10/19/2017 20:03:37
!< MDATE 10/19/2017 20:10:25
!< PARAMS
!< Lj = 15.24
!< Gap = 16.0
!< Width = 20.0
!< Airgap = 12.0
!< Pwidth = 2000.0
!< END PARAMS
# GHZ S MA R 51.00000
8.65000000 0.004638 9.4381 0.999985 -80.37 0.999985 -80.37 0.004638 9.9052
!< P1 F=8.65 Eeff=(6.44623598 -2.9974e-5) Z0=(50.9069312 1.15726e-4) R=0.0 C=0.0 
!< P2 F=8.65 Eeff=(6.44623598 -2.9974e-5) Z0=(50.9069312 1.15726e-4) R=0.0 C=0.0 
8.65010000 0.004632 9.4362 0.999985 -80.37 0.999985 -80.37 0.004632 9.9047
8.65020000 0.004626 9.4342 0.999985 -80.37 0.999985 -80.37 0.004626 9.9042
8.65030000 0.004620 9.4323 0.999985 -80.37 0.999985 -80.37 0.004620 9.9037
8.65040000 0.004614 9.4303 0.999985 -80.37 0.999985 -80.37 0.004614 9.9033
8.65050000 0.004608 9.4284 0.999985 -80.38 0.999985 -80.38 0.004608 9.9028
8.65060000 0.004602 9.4264 0.999985 -80.38 0.999985 -80.38 0.004602 9.9023
8.65070000 0.004596 9.4244 0.999985 -80.38 0.999985 -80.38 0.004596 9.9019
8.65080000 0.004590 9.4225 0.999985 -80.38 0.999985 -80.38 0.004590 9.9014
8.65090000 0.004584 9.4205 0.999985 -80.38 0.999985 -80.38 0.004584 9.9010
8.65100000 0.004578 9.4185 0.999985 -80.38 0.999985 -80.38 0.004578 9.9005
8.65110000 0.004572 9.4165 0.999985 -80.38 0.999985 -80.38 0.004572 9.9000
8.65120000 0.004566 9.4146 0.999985 -80.38 0.999985 -80.38 0.004566 9.8996
8.65130000 0.004560 9.4126 0.999985 -80.39 0.999985 -80.39 0.004560 9.8992
8.65140000 0.004554 9.4106 0.999985 -80.39 0.999985 -80.39 0.004554 9.8987
8.65150000 0.004548 9.4086 0.999985 -80.39 0.999985 -80.39 0.004548 9.8983
8.65160000 0.004542 9.4066 0.999985 -80.39 0.999985 -80.39 0.004542 9.8978
8.65170000 0.004536 9.4046 0.999985 -80.39 0.999985 -80.39 0.004536 9.8974
8.65180000 0.004530 9.4026 0.999985 -80.39 0.999985 -80.39 0.004530 9.8970
8.65190000 0.004523 9.4006 0.999985 -80.39 0.999985 -80.39 0.004523 9.8965
8.65200000 0.004517 9.3986 0.999985 -80.39 0.999985 -80.39 0.004517 9.8961
8.65210000 0.004511 9.3966 0.999985 -80.40 0.999985 -80.40 0.004511 9.8957
8.65220000 0.004505 9.3946 0.999985 -80.40 0.999985 -80.40 0.004505 9.8953
8.65230000 0.004499 9.3926 0.999986 -80.40 0.999986 -80.40 0.004499 9.8948
8.65240000 0.004493 9.3906 0.999986 -80.40 0.999986 -80.40 0.004493 9.8944
8.65250000 0.004487 9.3886 0.999986 -80.40 0.999986 -80.40 0.004487 9.8940
8.65260000 0.004481 9.3866 0.999986 -80.40 0.999986 -80.40 0.004481 9.8936
8.65270000 0.004475 9.3845 0.999986 -80.40 0.999986 -80.40 0.004475 9.8932
8.65280000 0.004469 9.3825 0.999986 -80.40 0.999986 -80.40 0.004469 9.8928
8.65290000 0.004462 9.3805 0.999986 -80.41 0.999986 -80.41 0.004462 9.8924
8.65300000 0.004456 9.3785 0.999986 -80.41 0.999986 -80.41 0.004456 9.8920
8.65310000 0.004450 9.3764 0.999986 -80.41 0.999986 -80.41 0.004450 9.8916
8.65320000 0.004444 9.3744 0.999986 -80.41 0.999986 -80.41 0.004444 9.8912
8.65330000 0.004438 9.3724 0.999986 -80.41 0.999986 -80.41 0.004438 9.8908
8.65340000 0.004432 9.3703 0.999986 -80.41 0.999986 -80.41 0.004432 9.8904
8.65350000 0.004426 9.3683 0.999986 -80.41 0.999986 -80.41 0.004426 9.8900
8.65360000 0.004419 9.3662 0.999986 -80.42 0.999986 -80.42 0.004419 9.8896
8.65370000 0.004413 9.3642 0.999986 -80.42 0.999986 -80.42 0.004413 9.8893
8.65380000 0.004407 9.3621 0.999986 -80.42 0.999986 -80.42 0.004407 9.8889
8.65390000 0.004401 9.3601 0.999986 -80.42 0.999986 -80.42 0.004401 9.8885
8.65400000 0.004395 9.3580 0.999986 -80.42 0.999986 -80.42 0.004395 9.8881
8.65410000 0.004388 9.3559 0.999986 -80.42 0.999986 -80.42 0.004388 9.8878
8.65420000 0.004382 9.3539 0.999986 -80.42 0.999986 -80.42 0.004382 9.8874
8.65430000 0.004376 9.3518 0.999986 -80.42 0.999986 -80.42 0.004376 9.8871
8.65440000 0.004370 9.3497 0.999986 -80.43 0.999986 -80.43 0.004370 9.8867
8.65450000 0.004364 9.3476 0.999986 -80.43 0.999986 -80.43 0.004364 9.8863
8.65460000 0.004357 9.3456 0.999986 -80.43 0.999986 -80.43 0.004357 9.8860
8.65470000 0.004351 9.3435 0.999986 -80.43 0.999986 -80.43 0.004351 9.8856
8.65480000 0.004345 9.3414 0.999986 -80.43 0.999986 -80.43 0.004345 9.8853
8.65490000 0.004339 9.3393 0.999986 -80.43 0.999986 -80.43 0.004339 9.8850
8.65500000 0.004332 9.3372 0.999986 -80.43 0.999986 -80.43 0.004333 9.8846
8.65510000 0.004326 9.3351 0.999986 -80.43 0.999986 -80.43 0.004326 9.8843
8.65520000 0.004320 9.3330 0.999986 -80.44 0.999986 -80.44 0.004320 9.8840
8.65530000 0.004314 9.3309 0.999986 -80.44 0.999986 -80.44 0.004314 9.8836
8.65540000 0.004307 9.3288 0.999986 -80.44 0.999986 -80.44 0.004308 9.8833
8.65550000 0.004301 9.3267 0.999986 -80.44 0.999986 -80.44 0.004301 9.8830
8.65560000 0.004295 9.3246 0.999986 -80.44 0.999986 -80.44 0.004295 9.8827
8.65570000 0.004289 9.3225 0.999986 -80.44 0.999986 -80.44 0.004289 9.8823
8.65580000 0.004282 9.3203 0.999986 -80.44 0.999986 -80.44 0.004282 9.8820
8.65590000 0.004276 9.3182 0.999986 -80.44 0.999986 -80.44 0.004276 9.8817
8.65600000 0.004270 9.3161 0.999986 -80.45 0.999986 -80.45 0.004270 9.8814
8.65610000 0.004263 9.3140 0.999987 -80.45 0.999987 -80.45 0.004264 9.8811
8.65620000 0.004257 9.3118 0.999987 -80.45 0.999987 -80.45 0.004257 9.8808
8.65630000 0.004251 9.3097 0.999987 -80.45 0.999987 -80.45 0.004251 9.8805
8.65640000 0.004245 9.3076 0.999987 -80.45 0.999987 -80.45 0.004245 9.8802
8.65650000 0.004238 9.3054 0.999987 -80.45 0.999987 -80.45 0.004238 9.8800
8.65660000 0.004232 9.3033 0.999987 -80.45 0.999987 -80.45 0.004232 9.8797
8.65670000 0.004226 9.3011 0.999987 -80.46 0.999987 -80.46 0.004226 9.8794
8.65680000 0.004219 9.2990 0.999987 -80.46 0.999987 -80.46 0.004219 9.8791
8.65690000 0.004213 9.2968 0.999987 -80.46 0.999987 -80.46 0.004213 9.8788
8.65700000 0.004207 9.2946 0.999987 -80.46 0.999987 -80.46 0.004207 9.8786
8.65710000 0.004200 9.2925 0.999987 -80.46 0.999987 -80.46 0.004200 9.8783
8.65720000 0.004194 9.2903 0.999987 -80.46 0.999987 -80.46 0.004194 9.8781
8.65730000 0.004187 9.2881 0.999987 -80.46 0.999987 -80.46 0.004188 9.8778
8.65740000 0.004181 9.2859 0.999987 -80.46 0.999987 -80.46 0.004181 9.8775
8.65750000 0.004175 9.2838 0.999987 -80.47 0.999987 -80.47 0.004175 9.8773
8.65760000 0.004168 9.2816 0.999987 -80.47 0.999987 -80.47 0.004168 9.8770
8.65770000 0.004162 9.2794 0.999987 -80.47 0.999987 -80.47 0.004162 9.8768
8.65780000 0.004156 9.2772 0.999987 -80.47 0.999987 -80.47 0.004156 9.8766
8.65790000 0.004149 9.2750 0.999987 -80.47 0.999987 -80.47 0.004149 9.8763
8.65800000 0.004143 9.2728 0.999987 -80.47 0.999987 -80.47 0.004143 9.8761
8.65810000 0.004136 9.2706 0.999987 -80.47 0.999987 -80.47 0.004136 9.8759
8.65820000 0.004130 9.2684 0.999987 -80.47 0.999987 -80.47 0.004130 9.8757
8.65830000 0.004123 9.2662 0.999987 -80.48 0.999987 -80.48 0.004124 9.8754
8.65840000 0.004117 9.2640 0.999987 -80.48 0.999987 -80.48 0.004117 9.8752
8.65850000 0.004111 9.2617 0.999987 -80.48 0.999987 -80.48 0.004111 9.8750
8.65860000 0.004104 9.2595 0.999987 -80.48 0.999987 -80.48 0.004104 9.8748
8.65870000 0.004098 9.2573 0.999987 -80.48 0.999987 -80.48 0.004098 9.8746
8.65880000 0.004091 9.2551 0.999987 -80.48 0.999987 -80.48 0.004091 9.8744
8.65890000 0.004085 9.2528 0.999987 -80.48 0.999987 -80.48 0.004085 9.8742
8.65900000 0.004078 9.2506 0.999987 -80.48 0.999987 -80.48 0.004078 9.8740
8.65910000 0.004072 9.2483 0.999987 -80.49 0.999987 -80.49 0.004072 9.8738
8.65920000 0.004065 9.2461 0.999987 -80.49 0.999987 -80.49 0.004065 9.8737
8.65930000 0.004059 9.2438 0.999987 -80.49 0.999987 -80.49 0.004059 9.8735
8.65940000 0.004052 9.2416 0.999987 -80.49 0.999987 -80.49 0.004053 9.8733
8.65950000 0.004046 9.2393 0.999987 -80.49 0.999987 -80.49 0.004046 9.8731
8.65960000 0.004039 9.2370 0.999987 -80.49 0.999987 -80.49 0.004040 9.8730
8.65970000 0.004033 9.2348 0.999987 -80.49 0.999987 -80.49 0.004033 9.8728
8.65980000 0.004026 9.2325 0.999987 -80.50 0.999987 -80.50 0.004027 9.8727
8.65990000 0.004020 9.2302 0.999987 -80.50 0.999987 -80.50 0.004020 9.8725
8.66000000 0.004013 9.2279 0.999987 -80.50 0.999987 -80.50 0.004013 9.8724
8.66010000 0.004007 9.2256 0.999988 -80.50 0.999988 -80.50 0.004007 9.8722
8.66020000 0.004000 9.2234 0.999988 -80.50 0.999988 -80.50 0.004000 9.8721
8.66030000 0.003994 9.2211 0.999988 -80.50 0.999988 -80.50 0.003994 9.8719
8.66040000 0.003987 9.2188 0.999988 -80.50 0.999988 -80.50 0.003987 9.8718
8.66050000 0.003981 9.2165 0.999988 -80.50 0.999988 -80.50 0.003981 9.8717
8.66060000 0.003974 9.2141 0.999988 -80.51 0.999988 -80.51 0.003974 9.8716
8.66070000 0.003968 9.2118 0.999988 -80.51 0.999988 -80.51 0.003968 9.8715
8.66080000 0.003961 9.2095 0.999988 -80.51 0.999988 -80.51 0.003961 9.8714
8.66090000 0.003955 9.2072 0.999988 -80.51 0.999988 -80.51 0.003955 9.8712
8.66100000 0.003948 9.2049 0.999988 -80.51 0.999988 -80.51 0.003948 9.8711
8.66110000 0.003941 9.2025 0.999988 -80.51 0.999988 -80.51 0.003941 9.8711
8.66120000 0.003935 9.2002 0.999988 -80.51 0.999988 -80.51 0.003935 9.8710
8.66130000 0.003928 9.1979 0.999988 -80.52 0.999988 -80.52 0.003928 9.8709
8.66140000 0.003922 9.1955 0.999988 -80.52 0.999988 -80.52 0.003922 9.8708
8.66150000 0.003915 9.1932 0.999988 -80.52 0.999988 -80.52 0.003915 9.8707
8.66160000 0.003908 9.1908 0.999988 -80.52 0.999988 -80.52 0.003908 9.8706
8.66170000 0.003902 9.1884 0.999988 -80.52 0.999988 -80.52 0.003902 9.8706
8.66180000 0.003895 9.1861 0.999988 -80.52 0.999988 -80.52 0.003895 9.8705
8.66190000 0.003888 9.1837 0.999988 -80.52 0.999988 -80.52 0.003889 9.8705
8.66200000 0.003882 9.1813 0.999988 -80.52 0.999988 -80.52 0.003882 9.8704
8.66210000 0.003875 9.1789 0.999988 -80.53 0.999988 -80.53 0.003875 9.8704
8.66220000 0.003869 9.1766 0.999988 -80.53 0.999988 -80.53 0.003869 9.8703
8.66230000 0.003862 9.1742 0.999988 -80.53 0.999988 -80.53 0.003862 9.8703
8.66240000 0.003855 9.1718 0.999988 -80.53 0.999988 -80.53 0.003855 9.8703
8.66250000 0.003849 9.1694 0.999988 -80.53 0.999988 -80.53 0.003849 9.8702
8.66260000 0.003842 9.1670 0.999988 -80.53 0.999988 -80.53 0.003842 9.8702
8.66270000 0.003835 9.1646 0.999988 -80.53 0.999988 -80.53 0.003835 9.8702
8.66280000 0.003829 9.1621 0.999988 -80.53 0.999988 -80.53 0.003829 9.8702
8.66290000 0.003822 9.1597 0.999988 -80.54 0.999988 -80.54 0.003822 9.8702
8.66300000 0.003815 9.1573 0.999988 -80.54 0.999988 -80.54 0.003815 9.8702
8.66310000 0.003808 9.1549 0.999988 -80.54 0.999988 -80.54 0.003808 9.8702
8.66320000 0.003802 9.1524 0.999988 -80.54 0.999988 -80.54 0.003802 9.8702
8.66330000 0.003795 9.1500 0.999988 -80.54 0.999988 -80.54 0.003795 9.8702
8.66340000 0.003788 9.1475 0.999988 -80.54 0.999988 -80.54 0.003788 9.8703
8.66350000 0.003782 9.1451 0.999988 -80.54 0.999988 -80.54 0.003782 9.8703
8.66360000 0.003775 9.1426 0.999988 -80.55 0.999988 -80.55 0.003775 9.8703
8.66370000 0.003768 9.1402 0.999988 -80.55 0.999988 -80.55 0.003768 9.8704
8.66380000 0.003761 9.1377 0.999988 -80.55 0.999988 -80.55 0.003761 9.8704
8.66390000 0.003755 9.1352 0.999988 -80.55 0.999988 -80.55 0.003755 9.8705
8.66400000 0.003748 9.1327 0.999988 -80.55 0.999988 -80.55 0.003748 9.8705
8.66410000 0.003741 9.1303 0.999988 -80.55 0.999988 -80.55 0.003741 9.8706
8.66420000 0.003734 9.1278 0.999989 -80.55 0.999989 -80.55 0.003734 9.8707
8.66430000 0.003728 9.1253 0.999989 -80.55 0.999989 -80.55 0.003728 9.8707
8.66440000 0.003721 9.1228 0.999989 -80.56 0.999989 -80.56 0.003721 9.8708
8.66450000 0.003714 9.1203 0.999989 -80.56 0.999989 -80.56 0.003714 9.8709
8.66460000 0.003707 9.1177 0.999989 -80.56 0.999989 -80.56 0.003707 9.8710
8.66470000 0.003700 9.1152 0.999989 -80.56 0.999989 -80.56 0.003700 9.8711
8.66480000 0.003694 9.1127 0.999989 -80.56 0.999989 -80.56 0.003694 9.8712
8.66490000 0.003687 9.1102 0.999989 -80.56 0.999989 -80.56 0.003687 9.8713
8.66500000 0.003680 9.1076 0.999989 -80.56 0.999989 -80.56 0.003680 9.8714
8.66510000 0.003673 9.1051 0.999989 -80.57 0.999989 -80.57 0.003673 9.8716
8.66520000 0.003666 9.1025 0.999989 -80.57 0.999989 -80.57 0.003666 9.8717
8.66530000 0.003659 9.1000 0.999989 -80.57 0.999989 -80.57 0.003660 9.8718
8.66540000 0.003653 9.0974 0.999989 -80.57 0.999989 -80.57 0.003653 9.8720
8.66550000 0.003646 9.0948 0.999989 -80.57 0.999989 -80.57 0.003646 9.8721
8.66560000 0.003639 9.0923 0.999989 -80.57 0.999989 -80.57 0.003639 9.8723
8.66570000 0.003632 9.0897 0.999989 -80.57 0.999989 -80.57 0.003632 9.8725
8.66580000 0.003625 9.0871 0.999989 -80.57 0.999989 -80.57 0.003625 9.8726
8.66590000 0.003618 9.0845 0.999989 -80.58 0.999989 -80.58 0.003618 9.8728
8.66600000 0.003611 9.0819 0.999989 -80.58 0.999989 -80.58 0.003611 9.8730
8.66610000 0.003605 9.0793 0.999989 -80.58 0.999989 -80.58 0.003605 9.8732
8.66620000 0.003598 9.0767 0.999989 -80.58 0.999989 -80.58 0.003598 9.8734
8.66630000 0.003591 9.0741 0.999989 -80.58 0.999989 -80.58 0.003591 9.8736
8.66640000 0.003584 9.0715 0.999989 -80.58 0.999989 -80.58 0.003584 9.8738
8.66650000 0.003577 9.0688 0.999989 -80.58 0.999989 -80.58 0.003577 9.8740
8.66660000 0.003570 9.0662 0.999989 -80.58 0.999989 -80.58 0.003570 9.8743
8.66670000 0.003563 9.0635 0.999989 -80.59 0.999989 -80.59 0.003563 9.8745
8.66680000 0.003556 9.0609 0.999989 -80.59 0.999989 -80.59 0.003556 9.8747
8.66690000 0.003549 9.0582 0.999989 -80.59 0.999989 -80.59 0.003549 9.8750
8.66700000 0.003542 9.0556 0.999989 -80.59 0.999989 -80.59 0.003542 9.8752
8.66710000 0.003535 9.0529 0.999989 -80.59 0.999989 -80.59 0.003535 9.8755
8.66720000 0.003528 9.0502 0.999989 -80.59 0.999989 -80.59 0.003528 9.8758
8.66730000 0.003521 9.0475 0.999989 -80.59 0.999989 -80.59 0.003521 9.8760
8.66740000 0.003514 9.0448 0.999989 -80.60 0.999989 -80.60 0.003515 9.8763
8.66750000 0.003507 9.0421 0.999989 -80.60 0.999989 -80.60 0.003508 9.8766
8.66760000 0.003501 9.0394 0.999989 -80.60 0.999989 -80.60 0.003501 9.8769
8.66770000 0.003494 9.0367 0.999989 -80.60 0.999989 -80.60 0.003494 9.8772
8.66780000 0.003487 9.0340 0.999989 -80.60 0.999989 -80.60 0.003487 9.8775
8.66790000 0.003480 9.0313 0.999989 -80.60 0.999989 -80.60 0.003480 9.8779
8.66800000 0.003473 9.0285 0.999989 -80.60 0.999989 -80.60 0.003473 9.8782
8.66810000 0.003466 9.0258 0.999989 -80.60 0.999989 -80.60 0.003466 9.8785
8.66820000 0.003458 9.0231 0.999989 -80.61 0.999989 -80.61 0.003459 9.8789
8.66830000 0.003451 9.0203 0.999989 -80.61 0.999989 -80.61 0.003452 9.8792
8.66840000 0.003444 9.0175 0.999990 -80.61 0.999990 -80.61 0.003444 9.8796
8.66850000 0.003437 9.0148 0.999990 -80.61 0.999990 -80.61 0.003437 9.8800
8.66860000 0.003430 9.0120 0.999990 -80.61 0.999990 -80.61 0.003430 9.8804
8.66870000 0.003423 9.0092 0.999990 -80.61 0.999990 -80.61 0.003423 9.8807
8.66880000 0.003416 9.0064 0.999990 -80.61 0.999990 -80.61 0.003416 9.8811
8.66890000 0.003409 9.0036 0.999990 -80.62 0.999990 -80.62 0.003409 9.8815
8.66900000 0.003402 9.0008 0.999990 -80.62 0.999990 -80.62 0.003402 9.8820
8.66910000 0.003395 8.9980 0.999990 -80.62 0.999990 -80.62 0.003395 9.8824
8.66920000 0.003388 8.9951 0.999990 -80.62 0.999990 -80.62 0.003388 9.8828
8.66930000 0.003381 8.9923 0.999990 -80.62 0.999990 -80.62 0.003381 9.8833
8.66940000 0.003374 8.9895 0.999990 -80.62 0.999990 -80.62 0.003374 9.8837
8.66950000 0.003367 8.9866 0.999990 -80.62 0.999990 -80.62 0.003367 9.8842
8.66960000 0.003360 8.9838 0.999990 -80.62 0.999990 -80.62 0.003360 9.8846
8.66970000 0.003352 8.9809 0.999990 -80.63 0.999990 -80.63 0.003353 9.8851
8.66980000 0.003345 8.9780 0.999990 -80.63 0.999990 -80.63 0.003345 9.8856
8.66990000 0.003338 8.9751 0.999990 -80.63 0.999990 -80.63 0.003338 9.8861
8.67000000 0.003331 8.9722 0.999990 -80.63 0.999990 -80.63 0.003331 9.8866
8.67010000 0.003324 8.9693 0.999990 -80.63 0.999990 -80.63 0.003324 9.8871
8.67020000 0.003317 8.9664 0.999990 -80.63 0.999990 -80.63 0.003317 9.8876
8.67030000 0.003310 8.9635 0.999990 -80.63 0.999990 -80.63 0.003310 9.8881
8.67040000 0.003302 8.9606 0.999990 -80.64 0.999990 -80.64 0.003303 9.8887
8.67050000 0.003295 8.9577 0.999990 -80.64 0.999990 -80.64 0.003295 9.8892
8.67060000 0.003288 8.9547 0.999990 -80.64 0.999990 -80.64 0.003288 9.8898
8.67070000 0.003281 8.9518 0.999990 -80.64 0.999990 -80.64 0.003281 9.8904
8.67080000 0.003274 8.9488 0.999990 -80.64 0.999990 -80.64 0.003274 9.8909
8.67090000 0.003267 8.9458 0.999990 -80.64 0.999990 -80.64 0.003267 9.8915
8.67100000 0.003259 8.9428 0.999990 -80.64 0.999990 -80.64 0.003259 9.8921
8.67110000 0.003252 8.9399 0.999990 -80.65 0.999990 -80.65 0.003252 9.8927
8.67120000 0.003245 8.9369 0.999990 -80.65 0.999990 -80.65 0.003245 9.8933
8.67130000 0.003238 8.9339 0.999990 -80.65 0.999990 -80.65 0.003238 9.8940
8.67140000 0.003230 8.9308 0.999990 -80.65 0.999990 -80.65 0.003231 9.8946
8.67150000 0.003223 8.9278 0.999990 -80.65 0.999990 -80.65 0.003223 9.8953
8.67160000 0.003216 8.9248 0.999990 -80.65 0.999990 -80.65 0.003216 9.8959
8.67170000 0.003209 8.9217 0.999990 -80.65 0.999990 -80.65 0.003209 9.8966
8.67180000 0.003201 8.9187 0.999990 -80.65 0.999990 -80.65 0.003202 9.8973
8.67190000 0.003194 8.9156 0.999990 -80.66 0.999990 -80.66 0.003194 9.8980
8.67200000 0.003187 8.9125 0.999990 -80.66 0.999990 -80.66 0.003187 9.8987
8.67210000 0.003180 8.9095 0.999990 -80.66 0.999990 -80.66 0.003180 9.8994
8.67220000 0.003172 8.9064 0.999990 -80.66 0.999990 -80.66 0.003172 9.9001
8.67230000 0.003165 8.9033 0.999990 -80.66 0.999990 -80.66 0.003165 9.9008
8.67240000 0.003158 8.9001 0.999990 -80.66 0.999990 -80.66 0.003158 9.9016
8.67250000 0.003150 8.8970 0.999990 -80.66 0.999990 -80.66 0.003151 9.9023
8.67260000 0.003143 8.8939 0.999990 -80.67 0.999990 -80.67 0.003143 9.9031
8.67270000 0.003136 8.8907 0.999990 -80.67 0.999990 -80.67 0.003136 9.9039
8.67280000 0.003129 8.8876 0.999990 -80.67 0.999990 -80.67 0.003129 9.9047
8.67290000 0.003121 8.8844 0.999991 -80.67 0.999991 -80.67 0.003121 9.9055
8.67300000 0.003114 8.8812 0.999991 -80.67 0.999991 -80.67 0.003114 9.9063
8.67310000 0.003107 8.8781 0.999991 -80.67 0.999991 -80.67 0.003107 9.9071
8.67320000 0.003099 8.8749 0.999991 -80.67 0.999991 -80.67 0.003099 9.9080
8.67330000 0.003092 8.8717 0.999991 -80.67 0.999991 -80.67 0.003092 9.9088
8.67340000 0.003084 8.8684 0.999991 -80.68 0.999991 -80.68 0.003085 9.9097
8.67350000 0.003077 8.8652 0.999991 -80.68 0.999991 -80.68 0.003077 9.9106
8.67360000 0.003070 8.8620 0.999991 -80.68 0.999991 -80.68 0.003070 9.9115
8.67370000 0.003062 8.8587 0.999991 -80.68 0.999991 -80.68 0.003062 9.9124
8.67380000 0.003055 8.8554 0.999991 -80.68 0.999991 -80.68 0.003055 9.9133
8.67390000 0.003048 8.8522 0.999991 -80.68 0.999991 -80.68 0.003048 9.9142
8.67400000 0.003040 8.8489 0.999991 -80.68 0.999991 -80.68 0.003040 9.9151
8.67410000 0.003033 8.8456 0.999991 -80.69 0.999991 -80.69 0.003033 9.9161
8.67420000 0.003025 8.8423 0.999991 -80.69 0.999991 -80.69 0.003025 9.9171
8.67430000 0.003018 8.8389 0.999991 -80.69 0.999991 -80.69 0.003018 9.9180
8.67440000 0.003010 8.8356 0.999991 -80.69 0.999991 -80.69 0.003011 9.9190
8.67450000 0.003003 8.8323 0.999991 -80.69 0.999991 -80.69 0.003003 9.9200
8.67460000 0.002996 8.8289 0.999991 -80.69 0.999991 -80.69 0.002996 9.9211
8.67470000 0.002988 8.8255 0.999991 -80.69 0.999991 -80.69 0.002988 9.9221
8.67480000 0.002981 8.8222 0.999991 -80.70 0.999991 -80.70 0.002981 9.9231
8.67490000 0.002973 8.8188 0.999991 -80.70 0.999991 -80.70 0.002973 9.9242
8.67500000 0.002966 8.8153 0.999991 -80.70 0.999991 -80.70 0.002966 9.9253
8.67510000 0.002958 8.8119 0.999991 -80.70 0.999991 -80.70 0.002958 9.9264
8.67520000 0.002951 8.8085 0.999991 -80.70 0.999991 -80.70 0.002951 9.9275
8.67530000 0.002943 8.8050 0.999991 -80.70 0.999991 -80.70 0.002943 9.9286
8.67540000 0.002936 8.8016 0.999991 -80.70 0.999991 -80.70 0.002936 9.9297
8.67550000 0.002928 8.7981 0.999991 -80.70 0.999991 -80.70 0.002928 9.9309
8.67560000 0.002921 8.7946 0.999991 -80.71 0.999991 -80.71 0.002921 9.9320
8.67570000 0.002913 8.7911 0.999991 -80.71 0.999991 -80.71 0.002913 9.9332
8.67580000 0.002906 8.7876 0.999991 -80.71 0.999991 -80.71 0.002906 9.9344
8.67590000 0.002898 8.7841 0.999991 -80.71 0.999991 -80.71 0.002898 9.9356
8.67600000 0.002891 8.7805 0.999991 -80.71 0.999991 -80.71 0.002891 9.9368
8.67610000 0.002883 8.7770 0.999991 -80.71 0.999991 -80.71 0.002883 9.9381
8.67620000 0.002875 8.7734 0.999991 -80.71 0.999991 -80.71 0.002876 9.9393
8.67630000 0.002868 8.7698 0.999991 -80.72 0.999991 -80.72 0.002868 9.9406
8.67640000 0.002860 8.7662 0.999991 -80.72 0.999991 -80.72 0.002860 9.9419
8.67650000 0.002853 8.7626 0.999991 -80.72 0.999991 -80.72 0.002853 9.9432
8.67660000 0.002845 8.7590 0.999991 -80.72 0.999991 -80.72 0.002845 9.9445
8.67670000 0.002838 8.7554 0.999991 -80.72 0.999991 -80.72 0.002838 9.9459
8.67680000 0.002830 8.7517 0.999991 -80.72 0.999991 -80.72 0.002830 9.9472
8.67690000 0.002822 8.7480 0.999991 -80.72 0.999991 -80.72 0.002822 9.9486
8.67700000 0.002815 8.7444 0.999991 -80.73 0.999991 -80.73 0.002815 9.9500
8.67710000 0.002807 8.7407 0.999991 -80.73 0.999991 -80.73 0.002807 9.9514
8.67720000 0.002799 8.7369 0.999991 -80.73 0.999991 -80.73 0.002799 9.9528
8.67730000 0.002792 8.7332 0.999991 -80.73 0.999991 -80.73 0.002792 9.9542
8.67740000 0.002784 8.7295 0.999991 -80.73 0.999991 -80.73 0.002784 9.9557
8.67750000 0.002776 8.7257 0.999991 -80.73 0.999991 -80.73 0.002777 9.9572
8.67760000 0.002769 8.7219 0.999991 -80.73 0.999991 -80.73 0.002769 9.9587
8.67770000 0.002761 8.7181 0.999991 -80.73 0.999991 -80.73 0.002761 9.9602
8.67780000 0.002753 8.7143 0.999992 -80.74 0.999992 -80.74 0.002754 9.9617
8.67790000 0.002746 8.7105 0.999992 -80.74 0.999992 -80.74 0.002746 9.9633
8.67800000 0.002738 8.7067 0.999992 -80.74 0.999992 -80.74 0.002738 9.9648
8.67810000 0.002730 8.7028 0.999992 -80.74 0.999992 -80.74 0.002730 9.9664
8.67820000 0.002723 8.6989 0.999992 -80.74 0.999992 -80.74 0.002723 9.9680
8.67830000 0.002715 8.6950 0.999992 -80.74 0.999992 -80.74 0.002715 9.9696
8.67840000 0.002707 8.6911 0.999992 -80.74 0.999992 -80.74 0.002707 9.9713
8.67850000 0.002700 8.6872 0.999992 -80.75 0.999992 -80.75 0.002700 9.9730
8.67860000 0.002692 8.6832 0.999992 -80.75 0.999992 -80.75 0.002692 9.9746
8.67870000 0.002684 8.6793 0.999992 -80.75 0.999992 -80.75 0.002684 9.9763
8.67880000 0.002676 8.6753 0.999992 -80.75 0.999992 -80.75 0.002676 9.9781
8.67890000 0.002669 8.6713 0.999992 -80.75 0.999992 -80.75 0.002669 9.9798
8.67900000 0.002661 8.6673 0.999992 -80.75 0.999992 -80.75 0.002661 9.9816
8.67910000 0.002653 8.6632 0.999992 -80.75 0.999992 -80.75 0.002653 9.9834
8.67920000 0.002645 8.6592 0.999992 -80.76 0.999992 -80.76 0.002645 9.9852
8.67930000 0.002637 8.6551 0.999992 -80.76 0.999992 -80.76 0.002638 9.9870
8.67940000 0.002630 8.6510 0.999992 -80.76 0.999992 -80.76 0.002630 9.9889
8.67950000 0.002622 8.6469 0.999992 -80.76 0.999992 -80.76 0.002622 9.9907
8.67960000 0.002614 8.6428 0.999992 -80.76 0.999992 -80.76 0.002614 9.9926
8.67970000 0.002606 8.6386 0.999992 -80.76 0.999992 -80.76 0.002606 9.9945
8.67980000 0.002598 8.6344 0.999992 -80.76 0.999992 -80.76 0.002598 9.9965
8.67990000 0.002591 8.6303 0.999992 -80.77 0.999992 -80.77 0.002591 9.9984
8.68000000 0.002583 8.6260 0.999992 -80.77 0.999992 -80.77 0.002583 10.000
8.68010000 0.002575 8.6218 0.999992 -80.77 0.999992 -80.77 0.002575 10.002
8.68020000 0.002567 8.6176 0.999992 -80.77 0.999992 -80.77 0.002567 10.004
8.68030000 0.002559 8.6133 0.999992 -80.77 0.999992 -80.77 0.002559 10.007
8.68040000 0.002551 8.6090 0.999992 -80.77 0.999992 -80.77 0.002551 10.009
8.68050000 0.002543 8.6047 0.999992 -80.77 0.999992 -80.77 0.002543 10.011
8.68060000 0.002535 8.6003 0.999992 -80.77 0.999992 -80.77 0.002536 10.013
8.68070000 0.002528 8.5960 0.999992 -80.78 0.999992 -80.78 0.002528 10.015
8.68080000 0.002520 8.5916 0.999992 -80.78 0.999992 -80.78 0.002520 10.017
8.68090000 0.002512 8.5872 0.999992 -80.78 0.999992 -80.78 0.002512 10.019
8.68100000 0.002504 8.5828 0.999992 -80.78 0.999992 -80.78 0.002504 10.022
8.68110000 0.002496 8.5783 0.999992 -80.78 0.999992 -80.78 0.002496 10.024
8.68120000 0.002488 8.5739 0.999992 -80.78 0.999992 -80.78 0.002488 10.026
8.68130000 0.002480 8.5694 0.999992 -80.78 0.999992 -80.78 0.002480 10.028
8.68140000 0.002472 8.5649 0.999992 -80.79 0.999992 -80.79 0.002472 10.031
8.68150000 0.002464 8.5603 0.999992 -80.79 0.999992 -80.79 0.002464 10.033
8.68160000 0.002456 8.5557 0.999992 -80.79 0.999992 -80.79 0.002456 10.036
8.68170000 0.002448 8.5512 0.999992 -80.79 0.999992 -80.79 0.002448 10.038
8.68180000 0.002440 8.5465 0.999992 -80.79 0.999992 -80.79 0.002440 10.040
8.68190000 0.002432 8.5419 0.999992 -80.79 0.999992 -80.79 0.002432 10.043
8.68200000 0.002424 8.5372 0.999992 -80.79 0.999992 -80.79 0.002424 10.045
8.68210000 0.002416 8.5326 0.999992 -80.80 0.999992 -80.80 0.002416 10.048
8.68220000 0.002408 8.5278 0.999992 -80.80 0.999992 -80.80 0.002408 10.051
8.68230000 0.002400 8.5231 0.999992 -80.80 0.999992 -80.80 0.002400 10.053
8.68240000 0.002392 8.5183 0.999992 -80.80 0.999992 -80.80 0.002392 10.056
8.68250000 0.002384 8.5135 0.999992 -80.80 0.999992 -80.80 0.002384 10.058
8.68260000 0.002376 8.5087 0.999992 -80.80 0.999992 -80.80 0.002376 10.061
8.68270000 0.002368 8.5039 0.999992 -80.80 0.999992 -80.80 0.002368 10.064
8.68280000 0.002360 8.4990 0.999992 -80.81 0.999992 -80.81 0.002360 10.067
8.68290000 0.002352 8.4941 0.999992 -80.81 0.999992 -80.81 0.002352 10.069
8.68300000 0.002344 8.4892 0.999992 -80.81 0.999992 -80.81 0.002344 10.072
8.68310000 0.002336 8.4842 0.999992 -80.81 0.999992 -80.81 0.002336 10.075
8.68320000 0.002328 8.4792 0.999993 -80.81 0.999993 -80.81 0.002328 10.078
8.68330000 0.002320 8.4742 0.999993 -80.81 0.999993 -80.81 0.002320 10.081
8.68340000 0.002312 8.4692 0.999993 -80.81 0.999993 -80.81 0.002312 10.084
8.68350000 0.002303 8.4641 0.999993 -80.82 0.999993 -80.82 0.002304 10.087
8.68360000 0.002295 8.4590 0.999993 -80.82 0.999993 -80.82 0.002295 10.090
8.68370000 0.002287 8.4539 0.999993 -80.82 0.999993 -80.82 0.002287 10.093
8.68380000 0.002279 8.4487 0.999993 -80.82 0.999993 -80.82 0.002279 10.096
8.68390000 0.002271 8.4435 0.999993 -80.82 0.999993 -80.82 0.002271 10.099
8.68400000 0.002263 8.4383 0.999993 -80.82 0.999993 -80.82 0.002263 10.102
8.68410000 0.002255 8.4330 0.999993 -80.82 0.999993 -80.82 0.002255 10.105
8.68420000 0.002246 8.4277 0.999993 -80.82 0.999993 -80.82 0.002247 10.109
8.68430000 0.002238 8.4224 0.999993 -80.83 0.999993 -80.83 0.002238 10.112
8.68440000 0.002230 8.4170 0.999993 -80.83 0.999993 -80.83 0.002230 10.115
8.68450000 0.002222 8.4116 0.999993 -80.83 0.999993 -80.83 0.002222 10.119
8.68460000 0.002214 8.4062 0.999993 -80.83 0.999993 -80.83 0.002214 10.122
8.68470000 0.002206 8.4008 0.999993 -80.83 0.999993 -80.83 0.002206 10.125
8.68480000 0.002197 8.3953 0.999993 -80.83 0.999993 -80.83 0.002197 10.129
8.68490000 0.002189 8.3897 0.999993 -80.83 0.999993 -80.83 0.002189 10.132
8.68500000 0.002181 8.3842 0.999993 -80.84 0.999993 -80.84 0.002181 10.136
8.68510000 0.002173 8.3786 0.999993 -80.84 0.999993 -80.84 0.002173 10.140
8.68520000 0.002164 8.3729 0.999993 -80.84 0.999993 -80.84 0.002164 10.143
8.68530000 0.002156 8.3672 0.999993 -80.84 0.999993 -80.84 0.002156 10.147
8.68540000 0.002148 8.3615 0.999993 -80.84 0.999993 -80.84 0.002148 10.151
8.68550000 0.002140 8.3558 0.999993 -80.84 0.999993 -80.84 0.002140 10.154
8.68560000 0.002131 8.3500 0.999993 -80.84 0.999993 -80.84 0.002131 10.158
8.68570000 0.002123 8.3442 0.999993 -80.85 0.999993 -80.85 0.002123 10.162
8.68580000 0.002115 8.3383 0.999993 -80.85 0.999993 -80.85 0.002115 10.166
8.68590000 0.002106 8.3324 0.999993 -80.85 0.999993 -80.85 0.002107 10.170
8.68600000 0.002098 8.3264 0.999993 -80.85 0.999993 -80.85 0.002098 10.174
8.68610000 0.002090 8.3204 0.999993 -80.85 0.999993 -80.85 0.002090 10.178
8.68620000 0.002081 8.3144 0.999993 -80.85 0.999993 -80.85 0.002082 10.182
8.68630000 0.002073 8.3083 0.999993 -80.85 0.999993 -80.85 0.002073 10.186
8.68640000 0.002065 8.3022 0.999993 -80.86 0.999993 -80.86 0.002065 10.190
8.68650000 0.002056 8.2961 0.999993 -80.86 0.999993 -80.86 0.002057 10.195
8.68660000 0.002048 8.2899 0.999993 -80.86 0.999993 -80.86 0.002048 10.199
8.68670000 0.002040 8.2836 0.999993 -80.86 0.999993 -80.86 0.002040 10.203
8.68680000 0.002031 8.2773 0.999993 -80.86 0.999993 -80.86 0.002031 10.208
8.68690000 0.002023 8.2710 0.999993 -80.86 0.999993 -80.86 0.002023 10.212
8.68700000 0.002015 8.2646 0.999993 -80.86 0.999993 -80.86 0.002015 10.217
8.68710000 0.002006 8.2582 0.999993 -80.87 0.999993 -80.87 0.002006 10.221
8.68720000 0.001998 8.2517 0.999993 -80.87 0.999993 -80.87 0.001998 10.226
8.68730000 0.001989 8.2452 0.999993 -80.87 0.999993 -80.87 0.001989 10.231
8.68740000 0.001981 8.2386 0.999993 -80.87 0.999993 -80.87 0.001981 10.235
8.68750000 0.001972 8.2319 0.999993 -80.87 0.999993 -80.87 0.001973 10.240
8.68760000 0.001964 8.2253 0.999993 -80.87 0.999993 -80.87 0.001964 10.245
8.68770000 0.001956 8.2185 0.999993 -80.87 0.999993 -80.87 0.001956 10.250
8.68780000 0.001947 8.2118 0.999993 -80.88 0.999993 -80.88 0.001947 10.255
8.68790000 0.001939 8.2049 0.999993 -80.88 0.999993 -80.88 0.001939 10.260
8.68800000 0.001930 8.1980 0.999993 -80.88 0.999993 -80.88 0.001930 10.265
8.68810000 0.001922 8.1911 0.999993 -80.88 0.999993 -80.88 0.001922 10.270
8.68820000 0.001913 8.1841 0.999993 -80.88 0.999993 -80.88 0.001913 10.275
8.68830000 0.001905 8.1770 0.999993 -80.88 0.999993 -80.88 0.001905 10.281
8.68840000 0.001896 8.1699 0.999993 -80.88 0.999993 -80.88 0.001896 10.286
8.68850000 0.001888 8.1628 0.999993 -80.89 0.999993 -80.89 0.001888 10.291
8.68860000 0.001879 8.1555 0.999993 -80.89 0.999993 -80.89 0.001879 10.297
8.68870000 0.001871 8.1483 0.999993 -80.89 0.999993 -80.89 0.001871 10.302
8.68880000 0.001862 8.1409 0.999993 -80.89 0.999993 -80.89 0.001862 10.308
8.68890000 0.001853 8.1335 0.999993 -80.89 0.999993 -80.89 0.001854 10.314
8.68900000 0.001845 8.1260 0.999993 -80.89 0.999993 -80.89 0.001845 10.320
8.68910000 0.001836 8.1185 0.999993 -80.89 0.999993 -80.89 0.001836 10.325
8.68920000 0.001828 8.1109 0.999993 -80.90 0.999993 -80.90 0.001828 10.331