! Sonnet Data File
! From: emgraph Version : 16.52
! From Project: transmon_trial
! Data is De-embedded 
! Data File Written: 10/20/2017 09:13:08
!< HDATE 10/19/2017 20:03:37
!< MDATE 10/19/2017 20:10:25
!< PARAMS
!< Lj = 15.24
!< Gap = 26.0
!< Width = 30.0
!< Airgap = 18.0
!< Pwidth = 2000.0
!< END PARAMS
# GHZ S MA R 51.00000
8.65000000 0.002657 11.090 0.999993 -79.95 0.999993 -79.95 0.002657 9.1191
!< P1 F=8.65 Eeff=(6.44482017 -3.0292e-5) Z0=(50.6172123 1.12884e-4) R=0.0 C=0.0 
!< P2 F=8.65 Eeff=(6.44482017 -3.0292e-5) Z0=(50.6172123 1.12884e-4) R=0.0 C=0.0 
8.65010000 0.002654 11.090 0.999993 -79.96 0.999993 -79.96 0.002654 9.1173
8.65020000 0.002651 11.090 0.999993 -79.96 0.999993 -79.96 0.002651 9.1155
8.65030000 0.002648 11.089 0.999993 -79.96 0.999993 -79.96 0.002648 9.1137
8.65040000 0.002645 11.089 0.999993 -79.96 0.999993 -79.96 0.002645 9.1119
8.65050000 0.002642 11.089 0.999993 -79.96 0.999993 -79.96 0.002642 9.1101
8.65060000 0.002639 11.089 0.999993 -79.96 0.999993 -79.96 0.002639 9.1082
8.65070000 0.002636 11.088 0.999993 -79.96 0.999993 -79.96 0.002636 9.1064
8.65080000 0.002633 11.088 0.999993 -79.96 0.999993 -79.96 0.002633 9.1046
8.65090000 0.002630 11.088 0.999993 -79.96 0.999993 -79.96 0.002630 9.1028
8.65100000 0.002627 11.088 0.999993 -79.97 0.999993 -79.97 0.002626 9.1010
8.65110000 0.002623 11.087 0.999993 -79.97 0.999993 -79.97 0.002623 9.0992
8.65120000 0.002620 11.087 0.999993 -79.97 0.999993 -79.97 0.002620 9.0974
8.65130000 0.002617 11.087 0.999993 -79.97 0.999993 -79.97 0.002617 9.0955
8.65140000 0.002614 11.087 0.999993 -79.97 0.999993 -79.97 0.002614 9.0937
8.65150000 0.002611 11.086 0.999993 -79.97 0.999993 -79.97 0.002611 9.0919
8.65160000 0.002608 11.086 0.999993 -79.97 0.999993 -79.97 0.002608 9.0900
8.65170000 0.002605 11.086 0.999993 -79.97 0.999993 -79.97 0.002605 9.0882
8.65180000 0.002602 11.086 0.999993 -79.97 0.999993 -79.97 0.002602 9.0864
8.65190000 0.002599 11.086 0.999993 -79.98 0.999993 -79.98 0.002599 9.0845
8.65200000 0.002596 11.085 0.999993 -79.98 0.999993 -79.98 0.002595 9.0827
8.65210000 0.002592 11.085 0.999993 -79.98 0.999993 -79.98 0.002592 9.0809
8.65220000 0.002589 11.085 0.999993 -79.98 0.999993 -79.98 0.002589 9.0790
8.65230000 0.002586 11.085 0.999993 -79.98 0.999993 -79.98 0.002586 9.0772
8.65240000 0.002583 11.085 0.999993 -79.98 0.999993 -79.98 0.002583 9.0753
8.65250000 0.002580 11.084 0.999993 -79.98 0.999993 -79.98 0.002580 9.0735
8.65260000 0.002577 11.084 0.999993 -79.98 0.999993 -79.98 0.002577 9.0716
8.65270000 0.002574 11.084 0.999993 -79.98 0.999993 -79.98 0.002574 9.0697
8.65280000 0.002571 11.084 0.999993 -79.99 0.999993 -79.99 0.002571 9.0679
8.65290000 0.002567 11.084 0.999993 -79.99 0.999993 -79.99 0.002567 9.0660
8.65300000 0.002564 11.083 0.999993 -79.99 0.999993 -79.99 0.002564 9.0642
8.65310000 0.002561 11.083 0.999993 -79.99 0.999993 -79.99 0.002561 9.0623
8.65320000 0.002558 11.083 0.999993 -79.99 0.999993 -79.99 0.002558 9.0604
8.65330000 0.002555 11.083 0.999993 -79.99 0.999993 -79.99 0.002555 9.0585
8.65340000 0.002552 11.083 0.999993 -79.99 0.999993 -79.99 0.002552 9.0567
8.65350000 0.002549 11.082 0.999993 -79.99 0.999993 -79.99 0.002549 9.0548
8.65360000 0.002545 11.082 0.999993 -79.99 0.999993 -79.99 0.002545 9.0529
8.65370000 0.002542 11.082 0.999993 -80.00 0.999993 -80.00 0.002542 9.0510
8.65380000 0.002539 11.082 0.999993 -80.00 0.999993 -80.00 0.002539 9.0491
8.65390000 0.002536 11.082 0.999993 -80.00 0.999993 -80.00 0.002536 9.0472
8.65400000 0.002533 11.082 0.999993 -80.00 0.999993 -80.00 0.002533 9.0454
8.65410000 0.002530 11.081 0.999993 -80.00 0.999993 -80.00 0.002530 9.0435
8.65420000 0.002527 11.081 0.999993 -80.00 0.999993 -80.00 0.002526 9.0416
8.65430000 0.002523 11.081 0.999993 -80.00 0.999993 -80.00 0.002523 9.0397
8.65440000 0.002520 11.081 0.999993 -80.00 0.999993 -80.00 0.002520 9.0378
8.65450000 0.002517 11.081 0.999993 -80.00 0.999993 -80.00 0.002517 9.0359
8.65460000 0.002514 11.081 0.999993 -80.01 0.999993 -80.01 0.002514 9.0339
8.65470000 0.002511 11.081 0.999993 -80.01 0.999993 -80.01 0.002511 9.0320
8.65480000 0.002508 11.080 0.999993 -80.01 0.999993 -80.01 0.002507 9.0301
8.65490000 0.002504 11.080 0.999993 -80.01 0.999993 -80.01 0.002504 9.0282
8.65500000 0.002501 11.080 0.999993 -80.01 0.999993 -80.01 0.002501 9.0263
8.65510000 0.002498 11.080 0.999993 -80.01 0.999993 -80.01 0.002498 9.0244
8.65520000 0.002495 11.080 0.999993 -80.01 0.999993 -80.01 0.002495 9.0224
8.65530000 0.002492 11.080 0.999993 -80.01 0.999993 -80.01 0.002491 9.0205
8.65540000 0.002488 11.080 0.999993 -80.01 0.999993 -80.01 0.002488 9.0186
8.65550000 0.002485 11.080 0.999993 -80.02 0.999993 -80.02 0.002485 9.0166
8.65560000 0.002482 11.079 0.999993 -80.02 0.999993 -80.02 0.002482 9.0147
8.65570000 0.002479 11.079 0.999993 -80.02 0.999993 -80.02 0.002479 9.0128
8.65580000 0.002476 11.079 0.999993 -80.02 0.999993 -80.02 0.002476 9.0108
8.65590000 0.002472 11.079 0.999993 -80.02 0.999993 -80.02 0.002472 9.0089
8.65600000 0.002469 11.079 0.999993 -80.02 0.999993 -80.02 0.002469 9.0069
8.65610000 0.002466 11.079 0.999993 -80.02 0.999993 -80.02 0.002466 9.0050
8.65620000 0.002463 11.079 0.999993 -80.02 0.999993 -80.02 0.002463 9.0030
8.65630000 0.002460 11.079 0.999993 -80.02 0.999993 -80.02 0.002459 9.0011
8.65640000 0.002456 11.079 0.999993 -80.03 0.999993 -80.03 0.002456 8.9991
8.65650000 0.002453 11.079 0.999993 -80.03 0.999993 -80.03 0.002453 8.9972
8.65660000 0.002450 11.078 0.999993 -80.03 0.999993 -80.03 0.002450 8.9952
8.65670000 0.002447 11.078 0.999993 -80.03 0.999993 -80.03 0.002447 8.9932
8.65680000 0.002443 11.078 0.999993 -80.03 0.999993 -80.03 0.002443 8.9913
8.65690000 0.002440 11.078 0.999993 -80.03 0.999993 -80.03 0.002440 8.9893
8.65700000 0.002437 11.078 0.999993 -80.03 0.999993 -80.03 0.002437 8.9873
8.65710000 0.002434 11.078 0.999993 -80.03 0.999993 -80.03 0.002434 8.9853
8.65720000 0.002431 11.078 0.999993 -80.03 0.999993 -80.03 0.002430 8.9833
8.65730000 0.002427 11.078 0.999993 -80.04 0.999993 -80.04 0.002427 8.9813
8.65740000 0.002424 11.078 0.999993 -80.04 0.999993 -80.04 0.002424 8.9794
8.65750000 0.002421 11.078 0.999993 -80.04 0.999993 -80.04 0.002421 8.9774
8.65760000 0.002418 11.078 0.999993 -80.04 0.999993 -80.04 0.002417 8.9754
8.65770000 0.002414 11.078 0.999993 -80.04 0.999993 -80.04 0.002414 8.9734
8.65780000 0.002411 11.078 0.999993 -80.04 0.999993 -80.04 0.002411 8.9714
8.65790000 0.002408 11.078 0.999993 -80.04 0.999993 -80.04 0.002408 8.9694
8.65800000 0.002405 11.078 0.999993 -80.04 0.999993 -80.04 0.002404 8.9674
8.65810000 0.002401 11.078 0.999993 -80.04 0.999993 -80.04 0.002401 8.9653
8.65820000 0.002398 11.078 0.999993 -80.05 0.999993 -80.05 0.002398 8.9633
8.65830000 0.002395 11.078 0.999993 -80.05 0.999993 -80.05 0.002395 8.9613
8.65840000 0.002391 11.078 0.999993 -80.05 0.999993 -80.05 0.002391 8.9593
8.65850000 0.002388 11.078 0.999993 -80.05 0.999993 -80.05 0.002388 8.9573
8.65860000 0.002385 11.078 0.999993 -80.05 0.999993 -80.05 0.002385 8.9552
8.65870000 0.002382 11.078 0.999993 -80.05 0.999993 -80.05 0.002382 8.9532
8.65880000 0.002378 11.078 0.999993 -80.05 0.999993 -80.05 0.002378 8.9512
8.65890000 0.002375 11.078 0.999993 -80.05 0.999993 -80.05 0.002375 8.9491
8.65900000 0.002372 11.078 0.999993 -80.05 0.999993 -80.05 0.002372 8.9471
8.65910000 0.002368 11.078 0.999993 -80.06 0.999993 -80.06 0.002368 8.9450
8.65920000 0.002365 11.078 0.999993 -80.06 0.999993 -80.06 0.002365 8.9430
8.65930000 0.002362 11.078 0.999993 -80.06 0.999993 -80.06 0.002362 8.9409
8.65940000 0.002359 11.078 0.999993 -80.06 0.999993 -80.06 0.002359 8.9389
8.65950000 0.002355 11.078 0.999993 -80.06 0.999993 -80.06 0.002355 8.9368
8.65960000 0.002352 11.078 0.999993 -80.06 0.999993 -80.06 0.002352 8.9348
8.65970000 0.002349 11.078 0.999993 -80.06 0.999993 -80.06 0.002349 8.9327
8.65980000 0.002345 11.078 0.999993 -80.06 0.999993 -80.06 0.002345 8.9306
8.65990000 0.002342 11.078 0.999993 -80.06 0.999993 -80.06 0.002342 8.9285
8.66000000 0.002339 11.078 0.999993 -80.07 0.999993 -80.07 0.002339 8.9265
8.66010000 0.002335 11.078 0.999993 -80.07 0.999993 -80.07 0.002335 8.9244
8.66020000 0.002332 11.078 0.999993 -80.07 0.999993 -80.07 0.002332 8.9223
8.66030000 0.002329 11.078 0.999993 -80.07 0.999993 -80.07 0.002329 8.9202
8.66040000 0.002326 11.078 0.999993 -80.07 0.999993 -80.07 0.002325 8.9181
8.66050000 0.002322 11.078 0.999993 -80.07 0.999993 -80.07 0.002322 8.9160
8.66060000 0.002319 11.078 0.999993 -80.07 0.999993 -80.07 0.002319 8.9139
8.66070000 0.002316 11.078 0.999993 -80.07 0.999993 -80.07 0.002315 8.9118
8.66080000 0.002312 11.078 0.999993 -80.07 0.999993 -80.07 0.002312 8.9097
8.66090000 0.002309 11.079 0.999993 -80.08 0.999993 -80.08 0.002309 8.9076
8.66100000 0.002306 11.079 0.999993 -80.08 0.999993 -80.08 0.002305 8.9055
8.66110000 0.002302 11.079 0.999993 -80.08 0.999993 -80.08 0.002302 8.9034
8.66120000 0.002299 11.079 0.999993 -80.08 0.999993 -80.08 0.002299 8.9012
8.66130000 0.002296 11.079 0.999993 -80.08 0.999993 -80.08 0.002295 8.8991
8.66140000 0.002292 11.079 0.999993 -80.08 0.999993 -80.08 0.002292 8.8970
8.66150000 0.002289 11.079 0.999993 -80.08 0.999993 -80.08 0.002289 8.8949
8.66160000 0.002285 11.079 0.999993 -80.08 0.999993 -80.08 0.002285 8.8927
8.66170000 0.002282 11.079 0.999993 -80.08 0.999993 -80.08 0.002282 8.8906
8.66180000 0.002279 11.080 0.999993 -80.09 0.999993 -80.09 0.002279 8.8884
8.66190000 0.002275 11.080 0.999993 -80.09 0.999993 -80.09 0.002275 8.8863
8.66200000 0.002272 11.080 0.999993 -80.09 0.999993 -80.09 0.002272 8.8841
8.66210000 0.002269 11.080 0.999994 -80.09 0.999994 -80.09 0.002269 8.8820
8.66220000 0.002265 11.080 0.999994 -80.09 0.999994 -80.09 0.002265 8.8798
8.66230000 0.002262 11.080 0.999994 -80.09 0.999994 -80.09 0.002262 8.8777
8.66240000 0.002259 11.080 0.999994 -80.09 0.999994 -80.09 0.002258 8.8755
8.66250000 0.002255 11.081 0.999994 -80.09 0.999994 -80.09 0.002255 8.8733
8.66260000 0.002252 11.081 0.999994 -80.09 0.999994 -80.09 0.002252 8.8711
8.66270000 0.002248 11.081 0.999994 -80.10 0.999994 -80.10 0.002248 8.8690
8.66280000 0.002245 11.081 0.999994 -80.10 0.999994 -80.10 0.002245 8.8668
8.66290000 0.002242 11.081 0.999994 -80.10 0.999994 -80.10 0.002242 8.8646
8.66300000 0.002238 11.081 0.999994 -80.10 0.999994 -80.10 0.002238 8.8624
8.66310000 0.002235 11.082 0.999994 -80.10 0.999994 -80.10 0.002235 8.8602
8.66320000 0.002231 11.082 0.999994 -80.10 0.999994 -80.10 0.002231 8.8580
8.66330000 0.002228 11.082 0.999994 -80.10 0.999994 -80.10 0.002228 8.8558
8.66340000 0.002225 11.082 0.999994 -80.10 0.999994 -80.10 0.002225 8.8536
8.66350000 0.002221 11.082 0.999994 -80.10 0.999994 -80.10 0.002221 8.8513
8.66360000 0.002218 11.083 0.999994 -80.11 0.999994 -80.11 0.002218 8.8491
8.66370000 0.002214 11.083 0.999994 -80.11 0.999994 -80.11 0.002214 8.8469
8.66380000 0.002211 11.083 0.999994 -80.11 0.999994 -80.11 0.002211 8.8447
8.66390000 0.002208 11.083 0.999994 -80.11 0.999994 -80.11 0.002208 8.8424
8.66400000 0.002204 11.083 0.999994 -80.11 0.999994 -80.11 0.002204 8.8402
8.66410000 0.002201 11.084 0.999994 -80.11 0.999994 -80.11 0.002201 8.8380
8.66420000 0.002197 11.084 0.999994 -80.11 0.999994 -80.11 0.002197 8.8357
8.66430000 0.002194 11.084 0.999994 -80.11 0.999994 -80.11 0.002194 8.8335
8.66440000 0.002191 11.084 0.999994 -80.11 0.999994 -80.11 0.002190 8.8312
8.66450000 0.002187 11.085 0.999994 -80.12 0.999994 -80.12 0.002187 8.8289
8.66460000 0.002184 11.085 0.999994 -80.12 0.999994 -80.12 0.002184 8.8267
8.66470000 0.002180 11.085 0.999994 -80.12 0.999994 -80.12 0.002180 8.8244
8.66480000 0.002177 11.085 0.999994 -80.12 0.999994 -80.12 0.002177 8.8221
8.66490000 0.002173 11.086 0.999994 -80.12 0.999994 -80.12 0.002173 8.8199
8.66500000 0.002170 11.086 0.999994 -80.12 0.999994 -80.12 0.002170 8.8176
8.66510000 0.002166 11.086 0.999994 -80.12 0.999994 -80.12 0.002166 8.8153
8.66520000 0.002163 11.087 0.999994 -80.12 0.999994 -80.12 0.002163 8.8130
8.66530000 0.002160 11.087 0.999994 -80.12 0.999994 -80.12 0.002159 8.8107
8.66540000 0.002156 11.087 0.999994 -80.13 0.999994 -80.13 0.002156 8.8084
8.66550000 0.002153 11.088 0.999994 -80.13 0.999994 -80.13 0.002153 8.8061
8.66560000 0.002149 11.088 0.999994 -80.13 0.999994 -80.13 0.002149 8.8038
8.66570000 0.002146 11.088 0.999994 -80.13 0.999994 -80.13 0.002146 8.8015
8.66580000 0.002142 11.089 0.999994 -80.13 0.999994 -80.13 0.002142 8.7991
8.66590000 0.002139 11.089 0.999994 -80.13 0.999994 -80.13 0.002139 8.7968
8.66600000 0.002135 11.089 0.999994 -80.13 0.999994 -80.13 0.002135 8.7945
8.66610000 0.002132 11.090 0.999994 -80.13 0.999994 -80.13 0.002132 8.7921
8.66620000 0.002128 11.090 0.999994 -80.14 0.999994 -80.14 0.002128 8.7898
8.66630000 0.002125 11.090 0.999994 -80.14 0.999994 -80.14 0.002125 8.7875
8.66640000 0.002121 11.091 0.999994 -80.14 0.999994 -80.14 0.002121 8.7851
8.66650000 0.002118 11.091 0.999994 -80.14 0.999994 -80.14 0.002118 8.7827
8.66660000 0.002114 11.091 0.999994 -80.14 0.999994 -80.14 0.002114 8.7804
8.66670000 0.002111 11.092 0.999994 -80.14 0.999994 -80.14 0.002111 8.7780
8.66680000 0.002107 11.092 0.999994 -80.14 0.999994 -80.14 0.002107 8.7756
8.66690000 0.002104 11.093 0.999994 -80.14 0.999994 -80.14 0.002104 8.7733
8.66700000 0.002100 11.093 0.999994 -80.14 0.999994 -80.14 0.002100 8.7709
8.66710000 0.002097 11.093 0.999994 -80.15 0.999994 -80.15 0.002097 8.7685
8.66720000 0.002093 11.094 0.999994 -80.15 0.999994 -80.15 0.002093 8.7661
8.66730000 0.002090 11.094 0.999994 -80.15 0.999994 -80.15 0.002090 8.7637
8.66740000 0.002086 11.095 0.999994 -80.15 0.999994 -80.15 0.002086 8.7613
8.66750000 0.002083 11.095 0.999994 -80.15 0.999994 -80.15 0.002083 8.7589
8.66760000 0.002079 11.095 0.999994 -80.15 0.999994 -80.15 0.002079 8.7565
8.66770000 0.002076 11.096 0.999994 -80.15 0.999994 -80.15 0.002076 8.7540
8.66780000 0.002072 11.096 0.999994 -80.15 0.999994 -80.15 0.002072 8.7516
8.66790000 0.002069 11.097 0.999994 -80.15 0.999994 -80.15 0.002069 8.7492
8.66800000 0.002065 11.097 0.999994 -80.16 0.999994 -80.16 0.002065 8.7467
8.66810000 0.002062 11.098 0.999994 -80.16 0.999994 -80.16 0.002062 8.7443
8.66820000 0.002058 11.098 0.999994 -80.16 0.999994 -80.16 0.002058 8.7418
8.66830000 0.002055 11.099 0.999994 -80.16 0.999994 -80.16 0.002055 8.7394
8.66840000 0.002051 11.099 0.999994 -80.16 0.999994 -80.16 0.002051 8.7369
8.66850000 0.002048 11.100 0.999994 -80.16 0.999994 -80.16 0.002047 8.7345
8.66860000 0.002044 11.100 0.999994 -80.16 0.999994 -80.16 0.002044 8.7320
8.66870000 0.002040 11.101 0.999994 -80.16 0.999994 -80.16 0.002040 8.7295
8.66880000 0.002037 11.101 0.999994 -80.16 0.999994 -80.16 0.002037 8.7270
8.66890000 0.002033 11.102 0.999994 -80.17 0.999994 -80.17 0.002033 8.7245
8.66900000 0.002030 11.102 0.999994 -80.17 0.999994 -80.17 0.002030 8.7220
8.66910000 0.002026 11.103 0.999994 -80.17 0.999994 -80.17 0.002026 8.7195
8.66920000 0.002023 11.103 0.999994 -80.17 0.999994 -80.17 0.002023 8.7170
8.66930000 0.002019 11.104 0.999994 -80.17 0.999994 -80.17 0.002019 8.7145
8.66940000 0.002016 11.104 0.999994 -80.17 0.999994 -80.17 0.002015 8.7120
8.66950000 0.002012 11.105 0.999994 -80.17 0.999994 -80.17 0.002012 8.7095
8.66960000 0.002008 11.106 0.999994 -80.17 0.999994 -80.17 0.002008 8.7069
8.66970000 0.002005 11.106 0.999994 -80.17 0.999994 -80.17 0.002005 8.7044
8.66980000 0.002001 11.107 0.999994 -80.18 0.999994 -80.18 0.002001 8.7018
8.66990000 0.001998 11.107 0.999994 -80.18 0.999994 -80.18 0.001998 8.6993
8.67000000 0.001994 11.108 0.999994 -80.18 0.999994 -80.18 0.001994 8.6967
8.67010000 0.001990 11.109 0.999994 -80.18 0.999994 -80.18 0.001990 8.6942
8.67020000 0.001987 11.109 0.999994 -80.18 0.999994 -80.18 0.001987 8.6916
8.67030000 0.001983 11.110 0.999994 -80.18 0.999994 -80.18 0.001983 8.6890
8.67040000 0.001980 11.110 0.999994 -80.18 0.999994 -80.18 0.001980 8.6864
8.67050000 0.001976 11.111 0.999994 -80.18 0.999994 -80.18 0.001976 8.6838
8.67060000 0.001973 11.112 0.999994 -80.18 0.999994 -80.18 0.001972 8.6812
8.67070000 0.001969 11.112 0.999994 -80.19 0.999994 -80.19 0.001969 8.6786
8.67080000 0.001965 11.113 0.999994 -80.19 0.999994 -80.19 0.001965 8.6760
8.67090000 0.001962 11.114 0.999994 -80.19 0.999994 -80.19 0.001962 8.6734
8.67100000 0.001958 11.114 0.999994 -80.19 0.999994 -80.19 0.001958 8.6708
8.67110000 0.001954 11.115 0.999994 -80.19 0.999994 -80.19 0.001954 8.6681
8.67120000 0.001951 11.116 0.999994 -80.19 0.999994 -80.19 0.001951 8.6655
8.67130000 0.001947 11.116 0.999994 -80.19 0.999994 -80.19 0.001947 8.6629
8.67140000 0.001944 11.117 0.999994 -80.19 0.999994 -80.19 0.001943 8.6602
8.67150000 0.001940 11.118 0.999994 -80.20 0.999994 -80.20 0.001940 8.6576
8.67160000 0.001936 11.119 0.999994 -80.20 0.999994 -80.20 0.001936 8.6549
8.67170000 0.001933 11.119 0.999994 -80.20 0.999994 -80.20 0.001933 8.6522
8.67180000 0.001929 11.120 0.999994 -80.20 0.999994 -80.20 0.001929 8.6495
8.67190000 0.001925 11.121 0.999994 -80.20 0.999994 -80.20 0.001925 8.6468
8.67200000 0.001922 11.122 0.999994 -80.20 0.999994 -80.20 0.001922 8.6441
8.67210000 0.001918 11.122 0.999994 -80.20 0.999994 -80.20 0.001918 8.6414
8.67220000 0.001914 11.123 0.999994 -80.20 0.999994 -80.20 0.001914 8.6387
8.67230000 0.001911 11.124 0.999994 -80.20 0.999994 -80.20 0.001911 8.6360
8.67240000 0.001907 11.125 0.999994 -80.21 0.999994 -80.21 0.001907 8.6333
8.67250000 0.001903 11.126 0.999994 -80.21 0.999994 -80.21 0.001903 8.6306
8.67260000 0.001900 11.126 0.999994 -80.21 0.999994 -80.21 0.001900 8.6278
8.67270000 0.001896 11.127 0.999994 -80.21 0.999994 -80.21 0.001896 8.6251
8.67280000 0.001892 11.128 0.999994 -80.21 0.999994 -80.21 0.001892 8.6223
8.67290000 0.001889 11.129 0.999994 -80.21 0.999994 -80.21 0.001889 8.6195
8.67300000 0.001885 11.130 0.999994 -80.21 0.999994 -80.21 0.001885 8.6168
8.67310000 0.001881 11.131 0.999994 -80.21 0.999994 -80.21 0.001881 8.6140
8.67320000 0.001878 11.131 0.999994 -80.21 0.999994 -80.21 0.001878 8.6112
8.67330000 0.001874 11.132 0.999994 -80.22 0.999994 -80.22 0.001874 8.6084
8.67340000 0.001870 11.133 0.999994 -80.22 0.999994 -80.22 0.001870 8.6056
8.67350000 0.001867 11.134 0.999994 -80.22 0.999994 -80.22 0.001867 8.6028
8.67360000 0.001863 11.135 0.999994 -80.22 0.999994 -80.22 0.001863 8.6000
8.67370000 0.001859 11.136 0.999994 -80.22 0.999994 -80.22 0.001859 8.5971
8.67380000 0.001856 11.137 0.999994 -80.22 0.999994 -80.22 0.001855 8.5943
8.67390000 0.001852 11.138 0.999994 -80.22 0.999994 -80.22 0.001852 8.5915
8.67400000 0.001848 11.139 0.999994 -80.22 0.999994 -80.22 0.001848 8.5886
8.67410000 0.001844 11.140 0.999994 -80.22 0.999994 -80.22 0.001844 8.5857
8.67420000 0.001841 11.141 0.999994 -80.23 0.999994 -80.23 0.001841 8.5829
8.67430000 0.001837 11.142 0.999994 -80.23 0.999994 -80.23 0.001837 8.5800
8.67440000 0.001833 11.143 0.999994 -80.23 0.999994 -80.23 0.001833 8.5771
8.67450000 0.001830 11.144 0.999994 -80.23 0.999994 -80.23 0.001829 8.5742
8.67460000 0.001826 11.145 0.999994 -80.23 0.999994 -80.23 0.001826 8.5713
8.67470000 0.001822 11.146 0.999994 -80.23 0.999994 -80.23 0.001822 8.5684
8.67480000 0.001818 11.147 0.999994 -80.23 0.999994 -80.23 0.001818 8.5655
8.67490000 0.001815 11.148 0.999994 -80.23 0.999994 -80.23 0.001815 8.5625
8.67500000 0.001811 11.149 0.999994 -80.24 0.999994 -80.24 0.001811 8.5596
8.67510000 0.001807 11.150 0.999994 -80.24 0.999994 -80.24 0.001807 8.5567
8.67520000 0.001803 11.151 0.999994 -80.24 0.999994 -80.24 0.001803 8.5537
8.67530000 0.001800 11.152 0.999994 -80.24 0.999994 -80.24 0.001800 8.5507
8.67540000 0.001796 11.153 0.999994 -80.24 0.999994 -80.24 0.001796 8.5477
8.67550000 0.001792 11.154 0.999994 -80.24 0.999994 -80.24 0.001792 8.5448
8.67560000 0.001788 11.155 0.999994 -80.24 0.999994 -80.24 0.001788 8.5418
8.67570000 0.001785 11.157 0.999994 -80.24 0.999994 -80.24 0.001785 8.5388
8.67580000 0.001781 11.158 0.999994 -80.24 0.999994 -80.24 0.001781 8.5357
8.67590000 0.001777 11.159 0.999994 -80.25 0.999994 -80.25 0.001777 8.5327
8.67600000 0.001773 11.160 0.999994 -80.25 0.999994 -80.25 0.001773 8.5297
8.67610000 0.001770 11.161 0.999994 -80.25 0.999994 -80.25 0.001769 8.5266
8.67620000 0.001766 11.162 0.999994 -80.25 0.999994 -80.25 0.001766 8.5236
8.67630000 0.001762 11.164 0.999994 -80.25 0.999994 -80.25 0.001762 8.5205
8.67640000 0.001758 11.165 0.999994 -80.25 0.999994 -80.25 0.001758 8.5175
8.67650000 0.001754 11.166 0.999994 -80.25 0.999994 -80.25 0.001754 8.5144
8.67660000 0.001751 11.167 0.999994 -80.25 0.999994 -80.25 0.001751 8.5113
8.67670000 0.001747 11.168 0.999994 -80.25 0.999994 -80.25 0.001747 8.5082
8.67680000 0.001743 11.170 0.999994 -80.26 0.999994 -80.26 0.001743 8.5051
8.67690000 0.001739 11.171 0.999994 -80.26 0.999994 -80.26 0.001739 8.5019
8.67700000 0.001735 11.172 0.999994 -80.26 0.999994 -80.26 0.001735 8.4988
8.67710000 0.001732 11.174 0.999994 -80.26 0.999994 -80.26 0.001732 8.4956
8.67720000 0.001728 11.175 0.999994 -80.26 0.999994 -80.26 0.001728 8.4925
8.67730000 0.001724 11.176 0.999994 -80.26 0.999994 -80.26 0.001724 8.4893
8.67740000 0.001720 11.177 0.999994 -80.26 0.999994 -80.26 0.001720 8.4861
8.67750000 0.001716 11.179 0.999994 -80.26 0.999994 -80.26 0.001716 8.4830
8.67760000 0.001713 11.180 0.999994 -80.26 0.999994 -80.26 0.001712 8.4798
8.67770000 0.001709 11.182 0.999995 -80.27 0.999995 -80.27 0.001709 8.4765
8.67780000 0.001705 11.183 0.999995 -80.27 0.999995 -80.27 0.001705 8.4733
8.67790000 0.001701 11.184 0.999995 -80.27 0.999995 -80.27 0.001701 8.4701
8.67800000 0.001697 11.186 0.999995 -80.27 0.999995 -80.27 0.001697 8.4668
8.67810000 0.001693 11.187 0.999995 -80.27 0.999995 -80.27 0.001693 8.4636
8.67820000 0.001690 11.189 0.999995 -80.27 0.999995 -80.27 0.001690 8.4603
8.67830000 0.001686 11.190 0.999995 -80.27 0.999995 -80.27 0.001686 8.4570
8.67840000 0.001682 11.192 0.999995 -80.27 0.999995 -80.27 0.001682 8.4538
8.67850000 0.001678 11.193 0.999995 -80.28 0.999995 -80.28 0.001678 8.4504
8.67860000 0.001674 11.195 0.999995 -80.28 0.999995 -80.28 0.001674 8.4471
8.67870000 0.001670 11.196 0.999995 -80.28 0.999995 -80.28 0.001670 8.4438
8.67880000 0.001667 11.198 0.999995 -80.28 0.999995 -80.28 0.001666 8.4405
8.67890000 0.001663 11.199 0.999995 -80.28 0.999995 -80.28 0.001663 8.4371
8.67900000 0.001659 11.201 0.999995 -80.28 0.999995 -80.28 0.001659 8.4338
8.67910000 0.001655 11.202 0.999995 -80.28 0.999995 -80.28 0.001655 8.4304
8.67920000 0.001651 11.204 0.999995 -80.28 0.999995 -80.28 0.001651 8.4270
8.67930000 0.001647 11.205 0.999995 -80.28 0.999995 -80.28 0.001647 8.4236
8.67940000 0.001643 11.207 0.999995 -80.29 0.999995 -80.29 0.001643 8.4202
8.67950000 0.001639 11.209 0.999995 -80.29 0.999995 -80.29 0.001639 8.4168
8.67960000 0.001636 11.210 0.999995 -80.29 0.999995 -80.29 0.001635 8.4133
8.67970000 0.001632 11.212 0.999995 -80.29 0.999995 -80.29 0.001632 8.4099
8.67980000 0.001628 11.214 0.999995 -80.29 0.999995 -80.29 0.001628 8.4064
8.67990000 0.001624 11.215 0.999995 -80.29 0.999995 -80.29 0.001624 8.4029
8.68000000 0.001620 11.217 0.999995 -80.29 0.999995 -80.29 0.001620 8.3994
8.68010000 0.001616 11.219 0.999995 -80.29 0.999995 -80.29 0.001616 8.3959
8.68020000 0.001612 11.220 0.999995 -80.29 0.999995 -80.29 0.001612 8.3924
8.68030000 0.001608 11.222 0.999995 -80.30 0.999995 -80.30 0.001608 8.3889
8.68040000 0.001604 11.224 0.999995 -80.30 0.999995 -80.30 0.001604 8.3853
8.68050000 0.001600 11.226 0.999995 -80.30 0.999995 -80.30 0.001600 8.3818
8.68060000 0.001597 11.228 0.999995 -80.30 0.999995 -80.30 0.001596 8.3782
8.68070000 0.001593 11.229 0.999995 -80.30 0.999995 -80.30 0.001592 8.3746
8.68080000 0.001589 11.231 0.999995 -80.30 0.999995 -80.30 0.001589 8.3710
8.68090000 0.001585 11.233 0.999995 -80.30 0.999995 -80.30 0.001585 8.3674
8.68100000 0.001581 11.235 0.999995 -80.30 0.999995 -80.30 0.001581 8.3638
8.68110000 0.001577 11.237 0.999995 -80.31 0.999995 -80.31 0.001577 8.3601
8.68120000 0.001573 11.239 0.999995 -80.31 0.999995 -80.31 0.001573 8.3565
8.68130000 0.001569 11.241 0.999995 -80.31 0.999995 -80.31 0.001569 8.3528
8.68140000 0.001565 11.243 0.999995 -80.31 0.999995 -80.31 0.001565 8.3491
8.68150000 0.001561 11.245 0.999995 -80.31 0.999995 -80.31 0.001561 8.3454
8.68160000 0.001557 11.247 0.999995 -80.31 0.999995 -80.31 0.001557 8.3417
8.68170000 0.001553 11.249 0.999995 -80.31 0.999995 -80.31 0.001553 8.3379
8.68180000 0.001549 11.251 0.999995 -80.31 0.999995 -80.31 0.001549 8.3342
8.68190000 0.001545 11.253 0.999995 -80.31 0.999995 -80.31 0.001545 8.3304
8.68200000 0.001541 11.255 0.999995 -80.32 0.999995 -80.32 0.001541 8.3266
8.68210000 0.001537 11.257 0.999995 -80.32 0.999995 -80.32 0.001537 8.3228
8.68220000 0.001533 11.259 0.999995 -80.32 0.999995 -80.32 0.001533 8.3190
8.68230000 0.001529 11.261 0.999995 -80.32 0.999995 -80.32 0.001529 8.3152
8.68240000 0.001525 11.263 0.999995 -80.32 0.999995 -80.32 0.001525 8.3113
8.68250000 0.001521 11.265 0.999995 -80.32 0.999995 -80.32 0.001521 8.3075
8.68260000 0.001517 11.267 0.999995 -80.32 0.999995 -80.32 0.001517 8.3036
8.68270000 0.001513 11.270 0.999995 -80.32 0.999995 -80.32 0.001513 8.2997
8.68280000 0.001509 11.272 0.999995 -80.32 0.999995 -80.32 0.001509 8.2958
8.68290000 0.001505 11.274 0.999995 -80.33 0.999995 -80.33 0.001505 8.2918
8.68300000 0.001501 11.276 0.999995 -80.33 0.999995 -80.33 0.001501 8.2879
8.68310000 0.001497 11.279 0.999995 -80.33 0.999995 -80.33 0.001497 8.2839
8.68320000 0.001493 11.281 0.999995 -80.33 0.999995 -80.33 0.001493 8.2799
8.68330000 0.001489 11.283 0.999995 -80.33 0.999995 -80.33 0.001489 8.2759
8.68340000 0.001485 11.286 0.999995 -80.33 0.999995 -80.33 0.001485 8.2719
8.68350000 0.001481 11.288 0.999995 -80.33 0.999995 -80.33 0.001481 8.2679
8.68360000 0.001477 11.290 0.999995 -80.33 0.999995 -80.33 0.001477 8.2638
8.68370000 0.001473 11.293 0.999995 -80.34 0.999995 -80.34 0.001473 8.2597
8.68380000 0.001469 11.295 0.999995 -80.34 0.999995 -80.34 0.001469 8.2557
8.68390000 0.001465 11.298 0.999995 -80.34 0.999995 -80.34 0.001465 8.2515
8.68400000 0.001461 11.300 0.999995 -80.34 0.999995 -80.34 0.001461 8.2474
8.68410000 0.001457 11.303 0.999995 -80.34 0.999995 -80.34 0.001457 8.2433
8.68420000 0.001453 11.305 0.999995 -80.34 0.999995 -80.34 0.001453 8.2391
8.68430000 0.001449 11.308 0.999995 -80.34 0.999995 -80.34 0.001449 8.2349
8.68440000 0.001445 11.310 0.999995 -80.34 0.999995 -80.34 0.001445 8.2307
8.68450000 0.001441 11.313 0.999995 -80.34 0.999995 -80.34 0.001441 8.2265
8.68460000 0.001437 11.315 0.999995 -80.35 0.999995 -80.35 0.001437 8.2222
8.68470000 0.001433 11.318 0.999995 -80.35 0.999995 -80.35 0.001433 8.2179
8.68480000 0.001429 11.321 0.999995 -80.35 0.999995 -80.35 0.001429 8.2137
8.68490000 0.001425 11.323 0.999995 -80.35 0.999995 -80.35 0.001425 8.2093
8.68500000 0.001421 11.326 0.999995 -80.35 0.999995 -80.35 0.001421 8.2050
8.68510000 0.001417 11.329 0.999995 -80.35 0.999995 -80.35 0.001417 8.2007
8.68520000 0.001413 11.332 0.999995 -80.35 0.999995 -80.35 0.001412 8.1963
8.68530000 0.001409 11.334 0.999995 -80.35 0.999995 -80.35 0.001408 8.1919
8.68540000 0.001404 11.337 0.999995 -80.35 0.999995 -80.35 0.001404 8.1875
8.68550000 0.001400 11.340 0.999995 -80.36 0.999995 -80.36 0.001400 8.1830
8.68560000 0.001396 11.343 0.999995 -80.36 0.999995 -80.36 0.001396 8.1786
8.68570000 0.001392 11.346 0.999995 -80.36 0.999995 -80.36 0.001392 8.1741
8.68580000 0.001388 11.349 0.999995 -80.36 0.999995 -80.36 0.001388 8.1696
8.68590000 0.001384 11.352 0.999995 -80.36 0.999995 -80.36 0.001384 8.1650
8.68600000 0.001380 11.355 0.999995 -80.36 0.999995 -80.36 0.001380 8.1605
8.68610000 0.001376 11.358 0.999995 -80.36 0.999995 -80.36 0.001376 8.1559
8.68620000 0.001372 11.361 0.999995 -80.36 0.999995 -80.36 0.001371 8.1513
8.68630000 0.001368 11.364 0.999995 -80.37 0.999995 -80.37 0.001367 8.1467
8.68640000 0.001363 11.367 0.999995 -80.37 0.999995 -80.37 0.001363 8.1420
8.68650000 0.001359 11.370 0.999995 -80.37 0.999995 -80.37 0.001359 8.1374
8.68660000 0.001355 11.373 0.999995 -80.37 0.999995 -80.37 0.001355 8.1327
8.68670000 0.001351 11.376 0.999995 -80.37 0.999995 -80.37 0.001351 8.1280
8.68680000 0.001347 11.380 0.999995 -80.37 0.999995 -80.37 0.001347 8.1232
8.68690000 0.001343 11.383 0.999995 -80.37 0.999995 -80.37 0.001343 8.1184
8.68700000 0.001339 11.386 0.999995 -80.37 0.999995 -80.37 0.001338 8.1136
8.68710000 0.001334 11.389 0.999995 -80.37 0.999995 -80.37 0.001334 8.1088
8.68720000 0.001330 11.393 0.999995 -80.38 0.999995 -80.38 0.001330 8.1040
8.68730000 0.001326 11.396 0.999995 -80.38 0.999995 -80.38 0.001326 8.0991
8.68740000 0.001322 11.400 0.999995 -80.38 0.999995 -80.38 0.001322 8.0942
8.68750000 0.001318 11.403 0.999995 -80.38 0.999995 -80.38 0.001318 8.0893
8.68760000 0.001314 11.406 0.999995 -80.38 0.999995 -80.38 0.001314 8.0843
8.68770000 0.001310 11.410 0.999995 -80.38 0.999995 -80.38 0.001309 8.0793
8.68780000 0.001305 11.413 0.999995 -80.38 0.999995 -80.38 0.001305 8.0743
8.68790000 0.001301 11.417 0.999995 -80.38 0.999995 -80.38 0.001301 8.0693
8.68800000 0.001297 11.421 0.999995 -80.39 0.999995 -80.39 0.001297 8.0642
8.68810000 0.001293 11.424 0.999995 -80.39 0.999995 -80.39 0.001293 8.0591
8.68820000 0.001289 11.428 0.999995 -80.39 0.999995 -80.39 0.001288 8.0540
8.68830000 0.001284 11.432 0.999995 -80.39 0.999995 -80.39 0.001284 8.0488
8.68840000 0.001280 11.435 0.999995 -80.39 0.999995 -80.39 0.001280 8.0436
8.68850000 0.001276 11.439 0.999995 -80.39 0.999995 -80.39 0.001276 8.0384
8.68860000 0.001272 11.443 0.999995 -80.39 0.999995 -80.39 0.001272 8.0332
8.68870000 0.001268 11.447 0.999995 -80.39 0.999995 -80.39 0.001268 8.0279
8.68880000 0.001263 11.451 0.999995 -80.39 0.999995 -80.39 0.001263 8.0226
8.68890000 0.001259 11.455 0.999995 -80.40 0.999995 -80.40 0.001259 8.0172
8.68900000 0.001255 11.459 0.999995 -80.40 0.999995 -80.40 0.001255 8.0119
8.68910000 0.001251 11.463 0.999995 -80.40 0.999995 -80.40 0.001251 8.0065
8.68920000 0.001247 11.467 0.999995 -80.40 0.999995 -80.40 0.001246 8.0010