! Sonnet Data File
! From: emgraph Version : 16.52
! From Project: transmon_trial
! Data is De-embedded 
! Data File Written: 10/20/2017 09:13:07
!< HDATE 10/19/2017 20:03:37
!< MDATE 10/19/2017 20:10:25
!< PARAMS
!< Lj = 15.24
!< Gap = 16.0
!< Width = 10.0
!< Airgap = 6.0
!< Pwidth = 2000.0
!< END PARAMS
# GHZ S MA R 51.00000
8.65000000 0.035463 9.7813 0.999367 -80.35 0.999367 -80.35 0.035463 9.5304
!< P1 F=8.65 Eeff=(6.44686054 -2.9785e-5) Z0=(51.7994694 1.19079e-4) R=0.0 C=0.0 
!< P2 F=8.65 Eeff=(6.44686054 -2.9785e-5) Z0=(51.7994694 1.19079e-4) R=0.0 C=0.0 
8.65010000 0.035459 9.7801 0.999367 -80.35 0.999367 -80.35 0.035459 9.5292
8.65020000 0.035455 9.7789 0.999367 -80.35 0.999367 -80.35 0.035455 9.5281
8.65030000 0.035451 9.7777 0.999367 -80.35 0.999367 -80.35 0.035451 9.5269
8.65040000 0.035447 9.7765 0.999368 -80.35 0.999368 -80.35 0.035447 9.5258
8.65050000 0.035443 9.7753 0.999368 -80.35 0.999368 -80.35 0.035443 9.5246
8.65060000 0.035439 9.7741 0.999368 -80.36 0.999368 -80.36 0.035439 9.5235
8.65070000 0.035434 9.7729 0.999368 -80.36 0.999368 -80.36 0.035434 9.5224
8.65080000 0.035430 9.7717 0.999368 -80.36 0.999368 -80.36 0.035430 9.5212
8.65090000 0.035426 9.7705 0.999368 -80.36 0.999368 -80.36 0.035426 9.5201
8.65100000 0.035422 9.7693 0.999368 -80.36 0.999368 -80.36 0.035422 9.5189
8.65110000 0.035418 9.7681 0.999369 -80.36 0.999369 -80.36 0.035418 9.5178
8.65120000 0.035414 9.7669 0.999369 -80.36 0.999369 -80.36 0.035414 9.5166
8.65130000 0.035410 9.7657 0.999369 -80.36 0.999369 -80.36 0.035410 9.5155
8.65140000 0.035406 9.7644 0.999369 -80.37 0.999369 -80.37 0.035406 9.5143
8.65150000 0.035402 9.7632 0.999369 -80.37 0.999369 -80.37 0.035402 9.5132
8.65160000 0.035398 9.7620 0.999369 -80.37 0.999369 -80.37 0.035398 9.5120
8.65170000 0.035394 9.7608 0.999369 -80.37 0.999369 -80.37 0.035394 9.5109
8.65180000 0.035389 9.7596 0.999370 -80.37 0.999370 -80.37 0.035389 9.5097
8.65190000 0.035385 9.7584 0.999370 -80.37 0.999370 -80.37 0.035385 9.5086
8.65200000 0.035381 9.7572 0.999370 -80.37 0.999370 -80.37 0.035381 9.5074
8.65210000 0.035377 9.7560 0.999370 -80.37 0.999370 -80.37 0.035377 9.5063
8.65220000 0.035373 9.7548 0.999370 -80.37 0.999370 -80.37 0.035373 9.5051
8.65230000 0.035369 9.7536 0.999370 -80.38 0.999370 -80.38 0.035369 9.5040
8.65240000 0.035365 9.7524 0.999370 -80.38 0.999370 -80.38 0.035365 9.5028
8.65250000 0.035361 9.7512 0.999371 -80.38 0.999371 -80.38 0.035361 9.5017
8.65260000 0.035357 9.7500 0.999371 -80.38 0.999371 -80.38 0.035357 9.5005
8.65270000 0.035352 9.7488 0.999371 -80.38 0.999371 -80.38 0.035352 9.4994
8.65280000 0.035348 9.7476 0.999371 -80.38 0.999371 -80.38 0.035348 9.4982
8.65290000 0.035344 9.7463 0.999371 -80.38 0.999371 -80.38 0.035344 9.4971
8.65300000 0.035340 9.7451 0.999371 -80.38 0.999371 -80.38 0.035340 9.4959
8.65310000 0.035336 9.7439 0.999371 -80.39 0.999371 -80.39 0.035336 9.4948
8.65320000 0.035332 9.7427 0.999372 -80.39 0.999372 -80.39 0.035332 9.4936
8.65330000 0.035327 9.7415 0.999372 -80.39 0.999372 -80.39 0.035327 9.4925
8.65340000 0.035323 9.7403 0.999372 -80.39 0.999372 -80.39 0.035323 9.4913
8.65350000 0.035319 9.7391 0.999372 -80.39 0.999372 -80.39 0.035319 9.4902
8.65360000 0.035315 9.7379 0.999372 -80.39 0.999372 -80.39 0.035315 9.4890
8.65370000 0.035311 9.7367 0.999372 -80.39 0.999372 -80.39 0.035311 9.4879
8.65380000 0.035307 9.7355 0.999373 -80.39 0.999373 -80.39 0.035307 9.4867
8.65390000 0.035302 9.7342 0.999373 -80.39 0.999373 -80.39 0.035302 9.4856
8.65400000 0.035298 9.7330 0.999373 -80.40 0.999373 -80.40 0.035298 9.4844
8.65410000 0.035294 9.7318 0.999373 -80.40 0.999373 -80.40 0.035294 9.4833
8.65420000 0.035290 9.7306 0.999373 -80.40 0.999373 -80.40 0.035290 9.4821
8.65430000 0.035286 9.7294 0.999373 -80.40 0.999373 -80.40 0.035286 9.4809
8.65440000 0.035281 9.7282 0.999373 -80.40 0.999373 -80.40 0.035281 9.4798
8.65450000 0.035277 9.7270 0.999374 -80.40 0.999374 -80.40 0.035277 9.4786
8.65460000 0.035273 9.7258 0.999374 -80.40 0.999374 -80.40 0.035273 9.4775
8.65470000 0.035269 9.7246 0.999374 -80.40 0.999374 -80.40 0.035269 9.4763
8.65480000 0.035265 9.7233 0.999374 -80.41 0.999374 -80.41 0.035265 9.4752
8.65490000 0.035260 9.7221 0.999374 -80.41 0.999374 -80.41 0.035260 9.4740
8.65500000 0.035256 9.7209 0.999374 -80.41 0.999374 -80.41 0.035256 9.4729
8.65510000 0.035252 9.7197 0.999374 -80.41 0.999374 -80.41 0.035252 9.4717
8.65520000 0.035248 9.7185 0.999375 -80.41 0.999375 -80.41 0.035248 9.4706
8.65530000 0.035243 9.7173 0.999375 -80.41 0.999375 -80.41 0.035243 9.4694
8.65540000 0.035239 9.7161 0.999375 -80.41 0.999375 -80.41 0.035239 9.4683
8.65550000 0.035235 9.7148 0.999375 -80.41 0.999375 -80.41 0.035235 9.4671
8.65560000 0.035231 9.7136 0.999375 -80.42 0.999375 -80.42 0.035231 9.4659
8.65570000 0.035226 9.7124 0.999375 -80.42 0.999375 -80.42 0.035226 9.4648
8.65580000 0.035222 9.7112 0.999375 -80.42 0.999375 -80.42 0.035222 9.4636
8.65590000 0.035218 9.7100 0.999376 -80.42 0.999376 -80.42 0.035218 9.4625
8.65600000 0.035214 9.7088 0.999376 -80.42 0.999376 -80.42 0.035214 9.4613
8.65610000 0.035209 9.7075 0.999376 -80.42 0.999376 -80.42 0.035209 9.4602
8.65620000 0.035205 9.7063 0.999376 -80.42 0.999376 -80.42 0.035205 9.4590
8.65630000 0.035201 9.7051 0.999376 -80.42 0.999376 -80.42 0.035201 9.4578
8.65640000 0.035197 9.7039 0.999376 -80.42 0.999376 -80.42 0.035197 9.4567
8.65650000 0.035192 9.7027 0.999377 -80.43 0.999377 -80.43 0.035192 9.4555
8.65660000 0.035188 9.7015 0.999377 -80.43 0.999377 -80.43 0.035188 9.4544
8.65670000 0.035184 9.7002 0.999377 -80.43 0.999377 -80.43 0.035184 9.4532
8.65680000 0.035179 9.6990 0.999377 -80.43 0.999377 -80.43 0.035179 9.4521
8.65690000 0.035175 9.6978 0.999377 -80.43 0.999377 -80.43 0.035175 9.4509
8.65700000 0.035171 9.6966 0.999377 -80.43 0.999377 -80.43 0.035171 9.4497
8.65710000 0.035166 9.6954 0.999377 -80.43 0.999377 -80.43 0.035166 9.4486
8.65720000 0.035162 9.6941 0.999378 -80.43 0.999378 -80.43 0.035162 9.4474
8.65730000 0.035158 9.6929 0.999378 -80.44 0.999378 -80.44 0.035158 9.4463
8.65740000 0.035153 9.6917 0.999378 -80.44 0.999378 -80.44 0.035153 9.4451
8.65750000 0.035149 9.6905 0.999378 -80.44 0.999378 -80.44 0.035149 9.4439
8.65760000 0.035145 9.6893 0.999378 -80.44 0.999378 -80.44 0.035145 9.4428
8.65770000 0.035140 9.6880 0.999378 -80.44 0.999378 -80.44 0.035140 9.4416
8.65780000 0.035136 9.6868 0.999378 -80.44 0.999378 -80.44 0.035136 9.4405
8.65790000 0.035132 9.6856 0.999379 -80.44 0.999379 -80.44 0.035132 9.4393
8.65800000 0.035127 9.6844 0.999379 -80.44 0.999379 -80.44 0.035127 9.4381
8.65810000 0.035123 9.6832 0.999379 -80.44 0.999379 -80.44 0.035123 9.4370
8.65820000 0.035119 9.6819 0.999379 -80.45 0.999379 -80.45 0.035119 9.4358
8.65830000 0.035114 9.6807 0.999379 -80.45 0.999379 -80.45 0.035114 9.4347
8.65840000 0.035110 9.6795 0.999379 -80.45 0.999379 -80.45 0.035110 9.4335
8.65850000 0.035106 9.6783 0.999380 -80.45 0.999380 -80.45 0.035106 9.4323
8.65860000 0.035101 9.6770 0.999380 -80.45 0.999380 -80.45 0.035101 9.4312
8.65870000 0.035097 9.6758 0.999380 -80.45 0.999380 -80.45 0.035097 9.4300
8.65880000 0.035093 9.6746 0.999380 -80.45 0.999380 -80.45 0.035093 9.4289
8.65890000 0.035088 9.6734 0.999380 -80.45 0.999380 -80.45 0.035088 9.4277
8.65900000 0.035084 9.6722 0.999380 -80.46 0.999380 -80.46 0.035084 9.4265
8.65910000 0.035079 9.6709 0.999380 -80.46 0.999380 -80.46 0.035079 9.4254
8.65920000 0.035075 9.6697 0.999381 -80.46 0.999381 -80.46 0.035075 9.4242
8.65930000 0.035071 9.6685 0.999381 -80.46 0.999381 -80.46 0.035071 9.4231
8.65940000 0.035066 9.6673 0.999381 -80.46 0.999381 -80.46 0.035066 9.4219
8.65950000 0.035062 9.6660 0.999381 -80.46 0.999381 -80.46 0.035062 9.4207
8.65960000 0.035057 9.6648 0.999381 -80.46 0.999381 -80.46 0.035057 9.4196
8.65970000 0.035053 9.6636 0.999381 -80.46 0.999381 -80.46 0.035053 9.4184
8.65980000 0.035049 9.6624 0.999382 -80.47 0.999382 -80.47 0.035049 9.4172
8.65990000 0.035044 9.6611 0.999382 -80.47 0.999382 -80.47 0.035044 9.4161
8.66000000 0.035040 9.6599 0.999382 -80.47 0.999382 -80.47 0.035040 9.4149
8.66010000 0.035035 9.6587 0.999382 -80.47 0.999382 -80.47 0.035035 9.4137
8.66020000 0.035031 9.6574 0.999382 -80.47 0.999382 -80.47 0.035031 9.4126
8.66030000 0.035026 9.6562 0.999382 -80.47 0.999382 -80.47 0.035026 9.4114
8.66040000 0.035022 9.6550 0.999382 -80.47 0.999382 -80.47 0.035022 9.4102
8.66050000 0.035017 9.6538 0.999383 -80.47 0.999383 -80.47 0.035017 9.4091
8.66060000 0.035013 9.6525 0.999383 -80.47 0.999383 -80.47 0.035013 9.4079
8.66070000 0.035009 9.6513 0.999383 -80.48 0.999383 -80.48 0.035009 9.4068
8.66080000 0.035004 9.6501 0.999383 -80.48 0.999383 -80.48 0.035004 9.4056
8.66090000 0.035000 9.6488 0.999383 -80.48 0.999383 -80.48 0.035000 9.4044
8.66100000 0.034995 9.6476 0.999383 -80.48 0.999383 -80.48 0.034995 9.4033
8.66110000 0.034991 9.6464 0.999384 -80.48 0.999384 -80.48 0.034991 9.4021
8.66120000 0.034986 9.6452 0.999384 -80.48 0.999384 -80.48 0.034986 9.4009
8.66130000 0.034982 9.6439 0.999384 -80.48 0.999384 -80.48 0.034982 9.3998
8.66140000 0.034977 9.6427 0.999384 -80.48 0.999384 -80.48 0.034977 9.3986
8.66150000 0.034973 9.6415 0.999384 -80.49 0.999384 -80.49 0.034973 9.3974
8.66160000 0.034968 9.6402 0.999384 -80.49 0.999384 -80.49 0.034968 9.3963
8.66170000 0.034964 9.6390 0.999384 -80.49 0.999384 -80.49 0.034964 9.3951
8.66180000 0.034959 9.6378 0.999385 -80.49 0.999385 -80.49 0.034959 9.3939
8.66190000 0.034955 9.6365 0.999385 -80.49 0.999385 -80.49 0.034955 9.3928
8.66200000 0.034950 9.6353 0.999385 -80.49 0.999385 -80.49 0.034950 9.3916
8.66210000 0.034946 9.6341 0.999385 -80.49 0.999385 -80.49 0.034946 9.3904
8.66220000 0.034941 9.6328 0.999385 -80.49 0.999385 -80.49 0.034941 9.3892
8.66230000 0.034937 9.6316 0.999385 -80.50 0.999385 -80.50 0.034937 9.3881
8.66240000 0.034932 9.6304 0.999386 -80.50 0.999386 -80.50 0.034932 9.3869
8.66250000 0.034928 9.6291 0.999386 -80.50 0.999386 -80.50 0.034928 9.3857
8.66260000 0.034923 9.6279 0.999386 -80.50 0.999386 -80.50 0.034923 9.3846
8.66270000 0.034919 9.6267 0.999386 -80.50 0.999386 -80.50 0.034919 9.3834
8.66280000 0.034914 9.6254 0.999386 -80.50 0.999386 -80.50 0.034914 9.3822
8.66290000 0.034909 9.6242 0.999386 -80.50 0.999386 -80.50 0.034909 9.3811
8.66300000 0.034905 9.6230 0.999387 -80.50 0.999387 -80.50 0.034905 9.3799
8.66310000 0.034900 9.6217 0.999387 -80.50 0.999387 -80.50 0.034900 9.3787
8.66320000 0.034896 9.6205 0.999387 -80.51 0.999387 -80.51 0.034896 9.3776
8.66330000 0.034891 9.6193 0.999387 -80.51 0.999387 -80.51 0.034891 9.3764
8.66340000 0.034887 9.6180 0.999387 -80.51 0.999387 -80.51 0.034887 9.3752
8.66350000 0.034882 9.6168 0.999387 -80.51 0.999387 -80.51 0.034882 9.3740
8.66360000 0.034878 9.6155 0.999387 -80.51 0.999387 -80.51 0.034878 9.3729
8.66370000 0.034873 9.6143 0.999388 -80.51 0.999388 -80.51 0.034873 9.3717
8.66380000 0.034868 9.6131 0.999388 -80.51 0.999388 -80.51 0.034868 9.3705
8.66390000 0.034864 9.6118 0.999388 -80.51 0.999388 -80.51 0.034864 9.3694
8.66400000 0.034859 9.6106 0.999388 -80.52 0.999388 -80.52 0.034859 9.3682
8.66410000 0.034855 9.6094 0.999388 -80.52 0.999388 -80.52 0.034855 9.3670
8.66420000 0.034850 9.6081 0.999388 -80.52 0.999388 -80.52 0.034850 9.3658
8.66430000 0.034845 9.6069 0.999389 -80.52 0.999389 -80.52 0.034845 9.3647
8.66440000 0.034841 9.6056 0.999389 -80.52 0.999389 -80.52 0.034841 9.3635
8.66450000 0.034836 9.6044 0.999389 -80.52 0.999389 -80.52 0.034836 9.3623
8.66460000 0.034831 9.6032 0.999389 -80.52 0.999389 -80.52 0.034831 9.3611
8.66470000 0.034827 9.6019 0.999389 -80.52 0.999389 -80.52 0.034827 9.3600
8.66480000 0.034822 9.6007 0.999389 -80.53 0.999389 -80.53 0.034822 9.3588
8.66490000 0.034818 9.5994 0.999390 -80.53 0.999390 -80.53 0.034818 9.3576
8.66500000 0.034813 9.5982 0.999390 -80.53 0.999390 -80.53 0.034813 9.3565
8.66510000 0.034808 9.5970 0.999390 -80.53 0.999390 -80.53 0.034808 9.3553
8.66520000 0.034804 9.5957 0.999390 -80.53 0.999390 -80.53 0.034804 9.3541
8.66530000 0.034799 9.5945 0.999390 -80.53 0.999390 -80.53 0.034799 9.3529
8.66540000 0.034794 9.5932 0.999390 -80.53 0.999390 -80.53 0.034794 9.3518
8.66550000 0.034790 9.5920 0.999391 -80.53 0.999391 -80.53 0.034790 9.3506
8.66560000 0.034785 9.5908 0.999391 -80.53 0.999391 -80.53 0.034785 9.3494
8.66570000 0.034780 9.5895 0.999391 -80.54 0.999391 -80.54 0.034780 9.3482
8.66580000 0.034776 9.5883 0.999391 -80.54 0.999391 -80.54 0.034776 9.3471
8.66590000 0.034771 9.5870 0.999391 -80.54 0.999391 -80.54 0.034771 9.3459
8.66600000 0.034766 9.5858 0.999391 -80.54 0.999391 -80.54 0.034766 9.3447
8.66610000 0.034762 9.5845 0.999391 -80.54 0.999391 -80.54 0.034762 9.3435
8.66620000 0.034757 9.5833 0.999392 -80.54 0.999392 -80.54 0.034757 9.3423
8.66630000 0.034752 9.5820 0.999392 -80.54 0.999392 -80.54 0.034752 9.3412
8.66640000 0.034747 9.5808 0.999392 -80.54 0.999392 -80.54 0.034747 9.3400
8.66650000 0.034743 9.5796 0.999392 -80.55 0.999392 -80.55 0.034743 9.3388
8.66660000 0.034738 9.5783 0.999392 -80.55 0.999392 -80.55 0.034738 9.3376
8.66670000 0.034733 9.5771 0.999392 -80.55 0.999392 -80.55 0.034733 9.3365
8.66680000 0.034729 9.5758 0.999393 -80.55 0.999393 -80.55 0.034729 9.3353
8.66690000 0.034724 9.5746 0.999393 -80.55 0.999393 -80.55 0.034724 9.3341
8.66700000 0.034719 9.5733 0.999393 -80.55 0.999393 -80.55 0.034719 9.3329
8.66710000 0.034714 9.5721 0.999393 -80.55 0.999393 -80.55 0.034714 9.3317
8.66720000 0.034710 9.5708 0.999393 -80.55 0.999393 -80.55 0.034710 9.3306
8.66730000 0.034705 9.5696 0.999393 -80.56 0.999393 -80.56 0.034705 9.3294
8.66740000 0.034700 9.5683 0.999394 -80.56 0.999394 -80.56 0.034700 9.3282
8.66750000 0.034695 9.5671 0.999394 -80.56 0.999394 -80.56 0.034695 9.3270
8.66760000 0.034691 9.5658 0.999394 -80.56 0.999394 -80.56 0.034691 9.3259
8.66770000 0.034686 9.5646 0.999394 -80.56 0.999394 -80.56 0.034686 9.3247
8.66780000 0.034681 9.5633 0.999394 -80.56 0.999394 -80.56 0.034681 9.3235
8.66790000 0.034676 9.5621 0.999394 -80.56 0.999394 -80.56 0.034676 9.3223
8.66800000 0.034672 9.5608 0.999395 -80.56 0.999395 -80.56 0.034672 9.3211
8.66810000 0.034667 9.5596 0.999395 -80.57 0.999395 -80.57 0.034667 9.3200
8.66820000 0.034662 9.5583 0.999395 -80.57 0.999395 -80.57 0.034662 9.3188
8.66830000 0.034657 9.5571 0.999395 -80.57 0.999395 -80.57 0.034657 9.3176
8.66840000 0.034652 9.5558 0.999395 -80.57 0.999395 -80.57 0.034652 9.3164
8.66850000 0.034648 9.5546 0.999395 -80.57 0.999395 -80.57 0.034648 9.3152
8.66860000 0.034643 9.5533 0.999396 -80.57 0.999396 -80.57 0.034643 9.3140
8.66870000 0.034638 9.5521 0.999396 -80.57 0.999396 -80.57 0.034638 9.3129
8.66880000 0.034633 9.5508 0.999396 -80.57 0.999396 -80.57 0.034633 9.3117
8.66890000 0.034628 9.5496 0.999396 -80.58 0.999396 -80.58 0.034628 9.3105
8.66900000 0.034624 9.5483 0.999396 -80.58 0.999396 -80.58 0.034624 9.3093
8.66910000 0.034619 9.5471 0.999396 -80.58 0.999396 -80.58 0.034619 9.3081
8.66920000 0.034614 9.5458 0.999397 -80.58 0.999397 -80.58 0.034614 9.3069
8.66930000 0.034609 9.5446 0.999397 -80.58 0.999397 -80.58 0.034609 9.3058
8.66940000 0.034604 9.5433 0.999397 -80.58 0.999397 -80.58 0.034604 9.3046
8.66950000 0.034599 9.5421 0.999397 -80.58 0.999397 -80.58 0.034599 9.3034
8.66960000 0.034595 9.5408 0.999397 -80.58 0.999397 -80.58 0.034595 9.3022
8.66970000 0.034590 9.5395 0.999397 -80.58 0.999397 -80.58 0.034590 9.3010
8.66980000 0.034585 9.5383 0.999398 -80.59 0.999398 -80.59 0.034585 9.2998
8.66990000 0.034580 9.5370 0.999398 -80.59 0.999398 -80.59 0.034580 9.2987
8.67000000 0.034575 9.5358 0.999398 -80.59 0.999398 -80.59 0.034575 9.2975
8.67010000 0.034570 9.5345 0.999398 -80.59 0.999398 -80.59 0.034570 9.2963
8.67020000 0.034565 9.5333 0.999398 -80.59 0.999398 -80.59 0.034565 9.2951
8.67030000 0.034560 9.5320 0.999398 -80.59 0.999398 -80.59 0.034560 9.2939
8.67040000 0.034556 9.5308 0.999399 -80.59 0.999399 -80.59 0.034556 9.2927
8.67050000 0.034551 9.5295 0.999399 -80.59 0.999399 -80.59 0.034551 9.2916
8.67060000 0.034546 9.5282 0.999399 -80.60 0.999399 -80.60 0.034546 9.2904
8.67070000 0.034541 9.5270 0.999399 -80.60 0.999399 -80.60 0.034541 9.2892
8.67080000 0.034536 9.5257 0.999399 -80.60 0.999399 -80.60 0.034536 9.2880
8.67090000 0.034531 9.5245 0.999399 -80.60 0.999399 -80.60 0.034531 9.2868
8.67100000 0.034526 9.5232 0.999400 -80.60 0.999400 -80.60 0.034526 9.2856
8.67110000 0.034521 9.5219 0.999400 -80.60 0.999400 -80.60 0.034521 9.2844
8.67120000 0.034516 9.5207 0.999400 -80.60 0.999400 -80.60 0.034516 9.2832
8.67130000 0.034511 9.5194 0.999400 -80.60 0.999400 -80.60 0.034511 9.2821
8.67140000 0.034506 9.5182 0.999400 -80.61 0.999400 -80.61 0.034506 9.2809
8.67150000 0.034502 9.5169 0.999400 -80.61 0.999400 -80.61 0.034502 9.2797
8.67160000 0.034497 9.5156 0.999401 -80.61 0.999401 -80.61 0.034497 9.2785
8.67170000 0.034492 9.5144 0.999401 -80.61 0.999401 -80.61 0.034492 9.2773
8.67180000 0.034487 9.5131 0.999401 -80.61 0.999401 -80.61 0.034487 9.2761
8.67190000 0.034482 9.5119 0.999401 -80.61 0.999401 -80.61 0.034482 9.2749
8.67200000 0.034477 9.5106 0.999401 -80.61 0.999401 -80.61 0.034477 9.2737
8.67210000 0.034472 9.5093 0.999401 -80.61 0.999401 -80.61 0.034472 9.2725
8.67220000 0.034467 9.5081 0.999402 -80.62 0.999402 -80.62 0.034467 9.2714
8.67230000 0.034462 9.5068 0.999402 -80.62 0.999402 -80.62 0.034462 9.2702
8.67240000 0.034457 9.5055 0.999402 -80.62 0.999402 -80.62 0.034457 9.2690
8.67250000 0.034452 9.5043 0.999402 -80.62 0.999402 -80.62 0.034452 9.2678
8.67260000 0.034447 9.5030 0.999402 -80.62 0.999402 -80.62 0.034447 9.2666
8.67270000 0.034442 9.5017 0.999402 -80.62 0.999402 -80.62 0.034442 9.2654
8.67280000 0.034437 9.5005 0.999403 -80.62 0.999403 -80.62 0.034437 9.2642
8.67290000 0.034432 9.4992 0.999403 -80.62 0.999403 -80.62 0.034432 9.2630
8.67300000 0.034427 9.4980 0.999403 -80.63 0.999403 -80.63 0.034427 9.2618
8.67310000 0.034422 9.4967 0.999403 -80.63 0.999403 -80.63 0.034422 9.2606
8.67320000 0.034417 9.4954 0.999403 -80.63 0.999403 -80.63 0.034417 9.2594
8.67330000 0.034412 9.4942 0.999404 -80.63 0.999404 -80.63 0.034412 9.2583
8.67340000 0.034407 9.4929 0.999404 -80.63 0.999404 -80.63 0.034407 9.2571
8.67350000 0.034402 9.4916 0.999404 -80.63 0.999404 -80.63 0.034402 9.2559
8.67360000 0.034397 9.4904 0.999404 -80.63 0.999404 -80.63 0.034397 9.2547
8.67370000 0.034392 9.4891 0.999404 -80.63 0.999404 -80.63 0.034392 9.2535
8.67380000 0.034387 9.4878 0.999404 -80.64 0.999404 -80.64 0.034387 9.2523
8.67390000 0.034381 9.4865 0.999405 -80.64 0.999405 -80.64 0.034381 9.2511
8.67400000 0.034376 9.4853 0.999405 -80.64 0.999405 -80.64 0.034376 9.2499
8.67410000 0.034371 9.4840 0.999405 -80.64 0.999405 -80.64 0.034371 9.2487
8.67420000 0.034366 9.4827 0.999405 -80.64 0.999405 -80.64 0.034366 9.2475
8.67430000 0.034361 9.4815 0.999405 -80.64 0.999405 -80.64 0.034361 9.2463
8.67440000 0.034356 9.4802 0.999405 -80.64 0.999405 -80.64 0.034356 9.2451
8.67450000 0.034351 9.4789 0.999406 -80.64 0.999406 -80.64 0.034351 9.2439
8.67460000 0.034346 9.4777 0.999406 -80.65 0.999406 -80.65 0.034346 9.2427
8.67470000 0.034341 9.4764 0.999406 -80.65 0.999406 -80.65 0.034341 9.2415
8.67480000 0.034336 9.4751 0.999406 -80.65 0.999406 -80.65 0.034336 9.2403
8.67490000 0.034331 9.4738 0.999406 -80.65 0.999406 -80.65 0.034331 9.2391
8.67500000 0.034326 9.4726 0.999406 -80.65 0.999406 -80.65 0.034326 9.2379
8.67510000 0.034320 9.4713 0.999407 -80.65 0.999407 -80.65 0.034320 9.2368
8.67520000 0.034315 9.4700 0.999407 -80.65 0.999407 -80.65 0.034315 9.2356
8.67530000 0.034310 9.4688 0.999407 -80.65 0.999407 -80.65 0.034310 9.2344
8.67540000 0.034305 9.4675 0.999407 -80.65 0.999407 -80.65 0.034305 9.2332
8.67550000 0.034300 9.4662 0.999407 -80.66 0.999407 -80.66 0.034300 9.2320
8.67560000 0.034295 9.4649 0.999408 -80.66 0.999408 -80.66 0.034295 9.2308
8.67570000 0.034290 9.4637 0.999408 -80.66 0.999408 -80.66 0.034290 9.2296
8.67580000 0.034284 9.4624 0.999408 -80.66 0.999408 -80.66 0.034284 9.2284
8.67590000 0.034279 9.4611 0.999408 -80.66 0.999408 -80.66 0.034279 9.2272
8.67600000 0.034274 9.4598 0.999408 -80.66 0.999408 -80.66 0.034274 9.2260
8.67610000 0.034269 9.4586 0.999408 -80.66 0.999408 -80.66 0.034269 9.2248
8.67620000 0.034264 9.4573 0.999409 -80.66 0.999409 -80.66 0.034264 9.2236
8.67630000 0.034259 9.4560 0.999409 -80.67 0.999409 -80.67 0.034259 9.2224
8.67640000 0.034253 9.4547 0.999409 -80.67 0.999409 -80.67 0.034253 9.2212
8.67650000 0.034248 9.4535 0.999409 -80.67 0.999409 -80.67 0.034248 9.2200
8.67660000 0.034243 9.4522 0.999409 -80.67 0.999409 -80.67 0.034243 9.2188
8.67670000 0.034238 9.4509 0.999409 -80.67 0.999409 -80.67 0.034238 9.2176
8.67680000 0.034233 9.4496 0.999410 -80.67 0.999410 -80.67 0.034233 9.2164
8.67690000 0.034227 9.4483 0.999410 -80.67 0.999410 -80.67 0.034227 9.2152
8.67700000 0.034222 9.4471 0.999410 -80.67 0.999410 -80.67 0.034222 9.2140
8.67710000 0.034217 9.4458 0.999410 -80.68 0.999410 -80.68 0.034217 9.2128
8.67720000 0.034212 9.4445 0.999410 -80.68 0.999410 -80.68 0.034212 9.2116
8.67730000 0.034206 9.4432 0.999411 -80.68 0.999411 -80.68 0.034206 9.2104
8.67740000 0.034201 9.4419 0.999411 -80.68 0.999411 -80.68 0.034201 9.2092
8.67750000 0.034196 9.4407 0.999411 -80.68 0.999411 -80.68 0.034196 9.2080
8.67760000 0.034191 9.4394 0.999411 -80.68 0.999411 -80.68 0.034191 9.2068
8.67770000 0.034186 9.4381 0.999411 -80.68 0.999411 -80.68 0.034186 9.2056
8.67780000 0.034180 9.4368 0.999411 -80.68 0.999411 -80.68 0.034180 9.2044
8.67790000 0.034175 9.4355 0.999412 -80.69 0.999412 -80.69 0.034175 9.2032
8.67800000 0.034170 9.4343 0.999412 -80.69 0.999412 -80.69 0.034170 9.2020
8.67810000 0.034164 9.4330 0.999412 -80.69 0.999412 -80.69 0.034164 9.2007
8.67820000 0.034159 9.4317 0.999412 -80.69 0.999412 -80.69 0.034159 9.1995
8.67830000 0.034154 9.4304 0.999412 -80.69 0.999412 -80.69 0.034154 9.1983
8.67840000 0.034149 9.4291 0.999412 -80.69 0.999412 -80.69 0.034149 9.1971
8.67850000 0.034143 9.4278 0.999413 -80.69 0.999413 -80.69 0.034143 9.1959
8.67860000 0.034138 9.4266 0.999413 -80.69 0.999413 -80.69 0.034138 9.1947
8.67870000 0.034133 9.4253 0.999413 -80.70 0.999413 -80.70 0.034133 9.1935
8.67880000 0.034127 9.4240 0.999413 -80.70 0.999413 -80.70 0.034127 9.1923
8.67890000 0.034122 9.4227 0.999413 -80.70 0.999413 -80.70 0.034122 9.1911
8.67900000 0.034117 9.4214 0.999414 -80.70 0.999414 -80.70 0.034117 9.1899
8.67910000 0.034111 9.4201 0.999414 -80.70 0.999414 -80.70 0.034111 9.1887
8.67920000 0.034106 9.4188 0.999414 -80.70 0.999414 -80.70 0.034106 9.1875
8.67930000 0.034101 9.4176 0.999414 -80.70 0.999414 -80.70 0.034101 9.1863
8.67940000 0.034095 9.4163 0.999414 -80.70 0.999414 -80.70 0.034095 9.1851
8.67950000 0.034090 9.4150 0.999414 -80.71 0.999414 -80.71 0.034090 9.1839
8.67960000 0.034085 9.4137 0.999415 -80.71 0.999415 -80.71 0.034085 9.1827
8.67970000 0.034079 9.4124 0.999415 -80.71 0.999415 -80.71 0.034079 9.1815
8.67980000 0.034074 9.4111 0.999415 -80.71 0.999415 -80.71 0.034074 9.1802
8.67990000 0.034069 9.4098 0.999415 -80.71 0.999415 -80.71 0.034069 9.1790
8.68000000 0.034063 9.4085 0.999415 -80.71 0.999415 -80.71 0.034063 9.1778
8.68010000 0.034058 9.4072 0.999416 -80.71 0.999416 -80.71 0.034058 9.1766
8.68020000 0.034053 9.4060 0.999416 -80.71 0.999416 -80.71 0.034052 9.1754
8.68030000 0.034047 9.4047 0.999416 -80.72 0.999416 -80.72 0.034047 9.1742
8.68040000 0.034042 9.4034 0.999416 -80.72 0.999416 -80.72 0.034042 9.1730
8.68050000 0.034036 9.4021 0.999416 -80.72 0.999416 -80.72 0.034036 9.1718
8.68060000 0.034031 9.4008 0.999416 -80.72 0.999416 -80.72 0.034031 9.1706
8.68070000 0.034025 9.3995 0.999417 -80.72 0.999417 -80.72 0.034025 9.1694
8.68080000 0.034020 9.3982 0.999417 -80.72 0.999417 -80.72 0.034020 9.1682
8.68090000 0.034015 9.3969 0.999417 -80.72 0.999417 -80.72 0.034015 9.1669
8.68100000 0.034009 9.3956 0.999417 -80.72 0.999417 -80.72 0.034009 9.1657
8.68110000 0.034004 9.3943 0.999417 -80.73 0.999417 -80.73 0.034004 9.1645
8.68120000 0.033998 9.3930 0.999418 -80.73 0.999418 -80.73 0.033998 9.1633
8.68130000 0.033993 9.3917 0.999418 -80.73 0.999418 -80.73 0.033993 9.1621
8.68140000 0.033987 9.3904 0.999418 -80.73 0.999418 -80.73 0.033987 9.1609
8.68150000 0.033982 9.3891 0.999418 -80.73 0.999418 -80.73 0.033982 9.1597
8.68160000 0.033977 9.3879 0.999418 -80.73 0.999418 -80.73 0.033977 9.1585
8.68170000 0.033971 9.3866 0.999419 -80.73 0.999419 -80.73 0.033971 9.1573
8.68180000 0.033966 9.3853 0.999419 -80.73 0.999419 -80.73 0.033966 9.1560
8.68190000 0.033960 9.3840 0.999419 -80.74 0.999419 -80.74 0.033960 9.1548
8.68200000 0.033955 9.3827 0.999419 -80.74 0.999419 -80.74 0.033955 9.1536
8.68210000 0.033949 9.3814 0.999419 -80.74 0.999419 -80.74 0.033949 9.1524
8.68220000 0.033944 9.3801 0.999419 -80.74 0.999419 -80.74 0.033944 9.1512
8.68230000 0.033938 9.3788 0.999420 -80.74 0.999420 -80.74 0.033938 9.1500
8.68240000 0.033933 9.3775 0.999420 -80.74 0.999420 -80.74 0.033933 9.1488
8.68250000 0.033927 9.3762 0.999420 -80.74 0.999420 -80.74 0.033927 9.1475
8.68260000 0.033922 9.3749 0.999420 -80.74 0.999420 -80.74 0.033922 9.1463
8.68270000 0.033916 9.3736 0.999420 -80.75 0.999420 -80.75 0.033916 9.1451
8.68280000 0.033911 9.3723 0.999421 -80.75 0.999421 -80.75 0.033911 9.1439
8.68290000 0.033905 9.3710 0.999421 -80.75 0.999421 -80.75 0.033905 9.1427
8.68300000 0.033899 9.3697 0.999421 -80.75 0.999421 -80.75 0.033899 9.1415
8.68310000 0.033894 9.3684 0.999421 -80.75 0.999421 -80.75 0.033894 9.1402
8.68320000 0.033888 9.3671 0.999421 -80.75 0.999421 -80.75 0.033888 9.1390
8.68330000 0.033883 9.3658 0.999421 -80.75 0.999421 -80.75 0.033883 9.1378
8.68340000 0.033877 9.3645 0.999422 -80.75 0.999422 -80.75 0.033877 9.1366
8.68350000 0.033872 9.3632 0.999422 -80.76 0.999422 -80.76 0.033872 9.1354
8.68360000 0.033866 9.3619 0.999422 -80.76 0.999422 -80.76 0.033866 9.1342
8.68370000 0.033861 9.3606 0.999422 -80.76 0.999422 -80.76 0.033861 9.1329
8.68380000 0.033855 9.3593 0.999422 -80.76 0.999422 -80.76 0.033855 9.1317
8.68390000 0.033849 9.3580 0.999423 -80.76 0.999423 -80.76 0.033849 9.1305
8.68400000 0.033844 9.3567 0.999423 -80.76 0.999423 -80.76 0.033844 9.1293
8.68410000 0.033838 9.3553 0.999423 -80.76 0.999423 -80.76 0.033838 9.1281
8.68420000 0.033833 9.3540 0.999423 -80.77 0.999423 -80.77 0.033833 9.1268
8.68430000 0.033827 9.3527 0.999423 -80.77 0.999423 -80.77 0.033827 9.1256
8.68440000 0.033821 9.3514 0.999424 -80.77 0.999424 -80.77 0.033821 9.1244
8.68450000 0.033816 9.3501 0.999424 -80.77 0.999424 -80.77 0.033816 9.1232
8.68460000 0.033810 9.3488 0.999424 -80.77 0.999424 -80.77 0.033810 9.1220
8.68470000 0.033804 9.3475 0.999424 -80.77 0.999424 -80.77 0.033804 9.1207
8.68480000 0.033799 9.3462 0.999424 -80.77 0.999424 -80.77 0.033799 9.1195
8.68490000 0.033793 9.3449 0.999425 -80.77 0.999425 -80.77 0.033793 9.1183
8.68500000 0.033787 9.3436 0.999425 -80.78 0.999425 -80.78 0.033787 9.1171
8.68510000 0.033782 9.3423 0.999425 -80.78 0.999425 -80.78 0.033782 9.1159
8.68520000 0.033776 9.3410 0.999425 -80.78 0.999425 -80.78 0.033776 9.1146
8.68530000 0.033770 9.3397 0.999425 -80.78 0.999425 -80.78 0.033770 9.1134
8.68540000 0.033765 9.3384 0.999425 -80.78 0.999425 -80.78 0.033765 9.1122
8.68550000 0.033759 9.3370 0.999426 -80.78 0.999426 -80.78 0.033759 9.1110
8.68560000 0.033753 9.3357 0.999426 -80.78 0.999426 -80.78 0.033753 9.1098
8.68570000 0.033748 9.3344 0.999426 -80.78 0.999426 -80.78 0.033748 9.1085
8.68580000 0.033742 9.3331 0.999426 -80.79 0.999426 -80.79 0.033742 9.1073
8.68590000 0.033736 9.3318 0.999426 -80.79 0.999426 -80.79 0.033736 9.1061
8.68600000 0.033731 9.3305 0.999427 -80.79 0.999427 -80.79 0.033731 9.1049
8.68610000 0.033725 9.3292 0.999427 -80.79 0.999427 -80.79 0.033725 9.1036
8.68620000 0.033719 9.3279 0.999427 -80.79 0.999427 -80.79 0.033719 9.1024
8.68630000 0.033713 9.3265 0.999427 -80.79 0.999427 -80.79 0.033713 9.1012
8.68640000 0.033708 9.3252 0.999427 -80.79 0.999427 -80.79 0.033708 9.1000
8.68650000 0.033702 9.3239 0.999428 -80.79 0.999428 -80.79 0.033702 9.0987
8.68660000 0.033696 9.3226 0.999428 -80.80 0.999428 -80.80 0.033696 9.0975
8.68670000 0.033690 9.3213 0.999428 -80.80 0.999428 -80.80 0.033690 9.0963
8.68680000 0.033685 9.3200 0.999428 -80.80 0.999428 -80.80 0.033685 9.0951
8.68690000 0.033679 9.3187 0.999428 -80.80 0.999428 -80.80 0.033679 9.0938
8.68700000 0.033673 9.3173 0.999429 -80.80 0.999429 -80.80 0.033673 9.0926
8.68710000 0.033667 9.3160 0.999429 -80.80 0.999429 -80.80 0.033667 9.0914
8.68720000 0.033662 9.3147 0.999429 -80.80 0.999429 -80.80 0.033662 9.0901
8.68730000 0.033656 9.3134 0.999429 -80.80 0.999429 -80.80 0.033656 9.0889
8.68740000 0.033650 9.3121 0.999429 -80.81 0.999429 -80.81 0.033650 9.0877
8.68750000 0.033644 9.3108 0.999429 -80.81 0.999429 -80.81 0.033644 9.0865
8.68760000 0.033638 9.3094 0.999430 -80.81 0.999430 -80.81 0.033638 9.0852
8.68770000 0.033633 9.3081 0.999430 -80.81 0.999430 -80.81 0.033633 9.0840
8.68780000 0.033627 9.3068 0.999430 -80.81 0.999430 -80.81 0.033627 9.0828
8.68790000 0.033621 9.3055 0.999430 -80.81 0.999430 -80.81 0.033621 9.0815
8.68800000 0.033615 9.3042 0.999430 -80.81 0.999430 -80.81 0.033615 9.0803
8.68810000 0.033609 9.3028 0.999431 -80.81 0.999431 -80.81 0.033609 9.0791
8.68820000 0.033603 9.3015 0.999431 -80.82 0.999431 -80.82 0.033603 9.0779
8.68830000 0.033598 9.3002 0.999431 -80.82 0.999431 -80.82 0.033598 9.0766
8.68840000 0.033592 9.2989 0.999431 -80.82 0.999431 -80.82 0.033592 9.0754
8.68850000 0.033586 9.2976 0.999431 -80.82 0.999431 -80.82 0.033586 9.0742
8.68860000 0.033580 9.2962 0.999432 -80.82 0.999432 -80.82 0.033580 9.0729
8.68870000 0.033574 9.2949 0.999432 -80.82 0.999432 -80.82 0.033574 9.0717
8.68880000 0.033568 9.2936 0.999432 -80.82 0.999432 -80.82 0.033568 9.0705
8.68890000 0.033562 9.2923 0.999432 -80.82 0.999432 -80.82 0.033562 9.0692
8.68900000 0.033556 9.2909 0.999432 -80.83 0.999432 -80.83 0.033556 9.0680
8.68910000 0.033551 9.2896 0.999433 -80.83 0.999433 -80.83 0.033551 9.0668
8.68920000 0.033545 9.2883 0.999433 -80.83 0.999433 -80.83 0.033545 9.0655