! Sonnet Data File
! From: emgraph Version : 16.52
! From Project: transmon_trial
! Data is De-embedded 
! Data File Written: 10/20/2017 09:13:08
!< HDATE 10/19/2017 20:03:37
!< MDATE 10/19/2017 20:10:25
!< PARAMS
!< Lj = 15.24
!< Gap = 26.0
!< Width = 10.0
!< Airgap = 6.0
!< Pwidth = 2000.0
!< END PARAMS
# GHZ S MA R 51.00000
8.65000000 0.044853 10.023 0.998990 -80.12 0.998990 -80.12 0.044853 9.7390
!< P1 F=8.65 Eeff=(6.44686054 -2.9785e-5) Z0=(51.7994694 1.19079e-4) R=0.0 C=0.0 
!< P2 F=8.65 Eeff=(6.44686054 -2.9785e-5) Z0=(51.7994694 1.19079e-4) R=0.0 C=0.0 
8.65010000 0.044852 10.022 0.998990 -80.12 0.998990 -80.12 0.044852 9.7380
8.65020000 0.044850 10.021 0.998990 -80.12 0.998990 -80.12 0.044850 9.7370
8.65030000 0.044849 10.020 0.998990 -80.13 0.998990 -80.13 0.044849 9.7360
8.65040000 0.044848 10.019 0.998990 -80.13 0.998990 -80.13 0.044848 9.7350
8.65050000 0.044847 10.018 0.998990 -80.13 0.998990 -80.13 0.044847 9.7339
8.65060000 0.044845 10.017 0.998990 -80.13 0.998990 -80.13 0.044845 9.7329
8.65070000 0.044844 10.016 0.998990 -80.13 0.998990 -80.13 0.044844 9.7319
8.65080000 0.044843 10.015 0.998991 -80.13 0.998991 -80.13 0.044843 9.7309
8.65090000 0.044841 10.014 0.998991 -80.13 0.998991 -80.13 0.044841 9.7299
8.65100000 0.044840 10.013 0.998991 -80.13 0.998991 -80.13 0.044840 9.7289
8.65110000 0.044839 10.011 0.998991 -80.13 0.998991 -80.13 0.044839 9.7279
8.65120000 0.044837 10.010 0.998991 -80.13 0.998991 -80.13 0.044837 9.7268
8.65130000 0.044836 10.009 0.998991 -80.14 0.998991 -80.14 0.044836 9.7258
8.65140000 0.044835 10.008 0.998991 -80.14 0.998991 -80.14 0.044835 9.7248
8.65150000 0.044833 10.007 0.998991 -80.14 0.998991 -80.14 0.044833 9.7238
8.65160000 0.044832 10.006 0.998991 -80.14 0.998991 -80.14 0.044832 9.7228
8.65170000 0.044831 10.005 0.998991 -80.14 0.998991 -80.14 0.044831 9.7218
8.65180000 0.044829 10.004 0.998991 -80.14 0.998991 -80.14 0.044829 9.7208
8.65190000 0.044828 10.003 0.998991 -80.14 0.998991 -80.14 0.044828 9.7197
8.65200000 0.044827 10.002 0.998991 -80.14 0.998991 -80.14 0.044827 9.7187
8.65210000 0.044825 10.001 0.998991 -80.14 0.998991 -80.14 0.044825 9.7177
8.65220000 0.044824 10.000 0.998991 -80.14 0.998991 -80.14 0.044824 9.7167
8.65230000 0.044822 9.9991 0.998991 -80.15 0.998991 -80.15 0.044822 9.7157
8.65240000 0.044821 9.9981 0.998992 -80.15 0.998992 -80.15 0.044821 9.7147
8.65250000 0.044820 9.9970 0.998992 -80.15 0.998992 -80.15 0.044820 9.7137
8.65260000 0.044818 9.9960 0.998992 -80.15 0.998992 -80.15 0.044818 9.7126
8.65270000 0.044817 9.9950 0.998992 -80.15 0.998992 -80.15 0.044817 9.7116
8.65280000 0.044816 9.9939 0.998992 -80.15 0.998992 -80.15 0.044816 9.7106
8.65290000 0.044814 9.9929 0.998992 -80.15 0.998992 -80.15 0.044814 9.7096
8.65300000 0.044813 9.9919 0.998992 -80.15 0.998992 -80.15 0.044813 9.7086
8.65310000 0.044812 9.9908 0.998992 -80.15 0.998992 -80.15 0.044812 9.7076
8.65320000 0.044810 9.9898 0.998992 -80.16 0.998992 -80.16 0.044810 9.7066
8.65330000 0.044809 9.9887 0.998992 -80.16 0.998992 -80.16 0.044809 9.7055
8.65340000 0.044808 9.9877 0.998992 -80.16 0.998992 -80.16 0.044808 9.7045
8.65350000 0.044806 9.9867 0.998992 -80.16 0.998992 -80.16 0.044806 9.7035
8.65360000 0.044805 9.9856 0.998992 -80.16 0.998992 -80.16 0.044805 9.7025
8.65370000 0.044803 9.9846 0.998992 -80.16 0.998992 -80.16 0.044803 9.7015
8.65380000 0.044802 9.9836 0.998992 -80.16 0.998992 -80.16 0.044802 9.7005
8.65390000 0.044801 9.9825 0.998992 -80.16 0.998992 -80.16 0.044801 9.6995
8.65400000 0.044799 9.9815 0.998992 -80.16 0.998992 -80.16 0.044799 9.6984
8.65410000 0.044798 9.9805 0.998993 -80.16 0.998993 -80.16 0.044798 9.6974
8.65420000 0.044797 9.9794 0.998993 -80.17 0.998993 -80.17 0.044797 9.6964
8.65430000 0.044795 9.9784 0.998993 -80.17 0.998993 -80.17 0.044795 9.6954
8.65440000 0.044794 9.9774 0.998993 -80.17 0.998993 -80.17 0.044794 9.6944
8.65450000 0.044793 9.9763 0.998993 -80.17 0.998993 -80.17 0.044793 9.6934
8.65460000 0.044791 9.9753 0.998993 -80.17 0.998993 -80.17 0.044791 9.6923
8.65470000 0.044790 9.9743 0.998993 -80.17 0.998993 -80.17 0.044790 9.6913
8.65480000 0.044788 9.9732 0.998993 -80.17 0.998993 -80.17 0.044788 9.6903
8.65490000 0.044787 9.9722 0.998993 -80.17 0.998993 -80.17 0.044787 9.6893
8.65500000 0.044786 9.9712 0.998993 -80.17 0.998993 -80.17 0.044786 9.6883
8.65510000 0.044784 9.9701 0.998993 -80.17 0.998993 -80.17 0.044784 9.6873
8.65520000 0.044783 9.9691 0.998993 -80.18 0.998993 -80.18 0.044783 9.6862
8.65530000 0.044781 9.9681 0.998993 -80.18 0.998993 -80.18 0.044781 9.6852
8.65540000 0.044780 9.9670 0.998993 -80.18 0.998993 -80.18 0.044780 9.6842
8.65550000 0.044779 9.9660 0.998993 -80.18 0.998993 -80.18 0.044779 9.6832
8.65560000 0.044777 9.9649 0.998993 -80.18 0.998993 -80.18 0.044777 9.6822
8.65570000 0.044776 9.9639 0.998994 -80.18 0.998994 -80.18 0.044776 9.6812
8.65580000 0.044775 9.9629 0.998994 -80.18 0.998994 -80.18 0.044775 9.6801
8.65590000 0.044773 9.9618 0.998994 -80.18 0.998994 -80.18 0.044773 9.6791
8.65600000 0.044772 9.9608 0.998994 -80.18 0.998994 -80.18 0.044772 9.6781
8.65610000 0.044770 9.9598 0.998994 -80.18 0.998994 -80.18 0.044770 9.6771
8.65620000 0.044769 9.9587 0.998994 -80.19 0.998994 -80.19 0.044769 9.6761
8.65630000 0.044768 9.9577 0.998994 -80.19 0.998994 -80.19 0.044768 9.6751
8.65640000 0.044766 9.9567 0.998994 -80.19 0.998994 -80.19 0.044766 9.6740
8.65650000 0.044765 9.9556 0.998994 -80.19 0.998994 -80.19 0.044765 9.6730
8.65660000 0.044763 9.9546 0.998994 -80.19 0.998994 -80.19 0.044763 9.6720
8.65670000 0.044762 9.9535 0.998994 -80.19 0.998994 -80.19 0.044762 9.6710
8.65680000 0.044761 9.9525 0.998994 -80.19 0.998994 -80.19 0.044761 9.6700
8.65690000 0.044759 9.9515 0.998994 -80.19 0.998994 -80.19 0.044759 9.6690
8.65700000 0.044758 9.9504 0.998994 -80.19 0.998994 -80.19 0.044758 9.6679
8.65710000 0.044756 9.9494 0.998994 -80.20 0.998994 -80.20 0.044756 9.6669
8.65720000 0.044755 9.9484 0.998994 -80.20 0.998994 -80.20 0.044755 9.6659
8.65730000 0.044753 9.9473 0.998995 -80.20 0.998995 -80.20 0.044753 9.6649
8.65740000 0.044752 9.9463 0.998995 -80.20 0.998995 -80.20 0.044752 9.6639
8.65750000 0.044751 9.9452 0.998995 -80.20 0.998995 -80.20 0.044751 9.6629
8.65760000 0.044749 9.9442 0.998995 -80.20 0.998995 -80.20 0.044749 9.6618
8.65770000 0.044748 9.9432 0.998995 -80.20 0.998995 -80.20 0.044748 9.6608
8.65780000 0.044746 9.9421 0.998995 -80.20 0.998995 -80.20 0.044746 9.6598
8.65790000 0.044745 9.9411 0.998995 -80.20 0.998995 -80.20 0.044745 9.6588
8.65800000 0.044744 9.9401 0.998995 -80.20 0.998995 -80.20 0.044744 9.6578
8.65810000 0.044742 9.9390 0.998995 -80.21 0.998995 -80.21 0.044742 9.6567
8.65820000 0.044741 9.9380 0.998995 -80.21 0.998995 -80.21 0.044741 9.6557
8.65830000 0.044739 9.9369 0.998995 -80.21 0.998995 -80.21 0.044739 9.6547
8.65840000 0.044738 9.9359 0.998995 -80.21 0.998995 -80.21 0.044738 9.6537
8.65850000 0.044736 9.9349 0.998995 -80.21 0.998995 -80.21 0.044736 9.6527
8.65860000 0.044735 9.9338 0.998995 -80.21 0.998995 -80.21 0.044735 9.6516
8.65870000 0.044734 9.9328 0.998995 -80.21 0.998995 -80.21 0.044734 9.6506
8.65880000 0.044732 9.9317 0.998995 -80.21 0.998995 -80.21 0.044732 9.6496
8.65890000 0.044731 9.9307 0.998996 -80.21 0.998996 -80.21 0.044731 9.6486
8.65900000 0.044729 9.9297 0.998996 -80.21 0.998996 -80.21 0.044729 9.6476
8.65910000 0.044728 9.9286 0.998996 -80.22 0.998996 -80.22 0.044728 9.6466
8.65920000 0.044726 9.9276 0.998996 -80.22 0.998996 -80.22 0.044726 9.6455
8.65930000 0.044725 9.9266 0.998996 -80.22 0.998996 -80.22 0.044725 9.6445
8.65940000 0.044723 9.9255 0.998996 -80.22 0.998996 -80.22 0.044723 9.6435
8.65950000 0.044722 9.9245 0.998996 -80.22 0.998996 -80.22 0.044722 9.6425
8.65960000 0.044721 9.9234 0.998996 -80.22 0.998996 -80.22 0.044721 9.6415
8.65970000 0.044719 9.9224 0.998996 -80.22 0.998996 -80.22 0.044719 9.6404
8.65980000 0.044718 9.9214 0.998996 -80.22 0.998996 -80.22 0.044718 9.6394
8.65990000 0.044716 9.9203 0.998996 -80.22 0.998996 -80.22 0.044716 9.6384
8.66000000 0.044715 9.9193 0.998996 -80.22 0.998996 -80.22 0.044715 9.6374
8.66010000 0.044713 9.9182 0.998996 -80.23 0.998996 -80.23 0.044713 9.6364
8.66020000 0.044712 9.9172 0.998996 -80.23 0.998996 -80.23 0.044712 9.6353
8.66030000 0.044710 9.9162 0.998996 -80.23 0.998996 -80.23 0.044710 9.6343
8.66040000 0.044709 9.9151 0.998996 -80.23 0.998996 -80.23 0.044709 9.6333
8.66050000 0.044707 9.9141 0.998997 -80.23 0.998997 -80.23 0.044707 9.6323
8.66060000 0.044706 9.9130 0.998997 -80.23 0.998997 -80.23 0.044706 9.6313
8.66070000 0.044705 9.9120 0.998997 -80.23 0.998997 -80.23 0.044705 9.6302
8.66080000 0.044703 9.9110 0.998997 -80.23 0.998997 -80.23 0.044703 9.6292
8.66090000 0.044702 9.9099 0.998997 -80.23 0.998997 -80.23 0.044702 9.6282
8.66100000 0.044700 9.9089 0.998997 -80.24 0.998997 -80.24 0.044700 9.6272
8.66110000 0.044699 9.9078 0.998997 -80.24 0.998997 -80.24 0.044699 9.6262
8.66120000 0.044697 9.9068 0.998997 -80.24 0.998997 -80.24 0.044697 9.6251
8.66130000 0.044696 9.9057 0.998997 -80.24 0.998997 -80.24 0.044696 9.6241
8.66140000 0.044694 9.9047 0.998997 -80.24 0.998997 -80.24 0.044694 9.6231
8.66150000 0.044693 9.9037 0.998997 -80.24 0.998997 -80.24 0.044693 9.6221
8.66160000 0.044691 9.9026 0.998997 -80.24 0.998997 -80.24 0.044691 9.6211
8.66170000 0.044690 9.9016 0.998997 -80.24 0.998997 -80.24 0.044690 9.6200
8.66180000 0.044688 9.9005 0.998997 -80.24 0.998997 -80.24 0.044688 9.6190
8.66190000 0.044687 9.8995 0.998997 -80.24 0.998997 -80.24 0.044687 9.6180
8.66200000 0.044685 9.8985 0.998998 -80.25 0.998998 -80.25 0.044685 9.6170
8.66210000 0.044684 9.8974 0.998998 -80.25 0.998998 -80.25 0.044684 9.6160
8.66220000 0.044682 9.8964 0.998998 -80.25 0.998998 -80.25 0.044682 9.6149
8.66230000 0.044681 9.8953 0.998998 -80.25 0.998998 -80.25 0.044681 9.6139
8.66240000 0.044679 9.8943 0.998998 -80.25 0.998998 -80.25 0.044679 9.6129
8.66250000 0.044678 9.8932 0.998998 -80.25 0.998998 -80.25 0.044678 9.6119
8.66260000 0.044677 9.8922 0.998998 -80.25 0.998998 -80.25 0.044677 9.6108
8.66270000 0.044675 9.8912 0.998998 -80.25 0.998998 -80.25 0.044675 9.6098
8.66280000 0.044674 9.8901 0.998998 -80.25 0.998998 -80.25 0.044674 9.6088
8.66290000 0.044672 9.8891 0.998998 -80.25 0.998998 -80.25 0.044672 9.6078
8.66300000 0.044671 9.8880 0.998998 -80.26 0.998998 -80.26 0.044671 9.6068
8.66310000 0.044669 9.8870 0.998998 -80.26 0.998998 -80.26 0.044669 9.6057
8.66320000 0.044668 9.8860 0.998998 -80.26 0.998998 -80.26 0.044668 9.6047
8.66330000 0.044666 9.8849 0.998998 -80.26 0.998998 -80.26 0.044666 9.6037
8.66340000 0.044665 9.8839 0.998998 -80.26 0.998998 -80.26 0.044665 9.6027
8.66350000 0.044663 9.8828 0.998999 -80.26 0.998999 -80.26 0.044663 9.6016
8.66360000 0.044662 9.8818 0.998999 -80.26 0.998999 -80.26 0.044662 9.6006
8.66370000 0.044660 9.8807 0.998999 -80.26 0.998999 -80.26 0.044660 9.5996
8.66380000 0.044659 9.8797 0.998999 -80.26 0.998999 -80.26 0.044659 9.5986
8.66390000 0.044657 9.8786 0.998999 -80.27 0.998999 -80.27 0.044657 9.5976
8.66400000 0.044656 9.8776 0.998999 -80.27 0.998999 -80.27 0.044656 9.5965
8.66410000 0.044654 9.8766 0.998999 -80.27 0.998999 -80.27 0.044654 9.5955
8.66420000 0.044652 9.8755 0.998999 -80.27 0.998999 -80.27 0.044652 9.5945
8.66430000 0.044651 9.8745 0.998999 -80.27 0.998999 -80.27 0.044651 9.5935
8.66440000 0.044649 9.8734 0.998999 -80.27 0.998999 -80.27 0.044649 9.5924
8.66450000 0.044648 9.8724 0.998999 -80.27 0.998999 -80.27 0.044648 9.5914
8.66460000 0.044646 9.8713 0.998999 -80.27 0.998999 -80.27 0.044646 9.5904
8.66470000 0.044645 9.8703 0.998999 -80.27 0.998999 -80.27 0.044645 9.5894
8.66480000 0.044643 9.8693 0.998999 -80.27 0.998999 -80.27 0.044643 9.5884
8.66490000 0.044642 9.8682 0.998999 -80.28 0.998999 -80.28 0.044642 9.5873
8.66500000 0.044640 9.8672 0.999000 -80.28 0.999000 -80.28 0.044640 9.5863
8.66510000 0.044639 9.8661 0.999000 -80.28 0.999000 -80.28 0.044639 9.5853
8.66520000 0.044637 9.8651 0.999000 -80.28 0.999000 -80.28 0.044637 9.5843
8.66530000 0.044636 9.8640 0.999000 -80.28 0.999000 -80.28 0.044636 9.5832
8.66540000 0.044634 9.8630 0.999000 -80.28 0.999000 -80.28 0.044634 9.5822
8.66550000 0.044633 9.8619 0.999000 -80.28 0.999000 -80.28 0.044633 9.5812
8.66560000 0.044631 9.8609 0.999000 -80.28 0.999000 -80.28 0.044631 9.5802
8.66570000 0.044630 9.8598 0.999000 -80.28 0.999000 -80.28 0.044630 9.5791
8.66580000 0.044628 9.8588 0.999000 -80.28 0.999000 -80.28 0.044628 9.5781
8.66590000 0.044627 9.8578 0.999000 -80.29 0.999000 -80.29 0.044627 9.5771
8.66600000 0.044625 9.8567 0.999000 -80.29 0.999000 -80.29 0.044625 9.5761
8.66610000 0.044623 9.8557 0.999000 -80.29 0.999000 -80.29 0.044623 9.5750
8.66620000 0.044622 9.8546 0.999000 -80.29 0.999000 -80.29 0.044622 9.5740
8.66630000 0.044620 9.8536 0.999000 -80.29 0.999000 -80.29 0.044620 9.5730
8.66640000 0.044619 9.8525 0.999000 -80.29 0.999000 -80.29 0.044619 9.5720
8.66650000 0.044617 9.8515 0.999001 -80.29 0.999001 -80.29 0.044617 9.5710
8.66660000 0.044616 9.8504 0.999001 -80.29 0.999001 -80.29 0.044616 9.5699
8.66670000 0.044614 9.8494 0.999001 -80.29 0.999001 -80.29 0.044614 9.5689
8.66680000 0.044613 9.8483 0.999001 -80.30 0.999001 -80.30 0.044613 9.5679
8.66690000 0.044611 9.8473 0.999001 -80.30 0.999001 -80.30 0.044611 9.5669
8.66700000 0.044610 9.8463 0.999001 -80.30 0.999001 -80.30 0.044610 9.5658
8.66710000 0.044608 9.8452 0.999001 -80.30 0.999001 -80.30 0.044608 9.5648
8.66720000 0.044606 9.8442 0.999001 -80.30 0.999001 -80.30 0.044606 9.5638
8.66730000 0.044605 9.8431 0.999001 -80.30 0.999001 -80.30 0.044605 9.5628
8.66740000 0.044603 9.8421 0.999001 -80.30 0.999001 -80.30 0.044603 9.5617
8.66750000 0.044602 9.8410 0.999001 -80.30 0.999001 -80.30 0.044602 9.5607
8.66760000 0.044600 9.8400 0.999001 -80.30 0.999001 -80.30 0.044600 9.5597
8.66770000 0.044599 9.8389 0.999001 -80.30 0.999001 -80.30 0.044599 9.5587
8.66780000 0.044597 9.8379 0.999001 -80.31 0.999001 -80.31 0.044597 9.5576
8.66790000 0.044595 9.8368 0.999002 -80.31 0.999002 -80.31 0.044595 9.5566
8.66800000 0.044594 9.8358 0.999002 -80.31 0.999002 -80.31 0.044594 9.5556
8.66810000 0.044592 9.8347 0.999002 -80.31 0.999002 -80.31 0.044592 9.5546
8.66820000 0.044591 9.8337 0.999002 -80.31 0.999002 -80.31 0.044591 9.5535
8.66830000 0.044589 9.8326 0.999002 -80.31 0.999002 -80.31 0.044589 9.5525
8.66840000 0.044588 9.8316 0.999002 -80.31 0.999002 -80.31 0.044588 9.5515
8.66850000 0.044586 9.8305 0.999002 -80.31 0.999002 -80.31 0.044586 9.5504
8.66860000 0.044584 9.8295 0.999002 -80.31 0.999002 -80.31 0.044584 9.5494
8.66870000 0.044583 9.8284 0.999002 -80.31 0.999002 -80.31 0.044583 9.5484
8.66880000 0.044581 9.8274 0.999002 -80.32 0.999002 -80.32 0.044581 9.5474
8.66890000 0.044580 9.8264 0.999002 -80.32 0.999002 -80.32 0.044580 9.5463
8.66900000 0.044578 9.8253 0.999002 -80.32 0.999002 -80.32 0.044578 9.5453
8.66910000 0.044577 9.8243 0.999002 -80.32 0.999002 -80.32 0.044577 9.5443
8.66920000 0.044575 9.8232 0.999002 -80.32 0.999002 -80.32 0.044575 9.5433
8.66930000 0.044573 9.8222 0.999003 -80.32 0.999003 -80.32 0.044573 9.5422
8.66940000 0.044572 9.8211 0.999003 -80.32 0.999003 -80.32 0.044572 9.5412
8.66950000 0.044570 9.8201 0.999003 -80.32 0.999003 -80.32 0.044570 9.5402
8.66960000 0.044569 9.8190 0.999003 -80.32 0.999003 -80.32 0.044569 9.5392
8.66970000 0.044567 9.8180 0.999003 -80.33 0.999003 -80.33 0.044567 9.5381
8.66980000 0.044565 9.8169 0.999003 -80.33 0.999003 -80.33 0.044565 9.5371
8.66990000 0.044564 9.8159 0.999003 -80.33 0.999003 -80.33 0.044564 9.5361
8.67000000 0.044562 9.8148 0.999003 -80.33 0.999003 -80.33 0.044562 9.5350
8.67010000 0.044561 9.8138 0.999003 -80.33 0.999003 -80.33 0.044561 9.5340
8.67020000 0.044559 9.8127 0.999003 -80.33 0.999003 -80.33 0.044559 9.5330
8.67030000 0.044557 9.8117 0.999003 -80.33 0.999003 -80.33 0.044557 9.5320
8.67040000 0.044556 9.8106 0.999003 -80.33 0.999003 -80.33 0.044556 9.5309
8.67050000 0.044554 9.8096 0.999003 -80.33 0.999003 -80.33 0.044554 9.5299
8.67060000 0.044553 9.8085 0.999003 -80.33 0.999003 -80.33 0.044552 9.5289
8.67070000 0.044551 9.8075 0.999003 -80.34 0.999003 -80.34 0.044551 9.5279
8.67080000 0.044549 9.8064 0.999004 -80.34 0.999004 -80.34 0.044549 9.5268
8.67090000 0.044548 9.8054 0.999004 -80.34 0.999004 -80.34 0.044548 9.5258
8.67100000 0.044546 9.8043 0.999004 -80.34 0.999004 -80.34 0.044546 9.5248
8.67110000 0.044544 9.8033 0.999004 -80.34 0.999004 -80.34 0.044544 9.5237
8.67120000 0.044543 9.8022 0.999004 -80.34 0.999004 -80.34 0.044543 9.5227
8.67130000 0.044541 9.8012 0.999004 -80.34 0.999004 -80.34 0.044541 9.5217
8.67140000 0.044540 9.8001 0.999004 -80.34 0.999004 -80.34 0.044540 9.5207
8.67150000 0.044538 9.7991 0.999004 -80.34 0.999004 -80.34 0.044538 9.5196
8.67160000 0.044536 9.7980 0.999004 -80.34 0.999004 -80.34 0.044536 9.5186
8.67170000 0.044535 9.7970 0.999004 -80.35 0.999004 -80.35 0.044535 9.5176
8.67180000 0.044533 9.7959 0.999004 -80.35 0.999004 -80.35 0.044533 9.5165
8.67190000 0.044531 9.7949 0.999004 -80.35 0.999004 -80.35 0.044531 9.5155
8.67200000 0.044530 9.7938 0.999004 -80.35 0.999004 -80.35 0.044530 9.5145
8.67210000 0.044528 9.7927 0.999005 -80.35 0.999005 -80.35 0.044528 9.5135
8.67220000 0.044526 9.7917 0.999005 -80.35 0.999005 -80.35 0.044526 9.5124
8.67230000 0.044525 9.7906 0.999005 -80.35 0.999005 -80.35 0.044525 9.5114
8.67240000 0.044523 9.7896 0.999005 -80.35 0.999005 -80.35 0.044523 9.5104
8.67250000 0.044522 9.7885 0.999005 -80.35 0.999005 -80.35 0.044522 9.5093
8.67260000 0.044520 9.7875 0.999005 -80.36 0.999005 -80.36 0.044520 9.5083
8.67270000 0.044518 9.7864 0.999005 -80.36 0.999005 -80.36 0.044518 9.5073
8.67280000 0.044517 9.7854 0.999005 -80.36 0.999005 -80.36 0.044517 9.5063
8.67290000 0.044515 9.7843 0.999005 -80.36 0.999005 -80.36 0.044515 9.5052
8.67300000 0.044513 9.7833 0.999005 -80.36 0.999005 -80.36 0.044513 9.5042
8.67310000 0.044512 9.7822 0.999005 -80.36 0.999005 -80.36 0.044512 9.5032
8.67320000 0.044510 9.7812 0.999005 -80.36 0.999005 -80.36 0.044510 9.5021
8.67330000 0.044508 9.7801 0.999005 -80.36 0.999005 -80.36 0.044508 9.5011
8.67340000 0.044507 9.7791 0.999005 -80.36 0.999005 -80.36 0.044507 9.5001
8.67350000 0.044505 9.7780 0.999006 -80.36 0.999006 -80.36 0.044505 9.4991
8.67360000 0.044503 9.7770 0.999006 -80.37 0.999006 -80.37 0.044503 9.4980
8.67370000 0.044502 9.7759 0.999006 -80.37 0.999006 -80.37 0.044502 9.4970
8.67380000 0.044500 9.7749 0.999006 -80.37 0.999006 -80.37 0.044500 9.4960
8.67390000 0.044498 9.7738 0.999006 -80.37 0.999006 -80.37 0.044498 9.4949
8.67400000 0.044497 9.7727 0.999006 -80.37 0.999006 -80.37 0.044497 9.4939
8.67410000 0.044495 9.7717 0.999006 -80.37 0.999006 -80.37 0.044495 9.4929
8.67420000 0.044493 9.7706 0.999006 -80.37 0.999006 -80.37 0.044493 9.4918
8.67430000 0.044492 9.7696 0.999006 -80.37 0.999006 -80.37 0.044492 9.4908
8.67440000 0.044490 9.7685 0.999006 -80.37 0.999006 -80.37 0.044490 9.4898
8.67450000 0.044488 9.7675 0.999006 -80.38 0.999006 -80.38 0.044488 9.4887
8.67460000 0.044487 9.7664 0.999006 -80.38 0.999006 -80.38 0.044487 9.4877
8.67470000 0.044485 9.7654 0.999006 -80.38 0.999006 -80.38 0.044485 9.4867
8.67480000 0.044483 9.7643 0.999006 -80.38 0.999006 -80.38 0.044483 9.4857
8.67490000 0.044482 9.7633 0.999007 -80.38 0.999007 -80.38 0.044482 9.4846
8.67500000 0.044480 9.7622 0.999007 -80.38 0.999007 -80.38 0.044480 9.4836
8.67510000 0.044478 9.7612 0.999007 -80.38 0.999007 -80.38 0.044478 9.4826
8.67520000 0.044477 9.7601 0.999007 -80.38 0.999007 -80.38 0.044477 9.4815
8.67530000 0.044475 9.7590 0.999007 -80.38 0.999007 -80.38 0.044475 9.4805
8.67540000 0.044473 9.7580 0.999007 -80.38 0.999007 -80.38 0.044473 9.4795
8.67550000 0.044472 9.7569 0.999007 -80.39 0.999007 -80.39 0.044472 9.4784
8.67560000 0.044470 9.7559 0.999007 -80.39 0.999007 -80.39 0.044470 9.4774
8.67570000 0.044468 9.7548 0.999007 -80.39 0.999007 -80.39 0.044468 9.4764
8.67580000 0.044466 9.7538 0.999007 -80.39 0.999007 -80.39 0.044466 9.4753
8.67590000 0.044465 9.7527 0.999007 -80.39 0.999007 -80.39 0.044465 9.4743
8.67600000 0.044463 9.7517 0.999007 -80.39 0.999007 -80.39 0.044463 9.4733
8.67610000 0.044461 9.7506 0.999007 -80.39 0.999007 -80.39 0.044461 9.4722
8.67620000 0.044460 9.7495 0.999008 -80.39 0.999008 -80.39 0.044460 9.4712
8.67630000 0.044458 9.7485 0.999008 -80.39 0.999008 -80.39 0.044458 9.4702
8.67640000 0.044456 9.7474 0.999008 -80.39 0.999008 -80.39 0.044456 9.4692
8.67650000 0.044455 9.7464 0.999008 -80.40 0.999008 -80.40 0.044455 9.4681
8.67660000 0.044453 9.7453 0.999008 -80.40 0.999008 -80.40 0.044453 9.4671
8.67670000 0.044451 9.7443 0.999008 -80.40 0.999008 -80.40 0.044451 9.4661
8.67680000 0.044449 9.7432 0.999008 -80.40 0.999008 -80.40 0.044449 9.4650
8.67690000 0.044448 9.7421 0.999008 -80.40 0.999008 -80.40 0.044448 9.4640
8.67700000 0.044446 9.7411 0.999008 -80.40 0.999008 -80.40 0.044446 9.4630
8.67710000 0.044444 9.7400 0.999008 -80.40 0.999008 -80.40 0.044444 9.4619
8.67720000 0.044442 9.7390 0.999008 -80.40 0.999008 -80.40 0.044442 9.4609
8.67730000 0.044441 9.7379 0.999008 -80.40 0.999008 -80.40 0.044441 9.4599
8.67740000 0.044439 9.7369 0.999008 -80.41 0.999008 -80.41 0.044439 9.4588
8.67750000 0.044437 9.7358 0.999009 -80.41 0.999009 -80.41 0.044437 9.4578
8.67760000 0.044436 9.7347 0.999009 -80.41 0.999009 -80.41 0.044436 9.4568
8.67770000 0.044434 9.7337 0.999009 -80.41 0.999009 -80.41 0.044434 9.4557
8.67780000 0.044432 9.7326 0.999009 -80.41 0.999009 -80.41 0.044432 9.4547
8.67790000 0.044430 9.7316 0.999009 -80.41 0.999009 -80.41 0.044430 9.4537
8.67800000 0.044429 9.7305 0.999009 -80.41 0.999009 -80.41 0.044429 9.4526
8.67810000 0.044427 9.7295 0.999009 -80.41 0.999009 -80.41 0.044427 9.4516
8.67820000 0.044425 9.7284 0.999009 -80.41 0.999009 -80.41 0.044425 9.4506
8.67830000 0.044423 9.7273 0.999009 -80.41 0.999009 -80.41 0.044423 9.4495
8.67840000 0.044422 9.7263 0.999009 -80.42 0.999009 -80.42 0.044422 9.4485
8.67850000 0.044420 9.7252 0.999009 -80.42 0.999009 -80.42 0.044420 9.4475
8.67860000 0.044418 9.7242 0.999009 -80.42 0.999009 -80.42 0.044418 9.4464
8.67870000 0.044416 9.7231 0.999009 -80.42 0.999009 -80.42 0.044416 9.4454
8.67880000 0.044415 9.7220 0.999010 -80.42 0.999010 -80.42 0.044415 9.4444
8.67890000 0.044413 9.7210 0.999010 -80.42 0.999010 -80.42 0.044413 9.4433
8.67900000 0.044411 9.7199 0.999010 -80.42 0.999010 -80.42 0.044411 9.4423
8.67910000 0.044409 9.7189 0.999010 -80.42 0.999010 -80.42 0.044409 9.4412
8.67920000 0.044408 9.7178 0.999010 -80.42 0.999010 -80.42 0.044408 9.4402
8.67930000 0.044406 9.7167 0.999010 -80.43 0.999010 -80.43 0.044406 9.4392
8.67940000 0.044404 9.7157 0.999010 -80.43 0.999010 -80.43 0.044404 9.4381
8.67950000 0.044402 9.7146 0.999010 -80.43 0.999010 -80.43 0.044402 9.4371
8.67960000 0.044401 9.7136 0.999010 -80.43 0.999010 -80.43 0.044401 9.4361
8.67970000 0.044399 9.7125 0.999010 -80.43 0.999010 -80.43 0.044399 9.4350
8.67980000 0.044397 9.7114 0.999010 -80.43 0.999010 -80.43 0.044397 9.4340
8.67990000 0.044395 9.7104 0.999010 -80.43 0.999010 -80.43 0.044395 9.4330
8.68000000 0.044394 9.7093 0.999010 -80.43 0.999010 -80.43 0.044394 9.4319
8.68010000 0.044392 9.7083 0.999011 -80.43 0.999011 -80.43 0.044392 9.4309
8.68020000 0.044390 9.7072 0.999011 -80.43 0.999011 -80.43 0.044390 9.4299
8.68030000 0.044388 9.7061 0.999011 -80.44 0.999011 -80.44 0.044388 9.4288
8.68040000 0.044386 9.7051 0.999011 -80.44 0.999011 -80.44 0.044386 9.4278
8.68050000 0.044385 9.7040 0.999011 -80.44 0.999011 -80.44 0.044385 9.4268
8.68060000 0.044383 9.7030 0.999011 -80.44 0.999011 -80.44 0.044383 9.4257
8.68070000 0.044381 9.7019 0.999011 -80.44 0.999011 -80.44 0.044381 9.4247
8.68080000 0.044379 9.7008 0.999011 -80.44 0.999011 -80.44 0.044379 9.4236
8.68090000 0.044378 9.6998 0.999011 -80.44 0.999011 -80.44 0.044378 9.4226
8.68100000 0.044376 9.6987 0.999011 -80.44 0.999011 -80.44 0.044376 9.4216
8.68110000 0.044374 9.6977 0.999011 -80.44 0.999011 -80.44 0.044374 9.4205
8.68120000 0.044372 9.6966 0.999011 -80.45 0.999011 -80.45 0.044372 9.4195
8.68130000 0.044370 9.6955 0.999011 -80.45 0.999011 -80.45 0.044370 9.4185
8.68140000 0.044369 9.6945 0.999012 -80.45 0.999012 -80.45 0.044369 9.4174
8.68150000 0.044367 9.6934 0.999012 -80.45 0.999012 -80.45 0.044367 9.4164
8.68160000 0.044365 9.6923 0.999012 -80.45 0.999012 -80.45 0.044365 9.4154
8.68170000 0.044363 9.6913 0.999012 -80.45 0.999012 -80.45 0.044363 9.4143
8.68180000 0.044361 9.6902 0.999012 -80.45 0.999012 -80.45 0.044361 9.4133
8.68190000 0.044360 9.6892 0.999012 -80.45 0.999012 -80.45 0.044360 9.4122
8.68200000 0.044358 9.6881 0.999012 -80.45 0.999012 -80.45 0.044358 9.4112
8.68210000 0.044356 9.6870 0.999012 -80.45 0.999012 -80.45 0.044356 9.4102
8.68220000 0.044354 9.6860 0.999012 -80.46 0.999012 -80.46 0.044354 9.4091
8.68230000 0.044352 9.6849 0.999012 -80.46 0.999012 -80.46 0.044352 9.4081
8.68240000 0.044351 9.6838 0.999012 -80.46 0.999012 -80.46 0.044351 9.4071
8.68250000 0.044349 9.6828 0.999012 -80.46 0.999012 -80.46 0.044349 9.4060
8.68260000 0.044347 9.6817 0.999013 -80.46 0.999013 -80.46 0.044347 9.4050
8.68270000 0.044345 9.6807 0.999013 -80.46 0.999013 -80.46 0.044345 9.4039
8.68280000 0.044343 9.6796 0.999013 -80.46 0.999013 -80.46 0.044343 9.4029
8.68290000 0.044341 9.6785 0.999013 -80.46 0.999013 -80.46 0.044341 9.4019
8.68300000 0.044340 9.6775 0.999013 -80.46 0.999013 -80.46 0.044340 9.4008
8.68310000 0.044338 9.6764 0.999013 -80.47 0.999013 -80.47 0.044338 9.3998
8.68320000 0.044336 9.6753 0.999013 -80.47 0.999013 -80.47 0.044336 9.3988
8.68330000 0.044334 9.6743 0.999013 -80.47 0.999013 -80.47 0.044334 9.3977
8.68340000 0.044332 9.6732 0.999013 -80.47 0.999013 -80.47 0.044332 9.3967
8.68350000 0.044330 9.6721 0.999013 -80.47 0.999013 -80.47 0.044330 9.3956
8.68360000 0.044329 9.6711 0.999013 -80.47 0.999013 -80.47 0.044329 9.3946
8.68370000 0.044327 9.6700 0.999013 -80.47 0.999013 -80.47 0.044327 9.3936
8.68380000 0.044325 9.6689 0.999013 -80.47 0.999013 -80.47 0.044325 9.3925
8.68390000 0.044323 9.6679 0.999014 -80.47 0.999014 -80.47 0.044323 9.3915
8.68400000 0.044321 9.6668 0.999014 -80.47 0.999014 -80.47 0.044321 9.3904
8.68410000 0.044319 9.6658 0.999014 -80.48 0.999014 -80.48 0.044319 9.3894
8.68420000 0.044318 9.6647 0.999014 -80.48 0.999014 -80.48 0.044318 9.3884
8.68430000 0.044316 9.6636 0.999014 -80.48 0.999014 -80.48 0.044316 9.3873
8.68440000 0.044314 9.6626 0.999014 -80.48 0.999014 -80.48 0.044314 9.3863
8.68450000 0.044312 9.6615 0.999014 -80.48 0.999014 -80.48 0.044312 9.3852
8.68460000 0.044310 9.6604 0.999014 -80.48 0.999014 -80.48 0.044310 9.3842
8.68470000 0.044308 9.6594 0.999014 -80.48 0.999014 -80.48 0.044308 9.3832
8.68480000 0.044306 9.6583 0.999014 -80.48 0.999014 -80.48 0.044306 9.3821
8.68490000 0.044305 9.6572 0.999014 -80.48 0.999014 -80.48 0.044305 9.3811
8.68500000 0.044303 9.6562 0.999014 -80.49 0.999014 -80.49 0.044303 9.3800
8.68510000 0.044301 9.6551 0.999015 -80.49 0.999015 -80.49 0.044301 9.3790
8.68520000 0.044299 9.6540 0.999015 -80.49 0.999015 -80.49 0.044299 9.3780
8.68530000 0.044297 9.6530 0.999015 -80.49 0.999015 -80.49 0.044297 9.3769
8.68540000 0.044295 9.6519 0.999015 -80.49 0.999015 -80.49 0.044295 9.3759
8.68550000 0.044293 9.6508 0.999015 -80.49 0.999015 -80.49 0.044293 9.3748
8.68560000 0.044291 9.6498 0.999015 -80.49 0.999015 -80.49 0.044291 9.3738
8.68570000 0.044290 9.6487 0.999015 -80.49 0.999015 -80.49 0.044290 9.3728
8.68580000 0.044288 9.6476 0.999015 -80.49 0.999015 -80.49 0.044288 9.3717
8.68590000 0.044286 9.6466 0.999015 -80.49 0.999015 -80.49 0.044286 9.3707
8.68600000 0.044284 9.6455 0.999015 -80.50 0.999015 -80.50 0.044284 9.3696
8.68610000 0.044282 9.6444 0.999015 -80.50 0.999015 -80.50 0.044282 9.3686
8.68620000 0.044280 9.6434 0.999015 -80.50 0.999015 -80.50 0.044280 9.3676
8.68630000 0.044278 9.6423 0.999016 -80.50 0.999016 -80.50 0.044278 9.3665
8.68640000 0.044276 9.6412 0.999016 -80.50 0.999016 -80.50 0.044276 9.3655
8.68650000 0.044274 9.6402 0.999016 -80.50 0.999016 -80.50 0.044274 9.3644
8.68660000 0.044273 9.6391 0.999016 -80.50 0.999016 -80.50 0.044273 9.3634
8.68670000 0.044271 9.6380 0.999016 -80.50 0.999016 -80.50 0.044271 9.3624
8.68680000 0.044269 9.6369 0.999016 -80.50 0.999016 -80.50 0.044269 9.3613
8.68690000 0.044267 9.6359 0.999016 -80.51 0.999016 -80.51 0.044267 9.3603
8.68700000 0.044265 9.6348 0.999016 -80.51 0.999016 -80.51 0.044265 9.3592
8.68710000 0.044263 9.6337 0.999016 -80.51 0.999016 -80.51 0.044263 9.3582
8.68720000 0.044261 9.6327 0.999016 -80.51 0.999016 -80.51 0.044261 9.3571
8.68730000 0.044259 9.6316 0.999016 -80.51 0.999016 -80.51 0.044259 9.3561
8.68740000 0.044257 9.6305 0.999016 -80.51 0.999016 -80.51 0.044257 9.3551
8.68750000 0.044255 9.6295 0.999017 -80.51 0.999017 -80.51 0.044255 9.3540
8.68760000 0.044254 9.6284 0.999017 -80.51 0.999017 -80.51 0.044254 9.3530
8.68770000 0.044252 9.6273 0.999017 -80.51 0.999017 -80.51 0.044252 9.3519
8.68780000 0.044250 9.6263 0.999017 -80.51 0.999017 -80.51 0.044250 9.3509
8.68790000 0.044248 9.6252 0.999017 -80.52 0.999017 -80.52 0.044248 9.3498
8.68800000 0.044246 9.6241 0.999017 -80.52 0.999017 -80.52 0.044246 9.3488
8.68810000 0.044244 9.6230 0.999017 -80.52 0.999017 -80.52 0.044244 9.3478
8.68820000 0.044242 9.6220 0.999017 -80.52 0.999017 -80.52 0.044242 9.3467
8.68830000 0.044240 9.6209 0.999017 -80.52 0.999017 -80.52 0.044240 9.3457
8.68840000 0.044238 9.6198 0.999017 -80.52 0.999017 -80.52 0.044238 9.3446
8.68850000 0.044236 9.6188 0.999017 -80.52 0.999017 -80.52 0.044236 9.3436
8.68860000 0.044234 9.6177 0.999017 -80.52 0.999017 -80.52 0.044234 9.3425
8.68870000 0.044232 9.6166 0.999018 -80.52 0.999018 -80.52 0.044232 9.3415
8.68880000 0.044230 9.6156 0.999018 -80.53 0.999018 -80.53 0.044230 9.3405
8.68890000 0.044228 9.6145 0.999018 -80.53 0.999018 -80.53 0.044228 9.3394
8.68900000 0.044227 9.6134 0.999018 -80.53 0.999018 -80.53 0.044227 9.3384
8.68910000 0.044225 9.6123 0.999018 -80.53 0.999018 -80.53 0.044225 9.3373
8.68920000 0.044223 9.6113 0.999018 -80.53 0.999018 -80.53 0.044223 9.3363