! Sonnet Data File
! From: emgraph Version : 16.52
! From Project: transmon_trial
! Data is De-embedded 
! Data File Written: 10/20/2017 09:13:06
!< HDATE 10/19/2017 20:03:37
!< MDATE 10/19/2017 20:10:25
!< PARAMS
!< Lj = 15.24
!< Gap = 6.0
!< Width = 20.0
!< Airgap = 12.0
!< Pwidth = 2000.0
!< END PARAMS
# GHZ S MA R 51.00000
8.65000000 0.042227 -172.7 0.999098 -82.67 0.999098 -82.67 0.042226 -172.6
!< P1 F=8.65 Eeff=(6.44623598 -2.9974e-5) Z0=(50.9069312 1.15726e-4) R=0.0 C=0.0 
!< P2 F=8.65 Eeff=(6.44623598 -2.9974e-5) Z0=(50.9069312 1.15726e-4) R=0.0 C=0.0 
8.65010000 0.042264 -172.7 0.999097 -82.67 0.999097 -82.67 0.042264 -172.6
8.65020000 0.042301 -172.7 0.999095 -82.67 0.999095 -82.67 0.042301 -172.6
8.65030000 0.042339 -172.7 0.999093 -82.68 0.999093 -82.68 0.042339 -172.6
8.65040000 0.042376 -172.7 0.999092 -82.68 0.999092 -82.68 0.042376 -172.6
8.65050000 0.042414 -172.7 0.999090 -82.68 0.999090 -82.68 0.042414 -172.7
8.65060000 0.042451 -172.7 0.999089 -82.68 0.999089 -82.68 0.042451 -172.7
8.65070000 0.042489 -172.7 0.999087 -82.69 0.999087 -82.69 0.042489 -172.7
8.65080000 0.042527 -172.7 0.999085 -82.69 0.999085 -82.69 0.042527 -172.7
8.65090000 0.042565 -172.7 0.999084 -82.69 0.999084 -82.69 0.042565 -172.7
8.65100000 0.042602 -172.8 0.999082 -82.70 0.999082 -82.70 0.042602 -172.7
8.65110000 0.042640 -172.8 0.999081 -82.70 0.999081 -82.70 0.042640 -172.7
8.65120000 0.042678 -172.8 0.999079 -82.70 0.999079 -82.70 0.042678 -172.7
8.65130000 0.042716 -172.8 0.999077 -82.71 0.999077 -82.71 0.042716 -172.7
8.65140000 0.042754 -172.8 0.999076 -82.71 0.999076 -82.71 0.042754 -172.7
8.65150000 0.042792 -172.8 0.999074 -82.71 0.999074 -82.71 0.042792 -172.7
8.65160000 0.042830 -172.8 0.999072 -82.72 0.999072 -82.72 0.042830 -172.7
8.65170000 0.042869 -172.8 0.999071 -82.72 0.999071 -82.72 0.042868 -172.7
8.65180000 0.042907 -172.8 0.999069 -82.72 0.999069 -82.72 0.042907 -172.7
8.65190000 0.042945 -172.8 0.999067 -82.73 0.999067 -82.73 0.042945 -172.7
8.65200000 0.042983 -172.8 0.999066 -82.73 0.999066 -82.73 0.042983 -172.7
8.65210000 0.043022 -172.8 0.999064 -82.73 0.999064 -82.73 0.043022 -172.7
8.65220000 0.043060 -172.8 0.999062 -82.73 0.999062 -82.73 0.043060 -172.7
8.65230000 0.043099 -172.8 0.999061 -82.74 0.999061 -82.74 0.043099 -172.7
8.65240000 0.043137 -172.8 0.999059 -82.74 0.999059 -82.74 0.043137 -172.7
8.65250000 0.043176 -172.8 0.999057 -82.74 0.999057 -82.74 0.043176 -172.7
8.65260000 0.043214 -172.8 0.999056 -82.75 0.999056 -82.75 0.043214 -172.7
8.65270000 0.043253 -172.8 0.999054 -82.75 0.999054 -82.75 0.043253 -172.7
8.65280000 0.043292 -172.8 0.999052 -82.75 0.999052 -82.75 0.043292 -172.7
8.65290000 0.043331 -172.8 0.999051 -82.76 0.999051 -82.76 0.043331 -172.7
8.65300000 0.043369 -172.8 0.999049 -82.76 0.999049 -82.76 0.043369 -172.7
8.65310000 0.043408 -172.8 0.999047 -82.76 0.999047 -82.76 0.043408 -172.7
8.65320000 0.043447 -172.8 0.999046 -82.77 0.999046 -82.77 0.043447 -172.7
8.65330000 0.043486 -172.8 0.999044 -82.77 0.999044 -82.77 0.043486 -172.7
8.65340000 0.043525 -172.8 0.999042 -82.77 0.999042 -82.77 0.043525 -172.7
8.65350000 0.043565 -172.8 0.999040 -82.78 0.999040 -82.78 0.043564 -172.8
8.65360000 0.043604 -172.8 0.999039 -82.78 0.999039 -82.78 0.043604 -172.8
8.65370000 0.043643 -172.8 0.999037 -82.78 0.999037 -82.78 0.043643 -172.8
8.65380000 0.043682 -172.8 0.999035 -82.79 0.999035 -82.79 0.043682 -172.8
8.65390000 0.043722 -172.8 0.999034 -82.79 0.999034 -82.79 0.043721 -172.8
8.65400000 0.043761 -172.8 0.999032 -82.79 0.999032 -82.79 0.043761 -172.8
8.65410000 0.043800 -172.8 0.999030 -82.79 0.999030 -82.79 0.043800 -172.8
8.65420000 0.043840 -172.8 0.999028 -82.80 0.999028 -82.80 0.043840 -172.8
8.65430000 0.043879 -172.8 0.999027 -82.80 0.999027 -82.80 0.043879 -172.8
8.65440000 0.043919 -172.8 0.999025 -82.80 0.999025 -82.80 0.043919 -172.8
8.65450000 0.043959 -172.9 0.999023 -82.81 0.999023 -82.81 0.043959 -172.8
8.65460000 0.043998 -172.9 0.999021 -82.81 0.999021 -82.81 0.043998 -172.8
8.65470000 0.044038 -172.9 0.999020 -82.81 0.999020 -82.81 0.044038 -172.8
8.65480000 0.044078 -172.9 0.999018 -82.82 0.999018 -82.82 0.044078 -172.8
8.65490000 0.044118 -172.9 0.999016 -82.82 0.999016 -82.82 0.044118 -172.8
8.65500000 0.044158 -172.9 0.999014 -82.82 0.999014 -82.82 0.044158 -172.8
8.65510000 0.044198 -172.9 0.999012 -82.83 0.999012 -82.83 0.044198 -172.8
8.65520000 0.044238 -172.9 0.999011 -82.83 0.999011 -82.83 0.044238 -172.8
8.65530000 0.044278 -172.9 0.999009 -82.83 0.999009 -82.83 0.044278 -172.8
8.65540000 0.044318 -172.9 0.999007 -82.84 0.999007 -82.84 0.044318 -172.8
8.65550000 0.044358 -172.9 0.999005 -82.84 0.999005 -82.84 0.044358 -172.8
8.65560000 0.044398 -172.9 0.999004 -82.84 0.999004 -82.84 0.044398 -172.8
8.65570000 0.044439 -172.9 0.999002 -82.85 0.999002 -82.85 0.044439 -172.8
8.65580000 0.044479 -172.9 0.999000 -82.85 0.999000 -82.85 0.044479 -172.8
8.65590000 0.044519 -172.9 0.998998 -82.85 0.998998 -82.85 0.044519 -172.8
8.65600000 0.044560 -172.9 0.998996 -82.86 0.998996 -82.86 0.044560 -172.8
8.65610000 0.044600 -172.9 0.998994 -82.86 0.998994 -82.86 0.044600 -172.8
8.65620000 0.044641 -172.9 0.998993 -82.86 0.998993 -82.86 0.044641 -172.8
8.65630000 0.044682 -172.9 0.998991 -82.87 0.998991 -82.87 0.044682 -172.9
8.65640000 0.044722 -172.9 0.998989 -82.87 0.998989 -82.87 0.044722 -172.9
8.65650000 0.044763 -172.9 0.998987 -82.87 0.998987 -82.87 0.044763 -172.9
8.65660000 0.044804 -172.9 0.998985 -82.88 0.998985 -82.88 0.044804 -172.9
8.65670000 0.044845 -172.9 0.998983 -82.88 0.998983 -82.88 0.044845 -172.9
8.65680000 0.044886 -172.9 0.998982 -82.88 0.998982 -82.88 0.044886 -172.9
8.65690000 0.044927 -172.9 0.998980 -82.89 0.998980 -82.89 0.044927 -172.9
8.65700000 0.044968 -172.9 0.998978 -82.89 0.998978 -82.89 0.044968 -172.9
8.65710000 0.045009 -172.9 0.998976 -82.89 0.998976 -82.89 0.045009 -172.9
8.65720000 0.045050 -172.9 0.998974 -82.90 0.998974 -82.90 0.045050 -172.9
8.65730000 0.045091 -172.9 0.998972 -82.90 0.998972 -82.90 0.045091 -172.9
8.65740000 0.045133 -172.9 0.998970 -82.90 0.998970 -82.90 0.045133 -172.9
8.65750000 0.045174 -172.9 0.998969 -82.91 0.998969 -82.91 0.045174 -172.9
8.65760000 0.045215 -172.9 0.998967 -82.91 0.998967 -82.91 0.045215 -172.9
8.65770000 0.045257 -172.9 0.998965 -82.91 0.998965 -82.91 0.045257 -172.9
8.65780000 0.045298 -173.0 0.998963 -82.92 0.998963 -82.92 0.045298 -172.9
8.65790000 0.045340 -173.0 0.998961 -82.92 0.998961 -82.92 0.045340 -172.9
8.65800000 0.045381 -173.0 0.998959 -82.92 0.998959 -82.92 0.045381 -172.9
8.65810000 0.045423 -173.0 0.998957 -82.92 0.998957 -82.92 0.045423 -172.9
8.65820000 0.045465 -173.0 0.998955 -82.93 0.998955 -82.93 0.045465 -172.9
8.65830000 0.045507 -173.0 0.998953 -82.93 0.998953 -82.93 0.045507 -172.9
8.65840000 0.045549 -173.0 0.998951 -82.93 0.998951 -82.93 0.045548 -172.9
8.65850000 0.045590 -173.0 0.998950 -82.94 0.998950 -82.94 0.045590 -172.9
8.65860000 0.045632 -173.0 0.998948 -82.94 0.998948 -82.94 0.045632 -172.9
8.65870000 0.045674 -173.0 0.998946 -82.94 0.998946 -82.94 0.045674 -172.9
8.65880000 0.045717 -173.0 0.998944 -82.95 0.998944 -82.95 0.045716 -172.9
8.65890000 0.045759 -173.0 0.998942 -82.95 0.998942 -82.95 0.045759 -172.9
8.65900000 0.045801 -173.0 0.998940 -82.96 0.998940 -82.96 0.045801 -172.9
8.65910000 0.045843 -173.0 0.998938 -82.96 0.998938 -82.96 0.045843 -172.9
8.65920000 0.045886 -173.0 0.998936 -82.96 0.998936 -82.96 0.045885 -173.0
8.65930000 0.045928 -173.0 0.998934 -82.97 0.998934 -82.97 0.045928 -173.0
8.65940000 0.045970 -173.0 0.998932 -82.97 0.998932 -82.97 0.045970 -173.0
8.65950000 0.046013 -173.0 0.998930 -82.97 0.998930 -82.97 0.046013 -173.0
8.65960000 0.046055 -173.0 0.998928 -82.98 0.998928 -82.98 0.046055 -173.0
8.65970000 0.046098 -173.0 0.998926 -82.98 0.998926 -82.98 0.046098 -173.0
8.65980000 0.046141 -173.0 0.998924 -82.98 0.998924 -82.98 0.046141 -173.0
8.65990000 0.046184 -173.0 0.998922 -82.99 0.998922 -82.99 0.046183 -173.0
8.66000000 0.046226 -173.0 0.998920 -82.99 0.998920 -82.99 0.046226 -173.0
8.66010000 0.046269 -173.0 0.998918 -82.99 0.998918 -82.99 0.046269 -173.0
8.66020000 0.046312 -173.0 0.998916 -83.00 0.998916 -83.00 0.046312 -173.0
8.66030000 0.046355 -173.0 0.998914 -83.00 0.998914 -83.00 0.046355 -173.0
8.66040000 0.046398 -173.0 0.998912 -83.00 0.998912 -83.00 0.046398 -173.0
8.66050000 0.046441 -173.0 0.998910 -83.01 0.998910 -83.01 0.046441 -173.0
8.66060000 0.046485 -173.0 0.998908 -83.01 0.998908 -83.01 0.046484 -173.0
8.66070000 0.046528 -173.0 0.998906 -83.01 0.998906 -83.01 0.046528 -173.0
8.66080000 0.046571 -173.0 0.998904 -83.02 0.998904 -83.02 0.046571 -173.0
8.66090000 0.046614 -173.0 0.998902 -83.02 0.998902 -83.02 0.046614 -173.0
8.66100000 0.046658 -173.1 0.998900 -83.02 0.998900 -83.02 0.046658 -173.0
8.66110000 0.046701 -173.1 0.998898 -83.03 0.998898 -83.03 0.046701 -173.0
8.66120000 0.046745 -173.1 0.998896 -83.03 0.998896 -83.03 0.046745 -173.0
8.66130000 0.046789 -173.1 0.998894 -83.03 0.998894 -83.03 0.046789 -173.0
8.66140000 0.046832 -173.1 0.998892 -83.04 0.998892 -83.04 0.046832 -173.0
8.66150000 0.046876 -173.1 0.998890 -83.04 0.998890 -83.04 0.046876 -173.0
8.66160000 0.046920 -173.1 0.998888 -83.04 0.998888 -83.04 0.046920 -173.0
8.66170000 0.046964 -173.1 0.998886 -83.05 0.998886 -83.05 0.046964 -173.0
8.66180000 0.047008 -173.1 0.998883 -83.05 0.998883 -83.05 0.047008 -173.0
8.66190000 0.047052 -173.1 0.998881 -83.05 0.998881 -83.05 0.047052 -173.1
8.66200000 0.047096 -173.1 0.998879 -83.06 0.998879 -83.06 0.047096 -173.1
8.66210000 0.047140 -173.1 0.998877 -83.06 0.998877 -83.06 0.047140 -173.1
8.66220000 0.047184 -173.1 0.998875 -83.06 0.998875 -83.06 0.047184 -173.1
8.66230000 0.047228 -173.1 0.998873 -83.07 0.998873 -83.07 0.047228 -173.1
8.66240000 0.047273 -173.1 0.998871 -83.07 0.998871 -83.07 0.047273 -173.1
8.66250000 0.047317 -173.1 0.998869 -83.07 0.998869 -83.07 0.047317 -173.1
8.66260000 0.047361 -173.1 0.998867 -83.08 0.998867 -83.08 0.047361 -173.1
8.66270000 0.047406 -173.1 0.998865 -83.08 0.998865 -83.08 0.047406 -173.1
8.66280000 0.047450 -173.1 0.998862 -83.08 0.998862 -83.08 0.047450 -173.1
8.66290000 0.047495 -173.1 0.998860 -83.09 0.998860 -83.09 0.047495 -173.1
8.66300000 0.047540 -173.1 0.998858 -83.09 0.998858 -83.09 0.047540 -173.1
8.66310000 0.047585 -173.1 0.998856 -83.10 0.998856 -83.10 0.047585 -173.1
8.66320000 0.047629 -173.1 0.998854 -83.10 0.998854 -83.10 0.047629 -173.1
8.66330000 0.047674 -173.1 0.998852 -83.10 0.998852 -83.10 0.047674 -173.1
8.66340000 0.047719 -173.1 0.998850 -83.11 0.998850 -83.11 0.047719 -173.1
8.66350000 0.047764 -173.1 0.998847 -83.11 0.998847 -83.11 0.047764 -173.1
8.66360000 0.047809 -173.1 0.998845 -83.11 0.998845 -83.11 0.047809 -173.1
8.66370000 0.047855 -173.1 0.998843 -83.12 0.998843 -83.12 0.047855 -173.1
8.66380000 0.047900 -173.1 0.998841 -83.12 0.998841 -83.12 0.047900 -173.1
8.66390000 0.047945 -173.1 0.998839 -83.12 0.998839 -83.12 0.047945 -173.1
8.66400000 0.047990 -173.1 0.998836 -83.13 0.998836 -83.13 0.047990 -173.1
8.66410000 0.048036 -173.2 0.998834 -83.13 0.998834 -83.13 0.048036 -173.1
8.66420000 0.048081 -173.2 0.998832 -83.13 0.998832 -83.13 0.048081 -173.1
8.66430000 0.048127 -173.2 0.998830 -83.14 0.998830 -83.14 0.048127 -173.1
8.66440000 0.048173 -173.2 0.998828 -83.14 0.998828 -83.14 0.048173 -173.1
8.66450000 0.048218 -173.2 0.998825 -83.14 0.998825 -83.14 0.048218 -173.1
8.66460000 0.048264 -173.2 0.998823 -83.15 0.998823 -83.15 0.048264 -173.2
8.66470000 0.048310 -173.2 0.998821 -83.15 0.998821 -83.15 0.048310 -173.2
8.66480000 0.048356 -173.2 0.998819 -83.16 0.998819 -83.16 0.048356 -173.2
8.66490000 0.048402 -173.2 0.998817 -83.16 0.998817 -83.16 0.048402 -173.2
8.66500000 0.048448 -173.2 0.998814 -83.16 0.998814 -83.16 0.048448 -173.2
8.66510000 0.048494 -173.2 0.998812 -83.17 0.998812 -83.17 0.048494 -173.2
8.66520000 0.048540 -173.2 0.998810 -83.17 0.998810 -83.17 0.048540 -173.2
8.66530000 0.048586 -173.2 0.998808 -83.17 0.998808 -83.17 0.048586 -173.2
8.66540000 0.048633 -173.2 0.998805 -83.18 0.998805 -83.18 0.048633 -173.2
8.66550000 0.048679 -173.2 0.998803 -83.18 0.998803 -83.18 0.048679 -173.2
8.66560000 0.048725 -173.2 0.998801 -83.18 0.998801 -83.18 0.048725 -173.2
8.66570000 0.048772 -173.2 0.998798 -83.19 0.998798 -83.19 0.048772 -173.2
8.66580000 0.048819 -173.2 0.998796 -83.19 0.998796 -83.19 0.048818 -173.2
8.66590000 0.048865 -173.2 0.998794 -83.19 0.998794 -83.19 0.048865 -173.2
8.66600000 0.048912 -173.2 0.998792 -83.20 0.998792 -83.20 0.048912 -173.2
8.66610000 0.048959 -173.2 0.998789 -83.20 0.998789 -83.20 0.048959 -173.2
8.66620000 0.049006 -173.2 0.998787 -83.21 0.998787 -83.21 0.049005 -173.2
8.66630000 0.049052 -173.2 0.998785 -83.21 0.998785 -83.21 0.049052 -173.2
8.66640000 0.049099 -173.2 0.998782 -83.21 0.998782 -83.21 0.049099 -173.2
8.66650000 0.049147 -173.2 0.998780 -83.22 0.998780 -83.22 0.049146 -173.2
8.66660000 0.049194 -173.2 0.998778 -83.22 0.998778 -83.22 0.049194 -173.2
8.66670000 0.049241 -173.2 0.998775 -83.22 0.998775 -83.22 0.049241 -173.2
8.66680000 0.049288 -173.2 0.998773 -83.23 0.998773 -83.23 0.049288 -173.2
8.66690000 0.049336 -173.2 0.998771 -83.23 0.998771 -83.23 0.049335 -173.2
8.66700000 0.049383 -173.2 0.998768 -83.23 0.998768 -83.23 0.049383 -173.2
8.66710000 0.049430 -173.3 0.998766 -83.24 0.998766 -83.24 0.049430 -173.2
8.66720000 0.049478 -173.3 0.998763 -83.24 0.998763 -83.24 0.049478 -173.3
8.66730000 0.049526 -173.3 0.998761 -83.25 0.998761 -83.25 0.049526 -173.3
8.66740000 0.049573 -173.3 0.998759 -83.25 0.998759 -83.25 0.049573 -173.3
8.66750000 0.049621 -173.3 0.998756 -83.25 0.998756 -83.25 0.049621 -173.3
8.66760000 0.049669 -173.3 0.998754 -83.26 0.998754 -83.26 0.049669 -173.3
8.66770000 0.049717 -173.3 0.998752 -83.26 0.998752 -83.26 0.049717 -173.3
8.66780000 0.049765 -173.3 0.998749 -83.26 0.998749 -83.26 0.049765 -173.3
8.66790000 0.049813 -173.3 0.998747 -83.27 0.998747 -83.27 0.049813 -173.3
8.66800000 0.049861 -173.3 0.998744 -83.27 0.998744 -83.27 0.049861 -173.3
8.66810000 0.049909 -173.3 0.998742 -83.28 0.998742 -83.28 0.049909 -173.3
8.66820000 0.049958 -173.3 0.998739 -83.28 0.998739 -83.28 0.049957 -173.3
8.66830000 0.050006 -173.3 0.998737 -83.28 0.998737 -83.28 0.050006 -173.3
8.66840000 0.050054 -173.3 0.998735 -83.29 0.998735 -83.29 0.050054 -173.3
8.66850000 0.050103 -173.3 0.998732 -83.29 0.998732 -83.29 0.050103 -173.3
8.66860000 0.050151 -173.3 0.998730 -83.29 0.998730 -83.29 0.050151 -173.3
8.66870000 0.050200 -173.3 0.998727 -83.30 0.998727 -83.30 0.050200 -173.3
8.66880000 0.050249 -173.3 0.998725 -83.30 0.998725 -83.30 0.050249 -173.3
8.66890000 0.050298 -173.3 0.998722 -83.30 0.998722 -83.30 0.050298 -173.3
8.66900000 0.050346 -173.3 0.998720 -83.31 0.998720 -83.31 0.050346 -173.3
8.66910000 0.050395 -173.3 0.998717 -83.31 0.998717 -83.31 0.050395 -173.3
8.66920000 0.050444 -173.3 0.998715 -83.32 0.998715 -83.32 0.050444 -173.3
8.66930000 0.050494 -173.3 0.998712 -83.32 0.998712 -83.32 0.050493 -173.3
8.66940000 0.050543 -173.3 0.998710 -83.32 0.998710 -83.32 0.050543 -173.3
8.66950000 0.050592 -173.3 0.998707 -83.33 0.998707 -83.33 0.050592 -173.3
8.66960000 0.050641 -173.3 0.998705 -83.33 0.998705 -83.33 0.050641 -173.3
8.66970000 0.050691 -173.3 0.998702 -83.33 0.998702 -83.33 0.050691 -173.4
8.66980000 0.050740 -173.3 0.998700 -83.34 0.998700 -83.34 0.050740 -173.4
8.66990000 0.050790 -173.3 0.998697 -83.34 0.998697 -83.34 0.050790 -173.4
8.67000000 0.050839 -173.4 0.998695 -83.35 0.998695 -83.35 0.050839 -173.4
8.67010000 0.050889 -173.4 0.998692 -83.35 0.998692 -83.35 0.050889 -173.4
8.67020000 0.050939 -173.4 0.998690 -83.35 0.998690 -83.35 0.050939 -173.4
8.67030000 0.050989 -173.4 0.998687 -83.36 0.998687 -83.36 0.050989 -173.4
8.67040000 0.051039 -173.4 0.998685 -83.36 0.998685 -83.36 0.051039 -173.4
8.67050000 0.051089 -173.4 0.998682 -83.37 0.998682 -83.37 0.051089 -173.4
8.67060000 0.051139 -173.4 0.998679 -83.37 0.998679 -83.37 0.051139 -173.4
8.67070000 0.051189 -173.4 0.998677 -83.37 0.998677 -83.37 0.051189 -173.4
8.67080000 0.051239 -173.4 0.998674 -83.38 0.998674 -83.38 0.051239 -173.4
8.67090000 0.051289 -173.4 0.998672 -83.38 0.998672 -83.38 0.051289 -173.4
8.67100000 0.051340 -173.4 0.998669 -83.38 0.998669 -83.38 0.051340 -173.4
8.67110000 0.051390 -173.4 0.998666 -83.39 0.998666 -83.39 0.051390 -173.4
8.67120000 0.051441 -173.4 0.998664 -83.39 0.998664 -83.39 0.051441 -173.4
8.67130000 0.051491 -173.4 0.998661 -83.40 0.998661 -83.40 0.051491 -173.4
8.67140000 0.051542 -173.4 0.998659 -83.40 0.998659 -83.40 0.051542 -173.4
8.67150000 0.051593 -173.4 0.998656 -83.40 0.998656 -83.40 0.051593 -173.4
8.67160000 0.051644 -173.4 0.998653 -83.41 0.998653 -83.41 0.051644 -173.4
8.67170000 0.051695 -173.4 0.998651 -83.41 0.998651 -83.41 0.051695 -173.4
8.67180000 0.051746 -173.4 0.998648 -83.41 0.998648 -83.41 0.051746 -173.4
8.67190000 0.051797 -173.4 0.998645 -83.42 0.998645 -83.42 0.051797 -173.4
8.67200000 0.051848 -173.4 0.998643 -83.42 0.998643 -83.42 0.051848 -173.4
8.67210000 0.051899 -173.4 0.998640 -83.43 0.998640 -83.43 0.051899 -173.5
8.67220000 0.051951 -173.4 0.998637 -83.43 0.998637 -83.43 0.051951 -173.5
8.67230000 0.052002 -173.4 0.998635 -83.43 0.998635 -83.43 0.052002 -173.5
8.67240000 0.052054 -173.4 0.998632 -83.44 0.998632 -83.44 0.052053 -173.5
8.67250000 0.052105 -173.4 0.998629 -83.44 0.998629 -83.44 0.052105 -173.5
8.67260000 0.052157 -173.4 0.998626 -83.45 0.998626 -83.45 0.052157 -173.5
8.67270000 0.052209 -173.4 0.998624 -83.45 0.998624 -83.45 0.052208 -173.5
8.67280000 0.052260 -173.5 0.998621 -83.45 0.998621 -83.45 0.052260 -173.5
8.67290000 0.052312 -173.5 0.998618 -83.46 0.998618 -83.46 0.052312 -173.5
8.67300000 0.052364 -173.5 0.998616 -83.46 0.998616 -83.46 0.052364 -173.5
8.67310000 0.052416 -173.5 0.998613 -83.47 0.998613 -83.47 0.052416 -173.5
8.67320000 0.052468 -173.5 0.998610 -83.47 0.998610 -83.47 0.052468 -173.5
8.67330000 0.052521 -173.5 0.998607 -83.47 0.998607 -83.47 0.052521 -173.5
8.67340000 0.052573 -173.5 0.998605 -83.48 0.998605 -83.48 0.052573 -173.5
8.67350000 0.052625 -173.5 0.998602 -83.48 0.998602 -83.48 0.052625 -173.5
8.67360000 0.052678 -173.5 0.998599 -83.48 0.998599 -83.48 0.052678 -173.5
8.67370000 0.052730 -173.5 0.998596 -83.49 0.998596 -83.49 0.052730 -173.5
8.67380000 0.052783 -173.5 0.998593 -83.49 0.998593 -83.49 0.052783 -173.5
8.67390000 0.052836 -173.5 0.998591 -83.50 0.998591 -83.50 0.052836 -173.5
8.67400000 0.052889 -173.5 0.998588 -83.50 0.998588 -83.50 0.052889 -173.5
8.67410000 0.052941 -173.5 0.998585 -83.50 0.998585 -83.50 0.052941 -173.5
8.67420000 0.052994 -173.5 0.998582 -83.51 0.998582 -83.51 0.052994 -173.5
8.67430000 0.053048 -173.5 0.998579 -83.51 0.998579 -83.51 0.053047 -173.5
8.67440000 0.053101 -173.5 0.998576 -83.52 0.998576 -83.52 0.053101 -173.5
8.67450000 0.053154 -173.5 0.998574 -83.52 0.998574 -83.52 0.053154 -173.6
8.67460000 0.053207 -173.5 0.998571 -83.52 0.998571 -83.52 0.053207 -173.6
8.67470000 0.053261 -173.5 0.998568 -83.53 0.998568 -83.53 0.053260 -173.6
8.67480000 0.053314 -173.5 0.998565 -83.53 0.998565 -83.53 0.053314 -173.6
8.67490000 0.053368 -173.5 0.998562 -83.54 0.998562 -83.54 0.053368 -173.6
8.67500000 0.053421 -173.5 0.998559 -83.54 0.998559 -83.54 0.053421 -173.6
8.67510000 0.053475 -173.5 0.998556 -83.54 0.998556 -83.54 0.053475 -173.6
8.67520000 0.053529 -173.5 0.998553 -83.55 0.998553 -83.55 0.053529 -173.6
8.67530000 0.053583 -173.5 0.998551 -83.55 0.998551 -83.55 0.053583 -173.6
8.67540000 0.053637 -173.6 0.998548 -83.56 0.998548 -83.56 0.053637 -173.6
8.67550000 0.053691 -173.6 0.998545 -83.56 0.998545 -83.56 0.053691 -173.6
8.67560000 0.053745 -173.6 0.998542 -83.56 0.998542 -83.56 0.053745 -173.6
8.67570000 0.053799 -173.6 0.998539 -83.57 0.998539 -83.57 0.053799 -173.6
8.67580000 0.053854 -173.6 0.998536 -83.57 0.998536 -83.57 0.053853 -173.6
8.67590000 0.053908 -173.6 0.998533 -83.58 0.998533 -83.58 0.053908 -173.6
8.67600000 0.053963 -173.6 0.998530 -83.58 0.998530 -83.58 0.053962 -173.6
8.67610000 0.054017 -173.6 0.998527 -83.58 0.998527 -83.58 0.054017 -173.6
8.67620000 0.054072 -173.6 0.998524 -83.59 0.998524 -83.59 0.054072 -173.6
8.67630000 0.054127 -173.6 0.998521 -83.59 0.998521 -83.59 0.054126 -173.6
8.67640000 0.054181 -173.6 0.998518 -83.60 0.998518 -83.60 0.054181 -173.6
8.67650000 0.054236 -173.6 0.998515 -83.60 0.998515 -83.60 0.054236 -173.6
8.67660000 0.054291 -173.6 0.998512 -83.61 0.998512 -83.61 0.054291 -173.6
8.67670000 0.054347 -173.6 0.998509 -83.61 0.998509 -83.61 0.054346 -173.6
8.67680000 0.054402 -173.6 0.998506 -83.61 0.998506 -83.61 0.054402 -173.6
8.67690000 0.054457 -173.6 0.998503 -83.62 0.998503 -83.62 0.054457 -173.7
8.67700000 0.054512 -173.6 0.998500 -83.62 0.998500 -83.62 0.054512 -173.7
8.67710000 0.054568 -173.6 0.998497 -83.63 0.998497 -83.63 0.054568 -173.7
8.67720000 0.054624 -173.6 0.998494 -83.63 0.998494 -83.63 0.054623 -173.7
8.67730000 0.054679 -173.6 0.998491 -83.63 0.998491 -83.63 0.054679 -173.7
8.67740000 0.054735 -173.6 0.998488 -83.64 0.998488 -83.64 0.054735 -173.7
8.67750000 0.054791 -173.6 0.998485 -83.64 0.998485 -83.64 0.054791 -173.7
8.67760000 0.054847 -173.6 0.998482 -83.65 0.998482 -83.65 0.054847 -173.7
8.67770000 0.054903 -173.6 0.998478 -83.65 0.998478 -83.65 0.054903 -173.7
8.67780000 0.054959 -173.6 0.998475 -83.65 0.998475 -83.65 0.054959 -173.7
8.67790000 0.055015 -173.6 0.998472 -83.66 0.998472 -83.66 0.055015 -173.7
8.67800000 0.055071 -173.7 0.998469 -83.66 0.998469 -83.66 0.055071 -173.7
8.67810000 0.055128 -173.7 0.998466 -83.67 0.998466 -83.67 0.055128 -173.7
8.67820000 0.055184 -173.7 0.998463 -83.67 0.998463 -83.67 0.055184 -173.7
8.67830000 0.055241 -173.7 0.998460 -83.68 0.998460 -83.68 0.055241 -173.7
8.67840000 0.055298 -173.7 0.998457 -83.68 0.998457 -83.68 0.055297 -173.7
8.67850000 0.055354 -173.7 0.998453 -83.68 0.998453 -83.68 0.055354 -173.7
8.67860000 0.055411 -173.7 0.998450 -83.69 0.998450 -83.69 0.055411 -173.7
8.67870000 0.055468 -173.7 0.998447 -83.69 0.998447 -83.69 0.055468 -173.7
8.67880000 0.055525 -173.7 0.998444 -83.70 0.998444 -83.70 0.055525 -173.7
8.67890000 0.055582 -173.7 0.998441 -83.70 0.998441 -83.70 0.055582 -173.7
8.67900000 0.055640 -173.7 0.998437 -83.71 0.998437 -83.71 0.055639 -173.7
8.67910000 0.055697 -173.7 0.998434 -83.71 0.998434 -83.71 0.055697 -173.7
8.67920000 0.055754 -173.7 0.998431 -83.71 0.998431 -83.71 0.055754 -173.8
8.67930000 0.055812 -173.7 0.998428 -83.72 0.998428 -83.72 0.055812 -173.8
8.67940000 0.055869 -173.7 0.998425 -83.72 0.998425 -83.72 0.055869 -173.8
8.67950000 0.055927 -173.7 0.998421 -83.73 0.998421 -83.73 0.055927 -173.8
8.67960000 0.055985 -173.7 0.998418 -83.73 0.998418 -83.73 0.055985 -173.8
8.67970000 0.056043 -173.7 0.998415 -83.73 0.998415 -83.73 0.056043 -173.8
8.67980000 0.056101 -173.7 0.998412 -83.74 0.998412 -83.74 0.056101 -173.8
8.67990000 0.056159 -173.7 0.998408 -83.74 0.998408 -83.74 0.056159 -173.8
8.68000000 0.056217 -173.7 0.998405 -83.75 0.998405 -83.75 0.056217 -173.8
8.68010000 0.056275 -173.7 0.998402 -83.75 0.998402 -83.75 0.056275 -173.8
8.68020000 0.056334 -173.7 0.998398 -83.76 0.998398 -83.76 0.056334 -173.8
8.68030000 0.056392 -173.7 0.998395 -83.76 0.998395 -83.76 0.056392 -173.8
8.68040000 0.056451 -173.7 0.998392 -83.76 0.998392 -83.76 0.056451 -173.8
8.68050000 0.056509 -173.8 0.998388 -83.77 0.998388 -83.77 0.056509 -173.8
8.68060000 0.056568 -173.8 0.998385 -83.77 0.998385 -83.77 0.056568 -173.8
8.68070000 0.056627 -173.8 0.998382 -83.78 0.998382 -83.78 0.056627 -173.8
8.68080000 0.056686 -173.8 0.998378 -83.78 0.998378 -83.78 0.056686 -173.8
8.68090000 0.056745 -173.8 0.998375 -83.79 0.998375 -83.79 0.056745 -173.8
8.68100000 0.056804 -173.8 0.998372 -83.79 0.998372 -83.79 0.056804 -173.8
8.68110000 0.056864 -173.8 0.998368 -83.79 0.998368 -83.79 0.056863 -173.8
8.68120000 0.056923 -173.8 0.998365 -83.80 0.998365 -83.80 0.056923 -173.8
8.68130000 0.056982 -173.8 0.998361 -83.80 0.998361 -83.80 0.056982 -173.8
8.68140000 0.057042 -173.8 0.998358 -83.81 0.998358 -83.81 0.057042 -173.9
8.68150000 0.057102 -173.8 0.998354 -83.81 0.998354 -83.81 0.057101 -173.9
8.68160000 0.057161 -173.8 0.998351 -83.82 0.998351 -83.82 0.057161 -173.9
8.68170000 0.057221 -173.8 0.998348 -83.82 0.998348 -83.82 0.057221 -173.9
8.68180000 0.057281 -173.8 0.998344 -83.83 0.998344 -83.83 0.057281 -173.9
8.68190000 0.057341 -173.8 0.998341 -83.83 0.998341 -83.83 0.057341 -173.9
8.68200000 0.057401 -173.8 0.998337 -83.83 0.998337 -83.83 0.057401 -173.9
8.68210000 0.057462 -173.8 0.998334 -83.84 0.998334 -83.84 0.057462 -173.9
8.68220000 0.057522 -173.8 0.998330 -83.84 0.998330 -83.84 0.057522 -173.9
8.68230000 0.057582 -173.8 0.998327 -83.85 0.998327 -83.85 0.057582 -173.9
8.68240000 0.057643 -173.8 0.998323 -83.85 0.998323 -83.85 0.057643 -173.9
8.68250000 0.057704 -173.8 0.998320 -83.86 0.998320 -83.86 0.057704 -173.9
8.68260000 0.057764 -173.8 0.998316 -83.86 0.998316 -83.86 0.057764 -173.9
8.68270000 0.057825 -173.8 0.998313 -83.86 0.998313 -83.86 0.057825 -173.9
8.68280000 0.057886 -173.8 0.998309 -83.87 0.998309 -83.87 0.057886 -173.9
8.68290000 0.057947 -173.8 0.998306 -83.87 0.998306 -83.87 0.057947 -173.9
8.68300000 0.058009 -173.9 0.998302 -83.88 0.998302 -83.88 0.058008 -173.9
8.68310000 0.058070 -173.9 0.998298 -83.88 0.998298 -83.88 0.058070 -173.9
8.68320000 0.058131 -173.9 0.998295 -83.89 0.998295 -83.89 0.058131 -173.9
8.68330000 0.058193 -173.9 0.998291 -83.89 0.998291 -83.89 0.058193 -173.9
8.68340000 0.058254 -173.9 0.998288 -83.90 0.998288 -83.90 0.058254 -173.9
8.68350000 0.058316 -173.9 0.998284 -83.90 0.998284 -83.90 0.058316 -174.0
8.68360000 0.058378 -173.9 0.998280 -83.90 0.998280 -83.90 0.058378 -174.0
8.68370000 0.058440 -173.9 0.998277 -83.91 0.998277 -83.91 0.058440 -174.0
8.68380000 0.058502 -173.9 0.998273 -83.91 0.998273 -83.91 0.058502 -174.0
8.68390000 0.058564 -173.9 0.998269 -83.92 0.998269 -83.92 0.058564 -174.0
8.68400000 0.058626 -173.9 0.998266 -83.92 0.998266 -83.92 0.058626 -174.0
8.68410000 0.058688 -173.9 0.998262 -83.93 0.998262 -83.93 0.058688 -174.0
8.68420000 0.058751 -173.9 0.998258 -83.93 0.998258 -83.93 0.058751 -174.0
8.68430000 0.058813 -173.9 0.998255 -83.94 0.998255 -83.94 0.058813 -174.0
8.68440000 0.058876 -173.9 0.998251 -83.94 0.998251 -83.94 0.058876 -174.0
8.68450000 0.058939 -173.9 0.998247 -83.95 0.998247 -83.95 0.058939 -174.0
8.68460000 0.059002 -173.9 0.998243 -83.95 0.998243 -83.95 0.059002 -174.0
8.68470000 0.059065 -173.9 0.998240 -83.95 0.998240 -83.95 0.059065 -174.0
8.68480000 0.059128 -173.9 0.998236 -83.96 0.998236 -83.96 0.059128 -174.0
8.68490000 0.059191 -173.9 0.998232 -83.96 0.998232 -83.96 0.059191 -174.0
8.68500000 0.059254 -173.9 0.998228 -83.97 0.998228 -83.97 0.059254 -174.0
8.68510000 0.059318 -173.9 0.998225 -83.97 0.998225 -83.97 0.059318 -174.0
8.68520000 0.059381 -173.9 0.998221 -83.98 0.998221 -83.98 0.059381 -174.0
8.68530000 0.059445 -174.0 0.998217 -83.98 0.998217 -83.98 0.059445 -174.0
8.68540000 0.059509 -174.0 0.998213 -83.99 0.998213 -83.99 0.059509 -174.0
8.68550000 0.059573 -174.0 0.998209 -83.99 0.998209 -83.99 0.059572 -174.0
8.68560000 0.059637 -174.0 0.998206 -84.00 0.998206 -84.00 0.059636 -174.1
8.68570000 0.059701 -174.0 0.998202 -84.00 0.998202 -84.00 0.059701 -174.1
8.68580000 0.059765 -174.0 0.998198 -84.00 0.998198 -84.00 0.059765 -174.1
8.68590000 0.059829 -174.0 0.998194 -84.01 0.998194 -84.01 0.059829 -174.1
8.68600000 0.059894 -174.0 0.998190 -84.01 0.998190 -84.01 0.059893 -174.1
8.68610000 0.059958 -174.0 0.998186 -84.02 0.998186 -84.02 0.059958 -174.1
8.68620000 0.060023 -174.0 0.998182 -84.02 0.998182 -84.02 0.060023 -174.1
8.68630000 0.060087 -174.0 0.998178 -84.03 0.998178 -84.03 0.060087 -174.1
8.68640000 0.060152 -174.0 0.998174 -84.03 0.998174 -84.03 0.060152 -174.1
8.68650000 0.060217 -174.0 0.998170 -84.04 0.998170 -84.04 0.060217 -174.1
8.68660000 0.060282 -174.0 0.998167 -84.04 0.998167 -84.04 0.060282 -174.1
8.68670000 0.060348 -174.0 0.998163 -84.05 0.998163 -84.05 0.060348 -174.1
8.68680000 0.060413 -174.0 0.998159 -84.05 0.998159 -84.05 0.060413 -174.1
8.68690000 0.060478 -174.0 0.998155 -84.06 0.998155 -84.06 0.060478 -174.1
8.68700000 0.060544 -174.0 0.998151 -84.06 0.998151 -84.06 0.060544 -174.1
8.68710000 0.060610 -174.0 0.998147 -84.07 0.998147 -84.07 0.060610 -174.1
8.68720000 0.060675 -174.0 0.998143 -84.07 0.998143 -84.07 0.060675 -174.1
8.68730000 0.060741 -174.0 0.998139 -84.07 0.998139 -84.07 0.060741 -174.1
8.68740000 0.060807 -174.0 0.998134 -84.08 0.998134 -84.08 0.060807 -174.1
8.68750000 0.060873 -174.1 0.998130 -84.08 0.998130 -84.08 0.060873 -174.1
8.68760000 0.060940 -174.1 0.998126 -84.09 0.998126 -84.09 0.060940 -174.1
8.68770000 0.061006 -174.1 0.998122 -84.09 0.998122 -84.09 0.061006 -174.2
8.68780000 0.061073 -174.1 0.998118 -84.10 0.998118 -84.10 0.061072 -174.2
8.68790000 0.061139 -174.1 0.998114 -84.10 0.998114 -84.10 0.061139 -174.2
8.68800000 0.061206 -174.1 0.998110 -84.11 0.998110 -84.11 0.061206 -174.2
8.68810000 0.061273 -174.1 0.998106 -84.11 0.998106 -84.11 0.061273 -174.2
8.68820000 0.061340 -174.1 0.998102 -84.12 0.998102 -84.12 0.061340 -174.2
8.68830000 0.061407 -174.1 0.998098 -84.12 0.998098 -84.12 0.061407 -174.2
8.68840000 0.061474 -174.1 0.998093 -84.13 0.998093 -84.13 0.061474 -174.2
8.68850000 0.061541 -174.1 0.998089 -84.13 0.998089 -84.13 0.061541 -174.2
8.68860000 0.061609 -174.1 0.998085 -84.14 0.998085 -84.14 0.061609 -174.2
8.68870000 0.061676 -174.1 0.998081 -84.14 0.998081 -84.14 0.061676 -174.2
8.68880000 0.061744 -174.1 0.998077 -84.15 0.998077 -84.15 0.061744 -174.2
8.68890000 0.061812 -174.1 0.998072 -84.15 0.998072 -84.15 0.061812 -174.2
8.68900000 0.061880 -174.1 0.998068 -84.16 0.998068 -84.16 0.061880 -174.2
8.68910000 0.061948 -174.1 0.998064 -84.16 0.998064 -84.16 0.061948 -174.2
8.68920000 0.062016 -174.1 0.998060 -84.17 0.998060 -84.17 0.062016 -174.2