! Sonnet Data File
! From: emgraph Version : 16.52
! From Emgraph Data: transmon_trial2
! Data File Written: 10/20/2017 09:49:55
!< HDATE 10/20/2017 09:16:47
!< MDATE 10/20/2017 09:16:47
!< PARAMS
!< Lj = 15.24
!< Gap = 16.0
!< Width = 20.0
!< Pwidth = 2000.0
!< END PARAMS
# GHZ S MA R 38.50000
8.70000000 0.002161 18.786 0.999989 -70.74 0.999989 -70.74 0.002161 19.594
!< P1 F=8.7 Eeff=(4.9947984 -5.8807e-5) Z0=(38.4974817 -1.2545e-4) R=0.0 C=0.0 
!< P2 F=8.7 Eeff=(4.9947984 -5.8807e-5) Z0=(38.4974817 -1.2545e-4) R=0.0 C=0.0 
8.70010000 0.002156 18.783 0.999989 -70.74 0.999989 -70.74 0.002156 19.594
8.70020000 0.002150 18.780 0.999989 -70.74 0.999989 -70.74 0.002150 19.595
8.70030000 0.002145 18.777 0.999989 -70.75 0.999989 -70.75 0.002145 19.595
8.70040000 0.002140 18.774 0.999989 -70.75 0.999989 -70.75 0.002140 19.595
8.70050000 0.002135 18.771 0.999989 -70.75 0.999989 -70.75 0.002135 19.596
8.70060000 0.002129 18.768 0.999989 -70.75 0.999989 -70.75 0.002129 19.596
8.70070000 0.002124 18.765 0.999989 -70.75 0.999989 -70.75 0.002124 19.596
8.70080000 0.002119 18.762 0.999989 -70.75 0.999989 -70.75 0.002119 19.597
8.70090000 0.002113 18.759 0.999989 -70.75 0.999989 -70.75 0.002113 19.597
8.70100000 0.002108 18.756 0.999989 -70.75 0.999989 -70.75 0.002108 19.598
8.70110000 0.002103 18.753 0.999989 -70.75 0.999989 -70.75 0.002103 19.598
8.70120000 0.002097 18.750 0.999989 -70.76 0.999989 -70.76 0.002097 19.599
8.70130000 0.002092 18.747 0.999989 -70.76 0.999989 -70.76 0.002092 19.599
8.70140000 0.002087 18.744 0.999989 -70.76 0.999989 -70.76 0.002087 19.599
8.70150000 0.002081 18.741 0.999989 -70.76 0.999989 -70.76 0.002081 19.600
8.70160000 0.002076 18.738 0.999989 -70.76 0.999989 -70.76 0.002076 19.600
8.70170000 0.002071 18.735 0.999989 -70.76 0.999989 -70.76 0.002071 19.601
8.70180000 0.002065 18.732 0.999989 -70.76 0.999989 -70.76 0.002065 19.601
8.70190000 0.002060 18.729 0.999989 -70.76 0.999989 -70.76 0.002060 19.602
8.70200000 0.002055 18.725 0.999989 -70.76 0.999989 -70.76 0.002055 19.602
8.70210000 0.002049 18.722 0.999989 -70.77 0.999989 -70.77 0.002049 19.603
8.70220000 0.002044 18.719 0.999989 -70.77 0.999989 -70.77 0.002044 19.604
8.70230000 0.002038 18.716 0.999989 -70.77 0.999989 -70.77 0.002038 19.604
8.70240000 0.002033 18.713 0.999989 -70.77 0.999989 -70.77 0.002033 19.605
8.70250000 0.002028 18.709 0.999989 -70.77 0.999989 -70.77 0.002028 19.605
8.70260000 0.002022 18.706 0.999989 -70.77 0.999989 -70.77 0.002022 19.606
8.70270000 0.002017 18.703 0.999989 -70.77 0.999989 -70.77 0.002017 19.606
8.70280000 0.002012 18.700 0.999989 -70.77 0.999989 -70.77 0.002011 19.607
8.70290000 0.002006 18.697 0.999989 -70.77 0.999989 -70.77 0.002006 19.608
8.70300000 0.002001 18.693 0.999989 -70.78 0.999989 -70.78 0.002001 19.608
8.70310000 0.001995 18.690 0.999989 -70.78 0.999989 -70.78 0.001995 19.609
8.70320000 0.001990 18.687 0.999989 -70.78 0.999989 -70.78 0.001990 19.610
8.70330000 0.001984 18.683 0.999989 -70.78 0.999989 -70.78 0.001984 19.610
8.70340000 0.001979 18.680 0.999989 -70.78 0.999989 -70.78 0.001979 19.611
8.70350000 0.001973 18.677 0.999989 -70.78 0.999989 -70.78 0.001973 19.612
8.70360000 0.001968 18.673 0.999989 -70.78 0.999989 -70.78 0.001968 19.612
8.70370000 0.001963 18.670 0.999989 -70.78 0.999989 -70.78 0.001963 19.613
8.70380000 0.001957 18.667 0.999989 -70.78 0.999989 -70.78 0.001957 19.614
8.70390000 0.001952 18.663 0.999990 -70.79 0.999990 -70.79 0.001952 19.615
8.70400000 0.001946 18.660 0.999990 -70.79 0.999990 -70.79 0.001946 19.615
8.70410000 0.001941 18.656 0.999990 -70.79 0.999990 -70.79 0.001941 19.616
8.70420000 0.001935 18.653 0.999990 -70.79 0.999990 -70.79 0.001935 19.617
8.70430000 0.001930 18.649 0.999990 -70.79 0.999990 -70.79 0.001930 19.618
8.70440000 0.001924 18.646 0.999990 -70.79 0.999990 -70.79 0.001924 19.618
8.70450000 0.001919 18.642 0.999990 -70.79 0.999990 -70.79 0.001919 19.619
8.70460000 0.001913 18.639 0.999990 -70.79 0.999990 -70.79 0.001913 19.620
8.70470000 0.001908 18.635 0.999990 -70.79 0.999990 -70.79 0.001908 19.621
8.70480000 0.001902 18.632 0.999990 -70.80 0.999990 -70.80 0.001902 19.622
8.70490000 0.001897 18.628 0.999990 -70.80 0.999990 -70.80 0.001897 19.623
8.70500000 0.001891 18.625 0.999990 -70.80 0.999990 -70.80 0.001891 19.623
8.70510000 0.001886 18.621 0.999990 -70.80 0.999990 -70.80 0.001886 19.624
8.70520000 0.001880 18.617 0.999990 -70.80 0.999990 -70.80 0.001880 19.625
8.70530000 0.001875 18.614 0.999990 -70.80 0.999990 -70.80 0.001874 19.626
8.70540000 0.001869 18.610 0.999990 -70.80 0.999990 -70.80 0.001869 19.627
8.70550000 0.001863 18.606 0.999990 -70.80 0.999990 -70.80 0.001863 19.628
8.70560000 0.001858 18.603 0.999990 -70.81 0.999990 -70.81 0.001858 19.629
8.70570000 0.001852 18.599 0.999990 -70.81 0.999990 -70.81 0.001852 19.630
8.70580000 0.001847 18.595 0.999990 -70.81 0.999990 -70.81 0.001847 19.631
8.70590000 0.001841 18.592 0.999990 -70.81 0.999990 -70.81 0.001841 19.632
8.70600000 0.001836 18.588 0.999990 -70.81 0.999990 -70.81 0.001835 19.633
8.70610000 0.001830 18.584 0.999990 -70.81 0.999990 -70.81 0.001830 19.634
8.70620000 0.001824 18.580 0.999990 -70.81 0.999990 -70.81 0.001824 19.635
8.70630000 0.001819 18.576 0.999990 -70.81 0.999990 -70.81 0.001819 19.636
8.70640000 0.001813 18.573 0.999990 -70.81 0.999990 -70.81 0.001813 19.637
8.70650000 0.001807 18.569 0.999990 -70.82 0.999990 -70.82 0.001807 19.638
8.70660000 0.001802 18.565 0.999990 -70.82 0.999990 -70.82 0.001802 19.639
8.70670000 0.001796 18.561 0.999990 -70.82 0.999990 -70.82 0.001796 19.641
8.70680000 0.001791 18.557 0.999990 -70.82 0.999990 -70.82 0.001791 19.642
8.70690000 0.001785 18.553 0.999990 -70.82 0.999990 -70.82 0.001785 19.643
8.70700000 0.001779 18.549 0.999990 -70.82 0.999990 -70.82 0.001779 19.644
8.70710000 0.001774 18.545 0.999990 -70.82 0.999990 -70.82 0.001774 19.645
8.70720000 0.001768 18.541 0.999990 -70.82 0.999990 -70.82 0.001768 19.646
8.70730000 0.001762 18.537 0.999990 -70.82 0.999990 -70.82 0.001762 19.648
8.70740000 0.001757 18.533 0.999990 -70.83 0.999990 -70.83 0.001757 19.649
8.70750000 0.001751 18.529 0.999990 -70.83 0.999990 -70.83 0.001751 19.650
8.70760000 0.001745 18.525 0.999990 -70.83 0.999990 -70.83 0.001745 19.651
8.70770000 0.001740 18.521 0.999990 -70.83 0.999990 -70.83 0.001740 19.653
8.70780000 0.001734 18.517 0.999990 -70.83 0.999990 -70.83 0.001734 19.654
8.70790000 0.001728 18.512 0.999990 -70.83 0.999990 -70.83 0.001728 19.655
8.70800000 0.001723 18.508 0.999990 -70.83 0.999990 -70.83 0.001723 19.657
8.70810000 0.001717 18.504 0.999990 -70.83 0.999990 -70.83 0.001717 19.658
8.70820000 0.001711 18.500 0.999990 -70.83 0.999990 -70.83 0.001711 19.660
8.70830000 0.001705 18.495 0.999990 -70.84 0.999990 -70.84 0.001705 19.661
8.70840000 0.001700 18.491 0.999990 -70.84 0.999990 -70.84 0.001700 19.662
8.70850000 0.001694 18.487 0.999990 -70.84 0.999990 -70.84 0.001694 19.664
8.70860000 0.001688 18.483 0.999990 -70.84 0.999990 -70.84 0.001688 19.665
8.70870000 0.001682 18.478 0.999990 -70.84 0.999990 -70.84 0.001682 19.667
8.70880000 0.001677 18.474 0.999990 -70.84 0.999990 -70.84 0.001677 19.668
8.70890000 0.001671 18.469 0.999990 -70.84 0.999990 -70.84 0.001671 19.670
8.70900000 0.001665 18.465 0.999990 -70.84 0.999990 -70.84 0.001665 19.671
8.70910000 0.001659 18.460 0.999990 -70.84 0.999990 -70.84 0.001659 19.673
8.70920000 0.001654 18.456 0.999990 -70.85 0.999990 -70.85 0.001654 19.675
8.70930000 0.001648 18.451 0.999990 -70.85 0.999990 -70.85 0.001648 19.676
8.70940000 0.001642 18.447 0.999990 -70.85 0.999990 -70.85 0.001642 19.678
8.70950000 0.001636 18.442 0.999990 -70.85 0.999990 -70.85 0.001636 19.680
8.70960000 0.001630 18.438 0.999990 -70.85 0.999990 -70.85 0.001630 19.681
8.70970000 0.001625 18.433 0.999990 -70.85 0.999990 -70.85 0.001625 19.683
8.70980000 0.001619 18.428 0.999990 -70.85 0.999990 -70.85 0.001619 19.685
8.70990000 0.001613 18.424 0.999990 -70.85 0.999990 -70.85 0.001613 19.686
8.71000000 0.001607 18.419 0.999990 -70.86 0.999990 -70.86 0.001607 19.688
8.71010000 0.001601 18.414 0.999990 -70.86 0.999990 -70.86 0.001601 19.690
8.71020000 0.001596 18.410 0.999990 -70.86 0.999990 -70.86 0.001596 19.692
8.71030000 0.001590 18.405 0.999990 -70.86 0.999990 -70.86 0.001590 19.694
8.71040000 0.001584 18.400 0.999990 -70.86 0.999990 -70.86 0.001584 19.696
8.71050000 0.001578 18.395 0.999990 -70.86 0.999990 -70.86 0.001578 19.698
8.71060000 0.001572 18.390 0.999990 -70.86 0.999990 -70.86 0.001572 19.700
8.71070000 0.001566 18.385 0.999990 -70.86 0.999990 -70.86 0.001566 19.701
8.71080000 0.001560 18.380 0.999990 -70.86 0.999990 -70.86 0.001560 19.703
8.71090000 0.001555 18.375 0.999990 -70.87 0.999990 -70.87 0.001554 19.705
8.71100000 0.001549 18.370 0.999990 -70.87 0.999990 -70.87 0.001549 19.708
8.71110000 0.001543 18.365 0.999990 -70.87 0.999990 -70.87 0.001543 19.710
8.71120000 0.001537 18.360 0.999990 -70.87 0.999990 -70.87 0.001537 19.712
8.71130000 0.001531 18.355 0.999990 -70.87 0.999990 -70.87 0.001531 19.714
8.71140000 0.001525 18.350 0.999990 -70.87 0.999990 -70.87 0.001525 19.716
8.71150000 0.001519 18.344 0.999990 -70.87 0.999990 -70.87 0.001519 19.718
8.71160000 0.001513 18.339 0.999990 -70.87 0.999990 -70.87 0.001513 19.720
8.71170000 0.001507 18.334 0.999990 -70.87 0.999990 -70.87 0.001507 19.723
8.71180000 0.001501 18.329 0.999990 -70.88 0.999990 -70.88 0.001501 19.725
8.71190000 0.001495 18.323 0.999990 -70.88 0.999990 -70.88 0.001495 19.727
8.71200000 0.001489 18.318 0.999990 -70.88 0.999990 -70.88 0.001489 19.730
8.71210000 0.001483 18.312 0.999990 -70.88 0.999990 -70.88 0.001483 19.732
8.71220000 0.001478 18.307 0.999990 -70.88 0.999990 -70.88 0.001477 19.734
8.71230000 0.001472 18.301 0.999990 -70.88 0.999990 -70.88 0.001472 19.737
8.71240000 0.001466 18.296 0.999990 -70.88 0.999990 -70.88 0.001466 19.739
8.71250000 0.001460 18.290 0.999990 -70.88 0.999990 -70.88 0.001460 19.742
8.71260000 0.001454 18.285 0.999990 -70.89 0.999990 -70.89 0.001454 19.744
8.71270000 0.001448 18.279 0.999990 -70.89 0.999990 -70.89 0.001448 19.747
8.71280000 0.001442 18.273 0.999990 -70.89 0.999990 -70.89 0.001442 19.749
8.71290000 0.001436 18.267 0.999990 -70.89 0.999990 -70.89 0.001436 19.752
8.71300000 0.001430 18.262 0.999990 -70.89 0.999990 -70.89 0.001430 19.755
8.71310000 0.001424 18.256 0.999990 -70.89 0.999990 -70.89 0.001424 19.757
8.71320000 0.001418 18.250 0.999990 -70.89 0.999990 -70.89 0.001418 19.760
8.71330000 0.001412 18.244 0.999990 -70.89 0.999990 -70.89 0.001411 19.763
8.71340000 0.001406 18.238 0.999990 -70.89 0.999990 -70.89 0.001405 19.766
8.71350000 0.001399 18.232 0.999990 -70.90 0.999990 -70.90 0.001399 19.769
8.71360000 0.001393 18.226 0.999990 -70.90 0.999990 -70.90 0.001393 19.772
8.71370000 0.001387 18.220 0.999990 -70.90 0.999990 -70.90 0.001387 19.774
8.71380000 0.001381 18.213 0.999990 -70.90 0.999990 -70.90 0.001381 19.777
8.71390000 0.001375 18.207 0.999990 -70.90 0.999990 -70.90 0.001375 19.780
8.71400000 0.001369 18.201 0.999990 -70.90 0.999990 -70.90 0.001369 19.784
8.71410000 0.001363 18.194 0.999990 -70.90 0.999990 -70.90 0.001363 19.787
8.71420000 0.001357 18.188 0.999990 -70.90 0.999990 -70.90 0.001357 19.790
8.71430000 0.001351 18.182 0.999990 -70.90 0.999990 -70.90 0.001351 19.793
8.71440000 0.001345 18.175 0.999990 -70.91 0.999990 -70.91 0.001345 19.796
8.71450000 0.001339 18.169 0.999990 -70.91 0.999990 -70.91 0.001339 19.799
8.71460000 0.001333 18.162 0.999990 -70.91 0.999990 -70.91 0.001332 19.803
8.71470000 0.001326 18.155 0.999990 -70.91 0.999990 -70.91 0.001326 19.806
8.71480000 0.001320 18.149 0.999990 -70.91 0.999990 -70.91 0.001320 19.810
8.71490000 0.001314 18.142 0.999990 -70.91 0.999990 -70.91 0.001314 19.813
8.71500000 0.001308 18.135 0.999990 -70.91 0.999990 -70.91 0.001308 19.817
8.71510000 0.001302 18.128 0.999990 -70.91 0.999990 -70.91 0.001302 19.820
8.71520000 0.001296 18.121 0.999990 -70.92 0.999990 -70.92 0.001296 19.824
8.71530000 0.001290 18.114 0.999990 -70.92 0.999990 -70.92 0.001290 19.827
8.71540000 0.001283 18.107 0.999990 -70.92 0.999990 -70.92 0.001283 19.831
8.71550000 0.001277 18.100 0.999990 -70.92 0.999990 -70.92 0.001277 19.835
8.71560000 0.001271 18.093 0.999990 -70.92 0.999990 -70.92 0.001271 19.839
8.71570000 0.001265 18.085 0.999990 -70.92 0.999990 -70.92 0.001265 19.843
8.71580000 0.001259 18.078 0.999990 -70.92 0.999990 -70.92 0.001259 19.847
8.71590000 0.001252 18.071 0.999990 -70.92 0.999990 -70.92 0.001252 19.850
8.71600000 0.001246 18.063 0.999990 -70.92 0.999990 -70.92 0.001246 19.855
8.71610000 0.001240 18.055 0.999990 -70.93 0.999990 -70.93 0.001240 19.859
8.71620000 0.001234 18.048 0.999990 -70.93 0.999990 -70.93 0.001234 19.863
8.71630000 0.001228 18.040 0.999990 -70.93 0.999990 -70.93 0.001228 19.867
8.71640000 0.001221 18.032 0.999990 -70.93 0.999990 -70.93 0.001221 19.871
8.71650000 0.001215 18.024 0.999990 -70.93 0.999990 -70.93 0.001215 19.876
8.71660000 0.001209 18.017 0.999990 -70.93 0.999990 -70.93 0.001209 19.880
8.71670000 0.001203 18.009 0.999990 -70.93 0.999990 -70.93 0.001203 19.884
8.71680000 0.001196 18.000 0.999990 -70.93 0.999990 -70.93 0.001196 19.889
8.71690000 0.001190 17.992 0.999990 -70.94 0.999990 -70.94 0.001190 19.894
8.71700000 0.001184 17.984 0.999990 -70.94 0.999990 -70.94 0.001184 19.898
8.71710000 0.001178 17.976 0.999990 -70.94 0.999990 -70.94 0.001177 19.903
8.71720000 0.001171 17.967 0.999990 -70.94 0.999990 -70.94 0.001171 19.908
8.71730000 0.001165 17.959 0.999990 -70.94 0.999990 -70.94 0.001165 19.913
8.71740000 0.001159 17.950 0.999990 -70.94 0.999990 -70.94 0.001159 19.918
8.71750000 0.001152 17.941 0.999990 -70.94 0.999990 -70.94 0.001152 19.923
8.71760000 0.001146 17.933 0.999990 -70.94 0.999990 -70.94 0.001146 19.928
8.71770000 0.001140 17.924 0.999990 -70.94 0.999990 -70.94 0.001140 19.933
8.71780000 0.001133 17.915 0.999990 -70.95 0.999990 -70.95 0.001133 19.938
8.71790000 0.001127 17.906 0.999990 -70.95 0.999990 -70.95 0.001127 19.944
8.71800000 0.001121 17.897 0.999990 -70.95 0.999990 -70.95 0.001121 19.949
8.71810000 0.001114 17.887 0.999990 -70.95 0.999990 -70.95 0.001114 19.954
8.71820000 0.001108 17.878 0.999990 -70.95 0.999990 -70.95 0.001108 19.960
8.71830000 0.001102 17.869 0.999990 -70.95 0.999990 -70.95 0.001101 19.966
8.71840000 0.001095 17.859 0.999990 -70.95 0.999990 -70.95 0.001095 19.971
8.71850000 0.001089 17.849 0.999990 -70.95 0.999990 -70.95 0.001089 19.977
8.71860000 0.001082 17.839 0.999990 -70.96 0.999990 -70.96 0.001082 19.983
8.71870000 0.001076 17.830 0.999990 -70.96 0.999990 -70.96 0.001076 19.989
8.71880000 0.001070 17.820 0.999990 -70.96 0.999990 -70.96 0.001070 19.995
8.71890000 0.001063 17.809 0.999990 -70.96 0.999990 -70.96 0.001063 20.002
8.71900000 0.001057 17.799 0.999990 -70.96 0.999990 -70.96 0.001057 20.008
8.71910000 0.001050 17.789 0.999990 -70.96 0.999990 -70.96 0.001050 20.014
8.71920000 0.001044 17.778 0.999991 -70.96 0.999991 -70.96 0.001044 20.021
8.71930000 0.001038 17.768 0.999991 -70.96 0.999991 -70.96 0.001037 20.027
8.71940000 0.001031 17.757 0.999991 -70.96 0.999991 -70.96 0.001031 20.034
8.71950000 0.001025 17.746 0.999991 -70.97 0.999991 -70.97 0.001025 20.041
8.71960000 0.001018 17.735 0.999991 -70.97 0.999991 -70.97 0.001018 20.048
8.71970000 0.001012 17.724 0.999991 -70.97 0.999991 -70.97 0.001012 20.055
8.71980000 0.001005 17.713 0.999991 -70.97 0.999991 -70.97 0.001005 20.062
8.71990000 9.988e-4 17.701 0.999991 -70.97 0.999991 -70.97 9.987e-4 20.069
8.72000000 9.923e-4 17.690 0.999991 -70.97 0.999991 -70.97 9.922e-4 20.077
8.72010000 9.858e-4 17.678 0.999991 -70.97 0.999991 -70.97 9.857e-4 20.084
8.72020000 9.793e-4 17.666 0.999991 -70.97 0.999991 -70.97 9.792e-4 20.092
8.72030000 9.728e-4 17.654 0.999991 -70.98 0.999991 -70.98 9.727e-4 20.100
8.72040000 9.663e-4 17.642 0.999991 -70.98 0.999991 -70.98 9.662e-4 20.108
8.72050000 9.597e-4 17.629 0.999991 -70.98 0.999991 -70.98 9.596e-4 20.116
8.72060000 9.532e-4 17.617 0.999991 -70.98 0.999991 -70.98 9.531e-4 20.124
8.72070000 9.467e-4 17.604 0.999991 -70.98 0.999991 -70.98 9.466e-4 20.132
8.72080000 9.401e-4 17.591 0.999991 -70.98 0.999991 -70.98 9.400e-4 20.141
8.72090000 9.336e-4 17.578 0.999991 -70.98 0.999991 -70.98 9.335e-4 20.149
8.72100000 9.270e-4 17.565 0.999991 -70.98 0.999991 -70.98 9.269e-4 20.158
8.72110000 9.205e-4 17.552 0.999991 -70.99 0.999991 -70.99 9.203e-4 20.167
8.72120000 9.139e-4 17.538 0.999991 -70.99 0.999991 -70.99 9.138e-4 20.176
8.72130000 9.073e-4 17.524 0.999991 -70.99 0.999991 -70.99 9.072e-4 20.185
8.72140000 9.007e-4 17.510 0.999991 -70.99 0.999991 -70.99 9.006e-4 20.195
8.72150000 8.941e-4 17.496 0.999991 -70.99 0.999991 -70.99 8.940e-4 20.204
8.72160000 8.875e-4 17.481 0.999991 -70.99 0.999991 -70.99 8.874e-4 20.214
8.72170000 8.809e-4 17.467 0.999991 -70.99 0.999991 -70.99 8.808e-4 20.224
8.72180000 8.743e-4 17.452 0.999991 -70.99 0.999991 -70.99 8.742e-4 20.234
8.72190000 8.677e-4 17.437 0.999991 -70.99 0.999991 -70.99 8.675e-4 20.244
8.72200000 8.610e-4 17.422 0.999991 -71.00 0.999991 -71.00 8.609e-4 20.255
8.72210000 8.544e-4 17.406 0.999991 -71.00 0.999991 -71.00 8.543e-4 20.265
8.72220000 8.477e-4 17.390 0.999991 -71.00 0.999991 -71.00 8.476e-4 20.276
8.72230000 8.411e-4 17.374 0.999991 -71.00 0.999991 -71.00 8.410e-4 20.287
8.72240000 8.344e-4 17.358 0.999991 -71.00 0.999991 -71.00 8.343e-4 20.298
8.72250000 8.278e-4 17.341 0.999991 -71.00 0.999991 -71.00 8.276e-4 20.310
8.72260000 8.211e-4 17.325 0.999991 -71.00 0.999991 -71.00 8.210e-4 20.322
8.72270000 8.144e-4 17.308 0.999991 -71.00 0.999991 -71.00 8.143e-4 20.334
8.72280000 8.077e-4 17.290 0.999991 -71.01 0.999991 -71.01 8.076e-4 20.346
8.72290000 8.010e-4 17.273 0.999991 -71.01 0.999991 -71.01 8.009e-4 20.358
8.72300000 7.943e-4 17.255 0.999991 -71.01 0.999991 -71.01 7.942e-4 20.371
8.72310000 7.876e-4 17.236 0.999991 -71.01 0.999991 -71.01 7.875e-4 20.384
8.72320000 7.809e-4 17.218 0.999991 -71.01 0.999991 -71.01 7.807e-4 20.397
8.72330000 7.741e-4 17.199 0.999991 -71.01 0.999991 -71.01 7.740e-4 20.410
8.72340000 7.674e-4 17.180 0.999991 -71.01 0.999991 -71.01 7.673e-4 20.424
8.72350000 7.606e-4 17.160 0.999991 -71.01 0.999991 -71.01 7.605e-4 20.438
8.72360000 7.539e-4 17.140 0.999991 -71.01 0.999991 -71.01 7.538e-4 20.452
8.72370000 7.471e-4 17.120 0.999991 -71.02 0.999991 -71.02 7.470e-4 20.467
8.72380000 7.404e-4 17.099 0.999991 -71.02 0.999991 -71.02 7.402e-4 20.482
8.72390000 7.336e-4 17.078 0.999991 -71.02 0.999991 -71.02 7.335e-4 20.497
8.72400000 7.268e-4 17.057 0.999991 -71.02 0.999991 -71.02 7.267e-4 20.512
8.72410000 7.200e-4 17.035 0.999991 -71.02 0.999991 -71.02 7.199e-4 20.528
8.72420000 7.132e-4 17.013 0.999991 -71.02 0.999991 -71.02 7.131e-4 20.544
8.72430000 7.064e-4 16.990 0.999991 -71.02 0.999991 -71.02 7.063e-4 20.561
8.72440000 6.996e-4 16.967 0.999991 -71.02 0.999991 -71.02 6.995e-4 20.578
8.72450000 6.928e-4 16.943 0.999991 -71.03 0.999991 -71.03 6.926e-4 20.595
8.72460000 6.860e-4 16.919 0.999991 -71.03 0.999991 -71.03 6.858e-4 20.613
8.72470000 6.791e-4 16.895 0.999991 -71.03 0.999991 -71.03 6.790e-4 20.631
8.72480000 6.723e-4 16.870 0.999991 -71.03 0.999991 -71.03 6.721e-4 20.649
8.72490000 6.654e-4 16.844 0.999991 -71.03 0.999991 -71.03 6.653e-4 20.668
8.72500000 6.586e-4 16.818 0.999991 -71.03 0.999991 -71.03 6.584e-4 20.688
8.72510000 6.517e-4 16.792 0.999991 -71.03 0.999991 -71.03 6.515e-4 20.708
8.72520000 6.448e-4 16.764 0.999991 -71.03 0.999991 -71.03 6.447e-4 20.728
8.72530000 6.379e-4 16.737 0.999991 -71.04 0.999991 -71.04 6.378e-4 20.749
8.72540000 6.310e-4 16.708 0.999991 -71.04 0.999991 -71.04 6.309e-4 20.770
8.72550000 6.241e-4 16.679 0.999991 -71.04 0.999991 -71.04 6.240e-4 20.792
8.72560000 6.172e-4 16.649 0.999991 -71.04 0.999991 -71.04 6.171e-4 20.814
8.72570000 6.103e-4 16.619 0.999991 -71.04 0.999991 -71.04 6.102e-4 20.837
8.72580000 6.034e-4 16.588 0.999991 -71.04 0.999991 -71.04 6.032e-4 20.861
8.72590000 5.965e-4 16.556 0.999991 -71.04 0.999991 -71.04 5.963e-4 20.885
8.72600000 5.895e-4 16.524 0.999991 -71.04 0.999991 -71.04 5.894e-4 20.910
8.72610000 5.826e-4 16.490 0.999991 -71.05 0.999991 -71.05 5.824e-4 20.935
8.72620000 5.756e-4 16.456 0.999991 -71.05 0.999991 -71.05 5.755e-4 20.961
8.72630000 5.687e-4 16.421 0.999991 -71.05 0.999991 -71.05 5.685e-4 20.988
8.72640000 5.617e-4 16.385 0.999991 -71.05 0.999991 -71.05 5.615e-4 21.015
8.72650000 5.547e-4 16.348 0.999991 -71.05 0.999991 -71.05 5.545e-4 21.043
8.72660000 5.478e-4 16.311 0.999991 -71.05 0.999991 -71.05 5.476e-4 21.073
8.72670000 5.408e-4 16.272 0.999991 -71.05 0.999991 -71.05 5.406e-4 21.102
8.72680000 5.338e-4 16.232 0.999991 -71.05 0.999991 -71.05 5.336e-4 21.133
8.72690000 5.268e-4 16.191 0.999991 -71.05 0.999991 -71.05 5.265e-4 21.165
8.72700000 5.197e-4 16.149 0.999991 -71.06 0.999991 -71.06 5.195e-4 21.197
8.72710000 5.127e-4 16.106 0.999991 -71.06 0.999991 -71.06 5.125e-4 21.231
8.72720000 5.057e-4 16.062 0.999991 -71.06 0.999991 -71.06 5.055e-4 21.265
8.72730000 4.986e-4 16.016 0.999991 -71.06 0.999991 -71.06 4.984e-4 21.301
8.72740000 4.916e-4 15.969 0.999991 -71.06 0.999991 -71.06 4.914e-4 21.337
8.72750000 4.845e-4 15.921 0.999991 -71.06 0.999991 -71.06 4.843e-4 21.375
8.72760000 4.775e-4 15.871 0.999991 -71.06 0.999991 -71.06 4.772e-4 21.414
8.72770000 4.704e-4 15.820 0.999991 -71.06 0.999991 -71.06 4.702e-4 21.454
8.72780000 4.633e-4 15.767 0.999991 -71.07 0.999991 -71.07 4.631e-4 21.496
8.72790000 4.562e-4 15.712 0.999991 -71.07 0.999991 -71.07 4.560e-4 21.539
8.72800000 4.491e-4 15.656 0.999991 -71.07 0.999991 -71.07 4.489e-4 21.583
8.72810000 4.420e-4 15.598 0.999991 -71.07 0.999991 -71.07 4.418e-4 21.629
8.72820000 4.349e-4 15.538 0.999991 -71.07 0.999991 -71.07 4.347e-4 21.677
8.72830000 4.278e-4 15.476 0.999991 -71.07 0.999991 -71.07 4.276e-4 21.726
8.72840000 4.207e-4 15.412 0.999991 -71.07 0.999991 -71.07 4.204e-4 21.777
8.72850000 4.136e-4 15.345 0.999991 -71.07 0.999991 -71.07 4.133e-4 21.830
8.72860000 4.064e-4 15.276 0.999991 -71.08 0.999991 -71.08 4.061e-4 21.885
8.72870000 3.993e-4 15.205 0.999991 -71.08 0.999991 -71.08 3.990e-4 21.941
8.72880000 3.921e-4 15.131 0.999991 -71.08 0.999991 -71.08 3.918e-4 22.000
8.72890000 3.849e-4 15.054 0.999991 -71.08 0.999991 -71.08 3.847e-4 22.062
8.72900000 3.778e-4 14.974 0.999991 -71.08 0.999991 -71.08 3.775e-4 22.126
8.72910000 3.706e-4 14.892 0.999991 -71.08 0.999991 -71.08 3.703e-4 22.192
8.72920000 3.634e-4 14.805 0.999991 -71.08 0.999991 -71.08 3.631e-4 22.261
8.72930000 3.562e-4 14.716 0.999991 -71.08 0.999991 -71.08 3.559e-4 22.334
8.72940000 3.490e-4 14.622 0.999991 -71.09 0.999991 -71.09 3.487e-4 22.409
8.72950000 3.418e-4 14.525 0.999991 -71.09 0.999991 -71.09 3.415e-4 22.487
8.72960000 3.346e-4 14.423 0.999991 -71.09 0.999991 -71.09 3.342e-4 22.570
8.72970000 3.273e-4 14.316 0.999991 -71.09 0.999991 -71.09 3.270e-4 22.656
8.72980000 3.201e-4 14.205 0.999991 -71.09 0.999991 -71.09 3.198e-4 22.746
8.72990000 3.129e-4 14.089 0.999991 -71.09 0.999991 -71.09 3.125e-4 22.840
8.73000000 3.056e-4 13.967 0.999991 -71.09 0.999991 -71.09 3.053e-4 22.939
8.73010000 2.984e-4 13.839 0.999991 -71.09 0.999991 -71.09 2.980e-4 23.043
8.73020000 2.911e-4 13.704 0.999991 -71.10 0.999991 -71.10 2.907e-4 23.152
8.73030000 2.838e-4 13.563 0.999991 -71.10 0.999991 -71.10 2.834e-4 23.267
8.73040000 2.766e-4 13.414 0.999991 -71.10 0.999991 -71.10 2.762e-4 23.389
8.73050000 2.693e-4 13.256 0.999991 -71.10 0.999991 -71.10 2.689e-4 23.517
8.73060000 2.620e-4 13.090 0.999991 -71.10 0.999991 -71.10 2.616e-4 23.653
8.73070000 2.547e-4 12.914 0.999991 -71.10 0.999991 -71.10 2.543e-4 23.797
8.73080000 2.474e-4 12.728 0.999991 -71.10 0.999991 -71.10 2.469e-4 23.949
8.73090000 2.401e-4 12.530 0.999991 -71.10 0.999991 -71.10 2.396e-4 24.111
8.73100000 2.328e-4 12.320 0.999991 -71.11 0.999991 -71.11 2.323e-4 24.284
8.73110000 2.255e-4 12.096 0.999991 -71.11 0.999991 -71.11 2.250e-4 24.468
8.73120000 2.181e-4 11.856 0.999991 -71.11 0.999991 -71.11 2.176e-4 24.665
8.73130000 2.108e-4 11.600 0.999991 -71.11 0.999991 -71.11 2.103e-4 24.876
8.73140000 2.035e-4 11.325 0.999991 -71.11 0.999991 -71.11 2.029e-4 25.103
8.73150000 1.961e-4 11.029 0.999991 -71.11 0.999991 -71.11 1.956e-4 25.347
8.73160000 1.888e-4 10.710 0.999991 -71.11 0.999991 -71.11 1.882e-4 25.610
8.73170000 1.815e-4 10.364 0.999991 -71.11 0.999991 -71.11 1.808e-4 25.896
8.73180000 1.741e-4 9.9895 0.999991 -71.12 0.999991 -71.12 1.734e-4 26.206
8.73190000 1.668e-4 9.5814 0.999991 -71.12 0.999991 -71.12 1.661e-4 26.545
8.73200000 1.594e-4 9.1352 0.999991 -71.12 0.999991 -71.12 1.587e-4 26.915
8.73210000 1.521e-4 8.6455 0.999991 -71.12 0.999991 -71.12 1.513e-4 27.322
8.73220000 1.448e-4 8.1056 0.999991 -71.12 0.999991 -71.12 1.439e-4 27.771
8.73230000 1.374e-4 7.5075 0.999991 -71.12 0.999991 -71.12 1.366e-4 28.270
8.73240000 1.301e-4 6.8414 0.999991 -71.12 0.999991 -71.12 1.292e-4 28.827
8.73250000 1.228e-4 6.0951 0.999991 -71.12 0.999991 -71.12 1.218e-4 29.451
8.73260000 1.155e-4 5.2535 0.999991 -71.12 0.999991 -71.12 1.145e-4 30.158
8.73270000 1.082e-4 4.2975 0.999991 -71.13 0.999991 -71.13 1.071e-4 30.962
8.73280000 1.009e-4 3.2027 0.999991 -71.13 0.999991 -71.13 9.977e-5 31.886
8.73290000 9.373e-5 1.9374 0.999991 -71.13 0.999991 -71.13 9.245e-5 32.958
8.73300000 8.655e-5 0.4602 0.999991 -71.13 0.999991 -71.13 8.517e-5 34.216
8.73310000 7.944e-5 -1.285 0.999991 -71.13 0.999991 -71.13 7.792e-5 35.710
8.73320000 7.240e-5 -3.373 0.999991 -71.13 0.999991 -71.13 7.073e-5 37.512
8.73330000 6.547e-5 -5.911 0.999991 -71.13 0.999991 -71.13 6.362e-5 39.722
8.73340000 5.869e-5 -9.044 0.999991 -71.13 0.999991 -71.13 5.662e-5 42.486
8.73350000 5.213e-5 -12.99 0.999991 -71.14 0.999991 -71.14 4.978e-5 46.026
8.73360000 4.587e-5 -18.04 0.999991 -71.14 0.999991 -71.14 4.318e-5 50.675
8.73370000 4.007e-5 -24.62 0.999991 -71.14 0.999991 -71.14 3.695e-5 56.951
8.73380000 3.497e-5 -33.28 0.999991 -71.14 0.999991 -71.14 3.134e-5 65.623
8.73390000 3.092e-5 -44.55 0.999991 -71.14 0.999991 -71.14 2.674e-5 77.668
8.73400000 2.837e-5 -58.51 0.999991 -71.14 0.999991 -71.14 2.374e-5 93.683
8.73410000 2.775e-5 -74.11 0.999991 -71.14 0.999991 -71.14 2.299e-5 112.42
8.73420000 2.920e-5 -89.28 0.999991 -71.14 0.999991 -71.14 2.471e-5 130.42
8.73430000 3.244e-5 -102.2 0.999991 -71.15 0.999991 -71.15 2.846e-5 144.88
8.73440000 3.702e-5 -112.4 0.999991 -71.15 0.999991 -71.15 3.358e-5 155.49
8.73450000 4.250e-5 -120.2 0.999991 -71.15 0.999991 -71.15 3.954e-5 163.11
8.73460000 4.859e-5 -126.1 0.999991 -71.15 0.999991 -71.15 4.602e-5 168.67
8.73470000 5.509e-5 -130.7 0.999991 -71.15 0.999991 -71.15 5.283e-5 172.84
8.73480000 6.187e-5 -134.3 0.999991 -71.15 0.999991 -71.15 5.987e-5 176.04
8.73490000 6.886e-5 -137.2 0.999991 -71.15 0.999991 -71.15 6.706e-5 178.57
8.73500000 7.600e-5 -139.5 0.999991 -71.16 0.999991 -71.16 7.437e-5 -179.4
8.73510000 8.325e-5 -141.5 0.999991 -71.16 0.999991 -71.16 8.176e-5 -177.7
8.73520000 9.059e-5 -143.1 0.999991 -71.16 0.999991 -71.16 8.922e-5 -176.3
8.73530000 9.800e-5 -144.5 0.999991 -71.16 0.999991 -71.16 9.674e-5 -175.2
8.73540000 1.055e-4 -145.7 0.999991 -71.16 0.999991 -71.16 1.043e-4 -174.1
8.73550000 1.130e-4 -146.7 0.999991 -71.16 0.999991 -71.16 1.119e-4 -173.3
8.73560000 1.206e-4 -147.6 0.999991 -71.16 0.999991 -71.16 1.195e-4 -172.5
8.73570000 1.281e-4 -148.4 0.999991 -71.16 0.999991 -71.16 1.272e-4 -171.8
8.73580000 1.358e-4 -149.1 0.999991 -71.17 0.999991 -71.17 1.349e-4 -171.2
8.73590000 1.434e-4 -149.8 0.999991 -71.17 0.999991 -71.17 1.426e-4 -170.7
8.73600000 1.511e-4 -150.3 0.999991 -71.17 0.999991 -71.17 1.503e-4 -170.2
8.73610000 1.588e-4 -150.9 0.999991 -71.17 0.999991 -71.17 1.580e-4 -169.8
8.73620000 1.665e-4 -151.3 0.999991 -71.17 0.999991 -71.17 1.658e-4 -169.4
8.73630000 1.743e-4 -151.8 0.999991 -71.17 0.999991 -71.17 1.736e-4 -169.0
8.73640000 1.821e-4 -152.2 0.999991 -71.17 0.999991 -71.17 1.814e-4 -168.7
8.73650000 1.898e-4 -152.5 0.999991 -71.17 0.999991 -71.17 1.892e-4 -168.4
8.73660000 1.976e-4 -152.9 0.999991 -71.18 0.999991 -71.18 1.970e-4 -168.1
8.73670000 2.055e-4 -153.2 0.999991 -71.18 0.999991 -71.18 2.048e-4 -167.9
8.73680000 2.133e-4 -153.5 0.999991 -71.18 0.999991 -71.18 2.127e-4 -167.6
8.73690000 2.211e-4 -153.7 0.999991 -71.18 0.999991 -71.18 2.206e-4 -167.4
8.73700000 2.290e-4 -154.0 0.999991 -71.18 0.999991 -71.18 2.284e-4 -167.2
8.73710000 2.369e-4 -154.2 0.999991 -71.18 0.999991 -71.18 2.363e-4 -167.0
8.73720000 2.447e-4 -154.4 0.999991 -71.18 0.999991 -71.18 2.442e-4 -166.9
8.73730000 2.526e-4 -154.6 0.999991 -71.18 0.999991 -71.18 2.521e-4 -166.7
8.73740000 2.606e-4 -154.8 0.999991 -71.19 0.999991 -71.19 2.601e-4 -166.5
8.73750000 2.685e-4 -155.0 0.999991 -71.19 0.999991 -71.19 2.680e-4 -166.4
8.73760000 2.764e-4 -155.2 0.999991 -71.19 0.999991 -71.19 2.760e-4 -166.2
8.73770000 2.844e-4 -155.3 0.999991 -71.19 0.999991 -71.19 2.839e-4 -166.1
8.73780000 2.923e-4 -155.5 0.999991 -71.19 0.999991 -71.19 2.919e-4 -166.0
8.73790000 3.003e-4 -155.6 0.999991 -71.19 0.999991 -71.19 2.999e-4 -165.9
8.73800000 3.083e-4 -155.8 0.999991 -71.19 0.999991 -71.19 3.079e-4 -165.7
8.73810000 3.163e-4 -155.9 0.999991 -71.19 0.999991 -71.19 3.159e-4 -165.6
8.73820000 3.243e-4 -156.0 0.999991 -71.20 0.999991 -71.20 3.239e-4 -165.5
8.73830000 3.323e-4 -156.2 0.999991 -71.20 0.999991 -71.20 3.319e-4 -165.4
8.73840000 3.403e-4 -156.3 0.999991 -71.20 0.999991 -71.20 3.400e-4 -165.3
8.73850000 3.484e-4 -156.4 0.999991 -71.20 0.999991 -71.20 3.480e-4 -165.3
8.73860000 3.564e-4 -156.5 0.999991 -71.20 0.999991 -71.20 3.561e-4 -165.2
8.73870000 3.645e-4 -156.6 0.999991 -71.20 0.999991 -71.20 3.641e-4 -165.1
8.73880000 3.726e-4 -156.7 0.999991 -71.20 0.999991 -71.20 3.722e-4 -165.0
8.73890000 3.806e-4 -156.8 0.999991 -71.20 0.999991 -71.20 3.803e-4 -164.9
8.73900000 3.887e-4 -156.9 0.999991 -71.21 0.999991 -71.21 3.884e-4 -164.9
8.73910000 3.969e-4 -156.9 0.999991 -71.21 0.999991 -71.21 3.965e-4 -164.8
8.73920000 4.050e-4 -157.0 0.999991 -71.21 0.999991 -71.21 4.046e-4 -164.7