! Sonnet Data File
! From: emgraph Version : 16.52
! From Project: transmon_trial2
! Data is De-embedded 
! Data File Written: 10/20/2017 10:41:09
!< HDATE 10/20/2017 09:51:02
!< MDATE 10/20/2017 09:51:02
!< PARAMS
!< Lj = 15.24
!< Gap = 16.0
!< Width = 30.0
!< Airgap = 18.0
!< Pwidth = 2000.0
!< END PARAMS
# GHZ S MA R 41.17000
8.70000000 0.001429 -159.4 0.999990 -69.96 0.999990 -69.96 0.001429 -160.3
!< P1 F=8.7 Eeff=(4.89554446 -6.0516e-5) Z0=(41.1855282 -1.5157e-4) R=0.0 C=0.0 
!< P2 F=8.7 Eeff=(4.89554446 -6.0516e-5) Z0=(41.1855282 -1.5157e-4) R=0.0 C=0.0 
8.70010000 0.001434 -159.4 0.999990 -69.96 0.999990 -69.96 0.001434 -160.3
8.70020000 0.001440 -159.4 0.999990 -69.97 0.999990 -69.97 0.001440 -160.3
8.70030000 0.001445 -159.4 0.999990 -69.97 0.999990 -69.97 0.001445 -160.3
8.70040000 0.001450 -159.4 0.999990 -69.97 0.999990 -69.97 0.001450 -160.3
8.70050000 0.001455 -159.4 0.999990 -69.97 0.999990 -69.97 0.001455 -160.3
8.70060000 0.001460 -159.4 0.999990 -69.97 0.999990 -69.97 0.001460 -160.3
8.70070000 0.001465 -159.4 0.999990 -69.97 0.999990 -69.97 0.001465 -160.3
8.70080000 0.001471 -159.4 0.999990 -69.97 0.999990 -69.97 0.001471 -160.3
8.70090000 0.001476 -159.4 0.999990 -69.97 0.999990 -69.97 0.001476 -160.3
8.70100000 0.001481 -159.4 0.999990 -69.97 0.999990 -69.97 0.001481 -160.3
8.70110000 0.001486 -159.4 0.999990 -69.98 0.999990 -69.98 0.001486 -160.3
8.70120000 0.001491 -159.4 0.999990 -69.98 0.999990 -69.98 0.001491 -160.3
8.70130000 0.001497 -159.4 0.999990 -69.98 0.999990 -69.98 0.001497 -160.3
8.70140000 0.001502 -159.4 0.999990 -69.98 0.999990 -69.98 0.001502 -160.3
8.70150000 0.001507 -159.4 0.999990 -69.98 0.999990 -69.98 0.001507 -160.3
8.70160000 0.001512 -159.4 0.999990 -69.98 0.999990 -69.98 0.001512 -160.3
8.70170000 0.001518 -159.4 0.999990 -69.98 0.999990 -69.98 0.001517 -160.3
8.70180000 0.001523 -159.4 0.999990 -69.98 0.999990 -69.98 0.001523 -160.3
8.70190000 0.001528 -159.4 0.999990 -69.98 0.999990 -69.98 0.001528 -160.3
8.70200000 0.001533 -159.4 0.999990 -69.99 0.999990 -69.99 0.001533 -160.3
8.70210000 0.001539 -159.4 0.999990 -69.99 0.999990 -69.99 0.001538 -160.3
8.70220000 0.001544 -159.4 0.999990 -69.99 0.999990 -69.99 0.001544 -160.3
8.70230000 0.001549 -159.4 0.999990 -69.99 0.999990 -69.99 0.001549 -160.3
8.70240000 0.001554 -159.4 0.999990 -69.99 0.999990 -69.99 0.001554 -160.3
8.70250000 0.001560 -159.4 0.999990 -69.99 0.999990 -69.99 0.001560 -160.3
8.70260000 0.001565 -159.4 0.999990 -69.99 0.999990 -69.99 0.001565 -160.3
8.70270000 0.001570 -159.4 0.999990 -69.99 0.999990 -69.99 0.001570 -160.3
8.70280000 0.001575 -159.4 0.999990 -69.99 0.999990 -69.99 0.001575 -160.3
8.70290000 0.001581 -159.4 0.999990 -70.00 0.999990 -70.00 0.001581 -160.4
8.70300000 0.001586 -159.4 0.999990 -70.00 0.999990 -70.00 0.001586 -160.4
8.70310000 0.001591 -159.4 0.999990 -70.00 0.999990 -70.00 0.001591 -160.4
8.70320000 0.001597 -159.4 0.999990 -70.00 0.999990 -70.00 0.001597 -160.4
8.70330000 0.001602 -159.4 0.999990 -70.00 0.999990 -70.00 0.001602 -160.4
8.70340000 0.001607 -159.4 0.999990 -70.00 0.999990 -70.00 0.001607 -160.4
8.70350000 0.001613 -159.4 0.999990 -70.00 0.999990 -70.00 0.001613 -160.4
8.70360000 0.001618 -159.4 0.999990 -70.00 0.999990 -70.00 0.001618 -160.4
8.70370000 0.001623 -159.4 0.999990 -70.00 0.999990 -70.00 0.001623 -160.4
8.70380000 0.001629 -159.5 0.999990 -70.01 0.999990 -70.01 0.001629 -160.4
8.70390000 0.001634 -159.5 0.999990 -70.01 0.999990 -70.01 0.001634 -160.4
8.70400000 0.001639 -159.5 0.999990 -70.01 0.999990 -70.01 0.001639 -160.4
8.70410000 0.001645 -159.5 0.999990 -70.01 0.999990 -70.01 0.001645 -160.4
8.70420000 0.001650 -159.5 0.999990 -70.01 0.999990 -70.01 0.001650 -160.4
8.70430000 0.001655 -159.5 0.999990 -70.01 0.999990 -70.01 0.001655 -160.4
8.70440000 0.001661 -159.5 0.999990 -70.01 0.999990 -70.01 0.001661 -160.4
8.70450000 0.001666 -159.5 0.999990 -70.01 0.999990 -70.01 0.001666 -160.4
8.70460000 0.001672 -159.5 0.999990 -70.01 0.999990 -70.01 0.001671 -160.4
8.70470000 0.001677 -159.5 0.999990 -70.02 0.999990 -70.02 0.001677 -160.4
8.70480000 0.001682 -159.5 0.999990 -70.02 0.999990 -70.02 0.001682 -160.4
8.70490000 0.001688 -159.5 0.999990 -70.02 0.999990 -70.02 0.001688 -160.4
8.70500000 0.001693 -159.5 0.999990 -70.02 0.999990 -70.02 0.001693 -160.4
8.70510000 0.001699 -159.5 0.999990 -70.02 0.999990 -70.02 0.001699 -160.4
8.70520000 0.001704 -159.5 0.999990 -70.02 0.999990 -70.02 0.001704 -160.4
8.70530000 0.001709 -159.5 0.999990 -70.02 0.999990 -70.02 0.001709 -160.4
8.70540000 0.001715 -159.5 0.999990 -70.02 0.999990 -70.02 0.001715 -160.4
8.70550000 0.001720 -159.5 0.999990 -70.02 0.999990 -70.02 0.001720 -160.4
8.70560000 0.001726 -159.5 0.999990 -70.03 0.999990 -70.03 0.001726 -160.4
8.70570000 0.001731 -159.5 0.999990 -70.03 0.999990 -70.03 0.001731 -160.4
8.70580000 0.001737 -159.5 0.999990 -70.03 0.999990 -70.03 0.001737 -160.4
8.70590000 0.001742 -159.5 0.999990 -70.03 0.999990 -70.03 0.001742 -160.4
8.70600000 0.001748 -159.5 0.999990 -70.03 0.999990 -70.03 0.001747 -160.4
8.70610000 0.001753 -159.5 0.999990 -70.03 0.999990 -70.03 0.001753 -160.4
8.70620000 0.001758 -159.5 0.999990 -70.03 0.999990 -70.03 0.001758 -160.4
8.70630000 0.001764 -159.5 0.999990 -70.03 0.999990 -70.03 0.001764 -160.4
8.70640000 0.001769 -159.5 0.999990 -70.03 0.999990 -70.03 0.001769 -160.4
8.70650000 0.001775 -159.5 0.999990 -70.04 0.999990 -70.04 0.001775 -160.4
8.70660000 0.001780 -159.5 0.999990 -70.04 0.999990 -70.04 0.001780 -160.4
8.70670000 0.001786 -159.5 0.999990 -70.04 0.999990 -70.04 0.001786 -160.4
8.70680000 0.001791 -159.5 0.999990 -70.04 0.999990 -70.04 0.001791 -160.4
8.70690000 0.001797 -159.5 0.999990 -70.04 0.999990 -70.04 0.001797 -160.4
8.70700000 0.001802 -159.5 0.999990 -70.04 0.999990 -70.04 0.001802 -160.4
8.70710000 0.001808 -159.5 0.999990 -70.04 0.999990 -70.04 0.001808 -160.4
8.70720000 0.001813 -159.5 0.999990 -70.04 0.999990 -70.04 0.001813 -160.4
8.70730000 0.001819 -159.5 0.999990 -70.04 0.999990 -70.04 0.001819 -160.4
8.70740000 0.001825 -159.5 0.999990 -70.05 0.999990 -70.05 0.001824 -160.4
8.70750000 0.001830 -159.5 0.999990 -70.05 0.999990 -70.05 0.001830 -160.4
8.70760000 0.001836 -159.5 0.999989 -70.05 0.999989 -70.05 0.001836 -160.4
8.70770000 0.001841 -159.5 0.999989 -70.05 0.999989 -70.05 0.001841 -160.4
8.70780000 0.001847 -159.5 0.999989 -70.05 0.999989 -70.05 0.001847 -160.4
8.70790000 0.001852 -159.5 0.999989 -70.05 0.999989 -70.05 0.001852 -160.4
8.70800000 0.001858 -159.5 0.999989 -70.05 0.999989 -70.05 0.001858 -160.4
8.70810000 0.001863 -159.5 0.999989 -70.05 0.999989 -70.05 0.001863 -160.4
8.70820000 0.001869 -159.5 0.999989 -70.05 0.999989 -70.05 0.001869 -160.4
8.70830000 0.001875 -159.5 0.999989 -70.06 0.999989 -70.06 0.001875 -160.4
8.70840000 0.001880 -159.5 0.999989 -70.06 0.999989 -70.06 0.001880 -160.4
8.70850000 0.001886 -159.5 0.999989 -70.06 0.999989 -70.06 0.001886 -160.4
8.70860000 0.001891 -159.6 0.999989 -70.06 0.999989 -70.06 0.001891 -160.4
8.70870000 0.001897 -159.6 0.999989 -70.06 0.999989 -70.06 0.001897 -160.4
8.70880000 0.001903 -159.6 0.999989 -70.06 0.999989 -70.06 0.001903 -160.4
8.70890000 0.001908 -159.6 0.999989 -70.06 0.999989 -70.06 0.001908 -160.4
8.70900000 0.001914 -159.6 0.999989 -70.06 0.999989 -70.06 0.001914 -160.4
8.70910000 0.001920 -159.6 0.999989 -70.06 0.999989 -70.06 0.001920 -160.4
8.70920000 0.001925 -159.6 0.999989 -70.07 0.999989 -70.07 0.001925 -160.4
8.70930000 0.001931 -159.6 0.999989 -70.07 0.999989 -70.07 0.001931 -160.4
8.70940000 0.001937 -159.6 0.999989 -70.07 0.999989 -70.07 0.001936 -160.4
8.70950000 0.001942 -159.6 0.999989 -70.07 0.999989 -70.07 0.001942 -160.4
8.70960000 0.001948 -159.6 0.999989 -70.07 0.999989 -70.07 0.001948 -160.4
8.70970000 0.001954 -159.6 0.999989 -70.07 0.999989 -70.07 0.001953 -160.4
8.70980000 0.001959 -159.6 0.999989 -70.07 0.999989 -70.07 0.001959 -160.4
8.70990000 0.001965 -159.6 0.999989 -70.07 0.999989 -70.07 0.001965 -160.4
8.71000000 0.001971 -159.6 0.999989 -70.07 0.999989 -70.07 0.001970 -160.4
8.71010000 0.001976 -159.6 0.999989 -70.08 0.999989 -70.08 0.001976 -160.4
8.71020000 0.001982 -159.6 0.999989 -70.08 0.999989 -70.08 0.001982 -160.4
8.71030000 0.001988 -159.6 0.999989 -70.08 0.999989 -70.08 0.001988 -160.4
8.71040000 0.001993 -159.6 0.999989 -70.08 0.999989 -70.08 0.001993 -160.4
8.71050000 0.001999 -159.6 0.999989 -70.08 0.999989 -70.08 0.001999 -160.4
8.71060000 0.002005 -159.6 0.999989 -70.08 0.999989 -70.08 0.002005 -160.4
8.71070000 0.002011 -159.6 0.999989 -70.08 0.999989 -70.08 0.002010 -160.4
8.71080000 0.002016 -159.6 0.999989 -70.08 0.999989 -70.08 0.002016 -160.4
8.71090000 0.002022 -159.6 0.999989 -70.08 0.999989 -70.08 0.002022 -160.4
8.71100000 0.002028 -159.6 0.999989 -70.09 0.999989 -70.09 0.002028 -160.4
8.71110000 0.002034 -159.6 0.999989 -70.09 0.999989 -70.09 0.002033 -160.4
8.71120000 0.002039 -159.6 0.999989 -70.09 0.999989 -70.09 0.002039 -160.4
8.71130000 0.002045 -159.6 0.999989 -70.09 0.999989 -70.09 0.002045 -160.4
8.71140000 0.002051 -159.6 0.999989 -70.09 0.999989 -70.09 0.002051 -160.4
8.71150000 0.002057 -159.6 0.999989 -70.09 0.999989 -70.09 0.002057 -160.4
8.71160000 0.002062 -159.6 0.999989 -70.09 0.999989 -70.09 0.002062 -160.4
8.71170000 0.002068 -159.6 0.999989 -70.09 0.999989 -70.09 0.002068 -160.4
8.71180000 0.002074 -159.6 0.999989 -70.10 0.999989 -70.10 0.002074 -160.4
8.71190000 0.002080 -159.6 0.999989 -70.10 0.999989 -70.10 0.002080 -160.4
8.71200000 0.002086 -159.6 0.999989 -70.10 0.999989 -70.10 0.002085 -160.4
8.71210000 0.002091 -159.6 0.999989 -70.10 0.999989 -70.10 0.002091 -160.4
8.71220000 0.002097 -159.6 0.999989 -70.10 0.999989 -70.10 0.002097 -160.4
8.71230000 0.002103 -159.6 0.999989 -70.10 0.999989 -70.10 0.002103 -160.4
8.71240000 0.002109 -159.6 0.999989 -70.10 0.999989 -70.10 0.002109 -160.4
8.71250000 0.002115 -159.6 0.999989 -70.10 0.999989 -70.10 0.002115 -160.4
8.71260000 0.002121 -159.6 0.999989 -70.10 0.999989 -70.10 0.002120 -160.4
8.71270000 0.002126 -159.6 0.999989 -70.11 0.999989 -70.11 0.002126 -160.4
8.71280000 0.002132 -159.6 0.999989 -70.11 0.999989 -70.11 0.002132 -160.4
8.71290000 0.002138 -159.6 0.999989 -70.11 0.999989 -70.11 0.002138 -160.4
8.71300000 0.002144 -159.6 0.999989 -70.11 0.999989 -70.11 0.002144 -160.4
8.71310000 0.002150 -159.6 0.999989 -70.11 0.999989 -70.11 0.002150 -160.4
8.71320000 0.002156 -159.6 0.999989 -70.11 0.999989 -70.11 0.002156 -160.4
8.71330000 0.002162 -159.6 0.999989 -70.11 0.999989 -70.11 0.002162 -160.4
8.71340000 0.002168 -159.6 0.999989 -70.11 0.999989 -70.11 0.002167 -160.4
8.71350000 0.002173 -159.6 0.999989 -70.11 0.999989 -70.11 0.002173 -160.4
8.71360000 0.002179 -159.6 0.999989 -70.12 0.999989 -70.12 0.002179 -160.4
8.71370000 0.002185 -159.6 0.999989 -70.12 0.999989 -70.12 0.002185 -160.4
8.71380000 0.002191 -159.6 0.999989 -70.12 0.999989 -70.12 0.002191 -160.4
8.71390000 0.002197 -159.6 0.999989 -70.12 0.999989 -70.12 0.002197 -160.4
8.71400000 0.002203 -159.7 0.999989 -70.12 0.999989 -70.12 0.002203 -160.4
8.71410000 0.002209 -159.7 0.999989 -70.12 0.999989 -70.12 0.002209 -160.4
8.71420000 0.002215 -159.7 0.999989 -70.12 0.999989 -70.12 0.002215 -160.4
8.71430000 0.002221 -159.7 0.999989 -70.12 0.999989 -70.12 0.002221 -160.4
8.71440000 0.002227 -159.7 0.999989 -70.12 0.999989 -70.12 0.002227 -160.4
8.71450000 0.002233 -159.7 0.999989 -70.13 0.999989 -70.13 0.002233 -160.4
8.71460000 0.002239 -159.7 0.999989 -70.13 0.999989 -70.13 0.002239 -160.4
8.71470000 0.002245 -159.7 0.999988 -70.13 0.999988 -70.13 0.002245 -160.4
8.71480000 0.002251 -159.7 0.999988 -70.13 0.999988 -70.13 0.002251 -160.4
8.71490000 0.002257 -159.7 0.999988 -70.13 0.999988 -70.13 0.002257 -160.4
8.71500000 0.002263 -159.7 0.999988 -70.13 0.999988 -70.13 0.002263 -160.5
8.71510000 0.002269 -159.7 0.999988 -70.13 0.999988 -70.13 0.002269 -160.5
8.71520000 0.002275 -159.7 0.999988 -70.13 0.999988 -70.13 0.002275 -160.5
8.71530000 0.002281 -159.7 0.999988 -70.13 0.999988 -70.13 0.002281 -160.5
8.71540000 0.002287 -159.7 0.999988 -70.14 0.999988 -70.14 0.002287 -160.5
8.71550000 0.002293 -159.7 0.999988 -70.14 0.999988 -70.14 0.002293 -160.5
8.71560000 0.002299 -159.7 0.999988 -70.14 0.999988 -70.14 0.002299 -160.5
8.71570000 0.002305 -159.7 0.999988 -70.14 0.999988 -70.14 0.002305 -160.5
8.71580000 0.002311 -159.7 0.999988 -70.14 0.999988 -70.14 0.002311 -160.5
8.71590000 0.002317 -159.7 0.999988 -70.14 0.999988 -70.14 0.002317 -160.5
8.71600000 0.002323 -159.7 0.999988 -70.14 0.999988 -70.14 0.002323 -160.5
8.71610000 0.002329 -159.7 0.999988 -70.14 0.999988 -70.14 0.002329 -160.5
8.71620000 0.002335 -159.7 0.999988 -70.15 0.999988 -70.15 0.002335 -160.5
8.71630000 0.002341 -159.7 0.999988 -70.15 0.999988 -70.15 0.002341 -160.5
8.71640000 0.002347 -159.7 0.999988 -70.15 0.999988 -70.15 0.002347 -160.5
8.71650000 0.002353 -159.7 0.999988 -70.15 0.999988 -70.15 0.002353 -160.5
8.71660000 0.002359 -159.7 0.999988 -70.15 0.999988 -70.15 0.002359 -160.5
8.71670000 0.002366 -159.7 0.999988 -70.15 0.999988 -70.15 0.002365 -160.5
8.71680000 0.002372 -159.7 0.999988 -70.15 0.999988 -70.15 0.002372 -160.5
8.71690000 0.002378 -159.7 0.999988 -70.15 0.999988 -70.15 0.002378 -160.5
8.71700000 0.002384 -159.7 0.999988 -70.15 0.999988 -70.15 0.002384 -160.5
8.71710000 0.002390 -159.7 0.999988 -70.16 0.999988 -70.16 0.002390 -160.5
8.71720000 0.002396 -159.7 0.999988 -70.16 0.999988 -70.16 0.002396 -160.5
8.71730000 0.002402 -159.7 0.999988 -70.16 0.999988 -70.16 0.002402 -160.5
8.71740000 0.002408 -159.7 0.999988 -70.16 0.999988 -70.16 0.002408 -160.5
8.71750000 0.002415 -159.7 0.999988 -70.16 0.999988 -70.16 0.002414 -160.5
8.71760000 0.002421 -159.7 0.999988 -70.16 0.999988 -70.16 0.002421 -160.5
8.71770000 0.002427 -159.7 0.999988 -70.16 0.999988 -70.16 0.002427 -160.5
8.71780000 0.002433 -159.7 0.999988 -70.16 0.999988 -70.16 0.002433 -160.5
8.71790000 0.002439 -159.7 0.999988 -70.16 0.999988 -70.16 0.002439 -160.5
8.71800000 0.002445 -159.7 0.999988 -70.17 0.999988 -70.17 0.002445 -160.5
8.71810000 0.002452 -159.7 0.999988 -70.17 0.999988 -70.17 0.002452 -160.5
8.71820000 0.002458 -159.7 0.999988 -70.17 0.999988 -70.17 0.002458 -160.5
8.71830000 0.002464 -159.7 0.999988 -70.17 0.999988 -70.17 0.002464 -160.5
8.71840000 0.002470 -159.7 0.999988 -70.17 0.999988 -70.17 0.002470 -160.5
8.71850000 0.002476 -159.7 0.999988 -70.17 0.999988 -70.17 0.002476 -160.5
8.71860000 0.002483 -159.7 0.999988 -70.17 0.999988 -70.17 0.002483 -160.5
8.71870000 0.002489 -159.7 0.999988 -70.17 0.999988 -70.17 0.002489 -160.5
8.71880000 0.002495 -159.7 0.999988 -70.18 0.999988 -70.18 0.002495 -160.5
8.71890000 0.002501 -159.7 0.999988 -70.18 0.999988 -70.18 0.002501 -160.5
8.71900000 0.002508 -159.7 0.999988 -70.18 0.999988 -70.18 0.002508 -160.5
8.71910000 0.002514 -159.7 0.999988 -70.18 0.999988 -70.18 0.002514 -160.5
8.71920000 0.002520 -159.7 0.999988 -70.18 0.999988 -70.18 0.002520 -160.5
8.71930000 0.002526 -159.7 0.999988 -70.18 0.999988 -70.18 0.002526 -160.5
8.71940000 0.002533 -159.7 0.999988 -70.18 0.999988 -70.18 0.002533 -160.5
8.71950000 0.002539 -159.7 0.999988 -70.18 0.999988 -70.18 0.002539 -160.5
8.71960000 0.002545 -159.7 0.999988 -70.18 0.999988 -70.18 0.002545 -160.5
8.71970000 0.002552 -159.7 0.999988 -70.19 0.999988 -70.19 0.002552 -160.5
8.71980000 0.002558 -159.8 0.999988 -70.19 0.999988 -70.19 0.002558 -160.5
8.71990000 0.002564 -159.8 0.999988 -70.19 0.999988 -70.19 0.002564 -160.5
8.72000000 0.002571 -159.8 0.999988 -70.19 0.999988 -70.19 0.002571 -160.5
8.72010000 0.002577 -159.8 0.999988 -70.19 0.999988 -70.19 0.002577 -160.5
8.72020000 0.002583 -159.8 0.999988 -70.19 0.999988 -70.19 0.002583 -160.5
8.72030000 0.002590 -159.8 0.999988 -70.19 0.999988 -70.19 0.002590 -160.5
8.72040000 0.002596 -159.8 0.999988 -70.19 0.999988 -70.19 0.002596 -160.5
8.72050000 0.002602 -159.8 0.999987 -70.20 0.999987 -70.20 0.002602 -160.5
8.72060000 0.002609 -159.8 0.999987 -70.20 0.999987 -70.20 0.002609 -160.5
8.72070000 0.002615 -159.8 0.999987 -70.20 0.999987 -70.20 0.002615 -160.5
8.72080000 0.002621 -159.8 0.999987 -70.20 0.999987 -70.20 0.002621 -160.5
8.72090000 0.002628 -159.8 0.999987 -70.20 0.999987 -70.20 0.002628 -160.5
8.72100000 0.002634 -159.8 0.999987 -70.20 0.999987 -70.20 0.002634 -160.5
8.72110000 0.002641 -159.8 0.999987 -70.20 0.999987 -70.20 0.002641 -160.5
8.72120000 0.002647 -159.8 0.999987 -70.20 0.999987 -70.20 0.002647 -160.5
8.72130000 0.002653 -159.8 0.999987 -70.20 0.999987 -70.20 0.002653 -160.5
8.72140000 0.002660 -159.8 0.999987 -70.21 0.999987 -70.21 0.002660 -160.5
8.72150000 0.002666 -159.8 0.999987 -70.21 0.999987 -70.21 0.002666 -160.5
8.72160000 0.002673 -159.8 0.999987 -70.21 0.999987 -70.21 0.002673 -160.5
8.72170000 0.002679 -159.8 0.999987 -70.21 0.999987 -70.21 0.002679 -160.5
8.72180000 0.002686 -159.8 0.999987 -70.21 0.999987 -70.21 0.002686 -160.5
8.72190000 0.002692 -159.8 0.999987 -70.21 0.999987 -70.21 0.002692 -160.5
8.72200000 0.002699 -159.8 0.999987 -70.21 0.999987 -70.21 0.002698 -160.5
8.72210000 0.002705 -159.8 0.999987 -70.21 0.999987 -70.21 0.002705 -160.5
8.72220000 0.002711 -159.8 0.999987 -70.21 0.999987 -70.21 0.002711 -160.5
8.72230000 0.002718 -159.8 0.999987 -70.22 0.999987 -70.22 0.002718 -160.5
8.72240000 0.002724 -159.8 0.999987 -70.22 0.999987 -70.22 0.002724 -160.5
8.72250000 0.002731 -159.8 0.999987 -70.22 0.999987 -70.22 0.002731 -160.5
8.72260000 0.002737 -159.8 0.999987 -70.22 0.999987 -70.22 0.002737 -160.5
8.72270000 0.002744 -159.8 0.999987 -70.22 0.999987 -70.22 0.002744 -160.5
8.72280000 0.002751 -159.8 0.999987 -70.22 0.999987 -70.22 0.002750 -160.5
8.72290000 0.002757 -159.8 0.999987 -70.22 0.999987 -70.22 0.002757 -160.5
8.72300000 0.002764 -159.8 0.999987 -70.22 0.999987 -70.22 0.002763 -160.5
8.72310000 0.002770 -159.8 0.999987 -70.23 0.999987 -70.23 0.002770 -160.5
8.72320000 0.002777 -159.8 0.999987 -70.23 0.999987 -70.23 0.002777 -160.5
8.72330000 0.002783 -159.8 0.999987 -70.23 0.999987 -70.23 0.002783 -160.5
8.72340000 0.002790 -159.8 0.999987 -70.23 0.999987 -70.23 0.002790 -160.5
8.72350000 0.002796 -159.8 0.999987 -70.23 0.999987 -70.23 0.002796 -160.5
8.72360000 0.002803 -159.8 0.999987 -70.23 0.999987 -70.23 0.002803 -160.5
8.72370000 0.002810 -159.8 0.999987 -70.23 0.999987 -70.23 0.002809 -160.5
8.72380000 0.002816 -159.8 0.999987 -70.23 0.999987 -70.23 0.002816 -160.5
8.72390000 0.002823 -159.8 0.999987 -70.24 0.999987 -70.24 0.002823 -160.5
8.72400000 0.002829 -159.8 0.999987 -70.24 0.999987 -70.24 0.002829 -160.5
8.72410000 0.002836 -159.8 0.999987 -70.24 0.999987 -70.24 0.002836 -160.5
8.72420000 0.002843 -159.8 0.999987 -70.24 0.999987 -70.24 0.002842 -160.5
8.72430000 0.002849 -159.8 0.999987 -70.24 0.999987 -70.24 0.002849 -160.5
8.72440000 0.002856 -159.8 0.999987 -70.24 0.999987 -70.24 0.002856 -160.5
8.72450000 0.002862 -159.8 0.999987 -70.24 0.999987 -70.24 0.002862 -160.5
8.72460000 0.002869 -159.8 0.999987 -70.24 0.999987 -70.24 0.002869 -160.5
8.72470000 0.002876 -159.8 0.999987 -70.24 0.999987 -70.24 0.002876 -160.5
8.72480000 0.002882 -159.8 0.999987 -70.25 0.999987 -70.25 0.002882 -160.5
8.72490000 0.002889 -159.8 0.999987 -70.25 0.999987 -70.25 0.002889 -160.5
8.72500000 0.002896 -159.8 0.999987 -70.25 0.999987 -70.25 0.002896 -160.5
8.72510000 0.002903 -159.8 0.999987 -70.25 0.999987 -70.25 0.002902 -160.6
8.72520000 0.002909 -159.8 0.999987 -70.25 0.999987 -70.25 0.002909 -160.6
8.72530000 0.002916 -159.8 0.999987 -70.25 0.999987 -70.25 0.002916 -160.6
8.72540000 0.002923 -159.8 0.999987 -70.25 0.999987 -70.25 0.002923 -160.6
8.72550000 0.002929 -159.8 0.999986 -70.25 0.999986 -70.25 0.002929 -160.6
8.72560000 0.002936 -159.8 0.999986 -70.26 0.999986 -70.26 0.002936 -160.6
8.72570000 0.002943 -159.8 0.999986 -70.26 0.999986 -70.26 0.002943 -160.6
8.72580000 0.002950 -159.8 0.999986 -70.26 0.999986 -70.26 0.002949 -160.6
8.72590000 0.002956 -159.9 0.999986 -70.26 0.999986 -70.26 0.002956 -160.6
8.72600000 0.002963 -159.9 0.999986 -70.26 0.999986 -70.26 0.002963 -160.6
8.72610000 0.002970 -159.9 0.999986 -70.26 0.999986 -70.26 0.002970 -160.6
8.72620000 0.002977 -159.9 0.999986 -70.26 0.999986 -70.26 0.002977 -160.6
8.72630000 0.002983 -159.9 0.999986 -70.26 0.999986 -70.26 0.002983 -160.6
8.72640000 0.002990 -159.9 0.999986 -70.26 0.999986 -70.26 0.002990 -160.6
8.72650000 0.002997 -159.9 0.999986 -70.27 0.999986 -70.27 0.002997 -160.6
8.72660000 0.003004 -159.9 0.999986 -70.27 0.999986 -70.27 0.003004 -160.6
8.72670000 0.003011 -159.9 0.999986 -70.27 0.999986 -70.27 0.003011 -160.6
8.72680000 0.003017 -159.9 0.999986 -70.27 0.999986 -70.27 0.003017 -160.6
8.72690000 0.003024 -159.9 0.999986 -70.27 0.999986 -70.27 0.003024 -160.6
8.72700000 0.003031 -159.9 0.999986 -70.27 0.999986 -70.27 0.003031 -160.6
8.72710000 0.003038 -159.9 0.999986 -70.27 0.999986 -70.27 0.003038 -160.6
8.72720000 0.003045 -159.9 0.999986 -70.27 0.999986 -70.27 0.003045 -160.6
8.72730000 0.003052 -159.9 0.999986 -70.28 0.999986 -70.28 0.003052 -160.6
8.72740000 0.003059 -159.9 0.999986 -70.28 0.999986 -70.28 0.003058 -160.6
8.72750000 0.003065 -159.9 0.999986 -70.28 0.999986 -70.28 0.003065 -160.6
8.72760000 0.003072 -159.9 0.999986 -70.28 0.999986 -70.28 0.003072 -160.6
8.72770000 0.003079 -159.9 0.999986 -70.28 0.999986 -70.28 0.003079 -160.6
8.72780000 0.003086 -159.9 0.999986 -70.28 0.999986 -70.28 0.003086 -160.6
8.72790000 0.003093 -159.9 0.999986 -70.28 0.999986 -70.28 0.003093 -160.6
8.72800000 0.003100 -159.9 0.999986 -70.28 0.999986 -70.28 0.003100 -160.6
8.72810000 0.003107 -159.9 0.999986 -70.29 0.999986 -70.29 0.003107 -160.6
8.72820000 0.003114 -159.9 0.999986 -70.29 0.999986 -70.29 0.003114 -160.6
8.72830000 0.003121 -159.9 0.999986 -70.29 0.999986 -70.29 0.003121 -160.6
8.72840000 0.003128 -159.9 0.999986 -70.29 0.999986 -70.29 0.003128 -160.6
8.72850000 0.003135 -159.9 0.999986 -70.29 0.999986 -70.29 0.003134 -160.6
8.72860000 0.003142 -159.9 0.999986 -70.29 0.999986 -70.29 0.003141 -160.6
8.72870000 0.003149 -159.9 0.999986 -70.29 0.999986 -70.29 0.003148 -160.6
8.72880000 0.003156 -159.9 0.999986 -70.29 0.999986 -70.29 0.003155 -160.6
8.72890000 0.003163 -159.9 0.999986 -70.29 0.999986 -70.29 0.003162 -160.6
8.72900000 0.003169 -159.9 0.999986 -70.30 0.999986 -70.30 0.003169 -160.6
8.72910000 0.003176 -159.9 0.999986 -70.30 0.999986 -70.30 0.003176 -160.6
8.72920000 0.003184 -159.9 0.999986 -70.30 0.999986 -70.30 0.003183 -160.6
8.72930000 0.003191 -159.9 0.999986 -70.30 0.999986 -70.30 0.003190 -160.6
8.72940000 0.003198 -159.9 0.999986 -70.30 0.999986 -70.30 0.003197 -160.6
8.72950000 0.003205 -159.9 0.999986 -70.30 0.999986 -70.30 0.003204 -160.6
8.72960000 0.003212 -159.9 0.999986 -70.30 0.999986 -70.30 0.003212 -160.6
8.72970000 0.003219 -159.9 0.999986 -70.30 0.999986 -70.30 0.003219 -160.6
8.72980000 0.003226 -159.9 0.999985 -70.31 0.999985 -70.31 0.003226 -160.6
8.72990000 0.003233 -159.9 0.999985 -70.31 0.999985 -70.31 0.003233 -160.6
8.73000000 0.003240 -159.9 0.999985 -70.31 0.999985 -70.31 0.003240 -160.6
8.73010000 0.003247 -159.9 0.999985 -70.31 0.999985 -70.31 0.003247 -160.6
8.73020000 0.003254 -159.9 0.999985 -70.31 0.999985 -70.31 0.003254 -160.6
8.73030000 0.003261 -159.9 0.999985 -70.31 0.999985 -70.31 0.003261 -160.6
8.73040000 0.003268 -159.9 0.999985 -70.31 0.999985 -70.31 0.003268 -160.6
8.73050000 0.003275 -159.9 0.999985 -70.31 0.999985 -70.31 0.003275 -160.6
8.73060000 0.003283 -159.9 0.999985 -70.32 0.999985 -70.32 0.003282 -160.6
8.73070000 0.003290 -159.9 0.999985 -70.32 0.999985 -70.32 0.003290 -160.6
8.73080000 0.003297 -159.9 0.999985 -70.32 0.999985 -70.32 0.003297 -160.6
8.73090000 0.003304 -159.9 0.999985 -70.32 0.999985 -70.32 0.003304 -160.6
8.73100000 0.003311 -159.9 0.999985 -70.32 0.999985 -70.32 0.003311 -160.6
8.73110000 0.003318 -159.9 0.999985 -70.32 0.999985 -70.32 0.003318 -160.6
8.73120000 0.003325 -159.9 0.999985 -70.32 0.999985 -70.32 0.003325 -160.6
8.73130000 0.003333 -159.9 0.999985 -70.32 0.999985 -70.32 0.003333 -160.6
8.73140000 0.003340 -159.9 0.999985 -70.32 0.999985 -70.32 0.003340 -160.6
8.73150000 0.003347 -159.9 0.999985 -70.33 0.999985 -70.33 0.003347 -160.6
8.73160000 0.003354 -159.9 0.999985 -70.33 0.999985 -70.33 0.003354 -160.6
8.73170000 0.003361 -159.9 0.999985 -70.33 0.999985 -70.33 0.003361 -160.6
8.73180000 0.003369 -159.9 0.999985 -70.33 0.999985 -70.33 0.003369 -160.6
8.73190000 0.003376 -159.9 0.999985 -70.33 0.999985 -70.33 0.003376 -160.6
8.73200000 0.003383 -159.9 0.999985 -70.33 0.999985 -70.33 0.003383 -160.6
8.73210000 0.003390 -159.9 0.999985 -70.33 0.999985 -70.33 0.003390 -160.6
8.73220000 0.003398 -159.9 0.999985 -70.33 0.999985 -70.33 0.003398 -160.6
8.73230000 0.003405 -160.0 0.999985 -70.34 0.999985 -70.34 0.003405 -160.6
8.73240000 0.003412 -160.0 0.999985 -70.34 0.999985 -70.34 0.003412 -160.6
8.73250000 0.003420 -160.0 0.999985 -70.34 0.999985 -70.34 0.003419 -160.6
8.73260000 0.003427 -160.0 0.999985 -70.34 0.999985 -70.34 0.003427 -160.6
8.73270000 0.003434 -160.0 0.999985 -70.34 0.999985 -70.34 0.003434 -160.6
8.73280000 0.003441 -160.0 0.999985 -70.34 0.999985 -70.34 0.003441 -160.6
8.73290000 0.003449 -160.0 0.999985 -70.34 0.999985 -70.34 0.003449 -160.6
8.73300000 0.003456 -160.0 0.999985 -70.34 0.999985 -70.34 0.003456 -160.6
8.73310000 0.003463 -160.0 0.999985 -70.35 0.999985 -70.35 0.003463 -160.6
8.73320000 0.003471 -160.0 0.999985 -70.35 0.999985 -70.35 0.003471 -160.6
8.73330000 0.003478 -160.0 0.999985 -70.35 0.999985 -70.35 0.003478 -160.6
8.73340000 0.003485 -160.0 0.999985 -70.35 0.999985 -70.35 0.003485 -160.6
8.73350000 0.003493 -160.0 0.999984 -70.35 0.999984 -70.35 0.003493 -160.6
8.73360000 0.003500 -160.0 0.999984 -70.35 0.999984 -70.35 0.003500 -160.6
8.73370000 0.003508 -160.0 0.999984 -70.35 0.999984 -70.35 0.003507 -160.6
8.73380000 0.003515 -160.0 0.999984 -70.35 0.999984 -70.35 0.003515 -160.6
8.73390000 0.003522 -160.0 0.999984 -70.36 0.999984 -70.36 0.003522 -160.6
8.73400000 0.003530 -160.0 0.999984 -70.36 0.999984 -70.36 0.003530 -160.6
8.73410000 0.003537 -160.0 0.999984 -70.36 0.999984 -70.36 0.003537 -160.6
8.73420000 0.003545 -160.0 0.999984 -70.36 0.999984 -70.36 0.003545 -160.6
8.73430000 0.003552 -160.0 0.999984 -70.36 0.999984 -70.36 0.003552 -160.7
8.73440000 0.003560 -160.0 0.999984 -70.36 0.999984 -70.36 0.003559 -160.7
8.73450000 0.003567 -160.0 0.999984 -70.36 0.999984 -70.36 0.003567 -160.7
8.73460000 0.003575 -160.0 0.999984 -70.36 0.999984 -70.36 0.003574 -160.7
8.73470000 0.003582 -160.0 0.999984 -70.37 0.999984 -70.37 0.003582 -160.7
8.73480000 0.003589 -160.0 0.999984 -70.37 0.999984 -70.37 0.003589 -160.7
8.73490000 0.003597 -160.0 0.999984 -70.37 0.999984 -70.37 0.003597 -160.7
8.73500000 0.003604 -160.0 0.999984 -70.37 0.999984 -70.37 0.003604 -160.7
8.73510000 0.003612 -160.0 0.999984 -70.37 0.999984 -70.37 0.003612 -160.7
8.73520000 0.003620 -160.0 0.999984 -70.37 0.999984 -70.37 0.003619 -160.7
8.73530000 0.003627 -160.0 0.999984 -70.37 0.999984 -70.37 0.003627 -160.7
8.73540000 0.003635 -160.0 0.999984 -70.37 0.999984 -70.37 0.003634 -160.7
8.73550000 0.003642 -160.0 0.999984 -70.38 0.999984 -70.38 0.003642 -160.7
8.73560000 0.003650 -160.0 0.999984 -70.38 0.999984 -70.38 0.003650 -160.7
8.73570000 0.003657 -160.0 0.999984 -70.38 0.999984 -70.38 0.003657 -160.7
8.73580000 0.003665 -160.0 0.999984 -70.38 0.999984 -70.38 0.003665 -160.7
8.73590000 0.003672 -160.0 0.999984 -70.38 0.999984 -70.38 0.003672 -160.7
8.73600000 0.003680 -160.0 0.999984 -70.38 0.999984 -70.38 0.003680 -160.7
8.73610000 0.003688 -160.0 0.999984 -70.38 0.999984 -70.38 0.003688 -160.7
8.73620000 0.003695 -160.0 0.999984 -70.38 0.999984 -70.38 0.003695 -160.7
8.73630000 0.003703 -160.0 0.999984 -70.38 0.999984 -70.38 0.003703 -160.7
8.73640000 0.003711 -160.0 0.999984 -70.39 0.999984 -70.39 0.003710 -160.7
8.73650000 0.003718 -160.0 0.999984 -70.39 0.999984 -70.39 0.003718 -160.7
8.73660000 0.003726 -160.0 0.999984 -70.39 0.999984 -70.39 0.003726 -160.7
8.73670000 0.003733 -160.0 0.999984 -70.39 0.999984 -70.39 0.003733 -160.7
8.73680000 0.003741 -160.0 0.999984 -70.39 0.999984 -70.39 0.003741 -160.7
8.73690000 0.003749 -160.0 0.999983 -70.39 0.999983 -70.39 0.003749 -160.7
8.73700000 0.003757 -160.0 0.999983 -70.39 0.999983 -70.39 0.003756 -160.7
8.73710000 0.003764 -160.0 0.999983 -70.39 0.999983 -70.39 0.003764 -160.7
8.73720000 0.003772 -160.0 0.999983 -70.40 0.999983 -70.40 0.003772 -160.7
8.73730000 0.003780 -160.0 0.999983 -70.40 0.999983 -70.40 0.003780 -160.7
8.73740000 0.003787 -160.0 0.999983 -70.40 0.999983 -70.40 0.003787 -160.7
8.73750000 0.003795 -160.0 0.999983 -70.40 0.999983 -70.40 0.003795 -160.7
8.73760000 0.003803 -160.0 0.999983 -70.40 0.999983 -70.40 0.003803 -160.7
8.73770000 0.003811 -160.0 0.999983 -70.40 0.999983 -70.40 0.003810 -160.7
8.73780000 0.003818 -160.0 0.999983 -70.40 0.999983 -70.40 0.003818 -160.7
8.73790000 0.003826 -160.0 0.999983 -70.40 0.999983 -70.40 0.003826 -160.7
8.73800000 0.003834 -160.0 0.999983 -70.41 0.999983 -70.41 0.003834 -160.7
8.73810000 0.003842 -160.0 0.999983 -70.41 0.999983 -70.41 0.003842 -160.7
8.73820000 0.003850 -160.0 0.999983 -70.41 0.999983 -70.41 0.003849 -160.7
8.73830000 0.003857 -160.0 0.999983 -70.41 0.999983 -70.41 0.003857 -160.7
8.73840000 0.003865 -160.0 0.999983 -70.41 0.999983 -70.41 0.003865 -160.7
8.73850000 0.003873 -160.0 0.999983 -70.41 0.999983 -70.41 0.003873 -160.7
8.73860000 0.003881 -160.0 0.999983 -70.41 0.999983 -70.41 0.003881 -160.7
8.73870000 0.003889 -160.1 0.999983 -70.41 0.999983 -70.41 0.003889 -160.7
8.73880000 0.003897 -160.1 0.999983 -70.42 0.999983 -70.42 0.003896 -160.7
8.73890000 0.003904 -160.1 0.999983 -70.42 0.999983 -70.42 0.003904 -160.7
8.73900000 0.003912 -160.1 0.999983 -70.42 0.999983 -70.42 0.003912 -160.7
8.73910000 0.003920 -160.1 0.999983 -70.42 0.999983 -70.42 0.003920 -160.7
8.73920000 0.003928 -160.1 0.999983 -70.42 0.999983 -70.42 0.003928 -160.7