! Sonnet Data File
! From: emgraph Version : 16.52
! From Project: transmon_trial2
! Data is De-embedded 
! Data File Written: 10/20/2017 10:41:09
!< HDATE 10/20/2017 09:51:02
!< MDATE 10/20/2017 09:51:02
!< PARAMS
!< Lj = 15.24
!< Gap = 6.0
!< Width = 30.0
!< Airgap = 18.0
!< Pwidth = 2000.0
!< END PARAMS
# GHZ S MA R 41.17000
8.70000000 0.021211 -160.9 0.999763 -70.92 0.999763 -70.92 0.021211 -160.9
!< P1 F=8.7 Eeff=(4.89554446 -6.0516e-5) Z0=(41.1855282 -1.5157e-4) R=0.0 C=0.0 
!< P2 F=8.7 Eeff=(4.89554446 -6.0516e-5) Z0=(41.1855282 -1.5157e-4) R=0.0 C=0.0 
8.70010000 0.021237 -160.9 0.999763 -70.92 0.999763 -70.92 0.021237 -160.9
8.70020000 0.021263 -160.9 0.999762 -70.92 0.999762 -70.92 0.021263 -160.9
8.70030000 0.021289 -160.9 0.999761 -70.92 0.999761 -70.92 0.021289 -161.0
8.70040000 0.021315 -160.9 0.999761 -70.93 0.999761 -70.93 0.021315 -161.0
8.70050000 0.021341 -160.9 0.999760 -70.93 0.999760 -70.93 0.021341 -161.0
8.70060000 0.021367 -160.9 0.999760 -70.93 0.999760 -70.93 0.021367 -161.0
8.70070000 0.021393 -160.9 0.999759 -70.93 0.999759 -70.93 0.021393 -161.0
8.70080000 0.021419 -160.9 0.999759 -70.93 0.999759 -70.93 0.021419 -161.0
8.70090000 0.021446 -160.9 0.999758 -70.94 0.999758 -70.94 0.021446 -161.0
8.70100000 0.021472 -160.9 0.999757 -70.94 0.999757 -70.94 0.021472 -161.0
8.70110000 0.021498 -160.9 0.999757 -70.94 0.999757 -70.94 0.021498 -161.0
8.70120000 0.021525 -160.9 0.999756 -70.94 0.999756 -70.94 0.021525 -161.0
8.70130000 0.021551 -160.9 0.999756 -70.95 0.999756 -70.95 0.021551 -161.0
8.70140000 0.021578 -160.9 0.999755 -70.95 0.999755 -70.95 0.021578 -161.0
8.70150000 0.021604 -160.9 0.999755 -70.95 0.999755 -70.95 0.021604 -161.0
8.70160000 0.021631 -160.9 0.999754 -70.95 0.999754 -70.95 0.021631 -161.0
8.70170000 0.021658 -160.9 0.999753 -70.96 0.999753 -70.96 0.021658 -161.0
8.70180000 0.021684 -160.9 0.999753 -70.96 0.999753 -70.96 0.021684 -161.0
8.70190000 0.021711 -160.9 0.999752 -70.96 0.999752 -70.96 0.021711 -161.0
8.70200000 0.021738 -160.9 0.999752 -70.96 0.999752 -70.96 0.021738 -161.0
8.70210000 0.021765 -160.9 0.999751 -70.96 0.999751 -70.96 0.021765 -161.0
8.70220000 0.021792 -160.9 0.999750 -70.97 0.999750 -70.97 0.021792 -161.0
8.70230000 0.021819 -160.9 0.999750 -70.97 0.999750 -70.97 0.021819 -161.0
8.70240000 0.021846 -160.9 0.999749 -70.97 0.999749 -70.97 0.021846 -161.0
8.70250000 0.021873 -160.9 0.999749 -70.97 0.999749 -70.97 0.021873 -161.0
8.70260000 0.021900 -160.9 0.999748 -70.98 0.999748 -70.98 0.021900 -161.0
8.70270000 0.021927 -160.9 0.999747 -70.98 0.999747 -70.98 0.021927 -161.0
8.70280000 0.021955 -161.0 0.999747 -70.98 0.999747 -70.98 0.021955 -161.0
8.70290000 0.021982 -161.0 0.999746 -70.98 0.999746 -70.98 0.021982 -161.0
8.70300000 0.022009 -161.0 0.999746 -70.99 0.999746 -70.99 0.022009 -161.0
8.70310000 0.022037 -161.0 0.999745 -70.99 0.999745 -70.99 0.022037 -161.0
8.70320000 0.022064 -161.0 0.999744 -70.99 0.999744 -70.99 0.022064 -161.0
8.70330000 0.022092 -161.0 0.999744 -70.99 0.999744 -70.99 0.022092 -161.0
8.70340000 0.022119 -161.0 0.999743 -71.00 0.999743 -71.00 0.022119 -161.0
8.70350000 0.022147 -161.0 0.999743 -71.00 0.999743 -71.00 0.022147 -161.0
8.70360000 0.022175 -161.0 0.999742 -71.00 0.999742 -71.00 0.022175 -161.0
8.70370000 0.022202 -161.0 0.999741 -71.00 0.999741 -71.00 0.022202 -161.0
8.70380000 0.022230 -161.0 0.999741 -71.01 0.999741 -71.01 0.022230 -161.0
8.70390000 0.022258 -161.0 0.999740 -71.01 0.999740 -71.01 0.022258 -161.0
8.70400000 0.022286 -161.0 0.999739 -71.01 0.999739 -71.01 0.022286 -161.0
8.70410000 0.022314 -161.0 0.999739 -71.01 0.999739 -71.01 0.022314 -161.0
8.70420000 0.022342 -161.0 0.999738 -71.01 0.999738 -71.01 0.022342 -161.1
8.70430000 0.022370 -161.0 0.999737 -71.02 0.999737 -71.02 0.022370 -161.1
8.70440000 0.022398 -161.0 0.999737 -71.02 0.999737 -71.02 0.022398 -161.1
8.70450000 0.022426 -161.0 0.999736 -71.02 0.999736 -71.02 0.022426 -161.1
8.70460000 0.022455 -161.0 0.999736 -71.02 0.999736 -71.02 0.022454 -161.1
8.70470000 0.022483 -161.0 0.999735 -71.03 0.999735 -71.03 0.022483 -161.1
8.70480000 0.022511 -161.0 0.999734 -71.03 0.999734 -71.03 0.022511 -161.1
8.70490000 0.022540 -161.0 0.999734 -71.03 0.999734 -71.03 0.022540 -161.1
8.70500000 0.022568 -161.0 0.999733 -71.03 0.999733 -71.03 0.022568 -161.1
8.70510000 0.022597 -161.0 0.999732 -71.04 0.999732 -71.04 0.022597 -161.1
8.70520000 0.022625 -161.0 0.999732 -71.04 0.999732 -71.04 0.022625 -161.1
8.70530000 0.022654 -161.0 0.999731 -71.04 0.999731 -71.04 0.022654 -161.1
8.70540000 0.022682 -161.0 0.999730 -71.04 0.999730 -71.04 0.022682 -161.1
8.70550000 0.022711 -161.0 0.999730 -71.05 0.999730 -71.05 0.022711 -161.1
8.70560000 0.022740 -161.0 0.999729 -71.05 0.999729 -71.05 0.022740 -161.1
8.70570000 0.022769 -161.0 0.999728 -71.05 0.999728 -71.05 0.022769 -161.1
8.70580000 0.022798 -161.0 0.999728 -71.05 0.999728 -71.05 0.022798 -161.1
8.70590000 0.022827 -161.0 0.999727 -71.06 0.999727 -71.06 0.022827 -161.1
8.70600000 0.022856 -161.0 0.999726 -71.06 0.999726 -71.06 0.022856 -161.1
8.70610000 0.022885 -161.0 0.999726 -71.06 0.999726 -71.06 0.022885 -161.1
8.70620000 0.022914 -161.0 0.999725 -71.06 0.999725 -71.06 0.022914 -161.1
8.70630000 0.022943 -161.0 0.999724 -71.07 0.999724 -71.07 0.022943 -161.1
8.70640000 0.022973 -161.0 0.999724 -71.07 0.999724 -71.07 0.022972 -161.1
8.70650000 0.023002 -161.0 0.999723 -71.07 0.999723 -71.07 0.023002 -161.1
8.70660000 0.023031 -161.0 0.999722 -71.07 0.999722 -71.07 0.023031 -161.1
8.70670000 0.023061 -161.0 0.999722 -71.08 0.999722 -71.08 0.023061 -161.1
8.70680000 0.023090 -161.0 0.999721 -71.08 0.999721 -71.08 0.023090 -161.1
8.70690000 0.023120 -161.0 0.999720 -71.08 0.999720 -71.08 0.023120 -161.1
8.70700000 0.023149 -161.0 0.999719 -71.08 0.999719 -71.08 0.023149 -161.1
8.70710000 0.023179 -161.0 0.999719 -71.09 0.999719 -71.09 0.023179 -161.1
8.70720000 0.023209 -161.1 0.999718 -71.09 0.999718 -71.09 0.023209 -161.1
8.70730000 0.023239 -161.1 0.999717 -71.09 0.999717 -71.09 0.023239 -161.1
8.70740000 0.023269 -161.1 0.999717 -71.09 0.999717 -71.09 0.023268 -161.1
8.70750000 0.023298 -161.1 0.999716 -71.10 0.999716 -71.10 0.023298 -161.1
8.70760000 0.023328 -161.1 0.999715 -71.10 0.999715 -71.10 0.023328 -161.1
8.70770000 0.023359 -161.1 0.999714 -71.10 0.999714 -71.10 0.023358 -161.1
8.70780000 0.023389 -161.1 0.999714 -71.10 0.999714 -71.10 0.023389 -161.1
8.70790000 0.023419 -161.1 0.999713 -71.11 0.999713 -71.11 0.023419 -161.2
8.70800000 0.023449 -161.1 0.999712 -71.11 0.999712 -71.11 0.023449 -161.2
8.70810000 0.023479 -161.1 0.999712 -71.11 0.999712 -71.11 0.023479 -161.2
8.70820000 0.023510 -161.1 0.999711 -71.11 0.999711 -71.11 0.023510 -161.2
8.70830000 0.023540 -161.1 0.999710 -71.12 0.999710 -71.12 0.023540 -161.2
8.70840000 0.023571 -161.1 0.999709 -71.12 0.999709 -71.12 0.023571 -161.2
8.70850000 0.023601 -161.1 0.999709 -71.12 0.999709 -71.12 0.023601 -161.2
8.70860000 0.023632 -161.1 0.999708 -71.12 0.999708 -71.12 0.023632 -161.2
8.70870000 0.023663 -161.1 0.999707 -71.13 0.999707 -71.13 0.023662 -161.2
8.70880000 0.023693 -161.1 0.999706 -71.13 0.999706 -71.13 0.023693 -161.2
8.70890000 0.023724 -161.1 0.999706 -71.13 0.999706 -71.13 0.023724 -161.2
8.70900000 0.023755 -161.1 0.999705 -71.13 0.999705 -71.13 0.023755 -161.2
8.70910000 0.023786 -161.1 0.999704 -71.14 0.999704 -71.14 0.023786 -161.2
8.70920000 0.023817 -161.1 0.999704 -71.14 0.999704 -71.14 0.023817 -161.2
8.70930000 0.023848 -161.1 0.999703 -71.14 0.999703 -71.14 0.023848 -161.2
8.70940000 0.023879 -161.1 0.999702 -71.14 0.999702 -71.14 0.023879 -161.2
8.70950000 0.023910 -161.1 0.999701 -71.15 0.999701 -71.15 0.023910 -161.2
8.70960000 0.023942 -161.1 0.999700 -71.15 0.999700 -71.15 0.023941 -161.2
8.70970000 0.023973 -161.1 0.999700 -71.15 0.999700 -71.15 0.023973 -161.2
8.70980000 0.024004 -161.1 0.999699 -71.15 0.999699 -71.15 0.024004 -161.2
8.70990000 0.024036 -161.1 0.999698 -71.16 0.999698 -71.16 0.024036 -161.2
8.71000000 0.024067 -161.1 0.999697 -71.16 0.999697 -71.16 0.024067 -161.2
8.71010000 0.024099 -161.1 0.999697 -71.16 0.999697 -71.16 0.024099 -161.2
8.71020000 0.024130 -161.1 0.999696 -71.17 0.999696 -71.17 0.024130 -161.2
8.71030000 0.024162 -161.1 0.999695 -71.17 0.999695 -71.17 0.024162 -161.2
8.71040000 0.024194 -161.1 0.999694 -71.17 0.999694 -71.17 0.024194 -161.2
8.71050000 0.024226 -161.1 0.999694 -71.17 0.999694 -71.17 0.024226 -161.2
8.71060000 0.024258 -161.1 0.999693 -71.18 0.999693 -71.18 0.024258 -161.2
8.71070000 0.024290 -161.1 0.999692 -71.18 0.999692 -71.18 0.024290 -161.2
8.71080000 0.024322 -161.1 0.999691 -71.18 0.999691 -71.18 0.024322 -161.2
8.71090000 0.024354 -161.1 0.999690 -71.18 0.999690 -71.18 0.024354 -161.2
8.71100000 0.024386 -161.1 0.999690 -71.19 0.999690 -71.19 0.024386 -161.2
8.71110000 0.024418 -161.1 0.999689 -71.19 0.999689 -71.19 0.024418 -161.2
8.71120000 0.024451 -161.1 0.999688 -71.19 0.999688 -71.19 0.024451 -161.2
8.71130000 0.024483 -161.2 0.999687 -71.19 0.999687 -71.19 0.024483 -161.2
8.71140000 0.024516 -161.2 0.999686 -71.20 0.999686 -71.20 0.024515 -161.2
8.71150000 0.024548 -161.2 0.999686 -71.20 0.999686 -71.20 0.024548 -161.3
8.71160000 0.024581 -161.2 0.999685 -71.20 0.999685 -71.20 0.024581 -161.3
8.71170000 0.024613 -161.2 0.999684 -71.21 0.999684 -71.21 0.024613 -161.3
8.71180000 0.024646 -161.2 0.999683 -71.21 0.999683 -71.21 0.024646 -161.3
8.71190000 0.024679 -161.2 0.999682 -71.21 0.999682 -71.21 0.024679 -161.3
8.71200000 0.024712 -161.2 0.999681 -71.21 0.999681 -71.21 0.024712 -161.3
8.71210000 0.024745 -161.2 0.999681 -71.22 0.999681 -71.22 0.024745 -161.3
8.71220000 0.024778 -161.2 0.999680 -71.22 0.999680 -71.22 0.024778 -161.3
8.71230000 0.024811 -161.2 0.999679 -71.22 0.999679 -71.22 0.024811 -161.3
8.71240000 0.024844 -161.2 0.999678 -71.22 0.999678 -71.22 0.024844 -161.3
8.71250000 0.024877 -161.2 0.999677 -71.23 0.999677 -71.23 0.024877 -161.3
8.71260000 0.024911 -161.2 0.999676 -71.23 0.999676 -71.23 0.024911 -161.3
8.71270000 0.024944 -161.2 0.999676 -71.23 0.999676 -71.23 0.024944 -161.3
8.71280000 0.024977 -161.2 0.999675 -71.23 0.999675 -71.23 0.024977 -161.3
8.71290000 0.025011 -161.2 0.999674 -71.24 0.999674 -71.24 0.025011 -161.3
8.71300000 0.025045 -161.2 0.999673 -71.24 0.999673 -71.24 0.025045 -161.3
8.71310000 0.025078 -161.2 0.999672 -71.24 0.999672 -71.24 0.025078 -161.3
8.71320000 0.025112 -161.2 0.999671 -71.25 0.999671 -71.25 0.025112 -161.3
8.71330000 0.025146 -161.2 0.999670 -71.25 0.999670 -71.25 0.025146 -161.3
8.71340000 0.025180 -161.2 0.999670 -71.25 0.999670 -71.25 0.025180 -161.3
8.71350000 0.025214 -161.2 0.999669 -71.25 0.999669 -71.25 0.025214 -161.3
8.71360000 0.025248 -161.2 0.999668 -71.26 0.999668 -71.26 0.025248 -161.3
8.71370000 0.025282 -161.2 0.999667 -71.26 0.999667 -71.26 0.025282 -161.3
8.71380000 0.025316 -161.2 0.999666 -71.26 0.999666 -71.26 0.025316 -161.3
8.71390000 0.025350 -161.2 0.999665 -71.26 0.999665 -71.26 0.025350 -161.3
8.71400000 0.025385 -161.2 0.999664 -71.27 0.999664 -71.27 0.025385 -161.3
8.71410000 0.025419 -161.2 0.999663 -71.27 0.999663 -71.27 0.025419 -161.3
8.71420000 0.025454 -161.2 0.999663 -71.27 0.999663 -71.27 0.025454 -161.3
8.71430000 0.025488 -161.2 0.999662 -71.28 0.999662 -71.28 0.025488 -161.3
8.71440000 0.025523 -161.2 0.999661 -71.28 0.999661 -71.28 0.025523 -161.3
8.71450000 0.025558 -161.2 0.999660 -71.28 0.999660 -71.28 0.025557 -161.3
8.71460000 0.025592 -161.2 0.999659 -71.28 0.999659 -71.28 0.025592 -161.3
8.71470000 0.025627 -161.2 0.999658 -71.29 0.999658 -71.29 0.025627 -161.3
8.71480000 0.025662 -161.2 0.999657 -71.29 0.999657 -71.29 0.025662 -161.3
8.71490000 0.025697 -161.2 0.999656 -71.29 0.999656 -71.29 0.025697 -161.4
8.71500000 0.025732 -161.2 0.999655 -71.30 0.999655 -71.30 0.025732 -161.4
8.71510000 0.025767 -161.2 0.999654 -71.30 0.999654 -71.30 0.025767 -161.4
8.71520000 0.025803 -161.3 0.999653 -71.30 0.999653 -71.30 0.025803 -161.4
8.71530000 0.025838 -161.3 0.999653 -71.30 0.999653 -71.30 0.025838 -161.4
8.71540000 0.025873 -161.3 0.999652 -71.31 0.999652 -71.31 0.025873 -161.4
8.71550000 0.025909 -161.3 0.999651 -71.31 0.999651 -71.31 0.025909 -161.4
8.71560000 0.025945 -161.3 0.999650 -71.31 0.999650 -71.31 0.025944 -161.4
8.71570000 0.025980 -161.3 0.999649 -71.32 0.999649 -71.32 0.025980 -161.4
8.71580000 0.026016 -161.3 0.999648 -71.32 0.999648 -71.32 0.026016 -161.4
8.71590000 0.026052 -161.3 0.999647 -71.32 0.999647 -71.32 0.026052 -161.4
8.71600000 0.026088 -161.3 0.999646 -71.32 0.999646 -71.32 0.026088 -161.4
8.71610000 0.026124 -161.3 0.999645 -71.33 0.999645 -71.33 0.026124 -161.4
8.71620000 0.026160 -161.3 0.999644 -71.33 0.999644 -71.33 0.026160 -161.4
8.71630000 0.026196 -161.3 0.999643 -71.33 0.999643 -71.33 0.026196 -161.4
8.71640000 0.026232 -161.3 0.999642 -71.34 0.999642 -71.34 0.026232 -161.4
8.71650000 0.026268 -161.3 0.999641 -71.34 0.999641 -71.34 0.026268 -161.4
8.71660000 0.026305 -161.3 0.999640 -71.34 0.999640 -71.34 0.026305 -161.4
8.71670000 0.026341 -161.3 0.999639 -71.34 0.999639 -71.34 0.026341 -161.4
8.71680000 0.026378 -161.3 0.999638 -71.35 0.999638 -71.35 0.026378 -161.4
8.71690000 0.026414 -161.3 0.999637 -71.35 0.999637 -71.35 0.026414 -161.4
8.71700000 0.026451 -161.3 0.999636 -71.35 0.999636 -71.35 0.026451 -161.4
8.71710000 0.026488 -161.3 0.999635 -71.36 0.999635 -71.36 0.026488 -161.4
8.71720000 0.026525 -161.3 0.999634 -71.36 0.999634 -71.36 0.026525 -161.4
8.71730000 0.026562 -161.3 0.999633 -71.36 0.999633 -71.36 0.026562 -161.4
8.71740000 0.026599 -161.3 0.999632 -71.36 0.999632 -71.36 0.026599 -161.4
8.71750000 0.026636 -161.3 0.999631 -71.37 0.999631 -71.37 0.026636 -161.4
8.71760000 0.026673 -161.3 0.999630 -71.37 0.999630 -71.37 0.026673 -161.4
8.71770000 0.026710 -161.3 0.999629 -71.37 0.999629 -71.37 0.026710 -161.4
8.71780000 0.026748 -161.3 0.999628 -71.38 0.999628 -71.38 0.026748 -161.4
8.71790000 0.026785 -161.3 0.999627 -71.38 0.999627 -71.38 0.026785 -161.4
8.71800000 0.026823 -161.3 0.999626 -71.38 0.999626 -71.38 0.026823 -161.4
8.71810000 0.026861 -161.3 0.999625 -71.39 0.999625 -71.39 0.026860 -161.4
8.71820000 0.026898 -161.3 0.999624 -71.39 0.999624 -71.39 0.026898 -161.5
8.71830000 0.026936 -161.3 0.999623 -71.39 0.999623 -71.39 0.026936 -161.5
8.71840000 0.026974 -161.3 0.999622 -71.39 0.999622 -71.39 0.026974 -161.5
8.71850000 0.027012 -161.3 0.999621 -71.40 0.999621 -71.40 0.027012 -161.5
8.71860000 0.027050 -161.3 0.999620 -71.40 0.999620 -71.40 0.027050 -161.5
8.71870000 0.027088 -161.3 0.999619 -71.40 0.999619 -71.40 0.027088 -161.5
8.71880000 0.027126 -161.4 0.999618 -71.41 0.999618 -71.41 0.027126 -161.5
8.71890000 0.027165 -161.4 0.999617 -71.41 0.999617 -71.41 0.027165 -161.5
8.71900000 0.027203 -161.4 0.999616 -71.41 0.999616 -71.41 0.027203 -161.5
8.71910000 0.027242 -161.4 0.999615 -71.41 0.999615 -71.41 0.027242 -161.5
8.71920000 0.027280 -161.4 0.999614 -71.42 0.999614 -71.42 0.027280 -161.5
8.71930000 0.027319 -161.4 0.999613 -71.42 0.999613 -71.42 0.027319 -161.5
8.71940000 0.027358 -161.4 0.999611 -71.42 0.999611 -71.42 0.027358 -161.5
8.71950000 0.027397 -161.4 0.999610 -71.43 0.999610 -71.43 0.027397 -161.5
8.71960000 0.027436 -161.4 0.999609 -71.43 0.999609 -71.43 0.027436 -161.5
8.71970000 0.027475 -161.4 0.999608 -71.43 0.999608 -71.43 0.027475 -161.5
8.71980000 0.027514 -161.4 0.999607 -71.44 0.999607 -71.44 0.027514 -161.5
8.71990000 0.027553 -161.4 0.999606 -71.44 0.999606 -71.44 0.027553 -161.5
8.72000000 0.027593 -161.4 0.999605 -71.44 0.999605 -71.44 0.027592 -161.5
8.72010000 0.027632 -161.4 0.999604 -71.45 0.999604 -71.45 0.027632 -161.5
8.72020000 0.027672 -161.4 0.999603 -71.45 0.999603 -71.45 0.027671 -161.5
8.72030000 0.027711 -161.4 0.999602 -71.45 0.999602 -71.45 0.027711 -161.5
8.72040000 0.027751 -161.4 0.999601 -71.45 0.999601 -71.45 0.027751 -161.5
8.72050000 0.027791 -161.4 0.999599 -71.46 0.999599 -71.46 0.027791 -161.5
8.72060000 0.027831 -161.4 0.999598 -71.46 0.999598 -71.46 0.027831 -161.5
8.72070000 0.027871 -161.4 0.999597 -71.46 0.999597 -71.46 0.027870 -161.5
8.72080000 0.027911 -161.4 0.999596 -71.47 0.999596 -71.47 0.027911 -161.5
8.72090000 0.027951 -161.4 0.999595 -71.47 0.999595 -71.47 0.027951 -161.5
8.72100000 0.027991 -161.4 0.999594 -71.47 0.999594 -71.47 0.027991 -161.5
8.72110000 0.028032 -161.4 0.999593 -71.48 0.999593 -71.48 0.028031 -161.5
8.72120000 0.028072 -161.4 0.999591 -71.48 0.999591 -71.48 0.028072 -161.5
8.72130000 0.028113 -161.4 0.999590 -71.48 0.999590 -71.48 0.028112 -161.6
8.72140000 0.028153 -161.4 0.999589 -71.49 0.999589 -71.49 0.028153 -161.6
8.72150000 0.028194 -161.4 0.999588 -71.49 0.999588 -71.49 0.028194 -161.6
8.72160000 0.028235 -161.4 0.999587 -71.49 0.999587 -71.49 0.028235 -161.6
8.72170000 0.028276 -161.4 0.999586 -71.49 0.999586 -71.49 0.028276 -161.6
8.72180000 0.028317 -161.4 0.999584 -71.50 0.999584 -71.50 0.028317 -161.6
8.72190000 0.028358 -161.4 0.999583 -71.50 0.999583 -71.50 0.028358 -161.6
8.72200000 0.028399 -161.4 0.999582 -71.50 0.999582 -71.50 0.028399 -161.6
8.72210000 0.028441 -161.4 0.999581 -71.51 0.999581 -71.51 0.028441 -161.6
8.72220000 0.028482 -161.5 0.999580 -71.51 0.999580 -71.51 0.028482 -161.6
8.72230000 0.028524 -161.5 0.999578 -71.51 0.999578 -71.51 0.028524 -161.6
8.72240000 0.028565 -161.5 0.999577 -71.52 0.999577 -71.52 0.028565 -161.6
8.72250000 0.028607 -161.5 0.999576 -71.52 0.999576 -71.52 0.028607 -161.6
8.72260000 0.028649 -161.5 0.999575 -71.52 0.999575 -71.52 0.028649 -161.6
8.72270000 0.028691 -161.5 0.999574 -71.53 0.999574 -71.53 0.028691 -161.6
8.72280000 0.028733 -161.5 0.999572 -71.53 0.999572 -71.53 0.028733 -161.6
8.72290000 0.028775 -161.5 0.999571 -71.53 0.999571 -71.53 0.028775 -161.6
8.72300000 0.028817 -161.5 0.999570 -71.54 0.999570 -71.54 0.028817 -161.6
8.72310000 0.028860 -161.5 0.999569 -71.54 0.999569 -71.54 0.028860 -161.6
8.72320000 0.028902 -161.5 0.999567 -71.54 0.999567 -71.54 0.028902 -161.6
8.72330000 0.028945 -161.5 0.999566 -71.55 0.999566 -71.55 0.028945 -161.6
8.72340000 0.028988 -161.5 0.999565 -71.55 0.999565 -71.55 0.028987 -161.6
8.72350000 0.029030 -161.5 0.999564 -71.55 0.999564 -71.55 0.029030 -161.6
8.72360000 0.029073 -161.5 0.999562 -71.56 0.999562 -71.56 0.029073 -161.6
8.72370000 0.029116 -161.5 0.999561 -71.56 0.999561 -71.56 0.029116 -161.6
8.72380000 0.029159 -161.5 0.999560 -71.56 0.999560 -71.56 0.029159 -161.6
8.72390000 0.029202 -161.5 0.999559 -71.57 0.999559 -71.57 0.029202 -161.6
8.72400000 0.029246 -161.5 0.999557 -71.57 0.999557 -71.57 0.029246 -161.6
8.72410000 0.029289 -161.5 0.999556 -71.57 0.999556 -71.57 0.029289 -161.6
8.72420000 0.029333 -161.5 0.999555 -71.58 0.999555 -71.58 0.029333 -161.7
8.72430000 0.029376 -161.5 0.999553 -71.58 0.999553 -71.58 0.029376 -161.7
8.72440000 0.029420 -161.5 0.999552 -71.58 0.999552 -71.58 0.029420 -161.7
8.72450000 0.029464 -161.5 0.999551 -71.59 0.999551 -71.59 0.029464 -161.7
8.72460000 0.029508 -161.5 0.999549 -71.59 0.999549 -71.59 0.029508 -161.7
8.72470000 0.029552 -161.5 0.999548 -71.59 0.999548 -71.59 0.029552 -161.7
8.72480000 0.029596 -161.5 0.999547 -71.60 0.999547 -71.60 0.029596 -161.7
8.72490000 0.029641 -161.5 0.999545 -71.60 0.999545 -71.60 0.029640 -161.7
8.72500000 0.029685 -161.5 0.999544 -71.60 0.999544 -71.60 0.029685 -161.7
8.72510000 0.029729 -161.5 0.999543 -71.61 0.999543 -71.61 0.029729 -161.7
8.72520000 0.029774 -161.5 0.999541 -71.61 0.999541 -71.61 0.029774 -161.7
8.72530000 0.029819 -161.5 0.999540 -71.61 0.999540 -71.61 0.029819 -161.7
8.72540000 0.029864 -161.6 0.999539 -71.62 0.999539 -71.62 0.029864 -161.7
8.72550000 0.029909 -161.6 0.999537 -71.62 0.999537 -71.62 0.029908 -161.7
8.72560000 0.029954 -161.6 0.999536 -71.62 0.999536 -71.62 0.029954 -161.7
8.72570000 0.029999 -161.6 0.999535 -71.63 0.999535 -71.63 0.029999 -161.7
8.72580000 0.030044 -161.6 0.999533 -71.63 0.999533 -71.63 0.030044 -161.7
8.72590000 0.030090 -161.6 0.999532 -71.63 0.999532 -71.63 0.030089 -161.7
8.72600000 0.030135 -161.6 0.999530 -71.64 0.999530 -71.64 0.030135 -161.7
8.72610000 0.030181 -161.6 0.999529 -71.64 0.999529 -71.64 0.030181 -161.7
8.72620000 0.030227 -161.6 0.999528 -71.64 0.999528 -71.64 0.030226 -161.7
8.72630000 0.030272 -161.6 0.999526 -71.65 0.999526 -71.65 0.030272 -161.7
8.72640000 0.030318 -161.6 0.999525 -71.65 0.999525 -71.65 0.030318 -161.7
8.72650000 0.030364 -161.6 0.999523 -71.65 0.999523 -71.65 0.030364 -161.7
8.72660000 0.030411 -161.6 0.999522 -71.66 0.999522 -71.66 0.030411 -161.7
8.72670000 0.030457 -161.6 0.999521 -71.66 0.999521 -71.66 0.030457 -161.7
8.72680000 0.030504 -161.6 0.999519 -71.66 0.999519 -71.66 0.030503 -161.7
8.72690000 0.030550 -161.6 0.999518 -71.67 0.999518 -71.67 0.030550 -161.7
8.72700000 0.030597 -161.6 0.999516 -71.67 0.999516 -71.67 0.030597 -161.8
8.72710000 0.030644 -161.6 0.999515 -71.67 0.999515 -71.67 0.030644 -161.8
8.72720000 0.030691 -161.6 0.999513 -71.68 0.999513 -71.68 0.030690 -161.8
8.72730000 0.030738 -161.6 0.999512 -71.68 0.999512 -71.68 0.030738 -161.8
8.72740000 0.030785 -161.6 0.999510 -71.68 0.999510 -71.68 0.030785 -161.8
8.72750000 0.030832 -161.6 0.999509 -71.69 0.999509 -71.69 0.030832 -161.8
8.72760000 0.030880 -161.6 0.999507 -71.69 0.999507 -71.69 0.030879 -161.8
8.72770000 0.030927 -161.6 0.999506 -71.69 0.999506 -71.69 0.030927 -161.8
8.72780000 0.030975 -161.6 0.999504 -71.70 0.999504 -71.70 0.030975 -161.8
8.72790000 0.031023 -161.6 0.999503 -71.70 0.999503 -71.70 0.031022 -161.8
8.72800000 0.031071 -161.6 0.999501 -71.71 0.999501 -71.71 0.031070 -161.8
8.72810000 0.031119 -161.6 0.999500 -71.71 0.999500 -71.71 0.031118 -161.8
8.72820000 0.031167 -161.6 0.999498 -71.71 0.999498 -71.71 0.031167 -161.8
8.72830000 0.031215 -161.6 0.999497 -71.72 0.999497 -71.72 0.031215 -161.8
8.72840000 0.031263 -161.6 0.999495 -71.72 0.999495 -71.72 0.031263 -161.8
8.72850000 0.031312 -161.7 0.999494 -71.72 0.999494 -71.72 0.031312 -161.8
8.72860000 0.031361 -161.7 0.999492 -71.73 0.999492 -71.73 0.031361 -161.8
8.72870000 0.031410 -161.7 0.999491 -71.73 0.999491 -71.73 0.031409 -161.8
8.72880000 0.031458 -161.7 0.999489 -71.73 0.999489 -71.73 0.031458 -161.8
8.72890000 0.031507 -161.7 0.999488 -71.74 0.999488 -71.74 0.031507 -161.8
8.72900000 0.031557 -161.7 0.999486 -71.74 0.999486 -71.74 0.031557 -161.8
8.72910000 0.031606 -161.7 0.999484 -71.75 0.999484 -71.75 0.031606 -161.8
8.72920000 0.031655 -161.7 0.999483 -71.75 0.999483 -71.75 0.031655 -161.8
8.72930000 0.031705 -161.7 0.999481 -71.75 0.999481 -71.75 0.031705 -161.8
8.72940000 0.031755 -161.7 0.999480 -71.76 0.999480 -71.76 0.031755 -161.8
8.72950000 0.031805 -161.7 0.999478 -71.76 0.999478 -71.76 0.031804 -161.8
8.72960000 0.031855 -161.7 0.999476 -71.76 0.999476 -71.76 0.031854 -161.9
8.72970000 0.031905 -161.7 0.999475 -71.77 0.999475 -71.77 0.031905 -161.9
8.72980000 0.031955 -161.7 0.999473 -71.77 0.999473 -71.77 0.031955 -161.9
8.72990000 0.032005 -161.7 0.999472 -71.77 0.999472 -71.77 0.032005 -161.9
8.73000000 0.032056 -161.7 0.999470 -71.78 0.999470 -71.78 0.032056 -161.9
8.73010000 0.032106 -161.7 0.999468 -71.78 0.999468 -71.78 0.032106 -161.9
8.73020000 0.032157 -161.7 0.999467 -71.79 0.999467 -71.79 0.032157 -161.9
8.73030000 0.032208 -161.7 0.999465 -71.79 0.999465 -71.79 0.032208 -161.9
8.73040000 0.032259 -161.7 0.999463 -71.79 0.999463 -71.79 0.032259 -161.9
8.73050000 0.032310 -161.7 0.999462 -71.80 0.999462 -71.80 0.032310 -161.9
8.73060000 0.032362 -161.7 0.999460 -71.80 0.999460 -71.80 0.032362 -161.9
8.73070000 0.032413 -161.7 0.999458 -71.80 0.999458 -71.80 0.032413 -161.9
8.73080000 0.032465 -161.7 0.999457 -71.81 0.999457 -71.81 0.032465 -161.9
8.73090000 0.032517 -161.7 0.999455 -71.81 0.999455 -71.81 0.032516 -161.9
8.73100000 0.032568 -161.7 0.999453 -71.82 0.999453 -71.82 0.032568 -161.9
8.73110000 0.032620 -161.7 0.999451 -71.82 0.999451 -71.82 0.032620 -161.9
8.73120000 0.032673 -161.7 0.999450 -71.82 0.999450 -71.82 0.032672 -161.9
8.73130000 0.032725 -161.8 0.999448 -71.83 0.999448 -71.83 0.032725 -161.9
8.73140000 0.032777 -161.8 0.999446 -71.83 0.999446 -71.83 0.032777 -161.9
8.73150000 0.032830 -161.8 0.999444 -71.83 0.999444 -71.83 0.032830 -161.9
8.73160000 0.032883 -161.8 0.999443 -71.84 0.999443 -71.84 0.032883 -161.9
8.73170000 0.032936 -161.8 0.999441 -71.84 0.999441 -71.84 0.032935 -161.9
8.73180000 0.032989 -161.8 0.999439 -71.85 0.999439 -71.85 0.032988 -161.9
8.73190000 0.033042 -161.8 0.999437 -71.85 0.999437 -71.85 0.033042 -161.9
8.73200000 0.033095 -161.8 0.999436 -71.85 0.999436 -71.85 0.033095 -161.9
8.73210000 0.033148 -161.8 0.999434 -71.86 0.999434 -71.86 0.033148 -161.9
8.73220000 0.033202 -161.8 0.999432 -71.86 0.999432 -71.86 0.033202 -162.0
8.73230000 0.033256 -161.8 0.999430 -71.87 0.999430 -71.87 0.033256 -162.0
8.73240000 0.033310 -161.8 0.999428 -71.87 0.999428 -71.87 0.033310 -162.0
8.73250000 0.033364 -161.8 0.999427 -71.87 0.999427 -71.87 0.033364 -162.0
8.73260000 0.033418 -161.8 0.999425 -71.88 0.999425 -71.88 0.033418 -162.0
8.73270000 0.033472 -161.8 0.999423 -71.88 0.999423 -71.88 0.033472 -162.0
8.73280000 0.033527 -161.8 0.999421 -71.88 0.999421 -71.88 0.033527 -162.0
8.73290000 0.033581 -161.8 0.999419 -71.89 0.999419 -71.89 0.033581 -162.0
8.73300000 0.033636 -161.8 0.999417 -71.89 0.999417 -71.89 0.033636 -162.0
8.73310000 0.033691 -161.8 0.999415 -71.90 0.999415 -71.90 0.033691 -162.0
8.73320000 0.033746 -161.8 0.999413 -71.90 0.999413 -71.90 0.033746 -162.0
8.73330000 0.033802 -161.8 0.999412 -71.90 0.999412 -71.90 0.033801 -162.0
8.73340000 0.033857 -161.8 0.999410 -71.91 0.999410 -71.91 0.033857 -162.0
8.73350000 0.033913 -161.8 0.999408 -71.91 0.999408 -71.91 0.033912 -162.0
8.73360000 0.033968 -161.8 0.999406 -71.92 0.999406 -71.92 0.033968 -162.0
8.73370000 0.034024 -161.8 0.999404 -71.92 0.999404 -71.92 0.034024 -162.0
8.73380000 0.034080 -161.8 0.999402 -71.92 0.999402 -71.92 0.034080 -162.0
8.73390000 0.034136 -161.9 0.999400 -71.93 0.999400 -71.93 0.034136 -162.0
8.73400000 0.034193 -161.9 0.999398 -71.93 0.999398 -71.93 0.034193 -162.0
8.73410000 0.034249 -161.9 0.999396 -71.94 0.999396 -71.94 0.034249 -162.0
8.73420000 0.034306 -161.9 0.999394 -71.94 0.999394 -71.94 0.034306 -162.0
8.73430000 0.034363 -161.9 0.999392 -71.94 0.999392 -71.94 0.034363 -162.0
8.73440000 0.034420 -161.9 0.999390 -71.95 0.999390 -71.95 0.034420 -162.0
8.73450000 0.034477 -161.9 0.999388 -71.95 0.999388 -71.95 0.034477 -162.0
8.73460000 0.034534 -161.9 0.999386 -71.96 0.999386 -71.96 0.034534 -162.1
8.73470000 0.034592 -161.9 0.999384 -71.96 0.999384 -71.96 0.034592 -162.1
8.73480000 0.034649 -161.9 0.999382 -71.97 0.999382 -71.97 0.034649 -162.1
8.73490000 0.034707 -161.9 0.999380 -71.97 0.999380 -71.97 0.034707 -162.1
8.73500000 0.034765 -161.9 0.999378 -71.97 0.999378 -71.97 0.034765 -162.1
8.73510000 0.034823 -161.9 0.999376 -71.98 0.999376 -71.98 0.034823 -162.1
8.73520000 0.034882 -161.9 0.999374 -71.98 0.999374 -71.98 0.034882 -162.1
8.73530000 0.034940 -161.9 0.999372 -71.99 0.999372 -71.99 0.034940 -162.1
8.73540000 0.034999 -161.9 0.999370 -71.99 0.999370 -71.99 0.034999 -162.1
8.73550000 0.035058 -161.9 0.999368 -71.99 0.999368 -71.99 0.035057 -162.1
8.73560000 0.035117 -161.9 0.999366 -72.00 0.999366 -72.00 0.035116 -162.1
8.73570000 0.035176 -161.9 0.999364 -72.00 0.999364 -72.00 0.035176 -162.1
8.73580000 0.035235 -161.9 0.999361 -72.01 0.999361 -72.01 0.035235 -162.1
8.73590000 0.035295 -161.9 0.999359 -72.01 0.999359 -72.01 0.035294 -162.1
8.73600000 0.035354 -161.9 0.999357 -72.02 0.999357 -72.02 0.035354 -162.1
8.73610000 0.035414 -161.9 0.999355 -72.02 0.999355 -72.02 0.035414 -162.1
8.73620000 0.035474 -161.9 0.999353 -72.02 0.999353 -72.02 0.035474 -162.1
8.73630000 0.035534 -161.9 0.999351 -72.03 0.999351 -72.03 0.035534 -162.1
8.73640000 0.035595 -162.0 0.999348 -72.03 0.999348 -72.03 0.035594 -162.1
8.73650000 0.035655 -162.0 0.999346 -72.04 0.999346 -72.04 0.035655 -162.1
8.73660000 0.035716 -162.0 0.999344 -72.04 0.999344 -72.04 0.035716 -162.1
8.73670000 0.035777 -162.0 0.999342 -72.05 0.999342 -72.05 0.035777 -162.1
8.73680000 0.035838 -162.0 0.999340 -72.05 0.999340 -72.05 0.035838 -162.2
8.73690000 0.035899 -162.0 0.999337 -72.05 0.999337 -72.05 0.035899 -162.2
8.73700000 0.035961 -162.0 0.999335 -72.06 0.999335 -72.06 0.035960 -162.2
8.73710000 0.036022 -162.0 0.999333 -72.06 0.999333 -72.06 0.036022 -162.2
8.73720000 0.036084 -162.0 0.999331 -72.07 0.999331 -72.07 0.036084 -162.2
8.73730000 0.036146 -162.0 0.999328 -72.07 0.999328 -72.07 0.036146 -162.2
8.73740000 0.036208 -162.0 0.999326 -72.08 0.999326 -72.08 0.036208 -162.2
8.73750000 0.036270 -162.0 0.999324 -72.08 0.999324 -72.08 0.036270 -162.2
8.73760000 0.036333 -162.0 0.999322 -72.08 0.999322 -72.08 0.036333 -162.2
8.73770000 0.036396 -162.0 0.999319 -72.09 0.999319 -72.09 0.036396 -162.2
8.73780000 0.036459 -162.0 0.999317 -72.09 0.999317 -72.09 0.036458 -162.2
8.73790000 0.036522 -162.0 0.999315 -72.10 0.999315 -72.10 0.036522 -162.2
8.73800000 0.036585 -162.0 0.999312 -72.10 0.999312 -72.10 0.036585 -162.2
8.73810000 0.036648 -162.0 0.999310 -72.11 0.999310 -72.11 0.036648 -162.2
8.73820000 0.036712 -162.0 0.999308 -72.11 0.999308 -72.11 0.036712 -162.2
8.73830000 0.036776 -162.0 0.999305 -72.12 0.999305 -72.12 0.036776 -162.2
8.73840000 0.036840 -162.0 0.999303 -72.12 0.999303 -72.12 0.036840 -162.2
8.73850000 0.036904 -162.0 0.999300 -72.12 0.999300 -72.12 0.036904 -162.2
8.73860000 0.036969 -162.0 0.999298 -72.13 0.999298 -72.13 0.036969 -162.2
8.73870000 0.037033 -162.0 0.999296 -72.13 0.999296 -72.13 0.037033 -162.2
8.73880000 0.037098 -162.1 0.999293 -72.14 0.999293 -72.14 0.037098 -162.2
8.73890000 0.037163 -162.1 0.999291 -72.14 0.999291 -72.14 0.037163 -162.2
8.73900000 0.037228 -162.1 0.999288 -72.15 0.999288 -72.15 0.037228 -162.3
8.73910000 0.037294 -162.1 0.999286 -72.15 0.999286 -72.15 0.037294 -162.3
8.73920000 0.037359 -162.1 0.999283 -72.16 0.999283 -72.16 0.037359 -162.3