! Sonnet Data File
! From: emgraph Version : 16.52
! From Project: transmon_trial2
! Data is De-embedded 
! Data File Written: 10/20/2017 13:43:12
!< HDATE 10/20/2017 10:41:42
!< MDATE 10/20/2017 10:41:42
!< PARAMS
!< Lj = 15.24
!< Gap = 26.0
!< Width = 50.0
!< Airgap = 30.0
!< Pwidth = 2000.0
!< END PARAMS
# GHZ S MA R 45.40000
8.70000000 0.006474 -158.9 0.999970 -68.68 0.999970 -68.68 0.006474 -158.4
!< P1 F=8.7 Eeff=(4.74736053 -6.3969e-5) Z0=(45.1403777 -2.0193e-4) R=0.0 C=0.0 
!< P2 F=8.7 Eeff=(4.74736053 -6.3969e-5) Z0=(45.1403777 -2.0193e-4) R=0.0 C=0.0 
8.70010000 0.006477 -158.9 0.999970 -68.68 0.999970 -68.68 0.006477 -158.4
8.70020000 0.006481 -158.9 0.999970 -68.69 0.999970 -68.69 0.006481 -158.4
8.70030000 0.006484 -158.9 0.999970 -68.69 0.999970 -68.69 0.006484 -158.4
8.70040000 0.006487 -158.9 0.999970 -68.69 0.999970 -68.69 0.006487 -158.4
8.70050000 0.006490 -159.0 0.999970 -68.69 0.999970 -68.69 0.006490 -158.4
8.70060000 0.006493 -159.0 0.999970 -68.69 0.999970 -68.69 0.006493 -158.4
8.70070000 0.006496 -159.0 0.999970 -68.69 0.999970 -68.69 0.006496 -158.4
8.70080000 0.006499 -159.0 0.999970 -68.69 0.999970 -68.69 0.006499 -158.4
8.70090000 0.006502 -159.0 0.999970 -68.69 0.999970 -68.69 0.006502 -158.4
8.70100000 0.006505 -159.0 0.999970 -68.69 0.999970 -68.69 0.006505 -158.4
8.70110000 0.006508 -159.0 0.999970 -68.69 0.999970 -68.69 0.006508 -158.4
8.70120000 0.006511 -159.0 0.999970 -68.70 0.999970 -68.70 0.006511 -158.4
8.70130000 0.006515 -159.0 0.999970 -68.70 0.999970 -68.70 0.006515 -158.4
8.70140000 0.006518 -159.0 0.999970 -68.70 0.999970 -68.70 0.006518 -158.4
8.70150000 0.006521 -159.0 0.999970 -68.70 0.999970 -68.70 0.006521 -158.4
8.70160000 0.006524 -159.0 0.999970 -68.70 0.999970 -68.70 0.006524 -158.4
8.70170000 0.006527 -159.0 0.999970 -68.70 0.999970 -68.70 0.006527 -158.4
8.70180000 0.006530 -159.0 0.999970 -68.70 0.999970 -68.70 0.006530 -158.4
8.70190000 0.006533 -159.0 0.999970 -68.70 0.999970 -68.70 0.006533 -158.4
8.70200000 0.006536 -159.0 0.999970 -68.70 0.999970 -68.70 0.006536 -158.4
8.70210000 0.006539 -159.0 0.999970 -68.70 0.999970 -68.70 0.006540 -158.4
8.70220000 0.006543 -159.0 0.999970 -68.70 0.999970 -68.70 0.006543 -158.4
8.70230000 0.006546 -159.0 0.999970 -68.71 0.999970 -68.71 0.006546 -158.4
8.70240000 0.006549 -159.0 0.999970 -68.71 0.999970 -68.71 0.006549 -158.4
8.70250000 0.006552 -159.0 0.999970 -68.71 0.999970 -68.71 0.006552 -158.4
8.70260000 0.006555 -159.0 0.999970 -68.71 0.999970 -68.71 0.006555 -158.4
8.70270000 0.006558 -159.0 0.999970 -68.71 0.999970 -68.71 0.006558 -158.4
8.70280000 0.006561 -159.0 0.999970 -68.71 0.999970 -68.71 0.006561 -158.4
8.70290000 0.006565 -159.0 0.999970 -68.71 0.999970 -68.71 0.006565 -158.4
8.70300000 0.006568 -159.0 0.999970 -68.71 0.999970 -68.71 0.006568 -158.4
8.70310000 0.006571 -159.0 0.999970 -68.71 0.999970 -68.71 0.006571 -158.4
8.70320000 0.006574 -159.0 0.999970 -68.71 0.999970 -68.71 0.006574 -158.4
8.70330000 0.006577 -159.0 0.999970 -68.72 0.999970 -68.72 0.006577 -158.4
8.70340000 0.006580 -159.0 0.999969 -68.72 0.999969 -68.72 0.006580 -158.4
8.70350000 0.006583 -159.0 0.999969 -68.72 0.999969 -68.72 0.006584 -158.4
8.70360000 0.006587 -159.0 0.999969 -68.72 0.999969 -68.72 0.006587 -158.4
8.70370000 0.006590 -159.0 0.999969 -68.72 0.999969 -68.72 0.006590 -158.4
8.70380000 0.006593 -159.0 0.999969 -68.72 0.999969 -68.72 0.006593 -158.4
8.70390000 0.006596 -159.0 0.999969 -68.72 0.999969 -68.72 0.006596 -158.4
8.70400000 0.006599 -159.0 0.999969 -68.72 0.999969 -68.72 0.006599 -158.4
8.70410000 0.006603 -159.0 0.999969 -68.72 0.999969 -68.72 0.006603 -158.4
8.70420000 0.006606 -159.0 0.999969 -68.72 0.999969 -68.72 0.006606 -158.4
8.70430000 0.006609 -159.0 0.999969 -68.73 0.999969 -68.73 0.006609 -158.4
8.70440000 0.006612 -159.0 0.999969 -68.73 0.999969 -68.73 0.006612 -158.4
8.70450000 0.006615 -159.0 0.999969 -68.73 0.999969 -68.73 0.006615 -158.4
8.70460000 0.006618 -159.0 0.999969 -68.73 0.999969 -68.73 0.006618 -158.4
8.70470000 0.006622 -159.0 0.999969 -68.73 0.999969 -68.73 0.006622 -158.4
8.70480000 0.006625 -159.0 0.999969 -68.73 0.999969 -68.73 0.006625 -158.4
8.70490000 0.006628 -159.0 0.999969 -68.73 0.999969 -68.73 0.006628 -158.4
8.70500000 0.006631 -159.0 0.999969 -68.73 0.999969 -68.73 0.006631 -158.4
8.70510000 0.006634 -159.0 0.999969 -68.73 0.999969 -68.73 0.006634 -158.4
8.70520000 0.006638 -159.0 0.999969 -68.73 0.999969 -68.73 0.006638 -158.4
8.70530000 0.006641 -159.0 0.999969 -68.73 0.999969 -68.73 0.006641 -158.4
8.70540000 0.006644 -159.0 0.999969 -68.74 0.999969 -68.74 0.006644 -158.4
8.70550000 0.006647 -159.0 0.999969 -68.74 0.999969 -68.74 0.006647 -158.4
8.70560000 0.006650 -159.0 0.999969 -68.74 0.999969 -68.74 0.006650 -158.4
8.70570000 0.006654 -159.0 0.999969 -68.74 0.999969 -68.74 0.006654 -158.4
8.70580000 0.006657 -159.0 0.999969 -68.74 0.999969 -68.74 0.006657 -158.4
8.70590000 0.006660 -159.0 0.999969 -68.74 0.999969 -68.74 0.006660 -158.4
8.70600000 0.006663 -159.0 0.999969 -68.74 0.999969 -68.74 0.006663 -158.4
8.70610000 0.006667 -159.0 0.999969 -68.74 0.999969 -68.74 0.006667 -158.4
8.70620000 0.006670 -159.0 0.999969 -68.74 0.999969 -68.74 0.006670 -158.4
8.70630000 0.006673 -159.0 0.999969 -68.74 0.999969 -68.74 0.006673 -158.4
8.70640000 0.006676 -159.0 0.999969 -68.75 0.999969 -68.75 0.006676 -158.4
8.70650000 0.006679 -159.0 0.999969 -68.75 0.999969 -68.75 0.006680 -158.4
8.70660000 0.006683 -159.0 0.999969 -68.75 0.999969 -68.75 0.006683 -158.4
8.70670000 0.006686 -159.0 0.999969 -68.75 0.999969 -68.75 0.006686 -158.4
8.70680000 0.006689 -159.0 0.999969 -68.75 0.999969 -68.75 0.006689 -158.4
8.70690000 0.006692 -159.0 0.999969 -68.75 0.999969 -68.75 0.006693 -158.4
8.70700000 0.006696 -159.0 0.999969 -68.75 0.999969 -68.75 0.006696 -158.4
8.70710000 0.006699 -159.0 0.999969 -68.75 0.999969 -68.75 0.006699 -158.4
8.70720000 0.006702 -159.0 0.999969 -68.75 0.999969 -68.75 0.006702 -158.4
8.70730000 0.006705 -159.0 0.999969 -68.75 0.999969 -68.75 0.006706 -158.4
8.70740000 0.006709 -159.0 0.999969 -68.76 0.999969 -68.76 0.006709 -158.4
8.70750000 0.006712 -159.0 0.999969 -68.76 0.999969 -68.76 0.006712 -158.4
8.70760000 0.006715 -159.0 0.999969 -68.76 0.999969 -68.76 0.006715 -158.4
8.70770000 0.006719 -159.0 0.999968 -68.76 0.999968 -68.76 0.006719 -158.4
8.70780000 0.006722 -159.0 0.999968 -68.76 0.999968 -68.76 0.006722 -158.4
8.70790000 0.006725 -159.0 0.999968 -68.76 0.999968 -68.76 0.006725 -158.4
8.70800000 0.006728 -159.0 0.999968 -68.76 0.999968 -68.76 0.006728 -158.4
8.70810000 0.006732 -159.0 0.999968 -68.76 0.999968 -68.76 0.006732 -158.4
8.70820000 0.006735 -159.0 0.999968 -68.76 0.999968 -68.76 0.006735 -158.5
8.70830000 0.006738 -159.0 0.999968 -68.76 0.999968 -68.76 0.006738 -158.5
8.70840000 0.006742 -159.0 0.999968 -68.77 0.999968 -68.77 0.006742 -158.5
8.70850000 0.006745 -159.0 0.999968 -68.77 0.999968 -68.77 0.006745 -158.5
8.70860000 0.006748 -159.0 0.999968 -68.77 0.999968 -68.77 0.006748 -158.5
8.70870000 0.006751 -159.0 0.999968 -68.77 0.999968 -68.77 0.006751 -158.5
8.70880000 0.006755 -159.0 0.999968 -68.77 0.999968 -68.77 0.006755 -158.5
8.70890000 0.006758 -159.0 0.999968 -68.77 0.999968 -68.77 0.006758 -158.5
8.70900000 0.006761 -159.0 0.999968 -68.77 0.999968 -68.77 0.006761 -158.5
8.70910000 0.006765 -159.0 0.999968 -68.77 0.999968 -68.77 0.006765 -158.5
8.70920000 0.006768 -159.0 0.999968 -68.77 0.999968 -68.77 0.006768 -158.5
8.70930000 0.006771 -159.0 0.999968 -68.77 0.999968 -68.77 0.006771 -158.5
8.70940000 0.006775 -159.0 0.999968 -68.77 0.999968 -68.77 0.006775 -158.5
8.70950000 0.006778 -159.0 0.999968 -68.78 0.999968 -68.78 0.006778 -158.5
8.70960000 0.006781 -159.0 0.999968 -68.78 0.999968 -68.78 0.006781 -158.5
8.70970000 0.006784 -159.0 0.999968 -68.78 0.999968 -68.78 0.006785 -158.5
8.70980000 0.006788 -159.0 0.999968 -68.78 0.999968 -68.78 0.006788 -158.5
8.70990000 0.006791 -159.0 0.999968 -68.78 0.999968 -68.78 0.006791 -158.5
8.71000000 0.006794 -159.0 0.999968 -68.78 0.999968 -68.78 0.006795 -158.5
8.71010000 0.006798 -159.0 0.999968 -68.78 0.999968 -68.78 0.006798 -158.5
8.71020000 0.006801 -159.0 0.999968 -68.78 0.999968 -68.78 0.006801 -158.5
8.71030000 0.006804 -159.0 0.999968 -68.78 0.999968 -68.78 0.006805 -158.5
8.71040000 0.006808 -159.0 0.999968 -68.78 0.999968 -68.78 0.006808 -158.5
8.71050000 0.006811 -159.0 0.999968 -68.79 0.999968 -68.79 0.006811 -158.5
8.71060000 0.006815 -159.0 0.999968 -68.79 0.999968 -68.79 0.006815 -158.5
8.71070000 0.006818 -159.0 0.999968 -68.79 0.999968 -68.79 0.006818 -158.5
8.71080000 0.006821 -159.0 0.999968 -68.79 0.999968 -68.79 0.006821 -158.5
8.71090000 0.006825 -159.0 0.999968 -68.79 0.999968 -68.79 0.006825 -158.5
8.71100000 0.006828 -159.0 0.999968 -68.79 0.999968 -68.79 0.006828 -158.5
8.71110000 0.006831 -159.0 0.999968 -68.79 0.999968 -68.79 0.006831 -158.5
8.71120000 0.006835 -159.0 0.999968 -68.79 0.999968 -68.79 0.006835 -158.5
8.71130000 0.006838 -159.0 0.999968 -68.79 0.999968 -68.79 0.006838 -158.5
8.71140000 0.006841 -159.0 0.999968 -68.79 0.999968 -68.79 0.006841 -158.5
8.71150000 0.006845 -159.0 0.999968 -68.80 0.999968 -68.80 0.006845 -158.5
8.71160000 0.006848 -159.0 0.999968 -68.80 0.999968 -68.80 0.006848 -158.5
8.71170000 0.006852 -159.0 0.999968 -68.80 0.999968 -68.80 0.006852 -158.5
8.71180000 0.006855 -159.0 0.999967 -68.80 0.999967 -68.80 0.006855 -158.5
8.71190000 0.006858 -159.0 0.999967 -68.80 0.999967 -68.80 0.006858 -158.5
8.71200000 0.006862 -159.0 0.999967 -68.80 0.999967 -68.80 0.006862 -158.5
8.71210000 0.006865 -159.0 0.999967 -68.80 0.999967 -68.80 0.006865 -158.5
8.71220000 0.006868 -159.0 0.999967 -68.80 0.999967 -68.80 0.006869 -158.5
8.71230000 0.006872 -159.0 0.999967 -68.80 0.999967 -68.80 0.006872 -158.5
8.71240000 0.006875 -159.0 0.999967 -68.80 0.999967 -68.80 0.006875 -158.5
8.71250000 0.006879 -159.0 0.999967 -68.81 0.999967 -68.81 0.006879 -158.5
8.71260000 0.006882 -159.0 0.999967 -68.81 0.999967 -68.81 0.006882 -158.5
8.71270000 0.006885 -159.0 0.999967 -68.81 0.999967 -68.81 0.006886 -158.5
8.71280000 0.006889 -159.0 0.999967 -68.81 0.999967 -68.81 0.006889 -158.5
8.71290000 0.006892 -159.0 0.999967 -68.81 0.999967 -68.81 0.006892 -158.5
8.71300000 0.006896 -159.0 0.999967 -68.81 0.999967 -68.81 0.006896 -158.5
8.71310000 0.006899 -159.0 0.999967 -68.81 0.999967 -68.81 0.006899 -158.5
8.71320000 0.006903 -159.0 0.999967 -68.81 0.999967 -68.81 0.006903 -158.5
8.71330000 0.006906 -159.0 0.999967 -68.81 0.999967 -68.81 0.006906 -158.5
8.71340000 0.006909 -159.0 0.999967 -68.81 0.999967 -68.81 0.006909 -158.5
8.71350000 0.006913 -159.0 0.999967 -68.81 0.999967 -68.81 0.006913 -158.5
8.71360000 0.006916 -159.0 0.999967 -68.82 0.999967 -68.82 0.006916 -158.5
8.71370000 0.006920 -159.1 0.999967 -68.82 0.999967 -68.82 0.006920 -158.5
8.71380000 0.006923 -159.1 0.999967 -68.82 0.999967 -68.82 0.006923 -158.5
8.71390000 0.006927 -159.1 0.999967 -68.82 0.999967 -68.82 0.006927 -158.5
8.71400000 0.006930 -159.1 0.999967 -68.82 0.999967 -68.82 0.006930 -158.5
8.71410000 0.006933 -159.1 0.999967 -68.82 0.999967 -68.82 0.006934 -158.5
8.71420000 0.006937 -159.1 0.999967 -68.82 0.999967 -68.82 0.006937 -158.5
8.71430000 0.006940 -159.1 0.999967 -68.82 0.999967 -68.82 0.006940 -158.5
8.71440000 0.006944 -159.1 0.999967 -68.82 0.999967 -68.82 0.006944 -158.5
8.71450000 0.006947 -159.1 0.999967 -68.82 0.999967 -68.82 0.006947 -158.5
8.71460000 0.006951 -159.1 0.999967 -68.83 0.999967 -68.83 0.006951 -158.5
8.71470000 0.006954 -159.1 0.999967 -68.83 0.999967 -68.83 0.006954 -158.5
8.71480000 0.006958 -159.1 0.999967 -68.83 0.999967 -68.83 0.006958 -158.5
8.71490000 0.006961 -159.1 0.999967 -68.83 0.999967 -68.83 0.006961 -158.5
8.71500000 0.006965 -159.1 0.999967 -68.83 0.999967 -68.83 0.006965 -158.5
8.71510000 0.006968 -159.1 0.999967 -68.83 0.999967 -68.83 0.006968 -158.5
8.71520000 0.006972 -159.1 0.999967 -68.83 0.999967 -68.83 0.006972 -158.5
8.71530000 0.006975 -159.1 0.999967 -68.83 0.999967 -68.83 0.006975 -158.5
8.71540000 0.006979 -159.1 0.999967 -68.83 0.999967 -68.83 0.006979 -158.5
8.71550000 0.006982 -159.1 0.999967 -68.83 0.999967 -68.83 0.006982 -158.5
8.71560000 0.006986 -159.1 0.999967 -68.84 0.999967 -68.84 0.006986 -158.5
8.71570000 0.006989 -159.1 0.999967 -68.84 0.999967 -68.84 0.006989 -158.5
8.71580000 0.006993 -159.1 0.999966 -68.84 0.999966 -68.84 0.006993 -158.5
8.71590000 0.006996 -159.1 0.999966 -68.84 0.999966 -68.84 0.006996 -158.5
8.71600000 0.007000 -159.1 0.999966 -68.84 0.999966 -68.84 0.007000 -158.5
8.71610000 0.007003 -159.1 0.999966 -68.84 0.999966 -68.84 0.007003 -158.5
8.71620000 0.007007 -159.1 0.999966 -68.84 0.999966 -68.84 0.007007 -158.5
8.71630000 0.007010 -159.1 0.999966 -68.84 0.999966 -68.84 0.007010 -158.6
8.71640000 0.007014 -159.1 0.999966 -68.84 0.999966 -68.84 0.007014 -158.6
8.71650000 0.007017 -159.1 0.999966 -68.84 0.999966 -68.84 0.007017 -158.6
8.71660000 0.007021 -159.1 0.999966 -68.85 0.999966 -68.85 0.007021 -158.6
8.71670000 0.007024 -159.1 0.999966 -68.85 0.999966 -68.85 0.007024 -158.6
8.71680000 0.007028 -159.1 0.999966 -68.85 0.999966 -68.85 0.007028 -158.6
8.71690000 0.007031 -159.1 0.999966 -68.85 0.999966 -68.85 0.007031 -158.6
8.71700000 0.007035 -159.1 0.999966 -68.85 0.999966 -68.85 0.007035 -158.6
8.71710000 0.007038 -159.1 0.999966 -68.85 0.999966 -68.85 0.007038 -158.6
8.71720000 0.007042 -159.1 0.999966 -68.85 0.999966 -68.85 0.007042 -158.6
8.71730000 0.007045 -159.1 0.999966 -68.85 0.999966 -68.85 0.007045 -158.6
8.71740000 0.007049 -159.1 0.999966 -68.85 0.999966 -68.85 0.007049 -158.6
8.71750000 0.007052 -159.1 0.999966 -68.85 0.999966 -68.85 0.007052 -158.6
8.71760000 0.007056 -159.1 0.999966 -68.86 0.999966 -68.86 0.007056 -158.6
8.71770000 0.007060 -159.1 0.999966 -68.86 0.999966 -68.86 0.007060 -158.6
8.71780000 0.007063 -159.1 0.999966 -68.86 0.999966 -68.86 0.007063 -158.6
8.71790000 0.007067 -159.1 0.999966 -68.86 0.999966 -68.86 0.007067 -158.6
8.71800000 0.007070 -159.1 0.999966 -68.86 0.999966 -68.86 0.007070 -158.6
8.71810000 0.007074 -159.1 0.999966 -68.86 0.999966 -68.86 0.007074 -158.6
8.71820000 0.007077 -159.1 0.999966 -68.86 0.999966 -68.86 0.007077 -158.6
8.71830000 0.007081 -159.1 0.999966 -68.86 0.999966 -68.86 0.007081 -158.6
8.71840000 0.007085 -159.1 0.999966 -68.86 0.999966 -68.86 0.007085 -158.6
8.71850000 0.007088 -159.1 0.999966 -68.86 0.999966 -68.86 0.007088 -158.6
8.71860000 0.007092 -159.1 0.999966 -68.87 0.999966 -68.87 0.007092 -158.6
8.71870000 0.007095 -159.1 0.999966 -68.87 0.999966 -68.87 0.007095 -158.6
8.71880000 0.007099 -159.1 0.999966 -68.87 0.999966 -68.87 0.007099 -158.6
8.71890000 0.007102 -159.1 0.999966 -68.87 0.999966 -68.87 0.007102 -158.6
8.71900000 0.007106 -159.1 0.999966 -68.87 0.999966 -68.87 0.007106 -158.6
8.71910000 0.007110 -159.1 0.999966 -68.87 0.999966 -68.87 0.007110 -158.6
8.71920000 0.007113 -159.1 0.999966 -68.87 0.999966 -68.87 0.007113 -158.6
8.71930000 0.007117 -159.1 0.999966 -68.87 0.999966 -68.87 0.007117 -158.6
8.71940000 0.007120 -159.1 0.999966 -68.87 0.999966 -68.87 0.007120 -158.6
8.71950000 0.007124 -159.1 0.999965 -68.87 0.999965 -68.87 0.007124 -158.6
8.71960000 0.007128 -159.1 0.999965 -68.88 0.999965 -68.88 0.007128 -158.6
8.71970000 0.007131 -159.1 0.999965 -68.88 0.999965 -68.88 0.007131 -158.6
8.71980000 0.007135 -159.1 0.999965 -68.88 0.999965 -68.88 0.007135 -158.6
8.71990000 0.007139 -159.1 0.999965 -68.88 0.999965 -68.88 0.007139 -158.6
8.72000000 0.007142 -159.1 0.999965 -68.88 0.999965 -68.88 0.007142 -158.6
8.72010000 0.007146 -159.1 0.999965 -68.88 0.999965 -68.88 0.007146 -158.6
8.72020000 0.007149 -159.1 0.999965 -68.88 0.999965 -68.88 0.007149 -158.6
8.72030000 0.007153 -159.1 0.999965 -68.88 0.999965 -68.88 0.007153 -158.6
8.72040000 0.007157 -159.1 0.999965 -68.88 0.999965 -68.88 0.007157 -158.6
8.72050000 0.007160 -159.1 0.999965 -68.88 0.999965 -68.88 0.007160 -158.6
8.72060000 0.007164 -159.1 0.999965 -68.89 0.999965 -68.89 0.007164 -158.6
8.72070000 0.007168 -159.1 0.999965 -68.89 0.999965 -68.89 0.007168 -158.6
8.72080000 0.007171 -159.1 0.999965 -68.89 0.999965 -68.89 0.007171 -158.6
8.72090000 0.007175 -159.1 0.999965 -68.89 0.999965 -68.89 0.007175 -158.6
8.72100000 0.007179 -159.1 0.999965 -68.89 0.999965 -68.89 0.007179 -158.6
8.72110000 0.007182 -159.1 0.999965 -68.89 0.999965 -68.89 0.007182 -158.6
8.72120000 0.007186 -159.1 0.999965 -68.89 0.999965 -68.89 0.007186 -158.6
8.72130000 0.007190 -159.1 0.999965 -68.89 0.999965 -68.89 0.007190 -158.6
8.72140000 0.007193 -159.1 0.999965 -68.89 0.999965 -68.89 0.007193 -158.6
8.72150000 0.007197 -159.1 0.999965 -68.89 0.999965 -68.89 0.007197 -158.6
8.72160000 0.007201 -159.1 0.999965 -68.90 0.999965 -68.90 0.007201 -158.6
8.72170000 0.007204 -159.1 0.999965 -68.90 0.999965 -68.90 0.007204 -158.6
8.72180000 0.007208 -159.1 0.999965 -68.90 0.999965 -68.90 0.007208 -158.6
8.72190000 0.007212 -159.1 0.999965 -68.90 0.999965 -68.90 0.007212 -158.6
8.72200000 0.007215 -159.1 0.999965 -68.90 0.999965 -68.90 0.007215 -158.6
8.72210000 0.007219 -159.1 0.999965 -68.90 0.999965 -68.90 0.007219 -158.6
8.72220000 0.007223 -159.1 0.999965 -68.90 0.999965 -68.90 0.007223 -158.6
8.72230000 0.007226 -159.1 0.999965 -68.90 0.999965 -68.90 0.007226 -158.6
8.72240000 0.007230 -159.1 0.999965 -68.90 0.999965 -68.90 0.007230 -158.6
8.72250000 0.007234 -159.1 0.999965 -68.90 0.999965 -68.90 0.007234 -158.6
8.72260000 0.007238 -159.1 0.999965 -68.91 0.999965 -68.91 0.007238 -158.6
8.72270000 0.007241 -159.1 0.999965 -68.91 0.999965 -68.91 0.007241 -158.6
8.72280000 0.007245 -159.1 0.999965 -68.91 0.999965 -68.91 0.007245 -158.6
8.72290000 0.007249 -159.1 0.999965 -68.91 0.999965 -68.91 0.007249 -158.6
8.72300000 0.007252 -159.1 0.999965 -68.91 0.999965 -68.91 0.007252 -158.6
8.72310000 0.007256 -159.1 0.999964 -68.91 0.999964 -68.91 0.007256 -158.6
8.72320000 0.007260 -159.1 0.999964 -68.91 0.999964 -68.91 0.007260 -158.6
8.72330000 0.007264 -159.1 0.999964 -68.91 0.999964 -68.91 0.007264 -158.6
8.72340000 0.007267 -159.1 0.999964 -68.91 0.999964 -68.91 0.007267 -158.6
8.72350000 0.007271 -159.1 0.999964 -68.91 0.999964 -68.91 0.007271 -158.6
8.72360000 0.007275 -159.1 0.999964 -68.92 0.999964 -68.92 0.007275 -158.6
8.72370000 0.007279 -159.1 0.999964 -68.92 0.999964 -68.92 0.007279 -158.6
8.72380000 0.007282 -159.1 0.999964 -68.92 0.999964 -68.92 0.007282 -158.6
8.72390000 0.007286 -159.1 0.999964 -68.92 0.999964 -68.92 0.007286 -158.6
8.72400000 0.007290 -159.1 0.999964 -68.92 0.999964 -68.92 0.007290 -158.6
8.72410000 0.007294 -159.1 0.999964 -68.92 0.999964 -68.92 0.007294 -158.6
8.72420000 0.007297 -159.1 0.999964 -68.92 0.999964 -68.92 0.007297 -158.6
8.72430000 0.007301 -159.1 0.999964 -68.92 0.999964 -68.92 0.007301 -158.6
8.72440000 0.007305 -159.1 0.999964 -68.92 0.999964 -68.92 0.007305 -158.7
8.72450000 0.007309 -159.1 0.999964 -68.92 0.999964 -68.92 0.007309 -158.7
8.72460000 0.007312 -159.1 0.999964 -68.93 0.999964 -68.93 0.007312 -158.7
8.72470000 0.007316 -159.1 0.999964 -68.93 0.999964 -68.93 0.007316 -158.7
8.72480000 0.007320 -159.1 0.999964 -68.93 0.999964 -68.93 0.007320 -158.7
8.72490000 0.007324 -159.1 0.999964 -68.93 0.999964 -68.93 0.007324 -158.7
8.72500000 0.007328 -159.1 0.999964 -68.93 0.999964 -68.93 0.007328 -158.7
8.72510000 0.007331 -159.1 0.999964 -68.93 0.999964 -68.93 0.007331 -158.7
8.72520000 0.007335 -159.1 0.999964 -68.93 0.999964 -68.93 0.007335 -158.7
8.72530000 0.007339 -159.1 0.999964 -68.93 0.999964 -68.93 0.007339 -158.7
8.72540000 0.007343 -159.1 0.999964 -68.93 0.999964 -68.93 0.007343 -158.7
8.72550000 0.007347 -159.1 0.999964 -68.93 0.999964 -68.93 0.007347 -158.7
8.72560000 0.007350 -159.1 0.999964 -68.94 0.999964 -68.94 0.007350 -158.7
8.72570000 0.007354 -159.1 0.999964 -68.94 0.999964 -68.94 0.007354 -158.7
8.72580000 0.007358 -159.1 0.999964 -68.94 0.999964 -68.94 0.007358 -158.7
8.72590000 0.007362 -159.1 0.999964 -68.94 0.999964 -68.94 0.007362 -158.7
8.72600000 0.007366 -159.1 0.999964 -68.94 0.999964 -68.94 0.007366 -158.7
8.72610000 0.007370 -159.1 0.999964 -68.94 0.999964 -68.94 0.007370 -158.7
8.72620000 0.007373 -159.1 0.999964 -68.94 0.999964 -68.94 0.007373 -158.7
8.72630000 0.007377 -159.1 0.999964 -68.94 0.999964 -68.94 0.007377 -158.7
8.72640000 0.007381 -159.2 0.999964 -68.94 0.999964 -68.94 0.007381 -158.7
8.72650000 0.007385 -159.2 0.999964 -68.94 0.999964 -68.94 0.007385 -158.7
8.72660000 0.007389 -159.2 0.999963 -68.95 0.999963 -68.95 0.007389 -158.7
8.72670000 0.007393 -159.2 0.999963 -68.95 0.999963 -68.95 0.007393 -158.7
8.72680000 0.007396 -159.2 0.999963 -68.95 0.999963 -68.95 0.007396 -158.7
8.72690000 0.007400 -159.2 0.999963 -68.95 0.999963 -68.95 0.007400 -158.7
8.72700000 0.007404 -159.2 0.999963 -68.95 0.999963 -68.95 0.007404 -158.7
8.72710000 0.007408 -159.2 0.999963 -68.95 0.999963 -68.95 0.007408 -158.7
8.72720000 0.007412 -159.2 0.999963 -68.95 0.999963 -68.95 0.007412 -158.7
8.72730000 0.007416 -159.2 0.999963 -68.95 0.999963 -68.95 0.007416 -158.7
8.72740000 0.007420 -159.2 0.999963 -68.95 0.999963 -68.95 0.007420 -158.7
8.72750000 0.007423 -159.2 0.999963 -68.95 0.999963 -68.95 0.007423 -158.7
8.72760000 0.007427 -159.2 0.999963 -68.96 0.999963 -68.96 0.007427 -158.7
8.72770000 0.007431 -159.2 0.999963 -68.96 0.999963 -68.96 0.007431 -158.7
8.72780000 0.007435 -159.2 0.999963 -68.96 0.999963 -68.96 0.007435 -158.7
8.72790000 0.007439 -159.2 0.999963 -68.96 0.999963 -68.96 0.007439 -158.7
8.72800000 0.007443 -159.2 0.999963 -68.96 0.999963 -68.96 0.007443 -158.7
8.72810000 0.007447 -159.2 0.999963 -68.96 0.999963 -68.96 0.007447 -158.7
8.72820000 0.007451 -159.2 0.999963 -68.96 0.999963 -68.96 0.007451 -158.7
8.72830000 0.007455 -159.2 0.999963 -68.96 0.999963 -68.96 0.007455 -158.7
8.72840000 0.007458 -159.2 0.999963 -68.96 0.999963 -68.96 0.007459 -158.7
8.72850000 0.007462 -159.2 0.999963 -68.96 0.999963 -68.96 0.007462 -158.7
8.72860000 0.007466 -159.2 0.999963 -68.97 0.999963 -68.97 0.007466 -158.7
8.72870000 0.007470 -159.2 0.999963 -68.97 0.999963 -68.97 0.007470 -158.7
8.72880000 0.007474 -159.2 0.999963 -68.97 0.999963 -68.97 0.007474 -158.7
8.72890000 0.007478 -159.2 0.999963 -68.97 0.999963 -68.97 0.007478 -158.7
8.72900000 0.007482 -159.2 0.999963 -68.97 0.999963 -68.97 0.007482 -158.7
8.72910000 0.007486 -159.2 0.999963 -68.97 0.999963 -68.97 0.007486 -158.7
8.72920000 0.007490 -159.2 0.999963 -68.97 0.999963 -68.97 0.007490 -158.7
8.72930000 0.007494 -159.2 0.999963 -68.97 0.999963 -68.97 0.007494 -158.7
8.72940000 0.007498 -159.2 0.999963 -68.97 0.999963 -68.97 0.007498 -158.7
8.72950000 0.007502 -159.2 0.999963 -68.97 0.999963 -68.97 0.007502 -158.7
8.72960000 0.007506 -159.2 0.999963 -68.98 0.999963 -68.98 0.007506 -158.7
8.72970000 0.007510 -159.2 0.999963 -68.98 0.999963 -68.98 0.007510 -158.7
8.72980000 0.007514 -159.2 0.999962 -68.98 0.999962 -68.98 0.007514 -158.7
8.72990000 0.007518 -159.2 0.999962 -68.98 0.999962 -68.98 0.007518 -158.7
8.73000000 0.007522 -159.2 0.999962 -68.98 0.999962 -68.98 0.007522 -158.7
8.73010000 0.007525 -159.2 0.999962 -68.98 0.999962 -68.98 0.007526 -158.7
8.73020000 0.007529 -159.2 0.999962 -68.98 0.999962 -68.98 0.007529 -158.7
8.73030000 0.007533 -159.2 0.999962 -68.98 0.999962 -68.98 0.007533 -158.7
8.73040000 0.007537 -159.2 0.999962 -68.98 0.999962 -68.98 0.007537 -158.7
8.73050000 0.007541 -159.2 0.999962 -68.98 0.999962 -68.98 0.007541 -158.7
8.73060000 0.007545 -159.2 0.999962 -68.99 0.999962 -68.99 0.007545 -158.7
8.73070000 0.007549 -159.2 0.999962 -68.99 0.999962 -68.99 0.007549 -158.7
8.73080000 0.007553 -159.2 0.999962 -68.99 0.999962 -68.99 0.007553 -158.7
8.73090000 0.007557 -159.2 0.999962 -68.99 0.999962 -68.99 0.007557 -158.7
8.73100000 0.007561 -159.2 0.999962 -68.99 0.999962 -68.99 0.007561 -158.7
8.73110000 0.007565 -159.2 0.999962 -68.99 0.999962 -68.99 0.007565 -158.7
8.73120000 0.007569 -159.2 0.999962 -68.99 0.999962 -68.99 0.007569 -158.7
8.73130000 0.007573 -159.2 0.999962 -68.99 0.999962 -68.99 0.007573 -158.7
8.73140000 0.007577 -159.2 0.999962 -68.99 0.999962 -68.99 0.007577 -158.7
8.73150000 0.007581 -159.2 0.999962 -68.99 0.999962 -68.99 0.007581 -158.7
8.73160000 0.007585 -159.2 0.999962 -69.00 0.999962 -69.00 0.007585 -158.7
8.73170000 0.007589 -159.2 0.999962 -69.00 0.999962 -69.00 0.007590 -158.7
8.73180000 0.007594 -159.2 0.999962 -69.00 0.999962 -69.00 0.007594 -158.7
8.73190000 0.007598 -159.2 0.999962 -69.00 0.999962 -69.00 0.007598 -158.7
8.73200000 0.007602 -159.2 0.999962 -69.00 0.999962 -69.00 0.007602 -158.7
8.73210000 0.007606 -159.2 0.999962 -69.00 0.999962 -69.00 0.007606 -158.7
8.73220000 0.007610 -159.2 0.999962 -69.00 0.999962 -69.00 0.007610 -158.7
8.73230000 0.007614 -159.2 0.999962 -69.00 0.999962 -69.00 0.007614 -158.7
8.73240000 0.007618 -159.2 0.999962 -69.00 0.999962 -69.00 0.007618 -158.8
8.73250000 0.007622 -159.2 0.999962 -69.00 0.999962 -69.00 0.007622 -158.8
8.73260000 0.007626 -159.2 0.999962 -69.01 0.999962 -69.01 0.007626 -158.8
8.73270000 0.007630 -159.2 0.999962 -69.01 0.999962 -69.01 0.007630 -158.8
8.73280000 0.007634 -159.2 0.999962 -69.01 0.999962 -69.01 0.007634 -158.8
8.73290000 0.007638 -159.2 0.999962 -69.01 0.999962 -69.01 0.007638 -158.8
8.73300000 0.007642 -159.2 0.999961 -69.01 0.999961 -69.01 0.007642 -158.8
8.73310000 0.007646 -159.2 0.999961 -69.01 0.999961 -69.01 0.007646 -158.8
8.73320000 0.007650 -159.2 0.999961 -69.01 0.999961 -69.01 0.007650 -158.8
8.73330000 0.007654 -159.2 0.999961 -69.01 0.999961 -69.01 0.007654 -158.8
8.73340000 0.007659 -159.2 0.999961 -69.01 0.999961 -69.01 0.007659 -158.8
8.73350000 0.007663 -159.2 0.999961 -69.02 0.999961 -69.02 0.007663 -158.8
8.73360000 0.007667 -159.2 0.999961 -69.02 0.999961 -69.02 0.007667 -158.8
8.73370000 0.007671 -159.2 0.999961 -69.02 0.999961 -69.02 0.007671 -158.8
8.73380000 0.007675 -159.2 0.999961 -69.02 0.999961 -69.02 0.007675 -158.8
8.73390000 0.007679 -159.2 0.999961 -69.02 0.999961 -69.02 0.007679 -158.8
8.73400000 0.007683 -159.2 0.999961 -69.02 0.999961 -69.02 0.007683 -158.8
8.73410000 0.007687 -159.2 0.999961 -69.02 0.999961 -69.02 0.007687 -158.8
8.73420000 0.007691 -159.2 0.999961 -69.02 0.999961 -69.02 0.007691 -158.8
8.73430000 0.007696 -159.2 0.999961 -69.02 0.999961 -69.02 0.007696 -158.8
8.73440000 0.007700 -159.2 0.999961 -69.02 0.999961 -69.02 0.007700 -158.8
8.73450000 0.007704 -159.2 0.999961 -69.03 0.999961 -69.03 0.007704 -158.8
8.73460000 0.007708 -159.2 0.999961 -69.03 0.999961 -69.03 0.007708 -158.8
8.73470000 0.007712 -159.2 0.999961 -69.03 0.999961 -69.03 0.007712 -158.8
8.73480000 0.007716 -159.2 0.999961 -69.03 0.999961 -69.03 0.007716 -158.8
8.73490000 0.007720 -159.2 0.999961 -69.03 0.999961 -69.03 0.007720 -158.8
8.73500000 0.007725 -159.2 0.999961 -69.03 0.999961 -69.03 0.007725 -158.8
8.73510000 0.007729 -159.2 0.999961 -69.03 0.999961 -69.03 0.007729 -158.8
8.73520000 0.007733 -159.2 0.999961 -69.03 0.999961 -69.03 0.007733 -158.8
8.73530000 0.007737 -159.2 0.999961 -69.03 0.999961 -69.03 0.007737 -158.8
8.73540000 0.007741 -159.2 0.999961 -69.03 0.999961 -69.03 0.007741 -158.8
8.73550000 0.007745 -159.2 0.999961 -69.04 0.999961 -69.04 0.007745 -158.8
8.73560000 0.007750 -159.2 0.999961 -69.04 0.999961 -69.04 0.007750 -158.8
8.73570000 0.007754 -159.2 0.999961 -69.04 0.999961 -69.04 0.007754 -158.8
8.73580000 0.007758 -159.2 0.999961 -69.04 0.999961 -69.04 0.007758 -158.8
8.73590000 0.007762 -159.2 0.999961 -69.04 0.999961 -69.04 0.007762 -158.8
8.73600000 0.007766 -159.2 0.999960 -69.04 0.999960 -69.04 0.007766 -158.8
8.73610000 0.007771 -159.2 0.999960 -69.04 0.999960 -69.04 0.007771 -158.8
8.73620000 0.007775 -159.2 0.999960 -69.04 0.999960 -69.04 0.007775 -158.8
8.73630000 0.007779 -159.2 0.999960 -69.04 0.999960 -69.04 0.007779 -158.8
8.73640000 0.007783 -159.2 0.999960 -69.04 0.999960 -69.04 0.007783 -158.8
8.73650000 0.007787 -159.2 0.999960 -69.05 0.999960 -69.05 0.007787 -158.8
8.73660000 0.007792 -159.2 0.999960 -69.05 0.999960 -69.05 0.007792 -158.8
8.73670000 0.007796 -159.2 0.999960 -69.05 0.999960 -69.05 0.007796 -158.8
8.73680000 0.007800 -159.2 0.999960 -69.05 0.999960 -69.05 0.007800 -158.8
8.73690000 0.007804 -159.2 0.999960 -69.05 0.999960 -69.05 0.007804 -158.8
8.73700000 0.007808 -159.2 0.999960 -69.05 0.999960 -69.05 0.007809 -158.8
8.73710000 0.007813 -159.2 0.999960 -69.05 0.999960 -69.05 0.007813 -158.8
8.73720000 0.007817 -159.2 0.999960 -69.05 0.999960 -69.05 0.007817 -158.8
8.73730000 0.007821 -159.2 0.999960 -69.05 0.999960 -69.05 0.007821 -158.8
8.73740000 0.007825 -159.2 0.999960 -69.06 0.999960 -69.06 0.007826 -158.8
8.73750000 0.007830 -159.2 0.999960 -69.06 0.999960 -69.06 0.007830 -158.8
8.73760000 0.007834 -159.2 0.999960 -69.06 0.999960 -69.06 0.007834 -158.8
8.73770000 0.007838 -159.2 0.999960 -69.06 0.999960 -69.06 0.007838 -158.8
8.73780000 0.007843 -159.2 0.999960 -69.06 0.999960 -69.06 0.007843 -158.8
8.73790000 0.007847 -159.2 0.999960 -69.06 0.999960 -69.06 0.007847 -158.8
8.73800000 0.007851 -159.2 0.999960 -69.06 0.999960 -69.06 0.007851 -158.8
8.73810000 0.007855 -159.2 0.999960 -69.06 0.999960 -69.06 0.007855 -158.8
8.73820000 0.007860 -159.2 0.999960 -69.06 0.999960 -69.06 0.007860 -158.8
8.73830000 0.007864 -159.2 0.999960 -69.06 0.999960 -69.06 0.007864 -158.8
8.73840000 0.007868 -159.2 0.999960 -69.07 0.999960 -69.07 0.007868 -158.8
8.73850000 0.007873 -159.2 0.999960 -69.07 0.999960 -69.07 0.007873 -158.8
8.73860000 0.007877 -159.2 0.999960 -69.07 0.999960 -69.07 0.007877 -158.8
8.73870000 0.007881 -159.3 0.999960 -69.07 0.999960 -69.07 0.007881 -158.8
8.73880000 0.007885 -159.3 0.999960 -69.07 0.999960 -69.07 0.007885 -158.8
8.73890000 0.007890 -159.3 0.999959 -69.07 0.999959 -69.07 0.007890 -158.8
8.73900000 0.007894 -159.3 0.999959 -69.07 0.999959 -69.07 0.007894 -158.8
8.73910000 0.007898 -159.3 0.999959 -69.07 0.999959 -69.07 0.007898 -158.8
8.73920000 0.007903 -159.3 0.999959 -69.07 0.999959 -69.07 0.007903 -158.8