! Sonnet Data File
! From: emgraph Version : 16.52
! From Project: transmon_trial2
! Data is De-embedded 
! Data File Written: 10/20/2017 11:33:10
!< HDATE 10/20/2017 10:41:42
!< MDATE 10/20/2017 10:41:42
!< PARAMS
!< Lj = 15.24
!< Gap = 26.0
!< Width = 40.0
!< Airgap = 24.0
!< Pwidth = 2000.0
!< END PARAMS
# GHZ S MA R 43.50000
8.70000000 0.002485 -161.1 0.999988 -69.19 0.999988 -69.19 0.002486 -157.1
!< P1 F=8.7 Eeff=(4.81555861 -6.2189e-5) Z0=(43.3296017 -1.7655e-4) R=0.0 C=0.0 
!< P2 F=8.7 Eeff=(4.81555861 -6.2189e-5) Z0=(43.3296017 -1.7655e-4) R=0.0 C=0.0 
8.70010000 0.002488 -161.1 0.999988 -69.19 0.999988 -69.19 0.002489 -157.1
8.70020000 0.002491 -161.1 0.999988 -69.19 0.999988 -69.19 0.002492 -157.1
8.70030000 0.002494 -161.1 0.999988 -69.19 0.999988 -69.19 0.002495 -157.1
8.70040000 0.002498 -161.1 0.999988 -69.20 0.999988 -69.20 0.002498 -157.1
8.70050000 0.002501 -161.1 0.999988 -69.20 0.999988 -69.20 0.002501 -157.1
8.70060000 0.002504 -161.1 0.999988 -69.20 0.999988 -69.20 0.002504 -157.1
8.70070000 0.002507 -161.1 0.999988 -69.20 0.999988 -69.20 0.002507 -157.1
8.70080000 0.002510 -161.1 0.999988 -69.20 0.999988 -69.20 0.002510 -157.1
8.70090000 0.002513 -161.1 0.999988 -69.20 0.999988 -69.20 0.002513 -157.1
8.70100000 0.002516 -161.1 0.999988 -69.20 0.999988 -69.20 0.002516 -157.1
8.70110000 0.002519 -161.1 0.999988 -69.20 0.999988 -69.20 0.002519 -157.2
8.70120000 0.002522 -161.1 0.999988 -69.20 0.999988 -69.20 0.002522 -157.2
8.70130000 0.002525 -161.1 0.999988 -69.20 0.999988 -69.20 0.002525 -157.2
8.70140000 0.002528 -161.1 0.999988 -69.21 0.999988 -69.21 0.002528 -157.2
8.70150000 0.002531 -161.1 0.999988 -69.21 0.999988 -69.21 0.002531 -157.2
8.70160000 0.002534 -161.1 0.999988 -69.21 0.999988 -69.21 0.002534 -157.2
8.70170000 0.002537 -161.1 0.999988 -69.21 0.999988 -69.21 0.002537 -157.2
8.70180000 0.002540 -161.1 0.999988 -69.21 0.999988 -69.21 0.002540 -157.2
8.70190000 0.002543 -161.1 0.999988 -69.21 0.999988 -69.21 0.002543 -157.2
8.70200000 0.002546 -161.1 0.999988 -69.21 0.999988 -69.21 0.002546 -157.2
8.70210000 0.002549 -161.1 0.999988 -69.21 0.999988 -69.21 0.002550 -157.2
8.70220000 0.002552 -161.1 0.999988 -69.21 0.999988 -69.21 0.002553 -157.2
8.70230000 0.002555 -161.1 0.999988 -69.21 0.999988 -69.21 0.002556 -157.2
8.70240000 0.002558 -161.1 0.999988 -69.21 0.999988 -69.21 0.002559 -157.2
8.70250000 0.002562 -161.1 0.999988 -69.22 0.999988 -69.22 0.002562 -157.2
8.70260000 0.002565 -161.1 0.999988 -69.22 0.999988 -69.22 0.002565 -157.2
8.70270000 0.002568 -161.1 0.999988 -69.22 0.999988 -69.22 0.002568 -157.2
8.70280000 0.002571 -161.1 0.999988 -69.22 0.999988 -69.22 0.002571 -157.2
8.70290000 0.002574 -161.1 0.999988 -69.22 0.999988 -69.22 0.002574 -157.2
8.70300000 0.002577 -161.1 0.999988 -69.22 0.999988 -69.22 0.002577 -157.2
8.70310000 0.002580 -161.1 0.999988 -69.22 0.999988 -69.22 0.002580 -157.2
8.70320000 0.002583 -161.1 0.999988 -69.22 0.999988 -69.22 0.002583 -157.2
8.70330000 0.002586 -161.1 0.999988 -69.22 0.999988 -69.22 0.002587 -157.2
8.70340000 0.002589 -161.1 0.999988 -69.22 0.999988 -69.22 0.002590 -157.2
8.70350000 0.002592 -161.1 0.999988 -69.23 0.999988 -69.23 0.002593 -157.2
8.70360000 0.002596 -161.0 0.999988 -69.23 0.999988 -69.23 0.002596 -157.2
8.70370000 0.002599 -161.0 0.999988 -69.23 0.999988 -69.23 0.002599 -157.2
8.70380000 0.002602 -161.0 0.999988 -69.23 0.999988 -69.23 0.002602 -157.2
8.70390000 0.002605 -161.0 0.999988 -69.23 0.999988 -69.23 0.002605 -157.3
8.70400000 0.002608 -161.0 0.999988 -69.23 0.999988 -69.23 0.002608 -157.3
8.70410000 0.002611 -161.0 0.999988 -69.23 0.999988 -69.23 0.002611 -157.3
8.70420000 0.002614 -161.0 0.999988 -69.23 0.999988 -69.23 0.002614 -157.3
8.70430000 0.002617 -161.0 0.999988 -69.23 0.999988 -69.23 0.002618 -157.3
8.70440000 0.002620 -161.0 0.999988 -69.23 0.999988 -69.23 0.002621 -157.3
8.70450000 0.002624 -161.0 0.999988 -69.24 0.999988 -69.24 0.002624 -157.3
8.70460000 0.002627 -161.0 0.999988 -69.24 0.999988 -69.24 0.002627 -157.3
8.70470000 0.002630 -161.0 0.999988 -69.24 0.999988 -69.24 0.002630 -157.3
8.70480000 0.002633 -161.0 0.999988 -69.24 0.999988 -69.24 0.002633 -157.3
8.70490000 0.002636 -161.0 0.999988 -69.24 0.999988 -69.24 0.002636 -157.3
8.70500000 0.002639 -161.0 0.999988 -69.24 0.999988 -69.24 0.002640 -157.3
8.70510000 0.002642 -161.0 0.999988 -69.24 0.999988 -69.24 0.002643 -157.3
8.70520000 0.002646 -161.0 0.999988 -69.24 0.999988 -69.24 0.002646 -157.3
8.70530000 0.002649 -161.0 0.999988 -69.24 0.999988 -69.24 0.002649 -157.3
8.70540000 0.002652 -161.0 0.999988 -69.24 0.999988 -69.24 0.002652 -157.3
8.70550000 0.002655 -161.0 0.999988 -69.24 0.999988 -69.24 0.002655 -157.3
8.70560000 0.002658 -161.0 0.999988 -69.25 0.999988 -69.25 0.002658 -157.3
8.70570000 0.002661 -161.0 0.999988 -69.25 0.999988 -69.25 0.002662 -157.3
8.70580000 0.002664 -161.0 0.999988 -69.25 0.999988 -69.25 0.002665 -157.3
8.70590000 0.002668 -161.0 0.999988 -69.25 0.999988 -69.25 0.002668 -157.3
8.70600000 0.002671 -161.0 0.999988 -69.25 0.999988 -69.25 0.002671 -157.3
8.70610000 0.002674 -161.0 0.999988 -69.25 0.999988 -69.25 0.002674 -157.3
8.70620000 0.002677 -161.0 0.999988 -69.25 0.999988 -69.25 0.002677 -157.3
8.70630000 0.002680 -161.0 0.999988 -69.25 0.999988 -69.25 0.002681 -157.3
8.70640000 0.002683 -161.0 0.999988 -69.25 0.999988 -69.25 0.002684 -157.3
8.70650000 0.002687 -161.0 0.999988 -69.25 0.999988 -69.25 0.002687 -157.3
8.70660000 0.002690 -161.0 0.999988 -69.26 0.999988 -69.26 0.002690 -157.3
8.70670000 0.002693 -161.0 0.999988 -69.26 0.999988 -69.26 0.002693 -157.4
8.70680000 0.002696 -161.0 0.999988 -69.26 0.999988 -69.26 0.002696 -157.4
8.70690000 0.002699 -161.0 0.999988 -69.26 0.999988 -69.26 0.002700 -157.4
8.70700000 0.002703 -161.0 0.999988 -69.26 0.999988 -69.26 0.002703 -157.4
8.70710000 0.002706 -161.0 0.999988 -69.26 0.999988 -69.26 0.002706 -157.4
8.70720000 0.002709 -161.0 0.999988 -69.26 0.999988 -69.26 0.002709 -157.4
8.70730000 0.002712 -161.0 0.999988 -69.26 0.999988 -69.26 0.002712 -157.4
8.70740000 0.002715 -161.0 0.999988 -69.26 0.999988 -69.26 0.002716 -157.4
8.70750000 0.002719 -161.0 0.999988 -69.26 0.999988 -69.26 0.002719 -157.4
8.70760000 0.002722 -161.0 0.999988 -69.27 0.999988 -69.27 0.002722 -157.4
8.70770000 0.002725 -161.0 0.999988 -69.27 0.999988 -69.27 0.002725 -157.4
8.70780000 0.002728 -161.0 0.999988 -69.27 0.999988 -69.27 0.002728 -157.4
8.70790000 0.002731 -161.0 0.999988 -69.27 0.999988 -69.27 0.002732 -157.4
8.70800000 0.002735 -161.0 0.999988 -69.27 0.999988 -69.27 0.002735 -157.4
8.70810000 0.002738 -161.0 0.999988 -69.27 0.999988 -69.27 0.002738 -157.4
8.70820000 0.002741 -161.0 0.999988 -69.27 0.999988 -69.27 0.002741 -157.4
8.70830000 0.002744 -161.0 0.999988 -69.27 0.999988 -69.27 0.002745 -157.4
8.70840000 0.002747 -161.0 0.999987 -69.27 0.999987 -69.27 0.002748 -157.4
8.70850000 0.002751 -161.0 0.999987 -69.27 0.999987 -69.27 0.002751 -157.4
8.70860000 0.002754 -161.0 0.999987 -69.28 0.999987 -69.28 0.002754 -157.4
8.70870000 0.002757 -161.0 0.999987 -69.28 0.999987 -69.28 0.002757 -157.4
8.70880000 0.002760 -161.0 0.999987 -69.28 0.999987 -69.28 0.002761 -157.4
8.70890000 0.002764 -161.0 0.999987 -69.28 0.999987 -69.28 0.002764 -157.4
8.70900000 0.002767 -161.0 0.999987 -69.28 0.999987 -69.28 0.002767 -157.4
8.70910000 0.002770 -161.0 0.999987 -69.28 0.999987 -69.28 0.002770 -157.4
8.70920000 0.002773 -161.0 0.999987 -69.28 0.999987 -69.28 0.002774 -157.4
8.70930000 0.002777 -161.0 0.999987 -69.28 0.999987 -69.28 0.002777 -157.4
8.70940000 0.002780 -161.0 0.999987 -69.28 0.999987 -69.28 0.002780 -157.4
8.70950000 0.002783 -161.0 0.999987 -69.28 0.999987 -69.28 0.002783 -157.4
8.70960000 0.002786 -161.0 0.999987 -69.28 0.999987 -69.28 0.002787 -157.4
8.70970000 0.002790 -161.0 0.999987 -69.29 0.999987 -69.29 0.002790 -157.5
8.70980000 0.002793 -161.0 0.999987 -69.29 0.999987 -69.29 0.002793 -157.5
8.70990000 0.002796 -161.0 0.999987 -69.29 0.999987 -69.29 0.002797 -157.5
8.71000000 0.002800 -161.0 0.999987 -69.29 0.999987 -69.29 0.002800 -157.5
8.71010000 0.002803 -161.0 0.999987 -69.29 0.999987 -69.29 0.002803 -157.5
8.71020000 0.002806 -161.0 0.999987 -69.29 0.999987 -69.29 0.002806 -157.5
8.71030000 0.002809 -161.0 0.999987 -69.29 0.999987 -69.29 0.002810 -157.5
8.71040000 0.002813 -161.0 0.999987 -69.29 0.999987 -69.29 0.002813 -157.5
8.71050000 0.002816 -161.0 0.999987 -69.29 0.999987 -69.29 0.002816 -157.5
8.71060000 0.002819 -161.0 0.999987 -69.29 0.999987 -69.29 0.002819 -157.5
8.71070000 0.002822 -161.0 0.999987 -69.30 0.999987 -69.30 0.002823 -157.5
8.71080000 0.002826 -161.0 0.999987 -69.30 0.999987 -69.30 0.002826 -157.5
8.71090000 0.002829 -161.0 0.999987 -69.30 0.999987 -69.30 0.002829 -157.5
8.71100000 0.002832 -161.0 0.999987 -69.30 0.999987 -69.30 0.002833 -157.5
8.71110000 0.002836 -161.0 0.999987 -69.30 0.999987 -69.30 0.002836 -157.5
8.71120000 0.002839 -161.0 0.999987 -69.30 0.999987 -69.30 0.002839 -157.5
8.71130000 0.002842 -161.0 0.999987 -69.30 0.999987 -69.30 0.002843 -157.5
8.71140000 0.002846 -160.9 0.999987 -69.30 0.999987 -69.30 0.002846 -157.5
8.71150000 0.002849 -160.9 0.999987 -69.30 0.999987 -69.30 0.002849 -157.5
8.71160000 0.002852 -160.9 0.999987 -69.30 0.999987 -69.30 0.002852 -157.5
8.71170000 0.002856 -160.9 0.999987 -69.31 0.999987 -69.31 0.002856 -157.5
8.71180000 0.002859 -160.9 0.999987 -69.31 0.999987 -69.31 0.002859 -157.5
8.71190000 0.002862 -160.9 0.999987 -69.31 0.999987 -69.31 0.002862 -157.5
8.71200000 0.002866 -160.9 0.999987 -69.31 0.999987 -69.31 0.002866 -157.5
8.71210000 0.002869 -160.9 0.999987 -69.31 0.999987 -69.31 0.002869 -157.5
8.71220000 0.002872 -160.9 0.999987 -69.31 0.999987 -69.31 0.002872 -157.5
8.71230000 0.002876 -160.9 0.999987 -69.31 0.999987 -69.31 0.002876 -157.5
8.71240000 0.002879 -160.9 0.999987 -69.31 0.999987 -69.31 0.002879 -157.5
8.71250000 0.002882 -160.9 0.999987 -69.31 0.999987 -69.31 0.002882 -157.5
8.71260000 0.002886 -160.9 0.999987 -69.31 0.999987 -69.31 0.002886 -157.5
8.71270000 0.002889 -160.9 0.999987 -69.32 0.999987 -69.32 0.002889 -157.6
8.71280000 0.002892 -160.9 0.999987 -69.32 0.999987 -69.32 0.002893 -157.6
8.71290000 0.002896 -160.9 0.999987 -69.32 0.999987 -69.32 0.002896 -157.6
8.71300000 0.002899 -160.9 0.999987 -69.32 0.999987 -69.32 0.002899 -157.6
8.71310000 0.002902 -160.9 0.999987 -69.32 0.999987 -69.32 0.002903 -157.6
8.71320000 0.002906 -160.9 0.999987 -69.32 0.999987 -69.32 0.002906 -157.6
8.71330000 0.002909 -160.9 0.999987 -69.32 0.999987 -69.32 0.002909 -157.6
8.71340000 0.002912 -160.9 0.999987 -69.32 0.999987 -69.32 0.002913 -157.6
8.71350000 0.002916 -160.9 0.999987 -69.32 0.999987 -69.32 0.002916 -157.6
8.71360000 0.002919 -160.9 0.999987 -69.32 0.999987 -69.32 0.002919 -157.6
8.71370000 0.002923 -160.9 0.999987 -69.33 0.999987 -69.33 0.002923 -157.6
8.71380000 0.002926 -160.9 0.999987 -69.33 0.999987 -69.33 0.002926 -157.6
8.71390000 0.002929 -160.9 0.999987 -69.33 0.999987 -69.33 0.002930 -157.6
8.71400000 0.002933 -160.9 0.999987 -69.33 0.999987 -69.33 0.002933 -157.6
8.71410000 0.002936 -160.9 0.999987 -69.33 0.999987 -69.33 0.002936 -157.6
8.71420000 0.002939 -160.9 0.999987 -69.33 0.999987 -69.33 0.002940 -157.6
8.71430000 0.002943 -160.9 0.999987 -69.33 0.999987 -69.33 0.002943 -157.6
8.71440000 0.002946 -160.9 0.999987 -69.33 0.999987 -69.33 0.002947 -157.6
8.71450000 0.002950 -160.9 0.999987 -69.33 0.999987 -69.33 0.002950 -157.6
8.71460000 0.002953 -160.9 0.999987 -69.33 0.999987 -69.33 0.002953 -157.6
8.71470000 0.002956 -160.9 0.999987 -69.34 0.999987 -69.34 0.002957 -157.6
8.71480000 0.002960 -160.9 0.999987 -69.34 0.999987 -69.34 0.002960 -157.6
8.71490000 0.002963 -160.9 0.999987 -69.34 0.999987 -69.34 0.002964 -157.6
8.71500000 0.002967 -160.9 0.999987 -69.34 0.999987 -69.34 0.002967 -157.6
8.71510000 0.002970 -160.9 0.999987 -69.34 0.999987 -69.34 0.002970 -157.6
8.71520000 0.002974 -160.9 0.999987 -69.34 0.999987 -69.34 0.002974 -157.6
8.71530000 0.002977 -160.9 0.999987 -69.34 0.999987 -69.34 0.002977 -157.6
8.71540000 0.002980 -160.9 0.999987 -69.34 0.999987 -69.34 0.002981 -157.6
8.71550000 0.002984 -160.9 0.999987 -69.34 0.999987 -69.34 0.002984 -157.6
8.71560000 0.002987 -160.9 0.999987 -69.34 0.999987 -69.34 0.002988 -157.6
8.71570000 0.002991 -160.9 0.999987 -69.35 0.999987 -69.35 0.002991 -157.6
8.71580000 0.002994 -160.9 0.999987 -69.35 0.999987 -69.35 0.002994 -157.7
8.71590000 0.002998 -160.9 0.999987 -69.35 0.999987 -69.35 0.002998 -157.7
8.71600000 0.003001 -160.9 0.999987 -69.35 0.999987 -69.35 0.003001 -157.7
8.71610000 0.003004 -160.9 0.999987 -69.35 0.999987 -69.35 0.003005 -157.7
8.71620000 0.003008 -160.9 0.999987 -69.35 0.999987 -69.35 0.003008 -157.7
8.71630000 0.003011 -160.9 0.999987 -69.35 0.999987 -69.35 0.003012 -157.7
8.71640000 0.003015 -160.9 0.999987 -69.35 0.999987 -69.35 0.003015 -157.7
8.71650000 0.003018 -160.9 0.999987 -69.35 0.999987 -69.35 0.003019 -157.7
8.71660000 0.003022 -160.9 0.999987 -69.35 0.999987 -69.35 0.003022 -157.7
8.71670000 0.003025 -160.9 0.999987 -69.36 0.999987 -69.36 0.003025 -157.7
8.71680000 0.003029 -160.9 0.999987 -69.36 0.999987 -69.36 0.003029 -157.7
8.71690000 0.003032 -160.9 0.999987 -69.36 0.999987 -69.36 0.003032 -157.7
8.71700000 0.003036 -160.9 0.999987 -69.36 0.999987 -69.36 0.003036 -157.7
8.71710000 0.003039 -160.9 0.999987 -69.36 0.999987 -69.36 0.003039 -157.7
8.71720000 0.003043 -160.9 0.999986 -69.36 0.999986 -69.36 0.003043 -157.7
8.71730000 0.003046 -160.9 0.999986 -69.36 0.999986 -69.36 0.003046 -157.7
8.71740000 0.003050 -160.9 0.999986 -69.36 0.999986 -69.36 0.003050 -157.7
8.71750000 0.003053 -160.9 0.999986 -69.36 0.999986 -69.36 0.003053 -157.7
8.71760000 0.003057 -160.9 0.999986 -69.36 0.999986 -69.36 0.003057 -157.7
8.71770000 0.003060 -160.9 0.999986 -69.36 0.999986 -69.36 0.003060 -157.7
8.71780000 0.003064 -160.9 0.999986 -69.37 0.999986 -69.37 0.003064 -157.7
8.71790000 0.003067 -160.9 0.999986 -69.37 0.999986 -69.37 0.003067 -157.7
8.71800000 0.003071 -160.9 0.999986 -69.37 0.999986 -69.37 0.003071 -157.7
8.71810000 0.003074 -160.9 0.999986 -69.37 0.999986 -69.37 0.003074 -157.7
8.71820000 0.003078 -160.9 0.999986 -69.37 0.999986 -69.37 0.003078 -157.7
8.71830000 0.003081 -160.9 0.999986 -69.37 0.999986 -69.37 0.003081 -157.7
8.71840000 0.003085 -160.9 0.999986 -69.37 0.999986 -69.37 0.003085 -157.7
8.71850000 0.003088 -160.9 0.999986 -69.37 0.999986 -69.37 0.003088 -157.7
8.71860000 0.003092 -160.9 0.999986 -69.37 0.999986 -69.37 0.003092 -157.7
8.71870000 0.003095 -160.9 0.999986 -69.37 0.999986 -69.37 0.003095 -157.7
8.71880000 0.003099 -160.9 0.999986 -69.38 0.999986 -69.38 0.003099 -157.7
8.71890000 0.003102 -160.9 0.999986 -69.38 0.999986 -69.38 0.003102 -157.7
8.71900000 0.003106 -160.9 0.999986 -69.38 0.999986 -69.38 0.003106 -157.7
8.71910000 0.003109 -160.9 0.999986 -69.38 0.999986 -69.38 0.003110 -157.8
8.71920000 0.003113 -160.9 0.999986 -69.38 0.999986 -69.38 0.003113 -157.8
8.71930000 0.003116 -160.9 0.999986 -69.38 0.999986 -69.38 0.003117 -157.8
8.71940000 0.003120 -160.9 0.999986 -69.38 0.999986 -69.38 0.003120 -157.8
8.71950000 0.003123 -160.9 0.999986 -69.38 0.999986 -69.38 0.003124 -157.8
8.71960000 0.003127 -160.9 0.999986 -69.38 0.999986 -69.38 0.003127 -157.8
8.71970000 0.003131 -160.9 0.999986 -69.38 0.999986 -69.38 0.003131 -157.8
8.71980000 0.003134 -160.9 0.999986 -69.39 0.999986 -69.39 0.003134 -157.8
8.71990000 0.003138 -160.9 0.999986 -69.39 0.999986 -69.39 0.003138 -157.8
8.72000000 0.003141 -160.9 0.999986 -69.39 0.999986 -69.39 0.003142 -157.8
8.72010000 0.003145 -160.9 0.999986 -69.39 0.999986 -69.39 0.003145 -157.8
8.72020000 0.003148 -160.9 0.999986 -69.39 0.999986 -69.39 0.003149 -157.8
8.72030000 0.003152 -160.9 0.999986 -69.39 0.999986 -69.39 0.003152 -157.8
8.72040000 0.003156 -160.9 0.999986 -69.39 0.999986 -69.39 0.003156 -157.8
8.72050000 0.003159 -160.9 0.999986 -69.39 0.999986 -69.39 0.003159 -157.8
8.72060000 0.003163 -160.9 0.999986 -69.39 0.999986 -69.39 0.003163 -157.8
8.72070000 0.003166 -160.9 0.999986 -69.39 0.999986 -69.39 0.003167 -157.8
8.72080000 0.003170 -160.9 0.999986 -69.40 0.999986 -69.40 0.003170 -157.8
8.72090000 0.003174 -160.9 0.999986 -69.40 0.999986 -69.40 0.003174 -157.8
8.72100000 0.003177 -160.9 0.999986 -69.40 0.999986 -69.40 0.003177 -157.8
8.72110000 0.003181 -160.9 0.999986 -69.40 0.999986 -69.40 0.003181 -157.8
8.72120000 0.003184 -160.9 0.999986 -69.40 0.999986 -69.40 0.003185 -157.8
8.72130000 0.003188 -160.9 0.999986 -69.40 0.999986 -69.40 0.003188 -157.8
8.72140000 0.003192 -160.8 0.999986 -69.40 0.999986 -69.40 0.003192 -157.8
8.72150000 0.003195 -160.8 0.999986 -69.40 0.999986 -69.40 0.003195 -157.8
8.72160000 0.003199 -160.8 0.999986 -69.40 0.999986 -69.40 0.003199 -157.8
8.72170000 0.003202 -160.8 0.999986 -69.40 0.999986 -69.40 0.003203 -157.8
8.72180000 0.003206 -160.8 0.999986 -69.41 0.999986 -69.41 0.003206 -157.8
8.72190000 0.003210 -160.8 0.999986 -69.41 0.999986 -69.41 0.003210 -157.8
8.72200000 0.003213 -160.8 0.999986 -69.41 0.999986 -69.41 0.003214 -157.8
8.72210000 0.003217 -160.8 0.999986 -69.41 0.999986 -69.41 0.003217 -157.8
8.72220000 0.003221 -160.8 0.999986 -69.41 0.999986 -69.41 0.003221 -157.8
8.72230000 0.003224 -160.8 0.999986 -69.41 0.999986 -69.41 0.003225 -157.8
8.72240000 0.003228 -160.8 0.999986 -69.41 0.999986 -69.41 0.003228 -157.9
8.72250000 0.003232 -160.8 0.999986 -69.41 0.999986 -69.41 0.003232 -157.9
8.72260000 0.003235 -160.8 0.999986 -69.41 0.999986 -69.41 0.003235 -157.9
8.72270000 0.003239 -160.8 0.999986 -69.41 0.999986 -69.41 0.003239 -157.9
8.72280000 0.003243 -160.8 0.999986 -69.42 0.999986 -69.42 0.003243 -157.9
8.72290000 0.003246 -160.8 0.999986 -69.42 0.999986 -69.42 0.003246 -157.9
8.72300000 0.003250 -160.8 0.999986 -69.42 0.999986 -69.42 0.003250 -157.9
8.72310000 0.003254 -160.8 0.999986 -69.42 0.999986 -69.42 0.003254 -157.9
8.72320000 0.003257 -160.8 0.999986 -69.42 0.999986 -69.42 0.003257 -157.9
8.72330000 0.003261 -160.8 0.999986 -69.42 0.999986 -69.42 0.003261 -157.9
8.72340000 0.003265 -160.8 0.999986 -69.42 0.999986 -69.42 0.003265 -157.9
8.72350000 0.003268 -160.8 0.999986 -69.42 0.999986 -69.42 0.003268 -157.9
8.72360000 0.003272 -160.8 0.999986 -69.42 0.999986 -69.42 0.003272 -157.9
8.72370000 0.003276 -160.8 0.999986 -69.42 0.999986 -69.42 0.003276 -157.9
8.72380000 0.003279 -160.8 0.999986 -69.43 0.999986 -69.43 0.003280 -157.9
8.72390000 0.003283 -160.8 0.999986 -69.43 0.999986 -69.43 0.003283 -157.9
8.72400000 0.003287 -160.8 0.999986 -69.43 0.999986 -69.43 0.003287 -157.9
8.72410000 0.003290 -160.8 0.999986 -69.43 0.999986 -69.43 0.003291 -157.9
8.72420000 0.003294 -160.8 0.999986 -69.43 0.999986 -69.43 0.003294 -157.9
8.72430000 0.003298 -160.8 0.999986 -69.43 0.999986 -69.43 0.003298 -157.9
8.72440000 0.003301 -160.8 0.999986 -69.43 0.999986 -69.43 0.003302 -157.9
8.72450000 0.003305 -160.8 0.999986 -69.43 0.999986 -69.43 0.003305 -157.9
8.72460000 0.003309 -160.8 0.999986 -69.43 0.999986 -69.43 0.003309 -157.9
8.72470000 0.003313 -160.8 0.999986 -69.44 0.999986 -69.44 0.003313 -157.9
8.72480000 0.003316 -160.8 0.999986 -69.44 0.999986 -69.44 0.003317 -157.9
8.72490000 0.003320 -160.8 0.999985 -69.44 0.999985 -69.44 0.003320 -157.9
8.72500000 0.003324 -160.8 0.999985 -69.44 0.999985 -69.44 0.003324 -157.9
8.72510000 0.003328 -160.8 0.999985 -69.44 0.999985 -69.44 0.003328 -157.9
8.72520000 0.003331 -160.8 0.999985 -69.44 0.999985 -69.44 0.003332 -157.9
8.72530000 0.003335 -160.8 0.999985 -69.44 0.999985 -69.44 0.003335 -157.9
8.72540000 0.003339 -160.8 0.999985 -69.44 0.999985 -69.44 0.003339 -157.9
8.72550000 0.003343 -160.8 0.999985 -69.44 0.999985 -69.44 0.003343 -157.9
8.72560000 0.003346 -160.8 0.999985 -69.44 0.999985 -69.44 0.003347 -157.9
8.72570000 0.003350 -160.8 0.999985 -69.45 0.999985 -69.45 0.003350 -157.9
8.72580000 0.003354 -160.8 0.999985 -69.45 0.999985 -69.45 0.003354 -158.0
8.72590000 0.003358 -160.8 0.999985 -69.45 0.999985 -69.45 0.003358 -158.0
8.72600000 0.003361 -160.8 0.999985 -69.45 0.999985 -69.45 0.003362 -158.0
8.72610000 0.003365 -160.8 0.999985 -69.45 0.999985 -69.45 0.003365 -158.0
8.72620000 0.003369 -160.8 0.999985 -69.45 0.999985 -69.45 0.003369 -158.0
8.72630000 0.003373 -160.8 0.999985 -69.45 0.999985 -69.45 0.003373 -158.0
8.72640000 0.003376 -160.8 0.999985 -69.45 0.999985 -69.45 0.003377 -158.0
8.72650000 0.003380 -160.8 0.999985 -69.45 0.999985 -69.45 0.003381 -158.0
8.72660000 0.003384 -160.8 0.999985 -69.45 0.999985 -69.45 0.003384 -158.0
8.72670000 0.003388 -160.8 0.999985 -69.46 0.999985 -69.46 0.003388 -158.0
8.72680000 0.003392 -160.8 0.999985 -69.46 0.999985 -69.46 0.003392 -158.0
8.72690000 0.003395 -160.8 0.999985 -69.46 0.999985 -69.46 0.003396 -158.0
8.72700000 0.003399 -160.8 0.999985 -69.46 0.999985 -69.46 0.003399 -158.0
8.72710000 0.003403 -160.8 0.999985 -69.46 0.999985 -69.46 0.003403 -158.0
8.72720000 0.003407 -160.8 0.999985 -69.46 0.999985 -69.46 0.003407 -158.0
8.72730000 0.003411 -160.8 0.999985 -69.46 0.999985 -69.46 0.003411 -158.0
8.72740000 0.003414 -160.8 0.999985 -69.46 0.999985 -69.46 0.003415 -158.0
8.72750000 0.003418 -160.8 0.999985 -69.46 0.999985 -69.46 0.003419 -158.0
8.72760000 0.003422 -160.8 0.999985 -69.46 0.999985 -69.46 0.003422 -158.0
8.72770000 0.003426 -160.8 0.999985 -69.47 0.999985 -69.47 0.003426 -158.0
8.72780000 0.003430 -160.8 0.999985 -69.47 0.999985 -69.47 0.003430 -158.0
8.72790000 0.003434 -160.8 0.999985 -69.47 0.999985 -69.47 0.003434 -158.0
8.72800000 0.003437 -160.8 0.999985 -69.47 0.999985 -69.47 0.003438 -158.0
8.72810000 0.003441 -160.8 0.999985 -69.47 0.999985 -69.47 0.003442 -158.0
8.72820000 0.003445 -160.8 0.999985 -69.47 0.999985 -69.47 0.003445 -158.0
8.72830000 0.003449 -160.8 0.999985 -69.47 0.999985 -69.47 0.003449 -158.0
8.72840000 0.003453 -160.8 0.999985 -69.47 0.999985 -69.47 0.003453 -158.0
8.72850000 0.003457 -160.8 0.999985 -69.47 0.999985 -69.47 0.003457 -158.0
8.72860000 0.003461 -160.8 0.999985 -69.47 0.999985 -69.47 0.003461 -158.0
8.72870000 0.003464 -160.8 0.999985 -69.48 0.999985 -69.48 0.003465 -158.0
8.72880000 0.003468 -160.8 0.999985 -69.48 0.999985 -69.48 0.003469 -158.0
8.72890000 0.003472 -160.8 0.999985 -69.48 0.999985 -69.48 0.003472 -158.0
8.72900000 0.003476 -160.8 0.999985 -69.48 0.999985 -69.48 0.003476 -158.0
8.72910000 0.003480 -160.8 0.999985 -69.48 0.999985 -69.48 0.003480 -158.0
8.72920000 0.003484 -160.8 0.999985 -69.48 0.999985 -69.48 0.003484 -158.0
8.72930000 0.003488 -160.8 0.999985 -69.48 0.999985 -69.48 0.003488 -158.1
8.72940000 0.003492 -160.8 0.999985 -69.48 0.999985 -69.48 0.003492 -158.1
8.72950000 0.003495 -160.8 0.999985 -69.48 0.999985 -69.48 0.003496 -158.1
8.72960000 0.003499 -160.8 0.999985 -69.48 0.999985 -69.48 0.003500 -158.1
8.72970000 0.003503 -160.8 0.999985 -69.49 0.999985 -69.49 0.003503 -158.1
8.72980000 0.003507 -160.8 0.999985 -69.49 0.999985 -69.49 0.003507 -158.1
8.72990000 0.003511 -160.8 0.999985 -69.49 0.999985 -69.49 0.003511 -158.1
8.73000000 0.003515 -160.8 0.999985 -69.49 0.999985 -69.49 0.003515 -158.1
8.73010000 0.003519 -160.8 0.999985 -69.49 0.999985 -69.49 0.003519 -158.1
8.73020000 0.003523 -160.8 0.999985 -69.49 0.999985 -69.49 0.003523 -158.1
8.73030000 0.003527 -160.8 0.999985 -69.49 0.999985 -69.49 0.003527 -158.1
8.73040000 0.003531 -160.8 0.999985 -69.49 0.999985 -69.49 0.003531 -158.1
8.73050000 0.003535 -160.8 0.999985 -69.49 0.999985 -69.49 0.003535 -158.1
8.73060000 0.003538 -160.8 0.999985 -69.49 0.999985 -69.49 0.003539 -158.1
8.73070000 0.003542 -160.8 0.999985 -69.50 0.999985 -69.50 0.003543 -158.1
8.73080000 0.003546 -160.8 0.999985 -69.50 0.999985 -69.50 0.003547 -158.1
8.73090000 0.003550 -160.8 0.999985 -69.50 0.999985 -69.50 0.003551 -158.1
8.73100000 0.003554 -160.8 0.999985 -69.50 0.999985 -69.50 0.003555 -158.1
8.73110000 0.003558 -160.8 0.999985 -69.50 0.999985 -69.50 0.003558 -158.1
8.73120000 0.003562 -160.8 0.999985 -69.50 0.999985 -69.50 0.003562 -158.1
8.73130000 0.003566 -160.8 0.999985 -69.50 0.999985 -69.50 0.003566 -158.1
8.73140000 0.003570 -160.8 0.999985 -69.50 0.999985 -69.50 0.003570 -158.1
8.73150000 0.003574 -160.8 0.999985 -69.50 0.999985 -69.50 0.003574 -158.1
8.73160000 0.003578 -160.8 0.999985 -69.51 0.999985 -69.51 0.003578 -158.1
8.73170000 0.003582 -160.8 0.999984 -69.51 0.999984 -69.51 0.003582 -158.1
8.73180000 0.003586 -160.8 0.999984 -69.51 0.999984 -69.51 0.003586 -158.1
8.73190000 0.003590 -160.8 0.999984 -69.51 0.999984 -69.51 0.003590 -158.1
8.73200000 0.003594 -160.8 0.999984 -69.51 0.999984 -69.51 0.003594 -158.1
8.73210000 0.003598 -160.8 0.999984 -69.51 0.999984 -69.51 0.003598 -158.1
8.73220000 0.003602 -160.8 0.999984 -69.51 0.999984 -69.51 0.003602 -158.1
8.73230000 0.003606 -160.8 0.999984 -69.51 0.999984 -69.51 0.003606 -158.1
8.73240000 0.003610 -160.8 0.999984 -69.51 0.999984 -69.51 0.003610 -158.1
8.73250000 0.003614 -160.8 0.999984 -69.51 0.999984 -69.51 0.003614 -158.1
8.73260000 0.003618 -160.8 0.999984 -69.52 0.999984 -69.52 0.003618 -158.1
8.73270000 0.003622 -160.8 0.999984 -69.52 0.999984 -69.52 0.003622 -158.1
8.73280000 0.003626 -160.8 0.999984 -69.52 0.999984 -69.52 0.003626 -158.1
8.73290000 0.003630 -160.8 0.999984 -69.52 0.999984 -69.52 0.003630 -158.2
8.73300000 0.003634 -160.8 0.999984 -69.52 0.999984 -69.52 0.003634 -158.2
8.73310000 0.003638 -160.8 0.999984 -69.52 0.999984 -69.52 0.003638 -158.2
8.73320000 0.003642 -160.8 0.999984 -69.52 0.999984 -69.52 0.003642 -158.2
8.73330000 0.003646 -160.8 0.999984 -69.52 0.999984 -69.52 0.003646 -158.2
8.73340000 0.003650 -160.8 0.999984 -69.52 0.999984 -69.52 0.003650 -158.2
8.73350000 0.003654 -160.8 0.999984 -69.52 0.999984 -69.52 0.003654 -158.2
8.73360000 0.003658 -160.8 0.999984 -69.53 0.999984 -69.53 0.003658 -158.2
8.73370000 0.003662 -160.8 0.999984 -69.53 0.999984 -69.53 0.003662 -158.2
8.73380000 0.003666 -160.8 0.999984 -69.53 0.999984 -69.53 0.003667 -158.2
8.73390000 0.003670 -160.8 0.999984 -69.53 0.999984 -69.53 0.003671 -158.2
8.73400000 0.003674 -160.8 0.999984 -69.53 0.999984 -69.53 0.003675 -158.2
8.73410000 0.003678 -160.8 0.999984 -69.53 0.999984 -69.53 0.003679 -158.2
8.73420000 0.003683 -160.8 0.999984 -69.53 0.999984 -69.53 0.003683 -158.2
8.73430000 0.003687 -160.8 0.999984 -69.53 0.999984 -69.53 0.003687 -158.2
8.73440000 0.003691 -160.8 0.999984 -69.53 0.999984 -69.53 0.003691 -158.2
8.73450000 0.003695 -160.8 0.999984 -69.53 0.999984 -69.53 0.003695 -158.2
8.73460000 0.003699 -160.8 0.999984 -69.54 0.999984 -69.54 0.003699 -158.2
8.73470000 0.003703 -160.8 0.999984 -69.54 0.999984 -69.54 0.003703 -158.2
8.73480000 0.003707 -160.8 0.999984 -69.54 0.999984 -69.54 0.003707 -158.2
8.73490000 0.003711 -160.8 0.999984 -69.54 0.999984 -69.54 0.003711 -158.2
8.73500000 0.003715 -160.8 0.999984 -69.54 0.999984 -69.54 0.003715 -158.2
8.73510000 0.003719 -160.8 0.999984 -69.54 0.999984 -69.54 0.003720 -158.2
8.73520000 0.003723 -160.8 0.999984 -69.54 0.999984 -69.54 0.003724 -158.2
8.73530000 0.003728 -160.8 0.999984 -69.54 0.999984 -69.54 0.003728 -158.2
8.73540000 0.003732 -160.8 0.999984 -69.54 0.999984 -69.54 0.003732 -158.2
8.73550000 0.003736 -160.8 0.999984 -69.55 0.999984 -69.55 0.003736 -158.2
8.73560000 0.003740 -160.8 0.999984 -69.55 0.999984 -69.55 0.003740 -158.2
8.73570000 0.003744 -160.8 0.999984 -69.55 0.999984 -69.55 0.003744 -158.2
8.73580000 0.003748 -160.8 0.999984 -69.55 0.999984 -69.55 0.003748 -158.2
8.73590000 0.003752 -160.8 0.999984 -69.55 0.999984 -69.55 0.003753 -158.2
8.73600000 0.003756 -160.8 0.999984 -69.55 0.999984 -69.55 0.003757 -158.2
8.73610000 0.003761 -160.8 0.999984 -69.55 0.999984 -69.55 0.003761 -158.2
8.73620000 0.003765 -160.8 0.999984 -69.55 0.999984 -69.55 0.003765 -158.2
8.73630000 0.003769 -160.8 0.999984 -69.55 0.999984 -69.55 0.003769 -158.2
8.73640000 0.003773 -160.7 0.999984 -69.55 0.999984 -69.55 0.003773 -158.2
8.73650000 0.003777 -160.7 0.999984 -69.56 0.999984 -69.56 0.003777 -158.3
8.73660000 0.003781 -160.7 0.999984 -69.56 0.999984 -69.56 0.003782 -158.3
8.73670000 0.003786 -160.7 0.999984 -69.56 0.999984 -69.56 0.003786 -158.3
8.73680000 0.003790 -160.7 0.999984 -69.56 0.999984 -69.56 0.003790 -158.3
8.73690000 0.003794 -160.7 0.999984 -69.56 0.999984 -69.56 0.003794 -158.3
8.73700000 0.003798 -160.7 0.999984 -69.56 0.999984 -69.56 0.003798 -158.3
8.73710000 0.003802 -160.7 0.999984 -69.56 0.999984 -69.56 0.003803 -158.3
8.73720000 0.003806 -160.7 0.999984 -69.56 0.999984 -69.56 0.003807 -158.3
8.73730000 0.003811 -160.7 0.999984 -69.56 0.999984 -69.56 0.003811 -158.3
8.73740000 0.003815 -160.7 0.999984 -69.56 0.999984 -69.56 0.003815 -158.3
8.73750000 0.003819 -160.7 0.999984 -69.57 0.999984 -69.57 0.003819 -158.3
8.73760000 0.003823 -160.7 0.999984 -69.57 0.999984 -69.57 0.003824 -158.3
8.73770000 0.003827 -160.7 0.999984 -69.57 0.999984 -69.57 0.003828 -158.3
8.73780000 0.003832 -160.7 0.999983 -69.57 0.999983 -69.57 0.003832 -158.3
8.73790000 0.003836 -160.7 0.999983 -69.57 0.999983 -69.57 0.003836 -158.3
8.73800000 0.003840 -160.7 0.999983 -69.57 0.999983 -69.57 0.003840 -158.3
8.73810000 0.003844 -160.7 0.999983 -69.57 0.999983 -69.57 0.003845 -158.3
8.73820000 0.003849 -160.7 0.999983 -69.57 0.999983 -69.57 0.003849 -158.3
8.73830000 0.003853 -160.7 0.999983 -69.57 0.999983 -69.57 0.003853 -158.3
8.73840000 0.003857 -160.7 0.999983 -69.58 0.999983 -69.58 0.003857 -158.3
8.73850000 0.003861 -160.7 0.999983 -69.58 0.999983 -69.58 0.003862 -158.3
8.73860000 0.003866 -160.7 0.999983 -69.58 0.999983 -69.58 0.003866 -158.3
8.73870000 0.003870 -160.7 0.999983 -69.58 0.999983 -69.58 0.003870 -158.3
8.73880000 0.003874 -160.7 0.999983 -69.58 0.999983 -69.58 0.003874 -158.3
8.73890000 0.003878 -160.7 0.999983 -69.58 0.999983 -69.58 0.003879 -158.3
8.73900000 0.003883 -160.7 0.999983 -69.58 0.999983 -69.58 0.003883 -158.3
8.73910000 0.003887 -160.7 0.999983 -69.58 0.999983 -69.58 0.003887 -158.3
8.73920000 0.003891 -160.7 0.999983 -69.58 0.999983 -69.58 0.003891 -158.3