! Sonnet Data File
! From: emgraph Version : 16.52
! From Emgraph Data: transmon_trial2
! Data File Written: 10/20/2017 09:49:24
!< HDATE 10/20/2017 09:16:47
!< MDATE 10/20/2017 09:16:47
!< PARAMS
!< Lj = 15.24
!< Gap = 26.0
!< Width = 20.0
!< Pwidth = 2000.0
!< END PARAMS
# GHZ S MA R 38.50000
8.70000000 0.008557 19.257 0.999955 -70.60 0.999955 -70.60 0.008557 19.491
!< P1 F=8.7 Eeff=(4.9947984 -5.8807e-5) Z0=(38.4974817 -1.2545e-4) R=0.0 C=0.0 
!< P2 F=8.7 Eeff=(4.9947984 -5.8807e-5) Z0=(38.4974817 -1.2545e-4) R=0.0 C=0.0 
8.70010000 0.008554 19.256 0.999955 -70.61 0.999955 -70.61 0.008554 19.490
8.70020000 0.008551 19.255 0.999955 -70.61 0.999955 -70.61 0.008551 19.489
8.70030000 0.008548 19.254 0.999955 -70.61 0.999955 -70.61 0.008548 19.488
8.70040000 0.008545 19.253 0.999955 -70.61 0.999955 -70.61 0.008545 19.487
8.70050000 0.008542 19.252 0.999955 -70.61 0.999955 -70.61 0.008542 19.487
8.70060000 0.008539 19.251 0.999955 -70.61 0.999955 -70.61 0.008539 19.486
8.70070000 0.008536 19.249 0.999955 -70.61 0.999955 -70.61 0.008536 19.485
8.70080000 0.008533 19.248 0.999955 -70.61 0.999955 -70.61 0.008533 19.484
8.70090000 0.008530 19.247 0.999955 -70.61 0.999955 -70.61 0.008530 19.483
8.70100000 0.008527 19.246 0.999955 -70.61 0.999955 -70.61 0.008527 19.482
8.70110000 0.008524 19.245 0.999955 -70.62 0.999955 -70.62 0.008524 19.482
8.70120000 0.008521 19.244 0.999955 -70.62 0.999955 -70.62 0.008521 19.481
8.70130000 0.008518 19.243 0.999955 -70.62 0.999955 -70.62 0.008518 19.480
8.70140000 0.008515 19.241 0.999955 -70.62 0.999955 -70.62 0.008515 19.479
8.70150000 0.008512 19.240 0.999955 -70.62 0.999955 -70.62 0.008512 19.478
8.70160000 0.008509 19.239 0.999956 -70.62 0.999956 -70.62 0.008509 19.477
8.70170000 0.008506 19.238 0.999956 -70.62 0.999956 -70.62 0.008506 19.476
8.70180000 0.008503 19.237 0.999956 -70.62 0.999956 -70.62 0.008503 19.476
8.70190000 0.008500 19.236 0.999956 -70.62 0.999956 -70.62 0.008500 19.475
8.70200000 0.008497 19.235 0.999956 -70.62 0.999956 -70.62 0.008497 19.474
8.70210000 0.008494 19.233 0.999956 -70.63 0.999956 -70.63 0.008494 19.473
8.70220000 0.008491 19.232 0.999956 -70.63 0.999956 -70.63 0.008491 19.472
8.70230000 0.008488 19.231 0.999956 -70.63 0.999956 -70.63 0.008488 19.471
8.70240000 0.008485 19.230 0.999956 -70.63 0.999956 -70.63 0.008484 19.470
8.70250000 0.008481 19.229 0.999956 -70.63 0.999956 -70.63 0.008481 19.470
8.70260000 0.008478 19.228 0.999956 -70.63 0.999956 -70.63 0.008478 19.469
8.70270000 0.008475 19.226 0.999956 -70.63 0.999956 -70.63 0.008475 19.468
8.70280000 0.008472 19.225 0.999956 -70.63 0.999956 -70.63 0.008472 19.467
8.70290000 0.008469 19.224 0.999956 -70.63 0.999956 -70.63 0.008469 19.466
8.70300000 0.008466 19.223 0.999956 -70.63 0.999956 -70.63 0.008466 19.465
8.70310000 0.008463 19.222 0.999956 -70.64 0.999956 -70.64 0.008463 19.464
8.70320000 0.008460 19.221 0.999956 -70.64 0.999956 -70.64 0.008460 19.464
8.70330000 0.008457 19.220 0.999956 -70.64 0.999956 -70.64 0.008457 19.463
8.70340000 0.008454 19.218 0.999956 -70.64 0.999956 -70.64 0.008454 19.462
8.70350000 0.008451 19.217 0.999956 -70.64 0.999956 -70.64 0.008451 19.461
8.70360000 0.008448 19.216 0.999956 -70.64 0.999956 -70.64 0.008448 19.460
8.70370000 0.008445 19.215 0.999956 -70.64 0.999956 -70.64 0.008445 19.459
8.70380000 0.008442 19.214 0.999956 -70.64 0.999956 -70.64 0.008442 19.459
8.70390000 0.008438 19.213 0.999956 -70.64 0.999956 -70.64 0.008438 19.458
8.70400000 0.008435 19.211 0.999956 -70.64 0.999956 -70.64 0.008435 19.457
8.70410000 0.008432 19.210 0.999956 -70.65 0.999956 -70.65 0.008432 19.456
8.70420000 0.008429 19.209 0.999956 -70.65 0.999956 -70.65 0.008429 19.455
8.70430000 0.008426 19.208 0.999956 -70.65 0.999956 -70.65 0.008426 19.454
8.70440000 0.008423 19.207 0.999956 -70.65 0.999956 -70.65 0.008423 19.453
8.70450000 0.008420 19.206 0.999956 -70.65 0.999956 -70.65 0.008420 19.453
8.70460000 0.008417 19.204 0.999956 -70.65 0.999956 -70.65 0.008417 19.452
8.70470000 0.008414 19.203 0.999956 -70.65 0.999956 -70.65 0.008414 19.451
8.70480000 0.008410 19.202 0.999956 -70.65 0.999956 -70.65 0.008410 19.450
8.70490000 0.008407 19.201 0.999956 -70.65 0.999956 -70.65 0.008407 19.449
8.70500000 0.008404 19.200 0.999956 -70.65 0.999956 -70.65 0.008404 19.448
8.70510000 0.008401 19.199 0.999956 -70.66 0.999956 -70.66 0.008401 19.447
8.70520000 0.008398 19.197 0.999956 -70.66 0.999956 -70.66 0.008398 19.447
8.70530000 0.008395 19.196 0.999956 -70.66 0.999956 -70.66 0.008395 19.446
8.70540000 0.008392 19.195 0.999956 -70.66 0.999956 -70.66 0.008392 19.445
8.70550000 0.008389 19.194 0.999956 -70.66 0.999956 -70.66 0.008389 19.444
8.70560000 0.008385 19.193 0.999956 -70.66 0.999956 -70.66 0.008385 19.443
8.70570000 0.008382 19.192 0.999957 -70.66 0.999957 -70.66 0.008382 19.442
8.70580000 0.008379 19.190 0.999957 -70.66 0.999957 -70.66 0.008379 19.442
8.70590000 0.008376 19.189 0.999957 -70.66 0.999957 -70.66 0.008376 19.441
8.70600000 0.008373 19.188 0.999957 -70.66 0.999957 -70.66 0.008373 19.440
8.70610000 0.008370 19.187 0.999957 -70.67 0.999957 -70.67 0.008370 19.439
8.70620000 0.008367 19.186 0.999957 -70.67 0.999957 -70.67 0.008367 19.438
8.70630000 0.008363 19.185 0.999957 -70.67 0.999957 -70.67 0.008363 19.437
8.70640000 0.008360 19.183 0.999957 -70.67 0.999957 -70.67 0.008360 19.436
8.70650000 0.008357 19.182 0.999957 -70.67 0.999957 -70.67 0.008357 19.436
8.70660000 0.008354 19.181 0.999957 -70.67 0.999957 -70.67 0.008354 19.435
8.70670000 0.008351 19.180 0.999957 -70.67 0.999957 -70.67 0.008351 19.434
8.70680000 0.008348 19.179 0.999957 -70.67 0.999957 -70.67 0.008348 19.433
8.70690000 0.008344 19.178 0.999957 -70.67 0.999957 -70.67 0.008344 19.432
8.70700000 0.008341 19.176 0.999957 -70.67 0.999957 -70.67 0.008341 19.431
8.70710000 0.008338 19.175 0.999957 -70.68 0.999957 -70.68 0.008338 19.430
8.70720000 0.008335 19.174 0.999957 -70.68 0.999957 -70.68 0.008335 19.430
8.70730000 0.008332 19.173 0.999957 -70.68 0.999957 -70.68 0.008332 19.429
8.70740000 0.008329 19.172 0.999957 -70.68 0.999957 -70.68 0.008329 19.428
8.70750000 0.008325 19.171 0.999957 -70.68 0.999957 -70.68 0.008325 19.427
8.70760000 0.008322 19.169 0.999957 -70.68 0.999957 -70.68 0.008322 19.426
8.70770000 0.008319 19.168 0.999957 -70.68 0.999957 -70.68 0.008319 19.425
8.70780000 0.008316 19.167 0.999957 -70.68 0.999957 -70.68 0.008316 19.425
8.70790000 0.008313 19.166 0.999957 -70.68 0.999957 -70.68 0.008313 19.424
8.70800000 0.008309 19.165 0.999957 -70.68 0.999957 -70.68 0.008309 19.423
8.70810000 0.008306 19.163 0.999957 -70.69 0.999957 -70.69 0.008306 19.422
8.70820000 0.008303 19.162 0.999957 -70.69 0.999957 -70.69 0.008303 19.421
8.70830000 0.008300 19.161 0.999957 -70.69 0.999957 -70.69 0.008300 19.420
8.70840000 0.008297 19.160 0.999957 -70.69 0.999957 -70.69 0.008297 19.419
8.70850000 0.008293 19.159 0.999957 -70.69 0.999957 -70.69 0.008293 19.419
8.70860000 0.008290 19.158 0.999957 -70.69 0.999957 -70.69 0.008290 19.418
8.70870000 0.008287 19.156 0.999957 -70.69 0.999957 -70.69 0.008287 19.417
8.70880000 0.008284 19.155 0.999957 -70.69 0.999957 -70.69 0.008284 19.416
8.70890000 0.008280 19.154 0.999957 -70.69 0.999957 -70.69 0.008280 19.415
8.70900000 0.008277 19.153 0.999957 -70.69 0.999957 -70.69 0.008277 19.414
8.70910000 0.008274 19.152 0.999957 -70.70 0.999957 -70.70 0.008274 19.414
8.70920000 0.008271 19.151 0.999957 -70.70 0.999957 -70.70 0.008271 19.413
8.70930000 0.008267 19.149 0.999957 -70.70 0.999957 -70.70 0.008267 19.412
8.70940000 0.008264 19.148 0.999957 -70.70 0.999957 -70.70 0.008264 19.411
8.70950000 0.008261 19.147 0.999957 -70.70 0.999957 -70.70 0.008261 19.410
8.70960000 0.008258 19.146 0.999957 -70.70 0.999957 -70.70 0.008258 19.409
8.70970000 0.008254 19.145 0.999957 -70.70 0.999957 -70.70 0.008254 19.408
8.70980000 0.008251 19.143 0.999958 -70.70 0.999958 -70.70 0.008251 19.408
8.70990000 0.008248 19.142 0.999958 -70.70 0.999958 -70.70 0.008248 19.407
8.71000000 0.008245 19.141 0.999958 -70.70 0.999958 -70.70 0.008245 19.406
8.71010000 0.008241 19.140 0.999958 -70.71 0.999958 -70.71 0.008241 19.405
8.71020000 0.008238 19.139 0.999958 -70.71 0.999958 -70.71 0.008238 19.404
8.71030000 0.008235 19.137 0.999958 -70.71 0.999958 -70.71 0.008235 19.403
8.71040000 0.008232 19.136 0.999958 -70.71 0.999958 -70.71 0.008232 19.403
8.71050000 0.008228 19.135 0.999958 -70.71 0.999958 -70.71 0.008228 19.402
8.71060000 0.008225 19.134 0.999958 -70.71 0.999958 -70.71 0.008225 19.401
8.71070000 0.008222 19.133 0.999958 -70.71 0.999958 -70.71 0.008222 19.400
8.71080000 0.008219 19.132 0.999958 -70.71 0.999958 -70.71 0.008219 19.399
8.71090000 0.008215 19.130 0.999958 -70.71 0.999958 -70.71 0.008215 19.398
8.71100000 0.008212 19.129 0.999958 -70.71 0.999958 -70.71 0.008212 19.398
8.71110000 0.008209 19.128 0.999958 -70.72 0.999958 -70.72 0.008209 19.397
8.71120000 0.008205 19.127 0.999958 -70.72 0.999958 -70.72 0.008205 19.396
8.71130000 0.008202 19.126 0.999958 -70.72 0.999958 -70.72 0.008202 19.395
8.71140000 0.008199 19.124 0.999958 -70.72 0.999958 -70.72 0.008199 19.394
8.71150000 0.008195 19.123 0.999958 -70.72 0.999958 -70.72 0.008195 19.393
8.71160000 0.008192 19.122 0.999958 -70.72 0.999958 -70.72 0.008192 19.392
8.71170000 0.008189 19.121 0.999958 -70.72 0.999958 -70.72 0.008189 19.392
8.71180000 0.008186 19.120 0.999958 -70.72 0.999958 -70.72 0.008186 19.391
8.71190000 0.008182 19.118 0.999958 -70.72 0.999958 -70.72 0.008182 19.390
8.71200000 0.008179 19.117 0.999958 -70.72 0.999958 -70.72 0.008179 19.389
8.71210000 0.008176 19.116 0.999958 -70.73 0.999958 -70.73 0.008176 19.388
8.71220000 0.008172 19.115 0.999958 -70.73 0.999958 -70.73 0.008172 19.387
8.71230000 0.008169 19.114 0.999958 -70.73 0.999958 -70.73 0.008169 19.387
8.71240000 0.008166 19.112 0.999958 -70.73 0.999958 -70.73 0.008166 19.386
8.71250000 0.008162 19.111 0.999958 -70.73 0.999958 -70.73 0.008162 19.385
8.71260000 0.008159 19.110 0.999958 -70.73 0.999958 -70.73 0.008159 19.384
8.71270000 0.008156 19.109 0.999958 -70.73 0.999958 -70.73 0.008156 19.383
8.71280000 0.008152 19.108 0.999958 -70.73 0.999958 -70.73 0.008152 19.382
8.71290000 0.008149 19.106 0.999958 -70.73 0.999958 -70.73 0.008149 19.382
8.71300000 0.008146 19.105 0.999958 -70.73 0.999958 -70.73 0.008146 19.381
8.71310000 0.008142 19.104 0.999958 -70.74 0.999958 -70.74 0.008142 19.380
8.71320000 0.008139 19.103 0.999958 -70.74 0.999958 -70.74 0.008139 19.379
8.71330000 0.008135 19.102 0.999958 -70.74 0.999958 -70.74 0.008135 19.378
8.71340000 0.008132 19.100 0.999958 -70.74 0.999958 -70.74 0.008132 19.377
8.71350000 0.008129 19.099 0.999958 -70.74 0.999958 -70.74 0.008129 19.376
8.71360000 0.008125 19.098 0.999958 -70.74 0.999958 -70.74 0.008125 19.376
8.71370000 0.008122 19.097 0.999959 -70.74 0.999959 -70.74 0.008122 19.375
8.71380000 0.008119 19.096 0.999959 -70.74 0.999959 -70.74 0.008119 19.374
8.71390000 0.008115 19.094 0.999959 -70.74 0.999959 -70.74 0.008115 19.373
8.71400000 0.008112 19.093 0.999959 -70.74 0.999959 -70.74 0.008112 19.372
8.71410000 0.008108 19.092 0.999959 -70.75 0.999959 -70.75 0.008108 19.371
8.71420000 0.008105 19.091 0.999959 -70.75 0.999959 -70.75 0.008105 19.371
8.71430000 0.008102 19.090 0.999959 -70.75 0.999959 -70.75 0.008102 19.370
8.71440000 0.008098 19.088 0.999959 -70.75 0.999959 -70.75 0.008098 19.369
8.71450000 0.008095 19.087 0.999959 -70.75 0.999959 -70.75 0.008095 19.368
8.71460000 0.008092 19.086 0.999959 -70.75 0.999959 -70.75 0.008092 19.367
8.71470000 0.008088 19.085 0.999959 -70.75 0.999959 -70.75 0.008088 19.366
8.71480000 0.008085 19.084 0.999959 -70.75 0.999959 -70.75 0.008085 19.366
8.71490000 0.008081 19.082 0.999959 -70.75 0.999959 -70.75 0.008081 19.365
8.71500000 0.008078 19.081 0.999959 -70.76 0.999959 -70.76 0.008078 19.364
8.71510000 0.008074 19.080 0.999959 -70.76 0.999959 -70.76 0.008074 19.363
8.71520000 0.008071 19.079 0.999959 -70.76 0.999959 -70.76 0.008071 19.362
8.71530000 0.008068 19.078 0.999959 -70.76 0.999959 -70.76 0.008068 19.361
8.71540000 0.008064 19.076 0.999959 -70.76 0.999959 -70.76 0.008064 19.361
8.71550000 0.008061 19.075 0.999959 -70.76 0.999959 -70.76 0.008061 19.360
8.71560000 0.008057 19.074 0.999959 -70.76 0.999959 -70.76 0.008057 19.359
8.71570000 0.008054 19.073 0.999959 -70.76 0.999959 -70.76 0.008054 19.358
8.71580000 0.008051 19.071 0.999959 -70.76 0.999959 -70.76 0.008050 19.357
8.71590000 0.008047 19.070 0.999959 -70.76 0.999959 -70.76 0.008047 19.356
8.71600000 0.008044 19.069 0.999959 -70.77 0.999959 -70.77 0.008044 19.356
8.71610000 0.008040 19.068 0.999959 -70.77 0.999959 -70.77 0.008040 19.355
8.71620000 0.008037 19.067 0.999959 -70.77 0.999959 -70.77 0.008037 19.354
8.71630000 0.008033 19.065 0.999959 -70.77 0.999959 -70.77 0.008033 19.353
8.71640000 0.008030 19.064 0.999959 -70.77 0.999959 -70.77 0.008030 19.352
8.71650000 0.008026 19.063 0.999959 -70.77 0.999959 -70.77 0.008026 19.351
8.71660000 0.008023 19.062 0.999959 -70.77 0.999959 -70.77 0.008023 19.351
8.71670000 0.008019 19.060 0.999959 -70.77 0.999959 -70.77 0.008019 19.350
8.71680000 0.008016 19.059 0.999959 -70.77 0.999959 -70.77 0.008016 19.349
8.71690000 0.008013 19.058 0.999959 -70.77 0.999959 -70.77 0.008012 19.348
8.71700000 0.008009 19.057 0.999959 -70.78 0.999959 -70.78 0.008009 19.347
8.71710000 0.008006 19.056 0.999959 -70.78 0.999959 -70.78 0.008006 19.346
8.71720000 0.008002 19.054 0.999959 -70.78 0.999959 -70.78 0.008002 19.346
8.71730000 0.007999 19.053 0.999959 -70.78 0.999959 -70.78 0.007999 19.345
8.71740000 0.007995 19.052 0.999959 -70.78 0.999959 -70.78 0.007995 19.344
8.71750000 0.007992 19.051 0.999959 -70.78 0.999959 -70.78 0.007992 19.343
8.71760000 0.007988 19.050 0.999960 -70.78 0.999960 -70.78 0.007988 19.342
8.71770000 0.007985 19.048 0.999960 -70.78 0.999960 -70.78 0.007985 19.341
8.71780000 0.007981 19.047 0.999960 -70.78 0.999960 -70.78 0.007981 19.341
8.71790000 0.007978 19.046 0.999960 -70.78 0.999960 -70.78 0.007978 19.340
8.71800000 0.007974 19.045 0.999960 -70.79 0.999960 -70.79 0.007974 19.339
8.71810000 0.007971 19.043 0.999960 -70.79 0.999960 -70.79 0.007971 19.338
8.71820000 0.007967 19.042 0.999960 -70.79 0.999960 -70.79 0.007967 19.337
8.71830000 0.007964 19.041 0.999960 -70.79 0.999960 -70.79 0.007964 19.336
8.71840000 0.007960 19.040 0.999960 -70.79 0.999960 -70.79 0.007960 19.336
8.71850000 0.007957 19.038 0.999960 -70.79 0.999960 -70.79 0.007957 19.335
8.71860000 0.007953 19.037 0.999960 -70.79 0.999960 -70.79 0.007953 19.334
8.71870000 0.007949 19.036 0.999960 -70.79 0.999960 -70.79 0.007949 19.333
8.71880000 0.007946 19.035 0.999960 -70.79 0.999960 -70.79 0.007946 19.332
8.71890000 0.007942 19.034 0.999960 -70.79 0.999960 -70.79 0.007942 19.331
8.71900000 0.007939 19.032 0.999960 -70.80 0.999960 -70.80 0.007939 19.331
8.71910000 0.007935 19.031 0.999960 -70.80 0.999960 -70.80 0.007935 19.330
8.71920000 0.007932 19.030 0.999960 -70.80 0.999960 -70.80 0.007932 19.329
8.71930000 0.007928 19.029 0.999960 -70.80 0.999960 -70.80 0.007928 19.328
8.71940000 0.007925 19.027 0.999960 -70.80 0.999960 -70.80 0.007925 19.327
8.71950000 0.007921 19.026 0.999960 -70.80 0.999960 -70.80 0.007921 19.326
8.71960000 0.007918 19.025 0.999960 -70.80 0.999960 -70.80 0.007918 19.326
8.71970000 0.007914 19.024 0.999960 -70.80 0.999960 -70.80 0.007914 19.325
8.71980000 0.007910 19.022 0.999960 -70.80 0.999960 -70.80 0.007910 19.324
8.71990000 0.007907 19.021 0.999960 -70.80 0.999960 -70.80 0.007907 19.323
8.72000000 0.007903 19.020 0.999960 -70.81 0.999960 -70.81 0.007903 19.322
8.72010000 0.007900 19.019 0.999960 -70.81 0.999960 -70.81 0.007900 19.321
8.72020000 0.007896 19.017 0.999960 -70.81 0.999960 -70.81 0.007896 19.321
8.72030000 0.007893 19.016 0.999960 -70.81 0.999960 -70.81 0.007893 19.320
8.72040000 0.007889 19.015 0.999960 -70.81 0.999960 -70.81 0.007889 19.319
8.72050000 0.007885 19.014 0.999960 -70.81 0.999960 -70.81 0.007885 19.318
8.72060000 0.007882 19.013 0.999960 -70.81 0.999960 -70.81 0.007882 19.317
8.72070000 0.007878 19.011 0.999960 -70.81 0.999960 -70.81 0.007878 19.316
8.72080000 0.007875 19.010 0.999960 -70.81 0.999960 -70.81 0.007875 19.316
8.72090000 0.007871 19.009 0.999960 -70.82 0.999960 -70.82 0.007871 19.315
8.72100000 0.007867 19.008 0.999960 -70.82 0.999960 -70.82 0.007867 19.314
8.72110000 0.007864 19.006 0.999960 -70.82 0.999960 -70.82 0.007864 19.313
8.72120000 0.007860 19.005 0.999960 -70.82 0.999960 -70.82 0.007860 19.312
8.72130000 0.007857 19.004 0.999961 -70.82 0.999961 -70.82 0.007857 19.312
8.72140000 0.007853 19.003 0.999961 -70.82 0.999961 -70.82 0.007853 19.311
8.72150000 0.007849 19.001 0.999961 -70.82 0.999961 -70.82 0.007849 19.310
8.72160000 0.007846 19.000 0.999961 -70.82 0.999961 -70.82 0.007846 19.309
8.72170000 0.007842 18.999 0.999961 -70.82 0.999961 -70.82 0.007842 19.308
8.72180000 0.007838 18.998 0.999961 -70.82 0.999961 -70.82 0.007838 19.307
8.72190000 0.007835 18.996 0.999961 -70.83 0.999961 -70.83 0.007835 19.307
8.72200000 0.007831 18.995 0.999961 -70.83 0.999961 -70.83 0.007831 19.306
8.72210000 0.007828 18.994 0.999961 -70.83 0.999961 -70.83 0.007828 19.305
8.72220000 0.007824 18.993 0.999961 -70.83 0.999961 -70.83 0.007824 19.304
8.72230000 0.007820 18.991 0.999961 -70.83 0.999961 -70.83 0.007820 19.303
8.72240000 0.007817 18.990 0.999961 -70.83 0.999961 -70.83 0.007817 19.302
8.72250000 0.007813 18.989 0.999961 -70.83 0.999961 -70.83 0.007813 19.302
8.72260000 0.007809 18.988 0.999961 -70.83 0.999961 -70.83 0.007809 19.301
8.72270000 0.007806 18.986 0.999961 -70.83 0.999961 -70.83 0.007806 19.300
8.72280000 0.007802 18.985 0.999961 -70.83 0.999961 -70.83 0.007802 19.299
8.72290000 0.007798 18.984 0.999961 -70.84 0.999961 -70.84 0.007798 19.298
8.72300000 0.007795 18.983 0.999961 -70.84 0.999961 -70.84 0.007795 19.298
8.72310000 0.007791 18.981 0.999961 -70.84 0.999961 -70.84 0.007791 19.297
8.72320000 0.007787 18.980 0.999961 -70.84 0.999961 -70.84 0.007787 19.296
8.72330000 0.007784 18.979 0.999961 -70.84 0.999961 -70.84 0.007784 19.295
8.72340000 0.007780 18.978 0.999961 -70.84 0.999961 -70.84 0.007780 19.294
8.72350000 0.007776 18.976 0.999961 -70.84 0.999961 -70.84 0.007776 19.293
8.72360000 0.007772 18.975 0.999961 -70.84 0.999961 -70.84 0.007772 19.293
8.72370000 0.007769 18.974 0.999961 -70.84 0.999961 -70.84 0.007769 19.292
8.72380000 0.007765 18.973 0.999961 -70.84 0.999961 -70.84 0.007765 19.291
8.72390000 0.007761 18.971 0.999961 -70.85 0.999961 -70.85 0.007761 19.290
8.72400000 0.007758 18.970 0.999961 -70.85 0.999961 -70.85 0.007758 19.289
8.72410000 0.007754 18.969 0.999961 -70.85 0.999961 -70.85 0.007754 19.288
8.72420000 0.007750 18.967 0.999961 -70.85 0.999961 -70.85 0.007750 19.288
8.72430000 0.007747 18.966 0.999961 -70.85 0.999961 -70.85 0.007746 19.287
8.72440000 0.007743 18.965 0.999961 -70.85 0.999961 -70.85 0.007743 19.286
8.72450000 0.007739 18.964 0.999961 -70.85 0.999961 -70.85 0.007739 19.285
8.72460000 0.007735 18.962 0.999961 -70.85 0.999961 -70.85 0.007735 19.284
8.72470000 0.007732 18.961 0.999961 -70.85 0.999961 -70.85 0.007732 19.284
8.72480000 0.007728 18.960 0.999961 -70.86 0.999961 -70.86 0.007728 19.283
8.72490000 0.007724 18.959 0.999961 -70.86 0.999961 -70.86 0.007724 19.282
8.72500000 0.007720 18.957 0.999962 -70.86 0.999962 -70.86 0.007720 19.281
8.72510000 0.007717 18.956 0.999962 -70.86 0.999962 -70.86 0.007717 19.280
8.72520000 0.007713 18.955 0.999962 -70.86 0.999962 -70.86 0.007713 19.279
8.72530000 0.007709 18.954 0.999962 -70.86 0.999962 -70.86 0.007709 19.279
8.72540000 0.007705 18.952 0.999962 -70.86 0.999962 -70.86 0.007705 19.278
8.72550000 0.007702 18.951 0.999962 -70.86 0.999962 -70.86 0.007702 19.277
8.72560000 0.007698 18.950 0.999962 -70.86 0.999962 -70.86 0.007698 19.276
8.72570000 0.007694 18.948 0.999962 -70.86 0.999962 -70.86 0.007694 19.275
8.72580000 0.007690 18.947 0.999962 -70.87 0.999962 -70.87 0.007690 19.275
8.72590000 0.007686 18.946 0.999962 -70.87 0.999962 -70.87 0.007686 19.274
8.72600000 0.007683 18.945 0.999962 -70.87 0.999962 -70.87 0.007683 19.273
8.72610000 0.007679 18.943 0.999962 -70.87 0.999962 -70.87 0.007679 19.272
8.72620000 0.007675 18.942 0.999962 -70.87 0.999962 -70.87 0.007675 19.271
8.72630000 0.007671 18.941 0.999962 -70.87 0.999962 -70.87 0.007671 19.271
8.72640000 0.007668 18.940 0.999962 -70.87 0.999962 -70.87 0.007668 19.270
8.72650000 0.007664 18.938 0.999962 -70.87 0.999962 -70.87 0.007664 19.269
8.72660000 0.007660 18.937 0.999962 -70.87 0.999962 -70.87 0.007660 19.268
8.72670000 0.007656 18.936 0.999962 -70.87 0.999962 -70.87 0.007656 19.267
8.72680000 0.007652 18.934 0.999962 -70.88 0.999962 -70.88 0.007652 19.266
8.72690000 0.007649 18.933 0.999962 -70.88 0.999962 -70.88 0.007649 19.266
8.72700000 0.007645 18.932 0.999962 -70.88 0.999962 -70.88 0.007645 19.265
8.72710000 0.007641 18.931 0.999962 -70.88 0.999962 -70.88 0.007641 19.264
8.72720000 0.007637 18.929 0.999962 -70.88 0.999962 -70.88 0.007637 19.263
8.72730000 0.007633 18.928 0.999962 -70.88 0.999962 -70.88 0.007633 19.262
8.72740000 0.007629 18.927 0.999962 -70.88 0.999962 -70.88 0.007629 19.262
8.72750000 0.007626 18.925 0.999962 -70.88 0.999962 -70.88 0.007626 19.261
8.72760000 0.007622 18.924 0.999962 -70.88 0.999962 -70.88 0.007622 19.260
8.72770000 0.007618 18.923 0.999962 -70.89 0.999962 -70.89 0.007618 19.259
8.72780000 0.007614 18.922 0.999962 -70.89 0.999962 -70.89 0.007614 19.258
8.72790000 0.007610 18.920 0.999962 -70.89 0.999962 -70.89 0.007610 19.257
8.72800000 0.007606 18.919 0.999962 -70.89 0.999962 -70.89 0.007606 19.257
8.72810000 0.007602 18.918 0.999962 -70.89 0.999962 -70.89 0.007602 19.256
8.72820000 0.007599 18.916 0.999962 -70.89 0.999962 -70.89 0.007599 19.255
8.72830000 0.007595 18.915 0.999962 -70.89 0.999962 -70.89 0.007595 19.254
8.72840000 0.007591 18.914 0.999962 -70.89 0.999962 -70.89 0.007591 19.253
8.72850000 0.007587 18.913 0.999962 -70.89 0.999962 -70.89 0.007587 19.253
8.72860000 0.007583 18.911 0.999962 -70.89 0.999962 -70.89 0.007583 19.252
8.72870000 0.007579 18.910 0.999963 -70.90 0.999963 -70.90 0.007579 19.251
8.72880000 0.007575 18.909 0.999963 -70.90 0.999963 -70.90 0.007575 19.250
8.72890000 0.007571 18.907 0.999963 -70.90 0.999963 -70.90 0.007571 19.249
8.72900000 0.007568 18.906 0.999963 -70.90 0.999963 -70.90 0.007568 19.249
8.72910000 0.007564 18.905 0.999963 -70.90 0.999963 -70.90 0.007564 19.248
8.72920000 0.007560 18.903 0.999963 -70.90 0.999963 -70.90 0.007560 19.247
8.72930000 0.007556 18.902 0.999963 -70.90 0.999963 -70.90 0.007556 19.246
8.72940000 0.007552 18.901 0.999963 -70.90 0.999963 -70.90 0.007552 19.245
8.72950000 0.007548 18.900 0.999963 -70.90 0.999963 -70.90 0.007548 19.245
8.72960000 0.007544 18.898 0.999963 -70.90 0.999963 -70.90 0.007544 19.244
8.72970000 0.007540 18.897 0.999963 -70.91 0.999963 -70.91 0.007540 19.243
8.72980000 0.007536 18.896 0.999963 -70.91 0.999963 -70.91 0.007536 19.242
8.72990000 0.007532 18.894 0.999963 -70.91 0.999963 -70.91 0.007532 19.241
8.73000000 0.007528 18.893 0.999963 -70.91 0.999963 -70.91 0.007528 19.241
8.73010000 0.007524 18.892 0.999963 -70.91 0.999963 -70.91 0.007524 19.240
8.73020000 0.007521 18.890 0.999963 -70.91 0.999963 -70.91 0.007521 19.239
8.73030000 0.007517 18.889 0.999963 -70.91 0.999963 -70.91 0.007517 19.238
8.73040000 0.007513 18.888 0.999963 -70.91 0.999963 -70.91 0.007513 19.237
8.73050000 0.007509 18.887 0.999963 -70.91 0.999963 -70.91 0.007509 19.237
8.73060000 0.007505 18.885 0.999963 -70.92 0.999963 -70.92 0.007505 19.236
8.73070000 0.007501 18.884 0.999963 -70.92 0.999963 -70.92 0.007501 19.235
8.73080000 0.007497 18.883 0.999963 -70.92 0.999963 -70.92 0.007497 19.234
8.73090000 0.007493 18.881 0.999963 -70.92 0.999963 -70.92 0.007493 19.233
8.73100000 0.007489 18.880 0.999963 -70.92 0.999963 -70.92 0.007489 19.232
8.73110000 0.007485 18.879 0.999963 -70.92 0.999963 -70.92 0.007485 19.232
8.73120000 0.007481 18.877 0.999963 -70.92 0.999963 -70.92 0.007481 19.231
8.73130000 0.007477 18.876 0.999963 -70.92 0.999963 -70.92 0.007477 19.230
8.73140000 0.007473 18.875 0.999963 -70.92 0.999963 -70.92 0.007473 19.229
8.73150000 0.007469 18.873 0.999963 -70.92 0.999963 -70.92 0.007469 19.228
8.73160000 0.007465 18.872 0.999963 -70.93 0.999963 -70.93 0.007465 19.228
8.73170000 0.007461 18.871 0.999963 -70.93 0.999963 -70.93 0.007461 19.227
8.73180000 0.007457 18.869 0.999963 -70.93 0.999963 -70.93 0.007457 19.226
8.73190000 0.007453 18.868 0.999963 -70.93 0.999963 -70.93 0.007453 19.225
8.73200000 0.007449 18.867 0.999963 -70.93 0.999963 -70.93 0.007449 19.224
8.73210000 0.007445 18.866 0.999963 -70.93 0.999963 -70.93 0.007445 19.224
8.73220000 0.007441 18.864 0.999964 -70.93 0.999964 -70.93 0.007441 19.223
8.73230000 0.007437 18.863 0.999964 -70.93 0.999964 -70.93 0.007437 19.222
8.73240000 0.007433 18.862 0.999964 -70.93 0.999964 -70.93 0.007433 19.221
8.73250000 0.007429 18.860 0.999964 -70.94 0.999964 -70.94 0.007429 19.220
8.73260000 0.007425 18.859 0.999964 -70.94 0.999964 -70.94 0.007425 19.220
8.73270000 0.007421 18.858 0.999964 -70.94 0.999964 -70.94 0.007421 19.219
8.73280000 0.007417 18.856 0.999964 -70.94 0.999964 -70.94 0.007417 19.218
8.73290000 0.007413 18.855 0.999964 -70.94 0.999964 -70.94 0.007413 19.217
8.73300000 0.007409 18.854 0.999964 -70.94 0.999964 -70.94 0.007409 19.217
8.73310000 0.007405 18.852 0.999964 -70.94 0.999964 -70.94 0.007405 19.216
8.73320000 0.007401 18.851 0.999964 -70.94 0.999964 -70.94 0.007401 19.215
8.73330000 0.007396 18.850 0.999964 -70.94 0.999964 -70.94 0.007396 19.214
8.73340000 0.007392 18.848 0.999964 -70.94 0.999964 -70.94 0.007392 19.213
8.73350000 0.007388 18.847 0.999964 -70.95 0.999964 -70.95 0.007388 19.213
8.73360000 0.007384 18.846 0.999964 -70.95 0.999964 -70.95 0.007384 19.212
8.73370000 0.007380 18.844 0.999964 -70.95 0.999964 -70.95 0.007380 19.211
8.73380000 0.007376 18.843 0.999964 -70.95 0.999964 -70.95 0.007376 19.210
8.73390000 0.007372 18.842 0.999964 -70.95 0.999964 -70.95 0.007372 19.209
8.73400000 0.007368 18.840 0.999964 -70.95 0.999964 -70.95 0.007368 19.209
8.73410000 0.007364 18.839 0.999964 -70.95 0.999964 -70.95 0.007364 19.208
8.73420000 0.007360 18.838 0.999964 -70.95 0.999964 -70.95 0.007360 19.207
8.73430000 0.007356 18.836 0.999964 -70.95 0.999964 -70.95 0.007356 19.206
8.73440000 0.007352 18.835 0.999964 -70.96 0.999964 -70.96 0.007352 19.205
8.73450000 0.007347 18.834 0.999964 -70.96 0.999964 -70.96 0.007347 19.205
8.73460000 0.007343 18.832 0.999964 -70.96 0.999964 -70.96 0.007343 19.204
8.73470000 0.007339 18.831 0.999964 -70.96 0.999964 -70.96 0.007339 19.203
8.73480000 0.007335 18.830 0.999964 -70.96 0.999964 -70.96 0.007335 19.202
8.73490000 0.007331 18.828 0.999964 -70.96 0.999964 -70.96 0.007331 19.201
8.73500000 0.007327 18.827 0.999964 -70.96 0.999964 -70.96 0.007327 19.201
8.73510000 0.007323 18.826 0.999964 -70.96 0.999964 -70.96 0.007323 19.200
8.73520000 0.007319 18.824 0.999964 -70.96 0.999964 -70.96 0.007319 19.199
8.73530000 0.007314 18.823 0.999964 -70.96 0.999964 -70.96 0.007314 19.198
8.73540000 0.007310 18.822 0.999964 -70.97 0.999964 -70.97 0.007310 19.198
8.73550000 0.007306 18.820 0.999964 -70.97 0.999964 -70.97 0.007306 19.197
8.73560000 0.007302 18.819 0.999964 -70.97 0.999964 -70.97 0.007302 19.196
8.73570000 0.007298 18.818 0.999965 -70.97 0.999965 -70.97 0.007298 19.195
8.73580000 0.007294 18.816 0.999965 -70.97 0.999965 -70.97 0.007294 19.194
8.73590000 0.007289 18.815 0.999965 -70.97 0.999965 -70.97 0.007289 19.194
8.73600000 0.007285 18.813 0.999965 -70.97 0.999965 -70.97 0.007285 19.193
8.73610000 0.007281 18.812 0.999965 -70.97 0.999965 -70.97 0.007281 19.192
8.73620000 0.007277 18.811 0.999965 -70.97 0.999965 -70.97 0.007277 19.191
8.73630000 0.007273 18.809 0.999965 -70.98 0.999965 -70.98 0.007273 19.190
8.73640000 0.007269 18.808 0.999965 -70.98 0.999965 -70.98 0.007268 19.190
8.73650000 0.007264 18.807 0.999965 -70.98 0.999965 -70.98 0.007264 19.189
8.73660000 0.007260 18.805 0.999965 -70.98 0.999965 -70.98 0.007260 19.188
8.73670000 0.007256 18.804 0.999965 -70.98 0.999965 -70.98 0.007256 19.187
8.73680000 0.007252 18.803 0.999965 -70.98 0.999965 -70.98 0.007252 19.187
8.73690000 0.007247 18.801 0.999965 -70.98 0.999965 -70.98 0.007247 19.186
8.73700000 0.007243 18.800 0.999965 -70.98 0.999965 -70.98 0.007243 19.185
8.73710000 0.007239 18.799 0.999965 -70.98 0.999965 -70.98 0.007239 19.184
8.73720000 0.007235 18.797 0.999965 -70.98 0.999965 -70.98 0.007235 19.183
8.73730000 0.007231 18.796 0.999965 -70.99 0.999965 -70.99 0.007231 19.183
8.73740000 0.007226 18.794 0.999965 -70.99 0.999965 -70.99 0.007226 19.182
8.73750000 0.007222 18.793 0.999965 -70.99 0.999965 -70.99 0.007222 19.181
8.73760000 0.007218 18.792 0.999965 -70.99 0.999965 -70.99 0.007218 19.180
8.73770000 0.007214 18.790 0.999965 -70.99 0.999965 -70.99 0.007214 19.179
8.73780000 0.007209 18.789 0.999965 -70.99 0.999965 -70.99 0.007209 19.179
8.73790000 0.007205 18.788 0.999965 -70.99 0.999965 -70.99 0.007205 19.178
8.73800000 0.007201 18.786 0.999965 -70.99 0.999965 -70.99 0.007201 19.177
8.73810000 0.007197 18.785 0.999965 -70.99 0.999965 -70.99 0.007197 19.176
8.73820000 0.007192 18.784 0.999965 -71.00 0.999965 -71.00 0.007192 19.176
8.73830000 0.007188 18.782 0.999965 -71.00 0.999965 -71.00 0.007188 19.175
8.73840000 0.007184 18.781 0.999965 -71.00 0.999965 -71.00 0.007184 19.174
8.73850000 0.007179 18.779 0.999965 -71.00 0.999965 -71.00 0.007179 19.173
8.73860000 0.007175 18.778 0.999965 -71.00 0.999965 -71.00 0.007175 19.172
8.73870000 0.007171 18.777 0.999965 -71.00 0.999965 -71.00 0.007171 19.172
8.73880000 0.007167 18.775 0.999965 -71.00 0.999965 -71.00 0.007167 19.171
8.73890000 0.007162 18.774 0.999965 -71.00 0.999965 -71.00 0.007162 19.170
8.73900000 0.007158 18.773 0.999965 -71.00 0.999965 -71.00 0.007158 19.169
8.73910000 0.007154 18.771 0.999966 -71.00 0.999966 -71.00 0.007154 19.169
8.73920000 0.007149 18.770 0.999966 -71.01 0.999966 -71.01 0.007149 19.168