! Sonnet Data File
! From: emgraph Version : 16.52
! From Project: transmon_trial2
! Data is De-embedded 
! Data File Written: 10/19/2017 21:40:57
!< HDATE 10/19/2017 20:11:27
!< MDATE 10/19/2017 20:13:29
!< PARAMS
!< Lj = 15.24
!< Gap = 16.0
!< Width = 10.0
!< Airgap = 6.0
!< Pwidth = 2000.0
!< END PARAMS
# GHZ S MA R 34.70000
8.65000000 0.010584 18.817 0.999936 -71.40 0.999936 -71.40 0.010584 18.363
!< P1 F=8.65 Eeff=(5.13426974 -5.6456e-5) Z0=(34.6544633 -9.2759e-5) R=0.0 C=0.0 
!< P2 F=8.65 Eeff=(5.13426974 -5.6456e-5) Z0=(34.6544633 -9.2759e-5) R=0.0 C=0.0 
8.65010000 0.010580 18.816 0.999936 -71.40 0.999936 -71.40 0.010580 18.362
8.65020000 0.010576 18.815 0.999936 -71.40 0.999936 -71.40 0.010576 18.361
8.65030000 0.010573 18.814 0.999936 -71.40 0.999936 -71.40 0.010573 18.360
8.65040000 0.010569 18.813 0.999936 -71.40 0.999936 -71.40 0.010569 18.359
8.65050000 0.010565 18.812 0.999936 -71.40 0.999936 -71.40 0.010565 18.358
8.65060000 0.010562 18.811 0.999936 -71.40 0.999936 -71.40 0.010562 18.357
8.65070000 0.010558 18.810 0.999936 -71.40 0.999936 -71.40 0.010558 18.356
8.65080000 0.010555 18.809 0.999936 -71.40 0.999936 -71.40 0.010555 18.355
8.65090000 0.010551 18.808 0.999936 -71.41 0.999936 -71.41 0.010551 18.354
8.65100000 0.010547 18.807 0.999936 -71.41 0.999936 -71.41 0.010547 18.353
8.65110000 0.010544 18.806 0.999936 -71.41 0.999936 -71.41 0.010544 18.352
8.65120000 0.010540 18.805 0.999936 -71.41 0.999936 -71.41 0.010540 18.351
8.65130000 0.010536 18.804 0.999936 -71.41 0.999936 -71.41 0.010536 18.350
8.65140000 0.010533 18.802 0.999936 -71.41 0.999936 -71.41 0.010533 18.349
8.65150000 0.010529 18.801 0.999936 -71.41 0.999936 -71.41 0.010529 18.348
8.65160000 0.010525 18.800 0.999937 -71.41 0.999937 -71.41 0.010525 18.346
8.65170000 0.010522 18.799 0.999937 -71.41 0.999937 -71.41 0.010522 18.345
8.65180000 0.010518 18.798 0.999937 -71.41 0.999937 -71.41 0.010518 18.344
8.65190000 0.010514 18.797 0.999937 -71.42 0.999937 -71.42 0.010514 18.343
8.65200000 0.010511 18.796 0.999937 -71.42 0.999937 -71.42 0.010511 18.342
8.65210000 0.010507 18.795 0.999937 -71.42 0.999937 -71.42 0.010507 18.341
8.65220000 0.010503 18.794 0.999937 -71.42 0.999937 -71.42 0.010503 18.340
8.65230000 0.010500 18.793 0.999937 -71.42 0.999937 -71.42 0.010500 18.339
8.65240000 0.010496 18.792 0.999937 -71.42 0.999937 -71.42 0.010496 18.338
8.65250000 0.010492 18.791 0.999937 -71.42 0.999937 -71.42 0.010492 18.337
8.65260000 0.010488 18.790 0.999937 -71.42 0.999937 -71.42 0.010489 18.336
8.65270000 0.010485 18.789 0.999937 -71.42 0.999937 -71.42 0.010485 18.335
8.65280000 0.010481 18.787 0.999937 -71.43 0.999937 -71.43 0.010481 18.334
8.65290000 0.010477 18.786 0.999937 -71.43 0.999937 -71.43 0.010477 18.333
8.65300000 0.010474 18.785 0.999937 -71.43 0.999937 -71.43 0.010474 18.332
8.65310000 0.010470 18.784 0.999937 -71.43 0.999937 -71.43 0.010470 18.331
8.65320000 0.010466 18.783 0.999937 -71.43 0.999937 -71.43 0.010466 18.330
8.65330000 0.010463 18.782 0.999937 -71.43 0.999937 -71.43 0.010463 18.329
8.65340000 0.010459 18.781 0.999937 -71.43 0.999937 -71.43 0.010459 18.328
8.65350000 0.010455 18.780 0.999937 -71.43 0.999937 -71.43 0.010455 18.327
8.65360000 0.010451 18.779 0.999937 -71.43 0.999937 -71.43 0.010451 18.326
8.65370000 0.010448 18.778 0.999937 -71.43 0.999937 -71.43 0.010448 18.325
8.65380000 0.010444 18.777 0.999937 -71.44 0.999937 -71.44 0.010444 18.324
8.65390000 0.010440 18.776 0.999937 -71.44 0.999937 -71.44 0.010440 18.323
8.65400000 0.010436 18.775 0.999937 -71.44 0.999937 -71.44 0.010436 18.322
8.65410000 0.010433 18.773 0.999937 -71.44 0.999937 -71.44 0.010433 18.321
8.65420000 0.010429 18.772 0.999937 -71.44 0.999937 -71.44 0.010429 18.320
8.65430000 0.010425 18.771 0.999938 -71.44 0.999938 -71.44 0.010425 18.319
8.65440000 0.010421 18.770 0.999938 -71.44 0.999938 -71.44 0.010421 18.318
8.65450000 0.010418 18.769 0.999938 -71.44 0.999938 -71.44 0.010418 18.317
8.65460000 0.010414 18.768 0.999938 -71.44 0.999938 -71.44 0.010414 18.316
8.65470000 0.010410 18.767 0.999938 -71.45 0.999938 -71.45 0.010410 18.314
8.65480000 0.010406 18.766 0.999938 -71.45 0.999938 -71.45 0.010406 18.313
8.65490000 0.010403 18.765 0.999938 -71.45 0.999938 -71.45 0.010403 18.312
8.65500000 0.010399 18.764 0.999938 -71.45 0.999938 -71.45 0.010399 18.311
8.65510000 0.010395 18.763 0.999938 -71.45 0.999938 -71.45 0.010395 18.310
8.65520000 0.010391 18.762 0.999938 -71.45 0.999938 -71.45 0.010391 18.309
8.65530000 0.010388 18.761 0.999938 -71.45 0.999938 -71.45 0.010388 18.308
8.65540000 0.010384 18.759 0.999938 -71.45 0.999938 -71.45 0.010384 18.307
8.65550000 0.010380 18.758 0.999938 -71.45 0.999938 -71.45 0.010380 18.306
8.65560000 0.010376 18.757 0.999938 -71.45 0.999938 -71.45 0.010376 18.305
8.65570000 0.010372 18.756 0.999938 -71.46 0.999938 -71.46 0.010372 18.304
8.65580000 0.010369 18.755 0.999938 -71.46 0.999938 -71.46 0.010369 18.303
8.65590000 0.010365 18.754 0.999938 -71.46 0.999938 -71.46 0.010365 18.302
8.65600000 0.010361 18.753 0.999938 -71.46 0.999938 -71.46 0.010361 18.301
8.65610000 0.010357 18.752 0.999938 -71.46 0.999938 -71.46 0.010357 18.300
8.65620000 0.010353 18.751 0.999938 -71.46 0.999938 -71.46 0.010353 18.299
8.65630000 0.010350 18.750 0.999938 -71.46 0.999938 -71.46 0.010350 18.298
8.65640000 0.010346 18.749 0.999938 -71.46 0.999938 -71.46 0.010346 18.297
8.65650000 0.010342 18.748 0.999938 -71.46 0.999938 -71.46 0.010342 18.296
8.65660000 0.010338 18.747 0.999938 -71.47 0.999938 -71.47 0.010338 18.295
8.65670000 0.010334 18.745 0.999938 -71.47 0.999938 -71.47 0.010334 18.294
8.65680000 0.010330 18.744 0.999938 -71.47 0.999938 -71.47 0.010330 18.293
8.65690000 0.010327 18.743 0.999938 -71.47 0.999938 -71.47 0.010327 18.292
8.65700000 0.010323 18.742 0.999939 -71.47 0.999939 -71.47 0.010323 18.291
8.65710000 0.010319 18.741 0.999939 -71.47 0.999939 -71.47 0.010319 18.290
8.65720000 0.010315 18.740 0.999939 -71.47 0.999939 -71.47 0.010315 18.289
8.65730000 0.010311 18.739 0.999939 -71.47 0.999939 -71.47 0.010311 18.288
8.65740000 0.010307 18.738 0.999939 -71.47 0.999939 -71.47 0.010307 18.287
8.65750000 0.010304 18.737 0.999939 -71.47 0.999939 -71.47 0.010304 18.285
8.65760000 0.010300 18.736 0.999939 -71.48 0.999939 -71.48 0.010300 18.284
8.65770000 0.010296 18.735 0.999939 -71.48 0.999939 -71.48 0.010296 18.283
8.65780000 0.010292 18.734 0.999939 -71.48 0.999939 -71.48 0.010292 18.282
8.65790000 0.010288 18.732 0.999939 -71.48 0.999939 -71.48 0.010288 18.281
8.65800000 0.010284 18.731 0.999939 -71.48 0.999939 -71.48 0.010284 18.280
8.65810000 0.010280 18.730 0.999939 -71.48 0.999939 -71.48 0.010280 18.279
8.65820000 0.010277 18.729 0.999939 -71.48 0.999939 -71.48 0.010277 18.278
8.65830000 0.010273 18.728 0.999939 -71.48 0.999939 -71.48 0.010273 18.277
8.65840000 0.010269 18.727 0.999939 -71.48 0.999939 -71.48 0.010269 18.276
8.65850000 0.010265 18.726 0.999939 -71.49 0.999939 -71.49 0.010265 18.275
8.65860000 0.010261 18.725 0.999939 -71.49 0.999939 -71.49 0.010261 18.274
8.65870000 0.010257 18.724 0.999939 -71.49 0.999939 -71.49 0.010257 18.273
8.65880000 0.010253 18.723 0.999939 -71.49 0.999939 -71.49 0.010253 18.272
8.65890000 0.010249 18.722 0.999939 -71.49 0.999939 -71.49 0.010249 18.271
8.65900000 0.010245 18.720 0.999939 -71.49 0.999939 -71.49 0.010245 18.270
8.65910000 0.010242 18.719 0.999939 -71.49 0.999939 -71.49 0.010242 18.269
8.65920000 0.010238 18.718 0.999939 -71.49 0.999939 -71.49 0.010238 18.268
8.65930000 0.010234 18.717 0.999939 -71.49 0.999939 -71.49 0.010234 18.267
8.65940000 0.010230 18.716 0.999939 -71.49 0.999939 -71.49 0.010230 18.266
8.65950000 0.010226 18.715 0.999939 -71.50 0.999939 -71.50 0.010226 18.265
8.65960000 0.010222 18.714 0.999940 -71.50 0.999940 -71.50 0.010222 18.264
8.65970000 0.010218 18.713 0.999940 -71.50 0.999940 -71.50 0.010218 18.263
8.65980000 0.010214 18.712 0.999940 -71.50 0.999940 -71.50 0.010214 18.262
8.65990000 0.010210 18.711 0.999940 -71.50 0.999940 -71.50 0.010210 18.261
8.66000000 0.010206 18.710 0.999940 -71.50 0.999940 -71.50 0.010206 18.259
8.66010000 0.010202 18.708 0.999940 -71.50 0.999940 -71.50 0.010202 18.258
8.66020000 0.010198 18.707 0.999940 -71.50 0.999940 -71.50 0.010198 18.257
8.66030000 0.010194 18.706 0.999940 -71.50 0.999940 -71.50 0.010194 18.256
8.66040000 0.010191 18.705 0.999940 -71.51 0.999940 -71.51 0.010191 18.255
8.66050000 0.010187 18.704 0.999940 -71.51 0.999940 -71.51 0.010187 18.254
8.66060000 0.010183 18.703 0.999940 -71.51 0.999940 -71.51 0.010183 18.253
8.66070000 0.010179 18.702 0.999940 -71.51 0.999940 -71.51 0.010179 18.252
8.66080000 0.010175 18.701 0.999940 -71.51 0.999940 -71.51 0.010175 18.251
8.66090000 0.010171 18.700 0.999940 -71.51 0.999940 -71.51 0.010171 18.250
8.66100000 0.010167 18.699 0.999940 -71.51 0.999940 -71.51 0.010167 18.249
8.66110000 0.010163 18.698 0.999940 -71.51 0.999940 -71.51 0.010163 18.248
8.66120000 0.010159 18.696 0.999940 -71.51 0.999940 -71.51 0.010159 18.247
8.66130000 0.010155 18.695 0.999940 -71.51 0.999940 -71.51 0.010155 18.246
8.66140000 0.010151 18.694 0.999940 -71.52 0.999940 -71.52 0.010151 18.245
8.66150000 0.010147 18.693 0.999940 -71.52 0.999940 -71.52 0.010147 18.244
8.66160000 0.010143 18.692 0.999940 -71.52 0.999940 -71.52 0.010143 18.243
8.66170000 0.010139 18.691 0.999940 -71.52 0.999940 -71.52 0.010139 18.242
8.66180000 0.010135 18.690 0.999940 -71.52 0.999940 -71.52 0.010135 18.241
8.66190000 0.010131 18.689 0.999940 -71.52 0.999940 -71.52 0.010131 18.240
8.66200000 0.010127 18.688 0.999940 -71.52 0.999940 -71.52 0.010127 18.239
8.66210000 0.010123 18.687 0.999940 -71.52 0.999940 -71.52 0.010123 18.238
8.66220000 0.010119 18.686 0.999940 -71.52 0.999940 -71.52 0.010119 18.237
8.66230000 0.010115 18.684 0.999941 -71.53 0.999941 -71.53 0.010115 18.235
8.66240000 0.010111 18.683 0.999941 -71.53 0.999941 -71.53 0.010111 18.234
8.66250000 0.010107 18.682 0.999941 -71.53 0.999941 -71.53 0.010107 18.233
8.66260000 0.010103 18.681 0.999941 -71.53 0.999941 -71.53 0.010103 18.232
8.66270000 0.010099 18.680 0.999941 -71.53 0.999941 -71.53 0.010099 18.231
8.66280000 0.010095 18.679 0.999941 -71.53 0.999941 -71.53 0.010095 18.230
8.66290000 0.010091 18.678 0.999941 -71.53 0.999941 -71.53 0.010091 18.229
8.66300000 0.010087 18.677 0.999941 -71.53 0.999941 -71.53 0.010087 18.228
8.66310000 0.010083 18.676 0.999941 -71.53 0.999941 -71.53 0.010083 18.227
8.66320000 0.010079 18.675 0.999941 -71.53 0.999941 -71.53 0.010079 18.226
8.66330000 0.010075 18.673 0.999941 -71.54 0.999941 -71.54 0.010075 18.225
8.66340000 0.010071 18.672 0.999941 -71.54 0.999941 -71.54 0.010071 18.224
8.66350000 0.010067 18.671 0.999941 -71.54 0.999941 -71.54 0.010067 18.223
8.66360000 0.010063 18.670 0.999941 -71.54 0.999941 -71.54 0.010063 18.222
8.66370000 0.010058 18.669 0.999941 -71.54 0.999941 -71.54 0.010058 18.221
8.66380000 0.010054 18.668 0.999941 -71.54 0.999941 -71.54 0.010054 18.220
8.66390000 0.010050 18.667 0.999941 -71.54 0.999941 -71.54 0.010050 18.219
8.66400000 0.010046 18.666 0.999941 -71.54 0.999941 -71.54 0.010046 18.218
8.66410000 0.010042 18.665 0.999941 -71.54 0.999941 -71.54 0.010042 18.217
8.66420000 0.010038 18.664 0.999941 -71.55 0.999941 -71.55 0.010038 18.216
8.66430000 0.010034 18.662 0.999941 -71.55 0.999941 -71.55 0.010034 18.215
8.66440000 0.010030 18.661 0.999941 -71.55 0.999941 -71.55 0.010030 18.213
8.66450000 0.010026 18.660 0.999941 -71.55 0.999941 -71.55 0.010026 18.212
8.66460000 0.010022 18.659 0.999941 -71.55 0.999941 -71.55 0.010022 18.211
8.66470000 0.010018 18.658 0.999941 -71.55 0.999941 -71.55 0.010018 18.210
8.66480000 0.010014 18.657 0.999942 -71.55 0.999942 -71.55 0.010014 18.209
8.66490000 0.010010 18.656 0.999942 -71.55 0.999942 -71.55 0.010010 18.208
8.66500000 0.010005 18.655 0.999942 -71.55 0.999942 -71.55 0.010005 18.207
8.66510000 0.010001 18.654 0.999942 -71.56 0.999942 -71.56 0.010001 18.206
8.66520000 0.009997 18.653 0.999942 -71.56 0.999942 -71.56 0.009997 18.205
8.66530000 0.009993 18.651 0.999942 -71.56 0.999942 -71.56 0.009993 18.204
8.66540000 0.009989 18.650 0.999942 -71.56 0.999942 -71.56 0.009989 18.203
8.66550000 0.009985 18.649 0.999942 -71.56 0.999942 -71.56 0.009985 18.202
8.66560000 0.009981 18.648 0.999942 -71.56 0.999942 -71.56 0.009981 18.201
8.66570000 0.009977 18.647 0.999942 -71.56 0.999942 -71.56 0.009977 18.200
8.66580000 0.009972 18.646 0.999942 -71.56 0.999942 -71.56 0.009972 18.199
8.66590000 0.009968 18.645 0.999942 -71.56 0.999942 -71.56 0.009968 18.198
8.66600000 0.009964 18.644 0.999942 -71.56 0.999942 -71.56 0.009964 18.197
8.66610000 0.009960 18.643 0.999942 -71.57 0.999942 -71.57 0.009960 18.196
8.66620000 0.009956 18.642 0.999942 -71.57 0.999942 -71.57 0.009956 18.195
8.66630000 0.009952 18.640 0.999942 -71.57 0.999942 -71.57 0.009952 18.194
8.66640000 0.009948 18.639 0.999942 -71.57 0.999942 -71.57 0.009948 18.193
8.66650000 0.009943 18.638 0.999942 -71.57 0.999942 -71.57 0.009943 18.191
8.66660000 0.009939 18.637 0.999942 -71.57 0.999942 -71.57 0.009939 18.190
8.66670000 0.009935 18.636 0.999942 -71.57 0.999942 -71.57 0.009935 18.189
8.66680000 0.009931 18.635 0.999942 -71.57 0.999942 -71.57 0.009931 18.188
8.66690000 0.009927 18.634 0.999942 -71.57 0.999942 -71.57 0.009927 18.187
8.66700000 0.009923 18.633 0.999942 -71.58 0.999942 -71.58 0.009923 18.186
8.66710000 0.009918 18.632 0.999942 -71.58 0.999942 -71.58 0.009918 18.185
8.66720000 0.009914 18.630 0.999942 -71.58 0.999942 -71.58 0.009914 18.184
8.66730000 0.009910 18.629 0.999942 -71.58 0.999942 -71.58 0.009910 18.183
8.66740000 0.009906 18.628 0.999943 -71.58 0.999943 -71.58 0.009906 18.182
8.66750000 0.009902 18.627 0.999943 -71.58 0.999943 -71.58 0.009902 18.181
8.66760000 0.009897 18.626 0.999943 -71.58 0.999943 -71.58 0.009897 18.180
8.66770000 0.009893 18.625 0.999943 -71.58 0.999943 -71.58 0.009893 18.179
8.66780000 0.009889 18.624 0.999943 -71.58 0.999943 -71.58 0.009889 18.178
8.66790000 0.009885 18.623 0.999943 -71.59 0.999943 -71.59 0.009885 18.177
8.66800000 0.009881 18.622 0.999943 -71.59 0.999943 -71.59 0.009881 18.176
8.66810000 0.009876 18.620 0.999943 -71.59 0.999943 -71.59 0.009876 18.175
8.66820000 0.009872 18.619 0.999943 -71.59 0.999943 -71.59 0.009872 18.174
8.66830000 0.009868 18.618 0.999943 -71.59 0.999943 -71.59 0.009868 18.173
8.66840000 0.009864 18.617 0.999943 -71.59 0.999943 -71.59 0.009864 18.171
8.66850000 0.009860 18.616 0.999943 -71.59 0.999943 -71.59 0.009860 18.170
8.66860000 0.009855 18.615 0.999943 -71.59 0.999943 -71.59 0.009855 18.169
8.66870000 0.009851 18.614 0.999943 -71.59 0.999943 -71.59 0.009851 18.168
8.66880000 0.009847 18.613 0.999943 -71.59 0.999943 -71.59 0.009847 18.167
8.66890000 0.009843 18.612 0.999943 -71.60 0.999943 -71.60 0.009843 18.166
8.66900000 0.009838 18.610 0.999943 -71.60 0.999943 -71.60 0.009838 18.165
8.66910000 0.009834 18.609 0.999943 -71.60 0.999943 -71.60 0.009834 18.164
8.66920000 0.009830 18.608 0.999943 -71.60 0.999943 -71.60 0.009830 18.163
8.66930000 0.009826 18.607 0.999943 -71.60 0.999943 -71.60 0.009826 18.162
8.66940000 0.009821 18.606 0.999943 -71.60 0.999943 -71.60 0.009821 18.161
8.66950000 0.009817 18.605 0.999943 -71.60 0.999943 -71.60 0.009817 18.160
8.66960000 0.009813 18.604 0.999943 -71.60 0.999943 -71.60 0.009813 18.159
8.66970000 0.009808 18.603 0.999943 -71.60 0.999943 -71.60 0.009808 18.158
8.66980000 0.009804 18.602 0.999943 -71.61 0.999943 -71.61 0.009804 18.157
8.66990000 0.009800 18.600 0.999944 -71.61 0.999944 -71.61 0.009800 18.156
8.67000000 0.009796 18.599 0.999944 -71.61 0.999944 -71.61 0.009796 18.155
8.67010000 0.009791 18.598 0.999944 -71.61 0.999944 -71.61 0.009791 18.154
8.67020000 0.009787 18.597 0.999944 -71.61 0.999944 -71.61 0.009787 18.152
8.67030000 0.009783 18.596 0.999944 -71.61 0.999944 -71.61 0.009783 18.151
8.67040000 0.009778 18.595 0.999944 -71.61 0.999944 -71.61 0.009778 18.150
8.67050000 0.009774 18.594 0.999944 -71.61 0.999944 -71.61 0.009774 18.149
8.67060000 0.009770 18.593 0.999944 -71.61 0.999944 -71.61 0.009770 18.148
8.67070000 0.009766 18.592 0.999944 -71.62 0.999944 -71.62 0.009766 18.147
8.67080000 0.009761 18.590 0.999944 -71.62 0.999944 -71.62 0.009761 18.146
8.67090000 0.009757 18.589 0.999944 -71.62 0.999944 -71.62 0.009757 18.145
8.67100000 0.009753 18.588 0.999944 -71.62 0.999944 -71.62 0.009753 18.144
8.67110000 0.009748 18.587 0.999944 -71.62 0.999944 -71.62 0.009748 18.143
8.67120000 0.009744 18.586 0.999944 -71.62 0.999944 -71.62 0.009744 18.142
8.67130000 0.009740 18.585 0.999944 -71.62 0.999944 -71.62 0.009740 18.141
8.67140000 0.009735 18.584 0.999944 -71.62 0.999944 -71.62 0.009735 18.140
8.67150000 0.009731 18.583 0.999944 -71.62 0.999944 -71.62 0.009731 18.139
8.67160000 0.009727 18.581 0.999944 -71.63 0.999944 -71.63 0.009727 18.138
8.67170000 0.009722 18.580 0.999944 -71.63 0.999944 -71.63 0.009722 18.137
8.67180000 0.009718 18.579 0.999944 -71.63 0.999944 -71.63 0.009718 18.136
8.67190000 0.009713 18.578 0.999944 -71.63 0.999944 -71.63 0.009713 18.134
8.67200000 0.009709 18.577 0.999944 -71.63 0.999944 -71.63 0.009709 18.133
8.67210000 0.009705 18.576 0.999944 -71.63 0.999944 -71.63 0.009705 18.132
8.67220000 0.009700 18.575 0.999944 -71.63 0.999944 -71.63 0.009700 18.131
8.67230000 0.009696 18.574 0.999944 -71.63 0.999944 -71.63 0.009696 18.130
8.67240000 0.009692 18.572 0.999945 -71.63 0.999945 -71.63 0.009692 18.129
8.67250000 0.009687 18.571 0.999945 -71.63 0.999945 -71.63 0.009687 18.128
8.67260000 0.009683 18.570 0.999945 -71.64 0.999945 -71.64 0.009683 18.127
8.67270000 0.009678 18.569 0.999945 -71.64 0.999945 -71.64 0.009678 18.126
8.67280000 0.009674 18.568 0.999945 -71.64 0.999945 -71.64 0.009674 18.125
8.67290000 0.009670 18.567 0.999945 -71.64 0.999945 -71.64 0.009670 18.124
8.67300000 0.009665 18.566 0.999945 -71.64 0.999945 -71.64 0.009665 18.123
8.67310000 0.009661 18.565 0.999945 -71.64 0.999945 -71.64 0.009661 18.122
8.67320000 0.009656 18.564 0.999945 -71.64 0.999945 -71.64 0.009656 18.121
8.67330000 0.009652 18.562 0.999945 -71.64 0.999945 -71.64 0.009652 18.120
8.67340000 0.009648 18.561 0.999945 -71.64 0.999945 -71.64 0.009648 18.119
8.67350000 0.009643 18.560 0.999945 -71.65 0.999945 -71.65 0.009643 18.118
8.67360000 0.009639 18.559 0.999945 -71.65 0.999945 -71.65 0.009639 18.116
8.67370000 0.009634 18.558 0.999945 -71.65 0.999945 -71.65 0.009634 18.115
8.67380000 0.009630 18.557 0.999945 -71.65 0.999945 -71.65 0.009630 18.114
8.67390000 0.009625 18.556 0.999945 -71.65 0.999945 -71.65 0.009625 18.113
8.67400000 0.009621 18.555 0.999945 -71.65 0.999945 -71.65 0.009621 18.112
8.67410000 0.009617 18.553 0.999945 -71.65 0.999945 -71.65 0.009617 18.111
8.67420000 0.009612 18.552 0.999945 -71.65 0.999945 -71.65 0.009612 18.110
8.67430000 0.009608 18.551 0.999945 -71.65 0.999945 -71.65 0.009608 18.109
8.67440000 0.009603 18.550 0.999945 -71.66 0.999945 -71.66 0.009603 18.108
8.67450000 0.009599 18.549 0.999945 -71.66 0.999945 -71.66 0.009599 18.107
8.67460000 0.009594 18.548 0.999945 -71.66 0.999945 -71.66 0.009594 18.106
8.67470000 0.009590 18.547 0.999945 -71.66 0.999945 -71.66 0.009590 18.105
8.67480000 0.009585 18.545 0.999946 -71.66 0.999946 -71.66 0.009585 18.104
8.67490000 0.009581 18.544 0.999946 -71.66 0.999946 -71.66 0.009581 18.103
8.67500000 0.009576 18.543 0.999946 -71.66 0.999946 -71.66 0.009576 18.102
8.67510000 0.009572 18.542 0.999946 -71.66 0.999946 -71.66 0.009572 18.101
8.67520000 0.009567 18.541 0.999946 -71.66 0.999946 -71.66 0.009567 18.099
8.67530000 0.009563 18.540 0.999946 -71.67 0.999946 -71.67 0.009563 18.098
8.67540000 0.009558 18.539 0.999946 -71.67 0.999946 -71.67 0.009558 18.097
8.67550000 0.009554 18.538 0.999946 -71.67 0.999946 -71.67 0.009554 18.096
8.67560000 0.009549 18.536 0.999946 -71.67 0.999946 -71.67 0.009549 18.095
8.67570000 0.009545 18.535 0.999946 -71.67 0.999946 -71.67 0.009545 18.094
8.67580000 0.009540 18.534 0.999946 -71.67 0.999946 -71.67 0.009540 18.093
8.67590000 0.009536 18.533 0.999946 -71.67 0.999946 -71.67 0.009536 18.092
8.67600000 0.009531 18.532 0.999946 -71.67 0.999946 -71.67 0.009531 18.091
8.67610000 0.009527 18.531 0.999946 -71.67 0.999946 -71.67 0.009527 18.090
8.67620000 0.009522 18.530 0.999946 -71.68 0.999946 -71.68 0.009522 18.089
8.67630000 0.009518 18.529 0.999946 -71.68 0.999946 -71.68 0.009518 18.088
8.67640000 0.009513 18.527 0.999946 -71.68 0.999946 -71.68 0.009513 18.087
8.67650000 0.009509 18.526 0.999946 -71.68 0.999946 -71.68 0.009509 18.086
8.67660000 0.009504 18.525 0.999946 -71.68 0.999946 -71.68 0.009504 18.085
8.67670000 0.009500 18.524 0.999946 -71.68 0.999946 -71.68 0.009500 18.083
8.67680000 0.009495 18.523 0.999946 -71.68 0.999946 -71.68 0.009495 18.082
8.67690000 0.009490 18.522 0.999946 -71.68 0.999946 -71.68 0.009490 18.081
8.67700000 0.009486 18.521 0.999946 -71.68 0.999946 -71.68 0.009486 18.080
8.67710000 0.009481 18.519 0.999946 -71.69 0.999946 -71.69 0.009481 18.079
8.67720000 0.009477 18.518 0.999947 -71.69 0.999947 -71.69 0.009477 18.078
8.67730000 0.009472 18.517 0.999947 -71.69 0.999947 -71.69 0.009472 18.077
8.67740000 0.009468 18.516 0.999947 -71.69 0.999947 -71.69 0.009468 18.076
8.67750000 0.009463 18.515 0.999947 -71.69 0.999947 -71.69 0.009463 18.075
8.67760000 0.009458 18.514 0.999947 -71.69 0.999947 -71.69 0.009458 18.074
8.67770000 0.009454 18.513 0.999947 -71.69 0.999947 -71.69 0.009454 18.073
8.67780000 0.009449 18.511 0.999947 -71.69 0.999947 -71.69 0.009449 18.072
8.67790000 0.009445 18.510 0.999947 -71.69 0.999947 -71.69 0.009445 18.071
8.67800000 0.009440 18.509 0.999947 -71.69 0.999947 -71.69 0.009440 18.070
8.67810000 0.009435 18.508 0.999947 -71.70 0.999947 -71.70 0.009435 18.069
8.67820000 0.009431 18.507 0.999947 -71.70 0.999947 -71.70 0.009431 18.067
8.67830000 0.009426 18.506 0.999947 -71.70 0.999947 -71.70 0.009426 18.066
8.67840000 0.009422 18.505 0.999947 -71.70 0.999947 -71.70 0.009422 18.065
8.67850000 0.009417 18.503 0.999947 -71.70 0.999947 -71.70 0.009417 18.064
8.67860000 0.009412 18.502 0.999947 -71.70 0.999947 -71.70 0.009412 18.063
8.67870000 0.009408 18.501 0.999947 -71.70 0.999947 -71.70 0.009408 18.062
8.67880000 0.009403 18.500 0.999947 -71.70 0.999947 -71.70 0.009403 18.061
8.67890000 0.009398 18.499 0.999947 -71.70 0.999947 -71.70 0.009398 18.060
8.67900000 0.009394 18.498 0.999947 -71.71 0.999947 -71.71 0.009394 18.059
8.67910000 0.009389 18.497 0.999947 -71.71 0.999947 -71.71 0.009389 18.058
8.67920000 0.009384 18.495 0.999947 -71.71 0.999947 -71.71 0.009384 18.057
8.67930000 0.009380 18.494 0.999947 -71.71 0.999947 -71.71 0.009380 18.056
8.67940000 0.009375 18.493 0.999947 -71.71 0.999947 -71.71 0.009375 18.055
8.67950000 0.009370 18.492 0.999947 -71.71 0.999947 -71.71 0.009370 18.054
8.67960000 0.009366 18.491 0.999948 -71.71 0.999948 -71.71 0.009366 18.052
8.67970000 0.009361 18.490 0.999948 -71.71 0.999948 -71.71 0.009361 18.051
8.67980000 0.009356 18.489 0.999948 -71.71 0.999948 -71.71 0.009356 18.050
8.67990000 0.009352 18.487 0.999948 -71.72 0.999948 -71.72 0.009352 18.049
8.68000000 0.009347 18.486 0.999948 -71.72 0.999948 -71.72 0.009347 18.048
8.68010000 0.009342 18.485 0.999948 -71.72 0.999948 -71.72 0.009342 18.047
8.68020000 0.009338 18.484 0.999948 -71.72 0.999948 -71.72 0.009338 18.046
8.68030000 0.009333 18.483 0.999948 -71.72 0.999948 -71.72 0.009333 18.045
8.68040000 0.009328 18.482 0.999948 -71.72 0.999948 -71.72 0.009328 18.044
8.68050000 0.009323 18.481 0.999948 -71.72 0.999948 -71.72 0.009323 18.043
8.68060000 0.009319 18.479 0.999948 -71.72 0.999948 -71.72 0.009319 18.042
8.68070000 0.009314 18.478 0.999948 -71.72 0.999948 -71.72 0.009314 18.041
8.68080000 0.009309 18.477 0.999948 -71.73 0.999948 -71.73 0.009309 18.040
8.68090000 0.009305 18.476 0.999948 -71.73 0.999948 -71.73 0.009305 18.039
8.68100000 0.009300 18.475 0.999948 -71.73 0.999948 -71.73 0.009300 18.037
8.68110000 0.009295 18.474 0.999948 -71.73 0.999948 -71.73 0.009295 18.036
8.68120000 0.009290 18.473 0.999948 -71.73 0.999948 -71.73 0.009290 18.035
8.68130000 0.009286 18.471 0.999948 -71.73 0.999948 -71.73 0.009286 18.034
8.68140000 0.009281 18.470 0.999948 -71.73 0.999948 -71.73 0.009281 18.033
8.68150000 0.009276 18.469 0.999948 -71.73 0.999948 -71.73 0.009276 18.032
8.68160000 0.009271 18.468 0.999948 -71.73 0.999948 -71.73 0.009271 18.031
8.68170000 0.009267 18.467 0.999948 -71.74 0.999948 -71.74 0.009267 18.030
8.68180000 0.009262 18.466 0.999948 -71.74 0.999948 -71.74 0.009262 18.029
8.68190000 0.009257 18.464 0.999948 -71.74 0.999948 -71.74 0.009257 18.028
8.68200000 0.009252 18.463 0.999949 -71.74 0.999949 -71.74 0.009252 18.027
8.68210000 0.009247 18.462 0.999949 -71.74 0.999949 -71.74 0.009247 18.026
8.68220000 0.009243 18.461 0.999949 -71.74 0.999949 -71.74 0.009243 18.025
8.68230000 0.009238 18.460 0.999949 -71.74 0.999949 -71.74 0.009238 18.023
8.68240000 0.009233 18.459 0.999949 -71.74 0.999949 -71.74 0.009233 18.022
8.68250000 0.009228 18.458 0.999949 -71.74 0.999949 -71.74 0.009228 18.021
8.68260000 0.009223 18.456 0.999949 -71.75 0.999949 -71.75 0.009223 18.020
8.68270000 0.009219 18.455 0.999949 -71.75 0.999949 -71.75 0.009219 18.019
8.68280000 0.009214 18.454 0.999949 -71.75 0.999949 -71.75 0.009214 18.018
8.68290000 0.009209 18.453 0.999949 -71.75 0.999949 -71.75 0.009209 18.017
8.68300000 0.009204 18.452 0.999949 -71.75 0.999949 -71.75 0.009204 18.016
8.68310000 0.009199 18.451 0.999949 -71.75 0.999949 -71.75 0.009199 18.015
8.68320000 0.009195 18.449 0.999949 -71.75 0.999949 -71.75 0.009195 18.014
8.68330000 0.009190 18.448 0.999949 -71.75 0.999949 -71.75 0.009190 18.013
8.68340000 0.009185 18.447 0.999949 -71.75 0.999949 -71.75 0.009185 18.012
8.68350000 0.009180 18.446 0.999949 -71.76 0.999949 -71.76 0.009180 18.011
8.68360000 0.009175 18.445 0.999949 -71.76 0.999949 -71.76 0.009175 18.009
8.68370000 0.009170 18.444 0.999949 -71.76 0.999949 -71.76 0.009170 18.008
8.68380000 0.009165 18.443 0.999949 -71.76 0.999949 -71.76 0.009165 18.007
8.68390000 0.009161 18.441 0.999949 -71.76 0.999949 -71.76 0.009161 18.006
8.68400000 0.009156 18.440 0.999949 -71.76 0.999949 -71.76 0.009156 18.005
8.68410000 0.009151 18.439 0.999949 -71.76 0.999949 -71.76 0.009151 18.004
8.68420000 0.009146 18.438 0.999949 -71.76 0.999949 -71.76 0.009146 18.003
8.68430000 0.009141 18.437 0.999950 -71.76 0.999950 -71.76 0.009141 18.002
8.68440000 0.009136 18.436 0.999950 -71.77 0.999950 -71.77 0.009136 18.001
8.68450000 0.009131 18.434 0.999950 -71.77 0.999950 -71.77 0.009131 18.000
8.68460000 0.009126 18.433 0.999950 -71.77 0.999950 -71.77 0.009126 17.999
8.68470000 0.009121 18.432 0.999950 -71.77 0.999950 -71.77 0.009122 17.998
8.68480000 0.009117 18.431 0.999950 -71.77 0.999950 -71.77 0.009117 17.997
8.68490000 0.009112 18.430 0.999950 -71.77 0.999950 -71.77 0.009112 17.995
8.68500000 0.009107 18.429 0.999950 -71.77 0.999950 -71.77 0.009107 17.994
8.68510000 0.009102 18.427 0.999950 -71.77 0.999950 -71.77 0.009102 17.993
8.68520000 0.009097 18.426 0.999950 -71.77 0.999950 -71.77 0.009097 17.992
8.68530000 0.009092 18.425 0.999950 -71.78 0.999950 -71.78 0.009092 17.991
8.68540000 0.009087 18.424 0.999950 -71.78 0.999950 -71.78 0.009087 17.990
8.68550000 0.009082 18.423 0.999950 -71.78 0.999950 -71.78 0.009082 17.989
8.68560000 0.009077 18.422 0.999950 -71.78 0.999950 -71.78 0.009077 17.988
8.68570000 0.009072 18.420 0.999950 -71.78 0.999950 -71.78 0.009072 17.987
8.68580000 0.009067 18.419 0.999950 -71.78 0.999950 -71.78 0.009067 17.986
8.68590000 0.009062 18.418 0.999950 -71.78 0.999950 -71.78 0.009062 17.985
8.68600000 0.009057 18.417 0.999950 -71.78 0.999950 -71.78 0.009057 17.984
8.68610000 0.009052 18.416 0.999950 -71.78 0.999950 -71.78 0.009052 17.982
8.68620000 0.009047 18.415 0.999950 -71.79 0.999950 -71.79 0.009047 17.981
8.68630000 0.009042 18.413 0.999950 -71.79 0.999950 -71.79 0.009042 17.980
8.68640000 0.009037 18.412 0.999950 -71.79 0.999950 -71.79 0.009037 17.979
8.68650000 0.009032 18.411 0.999950 -71.79 0.999950 -71.79 0.009032 17.978
8.68660000 0.009027 18.410 0.999951 -71.79 0.999951 -71.79 0.009027 17.977
8.68670000 0.009022 18.409 0.999951 -71.79 0.999951 -71.79 0.009022 17.976
8.68680000 0.009017 18.408 0.999951 -71.79 0.999951 -71.79 0.009017 17.975
8.68690000 0.009012 18.406 0.999951 -71.79 0.999951 -71.79 0.009012 17.974
8.68700000 0.009007 18.405 0.999951 -71.79 0.999951 -71.79 0.009007 17.973
8.68710000 0.009002 18.404 0.999951 -71.80 0.999951 -71.80 0.009002 17.972
8.68720000 0.008997 18.403 0.999951 -71.80 0.999951 -71.80 0.008997 17.971
8.68730000 0.008992 18.402 0.999951 -71.80 0.999951 -71.80 0.008992 17.969
8.68740000 0.008987 18.401 0.999951 -71.80 0.999951 -71.80 0.008987 17.968
8.68750000 0.008982 18.399 0.999951 -71.80 0.999951 -71.80 0.008982 17.967
8.68760000 0.008977 18.398 0.999951 -71.80 0.999951 -71.80 0.008977 17.966
8.68770000 0.008972 18.397 0.999951 -71.80 0.999951 -71.80 0.008972 17.965
8.68780000 0.008967 18.396 0.999951 -71.80 0.999951 -71.80 0.008967 17.964
8.68790000 0.008962 18.395 0.999951 -71.80 0.999951 -71.80 0.008962 17.963
8.68800000 0.008957 18.394 0.999951 -71.81 0.999951 -71.81 0.008957 17.962
8.68810000 0.008952 18.392 0.999951 -71.81 0.999951 -71.81 0.008952 17.961
8.68820000 0.008947 18.391 0.999951 -71.81 0.999951 -71.81 0.008947 17.960
8.68830000 0.008942 18.390 0.999951 -71.81 0.999951 -71.81 0.008942 17.959
8.68840000 0.008937 18.389 0.999951 -71.81 0.999951 -71.81 0.008937 17.958
8.68850000 0.008932 18.388 0.999951 -71.81 0.999951 -71.81 0.008932 17.956
8.68860000 0.008927 18.386 0.999951 -71.81 0.999951 -71.81 0.008927 17.955
8.68870000 0.008922 18.385 0.999951 -71.81 0.999951 -71.81 0.008922 17.954
8.68880000 0.008916 18.384 0.999951 -71.82 0.999951 -71.82 0.008916 17.953
8.68890000 0.008911 18.383 0.999952 -71.82 0.999952 -71.82 0.008911 17.952
8.68900000 0.008906 18.382 0.999952 -71.82 0.999952 -71.82 0.008906 17.951
8.68910000 0.008901 18.381 0.999952 -71.82 0.999952 -71.82 0.008901 17.950
8.68920000 0.008896 18.379 0.999952 -71.82 0.999952 -71.82 0.008896 17.949