! Sonnet Data File
! From: emgraph Version : 16.52
! From Project: transmon_trial2
! Data is De-embedded 
! Data File Written: 10/20/2017 10:41:09
!< HDATE 10/20/2017 09:51:02
!< MDATE 10/20/2017 09:51:02
!< PARAMS
!< Lj = 15.24
!< Gap = 26.0
!< Width = 30.0
!< Airgap = 18.0
!< Pwidth = 2000.0
!< END PARAMS
# GHZ S MA R 41.17000
8.70000000 0.004465 20.171 0.999982 -69.81 0.999982 -69.81 0.004465 20.128
!< P1 F=8.7 Eeff=(4.89554446 -6.0516e-5) Z0=(41.1855282 -1.5157e-4) R=0.0 C=0.0 
!< P2 F=8.7 Eeff=(4.89554446 -6.0516e-5) Z0=(41.1855282 -1.5157e-4) R=0.0 C=0.0 
8.70010000 0.004462 20.170 0.999982 -69.81 0.999982 -69.81 0.004462 20.127
8.70020000 0.004459 20.168 0.999982 -69.81 0.999982 -69.81 0.004459 20.126
8.70030000 0.004456 20.167 0.999982 -69.81 0.999982 -69.81 0.004456 20.126
8.70040000 0.004453 20.166 0.999982 -69.81 0.999982 -69.81 0.004453 20.125
8.70050000 0.004450 20.165 0.999982 -69.81 0.999982 -69.81 0.004450 20.124
8.70060000 0.004447 20.164 0.999982 -69.81 0.999982 -69.81 0.004447 20.123
8.70070000 0.004444 20.163 0.999982 -69.81 0.999982 -69.81 0.004444 20.122
8.70080000 0.004441 20.161 0.999982 -69.82 0.999982 -69.82 0.004441 20.121
8.70090000 0.004438 20.160 0.999982 -69.82 0.999982 -69.82 0.004438 20.120
8.70100000 0.004435 20.159 0.999982 -69.82 0.999982 -69.82 0.004435 20.120
8.70110000 0.004432 20.158 0.999982 -69.82 0.999982 -69.82 0.004432 20.119
8.70120000 0.004429 20.157 0.999982 -69.82 0.999982 -69.82 0.004429 20.118
8.70130000 0.004426 20.156 0.999982 -69.82 0.999982 -69.82 0.004426 20.117
8.70140000 0.004423 20.154 0.999982 -69.82 0.999982 -69.82 0.004423 20.116
8.70150000 0.004420 20.153 0.999982 -69.82 0.999982 -69.82 0.004420 20.115
8.70160000 0.004417 20.152 0.999982 -69.82 0.999982 -69.82 0.004417 20.115
8.70170000 0.004414 20.151 0.999982 -69.82 0.999982 -69.82 0.004414 20.114
8.70180000 0.004411 20.150 0.999982 -69.82 0.999982 -69.82 0.004411 20.113
8.70190000 0.004408 20.149 0.999982 -69.83 0.999982 -69.83 0.004408 20.112
8.70200000 0.004405 20.147 0.999982 -69.83 0.999982 -69.83 0.004405 20.111
8.70210000 0.004402 20.146 0.999982 -69.83 0.999982 -69.83 0.004402 20.110
8.70220000 0.004399 20.145 0.999982 -69.83 0.999982 -69.83 0.004399 20.109
8.70230000 0.004396 20.144 0.999982 -69.83 0.999982 -69.83 0.004396 20.109
8.70240000 0.004393 20.143 0.999982 -69.83 0.999982 -69.83 0.004393 20.108
8.70250000 0.004390 20.141 0.999982 -69.83 0.999982 -69.83 0.004390 20.107
8.70260000 0.004387 20.140 0.999982 -69.83 0.999982 -69.83 0.004387 20.106
8.70270000 0.004384 20.139 0.999982 -69.83 0.999982 -69.83 0.004384 20.105
8.70280000 0.004381 20.138 0.999982 -69.83 0.999982 -69.83 0.004381 20.104
8.70290000 0.004378 20.137 0.999982 -69.84 0.999982 -69.84 0.004378 20.103
8.70300000 0.004375 20.136 0.999982 -69.84 0.999982 -69.84 0.004375 20.103
8.70310000 0.004372 20.134 0.999982 -69.84 0.999982 -69.84 0.004372 20.102
8.70320000 0.004369 20.133 0.999982 -69.84 0.999982 -69.84 0.004369 20.101
8.70330000 0.004366 20.132 0.999982 -69.84 0.999982 -69.84 0.004366 20.100
8.70340000 0.004363 20.131 0.999982 -69.84 0.999982 -69.84 0.004363 20.099
8.70350000 0.004360 20.130 0.999982 -69.84 0.999982 -69.84 0.004360 20.098
8.70360000 0.004357 20.129 0.999982 -69.84 0.999982 -69.84 0.004357 20.098
8.70370000 0.004354 20.127 0.999982 -69.84 0.999982 -69.84 0.004354 20.097
8.70380000 0.004351 20.126 0.999982 -69.84 0.999982 -69.84 0.004351 20.096
8.70390000 0.004348 20.125 0.999982 -69.85 0.999982 -69.85 0.004348 20.095
8.70400000 0.004345 20.124 0.999982 -69.85 0.999982 -69.85 0.004345 20.094
8.70410000 0.004342 20.123 0.999982 -69.85 0.999982 -69.85 0.004342 20.093
8.70420000 0.004338 20.121 0.999982 -69.85 0.999982 -69.85 0.004338 20.092
8.70430000 0.004335 20.120 0.999982 -69.85 0.999982 -69.85 0.004335 20.092
8.70440000 0.004332 20.119 0.999982 -69.85 0.999982 -69.85 0.004332 20.091
8.70450000 0.004329 20.118 0.999982 -69.85 0.999982 -69.85 0.004329 20.090
8.70460000 0.004326 20.117 0.999982 -69.85 0.999982 -69.85 0.004326 20.089
8.70470000 0.004323 20.115 0.999982 -69.85 0.999982 -69.85 0.004323 20.088
8.70480000 0.004320 20.114 0.999982 -69.85 0.999982 -69.85 0.004320 20.087
8.70490000 0.004317 20.113 0.999982 -69.86 0.999982 -69.86 0.004317 20.087
8.70500000 0.004314 20.112 0.999982 -69.86 0.999982 -69.86 0.004314 20.086
8.70510000 0.004311 20.111 0.999982 -69.86 0.999982 -69.86 0.004311 20.085
8.70520000 0.004308 20.109 0.999982 -69.86 0.999982 -69.86 0.004308 20.084
8.70530000 0.004305 20.108 0.999982 -69.86 0.999982 -69.86 0.004305 20.083
8.70540000 0.004301 20.107 0.999982 -69.86 0.999982 -69.86 0.004301 20.082
8.70550000 0.004298 20.106 0.999982 -69.86 0.999982 -69.86 0.004298 20.081
8.70560000 0.004295 20.105 0.999982 -69.86 0.999982 -69.86 0.004295 20.081
8.70570000 0.004292 20.104 0.999982 -69.86 0.999982 -69.86 0.004292 20.080
8.70580000 0.004289 20.102 0.999982 -69.86 0.999982 -69.86 0.004289 20.079
8.70590000 0.004286 20.101 0.999982 -69.86 0.999982 -69.86 0.004286 20.078
8.70600000 0.004283 20.100 0.999982 -69.87 0.999982 -69.87 0.004283 20.077
8.70610000 0.004280 20.099 0.999982 -69.87 0.999982 -69.87 0.004280 20.076
8.70620000 0.004277 20.098 0.999982 -69.87 0.999982 -69.87 0.004277 20.076
8.70630000 0.004273 20.096 0.999982 -69.87 0.999982 -69.87 0.004273 20.075
8.70640000 0.004270 20.095 0.999982 -69.87 0.999982 -69.87 0.004270 20.074
8.70650000 0.004267 20.094 0.999982 -69.87 0.999982 -69.87 0.004267 20.073
8.70660000 0.004264 20.093 0.999982 -69.87 0.999982 -69.87 0.004264 20.072
8.70670000 0.004261 20.092 0.999982 -69.87 0.999982 -69.87 0.004261 20.071
8.70680000 0.004258 20.090 0.999982 -69.87 0.999982 -69.87 0.004258 20.070
8.70690000 0.004255 20.089 0.999982 -69.87 0.999982 -69.87 0.004255 20.070
8.70700000 0.004252 20.088 0.999982 -69.88 0.999982 -69.88 0.004252 20.069
8.70710000 0.004248 20.087 0.999982 -69.88 0.999982 -69.88 0.004248 20.068
8.70720000 0.004245 20.086 0.999982 -69.88 0.999982 -69.88 0.004245 20.067
8.70730000 0.004242 20.084 0.999982 -69.88 0.999982 -69.88 0.004242 20.066
8.70740000 0.004239 20.083 0.999982 -69.88 0.999982 -69.88 0.004239 20.065
8.70750000 0.004236 20.082 0.999982 -69.88 0.999982 -69.88 0.004236 20.065
8.70760000 0.004233 20.081 0.999983 -69.88 0.999983 -69.88 0.004233 20.064
8.70770000 0.004229 20.079 0.999983 -69.88 0.999983 -69.88 0.004229 20.063
8.70780000 0.004226 20.078 0.999983 -69.88 0.999983 -69.88 0.004226 20.062
8.70790000 0.004223 20.077 0.999983 -69.88 0.999983 -69.88 0.004223 20.061
8.70800000 0.004220 20.076 0.999983 -69.89 0.999983 -69.89 0.004220 20.060
8.70810000 0.004217 20.075 0.999983 -69.89 0.999983 -69.89 0.004217 20.060
8.70820000 0.004214 20.073 0.999983 -69.89 0.999983 -69.89 0.004214 20.059
8.70830000 0.004210 20.072 0.999983 -69.89 0.999983 -69.89 0.004210 20.058
8.70840000 0.004207 20.071 0.999983 -69.89 0.999983 -69.89 0.004207 20.057
8.70850000 0.004204 20.070 0.999983 -69.89 0.999983 -69.89 0.004204 20.056
8.70860000 0.004201 20.069 0.999983 -69.89 0.999983 -69.89 0.004201 20.055
8.70870000 0.004198 20.067 0.999983 -69.89 0.999983 -69.89 0.004198 20.055
8.70880000 0.004195 20.066 0.999983 -69.89 0.999983 -69.89 0.004195 20.054
8.70890000 0.004191 20.065 0.999983 -69.89 0.999983 -69.89 0.004191 20.053
8.70900000 0.004188 20.064 0.999983 -69.90 0.999983 -69.90 0.004188 20.052
8.70910000 0.004185 20.062 0.999983 -69.90 0.999983 -69.90 0.004185 20.051
8.70920000 0.004182 20.061 0.999983 -69.90 0.999983 -69.90 0.004182 20.050
8.70930000 0.004179 20.060 0.999983 -69.90 0.999983 -69.90 0.004179 20.050
8.70940000 0.004175 20.059 0.999983 -69.90 0.999983 -69.90 0.004175 20.049
8.70950000 0.004172 20.058 0.999983 -69.90 0.999983 -69.90 0.004172 20.048
8.70960000 0.004169 20.056 0.999983 -69.90 0.999983 -69.90 0.004169 20.047
8.70970000 0.004166 20.055 0.999983 -69.90 0.999983 -69.90 0.004166 20.046
8.70980000 0.004162 20.054 0.999983 -69.90 0.999983 -69.90 0.004162 20.045
8.70990000 0.004159 20.053 0.999983 -69.90 0.999983 -69.90 0.004159 20.045
8.71000000 0.004156 20.052 0.999983 -69.91 0.999983 -69.91 0.004156 20.044
8.71010000 0.004153 20.050 0.999983 -69.91 0.999983 -69.91 0.004153 20.043
8.71020000 0.004150 20.049 0.999983 -69.91 0.999983 -69.91 0.004150 20.042
8.71030000 0.004146 20.048 0.999983 -69.91 0.999983 -69.91 0.004146 20.041
8.71040000 0.004143 20.047 0.999983 -69.91 0.999983 -69.91 0.004143 20.040
8.71050000 0.004140 20.045 0.999983 -69.91 0.999983 -69.91 0.004140 20.040
8.71060000 0.004137 20.044 0.999983 -69.91 0.999983 -69.91 0.004137 20.039
8.71070000 0.004133 20.043 0.999983 -69.91 0.999983 -69.91 0.004133 20.038
8.71080000 0.004130 20.042 0.999983 -69.91 0.999983 -69.91 0.004130 20.037
8.71090000 0.004127 20.040 0.999983 -69.91 0.999983 -69.91 0.004127 20.036
8.71100000 0.004124 20.039 0.999983 -69.92 0.999983 -69.92 0.004124 20.035
8.71110000 0.004120 20.038 0.999983 -69.92 0.999983 -69.92 0.004120 20.035
8.71120000 0.004117 20.037 0.999983 -69.92 0.999983 -69.92 0.004117 20.034
8.71130000 0.004114 20.036 0.999983 -69.92 0.999983 -69.92 0.004114 20.033
8.71140000 0.004111 20.034 0.999983 -69.92 0.999983 -69.92 0.004111 20.032
8.71150000 0.004107 20.033 0.999983 -69.92 0.999983 -69.92 0.004107 20.031
8.71160000 0.004104 20.032 0.999983 -69.92 0.999983 -69.92 0.004104 20.030
8.71170000 0.004101 20.031 0.999983 -69.92 0.999983 -69.92 0.004101 20.030
8.71180000 0.004098 20.029 0.999983 -69.92 0.999983 -69.92 0.004098 20.029
8.71190000 0.004094 20.028 0.999983 -69.92 0.999983 -69.92 0.004094 20.028
8.71200000 0.004091 20.027 0.999983 -69.93 0.999983 -69.93 0.004091 20.027
8.71210000 0.004088 20.026 0.999983 -69.93 0.999983 -69.93 0.004088 20.026
8.71220000 0.004084 20.024 0.999983 -69.93 0.999983 -69.93 0.004084 20.025
8.71230000 0.004081 20.023 0.999983 -69.93 0.999983 -69.93 0.004081 20.025
8.71240000 0.004078 20.022 0.999983 -69.93 0.999983 -69.93 0.004078 20.024
8.71250000 0.004075 20.021 0.999983 -69.93 0.999983 -69.93 0.004075 20.023
8.71260000 0.004071 20.019 0.999983 -69.93 0.999983 -69.93 0.004071 20.022
8.71270000 0.004068 20.018 0.999983 -69.93 0.999983 -69.93 0.004068 20.021
8.71280000 0.004065 20.017 0.999983 -69.93 0.999983 -69.93 0.004065 20.020
8.71290000 0.004061 20.016 0.999983 -69.93 0.999983 -69.93 0.004061 20.020
8.71300000 0.004058 20.014 0.999983 -69.94 0.999983 -69.94 0.004058 20.019
8.71310000 0.004055 20.013 0.999983 -69.94 0.999983 -69.94 0.004055 20.018
8.71320000 0.004051 20.012 0.999983 -69.94 0.999983 -69.94 0.004051 20.017
8.71330000 0.004048 20.011 0.999983 -69.94 0.999983 -69.94 0.004048 20.016
8.71340000 0.004045 20.009 0.999983 -69.94 0.999983 -69.94 0.004045 20.016
8.71350000 0.004041 20.008 0.999983 -69.94 0.999983 -69.94 0.004041 20.015
8.71360000 0.004038 20.007 0.999983 -69.94 0.999983 -69.94 0.004038 20.014
8.71370000 0.004035 20.006 0.999983 -69.94 0.999983 -69.94 0.004035 20.013
8.71380000 0.004031 20.004 0.999983 -69.94 0.999983 -69.94 0.004031 20.012
8.71390000 0.004028 20.003 0.999983 -69.94 0.999983 -69.94 0.004028 20.011
8.71400000 0.004025 20.002 0.999983 -69.95 0.999983 -69.95 0.004025 20.011
8.71410000 0.004021 20.001 0.999983 -69.95 0.999983 -69.95 0.004021 20.010
8.71420000 0.004018 19.999 0.999983 -69.95 0.999983 -69.95 0.004018 20.009
8.71430000 0.004015 19.998 0.999983 -69.95 0.999983 -69.95 0.004015 20.008
8.71440000 0.004011 19.997 0.999983 -69.95 0.999983 -69.95 0.004011 20.007
8.71450000 0.004008 19.996 0.999983 -69.95 0.999983 -69.95 0.004008 20.007
8.71460000 0.004005 19.994 0.999983 -69.95 0.999983 -69.95 0.004005 20.006
8.71470000 0.004001 19.993 0.999983 -69.95 0.999983 -69.95 0.004001 20.005
8.71480000 0.003998 19.992 0.999983 -69.95 0.999983 -69.95 0.003998 20.004
8.71490000 0.003995 19.991 0.999983 -69.95 0.999983 -69.95 0.003995 20.003
8.71500000 0.003991 19.989 0.999983 -69.96 0.999983 -69.96 0.003991 20.002
8.71510000 0.003988 19.988 0.999983 -69.96 0.999983 -69.96 0.003988 20.002
8.71520000 0.003984 19.987 0.999983 -69.96 0.999983 -69.96 0.003984 20.001
8.71530000 0.003981 19.986 0.999983 -69.96 0.999983 -69.96 0.003981 20.000
8.71540000 0.003978 19.984 0.999983 -69.96 0.999983 -69.96 0.003978 19.999
8.71550000 0.003974 19.983 0.999983 -69.96 0.999983 -69.96 0.003974 19.998
8.71560000 0.003971 19.982 0.999983 -69.96 0.999983 -69.96 0.003971 19.998
8.71570000 0.003968 19.980 0.999983 -69.96 0.999983 -69.96 0.003968 19.997
8.71580000 0.003964 19.979 0.999983 -69.96 0.999983 -69.96 0.003964 19.996
8.71590000 0.003961 19.978 0.999983 -69.96 0.999983 -69.96 0.003961 19.995
8.71600000 0.003957 19.977 0.999983 -69.97 0.999983 -69.97 0.003957 19.994
8.71610000 0.003954 19.975 0.999984 -69.97 0.999984 -69.97 0.003954 19.993
8.71620000 0.003951 19.974 0.999984 -69.97 0.999984 -69.97 0.003951 19.993
8.71630000 0.003947 19.973 0.999984 -69.97 0.999984 -69.97 0.003947 19.992
8.71640000 0.003944 19.972 0.999984 -69.97 0.999984 -69.97 0.003944 19.991
8.71650000 0.003940 19.970 0.999984 -69.97 0.999984 -69.97 0.003940 19.990
8.71660000 0.003937 19.969 0.999984 -69.97 0.999984 -69.97 0.003937 19.989
8.71670000 0.003934 19.968 0.999984 -69.97 0.999984 -69.97 0.003934 19.989
8.71680000 0.003930 19.966 0.999984 -69.97 0.999984 -69.97 0.003930 19.988
8.71690000 0.003927 19.965 0.999984 -69.97 0.999984 -69.97 0.003927 19.987
8.71700000 0.003923 19.964 0.999984 -69.98 0.999984 -69.98 0.003923 19.986
8.71710000 0.003920 19.963 0.999984 -69.98 0.999984 -69.98 0.003920 19.985
8.71720000 0.003916 19.961 0.999984 -69.98 0.999984 -69.98 0.003916 19.984
8.71730000 0.003913 19.960 0.999984 -69.98 0.999984 -69.98 0.003913 19.984
8.71740000 0.003909 19.959 0.999984 -69.98 0.999984 -69.98 0.003909 19.983
8.71750000 0.003906 19.957 0.999984 -69.98 0.999984 -69.98 0.003906 19.982
8.71760000 0.003903 19.956 0.999984 -69.98 0.999984 -69.98 0.003903 19.981
8.71770000 0.003899 19.955 0.999984 -69.98 0.999984 -69.98 0.003899 19.980
8.71780000 0.003896 19.954 0.999984 -69.98 0.999984 -69.98 0.003896 19.980
8.71790000 0.003892 19.952 0.999984 -69.98 0.999984 -69.98 0.003892 19.979
8.71800000 0.003889 19.951 0.999984 -69.99 0.999984 -69.99 0.003889 19.978
8.71810000 0.003885 19.950 0.999984 -69.99 0.999984 -69.99 0.003885 19.977
8.71820000 0.003882 19.948 0.999984 -69.99 0.999984 -69.99 0.003882 19.976
8.71830000 0.003878 19.947 0.999984 -69.99 0.999984 -69.99 0.003878 19.976
8.71840000 0.003875 19.946 0.999984 -69.99 0.999984 -69.99 0.003875 19.975
8.71850000 0.003871 19.945 0.999984 -69.99 0.999984 -69.99 0.003871 19.974
8.71860000 0.003868 19.943 0.999984 -69.99 0.999984 -69.99 0.003868 19.973
8.71870000 0.003864 19.942 0.999984 -69.99 0.999984 -69.99 0.003864 19.972
8.71880000 0.003861 19.941 0.999984 -69.99 0.999984 -69.99 0.003861 19.972
8.71890000 0.003857 19.939 0.999984 -69.99 0.999984 -69.99 0.003857 19.971
8.71900000 0.003854 19.938 0.999984 -70.00 0.999984 -70.00 0.003854 19.970
8.71910000 0.003851 19.937 0.999984 -70.00 0.999984 -70.00 0.003851 19.969
8.71920000 0.003847 19.935 0.999984 -70.00 0.999984 -70.00 0.003847 19.968
8.71930000 0.003844 19.934 0.999984 -70.00 0.999984 -70.00 0.003844 19.968
8.71940000 0.003840 19.933 0.999984 -70.00 0.999984 -70.00 0.003840 19.967
8.71950000 0.003837 19.932 0.999984 -70.00 0.999984 -70.00 0.003837 19.966
8.71960000 0.003833 19.930 0.999984 -70.00 0.999984 -70.00 0.003833 19.965
8.71970000 0.003829 19.929 0.999984 -70.00 0.999984 -70.00 0.003829 19.964
8.71980000 0.003826 19.928 0.999984 -70.00 0.999984 -70.00 0.003826 19.964
8.71990000 0.003822 19.926 0.999984 -70.00 0.999984 -70.00 0.003822 19.963
8.72000000 0.003819 19.925 0.999984 -70.01 0.999984 -70.01 0.003819 19.962
8.72010000 0.003815 19.924 0.999984 -70.01 0.999984 -70.01 0.003815 19.961
8.72020000 0.003812 19.922 0.999984 -70.01 0.999984 -70.01 0.003812 19.960
8.72030000 0.003808 19.921 0.999984 -70.01 0.999984 -70.01 0.003808 19.960
8.72040000 0.003805 19.920 0.999984 -70.01 0.999984 -70.01 0.003805 19.959
8.72050000 0.003801 19.918 0.999984 -70.01 0.999984 -70.01 0.003801 19.958
8.72060000 0.003798 19.917 0.999984 -70.01 0.999984 -70.01 0.003798 19.957
8.72070000 0.003794 19.916 0.999984 -70.01 0.999984 -70.01 0.003794 19.956
8.72080000 0.003791 19.914 0.999984 -70.01 0.999984 -70.01 0.003791 19.956
8.72090000 0.003787 19.913 0.999984 -70.01 0.999984 -70.01 0.003787 19.955
8.72100000 0.003784 19.912 0.999984 -70.02 0.999984 -70.02 0.003784 19.954
8.72110000 0.003780 19.911 0.999984 -70.02 0.999984 -70.02 0.003780 19.953
8.72120000 0.003776 19.909 0.999984 -70.02 0.999984 -70.02 0.003776 19.952
8.72130000 0.003773 19.908 0.999984 -70.02 0.999984 -70.02 0.003773 19.952
8.72140000 0.003769 19.907 0.999984 -70.02 0.999984 -70.02 0.003769 19.951
8.72150000 0.003766 19.905 0.999984 -70.02 0.999984 -70.02 0.003766 19.950
8.72160000 0.003762 19.904 0.999984 -70.02 0.999984 -70.02 0.003762 19.949
8.72170000 0.003759 19.903 0.999984 -70.02 0.999984 -70.02 0.003759 19.948
8.72180000 0.003755 19.901 0.999984 -70.02 0.999984 -70.02 0.003755 19.948
8.72190000 0.003751 19.900 0.999984 -70.02 0.999984 -70.02 0.003751 19.947
8.72200000 0.003748 19.899 0.999984 -70.03 0.999984 -70.03 0.003748 19.946
8.72210000 0.003744 19.897 0.999984 -70.03 0.999984 -70.03 0.003744 19.945
8.72220000 0.003741 19.896 0.999984 -70.03 0.999984 -70.03 0.003741 19.945
8.72230000 0.003737 19.895 0.999984 -70.03 0.999984 -70.03 0.003737 19.944
8.72240000 0.003733 19.893 0.999984 -70.03 0.999984 -70.03 0.003733 19.943
8.72250000 0.003730 19.892 0.999984 -70.03 0.999984 -70.03 0.003730 19.942
8.72260000 0.003726 19.891 0.999984 -70.03 0.999984 -70.03 0.003726 19.941
8.72270000 0.003723 19.889 0.999984 -70.03 0.999984 -70.03 0.003723 19.941
8.72280000 0.003719 19.888 0.999984 -70.03 0.999984 -70.03 0.003719 19.940
8.72290000 0.003715 19.887 0.999984 -70.03 0.999984 -70.03 0.003715 19.939
8.72300000 0.003712 19.885 0.999984 -70.04 0.999984 -70.04 0.003712 19.938
8.72310000 0.003708 19.884 0.999984 -70.04 0.999984 -70.04 0.003708 19.937
8.72320000 0.003704 19.883 0.999984 -70.04 0.999984 -70.04 0.003704 19.937
8.72330000 0.003701 19.881 0.999984 -70.04 0.999984 -70.04 0.003701 19.936
8.72340000 0.003697 19.880 0.999984 -70.04 0.999984 -70.04 0.003697 19.935
8.72350000 0.003694 19.879 0.999984 -70.04 0.999984 -70.04 0.003694 19.934
8.72360000 0.003690 19.877 0.999984 -70.04 0.999984 -70.04 0.003690 19.934
8.72370000 0.003686 19.876 0.999984 -70.04 0.999984 -70.04 0.003686 19.933
8.72380000 0.003683 19.874 0.999984 -70.04 0.999984 -70.04 0.003683 19.932
8.72390000 0.003679 19.873 0.999984 -70.04 0.999984 -70.04 0.003679 19.931
8.72400000 0.003675 19.872 0.999984 -70.05 0.999984 -70.05 0.003675 19.930
8.72410000 0.003672 19.870 0.999984 -70.05 0.999984 -70.05 0.003672 19.930
8.72420000 0.003668 19.869 0.999984 -70.05 0.999984 -70.05 0.003668 19.929
8.72430000 0.003664 19.868 0.999984 -70.05 0.999984 -70.05 0.003664 19.928
8.72440000 0.003661 19.866 0.999984 -70.05 0.999984 -70.05 0.003661 19.927
8.72450000 0.003657 19.865 0.999984 -70.05 0.999984 -70.05 0.003657 19.927
8.72460000 0.003653 19.864 0.999985 -70.05 0.999985 -70.05 0.003653 19.926
8.72470000 0.003650 19.862 0.999985 -70.05 0.999985 -70.05 0.003650 19.925
8.72480000 0.003646 19.861 0.999985 -70.05 0.999985 -70.05 0.003646 19.924
8.72490000 0.003642 19.860 0.999985 -70.05 0.999985 -70.05 0.003642 19.923
8.72500000 0.003639 19.858 0.999985 -70.06 0.999985 -70.06 0.003639 19.923
8.72510000 0.003635 19.857 0.999985 -70.06 0.999985 -70.06 0.003635 19.922
8.72520000 0.003631 19.855 0.999985 -70.06 0.999985 -70.06 0.003631 19.921
8.72530000 0.003627 19.854 0.999985 -70.06 0.999985 -70.06 0.003627 19.920
8.72540000 0.003624 19.853 0.999985 -70.06 0.999985 -70.06 0.003624 19.920
8.72550000 0.003620 19.851 0.999985 -70.06 0.999985 -70.06 0.003620 19.919
8.72560000 0.003616 19.850 0.999985 -70.06 0.999985 -70.06 0.003616 19.918
8.72570000 0.003613 19.849 0.999985 -70.06 0.999985 -70.06 0.003613 19.917
8.72580000 0.003609 19.847 0.999985 -70.06 0.999985 -70.06 0.003609 19.916
8.72590000 0.003605 19.846 0.999985 -70.06 0.999985 -70.06 0.003605 19.916
8.72600000 0.003601 19.844 0.999985 -70.07 0.999985 -70.07 0.003601 19.915
8.72610000 0.003598 19.843 0.999985 -70.07 0.999985 -70.07 0.003598 19.914
8.72620000 0.003594 19.842 0.999985 -70.07 0.999985 -70.07 0.003594 19.913
8.72630000 0.003590 19.840 0.999985 -70.07 0.999985 -70.07 0.003590 19.913
8.72640000 0.003587 19.839 0.999985 -70.07 0.999985 -70.07 0.003587 19.912
8.72650000 0.003583 19.838 0.999985 -70.07 0.999985 -70.07 0.003583 19.911
8.72660000 0.003579 19.836 0.999985 -70.07 0.999985 -70.07 0.003579 19.910
8.72670000 0.003575 19.835 0.999985 -70.07 0.999985 -70.07 0.003575 19.910
8.72680000 0.003572 19.833 0.999985 -70.07 0.999985 -70.07 0.003572 19.909
8.72690000 0.003568 19.832 0.999985 -70.08 0.999985 -70.08 0.003568 19.908
8.72700000 0.003564 19.831 0.999985 -70.08 0.999985 -70.08 0.003564 19.907
8.72710000 0.003560 19.829 0.999985 -70.08 0.999985 -70.08 0.003560 19.907
8.72720000 0.003557 19.828 0.999985 -70.08 0.999985 -70.08 0.003557 19.906
8.72730000 0.003553 19.826 0.999985 -70.08 0.999985 -70.08 0.003553 19.905
8.72740000 0.003549 19.825 0.999985 -70.08 0.999985 -70.08 0.003549 19.904
8.72750000 0.003545 19.824 0.999985 -70.08 0.999985 -70.08 0.003545 19.904
8.72760000 0.003541 19.822 0.999985 -70.08 0.999985 -70.08 0.003541 19.903
8.72770000 0.003538 19.821 0.999985 -70.08 0.999985 -70.08 0.003538 19.902
8.72780000 0.003534 19.819 0.999985 -70.08 0.999985 -70.08 0.003534 19.901
8.72790000 0.003530 19.818 0.999985 -70.09 0.999985 -70.09 0.003530 19.900
8.72800000 0.003526 19.817 0.999985 -70.09 0.999985 -70.09 0.003526 19.900
8.72810000 0.003522 19.815 0.999985 -70.09 0.999985 -70.09 0.003522 19.899
8.72820000 0.003519 19.814 0.999985 -70.09 0.999985 -70.09 0.003519 19.898
8.72830000 0.003515 19.812 0.999985 -70.09 0.999985 -70.09 0.003515 19.897
8.72840000 0.003511 19.811 0.999985 -70.09 0.999985 -70.09 0.003511 19.897
8.72850000 0.003507 19.810 0.999985 -70.09 0.999985 -70.09 0.003507 19.896
8.72860000 0.003503 19.808 0.999985 -70.09 0.999985 -70.09 0.003503 19.895
8.72870000 0.003500 19.807 0.999985 -70.09 0.999985 -70.09 0.003500 19.894
8.72880000 0.003496 19.805 0.999985 -70.09 0.999985 -70.09 0.003496 19.894
8.72890000 0.003492 19.804 0.999985 -70.10 0.999985 -70.10 0.003492 19.893
8.72900000 0.003488 19.802 0.999985 -70.10 0.999985 -70.10 0.003488 19.892
8.72910000 0.003484 19.801 0.999985 -70.10 0.999985 -70.10 0.003484 19.891
8.72920000 0.003480 19.800 0.999985 -70.10 0.999985 -70.10 0.003480 19.891
8.72930000 0.003477 19.798 0.999985 -70.10 0.999985 -70.10 0.003477 19.890
8.72940000 0.003473 19.797 0.999985 -70.10 0.999985 -70.10 0.003473 19.889
8.72950000 0.003469 19.795 0.999985 -70.10 0.999985 -70.10 0.003469 19.888
8.72960000 0.003465 19.794 0.999985 -70.10 0.999985 -70.10 0.003465 19.888
8.72970000 0.003461 19.793 0.999985 -70.10 0.999985 -70.10 0.003461 19.887
8.72980000 0.003457 19.791 0.999985 -70.10 0.999985 -70.10 0.003457 19.886
8.72990000 0.003453 19.790 0.999985 -70.11 0.999985 -70.11 0.003453 19.886
8.73000000 0.003450 19.788 0.999985 -70.11 0.999985 -70.11 0.003450 19.885
8.73010000 0.003446 19.787 0.999985 -70.11 0.999985 -70.11 0.003446 19.884
8.73020000 0.003442 19.785 0.999985 -70.11 0.999985 -70.11 0.003442 19.883
8.73030000 0.003438 19.784 0.999985 -70.11 0.999985 -70.11 0.003438 19.883
8.73040000 0.003434 19.782 0.999985 -70.11 0.999985 -70.11 0.003434 19.882
8.73050000 0.003430 19.781 0.999985 -70.11 0.999985 -70.11 0.003430 19.881
8.73060000 0.003426 19.780 0.999985 -70.11 0.999985 -70.11 0.003426 19.880
8.73070000 0.003422 19.778 0.999985 -70.11 0.999985 -70.11 0.003422 19.880
8.73080000 0.003418 19.777 0.999985 -70.12 0.999985 -70.12 0.003418 19.879
8.73090000 0.003415 19.775 0.999985 -70.12 0.999985 -70.12 0.003415 19.878
8.73100000 0.003411 19.774 0.999985 -70.12 0.999985 -70.12 0.003411 19.877
8.73110000 0.003407 19.772 0.999985 -70.12 0.999985 -70.12 0.003407 19.877
8.73120000 0.003403 19.771 0.999985 -70.12 0.999985 -70.12 0.003403 19.876
8.73130000 0.003399 19.769 0.999985 -70.12 0.999985 -70.12 0.003399 19.875
8.73140000 0.003395 19.768 0.999985 -70.12 0.999985 -70.12 0.003395 19.875
8.73150000 0.003391 19.767 0.999985 -70.12 0.999985 -70.12 0.003391 19.874
8.73160000 0.003387 19.765 0.999985 -70.12 0.999985 -70.12 0.003387 19.873
8.73170000 0.003383 19.764 0.999985 -70.12 0.999985 -70.12 0.003383 19.872
8.73180000 0.003379 19.762 0.999985 -70.13 0.999985 -70.13 0.003379 19.872
8.73190000 0.003375 19.761 0.999985 -70.13 0.999985 -70.13 0.003375 19.871
8.73200000 0.003371 19.759 0.999985 -70.13 0.999985 -70.13 0.003371 19.870
8.73210000 0.003367 19.758 0.999985 -70.13 0.999985 -70.13 0.003367 19.869
8.73220000 0.003363 19.756 0.999985 -70.13 0.999985 -70.13 0.003363 19.869
8.73230000 0.003360 19.755 0.999985 -70.13 0.999985 -70.13 0.003360 19.868
8.73240000 0.003356 19.753 0.999985 -70.13 0.999985 -70.13 0.003356 19.867
8.73250000 0.003352 19.752 0.999985 -70.13 0.999985 -70.13 0.003352 19.867
8.73260000 0.003348 19.750 0.999985 -70.13 0.999985 -70.13 0.003348 19.866
8.73270000 0.003344 19.749 0.999985 -70.13 0.999985 -70.13 0.003344 19.865
8.73280000 0.003340 19.747 0.999985 -70.14 0.999985 -70.14 0.003340 19.864
8.73290000 0.003336 19.746 0.999985 -70.14 0.999985 -70.14 0.003336 19.864
8.73300000 0.003332 19.744 0.999986 -70.14 0.999986 -70.14 0.003332 19.863
8.73310000 0.003328 19.743 0.999986 -70.14 0.999986 -70.14 0.003328 19.862
8.73320000 0.003324 19.742 0.999986 -70.14 0.999986 -70.14 0.003324 19.862
8.73330000 0.003320 19.740 0.999986 -70.14 0.999986 -70.14 0.003320 19.861
8.73340000 0.003316 19.739 0.999986 -70.14 0.999986 -70.14 0.003316 19.860
8.73350000 0.003312 19.737 0.999986 -70.14 0.999986 -70.14 0.003312 19.859
8.73360000 0.003308 19.736 0.999986 -70.14 0.999986 -70.14 0.003308 19.859
8.73370000 0.003304 19.734 0.999986 -70.15 0.999986 -70.15 0.003304 19.858
8.73380000 0.003300 19.733 0.999986 -70.15 0.999986 -70.15 0.003300 19.857
8.73390000 0.003296 19.731 0.999986 -70.15 0.999986 -70.15 0.003296 19.857
8.73400000 0.003292 19.730 0.999986 -70.15 0.999986 -70.15 0.003292 19.856
8.73410000 0.003288 19.728 0.999986 -70.15 0.999986 -70.15 0.003288 19.855
8.73420000 0.003284 19.727 0.999986 -70.15 0.999986 -70.15 0.003284 19.854
8.73430000 0.003280 19.725 0.999986 -70.15 0.999986 -70.15 0.003280 19.854
8.73440000 0.003276 19.724 0.999986 -70.15 0.999986 -70.15 0.003276 19.853
8.73450000 0.003272 19.722 0.999986 -70.15 0.999986 -70.15 0.003271 19.852
8.73460000 0.003267 19.721 0.999986 -70.15 0.999986 -70.15 0.003267 19.852
8.73470000 0.003263 19.719 0.999986 -70.16 0.999986 -70.16 0.003263 19.851
8.73480000 0.003259 19.718 0.999986 -70.16 0.999986 -70.16 0.003259 19.850
8.73490000 0.003255 19.716 0.999986 -70.16 0.999986 -70.16 0.003255 19.850
8.73500000 0.003251 19.714 0.999986 -70.16 0.999986 -70.16 0.003251 19.849
8.73510000 0.003247 19.713 0.999986 -70.16 0.999986 -70.16 0.003247 19.848
8.73520000 0.003243 19.711 0.999986 -70.16 0.999986 -70.16 0.003243 19.847
8.73530000 0.003239 19.710 0.999986 -70.16 0.999986 -70.16 0.003239 19.847
8.73540000 0.003235 19.708 0.999986 -70.16 0.999986 -70.16 0.003235 19.846
8.73550000 0.003231 19.707 0.999986 -70.16 0.999986 -70.16 0.003231 19.845
8.73560000 0.003227 19.705 0.999986 -70.16 0.999986 -70.16 0.003227 19.845
8.73570000 0.003223 19.704 0.999986 -70.17 0.999986 -70.17 0.003223 19.844
8.73580000 0.003219 19.702 0.999986 -70.17 0.999986 -70.17 0.003219 19.843
8.73590000 0.003214 19.701 0.999986 -70.17 0.999986 -70.17 0.003214 19.843
8.73600000 0.003210 19.699 0.999986 -70.17 0.999986 -70.17 0.003210 19.842
8.73610000 0.003206 19.698 0.999986 -70.17 0.999986 -70.17 0.003206 19.841
8.73620000 0.003202 19.696 0.999986 -70.17 0.999986 -70.17 0.003202 19.841
8.73630000 0.003198 19.695 0.999986 -70.17 0.999986 -70.17 0.003198 19.840
8.73640000 0.003194 19.693 0.999986 -70.17 0.999986 -70.17 0.003194 19.839
8.73650000 0.003190 19.691 0.999986 -70.17 0.999986 -70.17 0.003190 19.839
8.73660000 0.003186 19.690 0.999986 -70.18 0.999986 -70.18 0.003186 19.838
8.73670000 0.003182 19.688 0.999986 -70.18 0.999986 -70.18 0.003182 19.837
8.73680000 0.003177 19.687 0.999986 -70.18 0.999986 -70.18 0.003177 19.837
8.73690000 0.003173 19.685 0.999986 -70.18 0.999986 -70.18 0.003173 19.836
8.73700000 0.003169 19.684 0.999986 -70.18 0.999986 -70.18 0.003169 19.835
8.73710000 0.003165 19.682 0.999986 -70.18 0.999986 -70.18 0.003165 19.834
8.73720000 0.003161 19.681 0.999986 -70.18 0.999986 -70.18 0.003161 19.834
8.73730000 0.003157 19.679 0.999986 -70.18 0.999986 -70.18 0.003157 19.833
8.73740000 0.003153 19.677 0.999986 -70.18 0.999986 -70.18 0.003152 19.832
8.73750000 0.003148 19.676 0.999986 -70.18 0.999986 -70.18 0.003148 19.832
8.73760000 0.003144 19.674 0.999986 -70.19 0.999986 -70.19 0.003144 19.831
8.73770000 0.003140 19.673 0.999986 -70.19 0.999986 -70.19 0.003140 19.830
8.73780000 0.003136 19.671 0.999986 -70.19 0.999986 -70.19 0.003136 19.830
8.73790000 0.003132 19.670 0.999986 -70.19 0.999986 -70.19 0.003132 19.829
8.73800000 0.003127 19.668 0.999986 -70.19 0.999986 -70.19 0.003127 19.828
8.73810000 0.003123 19.666 0.999986 -70.19 0.999986 -70.19 0.003123 19.828
8.73820000 0.003119 19.665 0.999986 -70.19 0.999986 -70.19 0.003119 19.827
8.73830000 0.003115 19.663 0.999986 -70.19 0.999986 -70.19 0.003115 19.826
8.73840000 0.003111 19.662 0.999986 -70.19 0.999986 -70.19 0.003111 19.826
8.73850000 0.003106 19.660 0.999986 -70.19 0.999986 -70.19 0.003106 19.825
8.73860000 0.003102 19.659 0.999986 -70.20 0.999986 -70.20 0.003102 19.825
8.73870000 0.003098 19.657 0.999986 -70.20 0.999986 -70.20 0.003098 19.824
8.73880000 0.003094 19.655 0.999986 -70.20 0.999986 -70.20 0.003094 19.823
8.73890000 0.003090 19.654 0.999986 -70.20 0.999986 -70.20 0.003090 19.823
8.73900000 0.003085 19.652 0.999986 -70.20 0.999986 -70.20 0.003085 19.822
8.73910000 0.003081 19.651 0.999986 -70.20 0.999986 -70.20 0.003081 19.821
8.73920000 0.003077 19.649 0.999986 -70.20 0.999986 -70.20 0.003077 19.821