! Sonnet Data File
! From: emgraph Version : 16.52
! From Project: transmon_trial2
! Data is De-embedded 
! Data File Written: 10/20/2017 11:33:10
!< HDATE 10/20/2017 10:41:42
!< MDATE 10/20/2017 10:41:42
!< PARAMS
!< Lj = 15.24
!< Gap = 6.0
!< Width = 40.0
!< Airgap = 24.0
!< Pwidth = 2000.0
!< END PARAMS
# GHZ S MA R 43.50000
8.70000000 0.027330 -160.4 0.999614 -70.32 0.999614 -70.32 0.027330 -160.2
!< P1 F=8.7 Eeff=(4.81555861 -6.2189e-5) Z0=(43.3296017 -1.7655e-4) R=0.0 C=0.0 
!< P2 F=8.7 Eeff=(4.81555861 -6.2189e-5) Z0=(43.3296017 -1.7655e-4) R=0.0 C=0.0 
8.70010000 0.027355 -160.4 0.999614 -70.32 0.999614 -70.32 0.027355 -160.2
8.70020000 0.027381 -160.4 0.999613 -70.32 0.999613 -70.32 0.027381 -160.2
8.70030000 0.027407 -160.4 0.999612 -70.32 0.999612 -70.32 0.027407 -160.2
8.70040000 0.027432 -160.4 0.999612 -70.33 0.999612 -70.33 0.027432 -160.2
8.70050000 0.027458 -160.4 0.999611 -70.33 0.999611 -70.33 0.027458 -160.2
8.70060000 0.027484 -160.4 0.999610 -70.33 0.999610 -70.33 0.027484 -160.2
8.70070000 0.027510 -160.4 0.999609 -70.33 0.999609 -70.33 0.027510 -160.2
8.70080000 0.027535 -160.4 0.999609 -70.34 0.999609 -70.34 0.027535 -160.2
8.70090000 0.027561 -160.4 0.999608 -70.34 0.999608 -70.34 0.027561 -160.2
8.70100000 0.027587 -160.4 0.999607 -70.34 0.999607 -70.34 0.027587 -160.2
8.70110000 0.027613 -160.5 0.999607 -70.34 0.999607 -70.34 0.027613 -160.2
8.70120000 0.027639 -160.5 0.999606 -70.34 0.999606 -70.34 0.027639 -160.2
8.70130000 0.027665 -160.5 0.999605 -70.35 0.999605 -70.35 0.027665 -160.2
8.70140000 0.027692 -160.5 0.999604 -70.35 0.999604 -70.35 0.027691 -160.2
8.70150000 0.027718 -160.5 0.999604 -70.35 0.999604 -70.35 0.027718 -160.2
8.70160000 0.027744 -160.5 0.999603 -70.35 0.999603 -70.35 0.027744 -160.2
8.70170000 0.027770 -160.5 0.999602 -70.36 0.999602 -70.36 0.027770 -160.2
8.70180000 0.027797 -160.5 0.999601 -70.36 0.999601 -70.36 0.027797 -160.3
8.70190000 0.027823 -160.5 0.999601 -70.36 0.999601 -70.36 0.027823 -160.3
8.70200000 0.027849 -160.5 0.999600 -70.36 0.999600 -70.36 0.027849 -160.3
8.70210000 0.027876 -160.5 0.999599 -70.37 0.999599 -70.37 0.027876 -160.3
8.70220000 0.027902 -160.5 0.999598 -70.37 0.999598 -70.37 0.027902 -160.3
8.70230000 0.027929 -160.5 0.999598 -70.37 0.999598 -70.37 0.027929 -160.3
8.70240000 0.027956 -160.5 0.999597 -70.37 0.999597 -70.37 0.027956 -160.3
8.70250000 0.027982 -160.5 0.999596 -70.37 0.999596 -70.37 0.027982 -160.3
8.70260000 0.028009 -160.5 0.999595 -70.38 0.999595 -70.38 0.028009 -160.3
8.70270000 0.028036 -160.5 0.999595 -70.38 0.999595 -70.38 0.028036 -160.3
8.70280000 0.028063 -160.5 0.999594 -70.38 0.999594 -70.38 0.028063 -160.3
8.70290000 0.028090 -160.5 0.999593 -70.38 0.999593 -70.38 0.028090 -160.3
8.70300000 0.028117 -160.5 0.999592 -70.39 0.999592 -70.39 0.028117 -160.3
8.70310000 0.028144 -160.5 0.999592 -70.39 0.999592 -70.39 0.028144 -160.3
8.70320000 0.028171 -160.5 0.999591 -70.39 0.999591 -70.39 0.028171 -160.3
8.70330000 0.028198 -160.5 0.999590 -70.39 0.999590 -70.39 0.028198 -160.3
8.70340000 0.028225 -160.5 0.999589 -70.40 0.999589 -70.40 0.028225 -160.3
8.70350000 0.028252 -160.5 0.999588 -70.40 0.999588 -70.40 0.028252 -160.3
8.70360000 0.028280 -160.5 0.999588 -70.40 0.999588 -70.40 0.028280 -160.3
8.70370000 0.028307 -160.5 0.999587 -70.40 0.999587 -70.40 0.028307 -160.3
8.70380000 0.028334 -160.5 0.999586 -70.41 0.999586 -70.41 0.028334 -160.3
8.70390000 0.028362 -160.5 0.999585 -70.41 0.999585 -70.41 0.028362 -160.3
8.70400000 0.028389 -160.5 0.999585 -70.41 0.999585 -70.41 0.028389 -160.3
8.70410000 0.028417 -160.5 0.999584 -70.41 0.999584 -70.41 0.028417 -160.3
8.70420000 0.028444 -160.5 0.999583 -70.41 0.999583 -70.41 0.028444 -160.3
8.70430000 0.028472 -160.5 0.999582 -70.42 0.999582 -70.42 0.028472 -160.3
8.70440000 0.028500 -160.5 0.999581 -70.42 0.999581 -70.42 0.028500 -160.3
8.70450000 0.028527 -160.5 0.999581 -70.42 0.999581 -70.42 0.028527 -160.3
8.70460000 0.028555 -160.5 0.999580 -70.42 0.999580 -70.42 0.028555 -160.3
8.70470000 0.028583 -160.5 0.999579 -70.43 0.999579 -70.43 0.028583 -160.3
8.70480000 0.028611 -160.5 0.999578 -70.43 0.999578 -70.43 0.028611 -160.3
8.70490000 0.028639 -160.5 0.999577 -70.43 0.999577 -70.43 0.028639 -160.3
8.70500000 0.028667 -160.5 0.999577 -70.43 0.999577 -70.43 0.028667 -160.3
8.70510000 0.028695 -160.5 0.999576 -70.44 0.999576 -70.44 0.028695 -160.3
8.70520000 0.028723 -160.5 0.999575 -70.44 0.999575 -70.44 0.028723 -160.3
8.70530000 0.028751 -160.5 0.999574 -70.44 0.999574 -70.44 0.028751 -160.3
8.70540000 0.028780 -160.5 0.999573 -70.44 0.999573 -70.44 0.028780 -160.3
8.70550000 0.028808 -160.5 0.999572 -70.45 0.999572 -70.45 0.028808 -160.3
8.70560000 0.028836 -160.5 0.999572 -70.45 0.999572 -70.45 0.028836 -160.4
8.70570000 0.028865 -160.5 0.999571 -70.45 0.999571 -70.45 0.028865 -160.4
8.70580000 0.028893 -160.6 0.999570 -70.45 0.999570 -70.45 0.028893 -160.4
8.70590000 0.028922 -160.6 0.999569 -70.46 0.999569 -70.46 0.028922 -160.4
8.70600000 0.028950 -160.6 0.999568 -70.46 0.999568 -70.46 0.028950 -160.4
8.70610000 0.028979 -160.6 0.999567 -70.46 0.999567 -70.46 0.028979 -160.4
8.70620000 0.029008 -160.6 0.999567 -70.46 0.999567 -70.46 0.029008 -160.4
8.70630000 0.029037 -160.6 0.999566 -70.47 0.999566 -70.47 0.029037 -160.4
8.70640000 0.029065 -160.6 0.999565 -70.47 0.999565 -70.47 0.029065 -160.4
8.70650000 0.029094 -160.6 0.999564 -70.47 0.999564 -70.47 0.029094 -160.4
8.70660000 0.029123 -160.6 0.999563 -70.47 0.999563 -70.47 0.029123 -160.4
8.70670000 0.029152 -160.6 0.999562 -70.47 0.999562 -70.47 0.029152 -160.4
8.70680000 0.029181 -160.6 0.999561 -70.48 0.999561 -70.48 0.029181 -160.4
8.70690000 0.029210 -160.6 0.999561 -70.48 0.999561 -70.48 0.029210 -160.4
8.70700000 0.029240 -160.6 0.999560 -70.48 0.999560 -70.48 0.029240 -160.4
8.70710000 0.029269 -160.6 0.999559 -70.48 0.999559 -70.48 0.029269 -160.4
8.70720000 0.029298 -160.6 0.999558 -70.49 0.999558 -70.49 0.029298 -160.4
8.70730000 0.029327 -160.6 0.999557 -70.49 0.999557 -70.49 0.029327 -160.4
8.70740000 0.029357 -160.6 0.999556 -70.49 0.999556 -70.49 0.029357 -160.4
8.70750000 0.029386 -160.6 0.999555 -70.49 0.999555 -70.49 0.029386 -160.4
8.70760000 0.029416 -160.6 0.999554 -70.50 0.999554 -70.50 0.029416 -160.4
8.70770000 0.029445 -160.6 0.999554 -70.50 0.999554 -70.50 0.029445 -160.4
8.70780000 0.029475 -160.6 0.999553 -70.50 0.999553 -70.50 0.029475 -160.4
8.70790000 0.029505 -160.6 0.999552 -70.50 0.999552 -70.50 0.029505 -160.4
8.70800000 0.029535 -160.6 0.999551 -70.51 0.999551 -70.51 0.029535 -160.4
8.70810000 0.029564 -160.6 0.999550 -70.51 0.999550 -70.51 0.029564 -160.4
8.70820000 0.029594 -160.6 0.999549 -70.51 0.999549 -70.51 0.029594 -160.4
8.70830000 0.029624 -160.6 0.999548 -70.51 0.999548 -70.51 0.029624 -160.4
8.70840000 0.029654 -160.6 0.999547 -70.52 0.999547 -70.52 0.029654 -160.4
8.70850000 0.029684 -160.6 0.999546 -70.52 0.999546 -70.52 0.029684 -160.4
8.70860000 0.029714 -160.6 0.999546 -70.52 0.999546 -70.52 0.029714 -160.4
8.70870000 0.029745 -160.6 0.999545 -70.52 0.999545 -70.52 0.029745 -160.4
8.70880000 0.029775 -160.6 0.999544 -70.53 0.999544 -70.53 0.029775 -160.4
8.70890000 0.029805 -160.6 0.999543 -70.53 0.999543 -70.53 0.029805 -160.4
8.70900000 0.029836 -160.6 0.999542 -70.53 0.999542 -70.53 0.029836 -160.4
8.70910000 0.029866 -160.6 0.999541 -70.53 0.999541 -70.53 0.029866 -160.4
8.70920000 0.029897 -160.6 0.999540 -70.54 0.999540 -70.54 0.029897 -160.5
8.70930000 0.029927 -160.6 0.999539 -70.54 0.999539 -70.54 0.029927 -160.5
8.70940000 0.029958 -160.6 0.999538 -70.54 0.999538 -70.54 0.029958 -160.5
8.70950000 0.029988 -160.6 0.999537 -70.55 0.999537 -70.55 0.029988 -160.5
8.70960000 0.030019 -160.6 0.999536 -70.55 0.999536 -70.55 0.030019 -160.5
8.70970000 0.030050 -160.6 0.999535 -70.55 0.999535 -70.55 0.030050 -160.5
8.70980000 0.030081 -160.6 0.999534 -70.55 0.999534 -70.55 0.030081 -160.5
8.70990000 0.030112 -160.6 0.999533 -70.56 0.999533 -70.56 0.030112 -160.5
8.71000000 0.030143 -160.6 0.999533 -70.56 0.999533 -70.56 0.030143 -160.5
8.71010000 0.030174 -160.6 0.999532 -70.56 0.999532 -70.56 0.030174 -160.5
8.71020000 0.030205 -160.7 0.999531 -70.56 0.999531 -70.56 0.030205 -160.5
8.71030000 0.030236 -160.7 0.999530 -70.57 0.999530 -70.57 0.030236 -160.5
8.71040000 0.030268 -160.7 0.999529 -70.57 0.999529 -70.57 0.030268 -160.5
8.71050000 0.030299 -160.7 0.999528 -70.57 0.999528 -70.57 0.030299 -160.5
8.71060000 0.030330 -160.7 0.999527 -70.57 0.999527 -70.57 0.030330 -160.5
8.71070000 0.030362 -160.7 0.999526 -70.58 0.999526 -70.58 0.030362 -160.5
8.71080000 0.030393 -160.7 0.999525 -70.58 0.999525 -70.58 0.030393 -160.5
8.71090000 0.030425 -160.7 0.999524 -70.58 0.999524 -70.58 0.030425 -160.5
8.71100000 0.030457 -160.7 0.999523 -70.58 0.999523 -70.58 0.030457 -160.5
8.71110000 0.030488 -160.7 0.999522 -70.59 0.999522 -70.59 0.030488 -160.5
8.71120000 0.030520 -160.7 0.999521 -70.59 0.999521 -70.59 0.030520 -160.5
8.71130000 0.030552 -160.7 0.999520 -70.59 0.999520 -70.59 0.030552 -160.5
8.71140000 0.030584 -160.7 0.999519 -70.59 0.999519 -70.59 0.030584 -160.5
8.71150000 0.030616 -160.7 0.999518 -70.60 0.999518 -70.60 0.030616 -160.5
8.71160000 0.030648 -160.7 0.999517 -70.60 0.999517 -70.60 0.030648 -160.5
8.71170000 0.030680 -160.7 0.999516 -70.60 0.999516 -70.60 0.030680 -160.5
8.71180000 0.030712 -160.7 0.999515 -70.60 0.999515 -70.60 0.030712 -160.5
8.71190000 0.030745 -160.7 0.999514 -70.61 0.999514 -70.61 0.030745 -160.5
8.71200000 0.030777 -160.7 0.999513 -70.61 0.999513 -70.61 0.030777 -160.5
8.71210000 0.030810 -160.7 0.999512 -70.61 0.999512 -70.61 0.030810 -160.5
8.71220000 0.030842 -160.7 0.999511 -70.62 0.999511 -70.62 0.030842 -160.5
8.71230000 0.030875 -160.7 0.999510 -70.62 0.999510 -70.62 0.030875 -160.5
8.71240000 0.030907 -160.7 0.999509 -70.62 0.999509 -70.62 0.030907 -160.5
8.71250000 0.030940 -160.7 0.999508 -70.62 0.999508 -70.62 0.030940 -160.5
8.71260000 0.030973 -160.7 0.999507 -70.63 0.999507 -70.63 0.030973 -160.5
8.71270000 0.031005 -160.7 0.999506 -70.63 0.999506 -70.63 0.031005 -160.6
8.71280000 0.031038 -160.7 0.999505 -70.63 0.999505 -70.63 0.031038 -160.6
8.71290000 0.031071 -160.7 0.999504 -70.63 0.999504 -70.63 0.031071 -160.6
8.71300000 0.031104 -160.7 0.999503 -70.64 0.999503 -70.64 0.031104 -160.6
8.71310000 0.031138 -160.7 0.999502 -70.64 0.999502 -70.64 0.031138 -160.6
8.71320000 0.031171 -160.7 0.999501 -70.64 0.999501 -70.64 0.031171 -160.6
8.71330000 0.031204 -160.7 0.999500 -70.64 0.999500 -70.64 0.031204 -160.6
8.71340000 0.031237 -160.7 0.999499 -70.65 0.999499 -70.65 0.031237 -160.6
8.71350000 0.031271 -160.7 0.999497 -70.65 0.999497 -70.65 0.031271 -160.6
8.71360000 0.031304 -160.7 0.999496 -70.65 0.999496 -70.65 0.031304 -160.6
8.71370000 0.031338 -160.7 0.999495 -70.66 0.999495 -70.66 0.031338 -160.6
8.71380000 0.031371 -160.7 0.999494 -70.66 0.999494 -70.66 0.031371 -160.6
8.71390000 0.031405 -160.7 0.999493 -70.66 0.999493 -70.66 0.031405 -160.6
8.71400000 0.031439 -160.7 0.999492 -70.66 0.999492 -70.66 0.031439 -160.6
8.71410000 0.031473 -160.7 0.999491 -70.67 0.999491 -70.67 0.031473 -160.6
8.71420000 0.031507 -160.7 0.999490 -70.67 0.999490 -70.67 0.031507 -160.6
8.71430000 0.031541 -160.8 0.999489 -70.67 0.999489 -70.67 0.031541 -160.6
8.71440000 0.031575 -160.8 0.999488 -70.67 0.999488 -70.67 0.031575 -160.6
8.71450000 0.031609 -160.8 0.999487 -70.68 0.999487 -70.68 0.031609 -160.6
8.71460000 0.031643 -160.8 0.999486 -70.68 0.999486 -70.68 0.031643 -160.6
8.71470000 0.031677 -160.8 0.999485 -70.68 0.999485 -70.68 0.031677 -160.6
8.71480000 0.031712 -160.8 0.999483 -70.69 0.999483 -70.69 0.031712 -160.6
8.71490000 0.031746 -160.8 0.999482 -70.69 0.999482 -70.69 0.031746 -160.6
8.71500000 0.031781 -160.8 0.999481 -70.69 0.999481 -70.69 0.031781 -160.6
8.71510000 0.031815 -160.8 0.999480 -70.69 0.999480 -70.69 0.031815 -160.6
8.71520000 0.031850 -160.8 0.999479 -70.70 0.999479 -70.70 0.031850 -160.6
8.71530000 0.031885 -160.8 0.999478 -70.70 0.999478 -70.70 0.031885 -160.6
8.71540000 0.031919 -160.8 0.999477 -70.70 0.999477 -70.70 0.031919 -160.6
8.71550000 0.031954 -160.8 0.999476 -70.71 0.999476 -70.71 0.031954 -160.6
8.71560000 0.031989 -160.8 0.999474 -70.71 0.999474 -70.71 0.031989 -160.6
8.71570000 0.032024 -160.8 0.999473 -70.71 0.999473 -70.71 0.032024 -160.6
8.71580000 0.032059 -160.8 0.999472 -70.71 0.999472 -70.71 0.032059 -160.6
8.71590000 0.032095 -160.8 0.999471 -70.72 0.999471 -70.72 0.032095 -160.6
8.71600000 0.032130 -160.8 0.999470 -70.72 0.999470 -70.72 0.032130 -160.6
8.71610000 0.032165 -160.8 0.999469 -70.72 0.999469 -70.72 0.032165 -160.7
8.71620000 0.032201 -160.8 0.999468 -70.72 0.999468 -70.72 0.032201 -160.7
8.71630000 0.032236 -160.8 0.999466 -70.73 0.999466 -70.73 0.032236 -160.7
8.71640000 0.032272 -160.8 0.999465 -70.73 0.999465 -70.73 0.032272 -160.7
8.71650000 0.032308 -160.8 0.999464 -70.73 0.999464 -70.73 0.032308 -160.7
8.71660000 0.032343 -160.8 0.999463 -70.74 0.999463 -70.74 0.032343 -160.7
8.71670000 0.032379 -160.8 0.999462 -70.74 0.999462 -70.74 0.032379 -160.7
8.71680000 0.032415 -160.8 0.999461 -70.74 0.999461 -70.74 0.032415 -160.7
8.71690000 0.032451 -160.8 0.999459 -70.74 0.999459 -70.74 0.032451 -160.7
8.71700000 0.032487 -160.8 0.999458 -70.75 0.999458 -70.75 0.032487 -160.7
8.71710000 0.032523 -160.8 0.999457 -70.75 0.999457 -70.75 0.032523 -160.7
8.71720000 0.032560 -160.8 0.999456 -70.75 0.999456 -70.75 0.032560 -160.7
8.71730000 0.032596 -160.8 0.999455 -70.76 0.999455 -70.76 0.032596 -160.7
8.71740000 0.032632 -160.8 0.999453 -70.76 0.999453 -70.76 0.032632 -160.7
8.71750000 0.032669 -160.8 0.999452 -70.76 0.999452 -70.76 0.032669 -160.7
8.71760000 0.032705 -160.8 0.999451 -70.76 0.999451 -70.76 0.032705 -160.7
8.71770000 0.032742 -160.8 0.999450 -70.77 0.999450 -70.77 0.032742 -160.7
8.71780000 0.032779 -160.8 0.999449 -70.77 0.999449 -70.77 0.032779 -160.7
8.71790000 0.032816 -160.8 0.999447 -70.77 0.999447 -70.77 0.032816 -160.7
8.71800000 0.032853 -160.8 0.999446 -70.78 0.999446 -70.78 0.032853 -160.7
8.71810000 0.032890 -160.9 0.999445 -70.78 0.999445 -70.78 0.032890 -160.7
8.71820000 0.032927 -160.9 0.999444 -70.78 0.999444 -70.78 0.032927 -160.7
8.71830000 0.032964 -160.9 0.999442 -70.79 0.999442 -70.79 0.032964 -160.7
8.71840000 0.033001 -160.9 0.999441 -70.79 0.999441 -70.79 0.033001 -160.7
8.71850000 0.033038 -160.9 0.999440 -70.79 0.999440 -70.79 0.033038 -160.7
8.71860000 0.033076 -160.9 0.999439 -70.79 0.999439 -70.79 0.033076 -160.7
8.71870000 0.033113 -160.9 0.999437 -70.80 0.999437 -70.80 0.033113 -160.7
8.71880000 0.033151 -160.9 0.999436 -70.80 0.999436 -70.80 0.033151 -160.7
8.71890000 0.033188 -160.9 0.999435 -70.80 0.999435 -70.80 0.033188 -160.7
8.71900000 0.033226 -160.9 0.999434 -70.81 0.999434 -70.81 0.033226 -160.7
8.71910000 0.033264 -160.9 0.999432 -70.81 0.999432 -70.81 0.033264 -160.7
8.71920000 0.033302 -160.9 0.999431 -70.81 0.999431 -70.81 0.033302 -160.8
8.71930000 0.033340 -160.9 0.999430 -70.81 0.999430 -70.81 0.033340 -160.8
8.71940000 0.033378 -160.9 0.999428 -70.82 0.999428 -70.82 0.033378 -160.8
8.71950000 0.033416 -160.9 0.999427 -70.82 0.999427 -70.82 0.033416 -160.8
8.71960000 0.033455 -160.9 0.999426 -70.82 0.999426 -70.82 0.033455 -160.8
8.71970000 0.033493 -160.9 0.999425 -70.83 0.999425 -70.83 0.033493 -160.8
8.71980000 0.033531 -160.9 0.999423 -70.83 0.999423 -70.83 0.033531 -160.8
8.71990000 0.033570 -160.9 0.999422 -70.83 0.999422 -70.83 0.033570 -160.8
8.72000000 0.033609 -160.9 0.999421 -70.84 0.999421 -70.84 0.033609 -160.8
8.72010000 0.033647 -160.9 0.999419 -70.84 0.999419 -70.84 0.033647 -160.8
8.72020000 0.033686 -160.9 0.999418 -70.84 0.999418 -70.84 0.033686 -160.8
8.72030000 0.033725 -160.9 0.999417 -70.84 0.999417 -70.84 0.033725 -160.8
8.72040000 0.033764 -160.9 0.999415 -70.85 0.999415 -70.85 0.033764 -160.8
8.72050000 0.033803 -160.9 0.999414 -70.85 0.999414 -70.85 0.033803 -160.8
8.72060000 0.033842 -160.9 0.999413 -70.85 0.999413 -70.85 0.033842 -160.8
8.72070000 0.033882 -160.9 0.999411 -70.86 0.999411 -70.86 0.033882 -160.8
8.72080000 0.033921 -160.9 0.999410 -70.86 0.999410 -70.86 0.033921 -160.8
8.72090000 0.033961 -160.9 0.999409 -70.86 0.999409 -70.86 0.033961 -160.8
8.72100000 0.034000 -160.9 0.999407 -70.87 0.999407 -70.87 0.034000 -160.8
8.72110000 0.034040 -160.9 0.999406 -70.87 0.999406 -70.87 0.034040 -160.8
8.72120000 0.034079 -160.9 0.999405 -70.87 0.999405 -70.87 0.034080 -160.8
8.72130000 0.034119 -160.9 0.999403 -70.88 0.999403 -70.88 0.034119 -160.8
8.72140000 0.034159 -160.9 0.999402 -70.88 0.999402 -70.88 0.034159 -160.8
8.72150000 0.034199 -160.9 0.999400 -70.88 0.999400 -70.88 0.034199 -160.8
8.72160000 0.034239 -160.9 0.999399 -70.88 0.999399 -70.88 0.034239 -160.8
8.72170000 0.034280 -160.9 0.999398 -70.89 0.999398 -70.89 0.034280 -160.8
8.72180000 0.034320 -161.0 0.999396 -70.89 0.999396 -70.89 0.034320 -160.8
8.72190000 0.034360 -161.0 0.999395 -70.89 0.999395 -70.89 0.034360 -160.8
8.72200000 0.034401 -161.0 0.999393 -70.90 0.999393 -70.90 0.034401 -160.8
8.72210000 0.034441 -161.0 0.999392 -70.90 0.999392 -70.90 0.034441 -160.8
8.72220000 0.034482 -161.0 0.999391 -70.90 0.999391 -70.90 0.034482 -160.9
8.72230000 0.034523 -161.0 0.999389 -70.91 0.999389 -70.91 0.034523 -160.9
8.72240000 0.034564 -161.0 0.999388 -70.91 0.999388 -70.91 0.034564 -160.9
8.72250000 0.034605 -161.0 0.999386 -70.91 0.999386 -70.91 0.034605 -160.9
8.72260000 0.034646 -161.0 0.999385 -70.92 0.999385 -70.92 0.034646 -160.9
8.72270000 0.034687 -161.0 0.999383 -70.92 0.999383 -70.92 0.034687 -160.9
8.72280000 0.034728 -161.0 0.999382 -70.92 0.999382 -70.92 0.034728 -160.9
8.72290000 0.034770 -161.0 0.999380 -70.93 0.999380 -70.93 0.034770 -160.9
8.72300000 0.034811 -161.0 0.999379 -70.93 0.999379 -70.93 0.034811 -160.9
8.72310000 0.034853 -161.0 0.999378 -70.93 0.999378 -70.93 0.034853 -160.9
8.72320000 0.034895 -161.0 0.999376 -70.93 0.999376 -70.93 0.034895 -160.9
8.72330000 0.034936 -161.0 0.999375 -70.94 0.999375 -70.94 0.034936 -160.9
8.72340000 0.034978 -161.0 0.999373 -70.94 0.999373 -70.94 0.034978 -160.9
8.72350000 0.035020 -161.0 0.999372 -70.94 0.999372 -70.94 0.035020 -160.9
8.72360000 0.035062 -161.0 0.999370 -70.95 0.999370 -70.95 0.035062 -160.9
8.72370000 0.035105 -161.0 0.999369 -70.95 0.999369 -70.95 0.035105 -160.9
8.72380000 0.035147 -161.0 0.999367 -70.95 0.999367 -70.95 0.035147 -160.9
8.72390000 0.035189 -161.0 0.999366 -70.96 0.999366 -70.96 0.035189 -160.9
8.72400000 0.035232 -161.0 0.999364 -70.96 0.999364 -70.96 0.035232 -160.9
8.72410000 0.035274 -161.0 0.999363 -70.96 0.999363 -70.96 0.035274 -160.9
8.72420000 0.035317 -161.0 0.999361 -70.97 0.999361 -70.97 0.035317 -160.9
8.72430000 0.035360 -161.0 0.999360 -70.97 0.999360 -70.97 0.035360 -160.9
8.72440000 0.035403 -161.0 0.999358 -70.97 0.999358 -70.97 0.035403 -160.9
8.72450000 0.035446 -161.0 0.999356 -70.98 0.999356 -70.98 0.035446 -160.9
8.72460000 0.035489 -161.0 0.999355 -70.98 0.999355 -70.98 0.035489 -160.9
8.72470000 0.035532 -161.0 0.999353 -70.98 0.999353 -70.98 0.035532 -160.9
8.72480000 0.035576 -161.0 0.999352 -70.99 0.999352 -70.99 0.035576 -160.9
8.72490000 0.035619 -161.0 0.999350 -70.99 0.999350 -70.99 0.035619 -160.9
8.72500000 0.035663 -161.0 0.999349 -70.99 0.999349 -70.99 0.035663 -160.9
8.72510000 0.035706 -161.1 0.999347 -71.00 0.999347 -71.00 0.035706 -161.0
8.72520000 0.035750 -161.1 0.999346 -71.00 0.999346 -71.00 0.035750 -161.0
8.72530000 0.035794 -161.1 0.999344 -71.00 0.999344 -71.00 0.035794 -161.0
8.72540000 0.035838 -161.1 0.999342 -71.01 0.999342 -71.01 0.035838 -161.0
8.72550000 0.035882 -161.1 0.999341 -71.01 0.999341 -71.01 0.035882 -161.0
8.72560000 0.035926 -161.1 0.999339 -71.01 0.999339 -71.01 0.035926 -161.0
8.72570000 0.035971 -161.1 0.999337 -71.02 0.999337 -71.02 0.035971 -161.0
8.72580000 0.036015 -161.1 0.999336 -71.02 0.999336 -71.02 0.036015 -161.0
8.72590000 0.036060 -161.1 0.999334 -71.02 0.999334 -71.02 0.036060 -161.0
8.72600000 0.036104 -161.1 0.999333 -71.03 0.999333 -71.03 0.036104 -161.0
8.72610000 0.036149 -161.1 0.999331 -71.03 0.999331 -71.03 0.036149 -161.0
8.72620000 0.036194 -161.1 0.999329 -71.03 0.999329 -71.03 0.036194 -161.0
8.72630000 0.036239 -161.1 0.999328 -71.04 0.999328 -71.04 0.036239 -161.0
8.72640000 0.036284 -161.1 0.999326 -71.04 0.999326 -71.04 0.036284 -161.0
8.72650000 0.036329 -161.1 0.999324 -71.04 0.999324 -71.04 0.036329 -161.0
8.72660000 0.036375 -161.1 0.999323 -71.05 0.999323 -71.05 0.036375 -161.0
8.72670000 0.036420 -161.1 0.999321 -71.05 0.999321 -71.05 0.036420 -161.0
8.72680000 0.036466 -161.1 0.999319 -71.05 0.999319 -71.05 0.036466 -161.0
8.72690000 0.036511 -161.1 0.999318 -71.06 0.999318 -71.06 0.036511 -161.0
8.72700000 0.036557 -161.1 0.999316 -71.06 0.999316 -71.06 0.036557 -161.0
8.72710000 0.036603 -161.1 0.999314 -71.06 0.999314 -71.06 0.036603 -161.0
8.72720000 0.036649 -161.1 0.999313 -71.07 0.999313 -71.07 0.036649 -161.0
8.72730000 0.036695 -161.1 0.999311 -71.07 0.999311 -71.07 0.036695 -161.0
8.72740000 0.036741 -161.1 0.999309 -71.07 0.999309 -71.07 0.036741 -161.0
8.72750000 0.036788 -161.1 0.999307 -71.08 0.999307 -71.08 0.036788 -161.0
8.72760000 0.036834 -161.1 0.999306 -71.08 0.999306 -71.08 0.036834 -161.0
8.72770000 0.036881 -161.1 0.999304 -71.08 0.999304 -71.08 0.036881 -161.0
8.72780000 0.036928 -161.1 0.999302 -71.09 0.999302 -71.09 0.036928 -161.0
8.72790000 0.036975 -161.1 0.999300 -71.09 0.999300 -71.09 0.036975 -161.1
8.72800000 0.037022 -161.1 0.999299 -71.09 0.999299 -71.09 0.037022 -161.1
8.72810000 0.037069 -161.1 0.999297 -71.10 0.999297 -71.10 0.037069 -161.1
8.72820000 0.037116 -161.1 0.999295 -71.10 0.999295 -71.10 0.037116 -161.1
8.72830000 0.037163 -161.2 0.999293 -71.10 0.999293 -71.10 0.037163 -161.1
8.72840000 0.037211 -161.2 0.999292 -71.11 0.999292 -71.11 0.037211 -161.1
8.72850000 0.037258 -161.2 0.999290 -71.11 0.999290 -71.11 0.037258 -161.1
8.72860000 0.037306 -161.2 0.999288 -71.12 0.999288 -71.12 0.037306 -161.1
8.72870000 0.037354 -161.2 0.999286 -71.12 0.999286 -71.12 0.037354 -161.1
8.72880000 0.037402 -161.2 0.999284 -71.12 0.999284 -71.12 0.037402 -161.1
8.72890000 0.037450 -161.2 0.999283 -71.13 0.999283 -71.13 0.037450 -161.1
8.72900000 0.037498 -161.2 0.999281 -71.13 0.999281 -71.13 0.037498 -161.1
8.72910000 0.037547 -161.2 0.999279 -71.13 0.999279 -71.13 0.037547 -161.1
8.72920000 0.037595 -161.2 0.999277 -71.14 0.999277 -71.14 0.037595 -161.1
8.72930000 0.037644 -161.2 0.999275 -71.14 0.999275 -71.14 0.037644 -161.1
8.72940000 0.037692 -161.2 0.999273 -71.14 0.999273 -71.14 0.037692 -161.1
8.72950000 0.037741 -161.2 0.999271 -71.15 0.999271 -71.15 0.037741 -161.1
8.72960000 0.037790 -161.2 0.999270 -71.15 0.999270 -71.15 0.037790 -161.1
8.72970000 0.037839 -161.2 0.999268 -71.15 0.999268 -71.15 0.037839 -161.1
8.72980000 0.037889 -161.2 0.999266 -71.16 0.999266 -71.16 0.037889 -161.1
8.72990000 0.037938 -161.2 0.999264 -71.16 0.999264 -71.16 0.037938 -161.1
8.73000000 0.037987 -161.2 0.999262 -71.17 0.999262 -71.17 0.037987 -161.1
8.73010000 0.038037 -161.2 0.999260 -71.17 0.999260 -71.17 0.038037 -161.1
8.73020000 0.038087 -161.2 0.999258 -71.17 0.999258 -71.17 0.038087 -161.1
8.73030000 0.038137 -161.2 0.999256 -71.18 0.999256 -71.18 0.038137 -161.1
8.73040000 0.038187 -161.2 0.999254 -71.18 0.999254 -71.18 0.038187 -161.1
8.73050000 0.038237 -161.2 0.999252 -71.18 0.999252 -71.18 0.038237 -161.2
8.73060000 0.038287 -161.2 0.999250 -71.19 0.999250 -71.19 0.038287 -161.2
8.73070000 0.038338 -161.2 0.999248 -71.19 0.999248 -71.19 0.038338 -161.2
8.73080000 0.038388 -161.2 0.999247 -71.19 0.999247 -71.19 0.038388 -161.2
8.73090000 0.038439 -161.2 0.999245 -71.20 0.999245 -71.20 0.038439 -161.2
8.73100000 0.038490 -161.2 0.999243 -71.20 0.999243 -71.20 0.038490 -161.2
8.73110000 0.038541 -161.2 0.999241 -71.21 0.999241 -71.21 0.038541 -161.2
8.73120000 0.038592 -161.3 0.999239 -71.21 0.999239 -71.21 0.038592 -161.2
8.73130000 0.038643 -161.3 0.999237 -71.21 0.999237 -71.21 0.038643 -161.2
8.73140000 0.038694 -161.3 0.999235 -71.22 0.999235 -71.22 0.038694 -161.2
8.73150000 0.038746 -161.3 0.999233 -71.22 0.999233 -71.22 0.038746 -161.2
8.73160000 0.038798 -161.3 0.999231 -71.22 0.999231 -71.22 0.038798 -161.2
8.73170000 0.038849 -161.3 0.999228 -71.23 0.999228 -71.23 0.038849 -161.2
8.73180000 0.038901 -161.3 0.999226 -71.23 0.999226 -71.23 0.038901 -161.2
8.73190000 0.038953 -161.3 0.999224 -71.24 0.999224 -71.24 0.038953 -161.2
8.73200000 0.039006 -161.3 0.999222 -71.24 0.999222 -71.24 0.039006 -161.2
8.73210000 0.039058 -161.3 0.999220 -71.24 0.999220 -71.24 0.039058 -161.2
8.73220000 0.039110 -161.3 0.999218 -71.25 0.999218 -71.25 0.039110 -161.2
8.73230000 0.039163 -161.3 0.999216 -71.25 0.999216 -71.25 0.039163 -161.2
8.73240000 0.039216 -161.3 0.999214 -71.26 0.999214 -71.26 0.039216 -161.2
8.73250000 0.039269 -161.3 0.999212 -71.26 0.999212 -71.26 0.039269 -161.2
8.73260000 0.039322 -161.3 0.999210 -71.26 0.999210 -71.26 0.039322 -161.2
8.73270000 0.039375 -161.3 0.999208 -71.27 0.999208 -71.27 0.039375 -161.2
8.73280000 0.039428 -161.3 0.999206 -71.27 0.999206 -71.27 0.039428 -161.2
8.73290000 0.039482 -161.3 0.999203 -71.27 0.999203 -71.27 0.039482 -161.3
8.73300000 0.039536 -161.3 0.999201 -71.28 0.999201 -71.28 0.039536 -161.3
8.73310000 0.039589 -161.3 0.999199 -71.28 0.999199 -71.28 0.039589 -161.3
8.73320000 0.039643 -161.3 0.999197 -71.29 0.999197 -71.29 0.039643 -161.3
8.73330000 0.039698 -161.3 0.999195 -71.29 0.999195 -71.29 0.039698 -161.3
8.73340000 0.039752 -161.3 0.999193 -71.29 0.999193 -71.29 0.039752 -161.3
8.73350000 0.039806 -161.3 0.999190 -71.30 0.999190 -71.30 0.039806 -161.3
8.73360000 0.039861 -161.3 0.999188 -71.30 0.999188 -71.30 0.039861 -161.3
8.73370000 0.039915 -161.3 0.999186 -71.31 0.999186 -71.31 0.039915 -161.3
8.73380000 0.039970 -161.3 0.999184 -71.31 0.999184 -71.31 0.039970 -161.3
8.73390000 0.040025 -161.3 0.999182 -71.31 0.999182 -71.31 0.040025 -161.3
8.73400000 0.040081 -161.4 0.999179 -71.32 0.999179 -71.32 0.040081 -161.3
8.73410000 0.040136 -161.4 0.999177 -71.32 0.999177 -71.32 0.040136 -161.3
8.73420000 0.040191 -161.4 0.999175 -71.33 0.999175 -71.33 0.040191 -161.3
8.73430000 0.040247 -161.4 0.999173 -71.33 0.999173 -71.33 0.040247 -161.3
8.73440000 0.040303 -161.4 0.999170 -71.33 0.999170 -71.33 0.040303 -161.3
8.73450000 0.040359 -161.4 0.999168 -71.34 0.999168 -71.34 0.040359 -161.3
8.73460000 0.040415 -161.4 0.999166 -71.34 0.999166 -71.34 0.040415 -161.3
8.73470000 0.040471 -161.4 0.999163 -71.35 0.999163 -71.35 0.040471 -161.3
8.73480000 0.040527 -161.4 0.999161 -71.35 0.999161 -71.35 0.040527 -161.3
8.73490000 0.040584 -161.4 0.999159 -71.35 0.999159 -71.35 0.040584 -161.3
8.73500000 0.040641 -161.4 0.999156 -71.36 0.999156 -71.36 0.040641 -161.3
8.73510000 0.040698 -161.4 0.999154 -71.36 0.999154 -71.36 0.040698 -161.3
8.73520000 0.040755 -161.4 0.999152 -71.37 0.999152 -71.37 0.040755 -161.3
8.73530000 0.040812 -161.4 0.999149 -71.37 0.999149 -71.37 0.040812 -161.4
8.73540000 0.040869 -161.4 0.999147 -71.37 0.999147 -71.37 0.040869 -161.4
8.73550000 0.040927 -161.4 0.999145 -71.38 0.999145 -71.38 0.040927 -161.4
8.73560000 0.040985 -161.4 0.999142 -71.38 0.999142 -71.38 0.040985 -161.4
8.73570000 0.041043 -161.4 0.999140 -71.39 0.999140 -71.39 0.041043 -161.4
8.73580000 0.041101 -161.4 0.999137 -71.39 0.999137 -71.39 0.041101 -161.4
8.73590000 0.041159 -161.4 0.999135 -71.39 0.999135 -71.39 0.041159 -161.4
8.73600000 0.041217 -161.4 0.999133 -71.40 0.999133 -71.40 0.041217 -161.4
8.73610000 0.041276 -161.4 0.999130 -71.40 0.999130 -71.40 0.041276 -161.4
8.73620000 0.041334 -161.4 0.999128 -71.41 0.999128 -71.41 0.041334 -161.4
8.73630000 0.041393 -161.4 0.999125 -71.41 0.999125 -71.41 0.041393 -161.4
8.73640000 0.041452 -161.4 0.999123 -71.41 0.999123 -71.41 0.041452 -161.4
8.73650000 0.041512 -161.4 0.999120 -71.42 0.999120 -71.42 0.041512 -161.4
8.73660000 0.041571 -161.5 0.999118 -71.42 0.999118 -71.42 0.041571 -161.4
8.73670000 0.041631 -161.5 0.999115 -71.43 0.999115 -71.43 0.041631 -161.4
8.73680000 0.041690 -161.5 0.999113 -71.43 0.999113 -71.43 0.041690 -161.4
8.73690000 0.041750 -161.5 0.999110 -71.44 0.999110 -71.44 0.041750 -161.4
8.73700000 0.041810 -161.5 0.999108 -71.44 0.999108 -71.44 0.041810 -161.4
8.73710000 0.041871 -161.5 0.999105 -71.44 0.999105 -71.44 0.041871 -161.4
8.73720000 0.041931 -161.5 0.999102 -71.45 0.999102 -71.45 0.041931 -161.4
8.73730000 0.041992 -161.5 0.999100 -71.45 0.999100 -71.45 0.041992 -161.4
8.73740000 0.042052 -161.5 0.999097 -71.46 0.999097 -71.46 0.042053 -161.4
8.73750000 0.042113 -161.5 0.999095 -71.46 0.999095 -71.46 0.042113 -161.5
8.73760000 0.042175 -161.5 0.999092 -71.47 0.999092 -71.47 0.042175 -161.5
8.73770000 0.042236 -161.5 0.999089 -71.47 0.999089 -71.47 0.042236 -161.5
8.73780000 0.042297 -161.5 0.999087 -71.47 0.999087 -71.47 0.042297 -161.5
8.73790000 0.042359 -161.5 0.999084 -71.48 0.999084 -71.48 0.042359 -161.5
8.73800000 0.042421 -161.5 0.999082 -71.48 0.999082 -71.48 0.042421 -161.5
8.73810000 0.042483 -161.5 0.999079 -71.49 0.999079 -71.49 0.042483 -161.5
8.73820000 0.042545 -161.5 0.999076 -71.49 0.999076 -71.49 0.042545 -161.5
8.73830000 0.042608 -161.5 0.999074 -71.50 0.999074 -71.50 0.042608 -161.5
8.73840000 0.042670 -161.5 0.999071 -71.50 0.999071 -71.50 0.042670 -161.5
8.73850000 0.042733 -161.5 0.999068 -71.50 0.999068 -71.50 0.042733 -161.5
8.73860000 0.042796 -161.5 0.999065 -71.51 0.999065 -71.51 0.042796 -161.5
8.73870000 0.042859 -161.5 0.999063 -71.51 0.999063 -71.51 0.042859 -161.5
8.73880000 0.042923 -161.5 0.999060 -71.52 0.999060 -71.52 0.042923 -161.5
8.73890000 0.042986 -161.5 0.999057 -71.52 0.999057 -71.52 0.042986 -161.5
8.73900000 0.043050 -161.6 0.999054 -71.53 0.999054 -71.53 0.043050 -161.5
8.73910000 0.043114 -161.6 0.999052 -71.53 0.999052 -71.53 0.043114 -161.5
8.73920000 0.043178 -161.6 0.999049 -71.54 0.999049 -71.54 0.043178 -161.5