! Sonnet Data File
! From: emgraph Version : 16.52
! From Project: transmon_trial2
! Data is De-embedded 
! Data File Written: 10/19/2017 21:40:57
!< HDATE 10/19/2017 20:11:27
!< MDATE 10/19/2017 20:13:29
!< PARAMS
!< Lj = 15.24
!< Gap = 6.0
!< Width = 10.0
!< Airgap = 6.0
!< Pwidth = 2000.0
!< END PARAMS
# GHZ S MA R 34.70000
8.65000000 0.005261 -161.7 0.999977 -71.97 0.999977 -71.97 0.005261 -162.2
!< P1 F=8.65 Eeff=(5.13426974 -5.6456e-5) Z0=(34.6544633 -9.2759e-5) R=0.0 C=0.0 
!< P2 F=8.65 Eeff=(5.13426974 -5.6456e-5) Z0=(34.6544633 -9.2759e-5) R=0.0 C=0.0 
8.65010000 0.005274 -161.7 0.999977 -71.97 0.999977 -71.97 0.005274 -162.2
8.65020000 0.005288 -161.7 0.999977 -71.97 0.999977 -71.97 0.005288 -162.3
8.65030000 0.005301 -161.7 0.999976 -71.97 0.999976 -71.97 0.005301 -162.3
8.65040000 0.005315 -161.7 0.999976 -71.98 0.999976 -71.98 0.005315 -162.3
8.65050000 0.005328 -161.7 0.999976 -71.98 0.999976 -71.98 0.005328 -162.3
8.65060000 0.005342 -161.7 0.999976 -71.98 0.999976 -71.98 0.005342 -162.3
8.65070000 0.005355 -161.7 0.999976 -71.98 0.999976 -71.98 0.005355 -162.3
8.65080000 0.005369 -161.7 0.999976 -71.98 0.999976 -71.98 0.005369 -162.3
8.65090000 0.005383 -161.7 0.999976 -71.98 0.999976 -71.98 0.005383 -162.3
8.65100000 0.005396 -161.7 0.999976 -71.99 0.999976 -71.99 0.005396 -162.3
8.65110000 0.005410 -161.7 0.999976 -71.99 0.999976 -71.99 0.005410 -162.3
8.65120000 0.005424 -161.7 0.999976 -71.99 0.999976 -71.99 0.005424 -162.3
8.65130000 0.005437 -161.7 0.999976 -71.99 0.999976 -71.99 0.005437 -162.3
8.65140000 0.005451 -161.7 0.999976 -71.99 0.999976 -71.99 0.005451 -162.3
8.65150000 0.005465 -161.7 0.999976 -71.99 0.999976 -71.99 0.005465 -162.3
8.65160000 0.005478 -161.7 0.999975 -72.00 0.999975 -72.00 0.005478 -162.3
8.65170000 0.005492 -161.7 0.999975 -72.00 0.999975 -72.00 0.005492 -162.3
8.65180000 0.005506 -161.7 0.999975 -72.00 0.999975 -72.00 0.005506 -162.3
8.65190000 0.005520 -161.7 0.999975 -72.00 0.999975 -72.00 0.005520 -162.3
8.65200000 0.005533 -161.7 0.999975 -72.00 0.999975 -72.00 0.005533 -162.3
8.65210000 0.005547 -161.7 0.999975 -72.00 0.999975 -72.00 0.005547 -162.3
8.65220000 0.005561 -161.7 0.999975 -72.00 0.999975 -72.00 0.005561 -162.3
8.65230000 0.005575 -161.7 0.999975 -72.01 0.999975 -72.01 0.005575 -162.3
8.65240000 0.005589 -161.7 0.999975 -72.01 0.999975 -72.01 0.005589 -162.3
8.65250000 0.005603 -161.7 0.999975 -72.01 0.999975 -72.01 0.005603 -162.3
8.65260000 0.005617 -161.7 0.999975 -72.01 0.999975 -72.01 0.005617 -162.3
8.65270000 0.005631 -161.7 0.999975 -72.01 0.999975 -72.01 0.005631 -162.3
8.65280000 0.005645 -161.7 0.999974 -72.01 0.999974 -72.01 0.005644 -162.3
8.65290000 0.005658 -161.7 0.999974 -72.02 0.999974 -72.02 0.005658 -162.3
8.65300000 0.005672 -161.7 0.999974 -72.02 0.999974 -72.02 0.005672 -162.3
8.65310000 0.005686 -161.7 0.999974 -72.02 0.999974 -72.02 0.005686 -162.3
8.65320000 0.005700 -161.7 0.999974 -72.02 0.999974 -72.02 0.005700 -162.3
8.65330000 0.005715 -161.7 0.999974 -72.02 0.999974 -72.02 0.005715 -162.3
8.65340000 0.005729 -161.7 0.999974 -72.02 0.999974 -72.02 0.005729 -162.3
8.65350000 0.005743 -161.7 0.999974 -72.03 0.999974 -72.03 0.005743 -162.3
8.65360000 0.005757 -161.7 0.999974 -72.03 0.999974 -72.03 0.005757 -162.3
8.65370000 0.005771 -161.7 0.999974 -72.03 0.999974 -72.03 0.005771 -162.3
8.65380000 0.005785 -161.7 0.999974 -72.03 0.999974 -72.03 0.005785 -162.3
8.65390000 0.005799 -161.7 0.999974 -72.03 0.999974 -72.03 0.005799 -162.3
8.65400000 0.005813 -161.7 0.999973 -72.03 0.999973 -72.03 0.005813 -162.3
8.65410000 0.005828 -161.7 0.999973 -72.04 0.999973 -72.04 0.005828 -162.3
8.65420000 0.005842 -161.7 0.999973 -72.04 0.999973 -72.04 0.005842 -162.3
8.65430000 0.005856 -161.8 0.999973 -72.04 0.999973 -72.04 0.005856 -162.3
8.65440000 0.005870 -161.8 0.999973 -72.04 0.999973 -72.04 0.005870 -162.3
8.65450000 0.005884 -161.8 0.999973 -72.04 0.999973 -72.04 0.005884 -162.3
8.65460000 0.005899 -161.8 0.999973 -72.04 0.999973 -72.04 0.005899 -162.3
8.65470000 0.005913 -161.8 0.999973 -72.05 0.999973 -72.05 0.005913 -162.3
8.65480000 0.005927 -161.8 0.999973 -72.05 0.999973 -72.05 0.005927 -162.3
8.65490000 0.005942 -161.8 0.999973 -72.05 0.999973 -72.05 0.005942 -162.3
8.65500000 0.005956 -161.8 0.999973 -72.05 0.999973 -72.05 0.005956 -162.3
8.65510000 0.005970 -161.8 0.999972 -72.05 0.999972 -72.05 0.005970 -162.3
8.65520000 0.005985 -161.8 0.999972 -72.05 0.999972 -72.05 0.005985 -162.3
8.65530000 0.005999 -161.8 0.999972 -72.06 0.999972 -72.06 0.005999 -162.3
8.65540000 0.006014 -161.8 0.999972 -72.06 0.999972 -72.06 0.006014 -162.3
8.65550000 0.006028 -161.8 0.999972 -72.06 0.999972 -72.06 0.006028 -162.3
8.65560000 0.006043 -161.8 0.999972 -72.06 0.999972 -72.06 0.006043 -162.3
8.65570000 0.006057 -161.8 0.999972 -72.06 0.999972 -72.06 0.006057 -162.3
8.65580000 0.006072 -161.8 0.999972 -72.06 0.999972 -72.06 0.006072 -162.3
8.65590000 0.006086 -161.8 0.999972 -72.07 0.999972 -72.07 0.006086 -162.3
8.65600000 0.006101 -161.8 0.999972 -72.07 0.999972 -72.07 0.006101 -162.3
8.65610000 0.006115 -161.8 0.999972 -72.07 0.999972 -72.07 0.006115 -162.3
8.65620000 0.006130 -161.8 0.999971 -72.07 0.999971 -72.07 0.006130 -162.3
8.65630000 0.006145 -161.8 0.999971 -72.07 0.999971 -72.07 0.006145 -162.3
8.65640000 0.006159 -161.8 0.999971 -72.07 0.999971 -72.07 0.006159 -162.4
8.65650000 0.006174 -161.8 0.999971 -72.08 0.999971 -72.08 0.006174 -162.4
8.65660000 0.006189 -161.8 0.999971 -72.08 0.999971 -72.08 0.006189 -162.4
8.65670000 0.006203 -161.8 0.999971 -72.08 0.999971 -72.08 0.006203 -162.4
8.65680000 0.006218 -161.8 0.999971 -72.08 0.999971 -72.08 0.006218 -162.4
8.65690000 0.006233 -161.8 0.999971 -72.08 0.999971 -72.08 0.006233 -162.4
8.65700000 0.006248 -161.8 0.999971 -72.08 0.999971 -72.08 0.006247 -162.4
8.65710000 0.006262 -161.8 0.999971 -72.09 0.999971 -72.09 0.006262 -162.4
8.65720000 0.006277 -161.8 0.999970 -72.09 0.999970 -72.09 0.006277 -162.4
8.65730000 0.006292 -161.8 0.999970 -72.09 0.999970 -72.09 0.006292 -162.4
8.65740000 0.006307 -161.8 0.999970 -72.09 0.999970 -72.09 0.006307 -162.4
8.65750000 0.006322 -161.8 0.999970 -72.09 0.999970 -72.09 0.006322 -162.4
8.65760000 0.006336 -161.8 0.999970 -72.09 0.999970 -72.09 0.006336 -162.4
8.65770000 0.006351 -161.8 0.999970 -72.10 0.999970 -72.10 0.006351 -162.4
8.65780000 0.006366 -161.8 0.999970 -72.10 0.999970 -72.10 0.006366 -162.4
8.65790000 0.006381 -161.8 0.999970 -72.10 0.999970 -72.10 0.006381 -162.4
8.65800000 0.006396 -161.8 0.999970 -72.10 0.999970 -72.10 0.006396 -162.4
8.65810000 0.006411 -161.8 0.999970 -72.10 0.999970 -72.10 0.006411 -162.4
8.65820000 0.006426 -161.8 0.999969 -72.10 0.999969 -72.10 0.006426 -162.4
8.65830000 0.006441 -161.8 0.999969 -72.11 0.999969 -72.11 0.006441 -162.4
8.65840000 0.006456 -161.8 0.999969 -72.11 0.999969 -72.11 0.006456 -162.4
8.65850000 0.006471 -161.8 0.999969 -72.11 0.999969 -72.11 0.006471 -162.4
8.65860000 0.006486 -161.8 0.999969 -72.11 0.999969 -72.11 0.006486 -162.4
8.65870000 0.006502 -161.8 0.999969 -72.11 0.999969 -72.11 0.006501 -162.4
8.65880000 0.006517 -161.8 0.999969 -72.11 0.999969 -72.11 0.006517 -162.4
8.65890000 0.006532 -161.8 0.999969 -72.12 0.999969 -72.12 0.006532 -162.4
8.65900000 0.006547 -161.8 0.999969 -72.12 0.999969 -72.12 0.006547 -162.4
8.65910000 0.006562 -161.8 0.999969 -72.12 0.999969 -72.12 0.006562 -162.4
8.65920000 0.006577 -161.8 0.999968 -72.12 0.999968 -72.12 0.006577 -162.4
8.65930000 0.006593 -161.8 0.999968 -72.12 0.999968 -72.12 0.006593 -162.4
8.65940000 0.006608 -161.8 0.999968 -72.12 0.999968 -72.12 0.006608 -162.4
8.65950000 0.006623 -161.8 0.999968 -72.13 0.999968 -72.13 0.006623 -162.4
8.65960000 0.006638 -161.8 0.999968 -72.13 0.999968 -72.13 0.006638 -162.4
8.65970000 0.006654 -161.8 0.999968 -72.13 0.999968 -72.13 0.006654 -162.4
8.65980000 0.006669 -161.8 0.999968 -72.13 0.999968 -72.13 0.006669 -162.4
8.65990000 0.006684 -161.8 0.999968 -72.13 0.999968 -72.13 0.006684 -162.4
8.66000000 0.006700 -161.9 0.999968 -72.13 0.999968 -72.13 0.006700 -162.4
8.66010000 0.006715 -161.9 0.999967 -72.14 0.999967 -72.14 0.006715 -162.4
8.66020000 0.006731 -161.9 0.999967 -72.14 0.999967 -72.14 0.006731 -162.4
8.66030000 0.006746 -161.9 0.999967 -72.14 0.999967 -72.14 0.006746 -162.4
8.66040000 0.006762 -161.9 0.999967 -72.14 0.999967 -72.14 0.006762 -162.4
8.66050000 0.006777 -161.9 0.999967 -72.14 0.999967 -72.14 0.006777 -162.4
8.66060000 0.006793 -161.9 0.999967 -72.15 0.999967 -72.15 0.006793 -162.4
8.66070000 0.006808 -161.9 0.999967 -72.15 0.999967 -72.15 0.006808 -162.4
8.66080000 0.006824 -161.9 0.999967 -72.15 0.999967 -72.15 0.006824 -162.4
8.66090000 0.006839 -161.9 0.999967 -72.15 0.999967 -72.15 0.006839 -162.4
8.66100000 0.006855 -161.9 0.999966 -72.15 0.999966 -72.15 0.006855 -162.4
8.66110000 0.006870 -161.9 0.999966 -72.15 0.999966 -72.15 0.006870 -162.4
8.66120000 0.006886 -161.9 0.999966 -72.16 0.999966 -72.16 0.006886 -162.4
8.66130000 0.006902 -161.9 0.999966 -72.16 0.999966 -72.16 0.006902 -162.4
8.66140000 0.006917 -161.9 0.999966 -72.16 0.999966 -72.16 0.006917 -162.4
8.66150000 0.006933 -161.9 0.999966 -72.16 0.999966 -72.16 0.006933 -162.4
8.66160000 0.006949 -161.9 0.999966 -72.16 0.999966 -72.16 0.006949 -162.4
8.66170000 0.006965 -161.9 0.999966 -72.16 0.999966 -72.16 0.006965 -162.4
8.66180000 0.006980 -161.9 0.999966 -72.17 0.999966 -72.17 0.006980 -162.4
8.66190000 0.006996 -161.9 0.999965 -72.17 0.999965 -72.17 0.006996 -162.4
8.66200000 0.007012 -161.9 0.999965 -72.17 0.999965 -72.17 0.007012 -162.4
8.66210000 0.007028 -161.9 0.999965 -72.17 0.999965 -72.17 0.007028 -162.4
8.66220000 0.007044 -161.9 0.999965 -72.17 0.999965 -72.17 0.007044 -162.4
8.66230000 0.007060 -161.9 0.999965 -72.17 0.999965 -72.17 0.007060 -162.4
8.66240000 0.007076 -161.9 0.999965 -72.18 0.999965 -72.18 0.007076 -162.5
8.66250000 0.007091 -161.9 0.999965 -72.18 0.999965 -72.18 0.007091 -162.5
8.66260000 0.007107 -161.9 0.999965 -72.18 0.999965 -72.18 0.007107 -162.5
8.66270000 0.007123 -161.9 0.999965 -72.18 0.999965 -72.18 0.007123 -162.5
8.66280000 0.007139 -161.9 0.999964 -72.18 0.999964 -72.18 0.007139 -162.5
8.66290000 0.007155 -161.9 0.999964 -72.18 0.999964 -72.18 0.007155 -162.5
8.66300000 0.007171 -161.9 0.999964 -72.19 0.999964 -72.19 0.007171 -162.5
8.66310000 0.007188 -161.9 0.999964 -72.19 0.999964 -72.19 0.007188 -162.5
8.66320000 0.007204 -161.9 0.999964 -72.19 0.999964 -72.19 0.007204 -162.5
8.66330000 0.007220 -161.9 0.999964 -72.19 0.999964 -72.19 0.007220 -162.5
8.66340000 0.007236 -161.9 0.999964 -72.19 0.999964 -72.19 0.007236 -162.5
8.66350000 0.007252 -161.9 0.999964 -72.20 0.999964 -72.20 0.007252 -162.5
8.66360000 0.007268 -161.9 0.999963 -72.20 0.999963 -72.20 0.007268 -162.5
8.66370000 0.007284 -161.9 0.999963 -72.20 0.999963 -72.20 0.007284 -162.5
8.66380000 0.007301 -161.9 0.999963 -72.20 0.999963 -72.20 0.007301 -162.5
8.66390000 0.007317 -161.9 0.999963 -72.20 0.999963 -72.20 0.007317 -162.5
8.66400000 0.007333 -161.9 0.999963 -72.20 0.999963 -72.20 0.007333 -162.5
8.66410000 0.007350 -161.9 0.999963 -72.21 0.999963 -72.21 0.007349 -162.5
8.66420000 0.007366 -161.9 0.999963 -72.21 0.999963 -72.21 0.007366 -162.5
8.66430000 0.007382 -161.9 0.999963 -72.21 0.999963 -72.21 0.007382 -162.5
8.66440000 0.007399 -161.9 0.999962 -72.21 0.999962 -72.21 0.007399 -162.5
8.66450000 0.007415 -161.9 0.999962 -72.21 0.999962 -72.21 0.007415 -162.5
8.66460000 0.007431 -161.9 0.999962 -72.21 0.999962 -72.21 0.007431 -162.5
8.66470000 0.007448 -161.9 0.999962 -72.22 0.999962 -72.22 0.007448 -162.5
8.66480000 0.007464 -161.9 0.999962 -72.22 0.999962 -72.22 0.007464 -162.5
8.66490000 0.007481 -161.9 0.999962 -72.22 0.999962 -72.22 0.007481 -162.5
8.66500000 0.007497 -161.9 0.999962 -72.22 0.999962 -72.22 0.007497 -162.5
8.66510000 0.007514 -161.9 0.999962 -72.22 0.999962 -72.22 0.007514 -162.5
8.66520000 0.007530 -161.9 0.999961 -72.23 0.999961 -72.23 0.007530 -162.5
8.66530000 0.007547 -161.9 0.999961 -72.23 0.999961 -72.23 0.007547 -162.5
8.66540000 0.007564 -161.9 0.999961 -72.23 0.999961 -72.23 0.007564 -162.5
8.66550000 0.007580 -162.0 0.999961 -72.23 0.999961 -72.23 0.007580 -162.5
8.66560000 0.007597 -162.0 0.999961 -72.23 0.999961 -72.23 0.007597 -162.5
8.66570000 0.007614 -162.0 0.999961 -72.23 0.999961 -72.23 0.007614 -162.5
8.66580000 0.007630 -162.0 0.999961 -72.24 0.999961 -72.24 0.007630 -162.5
8.66590000 0.007647 -162.0 0.999960 -72.24 0.999960 -72.24 0.007647 -162.5
8.66600000 0.007664 -162.0 0.999960 -72.24 0.999960 -72.24 0.007664 -162.5
8.66610000 0.007681 -162.0 0.999960 -72.24 0.999960 -72.24 0.007681 -162.5
8.66620000 0.007697 -162.0 0.999960 -72.24 0.999960 -72.24 0.007697 -162.5
8.66630000 0.007714 -162.0 0.999960 -72.25 0.999960 -72.25 0.007714 -162.5
8.66640000 0.007731 -162.0 0.999960 -72.25 0.999960 -72.25 0.007731 -162.5
8.66650000 0.007748 -162.0 0.999960 -72.25 0.999960 -72.25 0.007748 -162.5
8.66660000 0.007765 -162.0 0.999960 -72.25 0.999960 -72.25 0.007765 -162.5
8.66670000 0.007782 -162.0 0.999959 -72.25 0.999959 -72.25 0.007782 -162.5
8.66680000 0.007799 -162.0 0.999959 -72.25 0.999959 -72.25 0.007799 -162.5
8.66690000 0.007816 -162.0 0.999959 -72.26 0.999959 -72.26 0.007816 -162.5
8.66700000 0.007833 -162.0 0.999959 -72.26 0.999959 -72.26 0.007833 -162.5
8.66710000 0.007850 -162.0 0.999959 -72.26 0.999959 -72.26 0.007850 -162.5
8.66720000 0.007867 -162.0 0.999959 -72.26 0.999959 -72.26 0.007867 -162.5
8.66730000 0.007884 -162.0 0.999959 -72.26 0.999959 -72.26 0.007884 -162.5
8.66740000 0.007901 -162.0 0.999958 -72.27 0.999958 -72.27 0.007901 -162.5
8.66750000 0.007918 -162.0 0.999958 -72.27 0.999958 -72.27 0.007918 -162.5
8.66760000 0.007935 -162.0 0.999958 -72.27 0.999958 -72.27 0.007935 -162.5
8.66770000 0.007952 -162.0 0.999958 -72.27 0.999958 -72.27 0.007952 -162.5
8.66780000 0.007970 -162.0 0.999958 -72.27 0.999958 -72.27 0.007970 -162.5
8.66790000 0.007987 -162.0 0.999958 -72.27 0.999958 -72.27 0.007987 -162.5
8.66800000 0.008004 -162.0 0.999958 -72.28 0.999958 -72.28 0.008004 -162.6
8.66810000 0.008021 -162.0 0.999957 -72.28 0.999957 -72.28 0.008021 -162.6
8.66820000 0.008039 -162.0 0.999957 -72.28 0.999957 -72.28 0.008039 -162.6
8.66830000 0.008056 -162.0 0.999957 -72.28 0.999957 -72.28 0.008056 -162.6
8.66840000 0.008073 -162.0 0.999957 -72.28 0.999957 -72.28 0.008073 -162.6
8.66850000 0.008091 -162.0 0.999957 -72.29 0.999957 -72.29 0.008091 -162.6
8.66860000 0.008108 -162.0 0.999957 -72.29 0.999957 -72.29 0.008108 -162.6
8.66870000 0.008126 -162.0 0.999957 -72.29 0.999957 -72.29 0.008126 -162.6
8.66880000 0.008143 -162.0 0.999956 -72.29 0.999956 -72.29 0.008143 -162.6
8.66890000 0.008160 -162.0 0.999956 -72.29 0.999956 -72.29 0.008160 -162.6
8.66900000 0.008178 -162.0 0.999956 -72.29 0.999956 -72.29 0.008178 -162.6
8.66910000 0.008196 -162.0 0.999956 -72.30 0.999956 -72.30 0.008196 -162.6
8.66920000 0.008213 -162.0 0.999956 -72.30 0.999956 -72.30 0.008213 -162.6
8.66930000 0.008231 -162.0 0.999956 -72.30 0.999956 -72.30 0.008231 -162.6
8.66940000 0.008248 -162.0 0.999956 -72.30 0.999956 -72.30 0.008248 -162.6
8.66950000 0.008266 -162.0 0.999955 -72.30 0.999955 -72.30 0.008266 -162.6
8.66960000 0.008284 -162.0 0.999955 -72.31 0.999955 -72.31 0.008284 -162.6
8.66970000 0.008301 -162.0 0.999955 -72.31 0.999955 -72.31 0.008301 -162.6
8.66980000 0.008319 -162.0 0.999955 -72.31 0.999955 -72.31 0.008319 -162.6
8.66990000 0.008337 -162.0 0.999955 -72.31 0.999955 -72.31 0.008337 -162.6
8.67000000 0.008355 -162.0 0.999955 -72.31 0.999955 -72.31 0.008355 -162.6
8.67010000 0.008372 -162.0 0.999954 -72.31 0.999954 -72.31 0.008372 -162.6
8.67020000 0.008390 -162.0 0.999954 -72.32 0.999954 -72.32 0.008390 -162.6
8.67030000 0.008408 -162.0 0.999954 -72.32 0.999954 -72.32 0.008408 -162.6
8.67040000 0.008426 -162.0 0.999954 -72.32 0.999954 -72.32 0.008426 -162.6
8.67050000 0.008444 -162.0 0.999954 -72.32 0.999954 -72.32 0.008444 -162.6
8.67060000 0.008462 -162.0 0.999954 -72.32 0.999954 -72.32 0.008462 -162.6
8.67070000 0.008480 -162.0 0.999954 -72.33 0.999954 -72.33 0.008480 -162.6
8.67080000 0.008498 -162.1 0.999953 -72.33 0.999953 -72.33 0.008498 -162.6
8.67090000 0.008516 -162.1 0.999953 -72.33 0.999953 -72.33 0.008516 -162.6
8.67100000 0.008534 -162.1 0.999953 -72.33 0.999953 -72.33 0.008534 -162.6
8.67110000 0.008552 -162.1 0.999953 -72.33 0.999953 -72.33 0.008552 -162.6
8.67120000 0.008570 -162.1 0.999953 -72.33 0.999953 -72.33 0.008570 -162.6
8.67130000 0.008588 -162.1 0.999953 -72.34 0.999953 -72.34 0.008588 -162.6
8.67140000 0.008606 -162.1 0.999952 -72.34 0.999952 -72.34 0.008606 -162.6
8.67150000 0.008624 -162.1 0.999952 -72.34 0.999952 -72.34 0.008624 -162.6
8.67160000 0.008643 -162.1 0.999952 -72.34 0.999952 -72.34 0.008643 -162.6
8.67170000 0.008661 -162.1 0.999952 -72.34 0.999952 -72.34 0.008661 -162.6
8.67180000 0.008679 -162.1 0.999952 -72.35 0.999952 -72.35 0.008679 -162.6
8.67190000 0.008697 -162.1 0.999952 -72.35 0.999952 -72.35 0.008697 -162.6
8.67200000 0.008716 -162.1 0.999951 -72.35 0.999951 -72.35 0.008716 -162.6
8.67210000 0.008734 -162.1 0.999951 -72.35 0.999951 -72.35 0.008734 -162.6
8.67220000 0.008752 -162.1 0.999951 -72.35 0.999951 -72.35 0.008752 -162.6
8.67230000 0.008771 -162.1 0.999951 -72.36 0.999951 -72.36 0.008771 -162.6
8.67240000 0.008789 -162.1 0.999951 -72.36 0.999951 -72.36 0.008789 -162.6
8.67250000 0.008808 -162.1 0.999951 -72.36 0.999951 -72.36 0.008808 -162.6
8.67260000 0.008826 -162.1 0.999950 -72.36 0.999950 -72.36 0.008826 -162.6
8.67270000 0.008845 -162.1 0.999950 -72.36 0.999950 -72.36 0.008845 -162.6
8.67280000 0.008863 -162.1 0.999950 -72.36 0.999950 -72.36 0.008863 -162.6
8.67290000 0.008882 -162.1 0.999950 -72.37 0.999950 -72.37 0.008882 -162.6
8.67300000 0.008900 -162.1 0.999950 -72.37 0.999950 -72.37 0.008900 -162.6
8.67310000 0.008919 -162.1 0.999950 -72.37 0.999950 -72.37 0.008919 -162.6
8.67320000 0.008938 -162.1 0.999949 -72.37 0.999949 -72.37 0.008938 -162.6
8.67330000 0.008956 -162.1 0.999949 -72.37 0.999949 -72.37 0.008956 -162.6
8.67340000 0.008975 -162.1 0.999949 -72.38 0.999949 -72.38 0.008975 -162.7
8.67350000 0.008994 -162.1 0.999949 -72.38 0.999949 -72.38 0.008994 -162.7
8.67360000 0.009013 -162.1 0.999949 -72.38 0.999949 -72.38 0.009013 -162.7
8.67370000 0.009032 -162.1 0.999949 -72.38 0.999949 -72.38 0.009031 -162.7
8.67380000 0.009050 -162.1 0.999948 -72.38 0.999948 -72.38 0.009050 -162.7
8.67390000 0.009069 -162.1 0.999948 -72.39 0.999948 -72.39 0.009069 -162.7
8.67400000 0.009088 -162.1 0.999948 -72.39 0.999948 -72.39 0.009088 -162.7
8.67410000 0.009107 -162.1 0.999948 -72.39 0.999948 -72.39 0.009107 -162.7
8.67420000 0.009126 -162.1 0.999948 -72.39 0.999948 -72.39 0.009126 -162.7
8.67430000 0.009145 -162.1 0.999947 -72.39 0.999947 -72.39 0.009145 -162.7
8.67440000 0.009164 -162.1 0.999947 -72.40 0.999947 -72.40 0.009164 -162.7
8.67450000 0.009183 -162.1 0.999947 -72.40 0.999947 -72.40 0.009183 -162.7
8.67460000 0.009202 -162.1 0.999947 -72.40 0.999947 -72.40 0.009202 -162.7
8.67470000 0.009221 -162.1 0.999947 -72.40 0.999947 -72.40 0.009221 -162.7
8.67480000 0.009240 -162.1 0.999947 -72.40 0.999947 -72.40 0.009240 -162.7
8.67490000 0.009259 -162.1 0.999946 -72.41 0.999946 -72.41 0.009259 -162.7
8.67500000 0.009279 -162.1 0.999946 -72.41 0.999946 -72.41 0.009279 -162.7
8.67510000 0.009298 -162.1 0.999946 -72.41 0.999946 -72.41 0.009298 -162.7
8.67520000 0.009317 -162.1 0.999946 -72.41 0.999946 -72.41 0.009317 -162.7
8.67530000 0.009336 -162.1 0.999946 -72.41 0.999946 -72.41 0.009336 -162.7
8.67540000 0.009356 -162.1 0.999945 -72.41 0.999945 -72.41 0.009356 -162.7
8.67550000 0.009375 -162.1 0.999945 -72.42 0.999945 -72.42 0.009375 -162.7
8.67560000 0.009394 -162.1 0.999945 -72.42 0.999945 -72.42 0.009394 -162.7
8.67570000 0.009414 -162.1 0.999945 -72.42 0.999945 -72.42 0.009414 -162.7
8.67580000 0.009433 -162.1 0.999945 -72.42 0.999945 -72.42 0.009433 -162.7
8.67590000 0.009453 -162.2 0.999944 -72.42 0.999944 -72.42 0.009453 -162.7
8.67600000 0.009472 -162.2 0.999944 -72.43 0.999944 -72.43 0.009472 -162.7
8.67610000 0.009492 -162.2 0.999944 -72.43 0.999944 -72.43 0.009492 -162.7
8.67620000 0.009511 -162.2 0.999944 -72.43 0.999944 -72.43 0.009511 -162.7
8.67630000 0.009531 -162.2 0.999944 -72.43 0.999944 -72.43 0.009531 -162.7
8.67640000 0.009550 -162.2 0.999944 -72.43 0.999944 -72.43 0.009550 -162.7
8.67650000 0.009570 -162.2 0.999943 -72.44 0.999943 -72.44 0.009570 -162.7
8.67660000 0.009590 -162.2 0.999943 -72.44 0.999943 -72.44 0.009590 -162.7
8.67670000 0.009609 -162.2 0.999943 -72.44 0.999943 -72.44 0.009609 -162.7
8.67680000 0.009629 -162.2 0.999943 -72.44 0.999943 -72.44 0.009629 -162.7
8.67690000 0.009649 -162.2 0.999943 -72.44 0.999943 -72.44 0.009649 -162.7
8.67700000 0.009669 -162.2 0.999942 -72.45 0.999942 -72.45 0.009669 -162.7
8.67710000 0.009689 -162.2 0.999942 -72.45 0.999942 -72.45 0.009689 -162.7
8.67720000 0.009708 -162.2 0.999942 -72.45 0.999942 -72.45 0.009708 -162.7
8.67730000 0.009728 -162.2 0.999942 -72.45 0.999942 -72.45 0.009728 -162.7
8.67740000 0.009748 -162.2 0.999942 -72.45 0.999942 -72.45 0.009748 -162.7
8.67750000 0.009768 -162.2 0.999941 -72.46 0.999941 -72.46 0.009768 -162.7
8.67760000 0.009788 -162.2 0.999941 -72.46 0.999941 -72.46 0.009788 -162.7
8.67770000 0.009808 -162.2 0.999941 -72.46 0.999941 -72.46 0.009808 -162.7
8.67780000 0.009828 -162.2 0.999941 -72.46 0.999941 -72.46 0.009828 -162.7
8.67790000 0.009848 -162.2 0.999941 -72.46 0.999941 -72.46 0.009848 -162.7
8.67800000 0.009869 -162.2 0.999940 -72.47 0.999940 -72.47 0.009868 -162.7
8.67810000 0.009889 -162.2 0.999940 -72.47 0.999940 -72.47 0.009889 -162.7
8.67820000 0.009909 -162.2 0.999940 -72.47 0.999940 -72.47 0.009909 -162.7
8.67830000 0.009929 -162.2 0.999940 -72.47 0.999940 -72.47 0.009929 -162.7
8.67840000 0.009949 -162.2 0.999940 -72.47 0.999940 -72.47 0.009949 -162.7
8.67850000 0.009970 -162.2 0.999939 -72.48 0.999939 -72.48 0.009970 -162.8
8.67860000 0.009990 -162.2 0.999939 -72.48 0.999939 -72.48 0.009990 -162.8
8.67870000 0.010010 -162.2 0.999939 -72.48 0.999939 -72.48 0.010010 -162.8
8.67880000 0.010031 -162.2 0.999939 -72.48 0.999939 -72.48 0.010031 -162.8
8.67890000 0.010051 -162.2 0.999938 -72.48 0.999938 -72.48 0.010051 -162.8
8.67900000 0.010071 -162.2 0.999938 -72.49 0.999938 -72.49 0.010071 -162.8
8.67910000 0.010092 -162.2 0.999938 -72.49 0.999938 -72.49 0.010092 -162.8
8.67920000 0.010112 -162.2 0.999938 -72.49 0.999938 -72.49 0.010112 -162.8
8.67930000 0.010133 -162.2 0.999938 -72.49 0.999938 -72.49 0.010133 -162.8
8.67940000 0.010154 -162.2 0.999937 -72.49 0.999937 -72.49 0.010154 -162.8
8.67950000 0.010174 -162.2 0.999937 -72.50 0.999937 -72.50 0.010174 -162.8
8.67960000 0.010195 -162.2 0.999937 -72.50 0.999937 -72.50 0.010195 -162.8
8.67970000 0.010215 -162.2 0.999937 -72.50 0.999937 -72.50 0.010215 -162.8
8.67980000 0.010236 -162.2 0.999937 -72.50 0.999937 -72.50 0.010236 -162.8
8.67990000 0.010257 -162.2 0.999936 -72.50 0.999936 -72.50 0.010257 -162.8
8.68000000 0.010278 -162.2 0.999936 -72.51 0.999936 -72.51 0.010278 -162.8
8.68010000 0.010299 -162.2 0.999936 -72.51 0.999936 -72.51 0.010298 -162.8
8.68020000 0.010319 -162.2 0.999936 -72.51 0.999936 -72.51 0.010319 -162.8
8.68030000 0.010340 -162.2 0.999935 -72.51 0.999935 -72.51 0.010340 -162.8
8.68040000 0.010361 -162.2 0.999935 -72.51 0.999935 -72.51 0.010361 -162.8
8.68050000 0.010382 -162.2 0.999935 -72.52 0.999935 -72.52 0.010382 -162.8
8.68060000 0.010403 -162.2 0.999935 -72.52 0.999935 -72.52 0.010403 -162.8
8.68070000 0.010424 -162.2 0.999935 -72.52 0.999935 -72.52 0.010424 -162.8
8.68080000 0.010445 -162.3 0.999934 -72.52 0.999934 -72.52 0.010445 -162.8
8.68090000 0.010466 -162.3 0.999934 -72.52 0.999934 -72.52 0.010466 -162.8
8.68100000 0.010487 -162.3 0.999934 -72.53 0.999934 -72.53 0.010487 -162.8
8.68110000 0.010508 -162.3 0.999934 -72.53 0.999934 -72.53 0.010508 -162.8
8.68120000 0.010530 -162.3 0.999933 -72.53 0.999933 -72.53 0.010530 -162.8
8.68130000 0.010551 -162.3 0.999933 -72.53 0.999933 -72.53 0.010551 -162.8
8.68140000 0.010572 -162.3 0.999933 -72.53 0.999933 -72.53 0.010572 -162.8
8.68150000 0.010593 -162.3 0.999933 -72.54 0.999933 -72.54 0.010593 -162.8
8.68160000 0.010615 -162.3 0.999932 -72.54 0.999932 -72.54 0.010615 -162.8
8.68170000 0.010636 -162.3 0.999932 -72.54 0.999932 -72.54 0.010636 -162.8
8.68180000 0.010658 -162.3 0.999932 -72.54 0.999932 -72.54 0.010658 -162.8
8.68190000 0.010679 -162.3 0.999932 -72.54 0.999932 -72.54 0.010679 -162.8
8.68200000 0.010700 -162.3 0.999932 -72.55 0.999932 -72.55 0.010700 -162.8
8.68210000 0.010722 -162.3 0.999931 -72.55 0.999931 -72.55 0.010722 -162.8
8.68220000 0.010743 -162.3 0.999931 -72.55 0.999931 -72.55 0.010743 -162.8
8.68230000 0.010765 -162.3 0.999931 -72.55 0.999931 -72.55 0.010765 -162.8
8.68240000 0.010787 -162.3 0.999931 -72.55 0.999931 -72.55 0.010787 -162.8
8.68250000 0.010808 -162.3 0.999930 -72.56 0.999930 -72.56 0.010808 -162.8
8.68260000 0.010830 -162.3 0.999930 -72.56 0.999930 -72.56 0.010830 -162.8
8.68270000 0.010852 -162.3 0.999930 -72.56 0.999930 -72.56 0.010852 -162.8
8.68280000 0.010873 -162.3 0.999930 -72.56 0.999930 -72.56 0.010873 -162.8
8.68290000 0.010895 -162.3 0.999929 -72.57 0.999929 -72.57 0.010895 -162.8
8.68300000 0.010917 -162.3 0.999929 -72.57 0.999929 -72.57 0.010917 -162.8
8.68310000 0.010939 -162.3 0.999929 -72.57 0.999929 -72.57 0.010939 -162.8
8.68320000 0.010961 -162.3 0.999929 -72.57 0.999929 -72.57 0.010961 -162.8
8.68330000 0.010983 -162.3 0.999928 -72.57 0.999928 -72.57 0.010983 -162.8
8.68340000 0.011005 -162.3 0.999928 -72.58 0.999928 -72.58 0.011005 -162.9
8.68350000 0.011027 -162.3 0.999928 -72.58 0.999928 -72.58 0.011027 -162.9
8.68360000 0.011049 -162.3 0.999928 -72.58 0.999928 -72.58 0.011049 -162.9
8.68370000 0.011071 -162.3 0.999927 -72.58 0.999927 -72.58 0.011071 -162.9
8.68380000 0.011093 -162.3 0.999927 -72.58 0.999927 -72.58 0.011093 -162.9
8.68390000 0.011115 -162.3 0.999927 -72.59 0.999927 -72.59 0.011115 -162.9
8.68400000 0.011137 -162.3 0.999927 -72.59 0.999927 -72.59 0.011137 -162.9
8.68410000 0.011160 -162.3 0.999926 -72.59 0.999926 -72.59 0.011160 -162.9
8.68420000 0.011182 -162.3 0.999926 -72.59 0.999926 -72.59 0.011182 -162.9
8.68430000 0.011204 -162.3 0.999926 -72.59 0.999926 -72.59 0.011204 -162.9
8.68440000 0.011226 -162.3 0.999926 -72.60 0.999926 -72.60 0.011226 -162.9
8.68450000 0.011249 -162.3 0.999925 -72.60 0.999925 -72.60 0.011249 -162.9
8.68460000 0.011271 -162.3 0.999925 -72.60 0.999925 -72.60 0.011271 -162.9
8.68470000 0.011294 -162.3 0.999925 -72.60 0.999925 -72.60 0.011294 -162.9
8.68480000 0.011316 -162.3 0.999925 -72.61 0.999925 -72.61 0.011316 -162.9
8.68490000 0.011339 -162.3 0.999924 -72.61 0.999924 -72.61 0.011339 -162.9
8.68500000 0.011361 -162.3 0.999924 -72.61 0.999924 -72.61 0.011361 -162.9
8.68510000 0.011384 -162.3 0.999924 -72.61 0.999924 -72.61 0.011384 -162.9
8.68520000 0.011407 -162.3 0.999923 -72.61 0.999923 -72.61 0.011407 -162.9
8.68530000 0.011429 -162.3 0.999923 -72.62 0.999923 -72.62 0.011429 -162.9
8.68540000 0.011452 -162.3 0.999923 -72.62 0.999923 -72.62 0.011452 -162.9
8.68550000 0.011475 -162.4 0.999923 -72.62 0.999923 -72.62 0.011475 -162.9
8.68560000 0.011498 -162.4 0.999922 -72.62 0.999922 -72.62 0.011498 -162.9
8.68570000 0.011520 -162.4 0.999922 -72.62 0.999922 -72.62 0.011520 -162.9
8.68580000 0.011543 -162.4 0.999922 -72.63 0.999922 -72.63 0.011543 -162.9
8.68590000 0.011566 -162.4 0.999922 -72.63 0.999922 -72.63 0.011566 -162.9
8.68600000 0.011589 -162.4 0.999921 -72.63 0.999921 -72.63 0.011589 -162.9
8.68610000 0.011612 -162.4 0.999921 -72.63 0.999921 -72.63 0.011612 -162.9
8.68620000 0.011635 -162.4 0.999921 -72.63 0.999921 -72.63 0.011635 -162.9
8.68630000 0.011658 -162.4 0.999921 -72.64 0.999921 -72.64 0.011658 -162.9
8.68640000 0.011681 -162.4 0.999920 -72.64 0.999920 -72.64 0.011681 -162.9
8.68650000 0.011705 -162.4 0.999920 -72.64 0.999920 -72.64 0.011704 -162.9
8.68660000 0.011728 -162.4 0.999920 -72.64 0.999920 -72.64 0.011728 -162.9
8.68670000 0.011751 -162.4 0.999919 -72.65 0.999919 -72.65 0.011751 -162.9
8.68680000 0.011774 -162.4 0.999919 -72.65 0.999919 -72.65 0.011774 -162.9
8.68690000 0.011798 -162.4 0.999919 -72.65 0.999919 -72.65 0.011798 -162.9
8.68700000 0.011821 -162.4 0.999919 -72.65 0.999919 -72.65 0.011821 -162.9
8.68710000 0.011844 -162.4 0.999918 -72.65 0.999918 -72.65 0.011844 -162.9
8.68720000 0.011868 -162.4 0.999918 -72.66 0.999918 -72.66 0.011868 -162.9
8.68730000 0.011891 -162.4 0.999918 -72.66 0.999918 -72.66 0.011891 -162.9
8.68740000 0.011915 -162.4 0.999917 -72.66 0.999917 -72.66 0.011915 -162.9
8.68750000 0.011938 -162.4 0.999917 -72.66 0.999917 -72.66 0.011938 -162.9
8.68760000 0.011962 -162.4 0.999917 -72.67 0.999917 -72.67 0.011962 -162.9
8.68770000 0.011986 -162.4 0.999917 -72.67 0.999917 -72.67 0.011985 -162.9
8.68780000 0.012009 -162.4 0.999916 -72.67 0.999916 -72.67 0.012009 -162.9
8.68790000 0.012033 -162.4 0.999916 -72.67 0.999916 -72.67 0.012033 -162.9
8.68800000 0.012057 -162.4 0.999916 -72.67 0.999916 -72.67 0.012057 -162.9
8.68810000 0.012080 -162.4 0.999915 -72.68 0.999915 -72.68 0.012080 -163.0
8.68820000 0.012104 -162.4 0.999915 -72.68 0.999915 -72.68 0.012104 -163.0
8.68830000 0.012128 -162.4 0.999915 -72.68 0.999915 -72.68 0.012128 -163.0
8.68840000 0.012152 -162.4 0.999914 -72.68 0.999914 -72.68 0.012152 -163.0
8.68850000 0.012176 -162.4 0.999914 -72.69 0.999914 -72.69 0.012176 -163.0
8.68860000 0.012200 -162.4 0.999914 -72.69 0.999914 -72.69 0.012200 -163.0
8.68870000 0.012224 -162.4 0.999914 -72.69 0.999914 -72.69 0.012224 -163.0
8.68880000 0.012248 -162.4 0.999913 -72.69 0.999913 -72.69 0.012248 -163.0
8.68890000 0.012272 -162.4 0.999913 -72.69 0.999913 -72.69 0.012272 -163.0
8.68900000 0.012297 -162.4 0.999913 -72.70 0.999913 -72.70 0.012297 -163.0
8.68910000 0.012321 -162.4 0.999912 -72.70 0.999912 -72.70 0.012321 -163.0
8.68920000 0.012345 -162.4 0.999912 -72.70 0.999912 -72.70 0.012345 -163.0