! Sonnet Data File
! From: emgraph Version : 16.52
! From Project: transmon_trial2
! Data is De-embedded 
! Data File Written: 10/20/2017 13:43:12
!< HDATE 10/20/2017 10:41:42
!< MDATE 10/20/2017 10:41:42
!< PARAMS
!< Lj = 15.24
!< Gap = 16.0
!< Width = 50.0
!< Airgap = 30.0
!< Pwidth = 2000.0
!< END PARAMS
# GHZ S MA R 45.40000
8.70000000 0.011855 -159.0 0.999921 -68.87 0.999921 -68.87 0.011855 -158.7
!< P1 F=8.7 Eeff=(4.74736053 -6.3969e-5) Z0=(45.1403777 -2.0193e-4) R=0.0 C=0.0 
!< P2 F=8.7 Eeff=(4.74736053 -6.3969e-5) Z0=(45.1403777 -2.0193e-4) R=0.0 C=0.0 
8.70010000 0.011860 -159.0 0.999921 -68.87 0.999921 -68.87 0.011860 -158.7
8.70020000 0.011865 -159.0 0.999921 -68.87 0.999921 -68.87 0.011865 -158.7
8.70030000 0.011871 -159.0 0.999920 -68.87 0.999920 -68.87 0.011871 -158.7
8.70040000 0.011876 -159.0 0.999920 -68.87 0.999920 -68.87 0.011876 -158.7
8.70050000 0.011881 -159.0 0.999920 -68.87 0.999920 -68.87 0.011881 -158.7
8.70060000 0.011886 -159.0 0.999920 -68.87 0.999920 -68.87 0.011886 -158.7
8.70070000 0.011892 -159.0 0.999920 -68.87 0.999920 -68.87 0.011892 -158.7
8.70080000 0.011897 -159.0 0.999920 -68.87 0.999920 -68.87 0.011897 -158.7
8.70090000 0.011902 -159.0 0.999920 -68.87 0.999920 -68.87 0.011902 -158.7
8.70100000 0.011907 -159.0 0.999920 -68.88 0.999920 -68.88 0.011907 -158.7
8.70110000 0.011913 -159.0 0.999920 -68.88 0.999920 -68.88 0.011913 -158.8
8.70120000 0.011918 -159.0 0.999920 -68.88 0.999920 -68.88 0.011918 -158.8
8.70130000 0.011923 -159.0 0.999920 -68.88 0.999920 -68.88 0.011923 -158.8
8.70140000 0.011929 -159.0 0.999920 -68.88 0.999920 -68.88 0.011929 -158.8
8.70150000 0.011934 -159.0 0.999920 -68.88 0.999920 -68.88 0.011934 -158.8
8.70160000 0.011939 -159.0 0.999920 -68.88 0.999920 -68.88 0.011939 -158.8
8.70170000 0.011945 -159.0 0.999920 -68.88 0.999920 -68.88 0.011945 -158.8
8.70180000 0.011950 -159.0 0.999919 -68.88 0.999919 -68.88 0.011950 -158.8
8.70190000 0.011955 -159.0 0.999919 -68.89 0.999919 -68.89 0.011955 -158.8
8.70200000 0.011961 -159.0 0.999919 -68.89 0.999919 -68.89 0.011961 -158.8
8.70210000 0.011966 -159.0 0.999919 -68.89 0.999919 -68.89 0.011966 -158.8
8.70220000 0.011971 -159.0 0.999919 -68.89 0.999919 -68.89 0.011971 -158.8
8.70230000 0.011977 -159.0 0.999919 -68.89 0.999919 -68.89 0.011977 -158.8
8.70240000 0.011982 -159.0 0.999919 -68.89 0.999919 -68.89 0.011982 -158.8
8.70250000 0.011987 -159.0 0.999919 -68.89 0.999919 -68.89 0.011987 -158.8
8.70260000 0.011993 -159.0 0.999919 -68.89 0.999919 -68.89 0.011993 -158.8
8.70270000 0.011998 -159.0 0.999919 -68.89 0.999919 -68.89 0.011998 -158.8
8.70280000 0.012003 -159.0 0.999919 -68.90 0.999919 -68.90 0.012003 -158.8
8.70290000 0.012009 -159.0 0.999919 -68.90 0.999919 -68.90 0.012009 -158.8
8.70300000 0.012014 -159.0 0.999919 -68.90 0.999919 -68.90 0.012014 -158.8
8.70310000 0.012020 -159.0 0.999919 -68.90 0.999919 -68.90 0.012020 -158.8
8.70320000 0.012025 -159.0 0.999919 -68.90 0.999919 -68.90 0.012025 -158.8
8.70330000 0.012030 -159.0 0.999918 -68.90 0.999918 -68.90 0.012030 -158.8
8.70340000 0.012036 -159.0 0.999918 -68.90 0.999918 -68.90 0.012036 -158.8
8.70350000 0.012041 -159.0 0.999918 -68.90 0.999918 -68.90 0.012041 -158.8
8.70360000 0.012047 -159.0 0.999918 -68.90 0.999918 -68.90 0.012047 -158.8
8.70370000 0.012052 -159.0 0.999918 -68.91 0.999918 -68.91 0.012052 -158.8
8.70380000 0.012057 -159.0 0.999918 -68.91 0.999918 -68.91 0.012057 -158.8
8.70390000 0.012063 -159.0 0.999918 -68.91 0.999918 -68.91 0.012063 -158.8
8.70400000 0.012068 -159.0 0.999918 -68.91 0.999918 -68.91 0.012068 -158.8
8.70410000 0.012074 -159.0 0.999918 -68.91 0.999918 -68.91 0.012074 -158.8
8.70420000 0.012079 -159.0 0.999918 -68.91 0.999918 -68.91 0.012079 -158.8
8.70430000 0.012085 -159.0 0.999918 -68.91 0.999918 -68.91 0.012085 -158.8
8.70440000 0.012090 -159.0 0.999918 -68.91 0.999918 -68.91 0.012090 -158.8
8.70450000 0.012095 -159.0 0.999918 -68.91 0.999918 -68.91 0.012096 -158.8
8.70460000 0.012101 -159.0 0.999918 -68.92 0.999918 -68.92 0.012101 -158.8
8.70470000 0.012106 -159.0 0.999918 -68.92 0.999918 -68.92 0.012106 -158.8
8.70480000 0.012112 -159.0 0.999917 -68.92 0.999917 -68.92 0.012112 -158.8
8.70490000 0.012117 -159.0 0.999917 -68.92 0.999917 -68.92 0.012117 -158.8
8.70500000 0.012123 -159.0 0.999917 -68.92 0.999917 -68.92 0.012123 -158.8
8.70510000 0.012128 -159.0 0.999917 -68.92 0.999917 -68.92 0.012128 -158.8
8.70520000 0.012134 -159.0 0.999917 -68.92 0.999917 -68.92 0.012134 -158.8
8.70530000 0.012139 -159.0 0.999917 -68.92 0.999917 -68.92 0.012139 -158.8
8.70540000 0.012145 -159.0 0.999917 -68.92 0.999917 -68.92 0.012145 -158.8
8.70550000 0.012150 -159.0 0.999917 -68.93 0.999917 -68.93 0.012150 -158.8
8.70560000 0.012156 -159.0 0.999917 -68.93 0.999917 -68.93 0.012156 -158.8
8.70570000 0.012161 -159.0 0.999917 -68.93 0.999917 -68.93 0.012161 -158.8
8.70580000 0.012167 -159.0 0.999917 -68.93 0.999917 -68.93 0.012167 -158.8
8.70590000 0.012173 -159.0 0.999917 -68.93 0.999917 -68.93 0.012173 -158.8
8.70600000 0.012178 -159.0 0.999917 -68.93 0.999917 -68.93 0.012178 -158.8
8.70610000 0.012184 -159.0 0.999917 -68.93 0.999917 -68.93 0.012184 -158.8
8.70620000 0.012189 -159.0 0.999916 -68.93 0.999916 -68.93 0.012189 -158.8
8.70630000 0.012195 -159.0 0.999916 -68.93 0.999916 -68.93 0.012195 -158.8
8.70640000 0.012200 -159.0 0.999916 -68.94 0.999916 -68.94 0.012200 -158.8
8.70650000 0.012206 -159.0 0.999916 -68.94 0.999916 -68.94 0.012206 -158.8
8.70660000 0.012211 -159.0 0.999916 -68.94 0.999916 -68.94 0.012211 -158.8
8.70670000 0.012217 -159.0 0.999916 -68.94 0.999916 -68.94 0.012217 -158.8
8.70680000 0.012223 -159.0 0.999916 -68.94 0.999916 -68.94 0.012223 -158.8
8.70690000 0.012228 -159.0 0.999916 -68.94 0.999916 -68.94 0.012228 -158.8
8.70700000 0.012234 -159.0 0.999916 -68.94 0.999916 -68.94 0.012234 -158.8
8.70710000 0.012239 -159.0 0.999916 -68.94 0.999916 -68.94 0.012239 -158.8
8.70720000 0.012245 -159.0 0.999916 -68.94 0.999916 -68.94 0.012245 -158.8
8.70730000 0.012251 -159.0 0.999916 -68.95 0.999916 -68.95 0.012251 -158.8
8.70740000 0.012256 -159.0 0.999916 -68.95 0.999916 -68.95 0.012256 -158.8
8.70750000 0.012262 -159.0 0.999916 -68.95 0.999916 -68.95 0.012262 -158.8
8.70760000 0.012268 -159.0 0.999916 -68.95 0.999916 -68.95 0.012268 -158.8
8.70770000 0.012273 -159.0 0.999915 -68.95 0.999915 -68.95 0.012273 -158.8
8.70780000 0.012279 -159.0 0.999915 -68.95 0.999915 -68.95 0.012279 -158.8
8.70790000 0.012284 -159.0 0.999915 -68.95 0.999915 -68.95 0.012284 -158.8
8.70800000 0.012290 -159.0 0.999915 -68.95 0.999915 -68.95 0.012290 -158.8
8.70810000 0.012296 -159.0 0.999915 -68.95 0.999915 -68.95 0.012296 -158.8
8.70820000 0.012301 -159.0 0.999915 -68.96 0.999915 -68.96 0.012301 -158.8
8.70830000 0.012307 -159.0 0.999915 -68.96 0.999915 -68.96 0.012307 -158.8
8.70840000 0.012313 -159.0 0.999915 -68.96 0.999915 -68.96 0.012313 -158.8
8.70850000 0.012318 -159.0 0.999915 -68.96 0.999915 -68.96 0.012318 -158.8
8.70860000 0.012324 -159.0 0.999915 -68.96 0.999915 -68.96 0.012324 -158.8
8.70870000 0.012330 -159.0 0.999915 -68.96 0.999915 -68.96 0.012330 -158.8
8.70880000 0.012336 -159.0 0.999915 -68.96 0.999915 -68.96 0.012336 -158.8
8.70890000 0.012341 -159.0 0.999915 -68.96 0.999915 -68.96 0.012341 -158.8
8.70900000 0.012347 -159.0 0.999914 -68.96 0.999914 -68.96 0.012347 -158.8
8.70910000 0.012353 -159.0 0.999914 -68.97 0.999914 -68.97 0.012353 -158.8
8.70920000 0.012358 -159.1 0.999914 -68.97 0.999914 -68.97 0.012358 -158.9
8.70930000 0.012364 -159.1 0.999914 -68.97 0.999914 -68.97 0.012364 -158.9
8.70940000 0.012370 -159.1 0.999914 -68.97 0.999914 -68.97 0.012370 -158.9
8.70950000 0.012376 -159.1 0.999914 -68.97 0.999914 -68.97 0.012376 -158.9
8.70960000 0.012381 -159.1 0.999914 -68.97 0.999914 -68.97 0.012381 -158.9
8.70970000 0.012387 -159.1 0.999914 -68.97 0.999914 -68.97 0.012387 -158.9
8.70980000 0.012393 -159.1 0.999914 -68.97 0.999914 -68.97 0.012393 -158.9
8.70990000 0.012399 -159.1 0.999914 -68.97 0.999914 -68.97 0.012399 -158.9
8.71000000 0.012404 -159.1 0.999914 -68.98 0.999914 -68.98 0.012404 -158.9
8.71010000 0.012410 -159.1 0.999914 -68.98 0.999914 -68.98 0.012410 -158.9
8.71020000 0.012416 -159.1 0.999914 -68.98 0.999914 -68.98 0.012416 -158.9
8.71030000 0.012422 -159.1 0.999914 -68.98 0.999914 -68.98 0.012422 -158.9
8.71040000 0.012427 -159.1 0.999913 -68.98 0.999913 -68.98 0.012427 -158.9
8.71050000 0.012433 -159.1 0.999913 -68.98 0.999913 -68.98 0.012433 -158.9
8.71060000 0.012439 -159.1 0.999913 -68.98 0.999913 -68.98 0.012439 -158.9
8.71070000 0.012445 -159.1 0.999913 -68.98 0.999913 -68.98 0.012445 -158.9
8.71080000 0.012451 -159.1 0.999913 -68.98 0.999913 -68.98 0.012451 -158.9
8.71090000 0.012456 -159.1 0.999913 -68.99 0.999913 -68.99 0.012457 -158.9
8.71100000 0.012462 -159.1 0.999913 -68.99 0.999913 -68.99 0.012462 -158.9
8.71110000 0.012468 -159.1 0.999913 -68.99 0.999913 -68.99 0.012468 -158.9
8.71120000 0.012474 -159.1 0.999913 -68.99 0.999913 -68.99 0.012474 -158.9
8.71130000 0.012480 -159.1 0.999913 -68.99 0.999913 -68.99 0.012480 -158.9
8.71140000 0.012486 -159.1 0.999913 -68.99 0.999913 -68.99 0.012486 -158.9
8.71150000 0.012492 -159.1 0.999913 -68.99 0.999913 -68.99 0.012492 -158.9
8.71160000 0.012497 -159.1 0.999913 -68.99 0.999913 -68.99 0.012497 -158.9
8.71170000 0.012503 -159.1 0.999912 -68.99 0.999912 -68.99 0.012503 -158.9
8.71180000 0.012509 -159.1 0.999912 -69.00 0.999912 -69.00 0.012509 -158.9
8.71190000 0.012515 -159.1 0.999912 -69.00 0.999912 -69.00 0.012515 -158.9
8.71200000 0.012521 -159.1 0.999912 -69.00 0.999912 -69.00 0.012521 -158.9
8.71210000 0.012527 -159.1 0.999912 -69.00 0.999912 -69.00 0.012527 -158.9
8.71220000 0.012533 -159.1 0.999912 -69.00 0.999912 -69.00 0.012533 -158.9
8.71230000 0.012539 -159.1 0.999912 -69.00 0.999912 -69.00 0.012539 -158.9
8.71240000 0.012544 -159.1 0.999912 -69.00 0.999912 -69.00 0.012544 -158.9
8.71250000 0.012550 -159.1 0.999912 -69.00 0.999912 -69.00 0.012550 -158.9
8.71260000 0.012556 -159.1 0.999912 -69.00 0.999912 -69.00 0.012556 -158.9
8.71270000 0.012562 -159.1 0.999912 -69.01 0.999912 -69.01 0.012562 -158.9
8.71280000 0.012568 -159.1 0.999912 -69.01 0.999912 -69.01 0.012568 -158.9
8.71290000 0.012574 -159.1 0.999912 -69.01 0.999912 -69.01 0.012574 -158.9
8.71300000 0.012580 -159.1 0.999912 -69.01 0.999912 -69.01 0.012580 -158.9
8.71310000 0.012586 -159.1 0.999911 -69.01 0.999911 -69.01 0.012586 -158.9
8.71320000 0.012592 -159.1 0.999911 -69.01 0.999911 -69.01 0.012592 -158.9
8.71330000 0.012598 -159.1 0.999911 -69.01 0.999911 -69.01 0.012598 -158.9
8.71340000 0.012604 -159.1 0.999911 -69.01 0.999911 -69.01 0.012604 -158.9
8.71350000 0.012610 -159.1 0.999911 -69.01 0.999911 -69.01 0.012610 -158.9
8.71360000 0.012616 -159.1 0.999911 -69.02 0.999911 -69.02 0.012616 -158.9
8.71370000 0.012622 -159.1 0.999911 -69.02 0.999911 -69.02 0.012622 -158.9
8.71380000 0.012628 -159.1 0.999911 -69.02 0.999911 -69.02 0.012628 -158.9
8.71390000 0.012634 -159.1 0.999911 -69.02 0.999911 -69.02 0.012634 -158.9
8.71400000 0.012640 -159.1 0.999911 -69.02 0.999911 -69.02 0.012640 -158.9
8.71410000 0.012646 -159.1 0.999911 -69.02 0.999911 -69.02 0.012646 -158.9
8.71420000 0.012652 -159.1 0.999911 -69.02 0.999911 -69.02 0.012652 -158.9
8.71430000 0.012658 -159.1 0.999910 -69.02 0.999910 -69.02 0.012658 -158.9
8.71440000 0.012664 -159.1 0.999910 -69.02 0.999910 -69.02 0.012664 -158.9
8.71450000 0.012670 -159.1 0.999910 -69.03 0.999910 -69.03 0.012670 -158.9
8.71460000 0.012676 -159.1 0.999910 -69.03 0.999910 -69.03 0.012676 -158.9
8.71470000 0.012682 -159.1 0.999910 -69.03 0.999910 -69.03 0.012682 -158.9
8.71480000 0.012688 -159.1 0.999910 -69.03 0.999910 -69.03 0.012688 -158.9
8.71490000 0.012694 -159.1 0.999910 -69.03 0.999910 -69.03 0.012694 -158.9
8.71500000 0.012700 -159.1 0.999910 -69.03 0.999910 -69.03 0.012700 -158.9
8.71510000 0.012706 -159.1 0.999910 -69.03 0.999910 -69.03 0.012706 -158.9
8.71520000 0.012712 -159.1 0.999910 -69.03 0.999910 -69.03 0.012712 -158.9
8.71530000 0.012718 -159.1 0.999910 -69.03 0.999910 -69.03 0.012718 -158.9
8.71540000 0.012725 -159.1 0.999910 -69.04 0.999910 -69.04 0.012725 -158.9
8.71550000 0.012731 -159.1 0.999910 -69.04 0.999910 -69.04 0.012731 -158.9
8.71560000 0.012737 -159.1 0.999909 -69.04 0.999909 -69.04 0.012737 -158.9
8.71570000 0.012743 -159.1 0.999909 -69.04 0.999909 -69.04 0.012743 -158.9
8.71580000 0.012749 -159.1 0.999909 -69.04 0.999909 -69.04 0.012749 -158.9
8.71590000 0.012755 -159.1 0.999909 -69.04 0.999909 -69.04 0.012755 -158.9
8.71600000 0.012761 -159.1 0.999909 -69.04 0.999909 -69.04 0.012761 -158.9
8.71610000 0.012767 -159.1 0.999909 -69.04 0.999909 -69.04 0.012767 -158.9
8.71620000 0.012774 -159.1 0.999909 -69.04 0.999909 -69.04 0.012774 -158.9
8.71630000 0.012780 -159.1 0.999909 -69.05 0.999909 -69.05 0.012780 -158.9
8.71640000 0.012786 -159.1 0.999909 -69.05 0.999909 -69.05 0.012786 -158.9
8.71650000 0.012792 -159.1 0.999909 -69.05 0.999909 -69.05 0.012792 -158.9
8.71660000 0.012798 -159.1 0.999909 -69.05 0.999909 -69.05 0.012798 -158.9
8.71670000 0.012804 -159.1 0.999909 -69.05 0.999909 -69.05 0.012804 -158.9
8.71680000 0.012811 -159.1 0.999908 -69.05 0.999908 -69.05 0.012811 -158.9
8.71690000 0.012817 -159.1 0.999908 -69.05 0.999908 -69.05 0.012817 -158.9
8.71700000 0.012823 -159.1 0.999908 -69.05 0.999908 -69.05 0.012823 -158.9
8.71710000 0.012829 -159.1 0.999908 -69.06 0.999908 -69.06 0.012829 -159.0
8.71720000 0.012835 -159.1 0.999908 -69.06 0.999908 -69.06 0.012835 -159.0
8.71730000 0.012842 -159.1 0.999908 -69.06 0.999908 -69.06 0.012842 -159.0
8.71740000 0.012848 -159.1 0.999908 -69.06 0.999908 -69.06 0.012848 -159.0
8.71750000 0.012854 -159.1 0.999908 -69.06 0.999908 -69.06 0.012854 -159.0
8.71760000 0.012860 -159.1 0.999908 -69.06 0.999908 -69.06 0.012860 -159.0
8.71770000 0.012866 -159.1 0.999908 -69.06 0.999908 -69.06 0.012866 -159.0
8.71780000 0.012873 -159.1 0.999908 -69.06 0.999908 -69.06 0.012873 -159.0
8.71790000 0.012879 -159.1 0.999908 -69.06 0.999908 -69.06 0.012879 -159.0
8.71800000 0.012885 -159.1 0.999908 -69.07 0.999908 -69.07 0.012885 -159.0
8.71810000 0.012891 -159.1 0.999907 -69.07 0.999907 -69.07 0.012891 -159.0
8.71820000 0.012898 -159.1 0.999907 -69.07 0.999907 -69.07 0.012898 -159.0
8.71830000 0.012904 -159.1 0.999907 -69.07 0.999907 -69.07 0.012904 -159.0
8.71840000 0.012910 -159.1 0.999907 -69.07 0.999907 -69.07 0.012910 -159.0
8.71850000 0.012917 -159.1 0.999907 -69.07 0.999907 -69.07 0.012917 -159.0
8.71860000 0.012923 -159.1 0.999907 -69.07 0.999907 -69.07 0.012923 -159.0
8.71870000 0.012929 -159.1 0.999907 -69.07 0.999907 -69.07 0.012929 -159.0
8.71880000 0.012936 -159.1 0.999907 -69.07 0.999907 -69.07 0.012936 -159.0
8.71890000 0.012942 -159.1 0.999907 -69.08 0.999907 -69.08 0.012942 -159.0
8.71900000 0.012948 -159.1 0.999907 -69.08 0.999907 -69.08 0.012948 -159.0
8.71910000 0.012954 -159.2 0.999907 -69.08 0.999907 -69.08 0.012954 -159.0
8.71920000 0.012961 -159.2 0.999907 -69.08 0.999907 -69.08 0.012961 -159.0
8.71930000 0.012967 -159.2 0.999906 -69.08 0.999906 -69.08 0.012967 -159.0
8.71940000 0.012974 -159.2 0.999906 -69.08 0.999906 -69.08 0.012974 -159.0
8.71950000 0.012980 -159.2 0.999906 -69.08 0.999906 -69.08 0.012980 -159.0
8.71960000 0.012986 -159.2 0.999906 -69.08 0.999906 -69.08 0.012986 -159.0
8.71970000 0.012993 -159.2 0.999906 -69.08 0.999906 -69.08 0.012993 -159.0
8.71980000 0.012999 -159.2 0.999906 -69.09 0.999906 -69.09 0.012999 -159.0
8.71990000 0.013005 -159.2 0.999906 -69.09 0.999906 -69.09 0.013005 -159.0
8.72000000 0.013012 -159.2 0.999906 -69.09 0.999906 -69.09 0.013012 -159.0
8.72010000 0.013018 -159.2 0.999906 -69.09 0.999906 -69.09 0.013018 -159.0
8.72020000 0.013025 -159.2 0.999906 -69.09 0.999906 -69.09 0.013025 -159.0
8.72030000 0.013031 -159.2 0.999906 -69.09 0.999906 -69.09 0.013031 -159.0
8.72040000 0.013037 -159.2 0.999905 -69.09 0.999905 -69.09 0.013037 -159.0
8.72050000 0.013044 -159.2 0.999905 -69.09 0.999905 -69.09 0.013044 -159.0
8.72060000 0.013050 -159.2 0.999905 -69.10 0.999905 -69.10 0.013050 -159.0
8.72070000 0.013057 -159.2 0.999905 -69.10 0.999905 -69.10 0.013057 -159.0
8.72080000 0.013063 -159.2 0.999905 -69.10 0.999905 -69.10 0.013063 -159.0
8.72090000 0.013070 -159.2 0.999905 -69.10 0.999905 -69.10 0.013070 -159.0
8.72100000 0.013076 -159.2 0.999905 -69.10 0.999905 -69.10 0.013076 -159.0
8.72110000 0.013083 -159.2 0.999905 -69.10 0.999905 -69.10 0.013083 -159.0
8.72120000 0.013089 -159.2 0.999905 -69.10 0.999905 -69.10 0.013089 -159.0
8.72130000 0.013096 -159.2 0.999905 -69.10 0.999905 -69.10 0.013096 -159.0
8.72140000 0.013102 -159.2 0.999905 -69.10 0.999905 -69.10 0.013102 -159.0
8.72150000 0.013108 -159.2 0.999905 -69.11 0.999905 -69.11 0.013109 -159.0
8.72160000 0.013115 -159.2 0.999904 -69.11 0.999904 -69.11 0.013115 -159.0
8.72170000 0.013122 -159.2 0.999904 -69.11 0.999904 -69.11 0.013122 -159.0
8.72180000 0.013128 -159.2 0.999904 -69.11 0.999904 -69.11 0.013128 -159.0
8.72190000 0.013135 -159.2 0.999904 -69.11 0.999904 -69.11 0.013135 -159.0
8.72200000 0.013141 -159.2 0.999904 -69.11 0.999904 -69.11 0.013141 -159.0
8.72210000 0.013148 -159.2 0.999904 -69.11 0.999904 -69.11 0.013148 -159.0
8.72220000 0.013154 -159.2 0.999904 -69.11 0.999904 -69.11 0.013154 -159.0
8.72230000 0.013161 -159.2 0.999904 -69.11 0.999904 -69.11 0.013161 -159.0
8.72240000 0.013167 -159.2 0.999904 -69.12 0.999904 -69.12 0.013167 -159.0
8.72250000 0.013174 -159.2 0.999904 -69.12 0.999904 -69.12 0.013174 -159.0
8.72260000 0.013180 -159.2 0.999904 -69.12 0.999904 -69.12 0.013180 -159.0
8.72270000 0.013187 -159.2 0.999903 -69.12 0.999903 -69.12 0.013187 -159.0
8.72280000 0.013194 -159.2 0.999903 -69.12 0.999903 -69.12 0.013194 -159.0
8.72290000 0.013200 -159.2 0.999903 -69.12 0.999903 -69.12 0.013200 -159.0
8.72300000 0.013207 -159.2 0.999903 -69.12 0.999903 -69.12 0.013207 -159.0
8.72310000 0.013213 -159.2 0.999903 -69.12 0.999903 -69.12 0.013213 -159.0
8.72320000 0.013220 -159.2 0.999903 -69.13 0.999903 -69.13 0.013220 -159.0
8.72330000 0.013227 -159.2 0.999903 -69.13 0.999903 -69.13 0.013227 -159.0
8.72340000 0.013233 -159.2 0.999903 -69.13 0.999903 -69.13 0.013233 -159.0
8.72350000 0.013240 -159.2 0.999903 -69.13 0.999903 -69.13 0.013240 -159.0
8.72360000 0.013247 -159.2 0.999903 -69.13 0.999903 -69.13 0.013247 -159.0
8.72370000 0.013253 -159.2 0.999903 -69.13 0.999903 -69.13 0.013253 -159.0
8.72380000 0.013260 -159.2 0.999902 -69.13 0.999902 -69.13 0.013260 -159.0
8.72390000 0.013267 -159.2 0.999902 -69.13 0.999902 -69.13 0.013267 -159.0
8.72400000 0.013273 -159.2 0.999902 -69.13 0.999902 -69.13 0.013273 -159.0
8.72410000 0.013280 -159.2 0.999902 -69.14 0.999902 -69.14 0.013280 -159.0
8.72420000 0.013287 -159.2 0.999902 -69.14 0.999902 -69.14 0.013287 -159.0
8.72430000 0.013293 -159.2 0.999902 -69.14 0.999902 -69.14 0.013293 -159.0
8.72440000 0.013300 -159.2 0.999902 -69.14 0.999902 -69.14 0.013300 -159.0
8.72450000 0.013307 -159.2 0.999902 -69.14 0.999902 -69.14 0.013307 -159.0
8.72460000 0.013313 -159.2 0.999902 -69.14 0.999902 -69.14 0.013313 -159.0
8.72470000 0.013320 -159.2 0.999902 -69.14 0.999902 -69.14 0.013320 -159.0
8.72480000 0.013327 -159.2 0.999902 -69.14 0.999902 -69.14 0.013327 -159.0
8.72490000 0.013334 -159.2 0.999901 -69.15 0.999901 -69.15 0.013334 -159.1
8.72500000 0.013340 -159.2 0.999901 -69.15 0.999901 -69.15 0.013340 -159.1
8.72510000 0.013347 -159.2 0.999901 -69.15 0.999901 -69.15 0.013347 -159.1
8.72520000 0.013354 -159.2 0.999901 -69.15 0.999901 -69.15 0.013354 -159.1
8.72530000 0.013361 -159.2 0.999901 -69.15 0.999901 -69.15 0.013361 -159.1
8.72540000 0.013367 -159.2 0.999901 -69.15 0.999901 -69.15 0.013367 -159.1
8.72550000 0.013374 -159.2 0.999901 -69.15 0.999901 -69.15 0.013374 -159.1
8.72560000 0.013381 -159.2 0.999901 -69.15 0.999901 -69.15 0.013381 -159.1
8.72570000 0.013388 -159.2 0.999901 -69.15 0.999901 -69.15 0.013388 -159.1
8.72580000 0.013395 -159.2 0.999901 -69.16 0.999901 -69.16 0.013395 -159.1
8.72590000 0.013401 -159.2 0.999901 -69.16 0.999901 -69.16 0.013401 -159.1
8.72600000 0.013408 -159.2 0.999900 -69.16 0.999900 -69.16 0.013408 -159.1
8.72610000 0.013415 -159.2 0.999900 -69.16 0.999900 -69.16 0.013415 -159.1
8.72620000 0.013422 -159.2 0.999900 -69.16 0.999900 -69.16 0.013422 -159.1
8.72630000 0.013429 -159.2 0.999900 -69.16 0.999900 -69.16 0.013429 -159.1
8.72640000 0.013436 -159.2 0.999900 -69.16 0.999900 -69.16 0.013436 -159.1
8.72650000 0.013442 -159.2 0.999900 -69.16 0.999900 -69.16 0.013442 -159.1
8.72660000 0.013449 -159.2 0.999900 -69.17 0.999900 -69.17 0.013449 -159.1
8.72670000 0.013456 -159.2 0.999900 -69.17 0.999900 -69.17 0.013456 -159.1
8.72680000 0.013463 -159.2 0.999900 -69.17 0.999900 -69.17 0.013463 -159.1
8.72690000 0.013470 -159.2 0.999900 -69.17 0.999900 -69.17 0.013470 -159.1
8.72700000 0.013477 -159.2 0.999900 -69.17 0.999900 -69.17 0.013477 -159.1
8.72710000 0.013484 -159.2 0.999899 -69.17 0.999899 -69.17 0.013484 -159.1
8.72720000 0.013491 -159.2 0.999899 -69.17 0.999899 -69.17 0.013491 -159.1
8.72730000 0.013498 -159.2 0.999899 -69.17 0.999899 -69.17 0.013498 -159.1
8.72740000 0.013505 -159.2 0.999899 -69.17 0.999899 -69.17 0.013505 -159.1
8.72750000 0.013511 -159.2 0.999899 -69.18 0.999899 -69.18 0.013511 -159.1
8.72760000 0.013518 -159.2 0.999899 -69.18 0.999899 -69.18 0.013518 -159.1
8.72770000 0.013525 -159.2 0.999899 -69.18 0.999899 -69.18 0.013525 -159.1
8.72780000 0.013532 -159.2 0.999899 -69.18 0.999899 -69.18 0.013532 -159.1
8.72790000 0.013539 -159.2 0.999899 -69.18 0.999899 -69.18 0.013539 -159.1
8.72800000 0.013546 -159.2 0.999899 -69.18 0.999899 -69.18 0.013546 -159.1
8.72810000 0.013553 -159.2 0.999898 -69.18 0.999898 -69.18 0.013553 -159.1
8.72820000 0.013560 -159.2 0.999898 -69.18 0.999898 -69.18 0.013560 -159.1
8.72830000 0.013567 -159.2 0.999898 -69.19 0.999898 -69.19 0.013567 -159.1
8.72840000 0.013574 -159.2 0.999898 -69.19 0.999898 -69.19 0.013574 -159.1
8.72850000 0.013581 -159.2 0.999898 -69.19 0.999898 -69.19 0.013581 -159.1
8.72860000 0.013588 -159.2 0.999898 -69.19 0.999898 -69.19 0.013588 -159.1
8.72870000 0.013595 -159.3 0.999898 -69.19 0.999898 -69.19 0.013595 -159.1
8.72880000 0.013602 -159.3 0.999898 -69.19 0.999898 -69.19 0.013602 -159.1
8.72890000 0.013609 -159.3 0.999898 -69.19 0.999898 -69.19 0.013609 -159.1
8.72900000 0.013616 -159.3 0.999898 -69.19 0.999898 -69.19 0.013616 -159.1
8.72910000 0.013624 -159.3 0.999897 -69.19 0.999897 -69.19 0.013624 -159.1
8.72920000 0.013631 -159.3 0.999897 -69.20 0.999897 -69.20 0.013631 -159.1
8.72930000 0.013638 -159.3 0.999897 -69.20 0.999897 -69.20 0.013638 -159.1
8.72940000 0.013645 -159.3 0.999897 -69.20 0.999897 -69.20 0.013645 -159.1
8.72950000 0.013652 -159.3 0.999897 -69.20 0.999897 -69.20 0.013652 -159.1
8.72960000 0.013659 -159.3 0.999897 -69.20 0.999897 -69.20 0.013659 -159.1
8.72970000 0.013666 -159.3 0.999897 -69.20 0.999897 -69.20 0.013666 -159.1
8.72980000 0.013673 -159.3 0.999897 -69.20 0.999897 -69.20 0.013673 -159.1
8.72990000 0.013680 -159.3 0.999897 -69.20 0.999897 -69.20 0.013680 -159.1
8.73000000 0.013687 -159.3 0.999897 -69.21 0.999897 -69.21 0.013687 -159.1
8.73010000 0.013695 -159.3 0.999896 -69.21 0.999896 -69.21 0.013695 -159.1
8.73020000 0.013702 -159.3 0.999896 -69.21 0.999896 -69.21 0.013702 -159.1
8.73030000 0.013709 -159.3 0.999896 -69.21 0.999896 -69.21 0.013709 -159.1
8.73040000 0.013716 -159.3 0.999896 -69.21 0.999896 -69.21 0.013716 -159.1
8.73050000 0.013723 -159.3 0.999896 -69.21 0.999896 -69.21 0.013723 -159.1
8.73060000 0.013730 -159.3 0.999896 -69.21 0.999896 -69.21 0.013730 -159.1
8.73070000 0.013738 -159.3 0.999896 -69.21 0.999896 -69.21 0.013738 -159.1
8.73080000 0.013745 -159.3 0.999896 -69.22 0.999896 -69.22 0.013745 -159.1
8.73090000 0.013752 -159.3 0.999896 -69.22 0.999896 -69.22 0.013752 -159.1
8.73100000 0.013759 -159.3 0.999896 -69.22 0.999896 -69.22 0.013759 -159.1
8.73110000 0.013766 -159.3 0.999895 -69.22 0.999895 -69.22 0.013766 -159.1
8.73120000 0.013774 -159.3 0.999895 -69.22 0.999895 -69.22 0.013774 -159.1
8.73130000 0.013781 -159.3 0.999895 -69.22 0.999895 -69.22 0.013781 -159.1
8.73140000 0.013788 -159.3 0.999895 -69.22 0.999895 -69.22 0.013788 -159.1
8.73150000 0.013795 -159.3 0.999895 -69.22 0.999895 -69.22 0.013795 -159.1
8.73160000 0.013803 -159.3 0.999895 -69.22 0.999895 -69.22 0.013803 -159.1
8.73170000 0.013810 -159.3 0.999895 -69.23 0.999895 -69.23 0.013810 -159.1
8.73180000 0.013817 -159.3 0.999895 -69.23 0.999895 -69.23 0.013817 -159.1
8.73190000 0.013825 -159.3 0.999895 -69.23 0.999895 -69.23 0.013825 -159.1
8.73200000 0.013832 -159.3 0.999895 -69.23 0.999895 -69.23 0.013832 -159.1
8.73210000 0.013839 -159.3 0.999894 -69.23 0.999894 -69.23 0.013839 -159.1
8.73220000 0.013846 -159.3 0.999894 -69.23 0.999894 -69.23 0.013846 -159.1
8.73230000 0.013854 -159.3 0.999894 -69.23 0.999894 -69.23 0.013854 -159.1
8.73240000 0.013861 -159.3 0.999894 -69.23 0.999894 -69.23 0.013861 -159.2
8.73250000 0.013868 -159.3 0.999894 -69.24 0.999894 -69.24 0.013868 -159.2
8.73260000 0.013876 -159.3 0.999894 -69.24 0.999894 -69.24 0.013876 -159.2
8.73270000 0.013883 -159.3 0.999894 -69.24 0.999894 -69.24 0.013883 -159.2
8.73280000 0.013891 -159.3 0.999894 -69.24 0.999894 -69.24 0.013891 -159.2
8.73290000 0.013898 -159.3 0.999894 -69.24 0.999894 -69.24 0.013898 -159.2
8.73300000 0.013905 -159.3 0.999894 -69.24 0.999894 -69.24 0.013905 -159.2
8.73310000 0.013913 -159.3 0.999893 -69.24 0.999893 -69.24 0.013913 -159.2
8.73320000 0.013920 -159.3 0.999893 -69.24 0.999893 -69.24 0.013920 -159.2
8.73330000 0.013927 -159.3 0.999893 -69.25 0.999893 -69.25 0.013927 -159.2
8.73340000 0.013935 -159.3 0.999893 -69.25 0.999893 -69.25 0.013935 -159.2
8.73350000 0.013942 -159.3 0.999893 -69.25 0.999893 -69.25 0.013942 -159.2
8.73360000 0.013950 -159.3 0.999893 -69.25 0.999893 -69.25 0.013950 -159.2
8.73370000 0.013957 -159.3 0.999893 -69.25 0.999893 -69.25 0.013957 -159.2
8.73380000 0.013965 -159.3 0.999893 -69.25 0.999893 -69.25 0.013965 -159.2
8.73390000 0.013972 -159.3 0.999893 -69.25 0.999893 -69.25 0.013972 -159.2
8.73400000 0.013980 -159.3 0.999892 -69.25 0.999892 -69.25 0.013980 -159.2
8.73410000 0.013987 -159.3 0.999892 -69.25 0.999892 -69.25 0.013987 -159.2
8.73420000 0.013995 -159.3 0.999892 -69.26 0.999892 -69.26 0.013995 -159.2
8.73430000 0.014002 -159.3 0.999892 -69.26 0.999892 -69.26 0.014002 -159.2
8.73440000 0.014010 -159.3 0.999892 -69.26 0.999892 -69.26 0.014010 -159.2
8.73450000 0.014017 -159.3 0.999892 -69.26 0.999892 -69.26 0.014017 -159.2
8.73460000 0.014025 -159.3 0.999892 -69.26 0.999892 -69.26 0.014025 -159.2
8.73470000 0.014032 -159.3 0.999892 -69.26 0.999892 -69.26 0.014032 -159.2
8.73480000 0.014040 -159.3 0.999892 -69.26 0.999892 -69.26 0.014040 -159.2
8.73490000 0.014047 -159.3 0.999892 -69.26 0.999892 -69.26 0.014047 -159.2
8.73500000 0.014055 -159.3 0.999891 -69.27 0.999891 -69.27 0.014055 -159.2
8.73510000 0.014062 -159.3 0.999891 -69.27 0.999891 -69.27 0.014062 -159.2
8.73520000 0.014070 -159.3 0.999891 -69.27 0.999891 -69.27 0.014070 -159.2
8.73530000 0.014077 -159.3 0.999891 -69.27 0.999891 -69.27 0.014077 -159.2
8.73540000 0.014085 -159.3 0.999891 -69.27 0.999891 -69.27 0.014085 -159.2
8.73550000 0.014093 -159.3 0.999891 -69.27 0.999891 -69.27 0.014093 -159.2
8.73560000 0.014100 -159.3 0.999891 -69.27 0.999891 -69.27 0.014100 -159.2
8.73570000 0.014108 -159.3 0.999891 -69.27 0.999891 -69.27 0.014108 -159.2
8.73580000 0.014115 -159.3 0.999891 -69.28 0.999891 -69.28 0.014116 -159.2
8.73590000 0.014123 -159.3 0.999890 -69.28 0.999890 -69.28 0.014123 -159.2
8.73600000 0.014131 -159.3 0.999890 -69.28 0.999890 -69.28 0.014131 -159.2
8.73610000 0.014138 -159.3 0.999890 -69.28 0.999890 -69.28 0.014138 -159.2
8.73620000 0.014146 -159.3 0.999890 -69.28 0.999890 -69.28 0.014146 -159.2
8.73630000 0.014154 -159.3 0.999890 -69.28 0.999890 -69.28 0.014154 -159.2
8.73640000 0.014161 -159.3 0.999890 -69.28 0.999890 -69.28 0.014161 -159.2
8.73650000 0.014169 -159.3 0.999890 -69.28 0.999890 -69.28 0.014169 -159.2
8.73660000 0.014177 -159.3 0.999890 -69.29 0.999890 -69.29 0.014177 -159.2
8.73670000 0.014185 -159.3 0.999890 -69.29 0.999890 -69.29 0.014185 -159.2
8.73680000 0.014192 -159.3 0.999889 -69.29 0.999889 -69.29 0.014192 -159.2
8.73690000 0.014200 -159.3 0.999889 -69.29 0.999889 -69.29 0.014200 -159.2
8.73700000 0.014208 -159.3 0.999889 -69.29 0.999889 -69.29 0.014208 -159.2
8.73710000 0.014215 -159.3 0.999889 -69.29 0.999889 -69.29 0.014215 -159.2
8.73720000 0.014223 -159.3 0.999889 -69.29 0.999889 -69.29 0.014223 -159.2
8.73730000 0.014231 -159.3 0.999889 -69.29 0.999889 -69.29 0.014231 -159.2
8.73740000 0.014239 -159.3 0.999889 -69.30 0.999889 -69.30 0.014239 -159.2
8.73750000 0.014247 -159.3 0.999889 -69.30 0.999889 -69.30 0.014247 -159.2
8.73760000 0.014254 -159.3 0.999889 -69.30 0.999889 -69.30 0.014254 -159.2
8.73770000 0.014262 -159.3 0.999888 -69.30 0.999888 -69.30 0.014262 -159.2
8.73780000 0.014270 -159.4 0.999888 -69.30 0.999888 -69.30 0.014270 -159.2
8.73790000 0.014278 -159.4 0.999888 -69.30 0.999888 -69.30 0.014278 -159.2
8.73800000 0.014286 -159.4 0.999888 -69.30 0.999888 -69.30 0.014286 -159.2
8.73810000 0.014293 -159.4 0.999888 -69.30 0.999888 -69.30 0.014293 -159.2
8.73820000 0.014301 -159.4 0.999888 -69.30 0.999888 -69.30 0.014301 -159.2
8.73830000 0.014309 -159.4 0.999888 -69.31 0.999888 -69.31 0.014309 -159.2
8.73840000 0.014317 -159.4 0.999888 -69.31 0.999888 -69.31 0.014317 -159.2
8.73850000 0.014325 -159.4 0.999887 -69.31 0.999887 -69.31 0.014325 -159.2
8.73860000 0.014333 -159.4 0.999887 -69.31 0.999887 -69.31 0.014333 -159.2
8.73870000 0.014341 -159.4 0.999887 -69.31 0.999887 -69.31 0.014341 -159.2
8.73880000 0.014349 -159.4 0.999887 -69.31 0.999887 -69.31 0.014349 -159.2
8.73890000 0.014356 -159.4 0.999887 -69.31 0.999887 -69.31 0.014356 -159.2
8.73900000 0.014364 -159.4 0.999887 -69.31 0.999887 -69.31 0.014364 -159.2
8.73910000 0.014372 -159.4 0.999887 -69.32 0.999887 -69.32 0.014372 -159.2
8.73920000 0.014380 -159.4 0.999887 -69.32 0.999887 -69.32 0.014380 -159.2