! Sonnet Data File
! From: emgraph Version : 16.52
! From Project: transmon_trial2
! Data is De-embedded 
! Data File Written: 10/20/2017 13:43:12
!< HDATE 10/20/2017 10:41:42
!< MDATE 10/20/2017 10:41:42
!< PARAMS
!< Lj = 15.24
!< Gap = 6.0
!< Width = 50.0
!< Airgap = 30.0
!< Pwidth = 2000.0
!< END PARAMS
# GHZ S MA R 45.40000
8.70000000 0.030426 -160.0 0.999525 -69.81 0.999525 -69.81 0.030426 -159.6
!< P1 F=8.7 Eeff=(4.74736053 -6.3969e-5) Z0=(45.1403777 -2.0193e-4) R=0.0 C=0.0 
!< P2 F=8.7 Eeff=(4.74736053 -6.3969e-5) Z0=(45.1403777 -2.0193e-4) R=0.0 C=0.0 
8.70010000 0.030451 -160.0 0.999524 -69.81 0.999524 -69.81 0.030451 -159.6
8.70020000 0.030476 -160.0 0.999523 -69.82 0.999523 -69.82 0.030476 -159.6
8.70030000 0.030501 -160.0 0.999523 -69.82 0.999523 -69.82 0.030501 -159.6
8.70040000 0.030526 -160.0 0.999522 -69.82 0.999522 -69.82 0.030526 -159.6
8.70050000 0.030551 -160.0 0.999521 -69.82 0.999521 -69.82 0.030551 -159.6
8.70060000 0.030577 -160.0 0.999520 -69.83 0.999520 -69.83 0.030577 -159.6
8.70070000 0.030602 -160.0 0.999519 -69.83 0.999519 -69.83 0.030602 -159.6
8.70080000 0.030627 -160.1 0.999519 -69.83 0.999519 -69.83 0.030627 -159.6
8.70090000 0.030653 -160.1 0.999518 -69.83 0.999518 -69.83 0.030653 -159.6
8.70100000 0.030678 -160.1 0.999517 -69.83 0.999517 -69.83 0.030678 -159.6
8.70110000 0.030703 -160.1 0.999516 -69.84 0.999516 -69.84 0.030703 -159.6
8.70120000 0.030729 -160.1 0.999515 -69.84 0.999515 -69.84 0.030729 -159.6
8.70130000 0.030755 -160.1 0.999515 -69.84 0.999515 -69.84 0.030755 -159.6
8.70140000 0.030780 -160.1 0.999514 -69.84 0.999514 -69.84 0.030780 -159.6
8.70150000 0.030806 -160.1 0.999513 -69.85 0.999513 -69.85 0.030806 -159.6
8.70160000 0.030832 -160.1 0.999512 -69.85 0.999512 -69.85 0.030832 -159.6
8.70170000 0.030857 -160.1 0.999511 -69.85 0.999511 -69.85 0.030857 -159.6
8.70180000 0.030883 -160.1 0.999511 -69.85 0.999511 -69.85 0.030883 -159.6
8.70190000 0.030909 -160.1 0.999510 -69.85 0.999510 -69.85 0.030909 -159.6
8.70200000 0.030935 -160.1 0.999509 -69.86 0.999509 -69.86 0.030935 -159.6
8.70210000 0.030961 -160.1 0.999508 -69.86 0.999508 -69.86 0.030961 -159.6
8.70220000 0.030987 -160.1 0.999507 -69.86 0.999507 -69.86 0.030987 -159.6
8.70230000 0.031013 -160.1 0.999507 -69.86 0.999507 -69.86 0.031013 -159.6
8.70240000 0.031039 -160.1 0.999506 -69.87 0.999506 -69.87 0.031039 -159.6
8.70250000 0.031065 -160.1 0.999505 -69.87 0.999505 -69.87 0.031065 -159.7
8.70260000 0.031091 -160.1 0.999504 -69.87 0.999504 -69.87 0.031091 -159.7
8.70270000 0.031118 -160.1 0.999503 -69.87 0.999503 -69.87 0.031118 -159.7
8.70280000 0.031144 -160.1 0.999502 -69.87 0.999502 -69.87 0.031144 -159.7
8.70290000 0.031170 -160.1 0.999502 -69.88 0.999502 -69.88 0.031170 -159.7
8.70300000 0.031197 -160.1 0.999501 -69.88 0.999501 -69.88 0.031197 -159.7
8.70310000 0.031223 -160.1 0.999500 -69.88 0.999500 -69.88 0.031223 -159.7
8.70320000 0.031250 -160.1 0.999499 -69.88 0.999499 -69.88 0.031250 -159.7
8.70330000 0.031276 -160.1 0.999498 -69.89 0.999498 -69.89 0.031276 -159.7
8.70340000 0.031303 -160.1 0.999497 -69.89 0.999497 -69.89 0.031303 -159.7
8.70350000 0.031330 -160.1 0.999497 -69.89 0.999497 -69.89 0.031330 -159.7
8.70360000 0.031356 -160.1 0.999496 -69.89 0.999496 -69.89 0.031356 -159.7
8.70370000 0.031383 -160.1 0.999495 -69.90 0.999495 -69.90 0.031383 -159.7
8.70380000 0.031410 -160.1 0.999494 -69.90 0.999494 -69.90 0.031410 -159.7
8.70390000 0.031437 -160.1 0.999493 -69.90 0.999493 -69.90 0.031437 -159.7
8.70400000 0.031464 -160.1 0.999492 -69.90 0.999492 -69.90 0.031464 -159.7
8.70410000 0.031491 -160.1 0.999491 -69.91 0.999491 -69.91 0.031491 -159.7
8.70420000 0.031518 -160.1 0.999491 -69.91 0.999491 -69.91 0.031518 -159.7
8.70430000 0.031545 -160.1 0.999490 -69.91 0.999490 -69.91 0.031545 -159.7
8.70440000 0.031572 -160.1 0.999489 -69.91 0.999489 -69.91 0.031572 -159.7
8.70450000 0.031599 -160.1 0.999488 -69.91 0.999488 -69.91 0.031599 -159.7
8.70460000 0.031626 -160.1 0.999487 -69.92 0.999487 -69.92 0.031626 -159.7
8.70470000 0.031654 -160.1 0.999486 -69.92 0.999486 -69.92 0.031654 -159.7
8.70480000 0.031681 -160.1 0.999485 -69.92 0.999485 -69.92 0.031681 -159.7
8.70490000 0.031708 -160.1 0.999485 -69.92 0.999485 -69.92 0.031708 -159.7
8.70500000 0.031736 -160.1 0.999484 -69.93 0.999484 -69.93 0.031736 -159.7
8.70510000 0.031763 -160.1 0.999483 -69.93 0.999483 -69.93 0.031763 -159.7
8.70520000 0.031791 -160.1 0.999482 -69.93 0.999482 -69.93 0.031791 -159.7
8.70530000 0.031818 -160.1 0.999481 -69.93 0.999481 -69.93 0.031818 -159.7
8.70540000 0.031846 -160.1 0.999480 -69.94 0.999480 -69.94 0.031846 -159.7
8.70550000 0.031874 -160.1 0.999479 -69.94 0.999479 -69.94 0.031874 -159.7
8.70560000 0.031902 -160.1 0.999478 -69.94 0.999478 -69.94 0.031902 -159.7
8.70570000 0.031929 -160.2 0.999477 -69.94 0.999477 -69.94 0.031929 -159.7
8.70580000 0.031957 -160.2 0.999476 -69.95 0.999476 -69.95 0.031957 -159.7
8.70590000 0.031985 -160.2 0.999476 -69.95 0.999476 -69.95 0.031985 -159.7
8.70600000 0.032013 -160.2 0.999475 -69.95 0.999475 -69.95 0.032013 -159.7
8.70610000 0.032041 -160.2 0.999474 -69.95 0.999474 -69.95 0.032041 -159.7
8.70620000 0.032069 -160.2 0.999473 -69.95 0.999473 -69.95 0.032069 -159.7
8.70630000 0.032098 -160.2 0.999472 -69.96 0.999472 -69.96 0.032098 -159.8
8.70640000 0.032126 -160.2 0.999471 -69.96 0.999471 -69.96 0.032126 -159.8
8.70650000 0.032154 -160.2 0.999470 -69.96 0.999470 -69.96 0.032154 -159.8
8.70660000 0.032182 -160.2 0.999469 -69.96 0.999469 -69.96 0.032182 -159.8
8.70670000 0.032211 -160.2 0.999468 -69.97 0.999468 -69.97 0.032211 -159.8
8.70680000 0.032239 -160.2 0.999467 -69.97 0.999467 -69.97 0.032239 -159.8
8.70690000 0.032268 -160.2 0.999466 -69.97 0.999466 -69.97 0.032268 -159.8
8.70700000 0.032296 -160.2 0.999465 -69.97 0.999465 -69.97 0.032296 -159.8
8.70710000 0.032325 -160.2 0.999465 -69.98 0.999465 -69.98 0.032325 -159.8
8.70720000 0.032353 -160.2 0.999464 -69.98 0.999464 -69.98 0.032353 -159.8
8.70730000 0.032382 -160.2 0.999463 -69.98 0.999463 -69.98 0.032382 -159.8
8.70740000 0.032411 -160.2 0.999462 -69.98 0.999462 -69.98 0.032411 -159.8
8.70750000 0.032440 -160.2 0.999461 -69.99 0.999461 -69.99 0.032440 -159.8
8.70760000 0.032469 -160.2 0.999460 -69.99 0.999460 -69.99 0.032469 -159.8
8.70770000 0.032498 -160.2 0.999459 -69.99 0.999459 -69.99 0.032498 -159.8
8.70780000 0.032527 -160.2 0.999458 -69.99 0.999458 -69.99 0.032527 -159.8
8.70790000 0.032556 -160.2 0.999457 -70.00 0.999457 -70.00 0.032556 -159.8
8.70800000 0.032585 -160.2 0.999456 -70.00 0.999456 -70.00 0.032585 -159.8
8.70810000 0.032614 -160.2 0.999455 -70.00 0.999455 -70.00 0.032614 -159.8
8.70820000 0.032643 -160.2 0.999454 -70.00 0.999454 -70.00 0.032643 -159.8
8.70830000 0.032673 -160.2 0.999453 -70.01 0.999453 -70.01 0.032673 -159.8
8.70840000 0.032702 -160.2 0.999452 -70.01 0.999452 -70.01 0.032702 -159.8
8.70850000 0.032731 -160.2 0.999451 -70.01 0.999451 -70.01 0.032731 -159.8
8.70860000 0.032761 -160.2 0.999450 -70.01 0.999450 -70.01 0.032761 -159.8
8.70870000 0.032790 -160.2 0.999449 -70.02 0.999449 -70.02 0.032790 -159.8
8.70880000 0.032820 -160.2 0.999448 -70.02 0.999448 -70.02 0.032820 -159.8
8.70890000 0.032850 -160.2 0.999447 -70.02 0.999447 -70.02 0.032850 -159.8
8.70900000 0.032879 -160.2 0.999446 -70.02 0.999446 -70.02 0.032879 -159.8
8.70910000 0.032909 -160.2 0.999445 -70.03 0.999445 -70.03 0.032909 -159.8
8.70920000 0.032939 -160.2 0.999444 -70.03 0.999444 -70.03 0.032939 -159.8
8.70930000 0.032969 -160.2 0.999443 -70.03 0.999443 -70.03 0.032969 -159.8
8.70940000 0.032999 -160.2 0.999442 -70.03 0.999442 -70.03 0.032999 -159.8
8.70950000 0.033029 -160.2 0.999441 -70.04 0.999441 -70.04 0.033029 -159.8
8.70960000 0.033059 -160.2 0.999440 -70.04 0.999440 -70.04 0.033059 -159.8
8.70970000 0.033089 -160.2 0.999439 -70.04 0.999439 -70.04 0.033089 -159.8
8.70980000 0.033119 -160.2 0.999438 -70.04 0.999438 -70.04 0.033119 -159.8
8.70990000 0.033150 -160.2 0.999437 -70.05 0.999437 -70.05 0.033150 -159.9
8.71000000 0.033180 -160.2 0.999436 -70.05 0.999436 -70.05 0.033180 -159.9
8.71010000 0.033210 -160.2 0.999435 -70.05 0.999435 -70.05 0.033210 -159.9
8.71020000 0.033241 -160.2 0.999434 -70.05 0.999434 -70.05 0.033241 -159.9
8.71030000 0.033271 -160.3 0.999433 -70.06 0.999433 -70.06 0.033271 -159.9
8.71040000 0.033302 -160.3 0.999432 -70.06 0.999432 -70.06 0.033302 -159.9
8.71050000 0.033333 -160.3 0.999431 -70.06 0.999431 -70.06 0.033333 -159.9
8.71060000 0.033363 -160.3 0.999430 -70.06 0.999430 -70.06 0.033363 -159.9
8.71070000 0.033394 -160.3 0.999429 -70.07 0.999429 -70.07 0.033394 -159.9
8.71080000 0.033425 -160.3 0.999428 -70.07 0.999428 -70.07 0.033425 -159.9
8.71090000 0.033456 -160.3 0.999427 -70.07 0.999427 -70.07 0.033456 -159.9
8.71100000 0.033487 -160.3 0.999426 -70.07 0.999426 -70.07 0.033487 -159.9
8.71110000 0.033518 -160.3 0.999425 -70.08 0.999425 -70.08 0.033518 -159.9
8.71120000 0.033549 -160.3 0.999424 -70.08 0.999424 -70.08 0.033549 -159.9
8.71130000 0.033580 -160.3 0.999423 -70.08 0.999423 -70.08 0.033580 -159.9
8.71140000 0.033611 -160.3 0.999422 -70.08 0.999422 -70.08 0.033611 -159.9
8.71150000 0.033643 -160.3 0.999421 -70.09 0.999421 -70.09 0.033643 -159.9
8.71160000 0.033674 -160.3 0.999420 -70.09 0.999420 -70.09 0.033674 -159.9
8.71170000 0.033705 -160.3 0.999418 -70.09 0.999418 -70.09 0.033705 -159.9
8.71180000 0.033737 -160.3 0.999417 -70.09 0.999417 -70.09 0.033737 -159.9
8.71190000 0.033768 -160.3 0.999416 -70.10 0.999416 -70.10 0.033768 -159.9
8.71200000 0.033800 -160.3 0.999415 -70.10 0.999415 -70.10 0.033800 -159.9
8.71210000 0.033832 -160.3 0.999414 -70.10 0.999414 -70.10 0.033832 -159.9
8.71220000 0.033863 -160.3 0.999413 -70.10 0.999413 -70.10 0.033863 -159.9
8.71230000 0.033895 -160.3 0.999412 -70.11 0.999412 -70.11 0.033895 -159.9
8.71240000 0.033927 -160.3 0.999411 -70.11 0.999411 -70.11 0.033927 -159.9
8.71250000 0.033959 -160.3 0.999410 -70.11 0.999410 -70.11 0.033959 -159.9
8.71260000 0.033991 -160.3 0.999409 -70.11 0.999409 -70.11 0.033991 -159.9
8.71270000 0.034023 -160.3 0.999408 -70.12 0.999408 -70.12 0.034023 -159.9
8.71280000 0.034055 -160.3 0.999406 -70.12 0.999406 -70.12 0.034055 -159.9
8.71290000 0.034088 -160.3 0.999405 -70.12 0.999405 -70.12 0.034088 -159.9
8.71300000 0.034120 -160.3 0.999404 -70.13 0.999404 -70.13 0.034120 -159.9
8.71310000 0.034152 -160.3 0.999403 -70.13 0.999403 -70.13 0.034152 -159.9
8.71320000 0.034185 -160.3 0.999402 -70.13 0.999402 -70.13 0.034185 -159.9
8.71330000 0.034217 -160.3 0.999401 -70.13 0.999401 -70.13 0.034217 -159.9
8.71340000 0.034250 -160.3 0.999400 -70.14 0.999400 -70.14 0.034250 -160.0
8.71350000 0.034282 -160.3 0.999399 -70.14 0.999399 -70.14 0.034282 -160.0
8.71360000 0.034315 -160.3 0.999397 -70.14 0.999397 -70.14 0.034315 -160.0
8.71370000 0.034348 -160.3 0.999396 -70.14 0.999396 -70.14 0.034348 -160.0
8.71380000 0.034381 -160.3 0.999395 -70.15 0.999395 -70.15 0.034381 -160.0
8.71390000 0.034414 -160.3 0.999394 -70.15 0.999394 -70.15 0.034414 -160.0
8.71400000 0.034447 -160.3 0.999393 -70.15 0.999393 -70.15 0.034447 -160.0
8.71410000 0.034480 -160.3 0.999392 -70.15 0.999392 -70.15 0.034480 -160.0
8.71420000 0.034513 -160.3 0.999391 -70.16 0.999391 -70.16 0.034513 -160.0
8.71430000 0.034546 -160.3 0.999389 -70.16 0.999389 -70.16 0.034546 -160.0
8.71440000 0.034579 -160.3 0.999388 -70.16 0.999388 -70.16 0.034579 -160.0
8.71450000 0.034613 -160.3 0.999387 -70.17 0.999387 -70.17 0.034613 -160.0
8.71460000 0.034646 -160.4 0.999386 -70.17 0.999386 -70.17 0.034646 -160.0
8.71470000 0.034679 -160.4 0.999385 -70.17 0.999385 -70.17 0.034679 -160.0
8.71480000 0.034713 -160.4 0.999384 -70.17 0.999384 -70.17 0.034713 -160.0
8.71490000 0.034747 -160.4 0.999382 -70.18 0.999382 -70.18 0.034747 -160.0
8.71500000 0.034780 -160.4 0.999381 -70.18 0.999381 -70.18 0.034780 -160.0
8.71510000 0.034814 -160.4 0.999380 -70.18 0.999380 -70.18 0.034814 -160.0
8.71520000 0.034848 -160.4 0.999379 -70.18 0.999379 -70.18 0.034848 -160.0
8.71530000 0.034882 -160.4 0.999378 -70.19 0.999378 -70.19 0.034882 -160.0
8.71540000 0.034916 -160.4 0.999376 -70.19 0.999376 -70.19 0.034916 -160.0
8.71550000 0.034950 -160.4 0.999375 -70.19 0.999375 -70.19 0.034950 -160.0
8.71560000 0.034984 -160.4 0.999374 -70.20 0.999374 -70.20 0.034984 -160.0
8.71570000 0.035018 -160.4 0.999373 -70.20 0.999373 -70.20 0.035018 -160.0
8.71580000 0.035053 -160.4 0.999372 -70.20 0.999372 -70.20 0.035053 -160.0
8.71590000 0.035087 -160.4 0.999370 -70.20 0.999370 -70.20 0.035087 -160.0
8.71600000 0.035122 -160.4 0.999369 -70.21 0.999369 -70.21 0.035121 -160.0
8.71610000 0.035156 -160.4 0.999368 -70.21 0.999368 -70.21 0.035156 -160.0
8.71620000 0.035191 -160.4 0.999367 -70.21 0.999367 -70.21 0.035191 -160.0
8.71630000 0.035225 -160.4 0.999365 -70.21 0.999365 -70.21 0.035225 -160.0
8.71640000 0.035260 -160.4 0.999364 -70.22 0.999364 -70.22 0.035260 -160.0
8.71650000 0.035295 -160.4 0.999363 -70.22 0.999363 -70.22 0.035295 -160.0
8.71660000 0.035330 -160.4 0.999362 -70.22 0.999362 -70.22 0.035330 -160.0
8.71670000 0.035365 -160.4 0.999360 -70.23 0.999360 -70.23 0.035365 -160.1
8.71680000 0.035400 -160.4 0.999359 -70.23 0.999359 -70.23 0.035400 -160.1
8.71690000 0.035435 -160.4 0.999358 -70.23 0.999358 -70.23 0.035435 -160.1
8.71700000 0.035470 -160.4 0.999357 -70.23 0.999357 -70.23 0.035470 -160.1
8.71710000 0.035505 -160.4 0.999355 -70.24 0.999355 -70.24 0.035505 -160.1
8.71720000 0.035541 -160.4 0.999354 -70.24 0.999354 -70.24 0.035541 -160.1
8.71730000 0.035576 -160.4 0.999353 -70.24 0.999353 -70.24 0.035576 -160.1
8.71740000 0.035612 -160.4 0.999352 -70.25 0.999352 -70.25 0.035612 -160.1
8.71750000 0.035647 -160.4 0.999350 -70.25 0.999350 -70.25 0.035647 -160.1
8.71760000 0.035683 -160.4 0.999349 -70.25 0.999349 -70.25 0.035683 -160.1
8.71770000 0.035719 -160.4 0.999348 -70.25 0.999348 -70.25 0.035719 -160.1
8.71780000 0.035755 -160.4 0.999346 -70.26 0.999346 -70.26 0.035755 -160.1
8.71790000 0.035791 -160.4 0.999345 -70.26 0.999345 -70.26 0.035791 -160.1
8.71800000 0.035827 -160.4 0.999344 -70.26 0.999344 -70.26 0.035827 -160.1
8.71810000 0.035863 -160.4 0.999343 -70.27 0.999343 -70.27 0.035863 -160.1
8.71820000 0.035899 -160.4 0.999341 -70.27 0.999341 -70.27 0.035899 -160.1
8.71830000 0.035935 -160.4 0.999340 -70.27 0.999340 -70.27 0.035935 -160.1
8.71840000 0.035972 -160.4 0.999339 -70.27 0.999339 -70.27 0.035972 -160.1
8.71850000 0.036008 -160.4 0.999337 -70.28 0.999337 -70.28 0.036008 -160.1
8.71860000 0.036044 -160.5 0.999336 -70.28 0.999336 -70.28 0.036044 -160.1
8.71870000 0.036081 -160.5 0.999335 -70.28 0.999335 -70.28 0.036081 -160.1
8.71880000 0.036118 -160.5 0.999333 -70.29 0.999333 -70.29 0.036118 -160.1
8.71890000 0.036154 -160.5 0.999332 -70.29 0.999332 -70.29 0.036154 -160.1
8.71900000 0.036191 -160.5 0.999331 -70.29 0.999331 -70.29 0.036191 -160.1
8.71910000 0.036228 -160.5 0.999329 -70.29 0.999329 -70.29 0.036228 -160.1
8.71920000 0.036265 -160.5 0.999328 -70.30 0.999328 -70.30 0.036265 -160.1
8.71930000 0.036302 -160.5 0.999326 -70.30 0.999326 -70.30 0.036302 -160.1
8.71940000 0.036339 -160.5 0.999325 -70.30 0.999325 -70.30 0.036339 -160.1
8.71950000 0.036377 -160.5 0.999324 -70.31 0.999324 -70.31 0.036377 -160.1
8.71960000 0.036414 -160.5 0.999322 -70.31 0.999322 -70.31 0.036414 -160.1
8.71970000 0.036451 -160.5 0.999321 -70.31 0.999321 -70.31 0.036451 -160.1
8.71980000 0.036489 -160.5 0.999320 -70.31 0.999320 -70.31 0.036489 -160.2
8.71990000 0.036527 -160.5 0.999318 -70.32 0.999318 -70.32 0.036527 -160.2
8.72000000 0.036564 -160.5 0.999317 -70.32 0.999317 -70.32 0.036564 -160.2
8.72010000 0.036602 -160.5 0.999315 -70.32 0.999315 -70.32 0.036602 -160.2
8.72020000 0.036640 -160.5 0.999314 -70.33 0.999314 -70.33 0.036640 -160.2
8.72030000 0.036678 -160.5 0.999313 -70.33 0.999313 -70.33 0.036678 -160.2
8.72040000 0.036716 -160.5 0.999311 -70.33 0.999311 -70.33 0.036716 -160.2
8.72050000 0.036754 -160.5 0.999310 -70.34 0.999310 -70.34 0.036754 -160.2
8.72060000 0.036792 -160.5 0.999308 -70.34 0.999308 -70.34 0.036792 -160.2
8.72070000 0.036830 -160.5 0.999307 -70.34 0.999307 -70.34 0.036830 -160.2
8.72080000 0.036869 -160.5 0.999306 -70.34 0.999306 -70.34 0.036869 -160.2
8.72090000 0.036907 -160.5 0.999304 -70.35 0.999304 -70.35 0.036907 -160.2
8.72100000 0.036946 -160.5 0.999303 -70.35 0.999303 -70.35 0.036946 -160.2
8.72110000 0.036985 -160.5 0.999301 -70.35 0.999301 -70.35 0.036985 -160.2
8.72120000 0.037023 -160.5 0.999300 -70.36 0.999300 -70.36 0.037023 -160.2
8.72130000 0.037062 -160.5 0.999298 -70.36 0.999298 -70.36 0.037062 -160.2
8.72140000 0.037101 -160.5 0.999297 -70.36 0.999297 -70.36 0.037101 -160.2
8.72150000 0.037140 -160.5 0.999295 -70.37 0.999295 -70.37 0.037140 -160.2
8.72160000 0.037179 -160.5 0.999294 -70.37 0.999294 -70.37 0.037179 -160.2
8.72170000 0.037218 -160.5 0.999292 -70.37 0.999292 -70.37 0.037218 -160.2
8.72180000 0.037258 -160.5 0.999291 -70.37 0.999291 -70.37 0.037258 -160.2
8.72190000 0.037297 -160.5 0.999289 -70.38 0.999289 -70.38 0.037297 -160.2
8.72200000 0.037336 -160.5 0.999288 -70.38 0.999288 -70.38 0.037336 -160.2
8.72210000 0.037376 -160.5 0.999286 -70.38 0.999286 -70.38 0.037376 -160.2
8.72220000 0.037416 -160.5 0.999285 -70.39 0.999285 -70.39 0.037416 -160.2
8.72230000 0.037455 -160.6 0.999283 -70.39 0.999283 -70.39 0.037455 -160.2
8.72240000 0.037495 -160.6 0.999282 -70.39 0.999282 -70.39 0.037495 -160.2
8.72250000 0.037535 -160.6 0.999280 -70.40 0.999280 -70.40 0.037535 -160.2
8.72260000 0.037575 -160.6 0.999279 -70.40 0.999279 -70.40 0.037575 -160.2
8.72270000 0.037615 -160.6 0.999277 -70.40 0.999277 -70.40 0.037615 -160.2
8.72280000 0.037656 -160.6 0.999276 -70.40 0.999276 -70.40 0.037656 -160.3
8.72290000 0.037696 -160.6 0.999274 -70.41 0.999274 -70.41 0.037696 -160.3
8.72300000 0.037736 -160.6 0.999273 -70.41 0.999273 -70.41 0.037736 -160.3
8.72310000 0.037777 -160.6 0.999271 -70.41 0.999271 -70.41 0.037777 -160.3
8.72320000 0.037818 -160.6 0.999270 -70.42 0.999270 -70.42 0.037817 -160.3
8.72330000 0.037858 -160.6 0.999268 -70.42 0.999268 -70.42 0.037858 -160.3
8.72340000 0.037899 -160.6 0.999267 -70.42 0.999267 -70.42 0.037899 -160.3
8.72350000 0.037940 -160.6 0.999265 -70.43 0.999265 -70.43 0.037940 -160.3
8.72360000 0.037981 -160.6 0.999263 -70.43 0.999263 -70.43 0.037981 -160.3
8.72370000 0.038022 -160.6 0.999262 -70.43 0.999262 -70.43 0.038022 -160.3
8.72380000 0.038063 -160.6 0.999260 -70.44 0.999260 -70.44 0.038063 -160.3
8.72390000 0.038105 -160.6 0.999259 -70.44 0.999259 -70.44 0.038104 -160.3
8.72400000 0.038146 -160.6 0.999257 -70.44 0.999257 -70.44 0.038146 -160.3
8.72410000 0.038187 -160.6 0.999255 -70.45 0.999255 -70.45 0.038187 -160.3
8.72420000 0.038229 -160.6 0.999254 -70.45 0.999254 -70.45 0.038229 -160.3
8.72430000 0.038271 -160.6 0.999252 -70.45 0.999252 -70.45 0.038271 -160.3
8.72440000 0.038313 -160.6 0.999251 -70.46 0.999251 -70.46 0.038312 -160.3
8.72450000 0.038354 -160.6 0.999249 -70.46 0.999249 -70.46 0.038354 -160.3
8.72460000 0.038396 -160.6 0.999247 -70.46 0.999247 -70.46 0.038396 -160.3
8.72470000 0.038439 -160.6 0.999246 -70.46 0.999246 -70.46 0.038438 -160.3
8.72480000 0.038481 -160.6 0.999244 -70.47 0.999244 -70.47 0.038481 -160.3
8.72490000 0.038523 -160.6 0.999242 -70.47 0.999242 -70.47 0.038523 -160.3
8.72500000 0.038565 -160.6 0.999241 -70.47 0.999241 -70.47 0.038565 -160.3
8.72510000 0.038608 -160.6 0.999239 -70.48 0.999239 -70.48 0.038608 -160.3
8.72520000 0.038651 -160.6 0.999237 -70.48 0.999237 -70.48 0.038651 -160.3
8.72530000 0.038693 -160.6 0.999236 -70.48 0.999236 -70.48 0.038693 -160.3
8.72540000 0.038736 -160.6 0.999234 -70.49 0.999234 -70.49 0.038736 -160.3
8.72550000 0.038779 -160.6 0.999232 -70.49 0.999232 -70.49 0.038779 -160.3
8.72560000 0.038822 -160.6 0.999231 -70.49 0.999231 -70.49 0.038822 -160.3
8.72570000 0.038865 -160.6 0.999229 -70.50 0.999229 -70.50 0.038865 -160.4
8.72580000 0.038908 -160.7 0.999227 -70.50 0.999227 -70.50 0.038908 -160.4
8.72590000 0.038952 -160.7 0.999226 -70.50 0.999226 -70.50 0.038952 -160.4
8.72600000 0.038995 -160.7 0.999224 -70.51 0.999224 -70.51 0.038995 -160.4
8.72610000 0.039039 -160.7 0.999222 -70.51 0.999222 -70.51 0.039039 -160.4
8.72620000 0.039083 -160.7 0.999220 -70.51 0.999220 -70.51 0.039083 -160.4
8.72630000 0.039126 -160.7 0.999219 -70.52 0.999219 -70.52 0.039126 -160.4
8.72640000 0.039170 -160.7 0.999217 -70.52 0.999217 -70.52 0.039170 -160.4
8.72650000 0.039214 -160.7 0.999215 -70.52 0.999215 -70.52 0.039214 -160.4
8.72660000 0.039258 -160.7 0.999214 -70.53 0.999214 -70.53 0.039258 -160.4
8.72670000 0.039303 -160.7 0.999212 -70.53 0.999212 -70.53 0.039303 -160.4
8.72680000 0.039347 -160.7 0.999210 -70.53 0.999210 -70.53 0.039347 -160.4
8.72690000 0.039391 -160.7 0.999208 -70.54 0.999208 -70.54 0.039391 -160.4
8.72700000 0.039436 -160.7 0.999206 -70.54 0.999206 -70.54 0.039436 -160.4
8.72710000 0.039481 -160.7 0.999205 -70.54 0.999205 -70.54 0.039481 -160.4
8.72720000 0.039525 -160.7 0.999203 -70.55 0.999203 -70.55 0.039525 -160.4
8.72730000 0.039570 -160.7 0.999201 -70.55 0.999201 -70.55 0.039570 -160.4
8.72740000 0.039615 -160.7 0.999199 -70.55 0.999199 -70.55 0.039615 -160.4
8.72750000 0.039660 -160.7 0.999197 -70.56 0.999197 -70.56 0.039660 -160.4
8.72760000 0.039706 -160.7 0.999196 -70.56 0.999196 -70.56 0.039706 -160.4
8.72770000 0.039751 -160.7 0.999194 -70.56 0.999194 -70.56 0.039751 -160.4
8.72780000 0.039796 -160.7 0.999192 -70.57 0.999192 -70.57 0.039796 -160.4
8.72790000 0.039842 -160.7 0.999190 -70.57 0.999190 -70.57 0.039842 -160.4
8.72800000 0.039888 -160.7 0.999188 -70.57 0.999188 -70.57 0.039888 -160.4
8.72810000 0.039934 -160.7 0.999186 -70.58 0.999186 -70.58 0.039933 -160.4
8.72820000 0.039979 -160.7 0.999185 -70.58 0.999185 -70.58 0.039979 -160.4
8.72830000 0.040025 -160.7 0.999183 -70.58 0.999183 -70.58 0.040025 -160.4
8.72840000 0.040072 -160.7 0.999181 -70.59 0.999181 -70.59 0.040072 -160.5
8.72850000 0.040118 -160.7 0.999179 -70.59 0.999179 -70.59 0.040118 -160.5
8.72860000 0.040164 -160.7 0.999177 -70.59 0.999177 -70.59 0.040164 -160.5
8.72870000 0.040211 -160.7 0.999175 -70.60 0.999175 -70.60 0.040211 -160.5
8.72880000 0.040257 -160.7 0.999173 -70.60 0.999173 -70.60 0.040257 -160.5
8.72890000 0.040304 -160.7 0.999171 -70.60 0.999171 -70.60 0.040304 -160.5
8.72900000 0.040351 -160.8 0.999170 -70.61 0.999170 -70.61 0.040351 -160.5
8.72910000 0.040398 -160.8 0.999168 -70.61 0.999168 -70.61 0.040398 -160.5
8.72920000 0.040445 -160.8 0.999166 -70.61 0.999166 -70.61 0.040445 -160.5
8.72930000 0.040492 -160.8 0.999164 -70.62 0.999164 -70.62 0.040492 -160.5
8.72940000 0.040540 -160.8 0.999162 -70.62 0.999162 -70.62 0.040540 -160.5
8.72950000 0.040587 -160.8 0.999160 -70.63 0.999160 -70.63 0.040587 -160.5
8.72960000 0.040635 -160.8 0.999158 -70.63 0.999158 -70.63 0.040635 -160.5
8.72970000 0.040683 -160.8 0.999156 -70.63 0.999156 -70.63 0.040683 -160.5
8.72980000 0.040730 -160.8 0.999154 -70.64 0.999154 -70.64 0.040730 -160.5
8.72990000 0.040778 -160.8 0.999152 -70.64 0.999152 -70.64 0.040778 -160.5
8.73000000 0.040827 -160.8 0.999150 -70.64 0.999150 -70.64 0.040826 -160.5
8.73010000 0.040875 -160.8 0.999148 -70.65 0.999148 -70.65 0.040875 -160.5
8.73020000 0.040923 -160.8 0.999146 -70.65 0.999146 -70.65 0.040923 -160.5
8.73030000 0.040972 -160.8 0.999144 -70.65 0.999144 -70.65 0.040972 -160.5
8.73040000 0.041020 -160.8 0.999142 -70.66 0.999142 -70.66 0.041020 -160.5
8.73050000 0.041069 -160.8 0.999140 -70.66 0.999140 -70.66 0.041069 -160.5
8.73060000 0.041118 -160.8 0.999138 -70.66 0.999138 -70.66 0.041118 -160.5
8.73070000 0.041167 -160.8 0.999136 -70.67 0.999136 -70.67 0.041167 -160.5
8.73080000 0.041216 -160.8 0.999134 -70.67 0.999134 -70.67 0.041216 -160.5
8.73090000 0.041265 -160.8 0.999132 -70.68 0.999132 -70.68 0.041265 -160.5
8.73100000 0.041315 -160.8 0.999130 -70.68 0.999130 -70.68 0.041314 -160.6
8.73110000 0.041364 -160.8 0.999128 -70.68 0.999128 -70.68 0.041364 -160.6
8.73120000 0.041414 -160.8 0.999126 -70.69 0.999126 -70.69 0.041414 -160.6
8.73130000 0.041463 -160.8 0.999124 -70.69 0.999124 -70.69 0.041463 -160.6
8.73140000 0.041513 -160.8 0.999121 -70.69 0.999121 -70.69 0.041513 -160.6
8.73150000 0.041563 -160.8 0.999119 -70.70 0.999119 -70.70 0.041563 -160.6
8.73160000 0.041614 -160.8 0.999117 -70.70 0.999117 -70.70 0.041613 -160.6
8.73170000 0.041664 -160.8 0.999115 -70.70 0.999115 -70.70 0.041664 -160.6
8.73180000 0.041714 -160.8 0.999113 -70.71 0.999113 -70.71 0.041714 -160.6
8.73190000 0.041765 -160.8 0.999111 -70.71 0.999111 -70.71 0.041765 -160.6
8.73200000 0.041816 -160.9 0.999109 -70.72 0.999109 -70.72 0.041815 -160.6
8.73210000 0.041866 -160.9 0.999107 -70.72 0.999107 -70.72 0.041866 -160.6
8.73220000 0.041917 -160.9 0.999104 -70.72 0.999104 -70.72 0.041917 -160.6
8.73230000 0.041968 -160.9 0.999102 -70.73 0.999102 -70.73 0.041968 -160.6
8.73240000 0.042020 -160.9 0.999100 -70.73 0.999100 -70.73 0.042020 -160.6
8.73250000 0.042071 -160.9 0.999098 -70.73 0.999098 -70.73 0.042071 -160.6
8.73260000 0.042123 -160.9 0.999096 -70.74 0.999096 -70.74 0.042123 -160.6
8.73270000 0.042174 -160.9 0.999093 -70.74 0.999093 -70.74 0.042174 -160.6
8.73280000 0.042226 -160.9 0.999091 -70.75 0.999091 -70.75 0.042226 -160.6
8.73290000 0.042278 -160.9 0.999089 -70.75 0.999089 -70.75 0.042278 -160.6
8.73300000 0.042330 -160.9 0.999087 -70.75 0.999087 -70.75 0.042330 -160.6
8.73310000 0.042382 -160.9 0.999085 -70.76 0.999085 -70.76 0.042382 -160.6
8.73320000 0.042435 -160.9 0.999082 -70.76 0.999082 -70.76 0.042435 -160.6
8.73330000 0.042487 -160.9 0.999080 -70.76 0.999080 -70.76 0.042487 -160.6
8.73340000 0.042540 -160.9 0.999078 -70.77 0.999078 -70.77 0.042540 -160.6
8.73350000 0.042593 -160.9 0.999076 -70.77 0.999076 -70.77 0.042593 -160.7
8.73360000 0.042646 -160.9 0.999073 -70.78 0.999073 -70.78 0.042646 -160.7
8.73370000 0.042699 -160.9 0.999071 -70.78 0.999071 -70.78 0.042699 -160.7
8.73380000 0.042752 -160.9 0.999069 -70.78 0.999069 -70.78 0.042752 -160.7
8.73390000 0.042805 -160.9 0.999066 -70.79 0.999066 -70.79 0.042805 -160.7
8.73400000 0.042859 -160.9 0.999064 -70.79 0.999064 -70.79 0.042859 -160.7
8.73410000 0.042912 -160.9 0.999062 -70.79 0.999062 -70.79 0.042912 -160.7
8.73420000 0.042966 -160.9 0.999059 -70.80 0.999059 -70.80 0.042966 -160.7
8.73430000 0.043020 -160.9 0.999057 -70.80 0.999057 -70.80 0.043020 -160.7
8.73440000 0.043074 -160.9 0.999055 -70.81 0.999055 -70.81 0.043074 -160.7
8.73450000 0.043129 -160.9 0.999052 -70.81 0.999052 -70.81 0.043129 -160.7
8.73460000 0.043183 -160.9 0.999050 -70.81 0.999050 -70.81 0.043183 -160.7
8.73470000 0.043238 -160.9 0.999048 -70.82 0.999048 -70.82 0.043238 -160.7
8.73480000 0.043292 -160.9 0.999045 -70.82 0.999045 -70.82 0.043292 -160.7
8.73490000 0.043347 -161.0 0.999043 -70.83 0.999043 -70.83 0.043347 -160.7
8.73500000 0.043402 -161.0 0.999040 -70.83 0.999040 -70.83 0.043402 -160.7
8.73510000 0.043457 -161.0 0.999038 -70.83 0.999038 -70.83 0.043457 -160.7
8.73520000 0.043513 -161.0 0.999035 -70.84 0.999035 -70.84 0.043513 -160.7
8.73530000 0.043568 -161.0 0.999033 -70.84 0.999033 -70.84 0.043568 -160.7
8.73540000 0.043624 -161.0 0.999031 -70.85 0.999031 -70.85 0.043624 -160.7
8.73550000 0.043680 -161.0 0.999028 -70.85 0.999028 -70.85 0.043680 -160.7
8.73560000 0.043736 -161.0 0.999026 -70.85 0.999026 -70.85 0.043736 -160.7
8.73570000 0.043792 -161.0 0.999023 -70.86 0.999023 -70.86 0.043792 -160.7
8.73580000 0.043848 -161.0 0.999021 -70.86 0.999021 -70.86 0.043848 -160.7
8.73590000 0.043904 -161.0 0.999018 -70.87 0.999018 -70.87 0.043904 -160.8
8.73600000 0.043961 -161.0 0.999016 -70.87 0.999016 -70.87 0.043961 -160.8
8.73610000 0.044018 -161.0 0.999013 -70.87 0.999013 -70.87 0.044018 -160.8
8.73620000 0.044075 -161.0 0.999011 -70.88 0.999011 -70.88 0.044075 -160.8
8.73630000 0.044132 -161.0 0.999008 -70.88 0.999008 -70.88 0.044132 -160.8
8.73640000 0.044189 -161.0 0.999005 -70.89 0.999005 -70.89 0.044189 -160.8
8.73650000 0.044246 -161.0 0.999003 -70.89 0.999003 -70.89 0.044246 -160.8
8.73660000 0.044304 -161.0 0.999000 -70.89 0.999000 -70.89 0.044304 -160.8
8.73670000 0.044362 -161.0 0.998998 -70.90 0.998998 -70.90 0.044362 -160.8
8.73680000 0.044420 -161.0 0.998995 -70.90 0.998995 -70.90 0.044420 -160.8
8.73690000 0.044478 -161.0 0.998993 -70.91 0.998993 -70.91 0.044478 -160.8
8.73700000 0.044536 -161.0 0.998990 -70.91 0.998990 -70.91 0.044536 -160.8
8.73710000 0.044594 -161.0 0.998987 -70.91 0.998987 -70.91 0.044594 -160.8
8.73720000 0.044653 -161.0 0.998985 -70.92 0.998985 -70.92 0.044653 -160.8
8.73730000 0.044712 -161.0 0.998982 -70.92 0.998982 -70.92 0.044711 -160.8
8.73740000 0.044770 -161.0 0.998979 -70.93 0.998979 -70.93 0.044770 -160.8
8.73750000 0.044829 -161.1 0.998977 -70.93 0.998977 -70.93 0.044829 -160.8
8.73760000 0.044889 -161.1 0.998974 -70.94 0.998974 -70.94 0.044889 -160.8
8.73770000 0.044948 -161.1 0.998971 -70.94 0.998971 -70.94 0.044948 -160.8
8.73780000 0.045008 -161.1 0.998969 -70.94 0.998969 -70.94 0.045008 -160.8
8.73790000 0.045067 -161.1 0.998966 -70.95 0.998966 -70.95 0.045067 -160.8
8.73800000 0.045127 -161.1 0.998963 -70.95 0.998963 -70.95 0.045127 -160.8
8.73810000 0.045187 -161.1 0.998960 -70.96 0.998960 -70.96 0.045187 -160.9
8.73820000 0.045248 -161.1 0.998958 -70.96 0.998958 -70.96 0.045248 -160.9
8.73830000 0.045308 -161.1 0.998955 -70.97 0.998955 -70.97 0.045308 -160.9
8.73840000 0.045369 -161.1 0.998952 -70.97 0.998952 -70.97 0.045369 -160.9
8.73850000 0.045430 -161.1 0.998949 -70.97 0.998949 -70.97 0.045430 -160.9
8.73860000 0.045491 -161.1 0.998946 -70.98 0.998946 -70.98 0.045491 -160.9
8.73870000 0.045552 -161.1 0.998944 -70.98 0.998944 -70.98 0.045552 -160.9
8.73880000 0.045613 -161.1 0.998941 -70.99 0.998941 -70.99 0.045613 -160.9
8.73890000 0.045675 -161.1 0.998938 -70.99 0.998938 -70.99 0.045675 -160.9
8.73900000 0.045736 -161.1 0.998935 -71.00 0.998935 -71.00 0.045736 -160.9
8.73910000 0.045798 -161.1 0.998932 -71.00 0.998932 -71.00 0.045798 -160.9
8.73920000 0.045860 -161.1 0.998929 -71.00 0.998929 -71.00 0.045860 -160.9