! Sonnet Data File
! From: emgraph Version : 16.52
! From Emgraph Data: transmon_trial2
! Data File Written: 10/20/2017 09:16:37
!< HDATE 10/19/2017 21:42:14
!< MDATE 10/19/2017 21:42:14
!< PARAMS
!< Lj = 15.24
!< Gap = 6.0
!< Width = 20.0
!< Pwidth = 2000.0
!< END PARAMS
# GHZ S MA R 39.00000
8.70000000 0.030683 -161.7 0.999517 -71.70 0.999517 -71.70 0.030683 -161.7
!< P1 F=8.7 Eeff=(4.9947984 -5.8807e-5) Z0=(38.4974817 -1.2545e-4) R=0.0 C=0.0 
!< P2 F=8.7 Eeff=(4.9947984 -5.8807e-5) Z0=(38.4974817 -1.2545e-4) R=0.0 C=0.0 
8.70010000 0.030710 -161.7 0.999517 -71.70 0.999517 -71.70 0.030710 -161.7
8.70020000 0.030737 -161.7 0.999516 -71.70 0.999516 -71.70 0.030737 -161.7
8.70030000 0.030764 -161.7 0.999515 -71.70 0.999515 -71.70 0.030763 -161.7
8.70040000 0.030790 -161.7 0.999514 -71.71 0.999514 -71.71 0.030790 -161.7
8.70050000 0.030817 -161.7 0.999513 -71.71 0.999513 -71.71 0.030817 -161.7
8.70060000 0.030844 -161.7 0.999512 -71.71 0.999512 -71.71 0.030844 -161.7
8.70070000 0.030871 -161.7 0.999511 -71.71 0.999511 -71.71 0.030871 -161.7
8.70080000 0.030898 -161.7 0.999511 -71.72 0.999511 -71.72 0.030898 -161.7
8.70090000 0.030926 -161.7 0.999510 -71.72 0.999510 -71.72 0.030925 -161.7
8.70100000 0.030953 -161.7 0.999509 -71.72 0.999509 -71.72 0.030953 -161.7
8.70110000 0.030980 -161.7 0.999508 -71.72 0.999508 -71.72 0.030980 -161.7
8.70120000 0.031007 -161.7 0.999507 -71.73 0.999507 -71.73 0.031007 -161.7
8.70130000 0.031035 -161.7 0.999506 -71.73 0.999506 -71.73 0.031035 -161.7
8.70140000 0.031062 -161.7 0.999506 -71.73 0.999506 -71.73 0.031062 -161.7
8.70150000 0.031089 -161.7 0.999505 -71.73 0.999505 -71.73 0.031089 -161.7
8.70160000 0.031117 -161.7 0.999504 -71.74 0.999504 -71.74 0.031117 -161.7
8.70170000 0.031144 -161.8 0.999503 -71.74 0.999503 -71.74 0.031144 -161.7
8.70180000 0.031172 -161.8 0.999502 -71.74 0.999502 -71.74 0.031172 -161.7
8.70190000 0.031200 -161.8 0.999501 -71.74 0.999501 -71.74 0.031200 -161.7
8.70200000 0.031227 -161.8 0.999500 -71.75 0.999500 -71.75 0.031227 -161.7
8.70210000 0.031255 -161.8 0.999499 -71.75 0.999499 -71.75 0.031255 -161.7
8.70220000 0.031283 -161.8 0.999499 -71.75 0.999499 -71.75 0.031283 -161.7
8.70230000 0.031311 -161.8 0.999498 -71.75 0.999498 -71.75 0.031311 -161.7
8.70240000 0.031339 -161.8 0.999497 -71.75 0.999497 -71.75 0.031339 -161.7
8.70250000 0.031367 -161.8 0.999496 -71.76 0.999496 -71.76 0.031367 -161.7
8.70260000 0.031395 -161.8 0.999495 -71.76 0.999495 -71.76 0.031395 -161.8
8.70270000 0.031423 -161.8 0.999494 -71.76 0.999494 -71.76 0.031423 -161.8
8.70280000 0.031451 -161.8 0.999493 -71.76 0.999493 -71.76 0.031451 -161.8
8.70290000 0.031479 -161.8 0.999492 -71.77 0.999492 -71.77 0.031479 -161.8
8.70300000 0.031507 -161.8 0.999491 -71.77 0.999491 -71.77 0.031507 -161.8
8.70310000 0.031536 -161.8 0.999491 -71.77 0.999491 -71.77 0.031536 -161.8
8.70320000 0.031564 -161.8 0.999490 -71.77 0.999490 -71.77 0.031564 -161.8
8.70330000 0.031593 -161.8 0.999489 -71.78 0.999489 -71.78 0.031593 -161.8
8.70340000 0.031621 -161.8 0.999488 -71.78 0.999488 -71.78 0.031621 -161.8
8.70350000 0.031650 -161.8 0.999487 -71.78 0.999487 -71.78 0.031650 -161.8
8.70360000 0.031678 -161.8 0.999486 -71.78 0.999486 -71.78 0.031678 -161.8
8.70370000 0.031707 -161.8 0.999485 -71.79 0.999485 -71.79 0.031707 -161.8
8.70380000 0.031735 -161.8 0.999484 -71.79 0.999484 -71.79 0.031735 -161.8
8.70390000 0.031764 -161.8 0.999483 -71.79 0.999483 -71.79 0.031764 -161.8
8.70400000 0.031793 -161.8 0.999482 -71.79 0.999482 -71.79 0.031793 -161.8
8.70410000 0.031822 -161.8 0.999481 -71.80 0.999481 -71.80 0.031822 -161.8
8.70420000 0.031851 -161.8 0.999480 -71.80 0.999480 -71.80 0.031851 -161.8
8.70430000 0.031880 -161.8 0.999479 -71.80 0.999479 -71.80 0.031880 -161.8
8.70440000 0.031909 -161.8 0.999479 -71.80 0.999479 -71.80 0.031909 -161.8
8.70450000 0.031938 -161.8 0.999478 -71.81 0.999478 -71.81 0.031938 -161.8
8.70460000 0.031967 -161.8 0.999477 -71.81 0.999477 -71.81 0.031967 -161.8
8.70470000 0.031996 -161.8 0.999476 -71.81 0.999476 -71.81 0.031996 -161.8
8.70480000 0.032026 -161.8 0.999475 -71.81 0.999475 -71.81 0.032026 -161.8
8.70490000 0.032055 -161.8 0.999474 -71.82 0.999474 -71.82 0.032055 -161.8
8.70500000 0.032084 -161.8 0.999473 -71.82 0.999473 -71.82 0.032084 -161.8
8.70510000 0.032114 -161.8 0.999472 -71.82 0.999472 -71.82 0.032114 -161.8
8.70520000 0.032143 -161.8 0.999471 -71.82 0.999471 -71.82 0.032143 -161.8
8.70530000 0.032173 -161.8 0.999470 -71.83 0.999470 -71.83 0.032173 -161.8
8.70540000 0.032203 -161.8 0.999469 -71.83 0.999469 -71.83 0.032203 -161.8
8.70550000 0.032232 -161.8 0.999468 -71.83 0.999468 -71.83 0.032232 -161.8
8.70560000 0.032262 -161.8 0.999467 -71.83 0.999467 -71.83 0.032262 -161.8
8.70570000 0.032292 -161.8 0.999466 -71.84 0.999466 -71.84 0.032292 -161.8
8.70580000 0.032322 -161.8 0.999465 -71.84 0.999465 -71.84 0.032322 -161.8
8.70590000 0.032352 -161.8 0.999464 -71.84 0.999464 -71.84 0.032352 -161.8
8.70600000 0.032382 -161.8 0.999463 -71.84 0.999463 -71.84 0.032382 -161.8
8.70610000 0.032412 -161.9 0.999462 -71.85 0.999462 -71.85 0.032412 -161.8
8.70620000 0.032442 -161.9 0.999461 -71.85 0.999461 -71.85 0.032442 -161.8
8.70630000 0.032472 -161.9 0.999460 -71.85 0.999460 -71.85 0.032472 -161.9
8.70640000 0.032502 -161.9 0.999459 -71.85 0.999459 -71.85 0.032502 -161.9
8.70650000 0.032532 -161.9 0.999458 -71.86 0.999458 -71.86 0.032532 -161.9
8.70660000 0.032563 -161.9 0.999457 -71.86 0.999457 -71.86 0.032563 -161.9
8.70670000 0.032593 -161.9 0.999456 -71.86 0.999456 -71.86 0.032593 -161.9
8.70680000 0.032624 -161.9 0.999455 -71.86 0.999455 -71.86 0.032624 -161.9
8.70690000 0.032654 -161.9 0.999454 -71.87 0.999454 -71.87 0.032654 -161.9
8.70700000 0.032685 -161.9 0.999453 -71.87 0.999453 -71.87 0.032685 -161.9
8.70710000 0.032716 -161.9 0.999452 -71.87 0.999452 -71.87 0.032715 -161.9
8.70720000 0.032746 -161.9 0.999451 -71.87 0.999451 -71.87 0.032746 -161.9
8.70730000 0.032777 -161.9 0.999450 -71.88 0.999450 -71.88 0.032777 -161.9
8.70740000 0.032808 -161.9 0.999449 -71.88 0.999449 -71.88 0.032808 -161.9
8.70750000 0.032839 -161.9 0.999448 -71.88 0.999448 -71.88 0.032839 -161.9
8.70760000 0.032870 -161.9 0.999447 -71.88 0.999447 -71.88 0.032870 -161.9
8.70770000 0.032901 -161.9 0.999446 -71.89 0.999446 -71.89 0.032901 -161.9
8.70780000 0.032932 -161.9 0.999445 -71.89 0.999445 -71.89 0.032932 -161.9
8.70790000 0.032963 -161.9 0.999444 -71.89 0.999444 -71.89 0.032963 -161.9
8.70800000 0.032994 -161.9 0.999443 -71.89 0.999443 -71.89 0.032994 -161.9
8.70810000 0.033026 -161.9 0.999442 -71.90 0.999442 -71.90 0.033026 -161.9
8.70820000 0.033057 -161.9 0.999441 -71.90 0.999441 -71.90 0.033057 -161.9
8.70830000 0.033088 -161.9 0.999440 -71.90 0.999440 -71.90 0.033088 -161.9
8.70840000 0.033120 -161.9 0.999439 -71.91 0.999439 -71.91 0.033120 -161.9
8.70850000 0.033152 -161.9 0.999438 -71.91 0.999438 -71.91 0.033151 -161.9
8.70860000 0.033183 -161.9 0.999437 -71.91 0.999437 -71.91 0.033183 -161.9
8.70870000 0.033215 -161.9 0.999435 -71.91 0.999435 -71.91 0.033215 -161.9
8.70880000 0.033247 -161.9 0.999434 -71.92 0.999434 -71.92 0.033247 -161.9
8.70890000 0.033278 -161.9 0.999433 -71.92 0.999433 -71.92 0.033278 -161.9
8.70900000 0.033310 -161.9 0.999432 -71.92 0.999432 -71.92 0.033310 -161.9
8.70910000 0.033342 -161.9 0.999431 -71.92 0.999431 -71.92 0.033342 -161.9
8.70920000 0.033374 -161.9 0.999430 -71.93 0.999430 -71.93 0.033374 -161.9
8.70930000 0.033406 -161.9 0.999429 -71.93 0.999429 -71.93 0.033406 -161.9
8.70940000 0.033439 -161.9 0.999428 -71.93 0.999428 -71.93 0.033438 -161.9
8.70950000 0.033471 -161.9 0.999427 -71.93 0.999427 -71.93 0.033471 -161.9
8.70960000 0.033503 -161.9 0.999426 -71.94 0.999426 -71.94 0.033503 -161.9
8.70970000 0.033535 -161.9 0.999425 -71.94 0.999425 -71.94 0.033535 -161.9
8.70980000 0.033568 -161.9 0.999424 -71.94 0.999424 -71.94 0.033568 -161.9
8.70990000 0.033600 -161.9 0.999422 -71.95 0.999422 -71.95 0.033600 -162.0
8.71000000 0.033633 -161.9 0.999421 -71.95 0.999421 -71.95 0.033633 -162.0
8.71010000 0.033666 -161.9 0.999420 -71.95 0.999420 -71.95 0.033665 -162.0
8.71020000 0.033698 -162.0 0.999419 -71.95 0.999419 -71.95 0.033698 -162.0
8.71030000 0.033731 -162.0 0.999418 -71.96 0.999418 -71.96 0.033731 -162.0
8.71040000 0.033764 -162.0 0.999417 -71.96 0.999417 -71.96 0.033764 -162.0
8.71050000 0.033797 -162.0 0.999416 -71.96 0.999416 -71.96 0.033797 -162.0
8.71060000 0.033830 -162.0 0.999415 -71.96 0.999415 -71.96 0.033830 -162.0
8.71070000 0.033863 -162.0 0.999413 -71.97 0.999413 -71.97 0.033863 -162.0
8.71080000 0.033896 -162.0 0.999412 -71.97 0.999412 -71.97 0.033896 -162.0
8.71090000 0.033929 -162.0 0.999411 -71.97 0.999411 -71.97 0.033929 -162.0
8.71100000 0.033962 -162.0 0.999410 -71.97 0.999410 -71.97 0.033962 -162.0
8.71110000 0.033996 -162.0 0.999409 -71.98 0.999409 -71.98 0.033996 -162.0
8.71120000 0.034029 -162.0 0.999408 -71.98 0.999408 -71.98 0.034029 -162.0
8.71130000 0.034063 -162.0 0.999407 -71.98 0.999407 -71.98 0.034063 -162.0
8.71140000 0.034096 -162.0 0.999405 -71.99 0.999405 -71.99 0.034096 -162.0
8.71150000 0.034130 -162.0 0.999404 -71.99 0.999404 -71.99 0.034130 -162.0
8.71160000 0.034163 -162.0 0.999403 -71.99 0.999403 -71.99 0.034163 -162.0
8.71170000 0.034197 -162.0 0.999402 -71.99 0.999402 -71.99 0.034197 -162.0
8.71180000 0.034231 -162.0 0.999401 -72.00 0.999401 -72.00 0.034231 -162.0
8.71190000 0.034265 -162.0 0.999400 -72.00 0.999400 -72.00 0.034265 -162.0
8.71200000 0.034299 -162.0 0.999398 -72.00 0.999398 -72.00 0.034299 -162.0
8.71210000 0.034333 -162.0 0.999397 -72.00 0.999397 -72.00 0.034333 -162.0
8.71220000 0.034367 -162.0 0.999396 -72.01 0.999396 -72.01 0.034367 -162.0
8.71230000 0.034401 -162.0 0.999395 -72.01 0.999395 -72.01 0.034401 -162.0
8.71240000 0.034436 -162.0 0.999394 -72.01 0.999394 -72.01 0.034436 -162.0
8.71250000 0.034470 -162.0 0.999393 -72.02 0.999393 -72.02 0.034470 -162.0
8.71260000 0.034504 -162.0 0.999391 -72.02 0.999391 -72.02 0.034504 -162.0
8.71270000 0.034539 -162.0 0.999390 -72.02 0.999390 -72.02 0.034539 -162.0
8.71280000 0.034573 -162.0 0.999389 -72.02 0.999389 -72.02 0.034573 -162.0
8.71290000 0.034608 -162.0 0.999388 -72.03 0.999388 -72.03 0.034608 -162.0
8.71300000 0.034643 -162.0 0.999386 -72.03 0.999386 -72.03 0.034643 -162.0
8.71310000 0.034678 -162.0 0.999385 -72.03 0.999385 -72.03 0.034678 -162.0
8.71320000 0.034712 -162.0 0.999384 -72.04 0.999384 -72.04 0.034712 -162.0
8.71330000 0.034747 -162.0 0.999383 -72.04 0.999383 -72.04 0.034747 -162.1
8.71340000 0.034782 -162.0 0.999382 -72.04 0.999382 -72.04 0.034782 -162.1
8.71350000 0.034818 -162.0 0.999380 -72.04 0.999380 -72.04 0.034818 -162.1
8.71360000 0.034853 -162.0 0.999379 -72.05 0.999379 -72.05 0.034853 -162.1
8.71370000 0.034888 -162.0 0.999378 -72.05 0.999378 -72.05 0.034888 -162.1
8.71380000 0.034923 -162.0 0.999377 -72.05 0.999377 -72.05 0.034923 -162.1
8.71390000 0.034959 -162.0 0.999375 -72.06 0.999375 -72.06 0.034959 -162.1
8.71400000 0.034994 -162.0 0.999374 -72.06 0.999374 -72.06 0.034994 -162.1
8.71410000 0.035030 -162.1 0.999373 -72.06 0.999373 -72.06 0.035030 -162.1
8.71420000 0.035065 -162.1 0.999372 -72.06 0.999372 -72.06 0.035065 -162.1
8.71430000 0.035101 -162.1 0.999370 -72.07 0.999370 -72.07 0.035101 -162.1
8.71440000 0.035137 -162.1 0.999369 -72.07 0.999369 -72.07 0.035137 -162.1
8.71450000 0.035173 -162.1 0.999368 -72.07 0.999368 -72.07 0.035173 -162.1
8.71460000 0.035209 -162.1 0.999366 -72.08 0.999366 -72.08 0.035209 -162.1
8.71470000 0.035245 -162.1 0.999365 -72.08 0.999365 -72.08 0.035245 -162.1
8.71480000 0.035281 -162.1 0.999364 -72.08 0.999364 -72.08 0.035281 -162.1
8.71490000 0.035317 -162.1 0.999363 -72.08 0.999363 -72.08 0.035317 -162.1
8.71500000 0.035353 -162.1 0.999361 -72.09 0.999361 -72.09 0.035353 -162.1
8.71510000 0.035390 -162.1 0.999360 -72.09 0.999360 -72.09 0.035390 -162.1
8.71520000 0.035426 -162.1 0.999359 -72.09 0.999359 -72.09 0.035426 -162.1
8.71530000 0.035463 -162.1 0.999357 -72.10 0.999357 -72.10 0.035463 -162.1
8.71540000 0.035499 -162.1 0.999356 -72.10 0.999356 -72.10 0.035499 -162.1
8.71550000 0.035536 -162.1 0.999355 -72.10 0.999355 -72.10 0.035536 -162.1
8.71560000 0.035573 -162.1 0.999353 -72.10 0.999353 -72.10 0.035573 -162.1
8.71570000 0.035610 -162.1 0.999352 -72.11 0.999352 -72.11 0.035610 -162.1
8.71580000 0.035647 -162.1 0.999351 -72.11 0.999351 -72.11 0.035647 -162.1
8.71590000 0.035684 -162.1 0.999349 -72.11 0.999349 -72.11 0.035684 -162.1
8.71600000 0.035721 -162.1 0.999348 -72.12 0.999348 -72.12 0.035721 -162.1
8.71610000 0.035758 -162.1 0.999347 -72.12 0.999347 -72.12 0.035758 -162.1
8.71620000 0.035795 -162.1 0.999345 -72.12 0.999345 -72.12 0.035795 -162.1
8.71630000 0.035833 -162.1 0.999344 -72.12 0.999344 -72.12 0.035833 -162.1
8.71640000 0.035870 -162.1 0.999343 -72.13 0.999343 -72.13 0.035870 -162.1
8.71650000 0.035908 -162.1 0.999341 -72.13 0.999341 -72.13 0.035908 -162.2
8.71660000 0.035945 -162.1 0.999340 -72.13 0.999340 -72.13 0.035945 -162.2
8.71670000 0.035983 -162.1 0.999339 -72.14 0.999339 -72.14 0.035983 -162.2
8.71680000 0.036021 -162.1 0.999337 -72.14 0.999337 -72.14 0.036021 -162.2
8.71690000 0.036059 -162.1 0.999336 -72.14 0.999336 -72.14 0.036059 -162.2
8.71700000 0.036097 -162.1 0.999334 -72.15 0.999334 -72.15 0.036096 -162.2
8.71710000 0.036135 -162.1 0.999333 -72.15 0.999333 -72.15 0.036135 -162.2
8.71720000 0.036173 -162.1 0.999332 -72.15 0.999332 -72.15 0.036173 -162.2
8.71730000 0.036211 -162.1 0.999330 -72.15 0.999330 -72.15 0.036211 -162.2
8.71740000 0.036249 -162.1 0.999329 -72.16 0.999329 -72.16 0.036249 -162.2
8.71750000 0.036288 -162.1 0.999327 -72.16 0.999327 -72.16 0.036288 -162.2
8.71760000 0.036326 -162.1 0.999326 -72.16 0.999326 -72.16 0.036326 -162.2
8.71770000 0.036365 -162.2 0.999325 -72.17 0.999325 -72.17 0.036365 -162.2
8.71780000 0.036403 -162.2 0.999323 -72.17 0.999323 -72.17 0.036403 -162.2
8.71790000 0.036442 -162.2 0.999322 -72.17 0.999322 -72.17 0.036442 -162.2
8.71800000 0.036481 -162.2 0.999320 -72.18 0.999320 -72.18 0.036481 -162.2
8.71810000 0.036520 -162.2 0.999319 -72.18 0.999319 -72.18 0.036520 -162.2
8.71820000 0.036559 -162.2 0.999317 -72.18 0.999317 -72.18 0.036559 -162.2
8.71830000 0.036598 -162.2 0.999316 -72.18 0.999316 -72.18 0.036598 -162.2
8.71840000 0.036637 -162.2 0.999315 -72.19 0.999315 -72.19 0.036637 -162.2
8.71850000 0.036676 -162.2 0.999313 -72.19 0.999313 -72.19 0.036676 -162.2
8.71860000 0.036716 -162.2 0.999312 -72.19 0.999312 -72.19 0.036716 -162.2
8.71870000 0.036755 -162.2 0.999310 -72.20 0.999310 -72.20 0.036755 -162.2
8.71880000 0.036795 -162.2 0.999309 -72.20 0.999309 -72.20 0.036795 -162.2
8.71890000 0.036834 -162.2 0.999307 -72.20 0.999307 -72.20 0.036834 -162.2
8.71900000 0.036874 -162.2 0.999306 -72.21 0.999306 -72.21 0.036874 -162.2
8.71910000 0.036914 -162.2 0.999304 -72.21 0.999304 -72.21 0.036914 -162.2
8.71920000 0.036954 -162.2 0.999303 -72.21 0.999303 -72.21 0.036954 -162.2
8.71930000 0.036994 -162.2 0.999301 -72.22 0.999301 -72.22 0.036994 -162.2
8.71940000 0.037034 -162.2 0.999300 -72.22 0.999300 -72.22 0.037034 -162.2
8.71950000 0.037074 -162.2 0.999298 -72.22 0.999298 -72.22 0.037074 -162.2
8.71960000 0.037115 -162.2 0.999297 -72.22 0.999297 -72.22 0.037115 -162.3
8.71970000 0.037155 -162.2 0.999295 -72.23 0.999295 -72.23 0.037155 -162.3
8.71980000 0.037196 -162.2 0.999294 -72.23 0.999294 -72.23 0.037195 -162.3
8.71990000 0.037236 -162.2 0.999292 -72.23 0.999292 -72.23 0.037236 -162.3
8.72000000 0.037277 -162.2 0.999291 -72.24 0.999291 -72.24 0.037277 -162.3
8.72010000 0.037318 -162.2 0.999289 -72.24 0.999289 -72.24 0.037318 -162.3
8.72020000 0.037358 -162.2 0.999288 -72.24 0.999288 -72.24 0.037358 -162.3
8.72030000 0.037399 -162.2 0.999286 -72.25 0.999286 -72.25 0.037399 -162.3
8.72040000 0.037440 -162.2 0.999284 -72.25 0.999284 -72.25 0.037440 -162.3
8.72050000 0.037482 -162.2 0.999283 -72.25 0.999283 -72.25 0.037482 -162.3
8.72060000 0.037523 -162.2 0.999281 -72.26 0.999281 -72.26 0.037523 -162.3
8.72070000 0.037564 -162.2 0.999280 -72.26 0.999280 -72.26 0.037564 -162.3
8.72080000 0.037606 -162.2 0.999278 -72.26 0.999278 -72.26 0.037606 -162.3
8.72090000 0.037647 -162.2 0.999277 -72.27 0.999277 -72.27 0.037647 -162.3
8.72100000 0.037689 -162.2 0.999275 -72.27 0.999275 -72.27 0.037689 -162.3
8.72110000 0.037731 -162.3 0.999273 -72.27 0.999273 -72.27 0.037731 -162.3
8.72120000 0.037773 -162.3 0.999272 -72.28 0.999272 -72.28 0.037773 -162.3
8.72130000 0.037815 -162.3 0.999270 -72.28 0.999270 -72.28 0.037815 -162.3
8.72140000 0.037857 -162.3 0.999269 -72.28 0.999269 -72.28 0.037857 -162.3
8.72150000 0.037899 -162.3 0.999267 -72.29 0.999267 -72.29 0.037899 -162.3
8.72160000 0.037941 -162.3 0.999265 -72.29 0.999265 -72.29 0.037941 -162.3
8.72170000 0.037983 -162.3 0.999264 -72.29 0.999264 -72.29 0.037983 -162.3
8.72180000 0.038026 -162.3 0.999262 -72.29 0.999262 -72.29 0.038026 -162.3
8.72190000 0.038068 -162.3 0.999260 -72.30 0.999260 -72.30 0.038068 -162.3
8.72200000 0.038111 -162.3 0.999259 -72.30 0.999259 -72.30 0.038111 -162.3
8.72210000 0.038154 -162.3 0.999257 -72.30 0.999257 -72.30 0.038154 -162.3
8.72220000 0.038197 -162.3 0.999256 -72.31 0.999256 -72.31 0.038197 -162.3
8.72230000 0.038240 -162.3 0.999254 -72.31 0.999254 -72.31 0.038240 -162.3
8.72240000 0.038283 -162.3 0.999252 -72.31 0.999252 -72.31 0.038283 -162.3
8.72250000 0.038326 -162.3 0.999251 -72.32 0.999251 -72.32 0.038326 -162.4
8.72260000 0.038369 -162.3 0.999249 -72.32 0.999249 -72.32 0.038369 -162.4
8.72270000 0.038413 -162.3 0.999247 -72.32 0.999247 -72.32 0.038413 -162.4
8.72280000 0.038456 -162.3 0.999245 -72.33 0.999245 -72.33 0.038456 -162.4
8.72290000 0.038500 -162.3 0.999244 -72.33 0.999244 -72.33 0.038500 -162.4
8.72300000 0.038544 -162.3 0.999242 -72.33 0.999242 -72.33 0.038544 -162.4
8.72310000 0.038587 -162.3 0.999240 -72.34 0.999240 -72.34 0.038587 -162.4
8.72320000 0.038631 -162.3 0.999239 -72.34 0.999239 -72.34 0.038631 -162.4
8.72330000 0.038675 -162.3 0.999237 -72.34 0.999237 -72.34 0.038675 -162.4
8.72340000 0.038720 -162.3 0.999235 -72.35 0.999235 -72.35 0.038720 -162.4
8.72350000 0.038764 -162.3 0.999233 -72.35 0.999233 -72.35 0.038764 -162.4
8.72360000 0.038808 -162.3 0.999232 -72.35 0.999232 -72.35 0.038808 -162.4
8.72370000 0.038853 -162.3 0.999230 -72.36 0.999230 -72.36 0.038853 -162.4
8.72380000 0.038897 -162.3 0.999228 -72.36 0.999228 -72.36 0.038897 -162.4
8.72390000 0.038942 -162.3 0.999226 -72.36 0.999226 -72.36 0.038942 -162.4
8.72400000 0.038987 -162.3 0.999225 -72.37 0.999225 -72.37 0.038987 -162.4
8.72410000 0.039032 -162.3 0.999223 -72.37 0.999223 -72.37 0.039032 -162.4
8.72420000 0.039077 -162.3 0.999221 -72.37 0.999221 -72.37 0.039077 -162.4
8.72430000 0.039122 -162.4 0.999219 -72.38 0.999219 -72.38 0.039122 -162.4
8.72440000 0.039167 -162.4 0.999218 -72.38 0.999218 -72.38 0.039167 -162.4
8.72450000 0.039213 -162.4 0.999216 -72.38 0.999216 -72.38 0.039212 -162.4
8.72460000 0.039258 -162.4 0.999214 -72.39 0.999214 -72.39 0.039258 -162.4
8.72470000 0.039304 -162.4 0.999212 -72.39 0.999212 -72.39 0.039304 -162.4
8.72480000 0.039349 -162.4 0.999210 -72.40 0.999210 -72.40 0.039349 -162.4
8.72490000 0.039395 -162.4 0.999208 -72.40 0.999208 -72.40 0.039395 -162.4
8.72500000 0.039441 -162.4 0.999207 -72.40 0.999207 -72.40 0.039441 -162.4
8.72510000 0.039487 -162.4 0.999205 -72.41 0.999205 -72.41 0.039487 -162.4
8.72520000 0.039533 -162.4 0.999203 -72.41 0.999203 -72.41 0.039533 -162.4
8.72530000 0.039580 -162.4 0.999201 -72.41 0.999201 -72.41 0.039580 -162.5
8.72540000 0.039626 -162.4 0.999199 -72.42 0.999199 -72.42 0.039626 -162.5
8.72550000 0.039673 -162.4 0.999197 -72.42 0.999197 -72.42 0.039673 -162.5
8.72560000 0.039719 -162.4 0.999196 -72.42 0.999196 -72.42 0.039719 -162.5
8.72570000 0.039766 -162.4 0.999194 -72.43 0.999194 -72.43 0.039766 -162.5
8.72580000 0.039813 -162.4 0.999192 -72.43 0.999192 -72.43 0.039813 -162.5
8.72590000 0.039860 -162.4 0.999190 -72.43 0.999190 -72.43 0.039860 -162.5
8.72600000 0.039907 -162.4 0.999188 -72.44 0.999188 -72.44 0.039907 -162.5
8.72610000 0.039954 -162.4 0.999186 -72.44 0.999186 -72.44 0.039954 -162.5
8.72620000 0.040002 -162.4 0.999184 -72.44 0.999184 -72.44 0.040001 -162.5
8.72630000 0.040049 -162.4 0.999182 -72.45 0.999182 -72.45 0.040049 -162.5
8.72640000 0.040097 -162.4 0.999180 -72.45 0.999180 -72.45 0.040097 -162.5
8.72650000 0.040144 -162.4 0.999178 -72.45 0.999178 -72.45 0.040144 -162.5
8.72660000 0.040192 -162.4 0.999176 -72.46 0.999176 -72.46 0.040192 -162.5
8.72670000 0.040240 -162.4 0.999174 -72.46 0.999174 -72.46 0.040240 -162.5
8.72680000 0.040288 -162.4 0.999172 -72.47 0.999172 -72.47 0.040288 -162.5
8.72690000 0.040336 -162.4 0.999171 -72.47 0.999171 -72.47 0.040336 -162.5
8.72700000 0.040385 -162.4 0.999169 -72.47 0.999169 -72.47 0.040385 -162.5
8.72710000 0.040433 -162.4 0.999167 -72.48 0.999167 -72.48 0.040433 -162.5
8.72720000 0.040482 -162.4 0.999165 -72.48 0.999165 -72.48 0.040482 -162.5
8.72730000 0.040531 -162.5 0.999163 -72.48 0.999163 -72.48 0.040531 -162.5
8.72740000 0.040579 -162.5 0.999161 -72.49 0.999161 -72.49 0.040579 -162.5
8.72750000 0.040628 -162.5 0.999159 -72.49 0.999159 -72.49 0.040628 -162.5
8.72760000 0.040677 -162.5 0.999157 -72.49 0.999157 -72.49 0.040677 -162.5
8.72770000 0.040727 -162.5 0.999155 -72.50 0.999155 -72.50 0.040727 -162.5
8.72780000 0.040776 -162.5 0.999152 -72.50 0.999152 -72.50 0.040776 -162.5
8.72790000 0.040825 -162.5 0.999150 -72.50 0.999150 -72.50 0.040825 -162.6
8.72800000 0.040875 -162.5 0.999148 -72.51 0.999148 -72.51 0.040875 -162.6
8.72810000 0.040925 -162.5 0.999146 -72.51 0.999146 -72.51 0.040925 -162.6
8.72820000 0.040975 -162.5 0.999144 -72.52 0.999144 -72.52 0.040975 -162.6
8.72830000 0.041025 -162.5 0.999142 -72.52 0.999142 -72.52 0.041025 -162.6
8.72840000 0.041075 -162.5 0.999140 -72.52 0.999140 -72.52 0.041075 -162.6
8.72850000 0.041125 -162.5 0.999138 -72.53 0.999138 -72.53 0.041125 -162.6
8.72860000 0.041175 -162.5 0.999136 -72.53 0.999136 -72.53 0.041175 -162.6
8.72870000 0.041226 -162.5 0.999134 -72.53 0.999134 -72.53 0.041226 -162.6
8.72880000 0.041277 -162.5 0.999132 -72.54 0.999132 -72.54 0.041277 -162.6
8.72890000 0.041327 -162.5 0.999130 -72.54 0.999130 -72.54 0.041327 -162.6
8.72900000 0.041378 -162.5 0.999127 -72.55 0.999127 -72.55 0.041378 -162.6
8.72910000 0.041429 -162.5 0.999125 -72.55 0.999125 -72.55 0.041429 -162.6
8.72920000 0.041481 -162.5 0.999123 -72.55 0.999123 -72.55 0.041481 -162.6
8.72930000 0.041532 -162.5 0.999121 -72.56 0.999121 -72.56 0.041532 -162.6
8.72940000 0.041583 -162.5 0.999119 -72.56 0.999119 -72.56 0.041583 -162.6
8.72950000 0.041635 -162.5 0.999117 -72.56 0.999117 -72.56 0.041635 -162.6
8.72960000 0.041687 -162.5 0.999115 -72.57 0.999115 -72.57 0.041687 -162.6
8.72970000 0.041739 -162.5 0.999112 -72.57 0.999112 -72.57 0.041739 -162.6
8.72980000 0.041791 -162.5 0.999110 -72.58 0.999110 -72.58 0.041791 -162.6
8.72990000 0.041843 -162.5 0.999108 -72.58 0.999108 -72.58 0.041843 -162.6
8.73000000 0.041895 -162.5 0.999106 -72.58 0.999106 -72.58 0.041895 -162.6
8.73010000 0.041948 -162.5 0.999103 -72.59 0.999103 -72.59 0.041947 -162.6
8.73020000 0.042000 -162.6 0.999101 -72.59 0.999101 -72.59 0.042000 -162.6
8.73030000 0.042053 -162.6 0.999099 -72.59 0.999099 -72.59 0.042053 -162.6
8.73040000 0.042106 -162.6 0.999097 -72.60 0.999097 -72.60 0.042106 -162.7
8.73050000 0.042159 -162.6 0.999094 -72.60 0.999094 -72.60 0.042159 -162.7
8.73060000 0.042212 -162.6 0.999092 -72.61 0.999092 -72.61 0.042212 -162.7
8.73070000 0.042265 -162.6 0.999090 -72.61 0.999090 -72.61 0.042265 -162.7
8.73080000 0.042319 -162.6 0.999088 -72.61 0.999088 -72.61 0.042318 -162.7
8.73090000 0.042372 -162.6 0.999085 -72.62 0.999085 -72.62 0.042372 -162.7
8.73100000 0.042426 -162.6 0.999083 -72.62 0.999083 -72.62 0.042426 -162.7
8.73110000 0.042480 -162.6 0.999081 -72.63 0.999081 -72.63 0.042480 -162.7
8.73120000 0.042534 -162.6 0.999078 -72.63 0.999078 -72.63 0.042534 -162.7
8.73130000 0.042588 -162.6 0.999076 -72.63 0.999076 -72.63 0.042588 -162.7
8.73140000 0.042642 -162.6 0.999074 -72.64 0.999074 -72.64 0.042642 -162.7
8.73150000 0.042697 -162.6 0.999071 -72.64 0.999071 -72.64 0.042697 -162.7
8.73160000 0.042751 -162.6 0.999069 -72.65 0.999069 -72.65 0.042751 -162.7
8.73170000 0.042806 -162.6 0.999067 -72.65 0.999067 -72.65 0.042806 -162.7
8.73180000 0.042861 -162.6 0.999064 -72.65 0.999064 -72.65 0.042861 -162.7
8.73190000 0.042916 -162.6 0.999062 -72.66 0.999062 -72.66 0.042916 -162.7
8.73200000 0.042971 -162.6 0.999059 -72.66 0.999059 -72.66 0.042971 -162.7
8.73210000 0.043027 -162.6 0.999057 -72.66 0.999057 -72.66 0.043027 -162.7
8.73220000 0.043082 -162.6 0.999055 -72.67 0.999055 -72.67 0.043082 -162.7
8.73230000 0.043138 -162.6 0.999052 -72.67 0.999052 -72.67 0.043138 -162.7
8.73240000 0.043194 -162.6 0.999050 -72.68 0.999050 -72.68 0.043194 -162.7
8.73250000 0.043250 -162.6 0.999047 -72.68 0.999047 -72.68 0.043250 -162.7
8.73260000 0.043306 -162.6 0.999045 -72.69 0.999045 -72.69 0.043306 -162.7
8.73270000 0.043362 -162.6 0.999042 -72.69 0.999042 -72.69 0.043362 -162.7
8.73280000 0.043418 -162.7 0.999040 -72.69 0.999040 -72.69 0.043418 -162.8
8.73290000 0.043475 -162.7 0.999037 -72.70 0.999037 -72.70 0.043475 -162.8
8.73300000 0.043532 -162.7 0.999035 -72.70 0.999035 -72.70 0.043532 -162.8
8.73310000 0.043589 -162.7 0.999032 -72.71 0.999032 -72.71 0.043589 -162.8
8.73320000 0.043646 -162.7 0.999030 -72.71 0.999030 -72.71 0.043646 -162.8
8.73330000 0.043703 -162.7 0.999027 -72.71 0.999027 -72.71 0.043703 -162.8
8.73340000 0.043760 -162.7 0.999025 -72.72 0.999025 -72.72 0.043760 -162.8
8.73350000 0.043818 -162.7 0.999022 -72.72 0.999022 -72.72 0.043818 -162.8
8.73360000 0.043876 -162.7 0.999020 -72.73 0.999020 -72.73 0.043876 -162.8
8.73370000 0.043934 -162.7 0.999017 -72.73 0.999017 -72.73 0.043934 -162.8
8.73380000 0.043992 -162.7 0.999015 -72.73 0.999015 -72.73 0.043992 -162.8
8.73390000 0.044050 -162.7 0.999012 -72.74 0.999012 -72.74 0.044050 -162.8
8.73400000 0.044108 -162.7 0.999009 -72.74 0.999009 -72.74 0.044108 -162.8
8.73410000 0.044167 -162.7 0.999007 -72.75 0.999007 -72.75 0.044167 -162.8
8.73420000 0.044226 -162.7 0.999004 -72.75 0.999004 -72.75 0.044226 -162.8
8.73430000 0.044284 -162.7 0.999002 -72.75 0.999002 -72.75 0.044284 -162.8
8.73440000 0.044344 -162.7 0.998999 -72.76 0.998999 -72.76 0.044343 -162.8
8.73450000 0.044403 -162.7 0.998996 -72.76 0.998996 -72.76 0.044403 -162.8
8.73460000 0.044462 -162.7 0.998994 -72.77 0.998994 -72.77 0.044462 -162.8
8.73470000 0.044522 -162.7 0.998991 -72.77 0.998991 -72.77 0.044522 -162.8
8.73480000 0.044581 -162.7 0.998988 -72.78 0.998988 -72.78 0.044581 -162.8
8.73490000 0.044641 -162.7 0.998985 -72.78 0.998985 -72.78 0.044641 -162.8
8.73500000 0.044701 -162.7 0.998983 -72.78 0.998983 -72.78 0.044701 -162.8
8.73510000 0.044762 -162.7 0.998980 -72.79 0.998980 -72.79 0.044762 -162.9
8.73520000 0.044822 -162.7 0.998977 -72.79 0.998977 -72.79 0.044822 -162.9
8.73530000 0.044883 -162.7 0.998975 -72.80 0.998975 -72.80 0.044883 -162.9
8.73540000 0.044943 -162.8 0.998972 -72.80 0.998972 -72.80 0.044943 -162.9
8.73550000 0.045004 -162.8 0.998969 -72.81 0.998969 -72.81 0.045004 -162.9
8.73560000 0.045065 -162.8 0.998966 -72.81 0.998966 -72.81 0.045065 -162.9
8.73570000 0.045127 -162.8 0.998963 -72.81 0.998963 -72.81 0.045127 -162.9
8.73580000 0.045188 -162.8 0.998961 -72.82 0.998961 -72.82 0.045188 -162.9
8.73590000 0.045250 -162.8 0.998958 -72.82 0.998958 -72.82 0.045250 -162.9
8.73600000 0.045312 -162.8 0.998955 -72.83 0.998955 -72.83 0.045312 -162.9
8.73610000 0.045374 -162.8 0.998952 -72.83 0.998952 -72.83 0.045374 -162.9
8.73620000 0.045436 -162.8 0.998949 -72.84 0.998949 -72.84 0.045436 -162.9
8.73630000 0.045498 -162.8 0.998946 -72.84 0.998946 -72.84 0.045498 -162.9
8.73640000 0.045561 -162.8 0.998944 -72.85 0.998944 -72.85 0.045561 -162.9
8.73650000 0.045624 -162.8 0.998941 -72.85 0.998941 -72.85 0.045624 -162.9
8.73660000 0.045687 -162.8 0.998938 -72.85 0.998938 -72.85 0.045686 -162.9
8.73670000 0.045750 -162.8 0.998935 -72.86 0.998935 -72.86 0.045750 -162.9
8.73680000 0.045813 -162.8 0.998932 -72.86 0.998932 -72.86 0.045813 -162.9
8.73690000 0.045876 -162.8 0.998929 -72.87 0.998929 -72.87 0.045876 -162.9
8.73700000 0.045940 -162.8 0.998926 -72.87 0.998926 -72.87 0.045940 -162.9
8.73710000 0.046004 -162.8 0.998923 -72.88 0.998923 -72.88 0.046004 -162.9
8.73720000 0.046068 -162.8 0.998920 -72.88 0.998920 -72.88 0.046068 -162.9
8.73730000 0.046132 -162.8 0.998917 -72.89 0.998917 -72.89 0.046132 -163.0
8.73740000 0.046197 -162.8 0.998914 -72.89 0.998914 -72.89 0.046197 -163.0
8.73750000 0.046261 -162.8 0.998911 -72.89 0.998911 -72.89 0.046261 -163.0
8.73760000 0.046326 -162.8 0.998908 -72.90 0.998908 -72.90 0.046326 -163.0
8.73770000 0.046391 -162.9 0.998905 -72.90 0.998905 -72.90 0.046391 -163.0
8.73780000 0.046456 -162.9 0.998902 -72.91 0.998902 -72.91 0.046456 -163.0
8.73790000 0.046522 -162.9 0.998899 -72.91 0.998899 -72.91 0.046522 -163.0
8.73800000 0.046587 -162.9 0.998896 -72.92 0.998896 -72.92 0.046587 -163.0
8.73810000 0.046653 -162.9 0.998893 -72.92 0.998893 -72.92 0.046653 -163.0
8.73820000 0.046719 -162.9 0.998889 -72.93 0.998889 -72.93 0.046719 -163.0
8.73830000 0.046785 -162.9 0.998886 -72.93 0.998886 -72.93 0.046785 -163.0
8.73840000 0.046852 -162.9 0.998883 -72.94 0.998883 -72.94 0.046852 -163.0
8.73850000 0.046918 -162.9 0.998880 -72.94 0.998880 -72.94 0.046918 -163.0
8.73860000 0.046985 -162.9 0.998877 -72.94 0.998877 -72.94 0.046985 -163.0
8.73870000 0.047052 -162.9 0.998874 -72.95 0.998874 -72.95 0.047052 -163.0
8.73880000 0.047119 -162.9 0.998870 -72.95 0.998870 -72.95 0.047119 -163.0
8.73890000 0.047187 -162.9 0.998867 -72.96 0.998867 -72.96 0.047187 -163.0
8.73900000 0.047254 -162.9 0.998864 -72.96 0.998864 -72.96 0.047254 -163.0
8.73910000 0.047322 -162.9 0.998861 -72.97 0.998861 -72.97 0.047322 -163.0
8.73920000 0.047390 -162.9 0.998858 -72.97 0.998858 -72.97 0.047390 -163.0