! Sonnet Data File
! From: emgraph Version : 16.52
! From Project: transmon_trial2
! Data is De-embedded 
! Data File Written: 10/19/2017 21:40:57
!< HDATE 10/19/2017 20:11:27
!< MDATE 10/19/2017 20:13:29
!< PARAMS
!< Lj = 15.24
!< Gap = 26.0
!< Width = 10.0
!< Airgap = 6.0
!< Pwidth = 2000.0
!< END PARAMS
# GHZ S MA R 34.70000
8.65000000 0.017331 18.786 0.999842 -71.33 0.999842 -71.33 0.017331 18.529
!< P1 F=8.65 Eeff=(5.13426974 -5.6456e-5) Z0=(34.6544633 -9.2759e-5) R=0.0 C=0.0 
!< P2 F=8.65 Eeff=(5.13426974 -5.6456e-5) Z0=(34.6544633 -9.2759e-5) R=0.0 C=0.0 
8.65010000 0.017329 18.785 0.999842 -71.33 0.999842 -71.33 0.017329 18.528
8.65020000 0.017327 18.784 0.999842 -71.33 0.999842 -71.33 0.017327 18.527
8.65030000 0.017325 18.783 0.999842 -71.34 0.999842 -71.34 0.017325 18.526
8.65040000 0.017323 18.782 0.999842 -71.34 0.999842 -71.34 0.017323 18.525
8.65050000 0.017321 18.782 0.999842 -71.34 0.999842 -71.34 0.017321 18.524
8.65060000 0.017319 18.781 0.999842 -71.34 0.999842 -71.34 0.017319 18.523
8.65070000 0.017316 18.780 0.999842 -71.34 0.999842 -71.34 0.017316 18.523
8.65080000 0.017314 18.779 0.999842 -71.34 0.999842 -71.34 0.017314 18.522
8.65090000 0.017312 18.778 0.999842 -71.34 0.999842 -71.34 0.017312 18.521
8.65100000 0.017310 18.777 0.999842 -71.34 0.999842 -71.34 0.017310 18.520
8.65110000 0.017308 18.776 0.999842 -71.34 0.999842 -71.34 0.017308 18.519
8.65120000 0.017306 18.775 0.999842 -71.34 0.999842 -71.34 0.017306 18.518
8.65130000 0.017304 18.774 0.999842 -71.34 0.999842 -71.34 0.017304 18.517
8.65140000 0.017302 18.773 0.999842 -71.35 0.999842 -71.35 0.017302 18.516
8.65150000 0.017299 18.772 0.999842 -71.35 0.999842 -71.35 0.017299 18.515
8.65160000 0.017297 18.771 0.999842 -71.35 0.999842 -71.35 0.017297 18.514
8.65170000 0.017295 18.770 0.999842 -71.35 0.999842 -71.35 0.017295 18.513
8.65180000 0.017293 18.769 0.999842 -71.35 0.999842 -71.35 0.017293 18.512
8.65190000 0.017291 18.768 0.999842 -71.35 0.999842 -71.35 0.017291 18.511
8.65200000 0.017289 18.767 0.999843 -71.35 0.999843 -71.35 0.017289 18.510
8.65210000 0.017287 18.766 0.999843 -71.35 0.999843 -71.35 0.017287 18.509
8.65220000 0.017284 18.765 0.999843 -71.35 0.999843 -71.35 0.017284 18.508
8.65230000 0.017282 18.764 0.999843 -71.35 0.999843 -71.35 0.017282 18.507
8.65240000 0.017280 18.763 0.999843 -71.36 0.999843 -71.36 0.017280 18.507
8.65250000 0.017278 18.762 0.999843 -71.36 0.999843 -71.36 0.017278 18.506
8.65260000 0.017276 18.761 0.999843 -71.36 0.999843 -71.36 0.017276 18.505
8.65270000 0.017274 18.760 0.999843 -71.36 0.999843 -71.36 0.017274 18.504
8.65280000 0.017272 18.759 0.999843 -71.36 0.999843 -71.36 0.017272 18.503
8.65290000 0.017269 18.758 0.999843 -71.36 0.999843 -71.36 0.017269 18.502
8.65300000 0.017267 18.757 0.999843 -71.36 0.999843 -71.36 0.017267 18.501
8.65310000 0.017265 18.756 0.999843 -71.36 0.999843 -71.36 0.017265 18.500
8.65320000 0.017263 18.755 0.999843 -71.36 0.999843 -71.36 0.017263 18.499
8.65330000 0.017261 18.754 0.999843 -71.36 0.999843 -71.36 0.017261 18.498
8.65340000 0.017259 18.753 0.999843 -71.36 0.999843 -71.36 0.017259 18.497
8.65350000 0.017256 18.752 0.999843 -71.37 0.999843 -71.37 0.017256 18.496
8.65360000 0.017254 18.751 0.999843 -71.37 0.999843 -71.37 0.017254 18.495
8.65370000 0.017252 18.750 0.999843 -71.37 0.999843 -71.37 0.017252 18.494
8.65380000 0.017250 18.749 0.999843 -71.37 0.999843 -71.37 0.017250 18.493
8.65390000 0.017248 18.748 0.999843 -71.37 0.999843 -71.37 0.017248 18.492
8.65400000 0.017246 18.747 0.999843 -71.37 0.999843 -71.37 0.017246 18.491
8.65410000 0.017243 18.746 0.999843 -71.37 0.999843 -71.37 0.017243 18.491
8.65420000 0.017241 18.745 0.999843 -71.37 0.999843 -71.37 0.017241 18.490
8.65430000 0.017239 18.744 0.999843 -71.37 0.999843 -71.37 0.017239 18.489
8.65440000 0.017237 18.743 0.999843 -71.37 0.999843 -71.37 0.017237 18.488
8.65450000 0.017235 18.742 0.999843 -71.38 0.999843 -71.38 0.017235 18.487
8.65460000 0.017233 18.741 0.999843 -71.38 0.999843 -71.38 0.017233 18.486
8.65470000 0.017230 18.740 0.999843 -71.38 0.999843 -71.38 0.017230 18.485
8.65480000 0.017228 18.739 0.999844 -71.38 0.999844 -71.38 0.017228 18.484
8.65490000 0.017226 18.738 0.999844 -71.38 0.999844 -71.38 0.017226 18.483
8.65500000 0.017224 18.737 0.999844 -71.38 0.999844 -71.38 0.017224 18.482
8.65510000 0.017222 18.736 0.999844 -71.38 0.999844 -71.38 0.017222 18.481
8.65520000 0.017219 18.735 0.999844 -71.38 0.999844 -71.38 0.017219 18.480
8.65530000 0.017217 18.734 0.999844 -71.38 0.999844 -71.38 0.017217 18.479
8.65540000 0.017215 18.733 0.999844 -71.38 0.999844 -71.38 0.017215 18.478
8.65550000 0.017213 18.732 0.999844 -71.39 0.999844 -71.39 0.017213 18.477
8.65560000 0.017211 18.731 0.999844 -71.39 0.999844 -71.39 0.017211 18.476
8.65570000 0.017208 18.730 0.999844 -71.39 0.999844 -71.39 0.017208 18.475
8.65580000 0.017206 18.729 0.999844 -71.39 0.999844 -71.39 0.017206 18.475
8.65590000 0.017204 18.728 0.999844 -71.39 0.999844 -71.39 0.017204 18.474
8.65600000 0.017202 18.727 0.999844 -71.39 0.999844 -71.39 0.017202 18.473
8.65610000 0.017200 18.726 0.999844 -71.39 0.999844 -71.39 0.017200 18.472
8.65620000 0.017197 18.725 0.999844 -71.39 0.999844 -71.39 0.017197 18.471
8.65630000 0.017195 18.724 0.999844 -71.39 0.999844 -71.39 0.017195 18.470
8.65640000 0.017193 18.723 0.999844 -71.39 0.999844 -71.39 0.017193 18.469
8.65650000 0.017191 18.722 0.999844 -71.39 0.999844 -71.39 0.017191 18.468
8.65660000 0.017189 18.721 0.999844 -71.40 0.999844 -71.40 0.017189 18.467
8.65670000 0.017186 18.720 0.999844 -71.40 0.999844 -71.40 0.017186 18.466
8.65680000 0.017184 18.719 0.999844 -71.40 0.999844 -71.40 0.017184 18.465
8.65690000 0.017182 18.718 0.999844 -71.40 0.999844 -71.40 0.017182 18.464
8.65700000 0.017180 18.717 0.999844 -71.40 0.999844 -71.40 0.017180 18.463
8.65710000 0.017177 18.716 0.999844 -71.40 0.999844 -71.40 0.017177 18.462
8.65720000 0.017175 18.715 0.999844 -71.40 0.999844 -71.40 0.017175 18.461
8.65730000 0.017173 18.714 0.999844 -71.40 0.999844 -71.40 0.017173 18.460
8.65740000 0.017171 18.713 0.999844 -71.40 0.999844 -71.40 0.017171 18.459
8.65750000 0.017169 18.712 0.999844 -71.40 0.999844 -71.40 0.017169 18.459
8.65760000 0.017166 18.711 0.999845 -71.41 0.999845 -71.41 0.017166 18.458
8.65770000 0.017164 18.710 0.999845 -71.41 0.999845 -71.41 0.017164 18.457
8.65780000 0.017162 18.709 0.999845 -71.41 0.999845 -71.41 0.017162 18.456
8.65790000 0.017160 18.708 0.999845 -71.41 0.999845 -71.41 0.017160 18.455
8.65800000 0.017157 18.707 0.999845 -71.41 0.999845 -71.41 0.017157 18.454
8.65810000 0.017155 18.706 0.999845 -71.41 0.999845 -71.41 0.017155 18.453
8.65820000 0.017153 18.705 0.999845 -71.41 0.999845 -71.41 0.017153 18.452
8.65830000 0.017151 18.704 0.999845 -71.41 0.999845 -71.41 0.017151 18.451
8.65840000 0.017148 18.703 0.999845 -71.41 0.999845 -71.41 0.017148 18.450
8.65850000 0.017146 18.702 0.999845 -71.41 0.999845 -71.41 0.017146 18.449
8.65860000 0.017144 18.701 0.999845 -71.42 0.999845 -71.42 0.017144 18.448
8.65870000 0.017142 18.700 0.999845 -71.42 0.999845 -71.42 0.017142 18.447
8.65880000 0.017139 18.699 0.999845 -71.42 0.999845 -71.42 0.017139 18.446
8.65890000 0.017137 18.698 0.999845 -71.42 0.999845 -71.42 0.017137 18.445
8.65900000 0.017135 18.697 0.999845 -71.42 0.999845 -71.42 0.017135 18.444
8.65910000 0.017133 18.696 0.999845 -71.42 0.999845 -71.42 0.017133 18.443
8.65920000 0.017130 18.695 0.999845 -71.42 0.999845 -71.42 0.017130 18.442
8.65930000 0.017128 18.694 0.999845 -71.42 0.999845 -71.42 0.017128 18.442
8.65940000 0.017126 18.693 0.999845 -71.42 0.999845 -71.42 0.017126 18.441
8.65950000 0.017124 18.692 0.999845 -71.42 0.999845 -71.42 0.017124 18.440
8.65960000 0.017121 18.691 0.999845 -71.42 0.999845 -71.42 0.017121 18.439
8.65970000 0.017119 18.690 0.999845 -71.43 0.999845 -71.43 0.017119 18.438
8.65980000 0.017117 18.689 0.999845 -71.43 0.999845 -71.43 0.017117 18.437
8.65990000 0.017114 18.688 0.999845 -71.43 0.999845 -71.43 0.017114 18.436
8.66000000 0.017112 18.687 0.999845 -71.43 0.999845 -71.43 0.017112 18.435
8.66010000 0.017110 18.686 0.999845 -71.43 0.999845 -71.43 0.017110 18.434
8.66020000 0.017108 18.685 0.999845 -71.43 0.999845 -71.43 0.017108 18.433
8.66030000 0.017105 18.684 0.999846 -71.43 0.999846 -71.43 0.017105 18.432
8.66040000 0.017103 18.683 0.999846 -71.43 0.999846 -71.43 0.017103 18.431
8.66050000 0.017101 18.682 0.999846 -71.43 0.999846 -71.43 0.017101 18.430
8.66060000 0.017099 18.681 0.999846 -71.43 0.999846 -71.43 0.017099 18.429
8.66070000 0.017096 18.680 0.999846 -71.44 0.999846 -71.44 0.017096 18.428
8.66080000 0.017094 18.679 0.999846 -71.44 0.999846 -71.44 0.017094 18.427
8.66090000 0.017092 18.678 0.999846 -71.44 0.999846 -71.44 0.017092 18.426
8.66100000 0.017089 18.677 0.999846 -71.44 0.999846 -71.44 0.017089 18.425
8.66110000 0.017087 18.676 0.999846 -71.44 0.999846 -71.44 0.017087 18.425
8.66120000 0.017085 18.675 0.999846 -71.44 0.999846 -71.44 0.017085 18.424
8.66130000 0.017082 18.674 0.999846 -71.44 0.999846 -71.44 0.017083 18.423
8.66140000 0.017080 18.673 0.999846 -71.44 0.999846 -71.44 0.017080 18.422
8.66150000 0.017078 18.672 0.999846 -71.44 0.999846 -71.44 0.017078 18.421
8.66160000 0.017076 18.671 0.999846 -71.44 0.999846 -71.44 0.017076 18.420
8.66170000 0.017073 18.670 0.999846 -71.45 0.999846 -71.45 0.017073 18.419
8.66180000 0.017071 18.669 0.999846 -71.45 0.999846 -71.45 0.017071 18.418
8.66190000 0.017069 18.668 0.999846 -71.45 0.999846 -71.45 0.017069 18.417
8.66200000 0.017066 18.667 0.999846 -71.45 0.999846 -71.45 0.017066 18.416
8.66210000 0.017064 18.666 0.999846 -71.45 0.999846 -71.45 0.017064 18.415
8.66220000 0.017062 18.665 0.999846 -71.45 0.999846 -71.45 0.017062 18.414
8.66230000 0.017059 18.664 0.999846 -71.45 0.999846 -71.45 0.017059 18.413
8.66240000 0.017057 18.663 0.999846 -71.45 0.999846 -71.45 0.017057 18.412
8.66250000 0.017055 18.662 0.999846 -71.45 0.999846 -71.45 0.017055 18.411
8.66260000 0.017053 18.661 0.999846 -71.45 0.999846 -71.45 0.017053 18.410
8.66270000 0.017050 18.660 0.999846 -71.45 0.999846 -71.45 0.017050 18.409
8.66280000 0.017048 18.659 0.999846 -71.46 0.999846 -71.46 0.017048 18.408
8.66290000 0.017046 18.658 0.999846 -71.46 0.999846 -71.46 0.017046 18.407
8.66300000 0.017043 18.657 0.999847 -71.46 0.999847 -71.46 0.017043 18.407
8.66310000 0.017041 18.656 0.999847 -71.46 0.999847 -71.46 0.017041 18.406
8.66320000 0.017039 18.655 0.999847 -71.46 0.999847 -71.46 0.017039 18.405
8.66330000 0.017036 18.654 0.999847 -71.46 0.999847 -71.46 0.017036 18.404
8.66340000 0.017034 18.653 0.999847 -71.46 0.999847 -71.46 0.017034 18.403
8.66350000 0.017032 18.652 0.999847 -71.46 0.999847 -71.46 0.017032 18.402
8.66360000 0.017029 18.651 0.999847 -71.46 0.999847 -71.46 0.017029 18.401
8.66370000 0.017027 18.650 0.999847 -71.46 0.999847 -71.46 0.017027 18.400
8.66380000 0.017025 18.649 0.999847 -71.47 0.999847 -71.47 0.017025 18.399
8.66390000 0.017022 18.648 0.999847 -71.47 0.999847 -71.47 0.017022 18.398
8.66400000 0.017020 18.647 0.999847 -71.47 0.999847 -71.47 0.017020 18.397
8.66410000 0.017018 18.646 0.999847 -71.47 0.999847 -71.47 0.017018 18.396
8.66420000 0.017015 18.645 0.999847 -71.47 0.999847 -71.47 0.017015 18.395
8.66430000 0.017013 18.644 0.999847 -71.47 0.999847 -71.47 0.017013 18.394
8.66440000 0.017010 18.643 0.999847 -71.47 0.999847 -71.47 0.017010 18.393
8.66450000 0.017008 18.642 0.999847 -71.47 0.999847 -71.47 0.017008 18.392
8.66460000 0.017006 18.641 0.999847 -71.47 0.999847 -71.47 0.017006 18.391
8.66470000 0.017003 18.640 0.999847 -71.47 0.999847 -71.47 0.017003 18.390
8.66480000 0.017001 18.639 0.999847 -71.48 0.999847 -71.48 0.017001 18.389
8.66490000 0.016999 18.638 0.999847 -71.48 0.999847 -71.48 0.016999 18.389
8.66500000 0.016996 18.637 0.999847 -71.48 0.999847 -71.48 0.016996 18.388
8.66510000 0.016994 18.636 0.999847 -71.48 0.999847 -71.48 0.016994 18.387
8.66520000 0.016992 18.635 0.999847 -71.48 0.999847 -71.48 0.016992 18.386
8.66530000 0.016989 18.634 0.999847 -71.48 0.999847 -71.48 0.016989 18.385
8.66540000 0.016987 18.633 0.999847 -71.48 0.999847 -71.48 0.016987 18.384
8.66550000 0.016984 18.632 0.999847 -71.48 0.999847 -71.48 0.016984 18.383
8.66560000 0.016982 18.631 0.999848 -71.48 0.999848 -71.48 0.016982 18.382
8.66570000 0.016980 18.630 0.999848 -71.48 0.999848 -71.48 0.016980 18.381
8.66580000 0.016977 18.629 0.999848 -71.48 0.999848 -71.48 0.016977 18.380
8.66590000 0.016975 18.628 0.999848 -71.49 0.999848 -71.49 0.016975 18.379
8.66600000 0.016973 18.627 0.999848 -71.49 0.999848 -71.49 0.016973 18.378
8.66610000 0.016970 18.626 0.999848 -71.49 0.999848 -71.49 0.016970 18.377
8.66620000 0.016968 18.625 0.999848 -71.49 0.999848 -71.49 0.016968 18.376
8.66630000 0.016965 18.624 0.999848 -71.49 0.999848 -71.49 0.016965 18.375
8.66640000 0.016963 18.623 0.999848 -71.49 0.999848 -71.49 0.016963 18.374
8.66650000 0.016961 18.622 0.999848 -71.49 0.999848 -71.49 0.016961 18.373
8.66660000 0.016958 18.621 0.999848 -71.49 0.999848 -71.49 0.016958 18.372
8.66670000 0.016956 18.620 0.999848 -71.49 0.999848 -71.49 0.016956 18.371
8.66680000 0.016954 18.619 0.999848 -71.49 0.999848 -71.49 0.016954 18.370
8.66690000 0.016951 18.618 0.999848 -71.50 0.999848 -71.50 0.016951 18.370
8.66700000 0.016949 18.617 0.999848 -71.50 0.999848 -71.50 0.016949 18.369
8.66710000 0.016946 18.616 0.999848 -71.50 0.999848 -71.50 0.016946 18.368
8.66720000 0.016944 18.615 0.999848 -71.50 0.999848 -71.50 0.016944 18.367
8.66730000 0.016942 18.614 0.999848 -71.50 0.999848 -71.50 0.016942 18.366
8.66740000 0.016939 18.613 0.999848 -71.50 0.999848 -71.50 0.016939 18.365
8.66750000 0.016937 18.612 0.999848 -71.50 0.999848 -71.50 0.016937 18.364
8.66760000 0.016934 18.611 0.999848 -71.50 0.999848 -71.50 0.016934 18.363
8.66770000 0.016932 18.610 0.999848 -71.50 0.999848 -71.50 0.016932 18.362
8.66780000 0.016929 18.609 0.999848 -71.50 0.999848 -71.50 0.016929 18.361
8.66790000 0.016927 18.608 0.999848 -71.51 0.999848 -71.51 0.016927 18.360
8.66800000 0.016925 18.607 0.999848 -71.51 0.999848 -71.51 0.016925 18.359
8.66810000 0.016922 18.606 0.999848 -71.51 0.999848 -71.51 0.016922 18.358
8.66820000 0.016920 18.605 0.999849 -71.51 0.999849 -71.51 0.016920 18.357
8.66830000 0.016917 18.604 0.999849 -71.51 0.999849 -71.51 0.016917 18.356
8.66840000 0.016915 18.603 0.999849 -71.51 0.999849 -71.51 0.016915 18.355
8.66850000 0.016913 18.602 0.999849 -71.51 0.999849 -71.51 0.016913 18.354
8.66860000 0.016910 18.601 0.999849 -71.51 0.999849 -71.51 0.016910 18.353
8.66870000 0.016908 18.600 0.999849 -71.51 0.999849 -71.51 0.016908 18.352
8.66880000 0.016905 18.599 0.999849 -71.51 0.999849 -71.51 0.016905 18.351
8.66890000 0.016903 18.598 0.999849 -71.52 0.999849 -71.52 0.016903 18.351
8.66900000 0.016900 18.597 0.999849 -71.52 0.999849 -71.52 0.016900 18.350
8.66910000 0.016898 18.596 0.999849 -71.52 0.999849 -71.52 0.016898 18.349
8.66920000 0.016895 18.595 0.999849 -71.52 0.999849 -71.52 0.016895 18.348
8.66930000 0.016893 18.594 0.999849 -71.52 0.999849 -71.52 0.016893 18.347
8.66940000 0.016891 18.593 0.999849 -71.52 0.999849 -71.52 0.016891 18.346
8.66950000 0.016888 18.592 0.999849 -71.52 0.999849 -71.52 0.016888 18.345
8.66960000 0.016886 18.591 0.999849 -71.52 0.999849 -71.52 0.016886 18.344
8.66970000 0.016883 18.590 0.999849 -71.52 0.999849 -71.52 0.016883 18.343
8.66980000 0.016881 18.589 0.999849 -71.52 0.999849 -71.52 0.016881 18.342
8.66990000 0.016878 18.588 0.999849 -71.52 0.999849 -71.52 0.016878 18.341
8.67000000 0.016876 18.587 0.999849 -71.53 0.999849 -71.53 0.016876 18.340
8.67010000 0.016873 18.586 0.999849 -71.53 0.999849 -71.53 0.016873 18.339
8.67020000 0.016871 18.585 0.999849 -71.53 0.999849 -71.53 0.016871 18.338
8.67030000 0.016868 18.584 0.999849 -71.53 0.999849 -71.53 0.016869 18.337
8.67040000 0.016866 18.583 0.999849 -71.53 0.999849 -71.53 0.016866 18.336
8.67050000 0.016864 18.582 0.999849 -71.53 0.999849 -71.53 0.016864 18.335
8.67060000 0.016861 18.581 0.999849 -71.53 0.999849 -71.53 0.016861 18.334
8.67070000 0.016859 18.580 0.999850 -71.53 0.999850 -71.53 0.016859 18.333
8.67080000 0.016856 18.579 0.999850 -71.53 0.999850 -71.53 0.016856 18.332
8.67090000 0.016854 18.578 0.999850 -71.53 0.999850 -71.53 0.016854 18.332
8.67100000 0.016851 18.577 0.999850 -71.54 0.999850 -71.54 0.016851 18.331
8.67110000 0.016849 18.576 0.999850 -71.54 0.999850 -71.54 0.016849 18.330
8.67120000 0.016846 18.575 0.999850 -71.54 0.999850 -71.54 0.016846 18.329
8.67130000 0.016844 18.574 0.999850 -71.54 0.999850 -71.54 0.016844 18.328
8.67140000 0.016841 18.573 0.999850 -71.54 0.999850 -71.54 0.016841 18.327
8.67150000 0.016839 18.572 0.999850 -71.54 0.999850 -71.54 0.016839 18.326
8.67160000 0.016836 18.571 0.999850 -71.54 0.999850 -71.54 0.016836 18.325
8.67170000 0.016834 18.570 0.999850 -71.54 0.999850 -71.54 0.016834 18.324
8.67180000 0.016831 18.569 0.999850 -71.54 0.999850 -71.54 0.016831 18.323
8.67190000 0.016829 18.568 0.999850 -71.54 0.999850 -71.54 0.016829 18.322
8.67200000 0.016826 18.567 0.999850 -71.55 0.999850 -71.55 0.016826 18.321
8.67210000 0.016824 18.566 0.999850 -71.55 0.999850 -71.55 0.016824 18.320
8.67220000 0.016821 18.565 0.999850 -71.55 0.999850 -71.55 0.016821 18.319
8.67230000 0.016819 18.564 0.999850 -71.55 0.999850 -71.55 0.016819 18.318
8.67240000 0.016816 18.563 0.999850 -71.55 0.999850 -71.55 0.016816 18.317
8.67250000 0.016814 18.562 0.999850 -71.55 0.999850 -71.55 0.016814 18.316
8.67260000 0.016811 18.561 0.999850 -71.55 0.999850 -71.55 0.016811 18.315
8.67270000 0.016809 18.560 0.999850 -71.55 0.999850 -71.55 0.016809 18.314
8.67280000 0.016806 18.559 0.999850 -71.55 0.999850 -71.55 0.016806 18.313
8.67290000 0.016804 18.558 0.999850 -71.55 0.999850 -71.55 0.016804 18.312
8.67300000 0.016801 18.557 0.999850 -71.56 0.999850 -71.56 0.016801 18.311
8.67310000 0.016799 18.556 0.999851 -71.56 0.999851 -71.56 0.016799 18.311
8.67320000 0.016796 18.555 0.999851 -71.56 0.999851 -71.56 0.016796 18.310
8.67330000 0.016794 18.554 0.999851 -71.56 0.999851 -71.56 0.016794 18.309
8.67340000 0.016791 18.553 0.999851 -71.56 0.999851 -71.56 0.016791 18.308
8.67350000 0.016789 18.551 0.999851 -71.56 0.999851 -71.56 0.016789 18.307
8.67360000 0.016786 18.550 0.999851 -71.56 0.999851 -71.56 0.016786 18.306
8.67370000 0.016784 18.549 0.999851 -71.56 0.999851 -71.56 0.016784 18.305
8.67380000 0.016781 18.548 0.999851 -71.56 0.999851 -71.56 0.016781 18.304
8.67390000 0.016779 18.547 0.999851 -71.56 0.999851 -71.56 0.016779 18.303
8.67400000 0.016776 18.546 0.999851 -71.57 0.999851 -71.57 0.016776 18.302
8.67410000 0.016774 18.545 0.999851 -71.57 0.999851 -71.57 0.016774 18.301
8.67420000 0.016771 18.544 0.999851 -71.57 0.999851 -71.57 0.016771 18.300
8.67430000 0.016768 18.543 0.999851 -71.57 0.999851 -71.57 0.016768 18.299
8.67440000 0.016766 18.542 0.999851 -71.57 0.999851 -71.57 0.016766 18.298
8.67450000 0.016763 18.541 0.999851 -71.57 0.999851 -71.57 0.016763 18.297
8.67460000 0.016761 18.540 0.999851 -71.57 0.999851 -71.57 0.016761 18.296
8.67470000 0.016758 18.539 0.999851 -71.57 0.999851 -71.57 0.016758 18.295
8.67480000 0.016756 18.538 0.999851 -71.57 0.999851 -71.57 0.016756 18.294
8.67490000 0.016753 18.537 0.999851 -71.57 0.999851 -71.57 0.016753 18.293
8.67500000 0.016751 18.536 0.999851 -71.57 0.999851 -71.57 0.016751 18.292
8.67510000 0.016748 18.535 0.999851 -71.58 0.999851 -71.58 0.016748 18.291
8.67520000 0.016745 18.534 0.999851 -71.58 0.999851 -71.58 0.016745 18.290
8.67530000 0.016743 18.533 0.999851 -71.58 0.999851 -71.58 0.016743 18.290
8.67540000 0.016740 18.532 0.999851 -71.58 0.999851 -71.58 0.016740 18.289
8.67550000 0.016738 18.531 0.999851 -71.58 0.999851 -71.58 0.016738 18.288
8.67560000 0.016735 18.530 0.999852 -71.58 0.999852 -71.58 0.016735 18.287
8.67570000 0.016733 18.529 0.999852 -71.58 0.999852 -71.58 0.016733 18.286
8.67580000 0.016730 18.528 0.999852 -71.58 0.999852 -71.58 0.016730 18.285
8.67590000 0.016727 18.527 0.999852 -71.58 0.999852 -71.58 0.016728 18.284
8.67600000 0.016725 18.526 0.999852 -71.58 0.999852 -71.58 0.016725 18.283
8.67610000 0.016722 18.525 0.999852 -71.59 0.999852 -71.59 0.016722 18.282
8.67620000 0.016720 18.524 0.999852 -71.59 0.999852 -71.59 0.016720 18.281
8.67630000 0.016717 18.523 0.999852 -71.59 0.999852 -71.59 0.016717 18.280
8.67640000 0.016715 18.522 0.999852 -71.59 0.999852 -71.59 0.016715 18.279
8.67650000 0.016712 18.521 0.999852 -71.59 0.999852 -71.59 0.016712 18.278
8.67660000 0.016709 18.520 0.999852 -71.59 0.999852 -71.59 0.016709 18.277
8.67670000 0.016707 18.519 0.999852 -71.59 0.999852 -71.59 0.016707 18.276
8.67680000 0.016704 18.518 0.999852 -71.59 0.999852 -71.59 0.016704 18.275
8.67690000 0.016702 18.517 0.999852 -71.59 0.999852 -71.59 0.016702 18.274
8.67700000 0.016699 18.516 0.999852 -71.59 0.999852 -71.59 0.016699 18.273
8.67710000 0.016696 18.515 0.999852 -71.60 0.999852 -71.60 0.016696 18.272
8.67720000 0.016694 18.514 0.999852 -71.60 0.999852 -71.60 0.016694 18.271
8.67730000 0.016691 18.513 0.999852 -71.60 0.999852 -71.60 0.016691 18.270
8.67740000 0.016689 18.512 0.999852 -71.60 0.999852 -71.60 0.016689 18.269
8.67750000 0.016686 18.511 0.999852 -71.60 0.999852 -71.60 0.016686 18.268
8.67760000 0.016683 18.510 0.999852 -71.60 0.999852 -71.60 0.016683 18.268
8.67770000 0.016681 18.509 0.999852 -71.60 0.999852 -71.60 0.016681 18.267
8.67780000 0.016678 18.508 0.999852 -71.60 0.999852 -71.60 0.016678 18.266
8.67790000 0.016676 18.507 0.999852 -71.60 0.999852 -71.60 0.016676 18.265
8.67800000 0.016673 18.506 0.999853 -71.60 0.999853 -71.60 0.016673 18.264
8.67810000 0.016670 18.505 0.999853 -71.61 0.999853 -71.61 0.016670 18.263
8.67820000 0.016668 18.504 0.999853 -71.61 0.999853 -71.61 0.016668 18.262
8.67830000 0.016665 18.503 0.999853 -71.61 0.999853 -71.61 0.016665 18.261
8.67840000 0.016662 18.502 0.999853 -71.61 0.999853 -71.61 0.016662 18.260
8.67850000 0.016660 18.501 0.999853 -71.61 0.999853 -71.61 0.016660 18.259
8.67860000 0.016657 18.499 0.999853 -71.61 0.999853 -71.61 0.016657 18.258
8.67870000 0.016655 18.498 0.999853 -71.61 0.999853 -71.61 0.016655 18.257
8.67880000 0.016652 18.497 0.999853 -71.61 0.999853 -71.61 0.016652 18.256
8.67890000 0.016649 18.496 0.999853 -71.61 0.999853 -71.61 0.016649 18.255
8.67900000 0.016647 18.495 0.999853 -71.61 0.999853 -71.61 0.016647 18.254
8.67910000 0.016644 18.494 0.999853 -71.62 0.999853 -71.62 0.016644 18.253
8.67920000 0.016641 18.493 0.999853 -71.62 0.999853 -71.62 0.016641 18.252
8.67930000 0.016639 18.492 0.999853 -71.62 0.999853 -71.62 0.016639 18.251
8.67940000 0.016636 18.491 0.999853 -71.62 0.999853 -71.62 0.016636 18.250
8.67950000 0.016633 18.490 0.999853 -71.62 0.999853 -71.62 0.016633 18.249
8.67960000 0.016631 18.489 0.999853 -71.62 0.999853 -71.62 0.016631 18.248
8.67970000 0.016628 18.488 0.999853 -71.62 0.999853 -71.62 0.016628 18.247
8.67980000 0.016625 18.487 0.999853 -71.62 0.999853 -71.62 0.016625 18.246
8.67990000 0.016623 18.486 0.999853 -71.62 0.999853 -71.62 0.016623 18.245
8.68000000 0.016620 18.485 0.999853 -71.62 0.999853 -71.62 0.016620 18.245
8.68010000 0.016617 18.484 0.999853 -71.63 0.999853 -71.63 0.016618 18.244
8.68020000 0.016615 18.483 0.999853 -71.63 0.999853 -71.63 0.016615 18.243
8.68030000 0.016612 18.482 0.999854 -71.63 0.999854 -71.63 0.016612 18.242
8.68040000 0.016609 18.481 0.999854 -71.63 0.999854 -71.63 0.016609 18.241
8.68050000 0.016607 18.480 0.999854 -71.63 0.999854 -71.63 0.016607 18.240
8.68060000 0.016604 18.479 0.999854 -71.63 0.999854 -71.63 0.016604 18.239
8.68070000 0.016601 18.478 0.999854 -71.63 0.999854 -71.63 0.016601 18.238
8.68080000 0.016599 18.477 0.999854 -71.63 0.999854 -71.63 0.016599 18.237
8.68090000 0.016596 18.476 0.999854 -71.63 0.999854 -71.63 0.016596 18.236
8.68100000 0.016593 18.475 0.999854 -71.63 0.999854 -71.63 0.016593 18.235
8.68110000 0.016591 18.474 0.999854 -71.64 0.999854 -71.64 0.016591 18.234
8.68120000 0.016588 18.473 0.999854 -71.64 0.999854 -71.64 0.016588 18.233
8.68130000 0.016585 18.472 0.999854 -71.64 0.999854 -71.64 0.016585 18.232
8.68140000 0.016583 18.471 0.999854 -71.64 0.999854 -71.64 0.016583 18.231
8.68150000 0.016580 18.470 0.999854 -71.64 0.999854 -71.64 0.016580 18.230
8.68160000 0.016577 18.469 0.999854 -71.64 0.999854 -71.64 0.016577 18.229
8.68170000 0.016575 18.468 0.999854 -71.64 0.999854 -71.64 0.016575 18.228
8.68180000 0.016572 18.467 0.999854 -71.64 0.999854 -71.64 0.016572 18.227
8.68190000 0.016569 18.466 0.999854 -71.64 0.999854 -71.64 0.016569 18.226
8.68200000 0.016566 18.465 0.999854 -71.64 0.999854 -71.64 0.016566 18.225
8.68210000 0.016564 18.464 0.999854 -71.65 0.999854 -71.65 0.016564 18.224
8.68220000 0.016561 18.463 0.999854 -71.65 0.999854 -71.65 0.016561 18.223
8.68230000 0.016558 18.462 0.999854 -71.65 0.999854 -71.65 0.016558 18.222
8.68240000 0.016556 18.460 0.999854 -71.65 0.999854 -71.65 0.016556 18.221
8.68250000 0.016553 18.459 0.999854 -71.65 0.999854 -71.65 0.016553 18.221
8.68260000 0.016550 18.458 0.999855 -71.65 0.999855 -71.65 0.016550 18.220
8.68270000 0.016547 18.457 0.999855 -71.65 0.999855 -71.65 0.016547 18.219
8.68280000 0.016545 18.456 0.999855 -71.65 0.999855 -71.65 0.016545 18.218
8.68290000 0.016542 18.455 0.999855 -71.65 0.999855 -71.65 0.016542 18.217
8.68300000 0.016539 18.454 0.999855 -71.65 0.999855 -71.65 0.016539 18.216
8.68310000 0.016537 18.453 0.999855 -71.66 0.999855 -71.66 0.016537 18.215
8.68320000 0.016534 18.452 0.999855 -71.66 0.999855 -71.66 0.016534 18.214
8.68330000 0.016531 18.451 0.999855 -71.66 0.999855 -71.66 0.016531 18.213
8.68340000 0.016528 18.450 0.999855 -71.66 0.999855 -71.66 0.016528 18.212
8.68350000 0.016526 18.449 0.999855 -71.66 0.999855 -71.66 0.016526 18.211
8.68360000 0.016523 18.448 0.999855 -71.66 0.999855 -71.66 0.016523 18.210
8.68370000 0.016520 18.447 0.999855 -71.66 0.999855 -71.66 0.016520 18.209
8.68380000 0.016517 18.446 0.999855 -71.66 0.999855 -71.66 0.016517 18.208
8.68390000 0.016515 18.445 0.999855 -71.66 0.999855 -71.66 0.016515 18.207
8.68400000 0.016512 18.444 0.999855 -71.66 0.999855 -71.66 0.016512 18.206
8.68410000 0.016509 18.443 0.999855 -71.67 0.999855 -71.67 0.016509 18.205
8.68420000 0.016506 18.442 0.999855 -71.67 0.999855 -71.67 0.016506 18.204
8.68430000 0.016504 18.441 0.999855 -71.67 0.999855 -71.67 0.016504 18.203
8.68440000 0.016501 18.440 0.999855 -71.67 0.999855 -71.67 0.016501 18.202
8.68450000 0.016498 18.439 0.999855 -71.67 0.999855 -71.67 0.016498 18.201
8.68460000 0.016495 18.438 0.999855 -71.67 0.999855 -71.67 0.016495 18.200
8.68470000 0.016493 18.437 0.999855 -71.67 0.999855 -71.67 0.016493 18.199
8.68480000 0.016490 18.436 0.999855 -71.67 0.999855 -71.67 0.016490 18.198
8.68490000 0.016487 18.435 0.999856 -71.67 0.999856 -71.67 0.016487 18.197
8.68500000 0.016484 18.434 0.999856 -71.67 0.999856 -71.67 0.016484 18.196
8.68510000 0.016482 18.433 0.999856 -71.67 0.999856 -71.67 0.016482 18.196
8.68520000 0.016479 18.432 0.999856 -71.68 0.999856 -71.68 0.016479 18.195
8.68530000 0.016476 18.431 0.999856 -71.68 0.999856 -71.68 0.016476 18.194
8.68540000 0.016473 18.430 0.999856 -71.68 0.999856 -71.68 0.016473 18.193
8.68550000 0.016470 18.428 0.999856 -71.68 0.999856 -71.68 0.016470 18.192
8.68560000 0.016468 18.427 0.999856 -71.68 0.999856 -71.68 0.016468 18.191
8.68570000 0.016465 18.426 0.999856 -71.68 0.999856 -71.68 0.016465 18.190
8.68580000 0.016462 18.425 0.999856 -71.68 0.999856 -71.68 0.016462 18.189
8.68590000 0.016459 18.424 0.999856 -71.68 0.999856 -71.68 0.016459 18.188
8.68600000 0.016456 18.423 0.999856 -71.68 0.999856 -71.68 0.016456 18.187
8.68610000 0.016454 18.422 0.999856 -71.68 0.999856 -71.68 0.016454 18.186
8.68620000 0.016451 18.421 0.999856 -71.69 0.999856 -71.69 0.016451 18.185
8.68630000 0.016448 18.420 0.999856 -71.69 0.999856 -71.69 0.016448 18.184
8.68640000 0.016445 18.419 0.999856 -71.69 0.999856 -71.69 0.016445 18.183
8.68650000 0.016442 18.418 0.999856 -71.69 0.999856 -71.69 0.016442 18.182
8.68660000 0.016440 18.417 0.999856 -71.69 0.999856 -71.69 0.016440 18.181
8.68670000 0.016437 18.416 0.999856 -71.69 0.999856 -71.69 0.016437 18.180
8.68680000 0.016434 18.415 0.999856 -71.69 0.999856 -71.69 0.016434 18.179
8.68690000 0.016431 18.414 0.999856 -71.69 0.999856 -71.69 0.016431 18.178
8.68700000 0.016428 18.413 0.999856 -71.69 0.999856 -71.69 0.016428 18.177
8.68710000 0.016426 18.412 0.999857 -71.69 0.999857 -71.69 0.016426 18.176
8.68720000 0.016423 18.411 0.999857 -71.70 0.999857 -71.70 0.016423 18.175
8.68730000 0.016420 18.410 0.999857 -71.70 0.999857 -71.70 0.016420 18.174
8.68740000 0.016417 18.409 0.999857 -71.70 0.999857 -71.70 0.016417 18.173
8.68750000 0.016414 18.408 0.999857 -71.70 0.999857 -71.70 0.016414 18.172
8.68760000 0.016411 18.407 0.999857 -71.70 0.999857 -71.70 0.016411 18.171
8.68770000 0.016409 18.406 0.999857 -71.70 0.999857 -71.70 0.016409 18.170
8.68780000 0.016406 18.405 0.999857 -71.70 0.999857 -71.70 0.016406 18.169
8.68790000 0.016403 18.404 0.999857 -71.70 0.999857 -71.70 0.016403 18.169
8.68800000 0.016400 18.403 0.999857 -71.70 0.999857 -71.70 0.016400 18.168
8.68810000 0.016397 18.401 0.999857 -71.70 0.999857 -71.70 0.016397 18.167
8.68820000 0.016394 18.400 0.999857 -71.71 0.999857 -71.71 0.016394 18.166
8.68830000 0.016391 18.399 0.999857 -71.71 0.999857 -71.71 0.016391 18.165
8.68840000 0.016389 18.398 0.999857 -71.71 0.999857 -71.71 0.016389 18.164
8.68850000 0.016386 18.397 0.999857 -71.71 0.999857 -71.71 0.016386 18.163
8.68860000 0.016383 18.396 0.999857 -71.71 0.999857 -71.71 0.016383 18.162
8.68870000 0.016380 18.395 0.999857 -71.71 0.999857 -71.71 0.016380 18.161
8.68880000 0.016377 18.394 0.999857 -71.71 0.999857 -71.71 0.016377 18.160
8.68890000 0.016374 18.393 0.999857 -71.71 0.999857 -71.71 0.016374 18.159
8.68900000 0.016371 18.392 0.999857 -71.71 0.999857 -71.71 0.016371 18.158
8.68910000 0.016369 18.391 0.999857 -71.71 0.999857 -71.71 0.016369 18.157
8.68920000 0.016366 18.390 0.999857 -71.72 0.999857 -71.72 0.016366 18.156