! Sonnet Data File
! From: emgraph Version : 16.52
! From Project: transmon_trial2
! Data is De-embedded 
! Data File Written: 10/20/2017 11:33:10
!< HDATE 10/20/2017 10:41:42
!< MDATE 10/20/2017 10:41:42
!< PARAMS
!< Lj = 15.24
!< Gap = 16.0
!< Width = 40.0
!< Airgap = 24.0
!< Pwidth = 2000.0
!< END PARAMS
# GHZ S MA R 43.50000
8.70000000 0.008137 -159.4 0.999958 -69.36 0.999958 -69.36 0.008137 -159.2
!< P1 F=8.7 Eeff=(4.81555861 -6.2189e-5) Z0=(43.3296017 -1.7655e-4) R=0.0 C=0.0 
!< P2 F=8.7 Eeff=(4.81555861 -6.2189e-5) Z0=(43.3296017 -1.7655e-4) R=0.0 C=0.0 
8.70010000 0.008142 -159.4 0.999958 -69.36 0.999958 -69.36 0.008142 -159.2
8.70020000 0.008148 -159.4 0.999958 -69.37 0.999958 -69.37 0.008148 -159.2
8.70030000 0.008153 -159.4 0.999958 -69.37 0.999958 -69.37 0.008153 -159.2
8.70040000 0.008158 -159.4 0.999958 -69.37 0.999958 -69.37 0.008158 -159.3
8.70050000 0.008163 -159.4 0.999958 -69.37 0.999958 -69.37 0.008163 -159.3
8.70060000 0.008168 -159.4 0.999958 -69.37 0.999958 -69.37 0.008168 -159.3
8.70070000 0.008174 -159.4 0.999958 -69.37 0.999958 -69.37 0.008174 -159.3
8.70080000 0.008179 -159.4 0.999958 -69.37 0.999958 -69.37 0.008179 -159.3
8.70090000 0.008184 -159.4 0.999958 -69.37 0.999958 -69.37 0.008184 -159.3
8.70100000 0.008189 -159.4 0.999958 -69.37 0.999958 -69.37 0.008189 -159.3
8.70110000 0.008195 -159.4 0.999958 -69.38 0.999958 -69.38 0.008195 -159.3
8.70120000 0.008200 -159.4 0.999958 -69.38 0.999958 -69.38 0.008200 -159.3
8.70130000 0.008205 -159.4 0.999957 -69.38 0.999957 -69.38 0.008205 -159.3
8.70140000 0.008210 -159.5 0.999957 -69.38 0.999957 -69.38 0.008210 -159.3
8.70150000 0.008215 -159.5 0.999957 -69.38 0.999957 -69.38 0.008216 -159.3
8.70160000 0.008221 -159.5 0.999957 -69.38 0.999957 -69.38 0.008221 -159.3
8.70170000 0.008226 -159.5 0.999957 -69.38 0.999957 -69.38 0.008226 -159.3
8.70180000 0.008231 -159.5 0.999957 -69.38 0.999957 -69.38 0.008231 -159.3
8.70190000 0.008237 -159.5 0.999957 -69.38 0.999957 -69.38 0.008237 -159.3
8.70200000 0.008242 -159.5 0.999957 -69.39 0.999957 -69.39 0.008242 -159.3
8.70210000 0.008247 -159.5 0.999957 -69.39 0.999957 -69.39 0.008247 -159.3
8.70220000 0.008252 -159.5 0.999957 -69.39 0.999957 -69.39 0.008252 -159.3
8.70230000 0.008258 -159.5 0.999957 -69.39 0.999957 -69.39 0.008258 -159.3
8.70240000 0.008263 -159.5 0.999957 -69.39 0.999957 -69.39 0.008263 -159.3
8.70250000 0.008268 -159.5 0.999957 -69.39 0.999957 -69.39 0.008268 -159.3
8.70260000 0.008274 -159.5 0.999957 -69.39 0.999957 -69.39 0.008274 -159.3
8.70270000 0.008279 -159.5 0.999957 -69.39 0.999957 -69.39 0.008279 -159.3
8.70280000 0.008284 -159.5 0.999957 -69.39 0.999957 -69.39 0.008284 -159.3
8.70290000 0.008290 -159.5 0.999957 -69.40 0.999957 -69.40 0.008290 -159.3
8.70300000 0.008295 -159.5 0.999957 -69.40 0.999957 -69.40 0.008295 -159.3
8.70310000 0.008300 -159.5 0.999957 -69.40 0.999957 -69.40 0.008300 -159.3
8.70320000 0.008306 -159.5 0.999957 -69.40 0.999957 -69.40 0.008306 -159.3
8.70330000 0.008311 -159.5 0.999957 -69.40 0.999957 -69.40 0.008311 -159.3
8.70340000 0.008316 -159.5 0.999956 -69.40 0.999956 -69.40 0.008316 -159.3
8.70350000 0.008322 -159.5 0.999956 -69.40 0.999956 -69.40 0.008322 -159.3
8.70360000 0.008327 -159.5 0.999956 -69.40 0.999956 -69.40 0.008327 -159.3
8.70370000 0.008332 -159.5 0.999956 -69.40 0.999956 -69.40 0.008332 -159.3
8.70380000 0.008338 -159.5 0.999956 -69.41 0.999956 -69.41 0.008338 -159.3
8.70390000 0.008343 -159.5 0.999956 -69.41 0.999956 -69.41 0.008343 -159.3
8.70400000 0.008348 -159.5 0.999956 -69.41 0.999956 -69.41 0.008348 -159.3
8.70410000 0.008354 -159.5 0.999956 -69.41 0.999956 -69.41 0.008354 -159.3
8.70420000 0.008359 -159.5 0.999956 -69.41 0.999956 -69.41 0.008359 -159.3
8.70430000 0.008365 -159.5 0.999956 -69.41 0.999956 -69.41 0.008365 -159.3
8.70440000 0.008370 -159.5 0.999956 -69.41 0.999956 -69.41 0.008370 -159.3
8.70450000 0.008375 -159.5 0.999956 -69.41 0.999956 -69.41 0.008375 -159.3
8.70460000 0.008381 -159.5 0.999956 -69.41 0.999956 -69.41 0.008381 -159.3
8.70470000 0.008386 -159.5 0.999956 -69.42 0.999956 -69.42 0.008386 -159.3
8.70480000 0.008392 -159.5 0.999956 -69.42 0.999956 -69.42 0.008392 -159.3
8.70490000 0.008397 -159.5 0.999956 -69.42 0.999956 -69.42 0.008397 -159.3
8.70500000 0.008403 -159.5 0.999956 -69.42 0.999956 -69.42 0.008403 -159.3
8.70510000 0.008408 -159.5 0.999956 -69.42 0.999956 -69.42 0.008408 -159.3
8.70520000 0.008413 -159.5 0.999956 -69.42 0.999956 -69.42 0.008413 -159.3
8.70530000 0.008419 -159.5 0.999956 -69.42 0.999956 -69.42 0.008419 -159.3
8.70540000 0.008424 -159.5 0.999956 -69.42 0.999956 -69.42 0.008424 -159.3
8.70550000 0.008430 -159.5 0.999955 -69.42 0.999955 -69.42 0.008430 -159.3
8.70560000 0.008435 -159.5 0.999955 -69.43 0.999955 -69.43 0.008435 -159.3
8.70570000 0.008441 -159.5 0.999955 -69.43 0.999955 -69.43 0.008441 -159.3
8.70580000 0.008446 -159.5 0.999955 -69.43 0.999955 -69.43 0.008446 -159.3
8.70590000 0.008452 -159.5 0.999955 -69.43 0.999955 -69.43 0.008452 -159.3
8.70600000 0.008457 -159.5 0.999955 -69.43 0.999955 -69.43 0.008457 -159.3
8.70610000 0.008463 -159.5 0.999955 -69.43 0.999955 -69.43 0.008463 -159.3
8.70620000 0.008468 -159.5 0.999955 -69.43 0.999955 -69.43 0.008468 -159.3
8.70630000 0.008474 -159.5 0.999955 -69.43 0.999955 -69.43 0.008474 -159.3
8.70640000 0.008479 -159.5 0.999955 -69.43 0.999955 -69.43 0.008479 -159.3
8.70650000 0.008485 -159.5 0.999955 -69.44 0.999955 -69.44 0.008485 -159.3
8.70660000 0.008490 -159.5 0.999955 -69.44 0.999955 -69.44 0.008490 -159.3
8.70670000 0.008496 -159.5 0.999955 -69.44 0.999955 -69.44 0.008496 -159.3
8.70680000 0.008501 -159.5 0.999955 -69.44 0.999955 -69.44 0.008501 -159.3
8.70690000 0.008507 -159.5 0.999955 -69.44 0.999955 -69.44 0.008507 -159.3
8.70700000 0.008512 -159.5 0.999955 -69.44 0.999955 -69.44 0.008512 -159.3
8.70710000 0.008518 -159.5 0.999955 -69.44 0.999955 -69.44 0.008518 -159.3
8.70720000 0.008524 -159.5 0.999955 -69.44 0.999955 -69.44 0.008524 -159.3
8.70730000 0.008529 -159.5 0.999955 -69.44 0.999955 -69.44 0.008529 -159.3
8.70740000 0.008535 -159.5 0.999955 -69.45 0.999955 -69.45 0.008535 -159.3
8.70750000 0.008540 -159.5 0.999955 -69.45 0.999955 -69.45 0.008540 -159.3
8.70760000 0.008546 -159.5 0.999954 -69.45 0.999954 -69.45 0.008546 -159.3
8.70770000 0.008551 -159.5 0.999954 -69.45 0.999954 -69.45 0.008551 -159.3
8.70780000 0.008557 -159.5 0.999954 -69.45 0.999954 -69.45 0.008557 -159.3
8.70790000 0.008563 -159.5 0.999954 -69.45 0.999954 -69.45 0.008563 -159.3
8.70800000 0.008568 -159.5 0.999954 -69.45 0.999954 -69.45 0.008568 -159.3
8.70810000 0.008574 -159.5 0.999954 -69.45 0.999954 -69.45 0.008574 -159.4
8.70820000 0.008579 -159.5 0.999954 -69.45 0.999954 -69.45 0.008579 -159.4
8.70830000 0.008585 -159.5 0.999954 -69.46 0.999954 -69.46 0.008585 -159.4
8.70840000 0.008591 -159.5 0.999954 -69.46 0.999954 -69.46 0.008591 -159.4
8.70850000 0.008596 -159.5 0.999954 -69.46 0.999954 -69.46 0.008596 -159.4
8.70860000 0.008602 -159.5 0.999954 -69.46 0.999954 -69.46 0.008602 -159.4
8.70870000 0.008607 -159.5 0.999954 -69.46 0.999954 -69.46 0.008608 -159.4
8.70880000 0.008613 -159.5 0.999954 -69.46 0.999954 -69.46 0.008613 -159.4
8.70890000 0.008619 -159.5 0.999954 -69.46 0.999954 -69.46 0.008619 -159.4
8.70900000 0.008624 -159.5 0.999954 -69.46 0.999954 -69.46 0.008624 -159.4
8.70910000 0.008630 -159.5 0.999954 -69.46 0.999954 -69.46 0.008630 -159.4
8.70920000 0.008636 -159.5 0.999954 -69.47 0.999954 -69.47 0.008636 -159.4
8.70930000 0.008641 -159.5 0.999954 -69.47 0.999954 -69.47 0.008641 -159.4
8.70940000 0.008647 -159.5 0.999954 -69.47 0.999954 -69.47 0.008647 -159.4
8.70950000 0.008653 -159.5 0.999954 -69.47 0.999954 -69.47 0.008653 -159.4
8.70960000 0.008658 -159.5 0.999953 -69.47 0.999953 -69.47 0.008659 -159.4
8.70970000 0.008664 -159.5 0.999953 -69.47 0.999953 -69.47 0.008664 -159.4
8.70980000 0.008670 -159.5 0.999953 -69.47 0.999953 -69.47 0.008670 -159.4
8.70990000 0.008676 -159.5 0.999953 -69.47 0.999953 -69.47 0.008676 -159.4
8.71000000 0.008681 -159.5 0.999953 -69.47 0.999953 -69.47 0.008681 -159.4
8.71010000 0.008687 -159.5 0.999953 -69.48 0.999953 -69.48 0.008687 -159.4
8.71020000 0.008693 -159.5 0.999953 -69.48 0.999953 -69.48 0.008693 -159.4
8.71030000 0.008698 -159.5 0.999953 -69.48 0.999953 -69.48 0.008698 -159.4
8.71040000 0.008704 -159.5 0.999953 -69.48 0.999953 -69.48 0.008704 -159.4
8.71050000 0.008710 -159.5 0.999953 -69.48 0.999953 -69.48 0.008710 -159.4
8.71060000 0.008716 -159.5 0.999953 -69.48 0.999953 -69.48 0.008716 -159.4
8.71070000 0.008721 -159.5 0.999953 -69.48 0.999953 -69.48 0.008721 -159.4
8.71080000 0.008727 -159.5 0.999953 -69.48 0.999953 -69.48 0.008727 -159.4
8.71090000 0.008733 -159.5 0.999953 -69.48 0.999953 -69.48 0.008733 -159.4
8.71100000 0.008739 -159.5 0.999953 -69.49 0.999953 -69.49 0.008739 -159.4
8.71110000 0.008744 -159.5 0.999953 -69.49 0.999953 -69.49 0.008745 -159.4
8.71120000 0.008750 -159.5 0.999953 -69.49 0.999953 -69.49 0.008750 -159.4
8.71130000 0.008756 -159.5 0.999953 -69.49 0.999953 -69.49 0.008756 -159.4
8.71140000 0.008762 -159.5 0.999953 -69.49 0.999953 -69.49 0.008762 -159.4
8.71150000 0.008768 -159.5 0.999952 -69.49 0.999952 -69.49 0.008768 -159.4
8.71160000 0.008773 -159.5 0.999952 -69.49 0.999952 -69.49 0.008774 -159.4
8.71170000 0.008779 -159.5 0.999952 -69.49 0.999952 -69.49 0.008779 -159.4
8.71180000 0.008785 -159.5 0.999952 -69.49 0.999952 -69.49 0.008785 -159.4
8.71190000 0.008791 -159.5 0.999952 -69.50 0.999952 -69.50 0.008791 -159.4
8.71200000 0.008797 -159.6 0.999952 -69.50 0.999952 -69.50 0.008797 -159.4
8.71210000 0.008803 -159.6 0.999952 -69.50 0.999952 -69.50 0.008803 -159.4
8.71220000 0.008808 -159.6 0.999952 -69.50 0.999952 -69.50 0.008808 -159.4
8.71230000 0.008814 -159.6 0.999952 -69.50 0.999952 -69.50 0.008814 -159.4
8.71240000 0.008820 -159.6 0.999952 -69.50 0.999952 -69.50 0.008820 -159.4
8.71250000 0.008826 -159.6 0.999952 -69.50 0.999952 -69.50 0.008826 -159.4
8.71260000 0.008832 -159.6 0.999952 -69.50 0.999952 -69.50 0.008832 -159.4
8.71270000 0.008838 -159.6 0.999952 -69.50 0.999952 -69.50 0.008838 -159.4
8.71280000 0.008844 -159.6 0.999952 -69.51 0.999952 -69.51 0.008844 -159.4
8.71290000 0.008849 -159.6 0.999952 -69.51 0.999952 -69.51 0.008850 -159.4
8.71300000 0.008855 -159.6 0.999952 -69.51 0.999952 -69.51 0.008855 -159.4
8.71310000 0.008861 -159.6 0.999952 -69.51 0.999952 -69.51 0.008861 -159.4
8.71320000 0.008867 -159.6 0.999952 -69.51 0.999952 -69.51 0.008867 -159.4
8.71330000 0.008873 -159.6 0.999951 -69.51 0.999951 -69.51 0.008873 -159.4
8.71340000 0.008879 -159.6 0.999951 -69.51 0.999951 -69.51 0.008879 -159.4
8.71350000 0.008885 -159.6 0.999951 -69.51 0.999951 -69.51 0.008885 -159.4
8.71360000 0.008891 -159.6 0.999951 -69.51 0.999951 -69.51 0.008891 -159.4
8.71370000 0.008897 -159.6 0.999951 -69.52 0.999951 -69.52 0.008897 -159.4
8.71380000 0.008903 -159.6 0.999951 -69.52 0.999951 -69.52 0.008903 -159.4
8.71390000 0.008909 -159.6 0.999951 -69.52 0.999951 -69.52 0.008909 -159.4
8.71400000 0.008915 -159.6 0.999951 -69.52 0.999951 -69.52 0.008915 -159.4
8.71410000 0.008921 -159.6 0.999951 -69.52 0.999951 -69.52 0.008921 -159.4
8.71420000 0.008927 -159.6 0.999951 -69.52 0.999951 -69.52 0.008927 -159.4
8.71430000 0.008932 -159.6 0.999951 -69.52 0.999951 -69.52 0.008933 -159.4
8.71440000 0.008938 -159.6 0.999951 -69.52 0.999951 -69.52 0.008938 -159.4
8.71450000 0.008944 -159.6 0.999951 -69.52 0.999951 -69.52 0.008944 -159.4
8.71460000 0.008950 -159.6 0.999951 -69.53 0.999951 -69.53 0.008950 -159.4
8.71470000 0.008956 -159.6 0.999951 -69.53 0.999951 -69.53 0.008956 -159.4
8.71480000 0.008962 -159.6 0.999951 -69.53 0.999951 -69.53 0.008962 -159.4
8.71490000 0.008968 -159.6 0.999951 -69.53 0.999951 -69.53 0.008968 -159.4
8.71500000 0.008974 -159.6 0.999951 -69.53 0.999951 -69.53 0.008974 -159.4
8.71510000 0.008980 -159.6 0.999950 -69.53 0.999950 -69.53 0.008980 -159.4
8.71520000 0.008986 -159.6 0.999950 -69.53 0.999950 -69.53 0.008987 -159.4
8.71530000 0.008993 -159.6 0.999950 -69.53 0.999950 -69.53 0.008993 -159.4
8.71540000 0.008999 -159.6 0.999950 -69.54 0.999950 -69.54 0.008999 -159.4
8.71550000 0.009005 -159.6 0.999950 -69.54 0.999950 -69.54 0.009005 -159.4
8.71560000 0.009011 -159.6 0.999950 -69.54 0.999950 -69.54 0.009011 -159.5
8.71570000 0.009017 -159.6 0.999950 -69.54 0.999950 -69.54 0.009017 -159.5
8.71580000 0.009023 -159.6 0.999950 -69.54 0.999950 -69.54 0.009023 -159.5
8.71590000 0.009029 -159.6 0.999950 -69.54 0.999950 -69.54 0.009029 -159.5
8.71600000 0.009035 -159.6 0.999950 -69.54 0.999950 -69.54 0.009035 -159.5
8.71610000 0.009041 -159.6 0.999950 -69.54 0.999950 -69.54 0.009041 -159.5
8.71620000 0.009047 -159.6 0.999950 -69.54 0.999950 -69.54 0.009047 -159.5
8.71630000 0.009053 -159.6 0.999950 -69.55 0.999950 -69.55 0.009053 -159.5
8.71640000 0.009059 -159.6 0.999950 -69.55 0.999950 -69.55 0.009059 -159.5
8.71650000 0.009065 -159.6 0.999950 -69.55 0.999950 -69.55 0.009065 -159.5
8.71660000 0.009071 -159.6 0.999950 -69.55 0.999950 -69.55 0.009072 -159.5
8.71670000 0.009078 -159.6 0.999950 -69.55 0.999950 -69.55 0.009078 -159.5
8.71680000 0.009084 -159.6 0.999950 -69.55 0.999950 -69.55 0.009084 -159.5
8.71690000 0.009090 -159.6 0.999949 -69.55 0.999949 -69.55 0.009090 -159.5
8.71700000 0.009096 -159.6 0.999949 -69.55 0.999949 -69.55 0.009096 -159.5
8.71710000 0.009102 -159.6 0.999949 -69.55 0.999949 -69.55 0.009102 -159.5
8.71720000 0.009108 -159.6 0.999949 -69.56 0.999949 -69.56 0.009108 -159.5
8.71730000 0.009114 -159.6 0.999949 -69.56 0.999949 -69.56 0.009115 -159.5
8.71740000 0.009121 -159.6 0.999949 -69.56 0.999949 -69.56 0.009121 -159.5
8.71750000 0.009127 -159.6 0.999949 -69.56 0.999949 -69.56 0.009127 -159.5
8.71760000 0.009133 -159.6 0.999949 -69.56 0.999949 -69.56 0.009133 -159.5
8.71770000 0.009139 -159.6 0.999949 -69.56 0.999949 -69.56 0.009139 -159.5
8.71780000 0.009145 -159.6 0.999949 -69.56 0.999949 -69.56 0.009145 -159.5
8.71790000 0.009152 -159.6 0.999949 -69.56 0.999949 -69.56 0.009152 -159.5
8.71800000 0.009158 -159.6 0.999949 -69.56 0.999949 -69.56 0.009158 -159.5
8.71810000 0.009164 -159.6 0.999949 -69.57 0.999949 -69.57 0.009164 -159.5
8.71820000 0.009170 -159.6 0.999949 -69.57 0.999949 -69.57 0.009170 -159.5
8.71830000 0.009176 -159.6 0.999949 -69.57 0.999949 -69.57 0.009176 -159.5
8.71840000 0.009183 -159.6 0.999949 -69.57 0.999949 -69.57 0.009183 -159.5
8.71850000 0.009189 -159.6 0.999949 -69.57 0.999949 -69.57 0.009189 -159.5
8.71860000 0.009195 -159.6 0.999948 -69.57 0.999948 -69.57 0.009195 -159.5
8.71870000 0.009201 -159.6 0.999948 -69.57 0.999948 -69.57 0.009201 -159.5
8.71880000 0.009208 -159.6 0.999948 -69.57 0.999948 -69.57 0.009208 -159.5
8.71890000 0.009214 -159.6 0.999948 -69.58 0.999948 -69.58 0.009214 -159.5
8.71900000 0.009220 -159.6 0.999948 -69.58 0.999948 -69.58 0.009220 -159.5
8.71910000 0.009226 -159.6 0.999948 -69.58 0.999948 -69.58 0.009226 -159.5
8.71920000 0.009233 -159.6 0.999948 -69.58 0.999948 -69.58 0.009233 -159.5
8.71930000 0.009239 -159.6 0.999948 -69.58 0.999948 -69.58 0.009239 -159.5
8.71940000 0.009245 -159.6 0.999948 -69.58 0.999948 -69.58 0.009245 -159.5
8.71950000 0.009252 -159.6 0.999948 -69.58 0.999948 -69.58 0.009252 -159.5
8.71960000 0.009258 -159.6 0.999948 -69.58 0.999948 -69.58 0.009258 -159.5
8.71970000 0.009264 -159.6 0.999948 -69.58 0.999948 -69.58 0.009264 -159.5
8.71980000 0.009271 -159.6 0.999948 -69.59 0.999948 -69.59 0.009271 -159.5
8.71990000 0.009277 -159.6 0.999948 -69.59 0.999948 -69.59 0.009277 -159.5
8.72000000 0.009283 -159.6 0.999948 -69.59 0.999948 -69.59 0.009283 -159.5
8.72010000 0.009290 -159.6 0.999948 -69.59 0.999948 -69.59 0.009290 -159.5
8.72020000 0.009296 -159.6 0.999947 -69.59 0.999947 -69.59 0.009296 -159.5
8.72030000 0.009302 -159.6 0.999947 -69.59 0.999947 -69.59 0.009302 -159.5
8.72040000 0.009309 -159.6 0.999947 -69.59 0.999947 -69.59 0.009309 -159.5
8.72050000 0.009315 -159.6 0.999947 -69.59 0.999947 -69.59 0.009315 -159.5
8.72060000 0.009321 -159.6 0.999947 -69.59 0.999947 -69.59 0.009321 -159.5
8.72070000 0.009328 -159.6 0.999947 -69.60 0.999947 -69.60 0.009328 -159.5
8.72080000 0.009334 -159.6 0.999947 -69.60 0.999947 -69.60 0.009334 -159.5
8.72090000 0.009341 -159.6 0.999947 -69.60 0.999947 -69.60 0.009341 -159.5
8.72100000 0.009347 -159.6 0.999947 -69.60 0.999947 -69.60 0.009347 -159.5
8.72110000 0.009353 -159.6 0.999947 -69.60 0.999947 -69.60 0.009353 -159.5
8.72120000 0.009360 -159.6 0.999947 -69.60 0.999947 -69.60 0.009360 -159.5
8.72130000 0.009366 -159.6 0.999947 -69.60 0.999947 -69.60 0.009366 -159.5
8.72140000 0.009373 -159.6 0.999947 -69.60 0.999947 -69.60 0.009373 -159.5
8.72150000 0.009379 -159.6 0.999947 -69.61 0.999947 -69.61 0.009379 -159.5
8.72160000 0.009386 -159.6 0.999947 -69.61 0.999947 -69.61 0.009386 -159.5
8.72170000 0.009392 -159.6 0.999947 -69.61 0.999947 -69.61 0.009392 -159.5
8.72180000 0.009398 -159.6 0.999947 -69.61 0.999947 -69.61 0.009399 -159.5
8.72190000 0.009405 -159.6 0.999946 -69.61 0.999946 -69.61 0.009405 -159.5
8.72200000 0.009411 -159.6 0.999946 -69.61 0.999946 -69.61 0.009411 -159.5
8.72210000 0.009418 -159.6 0.999946 -69.61 0.999946 -69.61 0.009418 -159.5
8.72220000 0.009424 -159.7 0.999946 -69.61 0.999946 -69.61 0.009424 -159.5
8.72230000 0.009431 -159.7 0.999946 -69.61 0.999946 -69.61 0.009431 -159.5
8.72240000 0.009437 -159.7 0.999946 -69.62 0.999946 -69.62 0.009437 -159.5
8.72250000 0.009444 -159.7 0.999946 -69.62 0.999946 -69.62 0.009444 -159.5
8.72260000 0.009450 -159.7 0.999946 -69.62 0.999946 -69.62 0.009450 -159.5
8.72270000 0.009457 -159.7 0.999946 -69.62 0.999946 -69.62 0.009457 -159.5
8.72280000 0.009463 -159.7 0.999946 -69.62 0.999946 -69.62 0.009464 -159.5
8.72290000 0.009470 -159.7 0.999946 -69.62 0.999946 -69.62 0.009470 -159.5
8.72300000 0.009477 -159.7 0.999946 -69.62 0.999946 -69.62 0.009477 -159.6
8.72310000 0.009483 -159.7 0.999946 -69.62 0.999946 -69.62 0.009483 -159.6
8.72320000 0.009490 -159.7 0.999946 -69.63 0.999946 -69.63 0.009490 -159.6
8.72330000 0.009496 -159.7 0.999946 -69.63 0.999946 -69.63 0.009496 -159.6
8.72340000 0.009503 -159.7 0.999945 -69.63 0.999945 -69.63 0.009503 -159.6
8.72350000 0.009509 -159.7 0.999945 -69.63 0.999945 -69.63 0.009509 -159.6
8.72360000 0.009516 -159.7 0.999945 -69.63 0.999945 -69.63 0.009516 -159.6
8.72370000 0.009523 -159.7 0.999945 -69.63 0.999945 -69.63 0.009523 -159.6
8.72380000 0.009529 -159.7 0.999945 -69.63 0.999945 -69.63 0.009529 -159.6
8.72390000 0.009536 -159.7 0.999945 -69.63 0.999945 -69.63 0.009536 -159.6
8.72400000 0.009542 -159.7 0.999945 -69.63 0.999945 -69.63 0.009543 -159.6
8.72410000 0.009549 -159.7 0.999945 -69.64 0.999945 -69.64 0.009549 -159.6
8.72420000 0.009556 -159.7 0.999945 -69.64 0.999945 -69.64 0.009556 -159.6
8.72430000 0.009562 -159.7 0.999945 -69.64 0.999945 -69.64 0.009562 -159.6
8.72440000 0.009569 -159.7 0.999945 -69.64 0.999945 -69.64 0.009569 -159.6
8.72450000 0.009576 -159.7 0.999945 -69.64 0.999945 -69.64 0.009576 -159.6
8.72460000 0.009582 -159.7 0.999945 -69.64 0.999945 -69.64 0.009582 -159.6
8.72470000 0.009589 -159.7 0.999945 -69.64 0.999945 -69.64 0.009589 -159.6
8.72480000 0.009596 -159.7 0.999945 -69.64 0.999945 -69.64 0.009596 -159.6
8.72490000 0.009602 -159.7 0.999945 -69.65 0.999945 -69.65 0.009602 -159.6
8.72500000 0.009609 -159.7 0.999944 -69.65 0.999944 -69.65 0.009609 -159.6
8.72510000 0.009616 -159.7 0.999944 -69.65 0.999944 -69.65 0.009616 -159.6
8.72520000 0.009622 -159.7 0.999944 -69.65 0.999944 -69.65 0.009623 -159.6
8.72530000 0.009629 -159.7 0.999944 -69.65 0.999944 -69.65 0.009629 -159.6
8.72540000 0.009636 -159.7 0.999944 -69.65 0.999944 -69.65 0.009636 -159.6
8.72550000 0.009643 -159.7 0.999944 -69.65 0.999944 -69.65 0.009643 -159.6
8.72560000 0.009649 -159.7 0.999944 -69.65 0.999944 -69.65 0.009649 -159.6
8.72570000 0.009656 -159.7 0.999944 -69.65 0.999944 -69.65 0.009656 -159.6
8.72580000 0.009663 -159.7 0.999944 -69.66 0.999944 -69.66 0.009663 -159.6
8.72590000 0.009670 -159.7 0.999944 -69.66 0.999944 -69.66 0.009670 -159.6
8.72600000 0.009676 -159.7 0.999944 -69.66 0.999944 -69.66 0.009676 -159.6
8.72610000 0.009683 -159.7 0.999944 -69.66 0.999944 -69.66 0.009683 -159.6
8.72620000 0.009690 -159.7 0.999944 -69.66 0.999944 -69.66 0.009690 -159.6
8.72630000 0.009697 -159.7 0.999944 -69.66 0.999944 -69.66 0.009697 -159.6
8.72640000 0.009704 -159.7 0.999943 -69.66 0.999943 -69.66 0.009704 -159.6
8.72650000 0.009710 -159.7 0.999943 -69.66 0.999943 -69.66 0.009710 -159.6
8.72660000 0.009717 -159.7 0.999943 -69.67 0.999943 -69.67 0.009717 -159.6
8.72670000 0.009724 -159.7 0.999943 -69.67 0.999943 -69.67 0.009724 -159.6
8.72680000 0.009731 -159.7 0.999943 -69.67 0.999943 -69.67 0.009731 -159.6
8.72690000 0.009738 -159.7 0.999943 -69.67 0.999943 -69.67 0.009738 -159.6
8.72700000 0.009744 -159.7 0.999943 -69.67 0.999943 -69.67 0.009745 -159.6
8.72710000 0.009751 -159.7 0.999943 -69.67 0.999943 -69.67 0.009751 -159.6
8.72720000 0.009758 -159.7 0.999943 -69.67 0.999943 -69.67 0.009758 -159.6
8.72730000 0.009765 -159.7 0.999943 -69.67 0.999943 -69.67 0.009765 -159.6
8.72740000 0.009772 -159.7 0.999943 -69.67 0.999943 -69.67 0.009772 -159.6
8.72750000 0.009779 -159.7 0.999943 -69.68 0.999943 -69.68 0.009779 -159.6
8.72760000 0.009786 -159.7 0.999943 -69.68 0.999943 -69.68 0.009786 -159.6
8.72770000 0.009793 -159.7 0.999943 -69.68 0.999943 -69.68 0.009793 -159.6
8.72780000 0.009799 -159.7 0.999943 -69.68 0.999943 -69.68 0.009800 -159.6
8.72790000 0.009806 -159.7 0.999942 -69.68 0.999942 -69.68 0.009806 -159.6
8.72800000 0.009813 -159.7 0.999942 -69.68 0.999942 -69.68 0.009813 -159.6
8.72810000 0.009820 -159.7 0.999942 -69.68 0.999942 -69.68 0.009820 -159.6
8.72820000 0.009827 -159.7 0.999942 -69.68 0.999942 -69.68 0.009827 -159.6
8.72830000 0.009834 -159.7 0.999942 -69.69 0.999942 -69.69 0.009834 -159.6
8.72840000 0.009841 -159.7 0.999942 -69.69 0.999942 -69.69 0.009841 -159.6
8.72850000 0.009848 -159.7 0.999942 -69.69 0.999942 -69.69 0.009848 -159.6
8.72860000 0.009855 -159.7 0.999942 -69.69 0.999942 -69.69 0.009855 -159.6
8.72870000 0.009862 -159.7 0.999942 -69.69 0.999942 -69.69 0.009862 -159.6
8.72880000 0.009869 -159.7 0.999942 -69.69 0.999942 -69.69 0.009869 -159.6
8.72890000 0.009876 -159.7 0.999942 -69.69 0.999942 -69.69 0.009876 -159.6
8.72900000 0.009883 -159.7 0.999942 -69.69 0.999942 -69.69 0.009883 -159.6
8.72910000 0.009890 -159.7 0.999942 -69.69 0.999942 -69.69 0.009890 -159.6
8.72920000 0.009897 -159.7 0.999942 -69.70 0.999942 -69.70 0.009897 -159.6
8.72930000 0.009904 -159.7 0.999941 -69.70 0.999941 -69.70 0.009904 -159.6
8.72940000 0.009911 -159.7 0.999941 -69.70 0.999941 -69.70 0.009911 -159.6
8.72950000 0.009918 -159.7 0.999941 -69.70 0.999941 -69.70 0.009918 -159.6
8.72960000 0.009925 -159.7 0.999941 -69.70 0.999941 -69.70 0.009925 -159.6
8.72970000 0.009932 -159.7 0.999941 -69.70 0.999941 -69.70 0.009932 -159.6
8.72980000 0.009939 -159.7 0.999941 -69.70 0.999941 -69.70 0.009939 -159.6
8.72990000 0.009946 -159.7 0.999941 -69.70 0.999941 -69.70 0.009946 -159.6
8.73000000 0.009953 -159.7 0.999941 -69.71 0.999941 -69.71 0.009953 -159.6
8.73010000 0.009960 -159.7 0.999941 -69.71 0.999941 -69.71 0.009961 -159.6
8.73020000 0.009968 -159.7 0.999941 -69.71 0.999941 -69.71 0.009968 -159.6
8.73030000 0.009975 -159.7 0.999941 -69.71 0.999941 -69.71 0.009975 -159.7
8.73040000 0.009982 -159.7 0.999941 -69.71 0.999941 -69.71 0.009982 -159.7
8.73050000 0.009989 -159.7 0.999941 -69.71 0.999941 -69.71 0.009989 -159.7
8.73060000 0.009996 -159.7 0.999941 -69.71 0.999941 -69.71 0.009996 -159.7
8.73070000 0.010003 -159.7 0.999940 -69.71 0.999940 -69.71 0.010003 -159.7
8.73080000 0.010010 -159.7 0.999940 -69.72 0.999940 -69.72 0.010010 -159.7
8.73090000 0.010017 -159.7 0.999940 -69.72 0.999940 -69.72 0.010017 -159.7
8.73100000 0.010025 -159.7 0.999940 -69.72 0.999940 -69.72 0.010025 -159.7
8.73110000 0.010032 -159.7 0.999940 -69.72 0.999940 -69.72 0.010032 -159.7
8.73120000 0.010039 -159.7 0.999940 -69.72 0.999940 -69.72 0.010039 -159.7
8.73130000 0.010046 -159.7 0.999940 -69.72 0.999940 -69.72 0.010046 -159.7
8.73140000 0.010053 -159.7 0.999940 -69.72 0.999940 -69.72 0.010053 -159.7
8.73150000 0.010061 -159.7 0.999940 -69.72 0.999940 -69.72 0.010061 -159.7
8.73160000 0.010068 -159.7 0.999940 -69.72 0.999940 -69.72 0.010068 -159.7
8.73170000 0.010075 -159.7 0.999940 -69.73 0.999940 -69.73 0.010075 -159.7
8.73180000 0.010082 -159.7 0.999940 -69.73 0.999940 -69.73 0.010082 -159.7
8.73190000 0.010089 -159.8 0.999940 -69.73 0.999940 -69.73 0.010089 -159.7
8.73200000 0.010097 -159.8 0.999939 -69.73 0.999939 -69.73 0.010097 -159.7
8.73210000 0.010104 -159.8 0.999939 -69.73 0.999939 -69.73 0.010104 -159.7
8.73220000 0.010111 -159.8 0.999939 -69.73 0.999939 -69.73 0.010111 -159.7
8.73230000 0.010118 -159.8 0.999939 -69.73 0.999939 -69.73 0.010118 -159.7
8.73240000 0.010126 -159.8 0.999939 -69.73 0.999939 -69.73 0.010126 -159.7
8.73250000 0.010133 -159.8 0.999939 -69.74 0.999939 -69.74 0.010133 -159.7
8.73260000 0.010140 -159.8 0.999939 -69.74 0.999939 -69.74 0.010140 -159.7
8.73270000 0.010148 -159.8 0.999939 -69.74 0.999939 -69.74 0.010148 -159.7
8.73280000 0.010155 -159.8 0.999939 -69.74 0.999939 -69.74 0.010155 -159.7
8.73290000 0.010162 -159.8 0.999939 -69.74 0.999939 -69.74 0.010162 -159.7
8.73300000 0.010170 -159.8 0.999939 -69.74 0.999939 -69.74 0.010170 -159.7
8.73310000 0.010177 -159.8 0.999939 -69.74 0.999939 -69.74 0.010177 -159.7
8.73320000 0.010184 -159.8 0.999939 -69.74 0.999939 -69.74 0.010184 -159.7
8.73330000 0.010192 -159.8 0.999938 -69.75 0.999938 -69.75 0.010192 -159.7
8.73340000 0.010199 -159.8 0.999938 -69.75 0.999938 -69.75 0.010199 -159.7
8.73350000 0.010206 -159.8 0.999938 -69.75 0.999938 -69.75 0.010206 -159.7
8.73360000 0.010214 -159.8 0.999938 -69.75 0.999938 -69.75 0.010214 -159.7
8.73370000 0.010221 -159.8 0.999938 -69.75 0.999938 -69.75 0.010221 -159.7
8.73380000 0.010228 -159.8 0.999938 -69.75 0.999938 -69.75 0.010229 -159.7
8.73390000 0.010236 -159.8 0.999938 -69.75 0.999938 -69.75 0.010236 -159.7
8.73400000 0.010243 -159.8 0.999938 -69.75 0.999938 -69.75 0.010243 -159.7
8.73410000 0.010251 -159.8 0.999938 -69.76 0.999938 -69.76 0.010251 -159.7
8.73420000 0.010258 -159.8 0.999938 -69.76 0.999938 -69.76 0.010258 -159.7
8.73430000 0.010266 -159.8 0.999938 -69.76 0.999938 -69.76 0.010266 -159.7
8.73440000 0.010273 -159.8 0.999938 -69.76 0.999938 -69.76 0.010273 -159.7
8.73450000 0.010280 -159.8 0.999938 -69.76 0.999938 -69.76 0.010281 -159.7
8.73460000 0.010288 -159.8 0.999937 -69.76 0.999937 -69.76 0.010288 -159.7
8.73470000 0.010295 -159.8 0.999937 -69.76 0.999937 -69.76 0.010295 -159.7
8.73480000 0.010303 -159.8 0.999937 -69.76 0.999937 -69.76 0.010303 -159.7
8.73490000 0.010310 -159.8 0.999937 -69.76 0.999937 -69.76 0.010310 -159.7
8.73500000 0.010318 -159.8 0.999937 -69.77 0.999937 -69.77 0.010318 -159.7
8.73510000 0.010325 -159.8 0.999937 -69.77 0.999937 -69.77 0.010325 -159.7
8.73520000 0.010333 -159.8 0.999937 -69.77 0.999937 -69.77 0.010333 -159.7
8.73530000 0.010340 -159.8 0.999937 -69.77 0.999937 -69.77 0.010341 -159.7
8.73540000 0.010348 -159.8 0.999937 -69.77 0.999937 -69.77 0.010348 -159.7
8.73550000 0.010356 -159.8 0.999937 -69.77 0.999937 -69.77 0.010356 -159.7
8.73560000 0.010363 -159.8 0.999937 -69.77 0.999937 -69.77 0.010363 -159.7
8.73570000 0.010371 -159.8 0.999937 -69.77 0.999937 -69.77 0.010371 -159.7
8.73580000 0.010378 -159.8 0.999937 -69.78 0.999937 -69.78 0.010378 -159.7
8.73590000 0.010386 -159.8 0.999936 -69.78 0.999936 -69.78 0.010386 -159.7
8.73600000 0.010393 -159.8 0.999936 -69.78 0.999936 -69.78 0.010393 -159.7
8.73610000 0.010401 -159.8 0.999936 -69.78 0.999936 -69.78 0.010401 -159.7
8.73620000 0.010409 -159.8 0.999936 -69.78 0.999936 -69.78 0.010409 -159.7
8.73630000 0.010416 -159.8 0.999936 -69.78 0.999936 -69.78 0.010416 -159.7
8.73640000 0.010424 -159.8 0.999936 -69.78 0.999936 -69.78 0.010424 -159.7
8.73650000 0.010431 -159.8 0.999936 -69.78 0.999936 -69.78 0.010432 -159.7
8.73660000 0.010439 -159.8 0.999936 -69.79 0.999936 -69.79 0.010439 -159.7
8.73670000 0.010447 -159.8 0.999936 -69.79 0.999936 -69.79 0.010447 -159.7
8.73680000 0.010454 -159.8 0.999936 -69.79 0.999936 -69.79 0.010454 -159.7
8.73690000 0.010462 -159.8 0.999936 -69.79 0.999936 -69.79 0.010462 -159.7
8.73700000 0.010470 -159.8 0.999936 -69.79 0.999936 -69.79 0.010470 -159.7
8.73710000 0.010477 -159.8 0.999935 -69.79 0.999935 -69.79 0.010478 -159.7
8.73720000 0.010485 -159.8 0.999935 -69.79 0.999935 -69.79 0.010485 -159.7
8.73730000 0.010493 -159.8 0.999935 -69.79 0.999935 -69.79 0.010493 -159.7
8.73740000 0.010501 -159.8 0.999935 -69.80 0.999935 -69.80 0.010501 -159.8
8.73750000 0.010508 -159.8 0.999935 -69.80 0.999935 -69.80 0.010508 -159.8
8.73760000 0.010516 -159.8 0.999935 -69.80 0.999935 -69.80 0.010516 -159.8
8.73770000 0.010524 -159.8 0.999935 -69.80 0.999935 -69.80 0.010524 -159.8
8.73780000 0.010532 -159.8 0.999935 -69.80 0.999935 -69.80 0.010532 -159.8
8.73790000 0.010539 -159.8 0.999935 -69.80 0.999935 -69.80 0.010539 -159.8
8.73800000 0.010547 -159.8 0.999935 -69.80 0.999935 -69.80 0.010547 -159.8
8.73810000 0.010555 -159.8 0.999935 -69.80 0.999935 -69.80 0.010555 -159.8
8.73820000 0.010563 -159.8 0.999935 -69.81 0.999935 -69.81 0.010563 -159.8
8.73830000 0.010570 -159.8 0.999934 -69.81 0.999934 -69.81 0.010571 -159.8
8.73840000 0.010578 -159.8 0.999934 -69.81 0.999934 -69.81 0.010578 -159.8
8.73850000 0.010586 -159.8 0.999934 -69.81 0.999934 -69.81 0.010586 -159.8
8.73860000 0.010594 -159.8 0.999934 -69.81 0.999934 -69.81 0.010594 -159.8
8.73870000 0.010602 -159.8 0.999934 -69.81 0.999934 -69.81 0.010602 -159.8
8.73880000 0.010610 -159.8 0.999934 -69.81 0.999934 -69.81 0.010610 -159.8
8.73890000 0.010617 -159.8 0.999934 -69.81 0.999934 -69.81 0.010618 -159.8
8.73900000 0.010625 -159.8 0.999934 -69.82 0.999934 -69.82 0.010625 -159.8
8.73910000 0.010633 -159.8 0.999934 -69.82 0.999934 -69.82 0.010633 -159.8
8.73920000 0.010641 -159.8 0.999934 -69.82 0.999934 -69.82 0.010641 -159.8