! Sonnet Data File
! From: emgraph Version : 16.52
! From Project: Qubit_Test_beforeopt
! Data is De-embedded 
! Data File Written: 10/18/2017 20:39:12
!< HDATE 10/18/2017 18:14:34
!< MDATE 10/18/2017 18:14:34
!< PARAMS
!< Lj = 11.0
!< Gap = 26.0
!< Pwid = 2000.0
!< Airgap = 12.0
!< Width = 20.0
!< END PARAMS
# GHZ S MA R 51.80000
8.79000000 0.021618 -171.1 0.999755 -80.72 0.999755 -80.72 0.021617 -170.4
!< P1 F=8.79 Eeff=(6.4461688 -2.9978e-5) Z0=(50.9065254 1.15671e-4) R=0.0 C=0.0 
!< P2 F=8.79 Eeff=(6.4461688 -2.9978e-5) Z0=(50.9065254 1.15671e-4) R=0.0 C=0.0 
8.79001000 0.021622 -171.1 0.999755 -80.72 0.999755 -80.72 0.021622 -170.4
8.79002000 0.021627 -171.1 0.999755 -80.72 0.999755 -80.72 0.021626 -170.4
8.79003000 0.021631 -171.1 0.999755 -80.72 0.999755 -80.72 0.021630 -170.4
8.79004000 0.021635 -171.1 0.999755 -80.72 0.999755 -80.72 0.021635 -170.4
8.79005000 0.021640 -171.1 0.999754 -80.72 0.999754 -80.72 0.021639 -170.4
8.79006000 0.021644 -171.1 0.999754 -80.72 0.999754 -80.72 0.021644 -170.4
8.79007000 0.021649 -171.1 0.999754 -80.72 0.999754 -80.72 0.021648 -170.4
8.79008000 0.021653 -171.1 0.999754 -80.72 0.999754 -80.72 0.021653 -170.4
8.79009000 0.021658 -171.1 0.999754 -80.72 0.999754 -80.72 0.021657 -170.4
8.79010000 0.021662 -171.1 0.999754 -80.72 0.999754 -80.72 0.021661 -170.4
8.79011000 0.021666 -171.1 0.999754 -80.72 0.999754 -80.72 0.021666 -170.4
8.79012000 0.021671 -171.1 0.999754 -80.72 0.999754 -80.72 0.021670 -170.4
8.79013000 0.021675 -171.1 0.999754 -80.72 0.999754 -80.72 0.021675 -170.4
8.79014000 0.021680 -171.1 0.999753 -80.72 0.999753 -80.72 0.021679 -170.4
8.79015000 0.021684 -171.1 0.999753 -80.72 0.999753 -80.72 0.021684 -170.4
8.79016000 0.021689 -171.1 0.999753 -80.72 0.999753 -80.72 0.021688 -170.4
8.79017000 0.021693 -171.1 0.999753 -80.72 0.999753 -80.72 0.021693 -170.4
8.79018000 0.021698 -171.1 0.999753 -80.73 0.999753 -80.73 0.021697 -170.4
8.79019000 0.021702 -171.1 0.999753 -80.73 0.999753 -80.73 0.021702 -170.4
8.79020000 0.021707 -171.1 0.999753 -80.73 0.999753 -80.73 0.021706 -170.4
8.79021000 0.021711 -171.1 0.999753 -80.73 0.999753 -80.73 0.021711 -170.4
8.79022000 0.021716 -171.1 0.999753 -80.73 0.999753 -80.73 0.021715 -170.4
8.79023000 0.021720 -171.1 0.999752 -80.73 0.999752 -80.73 0.021720 -170.4
8.79024000 0.021725 -171.1 0.999752 -80.73 0.999752 -80.73 0.021724 -170.4
8.79025000 0.021730 -171.1 0.999752 -80.73 0.999752 -80.73 0.021729 -170.4
8.79026000 0.021734 -171.1 0.999752 -80.73 0.999752 -80.73 0.021734 -170.4
8.79027000 0.021739 -171.1 0.999752 -80.73 0.999752 -80.73 0.021738 -170.4
8.79028000 0.021743 -171.1 0.999752 -80.73 0.999752 -80.73 0.021743 -170.4
8.79029000 0.021748 -171.1 0.999752 -80.73 0.999752 -80.73 0.021747 -170.4
8.79030000 0.021752 -171.1 0.999752 -80.73 0.999752 -80.73 0.021752 -170.4
8.79031000 0.021757 -171.1 0.999751 -80.73 0.999751 -80.73 0.021757 -170.4
8.79032000 0.021762 -171.1 0.999751 -80.73 0.999751 -80.73 0.021761 -170.4
8.79033000 0.021766 -171.1 0.999751 -80.73 0.999751 -80.73 0.021766 -170.4
8.79034000 0.021771 -171.1 0.999751 -80.73 0.999751 -80.73 0.021770 -170.4
8.79035000 0.021776 -171.1 0.999751 -80.73 0.999751 -80.73 0.021775 -170.4
8.79036000 0.021780 -171.1 0.999751 -80.73 0.999751 -80.73 0.021780 -170.4
8.79037000 0.021785 -171.1 0.999751 -80.73 0.999751 -80.73 0.021784 -170.4
8.79038000 0.021790 -171.1 0.999751 -80.73 0.999751 -80.73 0.021789 -170.4
8.79039000 0.021794 -171.1 0.999751 -80.73 0.999751 -80.73 0.021794 -170.4
8.79040000 0.021799 -171.1 0.999750 -80.73 0.999750 -80.73 0.021798 -170.4
8.79041000 0.021804 -171.1 0.999750 -80.73 0.999750 -80.73 0.021803 -170.4
8.79042000 0.021808 -171.1 0.999750 -80.73 0.999750 -80.73 0.021808 -170.4
8.79043000 0.021813 -171.1 0.999750 -80.73 0.999750 -80.73 0.021812 -170.4
8.79044000 0.021818 -171.1 0.999750 -80.73 0.999750 -80.73 0.021817 -170.4
8.79045000 0.021822 -171.1 0.999750 -80.73 0.999750 -80.73 0.021822 -170.4
8.79046000 0.021827 -171.1 0.999750 -80.74 0.999750 -80.74 0.021827 -170.4
8.79047000 0.021832 -171.1 0.999750 -80.74 0.999750 -80.74 0.021831 -170.4
8.79048000 0.021837 -171.1 0.999749 -80.74 0.999749 -80.74 0.021836 -170.4
8.79049000 0.021841 -171.1 0.999749 -80.74 0.999749 -80.74 0.021841 -170.4
8.79050000 0.021846 -171.1 0.999749 -80.74 0.999749 -80.74 0.021846 -170.4
8.79051000 0.021851 -171.1 0.999749 -80.74 0.999749 -80.74 0.021850 -170.4
8.79052000 0.021856 -171.1 0.999749 -80.74 0.999749 -80.74 0.021855 -170.4
8.79053000 0.021860 -171.1 0.999749 -80.74 0.999749 -80.74 0.021860 -170.4
8.79054000 0.021865 -171.1 0.999749 -80.74 0.999749 -80.74 0.021865 -170.4
8.79055000 0.021870 -171.1 0.999749 -80.74 0.999749 -80.74 0.021869 -170.4
8.79056000 0.021875 -171.1 0.999749 -80.74 0.999749 -80.74 0.021874 -170.4
8.79057000 0.021880 -171.1 0.999748 -80.74 0.999748 -80.74 0.021879 -170.4
8.79058000 0.021885 -171.1 0.999748 -80.74 0.999748 -80.74 0.021884 -170.4
8.79059000 0.021889 -171.1 0.999748 -80.74 0.999748 -80.74 0.021889 -170.4
8.79060000 0.021894 -171.1 0.999748 -80.74 0.999748 -80.74 0.021894 -170.4
8.79061000 0.021899 -171.1 0.999748 -80.74 0.999748 -80.74 0.021898 -170.4
8.79062000 0.021904 -171.1 0.999748 -80.74 0.999748 -80.74 0.021903 -170.4
8.79063000 0.021909 -171.1 0.999748 -80.74 0.999748 -80.74 0.021908 -170.4
8.79064000 0.021914 -171.1 0.999748 -80.74 0.999748 -80.74 0.021913 -170.4
8.79065000 0.021919 -171.1 0.999747 -80.74 0.999747 -80.74 0.021918 -170.4
8.79066000 0.021923 -171.1 0.999747 -80.74 0.999747 -80.74 0.021923 -170.4
8.79067000 0.021928 -171.1 0.999747 -80.74 0.999747 -80.74 0.021928 -170.4
8.79068000 0.021933 -171.1 0.999747 -80.74 0.999747 -80.74 0.021933 -170.4
8.79069000 0.021938 -171.1 0.999747 -80.74 0.999747 -80.74 0.021938 -170.4
8.79070000 0.021943 -171.1 0.999747 -80.74 0.999747 -80.74 0.021943 -170.4
8.79071000 0.021948 -171.1 0.999747 -80.74 0.999747 -80.74 0.021947 -170.4
8.79072000 0.021953 -171.1 0.999747 -80.74 0.999747 -80.74 0.021952 -170.4
8.79073000 0.021958 -171.1 0.999746 -80.75 0.999746 -80.75 0.021957 -170.4
8.79074000 0.021963 -171.1 0.999746 -80.75 0.999746 -80.75 0.021962 -170.4
8.79075000 0.021968 -171.1 0.999746 -80.75 0.999746 -80.75 0.021967 -170.4
8.79076000 0.021973 -171.1 0.999746 -80.75 0.999746 -80.75 0.021972 -170.4
8.79077000 0.021978 -171.1 0.999746 -80.75 0.999746 -80.75 0.021977 -170.4
8.79078000 0.021983 -171.1 0.999746 -80.75 0.999746 -80.75 0.021982 -170.4
8.79079000 0.021988 -171.1 0.999746 -80.75 0.999746 -80.75 0.021987 -170.4
8.79080000 0.021993 -171.1 0.999746 -80.75 0.999746 -80.75 0.021992 -170.4
8.79081000 0.021998 -171.1 0.999745 -80.75 0.999745 -80.75 0.021997 -170.4
8.79082000 0.022003 -171.1 0.999745 -80.75 0.999745 -80.75 0.022002 -170.4
8.79083000 0.022008 -171.1 0.999745 -80.75 0.999745 -80.75 0.022007 -170.4
8.79084000 0.022013 -171.1 0.999745 -80.75 0.999745 -80.75 0.022012 -170.4
8.79085000 0.022018 -171.1 0.999745 -80.75 0.999745 -80.75 0.022018 -170.4
8.79086000 0.022023 -171.1 0.999745 -80.75 0.999745 -80.75 0.022023 -170.4
8.79087000 0.022028 -171.1 0.999745 -80.75 0.999745 -80.75 0.022028 -170.4
8.79088000 0.022033 -171.1 0.999745 -80.75 0.999745 -80.75 0.022033 -170.4
8.79089000 0.022039 -171.1 0.999744 -80.75 0.999744 -80.75 0.022038 -170.4
8.79090000 0.022044 -171.1 0.999744 -80.75 0.999744 -80.75 0.022043 -170.4
8.79091000 0.022049 -171.1 0.999744 -80.75 0.999744 -80.75 0.022048 -170.4
8.79092000 0.022054 -171.1 0.999744 -80.75 0.999744 -80.75 0.022053 -170.4
8.79093000 0.022059 -171.1 0.999744 -80.75 0.999744 -80.75 0.022058 -170.4
8.79094000 0.022064 -171.1 0.999744 -80.75 0.999744 -80.75 0.022064 -170.4
8.79095000 0.022069 -171.1 0.999744 -80.75 0.999744 -80.75 0.022069 -170.4
8.79096000 0.022074 -171.1 0.999743 -80.75 0.999743 -80.75 0.022074 -170.4
8.79097000 0.022080 -171.1 0.999743 -80.75 0.999743 -80.75 0.022079 -170.4
8.79098000 0.022085 -171.1 0.999743 -80.75 0.999743 -80.75 0.022084 -170.5
8.79099000 0.022090 -171.1 0.999743 -80.76 0.999743 -80.76 0.022089 -170.5
8.79100000 0.022095 -171.1 0.999743 -80.76 0.999743 -80.76 0.022095 -170.5
8.79101000 0.022100 -171.1 0.999743 -80.76 0.999743 -80.76 0.022100 -170.5
8.79102000 0.022106 -171.1 0.999743 -80.76 0.999743 -80.76 0.022105 -170.5
8.79103000 0.022111 -171.1 0.999743 -80.76 0.999743 -80.76 0.022110 -170.5
8.79104000 0.022116 -171.1 0.999742 -80.76 0.999742 -80.76 0.022115 -170.5
8.79105000 0.022121 -171.1 0.999742 -80.76 0.999742 -80.76 0.022121 -170.5
8.79106000 0.022127 -171.1 0.999742 -80.76 0.999742 -80.76 0.022126 -170.5
8.79107000 0.022132 -171.1 0.999742 -80.76 0.999742 -80.76 0.022131 -170.5
8.79108000 0.022137 -171.1 0.999742 -80.76 0.999742 -80.76 0.022137 -170.5
8.79109000 0.022142 -171.1 0.999742 -80.76 0.999742 -80.76 0.022142 -170.5
8.79110000 0.022148 -171.1 0.999742 -80.76 0.999742 -80.76 0.022147 -170.5
8.79111000 0.022153 -171.1 0.999741 -80.76 0.999741 -80.76 0.022152 -170.5
8.79112000 0.022158 -171.1 0.999741 -80.76 0.999741 -80.76 0.022158 -170.5
8.79113000 0.022164 -171.1 0.999741 -80.76 0.999741 -80.76 0.022163 -170.5
8.79114000 0.022169 -171.1 0.999741 -80.76 0.999741 -80.76 0.022168 -170.5
8.79115000 0.022174 -171.1 0.999741 -80.76 0.999741 -80.76 0.022174 -170.5
8.79116000 0.022180 -171.1 0.999741 -80.76 0.999741 -80.76 0.022179 -170.5
8.79117000 0.022185 -171.1 0.999741 -80.76 0.999741 -80.76 0.022184 -170.5
8.79118000 0.022191 -171.1 0.999741 -80.76 0.999741 -80.76 0.022190 -170.5
8.79119000 0.022196 -171.1 0.999740 -80.76 0.999740 -80.76 0.022195 -170.5
8.79120000 0.022201 -171.1 0.999740 -80.76 0.999740 -80.76 0.022201 -170.5
8.79121000 0.022207 -171.1 0.999740 -80.76 0.999740 -80.76 0.022206 -170.5
8.79122000 0.022212 -171.1 0.999740 -80.76 0.999740 -80.76 0.022211 -170.5
8.79123000 0.022218 -171.1 0.999740 -80.76 0.999740 -80.76 0.022217 -170.5
8.79124000 0.022223 -171.1 0.999740 -80.77 0.999740 -80.77 0.022222 -170.5
8.79125000 0.022228 -171.1 0.999740 -80.77 0.999740 -80.77 0.022228 -170.5
8.79126000 0.022234 -171.1 0.999739 -80.77 0.999739 -80.77 0.022233 -170.5
8.79127000 0.022239 -171.1 0.999739 -80.77 0.999739 -80.77 0.022239 -170.5
8.79128000 0.022245 -171.1 0.999739 -80.77 0.999739 -80.77 0.022244 -170.5
8.79129000 0.022250 -171.1 0.999739 -80.77 0.999739 -80.77 0.022250 -170.5
8.79130000 0.022256 -171.1 0.999739 -80.77 0.999739 -80.77 0.022255 -170.5
8.79131000 0.022261 -171.1 0.999739 -80.77 0.999739 -80.77 0.022261 -170.5
8.79132000 0.022267 -171.1 0.999739 -80.77 0.999739 -80.77 0.022266 -170.5
8.79133000 0.022272 -171.1 0.999738 -80.77 0.999738 -80.77 0.022272 -170.5
8.79134000 0.022278 -171.1 0.999738 -80.77 0.999738 -80.77 0.022277 -170.5
8.79135000 0.022283 -171.1 0.999738 -80.77 0.999738 -80.77 0.022283 -170.5
8.79136000 0.022289 -171.1 0.999738 -80.77 0.999738 -80.77 0.022288 -170.5
8.79137000 0.022295 -171.1 0.999738 -80.77 0.999738 -80.77 0.022294 -170.5
8.79138000 0.022300 -171.1 0.999738 -80.77 0.999738 -80.77 0.022300 -170.5
8.79139000 0.022306 -171.1 0.999738 -80.77 0.999738 -80.77 0.022305 -170.5
8.79140000 0.022311 -171.1 0.999737 -80.77 0.999737 -80.77 0.022311 -170.5
8.79141000 0.022317 -171.1 0.999737 -80.77 0.999737 -80.77 0.022316 -170.5
8.79142000 0.022323 -171.1 0.999737 -80.77 0.999737 -80.77 0.022322 -170.5
8.79143000 0.022328 -171.1 0.999737 -80.77 0.999737 -80.77 0.022328 -170.5
8.79144000 0.022334 -171.1 0.999737 -80.77 0.999737 -80.77 0.022333 -170.5
8.79145000 0.022340 -171.1 0.999737 -80.77 0.999737 -80.77 0.022339 -170.5
8.79146000 0.022345 -171.1 0.999737 -80.77 0.999737 -80.77 0.022345 -170.5
8.79147000 0.022351 -171.1 0.999736 -80.77 0.999736 -80.77 0.022350 -170.5
8.79148000 0.022357 -171.1 0.999736 -80.77 0.999736 -80.77 0.022356 -170.5
8.79149000 0.022362 -171.1 0.999736 -80.78 0.999736 -80.78 0.022362 -170.5
8.79150000 0.022368 -171.1 0.999736 -80.78 0.999736 -80.78 0.022367 -170.5
8.79151000 0.022374 -171.1 0.999736 -80.78 0.999736 -80.78 0.022373 -170.5
8.79152000 0.022379 -171.1 0.999736 -80.78 0.999736 -80.78 0.022379 -170.5
8.79153000 0.022385 -171.1 0.999736 -80.78 0.999736 -80.78 0.022385 -170.5
8.79154000 0.022391 -171.1 0.999735 -80.78 0.999735 -80.78 0.022390 -170.5
8.79155000 0.022397 -171.1 0.999735 -80.78 0.999735 -80.78 0.022396 -170.5
8.79156000 0.022402 -171.1 0.999735 -80.78 0.999735 -80.78 0.022402 -170.5
8.79157000 0.022408 -171.1 0.999735 -80.78 0.999735 -80.78 0.022408 -170.5
8.79158000 0.022414 -171.1 0.999735 -80.78 0.999735 -80.78 0.022413 -170.5
8.79159000 0.022420 -171.1 0.999735 -80.78 0.999735 -80.78 0.022419 -170.5
8.79160000 0.022426 -171.1 0.999734 -80.78 0.999734 -80.78 0.022425 -170.5
8.79161000 0.022432 -171.1 0.999734 -80.78 0.999734 -80.78 0.022431 -170.5
8.79162000 0.022437 -171.1 0.999734 -80.78 0.999734 -80.78 0.022437 -170.5
8.79163000 0.022443 -171.1 0.999734 -80.78 0.999734 -80.78 0.022443 -170.5
8.79164000 0.022449 -171.1 0.999734 -80.78 0.999734 -80.78 0.022448 -170.5
8.79165000 0.022455 -171.1 0.999734 -80.78 0.999734 -80.78 0.022454 -170.5
8.79166000 0.022461 -171.1 0.999734 -80.78 0.999734 -80.78 0.022460 -170.5
8.79167000 0.022467 -171.1 0.999733 -80.78 0.999733 -80.78 0.022466 -170.5
8.79168000 0.022473 -171.1 0.999733 -80.78 0.999733 -80.78 0.022472 -170.5
8.79169000 0.022479 -171.1 0.999733 -80.78 0.999733 -80.78 0.022478 -170.5
8.79170000 0.022485 -171.1 0.999733 -80.78 0.999733 -80.78 0.022484 -170.5
8.79171000 0.022490 -171.1 0.999733 -80.78 0.999733 -80.78 0.022490 -170.5
8.79172000 0.022496 -171.1 0.999733 -80.79 0.999733 -80.79 0.022496 -170.5
8.79173000 0.022502 -171.1 0.999732 -80.79 0.999732 -80.79 0.022502 -170.5
8.79174000 0.022508 -171.1 0.999732 -80.79 0.999732 -80.79 0.022508 -170.5
8.79175000 0.022514 -171.1 0.999732 -80.79 0.999732 -80.79 0.022514 -170.5
8.79176000 0.022520 -171.1 0.999732 -80.79 0.999732 -80.79 0.022520 -170.5
8.79177000 0.022526 -171.1 0.999732 -80.79 0.999732 -80.79 0.022526 -170.5
8.79178000 0.022532 -171.1 0.999732 -80.79 0.999732 -80.79 0.022532 -170.5
8.79179000 0.022538 -171.1 0.999732 -80.79 0.999732 -80.79 0.022538 -170.5
8.79180000 0.022544 -171.1 0.999731 -80.79 0.999731 -80.79 0.022544 -170.5
8.79181000 0.022551 -171.1 0.999731 -80.79 0.999731 -80.79 0.022550 -170.5
8.79182000 0.022557 -171.1 0.999731 -80.79 0.999731 -80.79 0.022556 -170.5
8.79183000 0.022563 -171.1 0.999731 -80.79 0.999731 -80.79 0.022562 -170.5
8.79184000 0.022569 -171.1 0.999731 -80.79 0.999731 -80.79 0.022568 -170.5
8.79185000 0.022575 -171.1 0.999731 -80.79 0.999731 -80.79 0.022574 -170.5
8.79186000 0.022581 -171.1 0.999730 -80.79 0.999730 -80.79 0.022580 -170.5
8.79187000 0.022587 -171.1 0.999730 -80.79 0.999730 -80.79 0.022586 -170.5
8.79188000 0.022593 -171.1 0.999730 -80.79 0.999730 -80.79 0.022593 -170.5
8.79189000 0.022599 -171.1 0.999730 -80.79 0.999730 -80.79 0.022599 -170.5
8.79190000 0.022606 -171.1 0.999730 -80.79 0.999730 -80.79 0.022605 -170.5
8.79191000 0.022612 -171.1 0.999730 -80.79 0.999730 -80.79 0.022611 -170.5
8.79192000 0.022618 -171.1 0.999729 -80.79 0.999729 -80.79 0.022617 -170.5
8.79193000 0.022624 -171.1 0.999729 -80.79 0.999729 -80.79 0.022624 -170.5
8.79194000 0.022630 -171.1 0.999729 -80.79 0.999729 -80.79 0.022630 -170.5
8.79195000 0.022637 -171.1 0.999729 -80.80 0.999729 -80.80 0.022636 -170.5
8.79196000 0.022643 -171.1 0.999729 -80.80 0.999729 -80.80 0.022642 -170.5
8.79197000 0.022649 -171.1 0.999729 -80.80 0.999729 -80.80 0.022648 -170.5
8.79198000 0.022655 -171.1 0.999728 -80.80 0.999728 -80.80 0.022655 -170.5
8.79199000 0.022662 -171.1 0.999728 -80.80 0.999728 -80.80 0.022661 -170.5
8.79200000 0.022668 -171.1 0.999728 -80.80 0.999728 -80.80 0.022667 -170.5
8.79201000 0.022674 -171.1 0.999728 -80.80 0.999728 -80.80 0.022674 -170.5
8.79202000 0.022681 -171.1 0.999728 -80.80 0.999728 -80.80 0.022680 -170.5
8.79203000 0.022687 -171.1 0.999728 -80.80 0.999728 -80.80 0.022686 -170.5
8.79204000 0.022693 -171.1 0.999727 -80.80 0.999727 -80.80 0.022693 -170.5
8.79205000 0.022700 -171.1 0.999727 -80.80 0.999727 -80.80 0.022699 -170.5
8.79206000 0.022706 -171.1 0.999727 -80.80 0.999727 -80.80 0.022705 -170.5
8.79207000 0.022712 -171.1 0.999727 -80.80 0.999727 -80.80 0.022712 -170.6
8.79208000 0.022719 -171.1 0.999727 -80.80 0.999727 -80.80 0.022718 -170.6
8.79209000 0.022725 -171.1 0.999727 -80.80 0.999727 -80.80 0.022725 -170.6
8.79210000 0.022732 -171.1 0.999726 -80.80 0.999726 -80.80 0.022731 -170.6
8.79211000 0.022738 -171.1 0.999726 -80.80 0.999726 -80.80 0.022737 -170.6
8.79212000 0.022745 -171.1 0.999726 -80.80 0.999726 -80.80 0.022744 -170.6
8.79213000 0.022751 -171.1 0.999726 -80.80 0.999726 -80.80 0.022750 -170.6
8.79214000 0.022758 -171.1 0.999726 -80.80 0.999726 -80.80 0.022757 -170.6
8.79215000 0.022764 -171.1 0.999726 -80.80 0.999726 -80.80 0.022763 -170.6
8.79216000 0.022770 -171.1 0.999725 -80.80 0.999725 -80.80 0.022770 -170.6
8.79217000 0.022777 -171.1 0.999725 -80.81 0.999725 -80.81 0.022776 -170.6
8.79218000 0.022784 -171.1 0.999725 -80.81 0.999725 -80.81 0.022783 -170.6
8.79219000 0.022790 -171.1 0.999725 -80.81 0.999725 -80.81 0.022789 -170.6
8.79220000 0.022797 -171.1 0.999725 -80.81 0.999725 -80.81 0.022796 -170.6
8.79221000 0.022803 -171.1 0.999725 -80.81 0.999725 -80.81 0.022802 -170.6
8.79222000 0.022810 -171.1 0.999724 -80.81 0.999724 -80.81 0.022809 -170.6
8.79223000 0.022816 -171.1 0.999724 -80.81 0.999724 -80.81 0.022816 -170.6
8.79224000 0.022823 -171.1 0.999724 -80.81 0.999724 -80.81 0.022822 -170.6
8.79225000 0.022830 -171.1 0.999724 -80.81 0.999724 -80.81 0.022829 -170.6
8.79226000 0.022836 -171.1 0.999724 -80.81 0.999724 -80.81 0.022835 -170.6
8.79227000 0.022843 -171.1 0.999723 -80.81 0.999723 -80.81 0.022842 -170.6
8.79228000 0.022850 -171.1 0.999723 -80.81 0.999723 -80.81 0.022849 -170.6
8.79229000 0.022856 -171.1 0.999723 -80.81 0.999723 -80.81 0.022855 -170.6
8.79230000 0.022863 -171.1 0.999723 -80.81 0.999723 -80.81 0.022862 -170.6
8.79231000 0.022870 -171.1 0.999723 -80.81 0.999723 -80.81 0.022869 -170.6
8.79232000 0.022876 -171.1 0.999723 -80.81 0.999723 -80.81 0.022876 -170.6
8.79233000 0.022883 -171.1 0.999722 -80.81 0.999722 -80.81 0.022882 -170.6
8.79234000 0.022890 -171.1 0.999722 -80.81 0.999722 -80.81 0.022889 -170.6
8.79235000 0.022897 -171.1 0.999722 -80.81 0.999722 -80.81 0.022896 -170.6
8.79236000 0.022903 -171.1 0.999722 -80.81 0.999722 -80.81 0.022903 -170.6
8.79237000 0.022910 -171.1 0.999722 -80.81 0.999722 -80.81 0.022909 -170.6
8.79238000 0.022917 -171.1 0.999721 -80.82 0.999721 -80.82 0.022916 -170.6
8.79239000 0.022924 -171.1 0.999721 -80.82 0.999721 -80.82 0.022923 -170.6
8.79240000 0.022931 -171.1 0.999721 -80.82 0.999721 -80.82 0.022930 -170.6
8.79241000 0.022937 -171.1 0.999721 -80.82 0.999721 -80.82 0.022937 -170.6
8.79242000 0.022944 -171.1 0.999721 -80.82 0.999721 -80.82 0.022943 -170.6
8.79243000 0.022951 -171.1 0.999721 -80.82 0.999721 -80.82 0.022950 -170.6
8.79244000 0.022958 -171.1 0.999720 -80.82 0.999720 -80.82 0.022957 -170.6
8.79245000 0.022965 -171.1 0.999720 -80.82 0.999720 -80.82 0.022964 -170.6
8.79246000 0.022972 -171.1 0.999720 -80.82 0.999720 -80.82 0.022971 -170.6
8.79247000 0.022979 -171.1 0.999720 -80.82 0.999720 -80.82 0.022978 -170.6
8.79248000 0.022986 -171.1 0.999720 -80.82 0.999720 -80.82 0.022985 -170.6
8.79249000 0.022993 -171.1 0.999719 -80.82 0.999719 -80.82 0.022992 -170.6
8.79250000 0.023000 -171.1 0.999719 -80.82 0.999719 -80.82 0.022999 -170.6
8.79251000 0.023007 -171.1 0.999719 -80.82 0.999719 -80.82 0.023006 -170.6
8.79252000 0.023014 -171.1 0.999719 -80.82 0.999719 -80.82 0.023013 -170.6
8.79253000 0.023021 -171.1 0.999719 -80.82 0.999719 -80.82 0.023020 -170.6
8.79254000 0.023028 -171.1 0.999719 -80.82 0.999719 -80.82 0.023027 -170.6
8.79255000 0.023035 -171.1 0.999718 -80.82 0.999718 -80.82 0.023034 -170.6
8.79256000 0.023042 -171.1 0.999718 -80.82 0.999718 -80.82 0.023041 -170.6
8.79257000 0.023049 -171.1 0.999718 -80.82 0.999718 -80.82 0.023048 -170.6
8.79258000 0.023056 -171.1 0.999718 -80.83 0.999718 -80.83 0.023055 -170.6
8.79259000 0.023063 -171.1 0.999718 -80.83 0.999718 -80.83 0.023062 -170.6
8.79260000 0.023070 -171.1 0.999717 -80.83 0.999717 -80.83 0.023069 -170.6
8.79261000 0.023077 -171.1 0.999717 -80.83 0.999717 -80.83 0.023077 -170.6
8.79262000 0.023085 -171.1 0.999717 -80.83 0.999717 -80.83 0.023084 -170.6
8.79263000 0.023092 -171.1 0.999717 -80.83 0.999717 -80.83 0.023091 -170.6
8.79264000 0.023099 -171.1 0.999717 -80.83 0.999717 -80.83 0.023098 -170.6
8.79265000 0.023106 -171.1 0.999716 -80.83 0.999716 -80.83 0.023105 -170.6
8.79266000 0.023113 -171.1 0.999716 -80.83 0.999716 -80.83 0.023112 -170.6
8.79267000 0.023121 -171.1 0.999716 -80.83 0.999716 -80.83 0.023120 -170.6
8.79268000 0.023128 -171.1 0.999716 -80.83 0.999716 -80.83 0.023127 -170.6
8.79269000 0.023135 -171.1 0.999716 -80.83 0.999716 -80.83 0.023134 -170.6
8.79270000 0.023142 -171.1 0.999715 -80.83 0.999715 -80.83 0.023141 -170.6
8.79271000 0.023150 -171.1 0.999715 -80.83 0.999715 -80.83 0.023149 -170.6
8.79272000 0.023157 -171.1 0.999715 -80.83 0.999715 -80.83 0.023156 -170.6
8.79273000 0.023164 -171.1 0.999715 -80.83 0.999715 -80.83 0.023163 -170.6
8.79274000 0.023172 -171.1 0.999715 -80.83 0.999715 -80.83 0.023171 -170.6
8.79275000 0.023179 -171.1 0.999714 -80.83 0.999714 -80.83 0.023178 -170.6
8.79276000 0.023186 -171.1 0.999714 -80.83 0.999714 -80.83 0.023185 -170.6
8.79277000 0.023194 -171.1 0.999714 -80.83 0.999714 -80.83 0.023193 -170.6
8.79278000 0.023201 -171.1 0.999714 -80.84 0.999714 -80.84 0.023200 -170.6
8.79279000 0.023208 -171.1 0.999714 -80.84 0.999714 -80.84 0.023208 -170.6
8.79280000 0.023216 -171.1 0.999713 -80.84 0.999713 -80.84 0.023215 -170.6
8.79281000 0.023223 -171.1 0.999713 -80.84 0.999713 -80.84 0.023223 -170.6
8.79282000 0.023231 -171.1 0.999713 -80.84 0.999713 -80.84 0.023230 -170.6
8.79283000 0.023238 -171.1 0.999713 -80.84 0.999713 -80.84 0.023237 -170.6
8.79284000 0.023246 -171.1 0.999713 -80.84 0.999713 -80.84 0.023245 -170.6
8.79285000 0.023253 -171.1 0.999712 -80.84 0.999712 -80.84 0.023253 -170.6
8.79286000 0.023261 -171.1 0.999712 -80.84 0.999712 -80.84 0.023260 -170.6
8.79287000 0.023268 -171.1 0.999712 -80.84 0.999712 -80.84 0.023268 -170.6
8.79288000 0.023276 -171.1 0.999712 -80.84 0.999712 -80.84 0.023275 -170.6
8.79289000 0.023284 -171.1 0.999712 -80.84 0.999712 -80.84 0.023283 -170.6
8.79290000 0.023291 -171.1 0.999711 -80.84 0.999711 -80.84 0.023290 -170.6
8.79291000 0.023299 -171.1 0.999711 -80.84 0.999711 -80.84 0.023298 -170.6
8.79292000 0.023306 -171.1 0.999711 -80.84 0.999711 -80.84 0.023306 -170.6
8.79293000 0.023314 -171.1 0.999711 -80.84 0.999711 -80.84 0.023313 -170.6
8.79294000 0.023322 -171.1 0.999711 -80.84 0.999711 -80.84 0.023321 -170.6
8.79295000 0.023329 -171.1 0.999710 -80.84 0.999710 -80.84 0.023329 -170.6
8.79296000 0.023337 -171.1 0.999710 -80.84 0.999710 -80.84 0.023336 -170.6
8.79297000 0.023345 -171.1 0.999710 -80.85 0.999710 -80.85 0.023344 -170.6
8.79298000 0.023353 -171.1 0.999710 -80.85 0.999710 -80.85 0.023352 -170.6
8.79299000 0.023360 -171.1 0.999709 -80.85 0.999709 -80.85 0.023359 -170.6
8.79300000 0.023368 -171.1 0.999709 -80.85 0.999709 -80.85 0.023367 -170.7
8.79301000 0.023376 -171.1 0.999709 -80.85 0.999709 -80.85 0.023375 -170.7
8.79302000 0.023384 -171.1 0.999709 -80.85 0.999709 -80.85 0.023383 -170.7
8.79303000 0.023392 -171.1 0.999709 -80.85 0.999709 -80.85 0.023391 -170.7
8.79304000 0.023399 -171.1 0.999708 -80.85 0.999708 -80.85 0.023399 -170.7
8.79305000 0.023407 -171.1 0.999708 -80.85 0.999708 -80.85 0.023406 -170.7
8.79306000 0.023415 -171.1 0.999708 -80.85 0.999708 -80.85 0.023414 -170.7
8.79307000 0.023423 -171.1 0.999708 -80.85 0.999708 -80.85 0.023422 -170.7
8.79308000 0.023431 -171.1 0.999708 -80.85 0.999708 -80.85 0.023430 -170.7
8.79309000 0.023439 -171.1 0.999707 -80.85 0.999707 -80.85 0.023438 -170.7
8.79310000 0.023447 -171.1 0.999707 -80.85 0.999707 -80.85 0.023446 -170.7
8.79311000 0.023455 -171.1 0.999707 -80.85 0.999707 -80.85 0.023454 -170.7
8.79312000 0.023463 -171.1 0.999707 -80.85 0.999707 -80.85 0.023462 -170.7
8.79313000 0.023471 -171.1 0.999706 -80.85 0.999706 -80.85 0.023470 -170.7
8.79314000 0.023479 -171.1 0.999706 -80.85 0.999706 -80.85 0.023478 -170.7
8.79315000 0.023487 -171.1 0.999706 -80.85 0.999706 -80.85 0.023486 -170.7
8.79316000 0.023495 -171.1 0.999706 -80.86 0.999706 -80.86 0.023494 -170.7
8.79317000 0.023503 -171.1 0.999706 -80.86 0.999706 -80.86 0.023502 -170.7
8.79318000 0.023511 -171.1 0.999705 -80.86 0.999705 -80.86 0.023510 -170.7
8.79319000 0.023519 -171.1 0.999705 -80.86 0.999705 -80.86 0.023518 -170.7
8.79320000 0.023527 -171.1 0.999705 -80.86 0.999705 -80.86 0.023526 -170.7
8.79321000 0.023535 -171.1 0.999705 -80.86 0.999705 -80.86 0.023534 -170.7
8.79322000 0.023544 -171.1 0.999704 -80.86 0.999704 -80.86 0.023543 -170.7
8.79323000 0.023552 -171.1 0.999704 -80.86 0.999704 -80.86 0.023551 -170.7
8.79324000 0.023560 -171.1 0.999704 -80.86 0.999704 -80.86 0.023559 -170.7
8.79325000 0.023568 -171.1 0.999704 -80.86 0.999704 -80.86 0.023567 -170.7
8.79326000 0.023576 -171.1 0.999703 -80.86 0.999703 -80.86 0.023575 -170.7
8.79327000 0.023585 -171.1 0.999703 -80.86 0.999703 -80.86 0.023584 -170.7
8.79328000 0.023593 -171.1 0.999703 -80.86 0.999703 -80.86 0.023592 -170.7
8.79329000 0.023601 -171.1 0.999703 -80.86 0.999703 -80.86 0.023600 -170.7
8.79330000 0.023610 -171.1 0.999703 -80.86 0.999703 -80.86 0.023609 -170.7
8.79331000 0.023618 -171.1 0.999702 -80.86 0.999702 -80.86 0.023617 -170.7
8.79332000 0.023626 -171.1 0.999702 -80.86 0.999702 -80.86 0.023625 -170.7
8.79333000 0.023635 -171.1 0.999702 -80.87 0.999702 -80.87 0.023634 -170.7
8.79334000 0.023643 -171.1 0.999702 -80.87 0.999702 -80.87 0.023642 -170.7
8.79335000 0.023651 -171.1 0.999701 -80.87 0.999701 -80.87 0.023650 -170.7
8.79336000 0.023660 -171.1 0.999701 -80.87 0.999701 -80.87 0.023659 -170.7
8.79337000 0.023668 -171.1 0.999701 -80.87 0.999701 -80.87 0.023667 -170.7
8.79338000 0.023677 -171.1 0.999701 -80.87 0.999701 -80.87 0.023676 -170.7
8.79339000 0.023685 -171.1 0.999700 -80.87 0.999700 -80.87 0.023684 -170.7
8.79340000 0.023694 -171.1 0.999700 -80.87 0.999700 -80.87 0.023693 -170.7
8.79341000 0.023702 -171.1 0.999700 -80.87 0.999700 -80.87 0.023701 -170.7
8.79342000 0.023711 -171.1 0.999700 -80.87 0.999700 -80.87 0.023710 -170.7
8.79343000 0.023719 -171.1 0.999699 -80.87 0.999699 -80.87 0.023718 -170.7
8.79344000 0.023728 -171.1 0.999699 -80.87 0.999699 -80.87 0.023727 -170.7
8.79345000 0.023737 -171.1 0.999699 -80.87 0.999699 -80.87 0.023736 -170.7
8.79346000 0.023745 -171.1 0.999699 -80.87 0.999699 -80.87 0.023744 -170.7
8.79347000 0.023754 -171.1 0.999699 -80.87 0.999699 -80.87 0.023753 -170.7
8.79348000 0.023763 -171.1 0.999698 -80.87 0.999698 -80.87 0.023762 -170.7
8.79349000 0.023771 -171.1 0.999698 -80.87 0.999698 -80.87 0.023770 -170.7
8.79350000 0.023780 -171.1 0.999698 -80.87 0.999698 -80.87 0.023779 -170.7
8.79351000 0.023789 -171.1 0.999698 -80.88 0.999698 -80.88 0.023788 -170.7
8.79352000 0.023797 -171.1 0.999697 -80.88 0.999697 -80.88 0.023796 -170.7
8.79353000 0.023806 -171.1 0.999697 -80.88 0.999697 -80.88 0.023805 -170.7
8.79354000 0.023815 -171.1 0.999697 -80.88 0.999697 -80.88 0.023814 -170.7
8.79355000 0.023824 -171.1 0.999697 -80.88 0.999697 -80.88 0.023823 -170.7
8.79356000 0.023833 -171.1 0.999696 -80.88 0.999696 -80.88 0.023832 -170.7
8.79357000 0.023841 -171.1 0.999696 -80.88 0.999696 -80.88 0.023841 -170.7
8.79358000 0.023850 -171.1 0.999696 -80.88 0.999696 -80.88 0.023849 -170.7
8.79359000 0.023859 -171.1 0.999696 -80.88 0.999696 -80.88 0.023858 -170.7
8.79360000 0.023868 -171.1 0.999695 -80.88 0.999695 -80.88 0.023867 -170.7
8.79361000 0.023877 -171.1 0.999695 -80.88 0.999695 -80.88 0.023876 -170.7
8.79362000 0.023886 -171.1 0.999695 -80.88 0.999695 -80.88 0.023885 -170.7
8.79363000 0.023895 -171.1 0.999695 -80.88 0.999695 -80.88 0.023894 -170.7
8.79364000 0.023904 -171.1 0.999694 -80.88 0.999694 -80.88 0.023903 -170.7
8.79365000 0.023913 -171.1 0.999694 -80.88 0.999694 -80.88 0.023912 -170.7
8.79366000 0.023922 -171.1 0.999694 -80.88 0.999694 -80.88 0.023921 -170.7
8.79367000 0.023931 -171.1 0.999694 -80.89 0.999694 -80.89 0.023930 -170.7
8.79368000 0.023940 -171.1 0.999693 -80.89 0.999693 -80.89 0.023939 -170.7
8.79369000 0.023949 -171.1 0.999693 -80.89 0.999693 -80.89 0.023948 -170.7
8.79370000 0.023959 -171.1 0.999693 -80.89 0.999693 -80.89 0.023958 -170.7
8.79371000 0.023968 -171.1 0.999692 -80.89 0.999692 -80.89 0.023967 -170.7
8.79372000 0.023977 -171.1 0.999692 -80.89 0.999692 -80.89 0.023976 -170.7
8.79373000 0.023986 -171.1 0.999692 -80.89 0.999692 -80.89 0.023985 -170.7
8.79374000 0.023995 -171.1 0.999692 -80.89 0.999692 -80.89 0.023994 -170.7
8.79375000 0.024005 -171.1 0.999691 -80.89 0.999691 -80.89 0.024004 -170.7
8.79376000 0.024014 -171.1 0.999691 -80.89 0.999691 -80.89 0.024013 -170.7
8.79377000 0.024023 -171.1 0.999691 -80.89 0.999691 -80.89 0.024022 -170.7
8.79378000 0.024032 -171.1 0.999691 -80.89 0.999691 -80.89 0.024031 -170.7
8.79379000 0.024042 -171.1 0.999690 -80.89 0.999690 -80.89 0.024041 -170.8
8.79380000 0.024051 -171.1 0.999690 -80.89 0.999690 -80.89 0.024050 -170.8
8.79381000 0.024061 -171.1 0.999690 -80.89 0.999690 -80.89 0.024059 -170.8
8.79382000 0.024070 -171.1 0.999690 -80.89 0.999690 -80.89 0.024069 -170.8
8.79383000 0.024079 -171.1 0.999689 -80.90 0.999689 -80.90 0.024078 -170.8
8.79384000 0.024089 -171.1 0.999689 -80.90 0.999689 -80.90 0.024088 -170.8
8.79385000 0.024098 -171.1 0.999689 -80.90 0.999689 -80.90 0.024097 -170.8
8.79386000 0.024108 -171.1 0.999688 -80.90 0.999688 -80.90 0.024107 -170.8
8.79387000 0.024117 -171.1 0.999688 -80.90 0.999688 -80.90 0.024116 -170.8
8.79388000 0.024127 -171.1 0.999688 -80.90 0.999688 -80.90 0.024126 -170.8
8.79389000 0.024136 -171.1 0.999688 -80.90 0.999688 -80.90 0.024135 -170.8
8.79390000 0.024146 -171.1 0.999687 -80.90 0.999687 -80.90 0.024145 -170.8
8.79391000 0.024156 -171.1 0.999687 -80.90 0.999687 -80.90 0.024155 -170.8
8.79392000 0.024165 -171.1 0.999687 -80.90 0.999687 -80.90 0.024164 -170.8