! Sonnet Data File
! From: emgraph Version : 16.52
! From Project: Qubit_Test_beforeopt
! Data is De-embedded 
! Data File Written: 10/18/2017 20:39:12
!< HDATE 10/18/2017 18:14:34
!< MDATE 10/18/2017 18:14:34
!< PARAMS
!< Lj = 11.0
!< Gap = 26.0
!< Pwid = 2000.0
!< Airgap = 30.0
!< Width = 50.0
!< END PARAMS
# GHZ S MA R 51.80000
8.79000000 0.039779 -171.0 0.999184 -81.23 0.999184 -81.23 0.039778 -171.5
!< P1 F=8.79 Eeff=(6.43963342 -3.1364e-5) Z0=(50.401348 1.04894e-4) R=0.0 C=0.0 
!< P2 F=8.79 Eeff=(6.43963342 -3.1364e-5) Z0=(50.401348 1.04894e-4) R=0.0 C=0.0 
8.79001000 0.039790 -171.0 0.999184 -81.23 0.999184 -81.23 0.039789 -171.5
8.79002000 0.039801 -171.0 0.999183 -81.23 0.999183 -81.23 0.039800 -171.5
8.79003000 0.039813 -171.0 0.999183 -81.23 0.999183 -81.23 0.039812 -171.5
8.79004000 0.039824 -171.0 0.999182 -81.23 0.999182 -81.23 0.039823 -171.5
8.79005000 0.039835 -171.0 0.999182 -81.23 0.999182 -81.23 0.039835 -171.5
8.79006000 0.039847 -171.0 0.999181 -81.23 0.999181 -81.23 0.039846 -171.5
8.79007000 0.039858 -171.0 0.999181 -81.23 0.999181 -81.23 0.039857 -171.5
8.79008000 0.039870 -171.0 0.999180 -81.23 0.999180 -81.23 0.039869 -171.5
8.79009000 0.039881 -171.0 0.999180 -81.23 0.999180 -81.23 0.039880 -171.5
8.79010000 0.039893 -171.0 0.999179 -81.24 0.999179 -81.24 0.039892 -171.5
8.79011000 0.039904 -171.0 0.999179 -81.24 0.999179 -81.24 0.039903 -171.5
8.79012000 0.039916 -171.0 0.999178 -81.24 0.999178 -81.24 0.039915 -171.5
8.79013000 0.039927 -171.0 0.999178 -81.24 0.999178 -81.24 0.039927 -171.5
8.79014000 0.039939 -171.0 0.999177 -81.24 0.999177 -81.24 0.039938 -171.5
8.79015000 0.039950 -171.0 0.999177 -81.24 0.999177 -81.24 0.039950 -171.5
8.79016000 0.039962 -171.0 0.999176 -81.24 0.999176 -81.24 0.039961 -171.5
8.79017000 0.039974 -171.0 0.999176 -81.24 0.999176 -81.24 0.039973 -171.5
8.79018000 0.039985 -171.0 0.999175 -81.24 0.999175 -81.24 0.039985 -171.5
8.79019000 0.039997 -171.0 0.999175 -81.24 0.999175 -81.24 0.039996 -171.5
8.79020000 0.040009 -171.0 0.999174 -81.24 0.999174 -81.24 0.040008 -171.5
8.79021000 0.040020 -171.0 0.999174 -81.24 0.999174 -81.24 0.040020 -171.5
8.79022000 0.040032 -171.0 0.999173 -81.24 0.999173 -81.24 0.040031 -171.5
8.79023000 0.040044 -171.0 0.999173 -81.25 0.999173 -81.25 0.040043 -171.5
8.79024000 0.040056 -171.0 0.999172 -81.25 0.999172 -81.25 0.040055 -171.5
8.79025000 0.040067 -171.0 0.999172 -81.25 0.999172 -81.25 0.040067 -171.5
8.79026000 0.040079 -171.0 0.999171 -81.25 0.999171 -81.25 0.040078 -171.5
8.79027000 0.040091 -171.0 0.999171 -81.25 0.999171 -81.25 0.040090 -171.5
8.79028000 0.040103 -171.0 0.999170 -81.25 0.999170 -81.25 0.040102 -171.5
8.79029000 0.040115 -171.0 0.999170 -81.25 0.999170 -81.25 0.040114 -171.5
8.79030000 0.040127 -171.0 0.999169 -81.25 0.999169 -81.25 0.040126 -171.5
8.79031000 0.040139 -171.0 0.999169 -81.25 0.999169 -81.25 0.040138 -171.5
8.79032000 0.040151 -171.0 0.999168 -81.25 0.999168 -81.25 0.040150 -171.5
8.79033000 0.040162 -171.0 0.999168 -81.25 0.999168 -81.25 0.040162 -171.5
8.79034000 0.040174 -171.0 0.999167 -81.25 0.999167 -81.25 0.040174 -171.5
8.79035000 0.040186 -171.0 0.999167 -81.25 0.999167 -81.25 0.040186 -171.5
8.79036000 0.040198 -171.0 0.999166 -81.26 0.999166 -81.26 0.040198 -171.5
8.79037000 0.040210 -171.0 0.999166 -81.26 0.999166 -81.26 0.040210 -171.5
8.79038000 0.040222 -171.0 0.999165 -81.26 0.999165 -81.26 0.040222 -171.5
8.79039000 0.040234 -171.0 0.999164 -81.26 0.999164 -81.26 0.040234 -171.6
8.79040000 0.040247 -171.0 0.999164 -81.26 0.999164 -81.26 0.040246 -171.6
8.79041000 0.040259 -171.0 0.999163 -81.26 0.999163 -81.26 0.040258 -171.6
8.79042000 0.040271 -171.0 0.999163 -81.26 0.999163 -81.26 0.040270 -171.6
8.79043000 0.040283 -171.0 0.999162 -81.26 0.999162 -81.26 0.040282 -171.6
8.79044000 0.040295 -171.0 0.999162 -81.26 0.999162 -81.26 0.040294 -171.6
8.79045000 0.040307 -171.0 0.999161 -81.26 0.999161 -81.26 0.040306 -171.6
8.79046000 0.040319 -171.0 0.999161 -81.26 0.999161 -81.26 0.040319 -171.6
8.79047000 0.040332 -171.0 0.999160 -81.26 0.999160 -81.26 0.040331 -171.6
8.79048000 0.040344 -171.0 0.999160 -81.26 0.999160 -81.26 0.040343 -171.6
8.79049000 0.040356 -171.0 0.999159 -81.27 0.999159 -81.27 0.040355 -171.6
8.79050000 0.040368 -171.0 0.999159 -81.27 0.999159 -81.27 0.040368 -171.6
8.79051000 0.040381 -171.0 0.999158 -81.27 0.999158 -81.27 0.040380 -171.6
8.79052000 0.040393 -171.0 0.999158 -81.27 0.999158 -81.27 0.040392 -171.6
8.79053000 0.040405 -171.0 0.999157 -81.27 0.999157 -81.27 0.040405 -171.6
8.79054000 0.040418 -171.0 0.999157 -81.27 0.999157 -81.27 0.040417 -171.6
8.79055000 0.040430 -171.0 0.999156 -81.27 0.999156 -81.27 0.040429 -171.6
8.79056000 0.040443 -171.0 0.999155 -81.27 0.999155 -81.27 0.040442 -171.6
8.79057000 0.040455 -171.0 0.999155 -81.27 0.999155 -81.27 0.040454 -171.6
8.79058000 0.040467 -171.0 0.999154 -81.27 0.999154 -81.27 0.040467 -171.6
8.79059000 0.040480 -171.0 0.999154 -81.27 0.999154 -81.27 0.040479 -171.6
8.79060000 0.040492 -171.0 0.999153 -81.27 0.999153 -81.27 0.040491 -171.6
8.79061000 0.040505 -171.0 0.999153 -81.28 0.999153 -81.28 0.040504 -171.6
8.79062000 0.040517 -171.0 0.999152 -81.28 0.999152 -81.28 0.040517 -171.6
8.79063000 0.040530 -171.0 0.999152 -81.28 0.999152 -81.28 0.040529 -171.6
8.79064000 0.040542 -171.0 0.999151 -81.28 0.999151 -81.28 0.040542 -171.6
8.79065000 0.040555 -171.0 0.999151 -81.28 0.999151 -81.28 0.040554 -171.6
8.79066000 0.040568 -171.0 0.999150 -81.28 0.999150 -81.28 0.040567 -171.6
8.79067000 0.040580 -171.0 0.999149 -81.28 0.999149 -81.28 0.040579 -171.6
8.79068000 0.040593 -171.0 0.999149 -81.28 0.999149 -81.28 0.040592 -171.6
8.79069000 0.040606 -171.1 0.999148 -81.28 0.999148 -81.28 0.040605 -171.6
8.79070000 0.040618 -171.1 0.999148 -81.28 0.999148 -81.28 0.040617 -171.6
8.79071000 0.040631 -171.1 0.999147 -81.28 0.999147 -81.28 0.040630 -171.6
8.79072000 0.040644 -171.1 0.999147 -81.28 0.999147 -81.28 0.040643 -171.6
8.79073000 0.040657 -171.1 0.999146 -81.29 0.999146 -81.29 0.040656 -171.6
8.79074000 0.040669 -171.1 0.999146 -81.29 0.999146 -81.29 0.040668 -171.6
8.79075000 0.040682 -171.1 0.999145 -81.29 0.999145 -81.29 0.040681 -171.6
8.79076000 0.040695 -171.1 0.999144 -81.29 0.999144 -81.29 0.040694 -171.6
8.79077000 0.040708 -171.1 0.999144 -81.29 0.999144 -81.29 0.040707 -171.6
8.79078000 0.040721 -171.1 0.999143 -81.29 0.999143 -81.29 0.040720 -171.6
8.79079000 0.040734 -171.1 0.999143 -81.29 0.999143 -81.29 0.040733 -171.6
8.79080000 0.040746 -171.1 0.999142 -81.29 0.999142 -81.29 0.040746 -171.6
8.79081000 0.040759 -171.1 0.999142 -81.29 0.999142 -81.29 0.040759 -171.6
8.79082000 0.040772 -171.1 0.999141 -81.29 0.999141 -81.29 0.040772 -171.6
8.79083000 0.040785 -171.1 0.999140 -81.29 0.999140 -81.29 0.040784 -171.6
8.79084000 0.040798 -171.1 0.999140 -81.29 0.999140 -81.29 0.040797 -171.6
8.79085000 0.040811 -171.1 0.999139 -81.30 0.999139 -81.30 0.040811 -171.6
8.79086000 0.040824 -171.1 0.999139 -81.30 0.999139 -81.30 0.040824 -171.6
8.79087000 0.040838 -171.1 0.999138 -81.30 0.999138 -81.30 0.040837 -171.6
8.79088000 0.040851 -171.1 0.999138 -81.30 0.999138 -81.30 0.040850 -171.6
8.79089000 0.040864 -171.1 0.999137 -81.30 0.999137 -81.30 0.040863 -171.6
8.79090000 0.040877 -171.1 0.999136 -81.30 0.999136 -81.30 0.040876 -171.6
8.79091000 0.040890 -171.1 0.999136 -81.30 0.999136 -81.30 0.040889 -171.6
8.79092000 0.040903 -171.1 0.999135 -81.30 0.999135 -81.30 0.040902 -171.6
8.79093000 0.040916 -171.1 0.999135 -81.30 0.999135 -81.30 0.040915 -171.6
8.79094000 0.040930 -171.1 0.999134 -81.30 0.999134 -81.30 0.040929 -171.6
8.79095000 0.040943 -171.1 0.999134 -81.30 0.999134 -81.30 0.040942 -171.6
8.79096000 0.040956 -171.1 0.999133 -81.30 0.999133 -81.30 0.040955 -171.6
8.79097000 0.040969 -171.1 0.999132 -81.31 0.999132 -81.31 0.040969 -171.6
8.79098000 0.040983 -171.1 0.999132 -81.31 0.999132 -81.31 0.040982 -171.6
8.79099000 0.040996 -171.1 0.999131 -81.31 0.999131 -81.31 0.040995 -171.6
8.79100000 0.041009 -171.1 0.999131 -81.31 0.999131 -81.31 0.041009 -171.6
8.79101000 0.041023 -171.1 0.999130 -81.31 0.999130 -81.31 0.041022 -171.6
8.79102000 0.041036 -171.1 0.999129 -81.31 0.999129 -81.31 0.041035 -171.6
8.79103000 0.041050 -171.1 0.999129 -81.31 0.999129 -81.31 0.041049 -171.6
8.79104000 0.041063 -171.1 0.999128 -81.31 0.999128 -81.31 0.041062 -171.6
8.79105000 0.041077 -171.1 0.999128 -81.31 0.999128 -81.31 0.041076 -171.6
8.79106000 0.041090 -171.1 0.999127 -81.31 0.999127 -81.31 0.041089 -171.6
8.79107000 0.041104 -171.1 0.999126 -81.31 0.999126 -81.31 0.041103 -171.6
8.79108000 0.041117 -171.1 0.999126 -81.31 0.999126 -81.31 0.041116 -171.6
8.79109000 0.041131 -171.1 0.999125 -81.32 0.999125 -81.32 0.041130 -171.6
8.79110000 0.041144 -171.1 0.999125 -81.32 0.999125 -81.32 0.041143 -171.6
8.79111000 0.041158 -171.1 0.999124 -81.32 0.999124 -81.32 0.041157 -171.6
8.79112000 0.041172 -171.1 0.999123 -81.32 0.999123 -81.32 0.041171 -171.6
8.79113000 0.041185 -171.1 0.999123 -81.32 0.999123 -81.32 0.041184 -171.6
8.79114000 0.041199 -171.1 0.999122 -81.32 0.999122 -81.32 0.041198 -171.6
8.79115000 0.041213 -171.1 0.999122 -81.32 0.999122 -81.32 0.041212 -171.6
8.79116000 0.041226 -171.1 0.999121 -81.32 0.999121 -81.32 0.041226 -171.6
8.79117000 0.041240 -171.1 0.999120 -81.32 0.999120 -81.32 0.041239 -171.6
8.79118000 0.041254 -171.1 0.999120 -81.32 0.999120 -81.32 0.041253 -171.6
8.79119000 0.041268 -171.1 0.999119 -81.32 0.999119 -81.32 0.041267 -171.6
8.79120000 0.041282 -171.1 0.999118 -81.33 0.999118 -81.33 0.041281 -171.6
8.79121000 0.041296 -171.1 0.999118 -81.33 0.999118 -81.33 0.041295 -171.7
8.79122000 0.041309 -171.1 0.999117 -81.33 0.999117 -81.33 0.041309 -171.7
8.79123000 0.041323 -171.1 0.999117 -81.33 0.999117 -81.33 0.041322 -171.7
8.79124000 0.041337 -171.1 0.999116 -81.33 0.999116 -81.33 0.041336 -171.7
8.79125000 0.041351 -171.1 0.999115 -81.33 0.999115 -81.33 0.041350 -171.7
8.79126000 0.041365 -171.1 0.999115 -81.33 0.999115 -81.33 0.041364 -171.7
8.79127000 0.041379 -171.1 0.999114 -81.33 0.999114 -81.33 0.041378 -171.7
8.79128000 0.041393 -171.1 0.999113 -81.33 0.999113 -81.33 0.041392 -171.7
8.79129000 0.041407 -171.1 0.999113 -81.33 0.999113 -81.33 0.041406 -171.7
8.79130000 0.041421 -171.1 0.999112 -81.33 0.999112 -81.33 0.041420 -171.7
8.79131000 0.041436 -171.1 0.999112 -81.34 0.999112 -81.34 0.041435 -171.7
8.79132000 0.041450 -171.1 0.999111 -81.34 0.999111 -81.34 0.041449 -171.7
8.79133000 0.041464 -171.1 0.999110 -81.34 0.999110 -81.34 0.041463 -171.7
8.79134000 0.041478 -171.1 0.999110 -81.34 0.999110 -81.34 0.041477 -171.7
8.79135000 0.041492 -171.1 0.999109 -81.34 0.999109 -81.34 0.041491 -171.7
8.79136000 0.041506 -171.1 0.999108 -81.34 0.999108 -81.34 0.041506 -171.7
8.79137000 0.041521 -171.1 0.999108 -81.34 0.999108 -81.34 0.041520 -171.7
8.79138000 0.041535 -171.1 0.999107 -81.34 0.999107 -81.34 0.041534 -171.7
8.79139000 0.041549 -171.1 0.999106 -81.34 0.999106 -81.34 0.041548 -171.7
8.79140000 0.041564 -171.1 0.999106 -81.34 0.999106 -81.34 0.041563 -171.7
8.79141000 0.041578 -171.1 0.999105 -81.34 0.999105 -81.34 0.041577 -171.7
8.79142000 0.041592 -171.1 0.999105 -81.35 0.999105 -81.35 0.041591 -171.7
8.79143000 0.041607 -171.1 0.999104 -81.35 0.999104 -81.35 0.041606 -171.7
8.79144000 0.041621 -171.1 0.999103 -81.35 0.999103 -81.35 0.041620 -171.7
8.79145000 0.041636 -171.1 0.999103 -81.35 0.999103 -81.35 0.041635 -171.7
8.79146000 0.041650 -171.1 0.999102 -81.35 0.999102 -81.35 0.041649 -171.7
8.79147000 0.041665 -171.1 0.999101 -81.35 0.999101 -81.35 0.041664 -171.7
8.79148000 0.041679 -171.1 0.999101 -81.35 0.999101 -81.35 0.041678 -171.7
8.79149000 0.041694 -171.1 0.999100 -81.35 0.999100 -81.35 0.041693 -171.7
8.79150000 0.041709 -171.1 0.999099 -81.35 0.999099 -81.35 0.041708 -171.7
8.79151000 0.041723 -171.1 0.999099 -81.35 0.999099 -81.35 0.041722 -171.7
8.79152000 0.041738 -171.1 0.999098 -81.35 0.999098 -81.35 0.041737 -171.7
8.79153000 0.041752 -171.1 0.999097 -81.36 0.999097 -81.36 0.041751 -171.7
8.79154000 0.041767 -171.1 0.999097 -81.36 0.999097 -81.36 0.041766 -171.7
8.79155000 0.041782 -171.1 0.999096 -81.36 0.999096 -81.36 0.041781 -171.7
8.79156000 0.041797 -171.1 0.999095 -81.36 0.999095 -81.36 0.041796 -171.7
8.79157000 0.041811 -171.1 0.999095 -81.36 0.999095 -81.36 0.041810 -171.7
8.79158000 0.041826 -171.1 0.999094 -81.36 0.999094 -81.36 0.041825 -171.7
8.79159000 0.041841 -171.1 0.999093 -81.36 0.999093 -81.36 0.041840 -171.7
8.79160000 0.041856 -171.1 0.999093 -81.36 0.999093 -81.36 0.041855 -171.7
8.79161000 0.041871 -171.1 0.999092 -81.36 0.999092 -81.36 0.041870 -171.7
8.79162000 0.041886 -171.1 0.999091 -81.36 0.999091 -81.36 0.041885 -171.7
8.79163000 0.041901 -171.1 0.999091 -81.36 0.999091 -81.36 0.041900 -171.7
8.79164000 0.041916 -171.1 0.999090 -81.37 0.999090 -81.37 0.041915 -171.7
8.79165000 0.041931 -171.1 0.999089 -81.37 0.999089 -81.37 0.041930 -171.7
8.79166000 0.041946 -171.1 0.999089 -81.37 0.999089 -81.37 0.041945 -171.7
8.79167000 0.041961 -171.1 0.999088 -81.37 0.999088 -81.37 0.041960 -171.7
8.79168000 0.041976 -171.1 0.999087 -81.37 0.999087 -81.37 0.041975 -171.7
8.79169000 0.041991 -171.1 0.999087 -81.37 0.999087 -81.37 0.041990 -171.7
8.79170000 0.042006 -171.1 0.999086 -81.37 0.999086 -81.37 0.042005 -171.7
8.79171000 0.042021 -171.1 0.999085 -81.37 0.999085 -81.37 0.042020 -171.7
8.79172000 0.042037 -171.1 0.999084 -81.37 0.999084 -81.37 0.042036 -171.7
8.79173000 0.042052 -171.1 0.999084 -81.37 0.999084 -81.37 0.042051 -171.7
8.79174000 0.042067 -171.1 0.999083 -81.38 0.999083 -81.38 0.042066 -171.7
8.79175000 0.042082 -171.1 0.999082 -81.38 0.999082 -81.38 0.042081 -171.7
8.79176000 0.042098 -171.1 0.999082 -81.38 0.999082 -81.38 0.042097 -171.7
8.79177000 0.042113 -171.1 0.999081 -81.38 0.999081 -81.38 0.042112 -171.7
8.79178000 0.042128 -171.1 0.999080 -81.38 0.999080 -81.38 0.042127 -171.7
8.79179000 0.042144 -171.1 0.999080 -81.38 0.999080 -81.38 0.042143 -171.7
8.79180000 0.042159 -171.1 0.999079 -81.38 0.999079 -81.38 0.042158 -171.7
8.79181000 0.042175 -171.1 0.999078 -81.38 0.999078 -81.38 0.042174 -171.7
8.79182000 0.042190 -171.1 0.999077 -81.38 0.999077 -81.38 0.042189 -171.7
8.79183000 0.042206 -171.1 0.999077 -81.38 0.999077 -81.38 0.042205 -171.7
8.79184000 0.042221 -171.1 0.999076 -81.39 0.999076 -81.39 0.042220 -171.7
8.79185000 0.042237 -171.1 0.999075 -81.39 0.999075 -81.39 0.042236 -171.7
8.79186000 0.042252 -171.1 0.999075 -81.39 0.999075 -81.39 0.042251 -171.7
8.79187000 0.042268 -171.1 0.999074 -81.39 0.999074 -81.39 0.042267 -171.7
8.79188000 0.042284 -171.1 0.999073 -81.39 0.999073 -81.39 0.042283 -171.7
8.79189000 0.042299 -171.1 0.999072 -81.39 0.999072 -81.39 0.042298 -171.7
8.79190000 0.042315 -171.1 0.999072 -81.39 0.999072 -81.39 0.042314 -171.7
8.79191000 0.042331 -171.1 0.999071 -81.39 0.999071 -81.39 0.042330 -171.7
8.79192000 0.042347 -171.1 0.999070 -81.39 0.999070 -81.39 0.042346 -171.7
8.79193000 0.042362 -171.1 0.999070 -81.39 0.999070 -81.39 0.042361 -171.7
8.79194000 0.042378 -171.1 0.999069 -81.39 0.999069 -81.39 0.042377 -171.8
8.79195000 0.042394 -171.1 0.999068 -81.40 0.999068 -81.40 0.042393 -171.8
8.79196000 0.042410 -171.1 0.999067 -81.40 0.999067 -81.40 0.042409 -171.8
8.79197000 0.042426 -171.1 0.999067 -81.40 0.999067 -81.40 0.042425 -171.8
8.79198000 0.042442 -171.1 0.999066 -81.40 0.999066 -81.40 0.042441 -171.8
8.79199000 0.042458 -171.1 0.999065 -81.40 0.999065 -81.40 0.042457 -171.8
8.79200000 0.042474 -171.1 0.999064 -81.40 0.999064 -81.40 0.042473 -171.8
8.79201000 0.042490 -171.1 0.999064 -81.40 0.999064 -81.40 0.042489 -171.8
8.79202000 0.042506 -171.1 0.999063 -81.40 0.999063 -81.40 0.042505 -171.8
8.79203000 0.042522 -171.1 0.999062 -81.40 0.999062 -81.40 0.042521 -171.8
8.79204000 0.042538 -171.1 0.999061 -81.41 0.999061 -81.41 0.042537 -171.8
8.79205000 0.042554 -171.1 0.999061 -81.41 0.999061 -81.41 0.042553 -171.8
8.79206000 0.042571 -171.1 0.999060 -81.41 0.999060 -81.41 0.042570 -171.8
8.79207000 0.042587 -171.1 0.999059 -81.41 0.999059 -81.41 0.042586 -171.8
8.79208000 0.042603 -171.1 0.999058 -81.41 0.999058 -81.41 0.042602 -171.8
8.79209000 0.042619 -171.1 0.999058 -81.41 0.999058 -81.41 0.042618 -171.8
8.79210000 0.042636 -171.1 0.999057 -81.41 0.999057 -81.41 0.042635 -171.8
8.79211000 0.042652 -171.1 0.999056 -81.41 0.999056 -81.41 0.042651 -171.8
8.79212000 0.042668 -171.1 0.999055 -81.41 0.999055 -81.41 0.042667 -171.8
8.79213000 0.042685 -171.1 0.999055 -81.41 0.999055 -81.41 0.042684 -171.8
8.79214000 0.042701 -171.1 0.999054 -81.42 0.999054 -81.42 0.042700 -171.8
8.79215000 0.042718 -171.1 0.999053 -81.42 0.999053 -81.42 0.042717 -171.8
8.79216000 0.042734 -171.1 0.999052 -81.42 0.999052 -81.42 0.042733 -171.8
8.79217000 0.042751 -171.1 0.999052 -81.42 0.999052 -81.42 0.042750 -171.8
8.79218000 0.042767 -171.1 0.999051 -81.42 0.999051 -81.42 0.042766 -171.8
8.79219000 0.042784 -171.1 0.999050 -81.42 0.999050 -81.42 0.042783 -171.8
8.79220000 0.042801 -171.1 0.999049 -81.42 0.999049 -81.42 0.042800 -171.8
8.79221000 0.042817 -171.1 0.999049 -81.42 0.999049 -81.42 0.042816 -171.8
8.79222000 0.042834 -171.1 0.999048 -81.42 0.999048 -81.42 0.042833 -171.8
8.79223000 0.042851 -171.1 0.999047 -81.42 0.999047 -81.42 0.042850 -171.8
8.79224000 0.042868 -171.1 0.999046 -81.43 0.999046 -81.43 0.042867 -171.8
8.79225000 0.042884 -171.1 0.999045 -81.43 0.999045 -81.43 0.042883 -171.8
8.79226000 0.042901 -171.1 0.999045 -81.43 0.999045 -81.43 0.042900 -171.8
8.79227000 0.042918 -171.1 0.999044 -81.43 0.999044 -81.43 0.042917 -171.8
8.79228000 0.042935 -171.1 0.999043 -81.43 0.999043 -81.43 0.042934 -171.8
8.79229000 0.042952 -171.1 0.999042 -81.43 0.999042 -81.43 0.042951 -171.8
8.79230000 0.042969 -171.1 0.999042 -81.43 0.999042 -81.43 0.042968 -171.8
8.79231000 0.042986 -171.2 0.999041 -81.43 0.999041 -81.43 0.042985 -171.8
8.79232000 0.043003 -171.2 0.999040 -81.43 0.999040 -81.43 0.043002 -171.8
8.79233000 0.043020 -171.2 0.999039 -81.44 0.999039 -81.44 0.043019 -171.8
8.79234000 0.043037 -171.2 0.999038 -81.44 0.999038 -81.44 0.043036 -171.8
8.79235000 0.043054 -171.2 0.999038 -81.44 0.999038 -81.44 0.043053 -171.8
8.79236000 0.043071 -171.2 0.999037 -81.44 0.999037 -81.44 0.043070 -171.8
8.79237000 0.043089 -171.2 0.999036 -81.44 0.999036 -81.44 0.043088 -171.8
8.79238000 0.043106 -171.2 0.999035 -81.44 0.999035 -81.44 0.043105 -171.8
8.79239000 0.043123 -171.2 0.999034 -81.44 0.999034 -81.44 0.043122 -171.8
8.79240000 0.043140 -171.2 0.999033 -81.44 0.999033 -81.44 0.043139 -171.8
8.79241000 0.043158 -171.2 0.999033 -81.44 0.999033 -81.44 0.043157 -171.8
8.79242000 0.043175 -171.2 0.999032 -81.45 0.999032 -81.45 0.043174 -171.8
8.79243000 0.043193 -171.2 0.999031 -81.45 0.999031 -81.45 0.043191 -171.8
8.79244000 0.043210 -171.2 0.999030 -81.45 0.999030 -81.45 0.043209 -171.8
8.79245000 0.043227 -171.2 0.999029 -81.45 0.999029 -81.45 0.043226 -171.8
8.79246000 0.043245 -171.2 0.999029 -81.45 0.999029 -81.45 0.043244 -171.8
8.79247000 0.043263 -171.2 0.999028 -81.45 0.999028 -81.45 0.043261 -171.8
8.79248000 0.043280 -171.2 0.999027 -81.45 0.999027 -81.45 0.043279 -171.8
8.79249000 0.043298 -171.2 0.999026 -81.45 0.999026 -81.45 0.043297 -171.8
8.79250000 0.043315 -171.2 0.999025 -81.45 0.999025 -81.45 0.043314 -171.8
8.79251000 0.043333 -171.2 0.999024 -81.45 0.999024 -81.45 0.043332 -171.8
8.79252000 0.043351 -171.2 0.999024 -81.46 0.999024 -81.46 0.043350 -171.8
8.79253000 0.043369 -171.2 0.999023 -81.46 0.999023 -81.46 0.043367 -171.8
8.79254000 0.043386 -171.2 0.999022 -81.46 0.999022 -81.46 0.043385 -171.8
8.79255000 0.043404 -171.2 0.999021 -81.46 0.999021 -81.46 0.043403 -171.8
8.79256000 0.043422 -171.2 0.999020 -81.46 0.999020 -81.46 0.043421 -171.8
8.79257000 0.043440 -171.2 0.999019 -81.46 0.999019 -81.46 0.043439 -171.8
8.79258000 0.043458 -171.2 0.999019 -81.46 0.999019 -81.46 0.043457 -171.8
8.79259000 0.043476 -171.2 0.999018 -81.46 0.999018 -81.46 0.043475 -171.8
8.79260000 0.043494 -171.2 0.999017 -81.46 0.999017 -81.46 0.043493 -171.9
8.79261000 0.043512 -171.2 0.999016 -81.47 0.999016 -81.47 0.043511 -171.9
8.79262000 0.043530 -171.2 0.999015 -81.47 0.999015 -81.47 0.043529 -171.9
8.79263000 0.043548 -171.2 0.999014 -81.47 0.999014 -81.47 0.043547 -171.9
8.79264000 0.043566 -171.2 0.999013 -81.47 0.999013 -81.47 0.043565 -171.9
8.79265000 0.043584 -171.2 0.999013 -81.47 0.999013 -81.47 0.043583 -171.9
8.79266000 0.043603 -171.2 0.999012 -81.47 0.999012 -81.47 0.043601 -171.9
8.79267000 0.043621 -171.2 0.999011 -81.47 0.999011 -81.47 0.043620 -171.9
8.79268000 0.043639 -171.2 0.999010 -81.47 0.999010 -81.47 0.043638 -171.9
8.79269000 0.043658 -171.2 0.999009 -81.48 0.999009 -81.48 0.043656 -171.9
8.79270000 0.043676 -171.2 0.999008 -81.48 0.999008 -81.48 0.043675 -171.9
8.79271000 0.043694 -171.2 0.999007 -81.48 0.999007 -81.48 0.043693 -171.9
8.79272000 0.043713 -171.2 0.999006 -81.48 0.999006 -81.48 0.043712 -171.9
8.79273000 0.043731 -171.2 0.999006 -81.48 0.999006 -81.48 0.043730 -171.9
8.79274000 0.043750 -171.2 0.999005 -81.48 0.999005 -81.48 0.043749 -171.9
8.79275000 0.043768 -171.2 0.999004 -81.48 0.999004 -81.48 0.043767 -171.9
8.79276000 0.043787 -171.2 0.999003 -81.48 0.999003 -81.48 0.043786 -171.9
8.79277000 0.043806 -171.2 0.999002 -81.48 0.999002 -81.48 0.043804 -171.9
8.79278000 0.043824 -171.2 0.999001 -81.49 0.999001 -81.49 0.043823 -171.9
8.79279000 0.043843 -171.2 0.999000 -81.49 0.999000 -81.49 0.043842 -171.9
8.79280000 0.043862 -171.2 0.998999 -81.49 0.998999 -81.49 0.043861 -171.9
8.79281000 0.043881 -171.2 0.998998 -81.49 0.998998 -81.49 0.043879 -171.9
8.79282000 0.043899 -171.2 0.998998 -81.49 0.998998 -81.49 0.043898 -171.9
8.79283000 0.043918 -171.2 0.998997 -81.49 0.998997 -81.49 0.043917 -171.9
8.79284000 0.043937 -171.2 0.998996 -81.49 0.998996 -81.49 0.043936 -171.9
8.79285000 0.043956 -171.2 0.998995 -81.49 0.998995 -81.49 0.043955 -171.9
8.79286000 0.043975 -171.2 0.998994 -81.49 0.998994 -81.49 0.043974 -171.9
8.79287000 0.043994 -171.2 0.998993 -81.50 0.998993 -81.50 0.043993 -171.9
8.79288000 0.044013 -171.2 0.998992 -81.50 0.998992 -81.50 0.044012 -171.9
8.79289000 0.044032 -171.2 0.998991 -81.50 0.998991 -81.50 0.044031 -171.9
8.79290000 0.044051 -171.2 0.998990 -81.50 0.998990 -81.50 0.044050 -171.9
8.79291000 0.044071 -171.2 0.998989 -81.50 0.998989 -81.50 0.044069 -171.9
8.79292000 0.044090 -171.2 0.998988 -81.50 0.998988 -81.50 0.044089 -171.9
8.79293000 0.044109 -171.2 0.998988 -81.50 0.998988 -81.50 0.044108 -171.9
8.79294000 0.044128 -171.2 0.998987 -81.50 0.998987 -81.50 0.044127 -171.9
8.79295000 0.044148 -171.2 0.998986 -81.51 0.998986 -81.51 0.044147 -171.9
8.79296000 0.044167 -171.2 0.998985 -81.51 0.998985 -81.51 0.044166 -171.9
8.79297000 0.044187 -171.2 0.998984 -81.51 0.998984 -81.51 0.044185 -171.9
8.79298000 0.044206 -171.2 0.998983 -81.51 0.998983 -81.51 0.044205 -171.9
8.79299000 0.044226 -171.2 0.998982 -81.51 0.998982 -81.51 0.044224 -171.9
8.79300000 0.044245 -171.2 0.998981 -81.51 0.998981 -81.51 0.044244 -171.9
8.79301000 0.044265 -171.2 0.998980 -81.51 0.998980 -81.51 0.044263 -171.9
8.79302000 0.044284 -171.2 0.998979 -81.51 0.998979 -81.51 0.044283 -171.9
8.79303000 0.044304 -171.2 0.998978 -81.52 0.998978 -81.52 0.044303 -171.9
8.79304000 0.044324 -171.2 0.998977 -81.52 0.998977 -81.52 0.044322 -171.9
8.79305000 0.044343 -171.2 0.998976 -81.52 0.998976 -81.52 0.044342 -171.9
8.79306000 0.044363 -171.2 0.998975 -81.52 0.998975 -81.52 0.044362 -171.9
8.79307000 0.044383 -171.2 0.998974 -81.52 0.998974 -81.52 0.044382 -171.9
8.79308000 0.044403 -171.2 0.998973 -81.52 0.998973 -81.52 0.044402 -171.9
8.79309000 0.044423 -171.2 0.998972 -81.52 0.998972 -81.52 0.044422 -171.9
8.79310000 0.044443 -171.2 0.998971 -81.52 0.998971 -81.52 0.044442 -171.9
8.79311000 0.044463 -171.2 0.998970 -81.53 0.998970 -81.53 0.044462 -171.9
8.79312000 0.044483 -171.2 0.998970 -81.53 0.998970 -81.53 0.044482 -171.9
8.79313000 0.044503 -171.2 0.998969 -81.53 0.998969 -81.53 0.044502 -171.9
8.79314000 0.044523 -171.2 0.998968 -81.53 0.998968 -81.53 0.044522 -171.9
8.79315000 0.044543 -171.2 0.998967 -81.53 0.998967 -81.53 0.044542 -171.9
8.79316000 0.044563 -171.2 0.998966 -81.53 0.998966 -81.53 0.044562 -171.9
8.79317000 0.044584 -171.2 0.998965 -81.53 0.998965 -81.53 0.044583 -171.9
8.79318000 0.044604 -171.2 0.998964 -81.53 0.998964 -81.53 0.044603 -171.9
8.79319000 0.044624 -171.2 0.998963 -81.54 0.998963 -81.54 0.044623 -172.0
8.79320000 0.044645 -171.2 0.998962 -81.54 0.998962 -81.54 0.044644 -172.0
8.79321000 0.044665 -171.2 0.998961 -81.54 0.998961 -81.54 0.044664 -172.0
8.79322000 0.044686 -171.2 0.998960 -81.54 0.998960 -81.54 0.044684 -172.0
8.79323000 0.044706 -171.2 0.998959 -81.54 0.998959 -81.54 0.044705 -172.0
8.79324000 0.044727 -171.2 0.998958 -81.54 0.998958 -81.54 0.044726 -172.0
8.79325000 0.044747 -171.2 0.998957 -81.54 0.998957 -81.54 0.044746 -172.0
8.79326000 0.044768 -171.2 0.998956 -81.54 0.998956 -81.54 0.044767 -172.0
8.79327000 0.044789 -171.2 0.998955 -81.55 0.998955 -81.55 0.044788 -172.0
8.79328000 0.044810 -171.2 0.998954 -81.55 0.998954 -81.55 0.044808 -172.0
8.79329000 0.044830 -171.2 0.998953 -81.55 0.998953 -81.55 0.044829 -172.0
8.79330000 0.044851 -171.2 0.998952 -81.55 0.998952 -81.55 0.044850 -172.0
8.79331000 0.044872 -171.2 0.998951 -81.55 0.998951 -81.55 0.044871 -172.0
8.79332000 0.044893 -171.2 0.998950 -81.55 0.998950 -81.55 0.044892 -172.0
8.79333000 0.044914 -171.2 0.998949 -81.55 0.998949 -81.55 0.044913 -172.0
8.79334000 0.044935 -171.2 0.998947 -81.55 0.998947 -81.55 0.044934 -172.0
8.79335000 0.044956 -171.2 0.998946 -81.56 0.998946 -81.56 0.044955 -172.0
8.79336000 0.044977 -171.2 0.998945 -81.56 0.998945 -81.56 0.044976 -172.0
8.79337000 0.044998 -171.2 0.998944 -81.56 0.998944 -81.56 0.044997 -172.0
8.79338000 0.045019 -171.2 0.998943 -81.56 0.998943 -81.56 0.045018 -172.0
8.79339000 0.045041 -171.2 0.998942 -81.56 0.998942 -81.56 0.045039 -172.0
8.79340000 0.045062 -171.2 0.998941 -81.56 0.998941 -81.56 0.045061 -172.0
8.79341000 0.045083 -171.2 0.998940 -81.56 0.998940 -81.56 0.045082 -172.0
8.79342000 0.045105 -171.2 0.998939 -81.56 0.998939 -81.56 0.045103 -172.0
8.79343000 0.045126 -171.2 0.998938 -81.57 0.998938 -81.57 0.045125 -172.0
8.79344000 0.045148 -171.2 0.998937 -81.57 0.998937 -81.57 0.045146 -172.0
8.79345000 0.045169 -171.2 0.998936 -81.57 0.998936 -81.57 0.045168 -172.0
8.79346000 0.045191 -171.2 0.998935 -81.57 0.998935 -81.57 0.045189 -172.0
8.79347000 0.045212 -171.2 0.998934 -81.57 0.998934 -81.57 0.045211 -172.0
8.79348000 0.045234 -171.2 0.998933 -81.57 0.998933 -81.57 0.045233 -172.0
8.79349000 0.045256 -171.2 0.998932 -81.57 0.998932 -81.57 0.045254 -172.0
8.79350000 0.045278 -171.3 0.998931 -81.58 0.998931 -81.58 0.045276 -172.0
8.79351000 0.045299 -171.3 0.998930 -81.58 0.998930 -81.58 0.045298 -172.0
8.79352000 0.045321 -171.3 0.998928 -81.58 0.998928 -81.58 0.045320 -172.0
8.79353000 0.045343 -171.3 0.998927 -81.58 0.998927 -81.58 0.045342 -172.0
8.79354000 0.045365 -171.3 0.998926 -81.58 0.998926 -81.58 0.045364 -172.0
8.79355000 0.045387 -171.3 0.998925 -81.58 0.998925 -81.58 0.045386 -172.0
8.79356000 0.045409 -171.3 0.998924 -81.58 0.998924 -81.58 0.045408 -172.0
8.79357000 0.045431 -171.3 0.998923 -81.58 0.998923 -81.58 0.045430 -172.0
8.79358000 0.045453 -171.3 0.998922 -81.59 0.998922 -81.59 0.045452 -172.0
8.79359000 0.045476 -171.3 0.998921 -81.59 0.998921 -81.59 0.045474 -172.0
8.79360000 0.045498 -171.3 0.998920 -81.59 0.998920 -81.59 0.045497 -172.0
8.79361000 0.045520 -171.3 0.998919 -81.59 0.998919 -81.59 0.045519 -172.0
8.79362000 0.045543 -171.3 0.998917 -81.59 0.998917 -81.59 0.045541 -172.0
8.79363000 0.045565 -171.3 0.998916 -81.59 0.998916 -81.59 0.045564 -172.0
8.79364000 0.045587 -171.3 0.998915 -81.59 0.998915 -81.59 0.045586 -172.0
8.79365000 0.045610 -171.3 0.998914 -81.60 0.998914 -81.60 0.045609 -172.0
8.79366000 0.045633 -171.3 0.998913 -81.60 0.998913 -81.60 0.045631 -172.0
8.79367000 0.045655 -171.3 0.998912 -81.60 0.998912 -81.60 0.045654 -172.0
8.79368000 0.045678 -171.3 0.998911 -81.60 0.998911 -81.60 0.045676 -172.0
8.79369000 0.045700 -171.3 0.998910 -81.60 0.998910 -81.60 0.045699 -172.0
8.79370000 0.045723 -171.3 0.998908 -81.60 0.998908 -81.60 0.045722 -172.0
8.79371000 0.045746 -171.3 0.998907 -81.60 0.998907 -81.60 0.045745 -172.0
8.79372000 0.045769 -171.3 0.998906 -81.61 0.998906 -81.61 0.045768 -172.1
8.79373000 0.045792 -171.3 0.998905 -81.61 0.998905 -81.61 0.045790 -172.1
8.79374000 0.045815 -171.3 0.998904 -81.61 0.998904 -81.61 0.045813 -172.1
8.79375000 0.045838 -171.3 0.998903 -81.61 0.998903 -81.61 0.045836 -172.1
8.79376000 0.045861 -171.3 0.998902 -81.61 0.998902 -81.61 0.045860 -172.1
8.79377000 0.045884 -171.3 0.998900 -81.61 0.998900 -81.61 0.045883 -172.1
8.79378000 0.045907 -171.3 0.998899 -81.61 0.998899 -81.61 0.045906 -172.1
8.79379000 0.045930 -171.3 0.998898 -81.62 0.998898 -81.62 0.045929 -172.1
8.79380000 0.045954 -171.3 0.998897 -81.62 0.998897 -81.62 0.045952 -172.1
8.79381000 0.045977 -171.3 0.998896 -81.62 0.998896 -81.62 0.045976 -172.1
8.79382000 0.046000 -171.3 0.998895 -81.62 0.998895 -81.62 0.045999 -172.1
8.79383000 0.046024 -171.3 0.998893 -81.62 0.998893 -81.62 0.046022 -172.1
8.79384000 0.046047 -171.3 0.998892 -81.62 0.998892 -81.62 0.046046 -172.1
8.79385000 0.046071 -171.3 0.998891 -81.62 0.998891 -81.62 0.046070 -172.1
8.79386000 0.046095 -171.3 0.998890 -81.63 0.998890 -81.63 0.046093 -172.1
8.79387000 0.046118 -171.3 0.998889 -81.63 0.998889 -81.63 0.046117 -172.1
8.79388000 0.046142 -171.3 0.998887 -81.63 0.998887 -81.63 0.046141 -172.1
8.79389000 0.046166 -171.3 0.998886 -81.63 0.998886 -81.63 0.046164 -172.1
8.79390000 0.046190 -171.3 0.998885 -81.63 0.998885 -81.63 0.046188 -172.1
8.79391000 0.046213 -171.3 0.998884 -81.63 0.998884 -81.63 0.046212 -172.1
8.79392000 0.046237 -171.3 0.998883 -81.63 0.998883 -81.63 0.046236 -172.1