! Sonnet Data File
! From: emgraph Version : 16.52
! From Project: Qubit_Test_beforeopt
! Data is De-embedded 
! Data File Written: 10/18/2017 16:57:23
!< HDATE 10/18/2017 09:03:38
!< MDATE 10/18/2017 09:03:38
!< PARAMS
!< Lj = 11.0
!< Gap = 26.0
!< Pwid = 2000.0
!< Airgap = 6.0
!< Width = 10.0
!< END PARAMS
# GHZ S MA R 51.80000
8.79000000 0.001484 179.43 0.999993 -80.52 0.999993 -80.52 0.001482 -160.9
!< P1 F=8.79 Eeff=(6.44677226 -2.9786e-5) Z0=(51.7990523 1.19065e-4) R=0.0 C=0.0 
!< P2 F=8.79 Eeff=(6.44677226 -2.9786e-5) Z0=(51.7990523 1.19065e-4) R=0.0 C=0.0 
8.79001000 0.001486 179.44 0.999993 -80.52 0.999993 -80.52 0.001484 -160.9
8.79002000 0.001487 179.46 0.999993 -80.52 0.999993 -80.52 0.001485 -160.9
8.79003000 0.001489 179.47 0.999993 -80.52 0.999993 -80.52 0.001487 -160.9
8.79004000 0.001490 179.48 0.999993 -80.52 0.999993 -80.52 0.001488 -160.9
8.79005000 0.001492 179.49 0.999993 -80.52 0.999993 -80.52 0.001490 -160.9
8.79006000 0.001494 179.51 0.999993 -80.52 0.999993 -80.52 0.001492 -160.9
8.79007000 0.001495 179.52 0.999993 -80.52 0.999993 -80.52 0.001493 -161.0
8.79008000 0.001497 179.53 0.999993 -80.52 0.999993 -80.52 0.001495 -161.0
8.79009000 0.001499 179.54 0.999993 -80.52 0.999993 -80.52 0.001497 -161.0
8.79010000 0.001500 179.56 0.999993 -80.52 0.999993 -80.52 0.001498 -161.0
8.79011000 0.001502 179.57 0.999993 -80.52 0.999993 -80.52 0.001500 -161.0
8.79012000 0.001503 179.58 0.999993 -80.52 0.999993 -80.52 0.001501 -161.0
8.79013000 0.001505 179.59 0.999993 -80.52 0.999993 -80.52 0.001503 -161.0
8.79014000 0.001507 179.60 0.999993 -80.52 0.999993 -80.52 0.001505 -161.0
8.79015000 0.001508 179.62 0.999993 -80.52 0.999993 -80.52 0.001506 -161.1
8.79016000 0.001510 179.63 0.999993 -80.52 0.999993 -80.52 0.001508 -161.1
8.79017000 0.001512 179.64 0.999992 -80.52 0.999992 -80.52 0.001510 -161.1
8.79018000 0.001513 179.65 0.999992 -80.52 0.999992 -80.52 0.001511 -161.1
8.79019000 0.001515 179.67 0.999992 -80.52 0.999992 -80.52 0.001513 -161.1
8.79020000 0.001517 179.68 0.999992 -80.52 0.999992 -80.52 0.001515 -161.1
8.79021000 0.001518 179.69 0.999992 -80.52 0.999992 -80.52 0.001516 -161.1
8.79022000 0.001520 179.70 0.999992 -80.52 0.999992 -80.52 0.001518 -161.1
8.79023000 0.001522 179.72 0.999992 -80.52 0.999992 -80.52 0.001520 -161.2
8.79024000 0.001523 179.73 0.999992 -80.52 0.999992 -80.52 0.001521 -161.2
8.79025000 0.001525 179.74 0.999992 -80.52 0.999992 -80.52 0.001523 -161.2
8.79026000 0.001527 179.75 0.999992 -80.52 0.999992 -80.52 0.001525 -161.2
8.79027000 0.001528 179.76 0.999992 -80.52 0.999992 -80.52 0.001526 -161.2
8.79028000 0.001530 179.78 0.999992 -80.52 0.999992 -80.52 0.001528 -161.2
8.79029000 0.001532 179.79 0.999992 -80.52 0.999992 -80.52 0.001530 -161.2
8.79030000 0.001533 179.80 0.999992 -80.52 0.999992 -80.52 0.001531 -161.2
8.79031000 0.001535 179.81 0.999992 -80.52 0.999992 -80.52 0.001533 -161.3
8.79032000 0.001537 179.83 0.999992 -80.52 0.999992 -80.52 0.001535 -161.3
8.79033000 0.001539 179.84 0.999992 -80.52 0.999992 -80.52 0.001537 -161.3
8.79034000 0.001540 179.85 0.999992 -80.52 0.999992 -80.52 0.001538 -161.3
8.79035000 0.001542 179.86 0.999992 -80.52 0.999992 -80.52 0.001540 -161.3
8.79036000 0.001544 179.87 0.999992 -80.52 0.999992 -80.52 0.001542 -161.3
8.79037000 0.001545 179.89 0.999992 -80.52 0.999992 -80.52 0.001543 -161.3
8.79038000 0.001547 179.90 0.999992 -80.52 0.999992 -80.52 0.001545 -161.3
8.79039000 0.001549 179.91 0.999992 -80.52 0.999992 -80.52 0.001547 -161.4
8.79040000 0.001550 179.92 0.999992 -80.52 0.999992 -80.52 0.001549 -161.4
8.79041000 0.001552 179.94 0.999992 -80.53 0.999992 -80.53 0.001550 -161.4
8.79042000 0.001554 179.95 0.999992 -80.53 0.999992 -80.53 0.001552 -161.4
8.79043000 0.001556 179.96 0.999992 -80.53 0.999992 -80.53 0.001554 -161.4
8.79044000 0.001557 179.97 0.999992 -80.53 0.999992 -80.53 0.001555 -161.4
8.79045000 0.001559 179.98 0.999992 -80.53 0.999992 -80.53 0.001557 -161.4
8.79046000 0.001561 180.00 0.999992 -80.53 0.999992 -80.53 0.001559 -161.4
8.79047000 0.001563 -180.0 0.999992 -80.53 0.999992 -80.53 0.001561 -161.5
8.79048000 0.001564 -180.0 0.999992 -80.53 0.999992 -80.53 0.001562 -161.5
8.79049000 0.001566 -180.0 0.999992 -80.53 0.999992 -80.53 0.001564 -161.5
8.79050000 0.001568 -180.0 0.999992 -80.53 0.999992 -80.53 0.001566 -161.5
8.79051000 0.001570 -179.9 0.999992 -80.53 0.999992 -80.53 0.001568 -161.5
8.79052000 0.001571 -179.9 0.999992 -80.53 0.999992 -80.53 0.001569 -161.5
8.79053000 0.001573 -179.9 0.999992 -80.53 0.999992 -80.53 0.001571 -161.5
8.79054000 0.001575 -179.9 0.999992 -80.53 0.999992 -80.53 0.001573 -161.5
8.79055000 0.001577 -179.9 0.999992 -80.53 0.999992 -80.53 0.001575 -161.6
8.79056000 0.001578 -179.9 0.999992 -80.53 0.999992 -80.53 0.001576 -161.6
8.79057000 0.001580 -179.9 0.999992 -80.53 0.999992 -80.53 0.001578 -161.6
8.79058000 0.001582 -179.9 0.999992 -80.53 0.999992 -80.53 0.001580 -161.6
8.79059000 0.001584 -179.8 0.999992 -80.53 0.999992 -80.53 0.001582 -161.6
8.79060000 0.001586 -179.8 0.999992 -80.53 0.999992 -80.53 0.001584 -161.6
8.79061000 0.001587 -179.8 0.999992 -80.53 0.999992 -80.53 0.001585 -161.6
8.79062000 0.001589 -179.8 0.999992 -80.53 0.999992 -80.53 0.001587 -161.6
8.79063000 0.001591 -179.8 0.999992 -80.53 0.999992 -80.53 0.001589 -161.7
8.79064000 0.001593 -179.8 0.999992 -80.53 0.999992 -80.53 0.001591 -161.7
8.79065000 0.001595 -179.8 0.999992 -80.53 0.999992 -80.53 0.001593 -161.7
8.79066000 0.001596 -179.8 0.999992 -80.53 0.999992 -80.53 0.001594 -161.7
8.79067000 0.001598 -179.8 0.999992 -80.53 0.999992 -80.53 0.001596 -161.7
8.79068000 0.001600 -179.7 0.999992 -80.53 0.999992 -80.53 0.001598 -161.7
8.79069000 0.001602 -179.7 0.999992 -80.53 0.999992 -80.53 0.001600 -161.7
8.79070000 0.001604 -179.7 0.999992 -80.53 0.999992 -80.53 0.001602 -161.7
8.79071000 0.001605 -179.7 0.999992 -80.53 0.999992 -80.53 0.001603 -161.8
8.79072000 0.001607 -179.7 0.999992 -80.53 0.999992 -80.53 0.001605 -161.8
8.79073000 0.001609 -179.7 0.999992 -80.53 0.999992 -80.53 0.001607 -161.8
8.79074000 0.001611 -179.7 0.999992 -80.53 0.999992 -80.53 0.001609 -161.8
8.79075000 0.001613 -179.7 0.999992 -80.53 0.999992 -80.53 0.001611 -161.8
8.79076000 0.001615 -179.6 0.999992 -80.53 0.999992 -80.53 0.001613 -161.8
8.79077000 0.001616 -179.6 0.999992 -80.53 0.999992 -80.53 0.001614 -161.8
8.79078000 0.001618 -179.6 0.999992 -80.53 0.999992 -80.53 0.001616 -161.8
8.79079000 0.001620 -179.6 0.999992 -80.53 0.999992 -80.53 0.001618 -161.9
8.79080000 0.001622 -179.6 0.999992 -80.53 0.999992 -80.53 0.001620 -161.9
8.79081000 0.001624 -179.6 0.999992 -80.53 0.999992 -80.53 0.001622 -161.9
8.79082000 0.001626 -179.6 0.999992 -80.53 0.999992 -80.53 0.001624 -161.9
8.79083000 0.001627 -179.6 0.999992 -80.53 0.999992 -80.53 0.001625 -161.9
8.79084000 0.001629 -179.5 0.999992 -80.53 0.999992 -80.53 0.001627 -161.9
8.79085000 0.001631 -179.5 0.999992 -80.53 0.999992 -80.53 0.001629 -161.9
8.79086000 0.001633 -179.5 0.999992 -80.53 0.999992 -80.53 0.001631 -161.9
8.79087000 0.001635 -179.5 0.999992 -80.53 0.999992 -80.53 0.001633 -162.0
8.79088000 0.001637 -179.5 0.999992 -80.53 0.999992 -80.53 0.001635 -162.0
8.79089000 0.001639 -179.5 0.999992 -80.53 0.999992 -80.53 0.001637 -162.0
8.79090000 0.001641 -179.5 0.999992 -80.53 0.999992 -80.53 0.001639 -162.0
8.79091000 0.001642 -179.5 0.999992 -80.53 0.999992 -80.53 0.001641 -162.0
8.79092000 0.001644 -179.5 0.999992 -80.54 0.999992 -80.54 0.001642 -162.0
8.79093000 0.001646 -179.4 0.999992 -80.54 0.999992 -80.54 0.001644 -162.0
8.79094000 0.001648 -179.4 0.999992 -80.54 0.999992 -80.54 0.001646 -162.0
8.79095000 0.001650 -179.4 0.999992 -80.54 0.999992 -80.54 0.001648 -162.1
8.79096000 0.001652 -179.4 0.999992 -80.54 0.999992 -80.54 0.001650 -162.1
8.79097000 0.001654 -179.4 0.999992 -80.54 0.999992 -80.54 0.001652 -162.1
8.79098000 0.001656 -179.4 0.999992 -80.54 0.999992 -80.54 0.001654 -162.1
8.79099000 0.001658 -179.4 0.999992 -80.54 0.999992 -80.54 0.001656 -162.1
8.79100000 0.001660 -179.4 0.999992 -80.54 0.999992 -80.54 0.001658 -162.1
8.79101000 0.001662 -179.3 0.999992 -80.54 0.999992 -80.54 0.001660 -162.1
8.79102000 0.001663 -179.3 0.999992 -80.54 0.999992 -80.54 0.001662 -162.1
8.79103000 0.001665 -179.3 0.999992 -80.54 0.999992 -80.54 0.001663 -162.2
8.79104000 0.001667 -179.3 0.999992 -80.54 0.999992 -80.54 0.001665 -162.2
8.79105000 0.001669 -179.3 0.999992 -80.54 0.999992 -80.54 0.001667 -162.2
8.79106000 0.001671 -179.3 0.999992 -80.54 0.999992 -80.54 0.001669 -162.2
8.79107000 0.001673 -179.3 0.999992 -80.54 0.999992 -80.54 0.001671 -162.2
8.79108000 0.001675 -179.3 0.999992 -80.54 0.999992 -80.54 0.001673 -162.2
8.79109000 0.001677 -179.3 0.999992 -80.54 0.999992 -80.54 0.001675 -162.2
8.79110000 0.001679 -179.2 0.999992 -80.54 0.999992 -80.54 0.001677 -162.2
8.79111000 0.001681 -179.2 0.999992 -80.54 0.999992 -80.54 0.001679 -162.3
8.79112000 0.001683 -179.2 0.999992 -80.54 0.999992 -80.54 0.001681 -162.3
8.79113000 0.001685 -179.2 0.999992 -80.54 0.999992 -80.54 0.001683 -162.3
8.79114000 0.001687 -179.2 0.999992 -80.54 0.999992 -80.54 0.001685 -162.3
8.79115000 0.001689 -179.2 0.999992 -80.54 0.999992 -80.54 0.001687 -162.3
8.79116000 0.001691 -179.2 0.999992 -80.54 0.999992 -80.54 0.001689 -162.3
8.79117000 0.001693 -179.2 0.999992 -80.54 0.999992 -80.54 0.001691 -162.3
8.79118000 0.001695 -179.1 0.999992 -80.54 0.999992 -80.54 0.001693 -162.3
8.79119000 0.001697 -179.1 0.999992 -80.54 0.999992 -80.54 0.001695 -162.3
8.79120000 0.001699 -179.1 0.999992 -80.54 0.999992 -80.54 0.001697 -162.4
8.79121000 0.001701 -179.1 0.999992 -80.54 0.999992 -80.54 0.001699 -162.4
8.79122000 0.001703 -179.1 0.999992 -80.54 0.999992 -80.54 0.001701 -162.4
8.79123000 0.001705 -179.1 0.999992 -80.54 0.999992 -80.54 0.001703 -162.4
8.79124000 0.001707 -179.1 0.999992 -80.54 0.999992 -80.54 0.001705 -162.4
8.79125000 0.001709 -179.1 0.999992 -80.54 0.999992 -80.54 0.001707 -162.4
8.79126000 0.001711 -179.1 0.999991 -80.54 0.999991 -80.54 0.001709 -162.4
8.79127000 0.001713 -179.0 0.999991 -80.54 0.999991 -80.54 0.001711 -162.4
8.79128000 0.001715 -179.0 0.999991 -80.54 0.999991 -80.54 0.001713 -162.5
8.79129000 0.001717 -179.0 0.999991 -80.54 0.999991 -80.54 0.001715 -162.5
8.79130000 0.001719 -179.0 0.999991 -80.54 0.999991 -80.54 0.001717 -162.5
8.79131000 0.001721 -179.0 0.999991 -80.54 0.999991 -80.54 0.001719 -162.5
8.79132000 0.001723 -179.0 0.999991 -80.54 0.999991 -80.54 0.001721 -162.5
8.79133000 0.001725 -179.0 0.999991 -80.54 0.999991 -80.54 0.001723 -162.5
8.79134000 0.001727 -179.0 0.999991 -80.54 0.999991 -80.54 0.001725 -162.5
8.79135000 0.001729 -178.9 0.999991 -80.54 0.999991 -80.54 0.001727 -162.5
8.79136000 0.001731 -178.9 0.999991 -80.54 0.999991 -80.54 0.001729 -162.6
8.79137000 0.001733 -178.9 0.999991 -80.54 0.999991 -80.54 0.001731 -162.6
8.79138000 0.001735 -178.9 0.999991 -80.54 0.999991 -80.54 0.001733 -162.6
8.79139000 0.001737 -178.9 0.999991 -80.54 0.999991 -80.54 0.001735 -162.6
8.79140000 0.001739 -178.9 0.999991 -80.55 0.999991 -80.55 0.001738 -162.6
8.79141000 0.001742 -178.9 0.999991 -80.55 0.999991 -80.55 0.001740 -162.6
8.79142000 0.001744 -178.9 0.999991 -80.55 0.999991 -80.55 0.001742 -162.6
8.79143000 0.001746 -178.9 0.999991 -80.55 0.999991 -80.55 0.001744 -162.6
8.79144000 0.001748 -178.8 0.999991 -80.55 0.999991 -80.55 0.001746 -162.6
8.79145000 0.001750 -178.8 0.999991 -80.55 0.999991 -80.55 0.001748 -162.7
8.79146000 0.001752 -178.8 0.999991 -80.55 0.999991 -80.55 0.001750 -162.7
8.79147000 0.001754 -178.8 0.999991 -80.55 0.999991 -80.55 0.001752 -162.7
8.79148000 0.001756 -178.8 0.999991 -80.55 0.999991 -80.55 0.001754 -162.7
8.79149000 0.001758 -178.8 0.999991 -80.55 0.999991 -80.55 0.001756 -162.7
8.79150000 0.001760 -178.8 0.999991 -80.55 0.999991 -80.55 0.001758 -162.7
8.79151000 0.001763 -178.8 0.999991 -80.55 0.999991 -80.55 0.001761 -162.7
8.79152000 0.001765 -178.8 0.999991 -80.55 0.999991 -80.55 0.001763 -162.7
8.79153000 0.001767 -178.7 0.999991 -80.55 0.999991 -80.55 0.001765 -162.8
8.79154000 0.001769 -178.7 0.999991 -80.55 0.999991 -80.55 0.001767 -162.8
8.79155000 0.001771 -178.7 0.999991 -80.55 0.999991 -80.55 0.001769 -162.8
8.79156000 0.001773 -178.7 0.999991 -80.55 0.999991 -80.55 0.001771 -162.8
8.79157000 0.001775 -178.7 0.999991 -80.55 0.999991 -80.55 0.001773 -162.8
8.79158000 0.001778 -178.7 0.999991 -80.55 0.999991 -80.55 0.001776 -162.8
8.79159000 0.001780 -178.7 0.999991 -80.55 0.999991 -80.55 0.001778 -162.8
8.79160000 0.001782 -178.7 0.999991 -80.55 0.999991 -80.55 0.001780 -162.8
8.79161000 0.001784 -178.6 0.999991 -80.55 0.999991 -80.55 0.001782 -162.9
8.79162000 0.001786 -178.6 0.999991 -80.55 0.999991 -80.55 0.001784 -162.9
8.79163000 0.001788 -178.6 0.999991 -80.55 0.999991 -80.55 0.001786 -162.9
8.79164000 0.001790 -178.6 0.999991 -80.55 0.999991 -80.55 0.001789 -162.9
8.79165000 0.001793 -178.6 0.999991 -80.55 0.999991 -80.55 0.001791 -162.9
8.79166000 0.001795 -178.6 0.999991 -80.55 0.999991 -80.55 0.001793 -162.9
8.79167000 0.001797 -178.6 0.999991 -80.55 0.999991 -80.55 0.001795 -162.9
8.79168000 0.001799 -178.6 0.999991 -80.55 0.999991 -80.55 0.001797 -162.9
8.79169000 0.001801 -178.6 0.999991 -80.55 0.999991 -80.55 0.001799 -162.9
8.79170000 0.001804 -178.5 0.999991 -80.55 0.999991 -80.55 0.001802 -163.0
8.79171000 0.001806 -178.5 0.999991 -80.55 0.999991 -80.55 0.001804 -163.0
8.79172000 0.001808 -178.5 0.999991 -80.55 0.999991 -80.55 0.001806 -163.0
8.79173000 0.001810 -178.5 0.999991 -80.55 0.999991 -80.55 0.001808 -163.0
8.79174000 0.001812 -178.5 0.999991 -80.55 0.999991 -80.55 0.001810 -163.0
8.79175000 0.001815 -178.5 0.999991 -80.55 0.999991 -80.55 0.001813 -163.0
8.79176000 0.001817 -178.5 0.999991 -80.55 0.999991 -80.55 0.001815 -163.0
8.79177000 0.001819 -178.5 0.999991 -80.55 0.999991 -80.55 0.001817 -163.0
8.79178000 0.001821 -178.5 0.999991 -80.55 0.999991 -80.55 0.001819 -163.1
8.79179000 0.001824 -178.4 0.999991 -80.55 0.999991 -80.55 0.001822 -163.1
8.79180000 0.001826 -178.4 0.999991 -80.55 0.999991 -80.55 0.001824 -163.1
8.79181000 0.001828 -178.4 0.999991 -80.55 0.999991 -80.55 0.001826 -163.1
8.79182000 0.001830 -178.4 0.999991 -80.55 0.999991 -80.55 0.001828 -163.1
8.79183000 0.001833 -178.4 0.999991 -80.55 0.999991 -80.55 0.001831 -163.1
8.79184000 0.001835 -178.4 0.999991 -80.55 0.999991 -80.55 0.001833 -163.1
8.79185000 0.001837 -178.4 0.999991 -80.55 0.999991 -80.55 0.001835 -163.1
8.79186000 0.001839 -178.4 0.999991 -80.56 0.999991 -80.56 0.001837 -163.1
8.79187000 0.001842 -178.4 0.999991 -80.56 0.999991 -80.56 0.001840 -163.2
8.79188000 0.001844 -178.3 0.999991 -80.56 0.999991 -80.56 0.001842 -163.2
8.79189000 0.001846 -178.3 0.999991 -80.56 0.999991 -80.56 0.001844 -163.2
8.79190000 0.001849 -178.3 0.999991 -80.56 0.999991 -80.56 0.001847 -163.2
8.79191000 0.001851 -178.3 0.999991 -80.56 0.999991 -80.56 0.001849 -163.2
8.79192000 0.001853 -178.3 0.999991 -80.56 0.999991 -80.56 0.001851 -163.2
8.79193000 0.001855 -178.3 0.999991 -80.56 0.999991 -80.56 0.001853 -163.2
8.79194000 0.001858 -178.3 0.999991 -80.56 0.999991 -80.56 0.001856 -163.2
8.79195000 0.001860 -178.3 0.999991 -80.56 0.999991 -80.56 0.001858 -163.3
8.79196000 0.001862 -178.3 0.999991 -80.56 0.999991 -80.56 0.001860 -163.3
8.79197000 0.001865 -178.2 0.999991 -80.56 0.999991 -80.56 0.001863 -163.3
8.79198000 0.001867 -178.2 0.999991 -80.56 0.999991 -80.56 0.001865 -163.3
8.79199000 0.001869 -178.2 0.999991 -80.56 0.999991 -80.56 0.001867 -163.3
8.79200000 0.001872 -178.2 0.999991 -80.56 0.999991 -80.56 0.001870 -163.3
8.79201000 0.001874 -178.2 0.999991 -80.56 0.999991 -80.56 0.001872 -163.3
8.79202000 0.001876 -178.2 0.999991 -80.56 0.999991 -80.56 0.001874 -163.3
8.79203000 0.001879 -178.2 0.999991 -80.56 0.999991 -80.56 0.001877 -163.3
8.79204000 0.001881 -178.2 0.999991 -80.56 0.999991 -80.56 0.001879 -163.4
8.79205000 0.001883 -178.2 0.999991 -80.56 0.999991 -80.56 0.001882 -163.4
8.79206000 0.001886 -178.1 0.999991 -80.56 0.999991 -80.56 0.001884 -163.4
8.79207000 0.001888 -178.1 0.999991 -80.56 0.999991 -80.56 0.001886 -163.4
8.79208000 0.001891 -178.1 0.999991 -80.56 0.999991 -80.56 0.001889 -163.4
8.79209000 0.001893 -178.1 0.999990 -80.56 0.999990 -80.56 0.001891 -163.4
8.79210000 0.001895 -178.1 0.999990 -80.56 0.999990 -80.56 0.001893 -163.4
8.79211000 0.001898 -178.1 0.999990 -80.56 0.999990 -80.56 0.001896 -163.4
8.79212000 0.001900 -178.1 0.999990 -80.56 0.999990 -80.56 0.001898 -163.5
8.79213000 0.001903 -178.1 0.999990 -80.56 0.999990 -80.56 0.001901 -163.5
8.79214000 0.001905 -178.1 0.999990 -80.56 0.999990 -80.56 0.001903 -163.5
8.79215000 0.001907 -178.0 0.999990 -80.56 0.999990 -80.56 0.001905 -163.5
8.79216000 0.001910 -178.0 0.999990 -80.56 0.999990 -80.56 0.001908 -163.5
8.79217000 0.001912 -178.0 0.999990 -80.56 0.999990 -80.56 0.001910 -163.5
8.79218000 0.001915 -178.0 0.999990 -80.56 0.999990 -80.56 0.001913 -163.5
8.79219000 0.001917 -178.0 0.999990 -80.56 0.999990 -80.56 0.001915 -163.5
8.79220000 0.001920 -178.0 0.999990 -80.56 0.999990 -80.56 0.001918 -163.5
8.79221000 0.001922 -178.0 0.999990 -80.56 0.999990 -80.56 0.001920 -163.6
8.79222000 0.001924 -178.0 0.999990 -80.56 0.999990 -80.56 0.001922 -163.6
8.79223000 0.001927 -178.0 0.999990 -80.56 0.999990 -80.56 0.001925 -163.6
8.79224000 0.001929 -177.9 0.999990 -80.56 0.999990 -80.56 0.001927 -163.6
8.79225000 0.001932 -177.9 0.999990 -80.56 0.999990 -80.56 0.001930 -163.6
8.79226000 0.001934 -177.9 0.999990 -80.56 0.999990 -80.56 0.001932 -163.6
8.79227000 0.001937 -177.9 0.999990 -80.56 0.999990 -80.56 0.001935 -163.6
8.79228000 0.001939 -177.9 0.999990 -80.56 0.999990 -80.56 0.001937 -163.6
8.79229000 0.001942 -177.9 0.999990 -80.56 0.999990 -80.56 0.001940 -163.6
8.79230000 0.001944 -177.9 0.999990 -80.57 0.999990 -80.57 0.001942 -163.7
8.79231000 0.001947 -177.9 0.999990 -80.57 0.999990 -80.57 0.001945 -163.7
8.79232000 0.001949 -177.9 0.999990 -80.57 0.999990 -80.57 0.001947 -163.7
8.79233000 0.001952 -177.8 0.999990 -80.57 0.999990 -80.57 0.001950 -163.7
8.79234000 0.001954 -177.8 0.999990 -80.57 0.999990 -80.57 0.001952 -163.7
8.79235000 0.001957 -177.8 0.999990 -80.57 0.999990 -80.57 0.001955 -163.7
8.79236000 0.001959 -177.8 0.999990 -80.57 0.999990 -80.57 0.001957 -163.7
8.79237000 0.001962 -177.8 0.999990 -80.57 0.999990 -80.57 0.001960 -163.7
8.79238000 0.001964 -177.8 0.999990 -80.57 0.999990 -80.57 0.001962 -163.8
8.79239000 0.001967 -177.8 0.999990 -80.57 0.999990 -80.57 0.001965 -163.8
8.79240000 0.001969 -177.8 0.999990 -80.57 0.999990 -80.57 0.001967 -163.8
8.79241000 0.001972 -177.8 0.999990 -80.57 0.999990 -80.57 0.001970 -163.8
8.79242000 0.001974 -177.7 0.999990 -80.57 0.999990 -80.57 0.001972 -163.8
8.79243000 0.001977 -177.7 0.999990 -80.57 0.999990 -80.57 0.001975 -163.8
8.79244000 0.001980 -177.7 0.999990 -80.57 0.999990 -80.57 0.001978 -163.8
8.79245000 0.001982 -177.7 0.999990 -80.57 0.999990 -80.57 0.001980 -163.8
8.79246000 0.001985 -177.7 0.999990 -80.57 0.999990 -80.57 0.001983 -163.8
8.79247000 0.001987 -177.7 0.999990 -80.57 0.999990 -80.57 0.001985 -163.9
8.79248000 0.001990 -177.7 0.999990 -80.57 0.999990 -80.57 0.001988 -163.9
8.79249000 0.001993 -177.7 0.999990 -80.57 0.999990 -80.57 0.001991 -163.9
8.79250000 0.001995 -177.7 0.999990 -80.57 0.999990 -80.57 0.001993 -163.9
8.79251000 0.001998 -177.6 0.999990 -80.57 0.999990 -80.57 0.001996 -163.9
8.79252000 0.002000 -177.6 0.999990 -80.57 0.999990 -80.57 0.001998 -163.9
8.79253000 0.002003 -177.6 0.999990 -80.57 0.999990 -80.57 0.002001 -163.9
8.79254000 0.002006 -177.6 0.999990 -80.57 0.999990 -80.57 0.002004 -163.9
8.79255000 0.002008 -177.6 0.999990 -80.57 0.999990 -80.57 0.002006 -163.9
8.79256000 0.002011 -177.6 0.999990 -80.57 0.999990 -80.57 0.002009 -164.0
8.79257000 0.002013 -177.6 0.999990 -80.57 0.999990 -80.57 0.002011 -164.0
8.79258000 0.002016 -177.6 0.999990 -80.57 0.999990 -80.57 0.002014 -164.0
8.79259000 0.002019 -177.6 0.999990 -80.57 0.999990 -80.57 0.002017 -164.0
8.79260000 0.002021 -177.5 0.999990 -80.57 0.999990 -80.57 0.002019 -164.0
8.79261000 0.002024 -177.5 0.999990 -80.57 0.999990 -80.57 0.002022 -164.0
8.79262000 0.002027 -177.5 0.999990 -80.57 0.999990 -80.57 0.002025 -164.0
8.79263000 0.002029 -177.5 0.999990 -80.57 0.999990 -80.57 0.002027 -164.0
8.79264000 0.002032 -177.5 0.999990 -80.57 0.999990 -80.57 0.002030 -164.1
8.79265000 0.002035 -177.5 0.999990 -80.57 0.999990 -80.57 0.002033 -164.1
8.79266000 0.002037 -177.5 0.999990 -80.57 0.999990 -80.57 0.002035 -164.1
8.79267000 0.002040 -177.5 0.999990 -80.57 0.999990 -80.57 0.002038 -164.1
8.79268000 0.002043 -177.5 0.999990 -80.57 0.999990 -80.57 0.002041 -164.1
8.79269000 0.002046 -177.4 0.999990 -80.57 0.999990 -80.57 0.002044 -164.1
8.79270000 0.002048 -177.4 0.999990 -80.57 0.999990 -80.57 0.002046 -164.1
8.79271000 0.002051 -177.4 0.999990 -80.58 0.999990 -80.58 0.002049 -164.1
8.79272000 0.002054 -177.4 0.999990 -80.58 0.999990 -80.58 0.002052 -164.1
8.79273000 0.002056 -177.4 0.999990 -80.58 0.999990 -80.58 0.002054 -164.2
8.79274000 0.002059 -177.4 0.999990 -80.58 0.999990 -80.58 0.002057 -164.2
8.79275000 0.002062 -177.4 0.999989 -80.58 0.999989 -80.58 0.002060 -164.2
8.79276000 0.002065 -177.4 0.999989 -80.58 0.999989 -80.58 0.002063 -164.2
8.79277000 0.002067 -177.4 0.999989 -80.58 0.999989 -80.58 0.002065 -164.2
8.79278000 0.002070 -177.4 0.999989 -80.58 0.999989 -80.58 0.002068 -164.2
8.79279000 0.002073 -177.3 0.999989 -80.58 0.999989 -80.58 0.002071 -164.2
8.79280000 0.002076 -177.3 0.999989 -80.58 0.999989 -80.58 0.002074 -164.2
8.79281000 0.002079 -177.3 0.999989 -80.58 0.999989 -80.58 0.002077 -164.2
8.79282000 0.002081 -177.3 0.999989 -80.58 0.999989 -80.58 0.002079 -164.3
8.79283000 0.002084 -177.3 0.999989 -80.58 0.999989 -80.58 0.002082 -164.3
8.79284000 0.002087 -177.3 0.999989 -80.58 0.999989 -80.58 0.002085 -164.3
8.79285000 0.002090 -177.3 0.999989 -80.58 0.999989 -80.58 0.002088 -164.3
8.79286000 0.002093 -177.3 0.999989 -80.58 0.999989 -80.58 0.002091 -164.3
8.79287000 0.002095 -177.3 0.999989 -80.58 0.999989 -80.58 0.002093 -164.3
8.79288000 0.002098 -177.2 0.999989 -80.58 0.999989 -80.58 0.002096 -164.3
8.79289000 0.002101 -177.2 0.999989 -80.58 0.999989 -80.58 0.002099 -164.3
8.79290000 0.002104 -177.2 0.999989 -80.58 0.999989 -80.58 0.002102 -164.3
8.79291000 0.002107 -177.2 0.999989 -80.58 0.999989 -80.58 0.002105 -164.4
8.79292000 0.002110 -177.2 0.999989 -80.58 0.999989 -80.58 0.002108 -164.4
8.79293000 0.002112 -177.2 0.999989 -80.58 0.999989 -80.58 0.002110 -164.4
8.79294000 0.002115 -177.2 0.999989 -80.58 0.999989 -80.58 0.002113 -164.4
8.79295000 0.002118 -177.2 0.999989 -80.58 0.999989 -80.58 0.002116 -164.4
8.79296000 0.002121 -177.2 0.999989 -80.58 0.999989 -80.58 0.002119 -164.4
8.79297000 0.002124 -177.1 0.999989 -80.58 0.999989 -80.58 0.002122 -164.4
8.79298000 0.002127 -177.1 0.999989 -80.58 0.999989 -80.58 0.002125 -164.4
8.79299000 0.002130 -177.1 0.999989 -80.58 0.999989 -80.58 0.002128 -164.4
8.79300000 0.002133 -177.1 0.999989 -80.58 0.999989 -80.58 0.002131 -164.5
8.79301000 0.002136 -177.1 0.999989 -80.58 0.999989 -80.58 0.002134 -164.5
8.79302000 0.002138 -177.1 0.999989 -80.58 0.999989 -80.58 0.002136 -164.5
8.79303000 0.002141 -177.1 0.999989 -80.58 0.999989 -80.58 0.002139 -164.5
8.79304000 0.002144 -177.1 0.999989 -80.58 0.999989 -80.58 0.002142 -164.5
8.79305000 0.002147 -177.1 0.999989 -80.58 0.999989 -80.58 0.002145 -164.5
8.79306000 0.002150 -177.1 0.999989 -80.58 0.999989 -80.58 0.002148 -164.5
8.79307000 0.002153 -177.0 0.999989 -80.58 0.999989 -80.58 0.002151 -164.5
8.79308000 0.002156 -177.0 0.999989 -80.58 0.999989 -80.58 0.002154 -164.5
8.79309000 0.002159 -177.0 0.999989 -80.58 0.999989 -80.58 0.002157 -164.6
8.79310000 0.002162 -177.0 0.999989 -80.59 0.999989 -80.59 0.002160 -164.6
8.79311000 0.002165 -177.0 0.999989 -80.59 0.999989 -80.59 0.002163 -164.6
8.79312000 0.002168 -177.0 0.999989 -80.59 0.999989 -80.59 0.002166 -164.6
8.79313000 0.002171 -177.0 0.999989 -80.59 0.999989 -80.59 0.002169 -164.6
8.79314000 0.002174 -177.0 0.999989 -80.59 0.999989 -80.59 0.002172 -164.6
8.79315000 0.002177 -177.0 0.999989 -80.59 0.999989 -80.59 0.002175 -164.6
8.79316000 0.002180 -176.9 0.999989 -80.59 0.999989 -80.59 0.002178 -164.6
8.79317000 0.002183 -176.9 0.999989 -80.59 0.999989 -80.59 0.002181 -164.6
8.79318000 0.002186 -176.9 0.999989 -80.59 0.999989 -80.59 0.002184 -164.7
8.79319000 0.002189 -176.9 0.999989 -80.59 0.999989 -80.59 0.002187 -164.7
8.79320000 0.002192 -176.9 0.999989 -80.59 0.999989 -80.59 0.002190 -164.7
8.79321000 0.002195 -176.9 0.999989 -80.59 0.999989 -80.59 0.002193 -164.7
8.79322000 0.002198 -176.9 0.999989 -80.59 0.999989 -80.59 0.002196 -164.7
8.79323000 0.002201 -176.9 0.999989 -80.59 0.999989 -80.59 0.002199 -164.7
8.79324000 0.002204 -176.9 0.999989 -80.59 0.999989 -80.59 0.002202 -164.7
8.79325000 0.002207 -176.9 0.999989 -80.59 0.999989 -80.59 0.002205 -164.7
8.79326000 0.002211 -176.8 0.999989 -80.59 0.999989 -80.59 0.002209 -164.7
8.79327000 0.002214 -176.8 0.999989 -80.59 0.999989 -80.59 0.002212 -164.8
8.79328000 0.002217 -176.8 0.999989 -80.59 0.999989 -80.59 0.002215 -164.8
8.79329000 0.002220 -176.8 0.999988 -80.59 0.999988 -80.59 0.002218 -164.8
8.79330000 0.002223 -176.8 0.999988 -80.59 0.999988 -80.59 0.002221 -164.8
8.79331000 0.002226 -176.8 0.999988 -80.59 0.999988 -80.59 0.002224 -164.8
8.79332000 0.002229 -176.8 0.999988 -80.59 0.999988 -80.59 0.002227 -164.8
8.79333000 0.002232 -176.8 0.999988 -80.59 0.999988 -80.59 0.002230 -164.8
8.79334000 0.002236 -176.8 0.999988 -80.59 0.999988 -80.59 0.002233 -164.8
8.79335000 0.002239 -176.7 0.999988 -80.59 0.999988 -80.59 0.002237 -164.8
8.79336000 0.002242 -176.7 0.999988 -80.59 0.999988 -80.59 0.002240 -164.9
8.79337000 0.002245 -176.7 0.999988 -80.59 0.999988 -80.59 0.002243 -164.9
8.79338000 0.002248 -176.7 0.999988 -80.59 0.999988 -80.59 0.002246 -164.9
8.79339000 0.002251 -176.7 0.999988 -80.59 0.999988 -80.59 0.002249 -164.9
8.79340000 0.002255 -176.7 0.999988 -80.59 0.999988 -80.59 0.002253 -164.9
8.79341000 0.002258 -176.7 0.999988 -80.59 0.999988 -80.59 0.002256 -164.9
8.79342000 0.002261 -176.7 0.999988 -80.59 0.999988 -80.59 0.002259 -164.9
8.79343000 0.002264 -176.7 0.999988 -80.59 0.999988 -80.59 0.002262 -164.9
8.79344000 0.002267 -176.7 0.999988 -80.59 0.999988 -80.59 0.002265 -164.9
8.79345000 0.002271 -176.6 0.999988 -80.59 0.999988 -80.59 0.002269 -165.0
8.79346000 0.002274 -176.6 0.999988 -80.59 0.999988 -80.59 0.002272 -165.0
8.79347000 0.002277 -176.6 0.999988 -80.60 0.999988 -80.60 0.002275 -165.0
8.79348000 0.002280 -176.6 0.999988 -80.60 0.999988 -80.60 0.002278 -165.0
8.79349000 0.002284 -176.6 0.999988 -80.60 0.999988 -80.60 0.002282 -165.0
8.79350000 0.002287 -176.6 0.999988 -80.60 0.999988 -80.60 0.002285 -165.0
8.79351000 0.002290 -176.6 0.999988 -80.60 0.999988 -80.60 0.002288 -165.0
8.79352000 0.002293 -176.6 0.999988 -80.60 0.999988 -80.60 0.002291 -165.0
8.79353000 0.002297 -176.6 0.999988 -80.60 0.999988 -80.60 0.002295 -165.0
8.79354000 0.002300 -176.6 0.999988 -80.60 0.999988 -80.60 0.002298 -165.1
8.79355000 0.002303 -176.5 0.999988 -80.60 0.999988 -80.60 0.002301 -165.1
8.79356000 0.002307 -176.5 0.999988 -80.60 0.999988 -80.60 0.002305 -165.1
8.79357000 0.002310 -176.5 0.999988 -80.60 0.999988 -80.60 0.002308 -165.1
8.79358000 0.002313 -176.5 0.999988 -80.60 0.999988 -80.60 0.002311 -165.1
8.79359000 0.002317 -176.5 0.999988 -80.60 0.999988 -80.60 0.002315 -165.1
8.79360000 0.002320 -176.5 0.999988 -80.60 0.999988 -80.60 0.002318 -165.1
8.79361000 0.002323 -176.5 0.999988 -80.60 0.999988 -80.60 0.002321 -165.1
8.79362000 0.002327 -176.5 0.999988 -80.60 0.999988 -80.60 0.002325 -165.1
8.79363000 0.002330 -176.5 0.999988 -80.60 0.999988 -80.60 0.002328 -165.2
8.79364000 0.002333 -176.4 0.999988 -80.60 0.999988 -80.60 0.002331 -165.2
8.79365000 0.002337 -176.4 0.999988 -80.60 0.999988 -80.60 0.002335 -165.2
8.79366000 0.002340 -176.4 0.999988 -80.60 0.999988 -80.60 0.002338 -165.2
8.79367000 0.002344 -176.4 0.999988 -80.60 0.999988 -80.60 0.002342 -165.2
8.79368000 0.002347 -176.4 0.999988 -80.60 0.999988 -80.60 0.002345 -165.2
8.79369000 0.002350 -176.4 0.999988 -80.60 0.999988 -80.60 0.002348 -165.2
8.79370000 0.002354 -176.4 0.999988 -80.60 0.999988 -80.60 0.002352 -165.2
8.79371000 0.002357 -176.4 0.999988 -80.60 0.999988 -80.60 0.002355 -165.2
8.79372000 0.002361 -176.4 0.999988 -80.60 0.999988 -80.60 0.002359 -165.3
8.79373000 0.002364 -176.4 0.999988 -80.60 0.999988 -80.60 0.002362 -165.3
8.79374000 0.002368 -176.3 0.999987 -80.60 0.999987 -80.60 0.002366 -165.3
8.79375000 0.002371 -176.3 0.999987 -80.60 0.999987 -80.60 0.002369 -165.3
8.79376000 0.002375 -176.3 0.999987 -80.60 0.999987 -80.60 0.002373 -165.3
8.79377000 0.002378 -176.3 0.999987 -80.60 0.999987 -80.60 0.002376 -165.3
8.79378000 0.002382 -176.3 0.999987 -80.60 0.999987 -80.60 0.002380 -165.3
8.79379000 0.002385 -176.3 0.999987 -80.60 0.999987 -80.60 0.002383 -165.3
8.79380000 0.002389 -176.3 0.999987 -80.60 0.999987 -80.60 0.002387 -165.3
8.79381000 0.002392 -176.3 0.999987 -80.60 0.999987 -80.60 0.002390 -165.4
8.79382000 0.002396 -176.3 0.999987 -80.61 0.999987 -80.61 0.002394 -165.4
8.79383000 0.002399 -176.3 0.999987 -80.61 0.999987 -80.61 0.002397 -165.4
8.79384000 0.002403 -176.2 0.999987 -80.61 0.999987 -80.61 0.002401 -165.4
8.79385000 0.002406 -176.2 0.999987 -80.61 0.999987 -80.61 0.002404 -165.4
8.79386000 0.002410 -176.2 0.999987 -80.61 0.999987 -80.61 0.002408 -165.4
8.79387000 0.002414 -176.2 0.999987 -80.61 0.999987 -80.61 0.002412 -165.4
8.79388000 0.002417 -176.2 0.999987 -80.61 0.999987 -80.61 0.002415 -165.4
8.79389000 0.002421 -176.2 0.999987 -80.61 0.999987 -80.61 0.002419 -165.4
8.79390000 0.002424 -176.2 0.999987 -80.61 0.999987 -80.61 0.002422 -165.5
8.79391000 0.002428 -176.2 0.999987 -80.61 0.999987 -80.61 0.002426 -165.5
8.79392000 0.002432 -176.2 0.999987 -80.61 0.999987 -80.61 0.002430 -165.5