! Sonnet Data File
! From: emgraph Version : 16.52
! From Project: Qubit_Test_beforeopt
! Data is De-embedded 
! Data File Written: 10/18/2017 16:57:23
!< HDATE 10/18/2017 09:03:38
!< MDATE 10/18/2017 09:03:38
!< PARAMS
!< Lj = 11.0
!< Gap = 16.0
!< Pwid = 2000.0
!< Airgap = 30.0
!< Width = 50.0
!< END PARAMS
# GHZ S MA R 51.80000
8.79000000 0.043087 -171.3 0.999042 -81.48 0.999042 -81.48 0.043086 -171.7
!< P1 F=8.79 Eeff=(6.43963342 -3.1364e-5) Z0=(50.401348 1.04894e-4) R=0.0 C=0.0 
!< P2 F=8.79 Eeff=(6.43963342 -3.1364e-5) Z0=(50.401348 1.04894e-4) R=0.0 C=0.0 
8.79001000 0.043101 -171.3 0.999041 -81.49 0.999041 -81.49 0.043100 -171.7
8.79002000 0.043115 -171.3 0.999041 -81.49 0.999041 -81.49 0.043114 -171.7
8.79003000 0.043129 -171.3 0.999040 -81.49 0.999040 -81.49 0.043128 -171.7
8.79004000 0.043143 -171.3 0.999039 -81.49 0.999039 -81.49 0.043142 -171.7
8.79005000 0.043157 -171.3 0.999039 -81.49 0.999039 -81.49 0.043156 -171.7
8.79006000 0.043172 -171.3 0.999038 -81.49 0.999038 -81.49 0.043171 -171.7
8.79007000 0.043186 -171.3 0.999037 -81.49 0.999037 -81.49 0.043185 -171.7
8.79008000 0.043200 -171.3 0.999037 -81.49 0.999037 -81.49 0.043199 -171.7
8.79009000 0.043214 -171.3 0.999036 -81.49 0.999036 -81.49 0.043213 -171.7
8.79010000 0.043228 -171.3 0.999035 -81.49 0.999035 -81.49 0.043227 -171.7
8.79011000 0.043242 -171.3 0.999035 -81.49 0.999035 -81.49 0.043241 -171.7
8.79012000 0.043257 -171.3 0.999034 -81.50 0.999034 -81.50 0.043256 -171.7
8.79013000 0.043271 -171.3 0.999033 -81.50 0.999033 -81.50 0.043270 -171.7
8.79014000 0.043285 -171.4 0.999033 -81.50 0.999033 -81.50 0.043284 -171.7
8.79015000 0.043300 -171.4 0.999032 -81.50 0.999032 -81.50 0.043299 -171.7
8.79016000 0.043314 -171.4 0.999032 -81.50 0.999032 -81.50 0.043313 -171.7
8.79017000 0.043328 -171.4 0.999031 -81.50 0.999031 -81.50 0.043327 -171.7
8.79018000 0.043343 -171.4 0.999030 -81.50 0.999030 -81.50 0.043342 -171.7
8.79019000 0.043357 -171.4 0.999030 -81.50 0.999030 -81.50 0.043356 -171.7
8.79020000 0.043371 -171.4 0.999029 -81.50 0.999029 -81.50 0.043370 -171.7
8.79021000 0.043386 -171.4 0.999028 -81.50 0.999028 -81.50 0.043385 -171.7
8.79022000 0.043400 -171.4 0.999027 -81.50 0.999027 -81.50 0.043399 -171.7
8.79023000 0.043415 -171.4 0.999027 -81.51 0.999027 -81.51 0.043414 -171.7
8.79024000 0.043429 -171.4 0.999026 -81.51 0.999026 -81.51 0.043428 -171.7
8.79025000 0.043444 -171.4 0.999025 -81.51 0.999025 -81.51 0.043443 -171.7
8.79026000 0.043459 -171.4 0.999025 -81.51 0.999025 -81.51 0.043457 -171.7
8.79027000 0.043473 -171.4 0.999024 -81.51 0.999024 -81.51 0.043472 -171.7
8.79028000 0.043488 -171.4 0.999023 -81.51 0.999023 -81.51 0.043487 -171.7
8.79029000 0.043502 -171.4 0.999023 -81.51 0.999023 -81.51 0.043501 -171.7
8.79030000 0.043517 -171.4 0.999022 -81.51 0.999022 -81.51 0.043516 -171.7
8.79031000 0.043532 -171.4 0.999021 -81.51 0.999021 -81.51 0.043531 -171.7
8.79032000 0.043546 -171.4 0.999021 -81.51 0.999021 -81.51 0.043545 -171.7
8.79033000 0.043561 -171.4 0.999020 -81.51 0.999020 -81.51 0.043560 -171.7
8.79034000 0.043576 -171.4 0.999019 -81.52 0.999019 -81.52 0.043575 -171.7
8.79035000 0.043591 -171.4 0.999019 -81.52 0.999019 -81.52 0.043590 -171.7
8.79036000 0.043605 -171.4 0.999018 -81.52 0.999018 -81.52 0.043604 -171.7
8.79037000 0.043620 -171.4 0.999017 -81.52 0.999017 -81.52 0.043619 -171.8
8.79038000 0.043635 -171.4 0.999017 -81.52 0.999017 -81.52 0.043634 -171.8
8.79039000 0.043650 -171.4 0.999016 -81.52 0.999016 -81.52 0.043649 -171.8
8.79040000 0.043665 -171.4 0.999015 -81.52 0.999015 -81.52 0.043664 -171.8
8.79041000 0.043680 -171.4 0.999015 -81.52 0.999015 -81.52 0.043679 -171.8
8.79042000 0.043695 -171.4 0.999014 -81.52 0.999014 -81.52 0.043694 -171.8
8.79043000 0.043710 -171.4 0.999013 -81.52 0.999013 -81.52 0.043709 -171.8
8.79044000 0.043725 -171.4 0.999012 -81.53 0.999012 -81.53 0.043724 -171.8
8.79045000 0.043740 -171.4 0.999012 -81.53 0.999012 -81.53 0.043739 -171.8
8.79046000 0.043755 -171.4 0.999011 -81.53 0.999011 -81.53 0.043754 -171.8
8.79047000 0.043770 -171.4 0.999010 -81.53 0.999010 -81.53 0.043769 -171.8
8.79048000 0.043785 -171.4 0.999010 -81.53 0.999010 -81.53 0.043784 -171.8
8.79049000 0.043800 -171.4 0.999009 -81.53 0.999009 -81.53 0.043799 -171.8
8.79050000 0.043815 -171.4 0.999008 -81.53 0.999008 -81.53 0.043814 -171.8
8.79051000 0.043830 -171.4 0.999007 -81.53 0.999007 -81.53 0.043829 -171.8
8.79052000 0.043845 -171.4 0.999007 -81.53 0.999007 -81.53 0.043844 -171.8
8.79053000 0.043860 -171.4 0.999006 -81.53 0.999006 -81.53 0.043859 -171.8
8.79054000 0.043876 -171.4 0.999005 -81.53 0.999005 -81.53 0.043875 -171.8
8.79055000 0.043891 -171.4 0.999005 -81.54 0.999005 -81.54 0.043890 -171.8
8.79056000 0.043906 -171.4 0.999004 -81.54 0.999004 -81.54 0.043905 -171.8
8.79057000 0.043922 -171.4 0.999003 -81.54 0.999003 -81.54 0.043920 -171.8
8.79058000 0.043937 -171.4 0.999002 -81.54 0.999002 -81.54 0.043936 -171.8
8.79059000 0.043952 -171.4 0.999002 -81.54 0.999002 -81.54 0.043951 -171.8
8.79060000 0.043968 -171.4 0.999001 -81.54 0.999001 -81.54 0.043967 -171.8
8.79061000 0.043983 -171.4 0.999000 -81.54 0.999000 -81.54 0.043982 -171.8
8.79062000 0.043998 -171.4 0.999000 -81.54 0.999000 -81.54 0.043997 -171.8
8.79063000 0.044014 -171.4 0.998999 -81.54 0.998999 -81.54 0.044013 -171.8
8.79064000 0.044029 -171.4 0.998998 -81.54 0.998998 -81.54 0.044028 -171.8
8.79065000 0.044045 -171.4 0.998997 -81.55 0.998997 -81.55 0.044044 -171.8
8.79066000 0.044060 -171.4 0.998997 -81.55 0.998997 -81.55 0.044059 -171.8
8.79067000 0.044076 -171.4 0.998996 -81.55 0.998996 -81.55 0.044075 -171.8
8.79068000 0.044091 -171.4 0.998995 -81.55 0.998995 -81.55 0.044090 -171.8
8.79069000 0.044107 -171.4 0.998994 -81.55 0.998994 -81.55 0.044106 -171.8
8.79070000 0.044123 -171.4 0.998994 -81.55 0.998994 -81.55 0.044122 -171.8
8.79071000 0.044138 -171.4 0.998993 -81.55 0.998993 -81.55 0.044137 -171.8
8.79072000 0.044154 -171.4 0.998992 -81.55 0.998992 -81.55 0.044153 -171.8
8.79073000 0.044170 -171.4 0.998992 -81.55 0.998992 -81.55 0.044169 -171.8
8.79074000 0.044185 -171.4 0.998991 -81.55 0.998991 -81.55 0.044184 -171.8
8.79075000 0.044201 -171.4 0.998990 -81.56 0.998990 -81.56 0.044200 -171.8
8.79076000 0.044217 -171.4 0.998989 -81.56 0.998989 -81.56 0.044216 -171.8
8.79077000 0.044233 -171.4 0.998989 -81.56 0.998989 -81.56 0.044232 -171.8
8.79078000 0.044249 -171.4 0.998988 -81.56 0.998988 -81.56 0.044247 -171.8
8.79079000 0.044264 -171.4 0.998987 -81.56 0.998987 -81.56 0.044263 -171.8
8.79080000 0.044280 -171.4 0.998986 -81.56 0.998986 -81.56 0.044279 -171.8
8.79081000 0.044296 -171.4 0.998986 -81.56 0.998986 -81.56 0.044295 -171.8
8.79082000 0.044312 -171.4 0.998985 -81.56 0.998985 -81.56 0.044311 -171.8
8.79083000 0.044328 -171.4 0.998984 -81.56 0.998984 -81.56 0.044327 -171.8
8.79084000 0.044344 -171.4 0.998983 -81.56 0.998983 -81.56 0.044343 -171.8
8.79085000 0.044360 -171.4 0.998982 -81.57 0.998982 -81.57 0.044359 -171.8
8.79086000 0.044376 -171.4 0.998982 -81.57 0.998982 -81.57 0.044375 -171.8
8.79087000 0.044392 -171.4 0.998981 -81.57 0.998981 -81.57 0.044391 -171.8
8.79088000 0.044408 -171.4 0.998980 -81.57 0.998980 -81.57 0.044407 -171.8
8.79089000 0.044424 -171.4 0.998979 -81.57 0.998979 -81.57 0.044423 -171.8
8.79090000 0.044440 -171.4 0.998979 -81.57 0.998979 -81.57 0.044439 -171.8
8.79091000 0.044457 -171.4 0.998978 -81.57 0.998978 -81.57 0.044456 -171.8
8.79092000 0.044473 -171.4 0.998977 -81.57 0.998977 -81.57 0.044472 -171.8
8.79093000 0.044489 -171.4 0.998976 -81.57 0.998976 -81.57 0.044488 -171.8
8.79094000 0.044505 -171.4 0.998976 -81.57 0.998976 -81.57 0.044504 -171.8
8.79095000 0.044522 -171.4 0.998975 -81.58 0.998975 -81.58 0.044520 -171.8
8.79096000 0.044538 -171.4 0.998974 -81.58 0.998974 -81.58 0.044537 -171.8
8.79097000 0.044554 -171.4 0.998973 -81.58 0.998973 -81.58 0.044553 -171.8
8.79098000 0.044571 -171.4 0.998972 -81.58 0.998972 -81.58 0.044569 -171.8
8.79099000 0.044587 -171.4 0.998972 -81.58 0.998972 -81.58 0.044586 -171.8
8.79100000 0.044603 -171.4 0.998971 -81.58 0.998971 -81.58 0.044602 -171.8
8.79101000 0.044620 -171.4 0.998970 -81.58 0.998970 -81.58 0.044619 -171.8
8.79102000 0.044636 -171.4 0.998969 -81.58 0.998969 -81.58 0.044635 -171.8
8.79103000 0.044653 -171.4 0.998969 -81.58 0.998969 -81.58 0.044652 -171.8
8.79104000 0.044669 -171.4 0.998968 -81.58 0.998968 -81.58 0.044668 -171.8
8.79105000 0.044686 -171.4 0.998967 -81.59 0.998967 -81.59 0.044685 -171.8
8.79106000 0.044702 -171.4 0.998966 -81.59 0.998966 -81.59 0.044701 -171.8
8.79107000 0.044719 -171.4 0.998965 -81.59 0.998965 -81.59 0.044718 -171.9
8.79108000 0.044736 -171.4 0.998965 -81.59 0.998965 -81.59 0.044734 -171.9
8.79109000 0.044752 -171.4 0.998964 -81.59 0.998964 -81.59 0.044751 -171.9
8.79110000 0.044769 -171.4 0.998963 -81.59 0.998963 -81.59 0.044768 -171.9
8.79111000 0.044786 -171.4 0.998962 -81.59 0.998962 -81.59 0.044784 -171.9
8.79112000 0.044802 -171.4 0.998961 -81.59 0.998961 -81.59 0.044801 -171.9
8.79113000 0.044819 -171.4 0.998961 -81.59 0.998961 -81.59 0.044818 -171.9
8.79114000 0.044836 -171.4 0.998960 -81.60 0.998960 -81.60 0.044835 -171.9
8.79115000 0.044853 -171.4 0.998959 -81.60 0.998959 -81.60 0.044852 -171.9
8.79116000 0.044870 -171.4 0.998958 -81.60 0.998958 -81.60 0.044868 -171.9
8.79117000 0.044886 -171.4 0.998957 -81.60 0.998957 -81.60 0.044885 -171.9
8.79118000 0.044903 -171.4 0.998957 -81.60 0.998957 -81.60 0.044902 -171.9
8.79119000 0.044920 -171.4 0.998956 -81.60 0.998956 -81.60 0.044919 -171.9
8.79120000 0.044937 -171.4 0.998955 -81.60 0.998955 -81.60 0.044936 -171.9
8.79121000 0.044954 -171.4 0.998954 -81.60 0.998954 -81.60 0.044953 -171.9
8.79122000 0.044971 -171.4 0.998953 -81.60 0.998953 -81.60 0.044970 -171.9
8.79123000 0.044988 -171.4 0.998952 -81.60 0.998952 -81.60 0.044987 -171.9
8.79124000 0.045005 -171.4 0.998952 -81.61 0.998952 -81.61 0.045004 -171.9
8.79125000 0.045023 -171.4 0.998951 -81.61 0.998951 -81.61 0.045021 -171.9
8.79126000 0.045040 -171.4 0.998950 -81.61 0.998950 -81.61 0.045039 -171.9
8.79127000 0.045057 -171.4 0.998949 -81.61 0.998949 -81.61 0.045056 -171.9
8.79128000 0.045074 -171.4 0.998948 -81.61 0.998948 -81.61 0.045073 -171.9
8.79129000 0.045091 -171.4 0.998947 -81.61 0.998947 -81.61 0.045090 -171.9
8.79130000 0.045109 -171.4 0.998947 -81.61 0.998947 -81.61 0.045107 -171.9
8.79131000 0.045126 -171.4 0.998946 -81.61 0.998946 -81.61 0.045125 -171.9
8.79132000 0.045143 -171.4 0.998945 -81.61 0.998945 -81.61 0.045142 -171.9
8.79133000 0.045161 -171.4 0.998944 -81.62 0.998944 -81.62 0.045159 -171.9
8.79134000 0.045178 -171.4 0.998943 -81.62 0.998943 -81.62 0.045177 -171.9
8.79135000 0.045195 -171.4 0.998942 -81.62 0.998942 -81.62 0.045194 -171.9
8.79136000 0.045213 -171.4 0.998942 -81.62 0.998942 -81.62 0.045212 -171.9
8.79137000 0.045230 -171.4 0.998941 -81.62 0.998941 -81.62 0.045229 -171.9
8.79138000 0.045248 -171.4 0.998940 -81.62 0.998940 -81.62 0.045247 -171.9
8.79139000 0.045265 -171.4 0.998939 -81.62 0.998939 -81.62 0.045264 -171.9
8.79140000 0.045283 -171.4 0.998938 -81.62 0.998938 -81.62 0.045282 -171.9
8.79141000 0.045300 -171.4 0.998937 -81.62 0.998937 -81.62 0.045299 -171.9
8.79142000 0.045318 -171.4 0.998937 -81.63 0.998937 -81.63 0.045317 -171.9
8.79143000 0.045336 -171.4 0.998936 -81.63 0.998936 -81.63 0.045334 -171.9
8.79144000 0.045353 -171.4 0.998935 -81.63 0.998935 -81.63 0.045352 -171.9
8.79145000 0.045371 -171.4 0.998934 -81.63 0.998934 -81.63 0.045370 -171.9
8.79146000 0.045389 -171.4 0.998933 -81.63 0.998933 -81.63 0.045388 -171.9
8.79147000 0.045407 -171.4 0.998932 -81.63 0.998932 -81.63 0.045405 -171.9
8.79148000 0.045424 -171.4 0.998931 -81.63 0.998931 -81.63 0.045423 -171.9
8.79149000 0.045442 -171.4 0.998930 -81.63 0.998930 -81.63 0.045441 -171.9
8.79150000 0.045460 -171.4 0.998930 -81.63 0.998930 -81.63 0.045459 -171.9
8.79151000 0.045478 -171.4 0.998929 -81.64 0.998929 -81.64 0.045477 -171.9
8.79152000 0.045496 -171.4 0.998928 -81.64 0.998928 -81.64 0.045495 -171.9
8.79153000 0.045514 -171.4 0.998927 -81.64 0.998927 -81.64 0.045513 -171.9
8.79154000 0.045532 -171.4 0.998926 -81.64 0.998926 -81.64 0.045531 -171.9
8.79155000 0.045550 -171.4 0.998925 -81.64 0.998925 -81.64 0.045549 -171.9
8.79156000 0.045568 -171.4 0.998924 -81.64 0.998924 -81.64 0.045567 -171.9
8.79157000 0.045586 -171.4 0.998923 -81.64 0.998923 -81.64 0.045585 -171.9
8.79158000 0.045604 -171.4 0.998923 -81.64 0.998923 -81.64 0.045603 -171.9
8.79159000 0.045622 -171.4 0.998922 -81.64 0.998922 -81.64 0.045621 -171.9
8.79160000 0.045640 -171.4 0.998921 -81.65 0.998921 -81.65 0.045639 -171.9
8.79161000 0.045659 -171.4 0.998920 -81.65 0.998920 -81.65 0.045657 -171.9
8.79162000 0.045677 -171.5 0.998919 -81.65 0.998919 -81.65 0.045676 -171.9
8.79163000 0.045695 -171.5 0.998918 -81.65 0.998918 -81.65 0.045694 -171.9
8.79164000 0.045713 -171.5 0.998917 -81.65 0.998917 -81.65 0.045712 -171.9
8.79165000 0.045732 -171.5 0.998916 -81.65 0.998916 -81.65 0.045731 -171.9
8.79166000 0.045750 -171.5 0.998915 -81.65 0.998915 -81.65 0.045749 -171.9
8.79167000 0.045769 -171.5 0.998915 -81.65 0.998915 -81.65 0.045767 -171.9
8.79168000 0.045787 -171.5 0.998914 -81.65 0.998914 -81.65 0.045786 -171.9
8.79169000 0.045805 -171.5 0.998913 -81.66 0.998913 -81.66 0.045804 -171.9
8.79170000 0.045824 -171.5 0.998912 -81.66 0.998912 -81.66 0.045823 -171.9
8.79171000 0.045842 -171.5 0.998911 -81.66 0.998911 -81.66 0.045841 -172.0
8.79172000 0.045861 -171.5 0.998910 -81.66 0.998910 -81.66 0.045860 -172.0
8.79173000 0.045880 -171.5 0.998909 -81.66 0.998909 -81.66 0.045878 -172.0
8.79174000 0.045898 -171.5 0.998908 -81.66 0.998908 -81.66 0.045897 -172.0
8.79175000 0.045917 -171.5 0.998907 -81.66 0.998907 -81.66 0.045916 -172.0
8.79176000 0.045936 -171.5 0.998906 -81.66 0.998906 -81.66 0.045934 -172.0
8.79177000 0.045954 -171.5 0.998905 -81.67 0.998905 -81.67 0.045953 -172.0
8.79178000 0.045973 -171.5 0.998904 -81.67 0.998904 -81.67 0.045972 -172.0
8.79179000 0.045992 -171.5 0.998904 -81.67 0.998904 -81.67 0.045991 -172.0
8.79180000 0.046011 -171.5 0.998903 -81.67 0.998903 -81.67 0.046009 -172.0
8.79181000 0.046030 -171.5 0.998902 -81.67 0.998902 -81.67 0.046028 -172.0
8.79182000 0.046048 -171.5 0.998901 -81.67 0.998901 -81.67 0.046047 -172.0
8.79183000 0.046067 -171.5 0.998900 -81.67 0.998900 -81.67 0.046066 -172.0
8.79184000 0.046086 -171.5 0.998899 -81.67 0.998899 -81.67 0.046085 -172.0
8.79185000 0.046105 -171.5 0.998898 -81.67 0.998898 -81.67 0.046104 -172.0
8.79186000 0.046124 -171.5 0.998897 -81.68 0.998897 -81.68 0.046123 -172.0
8.79187000 0.046143 -171.5 0.998896 -81.68 0.998896 -81.68 0.046142 -172.0
8.79188000 0.046163 -171.5 0.998895 -81.68 0.998895 -81.68 0.046161 -172.0
8.79189000 0.046182 -171.5 0.998894 -81.68 0.998894 -81.68 0.046180 -172.0
8.79190000 0.046201 -171.5 0.998893 -81.68 0.998893 -81.68 0.046200 -172.0
8.79191000 0.046220 -171.5 0.998892 -81.68 0.998892 -81.68 0.046219 -172.0
8.79192000 0.046239 -171.5 0.998891 -81.68 0.998891 -81.68 0.046238 -172.0
8.79193000 0.046259 -171.5 0.998890 -81.68 0.998890 -81.68 0.046257 -172.0
8.79194000 0.046278 -171.5 0.998889 -81.69 0.998889 -81.69 0.046277 -172.0
8.79195000 0.046297 -171.5 0.998888 -81.69 0.998888 -81.69 0.046296 -172.0
8.79196000 0.046317 -171.5 0.998887 -81.69 0.998887 -81.69 0.046315 -172.0
8.79197000 0.046336 -171.5 0.998886 -81.69 0.998886 -81.69 0.046335 -172.0
8.79198000 0.046355 -171.5 0.998886 -81.69 0.998886 -81.69 0.046354 -172.0
8.79199000 0.046375 -171.5 0.998885 -81.69 0.998885 -81.69 0.046374 -172.0
8.79200000 0.046394 -171.5 0.998884 -81.69 0.998884 -81.69 0.046393 -172.0
8.79201000 0.046414 -171.5 0.998883 -81.69 0.998883 -81.69 0.046413 -172.0
8.79202000 0.046434 -171.5 0.998882 -81.70 0.998882 -81.70 0.046432 -172.0
8.79203000 0.046453 -171.5 0.998881 -81.70 0.998881 -81.70 0.046452 -172.0
8.79204000 0.046473 -171.5 0.998880 -81.70 0.998880 -81.70 0.046472 -172.0
8.79205000 0.046493 -171.5 0.998879 -81.70 0.998879 -81.70 0.046491 -172.0
8.79206000 0.046512 -171.5 0.998878 -81.70 0.998878 -81.70 0.046511 -172.0
8.79207000 0.046532 -171.5 0.998877 -81.70 0.998877 -81.70 0.046531 -172.0
8.79208000 0.046552 -171.5 0.998876 -81.70 0.998876 -81.70 0.046551 -172.0
8.79209000 0.046572 -171.5 0.998875 -81.70 0.998875 -81.70 0.046570 -172.0
8.79210000 0.046592 -171.5 0.998874 -81.70 0.998874 -81.70 0.046590 -172.0
8.79211000 0.046612 -171.5 0.998873 -81.71 0.998873 -81.71 0.046610 -172.0
8.79212000 0.046631 -171.5 0.998872 -81.71 0.998872 -81.71 0.046630 -172.0
8.79213000 0.046651 -171.5 0.998871 -81.71 0.998871 -81.71 0.046650 -172.0
8.79214000 0.046671 -171.5 0.998870 -81.71 0.998870 -81.71 0.046670 -172.0
8.79215000 0.046692 -171.5 0.998869 -81.71 0.998869 -81.71 0.046690 -172.0
8.79216000 0.046712 -171.5 0.998868 -81.71 0.998868 -81.71 0.046710 -172.0
8.79217000 0.046732 -171.5 0.998867 -81.71 0.998867 -81.71 0.046730 -172.0
8.79218000 0.046752 -171.5 0.998866 -81.71 0.998866 -81.71 0.046751 -172.0
8.79219000 0.046772 -171.5 0.998865 -81.72 0.998865 -81.72 0.046771 -172.0
8.79220000 0.046792 -171.5 0.998864 -81.72 0.998864 -81.72 0.046791 -172.0
8.79221000 0.046813 -171.5 0.998863 -81.72 0.998863 -81.72 0.046811 -172.0
8.79222000 0.046833 -171.5 0.998862 -81.72 0.998862 -81.72 0.046832 -172.0
8.79223000 0.046853 -171.5 0.998861 -81.72 0.998861 -81.72 0.046852 -172.0
8.79224000 0.046874 -171.5 0.998860 -81.72 0.998860 -81.72 0.046872 -172.0
8.79225000 0.046894 -171.5 0.998859 -81.72 0.998859 -81.72 0.046893 -172.0
8.79226000 0.046915 -171.5 0.998857 -81.72 0.998857 -81.72 0.046913 -172.0
8.79227000 0.046935 -171.5 0.998856 -81.73 0.998856 -81.73 0.046934 -172.0
8.79228000 0.046956 -171.5 0.998855 -81.73 0.998855 -81.73 0.046954 -172.0
8.79229000 0.046976 -171.5 0.998854 -81.73 0.998854 -81.73 0.046975 -172.0
8.79230000 0.046997 -171.5 0.998853 -81.73 0.998853 -81.73 0.046996 -172.1
8.79231000 0.047018 -171.5 0.998852 -81.73 0.998852 -81.73 0.047016 -172.1
8.79232000 0.047038 -171.5 0.998851 -81.73 0.998851 -81.73 0.047037 -172.1
8.79233000 0.047059 -171.5 0.998850 -81.73 0.998850 -81.73 0.047058 -172.1
8.79234000 0.047080 -171.5 0.998849 -81.74 0.998849 -81.74 0.047078 -172.1
8.79235000 0.047101 -171.5 0.998848 -81.74 0.998848 -81.74 0.047099 -172.1
8.79236000 0.047121 -171.5 0.998847 -81.74 0.998847 -81.74 0.047120 -172.1
8.79237000 0.047142 -171.5 0.998846 -81.74 0.998846 -81.74 0.047141 -172.1
8.79238000 0.047163 -171.5 0.998845 -81.74 0.998845 -81.74 0.047162 -172.1
8.79239000 0.047184 -171.5 0.998844 -81.74 0.998844 -81.74 0.047183 -172.1
8.79240000 0.047205 -171.5 0.998843 -81.74 0.998843 -81.74 0.047204 -172.1
8.79241000 0.047226 -171.5 0.998842 -81.74 0.998842 -81.74 0.047225 -172.1
8.79242000 0.047247 -171.5 0.998841 -81.75 0.998841 -81.75 0.047246 -172.1
8.79243000 0.047269 -171.5 0.998840 -81.75 0.998840 -81.75 0.047267 -172.1
8.79244000 0.047290 -171.5 0.998839 -81.75 0.998839 -81.75 0.047288 -172.1
8.79245000 0.047311 -171.5 0.998837 -81.75 0.998837 -81.75 0.047310 -172.1
8.79246000 0.047332 -171.5 0.998836 -81.75 0.998836 -81.75 0.047331 -172.1
8.79247000 0.047354 -171.5 0.998835 -81.75 0.998835 -81.75 0.047352 -172.1
8.79248000 0.047375 -171.5 0.998834 -81.75 0.998834 -81.75 0.047373 -172.1
8.79249000 0.047396 -171.5 0.998833 -81.75 0.998833 -81.75 0.047395 -172.1
8.79250000 0.047418 -171.5 0.998832 -81.76 0.998832 -81.76 0.047416 -172.1
8.79251000 0.047439 -171.5 0.998831 -81.76 0.998831 -81.76 0.047438 -172.1
8.79252000 0.047461 -171.5 0.998830 -81.76 0.998830 -81.76 0.047459 -172.1
8.79253000 0.047482 -171.5 0.998829 -81.76 0.998829 -81.76 0.047481 -172.1
8.79254000 0.047504 -171.5 0.998828 -81.76 0.998828 -81.76 0.047502 -172.1
8.79255000 0.047525 -171.5 0.998826 -81.76 0.998826 -81.76 0.047524 -172.1
8.79256000 0.047547 -171.5 0.998825 -81.76 0.998825 -81.76 0.047546 -172.1
8.79257000 0.047569 -171.5 0.998824 -81.77 0.998824 -81.77 0.047567 -172.1
8.79258000 0.047590 -171.5 0.998823 -81.77 0.998823 -81.77 0.047589 -172.1
8.79259000 0.047612 -171.5 0.998822 -81.77 0.998822 -81.77 0.047611 -172.1
8.79260000 0.047634 -171.5 0.998821 -81.77 0.998821 -81.77 0.047633 -172.1
8.79261000 0.047656 -171.5 0.998820 -81.77 0.998820 -81.77 0.047655 -172.1
8.79262000 0.047678 -171.5 0.998819 -81.77 0.998819 -81.77 0.047676 -172.1
8.79263000 0.047700 -171.5 0.998818 -81.77 0.998818 -81.77 0.047698 -172.1
8.79264000 0.047722 -171.5 0.998816 -81.77 0.998816 -81.77 0.047720 -172.1
8.79265000 0.047744 -171.5 0.998815 -81.78 0.998815 -81.78 0.047742 -172.1
8.79266000 0.047766 -171.5 0.998814 -81.78 0.998814 -81.78 0.047764 -172.1
8.79267000 0.047788 -171.5 0.998813 -81.78 0.998813 -81.78 0.047787 -172.1
8.79268000 0.047810 -171.5 0.998812 -81.78 0.998812 -81.78 0.047809 -172.1
8.79269000 0.047832 -171.5 0.998811 -81.78 0.998811 -81.78 0.047831 -172.1
8.79270000 0.047855 -171.5 0.998810 -81.78 0.998810 -81.78 0.047853 -172.1
8.79271000 0.047877 -171.5 0.998808 -81.78 0.998808 -81.78 0.047876 -172.1
8.79272000 0.047899 -171.5 0.998807 -81.79 0.998807 -81.79 0.047898 -172.1
8.79273000 0.047922 -171.5 0.998806 -81.79 0.998806 -81.79 0.047920 -172.1
8.79274000 0.047944 -171.5 0.998805 -81.79 0.998805 -81.79 0.047943 -172.1
8.79275000 0.047967 -171.5 0.998804 -81.79 0.998804 -81.79 0.047965 -172.1
8.79276000 0.047989 -171.6 0.998803 -81.79 0.998803 -81.79 0.047988 -172.1
8.79277000 0.048012 -171.6 0.998801 -81.79 0.998801 -81.79 0.048010 -172.1
8.79278000 0.048034 -171.6 0.998800 -81.79 0.998800 -81.79 0.048033 -172.1
8.79279000 0.048057 -171.6 0.998799 -81.80 0.998799 -81.80 0.048055 -172.1
8.79280000 0.048080 -171.6 0.998798 -81.80 0.998798 -81.80 0.048078 -172.1
8.79281000 0.048102 -171.6 0.998797 -81.80 0.998797 -81.80 0.048101 -172.1
8.79282000 0.048125 -171.6 0.998796 -81.80 0.998796 -81.80 0.048124 -172.1
8.79283000 0.048148 -171.6 0.998794 -81.80 0.998794 -81.80 0.048146 -172.1
8.79284000 0.048171 -171.6 0.998793 -81.80 0.998793 -81.80 0.048169 -172.2
8.79285000 0.048194 -171.6 0.998792 -81.80 0.998792 -81.80 0.048192 -172.2
8.79286000 0.048217 -171.6 0.998791 -81.80 0.998791 -81.80 0.048215 -172.2
8.79287000 0.048240 -171.6 0.998790 -81.81 0.998790 -81.81 0.048238 -172.2
8.79288000 0.048263 -171.6 0.998788 -81.81 0.998788 -81.81 0.048261 -172.2
8.79289000 0.048286 -171.6 0.998787 -81.81 0.998787 -81.81 0.048284 -172.2
8.79290000 0.048309 -171.6 0.998786 -81.81 0.998786 -81.81 0.048307 -172.2
8.79291000 0.048332 -171.6 0.998785 -81.81 0.998785 -81.81 0.048331 -172.2
8.79292000 0.048355 -171.6 0.998784 -81.81 0.998784 -81.81 0.048354 -172.2
8.79293000 0.048379 -171.6 0.998782 -81.81 0.998782 -81.81 0.048377 -172.2
8.79294000 0.048402 -171.6 0.998781 -81.82 0.998781 -81.82 0.048400 -172.2
8.79295000 0.048425 -171.6 0.998780 -81.82 0.998780 -81.82 0.048424 -172.2
8.79296000 0.048449 -171.6 0.998779 -81.82 0.998779 -81.82 0.048447 -172.2
8.79297000 0.048472 -171.6 0.998778 -81.82 0.998778 -81.82 0.048471 -172.2
8.79298000 0.048496 -171.6 0.998776 -81.82 0.998776 -81.82 0.048494 -172.2
8.79299000 0.048519 -171.6 0.998775 -81.82 0.998775 -81.82 0.048518 -172.2
8.79300000 0.048543 -171.6 0.998774 -81.82 0.998774 -81.82 0.048541 -172.2
8.79301000 0.048566 -171.6 0.998773 -81.83 0.998773 -81.83 0.048565 -172.2
8.79302000 0.048590 -171.6 0.998771 -81.83 0.998771 -81.83 0.048589 -172.2
8.79303000 0.048614 -171.6 0.998770 -81.83 0.998770 -81.83 0.048612 -172.2
8.79304000 0.048638 -171.6 0.998769 -81.83 0.998769 -81.83 0.048636 -172.2
8.79305000 0.048662 -171.6 0.998768 -81.83 0.998768 -81.83 0.048660 -172.2
8.79306000 0.048685 -171.6 0.998766 -81.83 0.998766 -81.83 0.048684 -172.2
8.79307000 0.048709 -171.6 0.998765 -81.84 0.998765 -81.84 0.048708 -172.2
8.79308000 0.048733 -171.6 0.998764 -81.84 0.998764 -81.84 0.048732 -172.2
8.79309000 0.048757 -171.6 0.998763 -81.84 0.998763 -81.84 0.048756 -172.2
8.79310000 0.048781 -171.6 0.998761 -81.84 0.998761 -81.84 0.048780 -172.2
8.79311000 0.048806 -171.6 0.998760 -81.84 0.998760 -81.84 0.048804 -172.2
8.79312000 0.048830 -171.6 0.998759 -81.84 0.998759 -81.84 0.048828 -172.2
8.79313000 0.048854 -171.6 0.998758 -81.84 0.998758 -81.84 0.048853 -172.2
8.79314000 0.048878 -171.6 0.998756 -81.85 0.998756 -81.85 0.048877 -172.2
8.79315000 0.048903 -171.6 0.998755 -81.85 0.998755 -81.85 0.048901 -172.2
8.79316000 0.048927 -171.6 0.998754 -81.85 0.998754 -81.85 0.048925 -172.2
8.79317000 0.048951 -171.6 0.998752 -81.85 0.998752 -81.85 0.048950 -172.2
8.79318000 0.048976 -171.6 0.998751 -81.85 0.998751 -81.85 0.048974 -172.2
8.79319000 0.049000 -171.6 0.998750 -81.85 0.998750 -81.85 0.048999 -172.2
8.79320000 0.049025 -171.6 0.998749 -81.85 0.998749 -81.85 0.049023 -172.2
8.79321000 0.049050 -171.6 0.998747 -81.86 0.998747 -81.86 0.049048 -172.2
8.79322000 0.049074 -171.6 0.998746 -81.86 0.998746 -81.86 0.049073 -172.2
8.79323000 0.049099 -171.6 0.998745 -81.86 0.998745 -81.86 0.049097 -172.2
8.79324000 0.049124 -171.6 0.998743 -81.86 0.998743 -81.86 0.049122 -172.2
8.79325000 0.049149 -171.6 0.998742 -81.86 0.998742 -81.86 0.049147 -172.2
8.79326000 0.049173 -171.6 0.998741 -81.86 0.998741 -81.86 0.049172 -172.2
8.79327000 0.049198 -171.6 0.998739 -81.87 0.998739 -81.87 0.049197 -172.2
8.79328000 0.049223 -171.6 0.998738 -81.87 0.998738 -81.87 0.049222 -172.2
8.79329000 0.049248 -171.6 0.998737 -81.87 0.998737 -81.87 0.049247 -172.2
8.79330000 0.049274 -171.6 0.998735 -81.87 0.998735 -81.87 0.049272 -172.2
8.79331000 0.049299 -171.6 0.998734 -81.87 0.998734 -81.87 0.049297 -172.2
8.79332000 0.049324 -171.6 0.998733 -81.87 0.998733 -81.87 0.049322 -172.2
8.79333000 0.049349 -171.6 0.998731 -81.87 0.998731 -81.87 0.049348 -172.3
8.79334000 0.049374 -171.6 0.998730 -81.88 0.998730 -81.88 0.049373 -172.3
8.79335000 0.049400 -171.6 0.998729 -81.88 0.998729 -81.88 0.049398 -172.3
8.79336000 0.049425 -171.6 0.998727 -81.88 0.998727 -81.88 0.049424 -172.3
8.79337000 0.049451 -171.6 0.998726 -81.88 0.998726 -81.88 0.049449 -172.3
8.79338000 0.049476 -171.6 0.998725 -81.88 0.998725 -81.88 0.049474 -172.3
8.79339000 0.049502 -171.6 0.998723 -81.88 0.998723 -81.88 0.049500 -172.3
8.79340000 0.049527 -171.6 0.998722 -81.89 0.998722 -81.89 0.049526 -172.3
8.79341000 0.049553 -171.6 0.998720 -81.89 0.998720 -81.89 0.049551 -172.3
8.79342000 0.049579 -171.6 0.998719 -81.89 0.998719 -81.89 0.049577 -172.3
8.79343000 0.049604 -171.6 0.998718 -81.89 0.998718 -81.89 0.049603 -172.3
8.79344000 0.049630 -171.6 0.998716 -81.89 0.998716 -81.89 0.049629 -172.3
8.79345000 0.049656 -171.6 0.998715 -81.89 0.998715 -81.89 0.049654 -172.3
8.79346000 0.049682 -171.6 0.998714 -81.89 0.998714 -81.89 0.049680 -172.3
8.79347000 0.049708 -171.6 0.998712 -81.90 0.998712 -81.90 0.049706 -172.3
8.79348000 0.049734 -171.6 0.998711 -81.90 0.998711 -81.90 0.049732 -172.3
8.79349000 0.049760 -171.6 0.998709 -81.90 0.998709 -81.90 0.049758 -172.3
8.79350000 0.049786 -171.6 0.998708 -81.90 0.998708 -81.90 0.049785 -172.3
8.79351000 0.049812 -171.6 0.998707 -81.90 0.998707 -81.90 0.049811 -172.3
8.79352000 0.049839 -171.6 0.998705 -81.90 0.998705 -81.90 0.049837 -172.3
8.79353000 0.049865 -171.6 0.998704 -81.91 0.998704 -81.91 0.049863 -172.3
8.79354000 0.049891 -171.6 0.998702 -81.91 0.998702 -81.91 0.049890 -172.3
8.79355000 0.049918 -171.6 0.998701 -81.91 0.998701 -81.91 0.049916 -172.3
8.79356000 0.049944 -171.6 0.998699 -81.91 0.998699 -81.91 0.049943 -172.3
8.79357000 0.049971 -171.6 0.998698 -81.91 0.998698 -81.91 0.049969 -172.3
8.79358000 0.049997 -171.6 0.998697 -81.91 0.998697 -81.91 0.049996 -172.3
8.79359000 0.050024 -171.6 0.998695 -81.92 0.998695 -81.92 0.050022 -172.3
8.79360000 0.050051 -171.6 0.998694 -81.92 0.998694 -81.92 0.050049 -172.3
8.79361000 0.050077 -171.6 0.998692 -81.92 0.998692 -81.92 0.050076 -172.3
8.79362000 0.050104 -171.6 0.998691 -81.92 0.998691 -81.92 0.050103 -172.3
8.79363000 0.050131 -171.6 0.998689 -81.92 0.998689 -81.92 0.050129 -172.3
8.79364000 0.050158 -171.6 0.998688 -81.92 0.998688 -81.92 0.050156 -172.3
8.79365000 0.050185 -171.6 0.998686 -81.93 0.998686 -81.93 0.050183 -172.3
8.79366000 0.050212 -171.7 0.998685 -81.93 0.998685 -81.93 0.050210 -172.3
8.79367000 0.050239 -171.7 0.998683 -81.93 0.998683 -81.93 0.050238 -172.3
8.79368000 0.050266 -171.7 0.998682 -81.93 0.998682 -81.93 0.050265 -172.3
8.79369000 0.050294 -171.7 0.998681 -81.93 0.998681 -81.93 0.050292 -172.3
8.79370000 0.050321 -171.7 0.998679 -81.93 0.998679 -81.93 0.050319 -172.3
8.79371000 0.050348 -171.7 0.998678 -81.94 0.998678 -81.94 0.050347 -172.3
8.79372000 0.050376 -171.7 0.998676 -81.94 0.998676 -81.94 0.050374 -172.3
8.79373000 0.050403 -171.7 0.998675 -81.94 0.998675 -81.94 0.050401 -172.3
8.79374000 0.050431 -171.7 0.998673 -81.94 0.998673 -81.94 0.050429 -172.3
8.79375000 0.050458 -171.7 0.998672 -81.94 0.998672 -81.94 0.050456 -172.3
8.79376000 0.050486 -171.7 0.998670 -81.94 0.998670 -81.94 0.050484 -172.3
8.79377000 0.050513 -171.7 0.998669 -81.95 0.998669 -81.95 0.050512 -172.3
8.79378000 0.050541 -171.7 0.998667 -81.95 0.998667 -81.95 0.050539 -172.4
8.79379000 0.050569 -171.7 0.998666 -81.95 0.998666 -81.95 0.050567 -172.4
8.79380000 0.050597 -171.7 0.998664 -81.95 0.998664 -81.95 0.050595 -172.4
8.79381000 0.050625 -171.7 0.998662 -81.95 0.998662 -81.95 0.050623 -172.4
8.79382000 0.050653 -171.7 0.998661 -81.95 0.998661 -81.95 0.050651 -172.4
8.79383000 0.050681 -171.7 0.998659 -81.96 0.998659 -81.96 0.050679 -172.4
8.79384000 0.050709 -171.7 0.998658 -81.96 0.998658 -81.96 0.050707 -172.4
8.79385000 0.050737 -171.7 0.998656 -81.96 0.998656 -81.96 0.050735 -172.4
8.79386000 0.050765 -171.7 0.998655 -81.96 0.998655 -81.96 0.050764 -172.4
8.79387000 0.050794 -171.7 0.998653 -81.96 0.998653 -81.96 0.050792 -172.4
8.79388000 0.050822 -171.7 0.998652 -81.96 0.998652 -81.96 0.050820 -172.4
8.79389000 0.050850 -171.7 0.998650 -81.97 0.998650 -81.97 0.050849 -172.4
8.79390000 0.050879 -171.7 0.998649 -81.97 0.998649 -81.97 0.050877 -172.4
8.79391000 0.050907 -171.7 0.998647 -81.97 0.998647 -81.97 0.050906 -172.4
8.79392000 0.050936 -171.7 0.998645 -81.97 0.998645 -81.97 0.050934 -172.4