! Sonnet Data File
! From: emgraph Version : 16.52
! From Project: Qubit_Test_beforeopt
! Data is De-embedded 
! Data File Written: 10/18/2017 16:57:23
!< HDATE 10/18/2017 09:03:38
!< MDATE 10/18/2017 09:03:38
!< PARAMS
!< Lj = 11.0
!< Gap = 16.0
!< Pwid = 2000.0
!< Airgap = 24.0
!< Width = 40.0
!< END PARAMS
# GHZ S MA R 51.80000
8.79000000 0.038922 -171.3 0.999217 -81.33 0.999217 -81.33 0.038921 -171.4
!< P1 F=8.79 Eeff=(6.4425964 -3.0761e-5) Z0=(50.47845 1.09247e-4) R=0.0 C=0.0 
!< P2 F=8.79 Eeff=(6.4425964 -3.0761e-5) Z0=(50.47845 1.09247e-4) R=0.0 C=0.0 
8.79001000 0.038934 -171.3 0.999216 -81.33 0.999216 -81.33 0.038933 -171.4
8.79002000 0.038947 -171.3 0.999216 -81.33 0.999216 -81.33 0.038946 -171.4
8.79003000 0.038959 -171.3 0.999215 -81.33 0.999215 -81.33 0.038958 -171.4
8.79004000 0.038971 -171.3 0.999215 -81.33 0.999215 -81.33 0.038970 -171.4
8.79005000 0.038983 -171.3 0.999214 -81.33 0.999214 -81.33 0.038982 -171.4
8.79006000 0.038995 -171.3 0.999213 -81.33 0.999213 -81.33 0.038994 -171.4
8.79007000 0.039007 -171.3 0.999213 -81.33 0.999213 -81.33 0.039006 -171.4
8.79008000 0.039019 -171.3 0.999212 -81.33 0.999212 -81.33 0.039018 -171.4
8.79009000 0.039032 -171.3 0.999212 -81.33 0.999212 -81.33 0.039031 -171.4
8.79010000 0.039044 -171.3 0.999211 -81.33 0.999211 -81.33 0.039043 -171.4
8.79011000 0.039056 -171.3 0.999211 -81.34 0.999211 -81.34 0.039055 -171.4
8.79012000 0.039068 -171.3 0.999210 -81.34 0.999210 -81.34 0.039067 -171.4
8.79013000 0.039081 -171.3 0.999210 -81.34 0.999210 -81.34 0.039080 -171.4
8.79014000 0.039093 -171.3 0.999209 -81.34 0.999209 -81.34 0.039092 -171.4
8.79015000 0.039105 -171.3 0.999209 -81.34 0.999209 -81.34 0.039104 -171.4
8.79016000 0.039118 -171.3 0.999208 -81.34 0.999208 -81.34 0.039117 -171.4
8.79017000 0.039130 -171.3 0.999208 -81.34 0.999208 -81.34 0.039129 -171.5
8.79018000 0.039143 -171.3 0.999207 -81.34 0.999207 -81.34 0.039142 -171.5
8.79019000 0.039155 -171.3 0.999207 -81.34 0.999207 -81.34 0.039154 -171.5
8.79020000 0.039167 -171.3 0.999206 -81.34 0.999206 -81.34 0.039166 -171.5
8.79021000 0.039180 -171.3 0.999206 -81.34 0.999206 -81.34 0.039179 -171.5
8.79022000 0.039192 -171.3 0.999205 -81.34 0.999205 -81.34 0.039191 -171.5
8.79023000 0.039205 -171.3 0.999205 -81.34 0.999205 -81.34 0.039204 -171.5
8.79024000 0.039217 -171.3 0.999204 -81.35 0.999204 -81.35 0.039216 -171.5
8.79025000 0.039230 -171.3 0.999204 -81.35 0.999204 -81.35 0.039229 -171.5
8.79026000 0.039242 -171.3 0.999203 -81.35 0.999203 -81.35 0.039241 -171.5
8.79027000 0.039255 -171.3 0.999203 -81.35 0.999203 -81.35 0.039254 -171.5
8.79028000 0.039268 -171.3 0.999202 -81.35 0.999202 -81.35 0.039267 -171.5
8.79029000 0.039280 -171.3 0.999201 -81.35 0.999201 -81.35 0.039279 -171.5
8.79030000 0.039293 -171.3 0.999201 -81.35 0.999201 -81.35 0.039292 -171.5
8.79031000 0.039306 -171.3 0.999200 -81.35 0.999200 -81.35 0.039305 -171.5
8.79032000 0.039318 -171.3 0.999200 -81.35 0.999200 -81.35 0.039317 -171.5
8.79033000 0.039331 -171.3 0.999199 -81.35 0.999199 -81.35 0.039330 -171.5
8.79034000 0.039344 -171.3 0.999199 -81.35 0.999199 -81.35 0.039343 -171.5
8.79035000 0.039356 -171.3 0.999198 -81.35 0.999198 -81.35 0.039355 -171.5
8.79036000 0.039369 -171.3 0.999198 -81.36 0.999198 -81.36 0.039368 -171.5
8.79037000 0.039382 -171.3 0.999197 -81.36 0.999197 -81.36 0.039381 -171.5
8.79038000 0.039395 -171.3 0.999197 -81.36 0.999197 -81.36 0.039394 -171.5
8.79039000 0.039408 -171.3 0.999196 -81.36 0.999196 -81.36 0.039407 -171.5
8.79040000 0.039420 -171.3 0.999196 -81.36 0.999196 -81.36 0.039419 -171.5
8.79041000 0.039433 -171.3 0.999195 -81.36 0.999195 -81.36 0.039432 -171.5
8.79042000 0.039446 -171.3 0.999194 -81.36 0.999194 -81.36 0.039445 -171.5
8.79043000 0.039459 -171.3 0.999194 -81.36 0.999194 -81.36 0.039458 -171.5
8.79044000 0.039472 -171.3 0.999193 -81.36 0.999193 -81.36 0.039471 -171.5
8.79045000 0.039485 -171.3 0.999193 -81.36 0.999193 -81.36 0.039484 -171.5
8.79046000 0.039498 -171.3 0.999192 -81.36 0.999192 -81.36 0.039497 -171.5
8.79047000 0.039511 -171.3 0.999192 -81.36 0.999192 -81.36 0.039510 -171.5
8.79048000 0.039524 -171.3 0.999191 -81.37 0.999191 -81.37 0.039523 -171.5
8.79049000 0.039537 -171.3 0.999191 -81.37 0.999191 -81.37 0.039536 -171.5
8.79050000 0.039550 -171.3 0.999190 -81.37 0.999190 -81.37 0.039549 -171.5
8.79051000 0.039563 -171.3 0.999189 -81.37 0.999189 -81.37 0.039562 -171.5
8.79052000 0.039576 -171.3 0.999189 -81.37 0.999189 -81.37 0.039575 -171.5
8.79053000 0.039589 -171.3 0.999188 -81.37 0.999188 -81.37 0.039588 -171.5
8.79054000 0.039602 -171.3 0.999188 -81.37 0.999188 -81.37 0.039601 -171.5
8.79055000 0.039616 -171.3 0.999187 -81.37 0.999187 -81.37 0.039615 -171.5
8.79056000 0.039629 -171.3 0.999187 -81.37 0.999187 -81.37 0.039628 -171.5
8.79057000 0.039642 -171.3 0.999186 -81.37 0.999186 -81.37 0.039641 -171.5
8.79058000 0.039655 -171.3 0.999186 -81.37 0.999186 -81.37 0.039654 -171.5
8.79059000 0.039668 -171.3 0.999185 -81.37 0.999185 -81.37 0.039667 -171.5
8.79060000 0.039682 -171.3 0.999184 -81.38 0.999184 -81.38 0.039681 -171.5
8.79061000 0.039695 -171.3 0.999184 -81.38 0.999184 -81.38 0.039694 -171.5
8.79062000 0.039708 -171.3 0.999183 -81.38 0.999183 -81.38 0.039707 -171.5
8.79063000 0.039722 -171.3 0.999183 -81.38 0.999183 -81.38 0.039721 -171.5
8.79064000 0.039735 -171.3 0.999182 -81.38 0.999182 -81.38 0.039734 -171.5
8.79065000 0.039748 -171.3 0.999182 -81.38 0.999182 -81.38 0.039747 -171.5
8.79066000 0.039762 -171.3 0.999181 -81.38 0.999181 -81.38 0.039761 -171.5
8.79067000 0.039775 -171.3 0.999180 -81.38 0.999180 -81.38 0.039774 -171.5
8.79068000 0.039789 -171.3 0.999180 -81.38 0.999180 -81.38 0.039788 -171.5
8.79069000 0.039802 -171.3 0.999179 -81.38 0.999179 -81.38 0.039801 -171.5
8.79070000 0.039816 -171.3 0.999179 -81.38 0.999179 -81.38 0.039815 -171.5
8.79071000 0.039829 -171.3 0.999178 -81.38 0.999178 -81.38 0.039828 -171.5
8.79072000 0.039843 -171.3 0.999177 -81.39 0.999177 -81.39 0.039842 -171.5
8.79073000 0.039856 -171.3 0.999177 -81.39 0.999177 -81.39 0.039855 -171.5
8.79074000 0.039870 -171.3 0.999176 -81.39 0.999176 -81.39 0.039869 -171.5
8.79075000 0.039884 -171.3 0.999176 -81.39 0.999176 -81.39 0.039882 -171.5
8.79076000 0.039897 -171.3 0.999175 -81.39 0.999175 -81.39 0.039896 -171.5
8.79077000 0.039911 -171.3 0.999175 -81.39 0.999175 -81.39 0.039910 -171.5
8.79078000 0.039924 -171.3 0.999174 -81.39 0.999174 -81.39 0.039923 -171.5
8.79079000 0.039938 -171.3 0.999173 -81.39 0.999173 -81.39 0.039937 -171.5
8.79080000 0.039952 -171.3 0.999173 -81.39 0.999173 -81.39 0.039951 -171.5
8.79081000 0.039966 -171.3 0.999172 -81.39 0.999172 -81.39 0.039965 -171.5
8.79082000 0.039979 -171.3 0.999172 -81.39 0.999172 -81.39 0.039978 -171.5
8.79083000 0.039993 -171.3 0.999171 -81.40 0.999171 -81.40 0.039992 -171.5
8.79084000 0.040007 -171.3 0.999170 -81.40 0.999170 -81.40 0.040006 -171.5
8.79085000 0.040021 -171.3 0.999170 -81.40 0.999170 -81.40 0.040020 -171.5
8.79086000 0.040035 -171.3 0.999169 -81.40 0.999169 -81.40 0.040034 -171.5
8.79087000 0.040049 -171.3 0.999169 -81.40 0.999169 -81.40 0.040047 -171.5
8.79088000 0.040062 -171.3 0.999168 -81.40 0.999168 -81.40 0.040061 -171.5
8.79089000 0.040076 -171.3 0.999167 -81.40 0.999167 -81.40 0.040075 -171.5
8.79090000 0.040090 -171.3 0.999167 -81.40 0.999167 -81.40 0.040089 -171.5
8.79091000 0.040104 -171.3 0.999166 -81.40 0.999166 -81.40 0.040103 -171.5
8.79092000 0.040118 -171.3 0.999166 -81.40 0.999166 -81.40 0.040117 -171.5
8.79093000 0.040132 -171.3 0.999165 -81.40 0.999165 -81.40 0.040131 -171.5
8.79094000 0.040146 -171.3 0.999164 -81.41 0.999164 -81.41 0.040145 -171.5
8.79095000 0.040160 -171.3 0.999164 -81.41 0.999164 -81.41 0.040159 -171.6
8.79096000 0.040175 -171.3 0.999163 -81.41 0.999163 -81.41 0.040173 -171.6
8.79097000 0.040189 -171.3 0.999163 -81.41 0.999163 -81.41 0.040188 -171.6
8.79098000 0.040203 -171.3 0.999162 -81.41 0.999162 -81.41 0.040202 -171.6
8.79099000 0.040217 -171.3 0.999161 -81.41 0.999161 -81.41 0.040216 -171.6
8.79100000 0.040231 -171.3 0.999161 -81.41 0.999161 -81.41 0.040230 -171.6
8.79101000 0.040245 -171.3 0.999160 -81.41 0.999160 -81.41 0.040244 -171.6
8.79102000 0.040260 -171.3 0.999159 -81.41 0.999159 -81.41 0.040259 -171.6
8.79103000 0.040274 -171.3 0.999159 -81.41 0.999159 -81.41 0.040273 -171.6
8.79104000 0.040288 -171.3 0.999158 -81.41 0.999158 -81.41 0.040287 -171.6
8.79105000 0.040302 -171.3 0.999158 -81.42 0.999158 -81.42 0.040301 -171.6
8.79106000 0.040317 -171.3 0.999157 -81.42 0.999157 -81.42 0.040316 -171.6
8.79107000 0.040331 -171.3 0.999156 -81.42 0.999156 -81.42 0.040330 -171.6
8.79108000 0.040346 -171.3 0.999156 -81.42 0.999156 -81.42 0.040344 -171.6
8.79109000 0.040360 -171.3 0.999155 -81.42 0.999155 -81.42 0.040359 -171.6
8.79110000 0.040374 -171.3 0.999154 -81.42 0.999154 -81.42 0.040373 -171.6
8.79111000 0.040389 -171.3 0.999154 -81.42 0.999154 -81.42 0.040388 -171.6
8.79112000 0.040403 -171.4 0.999153 -81.42 0.999153 -81.42 0.040402 -171.6
8.79113000 0.040418 -171.4 0.999153 -81.42 0.999153 -81.42 0.040417 -171.6
8.79114000 0.040432 -171.4 0.999152 -81.42 0.999152 -81.42 0.040431 -171.6
8.79115000 0.040447 -171.4 0.999151 -81.42 0.999151 -81.42 0.040446 -171.6
8.79116000 0.040462 -171.4 0.999151 -81.43 0.999151 -81.43 0.040460 -171.6
8.79117000 0.040476 -171.4 0.999150 -81.43 0.999150 -81.43 0.040475 -171.6
8.79118000 0.040491 -171.4 0.999149 -81.43 0.999149 -81.43 0.040490 -171.6
8.79119000 0.040505 -171.4 0.999149 -81.43 0.999149 -81.43 0.040504 -171.6
8.79120000 0.040520 -171.4 0.999148 -81.43 0.999148 -81.43 0.040519 -171.6
8.79121000 0.040535 -171.4 0.999147 -81.43 0.999147 -81.43 0.040534 -171.6
8.79122000 0.040550 -171.4 0.999147 -81.43 0.999147 -81.43 0.040549 -171.6
8.79123000 0.040564 -171.4 0.999146 -81.43 0.999146 -81.43 0.040563 -171.6
8.79124000 0.040579 -171.4 0.999146 -81.43 0.999146 -81.43 0.040578 -171.6
8.79125000 0.040594 -171.4 0.999145 -81.43 0.999145 -81.43 0.040593 -171.6
8.79126000 0.040609 -171.4 0.999144 -81.43 0.999144 -81.43 0.040608 -171.6
8.79127000 0.040624 -171.4 0.999144 -81.44 0.999144 -81.44 0.040623 -171.6
8.79128000 0.040639 -171.4 0.999143 -81.44 0.999143 -81.44 0.040637 -171.6
8.79129000 0.040654 -171.4 0.999142 -81.44 0.999142 -81.44 0.040652 -171.6
8.79130000 0.040668 -171.4 0.999142 -81.44 0.999142 -81.44 0.040667 -171.6
8.79131000 0.040683 -171.4 0.999141 -81.44 0.999141 -81.44 0.040682 -171.6
8.79132000 0.040698 -171.4 0.999140 -81.44 0.999140 -81.44 0.040697 -171.6
8.79133000 0.040713 -171.4 0.999140 -81.44 0.999140 -81.44 0.040712 -171.6
8.79134000 0.040728 -171.4 0.999139 -81.44 0.999139 -81.44 0.040727 -171.6
8.79135000 0.040744 -171.4 0.999138 -81.44 0.999138 -81.44 0.040742 -171.6
8.79136000 0.040759 -171.4 0.999138 -81.44 0.999138 -81.44 0.040758 -171.6
8.79137000 0.040774 -171.4 0.999137 -81.45 0.999137 -81.45 0.040773 -171.6
8.79138000 0.040789 -171.4 0.999136 -81.45 0.999136 -81.45 0.040788 -171.6
8.79139000 0.040804 -171.4 0.999136 -81.45 0.999136 -81.45 0.040803 -171.6
8.79140000 0.040819 -171.4 0.999135 -81.45 0.999135 -81.45 0.040818 -171.6
8.79141000 0.040835 -171.4 0.999134 -81.45 0.999134 -81.45 0.040833 -171.6
8.79142000 0.040850 -171.4 0.999134 -81.45 0.999134 -81.45 0.040849 -171.6
8.79143000 0.040865 -171.4 0.999133 -81.45 0.999133 -81.45 0.040864 -171.6
8.79144000 0.040880 -171.4 0.999132 -81.45 0.999132 -81.45 0.040879 -171.6
8.79145000 0.040896 -171.4 0.999132 -81.45 0.999132 -81.45 0.040895 -171.6
8.79146000 0.040911 -171.4 0.999131 -81.45 0.999131 -81.45 0.040910 -171.6
8.79147000 0.040927 -171.4 0.999130 -81.45 0.999130 -81.45 0.040925 -171.6
8.79148000 0.040942 -171.4 0.999130 -81.46 0.999130 -81.46 0.040941 -171.6
8.79149000 0.040957 -171.4 0.999129 -81.46 0.999129 -81.46 0.040956 -171.6
8.79150000 0.040973 -171.4 0.999128 -81.46 0.999128 -81.46 0.040972 -171.6
8.79151000 0.040988 -171.4 0.999127 -81.46 0.999127 -81.46 0.040987 -171.6
8.79152000 0.041004 -171.4 0.999127 -81.46 0.999127 -81.46 0.041003 -171.6
8.79153000 0.041020 -171.4 0.999126 -81.46 0.999126 -81.46 0.041018 -171.6
8.79154000 0.041035 -171.4 0.999125 -81.46 0.999125 -81.46 0.041034 -171.6
8.79155000 0.041051 -171.4 0.999125 -81.46 0.999125 -81.46 0.041050 -171.6
8.79156000 0.041066 -171.4 0.999124 -81.46 0.999124 -81.46 0.041065 -171.6
8.79157000 0.041082 -171.4 0.999123 -81.46 0.999123 -81.46 0.041081 -171.6
8.79158000 0.041098 -171.4 0.999123 -81.47 0.999123 -81.47 0.041097 -171.6
8.79159000 0.041114 -171.4 0.999122 -81.47 0.999122 -81.47 0.041112 -171.6
8.79160000 0.041129 -171.4 0.999121 -81.47 0.999121 -81.47 0.041128 -171.6
8.79161000 0.041145 -171.4 0.999121 -81.47 0.999121 -81.47 0.041144 -171.6
8.79162000 0.041161 -171.4 0.999120 -81.47 0.999120 -81.47 0.041160 -171.6
8.79163000 0.041177 -171.4 0.999119 -81.47 0.999119 -81.47 0.041176 -171.6
8.79164000 0.041193 -171.4 0.999118 -81.47 0.999118 -81.47 0.041191 -171.7
8.79165000 0.041208 -171.4 0.999118 -81.47 0.999118 -81.47 0.041207 -171.7
8.79166000 0.041224 -171.4 0.999117 -81.47 0.999117 -81.47 0.041223 -171.7
8.79167000 0.041240 -171.4 0.999116 -81.47 0.999116 -81.47 0.041239 -171.7
8.79168000 0.041256 -171.4 0.999116 -81.48 0.999116 -81.48 0.041255 -171.7
8.79169000 0.041272 -171.4 0.999115 -81.48 0.999115 -81.48 0.041271 -171.7
8.79170000 0.041288 -171.4 0.999114 -81.48 0.999114 -81.48 0.041287 -171.7
8.79171000 0.041305 -171.4 0.999113 -81.48 0.999113 -81.48 0.041303 -171.7
8.79172000 0.041321 -171.4 0.999113 -81.48 0.999113 -81.48 0.041319 -171.7
8.79173000 0.041337 -171.4 0.999112 -81.48 0.999112 -81.48 0.041336 -171.7
8.79174000 0.041353 -171.4 0.999111 -81.48 0.999111 -81.48 0.041352 -171.7
8.79175000 0.041369 -171.4 0.999111 -81.48 0.999111 -81.48 0.041368 -171.7
8.79176000 0.041385 -171.4 0.999110 -81.48 0.999110 -81.48 0.041384 -171.7
8.79177000 0.041402 -171.4 0.999109 -81.48 0.999109 -81.48 0.041400 -171.7
8.79178000 0.041418 -171.4 0.999108 -81.49 0.999108 -81.49 0.041417 -171.7
8.79179000 0.041434 -171.4 0.999108 -81.49 0.999108 -81.49 0.041433 -171.7
8.79180000 0.041451 -171.4 0.999107 -81.49 0.999107 -81.49 0.041449 -171.7
8.79181000 0.041467 -171.4 0.999106 -81.49 0.999106 -81.49 0.041466 -171.7
8.79182000 0.041483 -171.4 0.999105 -81.49 0.999105 -81.49 0.041482 -171.7
8.79183000 0.041500 -171.4 0.999105 -81.49 0.999105 -81.49 0.041499 -171.7
8.79184000 0.041516 -171.4 0.999104 -81.49 0.999104 -81.49 0.041515 -171.7
8.79185000 0.041533 -171.4 0.999103 -81.49 0.999103 -81.49 0.041531 -171.7
8.79186000 0.041549 -171.4 0.999102 -81.49 0.999102 -81.49 0.041548 -171.7
8.79187000 0.041566 -171.4 0.999102 -81.50 0.999102 -81.50 0.041565 -171.7
8.79188000 0.041582 -171.4 0.999101 -81.50 0.999101 -81.50 0.041581 -171.7
8.79189000 0.041599 -171.4 0.999100 -81.50 0.999100 -81.50 0.041598 -171.7
8.79190000 0.041616 -171.4 0.999099 -81.50 0.999099 -81.50 0.041614 -171.7
8.79191000 0.041632 -171.4 0.999099 -81.50 0.999099 -81.50 0.041631 -171.7
8.79192000 0.041649 -171.4 0.999098 -81.50 0.999098 -81.50 0.041648 -171.7
8.79193000 0.041666 -171.4 0.999097 -81.50 0.999097 -81.50 0.041664 -171.7
8.79194000 0.041682 -171.4 0.999096 -81.50 0.999096 -81.50 0.041681 -171.7
8.79195000 0.041699 -171.4 0.999096 -81.50 0.999096 -81.50 0.041698 -171.7
8.79196000 0.041716 -171.4 0.999095 -81.50 0.999095 -81.50 0.041715 -171.7
8.79197000 0.041733 -171.4 0.999094 -81.51 0.999094 -81.51 0.041732 -171.7
8.79198000 0.041750 -171.4 0.999093 -81.51 0.999093 -81.51 0.041749 -171.7
8.79199000 0.041767 -171.4 0.999093 -81.51 0.999093 -81.51 0.041766 -171.7
8.79200000 0.041784 -171.4 0.999092 -81.51 0.999092 -81.51 0.041783 -171.7
8.79201000 0.041801 -171.4 0.999091 -81.51 0.999091 -81.51 0.041799 -171.7
8.79202000 0.041818 -171.4 0.999090 -81.51 0.999090 -81.51 0.041817 -171.7
8.79203000 0.041835 -171.4 0.999090 -81.51 0.999090 -81.51 0.041834 -171.7
8.79204000 0.041852 -171.4 0.999089 -81.51 0.999089 -81.51 0.041851 -171.7
8.79205000 0.041869 -171.4 0.999088 -81.51 0.999088 -81.51 0.041868 -171.7
8.79206000 0.041886 -171.4 0.999087 -81.52 0.999087 -81.52 0.041885 -171.7
8.79207000 0.041903 -171.4 0.999086 -81.52 0.999086 -81.52 0.041902 -171.7
8.79208000 0.041921 -171.4 0.999086 -81.52 0.999086 -81.52 0.041919 -171.7
8.79209000 0.041938 -171.4 0.999085 -81.52 0.999085 -81.52 0.041937 -171.7
8.79210000 0.041955 -171.4 0.999084 -81.52 0.999084 -81.52 0.041954 -171.7
8.79211000 0.041972 -171.4 0.999083 -81.52 0.999083 -81.52 0.041971 -171.7
8.79212000 0.041990 -171.4 0.999083 -81.52 0.999083 -81.52 0.041988 -171.7
8.79213000 0.042007 -171.4 0.999082 -81.52 0.999082 -81.52 0.042006 -171.7
8.79214000 0.042024 -171.4 0.999081 -81.52 0.999081 -81.52 0.042023 -171.7
8.79215000 0.042042 -171.4 0.999080 -81.52 0.999080 -81.52 0.042041 -171.7
8.79216000 0.042059 -171.4 0.999079 -81.53 0.999079 -81.53 0.042058 -171.7
8.79217000 0.042077 -171.4 0.999079 -81.53 0.999079 -81.53 0.042076 -171.7
8.79218000 0.042094 -171.4 0.999078 -81.53 0.999078 -81.53 0.042093 -171.7
8.79219000 0.042112 -171.4 0.999077 -81.53 0.999077 -81.53 0.042111 -171.7
8.79220000 0.042130 -171.4 0.999076 -81.53 0.999076 -81.53 0.042128 -171.7
8.79221000 0.042147 -171.4 0.999075 -81.53 0.999075 -81.53 0.042146 -171.7
8.79222000 0.042165 -171.4 0.999075 -81.53 0.999075 -81.53 0.042164 -171.7
8.79223000 0.042183 -171.4 0.999074 -81.53 0.999074 -81.53 0.042181 -171.7
8.79224000 0.042200 -171.4 0.999073 -81.53 0.999073 -81.53 0.042199 -171.7
8.79225000 0.042218 -171.4 0.999072 -81.54 0.999072 -81.54 0.042217 -171.7
8.79226000 0.042236 -171.4 0.999071 -81.54 0.999071 -81.54 0.042235 -171.7
8.79227000 0.042254 -171.4 0.999070 -81.54 0.999070 -81.54 0.042252 -171.7
8.79228000 0.042272 -171.4 0.999070 -81.54 0.999070 -81.54 0.042270 -171.8
8.79229000 0.042290 -171.4 0.999069 -81.54 0.999069 -81.54 0.042288 -171.8
8.79230000 0.042308 -171.4 0.999068 -81.54 0.999068 -81.54 0.042306 -171.8
8.79231000 0.042325 -171.4 0.999067 -81.54 0.999067 -81.54 0.042324 -171.8
8.79232000 0.042344 -171.4 0.999066 -81.54 0.999066 -81.54 0.042342 -171.8
8.79233000 0.042362 -171.4 0.999066 -81.54 0.999066 -81.54 0.042360 -171.8
8.79234000 0.042380 -171.4 0.999065 -81.55 0.999065 -81.55 0.042378 -171.8
8.79235000 0.042398 -171.4 0.999064 -81.55 0.999064 -81.55 0.042396 -171.8
8.79236000 0.042416 -171.4 0.999063 -81.55 0.999063 -81.55 0.042415 -171.8
8.79237000 0.042434 -171.4 0.999062 -81.55 0.999062 -81.55 0.042433 -171.8
8.79238000 0.042452 -171.4 0.999061 -81.55 0.999061 -81.55 0.042451 -171.8
8.79239000 0.042471 -171.4 0.999060 -81.55 0.999060 -81.55 0.042469 -171.8
8.79240000 0.042489 -171.4 0.999060 -81.55 0.999060 -81.55 0.042488 -171.8
8.79241000 0.042507 -171.4 0.999059 -81.55 0.999059 -81.55 0.042506 -171.8
8.79242000 0.042526 -171.4 0.999058 -81.56 0.999058 -81.56 0.042524 -171.8
8.79243000 0.042544 -171.4 0.999057 -81.56 0.999057 -81.56 0.042543 -171.8
8.79244000 0.042562 -171.4 0.999056 -81.56 0.999056 -81.56 0.042561 -171.8
8.79245000 0.042581 -171.4 0.999055 -81.56 0.999055 -81.56 0.042580 -171.8
8.79246000 0.042599 -171.4 0.999055 -81.56 0.999055 -81.56 0.042598 -171.8
8.79247000 0.042618 -171.4 0.999054 -81.56 0.999054 -81.56 0.042617 -171.8
8.79248000 0.042636 -171.4 0.999053 -81.56 0.999053 -81.56 0.042635 -171.8
8.79249000 0.042655 -171.4 0.999052 -81.56 0.999052 -81.56 0.042654 -171.8
8.79250000 0.042674 -171.4 0.999051 -81.56 0.999051 -81.56 0.042672 -171.8
8.79251000 0.042692 -171.4 0.999050 -81.57 0.999050 -81.57 0.042691 -171.8
8.79252000 0.042711 -171.4 0.999049 -81.57 0.999049 -81.57 0.042710 -171.8
8.79253000 0.042730 -171.4 0.999048 -81.57 0.999048 -81.57 0.042729 -171.8
8.79254000 0.042749 -171.4 0.999048 -81.57 0.999048 -81.57 0.042747 -171.8
8.79255000 0.042768 -171.4 0.999047 -81.57 0.999047 -81.57 0.042766 -171.8
8.79256000 0.042786 -171.4 0.999046 -81.57 0.999046 -81.57 0.042785 -171.8
8.79257000 0.042805 -171.4 0.999045 -81.57 0.999045 -81.57 0.042804 -171.8
8.79258000 0.042824 -171.4 0.999044 -81.57 0.999044 -81.57 0.042823 -171.8
8.79259000 0.042843 -171.4 0.999043 -81.57 0.999043 -81.57 0.042842 -171.8
8.79260000 0.042862 -171.4 0.999042 -81.58 0.999042 -81.58 0.042861 -171.8
8.79261000 0.042881 -171.4 0.999041 -81.58 0.999041 -81.58 0.042880 -171.8
8.79262000 0.042900 -171.4 0.999041 -81.58 0.999041 -81.58 0.042899 -171.8
8.79263000 0.042920 -171.4 0.999040 -81.58 0.999040 -81.58 0.042918 -171.8
8.79264000 0.042939 -171.4 0.999039 -81.58 0.999039 -81.58 0.042937 -171.8
8.79265000 0.042958 -171.4 0.999038 -81.58 0.999038 -81.58 0.042957 -171.8
8.79266000 0.042977 -171.5 0.999037 -81.58 0.999037 -81.58 0.042976 -171.8
8.79267000 0.042996 -171.5 0.999036 -81.58 0.999036 -81.58 0.042995 -171.8
8.79268000 0.043016 -171.5 0.999035 -81.59 0.999035 -81.59 0.043014 -171.8
8.79269000 0.043035 -171.5 0.999034 -81.59 0.999034 -81.59 0.043034 -171.8
8.79270000 0.043055 -171.5 0.999033 -81.59 0.999033 -81.59 0.043053 -171.8
8.79271000 0.043074 -171.5 0.999032 -81.59 0.999032 -81.59 0.043073 -171.8
8.79272000 0.043093 -171.5 0.999032 -81.59 0.999032 -81.59 0.043092 -171.8
8.79273000 0.043113 -171.5 0.999031 -81.59 0.999031 -81.59 0.043112 -171.8
8.79274000 0.043133 -171.5 0.999030 -81.59 0.999030 -81.59 0.043131 -171.8
8.79275000 0.043152 -171.5 0.999029 -81.59 0.999029 -81.59 0.043151 -171.8
8.79276000 0.043172 -171.5 0.999028 -81.60 0.999028 -81.60 0.043170 -171.8
8.79277000 0.043191 -171.5 0.999027 -81.60 0.999027 -81.60 0.043190 -171.8
8.79278000 0.043211 -171.5 0.999026 -81.60 0.999026 -81.60 0.043210 -171.8
8.79279000 0.043231 -171.5 0.999025 -81.60 0.999025 -81.60 0.043230 -171.8
8.79280000 0.043251 -171.5 0.999024 -81.60 0.999024 -81.60 0.043249 -171.8
8.79281000 0.043271 -171.5 0.999023 -81.60 0.999023 -81.60 0.043269 -171.8
8.79282000 0.043290 -171.5 0.999022 -81.60 0.999022 -81.60 0.043289 -171.8
8.79283000 0.043310 -171.5 0.999021 -81.60 0.999021 -81.60 0.043309 -171.8
8.79284000 0.043330 -171.5 0.999020 -81.61 0.999020 -81.61 0.043329 -171.8
8.79285000 0.043350 -171.5 0.999019 -81.61 0.999019 -81.61 0.043349 -171.9
8.79286000 0.043370 -171.5 0.999019 -81.61 0.999019 -81.61 0.043369 -171.9
8.79287000 0.043390 -171.5 0.999018 -81.61 0.999018 -81.61 0.043389 -171.9
8.79288000 0.043411 -171.5 0.999017 -81.61 0.999017 -81.61 0.043409 -171.9
8.79289000 0.043431 -171.5 0.999016 -81.61 0.999016 -81.61 0.043429 -171.9
8.79290000 0.043451 -171.5 0.999015 -81.61 0.999015 -81.61 0.043449 -171.9
8.79291000 0.043471 -171.5 0.999014 -81.61 0.999014 -81.61 0.043470 -171.9
8.79292000 0.043491 -171.5 0.999013 -81.62 0.999013 -81.62 0.043490 -171.9
8.79293000 0.043512 -171.5 0.999012 -81.62 0.999012 -81.62 0.043510 -171.9
8.79294000 0.043532 -171.5 0.999011 -81.62 0.999011 -81.62 0.043531 -171.9
8.79295000 0.043552 -171.5 0.999010 -81.62 0.999010 -81.62 0.043551 -171.9
8.79296000 0.043573 -171.5 0.999009 -81.62 0.999009 -81.62 0.043571 -171.9
8.79297000 0.043593 -171.5 0.999008 -81.62 0.999008 -81.62 0.043592 -171.9
8.79298000 0.043614 -171.5 0.999007 -81.62 0.999007 -81.62 0.043613 -171.9
8.79299000 0.043635 -171.5 0.999006 -81.62 0.999006 -81.62 0.043633 -171.9
8.79300000 0.043655 -171.5 0.999005 -81.63 0.999005 -81.63 0.043654 -171.9
8.79301000 0.043676 -171.5 0.999004 -81.63 0.999004 -81.63 0.043674 -171.9
8.79302000 0.043696 -171.5 0.999003 -81.63 0.999003 -81.63 0.043695 -171.9
8.79303000 0.043717 -171.5 0.999002 -81.63 0.999002 -81.63 0.043716 -171.9
8.79304000 0.043738 -171.5 0.999001 -81.63 0.999001 -81.63 0.043737 -171.9
8.79305000 0.043759 -171.5 0.999000 -81.63 0.999000 -81.63 0.043757 -171.9
8.79306000 0.043780 -171.5 0.998999 -81.63 0.998999 -81.63 0.043778 -171.9
8.79307000 0.043801 -171.5 0.998998 -81.63 0.998998 -81.63 0.043799 -171.9
8.79308000 0.043822 -171.5 0.998997 -81.64 0.998997 -81.64 0.043820 -171.9
8.79309000 0.043843 -171.5 0.998996 -81.64 0.998996 -81.64 0.043841 -171.9
8.79310000 0.043864 -171.5 0.998995 -81.64 0.998995 -81.64 0.043862 -171.9
8.79311000 0.043885 -171.5 0.998994 -81.64 0.998994 -81.64 0.043883 -171.9
8.79312000 0.043906 -171.5 0.998993 -81.64 0.998993 -81.64 0.043904 -171.9
8.79313000 0.043927 -171.5 0.998992 -81.64 0.998992 -81.64 0.043926 -171.9
8.79314000 0.043948 -171.5 0.998991 -81.64 0.998991 -81.64 0.043947 -171.9
8.79315000 0.043970 -171.5 0.998990 -81.64 0.998990 -81.64 0.043968 -171.9
8.79316000 0.043991 -171.5 0.998989 -81.65 0.998989 -81.65 0.043989 -171.9
8.79317000 0.044012 -171.5 0.998988 -81.65 0.998988 -81.65 0.044011 -171.9
8.79318000 0.044034 -171.5 0.998987 -81.65 0.998987 -81.65 0.044032 -171.9
8.79319000 0.044055 -171.5 0.998986 -81.65 0.998986 -81.65 0.044054 -171.9
8.79320000 0.044076 -171.5 0.998985 -81.65 0.998985 -81.65 0.044075 -171.9
8.79321000 0.044098 -171.5 0.998984 -81.65 0.998984 -81.65 0.044097 -171.9
8.79322000 0.044120 -171.5 0.998983 -81.65 0.998983 -81.65 0.044118 -171.9
8.79323000 0.044141 -171.5 0.998982 -81.66 0.998982 -81.66 0.044140 -171.9
8.79324000 0.044163 -171.5 0.998981 -81.66 0.998981 -81.66 0.044161 -171.9
8.79325000 0.044185 -171.5 0.998980 -81.66 0.998980 -81.66 0.044183 -171.9
8.79326000 0.044206 -171.5 0.998979 -81.66 0.998979 -81.66 0.044205 -171.9
8.79327000 0.044228 -171.5 0.998978 -81.66 0.998978 -81.66 0.044227 -171.9
8.79328000 0.044250 -171.5 0.998977 -81.66 0.998977 -81.66 0.044249 -171.9
8.79329000 0.044272 -171.5 0.998976 -81.66 0.998976 -81.66 0.044270 -171.9
8.79330000 0.044294 -171.5 0.998974 -81.66 0.998974 -81.66 0.044292 -171.9
8.79331000 0.044316 -171.5 0.998973 -81.67 0.998973 -81.67 0.044314 -171.9
8.79332000 0.044338 -171.5 0.998972 -81.67 0.998972 -81.67 0.044336 -171.9
8.79333000 0.044360 -171.5 0.998971 -81.67 0.998971 -81.67 0.044358 -171.9
8.79334000 0.044382 -171.5 0.998970 -81.67 0.998970 -81.67 0.044381 -171.9
8.79335000 0.044404 -171.5 0.998969 -81.67 0.998969 -81.67 0.044403 -171.9
8.79336000 0.044427 -171.5 0.998968 -81.67 0.998968 -81.67 0.044425 -171.9
8.79337000 0.044449 -171.5 0.998967 -81.67 0.998967 -81.67 0.044447 -171.9
8.79338000 0.044471 -171.5 0.998966 -81.68 0.998966 -81.68 0.044470 -172.0
8.79339000 0.044493 -171.5 0.998965 -81.68 0.998965 -81.68 0.044492 -172.0
8.79340000 0.044516 -171.5 0.998964 -81.68 0.998964 -81.68 0.044514 -172.0
8.79341000 0.044538 -171.5 0.998963 -81.68 0.998963 -81.68 0.044537 -172.0
8.79342000 0.044561 -171.5 0.998962 -81.68 0.998962 -81.68 0.044559 -172.0
8.79343000 0.044583 -171.5 0.998960 -81.68 0.998960 -81.68 0.044582 -172.0
8.79344000 0.044606 -171.5 0.998959 -81.68 0.998959 -81.68 0.044604 -172.0
8.79345000 0.044629 -171.5 0.998958 -81.69 0.998958 -81.69 0.044627 -172.0
8.79346000 0.044651 -171.5 0.998957 -81.69 0.998957 -81.69 0.044650 -172.0
8.79347000 0.044674 -171.5 0.998956 -81.69 0.998956 -81.69 0.044673 -172.0
8.79348000 0.044697 -171.5 0.998955 -81.69 0.998955 -81.69 0.044695 -172.0
8.79349000 0.044720 -171.5 0.998954 -81.69 0.998954 -81.69 0.044718 -172.0
8.79350000 0.044743 -171.5 0.998953 -81.69 0.998953 -81.69 0.044741 -172.0
8.79351000 0.044766 -171.5 0.998952 -81.69 0.998952 -81.69 0.044764 -172.0
8.79352000 0.044789 -171.5 0.998950 -81.69 0.998950 -81.69 0.044787 -172.0
8.79353000 0.044812 -171.5 0.998949 -81.70 0.998949 -81.70 0.044810 -172.0
8.79354000 0.044835 -171.5 0.998948 -81.70 0.998948 -81.70 0.044833 -172.0
8.79355000 0.044858 -171.5 0.998947 -81.70 0.998947 -81.70 0.044856 -172.0
8.79356000 0.044881 -171.5 0.998946 -81.70 0.998946 -81.70 0.044880 -172.0
8.79357000 0.044904 -171.5 0.998945 -81.70 0.998945 -81.70 0.044903 -172.0
8.79358000 0.044928 -171.5 0.998944 -81.70 0.998944 -81.70 0.044926 -172.0
8.79359000 0.044951 -171.5 0.998942 -81.70 0.998942 -81.70 0.044950 -172.0
8.79360000 0.044975 -171.5 0.998941 -81.71 0.998941 -81.71 0.044973 -172.0
8.79361000 0.044998 -171.5 0.998940 -81.71 0.998940 -81.71 0.044996 -172.0
8.79362000 0.045022 -171.5 0.998939 -81.71 0.998939 -81.71 0.045020 -172.0
8.79363000 0.045045 -171.5 0.998938 -81.71 0.998938 -81.71 0.045043 -172.0
8.79364000 0.045069 -171.5 0.998937 -81.71 0.998937 -81.71 0.045067 -172.0
8.79365000 0.045092 -171.5 0.998936 -81.71 0.998936 -81.71 0.045091 -172.0
8.79366000 0.045116 -171.5 0.998934 -81.72 0.998934 -81.72 0.045114 -172.0
8.79367000 0.045140 -171.5 0.998933 -81.72 0.998933 -81.72 0.045138 -172.0
8.79368000 0.045164 -171.5 0.998932 -81.72 0.998932 -81.72 0.045162 -172.0
8.79369000 0.045188 -171.5 0.998931 -81.72 0.998931 -81.72 0.045186 -172.0
8.79370000 0.045211 -171.5 0.998930 -81.72 0.998930 -81.72 0.045210 -172.0
8.79371000 0.045235 -171.5 0.998928 -81.72 0.998928 -81.72 0.045234 -172.0
8.79372000 0.045259 -171.5 0.998927 -81.72 0.998927 -81.72 0.045258 -172.0
8.79373000 0.045284 -171.5 0.998926 -81.73 0.998926 -81.73 0.045282 -172.0
8.79374000 0.045308 -171.5 0.998925 -81.73 0.998925 -81.73 0.045306 -172.0
8.79375000 0.045332 -171.5 0.998924 -81.73 0.998924 -81.73 0.045330 -172.0
8.79376000 0.045356 -171.5 0.998923 -81.73 0.998923 -81.73 0.045355 -172.0
8.79377000 0.045380 -171.5 0.998921 -81.73 0.998921 -81.73 0.045379 -172.0
8.79378000 0.045405 -171.5 0.998920 -81.73 0.998920 -81.73 0.045403 -172.0
8.79379000 0.045429 -171.6 0.998919 -81.73 0.998919 -81.73 0.045428 -172.0
8.79380000 0.045454 -171.6 0.998918 -81.74 0.998918 -81.74 0.045452 -172.0
8.79381000 0.045478 -171.6 0.998916 -81.74 0.998916 -81.74 0.045477 -172.0
8.79382000 0.045503 -171.6 0.998915 -81.74 0.998915 -81.74 0.045501 -172.0
8.79383000 0.045527 -171.6 0.998914 -81.74 0.998914 -81.74 0.045526 -172.0
8.79384000 0.045552 -171.6 0.998913 -81.74 0.998913 -81.74 0.045550 -172.0
8.79385000 0.045577 -171.6 0.998912 -81.74 0.998912 -81.74 0.045575 -172.1
8.79386000 0.045602 -171.6 0.998910 -81.74 0.998910 -81.74 0.045600 -172.1
8.79387000 0.045627 -171.6 0.998909 -81.75 0.998909 -81.75 0.045625 -172.1
8.79388000 0.045651 -171.6 0.998908 -81.75 0.998908 -81.75 0.045650 -172.1
8.79389000 0.045676 -171.6 0.998907 -81.75 0.998907 -81.75 0.045675 -172.1
8.79390000 0.045701 -171.6 0.998905 -81.75 0.998905 -81.75 0.045700 -172.1
8.79391000 0.045726 -171.6 0.998904 -81.75 0.998904 -81.75 0.045725 -172.1
8.79392000 0.045752 -171.6 0.998903 -81.75 0.998903 -81.75 0.045750 -172.1