! Sonnet Data File
! From: emgraph Version : 16.52
! From Project: Qubit_Test_beforeopt
! Data is De-embedded 
! Data File Written: 10/18/2017 16:57:22
!< HDATE 10/18/2017 09:03:38
!< MDATE 10/18/2017 09:03:38
!< PARAMS
!< Lj = 11.0
!< Gap = 6.0
!< Pwid = 2000.0
!< Airgap = 30.0
!< Width = 50.0
!< END PARAMS
# GHZ S MA R 51.80000
8.79000000 0.045304 -172.8 0.998941 -81.81 0.998941 -81.81 0.045302 -170.9
!< P1 F=8.79 Eeff=(6.43963342 -3.1364e-5) Z0=(50.401348 1.04894e-4) R=0.0 C=0.0 
!< P2 F=8.79 Eeff=(6.43963342 -3.1364e-5) Z0=(50.401348 1.04894e-4) R=0.0 C=0.0 
8.79001000 0.045319 -172.8 0.998941 -81.81 0.998941 -81.81 0.045317 -170.9
8.79002000 0.045335 -172.8 0.998940 -81.81 0.998940 -81.81 0.045333 -170.9
8.79003000 0.045350 -172.8 0.998939 -81.81 0.998939 -81.81 0.045348 -170.9
8.79004000 0.045365 -172.8 0.998938 -81.81 0.998938 -81.81 0.045364 -170.9
8.79005000 0.045381 -172.8 0.998938 -81.82 0.998938 -81.82 0.045379 -170.9
8.79006000 0.045396 -172.8 0.998937 -81.82 0.998937 -81.82 0.045394 -170.9
8.79007000 0.045412 -172.8 0.998936 -81.82 0.998936 -81.82 0.045410 -170.9
8.79008000 0.045427 -172.8 0.998936 -81.82 0.998936 -81.82 0.045425 -170.9
8.79009000 0.045443 -172.8 0.998935 -81.82 0.998935 -81.82 0.045441 -170.9
8.79010000 0.045458 -172.8 0.998934 -81.82 0.998934 -81.82 0.045456 -170.9
8.79011000 0.045474 -172.8 0.998933 -81.82 0.998933 -81.82 0.045472 -170.9
8.79012000 0.045489 -172.8 0.998933 -81.82 0.998933 -81.82 0.045488 -170.9
8.79013000 0.045505 -172.8 0.998932 -81.82 0.998932 -81.82 0.045503 -170.9
8.79014000 0.045521 -172.8 0.998931 -81.82 0.998931 -81.82 0.045519 -170.9
8.79015000 0.045536 -172.8 0.998930 -81.83 0.998930 -81.83 0.045534 -170.9
8.79016000 0.045552 -172.8 0.998930 -81.83 0.998930 -81.83 0.045550 -170.9
8.79017000 0.045568 -172.8 0.998929 -81.83 0.998929 -81.83 0.045566 -170.9
8.79018000 0.045583 -172.8 0.998928 -81.83 0.998928 -81.83 0.045581 -170.9
8.79019000 0.045599 -172.8 0.998927 -81.83 0.998927 -81.83 0.045597 -170.9
8.79020000 0.045615 -172.8 0.998926 -81.83 0.998926 -81.83 0.045613 -170.9
8.79021000 0.045631 -172.8 0.998926 -81.83 0.998926 -81.83 0.045629 -170.9
8.79022000 0.045646 -172.8 0.998925 -81.83 0.998925 -81.83 0.045644 -170.9
8.79023000 0.045662 -172.8 0.998924 -81.83 0.998924 -81.83 0.045660 -170.9
8.79024000 0.045678 -172.8 0.998923 -81.83 0.998923 -81.83 0.045676 -170.9
8.79025000 0.045694 -172.8 0.998923 -81.84 0.998923 -81.84 0.045692 -170.9
8.79026000 0.045710 -172.8 0.998922 -81.84 0.998922 -81.84 0.045708 -171.0
8.79027000 0.045726 -172.8 0.998921 -81.84 0.998921 -81.84 0.045724 -171.0
8.79028000 0.045741 -172.8 0.998920 -81.84 0.998920 -81.84 0.045740 -171.0
8.79029000 0.045757 -172.8 0.998920 -81.84 0.998920 -81.84 0.045755 -171.0
8.79030000 0.045773 -172.8 0.998919 -81.84 0.998919 -81.84 0.045771 -171.0
8.79031000 0.045789 -172.8 0.998918 -81.84 0.998918 -81.84 0.045787 -171.0
8.79032000 0.045805 -172.8 0.998917 -81.84 0.998917 -81.84 0.045803 -171.0
8.79033000 0.045821 -172.8 0.998917 -81.84 0.998917 -81.84 0.045819 -171.0
8.79034000 0.045837 -172.8 0.998916 -81.84 0.998916 -81.84 0.045835 -171.0
8.79035000 0.045853 -172.8 0.998915 -81.85 0.998915 -81.85 0.045852 -171.0
8.79036000 0.045870 -172.8 0.998914 -81.85 0.998914 -81.85 0.045868 -171.0
8.79037000 0.045886 -172.8 0.998913 -81.85 0.998913 -81.85 0.045884 -171.0
8.79038000 0.045902 -172.8 0.998913 -81.85 0.998913 -81.85 0.045900 -171.0
8.79039000 0.045918 -172.8 0.998912 -81.85 0.998912 -81.85 0.045916 -171.0
8.79040000 0.045934 -172.8 0.998911 -81.85 0.998911 -81.85 0.045932 -171.0
8.79041000 0.045950 -172.8 0.998910 -81.85 0.998910 -81.85 0.045948 -171.0
8.79042000 0.045967 -172.8 0.998909 -81.85 0.998909 -81.85 0.045965 -171.0
8.79043000 0.045983 -172.8 0.998909 -81.85 0.998909 -81.85 0.045981 -171.0
8.79044000 0.045999 -172.8 0.998908 -81.85 0.998908 -81.85 0.045997 -171.0
8.79045000 0.046015 -172.8 0.998907 -81.86 0.998907 -81.86 0.046013 -171.0
8.79046000 0.046032 -172.8 0.998906 -81.86 0.998906 -81.86 0.046030 -171.0
8.79047000 0.046048 -172.8 0.998906 -81.86 0.998906 -81.86 0.046046 -171.0
8.79048000 0.046064 -172.8 0.998905 -81.86 0.998905 -81.86 0.046062 -171.0
8.79049000 0.046081 -172.8 0.998904 -81.86 0.998904 -81.86 0.046079 -171.0
8.79050000 0.046097 -172.8 0.998903 -81.86 0.998903 -81.86 0.046095 -171.0
8.79051000 0.046114 -172.8 0.998902 -81.86 0.998902 -81.86 0.046112 -171.0
8.79052000 0.046130 -172.8 0.998902 -81.86 0.998902 -81.86 0.046128 -171.0
8.79053000 0.046146 -172.8 0.998901 -81.86 0.998901 -81.86 0.046145 -171.0
8.79054000 0.046163 -172.8 0.998900 -81.86 0.998900 -81.86 0.046161 -171.0
8.79055000 0.046179 -172.8 0.998899 -81.87 0.998899 -81.87 0.046178 -171.0
8.79056000 0.046196 -172.8 0.998898 -81.87 0.998898 -81.87 0.046194 -171.0
8.79057000 0.046213 -172.8 0.998897 -81.87 0.998897 -81.87 0.046211 -171.0
8.79058000 0.046229 -172.8 0.998897 -81.87 0.998897 -81.87 0.046227 -171.0
8.79059000 0.046246 -172.8 0.998896 -81.87 0.998896 -81.87 0.046244 -171.0
8.79060000 0.046262 -172.8 0.998895 -81.87 0.998895 -81.87 0.046260 -171.0
8.79061000 0.046279 -172.8 0.998894 -81.87 0.998894 -81.87 0.046277 -171.0
8.79062000 0.046296 -172.8 0.998893 -81.87 0.998893 -81.87 0.046294 -171.0
8.79063000 0.046312 -172.8 0.998893 -81.87 0.998893 -81.87 0.046310 -171.0
8.79064000 0.046329 -172.8 0.998892 -81.88 0.998892 -81.88 0.046327 -171.0
8.79065000 0.046346 -172.8 0.998891 -81.88 0.998891 -81.88 0.046344 -171.0
8.79066000 0.046363 -172.8 0.998890 -81.88 0.998890 -81.88 0.046361 -171.0
8.79067000 0.046379 -172.8 0.998889 -81.88 0.998889 -81.88 0.046378 -171.0
8.79068000 0.046396 -172.8 0.998888 -81.88 0.998888 -81.88 0.046394 -171.0
8.79069000 0.046413 -172.8 0.998888 -81.88 0.998888 -81.88 0.046411 -171.0
8.79070000 0.046430 -172.8 0.998887 -81.88 0.998887 -81.88 0.046428 -171.0
8.79071000 0.046447 -172.8 0.998886 -81.88 0.998886 -81.88 0.046445 -171.0
8.79072000 0.046464 -172.8 0.998885 -81.88 0.998885 -81.88 0.046462 -171.0
8.79073000 0.046481 -172.8 0.998884 -81.88 0.998884 -81.88 0.046479 -171.0
8.79074000 0.046498 -172.8 0.998884 -81.89 0.998884 -81.89 0.046496 -171.0
8.79075000 0.046515 -172.8 0.998883 -81.89 0.998883 -81.89 0.046513 -171.0
8.79076000 0.046532 -172.8 0.998882 -81.89 0.998882 -81.89 0.046530 -171.0
8.79077000 0.046549 -172.8 0.998881 -81.89 0.998881 -81.89 0.046547 -171.0
8.79078000 0.046566 -172.8 0.998880 -81.89 0.998880 -81.89 0.046564 -171.0
8.79079000 0.046583 -172.8 0.998879 -81.89 0.998879 -81.89 0.046581 -171.0
8.79080000 0.046600 -172.8 0.998878 -81.89 0.998878 -81.89 0.046598 -171.0
8.79081000 0.046617 -172.8 0.998878 -81.89 0.998878 -81.89 0.046615 -171.0
8.79082000 0.046634 -172.8 0.998877 -81.89 0.998877 -81.89 0.046632 -171.0
8.79083000 0.046652 -172.8 0.998876 -81.90 0.998876 -81.90 0.046649 -171.0
8.79084000 0.046669 -172.8 0.998875 -81.90 0.998875 -81.90 0.046667 -171.1
8.79085000 0.046686 -172.8 0.998874 -81.90 0.998874 -81.90 0.046684 -171.1
8.79086000 0.046703 -172.8 0.998873 -81.90 0.998873 -81.90 0.046701 -171.1
8.79087000 0.046720 -172.8 0.998873 -81.90 0.998873 -81.90 0.046718 -171.1
8.79088000 0.046738 -172.8 0.998872 -81.90 0.998872 -81.90 0.046736 -171.1
8.79089000 0.046755 -172.8 0.998871 -81.90 0.998871 -81.90 0.046753 -171.1
8.79090000 0.046772 -172.8 0.998870 -81.90 0.998870 -81.90 0.046770 -171.1
8.79091000 0.046790 -172.8 0.998869 -81.90 0.998869 -81.90 0.046788 -171.1
8.79092000 0.046807 -172.8 0.998868 -81.91 0.998868 -81.91 0.046805 -171.1
8.79093000 0.046825 -172.8 0.998867 -81.91 0.998867 -81.91 0.046823 -171.1
8.79094000 0.046842 -172.8 0.998867 -81.91 0.998867 -81.91 0.046840 -171.1
8.79095000 0.046860 -172.8 0.998866 -81.91 0.998866 -81.91 0.046858 -171.1
8.79096000 0.046877 -172.8 0.998865 -81.91 0.998865 -81.91 0.046875 -171.1
8.79097000 0.046895 -172.8 0.998864 -81.91 0.998864 -81.91 0.046893 -171.1
8.79098000 0.046912 -172.8 0.998863 -81.91 0.998863 -81.91 0.046910 -171.1
8.79099000 0.046930 -172.8 0.998862 -81.91 0.998862 -81.91 0.046928 -171.1
8.79100000 0.046947 -172.8 0.998861 -81.91 0.998861 -81.91 0.046945 -171.1
8.79101000 0.046965 -172.8 0.998860 -81.92 0.998860 -81.92 0.046963 -171.1
8.79102000 0.046983 -172.8 0.998860 -81.92 0.998860 -81.92 0.046981 -171.1
8.79103000 0.047000 -172.8 0.998859 -81.92 0.998859 -81.92 0.046998 -171.1
8.79104000 0.047018 -172.8 0.998858 -81.92 0.998858 -81.92 0.047016 -171.1
8.79105000 0.047036 -172.8 0.998857 -81.92 0.998857 -81.92 0.047034 -171.1
8.79106000 0.047054 -172.8 0.998856 -81.92 0.998856 -81.92 0.047051 -171.1
8.79107000 0.047071 -172.8 0.998855 -81.92 0.998855 -81.92 0.047069 -171.1
8.79108000 0.047089 -172.8 0.998854 -81.92 0.998854 -81.92 0.047087 -171.1
8.79109000 0.047107 -172.8 0.998853 -81.92 0.998853 -81.92 0.047105 -171.1
8.79110000 0.047125 -172.8 0.998852 -81.93 0.998852 -81.93 0.047123 -171.1
8.79111000 0.047143 -172.8 0.998852 -81.93 0.998852 -81.93 0.047141 -171.1
8.79112000 0.047161 -172.8 0.998851 -81.93 0.998851 -81.93 0.047159 -171.1
8.79113000 0.047179 -172.8 0.998850 -81.93 0.998850 -81.93 0.047176 -171.1
8.79114000 0.047197 -172.8 0.998849 -81.93 0.998849 -81.93 0.047194 -171.1
8.79115000 0.047215 -172.8 0.998848 -81.93 0.998848 -81.93 0.047212 -171.1
8.79116000 0.047233 -172.8 0.998847 -81.93 0.998847 -81.93 0.047230 -171.1
8.79117000 0.047251 -172.8 0.998846 -81.93 0.998846 -81.93 0.047249 -171.1
8.79118000 0.047269 -172.8 0.998845 -81.93 0.998845 -81.93 0.047267 -171.1
8.79119000 0.047287 -172.8 0.998844 -81.94 0.998844 -81.94 0.047285 -171.1
8.79120000 0.047305 -172.8 0.998843 -81.94 0.998843 -81.94 0.047303 -171.1
8.79121000 0.047323 -172.8 0.998843 -81.94 0.998843 -81.94 0.047321 -171.1
8.79122000 0.047341 -172.8 0.998842 -81.94 0.998842 -81.94 0.047339 -171.1
8.79123000 0.047359 -172.8 0.998841 -81.94 0.998841 -81.94 0.047357 -171.1
8.79124000 0.047378 -172.8 0.998840 -81.94 0.998840 -81.94 0.047376 -171.1
8.79125000 0.047396 -172.8 0.998839 -81.94 0.998839 -81.94 0.047394 -171.1
8.79126000 0.047414 -172.8 0.998838 -81.94 0.998838 -81.94 0.047412 -171.1
8.79127000 0.047432 -172.8 0.998837 -81.94 0.998837 -81.94 0.047430 -171.1
8.79128000 0.047451 -172.8 0.998836 -81.95 0.998836 -81.95 0.047449 -171.1
8.79129000 0.047469 -172.8 0.998835 -81.95 0.998835 -81.95 0.047467 -171.1
8.79130000 0.047488 -172.8 0.998834 -81.95 0.998834 -81.95 0.047485 -171.1
8.79131000 0.047506 -172.8 0.998833 -81.95 0.998833 -81.95 0.047504 -171.1
8.79132000 0.047524 -172.9 0.998832 -81.95 0.998832 -81.95 0.047522 -171.1
8.79133000 0.047543 -172.9 0.998832 -81.95 0.998832 -81.95 0.047541 -171.1
8.79134000 0.047561 -172.9 0.998831 -81.95 0.998831 -81.95 0.047559 -171.1
8.79135000 0.047580 -172.9 0.998830 -81.95 0.998830 -81.95 0.047578 -171.1
8.79136000 0.047598 -172.9 0.998829 -81.95 0.998829 -81.95 0.047596 -171.1
8.79137000 0.047617 -172.9 0.998828 -81.96 0.998828 -81.96 0.047615 -171.1
8.79138000 0.047636 -172.9 0.998827 -81.96 0.998827 -81.96 0.047634 -171.1
8.79139000 0.047654 -172.9 0.998826 -81.96 0.998826 -81.96 0.047652 -171.2
8.79140000 0.047673 -172.9 0.998825 -81.96 0.998825 -81.96 0.047671 -171.2
8.79141000 0.047692 -172.9 0.998824 -81.96 0.998824 -81.96 0.047690 -171.2
8.79142000 0.047710 -172.9 0.998823 -81.96 0.998823 -81.96 0.047708 -171.2
8.79143000 0.047729 -172.9 0.998822 -81.96 0.998822 -81.96 0.047727 -171.2
8.79144000 0.047748 -172.9 0.998821 -81.96 0.998821 -81.96 0.047746 -171.2
8.79145000 0.047767 -172.9 0.998820 -81.97 0.998820 -81.97 0.047765 -171.2
8.79146000 0.047786 -172.9 0.998819 -81.97 0.998819 -81.97 0.047783 -171.2
8.79147000 0.047804 -172.9 0.998818 -81.97 0.998818 -81.97 0.047802 -171.2
8.79148000 0.047823 -172.9 0.998817 -81.97 0.998817 -81.97 0.047821 -171.2
8.79149000 0.047842 -172.9 0.998816 -81.97 0.998816 -81.97 0.047840 -171.2
8.79150000 0.047861 -172.9 0.998815 -81.97 0.998815 -81.97 0.047859 -171.2
8.79151000 0.047880 -172.9 0.998814 -81.97 0.998814 -81.97 0.047878 -171.2
8.79152000 0.047899 -172.9 0.998814 -81.97 0.998814 -81.97 0.047897 -171.2
8.79153000 0.047918 -172.9 0.998813 -81.97 0.998813 -81.97 0.047916 -171.2
8.79154000 0.047937 -172.9 0.998812 -81.98 0.998812 -81.98 0.047935 -171.2
8.79155000 0.047956 -172.9 0.998811 -81.98 0.998811 -81.98 0.047954 -171.2
8.79156000 0.047975 -172.9 0.998810 -81.98 0.998810 -81.98 0.047973 -171.2
8.79157000 0.047995 -172.9 0.998809 -81.98 0.998809 -81.98 0.047992 -171.2
8.79158000 0.048014 -172.9 0.998808 -81.98 0.998808 -81.98 0.048012 -171.2
8.79159000 0.048033 -172.9 0.998807 -81.98 0.998807 -81.98 0.048031 -171.2
8.79160000 0.048052 -172.9 0.998806 -81.98 0.998806 -81.98 0.048050 -171.2
8.79161000 0.048071 -172.9 0.998805 -81.98 0.998805 -81.98 0.048069 -171.2
8.79162000 0.048091 -172.9 0.998804 -81.99 0.998804 -81.99 0.048089 -171.2
8.79163000 0.048110 -172.9 0.998803 -81.99 0.998803 -81.99 0.048108 -171.2
8.79164000 0.048129 -172.9 0.998802 -81.99 0.998802 -81.99 0.048127 -171.2
8.79165000 0.048149 -172.9 0.998801 -81.99 0.998801 -81.99 0.048147 -171.2
8.79166000 0.048168 -172.9 0.998800 -81.99 0.998800 -81.99 0.048166 -171.2
8.79167000 0.048188 -172.9 0.998799 -81.99 0.998799 -81.99 0.048185 -171.2
8.79168000 0.048207 -172.9 0.998798 -81.99 0.998798 -81.99 0.048205 -171.2
8.79169000 0.048227 -172.9 0.998797 -81.99 0.998797 -81.99 0.048224 -171.2
8.79170000 0.048246 -172.9 0.998796 -81.99 0.998796 -81.99 0.048244 -171.2
8.79171000 0.048266 -172.9 0.998795 -82.00 0.998795 -82.00 0.048263 -171.2
8.79172000 0.048285 -172.9 0.998794 -82.00 0.998794 -82.00 0.048283 -171.2
8.79173000 0.048305 -172.9 0.998793 -82.00 0.998793 -82.00 0.048303 -171.2
8.79174000 0.048324 -172.9 0.998792 -82.00 0.998792 -82.00 0.048322 -171.2
8.79175000 0.048344 -172.9 0.998791 -82.00 0.998791 -82.00 0.048342 -171.2
8.79176000 0.048364 -172.9 0.998790 -82.00 0.998790 -82.00 0.048362 -171.2
8.79177000 0.048384 -172.9 0.998789 -82.00 0.998789 -82.00 0.048381 -171.2
8.79178000 0.048403 -172.9 0.998788 -82.00 0.998788 -82.00 0.048401 -171.2
8.79179000 0.048423 -172.9 0.998787 -82.01 0.998787 -82.01 0.048421 -171.2
8.79180000 0.048443 -172.9 0.998786 -82.01 0.998786 -82.01 0.048441 -171.2
8.79181000 0.048463 -172.9 0.998785 -82.01 0.998785 -82.01 0.048461 -171.2
8.79182000 0.048483 -172.9 0.998784 -82.01 0.998784 -82.01 0.048480 -171.2
8.79183000 0.048503 -172.9 0.998783 -82.01 0.998783 -82.01 0.048500 -171.2
8.79184000 0.048523 -172.9 0.998782 -82.01 0.998782 -82.01 0.048520 -171.2
8.79185000 0.048543 -172.9 0.998781 -82.01 0.998781 -82.01 0.048540 -171.2
8.79186000 0.048563 -172.9 0.998780 -82.01 0.998780 -82.01 0.048560 -171.2
8.79187000 0.048583 -172.9 0.998779 -82.02 0.998779 -82.02 0.048580 -171.2
8.79188000 0.048603 -172.9 0.998778 -82.02 0.998778 -82.02 0.048600 -171.2
8.79189000 0.048623 -172.9 0.998776 -82.02 0.998776 -82.02 0.048620 -171.2
8.79190000 0.048643 -172.9 0.998775 -82.02 0.998775 -82.02 0.048641 -171.2
8.79191000 0.048663 -172.9 0.998774 -82.02 0.998774 -82.02 0.048661 -171.3
8.79192000 0.048683 -172.9 0.998773 -82.02 0.998773 -82.02 0.048681 -171.3
8.79193000 0.048703 -172.9 0.998772 -82.02 0.998772 -82.02 0.048701 -171.3
8.79194000 0.048724 -172.9 0.998771 -82.02 0.998771 -82.02 0.048721 -171.3
8.79195000 0.048744 -172.9 0.998770 -82.03 0.998770 -82.03 0.048742 -171.3
8.79196000 0.048764 -172.9 0.998769 -82.03 0.998769 -82.03 0.048762 -171.3
8.79197000 0.048785 -172.9 0.998768 -82.03 0.998768 -82.03 0.048782 -171.3
8.79198000 0.048805 -172.9 0.998767 -82.03 0.998767 -82.03 0.048803 -171.3
8.79199000 0.048825 -172.9 0.998766 -82.03 0.998766 -82.03 0.048823 -171.3
8.79200000 0.048846 -172.9 0.998765 -82.03 0.998765 -82.03 0.048844 -171.3
8.79201000 0.048866 -172.9 0.998764 -82.03 0.998764 -82.03 0.048864 -171.3
8.79202000 0.048887 -172.9 0.998763 -82.03 0.998763 -82.03 0.048885 -171.3
8.79203000 0.048907 -172.9 0.998762 -82.04 0.998762 -82.04 0.048905 -171.3
8.79204000 0.048928 -172.9 0.998761 -82.04 0.998761 -82.04 0.048926 -171.3
8.79205000 0.048949 -172.9 0.998760 -82.04 0.998760 -82.04 0.048946 -171.3
8.79206000 0.048969 -172.9 0.998759 -82.04 0.998759 -82.04 0.048967 -171.3
8.79207000 0.048990 -172.9 0.998758 -82.04 0.998758 -82.04 0.048988 -171.3
8.79208000 0.049011 -172.9 0.998756 -82.04 0.998756 -82.04 0.049008 -171.3
8.79209000 0.049031 -172.9 0.998755 -82.04 0.998755 -82.04 0.049029 -171.3
8.79210000 0.049052 -172.9 0.998754 -82.04 0.998754 -82.04 0.049050 -171.3
8.79211000 0.049073 -172.9 0.998753 -82.05 0.998753 -82.05 0.049071 -171.3
8.79212000 0.049094 -172.9 0.998752 -82.05 0.998752 -82.05 0.049091 -171.3
8.79213000 0.049115 -172.9 0.998751 -82.05 0.998751 -82.05 0.049112 -171.3
8.79214000 0.049135 -172.9 0.998750 -82.05 0.998750 -82.05 0.049133 -171.3
8.79215000 0.049156 -172.9 0.998749 -82.05 0.998749 -82.05 0.049154 -171.3
8.79216000 0.049177 -172.9 0.998748 -82.05 0.998748 -82.05 0.049175 -171.3
8.79217000 0.049198 -172.9 0.998747 -82.05 0.998747 -82.05 0.049196 -171.3
8.79218000 0.049219 -172.9 0.998746 -82.06 0.998746 -82.06 0.049217 -171.3
8.79219000 0.049240 -172.9 0.998744 -82.06 0.998744 -82.06 0.049238 -171.3
8.79220000 0.049261 -172.9 0.998743 -82.06 0.998743 -82.06 0.049259 -171.3
8.79221000 0.049283 -172.9 0.998742 -82.06 0.998742 -82.06 0.049280 -171.3
8.79222000 0.049304 -172.9 0.998741 -82.06 0.998741 -82.06 0.049301 -171.3
8.79223000 0.049325 -172.9 0.998740 -82.06 0.998740 -82.06 0.049323 -171.3
8.79224000 0.049346 -172.9 0.998739 -82.06 0.998739 -82.06 0.049344 -171.3
8.79225000 0.049367 -172.9 0.998738 -82.06 0.998738 -82.06 0.049365 -171.3
8.79226000 0.049389 -172.9 0.998737 -82.07 0.998737 -82.07 0.049386 -171.3
8.79227000 0.049410 -172.9 0.998736 -82.07 0.998736 -82.07 0.049408 -171.3
8.79228000 0.049431 -172.9 0.998734 -82.07 0.998734 -82.07 0.049429 -171.3
8.79229000 0.049453 -172.9 0.998733 -82.07 0.998733 -82.07 0.049450 -171.3
8.79230000 0.049474 -172.9 0.998732 -82.07 0.998732 -82.07 0.049472 -171.3
8.79231000 0.049496 -172.9 0.998731 -82.07 0.998731 -82.07 0.049493 -171.3
8.79232000 0.049517 -172.9 0.998730 -82.07 0.998730 -82.07 0.049515 -171.3
8.79233000 0.049539 -172.9 0.998729 -82.07 0.998729 -82.07 0.049536 -171.3
8.79234000 0.049560 -172.9 0.998728 -82.08 0.998728 -82.08 0.049558 -171.3
8.79235000 0.049582 -172.9 0.998727 -82.08 0.998727 -82.08 0.049580 -171.3
8.79236000 0.049604 -172.9 0.998725 -82.08 0.998725 -82.08 0.049601 -171.3
8.79237000 0.049625 -172.9 0.998724 -82.08 0.998724 -82.08 0.049623 -171.3
8.79238000 0.049647 -172.9 0.998723 -82.08 0.998723 -82.08 0.049645 -171.3
8.79239000 0.049669 -172.9 0.998722 -82.08 0.998722 -82.08 0.049666 -171.4
8.79240000 0.049690 -172.9 0.998721 -82.08 0.998721 -82.08 0.049688 -171.4
8.79241000 0.049712 -172.9 0.998720 -82.09 0.998720 -82.09 0.049710 -171.4
8.79242000 0.049734 -172.9 0.998719 -82.09 0.998719 -82.09 0.049732 -171.4
8.79243000 0.049756 -172.9 0.998717 -82.09 0.998717 -82.09 0.049754 -171.4
8.79244000 0.049778 -172.9 0.998716 -82.09 0.998716 -82.09 0.049775 -171.4
8.79245000 0.049800 -172.9 0.998715 -82.09 0.998715 -82.09 0.049797 -171.4
8.79246000 0.049822 -172.9 0.998714 -82.09 0.998714 -82.09 0.049819 -171.4
8.79247000 0.049844 -172.9 0.998713 -82.09 0.998713 -82.09 0.049841 -171.4
8.79248000 0.049866 -172.9 0.998712 -82.10 0.998712 -82.10 0.049863 -171.4
8.79249000 0.049888 -172.9 0.998710 -82.10 0.998710 -82.10 0.049886 -171.4
8.79250000 0.049910 -172.9 0.998709 -82.10 0.998709 -82.10 0.049908 -171.4
8.79251000 0.049932 -172.9 0.998708 -82.10 0.998708 -82.10 0.049930 -171.4
8.79252000 0.049954 -172.9 0.998707 -82.10 0.998707 -82.10 0.049952 -171.4
8.79253000 0.049977 -172.9 0.998706 -82.10 0.998706 -82.10 0.049974 -171.4
8.79254000 0.049999 -172.9 0.998705 -82.10 0.998705 -82.10 0.049997 -171.4
8.79255000 0.050021 -172.9 0.998703 -82.10 0.998703 -82.10 0.050019 -171.4
8.79256000 0.050044 -172.9 0.998702 -82.11 0.998702 -82.11 0.050041 -171.4
8.79257000 0.050066 -172.9 0.998701 -82.11 0.998701 -82.11 0.050064 -171.4
8.79258000 0.050088 -172.9 0.998700 -82.11 0.998700 -82.11 0.050086 -171.4
8.79259000 0.050111 -172.9 0.998699 -82.11 0.998699 -82.11 0.050108 -171.4
8.79260000 0.050133 -172.9 0.998697 -82.11 0.998697 -82.11 0.050131 -171.4
8.79261000 0.050156 -172.9 0.998696 -82.11 0.998696 -82.11 0.050153 -171.4
8.79262000 0.050178 -172.9 0.998695 -82.11 0.998695 -82.11 0.050176 -171.4
8.79263000 0.050201 -172.9 0.998694 -82.12 0.998694 -82.12 0.050199 -171.4
8.79264000 0.050224 -172.9 0.998693 -82.12 0.998693 -82.12 0.050221 -171.4
8.79265000 0.050246 -172.9 0.998691 -82.12 0.998691 -82.12 0.050244 -171.4
8.79266000 0.050269 -172.9 0.998690 -82.12 0.998690 -82.12 0.050267 -171.4
8.79267000 0.050292 -172.9 0.998689 -82.12 0.998689 -82.12 0.050289 -171.4
8.79268000 0.050315 -172.9 0.998688 -82.12 0.998688 -82.12 0.050312 -171.4
8.79269000 0.050337 -172.9 0.998686 -82.12 0.998686 -82.12 0.050335 -171.4
8.79270000 0.050360 -172.9 0.998685 -82.13 0.998685 -82.13 0.050358 -171.4
8.79271000 0.050383 -172.9 0.998684 -82.13 0.998684 -82.13 0.050381 -171.4
8.79272000 0.050406 -172.9 0.998683 -82.13 0.998683 -82.13 0.050404 -171.4
8.79273000 0.050429 -172.9 0.998682 -82.13 0.998682 -82.13 0.050427 -171.4
8.79274000 0.050452 -172.9 0.998680 -82.13 0.998680 -82.13 0.050450 -171.4
8.79275000 0.050475 -172.9 0.998679 -82.13 0.998679 -82.13 0.050473 -171.4
8.79276000 0.050498 -172.9 0.998678 -82.13 0.998678 -82.13 0.050496 -171.4
8.79277000 0.050521 -172.9 0.998677 -82.14 0.998677 -82.14 0.050519 -171.4
8.79278000 0.050544 -172.9 0.998675 -82.14 0.998675 -82.14 0.050542 -171.4
8.79279000 0.050568 -172.9 0.998674 -82.14 0.998674 -82.14 0.050565 -171.4
8.79280000 0.050591 -172.9 0.998673 -82.14 0.998673 -82.14 0.050588 -171.4
8.79281000 0.050614 -172.9 0.998672 -82.14 0.998672 -82.14 0.050612 -171.4
8.79282000 0.050637 -172.9 0.998670 -82.14 0.998670 -82.14 0.050635 -171.4
8.79283000 0.050661 -172.9 0.998669 -82.14 0.998669 -82.14 0.050658 -171.4
8.79284000 0.050684 -172.9 0.998668 -82.15 0.998668 -82.15 0.050682 -171.4
8.79285000 0.050708 -172.9 0.998667 -82.15 0.998667 -82.15 0.050705 -171.5
8.79286000 0.050731 -172.9 0.998665 -82.15 0.998665 -82.15 0.050729 -171.5
8.79287000 0.050755 -172.9 0.998664 -82.15 0.998664 -82.15 0.050752 -171.5
8.79288000 0.050778 -172.9 0.998663 -82.15 0.998663 -82.15 0.050776 -171.5
8.79289000 0.050802 -172.9 0.998662 -82.15 0.998662 -82.15 0.050799 -171.5
8.79290000 0.050825 -172.9 0.998660 -82.15 0.998660 -82.15 0.050823 -171.5
8.79291000 0.050849 -173.0 0.998659 -82.16 0.998659 -82.16 0.050847 -171.5
8.79292000 0.050873 -173.0 0.998658 -82.16 0.998658 -82.16 0.050870 -171.5
8.79293000 0.050897 -173.0 0.998656 -82.16 0.998656 -82.16 0.050894 -171.5
8.79294000 0.050920 -173.0 0.998655 -82.16 0.998655 -82.16 0.050918 -171.5
8.79295000 0.050944 -173.0 0.998654 -82.16 0.998654 -82.16 0.050942 -171.5
8.79296000 0.050968 -173.0 0.998653 -82.16 0.998653 -82.16 0.050965 -171.5
8.79297000 0.050992 -173.0 0.998651 -82.16 0.998651 -82.16 0.050989 -171.5
8.79298000 0.051016 -173.0 0.998650 -82.17 0.998650 -82.17 0.051013 -171.5
8.79299000 0.051040 -173.0 0.998649 -82.17 0.998649 -82.17 0.051037 -171.5
8.79300000 0.051064 -173.0 0.998647 -82.17 0.998647 -82.17 0.051061 -171.5
8.79301000 0.051088 -173.0 0.998646 -82.17 0.998646 -82.17 0.051085 -171.5
8.79302000 0.051112 -173.0 0.998645 -82.17 0.998645 -82.17 0.051109 -171.5
8.79303000 0.051136 -173.0 0.998643 -82.17 0.998643 -82.17 0.051134 -171.5
8.79304000 0.051160 -173.0 0.998642 -82.17 0.998642 -82.17 0.051158 -171.5
8.79305000 0.051185 -173.0 0.998641 -82.18 0.998641 -82.18 0.051182 -171.5
8.79306000 0.051209 -173.0 0.998639 -82.18 0.998639 -82.18 0.051206 -171.5
8.79307000 0.051233 -173.0 0.998638 -82.18 0.998638 -82.18 0.051231 -171.5
8.79308000 0.051258 -173.0 0.998637 -82.18 0.998637 -82.18 0.051255 -171.5
8.79309000 0.051282 -173.0 0.998636 -82.18 0.998636 -82.18 0.051279 -171.5
8.79310000 0.051306 -173.0 0.998634 -82.18 0.998634 -82.18 0.051304 -171.5
8.79311000 0.051331 -173.0 0.998633 -82.18 0.998633 -82.18 0.051328 -171.5
8.79312000 0.051355 -173.0 0.998632 -82.19 0.998632 -82.19 0.051353 -171.5
8.79313000 0.051380 -173.0 0.998630 -82.19 0.998630 -82.19 0.051377 -171.5
8.79314000 0.051405 -173.0 0.998629 -82.19 0.998629 -82.19 0.051402 -171.5
8.79315000 0.051429 -173.0 0.998627 -82.19 0.998627 -82.19 0.051427 -171.5
8.79316000 0.051454 -173.0 0.998626 -82.19 0.998626 -82.19 0.051451 -171.5
8.79317000 0.051479 -173.0 0.998625 -82.19 0.998625 -82.19 0.051476 -171.5
8.79318000 0.051503 -173.0 0.998623 -82.20 0.998623 -82.20 0.051501 -171.5
8.79319000 0.051528 -173.0 0.998622 -82.20 0.998622 -82.20 0.051526 -171.5
8.79320000 0.051553 -173.0 0.998621 -82.20 0.998621 -82.20 0.051550 -171.5
8.79321000 0.051578 -173.0 0.998619 -82.20 0.998619 -82.20 0.051575 -171.5
8.79322000 0.051603 -173.0 0.998618 -82.20 0.998618 -82.20 0.051600 -171.5
8.79323000 0.051628 -173.0 0.998617 -82.20 0.998617 -82.20 0.051625 -171.5
8.79324000 0.051653 -173.0 0.998615 -82.20 0.998615 -82.20 0.051650 -171.5
8.79325000 0.051678 -173.0 0.998614 -82.21 0.998614 -82.21 0.051675 -171.5
8.79326000 0.051703 -173.0 0.998612 -82.21 0.998612 -82.21 0.051700 -171.5
8.79327000 0.051728 -173.0 0.998611 -82.21 0.998611 -82.21 0.051726 -171.5
8.79328000 0.051753 -173.0 0.998610 -82.21 0.998610 -82.21 0.051751 -171.5
8.79329000 0.051779 -173.0 0.998608 -82.21 0.998608 -82.21 0.051776 -171.6
8.79330000 0.051804 -173.0 0.998607 -82.21 0.998607 -82.21 0.051801 -171.6
8.79331000 0.051829 -173.0 0.998606 -82.22 0.998606 -82.22 0.051827 -171.6
8.79332000 0.051855 -173.0 0.998604 -82.22 0.998604 -82.22 0.051852 -171.6
8.79333000 0.051880 -173.0 0.998603 -82.22 0.998603 -82.22 0.051877 -171.6
8.79334000 0.051905 -173.0 0.998601 -82.22 0.998601 -82.22 0.051903 -171.6
8.79335000 0.051931 -173.0 0.998600 -82.22 0.998600 -82.22 0.051928 -171.6
8.79336000 0.051957 -173.0 0.998598 -82.22 0.998598 -82.22 0.051954 -171.6
8.79337000 0.051982 -173.0 0.998597 -82.22 0.998597 -82.22 0.051979 -171.6
8.79338000 0.052008 -173.0 0.998596 -82.23 0.998596 -82.23 0.052005 -171.6
8.79339000 0.052033 -173.0 0.998594 -82.23 0.998594 -82.23 0.052031 -171.6
8.79340000 0.052059 -173.0 0.998593 -82.23 0.998593 -82.23 0.052057 -171.6
8.79341000 0.052085 -173.0 0.998591 -82.23 0.998591 -82.23 0.052082 -171.6
8.79342000 0.052111 -173.0 0.998590 -82.23 0.998590 -82.23 0.052108 -171.6
8.79343000 0.052137 -173.0 0.998589 -82.23 0.998589 -82.23 0.052134 -171.6
8.79344000 0.052163 -173.0 0.998587 -82.24 0.998587 -82.24 0.052160 -171.6
8.79345000 0.052188 -173.0 0.998586 -82.24 0.998586 -82.24 0.052186 -171.6
8.79346000 0.052214 -173.0 0.998584 -82.24 0.998584 -82.24 0.052212 -171.6
8.79347000 0.052241 -173.0 0.998583 -82.24 0.998583 -82.24 0.052238 -171.6
8.79348000 0.052267 -173.0 0.998581 -82.24 0.998581 -82.24 0.052264 -171.6
8.79349000 0.052293 -173.0 0.998580 -82.24 0.998580 -82.24 0.052290 -171.6
8.79350000 0.052319 -173.0 0.998578 -82.25 0.998578 -82.25 0.052316 -171.6
8.79351000 0.052345 -173.0 0.998577 -82.25 0.998577 -82.25 0.052342 -171.6
8.79352000 0.052371 -173.0 0.998575 -82.25 0.998575 -82.25 0.052369 -171.6
8.79353000 0.052398 -173.0 0.998574 -82.25 0.998574 -82.25 0.052395 -171.6
8.79354000 0.052424 -173.0 0.998573 -82.25 0.998573 -82.25 0.052421 -171.6
8.79355000 0.052451 -173.0 0.998571 -82.25 0.998571 -82.25 0.052448 -171.6
8.79356000 0.052477 -173.0 0.998570 -82.25 0.998570 -82.25 0.052474 -171.6
8.79357000 0.052504 -173.0 0.998568 -82.26 0.998568 -82.26 0.052501 -171.6
8.79358000 0.052530 -173.0 0.998567 -82.26 0.998567 -82.26 0.052527 -171.6
8.79359000 0.052557 -173.0 0.998565 -82.26 0.998565 -82.26 0.052554 -171.6
8.79360000 0.052583 -173.0 0.998564 -82.26 0.998564 -82.26 0.052581 -171.6
8.79361000 0.052610 -173.0 0.998562 -82.26 0.998562 -82.26 0.052607 -171.6
8.79362000 0.052637 -173.0 0.998561 -82.26 0.998561 -82.26 0.052634 -171.6
8.79363000 0.052664 -173.0 0.998559 -82.27 0.998559 -82.27 0.052661 -171.6
8.79364000 0.052690 -173.0 0.998558 -82.27 0.998558 -82.27 0.052688 -171.6
8.79365000 0.052717 -173.0 0.998556 -82.27 0.998556 -82.27 0.052714 -171.6
8.79366000 0.052744 -173.0 0.998555 -82.27 0.998555 -82.27 0.052741 -171.6
8.79367000 0.052771 -173.0 0.998553 -82.27 0.998553 -82.27 0.052768 -171.6
8.79368000 0.052798 -173.0 0.998552 -82.27 0.998552 -82.27 0.052795 -171.6
8.79369000 0.052825 -173.0 0.998550 -82.28 0.998550 -82.28 0.052822 -171.7
8.79370000 0.052852 -173.0 0.998549 -82.28 0.998549 -82.28 0.052850 -171.7
8.79371000 0.052880 -173.0 0.998547 -82.28 0.998547 -82.28 0.052877 -171.7
8.79372000 0.052907 -173.0 0.998545 -82.28 0.998545 -82.28 0.052904 -171.7
8.79373000 0.052934 -173.0 0.998544 -82.28 0.998544 -82.28 0.052931 -171.7
8.79374000 0.052961 -173.0 0.998542 -82.28 0.998542 -82.28 0.052959 -171.7
8.79375000 0.052989 -173.0 0.998541 -82.29 0.998541 -82.29 0.052986 -171.7
8.79376000 0.053016 -173.0 0.998539 -82.29 0.998539 -82.29 0.053013 -171.7
8.79377000 0.053044 -173.0 0.998538 -82.29 0.998538 -82.29 0.053041 -171.7
8.79378000 0.053071 -173.0 0.998536 -82.29 0.998536 -82.29 0.053068 -171.7
8.79379000 0.053099 -173.0 0.998535 -82.29 0.998535 -82.29 0.053096 -171.7
8.79380000 0.053126 -173.0 0.998533 -82.29 0.998533 -82.29 0.053124 -171.7
8.79381000 0.053154 -173.0 0.998532 -82.30 0.998532 -82.30 0.053151 -171.7
8.79382000 0.053182 -173.0 0.998530 -82.30 0.998530 -82.30 0.053179 -171.7
8.79383000 0.053209 -173.0 0.998528 -82.30 0.998528 -82.30 0.053207 -171.7
8.79384000 0.053237 -173.0 0.998527 -82.30 0.998527 -82.30 0.053234 -171.7
8.79385000 0.053265 -173.0 0.998525 -82.30 0.998525 -82.30 0.053262 -171.7
8.79386000 0.053293 -173.0 0.998524 -82.30 0.998524 -82.30 0.053290 -171.7
8.79387000 0.053321 -173.0 0.998522 -82.31 0.998522 -82.31 0.053318 -171.7
8.79388000 0.053349 -173.0 0.998520 -82.31 0.998520 -82.31 0.053346 -171.7
8.79389000 0.053377 -173.0 0.998519 -82.31 0.998519 -82.31 0.053374 -171.7
8.79390000 0.053405 -173.0 0.998517 -82.31 0.998517 -82.31 0.053402 -171.7
8.79391000 0.053433 -173.0 0.998516 -82.31 0.998516 -82.31 0.053431 -171.7
8.79392000 0.053462 -173.0 0.998514 -82.31 0.998514 -82.31 0.053459 -171.7