! Sonnet Data File
! From: emgraph Version : 16.52
! From Project: Qubit_Test_beforeopt
! Data is De-embedded 
! Data File Written: 10/18/2017 16:57:22
!< HDATE 10/18/2017 09:03:38
!< MDATE 10/18/2017 09:03:38
!< PARAMS
!< Lj = 11.0
!< Gap = 6.0
!< Pwid = 2000.0
!< Airgap = 12.0
!< Width = 20.0
!< END PARAMS
# GHZ S MA R 51.80000
8.79000000 0.025017 -174.9 0.999667 -81.16 0.999667 -81.16 0.025014 -167.5
!< P1 F=8.79 Eeff=(6.4461688 -2.9978e-5) Z0=(50.9065254 1.15671e-4) R=0.0 C=0.0 
!< P2 F=8.79 Eeff=(6.4461688 -2.9978e-5) Z0=(50.9065254 1.15671e-4) R=0.0 C=0.0 
8.79001000 0.025026 -174.9 0.999667 -81.16 0.999667 -81.16 0.025023 -167.5
8.79002000 0.025035 -174.9 0.999667 -81.17 0.999667 -81.17 0.025032 -167.5
8.79003000 0.025044 -174.9 0.999666 -81.17 0.999666 -81.17 0.025042 -167.5
8.79004000 0.025053 -174.9 0.999666 -81.17 0.999666 -81.17 0.025051 -167.5
8.79005000 0.025063 -174.9 0.999666 -81.17 0.999666 -81.17 0.025060 -167.5
8.79006000 0.025072 -174.9 0.999666 -81.17 0.999666 -81.17 0.025069 -167.5
8.79007000 0.025081 -174.9 0.999665 -81.17 0.999665 -81.17 0.025078 -167.5
8.79008000 0.025090 -174.9 0.999665 -81.17 0.999665 -81.17 0.025087 -167.5
8.79009000 0.025099 -174.9 0.999665 -81.17 0.999665 -81.17 0.025096 -167.5
8.79010000 0.025108 -174.9 0.999664 -81.17 0.999664 -81.17 0.025105 -167.5
8.79011000 0.025117 -174.9 0.999664 -81.17 0.999664 -81.17 0.025114 -167.5
8.79012000 0.025127 -174.9 0.999664 -81.17 0.999664 -81.17 0.025124 -167.5
8.79013000 0.025136 -174.9 0.999664 -81.17 0.999664 -81.17 0.025133 -167.5
8.79014000 0.025145 -174.9 0.999663 -81.17 0.999663 -81.17 0.025142 -167.5
8.79015000 0.025154 -174.9 0.999663 -81.17 0.999663 -81.17 0.025151 -167.5
8.79016000 0.025163 -174.9 0.999663 -81.17 0.999663 -81.17 0.025161 -167.5
8.79017000 0.025173 -174.9 0.999663 -81.17 0.999663 -81.17 0.025170 -167.5
8.79018000 0.025182 -174.9 0.999662 -81.18 0.999662 -81.18 0.025179 -167.5
8.79019000 0.025191 -174.9 0.999662 -81.18 0.999662 -81.18 0.025188 -167.5
8.79020000 0.025201 -174.9 0.999662 -81.18 0.999662 -81.18 0.025198 -167.5
8.79021000 0.025210 -174.9 0.999662 -81.18 0.999662 -81.18 0.025207 -167.5
8.79022000 0.025219 -174.9 0.999661 -81.18 0.999661 -81.18 0.025216 -167.5
8.79023000 0.025228 -174.9 0.999661 -81.18 0.999661 -81.18 0.025226 -167.5
8.79024000 0.025238 -174.9 0.999661 -81.18 0.999661 -81.18 0.025235 -167.6
8.79025000 0.025247 -174.9 0.999661 -81.18 0.999661 -81.18 0.025244 -167.6
8.79026000 0.025257 -174.9 0.999660 -81.18 0.999660 -81.18 0.025254 -167.6
8.79027000 0.025266 -174.9 0.999660 -81.18 0.999660 -81.18 0.025263 -167.6
8.79028000 0.025275 -174.9 0.999660 -81.18 0.999660 -81.18 0.025273 -167.6
8.79029000 0.025285 -174.9 0.999660 -81.18 0.999660 -81.18 0.025282 -167.6
8.79030000 0.025294 -174.9 0.999659 -81.18 0.999659 -81.18 0.025291 -167.6
8.79031000 0.025304 -174.9 0.999659 -81.18 0.999659 -81.18 0.025301 -167.6
8.79032000 0.025313 -174.9 0.999659 -81.18 0.999659 -81.18 0.025310 -167.6
8.79033000 0.025323 -174.9 0.999658 -81.18 0.999658 -81.18 0.025320 -167.6
8.79034000 0.025332 -174.9 0.999658 -81.19 0.999658 -81.19 0.025329 -167.6
8.79035000 0.025342 -174.9 0.999658 -81.19 0.999658 -81.19 0.025339 -167.6
8.79036000 0.025351 -174.9 0.999658 -81.19 0.999658 -81.19 0.025348 -167.6
8.79037000 0.025361 -174.9 0.999657 -81.19 0.999657 -81.19 0.025358 -167.6
8.79038000 0.025370 -174.9 0.999657 -81.19 0.999657 -81.19 0.025367 -167.6
8.79039000 0.025380 -174.9 0.999657 -81.19 0.999657 -81.19 0.025377 -167.6
8.79040000 0.025390 -174.9 0.999657 -81.19 0.999657 -81.19 0.025387 -167.6
8.79041000 0.025399 -174.9 0.999656 -81.19 0.999656 -81.19 0.025396 -167.6
8.79042000 0.025409 -174.9 0.999656 -81.19 0.999656 -81.19 0.025406 -167.6
8.79043000 0.025418 -174.9 0.999656 -81.19 0.999656 -81.19 0.025415 -167.6
8.79044000 0.025428 -174.9 0.999655 -81.19 0.999655 -81.19 0.025425 -167.6
8.79045000 0.025438 -174.9 0.999655 -81.19 0.999655 -81.19 0.025435 -167.6
8.79046000 0.025447 -174.9 0.999655 -81.19 0.999655 -81.19 0.025444 -167.6
8.79047000 0.025457 -174.9 0.999655 -81.19 0.999655 -81.19 0.025454 -167.6
8.79048000 0.025467 -174.9 0.999654 -81.19 0.999654 -81.19 0.025464 -167.6
8.79049000 0.025477 -174.9 0.999654 -81.20 0.999654 -81.20 0.025474 -167.6
8.79050000 0.025486 -174.9 0.999654 -81.20 0.999654 -81.20 0.025483 -167.6
8.79051000 0.025496 -174.9 0.999654 -81.20 0.999654 -81.20 0.025493 -167.6
8.79052000 0.025506 -174.9 0.999653 -81.20 0.999653 -81.20 0.025503 -167.6
8.79053000 0.025516 -174.9 0.999653 -81.20 0.999653 -81.20 0.025513 -167.6
8.79054000 0.025525 -174.9 0.999653 -81.20 0.999653 -81.20 0.025522 -167.6
8.79055000 0.025535 -174.9 0.999652 -81.20 0.999652 -81.20 0.025532 -167.6
8.79056000 0.025545 -174.9 0.999652 -81.20 0.999652 -81.20 0.025542 -167.6
8.79057000 0.025555 -174.9 0.999652 -81.20 0.999652 -81.20 0.025552 -167.6
8.79058000 0.025565 -174.9 0.999652 -81.20 0.999652 -81.20 0.025562 -167.6
8.79059000 0.025575 -174.9 0.999651 -81.20 0.999651 -81.20 0.025572 -167.6
8.79060000 0.025585 -174.9 0.999651 -81.20 0.999651 -81.20 0.025582 -167.6
8.79061000 0.025595 -174.9 0.999651 -81.20 0.999651 -81.20 0.025592 -167.6
8.79062000 0.025604 -174.9 0.999650 -81.20 0.999650 -81.20 0.025601 -167.6
8.79063000 0.025614 -174.9 0.999650 -81.20 0.999650 -81.20 0.025611 -167.6
8.79064000 0.025624 -174.9 0.999650 -81.20 0.999650 -81.20 0.025621 -167.6
8.79065000 0.025634 -174.9 0.999650 -81.21 0.999650 -81.21 0.025631 -167.6
8.79066000 0.025644 -174.9 0.999649 -81.21 0.999649 -81.21 0.025641 -167.6
8.79067000 0.025654 -174.9 0.999649 -81.21 0.999649 -81.21 0.025651 -167.7
8.79068000 0.025664 -174.9 0.999649 -81.21 0.999649 -81.21 0.025661 -167.7
8.79069000 0.025674 -174.9 0.999648 -81.21 0.999648 -81.21 0.025671 -167.7
8.79070000 0.025684 -174.9 0.999648 -81.21 0.999648 -81.21 0.025681 -167.7
8.79071000 0.025695 -174.9 0.999648 -81.21 0.999648 -81.21 0.025692 -167.7
8.79072000 0.025705 -174.9 0.999648 -81.21 0.999648 -81.21 0.025702 -167.7
8.79073000 0.025715 -174.9 0.999647 -81.21 0.999647 -81.21 0.025712 -167.7
8.79074000 0.025725 -174.8 0.999647 -81.21 0.999647 -81.21 0.025722 -167.7
8.79075000 0.025735 -174.8 0.999647 -81.21 0.999647 -81.21 0.025732 -167.7
8.79076000 0.025745 -174.8 0.999646 -81.21 0.999646 -81.21 0.025742 -167.7
8.79077000 0.025755 -174.8 0.999646 -81.21 0.999646 -81.21 0.025752 -167.7
8.79078000 0.025766 -174.8 0.999646 -81.21 0.999646 -81.21 0.025763 -167.7
8.79079000 0.025776 -174.8 0.999646 -81.22 0.999646 -81.22 0.025773 -167.7
8.79080000 0.025786 -174.8 0.999645 -81.22 0.999645 -81.22 0.025783 -167.7
8.79081000 0.025796 -174.8 0.999645 -81.22 0.999645 -81.22 0.025793 -167.7
8.79082000 0.025806 -174.8 0.999645 -81.22 0.999645 -81.22 0.025803 -167.7
8.79083000 0.025817 -174.8 0.999644 -81.22 0.999644 -81.22 0.025814 -167.7
8.79084000 0.025827 -174.8 0.999644 -81.22 0.999644 -81.22 0.025824 -167.7
8.79085000 0.025837 -174.8 0.999644 -81.22 0.999644 -81.22 0.025834 -167.7
8.79086000 0.025848 -174.8 0.999643 -81.22 0.999643 -81.22 0.025845 -167.7
8.79087000 0.025858 -174.8 0.999643 -81.22 0.999643 -81.22 0.025855 -167.7
8.79088000 0.025868 -174.8 0.999643 -81.22 0.999643 -81.22 0.025865 -167.7
8.79089000 0.025879 -174.8 0.999643 -81.22 0.999643 -81.22 0.025876 -167.7
8.79090000 0.025889 -174.8 0.999642 -81.22 0.999642 -81.22 0.025886 -167.7
8.79091000 0.025900 -174.8 0.999642 -81.22 0.999642 -81.22 0.025896 -167.7
8.79092000 0.025910 -174.8 0.999642 -81.22 0.999642 -81.22 0.025907 -167.7
8.79093000 0.025920 -174.8 0.999641 -81.22 0.999641 -81.22 0.025917 -167.7
8.79094000 0.025931 -174.8 0.999641 -81.23 0.999641 -81.23 0.025928 -167.7
8.79095000 0.025941 -174.8 0.999641 -81.23 0.999641 -81.23 0.025938 -167.7
8.79096000 0.025952 -174.8 0.999640 -81.23 0.999640 -81.23 0.025949 -167.7
8.79097000 0.025962 -174.8 0.999640 -81.23 0.999640 -81.23 0.025959 -167.7
8.79098000 0.025973 -174.8 0.999640 -81.23 0.999640 -81.23 0.025970 -167.7
8.79099000 0.025983 -174.8 0.999640 -81.23 0.999640 -81.23 0.025980 -167.7
8.79100000 0.025994 -174.8 0.999639 -81.23 0.999639 -81.23 0.025991 -167.7
8.79101000 0.026005 -174.8 0.999639 -81.23 0.999639 -81.23 0.026001 -167.7
8.79102000 0.026015 -174.8 0.999639 -81.23 0.999639 -81.23 0.026012 -167.7
8.79103000 0.026026 -174.8 0.999638 -81.23 0.999638 -81.23 0.026023 -167.7
8.79104000 0.026036 -174.8 0.999638 -81.23 0.999638 -81.23 0.026033 -167.7
8.79105000 0.026047 -174.8 0.999638 -81.23 0.999638 -81.23 0.026044 -167.7
8.79106000 0.026058 -174.8 0.999637 -81.23 0.999637 -81.23 0.026055 -167.7
8.79107000 0.026068 -174.8 0.999637 -81.23 0.999637 -81.23 0.026065 -167.7
8.79108000 0.026079 -174.8 0.999637 -81.24 0.999637 -81.24 0.026076 -167.8
8.79109000 0.026090 -174.8 0.999636 -81.24 0.999636 -81.24 0.026087 -167.8
8.79110000 0.026101 -174.8 0.999636 -81.24 0.999636 -81.24 0.026097 -167.8
8.79111000 0.026111 -174.8 0.999636 -81.24 0.999636 -81.24 0.026108 -167.8
8.79112000 0.026122 -174.8 0.999635 -81.24 0.999635 -81.24 0.026119 -167.8
8.79113000 0.026133 -174.8 0.999635 -81.24 0.999635 -81.24 0.026130 -167.8
8.79114000 0.026144 -174.8 0.999635 -81.24 0.999635 -81.24 0.026141 -167.8
8.79115000 0.026155 -174.8 0.999635 -81.24 0.999635 -81.24 0.026151 -167.8
8.79116000 0.026165 -174.8 0.999634 -81.24 0.999634 -81.24 0.026162 -167.8
8.79117000 0.026176 -174.8 0.999634 -81.24 0.999634 -81.24 0.026173 -167.8
8.79118000 0.026187 -174.8 0.999634 -81.24 0.999634 -81.24 0.026184 -167.8
8.79119000 0.026198 -174.8 0.999633 -81.24 0.999633 -81.24 0.026195 -167.8
8.79120000 0.026209 -174.8 0.999633 -81.24 0.999633 -81.24 0.026206 -167.8
8.79121000 0.026220 -174.8 0.999633 -81.24 0.999633 -81.24 0.026217 -167.8
8.79122000 0.026231 -174.8 0.999632 -81.25 0.999632 -81.25 0.026228 -167.8
8.79123000 0.026242 -174.8 0.999632 -81.25 0.999632 -81.25 0.026239 -167.8
8.79124000 0.026253 -174.8 0.999632 -81.25 0.999632 -81.25 0.026250 -167.8
8.79125000 0.026264 -174.8 0.999631 -81.25 0.999631 -81.25 0.026261 -167.8
8.79126000 0.026275 -174.8 0.999631 -81.25 0.999631 -81.25 0.026272 -167.8
8.79127000 0.026286 -174.8 0.999631 -81.25 0.999631 -81.25 0.026283 -167.8
8.79128000 0.026297 -174.8 0.999630 -81.25 0.999630 -81.25 0.026294 -167.8
8.79129000 0.026308 -174.8 0.999630 -81.25 0.999630 -81.25 0.026305 -167.8
8.79130000 0.026319 -174.8 0.999630 -81.25 0.999630 -81.25 0.026316 -167.8
8.79131000 0.026330 -174.8 0.999629 -81.25 0.999629 -81.25 0.026327 -167.8
8.79132000 0.026342 -174.8 0.999629 -81.25 0.999629 -81.25 0.026338 -167.8
8.79133000 0.026353 -174.8 0.999629 -81.25 0.999629 -81.25 0.026349 -167.8
8.79134000 0.026364 -174.8 0.999628 -81.25 0.999628 -81.25 0.026361 -167.8
8.79135000 0.026375 -174.8 0.999628 -81.25 0.999628 -81.25 0.026372 -167.8
8.79136000 0.026386 -174.8 0.999628 -81.26 0.999628 -81.26 0.026383 -167.8
8.79137000 0.026398 -174.8 0.999627 -81.26 0.999627 -81.26 0.026394 -167.8
8.79138000 0.026409 -174.8 0.999627 -81.26 0.999627 -81.26 0.026406 -167.8
8.79139000 0.026420 -174.8 0.999627 -81.26 0.999627 -81.26 0.026417 -167.8
8.79140000 0.026431 -174.8 0.999626 -81.26 0.999626 -81.26 0.026428 -167.8
8.79141000 0.026443 -174.8 0.999626 -81.26 0.999626 -81.26 0.026439 -167.8
8.79142000 0.026454 -174.8 0.999626 -81.26 0.999626 -81.26 0.026451 -167.8
8.79143000 0.026465 -174.8 0.999625 -81.26 0.999625 -81.26 0.026462 -167.8
8.79144000 0.026477 -174.8 0.999625 -81.26 0.999625 -81.26 0.026473 -167.8
8.79145000 0.026488 -174.8 0.999625 -81.26 0.999625 -81.26 0.026485 -167.8
8.79146000 0.026500 -174.8 0.999624 -81.26 0.999624 -81.26 0.026496 -167.8
8.79147000 0.026511 -174.8 0.999624 -81.26 0.999624 -81.26 0.026508 -167.8
8.79148000 0.026522 -174.8 0.999624 -81.26 0.999624 -81.26 0.026519 -167.9
8.79149000 0.026534 -174.8 0.999623 -81.27 0.999623 -81.27 0.026531 -167.9
8.79150000 0.026545 -174.8 0.999623 -81.27 0.999623 -81.27 0.026542 -167.9
8.79151000 0.026557 -174.8 0.999623 -81.27 0.999623 -81.27 0.026554 -167.9
8.79152000 0.026568 -174.8 0.999622 -81.27 0.999622 -81.27 0.026565 -167.9
8.79153000 0.026580 -174.8 0.999622 -81.27 0.999622 -81.27 0.026577 -167.9
8.79154000 0.026592 -174.8 0.999622 -81.27 0.999622 -81.27 0.026588 -167.9
8.79155000 0.026603 -174.8 0.999621 -81.27 0.999621 -81.27 0.026600 -167.9
8.79156000 0.026615 -174.8 0.999621 -81.27 0.999621 -81.27 0.026611 -167.9
8.79157000 0.026626 -174.8 0.999621 -81.27 0.999621 -81.27 0.026623 -167.9
8.79158000 0.026638 -174.8 0.999620 -81.27 0.999620 -81.27 0.026635 -167.9
8.79159000 0.026650 -174.8 0.999620 -81.27 0.999620 -81.27 0.026646 -167.9
8.79160000 0.026661 -174.8 0.999620 -81.27 0.999620 -81.27 0.026658 -167.9
8.79161000 0.026673 -174.8 0.999619 -81.27 0.999619 -81.27 0.026670 -167.9
8.79162000 0.026685 -174.8 0.999619 -81.27 0.999619 -81.27 0.026681 -167.9
8.79163000 0.026697 -174.8 0.999619 -81.28 0.999619 -81.28 0.026693 -167.9
8.79164000 0.026708 -174.8 0.999618 -81.28 0.999618 -81.28 0.026705 -167.9
8.79165000 0.026720 -174.8 0.999618 -81.28 0.999618 -81.28 0.026717 -167.9
8.79166000 0.026732 -174.8 0.999617 -81.28 0.999617 -81.28 0.026729 -167.9
8.79167000 0.026744 -174.8 0.999617 -81.28 0.999617 -81.28 0.026740 -167.9
8.79168000 0.026756 -174.8 0.999617 -81.28 0.999617 -81.28 0.026752 -167.9
8.79169000 0.026768 -174.8 0.999616 -81.28 0.999616 -81.28 0.026764 -167.9
8.79170000 0.026779 -174.8 0.999616 -81.28 0.999616 -81.28 0.026776 -167.9
8.79171000 0.026791 -174.8 0.999616 -81.28 0.999616 -81.28 0.026788 -167.9
8.79172000 0.026803 -174.8 0.999615 -81.28 0.999615 -81.28 0.026800 -167.9
8.79173000 0.026815 -174.8 0.999615 -81.28 0.999615 -81.28 0.026812 -167.9
8.79174000 0.026827 -174.8 0.999615 -81.28 0.999615 -81.28 0.026824 -167.9
8.79175000 0.026839 -174.8 0.999614 -81.28 0.999614 -81.28 0.026836 -167.9
8.79176000 0.026851 -174.8 0.999614 -81.29 0.999614 -81.29 0.026848 -167.9
8.79177000 0.026863 -174.8 0.999613 -81.29 0.999613 -81.29 0.026860 -167.9
8.79178000 0.026875 -174.7 0.999613 -81.29 0.999613 -81.29 0.026872 -167.9
8.79179000 0.026887 -174.7 0.999613 -81.29 0.999613 -81.29 0.026884 -167.9
8.79180000 0.026900 -174.7 0.999612 -81.29 0.999612 -81.29 0.026896 -167.9
8.79181000 0.026912 -174.7 0.999612 -81.29 0.999612 -81.29 0.026908 -167.9
8.79182000 0.026924 -174.7 0.999612 -81.29 0.999612 -81.29 0.026920 -167.9
8.79183000 0.026936 -174.7 0.999611 -81.29 0.999611 -81.29 0.026933 -167.9
8.79184000 0.026948 -174.7 0.999611 -81.29 0.999611 -81.29 0.026945 -167.9
8.79185000 0.026960 -174.7 0.999611 -81.29 0.999611 -81.29 0.026957 -167.9
8.79186000 0.026973 -174.7 0.999610 -81.29 0.999610 -81.29 0.026969 -168.0
8.79187000 0.026985 -174.7 0.999610 -81.29 0.999610 -81.29 0.026981 -168.0
8.79188000 0.026997 -174.7 0.999609 -81.30 0.999609 -81.30 0.026994 -168.0
8.79189000 0.027009 -174.7 0.999609 -81.30 0.999609 -81.30 0.027006 -168.0
8.79190000 0.027022 -174.7 0.999609 -81.30 0.999609 -81.30 0.027018 -168.0
8.79191000 0.027034 -174.7 0.999608 -81.30 0.999608 -81.30 0.027031 -168.0
8.79192000 0.027047 -174.7 0.999608 -81.30 0.999608 -81.30 0.027043 -168.0
8.79193000 0.027059 -174.7 0.999608 -81.30 0.999608 -81.30 0.027055 -168.0
8.79194000 0.027071 -174.7 0.999607 -81.30 0.999607 -81.30 0.027068 -168.0
8.79195000 0.027084 -174.7 0.999607 -81.30 0.999607 -81.30 0.027080 -168.0
8.79196000 0.027096 -174.7 0.999606 -81.30 0.999606 -81.30 0.027093 -168.0
8.79197000 0.027109 -174.7 0.999606 -81.30 0.999606 -81.30 0.027105 -168.0
8.79198000 0.027121 -174.7 0.999606 -81.30 0.999606 -81.30 0.027118 -168.0
8.79199000 0.027134 -174.7 0.999605 -81.30 0.999605 -81.30 0.027130 -168.0
8.79200000 0.027146 -174.7 0.999605 -81.30 0.999605 -81.30 0.027143 -168.0
8.79201000 0.027159 -174.7 0.999605 -81.31 0.999605 -81.31 0.027155 -168.0
8.79202000 0.027171 -174.7 0.999604 -81.31 0.999604 -81.31 0.027168 -168.0
8.79203000 0.027184 -174.7 0.999604 -81.31 0.999604 -81.31 0.027180 -168.0
8.79204000 0.027197 -174.7 0.999603 -81.31 0.999603 -81.31 0.027193 -168.0
8.79205000 0.027209 -174.7 0.999603 -81.31 0.999603 -81.31 0.027206 -168.0
8.79206000 0.027222 -174.7 0.999603 -81.31 0.999603 -81.31 0.027218 -168.0
8.79207000 0.027235 -174.7 0.999602 -81.31 0.999602 -81.31 0.027231 -168.0
8.79208000 0.027247 -174.7 0.999602 -81.31 0.999602 -81.31 0.027244 -168.0
8.79209000 0.027260 -174.7 0.999601 -81.31 0.999601 -81.31 0.027257 -168.0
8.79210000 0.027273 -174.7 0.999601 -81.31 0.999601 -81.31 0.027269 -168.0
8.79211000 0.027286 -174.7 0.999601 -81.31 0.999601 -81.31 0.027282 -168.0
8.79212000 0.027299 -174.7 0.999600 -81.31 0.999600 -81.31 0.027295 -168.0
8.79213000 0.027311 -174.7 0.999600 -81.32 0.999600 -81.32 0.027308 -168.0
8.79214000 0.027324 -174.7 0.999599 -81.32 0.999599 -81.32 0.027321 -168.0
8.79215000 0.027337 -174.7 0.999599 -81.32 0.999599 -81.32 0.027334 -168.0
8.79216000 0.027350 -174.7 0.999599 -81.32 0.999599 -81.32 0.027346 -168.0
8.79217000 0.027363 -174.7 0.999598 -81.32 0.999598 -81.32 0.027359 -168.0
8.79218000 0.027376 -174.7 0.999598 -81.32 0.999598 -81.32 0.027372 -168.0
8.79219000 0.027389 -174.7 0.999597 -81.32 0.999597 -81.32 0.027385 -168.0
8.79220000 0.027402 -174.7 0.999597 -81.32 0.999597 -81.32 0.027398 -168.0
8.79221000 0.027415 -174.7 0.999597 -81.32 0.999597 -81.32 0.027411 -168.0
8.79222000 0.027428 -174.7 0.999596 -81.32 0.999596 -81.32 0.027424 -168.1
8.79223000 0.027441 -174.7 0.999596 -81.32 0.999596 -81.32 0.027438 -168.1
8.79224000 0.027454 -174.7 0.999595 -81.32 0.999595 -81.32 0.027451 -168.1
8.79225000 0.027467 -174.7 0.999595 -81.33 0.999595 -81.33 0.027464 -168.1
8.79226000 0.027481 -174.7 0.999595 -81.33 0.999595 -81.33 0.027477 -168.1
8.79227000 0.027494 -174.7 0.999594 -81.33 0.999594 -81.33 0.027490 -168.1
8.79228000 0.027507 -174.7 0.999594 -81.33 0.999594 -81.33 0.027503 -168.1
8.79229000 0.027520 -174.7 0.999593 -81.33 0.999593 -81.33 0.027516 -168.1
8.79230000 0.027533 -174.7 0.999593 -81.33 0.999593 -81.33 0.027530 -168.1
8.79231000 0.027547 -174.7 0.999593 -81.33 0.999593 -81.33 0.027543 -168.1
8.79232000 0.027560 -174.7 0.999592 -81.33 0.999592 -81.33 0.027556 -168.1
8.79233000 0.027573 -174.7 0.999592 -81.33 0.999592 -81.33 0.027570 -168.1
8.79234000 0.027587 -174.7 0.999591 -81.33 0.999591 -81.33 0.027583 -168.1
8.79235000 0.027600 -174.7 0.999591 -81.33 0.999591 -81.33 0.027596 -168.1
8.79236000 0.027613 -174.7 0.999591 -81.33 0.999591 -81.33 0.027610 -168.1
8.79237000 0.027627 -174.7 0.999590 -81.34 0.999590 -81.34 0.027623 -168.1
8.79238000 0.027640 -174.7 0.999590 -81.34 0.999590 -81.34 0.027637 -168.1
8.79239000 0.027654 -174.7 0.999589 -81.34 0.999589 -81.34 0.027650 -168.1
8.79240000 0.027667 -174.7 0.999589 -81.34 0.999589 -81.34 0.027664 -168.1
8.79241000 0.027681 -174.7 0.999588 -81.34 0.999588 -81.34 0.027677 -168.1
8.79242000 0.027694 -174.7 0.999588 -81.34 0.999588 -81.34 0.027691 -168.1
8.79243000 0.027708 -174.7 0.999588 -81.34 0.999588 -81.34 0.027704 -168.1
8.79244000 0.027721 -174.7 0.999587 -81.34 0.999587 -81.34 0.027718 -168.1
8.79245000 0.027735 -174.7 0.999587 -81.34 0.999587 -81.34 0.027731 -168.1
8.79246000 0.027749 -174.7 0.999586 -81.34 0.999586 -81.34 0.027745 -168.1
8.79247000 0.027762 -174.7 0.999586 -81.34 0.999586 -81.34 0.027759 -168.1
8.79248000 0.027776 -174.7 0.999585 -81.35 0.999585 -81.35 0.027772 -168.1
8.79249000 0.027790 -174.7 0.999585 -81.35 0.999585 -81.35 0.027786 -168.1
8.79250000 0.027804 -174.7 0.999585 -81.35 0.999585 -81.35 0.027800 -168.1
8.79251000 0.027817 -174.7 0.999584 -81.35 0.999584 -81.35 0.027814 -168.1
8.79252000 0.027831 -174.7 0.999584 -81.35 0.999584 -81.35 0.027827 -168.1
8.79253000 0.027845 -174.7 0.999583 -81.35 0.999583 -81.35 0.027841 -168.1
8.79254000 0.027859 -174.7 0.999583 -81.35 0.999583 -81.35 0.027855 -168.1
8.79255000 0.027873 -174.7 0.999582 -81.35 0.999582 -81.35 0.027869 -168.1
8.79256000 0.027887 -174.7 0.999582 -81.35 0.999582 -81.35 0.027883 -168.1
8.79257000 0.027901 -174.7 0.999582 -81.35 0.999582 -81.35 0.027897 -168.2
8.79258000 0.027915 -174.7 0.999581 -81.35 0.999581 -81.35 0.027911 -168.2
8.79259000 0.027929 -174.7 0.999581 -81.36 0.999581 -81.36 0.027925 -168.2
8.79260000 0.027943 -174.7 0.999580 -81.36 0.999580 -81.36 0.027939 -168.2
8.79261000 0.027957 -174.7 0.999580 -81.36 0.999580 -81.36 0.027953 -168.2
8.79262000 0.027971 -174.7 0.999579 -81.36 0.999579 -81.36 0.027967 -168.2
8.79263000 0.027985 -174.7 0.999579 -81.36 0.999579 -81.36 0.027981 -168.2
8.79264000 0.027999 -174.7 0.999578 -81.36 0.999578 -81.36 0.027995 -168.2
8.79265000 0.028013 -174.7 0.999578 -81.36 0.999578 -81.36 0.028009 -168.2
8.79266000 0.028027 -174.7 0.999578 -81.36 0.999578 -81.36 0.028023 -168.2
8.79267000 0.028041 -174.7 0.999577 -81.36 0.999577 -81.36 0.028038 -168.2
8.79268000 0.028056 -174.7 0.999577 -81.36 0.999577 -81.36 0.028052 -168.2
8.79269000 0.028070 -174.7 0.999576 -81.36 0.999576 -81.36 0.028066 -168.2
8.79270000 0.028084 -174.7 0.999576 -81.37 0.999576 -81.37 0.028080 -168.2
8.79271000 0.028098 -174.7 0.999575 -81.37 0.999575 -81.37 0.028095 -168.2
8.79272000 0.028113 -174.7 0.999575 -81.37 0.999575 -81.37 0.028109 -168.2
8.79273000 0.028127 -174.7 0.999574 -81.37 0.999574 -81.37 0.028123 -168.2
8.79274000 0.028142 -174.7 0.999574 -81.37 0.999574 -81.37 0.028138 -168.2
8.79275000 0.028156 -174.7 0.999574 -81.37 0.999574 -81.37 0.028152 -168.2
8.79276000 0.028170 -174.7 0.999573 -81.37 0.999573 -81.37 0.028167 -168.2
8.79277000 0.028185 -174.7 0.999573 -81.37 0.999573 -81.37 0.028181 -168.2
8.79278000 0.028199 -174.7 0.999572 -81.37 0.999572 -81.37 0.028196 -168.2
8.79279000 0.028214 -174.6 0.999572 -81.37 0.999572 -81.37 0.028210 -168.2
8.79280000 0.028229 -174.6 0.999571 -81.37 0.999571 -81.37 0.028225 -168.2
8.79281000 0.028243 -174.6 0.999571 -81.38 0.999571 -81.38 0.028239 -168.2
8.79282000 0.028258 -174.6 0.999570 -81.38 0.999570 -81.38 0.028254 -168.2
8.79283000 0.028272 -174.6 0.999570 -81.38 0.999570 -81.38 0.028268 -168.2
8.79284000 0.028287 -174.6 0.999569 -81.38 0.999569 -81.38 0.028283 -168.2
8.79285000 0.028302 -174.6 0.999569 -81.38 0.999569 -81.38 0.028298 -168.2
8.79286000 0.028316 -174.6 0.999568 -81.38 0.999568 -81.38 0.028313 -168.2
8.79287000 0.028331 -174.6 0.999568 -81.38 0.999568 -81.38 0.028327 -168.2
8.79288000 0.028346 -174.6 0.999567 -81.38 0.999567 -81.38 0.028342 -168.2
8.79289000 0.028361 -174.6 0.999567 -81.38 0.999567 -81.38 0.028357 -168.2
8.79290000 0.028376 -174.6 0.999567 -81.38 0.999567 -81.38 0.028372 -168.2
8.79291000 0.028391 -174.6 0.999566 -81.38 0.999566 -81.38 0.028387 -168.3
8.79292000 0.028405 -174.6 0.999566 -81.39 0.999566 -81.39 0.028402 -168.3
8.79293000 0.028420 -174.6 0.999565 -81.39 0.999565 -81.39 0.028416 -168.3
8.79294000 0.028435 -174.6 0.999565 -81.39 0.999565 -81.39 0.028431 -168.3
8.79295000 0.028450 -174.6 0.999564 -81.39 0.999564 -81.39 0.028446 -168.3
8.79296000 0.028465 -174.6 0.999564 -81.39 0.999564 -81.39 0.028461 -168.3
8.79297000 0.028480 -174.6 0.999563 -81.39 0.999563 -81.39 0.028476 -168.3
8.79298000 0.028496 -174.6 0.999563 -81.39 0.999563 -81.39 0.028492 -168.3
8.79299000 0.028511 -174.6 0.999562 -81.39 0.999562 -81.39 0.028507 -168.3
8.79300000 0.028526 -174.6 0.999562 -81.39 0.999562 -81.39 0.028522 -168.3
8.79301000 0.028541 -174.6 0.999561 -81.39 0.999561 -81.39 0.028537 -168.3
8.79302000 0.028556 -174.6 0.999561 -81.40 0.999561 -81.40 0.028552 -168.3
8.79303000 0.028571 -174.6 0.999560 -81.40 0.999560 -81.40 0.028567 -168.3
8.79304000 0.028587 -174.6 0.999560 -81.40 0.999560 -81.40 0.028583 -168.3
8.79305000 0.028602 -174.6 0.999559 -81.40 0.999559 -81.40 0.028598 -168.3
8.79306000 0.028617 -174.6 0.999559 -81.40 0.999559 -81.40 0.028613 -168.3
8.79307000 0.028633 -174.6 0.999558 -81.40 0.999558 -81.40 0.028629 -168.3
8.79308000 0.028648 -174.6 0.999558 -81.40 0.999558 -81.40 0.028644 -168.3
8.79309000 0.028663 -174.6 0.999557 -81.40 0.999557 -81.40 0.028659 -168.3
8.79310000 0.028679 -174.6 0.999557 -81.40 0.999557 -81.40 0.028675 -168.3
8.79311000 0.028694 -174.6 0.999556 -81.40 0.999556 -81.40 0.028690 -168.3
8.79312000 0.028710 -174.6 0.999556 -81.40 0.999556 -81.40 0.028706 -168.3
8.79313000 0.028725 -174.6 0.999555 -81.41 0.999555 -81.41 0.028721 -168.3
8.79314000 0.028741 -174.6 0.999555 -81.41 0.999555 -81.41 0.028737 -168.3
8.79315000 0.028757 -174.6 0.999554 -81.41 0.999554 -81.41 0.028752 -168.3
8.79316000 0.028772 -174.6 0.999554 -81.41 0.999554 -81.41 0.028768 -168.3
8.79317000 0.028788 -174.6 0.999553 -81.41 0.999553 -81.41 0.028784 -168.3
8.79318000 0.028804 -174.6 0.999553 -81.41 0.999553 -81.41 0.028799 -168.3
8.79319000 0.028819 -174.6 0.999552 -81.41 0.999552 -81.41 0.028815 -168.3
8.79320000 0.028835 -174.6 0.999552 -81.41 0.999552 -81.41 0.028831 -168.3
8.79321000 0.028851 -174.6 0.999551 -81.41 0.999551 -81.41 0.028847 -168.3
8.79322000 0.028867 -174.6 0.999551 -81.41 0.999551 -81.41 0.028863 -168.3
8.79323000 0.028882 -174.6 0.999550 -81.42 0.999550 -81.42 0.028878 -168.4
8.79324000 0.028898 -174.6 0.999550 -81.42 0.999550 -81.42 0.028894 -168.4
8.79325000 0.028914 -174.6 0.999549 -81.42 0.999549 -81.42 0.028910 -168.4
8.79326000 0.028930 -174.6 0.999549 -81.42 0.999549 -81.42 0.028926 -168.4
8.79327000 0.028946 -174.6 0.999548 -81.42 0.999548 -81.42 0.028942 -168.4
8.79328000 0.028962 -174.6 0.999548 -81.42 0.999548 -81.42 0.028958 -168.4
8.79329000 0.028978 -174.6 0.999547 -81.42 0.999547 -81.42 0.028974 -168.4
8.79330000 0.028994 -174.6 0.999546 -81.42 0.999546 -81.42 0.028990 -168.4
8.79331000 0.029010 -174.6 0.999546 -81.42 0.999546 -81.42 0.029006 -168.4
8.79332000 0.029027 -174.6 0.999545 -81.42 0.999545 -81.42 0.029022 -168.4
8.79333000 0.029043 -174.6 0.999545 -81.43 0.999545 -81.43 0.029039 -168.4
8.79334000 0.029059 -174.6 0.999544 -81.43 0.999544 -81.43 0.029055 -168.4
8.79335000 0.029075 -174.6 0.999544 -81.43 0.999544 -81.43 0.029071 -168.4
8.79336000 0.029091 -174.6 0.999543 -81.43 0.999543 -81.43 0.029087 -168.4
8.79337000 0.029108 -174.6 0.999543 -81.43 0.999543 -81.43 0.029104 -168.4
8.79338000 0.029124 -174.6 0.999542 -81.43 0.999542 -81.43 0.029120 -168.4
8.79339000 0.029141 -174.6 0.999542 -81.43 0.999542 -81.43 0.029136 -168.4
8.79340000 0.029157 -174.6 0.999541 -81.43 0.999541 -81.43 0.029153 -168.4
8.79341000 0.029173 -174.6 0.999541 -81.43 0.999541 -81.43 0.029169 -168.4
8.79342000 0.029190 -174.6 0.999540 -81.44 0.999540 -81.44 0.029186 -168.4
8.79343000 0.029206 -174.6 0.999539 -81.44 0.999539 -81.44 0.029202 -168.4
8.79344000 0.029223 -174.6 0.999539 -81.44 0.999539 -81.44 0.029219 -168.4
8.79345000 0.029239 -174.6 0.999538 -81.44 0.999538 -81.44 0.029235 -168.4
8.79346000 0.029256 -174.6 0.999538 -81.44 0.999538 -81.44 0.029252 -168.4
8.79347000 0.029273 -174.6 0.999537 -81.44 0.999537 -81.44 0.029268 -168.4
8.79348000 0.029289 -174.6 0.999537 -81.44 0.999537 -81.44 0.029285 -168.4
8.79349000 0.029306 -174.6 0.999536 -81.44 0.999536 -81.44 0.029302 -168.4
8.79350000 0.029323 -174.6 0.999536 -81.44 0.999536 -81.44 0.029319 -168.4
8.79351000 0.029340 -174.6 0.999535 -81.44 0.999535 -81.44 0.029335 -168.4
8.79352000 0.029357 -174.6 0.999535 -81.45 0.999535 -81.45 0.029352 -168.4
8.79353000 0.029373 -174.6 0.999534 -81.45 0.999534 -81.45 0.029369 -168.4
8.79354000 0.029390 -174.6 0.999533 -81.45 0.999533 -81.45 0.029386 -168.5
8.79355000 0.029407 -174.6 0.999533 -81.45 0.999533 -81.45 0.029403 -168.5
8.79356000 0.029424 -174.6 0.999532 -81.45 0.999532 -81.45 0.029420 -168.5
8.79357000 0.029441 -174.6 0.999532 -81.45 0.999532 -81.45 0.029437 -168.5
8.79358000 0.029458 -174.6 0.999531 -81.45 0.999531 -81.45 0.029454 -168.5
8.79359000 0.029475 -174.6 0.999531 -81.45 0.999531 -81.45 0.029471 -168.5
8.79360000 0.029492 -174.6 0.999530 -81.45 0.999530 -81.45 0.029488 -168.5
8.79361000 0.029509 -174.6 0.999529 -81.46 0.999529 -81.46 0.029505 -168.5
8.79362000 0.029527 -174.6 0.999529 -81.46 0.999529 -81.46 0.029522 -168.5
8.79363000 0.029544 -174.6 0.999528 -81.46 0.999528 -81.46 0.029540 -168.5
8.79364000 0.029561 -174.6 0.999528 -81.46 0.999528 -81.46 0.029557 -168.5
8.79365000 0.029578 -174.6 0.999527 -81.46 0.999527 -81.46 0.029574 -168.5
8.79366000 0.029596 -174.6 0.999527 -81.46 0.999527 -81.46 0.029591 -168.5
8.79367000 0.029613 -174.6 0.999526 -81.46 0.999526 -81.46 0.029609 -168.5
8.79368000 0.029630 -174.6 0.999525 -81.46 0.999525 -81.46 0.029626 -168.5
8.79369000 0.029648 -174.6 0.999525 -81.46 0.999525 -81.46 0.029644 -168.5
8.79370000 0.029665 -174.6 0.999524 -81.47 0.999524 -81.47 0.029661 -168.5
8.79371000 0.029683 -174.6 0.999524 -81.47 0.999524 -81.47 0.029678 -168.5
8.79372000 0.029700 -174.6 0.999523 -81.47 0.999523 -81.47 0.029696 -168.5
8.79373000 0.029718 -174.6 0.999522 -81.47 0.999522 -81.47 0.029714 -168.5
8.79374000 0.029736 -174.6 0.999522 -81.47 0.999522 -81.47 0.029731 -168.5
8.79375000 0.029753 -174.6 0.999521 -81.47 0.999521 -81.47 0.029749 -168.5
8.79376000 0.029771 -174.6 0.999521 -81.47 0.999521 -81.47 0.029767 -168.5
8.79377000 0.029789 -174.6 0.999520 -81.47 0.999520 -81.47 0.029784 -168.5
8.79378000 0.029806 -174.6 0.999519 -81.47 0.999519 -81.47 0.029802 -168.5
8.79379000 0.029824 -174.6 0.999519 -81.48 0.999519 -81.48 0.029820 -168.5
8.79380000 0.029842 -174.5 0.999518 -81.48 0.999518 -81.48 0.029838 -168.5
8.79381000 0.029860 -174.5 0.999518 -81.48 0.999518 -81.48 0.029856 -168.5
8.79382000 0.029878 -174.5 0.999517 -81.48 0.999517 -81.48 0.029873 -168.5
8.79383000 0.029896 -174.5 0.999516 -81.48 0.999516 -81.48 0.029891 -168.5
8.79384000 0.029914 -174.5 0.999516 -81.48 0.999516 -81.48 0.029909 -168.6
8.79385000 0.029932 -174.5 0.999515 -81.48 0.999515 -81.48 0.029927 -168.6
8.79386000 0.029950 -174.5 0.999515 -81.48 0.999515 -81.48 0.029946 -168.6
8.79387000 0.029968 -174.5 0.999514 -81.48 0.999514 -81.48 0.029964 -168.6
8.79388000 0.029986 -174.5 0.999513 -81.49 0.999513 -81.49 0.029982 -168.6
8.79389000 0.030004 -174.5 0.999513 -81.49 0.999513 -81.49 0.030000 -168.6
8.79390000 0.030023 -174.5 0.999512 -81.49 0.999512 -81.49 0.030018 -168.6
8.79391000 0.030041 -174.5 0.999511 -81.49 0.999511 -81.49 0.030036 -168.6
8.79392000 0.030059 -174.5 0.999511 -81.49 0.999511 -81.49 0.030055 -168.6