! Sonnet Data File
! From: emgraph Version : 16.52
! From Project: Qubit_Test_beforeopt
! Data is De-embedded 
! Data File Written: 10/18/2017 20:39:12
!< HDATE 10/18/2017 18:14:34
!< MDATE 10/18/2017 18:14:34
!< PARAMS
!< Lj = 11.0
!< Gap = 26.0
!< Pwid = 2000.0
!< Airgap = 18.0
!< Width = 30.0
!< END PARAMS
# GHZ S MA R 51.80000
8.79000000 0.030328 -171.0 0.999524 -80.92 0.999524 -80.92 0.030328 -170.9
!< P1 F=8.79 Eeff=(6.44477581 -3.0301e-5) Z0=(50.6167814 1.12757e-4) R=0.0 C=0.0 
!< P2 F=8.79 Eeff=(6.44477581 -3.0301e-5) Z0=(50.6167814 1.12757e-4) R=0.0 C=0.0 
8.79001000 0.030335 -171.0 0.999523 -80.92 0.999523 -80.92 0.030335 -170.9
8.79002000 0.030343 -171.0 0.999523 -80.92 0.999523 -80.92 0.030342 -170.9
8.79003000 0.030350 -171.0 0.999523 -80.92 0.999523 -80.92 0.030349 -170.9
8.79004000 0.030357 -171.0 0.999523 -80.92 0.999523 -80.92 0.030356 -170.9
8.79005000 0.030364 -171.0 0.999522 -80.92 0.999522 -80.92 0.030363 -170.9
8.79006000 0.030371 -171.0 0.999522 -80.92 0.999522 -80.92 0.030370 -170.9
8.79007000 0.030378 -171.0 0.999522 -80.92 0.999522 -80.92 0.030377 -170.9
8.79008000 0.030385 -171.0 0.999522 -80.92 0.999522 -80.92 0.030384 -170.9
8.79009000 0.030392 -171.0 0.999522 -80.92 0.999522 -80.92 0.030392 -170.9
8.79010000 0.030399 -171.0 0.999521 -80.92 0.999521 -80.92 0.030399 -170.9
8.79011000 0.030407 -171.0 0.999521 -80.92 0.999521 -80.92 0.030406 -170.9
8.79012000 0.030414 -171.0 0.999521 -80.92 0.999521 -80.92 0.030413 -170.9
8.79013000 0.030421 -171.0 0.999521 -80.92 0.999521 -80.92 0.030420 -170.9
8.79014000 0.030428 -171.0 0.999520 -80.92 0.999520 -80.92 0.030428 -170.9
8.79015000 0.030435 -171.0 0.999520 -80.92 0.999520 -80.92 0.030435 -170.9
8.79016000 0.030443 -171.0 0.999520 -80.92 0.999520 -80.92 0.030442 -170.9
8.79017000 0.030450 -171.0 0.999520 -80.92 0.999520 -80.92 0.030449 -170.9
8.79018000 0.030457 -171.0 0.999519 -80.92 0.999519 -80.92 0.030456 -170.9
8.79019000 0.030464 -171.0 0.999519 -80.92 0.999519 -80.92 0.030464 -170.9
8.79020000 0.030472 -171.0 0.999519 -80.93 0.999519 -80.93 0.030471 -170.9
8.79021000 0.030479 -171.0 0.999519 -80.93 0.999519 -80.93 0.030478 -170.9
8.79022000 0.030486 -171.0 0.999518 -80.93 0.999518 -80.93 0.030486 -170.9
8.79023000 0.030494 -171.0 0.999518 -80.93 0.999518 -80.93 0.030493 -170.9
8.79024000 0.030501 -171.0 0.999518 -80.93 0.999518 -80.93 0.030500 -170.9
8.79025000 0.030508 -171.0 0.999518 -80.93 0.999518 -80.93 0.030508 -170.9
8.79026000 0.030516 -171.0 0.999517 -80.93 0.999517 -80.93 0.030515 -170.9
8.79027000 0.030523 -171.0 0.999517 -80.93 0.999517 -80.93 0.030522 -170.9
8.79028000 0.030530 -171.0 0.999517 -80.93 0.999517 -80.93 0.030530 -170.9
8.79029000 0.030538 -171.0 0.999517 -80.93 0.999517 -80.93 0.030537 -170.9
8.79030000 0.030545 -171.0 0.999516 -80.93 0.999516 -80.93 0.030544 -170.9
8.79031000 0.030553 -171.0 0.999516 -80.93 0.999516 -80.93 0.030552 -170.9
8.79032000 0.030560 -171.0 0.999516 -80.93 0.999516 -80.93 0.030559 -170.9
8.79033000 0.030567 -171.0 0.999516 -80.93 0.999516 -80.93 0.030567 -170.9
8.79034000 0.030575 -171.0 0.999515 -80.93 0.999515 -80.93 0.030574 -170.9
8.79035000 0.030582 -171.0 0.999515 -80.93 0.999515 -80.93 0.030582 -170.9
8.79036000 0.030590 -171.0 0.999515 -80.93 0.999515 -80.93 0.030589 -170.9
8.79037000 0.030597 -171.0 0.999515 -80.93 0.999515 -80.93 0.030597 -170.9
8.79038000 0.030605 -171.0 0.999514 -80.93 0.999514 -80.93 0.030604 -170.9
8.79039000 0.030612 -171.0 0.999514 -80.94 0.999514 -80.94 0.030612 -170.9
8.79040000 0.030620 -171.0 0.999514 -80.94 0.999514 -80.94 0.030619 -170.9
8.79041000 0.030627 -171.0 0.999514 -80.94 0.999514 -80.94 0.030627 -170.9
8.79042000 0.030635 -171.0 0.999513 -80.94 0.999513 -80.94 0.030634 -170.9
8.79043000 0.030642 -171.0 0.999513 -80.94 0.999513 -80.94 0.030642 -170.9
8.79044000 0.030650 -171.0 0.999513 -80.94 0.999513 -80.94 0.030649 -170.9
8.79045000 0.030658 -171.0 0.999513 -80.94 0.999513 -80.94 0.030657 -170.9
8.79046000 0.030665 -171.0 0.999512 -80.94 0.999512 -80.94 0.030664 -170.9
8.79047000 0.030673 -171.0 0.999512 -80.94 0.999512 -80.94 0.030672 -170.9
8.79048000 0.030680 -171.0 0.999512 -80.94 0.999512 -80.94 0.030680 -170.9
8.79049000 0.030688 -171.0 0.999512 -80.94 0.999512 -80.94 0.030687 -171.0
8.79050000 0.030696 -171.0 0.999511 -80.94 0.999511 -80.94 0.030695 -171.0
8.79051000 0.030703 -171.0 0.999511 -80.94 0.999511 -80.94 0.030703 -171.0
8.79052000 0.030711 -171.0 0.999511 -80.94 0.999511 -80.94 0.030710 -171.0
8.79053000 0.030719 -171.0 0.999511 -80.94 0.999511 -80.94 0.030718 -171.0
8.79054000 0.030726 -171.0 0.999510 -80.94 0.999510 -80.94 0.030726 -171.0
8.79055000 0.030734 -171.0 0.999510 -80.94 0.999510 -80.94 0.030733 -171.0
8.79056000 0.030742 -171.0 0.999510 -80.94 0.999510 -80.94 0.030741 -171.0
8.79057000 0.030750 -171.0 0.999509 -80.94 0.999509 -80.94 0.030749 -171.0
8.79058000 0.030757 -171.0 0.999509 -80.95 0.999509 -80.95 0.030757 -171.0
8.79059000 0.030765 -171.0 0.999509 -80.95 0.999509 -80.95 0.030764 -171.0
8.79060000 0.030773 -171.0 0.999509 -80.95 0.999509 -80.95 0.030772 -171.0
8.79061000 0.030781 -171.0 0.999508 -80.95 0.999508 -80.95 0.030780 -171.0
8.79062000 0.030789 -171.0 0.999508 -80.95 0.999508 -80.95 0.030788 -171.0
8.79063000 0.030796 -171.0 0.999508 -80.95 0.999508 -80.95 0.030796 -171.0
8.79064000 0.030804 -171.0 0.999508 -80.95 0.999508 -80.95 0.030804 -171.0
8.79065000 0.030812 -171.0 0.999507 -80.95 0.999507 -80.95 0.030811 -171.0
8.79066000 0.030820 -171.0 0.999507 -80.95 0.999507 -80.95 0.030819 -171.0
8.79067000 0.030828 -171.0 0.999507 -80.95 0.999507 -80.95 0.030827 -171.0
8.79068000 0.030836 -171.0 0.999507 -80.95 0.999507 -80.95 0.030835 -171.0
8.79069000 0.030844 -171.0 0.999506 -80.95 0.999506 -80.95 0.030843 -171.0
8.79070000 0.030852 -171.0 0.999506 -80.95 0.999506 -80.95 0.030851 -171.0
8.79071000 0.030860 -171.0 0.999506 -80.95 0.999506 -80.95 0.030859 -171.0
8.79072000 0.030867 -171.0 0.999505 -80.95 0.999505 -80.95 0.030867 -171.0
8.79073000 0.030875 -171.0 0.999505 -80.95 0.999505 -80.95 0.030875 -171.0
8.79074000 0.030883 -171.0 0.999505 -80.95 0.999505 -80.95 0.030883 -171.0
8.79075000 0.030891 -171.0 0.999505 -80.95 0.999505 -80.95 0.030891 -171.0
8.79076000 0.030899 -171.0 0.999504 -80.96 0.999504 -80.96 0.030899 -171.0
8.79077000 0.030907 -171.0 0.999504 -80.96 0.999504 -80.96 0.030907 -171.0
8.79078000 0.030915 -171.0 0.999504 -80.96 0.999504 -80.96 0.030915 -171.0
8.79079000 0.030924 -171.0 0.999504 -80.96 0.999504 -80.96 0.030923 -171.0
8.79080000 0.030932 -171.0 0.999503 -80.96 0.999503 -80.96 0.030931 -171.0
8.79081000 0.030940 -171.0 0.999503 -80.96 0.999503 -80.96 0.030939 -171.0
8.79082000 0.030948 -171.0 0.999503 -80.96 0.999503 -80.96 0.030947 -171.0
8.79083000 0.030956 -171.0 0.999502 -80.96 0.999502 -80.96 0.030955 -171.0
8.79084000 0.030964 -171.0 0.999502 -80.96 0.999502 -80.96 0.030963 -171.0
8.79085000 0.030972 -171.0 0.999502 -80.96 0.999502 -80.96 0.030971 -171.0
8.79086000 0.030980 -171.0 0.999502 -80.96 0.999502 -80.96 0.030980 -171.0
8.79087000 0.030988 -171.0 0.999501 -80.96 0.999501 -80.96 0.030988 -171.0
8.79088000 0.030997 -171.0 0.999501 -80.96 0.999501 -80.96 0.030996 -171.0
8.79089000 0.031005 -171.0 0.999501 -80.96 0.999501 -80.96 0.031004 -171.0
8.79090000 0.031013 -171.0 0.999500 -80.96 0.999500 -80.96 0.031012 -171.0
8.79091000 0.031021 -171.0 0.999500 -80.96 0.999500 -80.96 0.031020 -171.0
8.79092000 0.031029 -171.0 0.999500 -80.96 0.999500 -80.96 0.031029 -171.0
8.79093000 0.031038 -171.0 0.999500 -80.96 0.999500 -80.96 0.031037 -171.0
8.79094000 0.031046 -171.0 0.999499 -80.97 0.999499 -80.97 0.031045 -171.0
8.79095000 0.031054 -171.0 0.999499 -80.97 0.999499 -80.97 0.031053 -171.0
8.79096000 0.031063 -171.0 0.999499 -80.97 0.999499 -80.97 0.031062 -171.0
8.79097000 0.031071 -171.0 0.999498 -80.97 0.999498 -80.97 0.031070 -171.0
8.79098000 0.031079 -171.0 0.999498 -80.97 0.999498 -80.97 0.031078 -171.0
8.79099000 0.031088 -171.0 0.999498 -80.97 0.999498 -80.97 0.031087 -171.0
8.79100000 0.031096 -171.0 0.999498 -80.97 0.999498 -80.97 0.031095 -171.0
8.79101000 0.031104 -171.0 0.999497 -80.97 0.999497 -80.97 0.031103 -171.0
8.79102000 0.031113 -171.0 0.999497 -80.97 0.999497 -80.97 0.031112 -171.0
8.79103000 0.031121 -171.0 0.999497 -80.97 0.999497 -80.97 0.031120 -171.0
8.79104000 0.031129 -171.0 0.999496 -80.97 0.999496 -80.97 0.031129 -171.0
8.79105000 0.031138 -171.0 0.999496 -80.97 0.999496 -80.97 0.031137 -171.0
8.79106000 0.031146 -171.0 0.999496 -80.97 0.999496 -80.97 0.031146 -171.0
8.79107000 0.031155 -171.0 0.999496 -80.97 0.999496 -80.97 0.031154 -171.0
8.79108000 0.031163 -171.0 0.999495 -80.97 0.999495 -80.97 0.031162 -171.0
8.79109000 0.031172 -171.0 0.999495 -80.97 0.999495 -80.97 0.031171 -171.0
8.79110000 0.031180 -171.0 0.999495 -80.97 0.999495 -80.97 0.031179 -171.0
8.79111000 0.031189 -171.0 0.999494 -80.97 0.999494 -80.97 0.031188 -171.0
8.79112000 0.031197 -171.0 0.999494 -80.98 0.999494 -80.98 0.031197 -171.0
8.79113000 0.031206 -171.0 0.999494 -80.98 0.999494 -80.98 0.031205 -171.0
8.79114000 0.031214 -171.0 0.999494 -80.98 0.999494 -80.98 0.031214 -171.0
8.79115000 0.031223 -171.0 0.999493 -80.98 0.999493 -80.98 0.031222 -171.0
8.79116000 0.031232 -171.0 0.999493 -80.98 0.999493 -80.98 0.031231 -171.0
8.79117000 0.031240 -171.0 0.999493 -80.98 0.999493 -80.98 0.031239 -171.0
8.79118000 0.031249 -171.0 0.999492 -80.98 0.999492 -80.98 0.031248 -171.0
8.79119000 0.031257 -171.0 0.999492 -80.98 0.999492 -80.98 0.031257 -171.0
8.79120000 0.031266 -171.0 0.999492 -80.98 0.999492 -80.98 0.031265 -171.0
8.79121000 0.031275 -171.0 0.999491 -80.98 0.999491 -80.98 0.031274 -171.0
8.79122000 0.031283 -171.0 0.999491 -80.98 0.999491 -80.98 0.031283 -171.0
8.79123000 0.031292 -171.0 0.999491 -80.98 0.999491 -80.98 0.031291 -171.0
8.79124000 0.031301 -171.0 0.999491 -80.98 0.999491 -80.98 0.031300 -171.0
8.79125000 0.031310 -171.0 0.999490 -80.98 0.999490 -80.98 0.031309 -171.0
8.79126000 0.031318 -171.0 0.999490 -80.98 0.999490 -80.98 0.031318 -171.0
8.79127000 0.031327 -171.0 0.999490 -80.98 0.999490 -80.98 0.031326 -171.0
8.79128000 0.031336 -171.0 0.999489 -80.98 0.999489 -80.98 0.031335 -171.0
8.79129000 0.031345 -171.0 0.999489 -80.99 0.999489 -80.99 0.031344 -171.0
8.79130000 0.031354 -171.0 0.999489 -80.99 0.999489 -80.99 0.031353 -171.0
8.79131000 0.031362 -171.0 0.999488 -80.99 0.999488 -80.99 0.031362 -171.0
8.79132000 0.031371 -171.0 0.999488 -80.99 0.999488 -80.99 0.031370 -171.0
8.79133000 0.031380 -171.0 0.999488 -80.99 0.999488 -80.99 0.031379 -171.0
8.79134000 0.031389 -171.0 0.999487 -80.99 0.999487 -80.99 0.031388 -171.0
8.79135000 0.031398 -171.0 0.999487 -80.99 0.999487 -80.99 0.031397 -171.0
8.79136000 0.031407 -171.0 0.999487 -80.99 0.999487 -80.99 0.031406 -171.0
8.79137000 0.031416 -171.0 0.999487 -80.99 0.999487 -80.99 0.031415 -171.0
8.79138000 0.031425 -171.0 0.999486 -80.99 0.999486 -80.99 0.031424 -171.0
8.79139000 0.031434 -171.0 0.999486 -80.99 0.999486 -80.99 0.031433 -171.0
8.79140000 0.031443 -171.0 0.999486 -80.99 0.999486 -80.99 0.031442 -171.0
8.79141000 0.031452 -171.0 0.999485 -80.99 0.999485 -80.99 0.031451 -171.0
8.79142000 0.031461 -171.0 0.999485 -80.99 0.999485 -80.99 0.031460 -171.0
8.79143000 0.031470 -171.0 0.999485 -80.99 0.999485 -80.99 0.031469 -171.0
8.79144000 0.031479 -171.0 0.999484 -80.99 0.999484 -80.99 0.031478 -171.0
8.79145000 0.031488 -171.0 0.999484 -81.00 0.999484 -81.00 0.031487 -171.0
8.79146000 0.031497 -171.0 0.999484 -81.00 0.999484 -81.00 0.031496 -171.0
8.79147000 0.031506 -171.0 0.999483 -81.00 0.999483 -81.00 0.031505 -171.0
8.79148000 0.031515 -171.0 0.999483 -81.00 0.999483 -81.00 0.031514 -171.0
8.79149000 0.031524 -171.0 0.999483 -81.00 0.999483 -81.00 0.031523 -171.0
8.79150000 0.031533 -171.0 0.999482 -81.00 0.999482 -81.00 0.031533 -171.1
8.79151000 0.031543 -171.0 0.999482 -81.00 0.999482 -81.00 0.031542 -171.1
8.79152000 0.031552 -171.0 0.999482 -81.00 0.999482 -81.00 0.031551 -171.1
8.79153000 0.031561 -171.0 0.999481 -81.00 0.999481 -81.00 0.031560 -171.1
8.79154000 0.031570 -171.0 0.999481 -81.00 0.999481 -81.00 0.031569 -171.1
8.79155000 0.031579 -171.0 0.999481 -81.00 0.999481 -81.00 0.031579 -171.1
8.79156000 0.031589 -171.0 0.999480 -81.00 0.999480 -81.00 0.031588 -171.1
8.79157000 0.031598 -171.0 0.999480 -81.00 0.999480 -81.00 0.031597 -171.1
8.79158000 0.031607 -171.0 0.999480 -81.00 0.999480 -81.00 0.031606 -171.1
8.79159000 0.031617 -171.0 0.999480 -81.00 0.999480 -81.00 0.031616 -171.1
8.79160000 0.031626 -171.0 0.999479 -81.00 0.999479 -81.00 0.031625 -171.1
8.79161000 0.031635 -171.0 0.999479 -81.00 0.999479 -81.00 0.031634 -171.1
8.79162000 0.031645 -171.0 0.999479 -81.01 0.999479 -81.01 0.031644 -171.1
8.79163000 0.031654 -171.0 0.999478 -81.01 0.999478 -81.01 0.031653 -171.1
8.79164000 0.031663 -171.0 0.999478 -81.01 0.999478 -81.01 0.031663 -171.1
8.79165000 0.031673 -171.0 0.999478 -81.01 0.999478 -81.01 0.031672 -171.1
8.79166000 0.031682 -171.0 0.999477 -81.01 0.999477 -81.01 0.031681 -171.1
8.79167000 0.031692 -171.0 0.999477 -81.01 0.999477 -81.01 0.031691 -171.1
8.79168000 0.031701 -171.0 0.999477 -81.01 0.999477 -81.01 0.031700 -171.1
8.79169000 0.031711 -171.0 0.999476 -81.01 0.999476 -81.01 0.031710 -171.1
8.79170000 0.031720 -171.0 0.999476 -81.01 0.999476 -81.01 0.031719 -171.1
8.79171000 0.031730 -171.0 0.999476 -81.01 0.999476 -81.01 0.031729 -171.1
8.79172000 0.031739 -171.0 0.999475 -81.01 0.999475 -81.01 0.031738 -171.1
8.79173000 0.031749 -171.0 0.999475 -81.01 0.999475 -81.01 0.031748 -171.1
8.79174000 0.031758 -171.0 0.999475 -81.01 0.999475 -81.01 0.031758 -171.1
8.79175000 0.031768 -171.0 0.999474 -81.01 0.999474 -81.01 0.031767 -171.1
8.79176000 0.031778 -171.0 0.999474 -81.01 0.999474 -81.01 0.031777 -171.1
8.79177000 0.031787 -171.0 0.999473 -81.02 0.999473 -81.02 0.031786 -171.1
8.79178000 0.031797 -171.0 0.999473 -81.02 0.999473 -81.02 0.031796 -171.1
8.79179000 0.031807 -171.0 0.999473 -81.02 0.999473 -81.02 0.031806 -171.1
8.79180000 0.031816 -171.0 0.999472 -81.02 0.999472 -81.02 0.031815 -171.1
8.79181000 0.031826 -171.0 0.999472 -81.02 0.999472 -81.02 0.031825 -171.1
8.79182000 0.031836 -171.0 0.999472 -81.02 0.999472 -81.02 0.031835 -171.1
8.79183000 0.031845 -171.0 0.999471 -81.02 0.999471 -81.02 0.031845 -171.1
8.79184000 0.031855 -171.0 0.999471 -81.02 0.999471 -81.02 0.031854 -171.1
8.79185000 0.031865 -171.0 0.999471 -81.02 0.999471 -81.02 0.031864 -171.1
8.79186000 0.031875 -171.0 0.999470 -81.02 0.999470 -81.02 0.031874 -171.1
8.79187000 0.031885 -171.0 0.999470 -81.02 0.999470 -81.02 0.031884 -171.1
8.79188000 0.031894 -171.0 0.999470 -81.02 0.999470 -81.02 0.031894 -171.1
8.79189000 0.031904 -171.0 0.999469 -81.02 0.999469 -81.02 0.031903 -171.1
8.79190000 0.031914 -171.0 0.999469 -81.02 0.999469 -81.02 0.031913 -171.1
8.79191000 0.031924 -171.0 0.999469 -81.02 0.999469 -81.02 0.031923 -171.1
8.79192000 0.031934 -171.0 0.999468 -81.02 0.999468 -81.02 0.031933 -171.1
8.79193000 0.031944 -171.0 0.999468 -81.03 0.999468 -81.03 0.031943 -171.1
8.79194000 0.031954 -171.0 0.999468 -81.03 0.999468 -81.03 0.031953 -171.1
8.79195000 0.031964 -171.0 0.999467 -81.03 0.999467 -81.03 0.031963 -171.1
8.79196000 0.031974 -171.0 0.999467 -81.03 0.999467 -81.03 0.031973 -171.1
8.79197000 0.031984 -171.0 0.999467 -81.03 0.999467 -81.03 0.031983 -171.1
8.79198000 0.031994 -171.0 0.999466 -81.03 0.999466 -81.03 0.031993 -171.1
8.79199000 0.032004 -171.0 0.999466 -81.03 0.999466 -81.03 0.032003 -171.1
8.79200000 0.032014 -171.0 0.999465 -81.03 0.999465 -81.03 0.032013 -171.1
8.79201000 0.032024 -171.0 0.999465 -81.03 0.999465 -81.03 0.032023 -171.1
8.79202000 0.032034 -171.0 0.999465 -81.03 0.999465 -81.03 0.032033 -171.1
8.79203000 0.032044 -171.0 0.999464 -81.03 0.999464 -81.03 0.032043 -171.1
8.79204000 0.032055 -171.0 0.999464 -81.03 0.999464 -81.03 0.032054 -171.1
8.79205000 0.032065 -171.0 0.999464 -81.03 0.999464 -81.03 0.032064 -171.1
8.79206000 0.032075 -171.0 0.999463 -81.03 0.999463 -81.03 0.032074 -171.1
8.79207000 0.032085 -171.0 0.999463 -81.03 0.999463 -81.03 0.032084 -171.1
8.79208000 0.032095 -171.0 0.999463 -81.04 0.999463 -81.04 0.032094 -171.1
8.79209000 0.032106 -171.0 0.999462 -81.04 0.999462 -81.04 0.032105 -171.1
8.79210000 0.032116 -171.0 0.999462 -81.04 0.999462 -81.04 0.032115 -171.1
8.79211000 0.032126 -171.0 0.999461 -81.04 0.999461 -81.04 0.032125 -171.1
8.79212000 0.032136 -171.0 0.999461 -81.04 0.999461 -81.04 0.032136 -171.1
8.79213000 0.032147 -171.0 0.999461 -81.04 0.999461 -81.04 0.032146 -171.1
8.79214000 0.032157 -171.0 0.999460 -81.04 0.999460 -81.04 0.032156 -171.1
8.79215000 0.032168 -171.0 0.999460 -81.04 0.999460 -81.04 0.032167 -171.1
8.79216000 0.032178 -171.0 0.999460 -81.04 0.999460 -81.04 0.032177 -171.1
8.79217000 0.032188 -171.0 0.999459 -81.04 0.999459 -81.04 0.032187 -171.1
8.79218000 0.032199 -171.0 0.999459 -81.04 0.999459 -81.04 0.032198 -171.1
8.79219000 0.032209 -171.0 0.999458 -81.04 0.999458 -81.04 0.032208 -171.1
8.79220000 0.032220 -171.0 0.999458 -81.04 0.999458 -81.04 0.032219 -171.1
8.79221000 0.032230 -171.0 0.999458 -81.04 0.999458 -81.04 0.032229 -171.1
8.79222000 0.032241 -171.0 0.999457 -81.05 0.999457 -81.05 0.032240 -171.1
8.79223000 0.032251 -171.0 0.999457 -81.05 0.999457 -81.05 0.032250 -171.1
8.79224000 0.032262 -171.0 0.999457 -81.05 0.999457 -81.05 0.032261 -171.1
8.79225000 0.032272 -171.0 0.999456 -81.05 0.999456 -81.05 0.032272 -171.1
8.79226000 0.032283 -171.0 0.999456 -81.05 0.999456 -81.05 0.032282 -171.1
8.79227000 0.032294 -171.0 0.999455 -81.05 0.999455 -81.05 0.032293 -171.1
8.79228000 0.032304 -171.0 0.999455 -81.05 0.999455 -81.05 0.032303 -171.1
8.79229000 0.032315 -171.0 0.999455 -81.05 0.999455 -81.05 0.032314 -171.1
8.79230000 0.032326 -171.0 0.999454 -81.05 0.999454 -81.05 0.032325 -171.1
8.79231000 0.032336 -171.0 0.999454 -81.05 0.999454 -81.05 0.032336 -171.1
8.79232000 0.032347 -171.0 0.999453 -81.05 0.999453 -81.05 0.032346 -171.1
8.79233000 0.032358 -171.0 0.999453 -81.05 0.999453 -81.05 0.032357 -171.1
8.79234000 0.032369 -171.0 0.999453 -81.05 0.999453 -81.05 0.032368 -171.1
8.79235000 0.032380 -171.0 0.999452 -81.05 0.999452 -81.05 0.032379 -171.1
8.79236000 0.032390 -171.0 0.999452 -81.06 0.999452 -81.06 0.032389 -171.1
8.79237000 0.032401 -171.0 0.999452 -81.06 0.999452 -81.06 0.032400 -171.1
8.79238000 0.032412 -171.0 0.999451 -81.06 0.999451 -81.06 0.032411 -171.2
8.79239000 0.032423 -171.0 0.999451 -81.06 0.999451 -81.06 0.032422 -171.2
8.79240000 0.032434 -171.0 0.999450 -81.06 0.999450 -81.06 0.032433 -171.2
8.79241000 0.032445 -171.0 0.999450 -81.06 0.999450 -81.06 0.032444 -171.2
8.79242000 0.032456 -171.0 0.999450 -81.06 0.999450 -81.06 0.032455 -171.2
8.79243000 0.032467 -171.0 0.999449 -81.06 0.999449 -81.06 0.032466 -171.2
8.79244000 0.032478 -171.0 0.999449 -81.06 0.999449 -81.06 0.032477 -171.2
8.79245000 0.032489 -171.0 0.999448 -81.06 0.999448 -81.06 0.032488 -171.2
8.79246000 0.032500 -171.0 0.999448 -81.06 0.999448 -81.06 0.032499 -171.2
8.79247000 0.032511 -171.0 0.999448 -81.06 0.999448 -81.06 0.032510 -171.2
8.79248000 0.032522 -171.0 0.999447 -81.06 0.999447 -81.06 0.032521 -171.2
8.79249000 0.032533 -171.0 0.999447 -81.06 0.999447 -81.06 0.032532 -171.2
8.79250000 0.032544 -171.0 0.999446 -81.07 0.999446 -81.07 0.032543 -171.2
8.79251000 0.032555 -171.0 0.999446 -81.07 0.999446 -81.07 0.032554 -171.2
8.79252000 0.032567 -171.0 0.999446 -81.07 0.999446 -81.07 0.032566 -171.2
8.79253000 0.032578 -171.0 0.999445 -81.07 0.999445 -81.07 0.032577 -171.2
8.79254000 0.032589 -171.0 0.999445 -81.07 0.999445 -81.07 0.032588 -171.2
8.79255000 0.032600 -171.0 0.999444 -81.07 0.999444 -81.07 0.032599 -171.2
8.79256000 0.032612 -171.0 0.999444 -81.07 0.999444 -81.07 0.032611 -171.2
8.79257000 0.032623 -171.0 0.999443 -81.07 0.999443 -81.07 0.032622 -171.2
8.79258000 0.032634 -171.0 0.999443 -81.07 0.999443 -81.07 0.032633 -171.2
8.79259000 0.032646 -171.0 0.999443 -81.07 0.999443 -81.07 0.032645 -171.2
8.79260000 0.032657 -171.0 0.999442 -81.07 0.999442 -81.07 0.032656 -171.2
8.79261000 0.032668 -171.0 0.999442 -81.07 0.999442 -81.07 0.032667 -171.2
8.79262000 0.032680 -171.0 0.999441 -81.07 0.999441 -81.07 0.032679 -171.2
8.79263000 0.032691 -171.0 0.999441 -81.07 0.999441 -81.07 0.032690 -171.2
8.79264000 0.032703 -171.0 0.999441 -81.08 0.999441 -81.08 0.032702 -171.2
8.79265000 0.032714 -171.1 0.999440 -81.08 0.999440 -81.08 0.032713 -171.2
8.79266000 0.032726 -171.1 0.999440 -81.08 0.999440 -81.08 0.032725 -171.2
8.79267000 0.032737 -171.1 0.999439 -81.08 0.999439 -81.08 0.032736 -171.2
8.79268000 0.032749 -171.1 0.999439 -81.08 0.999439 -81.08 0.032748 -171.2
8.79269000 0.032760 -171.1 0.999438 -81.08 0.999438 -81.08 0.032759 -171.2
8.79270000 0.032772 -171.1 0.999438 -81.08 0.999438 -81.08 0.032771 -171.2
8.79271000 0.032784 -171.1 0.999438 -81.08 0.999438 -81.08 0.032783 -171.2
8.79272000 0.032795 -171.1 0.999437 -81.08 0.999437 -81.08 0.032794 -171.2
8.79273000 0.032807 -171.1 0.999437 -81.08 0.999437 -81.08 0.032806 -171.2
8.79274000 0.032819 -171.1 0.999436 -81.08 0.999436 -81.08 0.032818 -171.2
8.79275000 0.032830 -171.1 0.999436 -81.08 0.999436 -81.08 0.032829 -171.2
8.79276000 0.032842 -171.1 0.999435 -81.08 0.999435 -81.08 0.032841 -171.2
8.79277000 0.032854 -171.1 0.999435 -81.09 0.999435 -81.09 0.032853 -171.2
8.79278000 0.032866 -171.1 0.999435 -81.09 0.999435 -81.09 0.032865 -171.2
8.79279000 0.032878 -171.1 0.999434 -81.09 0.999434 -81.09 0.032877 -171.2
8.79280000 0.032890 -171.1 0.999434 -81.09 0.999434 -81.09 0.032889 -171.2
8.79281000 0.032901 -171.1 0.999433 -81.09 0.999433 -81.09 0.032900 -171.2
8.79282000 0.032913 -171.1 0.999433 -81.09 0.999433 -81.09 0.032912 -171.2
8.79283000 0.032925 -171.1 0.999432 -81.09 0.999432 -81.09 0.032924 -171.2
8.79284000 0.032937 -171.1 0.999432 -81.09 0.999432 -81.09 0.032936 -171.2
8.79285000 0.032949 -171.1 0.999431 -81.09 0.999431 -81.09 0.032948 -171.2
8.79286000 0.032961 -171.1 0.999431 -81.09 0.999431 -81.09 0.032960 -171.2
8.79287000 0.032973 -171.1 0.999431 -81.09 0.999431 -81.09 0.032972 -171.2
8.79288000 0.032985 -171.1 0.999430 -81.09 0.999430 -81.09 0.032984 -171.2
8.79289000 0.032997 -171.1 0.999430 -81.09 0.999430 -81.09 0.032996 -171.2
8.79290000 0.033010 -171.1 0.999429 -81.10 0.999429 -81.10 0.033009 -171.2
8.79291000 0.033022 -171.1 0.999429 -81.10 0.999429 -81.10 0.033021 -171.2
8.79292000 0.033034 -171.1 0.999428 -81.10 0.999428 -81.10 0.033033 -171.2
8.79293000 0.033046 -171.1 0.999428 -81.10 0.999428 -81.10 0.033045 -171.2
8.79294000 0.033058 -171.1 0.999427 -81.10 0.999427 -81.10 0.033057 -171.2
8.79295000 0.033071 -171.1 0.999427 -81.10 0.999427 -81.10 0.033070 -171.2
8.79296000 0.033083 -171.1 0.999427 -81.10 0.999427 -81.10 0.033082 -171.2
8.79297000 0.033095 -171.1 0.999426 -81.10 0.999426 -81.10 0.033094 -171.2
8.79298000 0.033107 -171.1 0.999426 -81.10 0.999426 -81.10 0.033106 -171.2
8.79299000 0.033120 -171.1 0.999425 -81.10 0.999425 -81.10 0.033119 -171.2
8.79300000 0.033132 -171.1 0.999425 -81.10 0.999425 -81.10 0.033131 -171.2
8.79301000 0.033145 -171.1 0.999424 -81.10 0.999424 -81.10 0.033144 -171.2
8.79302000 0.033157 -171.1 0.999424 -81.11 0.999424 -81.11 0.033156 -171.2
8.79303000 0.033170 -171.1 0.999423 -81.11 0.999423 -81.11 0.033169 -171.2
8.79304000 0.033182 -171.1 0.999423 -81.11 0.999423 -81.11 0.033181 -171.2
8.79305000 0.033195 -171.1 0.999422 -81.11 0.999422 -81.11 0.033194 -171.2
8.79306000 0.033207 -171.1 0.999422 -81.11 0.999422 -81.11 0.033206 -171.2
8.79307000 0.033220 -171.1 0.999421 -81.11 0.999421 -81.11 0.033219 -171.2
8.79308000 0.033232 -171.1 0.999421 -81.11 0.999421 -81.11 0.033231 -171.2
8.79309000 0.033245 -171.1 0.999420 -81.11 0.999420 -81.11 0.033244 -171.2
8.79310000 0.033258 -171.1 0.999420 -81.11 0.999420 -81.11 0.033257 -171.2
8.79311000 0.033270 -171.1 0.999420 -81.11 0.999420 -81.11 0.033269 -171.2
8.79312000 0.033283 -171.1 0.999419 -81.11 0.999419 -81.11 0.033282 -171.2
8.79313000 0.033296 -171.1 0.999419 -81.11 0.999419 -81.11 0.033295 -171.2
8.79314000 0.033309 -171.1 0.999418 -81.11 0.999418 -81.11 0.033307 -171.3
8.79315000 0.033321 -171.1 0.999418 -81.12 0.999418 -81.12 0.033320 -171.3
8.79316000 0.033334 -171.1 0.999417 -81.12 0.999417 -81.12 0.033333 -171.3
8.79317000 0.033347 -171.1 0.999417 -81.12 0.999417 -81.12 0.033346 -171.3
8.79318000 0.033360 -171.1 0.999416 -81.12 0.999416 -81.12 0.033359 -171.3
8.79319000 0.033373 -171.1 0.999416 -81.12 0.999416 -81.12 0.033372 -171.3
8.79320000 0.033386 -171.1 0.999415 -81.12 0.999415 -81.12 0.033385 -171.3
8.79321000 0.033399 -171.1 0.999415 -81.12 0.999415 -81.12 0.033398 -171.3
8.79322000 0.033412 -171.1 0.999414 -81.12 0.999414 -81.12 0.033411 -171.3
8.79323000 0.033425 -171.1 0.999414 -81.12 0.999414 -81.12 0.033424 -171.3
8.79324000 0.033438 -171.1 0.999413 -81.12 0.999413 -81.12 0.033437 -171.3
8.79325000 0.033451 -171.1 0.999413 -81.12 0.999413 -81.12 0.033450 -171.3
8.79326000 0.033464 -171.1 0.999412 -81.12 0.999412 -81.12 0.033463 -171.3
8.79327000 0.033477 -171.1 0.999412 -81.13 0.999412 -81.13 0.033476 -171.3
8.79328000 0.033490 -171.1 0.999411 -81.13 0.999411 -81.13 0.033489 -171.3
8.79329000 0.033504 -171.1 0.999411 -81.13 0.999411 -81.13 0.033502 -171.3
8.79330000 0.033517 -171.1 0.999410 -81.13 0.999410 -81.13 0.033516 -171.3
8.79331000 0.033530 -171.1 0.999410 -81.13 0.999410 -81.13 0.033529 -171.3
8.79332000 0.033543 -171.1 0.999409 -81.13 0.999409 -81.13 0.033542 -171.3
8.79333000 0.033557 -171.1 0.999409 -81.13 0.999409 -81.13 0.033556 -171.3
8.79334000 0.033570 -171.1 0.999408 -81.13 0.999408 -81.13 0.033569 -171.3
8.79335000 0.033583 -171.1 0.999408 -81.13 0.999408 -81.13 0.033582 -171.3
8.79336000 0.033597 -171.1 0.999407 -81.13 0.999407 -81.13 0.033596 -171.3
8.79337000 0.033610 -171.1 0.999407 -81.13 0.999407 -81.13 0.033609 -171.3
8.79338000 0.033624 -171.1 0.999406 -81.14 0.999406 -81.14 0.033623 -171.3
8.79339000 0.033637 -171.1 0.999406 -81.14 0.999406 -81.14 0.033636 -171.3
8.79340000 0.033651 -171.1 0.999405 -81.14 0.999405 -81.14 0.033650 -171.3
8.79341000 0.033664 -171.1 0.999405 -81.14 0.999405 -81.14 0.033663 -171.3
8.79342000 0.033678 -171.1 0.999404 -81.14 0.999404 -81.14 0.033677 -171.3
8.79343000 0.033692 -171.1 0.999404 -81.14 0.999404 -81.14 0.033691 -171.3
8.79344000 0.033705 -171.1 0.999403 -81.14 0.999403 -81.14 0.033704 -171.3
8.79345000 0.033719 -171.1 0.999403 -81.14 0.999403 -81.14 0.033718 -171.3
8.79346000 0.033733 -171.1 0.999402 -81.14 0.999402 -81.14 0.033732 -171.3
8.79347000 0.033746 -171.1 0.999402 -81.14 0.999402 -81.14 0.033745 -171.3
8.79348000 0.033760 -171.1 0.999401 -81.14 0.999401 -81.14 0.033759 -171.3
8.79349000 0.033774 -171.1 0.999401 -81.14 0.999401 -81.14 0.033773 -171.3
8.79350000 0.033788 -171.1 0.999400 -81.15 0.999400 -81.15 0.033787 -171.3
8.79351000 0.033802 -171.1 0.999399 -81.15 0.999399 -81.15 0.033801 -171.3
8.79352000 0.033816 -171.1 0.999399 -81.15 0.999399 -81.15 0.033815 -171.3
8.79353000 0.033830 -171.1 0.999398 -81.15 0.999398 -81.15 0.033829 -171.3
8.79354000 0.033844 -171.1 0.999398 -81.15 0.999398 -81.15 0.033843 -171.3
8.79355000 0.033858 -171.1 0.999397 -81.15 0.999397 -81.15 0.033857 -171.3
8.79356000 0.033872 -171.1 0.999397 -81.15 0.999397 -81.15 0.033871 -171.3
8.79357000 0.033886 -171.1 0.999396 -81.15 0.999396 -81.15 0.033885 -171.3
8.79358000 0.033900 -171.1 0.999396 -81.15 0.999396 -81.15 0.033899 -171.3
8.79359000 0.033914 -171.1 0.999395 -81.15 0.999395 -81.15 0.033913 -171.3
8.79360000 0.033928 -171.1 0.999395 -81.15 0.999395 -81.15 0.033927 -171.3
8.79361000 0.033942 -171.1 0.999394 -81.16 0.999394 -81.16 0.033941 -171.3
8.79362000 0.033957 -171.1 0.999394 -81.16 0.999394 -81.16 0.033956 -171.3
8.79363000 0.033971 -171.1 0.999393 -81.16 0.999393 -81.16 0.033970 -171.3
8.79364000 0.033985 -171.1 0.999392 -81.16 0.999392 -81.16 0.033984 -171.3
8.79365000 0.034000 -171.1 0.999392 -81.16 0.999392 -81.16 0.033998 -171.3
8.79366000 0.034014 -171.1 0.999391 -81.16 0.999391 -81.16 0.034013 -171.3
8.79367000 0.034028 -171.1 0.999391 -81.16 0.999391 -81.16 0.034027 -171.3
8.79368000 0.034043 -171.1 0.999390 -81.16 0.999390 -81.16 0.034042 -171.3
8.79369000 0.034057 -171.1 0.999390 -81.16 0.999390 -81.16 0.034056 -171.3
8.79370000 0.034072 -171.1 0.999389 -81.16 0.999389 -81.16 0.034071 -171.3
8.79371000 0.034086 -171.1 0.999389 -81.16 0.999389 -81.16 0.034085 -171.3
8.79372000 0.034101 -171.1 0.999388 -81.17 0.999388 -81.17 0.034100 -171.3
8.79373000 0.034116 -171.1 0.999387 -81.17 0.999387 -81.17 0.034114 -171.3
8.79374000 0.034130 -171.1 0.999387 -81.17 0.999387 -81.17 0.034129 -171.3
8.79375000 0.034145 -171.1 0.999386 -81.17 0.999386 -81.17 0.034144 -171.3
8.79376000 0.034160 -171.1 0.999386 -81.17 0.999386 -81.17 0.034159 -171.3
8.79377000 0.034174 -171.1 0.999385 -81.17 0.999385 -81.17 0.034173 -171.3
8.79378000 0.034189 -171.1 0.999385 -81.17 0.999385 -81.17 0.034188 -171.3
8.79379000 0.034204 -171.1 0.999384 -81.17 0.999384 -81.17 0.034203 -171.3
8.79380000 0.034219 -171.1 0.999383 -81.17 0.999383 -81.17 0.034218 -171.3
8.79381000 0.034234 -171.1 0.999383 -81.17 0.999383 -81.17 0.034233 -171.4
8.79382000 0.034249 -171.1 0.999382 -81.17 0.999382 -81.17 0.034248 -171.4
8.79383000 0.034264 -171.1 0.999382 -81.18 0.999382 -81.18 0.034263 -171.4
8.79384000 0.034279 -171.1 0.999381 -81.18 0.999381 -81.18 0.034278 -171.4
8.79385000 0.034294 -171.1 0.999381 -81.18 0.999381 -81.18 0.034293 -171.4
8.79386000 0.034309 -171.1 0.999380 -81.18 0.999380 -81.18 0.034308 -171.4
8.79387000 0.034324 -171.1 0.999379 -81.18 0.999379 -81.18 0.034323 -171.4
8.79388000 0.034339 -171.1 0.999379 -81.18 0.999379 -81.18 0.034338 -171.4
8.79389000 0.034354 -171.1 0.999378 -81.18 0.999378 -81.18 0.034353 -171.4
8.79390000 0.034370 -171.1 0.999378 -81.18 0.999378 -81.18 0.034368 -171.4
8.79391000 0.034385 -171.1 0.999377 -81.18 0.999377 -81.18 0.034384 -171.4
8.79392000 0.034400 -171.1 0.999376 -81.18 0.999376 -81.18 0.034399 -171.4