! Sonnet Data File
! From: emgraph Version : 16.52
! From Project: Qubit_Test_beforeopt
! Data is De-embedded 
! Data File Written: 10/18/2017 16:57:22
!< HDATE 10/18/2017 09:03:38
!< MDATE 10/18/2017 09:03:38
!< PARAMS
!< Lj = 11.0
!< Gap = 6.0
!< Pwid = 2000.0
!< Airgap = 18.0
!< Width = 30.0
!< END PARAMS
# GHZ S MA R 51.80000
8.79000000 0.035121 -173.6 0.999357 -81.46 0.999357 -81.46 0.035118 -169.4
!< P1 F=8.79 Eeff=(6.44477581 -3.0301e-5) Z0=(50.6167814 1.12757e-4) R=0.0 C=0.0 
!< P2 F=8.79 Eeff=(6.44477581 -3.0301e-5) Z0=(50.6167814 1.12757e-4) R=0.0 C=0.0 
8.79001000 0.035133 -173.6 0.999357 -81.46 0.999357 -81.46 0.035130 -169.4
8.79002000 0.035145 -173.6 0.999356 -81.46 0.999356 -81.46 0.035143 -169.4
8.79003000 0.035157 -173.6 0.999356 -81.46 0.999356 -81.46 0.035155 -169.4
8.79004000 0.035169 -173.6 0.999356 -81.46 0.999356 -81.46 0.035167 -169.4
8.79005000 0.035181 -173.6 0.999355 -81.46 0.999355 -81.46 0.035179 -169.4
8.79006000 0.035194 -173.6 0.999355 -81.46 0.999355 -81.46 0.035191 -169.4
8.79007000 0.035206 -173.6 0.999354 -81.46 0.999354 -81.46 0.035203 -169.4
8.79008000 0.035218 -173.6 0.999354 -81.46 0.999354 -81.46 0.035216 -169.4
8.79009000 0.035230 -173.6 0.999353 -81.46 0.999353 -81.46 0.035228 -169.4
8.79010000 0.035243 -173.6 0.999353 -81.46 0.999353 -81.46 0.035240 -169.4
8.79011000 0.035255 -173.6 0.999352 -81.47 0.999352 -81.47 0.035252 -169.4
8.79012000 0.035267 -173.6 0.999352 -81.47 0.999352 -81.47 0.035265 -169.4
8.79013000 0.035279 -173.6 0.999351 -81.47 0.999351 -81.47 0.035277 -169.4
8.79014000 0.035292 -173.6 0.999351 -81.47 0.999351 -81.47 0.035289 -169.4
8.79015000 0.035304 -173.6 0.999350 -81.47 0.999350 -81.47 0.035302 -169.4
8.79016000 0.035316 -173.6 0.999350 -81.47 0.999350 -81.47 0.035314 -169.4
8.79017000 0.035329 -173.6 0.999349 -81.47 0.999349 -81.47 0.035326 -169.4
8.79018000 0.035341 -173.6 0.999349 -81.47 0.999349 -81.47 0.035339 -169.4
8.79019000 0.035354 -173.6 0.999349 -81.47 0.999349 -81.47 0.035351 -169.4
8.79020000 0.035366 -173.6 0.999348 -81.47 0.999348 -81.47 0.035364 -169.4
8.79021000 0.035379 -173.6 0.999348 -81.47 0.999348 -81.47 0.035376 -169.4
8.79022000 0.035391 -173.6 0.999347 -81.47 0.999347 -81.47 0.035389 -169.4
8.79023000 0.035404 -173.6 0.999347 -81.48 0.999347 -81.48 0.035401 -169.4
8.79024000 0.035416 -173.6 0.999346 -81.48 0.999346 -81.48 0.035414 -169.4
8.79025000 0.035429 -173.6 0.999346 -81.48 0.999346 -81.48 0.035426 -169.4
8.79026000 0.035441 -173.6 0.999345 -81.48 0.999345 -81.48 0.035439 -169.4
8.79027000 0.035454 -173.6 0.999345 -81.48 0.999345 -81.48 0.035451 -169.4
8.79028000 0.035466 -173.6 0.999344 -81.48 0.999344 -81.48 0.035464 -169.4
8.79029000 0.035479 -173.6 0.999344 -81.48 0.999344 -81.48 0.035477 -169.4
8.79030000 0.035492 -173.6 0.999343 -81.48 0.999343 -81.48 0.035489 -169.4
8.79031000 0.035504 -173.6 0.999343 -81.48 0.999343 -81.48 0.035502 -169.4
8.79032000 0.035517 -173.6 0.999342 -81.48 0.999342 -81.48 0.035514 -169.5
8.79033000 0.035530 -173.6 0.999342 -81.48 0.999342 -81.48 0.035527 -169.5
8.79034000 0.035542 -173.6 0.999341 -81.48 0.999341 -81.48 0.035540 -169.5
8.79035000 0.035555 -173.6 0.999341 -81.48 0.999341 -81.48 0.035553 -169.5
8.79036000 0.035568 -173.6 0.999340 -81.49 0.999340 -81.49 0.035565 -169.5
8.79037000 0.035581 -173.6 0.999340 -81.49 0.999340 -81.49 0.035578 -169.5
8.79038000 0.035593 -173.6 0.999339 -81.49 0.999339 -81.49 0.035591 -169.5
8.79039000 0.035606 -173.6 0.999339 -81.49 0.999339 -81.49 0.035604 -169.5
8.79040000 0.035619 -173.6 0.999338 -81.49 0.999338 -81.49 0.035616 -169.5
8.79041000 0.035632 -173.6 0.999338 -81.49 0.999338 -81.49 0.035629 -169.5
8.79042000 0.035645 -173.6 0.999337 -81.49 0.999337 -81.49 0.035642 -169.5
8.79043000 0.035658 -173.6 0.999337 -81.49 0.999337 -81.49 0.035655 -169.5
8.79044000 0.035670 -173.6 0.999336 -81.49 0.999336 -81.49 0.035668 -169.5
8.79045000 0.035683 -173.6 0.999336 -81.49 0.999336 -81.49 0.035681 -169.5
8.79046000 0.035696 -173.6 0.999335 -81.49 0.999335 -81.49 0.035694 -169.5
8.79047000 0.035709 -173.6 0.999335 -81.49 0.999335 -81.49 0.035707 -169.5
8.79048000 0.035722 -173.6 0.999334 -81.50 0.999334 -81.50 0.035720 -169.5
8.79049000 0.035735 -173.6 0.999334 -81.50 0.999334 -81.50 0.035733 -169.5
8.79050000 0.035748 -173.6 0.999333 -81.50 0.999333 -81.50 0.035746 -169.5
8.79051000 0.035761 -173.6 0.999333 -81.50 0.999333 -81.50 0.035759 -169.5
8.79052000 0.035774 -173.6 0.999332 -81.50 0.999332 -81.50 0.035772 -169.5
8.79053000 0.035787 -173.6 0.999332 -81.50 0.999332 -81.50 0.035785 -169.5
8.79054000 0.035800 -173.6 0.999331 -81.50 0.999331 -81.50 0.035798 -169.5
8.79055000 0.035814 -173.6 0.999331 -81.50 0.999331 -81.50 0.035811 -169.5
8.79056000 0.035827 -173.6 0.999330 -81.50 0.999330 -81.50 0.035824 -169.5
8.79057000 0.035840 -173.6 0.999330 -81.50 0.999330 -81.50 0.035837 -169.5
8.79058000 0.035853 -173.6 0.999329 -81.50 0.999329 -81.50 0.035850 -169.5
8.79059000 0.035866 -173.6 0.999329 -81.50 0.999329 -81.50 0.035864 -169.5
8.79060000 0.035879 -173.6 0.999328 -81.51 0.999328 -81.51 0.035877 -169.5
8.79061000 0.035893 -173.6 0.999328 -81.51 0.999328 -81.51 0.035890 -169.5
8.79062000 0.035906 -173.6 0.999327 -81.51 0.999327 -81.51 0.035903 -169.5
8.79063000 0.035919 -173.6 0.999327 -81.51 0.999327 -81.51 0.035917 -169.5
8.79064000 0.035932 -173.6 0.999326 -81.51 0.999326 -81.51 0.035930 -169.5
8.79065000 0.035946 -173.6 0.999326 -81.51 0.999326 -81.51 0.035943 -169.5
8.79066000 0.035959 -173.6 0.999325 -81.51 0.999325 -81.51 0.035957 -169.5
8.79067000 0.035972 -173.6 0.999325 -81.51 0.999325 -81.51 0.035970 -169.5
8.79068000 0.035986 -173.6 0.999324 -81.51 0.999324 -81.51 0.035983 -169.5
8.79069000 0.035999 -173.6 0.999324 -81.51 0.999324 -81.51 0.035997 -169.5
8.79070000 0.036013 -173.6 0.999323 -81.51 0.999323 -81.51 0.036010 -169.5
8.79071000 0.036026 -173.6 0.999323 -81.52 0.999323 -81.52 0.036024 -169.5
8.79072000 0.036040 -173.6 0.999322 -81.52 0.999322 -81.52 0.036037 -169.5
8.79073000 0.036053 -173.6 0.999322 -81.52 0.999322 -81.52 0.036050 -169.5
8.79074000 0.036067 -173.6 0.999321 -81.52 0.999321 -81.52 0.036064 -169.5
8.79075000 0.036080 -173.6 0.999321 -81.52 0.999321 -81.52 0.036077 -169.5
8.79076000 0.036094 -173.6 0.999320 -81.52 0.999320 -81.52 0.036091 -169.5
8.79077000 0.036107 -173.6 0.999319 -81.52 0.999319 -81.52 0.036105 -169.5
8.79078000 0.036121 -173.6 0.999319 -81.52 0.999319 -81.52 0.036118 -169.5
8.79079000 0.036134 -173.6 0.999318 -81.52 0.999318 -81.52 0.036132 -169.5
8.79080000 0.036148 -173.6 0.999318 -81.52 0.999318 -81.52 0.036145 -169.5
8.79081000 0.036162 -173.6 0.999317 -81.52 0.999317 -81.52 0.036159 -169.5
8.79082000 0.036175 -173.6 0.999317 -81.52 0.999317 -81.52 0.036173 -169.5
8.79083000 0.036189 -173.6 0.999316 -81.53 0.999316 -81.53 0.036186 -169.5
8.79084000 0.036203 -173.6 0.999316 -81.53 0.999316 -81.53 0.036200 -169.6
8.79085000 0.036216 -173.6 0.999315 -81.53 0.999315 -81.53 0.036214 -169.6
8.79086000 0.036230 -173.6 0.999315 -81.53 0.999315 -81.53 0.036227 -169.6
8.79087000 0.036244 -173.6 0.999314 -81.53 0.999314 -81.53 0.036241 -169.6
8.79088000 0.036258 -173.6 0.999314 -81.53 0.999314 -81.53 0.036255 -169.6
8.79089000 0.036272 -173.6 0.999313 -81.53 0.999313 -81.53 0.036269 -169.6
8.79090000 0.036285 -173.6 0.999313 -81.53 0.999313 -81.53 0.036283 -169.6
8.79091000 0.036299 -173.6 0.999312 -81.53 0.999312 -81.53 0.036297 -169.6
8.79092000 0.036313 -173.6 0.999311 -81.53 0.999311 -81.53 0.036310 -169.6
8.79093000 0.036327 -173.6 0.999311 -81.53 0.999311 -81.53 0.036324 -169.6
8.79094000 0.036341 -173.6 0.999310 -81.54 0.999310 -81.54 0.036338 -169.6
8.79095000 0.036355 -173.6 0.999310 -81.54 0.999310 -81.54 0.036352 -169.6
8.79096000 0.036369 -173.6 0.999309 -81.54 0.999309 -81.54 0.036366 -169.6
8.79097000 0.036383 -173.6 0.999309 -81.54 0.999309 -81.54 0.036380 -169.6
8.79098000 0.036397 -173.6 0.999308 -81.54 0.999308 -81.54 0.036394 -169.6
8.79099000 0.036411 -173.6 0.999308 -81.54 0.999308 -81.54 0.036408 -169.6
8.79100000 0.036425 -173.6 0.999307 -81.54 0.999307 -81.54 0.036422 -169.6
8.79101000 0.036439 -173.6 0.999306 -81.54 0.999306 -81.54 0.036436 -169.6
8.79102000 0.036453 -173.6 0.999306 -81.54 0.999306 -81.54 0.036450 -169.6
8.79103000 0.036467 -173.6 0.999305 -81.54 0.999305 -81.54 0.036464 -169.6
8.79104000 0.036481 -173.6 0.999305 -81.54 0.999305 -81.54 0.036479 -169.6
8.79105000 0.036495 -173.6 0.999304 -81.55 0.999304 -81.55 0.036493 -169.6
8.79106000 0.036510 -173.6 0.999304 -81.55 0.999304 -81.55 0.036507 -169.6
8.79107000 0.036524 -173.6 0.999303 -81.55 0.999303 -81.55 0.036521 -169.6
8.79108000 0.036538 -173.6 0.999303 -81.55 0.999303 -81.55 0.036535 -169.6
8.79109000 0.036552 -173.6 0.999302 -81.55 0.999302 -81.55 0.036550 -169.6
8.79110000 0.036567 -173.6 0.999301 -81.55 0.999301 -81.55 0.036564 -169.6
8.79111000 0.036581 -173.6 0.999301 -81.55 0.999301 -81.55 0.036578 -169.6
8.79112000 0.036595 -173.6 0.999300 -81.55 0.999300 -81.55 0.036593 -169.6
8.79113000 0.036610 -173.6 0.999300 -81.55 0.999300 -81.55 0.036607 -169.6
8.79114000 0.036624 -173.6 0.999299 -81.55 0.999299 -81.55 0.036621 -169.6
8.79115000 0.036638 -173.6 0.999299 -81.55 0.999299 -81.55 0.036636 -169.6
8.79116000 0.036653 -173.6 0.999298 -81.56 0.999298 -81.56 0.036650 -169.6
8.79117000 0.036667 -173.6 0.999297 -81.56 0.999297 -81.56 0.036664 -169.6
8.79118000 0.036682 -173.6 0.999297 -81.56 0.999297 -81.56 0.036679 -169.6
8.79119000 0.036696 -173.6 0.999296 -81.56 0.999296 -81.56 0.036693 -169.6
8.79120000 0.036711 -173.6 0.999296 -81.56 0.999296 -81.56 0.036708 -169.6
8.79121000 0.036725 -173.6 0.999295 -81.56 0.999295 -81.56 0.036722 -169.6
8.79122000 0.036740 -173.6 0.999295 -81.56 0.999295 -81.56 0.036737 -169.6
8.79123000 0.036754 -173.6 0.999294 -81.56 0.999294 -81.56 0.036752 -169.6
8.79124000 0.036769 -173.6 0.999293 -81.56 0.999293 -81.56 0.036766 -169.6
8.79125000 0.036783 -173.6 0.999293 -81.56 0.999293 -81.56 0.036781 -169.6
8.79126000 0.036798 -173.6 0.999292 -81.56 0.999292 -81.56 0.036795 -169.6
8.79127000 0.036813 -173.6 0.999292 -81.57 0.999292 -81.57 0.036810 -169.6
8.79128000 0.036827 -173.6 0.999291 -81.57 0.999291 -81.57 0.036825 -169.6
8.79129000 0.036842 -173.6 0.999291 -81.57 0.999291 -81.57 0.036839 -169.6
8.79130000 0.036857 -173.6 0.999290 -81.57 0.999290 -81.57 0.036854 -169.6
8.79131000 0.036872 -173.6 0.999289 -81.57 0.999289 -81.57 0.036869 -169.6
8.79132000 0.036886 -173.6 0.999289 -81.57 0.999289 -81.57 0.036884 -169.6
8.79133000 0.036901 -173.6 0.999288 -81.57 0.999288 -81.57 0.036899 -169.7
8.79134000 0.036916 -173.6 0.999288 -81.57 0.999288 -81.57 0.036913 -169.7
8.79135000 0.036931 -173.6 0.999287 -81.57 0.999287 -81.57 0.036928 -169.7
8.79136000 0.036946 -173.6 0.999286 -81.57 0.999286 -81.57 0.036943 -169.7
8.79137000 0.036961 -173.6 0.999286 -81.57 0.999286 -81.57 0.036958 -169.7
8.79138000 0.036976 -173.6 0.999285 -81.58 0.999285 -81.58 0.036973 -169.7
8.79139000 0.036991 -173.6 0.999285 -81.58 0.999285 -81.58 0.036988 -169.7
8.79140000 0.037006 -173.6 0.999284 -81.58 0.999284 -81.58 0.037003 -169.7
8.79141000 0.037021 -173.6 0.999283 -81.58 0.999283 -81.58 0.037018 -169.7
8.79142000 0.037036 -173.6 0.999283 -81.58 0.999283 -81.58 0.037033 -169.7
8.79143000 0.037051 -173.6 0.999282 -81.58 0.999282 -81.58 0.037048 -169.7
8.79144000 0.037066 -173.6 0.999282 -81.58 0.999282 -81.58 0.037063 -169.7
8.79145000 0.037081 -173.6 0.999281 -81.58 0.999281 -81.58 0.037078 -169.7
8.79146000 0.037096 -173.6 0.999280 -81.58 0.999280 -81.58 0.037093 -169.7
8.79147000 0.037111 -173.6 0.999280 -81.58 0.999280 -81.58 0.037108 -169.7
8.79148000 0.037126 -173.6 0.999279 -81.59 0.999279 -81.59 0.037123 -169.7
8.79149000 0.037141 -173.6 0.999279 -81.59 0.999279 -81.59 0.037139 -169.7
8.79150000 0.037157 -173.6 0.999278 -81.59 0.999278 -81.59 0.037154 -169.7
8.79151000 0.037172 -173.6 0.999277 -81.59 0.999277 -81.59 0.037169 -169.7
8.79152000 0.037187 -173.6 0.999277 -81.59 0.999277 -81.59 0.037184 -169.7
8.79153000 0.037203 -173.6 0.999276 -81.59 0.999276 -81.59 0.037200 -169.7
8.79154000 0.037218 -173.6 0.999275 -81.59 0.999275 -81.59 0.037215 -169.7
8.79155000 0.037233 -173.6 0.999275 -81.59 0.999275 -81.59 0.037230 -169.7
8.79156000 0.037249 -173.6 0.999274 -81.59 0.999274 -81.59 0.037246 -169.7
8.79157000 0.037264 -173.6 0.999274 -81.59 0.999274 -81.59 0.037261 -169.7
8.79158000 0.037279 -173.6 0.999273 -81.60 0.999273 -81.60 0.037277 -169.7
8.79159000 0.037295 -173.6 0.999272 -81.60 0.999272 -81.60 0.037292 -169.7
8.79160000 0.037310 -173.6 0.999272 -81.60 0.999272 -81.60 0.037307 -169.7
8.79161000 0.037326 -173.6 0.999271 -81.60 0.999271 -81.60 0.037323 -169.7
8.79162000 0.037341 -173.6 0.999270 -81.60 0.999270 -81.60 0.037338 -169.7
8.79163000 0.037357 -173.6 0.999270 -81.60 0.999270 -81.60 0.037354 -169.7
8.79164000 0.037372 -173.6 0.999269 -81.60 0.999269 -81.60 0.037370 -169.7
8.79165000 0.037388 -173.6 0.999269 -81.60 0.999269 -81.60 0.037385 -169.7
8.79166000 0.037404 -173.6 0.999268 -81.60 0.999268 -81.60 0.037401 -169.7
8.79167000 0.037419 -173.6 0.999267 -81.60 0.999267 -81.60 0.037416 -169.7
8.79168000 0.037435 -173.6 0.999267 -81.60 0.999267 -81.60 0.037432 -169.7
8.79169000 0.037451 -173.6 0.999266 -81.61 0.999266 -81.61 0.037448 -169.7
8.79170000 0.037466 -173.6 0.999265 -81.61 0.999265 -81.61 0.037464 -169.7
8.79171000 0.037482 -173.6 0.999265 -81.61 0.999265 -81.61 0.037479 -169.7
8.79172000 0.037498 -173.6 0.999264 -81.61 0.999264 -81.61 0.037495 -169.7
8.79173000 0.037514 -173.6 0.999263 -81.61 0.999263 -81.61 0.037511 -169.7
8.79174000 0.037530 -173.6 0.999263 -81.61 0.999263 -81.61 0.037527 -169.7
8.79175000 0.037545 -173.6 0.999262 -81.61 0.999262 -81.61 0.037543 -169.7
8.79176000 0.037561 -173.6 0.999262 -81.61 0.999262 -81.61 0.037558 -169.7
8.79177000 0.037577 -173.6 0.999261 -81.61 0.999261 -81.61 0.037574 -169.7
8.79178000 0.037593 -173.6 0.999260 -81.61 0.999260 -81.61 0.037590 -169.7
8.79179000 0.037609 -173.6 0.999260 -81.62 0.999260 -81.62 0.037606 -169.7
8.79180000 0.037625 -173.6 0.999259 -81.62 0.999259 -81.62 0.037622 -169.8
8.79181000 0.037641 -173.6 0.999258 -81.62 0.999258 -81.62 0.037638 -169.8
8.79182000 0.037657 -173.6 0.999258 -81.62 0.999258 -81.62 0.037654 -169.8
8.79183000 0.037673 -173.6 0.999257 -81.62 0.999257 -81.62 0.037670 -169.8
8.79184000 0.037689 -173.6 0.999256 -81.62 0.999256 -81.62 0.037686 -169.8
8.79185000 0.037706 -173.6 0.999256 -81.62 0.999256 -81.62 0.037703 -169.8
8.79186000 0.037722 -173.6 0.999255 -81.62 0.999255 -81.62 0.037719 -169.8
8.79187000 0.037738 -173.6 0.999254 -81.62 0.999254 -81.62 0.037735 -169.8
8.79188000 0.037754 -173.6 0.999254 -81.63 0.999254 -81.63 0.037751 -169.8
8.79189000 0.037770 -173.6 0.999253 -81.63 0.999253 -81.63 0.037767 -169.8
8.79190000 0.037787 -173.6 0.999252 -81.63 0.999252 -81.63 0.037784 -169.8
8.79191000 0.037803 -173.6 0.999252 -81.63 0.999252 -81.63 0.037800 -169.8
8.79192000 0.037819 -173.6 0.999251 -81.63 0.999251 -81.63 0.037816 -169.8
8.79193000 0.037836 -173.6 0.999250 -81.63 0.999250 -81.63 0.037833 -169.8
8.79194000 0.037852 -173.6 0.999250 -81.63 0.999250 -81.63 0.037849 -169.8
8.79195000 0.037868 -173.6 0.999249 -81.63 0.999249 -81.63 0.037865 -169.8
8.79196000 0.037885 -173.6 0.999248 -81.63 0.999248 -81.63 0.037882 -169.8
8.79197000 0.037901 -173.6 0.999248 -81.63 0.999248 -81.63 0.037898 -169.8
8.79198000 0.037918 -173.6 0.999247 -81.64 0.999247 -81.64 0.037915 -169.8
8.79199000 0.037934 -173.6 0.999246 -81.64 0.999246 -81.64 0.037931 -169.8
8.79200000 0.037951 -173.6 0.999246 -81.64 0.999246 -81.64 0.037948 -169.8
8.79201000 0.037967 -173.6 0.999245 -81.64 0.999245 -81.64 0.037964 -169.8
8.79202000 0.037984 -173.6 0.999244 -81.64 0.999244 -81.64 0.037981 -169.8
8.79203000 0.038000 -173.6 0.999244 -81.64 0.999244 -81.64 0.037997 -169.8
8.79204000 0.038017 -173.6 0.999243 -81.64 0.999243 -81.64 0.038014 -169.8
8.79205000 0.038034 -173.6 0.999242 -81.64 0.999242 -81.64 0.038031 -169.8
8.79206000 0.038051 -173.6 0.999242 -81.64 0.999242 -81.64 0.038048 -169.8
8.79207000 0.038067 -173.6 0.999241 -81.64 0.999241 -81.64 0.038064 -169.8
8.79208000 0.038084 -173.6 0.999240 -81.65 0.999240 -81.65 0.038081 -169.8
8.79209000 0.038101 -173.6 0.999239 -81.65 0.999239 -81.65 0.038098 -169.8
8.79210000 0.038118 -173.6 0.999239 -81.65 0.999239 -81.65 0.038115 -169.8
8.79211000 0.038135 -173.6 0.999238 -81.65 0.999238 -81.65 0.038131 -169.8
8.79212000 0.038151 -173.6 0.999237 -81.65 0.999237 -81.65 0.038148 -169.8
8.79213000 0.038168 -173.6 0.999237 -81.65 0.999237 -81.65 0.038165 -169.8
8.79214000 0.038185 -173.6 0.999236 -81.65 0.999236 -81.65 0.038182 -169.8
8.79215000 0.038202 -173.6 0.999235 -81.65 0.999235 -81.65 0.038199 -169.8
8.79216000 0.038219 -173.6 0.999235 -81.65 0.999235 -81.65 0.038216 -169.8
8.79217000 0.038236 -173.6 0.999234 -81.66 0.999234 -81.66 0.038233 -169.8
8.79218000 0.038253 -173.6 0.999233 -81.66 0.999233 -81.66 0.038250 -169.8
8.79219000 0.038270 -173.6 0.999232 -81.66 0.999232 -81.66 0.038267 -169.8
8.79220000 0.038288 -173.6 0.999232 -81.66 0.999232 -81.66 0.038284 -169.8
8.79221000 0.038305 -173.6 0.999231 -81.66 0.999231 -81.66 0.038302 -169.8
8.79222000 0.038322 -173.6 0.999230 -81.66 0.999230 -81.66 0.038319 -169.8
8.79223000 0.038339 -173.6 0.999230 -81.66 0.999230 -81.66 0.038336 -169.8
8.79224000 0.038356 -173.6 0.999229 -81.66 0.999229 -81.66 0.038353 -169.9
8.79225000 0.038374 -173.6 0.999228 -81.66 0.999228 -81.66 0.038370 -169.9
8.79226000 0.038391 -173.6 0.999227 -81.67 0.999227 -81.67 0.038388 -169.9
8.79227000 0.038408 -173.6 0.999227 -81.67 0.999227 -81.67 0.038405 -169.9
8.79228000 0.038426 -173.6 0.999226 -81.67 0.999226 -81.67 0.038422 -169.9
8.79229000 0.038443 -173.6 0.999225 -81.67 0.999225 -81.67 0.038440 -169.9
8.79230000 0.038460 -173.6 0.999225 -81.67 0.999225 -81.67 0.038457 -169.9
8.79231000 0.038478 -173.6 0.999224 -81.67 0.999224 -81.67 0.038475 -169.9
8.79232000 0.038495 -173.6 0.999223 -81.67 0.999223 -81.67 0.038492 -169.9
8.79233000 0.038513 -173.6 0.999222 -81.67 0.999222 -81.67 0.038510 -169.9
8.79234000 0.038530 -173.6 0.999222 -81.67 0.999222 -81.67 0.038527 -169.9
8.79235000 0.038548 -173.6 0.999221 -81.67 0.999221 -81.67 0.038545 -169.9
8.79236000 0.038565 -173.6 0.999220 -81.68 0.999220 -81.68 0.038562 -169.9
8.79237000 0.038583 -173.6 0.999219 -81.68 0.999219 -81.68 0.038580 -169.9
8.79238000 0.038601 -173.6 0.999219 -81.68 0.999219 -81.68 0.038598 -169.9
8.79239000 0.038618 -173.6 0.999218 -81.68 0.999218 -81.68 0.038615 -169.9
8.79240000 0.038636 -173.6 0.999217 -81.68 0.999217 -81.68 0.038633 -169.9
8.79241000 0.038654 -173.6 0.999216 -81.68 0.999216 -81.68 0.038651 -169.9
8.79242000 0.038672 -173.6 0.999216 -81.68 0.999216 -81.68 0.038669 -169.9
8.79243000 0.038690 -173.6 0.999215 -81.68 0.999215 -81.68 0.038686 -169.9
8.79244000 0.038707 -173.6 0.999214 -81.68 0.999214 -81.68 0.038704 -169.9
8.79245000 0.038725 -173.6 0.999213 -81.69 0.999213 -81.69 0.038722 -169.9
8.79246000 0.038743 -173.6 0.999213 -81.69 0.999213 -81.69 0.038740 -169.9
8.79247000 0.038761 -173.6 0.999212 -81.69 0.999212 -81.69 0.038758 -169.9
8.79248000 0.038779 -173.6 0.999211 -81.69 0.999211 -81.69 0.038776 -169.9
8.79249000 0.038797 -173.6 0.999210 -81.69 0.999210 -81.69 0.038794 -169.9
8.79250000 0.038815 -173.6 0.999210 -81.69 0.999210 -81.69 0.038812 -169.9
8.79251000 0.038833 -173.6 0.999209 -81.69 0.999209 -81.69 0.038830 -169.9
8.79252000 0.038851 -173.6 0.999208 -81.69 0.999208 -81.69 0.038848 -169.9
8.79253000 0.038869 -173.6 0.999207 -81.69 0.999207 -81.69 0.038866 -169.9
8.79254000 0.038888 -173.6 0.999207 -81.70 0.999207 -81.70 0.038884 -169.9
8.79255000 0.038906 -173.6 0.999206 -81.70 0.999206 -81.70 0.038903 -169.9
8.79256000 0.038924 -173.6 0.999205 -81.70 0.999205 -81.70 0.038921 -169.9
8.79257000 0.038942 -173.6 0.999204 -81.70 0.999204 -81.70 0.038939 -169.9
8.79258000 0.038961 -173.6 0.999203 -81.70 0.999203 -81.70 0.038957 -169.9
8.79259000 0.038979 -173.6 0.999203 -81.70 0.999203 -81.70 0.038976 -169.9
8.79260000 0.038997 -173.6 0.999202 -81.70 0.999202 -81.70 0.038994 -169.9
8.79261000 0.039016 -173.6 0.999201 -81.70 0.999201 -81.70 0.039013 -169.9
8.79262000 0.039034 -173.6 0.999200 -81.71 0.999200 -81.71 0.039031 -169.9
8.79263000 0.039053 -173.6 0.999200 -81.71 0.999200 -81.71 0.039049 -169.9
8.79264000 0.039071 -173.6 0.999199 -81.71 0.999199 -81.71 0.039068 -169.9
8.79265000 0.039090 -173.6 0.999198 -81.71 0.999198 -81.71 0.039086 -169.9
8.79266000 0.039108 -173.6 0.999197 -81.71 0.999197 -81.71 0.039105 -170.0
8.79267000 0.039127 -173.6 0.999196 -81.71 0.999196 -81.71 0.039124 -170.0
8.79268000 0.039145 -173.6 0.999196 -81.71 0.999196 -81.71 0.039142 -170.0
8.79269000 0.039164 -173.6 0.999195 -81.71 0.999195 -81.71 0.039161 -170.0
8.79270000 0.039183 -173.6 0.999194 -81.71 0.999194 -81.71 0.039180 -170.0
8.79271000 0.039202 -173.6 0.999193 -81.72 0.999193 -81.72 0.039198 -170.0
8.79272000 0.039220 -173.6 0.999192 -81.72 0.999192 -81.72 0.039217 -170.0
8.79273000 0.039239 -173.6 0.999192 -81.72 0.999192 -81.72 0.039236 -170.0
8.79274000 0.039258 -173.6 0.999191 -81.72 0.999191 -81.72 0.039255 -170.0
8.79275000 0.039277 -173.6 0.999190 -81.72 0.999190 -81.72 0.039274 -170.0
8.79276000 0.039296 -173.6 0.999189 -81.72 0.999189 -81.72 0.039292 -170.0
8.79277000 0.039315 -173.6 0.999188 -81.72 0.999188 -81.72 0.039311 -170.0
8.79278000 0.039334 -173.6 0.999188 -81.72 0.999188 -81.72 0.039330 -170.0
8.79279000 0.039353 -173.6 0.999187 -81.73 0.999187 -81.73 0.039349 -170.0
8.79280000 0.039372 -173.6 0.999186 -81.73 0.999186 -81.73 0.039368 -170.0
8.79281000 0.039391 -173.6 0.999185 -81.73 0.999185 -81.73 0.039387 -170.0
8.79282000 0.039410 -173.6 0.999184 -81.73 0.999184 -81.73 0.039407 -170.0
8.79283000 0.039429 -173.6 0.999184 -81.73 0.999184 -81.73 0.039426 -170.0
8.79284000 0.039448 -173.6 0.999183 -81.73 0.999183 -81.73 0.039445 -170.0
8.79285000 0.039467 -173.6 0.999182 -81.73 0.999182 -81.73 0.039464 -170.0
8.79286000 0.039487 -173.6 0.999181 -81.73 0.999181 -81.73 0.039483 -170.0
8.79287000 0.039506 -173.6 0.999180 -81.73 0.999180 -81.73 0.039503 -170.0
8.79288000 0.039525 -173.6 0.999179 -81.74 0.999179 -81.74 0.039522 -170.0
8.79289000 0.039545 -173.6 0.999179 -81.74 0.999179 -81.74 0.039541 -170.0
8.79290000 0.039564 -173.6 0.999178 -81.74 0.999178 -81.74 0.039561 -170.0
8.79291000 0.039583 -173.6 0.999177 -81.74 0.999177 -81.74 0.039580 -170.0
8.79292000 0.039603 -173.6 0.999176 -81.74 0.999176 -81.74 0.039600 -170.0
8.79293000 0.039622 -173.6 0.999175 -81.74 0.999175 -81.74 0.039619 -170.0
8.79294000 0.039642 -173.6 0.999174 -81.74 0.999174 -81.74 0.039639 -170.0
8.79295000 0.039661 -173.6 0.999174 -81.74 0.999174 -81.74 0.039658 -170.0
8.79296000 0.039681 -173.6 0.999173 -81.75 0.999173 -81.75 0.039678 -170.0
8.79297000 0.039701 -173.6 0.999172 -81.75 0.999172 -81.75 0.039697 -170.0
8.79298000 0.039720 -173.6 0.999171 -81.75 0.999171 -81.75 0.039717 -170.0
8.79299000 0.039740 -173.6 0.999170 -81.75 0.999170 -81.75 0.039737 -170.0
8.79300000 0.039760 -173.6 0.999169 -81.75 0.999169 -81.75 0.039757 -170.0
8.79301000 0.039780 -173.6 0.999168 -81.75 0.999168 -81.75 0.039776 -170.0
8.79302000 0.039800 -173.6 0.999168 -81.75 0.999168 -81.75 0.039796 -170.0
8.79303000 0.039819 -173.6 0.999167 -81.75 0.999167 -81.75 0.039816 -170.0
8.79304000 0.039839 -173.6 0.999166 -81.76 0.999166 -81.76 0.039836 -170.0
8.79305000 0.039859 -173.6 0.999165 -81.76 0.999165 -81.76 0.039856 -170.0
8.79306000 0.039879 -173.6 0.999164 -81.76 0.999164 -81.76 0.039876 -170.1
8.79307000 0.039899 -173.6 0.999163 -81.76 0.999163 -81.76 0.039896 -170.1
8.79308000 0.039919 -173.6 0.999162 -81.76 0.999162 -81.76 0.039916 -170.1
8.79309000 0.039939 -173.6 0.999162 -81.76 0.999162 -81.76 0.039936 -170.1
8.79310000 0.039959 -173.6 0.999161 -81.76 0.999161 -81.76 0.039956 -170.1
8.79311000 0.039980 -173.6 0.999160 -81.76 0.999160 -81.76 0.039976 -170.1
8.79312000 0.040000 -173.6 0.999159 -81.77 0.999159 -81.77 0.039996 -170.1
8.79313000 0.040020 -173.6 0.999158 -81.77 0.999158 -81.77 0.040017 -170.1
8.79314000 0.040040 -173.6 0.999157 -81.77 0.999157 -81.77 0.040037 -170.1
8.79315000 0.040061 -173.6 0.999156 -81.77 0.999156 -81.77 0.040057 -170.1
8.79316000 0.040081 -173.6 0.999155 -81.77 0.999155 -81.77 0.040078 -170.1
8.79317000 0.040101 -173.6 0.999154 -81.77 0.999154 -81.77 0.040098 -170.1
8.79318000 0.040122 -173.6 0.999154 -81.77 0.999154 -81.77 0.040118 -170.1
8.79319000 0.040142 -173.6 0.999153 -81.77 0.999153 -81.77 0.040139 -170.1
8.79320000 0.040163 -173.6 0.999152 -81.78 0.999152 -81.78 0.040159 -170.1
8.79321000 0.040183 -173.6 0.999151 -81.78 0.999151 -81.78 0.040180 -170.1
8.79322000 0.040204 -173.6 0.999150 -81.78 0.999150 -81.78 0.040200 -170.1
8.79323000 0.040225 -173.6 0.999149 -81.78 0.999149 -81.78 0.040221 -170.1
8.79324000 0.040245 -173.6 0.999148 -81.78 0.999148 -81.78 0.040242 -170.1
8.79325000 0.040266 -173.6 0.999147 -81.78 0.999147 -81.78 0.040262 -170.1
8.79326000 0.040287 -173.6 0.999146 -81.78 0.999146 -81.78 0.040283 -170.1
8.79327000 0.040307 -173.6 0.999145 -81.78 0.999145 -81.78 0.040304 -170.1
8.79328000 0.040328 -173.6 0.999145 -81.79 0.999145 -81.79 0.040325 -170.1
8.79329000 0.040349 -173.6 0.999144 -81.79 0.999144 -81.79 0.040346 -170.1
8.79330000 0.040370 -173.6 0.999143 -81.79 0.999143 -81.79 0.040367 -170.1
8.79331000 0.040391 -173.6 0.999142 -81.79 0.999142 -81.79 0.040387 -170.1
8.79332000 0.040412 -173.6 0.999141 -81.79 0.999141 -81.79 0.040408 -170.1
8.79333000 0.040433 -173.6 0.999140 -81.79 0.999140 -81.79 0.040429 -170.1
8.79334000 0.040454 -173.6 0.999139 -81.79 0.999139 -81.79 0.040451 -170.1
8.79335000 0.040475 -173.6 0.999138 -81.79 0.999138 -81.79 0.040472 -170.1
8.79336000 0.040496 -173.6 0.999137 -81.80 0.999137 -81.80 0.040493 -170.1
8.79337000 0.040517 -173.6 0.999136 -81.80 0.999136 -81.80 0.040514 -170.1
8.79338000 0.040539 -173.6 0.999135 -81.80 0.999135 -81.80 0.040535 -170.1
8.79339000 0.040560 -173.6 0.999134 -81.80 0.999134 -81.80 0.040556 -170.1
8.79340000 0.040581 -173.6 0.999133 -81.80 0.999133 -81.80 0.040578 -170.1
8.79341000 0.040603 -173.6 0.999132 -81.80 0.999132 -81.80 0.040599 -170.1
8.79342000 0.040624 -173.6 0.999132 -81.80 0.999132 -81.80 0.040620 -170.1
8.79343000 0.040645 -173.6 0.999131 -81.81 0.999131 -81.81 0.040642 -170.1
8.79344000 0.040667 -173.6 0.999130 -81.81 0.999130 -81.81 0.040663 -170.2
8.79345000 0.040688 -173.6 0.999129 -81.81 0.999129 -81.81 0.040685 -170.2
8.79346000 0.040710 -173.6 0.999128 -81.81 0.999128 -81.81 0.040706 -170.2
8.79347000 0.040732 -173.6 0.999127 -81.81 0.999127 -81.81 0.040728 -170.2
8.79348000 0.040753 -173.6 0.999126 -81.81 0.999126 -81.81 0.040750 -170.2
8.79349000 0.040775 -173.6 0.999125 -81.81 0.999125 -81.81 0.040771 -170.2
8.79350000 0.040797 -173.6 0.999124 -81.81 0.999124 -81.81 0.040793 -170.2
8.79351000 0.040818 -173.6 0.999123 -81.82 0.999123 -81.82 0.040815 -170.2
8.79352000 0.040840 -173.6 0.999122 -81.82 0.999122 -81.82 0.040837 -170.2
8.79353000 0.040862 -173.6 0.999121 -81.82 0.999121 -81.82 0.040858 -170.2
8.79354000 0.040884 -173.6 0.999120 -81.82 0.999120 -81.82 0.040880 -170.2
8.79355000 0.040906 -173.6 0.999119 -81.82 0.999119 -81.82 0.040902 -170.2
8.79356000 0.040928 -173.6 0.999118 -81.82 0.999118 -81.82 0.040924 -170.2
8.79357000 0.040950 -173.6 0.999117 -81.82 0.999117 -81.82 0.040946 -170.2
8.79358000 0.040972 -173.6 0.999116 -81.83 0.999116 -81.83 0.040968 -170.2
8.79359000 0.040994 -173.6 0.999115 -81.83 0.999115 -81.83 0.040990 -170.2
8.79360000 0.041016 -173.6 0.999114 -81.83 0.999114 -81.83 0.041013 -170.2
8.79361000 0.041038 -173.6 0.999113 -81.83 0.999113 -81.83 0.041035 -170.2
8.79362000 0.041061 -173.6 0.999112 -81.83 0.999112 -81.83 0.041057 -170.2
8.79363000 0.041083 -173.6 0.999111 -81.83 0.999111 -81.83 0.041079 -170.2
8.79364000 0.041105 -173.6 0.999110 -81.83 0.999110 -81.83 0.041102 -170.2
8.79365000 0.041128 -173.6 0.999109 -81.83 0.999109 -81.83 0.041124 -170.2
8.79366000 0.041150 -173.6 0.999108 -81.84 0.999108 -81.84 0.041146 -170.2
8.79367000 0.041172 -173.6 0.999107 -81.84 0.999107 -81.84 0.041169 -170.2
8.79368000 0.041195 -173.6 0.999106 -81.84 0.999106 -81.84 0.041191 -170.2
8.79369000 0.041218 -173.6 0.999105 -81.84 0.999105 -81.84 0.041214 -170.2
8.79370000 0.041240 -173.6 0.999104 -81.84 0.999104 -81.84 0.041236 -170.2
8.79371000 0.041263 -173.6 0.999103 -81.84 0.999103 -81.84 0.041259 -170.2
8.79372000 0.041285 -173.6 0.999102 -81.84 0.999102 -81.84 0.041282 -170.2
8.79373000 0.041308 -173.6 0.999101 -81.85 0.999101 -81.85 0.041304 -170.2
8.79374000 0.041331 -173.6 0.999100 -81.85 0.999100 -81.85 0.041327 -170.2
8.79375000 0.041354 -173.6 0.999099 -81.85 0.999099 -81.85 0.041350 -170.2
8.79376000 0.041377 -173.6 0.999098 -81.85 0.999098 -81.85 0.041373 -170.2
8.79377000 0.041400 -173.6 0.999097 -81.85 0.999097 -81.85 0.041396 -170.2
8.79378000 0.041423 -173.6 0.999096 -81.85 0.999096 -81.85 0.041419 -170.2
8.79379000 0.041446 -173.6 0.999095 -81.85 0.999095 -81.85 0.041442 -170.2
8.79380000 0.041469 -173.6 0.999094 -81.86 0.999094 -81.86 0.041465 -170.3
8.79381000 0.041492 -173.6 0.999093 -81.86 0.999093 -81.86 0.041488 -170.3
8.79382000 0.041515 -173.6 0.999092 -81.86 0.999092 -81.86 0.041511 -170.3
8.79383000 0.041538 -173.6 0.999091 -81.86 0.999091 -81.86 0.041534 -170.3
8.79384000 0.041561 -173.6 0.999090 -81.86 0.999090 -81.86 0.041557 -170.3
8.79385000 0.041584 -173.6 0.999088 -81.86 0.999088 -81.86 0.041581 -170.3
8.79386000 0.041608 -173.6 0.999087 -81.86 0.999087 -81.86 0.041604 -170.3
8.79387000 0.041631 -173.6 0.999086 -81.87 0.999086 -81.87 0.041627 -170.3
8.79388000 0.041655 -173.6 0.999085 -81.87 0.999085 -81.87 0.041651 -170.3
8.79389000 0.041678 -173.6 0.999084 -81.87 0.999084 -81.87 0.041674 -170.3
8.79390000 0.041702 -173.6 0.999083 -81.87 0.999083 -81.87 0.041698 -170.3
8.79391000 0.041725 -173.6 0.999082 -81.87 0.999082 -81.87 0.041721 -170.3
8.79392000 0.041749 -173.6 0.999081 -81.87 0.999081 -81.87 0.041745 -170.3