! Sonnet Data File
! From: emgraph Version : 16.52
! From Project: Qubit_Test_beforeopt
! Data is De-embedded 
! Data File Written: 10/18/2017 16:57:22
!< HDATE 10/18/2017 09:03:38
!< MDATE 10/18/2017 09:03:38
!< PARAMS
!< Lj = 11.0
!< Gap = 16.0
!< Pwid = 2000.0
!< Airgap = 6.0
!< Width = 10.0
!< END PARAMS
# GHZ S MA R 51.80000
8.79000000 0.002467 -173.9 0.999989 -80.59 0.999989 -80.59 0.002466 -167.7
!< P1 F=8.79 Eeff=(6.44677226 -2.9786e-5) Z0=(51.7990523 1.19065e-4) R=0.0 C=0.0 
!< P2 F=8.79 Eeff=(6.44677226 -2.9786e-5) Z0=(51.7990523 1.19065e-4) R=0.0 C=0.0 
8.79001000 0.002470 -173.9 0.999989 -80.59 0.999989 -80.59 0.002469 -167.7
8.79002000 0.002472 -173.8 0.999989 -80.59 0.999989 -80.59 0.002471 -167.7
8.79003000 0.002475 -173.8 0.999989 -80.59 0.999989 -80.59 0.002474 -167.7
8.79004000 0.002477 -173.8 0.999989 -80.59 0.999989 -80.59 0.002476 -167.7
8.79005000 0.002480 -173.8 0.999989 -80.59 0.999989 -80.59 0.002479 -167.7
8.79006000 0.002483 -173.8 0.999989 -80.59 0.999989 -80.59 0.002482 -167.7
8.79007000 0.002485 -173.8 0.999989 -80.59 0.999989 -80.59 0.002484 -167.7
8.79008000 0.002488 -173.8 0.999989 -80.59 0.999989 -80.59 0.002487 -167.7
8.79009000 0.002491 -173.8 0.999989 -80.59 0.999989 -80.59 0.002490 -167.7
8.79010000 0.002493 -173.8 0.999989 -80.59 0.999989 -80.59 0.002492 -167.7
8.79011000 0.002496 -173.8 0.999989 -80.59 0.999989 -80.59 0.002495 -167.7
8.79012000 0.002499 -173.8 0.999989 -80.59 0.999989 -80.59 0.002498 -167.7
8.79013000 0.002501 -173.8 0.999989 -80.59 0.999989 -80.59 0.002500 -167.7
8.79014000 0.002504 -173.8 0.999989 -80.59 0.999989 -80.59 0.002503 -167.7
8.79015000 0.002507 -173.8 0.999989 -80.60 0.999989 -80.60 0.002506 -167.7
8.79016000 0.002509 -173.8 0.999989 -80.60 0.999989 -80.60 0.002508 -167.7
8.79017000 0.002512 -173.8 0.999989 -80.60 0.999989 -80.60 0.002511 -167.7
8.79018000 0.002515 -173.8 0.999989 -80.60 0.999989 -80.60 0.002514 -167.8
8.79019000 0.002517 -173.8 0.999989 -80.60 0.999989 -80.60 0.002516 -167.8
8.79020000 0.002520 -173.8 0.999989 -80.60 0.999989 -80.60 0.002519 -167.8
8.79021000 0.002523 -173.8 0.999989 -80.60 0.999989 -80.60 0.002522 -167.8
8.79022000 0.002525 -173.8 0.999989 -80.60 0.999989 -80.60 0.002524 -167.8
8.79023000 0.002528 -173.7 0.999989 -80.60 0.999989 -80.60 0.002527 -167.8
8.79024000 0.002531 -173.7 0.999989 -80.60 0.999989 -80.60 0.002530 -167.8
8.79025000 0.002534 -173.7 0.999988 -80.60 0.999988 -80.60 0.002533 -167.8
8.79026000 0.002536 -173.7 0.999988 -80.60 0.999988 -80.60 0.002535 -167.8
8.79027000 0.002539 -173.7 0.999988 -80.60 0.999988 -80.60 0.002538 -167.8
8.79028000 0.002542 -173.7 0.999988 -80.60 0.999988 -80.60 0.002541 -167.8
8.79029000 0.002544 -173.7 0.999988 -80.60 0.999988 -80.60 0.002543 -167.8
8.79030000 0.002547 -173.7 0.999988 -80.60 0.999988 -80.60 0.002546 -167.8
8.79031000 0.002550 -173.7 0.999988 -80.60 0.999988 -80.60 0.002549 -167.8
8.79032000 0.002553 -173.7 0.999988 -80.60 0.999988 -80.60 0.002552 -167.8
8.79033000 0.002555 -173.7 0.999988 -80.60 0.999988 -80.60 0.002554 -167.8
8.79034000 0.002558 -173.7 0.999988 -80.60 0.999988 -80.60 0.002557 -167.8
8.79035000 0.002561 -173.7 0.999988 -80.60 0.999988 -80.60 0.002560 -167.8
8.79036000 0.002564 -173.7 0.999988 -80.60 0.999988 -80.60 0.002563 -167.8
8.79037000 0.002567 -173.7 0.999988 -80.60 0.999988 -80.60 0.002566 -167.8
8.79038000 0.002569 -173.7 0.999988 -80.60 0.999988 -80.60 0.002568 -167.9
8.79039000 0.002572 -173.7 0.999988 -80.60 0.999988 -80.60 0.002571 -167.9
8.79040000 0.002575 -173.7 0.999988 -80.60 0.999988 -80.60 0.002574 -167.9
8.79041000 0.002578 -173.7 0.999988 -80.60 0.999988 -80.60 0.002577 -167.9
8.79042000 0.002580 -173.7 0.999988 -80.60 0.999988 -80.60 0.002579 -167.9
8.79043000 0.002583 -173.7 0.999988 -80.60 0.999988 -80.60 0.002582 -167.9
8.79044000 0.002586 -173.7 0.999988 -80.60 0.999988 -80.60 0.002585 -167.9
8.79045000 0.002589 -173.6 0.999988 -80.60 0.999988 -80.60 0.002588 -167.9
8.79046000 0.002592 -173.6 0.999988 -80.60 0.999988 -80.60 0.002591 -167.9
8.79047000 0.002595 -173.6 0.999988 -80.60 0.999988 -80.60 0.002594 -167.9
8.79048000 0.002597 -173.6 0.999988 -80.60 0.999988 -80.60 0.002596 -167.9
8.79049000 0.002600 -173.6 0.999988 -80.60 0.999988 -80.60 0.002599 -167.9
8.79050000 0.002603 -173.6 0.999988 -80.60 0.999988 -80.60 0.002602 -167.9
8.79051000 0.002606 -173.6 0.999988 -80.60 0.999988 -80.60 0.002605 -167.9
8.79052000 0.002609 -173.6 0.999988 -80.60 0.999988 -80.60 0.002608 -167.9
8.79053000 0.002612 -173.6 0.999988 -80.60 0.999988 -80.60 0.002611 -167.9
8.79054000 0.002614 -173.6 0.999988 -80.60 0.999988 -80.60 0.002613 -167.9
8.79055000 0.002617 -173.6 0.999988 -80.61 0.999988 -80.61 0.002616 -167.9
8.79056000 0.002620 -173.6 0.999988 -80.61 0.999988 -80.61 0.002619 -167.9
8.79057000 0.002623 -173.6 0.999988 -80.61 0.999988 -80.61 0.002622 -168.0
8.79058000 0.002626 -173.6 0.999988 -80.61 0.999988 -80.61 0.002625 -168.0
8.79059000 0.002629 -173.6 0.999988 -80.61 0.999988 -80.61 0.002628 -168.0
8.79060000 0.002632 -173.6 0.999988 -80.61 0.999988 -80.61 0.002631 -168.0
8.79061000 0.002635 -173.6 0.999988 -80.61 0.999988 -80.61 0.002634 -168.0
8.79062000 0.002638 -173.6 0.999988 -80.61 0.999988 -80.61 0.002636 -168.0
8.79063000 0.002640 -173.6 0.999988 -80.61 0.999988 -80.61 0.002639 -168.0
8.79064000 0.002643 -173.6 0.999988 -80.61 0.999988 -80.61 0.002642 -168.0
8.79065000 0.002646 -173.6 0.999988 -80.61 0.999988 -80.61 0.002645 -168.0
8.79066000 0.002649 -173.6 0.999988 -80.61 0.999988 -80.61 0.002648 -168.0
8.79067000 0.002652 -173.5 0.999988 -80.61 0.999988 -80.61 0.002651 -168.0
8.79068000 0.002655 -173.5 0.999988 -80.61 0.999988 -80.61 0.002654 -168.0
8.79069000 0.002658 -173.5 0.999988 -80.61 0.999988 -80.61 0.002657 -168.0
8.79070000 0.002661 -173.5 0.999988 -80.61 0.999988 -80.61 0.002660 -168.0
8.79071000 0.002664 -173.5 0.999988 -80.61 0.999988 -80.61 0.002663 -168.0
8.79072000 0.002667 -173.5 0.999988 -80.61 0.999988 -80.61 0.002666 -168.0
8.79073000 0.002670 -173.5 0.999988 -80.61 0.999988 -80.61 0.002669 -168.0
8.79074000 0.002673 -173.5 0.999988 -80.61 0.999988 -80.61 0.002672 -168.0
8.79075000 0.002676 -173.5 0.999988 -80.61 0.999988 -80.61 0.002675 -168.0
8.79076000 0.002679 -173.5 0.999988 -80.61 0.999988 -80.61 0.002678 -168.0
8.79077000 0.002682 -173.5 0.999988 -80.61 0.999988 -80.61 0.002681 -168.1
8.79078000 0.002685 -173.5 0.999988 -80.61 0.999988 -80.61 0.002684 -168.1
8.79079000 0.002688 -173.5 0.999988 -80.61 0.999988 -80.61 0.002687 -168.1
8.79080000 0.002691 -173.5 0.999988 -80.61 0.999988 -80.61 0.002690 -168.1
8.79081000 0.002694 -173.5 0.999988 -80.61 0.999988 -80.61 0.002693 -168.1
8.79082000 0.002697 -173.5 0.999988 -80.61 0.999988 -80.61 0.002696 -168.1
8.79083000 0.002700 -173.5 0.999988 -80.61 0.999988 -80.61 0.002699 -168.1
8.79084000 0.002703 -173.5 0.999987 -80.61 0.999987 -80.61 0.002702 -168.1
8.79085000 0.002706 -173.5 0.999987 -80.61 0.999987 -80.61 0.002705 -168.1
8.79086000 0.002709 -173.5 0.999987 -80.61 0.999987 -80.61 0.002708 -168.1
8.79087000 0.002712 -173.5 0.999987 -80.61 0.999987 -80.61 0.002711 -168.1
8.79088000 0.002715 -173.5 0.999987 -80.61 0.999987 -80.61 0.002714 -168.1
8.79089000 0.002718 -173.4 0.999987 -80.61 0.999987 -80.61 0.002717 -168.1
8.79090000 0.002721 -173.4 0.999987 -80.61 0.999987 -80.61 0.002720 -168.1
8.79091000 0.002724 -173.4 0.999987 -80.61 0.999987 -80.61 0.002723 -168.1
8.79092000 0.002727 -173.4 0.999987 -80.61 0.999987 -80.61 0.002726 -168.1
8.79093000 0.002730 -173.4 0.999987 -80.61 0.999987 -80.61 0.002729 -168.1
8.79094000 0.002733 -173.4 0.999987 -80.62 0.999987 -80.62 0.002732 -168.1
8.79095000 0.002736 -173.4 0.999987 -80.62 0.999987 -80.62 0.002735 -168.1
8.79096000 0.002739 -173.4 0.999987 -80.62 0.999987 -80.62 0.002738 -168.1
8.79097000 0.002742 -173.4 0.999987 -80.62 0.999987 -80.62 0.002741 -168.2
8.79098000 0.002745 -173.4 0.999987 -80.62 0.999987 -80.62 0.002744 -168.2
8.79099000 0.002749 -173.4 0.999987 -80.62 0.999987 -80.62 0.002748 -168.2
8.79100000 0.002752 -173.4 0.999987 -80.62 0.999987 -80.62 0.002751 -168.2
8.79101000 0.002755 -173.4 0.999987 -80.62 0.999987 -80.62 0.002754 -168.2
8.79102000 0.002758 -173.4 0.999987 -80.62 0.999987 -80.62 0.002757 -168.2
8.79103000 0.002761 -173.4 0.999987 -80.62 0.999987 -80.62 0.002760 -168.2
8.79104000 0.002764 -173.4 0.999987 -80.62 0.999987 -80.62 0.002763 -168.2
8.79105000 0.002767 -173.4 0.999987 -80.62 0.999987 -80.62 0.002766 -168.2
8.79106000 0.002770 -173.4 0.999987 -80.62 0.999987 -80.62 0.002769 -168.2
8.79107000 0.002774 -173.4 0.999987 -80.62 0.999987 -80.62 0.002773 -168.2
8.79108000 0.002777 -173.4 0.999987 -80.62 0.999987 -80.62 0.002776 -168.2
8.79109000 0.002780 -173.4 0.999987 -80.62 0.999987 -80.62 0.002779 -168.2
8.79110000 0.002783 -173.4 0.999987 -80.62 0.999987 -80.62 0.002782 -168.2
8.79111000 0.002786 -173.4 0.999987 -80.62 0.999987 -80.62 0.002785 -168.2
8.79112000 0.002789 -173.3 0.999987 -80.62 0.999987 -80.62 0.002788 -168.2
8.79113000 0.002793 -173.3 0.999987 -80.62 0.999987 -80.62 0.002792 -168.2
8.79114000 0.002796 -173.3 0.999987 -80.62 0.999987 -80.62 0.002795 -168.2
8.79115000 0.002799 -173.3 0.999987 -80.62 0.999987 -80.62 0.002798 -168.2
8.79116000 0.002802 -173.3 0.999987 -80.62 0.999987 -80.62 0.002801 -168.2
8.79117000 0.002805 -173.3 0.999987 -80.62 0.999987 -80.62 0.002804 -168.3
8.79118000 0.002809 -173.3 0.999987 -80.62 0.999987 -80.62 0.002808 -168.3
8.79119000 0.002812 -173.3 0.999987 -80.62 0.999987 -80.62 0.002811 -168.3
8.79120000 0.002815 -173.3 0.999987 -80.62 0.999987 -80.62 0.002814 -168.3
8.79121000 0.002818 -173.3 0.999987 -80.62 0.999987 -80.62 0.002817 -168.3
8.79122000 0.002822 -173.3 0.999987 -80.62 0.999987 -80.62 0.002820 -168.3
8.79123000 0.002825 -173.3 0.999987 -80.62 0.999987 -80.62 0.002824 -168.3
8.79124000 0.002828 -173.3 0.999987 -80.62 0.999987 -80.62 0.002827 -168.3
8.79125000 0.002831 -173.3 0.999987 -80.62 0.999987 -80.62 0.002830 -168.3
8.79126000 0.002835 -173.3 0.999987 -80.62 0.999987 -80.62 0.002833 -168.3
8.79127000 0.002838 -173.3 0.999987 -80.62 0.999987 -80.62 0.002837 -168.3
8.79128000 0.002841 -173.3 0.999987 -80.62 0.999987 -80.62 0.002840 -168.3
8.79129000 0.002844 -173.3 0.999987 -80.62 0.999987 -80.62 0.002843 -168.3
8.79130000 0.002848 -173.3 0.999987 -80.63 0.999987 -80.63 0.002847 -168.3
8.79131000 0.002851 -173.3 0.999987 -80.63 0.999987 -80.63 0.002850 -168.3
8.79132000 0.002854 -173.3 0.999987 -80.63 0.999987 -80.63 0.002853 -168.3
8.79133000 0.002858 -173.3 0.999987 -80.63 0.999987 -80.63 0.002856 -168.3
8.79134000 0.002861 -173.3 0.999987 -80.63 0.999987 -80.63 0.002860 -168.3
8.79135000 0.002864 -173.2 0.999986 -80.63 0.999986 -80.63 0.002863 -168.3
8.79136000 0.002867 -173.2 0.999986 -80.63 0.999986 -80.63 0.002866 -168.3
8.79137000 0.002871 -173.2 0.999986 -80.63 0.999986 -80.63 0.002870 -168.4
8.79138000 0.002874 -173.2 0.999986 -80.63 0.999986 -80.63 0.002873 -168.4
8.79139000 0.002877 -173.2 0.999986 -80.63 0.999986 -80.63 0.002876 -168.4
8.79140000 0.002881 -173.2 0.999986 -80.63 0.999986 -80.63 0.002880 -168.4
8.79141000 0.002884 -173.2 0.999986 -80.63 0.999986 -80.63 0.002883 -168.4
8.79142000 0.002888 -173.2 0.999986 -80.63 0.999986 -80.63 0.002887 -168.4
8.79143000 0.002891 -173.2 0.999986 -80.63 0.999986 -80.63 0.002890 -168.4
8.79144000 0.002894 -173.2 0.999986 -80.63 0.999986 -80.63 0.002893 -168.4
8.79145000 0.002898 -173.2 0.999986 -80.63 0.999986 -80.63 0.002897 -168.4
8.79146000 0.002901 -173.2 0.999986 -80.63 0.999986 -80.63 0.002900 -168.4
8.79147000 0.002904 -173.2 0.999986 -80.63 0.999986 -80.63 0.002903 -168.4
8.79148000 0.002908 -173.2 0.999986 -80.63 0.999986 -80.63 0.002907 -168.4
8.79149000 0.002911 -173.2 0.999986 -80.63 0.999986 -80.63 0.002910 -168.4
8.79150000 0.002915 -173.2 0.999986 -80.63 0.999986 -80.63 0.002914 -168.4
8.79151000 0.002918 -173.2 0.999986 -80.63 0.999986 -80.63 0.002917 -168.4
8.79152000 0.002922 -173.2 0.999986 -80.63 0.999986 -80.63 0.002920 -168.4
8.79153000 0.002925 -173.2 0.999986 -80.63 0.999986 -80.63 0.002924 -168.4
8.79154000 0.002928 -173.2 0.999986 -80.63 0.999986 -80.63 0.002927 -168.4
8.79155000 0.002932 -173.2 0.999986 -80.63 0.999986 -80.63 0.002931 -168.4
8.79156000 0.002935 -173.2 0.999986 -80.63 0.999986 -80.63 0.002934 -168.4
8.79157000 0.002939 -173.2 0.999986 -80.63 0.999986 -80.63 0.002938 -168.5
8.79158000 0.002942 -173.1 0.999986 -80.63 0.999986 -80.63 0.002941 -168.5
8.79159000 0.002946 -173.1 0.999986 -80.63 0.999986 -80.63 0.002945 -168.5
8.79160000 0.002949 -173.1 0.999986 -80.63 0.999986 -80.63 0.002948 -168.5
8.79161000 0.002953 -173.1 0.999986 -80.63 0.999986 -80.63 0.002952 -168.5
8.79162000 0.002956 -173.1 0.999986 -80.63 0.999986 -80.63 0.002955 -168.5
8.79163000 0.002960 -173.1 0.999986 -80.63 0.999986 -80.63 0.002959 -168.5
8.79164000 0.002963 -173.1 0.999986 -80.63 0.999986 -80.63 0.002962 -168.5
8.79165000 0.002967 -173.1 0.999986 -80.64 0.999986 -80.64 0.002966 -168.5
8.79166000 0.002970 -173.1 0.999986 -80.64 0.999986 -80.64 0.002969 -168.5
8.79167000 0.002974 -173.1 0.999986 -80.64 0.999986 -80.64 0.002973 -168.5
8.79168000 0.002977 -173.1 0.999986 -80.64 0.999986 -80.64 0.002976 -168.5
8.79169000 0.002981 -173.1 0.999986 -80.64 0.999986 -80.64 0.002980 -168.5
8.79170000 0.002984 -173.1 0.999986 -80.64 0.999986 -80.64 0.002983 -168.5
8.79171000 0.002988 -173.1 0.999986 -80.64 0.999986 -80.64 0.002987 -168.5
8.79172000 0.002992 -173.1 0.999986 -80.64 0.999986 -80.64 0.002990 -168.5
8.79173000 0.002995 -173.1 0.999986 -80.64 0.999986 -80.64 0.002994 -168.5
8.79174000 0.002999 -173.1 0.999986 -80.64 0.999986 -80.64 0.002998 -168.5
8.79175000 0.003002 -173.1 0.999986 -80.64 0.999986 -80.64 0.003001 -168.5
8.79176000 0.003006 -173.1 0.999986 -80.64 0.999986 -80.64 0.003005 -168.5
8.79177000 0.003009 -173.1 0.999986 -80.64 0.999986 -80.64 0.003008 -168.6
8.79178000 0.003013 -173.1 0.999986 -80.64 0.999986 -80.64 0.003012 -168.6
8.79179000 0.003017 -173.1 0.999985 -80.64 0.999985 -80.64 0.003016 -168.6
8.79180000 0.003020 -173.1 0.999985 -80.64 0.999985 -80.64 0.003019 -168.6
8.79181000 0.003024 -173.1 0.999985 -80.64 0.999985 -80.64 0.003023 -168.6
8.79182000 0.003028 -173.0 0.999985 -80.64 0.999985 -80.64 0.003027 -168.6
8.79183000 0.003031 -173.0 0.999985 -80.64 0.999985 -80.64 0.003030 -168.6
8.79184000 0.003035 -173.0 0.999985 -80.64 0.999985 -80.64 0.003034 -168.6
8.79185000 0.003039 -173.0 0.999985 -80.64 0.999985 -80.64 0.003037 -168.6
8.79186000 0.003042 -173.0 0.999985 -80.64 0.999985 -80.64 0.003041 -168.6
8.79187000 0.003046 -173.0 0.999985 -80.64 0.999985 -80.64 0.003045 -168.6
8.79188000 0.003050 -173.0 0.999985 -80.64 0.999985 -80.64 0.003049 -168.6
8.79189000 0.003053 -173.0 0.999985 -80.64 0.999985 -80.64 0.003052 -168.6
8.79190000 0.003057 -173.0 0.999985 -80.64 0.999985 -80.64 0.003056 -168.6
8.79191000 0.003061 -173.0 0.999985 -80.64 0.999985 -80.64 0.003060 -168.6
8.79192000 0.003064 -173.0 0.999985 -80.64 0.999985 -80.64 0.003063 -168.6
8.79193000 0.003068 -173.0 0.999985 -80.64 0.999985 -80.64 0.003067 -168.6
8.79194000 0.003072 -173.0 0.999985 -80.64 0.999985 -80.64 0.003071 -168.6
8.79195000 0.003076 -173.0 0.999985 -80.64 0.999985 -80.64 0.003074 -168.6
8.79196000 0.003079 -173.0 0.999985 -80.64 0.999985 -80.64 0.003078 -168.6
8.79197000 0.003083 -173.0 0.999985 -80.64 0.999985 -80.64 0.003082 -168.6
8.79198000 0.003087 -173.0 0.999985 -80.65 0.999985 -80.65 0.003086 -168.7
8.79199000 0.003091 -173.0 0.999985 -80.65 0.999985 -80.65 0.003089 -168.7
8.79200000 0.003094 -173.0 0.999985 -80.65 0.999985 -80.65 0.003093 -168.7
8.79201000 0.003098 -173.0 0.999985 -80.65 0.999985 -80.65 0.003097 -168.7
8.79202000 0.003102 -173.0 0.999985 -80.65 0.999985 -80.65 0.003101 -168.7
8.79203000 0.003106 -173.0 0.999985 -80.65 0.999985 -80.65 0.003105 -168.7
8.79204000 0.003110 -173.0 0.999985 -80.65 0.999985 -80.65 0.003108 -168.7
8.79205000 0.003113 -173.0 0.999985 -80.65 0.999985 -80.65 0.003112 -168.7
8.79206000 0.003117 -172.9 0.999985 -80.65 0.999985 -80.65 0.003116 -168.7
8.79207000 0.003121 -172.9 0.999985 -80.65 0.999985 -80.65 0.003120 -168.7
8.79208000 0.003125 -172.9 0.999985 -80.65 0.999985 -80.65 0.003124 -168.7
8.79209000 0.003129 -172.9 0.999985 -80.65 0.999985 -80.65 0.003128 -168.7
8.79210000 0.003132 -172.9 0.999985 -80.65 0.999985 -80.65 0.003131 -168.7
8.79211000 0.003136 -172.9 0.999985 -80.65 0.999985 -80.65 0.003135 -168.7
8.79212000 0.003140 -172.9 0.999985 -80.65 0.999985 -80.65 0.003139 -168.7
8.79213000 0.003144 -172.9 0.999985 -80.65 0.999985 -80.65 0.003143 -168.7
8.79214000 0.003148 -172.9 0.999985 -80.65 0.999985 -80.65 0.003147 -168.7
8.79215000 0.003152 -172.9 0.999985 -80.65 0.999985 -80.65 0.003151 -168.7
8.79216000 0.003156 -172.9 0.999985 -80.65 0.999985 -80.65 0.003155 -168.7
8.79217000 0.003160 -172.9 0.999985 -80.65 0.999985 -80.65 0.003159 -168.7
8.79218000 0.003164 -172.9 0.999984 -80.65 0.999984 -80.65 0.003162 -168.8
8.79219000 0.003167 -172.9 0.999984 -80.65 0.999984 -80.65 0.003166 -168.8
8.79220000 0.003171 -172.9 0.999984 -80.65 0.999984 -80.65 0.003170 -168.8
8.79221000 0.003175 -172.9 0.999984 -80.65 0.999984 -80.65 0.003174 -168.8
8.79222000 0.003179 -172.9 0.999984 -80.65 0.999984 -80.65 0.003178 -168.8
8.79223000 0.003183 -172.9 0.999984 -80.65 0.999984 -80.65 0.003182 -168.8
8.79224000 0.003187 -172.9 0.999984 -80.65 0.999984 -80.65 0.003186 -168.8
8.79225000 0.003191 -172.9 0.999984 -80.65 0.999984 -80.65 0.003190 -168.8
8.79226000 0.003195 -172.9 0.999984 -80.65 0.999984 -80.65 0.003194 -168.8
8.79227000 0.003199 -172.9 0.999984 -80.65 0.999984 -80.65 0.003198 -168.8
8.79228000 0.003203 -172.9 0.999984 -80.65 0.999984 -80.65 0.003202 -168.8
8.79229000 0.003207 -172.9 0.999984 -80.65 0.999984 -80.65 0.003206 -168.8
8.79230000 0.003211 -172.8 0.999984 -80.66 0.999984 -80.66 0.003210 -168.8
8.79231000 0.003215 -172.8 0.999984 -80.66 0.999984 -80.66 0.003214 -168.8
8.79232000 0.003219 -172.8 0.999984 -80.66 0.999984 -80.66 0.003218 -168.8
8.79233000 0.003223 -172.8 0.999984 -80.66 0.999984 -80.66 0.003222 -168.8
8.79234000 0.003227 -172.8 0.999984 -80.66 0.999984 -80.66 0.003226 -168.8
8.79235000 0.003231 -172.8 0.999984 -80.66 0.999984 -80.66 0.003230 -168.8
8.79236000 0.003235 -172.8 0.999984 -80.66 0.999984 -80.66 0.003234 -168.8
8.79237000 0.003240 -172.8 0.999984 -80.66 0.999984 -80.66 0.003238 -168.8
8.79238000 0.003244 -172.8 0.999984 -80.66 0.999984 -80.66 0.003243 -168.8
8.79239000 0.003248 -172.8 0.999984 -80.66 0.999984 -80.66 0.003247 -168.9
8.79240000 0.003252 -172.8 0.999984 -80.66 0.999984 -80.66 0.003251 -168.9
8.79241000 0.003256 -172.8 0.999984 -80.66 0.999984 -80.66 0.003255 -168.9
8.79242000 0.003260 -172.8 0.999984 -80.66 0.999984 -80.66 0.003259 -168.9
8.79243000 0.003264 -172.8 0.999984 -80.66 0.999984 -80.66 0.003263 -168.9
8.79244000 0.003268 -172.8 0.999984 -80.66 0.999984 -80.66 0.003267 -168.9
8.79245000 0.003272 -172.8 0.999984 -80.66 0.999984 -80.66 0.003271 -168.9
8.79246000 0.003277 -172.8 0.999984 -80.66 0.999984 -80.66 0.003275 -168.9
8.79247000 0.003281 -172.8 0.999984 -80.66 0.999984 -80.66 0.003280 -168.9
8.79248000 0.003285 -172.8 0.999984 -80.66 0.999984 -80.66 0.003284 -168.9
8.79249000 0.003289 -172.8 0.999984 -80.66 0.999984 -80.66 0.003288 -168.9
8.79250000 0.003293 -172.8 0.999984 -80.66 0.999984 -80.66 0.003292 -168.9
8.79251000 0.003297 -172.8 0.999984 -80.66 0.999984 -80.66 0.003296 -168.9
8.79252000 0.003302 -172.8 0.999983 -80.66 0.999983 -80.66 0.003301 -168.9
8.79253000 0.003306 -172.8 0.999983 -80.66 0.999983 -80.66 0.003305 -168.9
8.79254000 0.003310 -172.7 0.999983 -80.66 0.999983 -80.66 0.003309 -168.9
8.79255000 0.003314 -172.7 0.999983 -80.66 0.999983 -80.66 0.003313 -168.9
8.79256000 0.003319 -172.7 0.999983 -80.66 0.999983 -80.66 0.003317 -168.9
8.79257000 0.003323 -172.7 0.999983 -80.66 0.999983 -80.66 0.003322 -168.9
8.79258000 0.003327 -172.7 0.999983 -80.66 0.999983 -80.66 0.003326 -168.9
8.79259000 0.003331 -172.7 0.999983 -80.66 0.999983 -80.66 0.003330 -169.0
8.79260000 0.003336 -172.7 0.999983 -80.67 0.999983 -80.67 0.003335 -169.0
8.79261000 0.003340 -172.7 0.999983 -80.67 0.999983 -80.67 0.003339 -169.0
8.79262000 0.003344 -172.7 0.999983 -80.67 0.999983 -80.67 0.003343 -169.0
8.79263000 0.003349 -172.7 0.999983 -80.67 0.999983 -80.67 0.003347 -169.0
8.79264000 0.003353 -172.7 0.999983 -80.67 0.999983 -80.67 0.003352 -169.0
8.79265000 0.003357 -172.7 0.999983 -80.67 0.999983 -80.67 0.003356 -169.0
8.79266000 0.003361 -172.7 0.999983 -80.67 0.999983 -80.67 0.003360 -169.0
8.79267000 0.003366 -172.7 0.999983 -80.67 0.999983 -80.67 0.003365 -169.0
8.79268000 0.003370 -172.7 0.999983 -80.67 0.999983 -80.67 0.003369 -169.0
8.79269000 0.003375 -172.7 0.999983 -80.67 0.999983 -80.67 0.003373 -169.0
8.79270000 0.003379 -172.7 0.999983 -80.67 0.999983 -80.67 0.003378 -169.0
8.79271000 0.003383 -172.7 0.999983 -80.67 0.999983 -80.67 0.003382 -169.0
8.79272000 0.003388 -172.7 0.999983 -80.67 0.999983 -80.67 0.003387 -169.0
8.79273000 0.003392 -172.7 0.999983 -80.67 0.999983 -80.67 0.003391 -169.0
8.79274000 0.003397 -172.7 0.999983 -80.67 0.999983 -80.67 0.003395 -169.0
8.79275000 0.003401 -172.7 0.999983 -80.67 0.999983 -80.67 0.003400 -169.0
8.79276000 0.003405 -172.7 0.999983 -80.67 0.999983 -80.67 0.003404 -169.0
8.79277000 0.003410 -172.7 0.999983 -80.67 0.999983 -80.67 0.003409 -169.0
8.79278000 0.003414 -172.7 0.999983 -80.67 0.999983 -80.67 0.003413 -169.0
8.79279000 0.003419 -172.6 0.999983 -80.67 0.999983 -80.67 0.003418 -169.0
8.79280000 0.003423 -172.6 0.999983 -80.67 0.999983 -80.67 0.003422 -169.1
8.79281000 0.003428 -172.6 0.999983 -80.67 0.999983 -80.67 0.003427 -169.1
8.79282000 0.003432 -172.6 0.999983 -80.67 0.999983 -80.67 0.003431 -169.1
8.79283000 0.003437 -172.6 0.999982 -80.67 0.999982 -80.67 0.003436 -169.1
8.79284000 0.003441 -172.6 0.999982 -80.67 0.999982 -80.67 0.003440 -169.1
8.79285000 0.003446 -172.6 0.999982 -80.67 0.999982 -80.67 0.003445 -169.1
8.79286000 0.003450 -172.6 0.999982 -80.67 0.999982 -80.67 0.003449 -169.1
8.79287000 0.003455 -172.6 0.999982 -80.67 0.999982 -80.67 0.003454 -169.1
8.79288000 0.003459 -172.6 0.999982 -80.67 0.999982 -80.67 0.003458 -169.1
8.79289000 0.003464 -172.6 0.999982 -80.68 0.999982 -80.68 0.003463 -169.1
8.79290000 0.003468 -172.6 0.999982 -80.68 0.999982 -80.68 0.003467 -169.1
8.79291000 0.003473 -172.6 0.999982 -80.68 0.999982 -80.68 0.003472 -169.1
8.79292000 0.003478 -172.6 0.999982 -80.68 0.999982 -80.68 0.003476 -169.1
8.79293000 0.003482 -172.6 0.999982 -80.68 0.999982 -80.68 0.003481 -169.1
8.79294000 0.003487 -172.6 0.999982 -80.68 0.999982 -80.68 0.003486 -169.1
8.79295000 0.003491 -172.6 0.999982 -80.68 0.999982 -80.68 0.003490 -169.1
8.79296000 0.003496 -172.6 0.999982 -80.68 0.999982 -80.68 0.003495 -169.1
8.79297000 0.003501 -172.6 0.999982 -80.68 0.999982 -80.68 0.003500 -169.1
8.79298000 0.003505 -172.6 0.999982 -80.68 0.999982 -80.68 0.003504 -169.1
8.79299000 0.003510 -172.6 0.999982 -80.68 0.999982 -80.68 0.003509 -169.1
8.79300000 0.003515 -172.6 0.999982 -80.68 0.999982 -80.68 0.003514 -169.1
8.79301000 0.003519 -172.6 0.999982 -80.68 0.999982 -80.68 0.003518 -169.2
8.79302000 0.003524 -172.6 0.999982 -80.68 0.999982 -80.68 0.003523 -169.2
8.79303000 0.003529 -172.6 0.999982 -80.68 0.999982 -80.68 0.003528 -169.2
8.79304000 0.003533 -172.6 0.999982 -80.68 0.999982 -80.68 0.003532 -169.2
8.79305000 0.003538 -172.5 0.999982 -80.68 0.999982 -80.68 0.003537 -169.2
8.79306000 0.003543 -172.5 0.999982 -80.68 0.999982 -80.68 0.003542 -169.2
8.79307000 0.003548 -172.5 0.999982 -80.68 0.999982 -80.68 0.003547 -169.2
8.79308000 0.003552 -172.5 0.999982 -80.68 0.999982 -80.68 0.003551 -169.2
8.79309000 0.003557 -172.5 0.999982 -80.68 0.999982 -80.68 0.003556 -169.2
8.79310000 0.003562 -172.5 0.999982 -80.68 0.999982 -80.68 0.003561 -169.2
8.79311000 0.003567 -172.5 0.999981 -80.68 0.999981 -80.68 0.003566 -169.2
8.79312000 0.003572 -172.5 0.999981 -80.68 0.999981 -80.68 0.003570 -169.2
8.79313000 0.003576 -172.5 0.999981 -80.68 0.999981 -80.68 0.003575 -169.2
8.79314000 0.003581 -172.5 0.999981 -80.68 0.999981 -80.68 0.003580 -169.2
8.79315000 0.003586 -172.5 0.999981 -80.68 0.999981 -80.68 0.003585 -169.2
8.79316000 0.003591 -172.5 0.999981 -80.68 0.999981 -80.68 0.003590 -169.2
8.79317000 0.003596 -172.5 0.999981 -80.69 0.999981 -80.69 0.003595 -169.2
8.79318000 0.003601 -172.5 0.999981 -80.69 0.999981 -80.69 0.003600 -169.2
8.79319000 0.003606 -172.5 0.999981 -80.69 0.999981 -80.69 0.003604 -169.2
8.79320000 0.003610 -172.5 0.999981 -80.69 0.999981 -80.69 0.003609 -169.2
8.79321000 0.003615 -172.5 0.999981 -80.69 0.999981 -80.69 0.003614 -169.2
8.79322000 0.003620 -172.5 0.999981 -80.69 0.999981 -80.69 0.003619 -169.3
8.79323000 0.003625 -172.5 0.999981 -80.69 0.999981 -80.69 0.003624 -169.3
8.79324000 0.003630 -172.5 0.999981 -80.69 0.999981 -80.69 0.003629 -169.3
8.79325000 0.003635 -172.5 0.999981 -80.69 0.999981 -80.69 0.003634 -169.3
8.79326000 0.003640 -172.5 0.999981 -80.69 0.999981 -80.69 0.003639 -169.3
8.79327000 0.003645 -172.5 0.999981 -80.69 0.999981 -80.69 0.003644 -169.3
8.79328000 0.003650 -172.5 0.999981 -80.69 0.999981 -80.69 0.003649 -169.3
8.79329000 0.003655 -172.5 0.999981 -80.69 0.999981 -80.69 0.003654 -169.3
8.79330000 0.003660 -172.5 0.999981 -80.69 0.999981 -80.69 0.003659 -169.3
8.79331000 0.003665 -172.4 0.999981 -80.69 0.999981 -80.69 0.003664 -169.3
8.79332000 0.003670 -172.4 0.999981 -80.69 0.999981 -80.69 0.003669 -169.3
8.79333000 0.003675 -172.4 0.999981 -80.69 0.999981 -80.69 0.003674 -169.3
8.79334000 0.003680 -172.4 0.999981 -80.69 0.999981 -80.69 0.003679 -169.3
8.79335000 0.003685 -172.4 0.999981 -80.69 0.999981 -80.69 0.003684 -169.3
8.79336000 0.003690 -172.4 0.999981 -80.69 0.999981 -80.69 0.003689 -169.3
8.79337000 0.003695 -172.4 0.999980 -80.69 0.999980 -80.69 0.003694 -169.3
8.79338000 0.003701 -172.4 0.999980 -80.69 0.999980 -80.69 0.003699 -169.3
8.79339000 0.003706 -172.4 0.999980 -80.69 0.999980 -80.69 0.003704 -169.3
8.79340000 0.003711 -172.4 0.999980 -80.69 0.999980 -80.69 0.003710 -169.3
8.79341000 0.003716 -172.4 0.999980 -80.69 0.999980 -80.69 0.003715 -169.3
8.79342000 0.003721 -172.4 0.999980 -80.69 0.999980 -80.69 0.003720 -169.3
8.79343000 0.003726 -172.4 0.999980 -80.70 0.999980 -80.70 0.003725 -169.4
8.79344000 0.003731 -172.4 0.999980 -80.70 0.999980 -80.70 0.003730 -169.4
8.79345000 0.003737 -172.4 0.999980 -80.70 0.999980 -80.70 0.003735 -169.4
8.79346000 0.003742 -172.4 0.999980 -80.70 0.999980 -80.70 0.003741 -169.4
8.79347000 0.003747 -172.4 0.999980 -80.70 0.999980 -80.70 0.003746 -169.4
8.79348000 0.003752 -172.4 0.999980 -80.70 0.999980 -80.70 0.003751 -169.4
8.79349000 0.003757 -172.4 0.999980 -80.70 0.999980 -80.70 0.003756 -169.4
8.79350000 0.003763 -172.4 0.999980 -80.70 0.999980 -80.70 0.003762 -169.4
8.79351000 0.003768 -172.4 0.999980 -80.70 0.999980 -80.70 0.003767 -169.4
8.79352000 0.003773 -172.4 0.999980 -80.70 0.999980 -80.70 0.003772 -169.4
8.79353000 0.003779 -172.4 0.999980 -80.70 0.999980 -80.70 0.003777 -169.4
8.79354000 0.003784 -172.4 0.999980 -80.70 0.999980 -80.70 0.003783 -169.4
8.79355000 0.003789 -172.4 0.999980 -80.70 0.999980 -80.70 0.003788 -169.4
8.79356000 0.003794 -172.4 0.999980 -80.70 0.999980 -80.70 0.003793 -169.4
8.79357000 0.003800 -172.3 0.999980 -80.70 0.999980 -80.70 0.003799 -169.4
8.79358000 0.003805 -172.3 0.999980 -80.70 0.999980 -80.70 0.003804 -169.4
8.79359000 0.003811 -172.3 0.999980 -80.70 0.999980 -80.70 0.003809 -169.4
8.79360000 0.003816 -172.3 0.999979 -80.70 0.999979 -80.70 0.003815 -169.4
8.79361000 0.003821 -172.3 0.999979 -80.70 0.999979 -80.70 0.003820 -169.4
8.79362000 0.003827 -172.3 0.999979 -80.70 0.999979 -80.70 0.003826 -169.4
8.79363000 0.003832 -172.3 0.999979 -80.70 0.999979 -80.70 0.003831 -169.4
8.79364000 0.003838 -172.3 0.999979 -80.70 0.999979 -80.70 0.003836 -169.5
8.79365000 0.003843 -172.3 0.999979 -80.70 0.999979 -80.70 0.003842 -169.5
8.79366000 0.003848 -172.3 0.999979 -80.70 0.999979 -80.70 0.003847 -169.5
8.79367000 0.003854 -172.3 0.999979 -80.70 0.999979 -80.70 0.003853 -169.5
8.79368000 0.003859 -172.3 0.999979 -80.70 0.999979 -80.70 0.003858 -169.5
8.79369000 0.003865 -172.3 0.999979 -80.71 0.999979 -80.71 0.003864 -169.5
8.79370000 0.003870 -172.3 0.999979 -80.71 0.999979 -80.71 0.003869 -169.5
8.79371000 0.003876 -172.3 0.999979 -80.71 0.999979 -80.71 0.003875 -169.5
8.79372000 0.003882 -172.3 0.999979 -80.71 0.999979 -80.71 0.003880 -169.5
8.79373000 0.003887 -172.3 0.999979 -80.71 0.999979 -80.71 0.003886 -169.5
8.79374000 0.003893 -172.3 0.999979 -80.71 0.999979 -80.71 0.003891 -169.5
8.79375000 0.003898 -172.3 0.999979 -80.71 0.999979 -80.71 0.003897 -169.5
8.79376000 0.003904 -172.3 0.999979 -80.71 0.999979 -80.71 0.003903 -169.5
8.79377000 0.003909 -172.3 0.999979 -80.71 0.999979 -80.71 0.003908 -169.5
8.79378000 0.003915 -172.3 0.999979 -80.71 0.999979 -80.71 0.003914 -169.5
8.79379000 0.003921 -172.3 0.999979 -80.71 0.999979 -80.71 0.003920 -169.5
8.79380000 0.003926 -172.3 0.999979 -80.71 0.999979 -80.71 0.003925 -169.5
8.79381000 0.003932 -172.3 0.999979 -80.71 0.999979 -80.71 0.003931 -169.5
8.79382000 0.003938 -172.3 0.999978 -80.71 0.999978 -80.71 0.003937 -169.5
8.79383000 0.003943 -172.3 0.999978 -80.71 0.999978 -80.71 0.003942 -169.5
8.79384000 0.003949 -172.2 0.999978 -80.71 0.999978 -80.71 0.003948 -169.5
8.79385000 0.003955 -172.2 0.999978 -80.71 0.999978 -80.71 0.003954 -169.6
8.79386000 0.003961 -172.2 0.999978 -80.71 0.999978 -80.71 0.003959 -169.6
8.79387000 0.003966 -172.2 0.999978 -80.71 0.999978 -80.71 0.003965 -169.6
8.79388000 0.003972 -172.2 0.999978 -80.71 0.999978 -80.71 0.003971 -169.6
8.79389000 0.003978 -172.2 0.999978 -80.71 0.999978 -80.71 0.003977 -169.6
8.79390000 0.003984 -172.2 0.999978 -80.71 0.999978 -80.71 0.003982 -169.6
8.79391000 0.003989 -172.2 0.999978 -80.71 0.999978 -80.71 0.003988 -169.6
8.79392000 0.003995 -172.2 0.999978 -80.71 0.999978 -80.71 0.003994 -169.6