! Sonnet Data File
! From: emgraph Version : 16.52
! From Project: Qubit_Test_beforeopt
! Data is De-embedded 
! Data File Written: 10/18/2017 16:57:21
!< HDATE 10/18/2017 09:03:38
!< MDATE 10/18/2017 09:03:38
!< PARAMS
!< Lj = 11.0
!< Gap = 6.0
!< Pwid = 2000.0
!< Airgap = 6.0
!< Width = 10.0
!< END PARAMS
# GHZ S MA R 51.80000
8.79000000 0.002984 154.30 0.999984 -80.77 0.999984 -80.77 0.002972 -136.2
!< P1 F=8.79 Eeff=(6.44677226 -2.9786e-5) Z0=(51.7990523 1.19065e-4) R=0.0 C=0.0 
!< P2 F=8.79 Eeff=(6.44677226 -2.9786e-5) Z0=(51.7990523 1.19065e-4) R=0.0 C=0.0 
8.79001000 0.002988 154.35 0.999984 -80.77 0.999984 -80.77 0.002975 -136.2
8.79002000 0.002991 154.39 0.999984 -80.77 0.999984 -80.77 0.002979 -136.3
8.79003000 0.002995 154.44 0.999984 -80.77 0.999984 -80.77 0.002983 -136.3
8.79004000 0.002999 154.49 0.999984 -80.77 0.999984 -80.77 0.002986 -136.4
8.79005000 0.003002 154.54 0.999984 -80.77 0.999984 -80.77 0.002990 -136.4
8.79006000 0.003006 154.59 0.999984 -80.77 0.999984 -80.77 0.002994 -136.5
8.79007000 0.003010 154.64 0.999984 -80.77 0.999984 -80.77 0.002998 -136.5
8.79008000 0.003014 154.69 0.999984 -80.77 0.999984 -80.77 0.003001 -136.6
8.79009000 0.003017 154.74 0.999984 -80.77 0.999984 -80.77 0.003005 -136.6
8.79010000 0.003021 154.79 0.999984 -80.77 0.999984 -80.77 0.003009 -136.7
8.79011000 0.003025 154.84 0.999984 -80.77 0.999984 -80.77 0.003013 -136.7
8.79012000 0.003029 154.88 0.999984 -80.77 0.999984 -80.77 0.003016 -136.8
8.79013000 0.003032 154.93 0.999984 -80.77 0.999984 -80.77 0.003020 -136.8
8.79014000 0.003036 154.98 0.999984 -80.77 0.999984 -80.77 0.003024 -136.9
8.79015000 0.003040 155.03 0.999984 -80.77 0.999984 -80.77 0.003028 -136.9
8.79016000 0.003044 155.08 0.999984 -80.77 0.999984 -80.77 0.003032 -137.0
8.79017000 0.003047 155.13 0.999984 -80.77 0.999984 -80.77 0.003035 -137.0
8.79018000 0.003051 155.18 0.999984 -80.77 0.999984 -80.77 0.003039 -137.1
8.79019000 0.003055 155.22 0.999984 -80.78 0.999984 -80.78 0.003043 -137.1
8.79020000 0.003059 155.27 0.999984 -80.78 0.999984 -80.78 0.003047 -137.2
8.79021000 0.003063 155.32 0.999983 -80.78 0.999983 -80.78 0.003051 -137.2
8.79022000 0.003067 155.37 0.999983 -80.78 0.999983 -80.78 0.003055 -137.3
8.79023000 0.003071 155.42 0.999983 -80.78 0.999983 -80.78 0.003058 -137.3
8.79024000 0.003074 155.47 0.999983 -80.78 0.999983 -80.78 0.003062 -137.4
8.79025000 0.003078 155.51 0.999983 -80.78 0.999983 -80.78 0.003066 -137.4
8.79026000 0.003082 155.56 0.999983 -80.78 0.999983 -80.78 0.003070 -137.5
8.79027000 0.003086 155.61 0.999983 -80.78 0.999983 -80.78 0.003074 -137.5
8.79028000 0.003090 155.66 0.999983 -80.78 0.999983 -80.78 0.003078 -137.6
8.79029000 0.003094 155.71 0.999983 -80.78 0.999983 -80.78 0.003082 -137.6
8.79030000 0.003098 155.75 0.999983 -80.78 0.999983 -80.78 0.003086 -137.7
8.79031000 0.003102 155.80 0.999983 -80.78 0.999983 -80.78 0.003090 -137.7
8.79032000 0.003106 155.85 0.999983 -80.78 0.999983 -80.78 0.003093 -137.7
8.79033000 0.003110 155.90 0.999983 -80.78 0.999983 -80.78 0.003097 -137.8
8.79034000 0.003114 155.95 0.999983 -80.78 0.999983 -80.78 0.003101 -137.8
8.79035000 0.003118 155.99 0.999983 -80.78 0.999983 -80.78 0.003105 -137.9
8.79036000 0.003121 156.04 0.999983 -80.78 0.999983 -80.78 0.003109 -137.9
8.79037000 0.003125 156.09 0.999983 -80.78 0.999983 -80.78 0.003113 -138.0
8.79038000 0.003129 156.14 0.999983 -80.78 0.999983 -80.78 0.003117 -138.0
8.79039000 0.003133 156.18 0.999983 -80.78 0.999983 -80.78 0.003121 -138.1
8.79040000 0.003137 156.23 0.999983 -80.78 0.999983 -80.78 0.003125 -138.1
8.79041000 0.003141 156.28 0.999983 -80.78 0.999983 -80.78 0.003129 -138.2
8.79042000 0.003145 156.33 0.999983 -80.78 0.999983 -80.78 0.003133 -138.2
8.79043000 0.003150 156.37 0.999983 -80.78 0.999983 -80.78 0.003137 -138.3
8.79044000 0.003154 156.42 0.999983 -80.78 0.999983 -80.78 0.003141 -138.3
8.79045000 0.003158 156.47 0.999983 -80.78 0.999983 -80.78 0.003145 -138.4
8.79046000 0.003162 156.52 0.999983 -80.78 0.999983 -80.78 0.003150 -138.4
8.79047000 0.003166 156.56 0.999983 -80.79 0.999983 -80.79 0.003154 -138.5
8.79048000 0.003170 156.61 0.999983 -80.79 0.999983 -80.79 0.003158 -138.5
8.79049000 0.003174 156.66 0.999983 -80.79 0.999983 -80.79 0.003162 -138.6
8.79050000 0.003178 156.70 0.999983 -80.79 0.999983 -80.79 0.003166 -138.6
8.79051000 0.003182 156.75 0.999983 -80.79 0.999983 -80.79 0.003170 -138.7
8.79052000 0.003186 156.80 0.999983 -80.79 0.999983 -80.79 0.003174 -138.7
8.79053000 0.003190 156.85 0.999983 -80.79 0.999983 -80.79 0.003178 -138.8
8.79054000 0.003194 156.89 0.999983 -80.79 0.999983 -80.79 0.003182 -138.8
8.79055000 0.003199 156.94 0.999983 -80.79 0.999983 -80.79 0.003186 -138.9
8.79056000 0.003203 156.99 0.999983 -80.79 0.999983 -80.79 0.003191 -138.9
8.79057000 0.003207 157.03 0.999983 -80.79 0.999983 -80.79 0.003195 -139.0
8.79058000 0.003211 157.08 0.999982 -80.79 0.999982 -80.79 0.003199 -139.0
8.79059000 0.003215 157.13 0.999982 -80.79 0.999982 -80.79 0.003203 -139.1
8.79060000 0.003219 157.17 0.999982 -80.79 0.999982 -80.79 0.003207 -139.1
8.79061000 0.003224 157.22 0.999982 -80.79 0.999982 -80.79 0.003211 -139.1
8.79062000 0.003228 157.27 0.999982 -80.79 0.999982 -80.79 0.003216 -139.2
8.79063000 0.003232 157.31 0.999982 -80.79 0.999982 -80.79 0.003220 -139.2
8.79064000 0.003236 157.36 0.999982 -80.79 0.999982 -80.79 0.003224 -139.3
8.79065000 0.003241 157.41 0.999982 -80.79 0.999982 -80.79 0.003228 -139.3
8.79066000 0.003245 157.45 0.999982 -80.79 0.999982 -80.79 0.003233 -139.4
8.79067000 0.003249 157.50 0.999982 -80.79 0.999982 -80.79 0.003237 -139.4
8.79068000 0.003253 157.54 0.999982 -80.79 0.999982 -80.79 0.003241 -139.5
8.79069000 0.003258 157.59 0.999982 -80.79 0.999982 -80.79 0.003245 -139.5
8.79070000 0.003262 157.64 0.999982 -80.79 0.999982 -80.79 0.003250 -139.6
8.79071000 0.003266 157.68 0.999982 -80.79 0.999982 -80.79 0.003254 -139.6
8.79072000 0.003270 157.73 0.999982 -80.79 0.999982 -80.79 0.003258 -139.7
8.79073000 0.003275 157.78 0.999982 -80.80 0.999982 -80.80 0.003263 -139.7
8.79074000 0.003279 157.82 0.999982 -80.80 0.999982 -80.80 0.003267 -139.8
8.79075000 0.003283 157.87 0.999982 -80.80 0.999982 -80.80 0.003271 -139.8
8.79076000 0.003288 157.91 0.999982 -80.80 0.999982 -80.80 0.003276 -139.9
8.79077000 0.003292 157.96 0.999982 -80.80 0.999982 -80.80 0.003280 -139.9
8.79078000 0.003296 158.01 0.999982 -80.80 0.999982 -80.80 0.003284 -139.9
8.79079000 0.003301 158.05 0.999982 -80.80 0.999982 -80.80 0.003289 -140.0
8.79080000 0.003305 158.10 0.999982 -80.80 0.999982 -80.80 0.003293 -140.0
8.79081000 0.003310 158.14 0.999982 -80.80 0.999982 -80.80 0.003297 -140.1
8.79082000 0.003314 158.19 0.999982 -80.80 0.999982 -80.80 0.003302 -140.1
8.79083000 0.003318 158.23 0.999982 -80.80 0.999982 -80.80 0.003306 -140.2
8.79084000 0.003323 158.28 0.999982 -80.80 0.999982 -80.80 0.003311 -140.2
8.79085000 0.003327 158.33 0.999982 -80.80 0.999982 -80.80 0.003315 -140.3
8.79086000 0.003332 158.37 0.999982 -80.80 0.999982 -80.80 0.003319 -140.3
8.79087000 0.003336 158.42 0.999982 -80.80 0.999982 -80.80 0.003324 -140.4
8.79088000 0.003341 158.46 0.999982 -80.80 0.999982 -80.80 0.003328 -140.4
8.79089000 0.003345 158.51 0.999982 -80.80 0.999982 -80.80 0.003333 -140.5
8.79090000 0.003349 158.55 0.999982 -80.80 0.999982 -80.80 0.003337 -140.5
8.79091000 0.003354 158.60 0.999981 -80.80 0.999981 -80.80 0.003342 -140.6
8.79092000 0.003358 158.64 0.999981 -80.80 0.999981 -80.80 0.003346 -140.6
8.79093000 0.003363 158.69 0.999981 -80.80 0.999981 -80.80 0.003351 -140.6
8.79094000 0.003367 158.73 0.999981 -80.80 0.999981 -80.80 0.003355 -140.7
8.79095000 0.003372 158.78 0.999981 -80.80 0.999981 -80.80 0.003360 -140.7
8.79096000 0.003376 158.82 0.999981 -80.80 0.999981 -80.80 0.003364 -140.8
8.79097000 0.003381 158.87 0.999981 -80.80 0.999981 -80.80 0.003369 -140.8
8.79098000 0.003386 158.91 0.999981 -80.80 0.999981 -80.80 0.003373 -140.9
8.79099000 0.003390 158.96 0.999981 -80.81 0.999981 -80.81 0.003378 -140.9
8.79100000 0.003395 159.00 0.999981 -80.81 0.999981 -80.81 0.003383 -141.0
8.79101000 0.003399 159.05 0.999981 -80.81 0.999981 -80.81 0.003387 -141.0
8.79102000 0.003404 159.09 0.999981 -80.81 0.999981 -80.81 0.003392 -141.1
8.79103000 0.003408 159.14 0.999981 -80.81 0.999981 -80.81 0.003396 -141.1
8.79104000 0.003413 159.18 0.999981 -80.81 0.999981 -80.81 0.003401 -141.2
8.79105000 0.003418 159.23 0.999981 -80.81 0.999981 -80.81 0.003406 -141.2
8.79106000 0.003422 159.27 0.999981 -80.81 0.999981 -80.81 0.003410 -141.2
8.79107000 0.003427 159.32 0.999981 -80.81 0.999981 -80.81 0.003415 -141.3
8.79108000 0.003432 159.36 0.999981 -80.81 0.999981 -80.81 0.003419 -141.3
8.79109000 0.003436 159.41 0.999981 -80.81 0.999981 -80.81 0.003424 -141.4
8.79110000 0.003441 159.45 0.999981 -80.81 0.999981 -80.81 0.003429 -141.4
8.79111000 0.003446 159.49 0.999981 -80.81 0.999981 -80.81 0.003433 -141.5
8.79112000 0.003450 159.54 0.999981 -80.81 0.999981 -80.81 0.003438 -141.5
8.79113000 0.003455 159.58 0.999981 -80.81 0.999981 -80.81 0.003443 -141.6
8.79114000 0.003460 159.63 0.999981 -80.81 0.999981 -80.81 0.003448 -141.6
8.79115000 0.003464 159.67 0.999981 -80.81 0.999981 -80.81 0.003452 -141.7
8.79116000 0.003469 159.72 0.999981 -80.81 0.999981 -80.81 0.003457 -141.7
8.79117000 0.003474 159.76 0.999981 -80.81 0.999981 -80.81 0.003462 -141.7
8.79118000 0.003479 159.80 0.999981 -80.81 0.999981 -80.81 0.003467 -141.8
8.79119000 0.003483 159.85 0.999981 -80.81 0.999981 -80.81 0.003471 -141.8
8.79120000 0.003488 159.89 0.999981 -80.81 0.999981 -80.81 0.003476 -141.9
8.79121000 0.003493 159.94 0.999980 -80.81 0.999980 -80.81 0.003481 -141.9
8.79122000 0.003498 159.98 0.999980 -80.81 0.999980 -80.81 0.003486 -142.0
8.79123000 0.003503 160.02 0.999980 -80.81 0.999980 -80.81 0.003490 -142.0
8.79124000 0.003507 160.07 0.999980 -80.82 0.999980 -80.82 0.003495 -142.1
8.79125000 0.003512 160.11 0.999980 -80.82 0.999980 -80.82 0.003500 -142.1
8.79126000 0.003517 160.15 0.999980 -80.82 0.999980 -80.82 0.003505 -142.1
8.79127000 0.003522 160.20 0.999980 -80.82 0.999980 -80.82 0.003510 -142.2
8.79128000 0.003527 160.24 0.999980 -80.82 0.999980 -80.82 0.003515 -142.2
8.79129000 0.003532 160.29 0.999980 -80.82 0.999980 -80.82 0.003520 -142.3
8.79130000 0.003537 160.33 0.999980 -80.82 0.999980 -80.82 0.003524 -142.3
8.79131000 0.003542 160.37 0.999980 -80.82 0.999980 -80.82 0.003529 -142.4
8.79132000 0.003546 160.42 0.999980 -80.82 0.999980 -80.82 0.003534 -142.4
8.79133000 0.003551 160.46 0.999980 -80.82 0.999980 -80.82 0.003539 -142.5
8.79134000 0.003556 160.50 0.999980 -80.82 0.999980 -80.82 0.003544 -142.5
8.79135000 0.003561 160.55 0.999980 -80.82 0.999980 -80.82 0.003549 -142.5
8.79136000 0.003566 160.59 0.999980 -80.82 0.999980 -80.82 0.003554 -142.6
8.79137000 0.003571 160.63 0.999980 -80.82 0.999980 -80.82 0.003559 -142.6
8.79138000 0.003576 160.68 0.999980 -80.82 0.999980 -80.82 0.003564 -142.7
8.79139000 0.003581 160.72 0.999980 -80.82 0.999980 -80.82 0.003569 -142.7
8.79140000 0.003586 160.76 0.999980 -80.82 0.999980 -80.82 0.003574 -142.8
8.79141000 0.003591 160.81 0.999980 -80.82 0.999980 -80.82 0.003579 -142.8
8.79142000 0.003596 160.85 0.999980 -80.82 0.999980 -80.82 0.003584 -142.9
8.79143000 0.003601 160.89 0.999980 -80.82 0.999980 -80.82 0.003589 -142.9
8.79144000 0.003606 160.93 0.999980 -80.82 0.999980 -80.82 0.003594 -142.9
8.79145000 0.003611 160.98 0.999980 -80.82 0.999980 -80.82 0.003599 -143.0
8.79146000 0.003616 161.02 0.999980 -80.82 0.999980 -80.82 0.003604 -143.0
8.79147000 0.003621 161.06 0.999980 -80.82 0.999980 -80.82 0.003609 -143.1
8.79148000 0.003626 161.11 0.999980 -80.83 0.999980 -80.83 0.003614 -143.1
8.79149000 0.003631 161.15 0.999979 -80.83 0.999979 -80.83 0.003619 -143.2
8.79150000 0.003637 161.19 0.999979 -80.83 0.999979 -80.83 0.003624 -143.2
8.79151000 0.003642 161.23 0.999979 -80.83 0.999979 -80.83 0.003629 -143.2
8.79152000 0.003647 161.28 0.999979 -80.83 0.999979 -80.83 0.003635 -143.3
8.79153000 0.003652 161.32 0.999979 -80.83 0.999979 -80.83 0.003640 -143.3
8.79154000 0.003657 161.36 0.999979 -80.83 0.999979 -80.83 0.003645 -143.4
8.79155000 0.003662 161.40 0.999979 -80.83 0.999979 -80.83 0.003650 -143.4
8.79156000 0.003667 161.45 0.999979 -80.83 0.999979 -80.83 0.003655 -143.5
8.79157000 0.003673 161.49 0.999979 -80.83 0.999979 -80.83 0.003660 -143.5
8.79158000 0.003678 161.53 0.999979 -80.83 0.999979 -80.83 0.003666 -143.6
8.79159000 0.003683 161.57 0.999979 -80.83 0.999979 -80.83 0.003671 -143.6
8.79160000 0.003688 161.62 0.999979 -80.83 0.999979 -80.83 0.003676 -143.6
8.79161000 0.003694 161.66 0.999979 -80.83 0.999979 -80.83 0.003681 -143.7
8.79162000 0.003699 161.70 0.999979 -80.83 0.999979 -80.83 0.003686 -143.7
8.79163000 0.003704 161.74 0.999979 -80.83 0.999979 -80.83 0.003692 -143.8
8.79164000 0.003709 161.78 0.999979 -80.83 0.999979 -80.83 0.003697 -143.8
8.79165000 0.003715 161.83 0.999979 -80.83 0.999979 -80.83 0.003702 -143.9
8.79166000 0.003720 161.87 0.999979 -80.83 0.999979 -80.83 0.003708 -143.9
8.79167000 0.003725 161.91 0.999979 -80.83 0.999979 -80.83 0.003713 -143.9
8.79168000 0.003730 161.95 0.999979 -80.83 0.999979 -80.83 0.003718 -144.0
8.79169000 0.003736 161.99 0.999979 -80.83 0.999979 -80.83 0.003724 -144.0
8.79170000 0.003741 162.04 0.999979 -80.83 0.999979 -80.83 0.003729 -144.1
8.79171000 0.003746 162.08 0.999979 -80.84 0.999979 -80.84 0.003734 -144.1
8.79172000 0.003752 162.12 0.999979 -80.84 0.999979 -80.84 0.003740 -144.2
8.79173000 0.003757 162.16 0.999979 -80.84 0.999979 -80.84 0.003745 -144.2
8.79174000 0.003763 162.20 0.999978 -80.84 0.999978 -80.84 0.003750 -144.2
8.79175000 0.003768 162.25 0.999978 -80.84 0.999978 -80.84 0.003756 -144.3
8.79176000 0.003773 162.29 0.999978 -80.84 0.999978 -80.84 0.003761 -144.3
8.79177000 0.003779 162.33 0.999978 -80.84 0.999978 -80.84 0.003767 -144.4
8.79178000 0.003784 162.37 0.999978 -80.84 0.999978 -80.84 0.003772 -144.4
8.79179000 0.003790 162.41 0.999978 -80.84 0.999978 -80.84 0.003777 -144.5
8.79180000 0.003795 162.45 0.999978 -80.84 0.999978 -80.84 0.003783 -144.5
8.79181000 0.003801 162.49 0.999978 -80.84 0.999978 -80.84 0.003788 -144.5
8.79182000 0.003806 162.54 0.999978 -80.84 0.999978 -80.84 0.003794 -144.6
8.79183000 0.003812 162.58 0.999978 -80.84 0.999978 -80.84 0.003799 -144.6
8.79184000 0.003817 162.62 0.999978 -80.84 0.999978 -80.84 0.003805 -144.7
8.79185000 0.003823 162.66 0.999978 -80.84 0.999978 -80.84 0.003810 -144.7
8.79186000 0.003828 162.70 0.999978 -80.84 0.999978 -80.84 0.003816 -144.8
8.79187000 0.003834 162.74 0.999978 -80.84 0.999978 -80.84 0.003821 -144.8
8.79188000 0.003839 162.78 0.999978 -80.84 0.999978 -80.84 0.003827 -144.8
8.79189000 0.003845 162.82 0.999978 -80.84 0.999978 -80.84 0.003833 -144.9
8.79190000 0.003850 162.86 0.999978 -80.84 0.999978 -80.84 0.003838 -144.9
8.79191000 0.003856 162.90 0.999978 -80.84 0.999978 -80.84 0.003844 -145.0
8.79192000 0.003862 162.95 0.999978 -80.84 0.999978 -80.84 0.003849 -145.0
8.79193000 0.003867 162.99 0.999978 -80.84 0.999978 -80.84 0.003855 -145.0
8.79194000 0.003873 163.03 0.999978 -80.85 0.999978 -80.85 0.003861 -145.1
8.79195000 0.003878 163.07 0.999978 -80.85 0.999978 -80.85 0.003866 -145.1
8.79196000 0.003884 163.11 0.999978 -80.85 0.999978 -80.85 0.003872 -145.2
8.79197000 0.003890 163.15 0.999977 -80.85 0.999977 -80.85 0.003878 -145.2
8.79198000 0.003896 163.19 0.999977 -80.85 0.999977 -80.85 0.003883 -145.3
8.79199000 0.003901 163.23 0.999977 -80.85 0.999977 -80.85 0.003889 -145.3
8.79200000 0.003907 163.27 0.999977 -80.85 0.999977 -80.85 0.003895 -145.3
8.79201000 0.003913 163.31 0.999977 -80.85 0.999977 -80.85 0.003900 -145.4
8.79202000 0.003918 163.35 0.999977 -80.85 0.999977 -80.85 0.003906 -145.4
8.79203000 0.003924 163.39 0.999977 -80.85 0.999977 -80.85 0.003912 -145.5
8.79204000 0.003930 163.43 0.999977 -80.85 0.999977 -80.85 0.003918 -145.5
8.79205000 0.003936 163.47 0.999977 -80.85 0.999977 -80.85 0.003923 -145.5
8.79206000 0.003941 163.51 0.999977 -80.85 0.999977 -80.85 0.003929 -145.6
8.79207000 0.003947 163.55 0.999977 -80.85 0.999977 -80.85 0.003935 -145.6
8.79208000 0.003953 163.59 0.999977 -80.85 0.999977 -80.85 0.003941 -145.7
8.79209000 0.003959 163.63 0.999977 -80.85 0.999977 -80.85 0.003947 -145.7
8.79210000 0.003965 163.67 0.999977 -80.85 0.999977 -80.85 0.003952 -145.8
8.79211000 0.003971 163.71 0.999977 -80.85 0.999977 -80.85 0.003958 -145.8
8.79212000 0.003976 163.75 0.999977 -80.85 0.999977 -80.85 0.003964 -145.8
8.79213000 0.003982 163.79 0.999977 -80.85 0.999977 -80.85 0.003970 -145.9
8.79214000 0.003988 163.83 0.999977 -80.85 0.999977 -80.85 0.003976 -145.9
8.79215000 0.003994 163.87 0.999977 -80.85 0.999977 -80.85 0.003982 -146.0
8.79216000 0.004000 163.91 0.999977 -80.86 0.999977 -80.86 0.003988 -146.0
8.79217000 0.004006 163.95 0.999977 -80.86 0.999977 -80.86 0.003994 -146.0
8.79218000 0.004012 163.99 0.999977 -80.86 0.999977 -80.86 0.004000 -146.1
8.79219000 0.004018 164.03 0.999976 -80.86 0.999976 -80.86 0.004005 -146.1
8.79220000 0.004024 164.07 0.999976 -80.86 0.999976 -80.86 0.004011 -146.2
8.79221000 0.004030 164.11 0.999976 -80.86 0.999976 -80.86 0.004017 -146.2
8.79222000 0.004036 164.15 0.999976 -80.86 0.999976 -80.86 0.004023 -146.2
8.79223000 0.004042 164.19 0.999976 -80.86 0.999976 -80.86 0.004029 -146.3
8.79224000 0.004048 164.23 0.999976 -80.86 0.999976 -80.86 0.004035 -146.3
8.79225000 0.004054 164.27 0.999976 -80.86 0.999976 -80.86 0.004042 -146.4
8.79226000 0.004060 164.31 0.999976 -80.86 0.999976 -80.86 0.004048 -146.4
8.79227000 0.004066 164.35 0.999976 -80.86 0.999976 -80.86 0.004054 -146.4
8.79228000 0.004072 164.39 0.999976 -80.86 0.999976 -80.86 0.004060 -146.5
8.79229000 0.004078 164.43 0.999976 -80.86 0.999976 -80.86 0.004066 -146.5
8.79230000 0.004084 164.47 0.999976 -80.86 0.999976 -80.86 0.004072 -146.6
8.79231000 0.004090 164.51 0.999976 -80.86 0.999976 -80.86 0.004078 -146.6
8.79232000 0.004097 164.55 0.999976 -80.86 0.999976 -80.86 0.004084 -146.6
8.79233000 0.004103 164.58 0.999976 -80.86 0.999976 -80.86 0.004090 -146.7
8.79234000 0.004109 164.62 0.999976 -80.86 0.999976 -80.86 0.004096 -146.7
8.79235000 0.004115 164.66 0.999976 -80.86 0.999976 -80.86 0.004103 -146.8
8.79236000 0.004121 164.70 0.999976 -80.86 0.999976 -80.86 0.004109 -146.8
8.79237000 0.004127 164.74 0.999976 -80.87 0.999976 -80.87 0.004115 -146.8
8.79238000 0.004134 164.78 0.999976 -80.87 0.999976 -80.87 0.004121 -146.9
8.79239000 0.004140 164.82 0.999976 -80.87 0.999976 -80.87 0.004128 -146.9
8.79240000 0.004146 164.86 0.999975 -80.87 0.999975 -80.87 0.004134 -147.0
8.79241000 0.004152 164.90 0.999975 -80.87 0.999975 -80.87 0.004140 -147.0
8.79242000 0.004159 164.94 0.999975 -80.87 0.999975 -80.87 0.004146 -147.0
8.79243000 0.004165 164.97 0.999975 -80.87 0.999975 -80.87 0.004153 -147.1
8.79244000 0.004171 165.01 0.999975 -80.87 0.999975 -80.87 0.004159 -147.1
8.79245000 0.004178 165.05 0.999975 -80.87 0.999975 -80.87 0.004165 -147.2
8.79246000 0.004184 165.09 0.999975 -80.87 0.999975 -80.87 0.004172 -147.2
8.79247000 0.004190 165.13 0.999975 -80.87 0.999975 -80.87 0.004178 -147.2
8.79248000 0.004197 165.17 0.999975 -80.87 0.999975 -80.87 0.004184 -147.3
8.79249000 0.004203 165.21 0.999975 -80.87 0.999975 -80.87 0.004191 -147.3
8.79250000 0.004209 165.24 0.999975 -80.87 0.999975 -80.87 0.004197 -147.4
8.79251000 0.004216 165.28 0.999975 -80.87 0.999975 -80.87 0.004203 -147.4
8.79252000 0.004222 165.32 0.999975 -80.87 0.999975 -80.87 0.004210 -147.4
8.79253000 0.004229 165.36 0.999975 -80.87 0.999975 -80.87 0.004216 -147.5
8.79254000 0.004235 165.40 0.999975 -80.87 0.999975 -80.87 0.004223 -147.5
8.79255000 0.004242 165.44 0.999975 -80.87 0.999975 -80.87 0.004229 -147.6
8.79256000 0.004248 165.47 0.999975 -80.87 0.999975 -80.87 0.004236 -147.6
8.79257000 0.004255 165.51 0.999975 -80.88 0.999975 -80.88 0.004242 -147.6
8.79258000 0.004261 165.55 0.999975 -80.88 0.999975 -80.88 0.004249 -147.7
8.79259000 0.004268 165.59 0.999974 -80.88 0.999974 -80.88 0.004255 -147.7
8.79260000 0.004274 165.63 0.999974 -80.88 0.999974 -80.88 0.004262 -147.8
8.79261000 0.004281 165.66 0.999974 -80.88 0.999974 -80.88 0.004268 -147.8
8.79262000 0.004287 165.70 0.999974 -80.88 0.999974 -80.88 0.004275 -147.8
8.79263000 0.004294 165.74 0.999974 -80.88 0.999974 -80.88 0.004282 -147.9
8.79264000 0.004301 165.78 0.999974 -80.88 0.999974 -80.88 0.004288 -147.9
8.79265000 0.004307 165.81 0.999974 -80.88 0.999974 -80.88 0.004295 -148.0
8.79266000 0.004314 165.85 0.999974 -80.88 0.999974 -80.88 0.004301 -148.0
8.79267000 0.004320 165.89 0.999974 -80.88 0.999974 -80.88 0.004308 -148.0
8.79268000 0.004327 165.93 0.999974 -80.88 0.999974 -80.88 0.004315 -148.1
8.79269000 0.004334 165.97 0.999974 -80.88 0.999974 -80.88 0.004321 -148.1
8.79270000 0.004341 166.00 0.999974 -80.88 0.999974 -80.88 0.004328 -148.2
8.79271000 0.004347 166.04 0.999974 -80.88 0.999974 -80.88 0.004335 -148.2
8.79272000 0.004354 166.08 0.999974 -80.88 0.999974 -80.88 0.004341 -148.2
8.79273000 0.004361 166.12 0.999974 -80.88 0.999974 -80.88 0.004348 -148.3
8.79274000 0.004367 166.15 0.999974 -80.88 0.999974 -80.88 0.004355 -148.3
8.79275000 0.004374 166.19 0.999974 -80.88 0.999974 -80.88 0.004362 -148.3
8.79276000 0.004381 166.23 0.999973 -80.88 0.999973 -80.88 0.004369 -148.4
8.79277000 0.004388 166.27 0.999973 -80.89 0.999973 -80.89 0.004375 -148.4
8.79278000 0.004395 166.30 0.999973 -80.89 0.999973 -80.89 0.004382 -148.5
8.79279000 0.004401 166.34 0.999973 -80.89 0.999973 -80.89 0.004389 -148.5
8.79280000 0.004408 166.38 0.999973 -80.89 0.999973 -80.89 0.004396 -148.5
8.79281000 0.004415 166.41 0.999973 -80.89 0.999973 -80.89 0.004403 -148.6
8.79282000 0.004422 166.45 0.999973 -80.89 0.999973 -80.89 0.004410 -148.6
8.79283000 0.004429 166.49 0.999973 -80.89 0.999973 -80.89 0.004417 -148.7
8.79284000 0.004436 166.53 0.999973 -80.89 0.999973 -80.89 0.004423 -148.7
8.79285000 0.004443 166.56 0.999973 -80.89 0.999973 -80.89 0.004430 -148.7
8.79286000 0.004450 166.60 0.999973 -80.89 0.999973 -80.89 0.004437 -148.8
8.79287000 0.004457 166.64 0.999973 -80.89 0.999973 -80.89 0.004444 -148.8
8.79288000 0.004464 166.67 0.999973 -80.89 0.999973 -80.89 0.004451 -148.8
8.79289000 0.004471 166.71 0.999973 -80.89 0.999973 -80.89 0.004458 -148.9
8.79290000 0.004478 166.75 0.999973 -80.89 0.999973 -80.89 0.004465 -148.9
8.79291000 0.004485 166.78 0.999973 -80.89 0.999973 -80.89 0.004472 -149.0
8.79292000 0.004492 166.82 0.999973 -80.89 0.999973 -80.89 0.004479 -149.0
8.79293000 0.004499 166.86 0.999972 -80.89 0.999972 -80.89 0.004486 -149.0
8.79294000 0.004506 166.89 0.999972 -80.89 0.999972 -80.89 0.004494 -149.1
8.79295000 0.004513 166.93 0.999972 -80.89 0.999972 -80.89 0.004501 -149.1
8.79296000 0.004520 166.97 0.999972 -80.90 0.999972 -80.90 0.004508 -149.1
8.79297000 0.004527 167.00 0.999972 -80.90 0.999972 -80.90 0.004515 -149.2
8.79298000 0.004535 167.04 0.999972 -80.90 0.999972 -80.90 0.004522 -149.2
8.79299000 0.004542 167.08 0.999972 -80.90 0.999972 -80.90 0.004529 -149.3
8.79300000 0.004549 167.11 0.999972 -80.90 0.999972 -80.90 0.004536 -149.3
8.79301000 0.004556 167.15 0.999972 -80.90 0.999972 -80.90 0.004544 -149.3
8.79302000 0.004563 167.18 0.999972 -80.90 0.999972 -80.90 0.004551 -149.4
8.79303000 0.004571 167.22 0.999972 -80.90 0.999972 -80.90 0.004558 -149.4
8.79304000 0.004578 167.26 0.999972 -80.90 0.999972 -80.90 0.004565 -149.4
8.79305000 0.004585 167.29 0.999972 -80.90 0.999972 -80.90 0.004573 -149.5
8.79306000 0.004592 167.33 0.999972 -80.90 0.999972 -80.90 0.004580 -149.5
8.79307000 0.004600 167.37 0.999972 -80.90 0.999972 -80.90 0.004587 -149.6
8.79308000 0.004607 167.40 0.999972 -80.90 0.999972 -80.90 0.004594 -149.6
8.79309000 0.004614 167.44 0.999971 -80.90 0.999971 -80.90 0.004602 -149.6
8.79310000 0.004622 167.47 0.999971 -80.90 0.999971 -80.90 0.004609 -149.7
8.79311000 0.004629 167.51 0.999971 -80.90 0.999971 -80.90 0.004616 -149.7
8.79312000 0.004636 167.55 0.999971 -80.90 0.999971 -80.90 0.004624 -149.7
8.79313000 0.004644 167.58 0.999971 -80.90 0.999971 -80.90 0.004631 -149.8
8.79314000 0.004651 167.62 0.999971 -80.91 0.999971 -80.91 0.004639 -149.8
8.79315000 0.004659 167.65 0.999971 -80.91 0.999971 -80.91 0.004646 -149.9
8.79316000 0.004666 167.69 0.999971 -80.91 0.999971 -80.91 0.004654 -149.9
8.79317000 0.004674 167.72 0.999971 -80.91 0.999971 -80.91 0.004661 -149.9
8.79318000 0.004681 167.76 0.999971 -80.91 0.999971 -80.91 0.004669 -150.0
8.79319000 0.004689 167.80 0.999971 -80.91 0.999971 -80.91 0.004676 -150.0
8.79320000 0.004696 167.83 0.999971 -80.91 0.999971 -80.91 0.004684 -150.0
8.79321000 0.004704 167.87 0.999971 -80.91 0.999971 -80.91 0.004691 -150.1
8.79322000 0.004711 167.90 0.999971 -80.91 0.999971 -80.91 0.004699 -150.1
8.79323000 0.004719 167.94 0.999971 -80.91 0.999971 -80.91 0.004706 -150.2
8.79324000 0.004727 167.97 0.999970 -80.91 0.999970 -80.91 0.004714 -150.2
8.79325000 0.004734 168.01 0.999970 -80.91 0.999970 -80.91 0.004722 -150.2
8.79326000 0.004742 168.04 0.999970 -80.91 0.999970 -80.91 0.004729 -150.3
8.79327000 0.004749 168.08 0.999970 -80.91 0.999970 -80.91 0.004737 -150.3
8.79328000 0.004757 168.11 0.999970 -80.91 0.999970 -80.91 0.004745 -150.3
8.79329000 0.004765 168.15 0.999970 -80.91 0.999970 -80.91 0.004752 -150.4
8.79330000 0.004773 168.18 0.999970 -80.91 0.999970 -80.91 0.004760 -150.4
8.79331000 0.004780 168.22 0.999970 -80.91 0.999970 -80.91 0.004768 -150.4
8.79332000 0.004788 168.25 0.999970 -80.92 0.999970 -80.92 0.004775 -150.5
8.79333000 0.004796 168.29 0.999970 -80.92 0.999970 -80.92 0.004783 -150.5
8.79334000 0.004804 168.32 0.999970 -80.92 0.999970 -80.92 0.004791 -150.6
8.79335000 0.004811 168.36 0.999970 -80.92 0.999970 -80.92 0.004799 -150.6
8.79336000 0.004819 168.39 0.999970 -80.92 0.999970 -80.92 0.004807 -150.6
8.79337000 0.004827 168.43 0.999970 -80.92 0.999970 -80.92 0.004814 -150.7
8.79338000 0.004835 168.46 0.999969 -80.92 0.999969 -80.92 0.004822 -150.7
8.79339000 0.004843 168.50 0.999969 -80.92 0.999969 -80.92 0.004830 -150.7
8.79340000 0.004851 168.53 0.999969 -80.92 0.999969 -80.92 0.004838 -150.8
8.79341000 0.004859 168.57 0.999969 -80.92 0.999969 -80.92 0.004846 -150.8
8.79342000 0.004867 168.60 0.999969 -80.92 0.999969 -80.92 0.004854 -150.8
8.79343000 0.004875 168.64 0.999969 -80.92 0.999969 -80.92 0.004862 -150.9
8.79344000 0.004883 168.67 0.999969 -80.92 0.999969 -80.92 0.004870 -150.9
8.79345000 0.004891 168.71 0.999969 -80.92 0.999969 -80.92 0.004878 -150.9
8.79346000 0.004899 168.74 0.999969 -80.92 0.999969 -80.92 0.004886 -151.0
8.79347000 0.004907 168.78 0.999969 -80.92 0.999969 -80.92 0.004894 -151.0
8.79348000 0.004915 168.81 0.999969 -80.92 0.999969 -80.92 0.004902 -151.1
8.79349000 0.004923 168.84 0.999969 -80.92 0.999969 -80.92 0.004910 -151.1
8.79350000 0.004931 168.88 0.999969 -80.93 0.999969 -80.93 0.004918 -151.1
8.79351000 0.004939 168.91 0.999969 -80.93 0.999969 -80.93 0.004926 -151.2
8.79352000 0.004947 168.95 0.999968 -80.93 0.999968 -80.93 0.004935 -151.2
8.79353000 0.004955 168.98 0.999968 -80.93 0.999968 -80.93 0.004943 -151.2
8.79354000 0.004964 169.02 0.999968 -80.93 0.999968 -80.93 0.004951 -151.3
8.79355000 0.004972 169.05 0.999968 -80.93 0.999968 -80.93 0.004959 -151.3
8.79356000 0.004980 169.08 0.999968 -80.93 0.999968 -80.93 0.004967 -151.3
8.79357000 0.004988 169.12 0.999968 -80.93 0.999968 -80.93 0.004976 -151.4
8.79358000 0.004997 169.15 0.999968 -80.93 0.999968 -80.93 0.004984 -151.4
8.79359000 0.005005 169.19 0.999968 -80.93 0.999968 -80.93 0.004992 -151.4
8.79360000 0.005013 169.22 0.999968 -80.93 0.999968 -80.93 0.005000 -151.5
8.79361000 0.005021 169.25 0.999968 -80.93 0.999968 -80.93 0.005009 -151.5
8.79362000 0.005030 169.29 0.999968 -80.93 0.999968 -80.93 0.005017 -151.6
8.79363000 0.005038 169.32 0.999968 -80.93 0.999968 -80.93 0.005025 -151.6
8.79364000 0.005047 169.36 0.999968 -80.93 0.999968 -80.93 0.005034 -151.6
8.79365000 0.005055 169.39 0.999967 -80.93 0.999967 -80.93 0.005042 -151.7
8.79366000 0.005063 169.42 0.999967 -80.94 0.999967 -80.94 0.005051 -151.7
8.79367000 0.005072 169.46 0.999967 -80.94 0.999967 -80.94 0.005059 -151.7
8.79368000 0.005080 169.49 0.999967 -80.94 0.999967 -80.94 0.005067 -151.8
8.79369000 0.005089 169.52 0.999967 -80.94 0.999967 -80.94 0.005076 -151.8
8.79370000 0.005097 169.56 0.999967 -80.94 0.999967 -80.94 0.005084 -151.8
8.79371000 0.005106 169.59 0.999967 -80.94 0.999967 -80.94 0.005093 -151.9
8.79372000 0.005114 169.63 0.999967 -80.94 0.999967 -80.94 0.005102 -151.9
8.79373000 0.005123 169.66 0.999967 -80.94 0.999967 -80.94 0.005110 -151.9
8.79374000 0.005132 169.69 0.999967 -80.94 0.999967 -80.94 0.005119 -152.0
8.79375000 0.005140 169.73 0.999967 -80.94 0.999967 -80.94 0.005127 -152.0
8.79376000 0.005149 169.76 0.999967 -80.94 0.999967 -80.94 0.005136 -152.0
8.79377000 0.005157 169.79 0.999966 -80.94 0.999966 -80.94 0.005145 -152.1
8.79378000 0.005166 169.83 0.999966 -80.94 0.999966 -80.94 0.005153 -152.1
8.79379000 0.005175 169.86 0.999966 -80.94 0.999966 -80.94 0.005162 -152.2
8.79380000 0.005184 169.89 0.999966 -80.94 0.999966 -80.94 0.005171 -152.2
8.79381000 0.005192 169.93 0.999966 -80.94 0.999966 -80.94 0.005179 -152.2
8.79382000 0.005201 169.96 0.999966 -80.94 0.999966 -80.94 0.005188 -152.3
8.79383000 0.005210 169.99 0.999966 -80.95 0.999966 -80.95 0.005197 -152.3
8.79384000 0.005219 170.02 0.999966 -80.95 0.999966 -80.95 0.005206 -152.3
8.79385000 0.005228 170.06 0.999966 -80.95 0.999966 -80.95 0.005215 -152.4
8.79386000 0.005236 170.09 0.999966 -80.95 0.999966 -80.95 0.005224 -152.4
8.79387000 0.005245 170.12 0.999966 -80.95 0.999966 -80.95 0.005232 -152.4
8.79388000 0.005254 170.16 0.999966 -80.95 0.999966 -80.95 0.005241 -152.5
8.79389000 0.005263 170.19 0.999965 -80.95 0.999965 -80.95 0.005250 -152.5
8.79390000 0.005272 170.22 0.999965 -80.95 0.999965 -80.95 0.005259 -152.5
8.79391000 0.005281 170.26 0.999965 -80.95 0.999965 -80.95 0.005268 -152.6
8.79392000 0.005290 170.29 0.999965 -80.95 0.999965 -80.95 0.005277 -152.6