! Sonnet Data File
! From: emgraph Version : 16.52
! From Project: Qubit_Test_beforeopt
! Data is De-embedded 
! Data File Written: 10/18/2017 20:39:12
!< HDATE 10/18/2017 18:14:34
!< MDATE 10/18/2017 18:14:34
!< PARAMS
!< Lj = 11.0
!< Gap = 26.0
!< Pwid = 2000.0
!< Airgap = 24.0
!< Width = 40.0
!< END PARAMS
# GHZ S MA R 51.80000
8.79000000 0.035825 -171.0 0.999337 -81.09 0.999337 -81.09 0.035825 -171.3
!< P1 F=8.79 Eeff=(6.4425964 -3.0761e-5) Z0=(50.47845 1.09247e-4) R=0.0 C=0.0 
!< P2 F=8.79 Eeff=(6.4425964 -3.0761e-5) Z0=(50.47845 1.09247e-4) R=0.0 C=0.0 
8.79001000 0.035835 -171.0 0.999337 -81.09 0.999337 -81.09 0.035834 -171.3
8.79002000 0.035844 -171.0 0.999337 -81.09 0.999337 -81.09 0.035843 -171.3
8.79003000 0.035854 -171.0 0.999336 -81.09 0.999336 -81.09 0.035853 -171.3
8.79004000 0.035863 -171.0 0.999336 -81.09 0.999336 -81.09 0.035862 -171.3
8.79005000 0.035872 -171.0 0.999336 -81.09 0.999336 -81.09 0.035872 -171.3
8.79006000 0.035882 -171.0 0.999335 -81.09 0.999335 -81.09 0.035881 -171.3
8.79007000 0.035891 -171.0 0.999335 -81.09 0.999335 -81.09 0.035891 -171.3
8.79008000 0.035901 -171.0 0.999334 -81.09 0.999334 -81.09 0.035900 -171.3
8.79009000 0.035910 -171.0 0.999334 -81.09 0.999334 -81.09 0.035910 -171.3
8.79010000 0.035920 -171.0 0.999334 -81.09 0.999334 -81.09 0.035919 -171.3
8.79011000 0.035929 -171.0 0.999333 -81.09 0.999333 -81.09 0.035929 -171.3
8.79012000 0.035939 -171.0 0.999333 -81.09 0.999333 -81.09 0.035938 -171.3
8.79013000 0.035949 -171.0 0.999333 -81.09 0.999333 -81.09 0.035948 -171.3
8.79014000 0.035958 -171.0 0.999332 -81.10 0.999332 -81.10 0.035957 -171.3
8.79015000 0.035968 -171.0 0.999332 -81.10 0.999332 -81.10 0.035967 -171.3
8.79016000 0.035977 -171.0 0.999331 -81.10 0.999331 -81.10 0.035977 -171.3
8.79017000 0.035987 -171.0 0.999331 -81.10 0.999331 -81.10 0.035986 -171.3
8.79018000 0.035997 -171.0 0.999331 -81.10 0.999331 -81.10 0.035996 -171.3
8.79019000 0.036006 -171.0 0.999330 -81.10 0.999330 -81.10 0.036006 -171.3
8.79020000 0.036016 -171.0 0.999330 -81.10 0.999330 -81.10 0.036015 -171.3
8.79021000 0.036026 -171.0 0.999330 -81.10 0.999330 -81.10 0.036025 -171.3
8.79022000 0.036035 -171.0 0.999329 -81.10 0.999329 -81.10 0.036035 -171.3
8.79023000 0.036045 -171.0 0.999329 -81.10 0.999329 -81.10 0.036044 -171.3
8.79024000 0.036055 -171.0 0.999328 -81.10 0.999328 -81.10 0.036054 -171.3
8.79025000 0.036065 -171.0 0.999328 -81.10 0.999328 -81.10 0.036064 -171.3
8.79026000 0.036074 -171.0 0.999328 -81.10 0.999328 -81.10 0.036074 -171.3
8.79027000 0.036084 -171.0 0.999327 -81.10 0.999327 -81.10 0.036083 -171.3
8.79028000 0.036094 -171.0 0.999327 -81.10 0.999327 -81.10 0.036093 -171.3
8.79029000 0.036104 -171.0 0.999326 -81.10 0.999326 -81.10 0.036103 -171.3
8.79030000 0.036114 -171.0 0.999326 -81.11 0.999326 -81.11 0.036113 -171.3
8.79031000 0.036123 -171.0 0.999326 -81.11 0.999326 -81.11 0.036123 -171.3
8.79032000 0.036133 -171.0 0.999325 -81.11 0.999325 -81.11 0.036133 -171.3
8.79033000 0.036143 -171.0 0.999325 -81.11 0.999325 -81.11 0.036142 -171.3
8.79034000 0.036153 -171.0 0.999325 -81.11 0.999325 -81.11 0.036152 -171.3
8.79035000 0.036163 -171.0 0.999324 -81.11 0.999324 -81.11 0.036162 -171.3
8.79036000 0.036173 -171.0 0.999324 -81.11 0.999324 -81.11 0.036172 -171.3
8.79037000 0.036183 -171.0 0.999323 -81.11 0.999323 -81.11 0.036182 -171.3
8.79038000 0.036193 -171.0 0.999323 -81.11 0.999323 -81.11 0.036192 -171.3
8.79039000 0.036203 -171.0 0.999323 -81.11 0.999323 -81.11 0.036202 -171.3
8.79040000 0.036213 -171.0 0.999322 -81.11 0.999322 -81.11 0.036212 -171.3
8.79041000 0.036223 -171.0 0.999322 -81.11 0.999322 -81.11 0.036222 -171.3
8.79042000 0.036233 -171.0 0.999321 -81.11 0.999321 -81.11 0.036232 -171.3
8.79043000 0.036243 -171.0 0.999321 -81.11 0.999321 -81.11 0.036242 -171.3
8.79044000 0.036253 -171.0 0.999321 -81.11 0.999321 -81.11 0.036252 -171.3
8.79045000 0.036263 -171.0 0.999320 -81.12 0.999320 -81.12 0.036262 -171.3
8.79046000 0.036273 -171.0 0.999320 -81.12 0.999320 -81.12 0.036272 -171.3
8.79047000 0.036283 -171.0 0.999319 -81.12 0.999319 -81.12 0.036283 -171.3
8.79048000 0.036293 -171.0 0.999319 -81.12 0.999319 -81.12 0.036293 -171.3
8.79049000 0.036304 -171.0 0.999319 -81.12 0.999319 -81.12 0.036303 -171.3
8.79050000 0.036314 -171.0 0.999318 -81.12 0.999318 -81.12 0.036313 -171.3
8.79051000 0.036324 -171.0 0.999318 -81.12 0.999318 -81.12 0.036323 -171.3
8.79052000 0.036334 -171.0 0.999317 -81.12 0.999317 -81.12 0.036333 -171.3
8.79053000 0.036344 -171.0 0.999317 -81.12 0.999317 -81.12 0.036344 -171.3
8.79054000 0.036355 -171.0 0.999317 -81.12 0.999317 -81.12 0.036354 -171.3
8.79055000 0.036365 -171.0 0.999316 -81.12 0.999316 -81.12 0.036364 -171.3
8.79056000 0.036375 -171.0 0.999316 -81.12 0.999316 -81.12 0.036374 -171.3
8.79057000 0.036385 -171.0 0.999315 -81.12 0.999315 -81.12 0.036385 -171.3
8.79058000 0.036396 -171.0 0.999315 -81.12 0.999315 -81.12 0.036395 -171.3
8.79059000 0.036406 -171.0 0.999315 -81.12 0.999315 -81.12 0.036405 -171.3
8.79060000 0.036416 -171.0 0.999314 -81.13 0.999314 -81.13 0.036416 -171.3
8.79061000 0.036427 -171.0 0.999314 -81.13 0.999314 -81.13 0.036426 -171.3
8.79062000 0.036437 -171.0 0.999313 -81.13 0.999313 -81.13 0.036436 -171.3
8.79063000 0.036448 -171.0 0.999313 -81.13 0.999313 -81.13 0.036447 -171.3
8.79064000 0.036458 -171.0 0.999313 -81.13 0.999313 -81.13 0.036457 -171.3
8.79065000 0.036468 -171.0 0.999312 -81.13 0.999312 -81.13 0.036468 -171.3
8.79066000 0.036479 -171.0 0.999312 -81.13 0.999312 -81.13 0.036478 -171.3
8.79067000 0.036489 -171.0 0.999311 -81.13 0.999311 -81.13 0.036489 -171.3
8.79068000 0.036500 -171.0 0.999311 -81.13 0.999311 -81.13 0.036499 -171.3
8.79069000 0.036510 -171.0 0.999310 -81.13 0.999310 -81.13 0.036510 -171.3
8.79070000 0.036521 -171.0 0.999310 -81.13 0.999310 -81.13 0.036520 -171.3
8.79071000 0.036531 -171.0 0.999310 -81.13 0.999310 -81.13 0.036531 -171.3
8.79072000 0.036542 -171.0 0.999309 -81.13 0.999309 -81.13 0.036541 -171.3
8.79073000 0.036553 -171.0 0.999309 -81.13 0.999309 -81.13 0.036552 -171.3
8.79074000 0.036563 -171.0 0.999308 -81.14 0.999308 -81.14 0.036562 -171.3
8.79075000 0.036574 -171.0 0.999308 -81.14 0.999308 -81.14 0.036573 -171.3
8.79076000 0.036584 -171.0 0.999307 -81.14 0.999307 -81.14 0.036584 -171.3
8.79077000 0.036595 -171.0 0.999307 -81.14 0.999307 -81.14 0.036594 -171.3
8.79078000 0.036606 -171.0 0.999307 -81.14 0.999307 -81.14 0.036605 -171.3
8.79079000 0.036616 -171.0 0.999306 -81.14 0.999306 -81.14 0.036616 -171.3
8.79080000 0.036627 -171.0 0.999306 -81.14 0.999306 -81.14 0.036626 -171.3
8.79081000 0.036638 -171.0 0.999305 -81.14 0.999305 -81.14 0.036637 -171.3
8.79082000 0.036649 -171.0 0.999305 -81.14 0.999305 -81.14 0.036648 -171.3
8.79083000 0.036659 -171.0 0.999305 -81.14 0.999305 -81.14 0.036658 -171.3
8.79084000 0.036670 -171.0 0.999304 -81.14 0.999304 -81.14 0.036669 -171.3
8.79085000 0.036681 -171.0 0.999304 -81.14 0.999304 -81.14 0.036680 -171.3
8.79086000 0.036692 -171.0 0.999303 -81.14 0.999303 -81.14 0.036691 -171.3
8.79087000 0.036703 -171.0 0.999303 -81.14 0.999303 -81.14 0.036702 -171.3
8.79088000 0.036713 -171.0 0.999302 -81.15 0.999302 -81.15 0.036713 -171.3
8.79089000 0.036724 -171.0 0.999302 -81.15 0.999302 -81.15 0.036723 -171.3
8.79090000 0.036735 -171.0 0.999301 -81.15 0.999301 -81.15 0.036734 -171.3
8.79091000 0.036746 -171.0 0.999301 -81.15 0.999301 -81.15 0.036745 -171.3
8.79092000 0.036757 -171.0 0.999301 -81.15 0.999301 -81.15 0.036756 -171.3
8.79093000 0.036768 -171.0 0.999300 -81.15 0.999300 -81.15 0.036767 -171.3
8.79094000 0.036779 -171.0 0.999300 -81.15 0.999300 -81.15 0.036778 -171.4
8.79095000 0.036790 -171.0 0.999299 -81.15 0.999299 -81.15 0.036789 -171.4
8.79096000 0.036801 -171.0 0.999299 -81.15 0.999299 -81.15 0.036800 -171.4
8.79097000 0.036812 -171.0 0.999298 -81.15 0.999298 -81.15 0.036811 -171.4
8.79098000 0.036823 -171.0 0.999298 -81.15 0.999298 -81.15 0.036822 -171.4
8.79099000 0.036834 -171.0 0.999298 -81.15 0.999298 -81.15 0.036833 -171.4
8.79100000 0.036845 -171.0 0.999297 -81.15 0.999297 -81.15 0.036844 -171.4
8.79101000 0.036856 -171.0 0.999297 -81.15 0.999297 -81.15 0.036855 -171.4
8.79102000 0.036867 -171.0 0.999296 -81.16 0.999296 -81.16 0.036866 -171.4
8.79103000 0.036878 -171.0 0.999296 -81.16 0.999296 -81.16 0.036878 -171.4
8.79104000 0.036890 -171.0 0.999295 -81.16 0.999295 -81.16 0.036889 -171.4
8.79105000 0.036901 -171.0 0.999295 -81.16 0.999295 -81.16 0.036900 -171.4
8.79106000 0.036912 -171.0 0.999294 -81.16 0.999294 -81.16 0.036911 -171.4
8.79107000 0.036923 -171.0 0.999294 -81.16 0.999294 -81.16 0.036922 -171.4
8.79108000 0.036934 -171.0 0.999293 -81.16 0.999293 -81.16 0.036934 -171.4
8.79109000 0.036946 -171.0 0.999293 -81.16 0.999293 -81.16 0.036945 -171.4
8.79110000 0.036957 -171.0 0.999293 -81.16 0.999293 -81.16 0.036956 -171.4
8.79111000 0.036968 -171.0 0.999292 -81.16 0.999292 -81.16 0.036967 -171.4
8.79112000 0.036980 -171.0 0.999292 -81.16 0.999292 -81.16 0.036979 -171.4
8.79113000 0.036991 -171.0 0.999291 -81.16 0.999291 -81.16 0.036990 -171.4
8.79114000 0.037002 -171.0 0.999291 -81.16 0.999291 -81.16 0.037001 -171.4
8.79115000 0.037014 -171.0 0.999290 -81.16 0.999290 -81.16 0.037013 -171.4
8.79116000 0.037025 -171.0 0.999290 -81.17 0.999290 -81.17 0.037024 -171.4
8.79117000 0.037037 -171.0 0.999289 -81.17 0.999289 -81.17 0.037036 -171.4
8.79118000 0.037048 -171.0 0.999289 -81.17 0.999289 -81.17 0.037047 -171.4
8.79119000 0.037059 -171.0 0.999288 -81.17 0.999288 -81.17 0.037059 -171.4
8.79120000 0.037071 -171.0 0.999288 -81.17 0.999288 -81.17 0.037070 -171.4
8.79121000 0.037082 -171.0 0.999288 -81.17 0.999288 -81.17 0.037082 -171.4
8.79122000 0.037094 -171.0 0.999287 -81.17 0.999287 -81.17 0.037093 -171.4
8.79123000 0.037106 -171.0 0.999287 -81.17 0.999287 -81.17 0.037105 -171.4
8.79124000 0.037117 -171.0 0.999286 -81.17 0.999286 -81.17 0.037116 -171.4
8.79125000 0.037129 -171.0 0.999286 -81.17 0.999286 -81.17 0.037128 -171.4
8.79126000 0.037140 -171.0 0.999285 -81.17 0.999285 -81.17 0.037139 -171.4
8.79127000 0.037152 -171.0 0.999285 -81.17 0.999285 -81.17 0.037151 -171.4
8.79128000 0.037164 -171.0 0.999284 -81.17 0.999284 -81.17 0.037163 -171.4
8.79129000 0.037175 -171.0 0.999284 -81.18 0.999284 -81.18 0.037174 -171.4
8.79130000 0.037187 -171.0 0.999283 -81.18 0.999283 -81.18 0.037186 -171.4
8.79131000 0.037199 -171.0 0.999283 -81.18 0.999283 -81.18 0.037198 -171.4
8.79132000 0.037210 -171.0 0.999282 -81.18 0.999282 -81.18 0.037210 -171.4
8.79133000 0.037222 -171.0 0.999282 -81.18 0.999282 -81.18 0.037221 -171.4
8.79134000 0.037234 -171.0 0.999281 -81.18 0.999281 -81.18 0.037233 -171.4
8.79135000 0.037246 -171.0 0.999281 -81.18 0.999281 -81.18 0.037245 -171.4
8.79136000 0.037258 -171.0 0.999280 -81.18 0.999280 -81.18 0.037257 -171.4
8.79137000 0.037269 -171.0 0.999280 -81.18 0.999280 -81.18 0.037269 -171.4
8.79138000 0.037281 -171.0 0.999279 -81.18 0.999279 -81.18 0.037280 -171.4
8.79139000 0.037293 -171.0 0.999279 -81.18 0.999279 -81.18 0.037292 -171.4
8.79140000 0.037305 -171.0 0.999278 -81.18 0.999278 -81.18 0.037304 -171.4
8.79141000 0.037317 -171.0 0.999278 -81.18 0.999278 -81.18 0.037316 -171.4
8.79142000 0.037329 -171.0 0.999278 -81.19 0.999278 -81.19 0.037328 -171.4
8.79143000 0.037341 -171.0 0.999277 -81.19 0.999277 -81.19 0.037340 -171.4
8.79144000 0.037353 -171.0 0.999277 -81.19 0.999277 -81.19 0.037352 -171.4
8.79145000 0.037365 -171.0 0.999276 -81.19 0.999276 -81.19 0.037364 -171.4
8.79146000 0.037377 -171.0 0.999276 -81.19 0.999276 -81.19 0.037376 -171.4
8.79147000 0.037389 -171.0 0.999275 -81.19 0.999275 -81.19 0.037388 -171.4
8.79148000 0.037401 -171.0 0.999275 -81.19 0.999275 -81.19 0.037400 -171.4
8.79149000 0.037413 -171.0 0.999274 -81.19 0.999274 -81.19 0.037412 -171.4
8.79150000 0.037425 -171.0 0.999274 -81.19 0.999274 -81.19 0.037424 -171.4
8.79151000 0.037437 -171.0 0.999273 -81.19 0.999273 -81.19 0.037437 -171.4
8.79152000 0.037450 -171.0 0.999273 -81.19 0.999273 -81.19 0.037449 -171.4
8.79153000 0.037462 -171.0 0.999272 -81.19 0.999272 -81.19 0.037461 -171.4
8.79154000 0.037474 -171.0 0.999272 -81.19 0.999272 -81.19 0.037473 -171.4
8.79155000 0.037486 -171.0 0.999271 -81.20 0.999271 -81.20 0.037485 -171.4
8.79156000 0.037499 -171.0 0.999271 -81.20 0.999271 -81.20 0.037498 -171.4
8.79157000 0.037511 -171.0 0.999270 -81.20 0.999270 -81.20 0.037510 -171.4
8.79158000 0.037523 -171.0 0.999270 -81.20 0.999270 -81.20 0.037522 -171.4
8.79159000 0.037535 -171.0 0.999269 -81.20 0.999269 -81.20 0.037535 -171.4
8.79160000 0.037548 -171.0 0.999269 -81.20 0.999269 -81.20 0.037547 -171.4
8.79161000 0.037560 -171.0 0.999268 -81.20 0.999268 -81.20 0.037559 -171.4
8.79162000 0.037573 -171.0 0.999268 -81.20 0.999268 -81.20 0.037572 -171.4
8.79163000 0.037585 -171.0 0.999267 -81.20 0.999267 -81.20 0.037584 -171.4
8.79164000 0.037597 -171.0 0.999267 -81.20 0.999267 -81.20 0.037597 -171.4
8.79165000 0.037610 -171.0 0.999266 -81.20 0.999266 -81.20 0.037609 -171.4
8.79166000 0.037622 -171.1 0.999265 -81.20 0.999265 -81.20 0.037622 -171.4
8.79167000 0.037635 -171.1 0.999265 -81.21 0.999265 -81.21 0.037634 -171.4
8.79168000 0.037648 -171.1 0.999264 -81.21 0.999264 -81.21 0.037647 -171.4
8.79169000 0.037660 -171.1 0.999264 -81.21 0.999264 -81.21 0.037659 -171.4
8.79170000 0.037673 -171.1 0.999263 -81.21 0.999263 -81.21 0.037672 -171.4
8.79171000 0.037685 -171.1 0.999263 -81.21 0.999263 -81.21 0.037684 -171.4
8.79172000 0.037698 -171.1 0.999262 -81.21 0.999262 -81.21 0.037697 -171.4
8.79173000 0.037711 -171.1 0.999262 -81.21 0.999262 -81.21 0.037710 -171.4
8.79174000 0.037723 -171.1 0.999261 -81.21 0.999261 -81.21 0.037722 -171.4
8.79175000 0.037736 -171.1 0.999261 -81.21 0.999261 -81.21 0.037735 -171.4
8.79176000 0.037749 -171.1 0.999260 -81.21 0.999260 -81.21 0.037748 -171.4
8.79177000 0.037761 -171.1 0.999260 -81.21 0.999260 -81.21 0.037760 -171.4
8.79178000 0.037774 -171.1 0.999259 -81.21 0.999259 -81.21 0.037773 -171.5
8.79179000 0.037787 -171.1 0.999259 -81.22 0.999259 -81.22 0.037786 -171.5
8.79180000 0.037800 -171.1 0.999258 -81.22 0.999258 -81.22 0.037799 -171.5
8.79181000 0.037813 -171.1 0.999258 -81.22 0.999258 -81.22 0.037812 -171.5
8.79182000 0.037826 -171.1 0.999257 -81.22 0.999257 -81.22 0.037825 -171.5
8.79183000 0.037838 -171.1 0.999257 -81.22 0.999257 -81.22 0.037837 -171.5
8.79184000 0.037851 -171.1 0.999256 -81.22 0.999256 -81.22 0.037850 -171.5
8.79185000 0.037864 -171.1 0.999256 -81.22 0.999256 -81.22 0.037863 -171.5
8.79186000 0.037877 -171.1 0.999255 -81.22 0.999255 -81.22 0.037876 -171.5
8.79187000 0.037890 -171.1 0.999254 -81.22 0.999254 -81.22 0.037889 -171.5
8.79188000 0.037903 -171.1 0.999254 -81.22 0.999254 -81.22 0.037902 -171.5
8.79189000 0.037916 -171.1 0.999253 -81.22 0.999253 -81.22 0.037915 -171.5
8.79190000 0.037929 -171.1 0.999253 -81.22 0.999253 -81.22 0.037928 -171.5
8.79191000 0.037943 -171.1 0.999252 -81.23 0.999252 -81.23 0.037942 -171.5
8.79192000 0.037956 -171.1 0.999252 -81.23 0.999252 -81.23 0.037955 -171.5
8.79193000 0.037969 -171.1 0.999251 -81.23 0.999251 -81.23 0.037968 -171.5
8.79194000 0.037982 -171.1 0.999251 -81.23 0.999251 -81.23 0.037981 -171.5
8.79195000 0.037995 -171.1 0.999250 -81.23 0.999250 -81.23 0.037994 -171.5
8.79196000 0.038008 -171.1 0.999250 -81.23 0.999250 -81.23 0.038007 -171.5
8.79197000 0.038022 -171.1 0.999249 -81.23 0.999249 -81.23 0.038021 -171.5
8.79198000 0.038035 -171.1 0.999248 -81.23 0.999248 -81.23 0.038034 -171.5
8.79199000 0.038048 -171.1 0.999248 -81.23 0.999248 -81.23 0.038047 -171.5
8.79200000 0.038062 -171.1 0.999247 -81.23 0.999247 -81.23 0.038061 -171.5
8.79201000 0.038075 -171.1 0.999247 -81.23 0.999247 -81.23 0.038074 -171.5
8.79202000 0.038088 -171.1 0.999246 -81.23 0.999246 -81.23 0.038087 -171.5
8.79203000 0.038102 -171.1 0.999246 -81.24 0.999246 -81.24 0.038101 -171.5
8.79204000 0.038115 -171.1 0.999245 -81.24 0.999245 -81.24 0.038114 -171.5
8.79205000 0.038129 -171.1 0.999245 -81.24 0.999245 -81.24 0.038128 -171.5
8.79206000 0.038142 -171.1 0.999244 -81.24 0.999244 -81.24 0.038141 -171.5
8.79207000 0.038156 -171.1 0.999243 -81.24 0.999243 -81.24 0.038155 -171.5
8.79208000 0.038169 -171.1 0.999243 -81.24 0.999243 -81.24 0.038168 -171.5
8.79209000 0.038183 -171.1 0.999242 -81.24 0.999242 -81.24 0.038182 -171.5
8.79210000 0.038196 -171.1 0.999242 -81.24 0.999242 -81.24 0.038195 -171.5
8.79211000 0.038210 -171.1 0.999241 -81.24 0.999241 -81.24 0.038209 -171.5
8.79212000 0.038223 -171.1 0.999241 -81.24 0.999241 -81.24 0.038222 -171.5
8.79213000 0.038237 -171.1 0.999240 -81.24 0.999240 -81.24 0.038236 -171.5
8.79214000 0.038251 -171.1 0.999239 -81.24 0.999239 -81.24 0.038250 -171.5
8.79215000 0.038265 -171.1 0.999239 -81.25 0.999239 -81.25 0.038264 -171.5
8.79216000 0.038278 -171.1 0.999238 -81.25 0.999238 -81.25 0.038277 -171.5
8.79217000 0.038292 -171.1 0.999238 -81.25 0.999238 -81.25 0.038291 -171.5
8.79218000 0.038306 -171.1 0.999237 -81.25 0.999237 -81.25 0.038305 -171.5
8.79219000 0.038320 -171.1 0.999237 -81.25 0.999237 -81.25 0.038319 -171.5
8.79220000 0.038334 -171.1 0.999236 -81.25 0.999236 -81.25 0.038333 -171.5
8.79221000 0.038347 -171.1 0.999235 -81.25 0.999235 -81.25 0.038346 -171.5
8.79222000 0.038361 -171.1 0.999235 -81.25 0.999235 -81.25 0.038360 -171.5
8.79223000 0.038375 -171.1 0.999234 -81.25 0.999234 -81.25 0.038374 -171.5
8.79224000 0.038389 -171.1 0.999234 -81.25 0.999234 -81.25 0.038388 -171.5
8.79225000 0.038403 -171.1 0.999233 -81.25 0.999233 -81.25 0.038402 -171.5
8.79226000 0.038417 -171.1 0.999232 -81.26 0.999232 -81.26 0.038416 -171.5
8.79227000 0.038431 -171.1 0.999232 -81.26 0.999232 -81.26 0.038430 -171.5
8.79228000 0.038445 -171.1 0.999231 -81.26 0.999231 -81.26 0.038444 -171.5
8.79229000 0.038459 -171.1 0.999231 -81.26 0.999231 -81.26 0.038458 -171.5
8.79230000 0.038474 -171.1 0.999230 -81.26 0.999230 -81.26 0.038473 -171.5
8.79231000 0.038488 -171.1 0.999229 -81.26 0.999229 -81.26 0.038487 -171.5
8.79232000 0.038502 -171.1 0.999229 -81.26 0.999229 -81.26 0.038501 -171.5
8.79233000 0.038516 -171.1 0.999228 -81.26 0.999228 -81.26 0.038515 -171.5
8.79234000 0.038530 -171.1 0.999228 -81.26 0.999228 -81.26 0.038529 -171.5
8.79235000 0.038545 -171.1 0.999227 -81.26 0.999227 -81.26 0.038544 -171.5
8.79236000 0.038559 -171.1 0.999226 -81.26 0.999226 -81.26 0.038558 -171.5
8.79237000 0.038573 -171.1 0.999226 -81.27 0.999226 -81.27 0.038572 -171.5
8.79238000 0.038588 -171.1 0.999225 -81.27 0.999225 -81.27 0.038587 -171.5
8.79239000 0.038602 -171.1 0.999225 -81.27 0.999225 -81.27 0.038601 -171.5
8.79240000 0.038616 -171.1 0.999224 -81.27 0.999224 -81.27 0.038615 -171.5
8.79241000 0.038631 -171.1 0.999223 -81.27 0.999223 -81.27 0.038630 -171.5
8.79242000 0.038645 -171.1 0.999223 -81.27 0.999223 -81.27 0.038644 -171.5
8.79243000 0.038660 -171.1 0.999222 -81.27 0.999222 -81.27 0.038659 -171.5
8.79244000 0.038674 -171.1 0.999222 -81.27 0.999222 -81.27 0.038673 -171.5
8.79245000 0.038689 -171.1 0.999221 -81.27 0.999221 -81.27 0.038688 -171.5
8.79246000 0.038704 -171.1 0.999220 -81.27 0.999220 -81.27 0.038703 -171.5
8.79247000 0.038718 -171.1 0.999220 -81.27 0.999220 -81.27 0.038717 -171.5
8.79248000 0.038733 -171.1 0.999219 -81.28 0.999219 -81.28 0.038732 -171.5
8.79249000 0.038748 -171.1 0.999218 -81.28 0.999218 -81.28 0.038746 -171.5
8.79250000 0.038762 -171.1 0.999218 -81.28 0.999218 -81.28 0.038761 -171.5
8.79251000 0.038777 -171.1 0.999217 -81.28 0.999217 -81.28 0.038776 -171.5
8.79252000 0.038792 -171.1 0.999217 -81.28 0.999217 -81.28 0.038791 -171.6
8.79253000 0.038807 -171.1 0.999216 -81.28 0.999216 -81.28 0.038805 -171.6
8.79254000 0.038821 -171.1 0.999215 -81.28 0.999215 -81.28 0.038820 -171.6
8.79255000 0.038836 -171.1 0.999215 -81.28 0.999215 -81.28 0.038835 -171.6
8.79256000 0.038851 -171.1 0.999214 -81.28 0.999214 -81.28 0.038850 -171.6
8.79257000 0.038866 -171.1 0.999213 -81.28 0.999213 -81.28 0.038865 -171.6
8.79258000 0.038881 -171.1 0.999213 -81.28 0.999213 -81.28 0.038880 -171.6
8.79259000 0.038896 -171.1 0.999212 -81.29 0.999212 -81.29 0.038895 -171.6
8.79260000 0.038911 -171.1 0.999211 -81.29 0.999211 -81.29 0.038910 -171.6
8.79261000 0.038926 -171.1 0.999211 -81.29 0.999211 -81.29 0.038925 -171.6
8.79262000 0.038941 -171.1 0.999210 -81.29 0.999210 -81.29 0.038940 -171.6
8.79263000 0.038956 -171.1 0.999210 -81.29 0.999210 -81.29 0.038955 -171.6
8.79264000 0.038971 -171.1 0.999209 -81.29 0.999209 -81.29 0.038970 -171.6
8.79265000 0.038987 -171.1 0.999208 -81.29 0.999208 -81.29 0.038985 -171.6
8.79266000 0.039002 -171.1 0.999208 -81.29 0.999208 -81.29 0.039001 -171.6
8.79267000 0.039017 -171.1 0.999207 -81.29 0.999207 -81.29 0.039016 -171.6
8.79268000 0.039032 -171.1 0.999206 -81.29 0.999206 -81.29 0.039031 -171.6
8.79269000 0.039047 -171.1 0.999206 -81.30 0.999206 -81.30 0.039046 -171.6
8.79270000 0.039063 -171.1 0.999205 -81.30 0.999205 -81.30 0.039062 -171.6
8.79271000 0.039078 -171.1 0.999204 -81.30 0.999204 -81.30 0.039077 -171.6
8.79272000 0.039094 -171.1 0.999204 -81.30 0.999204 -81.30 0.039092 -171.6
8.79273000 0.039109 -171.1 0.999203 -81.30 0.999203 -81.30 0.039108 -171.6
8.79274000 0.039124 -171.1 0.999202 -81.30 0.999202 -81.30 0.039123 -171.6
8.79275000 0.039140 -171.1 0.999202 -81.30 0.999202 -81.30 0.039139 -171.6
8.79276000 0.039155 -171.1 0.999201 -81.30 0.999201 -81.30 0.039154 -171.6
8.79277000 0.039171 -171.1 0.999200 -81.30 0.999200 -81.30 0.039170 -171.6
8.79278000 0.039187 -171.1 0.999200 -81.30 0.999200 -81.30 0.039185 -171.6
8.79279000 0.039202 -171.1 0.999199 -81.31 0.999199 -81.31 0.039201 -171.6
8.79280000 0.039218 -171.1 0.999198 -81.31 0.999198 -81.31 0.039217 -171.6
8.79281000 0.039234 -171.1 0.999198 -81.31 0.999198 -81.31 0.039232 -171.6
8.79282000 0.039249 -171.1 0.999197 -81.31 0.999197 -81.31 0.039248 -171.6
8.79283000 0.039265 -171.1 0.999196 -81.31 0.999196 -81.31 0.039264 -171.6
8.79284000 0.039281 -171.1 0.999196 -81.31 0.999196 -81.31 0.039280 -171.6
8.79285000 0.039297 -171.1 0.999195 -81.31 0.999195 -81.31 0.039295 -171.6
8.79286000 0.039312 -171.1 0.999194 -81.31 0.999194 -81.31 0.039311 -171.6
8.79287000 0.039328 -171.1 0.999194 -81.31 0.999194 -81.31 0.039327 -171.6
8.79288000 0.039344 -171.1 0.999193 -81.31 0.999193 -81.31 0.039343 -171.6
8.79289000 0.039360 -171.1 0.999192 -81.32 0.999192 -81.32 0.039359 -171.6
8.79290000 0.039376 -171.1 0.999191 -81.32 0.999191 -81.32 0.039375 -171.6
8.79291000 0.039392 -171.1 0.999191 -81.32 0.999191 -81.32 0.039391 -171.6
8.79292000 0.039408 -171.1 0.999190 -81.32 0.999190 -81.32 0.039407 -171.6
8.79293000 0.039424 -171.1 0.999189 -81.32 0.999189 -81.32 0.039423 -171.6
8.79294000 0.039440 -171.1 0.999189 -81.32 0.999189 -81.32 0.039439 -171.6
8.79295000 0.039457 -171.1 0.999188 -81.32 0.999188 -81.32 0.039455 -171.6
8.79296000 0.039473 -171.1 0.999187 -81.32 0.999187 -81.32 0.039472 -171.6
8.79297000 0.039489 -171.1 0.999187 -81.32 0.999187 -81.32 0.039488 -171.6
8.79298000 0.039505 -171.1 0.999186 -81.32 0.999186 -81.32 0.039504 -171.6
8.79299000 0.039521 -171.1 0.999185 -81.33 0.999185 -81.33 0.039520 -171.6
8.79300000 0.039538 -171.1 0.999184 -81.33 0.999184 -81.33 0.039537 -171.6
8.79301000 0.039554 -171.1 0.999184 -81.33 0.999184 -81.33 0.039553 -171.6
8.79302000 0.039571 -171.1 0.999183 -81.33 0.999183 -81.33 0.039569 -171.6
8.79303000 0.039587 -171.1 0.999182 -81.33 0.999182 -81.33 0.039586 -171.6
8.79304000 0.039603 -171.1 0.999182 -81.33 0.999182 -81.33 0.039602 -171.6
8.79305000 0.039620 -171.1 0.999181 -81.33 0.999181 -81.33 0.039619 -171.6
8.79306000 0.039636 -171.1 0.999180 -81.33 0.999180 -81.33 0.039635 -171.6
8.79307000 0.039653 -171.1 0.999179 -81.33 0.999179 -81.33 0.039652 -171.6
8.79308000 0.039670 -171.1 0.999179 -81.33 0.999179 -81.33 0.039668 -171.6
8.79309000 0.039686 -171.1 0.999178 -81.34 0.999178 -81.34 0.039685 -171.6
8.79310000 0.039703 -171.1 0.999177 -81.34 0.999177 -81.34 0.039702 -171.6
8.79311000 0.039720 -171.1 0.999176 -81.34 0.999176 -81.34 0.039718 -171.6
8.79312000 0.039736 -171.1 0.999176 -81.34 0.999176 -81.34 0.039735 -171.6
8.79313000 0.039753 -171.1 0.999175 -81.34 0.999175 -81.34 0.039752 -171.6
8.79314000 0.039770 -171.1 0.999174 -81.34 0.999174 -81.34 0.039769 -171.6
8.79315000 0.039787 -171.1 0.999174 -81.34 0.999174 -81.34 0.039786 -171.6
8.79316000 0.039804 -171.1 0.999173 -81.34 0.999173 -81.34 0.039803 -171.6
8.79317000 0.039821 -171.1 0.999172 -81.34 0.999172 -81.34 0.039819 -171.6
8.79318000 0.039838 -171.1 0.999171 -81.35 0.999171 -81.35 0.039836 -171.7
8.79319000 0.039855 -171.1 0.999171 -81.35 0.999171 -81.35 0.039853 -171.7
8.79320000 0.039872 -171.1 0.999170 -81.35 0.999170 -81.35 0.039870 -171.7
8.79321000 0.039889 -171.1 0.999169 -81.35 0.999169 -81.35 0.039888 -171.7
8.79322000 0.039906 -171.1 0.999168 -81.35 0.999168 -81.35 0.039905 -171.7
8.79323000 0.039923 -171.1 0.999168 -81.35 0.999168 -81.35 0.039922 -171.7
8.79324000 0.039940 -171.1 0.999167 -81.35 0.999167 -81.35 0.039939 -171.7
8.79325000 0.039957 -171.1 0.999166 -81.35 0.999166 -81.35 0.039956 -171.7
8.79326000 0.039975 -171.1 0.999165 -81.35 0.999165 -81.35 0.039973 -171.7
8.79327000 0.039992 -171.1 0.999165 -81.35 0.999165 -81.35 0.039991 -171.7
8.79328000 0.040009 -171.1 0.999164 -81.36 0.999164 -81.36 0.040008 -171.7
8.79329000 0.040027 -171.1 0.999163 -81.36 0.999163 -81.36 0.040026 -171.7
8.79330000 0.040044 -171.1 0.999162 -81.36 0.999162 -81.36 0.040043 -171.7
8.79331000 0.040062 -171.1 0.999161 -81.36 0.999161 -81.36 0.040060 -171.7
8.79332000 0.040079 -171.1 0.999161 -81.36 0.999161 -81.36 0.040078 -171.7
8.79333000 0.040097 -171.1 0.999160 -81.36 0.999160 -81.36 0.040095 -171.7
8.79334000 0.040114 -171.1 0.999159 -81.36 0.999159 -81.36 0.040113 -171.7
8.79335000 0.040132 -171.1 0.999158 -81.36 0.999158 -81.36 0.040131 -171.7
8.79336000 0.040149 -171.1 0.999158 -81.36 0.999158 -81.36 0.040148 -171.7
8.79337000 0.040167 -171.1 0.999157 -81.37 0.999157 -81.37 0.040166 -171.7
8.79338000 0.040185 -171.1 0.999156 -81.37 0.999156 -81.37 0.040184 -171.7
8.79339000 0.040203 -171.2 0.999155 -81.37 0.999155 -81.37 0.040201 -171.7
8.79340000 0.040220 -171.2 0.999154 -81.37 0.999154 -81.37 0.040219 -171.7
8.79341000 0.040238 -171.2 0.999154 -81.37 0.999154 -81.37 0.040237 -171.7
8.79342000 0.040256 -171.2 0.999153 -81.37 0.999153 -81.37 0.040255 -171.7
8.79343000 0.040274 -171.2 0.999152 -81.37 0.999152 -81.37 0.040273 -171.7
8.79344000 0.040292 -171.2 0.999151 -81.37 0.999151 -81.37 0.040291 -171.7
8.79345000 0.040310 -171.2 0.999150 -81.37 0.999150 -81.37 0.040309 -171.7
8.79346000 0.040328 -171.2 0.999150 -81.38 0.999150 -81.38 0.040327 -171.7
8.79347000 0.040346 -171.2 0.999149 -81.38 0.999149 -81.38 0.040345 -171.7
8.79348000 0.040364 -171.2 0.999148 -81.38 0.999148 -81.38 0.040363 -171.7
8.79349000 0.040383 -171.2 0.999147 -81.38 0.999147 -81.38 0.040381 -171.7
8.79350000 0.040401 -171.2 0.999146 -81.38 0.999146 -81.38 0.040400 -171.7
8.79351000 0.040419 -171.2 0.999146 -81.38 0.999146 -81.38 0.040418 -171.7
8.79352000 0.040437 -171.2 0.999145 -81.38 0.999145 -81.38 0.040436 -171.7
8.79353000 0.040456 -171.2 0.999144 -81.38 0.999144 -81.38 0.040454 -171.7
8.79354000 0.040474 -171.2 0.999143 -81.39 0.999143 -81.39 0.040473 -171.7
8.79355000 0.040492 -171.2 0.999142 -81.39 0.999142 -81.39 0.040491 -171.7
8.79356000 0.040511 -171.2 0.999141 -81.39 0.999141 -81.39 0.040510 -171.7
8.79357000 0.040529 -171.2 0.999141 -81.39 0.999141 -81.39 0.040528 -171.7
8.79358000 0.040548 -171.2 0.999140 -81.39 0.999140 -81.39 0.040547 -171.7
8.79359000 0.040567 -171.2 0.999139 -81.39 0.999139 -81.39 0.040565 -171.7
8.79360000 0.040585 -171.2 0.999138 -81.39 0.999138 -81.39 0.040584 -171.7
8.79361000 0.040604 -171.2 0.999137 -81.39 0.999137 -81.39 0.040603 -171.7
8.79362000 0.040623 -171.2 0.999136 -81.39 0.999136 -81.39 0.040621 -171.7
8.79363000 0.040641 -171.2 0.999136 -81.40 0.999136 -81.40 0.040640 -171.7
8.79364000 0.040660 -171.2 0.999135 -81.40 0.999135 -81.40 0.040659 -171.7
8.79365000 0.040679 -171.2 0.999134 -81.40 0.999134 -81.40 0.040678 -171.7
8.79366000 0.040698 -171.2 0.999133 -81.40 0.999133 -81.40 0.040697 -171.7
8.79367000 0.040717 -171.2 0.999132 -81.40 0.999132 -81.40 0.040716 -171.7
8.79368000 0.040736 -171.2 0.999131 -81.40 0.999131 -81.40 0.040735 -171.7
8.79369000 0.040755 -171.2 0.999131 -81.40 0.999131 -81.40 0.040754 -171.7
8.79370000 0.040774 -171.2 0.999130 -81.40 0.999130 -81.40 0.040773 -171.7
8.79371000 0.040793 -171.2 0.999129 -81.40 0.999129 -81.40 0.040792 -171.7
8.79372000 0.040812 -171.2 0.999128 -81.41 0.999128 -81.41 0.040811 -171.7
8.79373000 0.040831 -171.2 0.999127 -81.41 0.999127 -81.41 0.040830 -171.7
8.79374000 0.040851 -171.2 0.999126 -81.41 0.999126 -81.41 0.040849 -171.7
8.79375000 0.040870 -171.2 0.999125 -81.41 0.999125 -81.41 0.040869 -171.7
8.79376000 0.040889 -171.2 0.999124 -81.41 0.999124 -81.41 0.040888 -171.8
8.79377000 0.040909 -171.2 0.999124 -81.41 0.999124 -81.41 0.040907 -171.8
8.79378000 0.040928 -171.2 0.999123 -81.41 0.999123 -81.41 0.040927 -171.8
8.79379000 0.040947 -171.2 0.999122 -81.41 0.999122 -81.41 0.040946 -171.8
8.79380000 0.040967 -171.2 0.999121 -81.42 0.999121 -81.42 0.040966 -171.8
8.79381000 0.040987 -171.2 0.999120 -81.42 0.999120 -81.42 0.040985 -171.8
8.79382000 0.041006 -171.2 0.999119 -81.42 0.999119 -81.42 0.041005 -171.8
8.79383000 0.041026 -171.2 0.999118 -81.42 0.999118 -81.42 0.041024 -171.8
8.79384000 0.041045 -171.2 0.999117 -81.42 0.999117 -81.42 0.041044 -171.8
8.79385000 0.041065 -171.2 0.999116 -81.42 0.999116 -81.42 0.041064 -171.8
8.79386000 0.041085 -171.2 0.999116 -81.42 0.999116 -81.42 0.041084 -171.8
8.79387000 0.041105 -171.2 0.999115 -81.42 0.999115 -81.42 0.041103 -171.8
8.79388000 0.041125 -171.2 0.999114 -81.43 0.999114 -81.43 0.041123 -171.8
8.79389000 0.041145 -171.2 0.999113 -81.43 0.999113 -81.43 0.041143 -171.8
8.79390000 0.041165 -171.2 0.999112 -81.43 0.999112 -81.43 0.041163 -171.8
8.79391000 0.041185 -171.2 0.999111 -81.43 0.999111 -81.43 0.041183 -171.8
8.79392000 0.041205 -171.2 0.999110 -81.43 0.999110 -81.43 0.041203 -171.8