! Sonnet Data File
! From: emgraph Version : 16.52
! From Project: Qubit_Test_beforeopt
! Data is De-embedded 
! Data File Written: 10/18/2017 16:57:22
!< HDATE 10/18/2017 09:03:38
!< MDATE 10/18/2017 09:03:38
!< PARAMS
!< Lj = 11.0
!< Gap = 16.0
!< Pwid = 2000.0
!< Airgap = 18.0
!< Width = 30.0
!< END PARAMS
# GHZ S MA R 51.80000
8.79000000 0.033009 -171.2 0.999434 -81.12 0.999434 -81.12 0.033008 -171.1
!< P1 F=8.79 Eeff=(6.44477581 -3.0301e-5) Z0=(50.6167814 1.12757e-4) R=0.0 C=0.0 
!< P2 F=8.79 Eeff=(6.44477581 -3.0301e-5) Z0=(50.6167814 1.12757e-4) R=0.0 C=0.0 
8.79001000 0.033019 -171.2 0.999434 -81.12 0.999434 -81.12 0.033018 -171.1
8.79002000 0.033028 -171.2 0.999433 -81.13 0.999433 -81.13 0.033028 -171.1
8.79003000 0.033038 -171.2 0.999433 -81.13 0.999433 -81.13 0.033037 -171.1
8.79004000 0.033048 -171.2 0.999433 -81.13 0.999433 -81.13 0.033047 -171.1
8.79005000 0.033057 -171.2 0.999432 -81.13 0.999432 -81.13 0.033056 -171.1
8.79006000 0.033067 -171.2 0.999432 -81.13 0.999432 -81.13 0.033066 -171.1
8.79007000 0.033076 -171.2 0.999432 -81.13 0.999432 -81.13 0.033076 -171.1
8.79008000 0.033086 -171.2 0.999431 -81.13 0.999431 -81.13 0.033085 -171.1
8.79009000 0.033096 -171.2 0.999431 -81.13 0.999431 -81.13 0.033095 -171.1
8.79010000 0.033105 -171.2 0.999431 -81.13 0.999431 -81.13 0.033105 -171.1
8.79011000 0.033115 -171.2 0.999430 -81.13 0.999430 -81.13 0.033114 -171.1
8.79012000 0.033125 -171.2 0.999430 -81.13 0.999430 -81.13 0.033124 -171.1
8.79013000 0.033135 -171.2 0.999430 -81.13 0.999430 -81.13 0.033134 -171.1
8.79014000 0.033144 -171.3 0.999429 -81.13 0.999429 -81.13 0.033143 -171.1
8.79015000 0.033154 -171.3 0.999429 -81.13 0.999429 -81.13 0.033153 -171.1
8.79016000 0.033164 -171.3 0.999428 -81.13 0.999428 -81.13 0.033163 -171.1
8.79017000 0.033174 -171.3 0.999428 -81.14 0.999428 -81.14 0.033173 -171.1
8.79018000 0.033184 -171.3 0.999428 -81.14 0.999428 -81.14 0.033183 -171.1
8.79019000 0.033193 -171.3 0.999427 -81.14 0.999427 -81.14 0.033192 -171.1
8.79020000 0.033203 -171.3 0.999427 -81.14 0.999427 -81.14 0.033202 -171.1
8.79021000 0.033213 -171.3 0.999427 -81.14 0.999427 -81.14 0.033212 -171.1
8.79022000 0.033223 -171.3 0.999426 -81.14 0.999426 -81.14 0.033222 -171.1
8.79023000 0.033233 -171.3 0.999426 -81.14 0.999426 -81.14 0.033232 -171.1
8.79024000 0.033243 -171.3 0.999426 -81.14 0.999426 -81.14 0.033242 -171.1
8.79025000 0.033253 -171.3 0.999425 -81.14 0.999425 -81.14 0.033252 -171.1
8.79026000 0.033263 -171.3 0.999425 -81.14 0.999425 -81.14 0.033262 -171.1
8.79027000 0.033273 -171.3 0.999425 -81.14 0.999425 -81.14 0.033272 -171.1
8.79028000 0.033283 -171.3 0.999424 -81.14 0.999424 -81.14 0.033282 -171.1
8.79029000 0.033293 -171.3 0.999424 -81.14 0.999424 -81.14 0.033292 -171.1
8.79030000 0.033303 -171.3 0.999423 -81.14 0.999423 -81.14 0.033302 -171.1
8.79031000 0.033313 -171.3 0.999423 -81.14 0.999423 -81.14 0.033312 -171.1
8.79032000 0.033323 -171.3 0.999423 -81.15 0.999423 -81.15 0.033322 -171.1
8.79033000 0.033333 -171.3 0.999422 -81.15 0.999422 -81.15 0.033332 -171.1
8.79034000 0.033343 -171.3 0.999422 -81.15 0.999422 -81.15 0.033342 -171.1
8.79035000 0.033353 -171.3 0.999422 -81.15 0.999422 -81.15 0.033352 -171.1
8.79036000 0.033363 -171.3 0.999421 -81.15 0.999421 -81.15 0.033362 -171.1
8.79037000 0.033373 -171.3 0.999421 -81.15 0.999421 -81.15 0.033372 -171.1
8.79038000 0.033383 -171.3 0.999421 -81.15 0.999421 -81.15 0.033382 -171.1
8.79039000 0.033393 -171.3 0.999420 -81.15 0.999420 -81.15 0.033393 -171.1
8.79040000 0.033404 -171.3 0.999420 -81.15 0.999420 -81.15 0.033403 -171.1
8.79041000 0.033414 -171.3 0.999419 -81.15 0.999419 -81.15 0.033413 -171.1
8.79042000 0.033424 -171.3 0.999419 -81.15 0.999419 -81.15 0.033423 -171.1
8.79043000 0.033434 -171.3 0.999419 -81.15 0.999419 -81.15 0.033433 -171.1
8.79044000 0.033444 -171.3 0.999418 -81.15 0.999418 -81.15 0.033444 -171.1
8.79045000 0.033455 -171.3 0.999418 -81.15 0.999418 -81.15 0.033454 -171.1
8.79046000 0.033465 -171.3 0.999418 -81.15 0.999418 -81.15 0.033464 -171.1
8.79047000 0.033475 -171.3 0.999417 -81.16 0.999417 -81.16 0.033474 -171.1
8.79048000 0.033486 -171.3 0.999417 -81.16 0.999417 -81.16 0.033485 -171.1
8.79049000 0.033496 -171.3 0.999416 -81.16 0.999416 -81.16 0.033495 -171.1
8.79050000 0.033506 -171.3 0.999416 -81.16 0.999416 -81.16 0.033505 -171.1
8.79051000 0.033517 -171.3 0.999416 -81.16 0.999416 -81.16 0.033516 -171.1
8.79052000 0.033527 -171.3 0.999415 -81.16 0.999415 -81.16 0.033526 -171.1
8.79053000 0.033537 -171.3 0.999415 -81.16 0.999415 -81.16 0.033537 -171.1
8.79054000 0.033548 -171.3 0.999414 -81.16 0.999414 -81.16 0.033547 -171.1
8.79055000 0.033558 -171.3 0.999414 -81.16 0.999414 -81.16 0.033557 -171.1
8.79056000 0.033569 -171.3 0.999414 -81.16 0.999414 -81.16 0.033568 -171.1
8.79057000 0.033579 -171.3 0.999413 -81.16 0.999413 -81.16 0.033578 -171.1
8.79058000 0.033590 -171.3 0.999413 -81.16 0.999413 -81.16 0.033589 -171.1
8.79059000 0.033600 -171.3 0.999413 -81.16 0.999413 -81.16 0.033599 -171.1
8.79060000 0.033611 -171.3 0.999412 -81.16 0.999412 -81.16 0.033610 -171.1
8.79061000 0.033621 -171.3 0.999412 -81.16 0.999412 -81.16 0.033620 -171.1
8.79062000 0.033632 -171.3 0.999411 -81.17 0.999411 -81.17 0.033631 -171.1
8.79063000 0.033642 -171.3 0.999411 -81.17 0.999411 -81.17 0.033642 -171.1
8.79064000 0.033653 -171.3 0.999411 -81.17 0.999411 -81.17 0.033652 -171.1
8.79065000 0.033664 -171.3 0.999410 -81.17 0.999410 -81.17 0.033663 -171.1
8.79066000 0.033674 -171.3 0.999410 -81.17 0.999410 -81.17 0.033673 -171.1
8.79067000 0.033685 -171.3 0.999409 -81.17 0.999409 -81.17 0.033684 -171.1
8.79068000 0.033696 -171.3 0.999409 -81.17 0.999409 -81.17 0.033695 -171.1
8.79069000 0.033706 -171.3 0.999409 -81.17 0.999409 -81.17 0.033705 -171.1
8.79070000 0.033717 -171.3 0.999408 -81.17 0.999408 -81.17 0.033716 -171.2
8.79071000 0.033728 -171.3 0.999408 -81.17 0.999408 -81.17 0.033727 -171.2
8.79072000 0.033738 -171.3 0.999407 -81.17 0.999407 -81.17 0.033738 -171.2
8.79073000 0.033749 -171.3 0.999407 -81.17 0.999407 -81.17 0.033748 -171.2
8.79074000 0.033760 -171.3 0.999407 -81.17 0.999407 -81.17 0.033759 -171.2
8.79075000 0.033771 -171.3 0.999406 -81.17 0.999406 -81.17 0.033770 -171.2
8.79076000 0.033782 -171.3 0.999406 -81.18 0.999406 -81.18 0.033781 -171.2
8.79077000 0.033792 -171.3 0.999405 -81.18 0.999405 -81.18 0.033791 -171.2
8.79078000 0.033803 -171.3 0.999405 -81.18 0.999405 -81.18 0.033802 -171.2
8.79079000 0.033814 -171.3 0.999405 -81.18 0.999405 -81.18 0.033813 -171.2
8.79080000 0.033825 -171.3 0.999404 -81.18 0.999404 -81.18 0.033824 -171.2
8.79081000 0.033836 -171.3 0.999404 -81.18 0.999404 -81.18 0.033835 -171.2
8.79082000 0.033847 -171.3 0.999403 -81.18 0.999403 -81.18 0.033846 -171.2
8.79083000 0.033858 -171.3 0.999403 -81.18 0.999403 -81.18 0.033857 -171.2
8.79084000 0.033869 -171.3 0.999403 -81.18 0.999403 -81.18 0.033868 -171.2
8.79085000 0.033880 -171.3 0.999402 -81.18 0.999402 -81.18 0.033879 -171.2
8.79086000 0.033891 -171.3 0.999402 -81.18 0.999402 -81.18 0.033890 -171.2
8.79087000 0.033902 -171.3 0.999401 -81.18 0.999401 -81.18 0.033901 -171.2
8.79088000 0.033913 -171.3 0.999401 -81.18 0.999401 -81.18 0.033912 -171.2
8.79089000 0.033924 -171.3 0.999401 -81.18 0.999401 -81.18 0.033923 -171.2
8.79090000 0.033935 -171.3 0.999400 -81.19 0.999400 -81.19 0.033934 -171.2
8.79091000 0.033946 -171.3 0.999400 -81.19 0.999400 -81.19 0.033945 -171.2
8.79092000 0.033957 -171.3 0.999399 -81.19 0.999399 -81.19 0.033956 -171.2
8.79093000 0.033968 -171.3 0.999399 -81.19 0.999399 -81.19 0.033967 -171.2
8.79094000 0.033979 -171.3 0.999399 -81.19 0.999399 -81.19 0.033979 -171.2
8.79095000 0.033991 -171.3 0.999398 -81.19 0.999398 -81.19 0.033990 -171.2
8.79096000 0.034002 -171.3 0.999398 -81.19 0.999398 -81.19 0.034001 -171.2
8.79097000 0.034013 -171.3 0.999397 -81.19 0.999397 -81.19 0.034012 -171.2
8.79098000 0.034024 -171.3 0.999397 -81.19 0.999397 -81.19 0.034023 -171.2
8.79099000 0.034036 -171.3 0.999396 -81.19 0.999396 -81.19 0.034035 -171.2
8.79100000 0.034047 -171.3 0.999396 -81.19 0.999396 -81.19 0.034046 -171.2
8.79101000 0.034058 -171.3 0.999396 -81.19 0.999396 -81.19 0.034057 -171.2
8.79102000 0.034069 -171.3 0.999395 -81.19 0.999395 -81.19 0.034068 -171.2
8.79103000 0.034081 -171.3 0.999395 -81.20 0.999395 -81.20 0.034080 -171.2
8.79104000 0.034092 -171.3 0.999394 -81.20 0.999394 -81.20 0.034091 -171.2
8.79105000 0.034103 -171.3 0.999394 -81.20 0.999394 -81.20 0.034102 -171.2
8.79106000 0.034115 -171.3 0.999393 -81.20 0.999393 -81.20 0.034114 -171.2
8.79107000 0.034126 -171.3 0.999393 -81.20 0.999393 -81.20 0.034125 -171.2
8.79108000 0.034138 -171.3 0.999393 -81.20 0.999393 -81.20 0.034137 -171.2
8.79109000 0.034149 -171.3 0.999392 -81.20 0.999392 -81.20 0.034148 -171.2
8.79110000 0.034161 -171.3 0.999392 -81.20 0.999392 -81.20 0.034160 -171.2
8.79111000 0.034172 -171.3 0.999391 -81.20 0.999391 -81.20 0.034171 -171.2
8.79112000 0.034184 -171.3 0.999391 -81.20 0.999391 -81.20 0.034183 -171.2
8.79113000 0.034195 -171.3 0.999390 -81.20 0.999390 -81.20 0.034194 -171.2
8.79114000 0.034207 -171.3 0.999390 -81.20 0.999390 -81.20 0.034206 -171.2
8.79115000 0.034218 -171.3 0.999390 -81.20 0.999390 -81.20 0.034217 -171.2
8.79116000 0.034230 -171.3 0.999389 -81.20 0.999389 -81.20 0.034229 -171.2
8.79117000 0.034242 -171.3 0.999389 -81.21 0.999389 -81.21 0.034241 -171.2
8.79118000 0.034253 -171.3 0.999388 -81.21 0.999388 -81.21 0.034252 -171.2
8.79119000 0.034265 -171.3 0.999388 -81.21 0.999388 -81.21 0.034264 -171.2
8.79120000 0.034276 -171.3 0.999387 -81.21 0.999387 -81.21 0.034275 -171.2
8.79121000 0.034288 -171.3 0.999387 -81.21 0.999387 -81.21 0.034287 -171.2
8.79122000 0.034300 -171.3 0.999387 -81.21 0.999387 -81.21 0.034299 -171.2
8.79123000 0.034312 -171.3 0.999386 -81.21 0.999386 -81.21 0.034311 -171.2
8.79124000 0.034323 -171.3 0.999386 -81.21 0.999386 -81.21 0.034322 -171.2
8.79125000 0.034335 -171.3 0.999385 -81.21 0.999385 -81.21 0.034334 -171.2
8.79126000 0.034347 -171.3 0.999385 -81.21 0.999385 -81.21 0.034346 -171.2
8.79127000 0.034359 -171.3 0.999384 -81.21 0.999384 -81.21 0.034358 -171.2
8.79128000 0.034371 -171.3 0.999384 -81.21 0.999384 -81.21 0.034370 -171.2
8.79129000 0.034383 -171.3 0.999383 -81.21 0.999383 -81.21 0.034381 -171.2
8.79130000 0.034394 -171.3 0.999383 -81.22 0.999383 -81.22 0.034393 -171.2
8.79131000 0.034406 -171.3 0.999383 -81.22 0.999383 -81.22 0.034405 -171.2
8.79132000 0.034418 -171.3 0.999382 -81.22 0.999382 -81.22 0.034417 -171.2
8.79133000 0.034430 -171.3 0.999382 -81.22 0.999382 -81.22 0.034429 -171.2
8.79134000 0.034442 -171.3 0.999381 -81.22 0.999381 -81.22 0.034441 -171.2
8.79135000 0.034454 -171.3 0.999381 -81.22 0.999381 -81.22 0.034453 -171.2
8.79136000 0.034466 -171.3 0.999380 -81.22 0.999380 -81.22 0.034465 -171.2
8.79137000 0.034478 -171.3 0.999380 -81.22 0.999380 -81.22 0.034477 -171.2
8.79138000 0.034490 -171.3 0.999379 -81.22 0.999379 -81.22 0.034489 -171.2
8.79139000 0.034502 -171.3 0.999379 -81.22 0.999379 -81.22 0.034501 -171.2
8.79140000 0.034514 -171.3 0.999378 -81.22 0.999378 -81.22 0.034513 -171.2
8.79141000 0.034527 -171.3 0.999378 -81.22 0.999378 -81.22 0.034526 -171.2
8.79142000 0.034539 -171.3 0.999378 -81.22 0.999378 -81.22 0.034538 -171.2
8.79143000 0.034551 -171.3 0.999377 -81.23 0.999377 -81.23 0.034550 -171.2
8.79144000 0.034563 -171.3 0.999377 -81.23 0.999377 -81.23 0.034562 -171.2
8.79145000 0.034575 -171.3 0.999376 -81.23 0.999376 -81.23 0.034574 -171.2
8.79146000 0.034588 -171.3 0.999376 -81.23 0.999376 -81.23 0.034587 -171.2
8.79147000 0.034600 -171.3 0.999375 -81.23 0.999375 -81.23 0.034599 -171.2
8.79148000 0.034612 -171.3 0.999375 -81.23 0.999375 -81.23 0.034611 -171.2
8.79149000 0.034624 -171.3 0.999374 -81.23 0.999374 -81.23 0.034623 -171.2
8.79150000 0.034637 -171.3 0.999374 -81.23 0.999374 -81.23 0.034636 -171.3
8.79151000 0.034649 -171.3 0.999373 -81.23 0.999373 -81.23 0.034648 -171.3
8.79152000 0.034661 -171.3 0.999373 -81.23 0.999373 -81.23 0.034660 -171.3
8.79153000 0.034674 -171.3 0.999372 -81.23 0.999372 -81.23 0.034673 -171.3
8.79154000 0.034686 -171.3 0.999372 -81.23 0.999372 -81.23 0.034685 -171.3
8.79155000 0.034699 -171.3 0.999371 -81.24 0.999371 -81.24 0.034698 -171.3
8.79156000 0.034711 -171.3 0.999371 -81.24 0.999371 -81.24 0.034710 -171.3
8.79157000 0.034724 -171.3 0.999370 -81.24 0.999370 -81.24 0.034723 -171.3
8.79158000 0.034736 -171.3 0.999370 -81.24 0.999370 -81.24 0.034735 -171.3
8.79159000 0.034749 -171.3 0.999370 -81.24 0.999370 -81.24 0.034748 -171.3
8.79160000 0.034761 -171.3 0.999369 -81.24 0.999369 -81.24 0.034760 -171.3
8.79161000 0.034774 -171.3 0.999369 -81.24 0.999369 -81.24 0.034773 -171.3
8.79162000 0.034786 -171.3 0.999368 -81.24 0.999368 -81.24 0.034785 -171.3
8.79163000 0.034799 -171.3 0.999368 -81.24 0.999368 -81.24 0.034798 -171.3
8.79164000 0.034812 -171.3 0.999367 -81.24 0.999367 -81.24 0.034811 -171.3
8.79165000 0.034824 -171.3 0.999367 -81.24 0.999367 -81.24 0.034823 -171.3
8.79166000 0.034837 -171.3 0.999366 -81.24 0.999366 -81.24 0.034836 -171.3
8.79167000 0.034850 -171.3 0.999366 -81.24 0.999366 -81.24 0.034849 -171.3
8.79168000 0.034863 -171.3 0.999365 -81.25 0.999365 -81.25 0.034861 -171.3
8.79169000 0.034875 -171.3 0.999365 -81.25 0.999365 -81.25 0.034874 -171.3
8.79170000 0.034888 -171.3 0.999364 -81.25 0.999364 -81.25 0.034887 -171.3
8.79171000 0.034901 -171.3 0.999364 -81.25 0.999364 -81.25 0.034900 -171.3
8.79172000 0.034914 -171.3 0.999363 -81.25 0.999363 -81.25 0.034913 -171.3
8.79173000 0.034927 -171.3 0.999363 -81.25 0.999363 -81.25 0.034926 -171.3
8.79174000 0.034939 -171.3 0.999362 -81.25 0.999362 -81.25 0.034938 -171.3
8.79175000 0.034952 -171.3 0.999362 -81.25 0.999362 -81.25 0.034951 -171.3
8.79176000 0.034965 -171.3 0.999361 -81.25 0.999361 -81.25 0.034964 -171.3
8.79177000 0.034978 -171.3 0.999361 -81.25 0.999361 -81.25 0.034977 -171.3
8.79178000 0.034991 -171.3 0.999360 -81.25 0.999360 -81.25 0.034990 -171.3
8.79179000 0.035004 -171.3 0.999360 -81.25 0.999360 -81.25 0.035003 -171.3
8.79180000 0.035017 -171.3 0.999359 -81.26 0.999359 -81.26 0.035016 -171.3
8.79181000 0.035030 -171.3 0.999359 -81.26 0.999359 -81.26 0.035029 -171.3
8.79182000 0.035043 -171.3 0.999358 -81.26 0.999358 -81.26 0.035042 -171.3
8.79183000 0.035057 -171.3 0.999358 -81.26 0.999358 -81.26 0.035055 -171.3
8.79184000 0.035070 -171.3 0.999357 -81.26 0.999357 -81.26 0.035069 -171.3
8.79185000 0.035083 -171.3 0.999357 -81.26 0.999357 -81.26 0.035082 -171.3
8.79186000 0.035096 -171.3 0.999356 -81.26 0.999356 -81.26 0.035095 -171.3
8.79187000 0.035109 -171.3 0.999356 -81.26 0.999356 -81.26 0.035108 -171.3
8.79188000 0.035122 -171.3 0.999355 -81.26 0.999355 -81.26 0.035121 -171.3
8.79189000 0.035136 -171.3 0.999355 -81.26 0.999355 -81.26 0.035135 -171.3
8.79190000 0.035149 -171.3 0.999354 -81.26 0.999354 -81.26 0.035148 -171.3
8.79191000 0.035162 -171.3 0.999354 -81.27 0.999354 -81.27 0.035161 -171.3
8.79192000 0.035176 -171.3 0.999353 -81.27 0.999353 -81.27 0.035174 -171.3
8.79193000 0.035189 -171.3 0.999353 -81.27 0.999353 -81.27 0.035188 -171.3
8.79194000 0.035202 -171.3 0.999352 -81.27 0.999352 -81.27 0.035201 -171.3
8.79195000 0.035216 -171.3 0.999352 -81.27 0.999352 -81.27 0.035215 -171.3
8.79196000 0.035229 -171.3 0.999351 -81.27 0.999351 -81.27 0.035228 -171.3
8.79197000 0.035243 -171.3 0.999351 -81.27 0.999351 -81.27 0.035242 -171.3
8.79198000 0.035256 -171.3 0.999350 -81.27 0.999350 -81.27 0.035255 -171.3
8.79199000 0.035270 -171.3 0.999349 -81.27 0.999349 -81.27 0.035268 -171.3
8.79200000 0.035283 -171.3 0.999349 -81.27 0.999349 -81.27 0.035282 -171.3
8.79201000 0.035297 -171.3 0.999348 -81.27 0.999348 -81.27 0.035296 -171.3
8.79202000 0.035310 -171.3 0.999348 -81.27 0.999348 -81.27 0.035309 -171.3
8.79203000 0.035324 -171.3 0.999347 -81.28 0.999347 -81.28 0.035323 -171.3
8.79204000 0.035338 -171.3 0.999347 -81.28 0.999347 -81.28 0.035336 -171.3
8.79205000 0.035351 -171.3 0.999346 -81.28 0.999346 -81.28 0.035350 -171.3
8.79206000 0.035365 -171.3 0.999346 -81.28 0.999346 -81.28 0.035364 -171.3
8.79207000 0.035379 -171.3 0.999345 -81.28 0.999345 -81.28 0.035377 -171.3
8.79208000 0.035392 -171.3 0.999345 -81.28 0.999345 -81.28 0.035391 -171.3
8.79209000 0.035406 -171.3 0.999344 -81.28 0.999344 -81.28 0.035405 -171.3
8.79210000 0.035420 -171.3 0.999344 -81.28 0.999344 -81.28 0.035419 -171.3
8.79211000 0.035434 -171.3 0.999343 -81.28 0.999343 -81.28 0.035433 -171.3
8.79212000 0.035448 -171.3 0.999343 -81.28 0.999343 -81.28 0.035446 -171.3
8.79213000 0.035462 -171.3 0.999342 -81.28 0.999342 -81.28 0.035460 -171.3
8.79214000 0.035475 -171.3 0.999341 -81.29 0.999341 -81.29 0.035474 -171.3
8.79215000 0.035489 -171.3 0.999341 -81.29 0.999341 -81.29 0.035488 -171.3
8.79216000 0.035503 -171.3 0.999340 -81.29 0.999340 -81.29 0.035502 -171.3
8.79217000 0.035517 -171.3 0.999340 -81.29 0.999340 -81.29 0.035516 -171.3
8.79218000 0.035531 -171.3 0.999339 -81.29 0.999339 -81.29 0.035530 -171.3
8.79219000 0.035545 -171.3 0.999339 -81.29 0.999339 -81.29 0.035544 -171.3
8.79220000 0.035559 -171.3 0.999338 -81.29 0.999338 -81.29 0.035558 -171.3
8.79221000 0.035574 -171.3 0.999338 -81.29 0.999338 -81.29 0.035572 -171.4
8.79222000 0.035588 -171.3 0.999337 -81.29 0.999337 -81.29 0.035586 -171.4
8.79223000 0.035602 -171.3 0.999337 -81.29 0.999337 -81.29 0.035601 -171.4
8.79224000 0.035616 -171.3 0.999336 -81.29 0.999336 -81.29 0.035615 -171.4
8.79225000 0.035630 -171.3 0.999335 -81.29 0.999335 -81.29 0.035629 -171.4
8.79226000 0.035644 -171.3 0.999335 -81.30 0.999335 -81.30 0.035643 -171.4
8.79227000 0.035659 -171.3 0.999334 -81.30 0.999334 -81.30 0.035657 -171.4
8.79228000 0.035673 -171.3 0.999334 -81.30 0.999334 -81.30 0.035672 -171.4
8.79229000 0.035687 -171.3 0.999333 -81.30 0.999333 -81.30 0.035686 -171.4
8.79230000 0.035702 -171.3 0.999333 -81.30 0.999333 -81.30 0.035700 -171.4
8.79231000 0.035716 -171.3 0.999332 -81.30 0.999332 -81.30 0.035715 -171.4
8.79232000 0.035730 -171.3 0.999331 -81.30 0.999331 -81.30 0.035729 -171.4
8.79233000 0.035745 -171.3 0.999331 -81.30 0.999331 -81.30 0.035744 -171.4
8.79234000 0.035759 -171.3 0.999330 -81.30 0.999330 -81.30 0.035758 -171.4
8.79235000 0.035774 -171.3 0.999330 -81.30 0.999330 -81.30 0.035773 -171.4
8.79236000 0.035788 -171.3 0.999329 -81.31 0.999329 -81.31 0.035787 -171.4
8.79237000 0.035803 -171.3 0.999329 -81.31 0.999329 -81.31 0.035802 -171.4
8.79238000 0.035817 -171.3 0.999328 -81.31 0.999328 -81.31 0.035816 -171.4
8.79239000 0.035832 -171.3 0.999327 -81.31 0.999327 -81.31 0.035831 -171.4
8.79240000 0.035847 -171.3 0.999327 -81.31 0.999327 -81.31 0.035845 -171.4
8.79241000 0.035861 -171.3 0.999326 -81.31 0.999326 -81.31 0.035860 -171.4
8.79242000 0.035876 -171.3 0.999326 -81.31 0.999326 -81.31 0.035875 -171.4
8.79243000 0.035891 -171.3 0.999325 -81.31 0.999325 -81.31 0.035890 -171.4
8.79244000 0.035906 -171.3 0.999325 -81.31 0.999325 -81.31 0.035904 -171.4
8.79245000 0.035920 -171.3 0.999324 -81.31 0.999324 -81.31 0.035919 -171.4
8.79246000 0.035935 -171.3 0.999323 -81.31 0.999323 -81.31 0.035934 -171.4
8.79247000 0.035950 -171.3 0.999323 -81.32 0.999323 -81.32 0.035949 -171.4
8.79248000 0.035965 -171.3 0.999322 -81.32 0.999322 -81.32 0.035964 -171.4
8.79249000 0.035980 -171.3 0.999322 -81.32 0.999322 -81.32 0.035978 -171.4
8.79250000 0.035995 -171.3 0.999321 -81.32 0.999321 -81.32 0.035993 -171.4
8.79251000 0.036010 -171.3 0.999320 -81.32 0.999320 -81.32 0.036008 -171.4
8.79252000 0.036025 -171.3 0.999320 -81.32 0.999320 -81.32 0.036023 -171.4
8.79253000 0.036040 -171.3 0.999319 -81.32 0.999319 -81.32 0.036038 -171.4
8.79254000 0.036055 -171.3 0.999319 -81.32 0.999319 -81.32 0.036053 -171.4
8.79255000 0.036070 -171.3 0.999318 -81.32 0.999318 -81.32 0.036069 -171.4
8.79256000 0.036085 -171.3 0.999317 -81.32 0.999317 -81.32 0.036084 -171.4
8.79257000 0.036100 -171.3 0.999317 -81.32 0.999317 -81.32 0.036099 -171.4
8.79258000 0.036115 -171.3 0.999316 -81.33 0.999316 -81.33 0.036114 -171.4
8.79259000 0.036130 -171.3 0.999316 -81.33 0.999316 -81.33 0.036129 -171.4
8.79260000 0.036146 -171.3 0.999315 -81.33 0.999315 -81.33 0.036144 -171.4
8.79261000 0.036161 -171.3 0.999314 -81.33 0.999314 -81.33 0.036160 -171.4
8.79262000 0.036176 -171.3 0.999314 -81.33 0.999314 -81.33 0.036175 -171.4
8.79263000 0.036192 -171.3 0.999313 -81.33 0.999313 -81.33 0.036190 -171.4
8.79264000 0.036207 -171.3 0.999313 -81.33 0.999313 -81.33 0.036206 -171.4
8.79265000 0.036222 -171.3 0.999312 -81.33 0.999312 -81.33 0.036221 -171.4
8.79266000 0.036238 -171.3 0.999311 -81.33 0.999311 -81.33 0.036236 -171.4
8.79267000 0.036253 -171.3 0.999311 -81.33 0.999311 -81.33 0.036252 -171.4
8.79268000 0.036269 -171.3 0.999310 -81.34 0.999310 -81.34 0.036267 -171.4
8.79269000 0.036284 -171.3 0.999309 -81.34 0.999309 -81.34 0.036283 -171.4
8.79270000 0.036300 -171.3 0.999309 -81.34 0.999309 -81.34 0.036298 -171.4
8.79271000 0.036315 -171.3 0.999308 -81.34 0.999308 -81.34 0.036314 -171.4
8.79272000 0.036331 -171.3 0.999308 -81.34 0.999308 -81.34 0.036330 -171.4
8.79273000 0.036347 -171.3 0.999307 -81.34 0.999307 -81.34 0.036345 -171.4
8.79274000 0.036362 -171.3 0.999306 -81.34 0.999306 -81.34 0.036361 -171.4
8.79275000 0.036378 -171.3 0.999306 -81.34 0.999306 -81.34 0.036377 -171.4
8.79276000 0.036394 -171.3 0.999305 -81.34 0.999305 -81.34 0.036392 -171.4
8.79277000 0.036409 -171.4 0.999304 -81.34 0.999304 -81.34 0.036408 -171.4
8.79278000 0.036425 -171.4 0.999304 -81.35 0.999304 -81.35 0.036424 -171.4
8.79279000 0.036441 -171.4 0.999303 -81.35 0.999303 -81.35 0.036440 -171.4
8.79280000 0.036457 -171.4 0.999302 -81.35 0.999302 -81.35 0.036456 -171.4
8.79281000 0.036473 -171.4 0.999302 -81.35 0.999302 -81.35 0.036472 -171.4
8.79282000 0.036489 -171.4 0.999301 -81.35 0.999301 -81.35 0.036488 -171.4
8.79283000 0.036505 -171.4 0.999301 -81.35 0.999301 -81.35 0.036504 -171.4
8.79284000 0.036521 -171.4 0.999300 -81.35 0.999300 -81.35 0.036520 -171.4
8.79285000 0.036537 -171.4 0.999299 -81.35 0.999299 -81.35 0.036536 -171.5
8.79286000 0.036553 -171.4 0.999299 -81.35 0.999299 -81.35 0.036552 -171.5
8.79287000 0.036569 -171.4 0.999298 -81.35 0.999298 -81.35 0.036568 -171.5
8.79288000 0.036585 -171.4 0.999297 -81.36 0.999297 -81.36 0.036584 -171.5
8.79289000 0.036601 -171.4 0.999297 -81.36 0.999297 -81.36 0.036600 -171.5
8.79290000 0.036618 -171.4 0.999296 -81.36 0.999296 -81.36 0.036616 -171.5
8.79291000 0.036634 -171.4 0.999295 -81.36 0.999295 -81.36 0.036632 -171.5
8.79292000 0.036650 -171.4 0.999295 -81.36 0.999295 -81.36 0.036649 -171.5
8.79293000 0.036666 -171.4 0.999294 -81.36 0.999294 -81.36 0.036665 -171.5
8.79294000 0.036683 -171.4 0.999293 -81.36 0.999293 -81.36 0.036681 -171.5
8.79295000 0.036699 -171.4 0.999293 -81.36 0.999293 -81.36 0.036698 -171.5
8.79296000 0.036716 -171.4 0.999292 -81.36 0.999292 -81.36 0.036714 -171.5
8.79297000 0.036732 -171.4 0.999291 -81.36 0.999291 -81.36 0.036731 -171.5
8.79298000 0.036748 -171.4 0.999291 -81.37 0.999291 -81.37 0.036747 -171.5
8.79299000 0.036765 -171.4 0.999290 -81.37 0.999290 -81.37 0.036764 -171.5
8.79300000 0.036782 -171.4 0.999289 -81.37 0.999289 -81.37 0.036780 -171.5
8.79301000 0.036798 -171.4 0.999289 -81.37 0.999289 -81.37 0.036797 -171.5
8.79302000 0.036815 -171.4 0.999288 -81.37 0.999288 -81.37 0.036813 -171.5
8.79303000 0.036831 -171.4 0.999287 -81.37 0.999287 -81.37 0.036830 -171.5
8.79304000 0.036848 -171.4 0.999287 -81.37 0.999287 -81.37 0.036847 -171.5
8.79305000 0.036865 -171.4 0.999286 -81.37 0.999286 -81.37 0.036863 -171.5
8.79306000 0.036882 -171.4 0.999285 -81.37 0.999285 -81.37 0.036880 -171.5
8.79307000 0.036898 -171.4 0.999285 -81.38 0.999285 -81.38 0.036897 -171.5
8.79308000 0.036915 -171.4 0.999284 -81.38 0.999284 -81.38 0.036914 -171.5
8.79309000 0.036932 -171.4 0.999283 -81.38 0.999283 -81.38 0.036931 -171.5
8.79310000 0.036949 -171.4 0.999282 -81.38 0.999282 -81.38 0.036948 -171.5
8.79311000 0.036966 -171.4 0.999282 -81.38 0.999282 -81.38 0.036965 -171.5
8.79312000 0.036983 -171.4 0.999281 -81.38 0.999281 -81.38 0.036982 -171.5
8.79313000 0.037000 -171.4 0.999280 -81.38 0.999280 -81.38 0.036999 -171.5
8.79314000 0.037017 -171.4 0.999280 -81.38 0.999280 -81.38 0.037016 -171.5
8.79315000 0.037034 -171.4 0.999279 -81.38 0.999279 -81.38 0.037033 -171.5
8.79316000 0.037051 -171.4 0.999278 -81.38 0.999278 -81.38 0.037050 -171.5
8.79317000 0.037068 -171.4 0.999278 -81.39 0.999278 -81.39 0.037067 -171.5
8.79318000 0.037086 -171.4 0.999277 -81.39 0.999277 -81.39 0.037084 -171.5
8.79319000 0.037103 -171.4 0.999276 -81.39 0.999276 -81.39 0.037101 -171.5
8.79320000 0.037120 -171.4 0.999275 -81.39 0.999275 -81.39 0.037119 -171.5
8.79321000 0.037137 -171.4 0.999275 -81.39 0.999275 -81.39 0.037136 -171.5
8.79322000 0.037155 -171.4 0.999274 -81.39 0.999274 -81.39 0.037153 -171.5
8.79323000 0.037172 -171.4 0.999273 -81.39 0.999273 -81.39 0.037171 -171.5
8.79324000 0.037190 -171.4 0.999273 -81.39 0.999273 -81.39 0.037188 -171.5
8.79325000 0.037207 -171.4 0.999272 -81.39 0.999272 -81.39 0.037206 -171.5
8.79326000 0.037225 -171.4 0.999271 -81.40 0.999271 -81.40 0.037223 -171.5
8.79327000 0.037242 -171.4 0.999270 -81.40 0.999270 -81.40 0.037241 -171.5
8.79328000 0.037260 -171.4 0.999270 -81.40 0.999270 -81.40 0.037258 -171.5
8.79329000 0.037277 -171.4 0.999269 -81.40 0.999269 -81.40 0.037276 -171.5
8.79330000 0.037295 -171.4 0.999268 -81.40 0.999268 -81.40 0.037294 -171.5
8.79331000 0.037313 -171.4 0.999268 -81.40 0.999268 -81.40 0.037311 -171.5
8.79332000 0.037330 -171.4 0.999267 -81.40 0.999267 -81.40 0.037329 -171.5
8.79333000 0.037348 -171.4 0.999266 -81.40 0.999266 -81.40 0.037347 -171.5
8.79334000 0.037366 -171.4 0.999265 -81.40 0.999265 -81.40 0.037365 -171.5
8.79335000 0.037384 -171.4 0.999265 -81.41 0.999265 -81.41 0.037382 -171.5
8.79336000 0.037402 -171.4 0.999264 -81.41 0.999264 -81.41 0.037400 -171.5
8.79337000 0.037420 -171.4 0.999263 -81.41 0.999263 -81.41 0.037418 -171.5
8.79338000 0.037438 -171.4 0.999262 -81.41 0.999262 -81.41 0.037436 -171.5
8.79339000 0.037456 -171.4 0.999262 -81.41 0.999262 -81.41 0.037454 -171.5
8.79340000 0.037474 -171.4 0.999261 -81.41 0.999261 -81.41 0.037472 -171.5
8.79341000 0.037492 -171.4 0.999260 -81.41 0.999260 -81.41 0.037490 -171.5
8.79342000 0.037510 -171.4 0.999259 -81.41 0.999259 -81.41 0.037509 -171.5
8.79343000 0.037528 -171.4 0.999259 -81.41 0.999259 -81.41 0.037527 -171.6
8.79344000 0.037546 -171.4 0.999258 -81.42 0.999258 -81.42 0.037545 -171.6
8.79345000 0.037565 -171.4 0.999257 -81.42 0.999257 -81.42 0.037563 -171.6
8.79346000 0.037583 -171.4 0.999256 -81.42 0.999256 -81.42 0.037581 -171.6
8.79347000 0.037601 -171.4 0.999256 -81.42 0.999256 -81.42 0.037600 -171.6
8.79348000 0.037620 -171.4 0.999255 -81.42 0.999255 -81.42 0.037618 -171.6
8.79349000 0.037638 -171.4 0.999254 -81.42 0.999254 -81.42 0.037637 -171.6
8.79350000 0.037656 -171.4 0.999253 -81.42 0.999253 -81.42 0.037655 -171.6
8.79351000 0.037675 -171.4 0.999252 -81.42 0.999252 -81.42 0.037673 -171.6
8.79352000 0.037693 -171.4 0.999252 -81.42 0.999252 -81.42 0.037692 -171.6
8.79353000 0.037712 -171.4 0.999251 -81.43 0.999251 -81.43 0.037711 -171.6
8.79354000 0.037731 -171.4 0.999250 -81.43 0.999250 -81.43 0.037729 -171.6
8.79355000 0.037749 -171.4 0.999249 -81.43 0.999249 -81.43 0.037748 -171.6
8.79356000 0.037768 -171.4 0.999249 -81.43 0.999249 -81.43 0.037767 -171.6
8.79357000 0.037787 -171.4 0.999248 -81.43 0.999248 -81.43 0.037785 -171.6
8.79358000 0.037806 -171.4 0.999247 -81.43 0.999247 -81.43 0.037804 -171.6
8.79359000 0.037824 -171.4 0.999246 -81.43 0.999246 -81.43 0.037823 -171.6
8.79360000 0.037843 -171.4 0.999245 -81.43 0.999245 -81.43 0.037842 -171.6
8.79361000 0.037862 -171.4 0.999245 -81.44 0.999245 -81.44 0.037861 -171.6
8.79362000 0.037881 -171.4 0.999244 -81.44 0.999244 -81.44 0.037880 -171.6
8.79363000 0.037900 -171.4 0.999243 -81.44 0.999243 -81.44 0.037899 -171.6
8.79364000 0.037919 -171.4 0.999242 -81.44 0.999242 -81.44 0.037918 -171.6
8.79365000 0.037938 -171.4 0.999241 -81.44 0.999241 -81.44 0.037937 -171.6
8.79366000 0.037957 -171.4 0.999241 -81.44 0.999241 -81.44 0.037956 -171.6
8.79367000 0.037977 -171.4 0.999240 -81.44 0.999240 -81.44 0.037975 -171.6
8.79368000 0.037996 -171.4 0.999239 -81.44 0.999239 -81.44 0.037994 -171.6
8.79369000 0.038015 -171.4 0.999238 -81.44 0.999238 -81.44 0.038014 -171.6
8.79370000 0.038034 -171.4 0.999237 -81.45 0.999237 -81.45 0.038033 -171.6
8.79371000 0.038054 -171.4 0.999236 -81.45 0.999236 -81.45 0.038052 -171.6
8.79372000 0.038073 -171.4 0.999236 -81.45 0.999236 -81.45 0.038072 -171.6
8.79373000 0.038093 -171.4 0.999235 -81.45 0.999235 -81.45 0.038091 -171.6
8.79374000 0.038112 -171.4 0.999234 -81.45 0.999234 -81.45 0.038111 -171.6
8.79375000 0.038132 -171.4 0.999233 -81.45 0.999233 -81.45 0.038130 -171.6
8.79376000 0.038151 -171.4 0.999232 -81.45 0.999232 -81.45 0.038150 -171.6
8.79377000 0.038171 -171.4 0.999232 -81.45 0.999232 -81.45 0.038169 -171.6
8.79378000 0.038191 -171.4 0.999231 -81.46 0.999231 -81.46 0.038189 -171.6
8.79379000 0.038210 -171.4 0.999230 -81.46 0.999230 -81.46 0.038209 -171.6
8.79380000 0.038230 -171.4 0.999229 -81.46 0.999229 -81.46 0.038228 -171.6
8.79381000 0.038250 -171.4 0.999228 -81.46 0.999228 -81.46 0.038248 -171.6
8.79382000 0.038270 -171.4 0.999227 -81.46 0.999227 -81.46 0.038268 -171.6
8.79383000 0.038290 -171.4 0.999226 -81.46 0.999226 -81.46 0.038288 -171.6
8.79384000 0.038310 -171.4 0.999226 -81.46 0.999226 -81.46 0.038308 -171.6
8.79385000 0.038330 -171.4 0.999225 -81.46 0.999225 -81.46 0.038328 -171.6
8.79386000 0.038350 -171.4 0.999224 -81.47 0.999224 -81.47 0.038348 -171.6
8.79387000 0.038370 -171.4 0.999223 -81.47 0.999223 -81.47 0.038368 -171.6
8.79388000 0.038390 -171.4 0.999222 -81.47 0.999222 -81.47 0.038388 -171.6
8.79389000 0.038410 -171.4 0.999221 -81.47 0.999221 -81.47 0.038408 -171.6
8.79390000 0.038430 -171.4 0.999220 -81.47 0.999220 -81.47 0.038429 -171.6
8.79391000 0.038450 -171.4 0.999220 -81.47 0.999220 -81.47 0.038449 -171.6
8.79392000 0.038471 -171.4 0.999219 -81.47 0.999219 -81.47 0.038469 -171.6