! Sonnet Data File
! From: emgraph Version : 16.52
! From Project: Qubit_Test_beforeopt
! Data is De-embedded 
! Data File Written: 10/18/2017 16:57:22
!< HDATE 10/18/2017 09:03:38
!< MDATE 10/18/2017 09:03:38
!< PARAMS
!< Lj = 11.0
!< Gap = 6.0
!< Pwid = 2000.0
!< Airgap = 24.0
!< Width = 40.0
!< END PARAMS
# GHZ S MA R 51.80000
8.79000000 0.041228 -173.1 0.999120 -81.66 0.999120 -81.66 0.041226 -170.3
!< P1 F=8.79 Eeff=(6.4425964 -3.0761e-5) Z0=(50.47845 1.09247e-4) R=0.0 C=0.0 
!< P2 F=8.79 Eeff=(6.4425964 -3.0761e-5) Z0=(50.47845 1.09247e-4) R=0.0 C=0.0 
8.79001000 0.041242 -173.1 0.999120 -81.67 0.999120 -81.67 0.041240 -170.3
8.79002000 0.041257 -173.1 0.999119 -81.67 0.999119 -81.67 0.041254 -170.3
8.79003000 0.041271 -173.1 0.999118 -81.67 0.999118 -81.67 0.041269 -170.3
8.79004000 0.041285 -173.1 0.999118 -81.67 0.999118 -81.67 0.041283 -170.3
8.79005000 0.041299 -173.1 0.999117 -81.67 0.999117 -81.67 0.041297 -170.3
8.79006000 0.041313 -173.1 0.999117 -81.67 0.999117 -81.67 0.041311 -170.3
8.79007000 0.041327 -173.1 0.999116 -81.67 0.999116 -81.67 0.041325 -170.3
8.79008000 0.041342 -173.1 0.999115 -81.67 0.999115 -81.67 0.041339 -170.3
8.79009000 0.041356 -173.1 0.999115 -81.67 0.999115 -81.67 0.041354 -170.3
8.79010000 0.041370 -173.1 0.999114 -81.67 0.999114 -81.67 0.041368 -170.3
8.79011000 0.041384 -173.1 0.999113 -81.67 0.999113 -81.67 0.041382 -170.3
8.79012000 0.041399 -173.1 0.999113 -81.68 0.999113 -81.68 0.041396 -170.4
8.79013000 0.041413 -173.1 0.999112 -81.68 0.999112 -81.68 0.041411 -170.4
8.79014000 0.041427 -173.1 0.999112 -81.68 0.999112 -81.68 0.041425 -170.4
8.79015000 0.041442 -173.1 0.999111 -81.68 0.999111 -81.68 0.041439 -170.4
8.79016000 0.041456 -173.1 0.999110 -81.68 0.999110 -81.68 0.041454 -170.4
8.79017000 0.041470 -173.1 0.999110 -81.68 0.999110 -81.68 0.041468 -170.4
8.79018000 0.041485 -173.1 0.999109 -81.68 0.999109 -81.68 0.041483 -170.4
8.79019000 0.041499 -173.1 0.999108 -81.68 0.999108 -81.68 0.041497 -170.4
8.79020000 0.041514 -173.1 0.999108 -81.68 0.999108 -81.68 0.041512 -170.4
8.79021000 0.041528 -173.1 0.999107 -81.68 0.999107 -81.68 0.041526 -170.4
8.79022000 0.041543 -173.1 0.999106 -81.68 0.999106 -81.68 0.041541 -170.4
8.79023000 0.041557 -173.1 0.999106 -81.69 0.999106 -81.69 0.041555 -170.4
8.79024000 0.041572 -173.1 0.999105 -81.69 0.999105 -81.69 0.041570 -170.4
8.79025000 0.041586 -173.1 0.999105 -81.69 0.999105 -81.69 0.041584 -170.4
8.79026000 0.041601 -173.1 0.999104 -81.69 0.999104 -81.69 0.041599 -170.4
8.79027000 0.041615 -173.1 0.999103 -81.69 0.999103 -81.69 0.041613 -170.4
8.79028000 0.041630 -173.1 0.999103 -81.69 0.999103 -81.69 0.041628 -170.4
8.79029000 0.041645 -173.1 0.999102 -81.69 0.999102 -81.69 0.041643 -170.4
8.79030000 0.041659 -173.1 0.999101 -81.69 0.999101 -81.69 0.041657 -170.4
8.79031000 0.041674 -173.1 0.999101 -81.69 0.999101 -81.69 0.041672 -170.4
8.79032000 0.041689 -173.1 0.999100 -81.69 0.999100 -81.69 0.041687 -170.4
8.79033000 0.041704 -173.1 0.999099 -81.69 0.999099 -81.69 0.041701 -170.4
8.79034000 0.041718 -173.1 0.999099 -81.70 0.999099 -81.70 0.041716 -170.4
8.79035000 0.041733 -173.1 0.999098 -81.70 0.999098 -81.70 0.041731 -170.4
8.79036000 0.041748 -173.1 0.999097 -81.70 0.999097 -81.70 0.041746 -170.4
8.79037000 0.041763 -173.1 0.999097 -81.70 0.999097 -81.70 0.041760 -170.4
8.79038000 0.041777 -173.1 0.999096 -81.70 0.999096 -81.70 0.041775 -170.4
8.79039000 0.041792 -173.1 0.999095 -81.70 0.999095 -81.70 0.041790 -170.4
8.79040000 0.041807 -173.1 0.999095 -81.70 0.999095 -81.70 0.041805 -170.4
8.79041000 0.041822 -173.1 0.999094 -81.70 0.999094 -81.70 0.041820 -170.4
8.79042000 0.041837 -173.1 0.999093 -81.70 0.999093 -81.70 0.041835 -170.4
8.79043000 0.041852 -173.1 0.999093 -81.70 0.999093 -81.70 0.041850 -170.4
8.79044000 0.041867 -173.1 0.999092 -81.71 0.999092 -81.71 0.041865 -170.4
8.79045000 0.041882 -173.1 0.999091 -81.71 0.999091 -81.71 0.041880 -170.4
8.79046000 0.041897 -173.1 0.999091 -81.71 0.999091 -81.71 0.041895 -170.4
8.79047000 0.041912 -173.1 0.999090 -81.71 0.999090 -81.71 0.041910 -170.4
8.79048000 0.041927 -173.1 0.999089 -81.71 0.999089 -81.71 0.041925 -170.4
8.79049000 0.041942 -173.1 0.999089 -81.71 0.999089 -81.71 0.041940 -170.4
8.79050000 0.041957 -173.1 0.999088 -81.71 0.999088 -81.71 0.041955 -170.4
8.79051000 0.041972 -173.1 0.999087 -81.71 0.999087 -81.71 0.041970 -170.4
8.79052000 0.041987 -173.1 0.999087 -81.71 0.999087 -81.71 0.041985 -170.4
8.79053000 0.042003 -173.1 0.999086 -81.71 0.999086 -81.71 0.042000 -170.4
8.79054000 0.042018 -173.1 0.999085 -81.71 0.999085 -81.71 0.042015 -170.4
8.79055000 0.042033 -173.1 0.999085 -81.72 0.999085 -81.72 0.042031 -170.4
8.79056000 0.042048 -173.1 0.999084 -81.72 0.999084 -81.72 0.042046 -170.4
8.79057000 0.042063 -173.1 0.999083 -81.72 0.999083 -81.72 0.042061 -170.4
8.79058000 0.042079 -173.1 0.999083 -81.72 0.999083 -81.72 0.042076 -170.4
8.79059000 0.042094 -173.1 0.999082 -81.72 0.999082 -81.72 0.042092 -170.4
8.79060000 0.042109 -173.1 0.999081 -81.72 0.999081 -81.72 0.042107 -170.4
8.79061000 0.042125 -173.1 0.999081 -81.72 0.999081 -81.72 0.042122 -170.4
8.79062000 0.042140 -173.1 0.999080 -81.72 0.999080 -81.72 0.042138 -170.4
8.79063000 0.042155 -173.1 0.999079 -81.72 0.999079 -81.72 0.042153 -170.4
8.79064000 0.042171 -173.1 0.999079 -81.72 0.999079 -81.72 0.042168 -170.4
8.79065000 0.042186 -173.1 0.999078 -81.73 0.999078 -81.73 0.042184 -170.4
8.79066000 0.042202 -173.1 0.999077 -81.73 0.999077 -81.73 0.042199 -170.4
8.79067000 0.042217 -173.1 0.999076 -81.73 0.999076 -81.73 0.042215 -170.4
8.79068000 0.042232 -173.1 0.999076 -81.73 0.999076 -81.73 0.042230 -170.4
8.79069000 0.042248 -173.1 0.999075 -81.73 0.999075 -81.73 0.042246 -170.5
8.79070000 0.042264 -173.1 0.999074 -81.73 0.999074 -81.73 0.042261 -170.5
8.79071000 0.042279 -173.1 0.999074 -81.73 0.999074 -81.73 0.042277 -170.5
8.79072000 0.042295 -173.1 0.999073 -81.73 0.999073 -81.73 0.042292 -170.5
8.79073000 0.042310 -173.1 0.999072 -81.73 0.999072 -81.73 0.042308 -170.5
8.79074000 0.042326 -173.1 0.999072 -81.73 0.999072 -81.73 0.042324 -170.5
8.79075000 0.042342 -173.1 0.999071 -81.74 0.999071 -81.74 0.042339 -170.5
8.79076000 0.042357 -173.1 0.999070 -81.74 0.999070 -81.74 0.042355 -170.5
8.79077000 0.042373 -173.1 0.999069 -81.74 0.999069 -81.74 0.042371 -170.5
8.79078000 0.042389 -173.1 0.999069 -81.74 0.999069 -81.74 0.042386 -170.5
8.79079000 0.042404 -173.1 0.999068 -81.74 0.999068 -81.74 0.042402 -170.5
8.79080000 0.042420 -173.1 0.999067 -81.74 0.999067 -81.74 0.042418 -170.5
8.79081000 0.042436 -173.1 0.999067 -81.74 0.999067 -81.74 0.042434 -170.5
8.79082000 0.042452 -173.1 0.999066 -81.74 0.999066 -81.74 0.042449 -170.5
8.79083000 0.042468 -173.1 0.999065 -81.74 0.999065 -81.74 0.042465 -170.5
8.79084000 0.042483 -173.1 0.999064 -81.74 0.999064 -81.74 0.042481 -170.5
8.79085000 0.042499 -173.1 0.999064 -81.75 0.999064 -81.75 0.042497 -170.5
8.79086000 0.042515 -173.1 0.999063 -81.75 0.999063 -81.75 0.042513 -170.5
8.79087000 0.042531 -173.1 0.999062 -81.75 0.999062 -81.75 0.042529 -170.5
8.79088000 0.042547 -173.1 0.999062 -81.75 0.999062 -81.75 0.042545 -170.5
8.79089000 0.042563 -173.1 0.999061 -81.75 0.999061 -81.75 0.042561 -170.5
8.79090000 0.042579 -173.1 0.999060 -81.75 0.999060 -81.75 0.042577 -170.5
8.79091000 0.042595 -173.1 0.999059 -81.75 0.999059 -81.75 0.042593 -170.5
8.79092000 0.042611 -173.1 0.999059 -81.75 0.999059 -81.75 0.042609 -170.5
8.79093000 0.042627 -173.1 0.999058 -81.75 0.999058 -81.75 0.042625 -170.5
8.79094000 0.042643 -173.1 0.999057 -81.75 0.999057 -81.75 0.042641 -170.5
8.79095000 0.042659 -173.1 0.999056 -81.76 0.999056 -81.76 0.042657 -170.5
8.79096000 0.042676 -173.1 0.999056 -81.76 0.999056 -81.76 0.042673 -170.5
8.79097000 0.042692 -173.1 0.999055 -81.76 0.999055 -81.76 0.042689 -170.5
8.79098000 0.042708 -173.1 0.999054 -81.76 0.999054 -81.76 0.042706 -170.5
8.79099000 0.042724 -173.1 0.999053 -81.76 0.999053 -81.76 0.042722 -170.5
8.79100000 0.042740 -173.1 0.999053 -81.76 0.999053 -81.76 0.042738 -170.5
8.79101000 0.042757 -173.1 0.999052 -81.76 0.999052 -81.76 0.042754 -170.5
8.79102000 0.042773 -173.1 0.999051 -81.76 0.999051 -81.76 0.042771 -170.5
8.79103000 0.042789 -173.1 0.999051 -81.76 0.999051 -81.76 0.042787 -170.5
8.79104000 0.042806 -173.1 0.999050 -81.76 0.999050 -81.76 0.042803 -170.5
8.79105000 0.042822 -173.1 0.999049 -81.77 0.999049 -81.77 0.042820 -170.5
8.79106000 0.042838 -173.1 0.999048 -81.77 0.999048 -81.77 0.042836 -170.5
8.79107000 0.042855 -173.1 0.999048 -81.77 0.999048 -81.77 0.042852 -170.5
8.79108000 0.042871 -173.1 0.999047 -81.77 0.999047 -81.77 0.042869 -170.5
8.79109000 0.042888 -173.1 0.999046 -81.77 0.999046 -81.77 0.042885 -170.5
8.79110000 0.042904 -173.1 0.999045 -81.77 0.999045 -81.77 0.042902 -170.5
8.79111000 0.042921 -173.1 0.999045 -81.77 0.999045 -81.77 0.042918 -170.5
8.79112000 0.042937 -173.1 0.999044 -81.77 0.999044 -81.77 0.042935 -170.5
8.79113000 0.042954 -173.1 0.999043 -81.77 0.999043 -81.77 0.042951 -170.5
8.79114000 0.042970 -173.1 0.999042 -81.78 0.999042 -81.78 0.042968 -170.5
8.79115000 0.042987 -173.1 0.999041 -81.78 0.999041 -81.78 0.042985 -170.5
8.79116000 0.043004 -173.1 0.999041 -81.78 0.999041 -81.78 0.043001 -170.5
8.79117000 0.043020 -173.1 0.999040 -81.78 0.999040 -81.78 0.043018 -170.5
8.79118000 0.043037 -173.1 0.999039 -81.78 0.999039 -81.78 0.043035 -170.5
8.79119000 0.043054 -173.1 0.999038 -81.78 0.999038 -81.78 0.043051 -170.5
8.79120000 0.043070 -173.1 0.999038 -81.78 0.999038 -81.78 0.043068 -170.5
8.79121000 0.043087 -173.1 0.999037 -81.78 0.999037 -81.78 0.043085 -170.5
8.79122000 0.043104 -173.1 0.999036 -81.78 0.999036 -81.78 0.043102 -170.6
8.79123000 0.043121 -173.1 0.999035 -81.78 0.999035 -81.78 0.043118 -170.6
8.79124000 0.043138 -173.1 0.999035 -81.79 0.999035 -81.79 0.043135 -170.6
8.79125000 0.043154 -173.1 0.999034 -81.79 0.999034 -81.79 0.043152 -170.6
8.79126000 0.043171 -173.1 0.999033 -81.79 0.999033 -81.79 0.043169 -170.6
8.79127000 0.043188 -173.1 0.999032 -81.79 0.999032 -81.79 0.043186 -170.6
8.79128000 0.043205 -173.1 0.999031 -81.79 0.999031 -81.79 0.043203 -170.6
8.79129000 0.043222 -173.1 0.999031 -81.79 0.999031 -81.79 0.043220 -170.6
8.79130000 0.043239 -173.1 0.999030 -81.79 0.999030 -81.79 0.043237 -170.6
8.79131000 0.043256 -173.1 0.999029 -81.79 0.999029 -81.79 0.043254 -170.6
8.79132000 0.043273 -173.1 0.999028 -81.79 0.999028 -81.79 0.043271 -170.6
8.79133000 0.043290 -173.1 0.999028 -81.80 0.999028 -81.80 0.043288 -170.6
8.79134000 0.043307 -173.1 0.999027 -81.80 0.999027 -81.80 0.043305 -170.6
8.79135000 0.043325 -173.1 0.999026 -81.80 0.999026 -81.80 0.043322 -170.6
8.79136000 0.043342 -173.1 0.999025 -81.80 0.999025 -81.80 0.043339 -170.6
8.79137000 0.043359 -173.1 0.999024 -81.80 0.999024 -81.80 0.043356 -170.6
8.79138000 0.043376 -173.1 0.999024 -81.80 0.999024 -81.80 0.043374 -170.6
8.79139000 0.043393 -173.1 0.999023 -81.80 0.999023 -81.80 0.043391 -170.6
8.79140000 0.043411 -173.1 0.999022 -81.80 0.999022 -81.80 0.043408 -170.6
8.79141000 0.043428 -173.1 0.999021 -81.80 0.999021 -81.80 0.043425 -170.6
8.79142000 0.043445 -173.1 0.999020 -81.80 0.999020 -81.80 0.043443 -170.6
8.79143000 0.043463 -173.1 0.999020 -81.81 0.999020 -81.81 0.043460 -170.6
8.79144000 0.043480 -173.1 0.999019 -81.81 0.999019 -81.81 0.043477 -170.6
8.79145000 0.043497 -173.1 0.999018 -81.81 0.999018 -81.81 0.043495 -170.6
8.79146000 0.043515 -173.1 0.999017 -81.81 0.999017 -81.81 0.043512 -170.6
8.79147000 0.043532 -173.1 0.999016 -81.81 0.999016 -81.81 0.043530 -170.6
8.79148000 0.043550 -173.1 0.999015 -81.81 0.999015 -81.81 0.043547 -170.6
8.79149000 0.043567 -173.1 0.999015 -81.81 0.999015 -81.81 0.043565 -170.6
8.79150000 0.043585 -173.1 0.999014 -81.81 0.999014 -81.81 0.043582 -170.6
8.79151000 0.043602 -173.1 0.999013 -81.81 0.999013 -81.81 0.043600 -170.6
8.79152000 0.043620 -173.1 0.999012 -81.82 0.999012 -81.82 0.043617 -170.6
8.79153000 0.043637 -173.1 0.999011 -81.82 0.999011 -81.82 0.043635 -170.6
8.79154000 0.043655 -173.1 0.999011 -81.82 0.999011 -81.82 0.043653 -170.6
8.79155000 0.043673 -173.1 0.999010 -81.82 0.999010 -81.82 0.043670 -170.6
8.79156000 0.043690 -173.1 0.999009 -81.82 0.999009 -81.82 0.043688 -170.6
8.79157000 0.043708 -173.1 0.999008 -81.82 0.999008 -81.82 0.043706 -170.6
8.79158000 0.043726 -173.1 0.999007 -81.82 0.999007 -81.82 0.043723 -170.6
8.79159000 0.043744 -173.1 0.999006 -81.82 0.999006 -81.82 0.043741 -170.6
8.79160000 0.043761 -173.1 0.999006 -81.82 0.999006 -81.82 0.043759 -170.6
8.79161000 0.043779 -173.1 0.999005 -81.83 0.999005 -81.83 0.043777 -170.6
8.79162000 0.043797 -173.1 0.999004 -81.83 0.999004 -81.83 0.043795 -170.6
8.79163000 0.043815 -173.1 0.999003 -81.83 0.999003 -81.83 0.043813 -170.6
8.79164000 0.043833 -173.1 0.999002 -81.83 0.999002 -81.83 0.043830 -170.6
8.79165000 0.043851 -173.1 0.999001 -81.83 0.999001 -81.83 0.043848 -170.6
8.79166000 0.043869 -173.1 0.999001 -81.83 0.999001 -81.83 0.043866 -170.6
8.79167000 0.043887 -173.1 0.999000 -81.83 0.999000 -81.83 0.043884 -170.6
8.79168000 0.043905 -173.1 0.998999 -81.83 0.998999 -81.83 0.043902 -170.6
8.79169000 0.043923 -173.1 0.998998 -81.83 0.998998 -81.83 0.043920 -170.6
8.79170000 0.043941 -173.1 0.998997 -81.84 0.998997 -81.84 0.043939 -170.6
8.79171000 0.043959 -173.1 0.998996 -81.84 0.998996 -81.84 0.043957 -170.6
8.79172000 0.043977 -173.1 0.998996 -81.84 0.998996 -81.84 0.043975 -170.6
8.79173000 0.043995 -173.1 0.998995 -81.84 0.998995 -81.84 0.043993 -170.7
8.79174000 0.044014 -173.1 0.998994 -81.84 0.998994 -81.84 0.044011 -170.7
8.79175000 0.044032 -173.1 0.998993 -81.84 0.998993 -81.84 0.044029 -170.7
8.79176000 0.044050 -173.1 0.998992 -81.84 0.998992 -81.84 0.044048 -170.7
8.79177000 0.044068 -173.1 0.998991 -81.84 0.998991 -81.84 0.044066 -170.7
8.79178000 0.044087 -173.1 0.998990 -81.84 0.998990 -81.84 0.044084 -170.7
8.79179000 0.044105 -173.1 0.998990 -81.85 0.998990 -81.85 0.044103 -170.7
8.79180000 0.044123 -173.1 0.998989 -81.85 0.998989 -81.85 0.044121 -170.7
8.79181000 0.044142 -173.1 0.998988 -81.85 0.998988 -81.85 0.044139 -170.7
8.79182000 0.044160 -173.1 0.998987 -81.85 0.998987 -81.85 0.044158 -170.7
8.79183000 0.044179 -173.1 0.998986 -81.85 0.998986 -81.85 0.044176 -170.7
8.79184000 0.044197 -173.1 0.998985 -81.85 0.998985 -81.85 0.044195 -170.7
8.79185000 0.044216 -173.1 0.998984 -81.85 0.998984 -81.85 0.044213 -170.7
8.79186000 0.044234 -173.1 0.998983 -81.85 0.998983 -81.85 0.044232 -170.7
8.79187000 0.044253 -173.1 0.998983 -81.86 0.998983 -81.86 0.044250 -170.7
8.79188000 0.044272 -173.1 0.998982 -81.86 0.998982 -81.86 0.044269 -170.7
8.79189000 0.044290 -173.1 0.998981 -81.86 0.998981 -81.86 0.044288 -170.7
8.79190000 0.044309 -173.1 0.998980 -81.86 0.998980 -81.86 0.044306 -170.7
8.79191000 0.044328 -173.1 0.998979 -81.86 0.998979 -81.86 0.044325 -170.7
8.79192000 0.044346 -173.1 0.998978 -81.86 0.998978 -81.86 0.044344 -170.7
8.79193000 0.044365 -173.1 0.998977 -81.86 0.998977 -81.86 0.044362 -170.7
8.79194000 0.044384 -173.1 0.998976 -81.86 0.998976 -81.86 0.044381 -170.7
8.79195000 0.044403 -173.1 0.998975 -81.86 0.998975 -81.86 0.044400 -170.7
8.79196000 0.044421 -173.1 0.998975 -81.87 0.998975 -81.87 0.044419 -170.7
8.79197000 0.044440 -173.1 0.998974 -81.87 0.998974 -81.87 0.044438 -170.7
8.79198000 0.044459 -173.1 0.998973 -81.87 0.998973 -81.87 0.044457 -170.7
8.79199000 0.044478 -173.1 0.998972 -81.87 0.998972 -81.87 0.044476 -170.7
8.79200000 0.044497 -173.1 0.998971 -81.87 0.998971 -81.87 0.044495 -170.7
8.79201000 0.044516 -173.1 0.998970 -81.87 0.998970 -81.87 0.044514 -170.7
8.79202000 0.044535 -173.1 0.998969 -81.87 0.998969 -81.87 0.044533 -170.7
8.79203000 0.044554 -173.1 0.998968 -81.87 0.998968 -81.87 0.044552 -170.7
8.79204000 0.044573 -173.1 0.998967 -81.88 0.998967 -81.88 0.044571 -170.7
8.79205000 0.044593 -173.1 0.998966 -81.88 0.998966 -81.88 0.044590 -170.7
8.79206000 0.044612 -173.1 0.998965 -81.88 0.998965 -81.88 0.044609 -170.7
8.79207000 0.044631 -173.1 0.998965 -81.88 0.998965 -81.88 0.044628 -170.7
8.79208000 0.044650 -173.1 0.998964 -81.88 0.998964 -81.88 0.044648 -170.7
8.79209000 0.044669 -173.1 0.998963 -81.88 0.998963 -81.88 0.044667 -170.7
8.79210000 0.044689 -173.1 0.998962 -81.88 0.998962 -81.88 0.044686 -170.7
8.79211000 0.044708 -173.1 0.998961 -81.88 0.998961 -81.88 0.044705 -170.7
8.79212000 0.044727 -173.1 0.998960 -81.88 0.998960 -81.88 0.044725 -170.7
8.79213000 0.044747 -173.1 0.998959 -81.89 0.998959 -81.89 0.044744 -170.7
8.79214000 0.044766 -173.1 0.998958 -81.89 0.998958 -81.89 0.044763 -170.7
8.79215000 0.044786 -173.1 0.998957 -81.89 0.998957 -81.89 0.044783 -170.7
8.79216000 0.044805 -173.1 0.998956 -81.89 0.998956 -81.89 0.044802 -170.7
8.79217000 0.044825 -173.1 0.998955 -81.89 0.998955 -81.89 0.044822 -170.7
8.79218000 0.044844 -173.1 0.998954 -81.89 0.998954 -81.89 0.044841 -170.7
8.79219000 0.044864 -173.1 0.998953 -81.89 0.998953 -81.89 0.044861 -170.7
8.79220000 0.044883 -173.1 0.998953 -81.89 0.998953 -81.89 0.044881 -170.8
8.79221000 0.044903 -173.1 0.998952 -81.90 0.998952 -81.90 0.044900 -170.8
8.79222000 0.044923 -173.1 0.998951 -81.90 0.998951 -81.90 0.044920 -170.8
8.79223000 0.044942 -173.1 0.998950 -81.90 0.998950 -81.90 0.044940 -170.8
8.79224000 0.044962 -173.1 0.998949 -81.90 0.998949 -81.90 0.044959 -170.8
8.79225000 0.044982 -173.1 0.998948 -81.90 0.998948 -81.90 0.044979 -170.8
8.79226000 0.045002 -173.1 0.998947 -81.90 0.998947 -81.90 0.044999 -170.8
8.79227000 0.045021 -173.1 0.998946 -81.90 0.998946 -81.90 0.045019 -170.8
8.79228000 0.045041 -173.1 0.998945 -81.90 0.998945 -81.90 0.045039 -170.8
8.79229000 0.045061 -173.1 0.998944 -81.91 0.998944 -81.91 0.045058 -170.8
8.79230000 0.045081 -173.1 0.998943 -81.91 0.998943 -81.91 0.045078 -170.8
8.79231000 0.045101 -173.1 0.998942 -81.91 0.998942 -81.91 0.045098 -170.8
8.79232000 0.045121 -173.1 0.998941 -81.91 0.998941 -81.91 0.045118 -170.8
8.79233000 0.045141 -173.1 0.998940 -81.91 0.998940 -81.91 0.045138 -170.8
8.79234000 0.045161 -173.1 0.998939 -81.91 0.998939 -81.91 0.045158 -170.8
8.79235000 0.045181 -173.1 0.998938 -81.91 0.998938 -81.91 0.045179 -170.8
8.79236000 0.045201 -173.1 0.998937 -81.91 0.998937 -81.91 0.045199 -170.8
8.79237000 0.045222 -173.1 0.998936 -81.92 0.998936 -81.92 0.045219 -170.8
8.79238000 0.045242 -173.1 0.998935 -81.92 0.998935 -81.92 0.045239 -170.8
8.79239000 0.045262 -173.1 0.998934 -81.92 0.998934 -81.92 0.045259 -170.8
8.79240000 0.045282 -173.1 0.998933 -81.92 0.998933 -81.92 0.045280 -170.8
8.79241000 0.045303 -173.1 0.998932 -81.92 0.998932 -81.92 0.045300 -170.8
8.79242000 0.045323 -173.1 0.998931 -81.92 0.998931 -81.92 0.045320 -170.8
8.79243000 0.045343 -173.1 0.998930 -81.92 0.998930 -81.92 0.045341 -170.8
8.79244000 0.045364 -173.1 0.998929 -81.92 0.998929 -81.92 0.045361 -170.8
8.79245000 0.045384 -173.1 0.998928 -81.93 0.998928 -81.93 0.045381 -170.8
8.79246000 0.045405 -173.1 0.998927 -81.93 0.998927 -81.93 0.045402 -170.8
8.79247000 0.045425 -173.1 0.998926 -81.93 0.998926 -81.93 0.045422 -170.8
8.79248000 0.045446 -173.1 0.998925 -81.93 0.998925 -81.93 0.045443 -170.8
8.79249000 0.045466 -173.1 0.998924 -81.93 0.998924 -81.93 0.045463 -170.8
8.79250000 0.045487 -173.1 0.998923 -81.93 0.998923 -81.93 0.045484 -170.8
8.79251000 0.045507 -173.1 0.998922 -81.93 0.998922 -81.93 0.045505 -170.8
8.79252000 0.045528 -173.2 0.998921 -81.93 0.998921 -81.93 0.045525 -170.8
8.79253000 0.045549 -173.2 0.998920 -81.94 0.998920 -81.94 0.045546 -170.8
8.79254000 0.045570 -173.2 0.998919 -81.94 0.998919 -81.94 0.045567 -170.8
8.79255000 0.045590 -173.2 0.998918 -81.94 0.998918 -81.94 0.045588 -170.8
8.79256000 0.045611 -173.2 0.998917 -81.94 0.998917 -81.94 0.045608 -170.8
8.79257000 0.045632 -173.2 0.998916 -81.94 0.998916 -81.94 0.045629 -170.8
8.79258000 0.045653 -173.2 0.998915 -81.94 0.998915 -81.94 0.045650 -170.8
8.79259000 0.045674 -173.2 0.998914 -81.94 0.998914 -81.94 0.045671 -170.8
8.79260000 0.045695 -173.2 0.998913 -81.94 0.998913 -81.94 0.045692 -170.8
8.79261000 0.045716 -173.2 0.998912 -81.95 0.998912 -81.95 0.045713 -170.8
8.79262000 0.045737 -173.2 0.998911 -81.95 0.998911 -81.95 0.045734 -170.8
8.79263000 0.045758 -173.2 0.998910 -81.95 0.998910 -81.95 0.045755 -170.8
8.79264000 0.045779 -173.2 0.998909 -81.95 0.998909 -81.95 0.045776 -170.8
8.79265000 0.045800 -173.2 0.998908 -81.95 0.998908 -81.95 0.045797 -170.9
8.79266000 0.045821 -173.2 0.998907 -81.95 0.998907 -81.95 0.045819 -170.9
8.79267000 0.045843 -173.2 0.998906 -81.95 0.998906 -81.95 0.045840 -170.9
8.79268000 0.045864 -173.2 0.998905 -81.96 0.998905 -81.96 0.045861 -170.9
8.79269000 0.045885 -173.2 0.998904 -81.96 0.998904 -81.96 0.045882 -170.9
8.79270000 0.045906 -173.2 0.998903 -81.96 0.998903 -81.96 0.045904 -170.9
8.79271000 0.045928 -173.2 0.998902 -81.96 0.998902 -81.96 0.045925 -170.9
8.79272000 0.045949 -173.2 0.998901 -81.96 0.998901 -81.96 0.045946 -170.9
8.79273000 0.045971 -173.2 0.998900 -81.96 0.998900 -81.96 0.045968 -170.9
8.79274000 0.045992 -173.2 0.998899 -81.96 0.998899 -81.96 0.045989 -170.9
8.79275000 0.046014 -173.2 0.998898 -81.96 0.998898 -81.96 0.046011 -170.9
8.79276000 0.046035 -173.2 0.998896 -81.97 0.998896 -81.97 0.046032 -170.9
8.79277000 0.046057 -173.2 0.998895 -81.97 0.998895 -81.97 0.046054 -170.9
8.79278000 0.046078 -173.2 0.998894 -81.97 0.998894 -81.97 0.046075 -170.9
8.79279000 0.046100 -173.2 0.998893 -81.97 0.998893 -81.97 0.046097 -170.9
8.79280000 0.046122 -173.2 0.998892 -81.97 0.998892 -81.97 0.046119 -170.9
8.79281000 0.046143 -173.2 0.998891 -81.97 0.998891 -81.97 0.046141 -170.9
8.79282000 0.046165 -173.2 0.998890 -81.97 0.998890 -81.97 0.046162 -170.9
8.79283000 0.046187 -173.2 0.998889 -81.98 0.998889 -81.98 0.046184 -170.9
8.79284000 0.046209 -173.2 0.998888 -81.98 0.998888 -81.98 0.046206 -170.9
8.79285000 0.046231 -173.2 0.998887 -81.98 0.998887 -81.98 0.046228 -170.9
8.79286000 0.046253 -173.2 0.998886 -81.98 0.998886 -81.98 0.046250 -170.9
8.79287000 0.046275 -173.2 0.998885 -81.98 0.998885 -81.98 0.046272 -170.9
8.79288000 0.046297 -173.2 0.998884 -81.98 0.998884 -81.98 0.046294 -170.9
8.79289000 0.046319 -173.2 0.998882 -81.98 0.998882 -81.98 0.046316 -170.9
8.79290000 0.046341 -173.2 0.998881 -81.98 0.998881 -81.98 0.046338 -170.9
8.79291000 0.046363 -173.2 0.998880 -81.99 0.998880 -81.99 0.046360 -170.9
8.79292000 0.046385 -173.2 0.998879 -81.99 0.998879 -81.99 0.046382 -170.9
8.79293000 0.046407 -173.2 0.998878 -81.99 0.998878 -81.99 0.046404 -170.9
8.79294000 0.046429 -173.2 0.998877 -81.99 0.998877 -81.99 0.046426 -170.9
8.79295000 0.046452 -173.2 0.998876 -81.99 0.998876 -81.99 0.046449 -170.9
8.79296000 0.046474 -173.2 0.998875 -81.99 0.998875 -81.99 0.046471 -170.9
8.79297000 0.046496 -173.2 0.998874 -81.99 0.998874 -81.99 0.046493 -170.9
8.79298000 0.046519 -173.2 0.998873 -82.00 0.998873 -82.00 0.046516 -170.9
8.79299000 0.046541 -173.2 0.998871 -82.00 0.998871 -82.00 0.046538 -170.9
8.79300000 0.046564 -173.2 0.998870 -82.00 0.998870 -82.00 0.046561 -170.9
8.79301000 0.046586 -173.2 0.998869 -82.00 0.998869 -82.00 0.046583 -170.9
8.79302000 0.046609 -173.2 0.998868 -82.00 0.998868 -82.00 0.046606 -170.9
8.79303000 0.046631 -173.2 0.998867 -82.00 0.998867 -82.00 0.046628 -170.9
8.79304000 0.046654 -173.2 0.998866 -82.00 0.998866 -82.00 0.046651 -170.9
8.79305000 0.046676 -173.2 0.998865 -82.01 0.998865 -82.01 0.046673 -170.9
8.79306000 0.046699 -173.2 0.998864 -82.01 0.998864 -82.01 0.046696 -170.9
8.79307000 0.046722 -173.2 0.998862 -82.01 0.998862 -82.01 0.046719 -170.9
8.79308000 0.046745 -173.2 0.998861 -82.01 0.998861 -82.01 0.046742 -171.0
8.79309000 0.046767 -173.2 0.998860 -82.01 0.998860 -82.01 0.046765 -171.0
8.79310000 0.046790 -173.2 0.998859 -82.01 0.998859 -82.01 0.046787 -171.0
8.79311000 0.046813 -173.2 0.998858 -82.01 0.998858 -82.01 0.046810 -171.0
8.79312000 0.046836 -173.2 0.998857 -82.01 0.998857 -82.01 0.046833 -171.0
8.79313000 0.046859 -173.2 0.998855 -82.02 0.998855 -82.02 0.046856 -171.0
8.79314000 0.046882 -173.2 0.998854 -82.02 0.998854 -82.02 0.046879 -171.0
8.79315000 0.046905 -173.2 0.998853 -82.02 0.998853 -82.02 0.046902 -171.0
8.79316000 0.046928 -173.2 0.998852 -82.02 0.998852 -82.02 0.046925 -171.0
8.79317000 0.046952 -173.2 0.998851 -82.02 0.998851 -82.02 0.046949 -171.0
8.79318000 0.046975 -173.2 0.998850 -82.02 0.998850 -82.02 0.046972 -171.0
8.79319000 0.046998 -173.2 0.998849 -82.02 0.998849 -82.02 0.046995 -171.0
8.79320000 0.047021 -173.2 0.998847 -82.03 0.998847 -82.03 0.047018 -171.0
8.79321000 0.047045 -173.2 0.998846 -82.03 0.998846 -82.03 0.047042 -171.0
8.79322000 0.047068 -173.2 0.998845 -82.03 0.998845 -82.03 0.047065 -171.0
8.79323000 0.047091 -173.2 0.998844 -82.03 0.998844 -82.03 0.047088 -171.0
8.79324000 0.047115 -173.2 0.998843 -82.03 0.998843 -82.03 0.047112 -171.0
8.79325000 0.047138 -173.2 0.998841 -82.03 0.998841 -82.03 0.047135 -171.0
8.79326000 0.047162 -173.2 0.998840 -82.03 0.998840 -82.03 0.047159 -171.0
8.79327000 0.047185 -173.2 0.998839 -82.04 0.998839 -82.04 0.047182 -171.0
8.79328000 0.047209 -173.2 0.998838 -82.04 0.998838 -82.04 0.047206 -171.0
8.79329000 0.047233 -173.2 0.998837 -82.04 0.998837 -82.04 0.047230 -171.0
8.79330000 0.047256 -173.2 0.998835 -82.04 0.998835 -82.04 0.047253 -171.0
8.79331000 0.047280 -173.2 0.998834 -82.04 0.998834 -82.04 0.047277 -171.0
8.79332000 0.047304 -173.2 0.998833 -82.04 0.998833 -82.04 0.047301 -171.0
8.79333000 0.047328 -173.2 0.998832 -82.05 0.998832 -82.05 0.047325 -171.0
8.79334000 0.047352 -173.2 0.998831 -82.05 0.998831 -82.05 0.047348 -171.0
8.79335000 0.047375 -173.2 0.998829 -82.05 0.998829 -82.05 0.047372 -171.0
8.79336000 0.047399 -173.2 0.998828 -82.05 0.998828 -82.05 0.047396 -171.0
8.79337000 0.047423 -173.2 0.998827 -82.05 0.998827 -82.05 0.047420 -171.0
8.79338000 0.047447 -173.2 0.998826 -82.05 0.998826 -82.05 0.047444 -171.0
8.79339000 0.047472 -173.2 0.998825 -82.05 0.998825 -82.05 0.047468 -171.0
8.79340000 0.047496 -173.2 0.998823 -82.06 0.998823 -82.06 0.047493 -171.0
8.79341000 0.047520 -173.2 0.998822 -82.06 0.998822 -82.06 0.047517 -171.0
8.79342000 0.047544 -173.2 0.998821 -82.06 0.998821 -82.06 0.047541 -171.0
8.79343000 0.047568 -173.2 0.998820 -82.06 0.998820 -82.06 0.047565 -171.0
8.79344000 0.047593 -173.2 0.998818 -82.06 0.998818 -82.06 0.047590 -171.0
8.79345000 0.047617 -173.2 0.998817 -82.06 0.998817 -82.06 0.047614 -171.0
8.79346000 0.047641 -173.2 0.998816 -82.06 0.998816 -82.06 0.047638 -171.0
8.79347000 0.047666 -173.2 0.998815 -82.07 0.998815 -82.07 0.047663 -171.0
8.79348000 0.047690 -173.2 0.998813 -82.07 0.998813 -82.07 0.047687 -171.1
8.79349000 0.047715 -173.2 0.998812 -82.07 0.998812 -82.07 0.047712 -171.1
8.79350000 0.047739 -173.2 0.998811 -82.07 0.998811 -82.07 0.047736 -171.1
8.79351000 0.047764 -173.2 0.998810 -82.07 0.998810 -82.07 0.047761 -171.1
8.79352000 0.047789 -173.2 0.998808 -82.07 0.998808 -82.07 0.047786 -171.1
8.79353000 0.047813 -173.2 0.998807 -82.07 0.998807 -82.07 0.047810 -171.1
8.79354000 0.047838 -173.2 0.998806 -82.08 0.998806 -82.08 0.047835 -171.1
8.79355000 0.047863 -173.2 0.998805 -82.08 0.998805 -82.08 0.047860 -171.1
8.79356000 0.047888 -173.2 0.998803 -82.08 0.998803 -82.08 0.047885 -171.1
8.79357000 0.047913 -173.2 0.998802 -82.08 0.998802 -82.08 0.047910 -171.1
8.79358000 0.047938 -173.2 0.998801 -82.08 0.998801 -82.08 0.047935 -171.1
8.79359000 0.047963 -173.2 0.998799 -82.08 0.998799 -82.08 0.047960 -171.1
8.79360000 0.047988 -173.2 0.998798 -82.09 0.998798 -82.09 0.047985 -171.1
8.79361000 0.048013 -173.2 0.998797 -82.09 0.998797 -82.09 0.048010 -171.1
8.79362000 0.048038 -173.2 0.998796 -82.09 0.998796 -82.09 0.048035 -171.1
8.79363000 0.048063 -173.2 0.998794 -82.09 0.998794 -82.09 0.048060 -171.1
8.79364000 0.048088 -173.2 0.998793 -82.09 0.998793 -82.09 0.048085 -171.1
8.79365000 0.048114 -173.2 0.998792 -82.09 0.998792 -82.09 0.048110 -171.1
8.79366000 0.048139 -173.2 0.998790 -82.09 0.998790 -82.09 0.048136 -171.1
8.79367000 0.048164 -173.2 0.998789 -82.10 0.998789 -82.10 0.048161 -171.1
8.79368000 0.048190 -173.2 0.998788 -82.10 0.998788 -82.10 0.048187 -171.1
8.79369000 0.048215 -173.2 0.998786 -82.10 0.998786 -82.10 0.048212 -171.1
8.79370000 0.048241 -173.2 0.998785 -82.10 0.998785 -82.10 0.048238 -171.1
8.79371000 0.048266 -173.2 0.998784 -82.10 0.998784 -82.10 0.048263 -171.1
8.79372000 0.048292 -173.2 0.998782 -82.10 0.998782 -82.10 0.048289 -171.1
8.79373000 0.048318 -173.2 0.998781 -82.11 0.998781 -82.11 0.048314 -171.1
8.79374000 0.048343 -173.2 0.998780 -82.11 0.998780 -82.11 0.048340 -171.1
8.79375000 0.048369 -173.2 0.998778 -82.11 0.998778 -82.11 0.048366 -171.1
8.79376000 0.048395 -173.2 0.998777 -82.11 0.998777 -82.11 0.048392 -171.1
8.79377000 0.048421 -173.2 0.998776 -82.11 0.998776 -82.11 0.048417 -171.1
8.79378000 0.048447 -173.2 0.998774 -82.11 0.998774 -82.11 0.048443 -171.1
8.79379000 0.048472 -173.2 0.998773 -82.12 0.998773 -82.12 0.048469 -171.1
8.79380000 0.048498 -173.2 0.998772 -82.12 0.998772 -82.12 0.048495 -171.1
8.79381000 0.048524 -173.2 0.998770 -82.12 0.998770 -82.12 0.048521 -171.1
8.79382000 0.048551 -173.2 0.998769 -82.12 0.998769 -82.12 0.048547 -171.1
8.79383000 0.048577 -173.2 0.998768 -82.12 0.998768 -82.12 0.048573 -171.1
8.79384000 0.048603 -173.2 0.998766 -82.12 0.998766 -82.12 0.048600 -171.1
8.79385000 0.048629 -173.2 0.998765 -82.12 0.998765 -82.12 0.048626 -171.1
8.79386000 0.048655 -173.2 0.998763 -82.13 0.998763 -82.13 0.048652 -171.2
8.79387000 0.048682 -173.2 0.998762 -82.13 0.998762 -82.13 0.048679 -171.2
8.79388000 0.048708 -173.2 0.998761 -82.13 0.998761 -82.13 0.048705 -171.2
8.79389000 0.048735 -173.2 0.998759 -82.13 0.998759 -82.13 0.048731 -171.2
8.79390000 0.048761 -173.2 0.998758 -82.13 0.998758 -82.13 0.048758 -171.2
8.79391000 0.048788 -173.2 0.998757 -82.13 0.998757 -82.13 0.048784 -171.2
8.79392000 0.048814 -173.2 0.998755 -82.14 0.998755 -82.14 0.048811 -171.2