! Sonnet Data File
! From: emgraph Version : 16.52
! From Project: Qubit_Test_beforeopt
! Data is De-embedded 
! Data File Written: 10/18/2017 16:57:22
!< HDATE 10/18/2017 09:03:38
!< MDATE 10/18/2017 09:03:38
!< PARAMS
!< Lj = 11.0
!< Gap = 16.0
!< Pwid = 2000.0
!< Airgap = 12.0
!< Width = 20.0
!< END PARAMS
# GHZ S MA R 51.80000
8.79000000 0.023603 -171.2 0.999706 -80.87 0.999706 -80.87 0.023603 -170.6
!< P1 F=8.79 Eeff=(6.4461688 -2.9978e-5) Z0=(50.9065254 1.15671e-4) R=0.0 C=0.0 
!< P2 F=8.79 Eeff=(6.4461688 -2.9978e-5) Z0=(50.9065254 1.15671e-4) R=0.0 C=0.0 
8.79001000 0.023610 -171.2 0.999706 -80.87 0.999706 -80.87 0.023609 -170.6
8.79002000 0.023616 -171.2 0.999706 -80.88 0.999706 -80.88 0.023615 -170.6
8.79003000 0.023622 -171.2 0.999706 -80.88 0.999706 -80.88 0.023622 -170.6
8.79004000 0.023629 -171.2 0.999706 -80.88 0.999706 -80.88 0.023628 -170.6
8.79005000 0.023635 -171.2 0.999706 -80.88 0.999706 -80.88 0.023634 -170.6
8.79006000 0.023642 -171.2 0.999705 -80.88 0.999705 -80.88 0.023641 -170.6
8.79007000 0.023648 -171.2 0.999705 -80.88 0.999705 -80.88 0.023647 -170.6
8.79008000 0.023654 -171.2 0.999705 -80.88 0.999705 -80.88 0.023654 -170.6
8.79009000 0.023661 -171.2 0.999705 -80.88 0.999705 -80.88 0.023660 -170.6
8.79010000 0.023667 -171.2 0.999705 -80.88 0.999705 -80.88 0.023667 -170.6
8.79011000 0.023674 -171.2 0.999705 -80.88 0.999705 -80.88 0.023673 -170.6
8.79012000 0.023680 -171.2 0.999704 -80.88 0.999704 -80.88 0.023679 -170.6
8.79013000 0.023687 -171.2 0.999704 -80.88 0.999704 -80.88 0.023686 -170.6
8.79014000 0.023693 -171.2 0.999704 -80.88 0.999704 -80.88 0.023692 -170.6
8.79015000 0.023700 -171.2 0.999704 -80.88 0.999704 -80.88 0.023699 -170.6
8.79016000 0.023706 -171.2 0.999704 -80.88 0.999704 -80.88 0.023705 -170.6
8.79017000 0.023713 -171.2 0.999703 -80.88 0.999703 -80.88 0.023712 -170.6
8.79018000 0.023719 -171.2 0.999703 -80.88 0.999703 -80.88 0.023718 -170.6
8.79019000 0.023726 -171.2 0.999703 -80.88 0.999703 -80.88 0.023725 -170.6
8.79020000 0.023732 -171.2 0.999703 -80.88 0.999703 -80.88 0.023732 -170.6
8.79021000 0.023739 -171.2 0.999703 -80.88 0.999703 -80.88 0.023738 -170.6
8.79022000 0.023745 -171.2 0.999703 -80.88 0.999703 -80.88 0.023745 -170.6
8.79023000 0.023752 -171.2 0.999702 -80.88 0.999702 -80.88 0.023751 -170.6
8.79024000 0.023759 -171.2 0.999702 -80.89 0.999702 -80.89 0.023758 -170.6
8.79025000 0.023765 -171.2 0.999702 -80.89 0.999702 -80.89 0.023764 -170.6
8.79026000 0.023772 -171.2 0.999702 -80.89 0.999702 -80.89 0.023771 -170.6
8.79027000 0.023778 -171.2 0.999702 -80.89 0.999702 -80.89 0.023778 -170.6
8.79028000 0.023785 -171.2 0.999702 -80.89 0.999702 -80.89 0.023784 -170.6
8.79029000 0.023792 -171.2 0.999701 -80.89 0.999701 -80.89 0.023791 -170.6
8.79030000 0.023798 -171.2 0.999701 -80.89 0.999701 -80.89 0.023798 -170.6
8.79031000 0.023805 -171.2 0.999701 -80.89 0.999701 -80.89 0.023804 -170.6
8.79032000 0.023812 -171.2 0.999701 -80.89 0.999701 -80.89 0.023811 -170.6
8.79033000 0.023818 -171.2 0.999701 -80.89 0.999701 -80.89 0.023818 -170.6
8.79034000 0.023825 -171.2 0.999700 -80.89 0.999700 -80.89 0.023824 -170.6
8.79035000 0.023832 -171.2 0.999700 -80.89 0.999700 -80.89 0.023831 -170.6
8.79036000 0.023839 -171.2 0.999700 -80.89 0.999700 -80.89 0.023838 -170.6
8.79037000 0.023845 -171.2 0.999700 -80.89 0.999700 -80.89 0.023845 -170.6
8.79038000 0.023852 -171.2 0.999700 -80.89 0.999700 -80.89 0.023851 -170.6
8.79039000 0.023859 -171.2 0.999700 -80.89 0.999700 -80.89 0.023858 -170.6
8.79040000 0.023866 -171.2 0.999699 -80.89 0.999699 -80.89 0.023865 -170.6
8.79041000 0.023872 -171.2 0.999699 -80.89 0.999699 -80.89 0.023872 -170.6
8.79042000 0.023879 -171.2 0.999699 -80.89 0.999699 -80.89 0.023878 -170.6
8.79043000 0.023886 -171.2 0.999699 -80.89 0.999699 -80.89 0.023885 -170.6
8.79044000 0.023893 -171.2 0.999699 -80.89 0.999699 -80.89 0.023892 -170.6
8.79045000 0.023900 -171.2 0.999698 -80.90 0.999698 -80.90 0.023899 -170.6
8.79046000 0.023906 -171.2 0.999698 -80.90 0.999698 -80.90 0.023906 -170.6
8.79047000 0.023913 -171.2 0.999698 -80.90 0.999698 -80.90 0.023913 -170.6
8.79048000 0.023920 -171.2 0.999698 -80.90 0.999698 -80.90 0.023919 -170.6
8.79049000 0.023927 -171.2 0.999698 -80.90 0.999698 -80.90 0.023926 -170.6
8.79050000 0.023934 -171.2 0.999697 -80.90 0.999697 -80.90 0.023933 -170.6
8.79051000 0.023941 -171.2 0.999697 -80.90 0.999697 -80.90 0.023940 -170.6
8.79052000 0.023948 -171.2 0.999697 -80.90 0.999697 -80.90 0.023947 -170.6
8.79053000 0.023955 -171.2 0.999697 -80.90 0.999697 -80.90 0.023954 -170.6
8.79054000 0.023962 -171.2 0.999697 -80.90 0.999697 -80.90 0.023961 -170.6
8.79055000 0.023969 -171.2 0.999697 -80.90 0.999697 -80.90 0.023968 -170.6
8.79056000 0.023976 -171.2 0.999696 -80.90 0.999696 -80.90 0.023975 -170.6
8.79057000 0.023983 -171.2 0.999696 -80.90 0.999696 -80.90 0.023982 -170.6
8.79058000 0.023990 -171.2 0.999696 -80.90 0.999696 -80.90 0.023989 -170.6
8.79059000 0.023997 -171.2 0.999696 -80.90 0.999696 -80.90 0.023996 -170.6
8.79060000 0.024004 -171.2 0.999696 -80.90 0.999696 -80.90 0.024003 -170.6
8.79061000 0.024011 -171.2 0.999695 -80.90 0.999695 -80.90 0.024010 -170.6
8.79062000 0.024018 -171.2 0.999695 -80.90 0.999695 -80.90 0.024017 -170.6
8.79063000 0.024025 -171.2 0.999695 -80.90 0.999695 -80.90 0.024024 -170.6
8.79064000 0.024032 -171.2 0.999695 -80.90 0.999695 -80.90 0.024031 -170.6
8.79065000 0.024039 -171.2 0.999695 -80.91 0.999695 -80.91 0.024038 -170.7
8.79066000 0.024046 -171.2 0.999694 -80.91 0.999694 -80.91 0.024045 -170.7
8.79067000 0.024053 -171.2 0.999694 -80.91 0.999694 -80.91 0.024052 -170.7
8.79068000 0.024060 -171.2 0.999694 -80.91 0.999694 -80.91 0.024059 -170.7
8.79069000 0.024067 -171.2 0.999694 -80.91 0.999694 -80.91 0.024066 -170.7
8.79070000 0.024074 -171.2 0.999694 -80.91 0.999694 -80.91 0.024074 -170.7
8.79071000 0.024081 -171.2 0.999693 -80.91 0.999693 -80.91 0.024081 -170.7
8.79072000 0.024089 -171.2 0.999693 -80.91 0.999693 -80.91 0.024088 -170.7
8.79073000 0.024096 -171.2 0.999693 -80.91 0.999693 -80.91 0.024095 -170.7
8.79074000 0.024103 -171.2 0.999693 -80.91 0.999693 -80.91 0.024102 -170.7
8.79075000 0.024110 -171.2 0.999693 -80.91 0.999693 -80.91 0.024109 -170.7
8.79076000 0.024117 -171.2 0.999693 -80.91 0.999693 -80.91 0.024117 -170.7
8.79077000 0.024125 -171.2 0.999692 -80.91 0.999692 -80.91 0.024124 -170.7
8.79078000 0.024132 -171.2 0.999692 -80.91 0.999692 -80.91 0.024131 -170.7
8.79079000 0.024139 -171.2 0.999692 -80.91 0.999692 -80.91 0.024138 -170.7
8.79080000 0.024146 -171.2 0.999692 -80.91 0.999692 -80.91 0.024146 -170.7
8.79081000 0.024154 -171.2 0.999692 -80.91 0.999692 -80.91 0.024153 -170.7
8.79082000 0.024161 -171.2 0.999691 -80.91 0.999691 -80.91 0.024160 -170.7
8.79083000 0.024168 -171.2 0.999691 -80.91 0.999691 -80.91 0.024167 -170.7
8.79084000 0.024176 -171.2 0.999691 -80.91 0.999691 -80.91 0.024175 -170.7
8.79085000 0.024183 -171.2 0.999691 -80.92 0.999691 -80.92 0.024182 -170.7
8.79086000 0.024190 -171.2 0.999691 -80.92 0.999691 -80.92 0.024189 -170.7
8.79087000 0.024198 -171.2 0.999690 -80.92 0.999690 -80.92 0.024197 -170.7
8.79088000 0.024205 -171.2 0.999690 -80.92 0.999690 -80.92 0.024204 -170.7
8.79089000 0.024212 -171.2 0.999690 -80.92 0.999690 -80.92 0.024211 -170.7
8.79090000 0.024220 -171.2 0.999690 -80.92 0.999690 -80.92 0.024219 -170.7
8.79091000 0.024227 -171.2 0.999689 -80.92 0.999689 -80.92 0.024226 -170.7
8.79092000 0.024234 -171.2 0.999689 -80.92 0.999689 -80.92 0.024234 -170.7
8.79093000 0.024242 -171.2 0.999689 -80.92 0.999689 -80.92 0.024241 -170.7
8.79094000 0.024249 -171.2 0.999689 -80.92 0.999689 -80.92 0.024249 -170.7
8.79095000 0.024257 -171.2 0.999689 -80.92 0.999689 -80.92 0.024256 -170.7
8.79096000 0.024264 -171.2 0.999688 -80.92 0.999688 -80.92 0.024263 -170.7
8.79097000 0.024272 -171.2 0.999688 -80.92 0.999688 -80.92 0.024271 -170.7
8.79098000 0.024279 -171.2 0.999688 -80.92 0.999688 -80.92 0.024278 -170.7
8.79099000 0.024287 -171.2 0.999688 -80.92 0.999688 -80.92 0.024286 -170.7
8.79100000 0.024294 -171.2 0.999688 -80.92 0.999688 -80.92 0.024293 -170.7
8.79101000 0.024302 -171.2 0.999687 -80.92 0.999687 -80.92 0.024301 -170.7
8.79102000 0.024309 -171.2 0.999687 -80.92 0.999687 -80.92 0.024309 -170.7
8.79103000 0.024317 -171.2 0.999687 -80.92 0.999687 -80.92 0.024316 -170.7
8.79104000 0.024325 -171.2 0.999687 -80.93 0.999687 -80.93 0.024324 -170.7
8.79105000 0.024332 -171.2 0.999687 -80.93 0.999687 -80.93 0.024331 -170.7
8.79106000 0.024340 -171.2 0.999686 -80.93 0.999686 -80.93 0.024339 -170.7
8.79107000 0.024347 -171.2 0.999686 -80.93 0.999686 -80.93 0.024347 -170.7
8.79108000 0.024355 -171.2 0.999686 -80.93 0.999686 -80.93 0.024354 -170.7
8.79109000 0.024363 -171.2 0.999686 -80.93 0.999686 -80.93 0.024362 -170.7
8.79110000 0.024370 -171.2 0.999686 -80.93 0.999686 -80.93 0.024369 -170.7
8.79111000 0.024378 -171.2 0.999685 -80.93 0.999685 -80.93 0.024377 -170.7
8.79112000 0.024386 -171.2 0.999685 -80.93 0.999685 -80.93 0.024385 -170.7
8.79113000 0.024393 -171.2 0.999685 -80.93 0.999685 -80.93 0.024393 -170.7
8.79114000 0.024401 -171.2 0.999685 -80.93 0.999685 -80.93 0.024400 -170.7
8.79115000 0.024409 -171.2 0.999684 -80.93 0.999684 -80.93 0.024408 -170.7
8.79116000 0.024417 -171.2 0.999684 -80.93 0.999684 -80.93 0.024416 -170.7
8.79117000 0.024424 -171.2 0.999684 -80.93 0.999684 -80.93 0.024423 -170.7
8.79118000 0.024432 -171.2 0.999684 -80.93 0.999684 -80.93 0.024431 -170.7
8.79119000 0.024440 -171.2 0.999684 -80.93 0.999684 -80.93 0.024439 -170.7
8.79120000 0.024448 -171.2 0.999683 -80.93 0.999683 -80.93 0.024447 -170.7
8.79121000 0.024455 -171.2 0.999683 -80.93 0.999683 -80.93 0.024455 -170.7
8.79122000 0.024463 -171.2 0.999683 -80.93 0.999683 -80.93 0.024462 -170.7
8.79123000 0.024471 -171.2 0.999683 -80.94 0.999683 -80.94 0.024470 -170.7
8.79124000 0.024479 -171.2 0.999683 -80.94 0.999683 -80.94 0.024478 -170.7
8.79125000 0.024487 -171.2 0.999682 -80.94 0.999682 -80.94 0.024486 -170.7
8.79126000 0.024495 -171.2 0.999682 -80.94 0.999682 -80.94 0.024494 -170.7
8.79127000 0.024503 -171.2 0.999682 -80.94 0.999682 -80.94 0.024502 -170.7
8.79128000 0.024511 -171.2 0.999682 -80.94 0.999682 -80.94 0.024510 -170.7
8.79129000 0.024519 -171.2 0.999681 -80.94 0.999681 -80.94 0.024518 -170.7
8.79130000 0.024526 -171.2 0.999681 -80.94 0.999681 -80.94 0.024526 -170.7
8.79131000 0.024534 -171.2 0.999681 -80.94 0.999681 -80.94 0.024534 -170.7
8.79132000 0.024542 -171.2 0.999681 -80.94 0.999681 -80.94 0.024542 -170.7
8.79133000 0.024550 -171.2 0.999681 -80.94 0.999681 -80.94 0.024550 -170.7
8.79134000 0.024558 -171.2 0.999680 -80.94 0.999680 -80.94 0.024558 -170.7
8.79135000 0.024566 -171.2 0.999680 -80.94 0.999680 -80.94 0.024566 -170.7
8.79136000 0.024574 -171.2 0.999680 -80.94 0.999680 -80.94 0.024574 -170.7
8.79137000 0.024583 -171.2 0.999680 -80.94 0.999680 -80.94 0.024582 -170.7
8.79138000 0.024591 -171.2 0.999679 -80.94 0.999679 -80.94 0.024590 -170.7
8.79139000 0.024599 -171.2 0.999679 -80.94 0.999679 -80.94 0.024598 -170.7
8.79140000 0.024607 -171.2 0.999679 -80.94 0.999679 -80.94 0.024606 -170.7
8.79141000 0.024615 -171.2 0.999679 -80.95 0.999679 -80.95 0.024614 -170.7
8.79142000 0.024623 -171.2 0.999678 -80.95 0.999678 -80.95 0.024622 -170.7
8.79143000 0.024631 -171.2 0.999678 -80.95 0.999678 -80.95 0.024630 -170.7
8.79144000 0.024639 -171.2 0.999678 -80.95 0.999678 -80.95 0.024638 -170.7
8.79145000 0.024647 -171.2 0.999678 -80.95 0.999678 -80.95 0.024647 -170.7
8.79146000 0.024656 -171.2 0.999678 -80.95 0.999678 -80.95 0.024655 -170.7
8.79147000 0.024664 -171.2 0.999677 -80.95 0.999677 -80.95 0.024663 -170.7
8.79148000 0.024672 -171.2 0.999677 -80.95 0.999677 -80.95 0.024671 -170.7
8.79149000 0.024680 -171.2 0.999677 -80.95 0.999677 -80.95 0.024679 -170.7
8.79150000 0.024689 -171.2 0.999677 -80.95 0.999677 -80.95 0.024688 -170.7
8.79151000 0.024697 -171.2 0.999676 -80.95 0.999676 -80.95 0.024696 -170.7
8.79152000 0.024705 -171.2 0.999676 -80.95 0.999676 -80.95 0.024704 -170.7
8.79153000 0.024713 -171.2 0.999676 -80.95 0.999676 -80.95 0.024712 -170.7
8.79154000 0.024722 -171.2 0.999676 -80.95 0.999676 -80.95 0.024721 -170.7
8.79155000 0.024730 -171.2 0.999675 -80.95 0.999675 -80.95 0.024729 -170.7
8.79156000 0.024738 -171.2 0.999675 -80.95 0.999675 -80.95 0.024737 -170.8
8.79157000 0.024747 -171.2 0.999675 -80.95 0.999675 -80.95 0.024746 -170.8
8.79158000 0.024755 -171.2 0.999675 -80.95 0.999675 -80.95 0.024754 -170.8
8.79159000 0.024763 -171.2 0.999675 -80.96 0.999675 -80.96 0.024763 -170.8
8.79160000 0.024772 -171.2 0.999674 -80.96 0.999674 -80.96 0.024771 -170.8
8.79161000 0.024780 -171.2 0.999674 -80.96 0.999674 -80.96 0.024779 -170.8
8.79162000 0.024789 -171.2 0.999674 -80.96 0.999674 -80.96 0.024788 -170.8
8.79163000 0.024797 -171.2 0.999674 -80.96 0.999674 -80.96 0.024796 -170.8
8.79164000 0.024806 -171.2 0.999673 -80.96 0.999673 -80.96 0.024805 -170.8
8.79165000 0.024814 -171.2 0.999673 -80.96 0.999673 -80.96 0.024813 -170.8
8.79166000 0.024823 -171.2 0.999673 -80.96 0.999673 -80.96 0.024822 -170.8
8.79167000 0.024831 -171.2 0.999673 -80.96 0.999673 -80.96 0.024830 -170.8
8.79168000 0.024840 -171.2 0.999672 -80.96 0.999672 -80.96 0.024839 -170.8
8.79169000 0.024848 -171.2 0.999672 -80.96 0.999672 -80.96 0.024847 -170.8
8.79170000 0.024857 -171.2 0.999672 -80.96 0.999672 -80.96 0.024856 -170.8
8.79171000 0.024865 -171.2 0.999672 -80.96 0.999672 -80.96 0.024864 -170.8
8.79172000 0.024874 -171.2 0.999671 -80.96 0.999671 -80.96 0.024873 -170.8
8.79173000 0.024883 -171.2 0.999671 -80.96 0.999671 -80.96 0.024882 -170.8
8.79174000 0.024891 -171.2 0.999671 -80.96 0.999671 -80.96 0.024890 -170.8
8.79175000 0.024900 -171.2 0.999671 -80.96 0.999671 -80.96 0.024899 -170.8
8.79176000 0.024909 -171.2 0.999670 -80.97 0.999670 -80.97 0.024908 -170.8
8.79177000 0.024917 -171.2 0.999670 -80.97 0.999670 -80.97 0.024916 -170.8
8.79178000 0.024926 -171.2 0.999670 -80.97 0.999670 -80.97 0.024925 -170.8
8.79179000 0.024935 -171.2 0.999670 -80.97 0.999670 -80.97 0.024934 -170.8
8.79180000 0.024943 -171.2 0.999669 -80.97 0.999669 -80.97 0.024942 -170.8
8.79181000 0.024952 -171.2 0.999669 -80.97 0.999669 -80.97 0.024951 -170.8
8.79182000 0.024961 -171.2 0.999669 -80.97 0.999669 -80.97 0.024960 -170.8
8.79183000 0.024970 -171.2 0.999669 -80.97 0.999669 -80.97 0.024969 -170.8
8.79184000 0.024979 -171.2 0.999668 -80.97 0.999668 -80.97 0.024978 -170.8
8.79185000 0.024987 -171.2 0.999668 -80.97 0.999668 -80.97 0.024986 -170.8
8.79186000 0.024996 -171.2 0.999668 -80.97 0.999668 -80.97 0.024995 -170.8
8.79187000 0.025005 -171.2 0.999668 -80.97 0.999668 -80.97 0.025004 -170.8
8.79188000 0.025014 -171.2 0.999667 -80.97 0.999667 -80.97 0.025013 -170.8
8.79189000 0.025023 -171.2 0.999667 -80.97 0.999667 -80.97 0.025022 -170.8
8.79190000 0.025032 -171.2 0.999667 -80.97 0.999667 -80.97 0.025031 -170.8
8.79191000 0.025041 -171.2 0.999667 -80.97 0.999667 -80.97 0.025040 -170.8
8.79192000 0.025050 -171.2 0.999666 -80.97 0.999666 -80.97 0.025049 -170.8
8.79193000 0.025058 -171.2 0.999666 -80.98 0.999666 -80.98 0.025058 -170.8
8.79194000 0.025067 -171.2 0.999666 -80.98 0.999666 -80.98 0.025067 -170.8
8.79195000 0.025076 -171.2 0.999666 -80.98 0.999666 -80.98 0.025076 -170.8
8.79196000 0.025085 -171.2 0.999665 -80.98 0.999665 -80.98 0.025085 -170.8
8.79197000 0.025095 -171.2 0.999665 -80.98 0.999665 -80.98 0.025094 -170.8
8.79198000 0.025104 -171.2 0.999665 -80.98 0.999665 -80.98 0.025103 -170.8
8.79199000 0.025113 -171.2 0.999665 -80.98 0.999665 -80.98 0.025112 -170.8
8.79200000 0.025122 -171.2 0.999664 -80.98 0.999664 -80.98 0.025121 -170.8
8.79201000 0.025131 -171.2 0.999664 -80.98 0.999664 -80.98 0.025130 -170.8
8.79202000 0.025140 -171.2 0.999664 -80.98 0.999664 -80.98 0.025139 -170.8
8.79203000 0.025149 -171.2 0.999664 -80.98 0.999664 -80.98 0.025148 -170.8
8.79204000 0.025158 -171.2 0.999663 -80.98 0.999663 -80.98 0.025157 -170.8
8.79205000 0.025167 -171.2 0.999663 -80.98 0.999663 -80.98 0.025166 -170.8
8.79206000 0.025177 -171.2 0.999663 -80.98 0.999663 -80.98 0.025176 -170.8
8.79207000 0.025186 -171.2 0.999662 -80.98 0.999662 -80.98 0.025185 -170.8
8.79208000 0.025195 -171.2 0.999662 -80.98 0.999662 -80.98 0.025194 -170.8
8.79209000 0.025204 -171.2 0.999662 -80.99 0.999662 -80.99 0.025203 -170.8
8.79210000 0.025214 -171.2 0.999662 -80.99 0.999662 -80.99 0.025213 -170.8
8.79211000 0.025223 -171.2 0.999661 -80.99 0.999661 -80.99 0.025222 -170.8
8.79212000 0.025232 -171.2 0.999661 -80.99 0.999661 -80.99 0.025231 -170.8
8.79213000 0.025241 -171.2 0.999661 -80.99 0.999661 -80.99 0.025240 -170.8
8.79214000 0.025251 -171.2 0.999661 -80.99 0.999661 -80.99 0.025250 -170.8
8.79215000 0.025260 -171.2 0.999660 -80.99 0.999660 -80.99 0.025259 -170.8
8.79216000 0.025269 -171.2 0.999660 -80.99 0.999660 -80.99 0.025269 -170.8
8.79217000 0.025279 -171.2 0.999660 -80.99 0.999660 -80.99 0.025278 -170.8
8.79218000 0.025288 -171.2 0.999659 -80.99 0.999659 -80.99 0.025287 -170.8
8.79219000 0.025298 -171.2 0.999659 -80.99 0.999659 -80.99 0.025297 -170.8
8.79220000 0.025307 -171.2 0.999659 -80.99 0.999659 -80.99 0.025306 -170.8
8.79221000 0.025317 -171.2 0.999659 -80.99 0.999659 -80.99 0.025316 -170.8
8.79222000 0.025326 -171.2 0.999658 -80.99 0.999658 -80.99 0.025325 -170.8
8.79223000 0.025336 -171.2 0.999658 -80.99 0.999658 -80.99 0.025335 -170.8
8.79224000 0.025345 -171.2 0.999658 -80.99 0.999658 -80.99 0.025344 -170.8
8.79225000 0.025355 -171.2 0.999658 -81.00 0.999658 -81.00 0.025354 -170.8
8.79226000 0.025364 -171.2 0.999657 -81.00 0.999657 -81.00 0.025363 -170.8
8.79227000 0.025374 -171.2 0.999657 -81.00 0.999657 -81.00 0.025373 -170.8
8.79228000 0.025383 -171.2 0.999657 -81.00 0.999657 -81.00 0.025382 -170.8
8.79229000 0.025393 -171.2 0.999656 -81.00 0.999656 -81.00 0.025392 -170.8
8.79230000 0.025403 -171.2 0.999656 -81.00 0.999656 -81.00 0.025402 -170.8
8.79231000 0.025412 -171.2 0.999656 -81.00 0.999656 -81.00 0.025411 -170.8
8.79232000 0.025422 -171.2 0.999656 -81.00 0.999656 -81.00 0.025421 -170.8
8.79233000 0.025432 -171.2 0.999655 -81.00 0.999655 -81.00 0.025431 -170.8
8.79234000 0.025442 -171.2 0.999655 -81.00 0.999655 -81.00 0.025441 -170.8
8.79235000 0.025451 -171.2 0.999655 -81.00 0.999655 -81.00 0.025450 -170.8
8.79236000 0.025461 -171.2 0.999654 -81.00 0.999654 -81.00 0.025460 -170.9
8.79237000 0.025471 -171.2 0.999654 -81.00 0.999654 -81.00 0.025470 -170.9
8.79238000 0.025481 -171.2 0.999654 -81.00 0.999654 -81.00 0.025480 -170.9
8.79239000 0.025490 -171.2 0.999654 -81.00 0.999654 -81.00 0.025489 -170.9
8.79240000 0.025500 -171.2 0.999653 -81.00 0.999653 -81.00 0.025499 -170.9
8.79241000 0.025510 -171.2 0.999653 -81.01 0.999653 -81.01 0.025509 -170.9
8.79242000 0.025520 -171.2 0.999653 -81.01 0.999653 -81.01 0.025519 -170.9
8.79243000 0.025530 -171.2 0.999652 -81.01 0.999652 -81.01 0.025529 -170.9
8.79244000 0.025540 -171.2 0.999652 -81.01 0.999652 -81.01 0.025539 -170.9
8.79245000 0.025550 -171.2 0.999652 -81.01 0.999652 -81.01 0.025549 -170.9
8.79246000 0.025560 -171.2 0.999652 -81.01 0.999652 -81.01 0.025559 -170.9
8.79247000 0.025570 -171.2 0.999651 -81.01 0.999651 -81.01 0.025569 -170.9
8.79248000 0.025580 -171.2 0.999651 -81.01 0.999651 -81.01 0.025579 -170.9
8.79249000 0.025590 -171.2 0.999651 -81.01 0.999651 -81.01 0.025589 -170.9
8.79250000 0.025600 -171.2 0.999650 -81.01 0.999650 -81.01 0.025599 -170.9
8.79251000 0.025610 -171.2 0.999650 -81.01 0.999650 -81.01 0.025609 -170.9
8.79252000 0.025620 -171.2 0.999650 -81.01 0.999650 -81.01 0.025619 -170.9
8.79253000 0.025630 -171.2 0.999649 -81.01 0.999649 -81.01 0.025629 -170.9
8.79254000 0.025640 -171.2 0.999649 -81.01 0.999649 -81.01 0.025639 -170.9
8.79255000 0.025650 -171.2 0.999649 -81.01 0.999649 -81.01 0.025649 -170.9
8.79256000 0.025661 -171.2 0.999649 -81.02 0.999649 -81.02 0.025660 -170.9
8.79257000 0.025671 -171.2 0.999648 -81.02 0.999648 -81.02 0.025670 -170.9
8.79258000 0.025681 -171.2 0.999648 -81.02 0.999648 -81.02 0.025680 -170.9
8.79259000 0.025691 -171.2 0.999648 -81.02 0.999648 -81.02 0.025690 -170.9
8.79260000 0.025701 -171.2 0.999647 -81.02 0.999647 -81.02 0.025700 -170.9
8.79261000 0.025712 -171.2 0.999647 -81.02 0.999647 -81.02 0.025711 -170.9
8.79262000 0.025722 -171.2 0.999647 -81.02 0.999647 -81.02 0.025721 -170.9
8.79263000 0.025732 -171.2 0.999646 -81.02 0.999646 -81.02 0.025731 -170.9
8.79264000 0.025743 -171.2 0.999646 -81.02 0.999646 -81.02 0.025742 -170.9
8.79265000 0.025753 -171.2 0.999646 -81.02 0.999646 -81.02 0.025752 -170.9
8.79266000 0.025763 -171.2 0.999646 -81.02 0.999646 -81.02 0.025762 -170.9
8.79267000 0.025774 -171.2 0.999645 -81.02 0.999645 -81.02 0.025773 -170.9
8.79268000 0.025784 -171.2 0.999645 -81.02 0.999645 -81.02 0.025783 -170.9
8.79269000 0.025795 -171.3 0.999645 -81.02 0.999645 -81.02 0.025794 -170.9
8.79270000 0.025805 -171.3 0.999644 -81.03 0.999644 -81.03 0.025804 -170.9
8.79271000 0.025816 -171.3 0.999644 -81.03 0.999644 -81.03 0.025815 -170.9
8.79272000 0.025826 -171.3 0.999644 -81.03 0.999644 -81.03 0.025825 -170.9
8.79273000 0.025837 -171.3 0.999643 -81.03 0.999643 -81.03 0.025836 -170.9
8.79274000 0.025847 -171.3 0.999643 -81.03 0.999643 -81.03 0.025846 -170.9
8.79275000 0.025858 -171.3 0.999643 -81.03 0.999643 -81.03 0.025857 -170.9
8.79276000 0.025869 -171.3 0.999642 -81.03 0.999642 -81.03 0.025868 -170.9
8.79277000 0.025879 -171.3 0.999642 -81.03 0.999642 -81.03 0.025878 -170.9
8.79278000 0.025890 -171.3 0.999642 -81.03 0.999642 -81.03 0.025889 -170.9
8.79279000 0.025901 -171.3 0.999641 -81.03 0.999641 -81.03 0.025899 -170.9
8.79280000 0.025911 -171.3 0.999641 -81.03 0.999641 -81.03 0.025910 -170.9
8.79281000 0.025922 -171.3 0.999641 -81.03 0.999641 -81.03 0.025921 -170.9
8.79282000 0.025933 -171.3 0.999640 -81.03 0.999640 -81.03 0.025932 -170.9
8.79283000 0.025944 -171.3 0.999640 -81.03 0.999640 -81.03 0.025942 -170.9
8.79284000 0.025954 -171.3 0.999640 -81.03 0.999640 -81.03 0.025953 -170.9
8.79285000 0.025965 -171.3 0.999640 -81.04 0.999640 -81.04 0.025964 -170.9
8.79286000 0.025976 -171.3 0.999639 -81.04 0.999639 -81.04 0.025975 -170.9
8.79287000 0.025987 -171.3 0.999639 -81.04 0.999639 -81.04 0.025986 -170.9
8.79288000 0.025998 -171.3 0.999639 -81.04 0.999639 -81.04 0.025997 -170.9
8.79289000 0.026009 -171.3 0.999638 -81.04 0.999638 -81.04 0.026008 -170.9
8.79290000 0.026020 -171.3 0.999638 -81.04 0.999638 -81.04 0.026019 -170.9
8.79291000 0.026031 -171.3 0.999638 -81.04 0.999638 -81.04 0.026029 -170.9
8.79292000 0.026042 -171.3 0.999637 -81.04 0.999637 -81.04 0.026040 -170.9
8.79293000 0.026053 -171.3 0.999637 -81.04 0.999637 -81.04 0.026051 -170.9
8.79294000 0.026064 -171.3 0.999637 -81.04 0.999637 -81.04 0.026062 -170.9
8.79295000 0.026075 -171.3 0.999636 -81.04 0.999636 -81.04 0.026074 -170.9
8.79296000 0.026086 -171.3 0.999636 -81.04 0.999636 -81.04 0.026085 -170.9
8.79297000 0.026097 -171.3 0.999636 -81.04 0.999636 -81.04 0.026096 -170.9
8.79298000 0.026108 -171.3 0.999635 -81.05 0.999635 -81.05 0.026107 -170.9
8.79299000 0.026119 -171.3 0.999635 -81.05 0.999635 -81.05 0.026118 -170.9
8.79300000 0.026130 -171.3 0.999635 -81.05 0.999635 -81.05 0.026129 -170.9
8.79301000 0.026141 -171.3 0.999634 -81.05 0.999634 -81.05 0.026140 -170.9
8.79302000 0.026153 -171.3 0.999634 -81.05 0.999634 -81.05 0.026152 -170.9
8.79303000 0.026164 -171.3 0.999634 -81.05 0.999634 -81.05 0.026163 -170.9
8.79304000 0.026175 -171.3 0.999633 -81.05 0.999633 -81.05 0.026174 -170.9
8.79305000 0.026187 -171.3 0.999633 -81.05 0.999633 -81.05 0.026185 -170.9
8.79306000 0.026198 -171.3 0.999633 -81.05 0.999633 -81.05 0.026197 -170.9
8.79307000 0.026209 -171.3 0.999632 -81.05 0.999632 -81.05 0.026208 -170.9
8.79308000 0.026221 -171.3 0.999632 -81.05 0.999632 -81.05 0.026219 -171.0
8.79309000 0.026232 -171.3 0.999631 -81.05 0.999631 -81.05 0.026231 -171.0
8.79310000 0.026243 -171.3 0.999631 -81.05 0.999631 -81.05 0.026242 -171.0
8.79311000 0.026255 -171.3 0.999631 -81.05 0.999631 -81.05 0.026254 -171.0
8.79312000 0.026266 -171.3 0.999630 -81.06 0.999630 -81.06 0.026265 -171.0
8.79313000 0.026278 -171.3 0.999630 -81.06 0.999630 -81.06 0.026277 -171.0
8.79314000 0.026289 -171.3 0.999630 -81.06 0.999630 -81.06 0.026288 -171.0
8.79315000 0.026301 -171.3 0.999629 -81.06 0.999629 -81.06 0.026300 -171.0
8.79316000 0.026313 -171.3 0.999629 -81.06 0.999629 -81.06 0.026311 -171.0
8.79317000 0.026324 -171.3 0.999629 -81.06 0.999629 -81.06 0.026323 -171.0
8.79318000 0.026336 -171.3 0.999628 -81.06 0.999628 -81.06 0.026335 -171.0
8.79319000 0.026347 -171.3 0.999628 -81.06 0.999628 -81.06 0.026346 -171.0
8.79320000 0.026359 -171.3 0.999628 -81.06 0.999628 -81.06 0.026358 -171.0
8.79321000 0.026371 -171.3 0.999627 -81.06 0.999627 -81.06 0.026370 -171.0
8.79322000 0.026383 -171.3 0.999627 -81.06 0.999627 -81.06 0.026381 -171.0
8.79323000 0.026394 -171.3 0.999627 -81.06 0.999627 -81.06 0.026393 -171.0
8.79324000 0.026406 -171.3 0.999626 -81.06 0.999626 -81.06 0.026405 -171.0
8.79325000 0.026418 -171.3 0.999626 -81.07 0.999626 -81.07 0.026417 -171.0
8.79326000 0.026430 -171.3 0.999625 -81.07 0.999625 -81.07 0.026429 -171.0
8.79327000 0.026442 -171.3 0.999625 -81.07 0.999625 -81.07 0.026440 -171.0
8.79328000 0.026454 -171.3 0.999625 -81.07 0.999625 -81.07 0.026452 -171.0
8.79329000 0.026465 -171.3 0.999624 -81.07 0.999624 -81.07 0.026464 -171.0
8.79330000 0.026477 -171.3 0.999624 -81.07 0.999624 -81.07 0.026476 -171.0
8.79331000 0.026489 -171.3 0.999624 -81.07 0.999624 -81.07 0.026488 -171.0
8.79332000 0.026501 -171.3 0.999623 -81.07 0.999623 -81.07 0.026500 -171.0
8.79333000 0.026513 -171.3 0.999623 -81.07 0.999623 -81.07 0.026512 -171.0
8.79334000 0.026525 -171.3 0.999623 -81.07 0.999623 -81.07 0.026524 -171.0
8.79335000 0.026538 -171.3 0.999622 -81.07 0.999622 -81.07 0.026536 -171.0
8.79336000 0.026550 -171.3 0.999622 -81.07 0.999622 -81.07 0.026548 -171.0
8.79337000 0.026562 -171.3 0.999621 -81.07 0.999621 -81.07 0.026561 -171.0
8.79338000 0.026574 -171.3 0.999621 -81.08 0.999621 -81.08 0.026573 -171.0
8.79339000 0.026586 -171.3 0.999621 -81.08 0.999621 -81.08 0.026585 -171.0
8.79340000 0.026598 -171.3 0.999620 -81.08 0.999620 -81.08 0.026597 -171.0
8.79341000 0.026611 -171.3 0.999620 -81.08 0.999620 -81.08 0.026609 -171.0
8.79342000 0.026623 -171.3 0.999620 -81.08 0.999620 -81.08 0.026622 -171.0
8.79343000 0.026635 -171.3 0.999619 -81.08 0.999619 -81.08 0.026634 -171.0
8.79344000 0.026648 -171.3 0.999619 -81.08 0.999619 -81.08 0.026646 -171.0
8.79345000 0.026660 -171.3 0.999618 -81.08 0.999618 -81.08 0.026659 -171.0
8.79346000 0.026672 -171.3 0.999618 -81.08 0.999618 -81.08 0.026671 -171.0
8.79347000 0.026685 -171.3 0.999618 -81.08 0.999618 -81.08 0.026684 -171.0
8.79348000 0.026697 -171.3 0.999617 -81.08 0.999617 -81.08 0.026696 -171.0
8.79349000 0.026710 -171.3 0.999617 -81.08 0.999617 -81.08 0.026709 -171.0
8.79350000 0.026722 -171.3 0.999616 -81.09 0.999616 -81.09 0.026721 -171.0
8.79351000 0.026735 -171.3 0.999616 -81.09 0.999616 -81.09 0.026734 -171.0
8.79352000 0.026747 -171.3 0.999616 -81.09 0.999616 -81.09 0.026746 -171.0
8.79353000 0.026760 -171.3 0.999615 -81.09 0.999615 -81.09 0.026759 -171.0
8.79354000 0.026773 -171.3 0.999615 -81.09 0.999615 -81.09 0.026771 -171.0
8.79355000 0.026785 -171.3 0.999614 -81.09 0.999614 -81.09 0.026784 -171.0
8.79356000 0.026798 -171.3 0.999614 -81.09 0.999614 -81.09 0.026797 -171.0
8.79357000 0.026811 -171.3 0.999614 -81.09 0.999614 -81.09 0.026809 -171.0
8.79358000 0.026823 -171.3 0.999613 -81.09 0.999613 -81.09 0.026822 -171.0
8.79359000 0.026836 -171.3 0.999613 -81.09 0.999613 -81.09 0.026835 -171.0
8.79360000 0.026849 -171.3 0.999612 -81.09 0.999612 -81.09 0.026848 -171.0
8.79361000 0.026862 -171.3 0.999612 -81.09 0.999612 -81.09 0.026861 -171.0
8.79362000 0.026875 -171.3 0.999612 -81.09 0.999612 -81.09 0.026873 -171.0
8.79363000 0.026888 -171.3 0.999611 -81.10 0.999611 -81.10 0.026886 -171.0
8.79364000 0.026900 -171.3 0.999611 -81.10 0.999611 -81.10 0.026899 -171.0
8.79365000 0.026913 -171.3 0.999610 -81.10 0.999610 -81.10 0.026912 -171.0
8.79366000 0.026926 -171.3 0.999610 -81.10 0.999610 -81.10 0.026925 -171.0
8.79367000 0.026939 -171.3 0.999610 -81.10 0.999610 -81.10 0.026938 -171.0
8.79368000 0.026952 -171.3 0.999609 -81.10 0.999609 -81.10 0.026951 -171.0
8.79369000 0.026966 -171.3 0.999609 -81.10 0.999609 -81.10 0.026964 -171.0
8.79370000 0.026979 -171.3 0.999608 -81.10 0.999608 -81.10 0.026977 -171.0
8.79371000 0.026992 -171.3 0.999608 -81.10 0.999608 -81.10 0.026991 -171.1
8.79372000 0.027005 -171.3 0.999608 -81.10 0.999608 -81.10 0.027004 -171.1
8.79373000 0.027018 -171.3 0.999607 -81.10 0.999607 -81.10 0.027017 -171.1
8.79374000 0.027031 -171.3 0.999607 -81.10 0.999607 -81.10 0.027030 -171.1
8.79375000 0.027045 -171.3 0.999606 -81.11 0.999606 -81.11 0.027043 -171.1
8.79376000 0.027058 -171.3 0.999606 -81.11 0.999606 -81.11 0.027057 -171.1
8.79377000 0.027071 -171.3 0.999606 -81.11 0.999606 -81.11 0.027070 -171.1
8.79378000 0.027085 -171.3 0.999605 -81.11 0.999605 -81.11 0.027083 -171.1
8.79379000 0.027098 -171.3 0.999605 -81.11 0.999605 -81.11 0.027097 -171.1
8.79380000 0.027112 -171.3 0.999604 -81.11 0.999604 -81.11 0.027110 -171.1
8.79381000 0.027125 -171.3 0.999604 -81.11 0.999604 -81.11 0.027124 -171.1
8.79382000 0.027138 -171.3 0.999603 -81.11 0.999603 -81.11 0.027137 -171.1
8.79383000 0.027152 -171.3 0.999603 -81.11 0.999603 -81.11 0.027151 -171.1
8.79384000 0.027166 -171.3 0.999603 -81.11 0.999603 -81.11 0.027164 -171.1
8.79385000 0.027179 -171.3 0.999602 -81.11 0.999602 -81.11 0.027178 -171.1
8.79386000 0.027193 -171.3 0.999602 -81.12 0.999602 -81.12 0.027191 -171.1
8.79387000 0.027206 -171.3 0.999601 -81.12 0.999601 -81.12 0.027205 -171.1
8.79388000 0.027220 -171.3 0.999601 -81.12 0.999601 -81.12 0.027219 -171.1
8.79389000 0.027234 -171.3 0.999600 -81.12 0.999600 -81.12 0.027233 -171.1
8.79390000 0.027248 -171.3 0.999600 -81.12 0.999600 -81.12 0.027246 -171.1
8.79391000 0.027261 -171.3 0.999599 -81.12 0.999599 -81.12 0.027260 -171.1
8.79392000 0.027275 -171.3 0.999599 -81.12 0.999599 -81.12 0.027274 -171.1