! Sonnet Data File
! From: emgraph Version : 16.52
! From Project: Qubit_Xmon2
! Data is De-embedded 
! Data File Written: 10/18/2017 13:35:04
!< HDATE 10/18/2017 12:09:35
!< MDATE 10/18/2017 12:09:35
!< PARAMS
!< Lj = 11.0
!< Gap = 16.0
!< Pwid = 2000.0
!< Airgap = 18.0
!< Width = 30.0
!< END PARAMS
# GHZ S MA R 41.17000
8.79000000 0.086264 -164.6 0.996135 -75.82 0.996135 -75.82 0.086264 -167.2
!< P1 F=8.79 Eeff=(4.89767601 -6.0965e-5) Z0=(41.1732234 -1.5591e-4) R=0.0 C=0.0 
!< P2 F=8.79 Eeff=(4.89767601 -6.0965e-5) Z0=(41.1732234 -1.5591e-4) R=0.0 C=0.0 
8.79001000 0.086334 -164.6 0.996129 -75.82 0.996129 -75.82 0.086334 -167.2
8.79002000 0.086403 -164.6 0.996123 -75.82 0.996123 -75.82 0.086403 -167.2
8.79003000 0.086473 -164.6 0.996117 -75.83 0.996117 -75.83 0.086473 -167.2
8.79004000 0.086542 -164.6 0.996111 -75.83 0.996111 -75.83 0.086542 -167.2
8.79005000 0.086612 -164.6 0.996104 -75.84 0.996104 -75.84 0.086612 -167.2
8.79006000 0.086682 -164.6 0.996098 -75.84 0.996098 -75.84 0.086682 -167.2
8.79007000 0.086752 -164.6 0.996092 -75.84 0.996092 -75.84 0.086752 -167.3
8.79008000 0.086822 -164.6 0.996085 -75.85 0.996085 -75.85 0.086822 -167.3
8.79009000 0.086892 -164.6 0.996079 -75.85 0.996079 -75.85 0.086892 -167.3
8.79010000 0.086962 -164.6 0.996073 -75.86 0.996073 -75.86 0.086962 -167.3
8.79011000 0.087033 -164.6 0.996067 -75.86 0.996067 -75.86 0.087033 -167.3
8.79012000 0.087103 -164.6 0.996060 -75.86 0.996060 -75.86 0.087103 -167.3
8.79013000 0.087174 -164.6 0.996054 -75.87 0.996054 -75.87 0.087174 -167.3
8.79014000 0.087244 -164.6 0.996047 -75.87 0.996047 -75.87 0.087244 -167.3
8.79015000 0.087315 -164.6 0.996041 -75.88 0.996041 -75.88 0.087315 -167.3
8.79016000 0.087386 -164.6 0.996035 -75.88 0.996035 -75.88 0.087386 -167.3
8.79017000 0.087457 -164.6 0.996028 -75.89 0.996028 -75.89 0.087457 -167.3
8.79018000 0.087528 -164.7 0.996022 -75.89 0.996022 -75.89 0.087528 -167.3
8.79019000 0.087599 -164.7 0.996015 -75.89 0.996015 -75.89 0.087599 -167.3
8.79020000 0.087671 -164.7 0.996009 -75.90 0.996009 -75.90 0.087671 -167.3
8.79021000 0.087742 -164.7 0.996002 -75.90 0.996002 -75.90 0.087742 -167.3
8.79022000 0.087814 -164.7 0.995996 -75.91 0.995996 -75.91 0.087813 -167.3
8.79023000 0.087885 -164.7 0.995989 -75.91 0.995989 -75.91 0.087885 -167.3
8.79024000 0.087957 -164.7 0.995983 -75.91 0.995983 -75.91 0.087957 -167.3
8.79025000 0.088029 -164.7 0.995976 -75.92 0.995976 -75.92 0.088029 -167.3
8.79026000 0.088101 -164.7 0.995970 -75.92 0.995970 -75.92 0.088101 -167.3
8.79027000 0.088173 -164.7 0.995963 -75.93 0.995963 -75.93 0.088173 -167.3
8.79028000 0.088245 -164.7 0.995956 -75.93 0.995956 -75.93 0.088245 -167.3
8.79029000 0.088317 -164.7 0.995950 -75.94 0.995950 -75.94 0.088317 -167.3
8.79030000 0.088390 -164.7 0.995943 -75.94 0.995943 -75.94 0.088389 -167.3
8.79031000 0.088462 -164.7 0.995937 -75.94 0.995937 -75.94 0.088462 -167.4
8.79032000 0.088535 -164.7 0.995930 -75.95 0.995930 -75.95 0.088535 -167.4
8.79033000 0.088607 -164.7 0.995923 -75.95 0.995923 -75.95 0.088607 -167.4
8.79034000 0.088680 -164.7 0.995917 -75.96 0.995917 -75.96 0.088680 -167.4
8.79035000 0.088753 -164.7 0.995910 -75.96 0.995910 -75.96 0.088753 -167.4
8.79036000 0.088826 -164.7 0.995903 -75.97 0.995903 -75.97 0.088826 -167.4
8.79037000 0.088899 -164.7 0.995896 -75.97 0.995896 -75.97 0.088899 -167.4
8.79038000 0.088973 -164.7 0.995890 -75.97 0.995890 -75.97 0.088972 -167.4
8.79039000 0.089046 -164.7 0.995883 -75.98 0.995883 -75.98 0.089046 -167.4
8.79040000 0.089119 -164.7 0.995876 -75.98 0.995876 -75.98 0.089119 -167.4
8.79041000 0.089193 -164.8 0.995869 -75.99 0.995869 -75.99 0.089193 -167.4
8.79042000 0.089267 -164.8 0.995863 -75.99 0.995863 -75.99 0.089267 -167.4
8.79043000 0.089340 -164.8 0.995856 -76.00 0.995856 -76.00 0.089340 -167.4
8.79044000 0.089414 -164.8 0.995849 -76.00 0.995849 -76.00 0.089414 -167.4
8.79045000 0.089488 -164.8 0.995842 -76.00 0.995842 -76.00 0.089488 -167.4
8.79046000 0.089563 -164.8 0.995835 -76.01 0.995835 -76.01 0.089562 -167.4
8.79047000 0.089637 -164.8 0.995828 -76.01 0.995828 -76.01 0.089637 -167.4
8.79048000 0.089711 -164.8 0.995821 -76.02 0.995821 -76.02 0.089711 -167.4
8.79049000 0.089786 -164.8 0.995814 -76.02 0.995814 -76.02 0.089786 -167.4
8.79050000 0.089860 -164.8 0.995807 -76.03 0.995807 -76.03 0.089860 -167.4
8.79051000 0.089935 -164.8 0.995801 -76.03 0.995801 -76.03 0.089935 -167.4
8.79052000 0.090010 -164.8 0.995794 -76.04 0.995794 -76.04 0.090010 -167.4
8.79053000 0.090085 -164.8 0.995787 -76.04 0.995787 -76.04 0.090085 -167.4
8.79054000 0.090160 -164.8 0.995780 -76.04 0.995780 -76.04 0.090160 -167.5
8.79055000 0.090235 -164.8 0.995773 -76.05 0.995773 -76.05 0.090235 -167.5
8.79056000 0.090310 -164.8 0.995765 -76.05 0.995765 -76.05 0.090310 -167.5
8.79057000 0.090386 -164.8 0.995758 -76.06 0.995758 -76.06 0.090386 -167.5
8.79058000 0.090461 -164.8 0.995751 -76.06 0.995751 -76.06 0.090461 -167.5
8.79059000 0.090537 -164.8 0.995744 -76.07 0.995744 -76.07 0.090537 -167.5
8.79060000 0.090613 -164.8 0.995737 -76.07 0.995737 -76.07 0.090612 -167.5
8.79061000 0.090688 -164.8 0.995730 -76.08 0.995730 -76.08 0.090688 -167.5
8.79062000 0.090764 -164.8 0.995723 -76.08 0.995723 -76.08 0.090764 -167.5
8.79063000 0.090841 -164.8 0.995716 -76.08 0.995716 -76.08 0.090840 -167.5
8.79064000 0.090917 -164.9 0.995709 -76.09 0.995709 -76.09 0.090917 -167.5
8.79065000 0.090993 -164.9 0.995701 -76.09 0.995701 -76.09 0.090993 -167.5
8.79066000 0.091070 -164.9 0.995694 -76.10 0.995694 -76.10 0.091069 -167.5
8.79067000 0.091146 -164.9 0.995687 -76.10 0.995687 -76.10 0.091146 -167.5
8.79068000 0.091223 -164.9 0.995680 -76.11 0.995680 -76.11 0.091223 -167.5
8.79069000 0.091300 -164.9 0.995672 -76.11 0.995672 -76.11 0.091299 -167.5
8.79070000 0.091376 -164.9 0.995665 -76.12 0.995665 -76.12 0.091376 -167.5
8.79071000 0.091454 -164.9 0.995658 -76.12 0.995658 -76.12 0.091453 -167.5
8.79072000 0.091531 -164.9 0.995651 -76.12 0.995651 -76.12 0.091531 -167.5
8.79073000 0.091608 -164.9 0.995643 -76.13 0.995643 -76.13 0.091608 -167.5
8.79074000 0.091685 -164.9 0.995636 -76.13 0.995636 -76.13 0.091685 -167.5
8.79075000 0.091763 -164.9 0.995628 -76.14 0.995628 -76.14 0.091763 -167.5
8.79076000 0.091841 -164.9 0.995621 -76.14 0.995621 -76.14 0.091840 -167.6
8.79077000 0.091918 -164.9 0.995614 -76.15 0.995614 -76.15 0.091918 -167.6
8.79078000 0.091996 -164.9 0.995606 -76.15 0.995606 -76.15 0.091996 -167.6
8.79079000 0.092074 -164.9 0.995599 -76.16 0.995599 -76.16 0.092074 -167.6
8.79080000 0.092152 -164.9 0.995591 -76.16 0.995591 -76.16 0.092152 -167.6
8.79081000 0.092231 -164.9 0.995584 -76.17 0.995584 -76.17 0.092230 -167.6
8.79082000 0.092309 -164.9 0.995576 -76.17 0.995576 -76.17 0.092309 -167.6
8.79083000 0.092387 -164.9 0.995569 -76.17 0.995569 -76.17 0.092387 -167.6
8.79084000 0.092466 -164.9 0.995561 -76.18 0.995561 -76.18 0.092466 -167.6
8.79085000 0.092545 -165.0 0.995554 -76.18 0.995554 -76.18 0.092545 -167.6
8.79086000 0.092624 -165.0 0.995546 -76.19 0.995546 -76.19 0.092623 -167.6
8.79087000 0.092703 -165.0 0.995539 -76.19 0.995539 -76.19 0.092702 -167.6
8.79088000 0.092782 -165.0 0.995531 -76.20 0.995531 -76.20 0.092782 -167.6
8.79089000 0.092861 -165.0 0.995523 -76.20 0.995523 -76.20 0.092861 -167.6
8.79090000 0.092940 -165.0 0.995516 -76.21 0.995516 -76.21 0.092940 -167.6
8.79091000 0.093020 -165.0 0.995508 -76.21 0.995508 -76.21 0.093020 -167.6
8.79092000 0.093099 -165.0 0.995500 -76.22 0.995500 -76.22 0.093099 -167.6
8.79093000 0.093179 -165.0 0.995493 -76.22 0.995493 -76.22 0.093179 -167.6
8.79094000 0.093259 -165.0 0.995485 -76.23 0.995485 -76.23 0.093259 -167.6
8.79095000 0.093339 -165.0 0.995477 -76.23 0.995477 -76.23 0.093339 -167.6
8.79096000 0.093419 -165.0 0.995470 -76.24 0.995470 -76.24 0.093419 -167.6
8.79097000 0.093499 -165.0 0.995462 -76.24 0.995462 -76.24 0.093499 -167.7
8.79098000 0.093580 -165.0 0.995454 -76.24 0.995454 -76.24 0.093579 -167.7
8.79099000 0.093660 -165.0 0.995446 -76.25 0.995446 -76.25 0.093660 -167.7
8.79100000 0.093741 -165.0 0.995438 -76.25 0.995438 -76.25 0.093741 -167.7
8.79101000 0.093821 -165.0 0.995431 -76.26 0.995431 -76.26 0.093821 -167.7
8.79102000 0.093902 -165.0 0.995423 -76.26 0.995423 -76.26 0.093902 -167.7
8.79103000 0.093983 -165.0 0.995415 -76.27 0.995415 -76.27 0.093983 -167.7
8.79104000 0.094064 -165.0 0.995407 -76.27 0.995407 -76.27 0.094064 -167.7
8.79105000 0.094146 -165.0 0.995399 -76.28 0.995399 -76.28 0.094146 -167.7
8.79106000 0.094227 -165.1 0.995391 -76.28 0.995391 -76.28 0.094227 -167.7
8.79107000 0.094309 -165.1 0.995383 -76.29 0.995383 -76.29 0.094308 -167.7
8.79108000 0.094390 -165.1 0.995375 -76.29 0.995375 -76.29 0.094390 -167.7
8.79109000 0.094472 -165.1 0.995367 -76.30 0.995367 -76.30 0.094472 -167.7
8.79110000 0.094554 -165.1 0.995359 -76.30 0.995359 -76.30 0.094554 -167.7
8.79111000 0.094636 -165.1 0.995351 -76.31 0.995351 -76.31 0.094636 -167.7
8.79112000 0.094718 -165.1 0.995343 -76.31 0.995343 -76.31 0.094718 -167.7
8.79113000 0.094800 -165.1 0.995335 -76.32 0.995335 -76.32 0.094800 -167.7
8.79114000 0.094883 -165.1 0.995327 -76.32 0.995327 -76.32 0.094883 -167.7
8.79115000 0.094965 -165.1 0.995319 -76.33 0.995319 -76.33 0.094965 -167.7
8.79116000 0.095048 -165.1 0.995311 -76.33 0.995311 -76.33 0.095048 -167.7
8.79117000 0.095131 -165.1 0.995302 -76.34 0.995302 -76.34 0.095131 -167.7
8.79118000 0.095214 -165.1 0.995294 -76.34 0.995294 -76.34 0.095214 -167.8
8.79119000 0.095297 -165.1 0.995286 -76.34 0.995286 -76.34 0.095297 -167.8
8.79120000 0.095380 -165.1 0.995278 -76.35 0.995278 -76.35 0.095380 -167.8
8.79121000 0.095464 -165.1 0.995270 -76.35 0.995270 -76.35 0.095463 -167.8
8.79122000 0.095547 -165.1 0.995261 -76.36 0.995261 -76.36 0.095547 -167.8
8.79123000 0.095631 -165.1 0.995253 -76.36 0.995253 -76.36 0.095630 -167.8
8.79124000 0.095714 -165.1 0.995245 -76.37 0.995245 -76.37 0.095714 -167.8
8.79125000 0.095798 -165.1 0.995236 -76.37 0.995236 -76.37 0.095798 -167.8
8.79126000 0.095882 -165.2 0.995228 -76.38 0.995228 -76.38 0.095882 -167.8
8.79127000 0.095966 -165.2 0.995220 -76.38 0.995220 -76.38 0.095966 -167.8
8.79128000 0.096051 -165.2 0.995211 -76.39 0.995211 -76.39 0.096051 -167.8
8.79129000 0.096135 -165.2 0.995203 -76.39 0.995203 -76.39 0.096135 -167.8
8.79130000 0.096220 -165.2 0.995194 -76.40 0.995194 -76.40 0.096220 -167.8
8.79131000 0.096305 -165.2 0.995186 -76.40 0.995186 -76.40 0.096304 -167.8
8.79132000 0.096389 -165.2 0.995177 -76.41 0.995177 -76.41 0.096389 -167.8
8.79133000 0.096474 -165.2 0.995169 -76.41 0.995169 -76.41 0.096474 -167.8
8.79134000 0.096559 -165.2 0.995160 -76.42 0.995160 -76.42 0.096559 -167.8
8.79135000 0.096645 -165.2 0.995152 -76.42 0.995152 -76.42 0.096645 -167.8
8.79136000 0.096730 -165.2 0.995143 -76.43 0.995143 -76.43 0.096730 -167.8
8.79137000 0.096816 -165.2 0.995135 -76.43 0.995135 -76.43 0.096816 -167.8
8.79138000 0.096901 -165.2 0.995126 -76.44 0.995126 -76.44 0.096901 -167.9
8.79139000 0.096987 -165.2 0.995118 -76.44 0.995118 -76.44 0.096987 -167.9
8.79140000 0.097073 -165.2 0.995109 -76.45 0.995109 -76.45 0.097073 -167.9
8.79141000 0.097159 -165.2 0.995100 -76.45 0.995100 -76.45 0.097159 -167.9
8.79142000 0.097245 -165.2 0.995092 -76.46 0.995092 -76.46 0.097245 -167.9
8.79143000 0.097332 -165.2 0.995083 -76.46 0.995083 -76.46 0.097332 -167.9
8.79144000 0.097418 -165.2 0.995074 -76.47 0.995074 -76.47 0.097418 -167.9
8.79145000 0.097505 -165.2 0.995065 -76.47 0.995065 -76.47 0.097505 -167.9
8.79146000 0.097592 -165.3 0.995057 -76.48 0.995057 -76.48 0.097592 -167.9
8.79147000 0.097679 -165.3 0.995048 -76.48 0.995048 -76.48 0.097679 -167.9
8.79148000 0.097766 -165.3 0.995039 -76.49 0.995039 -76.49 0.097766 -167.9
8.79149000 0.097853 -165.3 0.995030 -76.49 0.995030 -76.49 0.097853 -167.9
8.79150000 0.097941 -165.3 0.995021 -76.50 0.995021 -76.50 0.097940 -167.9
8.79151000 0.098028 -165.3 0.995012 -76.50 0.995012 -76.50 0.098028 -167.9
8.79152000 0.098116 -165.3 0.995003 -76.51 0.995003 -76.51 0.098116 -167.9
8.79153000 0.098204 -165.3 0.994995 -76.52 0.994995 -76.52 0.098203 -167.9
8.79154000 0.098292 -165.3 0.994986 -76.52 0.994986 -76.52 0.098291 -167.9
8.79155000 0.098380 -165.3 0.994977 -76.53 0.994977 -76.53 0.098379 -167.9
8.79156000 0.098468 -165.3 0.994968 -76.53 0.994968 -76.53 0.098468 -167.9
8.79157000 0.098556 -165.3 0.994959 -76.54 0.994959 -76.54 0.098556 -167.9
8.79158000 0.098645 -165.3 0.994950 -76.54 0.994950 -76.54 0.098645 -168.0
8.79159000 0.098733 -165.3 0.994940 -76.55 0.994940 -76.55 0.098733 -168.0
8.79160000 0.098822 -165.3 0.994931 -76.55 0.994931 -76.55 0.098822 -168.0
8.79161000 0.098911 -165.3 0.994922 -76.56 0.994922 -76.56 0.098911 -168.0
8.79162000 0.099000 -165.3 0.994913 -76.56 0.994913 -76.56 0.099000 -168.0
8.79163000 0.099090 -165.3 0.994904 -76.57 0.994904 -76.57 0.099090 -168.0
8.79164000 0.099179 -165.3 0.994895 -76.57 0.994895 -76.57 0.099179 -168.0
8.79165000 0.099269 -165.4 0.994886 -76.58 0.994886 -76.58 0.099269 -168.0
8.79166000 0.099358 -165.4 0.994876 -76.58 0.994876 -76.58 0.099358 -168.0
8.79167000 0.099448 -165.4 0.994867 -76.59 0.994867 -76.59 0.099448 -168.0
8.79168000 0.099538 -165.4 0.994858 -76.59 0.994858 -76.59 0.099538 -168.0
8.79169000 0.099629 -165.4 0.994848 -76.60 0.994848 -76.60 0.099628 -168.0
8.79170000 0.099719 -165.4 0.994839 -76.60 0.994839 -76.60 0.099719 -168.0
8.79171000 0.099809 -165.4 0.994830 -76.61 0.994830 -76.61 0.099809 -168.0
8.79172000 0.099900 -165.4 0.994820 -76.61 0.994820 -76.61 0.099900 -168.0
8.79173000 0.099991 -165.4 0.994811 -76.62 0.994811 -76.62 0.099991 -168.0
8.79174000 0.100082 -165.4 0.994802 -76.62 0.994802 -76.62 0.100082 -168.0
8.79175000 0.100173 -165.4 0.994792 -76.63 0.994792 -76.63 0.100173 -168.0
8.79176000 0.100264 -165.4 0.994783 -76.64 0.994783 -76.64 0.100264 -168.1
8.79177000 0.100355 -165.4 0.994773 -76.64 0.994773 -76.64 0.100355 -168.1
8.79178000 0.100447 -165.4 0.994764 -76.65 0.994764 -76.65 0.100447 -168.1
8.79179000 0.100539 -165.4 0.994754 -76.65 0.994754 -76.65 0.100539 -168.1
8.79180000 0.100631 -165.4 0.994744 -76.66 0.994744 -76.66 0.100630 -168.1
8.79181000 0.100723 -165.4 0.994735 -76.66 0.994735 -76.66 0.100722 -168.1
8.79182000 0.100815 -165.4 0.994725 -76.67 0.994725 -76.67 0.100815 -168.1
8.79183000 0.100907 -165.4 0.994716 -76.67 0.994716 -76.67 0.100907 -168.1
8.79184000 0.100999 -165.5 0.994706 -76.68 0.994706 -76.68 0.100999 -168.1
8.79185000 0.101092 -165.5 0.994696 -76.68 0.994696 -76.68 0.101092 -168.1
8.79186000 0.101185 -165.5 0.994686 -76.69 0.994686 -76.69 0.101185 -168.1
8.79187000 0.101278 -165.5 0.994677 -76.69 0.994677 -76.69 0.101278 -168.1
8.79188000 0.101371 -165.5 0.994667 -76.70 0.994667 -76.70 0.101371 -168.1
8.79189000 0.101464 -165.5 0.994657 -76.71 0.994657 -76.71 0.101464 -168.1
8.79190000 0.101558 -165.5 0.994647 -76.71 0.994647 -76.71 0.101558 -168.1
8.79191000 0.101651 -165.5 0.994637 -76.72 0.994637 -76.72 0.101651 -168.1
8.79192000 0.101745 -165.5 0.994627 -76.72 0.994627 -76.72 0.101745 -168.1
8.79193000 0.101839 -165.5 0.994618 -76.73 0.994618 -76.73 0.101839 -168.1
8.79194000 0.101933 -165.5 0.994608 -76.73 0.994608 -76.73 0.101933 -168.1
8.79195000 0.102027 -165.5 0.994598 -76.74 0.994598 -76.74 0.102027 -168.2
8.79196000 0.102122 -165.5 0.994588 -76.74 0.994588 -76.74 0.102121 -168.2
8.79197000 0.102216 -165.5 0.994578 -76.75 0.994578 -76.75 0.102216 -168.2
8.79198000 0.102311 -165.5 0.994568 -76.76 0.994568 -76.76 0.102311 -168.2
8.79199000 0.102406 -165.5 0.994558 -76.76 0.994558 -76.76 0.102406 -168.2
8.79200000 0.102501 -165.5 0.994547 -76.77 0.994547 -76.77 0.102501 -168.2
8.79201000 0.102596 -165.5 0.994537 -76.77 0.994537 -76.77 0.102596 -168.2
8.79202000 0.102691 -165.6 0.994527 -76.78 0.994527 -76.78 0.102691 -168.2
8.79203000 0.102787 -165.6 0.994517 -76.78 0.994517 -76.78 0.102787 -168.2
8.79204000 0.102883 -165.6 0.994507 -76.79 0.994507 -76.79 0.102882 -168.2
8.79205000 0.102978 -165.6 0.994497 -76.79 0.994497 -76.79 0.102978 -168.2
8.79206000 0.103074 -165.6 0.994486 -76.80 0.994486 -76.80 0.103074 -168.2
8.79207000 0.103171 -165.6 0.994476 -76.81 0.994476 -76.81 0.103170 -168.2
8.79208000 0.103267 -165.6 0.994466 -76.81 0.994466 -76.81 0.103267 -168.2
8.79209000 0.103363 -165.6 0.994455 -76.82 0.994455 -76.82 0.103363 -168.2
8.79210000 0.103460 -165.6 0.994445 -76.82 0.994445 -76.82 0.103460 -168.2
8.79211000 0.103557 -165.6 0.994435 -76.83 0.994435 -76.83 0.103557 -168.2
8.79212000 0.103654 -165.6 0.994424 -76.83 0.994424 -76.83 0.103654 -168.3
8.79213000 0.103751 -165.6 0.994414 -76.84 0.994414 -76.84 0.103751 -168.3
8.79214000 0.103849 -165.6 0.994403 -76.85 0.994403 -76.85 0.103848 -168.3
8.79215000 0.103946 -165.6 0.994393 -76.85 0.994393 -76.85 0.103946 -168.3
8.79216000 0.104044 -165.6 0.994382 -76.86 0.994382 -76.86 0.104044 -168.3
8.79217000 0.104142 -165.6 0.994372 -76.86 0.994372 -76.86 0.104141 -168.3
8.79218000 0.104240 -165.6 0.994361 -76.87 0.994361 -76.87 0.104240 -168.3
8.79219000 0.104338 -165.7 0.994350 -76.87 0.994350 -76.87 0.104338 -168.3
8.79220000 0.104436 -165.7 0.994340 -76.88 0.994340 -76.88 0.104436 -168.3
8.79221000 0.104535 -165.7 0.994329 -76.89 0.994329 -76.89 0.104535 -168.3
8.79222000 0.104633 -165.7 0.994318 -76.89 0.994318 -76.89 0.104633 -168.3
8.79223000 0.104732 -165.7 0.994308 -76.90 0.994308 -76.90 0.104732 -168.3
8.79224000 0.104831 -165.7 0.994297 -76.90 0.994297 -76.90 0.104831 -168.3
8.79225000 0.104931 -165.7 0.994286 -76.91 0.994286 -76.91 0.104931 -168.3
8.79226000 0.105030 -165.7 0.994275 -76.91 0.994275 -76.91 0.105030 -168.3
8.79227000 0.105130 -165.7 0.994264 -76.92 0.994264 -76.92 0.105130 -168.3
8.79228000 0.105229 -165.7 0.994254 -76.93 0.994254 -76.93 0.105229 -168.3
8.79229000 0.105329 -165.7 0.994243 -76.93 0.994243 -76.93 0.105329 -168.4
8.79230000 0.105430 -165.7 0.994232 -76.94 0.994232 -76.94 0.105429 -168.4
8.79231000 0.105530 -165.7 0.994221 -76.94 0.994221 -76.94 0.105530 -168.4
8.79232000 0.105630 -165.7 0.994210 -76.95 0.994210 -76.95 0.105630 -168.4
8.79233000 0.105731 -165.7 0.994199 -76.95 0.994199 -76.95 0.105731 -168.4
8.79234000 0.105832 -165.7 0.994188 -76.96 0.994188 -76.96 0.105832 -168.4
8.79235000 0.105933 -165.7 0.994177 -76.97 0.994177 -76.97 0.105933 -168.4
8.79236000 0.106034 -165.8 0.994165 -76.97 0.994165 -76.97 0.106034 -168.4
8.79237000 0.106135 -165.8 0.994154 -76.98 0.994154 -76.98 0.106135 -168.4
8.79238000 0.106237 -165.8 0.994143 -76.98 0.994143 -76.98 0.106237 -168.4
8.79239000 0.106339 -165.8 0.994132 -76.99 0.994132 -76.99 0.106338 -168.4
8.79240000 0.106440 -165.8 0.994121 -77.00 0.994121 -77.00 0.106440 -168.4
8.79241000 0.106543 -165.8 0.994109 -77.00 0.994109 -77.00 0.106542 -168.4
8.79242000 0.106645 -165.8 0.994098 -77.01 0.994098 -77.01 0.106645 -168.4
8.79243000 0.106747 -165.8 0.994087 -77.01 0.994087 -77.01 0.106747 -168.4
8.79244000 0.106850 -165.8 0.994075 -77.02 0.994075 -77.02 0.106850 -168.4
8.79245000 0.106953 -165.8 0.994064 -77.03 0.994064 -77.03 0.106953 -168.4
8.79246000 0.107056 -165.8 0.994052 -77.03 0.994052 -77.03 0.107056 -168.5
8.79247000 0.107159 -165.8 0.994041 -77.04 0.994041 -77.04 0.107159 -168.5
8.79248000 0.107262 -165.8 0.994030 -77.04 0.994030 -77.04 0.107262 -168.5
8.79249000 0.107366 -165.8 0.994018 -77.05 0.994018 -77.05 0.107366 -168.5
8.79250000 0.107469 -165.8 0.994006 -77.06 0.994006 -77.06 0.107469 -168.5
8.79251000 0.107573 -165.8 0.993995 -77.06 0.993995 -77.06 0.107573 -168.5
8.79252000 0.107677 -165.9 0.993983 -77.07 0.993983 -77.07 0.107677 -168.5
8.79253000 0.107782 -165.9 0.993972 -77.07 0.993972 -77.07 0.107782 -168.5
8.79254000 0.107886 -165.9 0.993960 -77.08 0.993960 -77.08 0.107886 -168.5
8.79255000 0.107991 -165.9 0.993948 -77.09 0.993948 -77.09 0.107991 -168.5
8.79256000 0.108096 -165.9 0.993936 -77.09 0.993936 -77.09 0.108096 -168.5
8.79257000 0.108201 -165.9 0.993925 -77.10 0.993925 -77.10 0.108201 -168.5
8.79258000 0.108306 -165.9 0.993913 -77.11 0.993913 -77.11 0.108306 -168.5
8.79259000 0.108411 -165.9 0.993901 -77.11 0.993901 -77.11 0.108411 -168.5
8.79260000 0.108517 -165.9 0.993889 -77.12 0.993889 -77.12 0.108517 -168.5
8.79261000 0.108623 -165.9 0.993877 -77.12 0.993877 -77.12 0.108623 -168.5
8.79262000 0.108729 -165.9 0.993865 -77.13 0.993865 -77.13 0.108729 -168.6
8.79263000 0.108835 -165.9 0.993853 -77.14 0.993853 -77.14 0.108835 -168.6
8.79264000 0.108941 -165.9 0.993841 -77.14 0.993841 -77.14 0.108941 -168.6
8.79265000 0.109048 -165.9 0.993829 -77.15 0.993829 -77.15 0.109048 -168.6
8.79266000 0.109155 -165.9 0.993817 -77.15 0.993817 -77.15 0.109155 -168.6
8.79267000 0.109262 -165.9 0.993805 -77.16 0.993805 -77.16 0.109262 -168.6
8.79268000 0.109369 -166.0 0.993793 -77.17 0.993793 -77.17 0.109369 -168.6
8.79269000 0.109476 -166.0 0.993781 -77.17 0.993781 -77.17 0.109476 -168.6
8.79270000 0.109584 -166.0 0.993768 -77.18 0.993768 -77.18 0.109584 -168.6
8.79271000 0.109691 -166.0 0.993756 -77.19 0.993756 -77.19 0.109691 -168.6
8.79272000 0.109799 -166.0 0.993744 -77.19 0.993744 -77.19 0.109799 -168.6
8.79273000 0.109908 -166.0 0.993732 -77.20 0.993732 -77.20 0.109907 -168.6
8.79274000 0.110016 -166.0 0.993719 -77.21 0.993719 -77.21 0.110016 -168.6
8.79275000 0.110124 -166.0 0.993707 -77.21 0.993707 -77.21 0.110124 -168.6
8.79276000 0.110233 -166.0 0.993694 -77.22 0.993694 -77.22 0.110233 -168.6
8.79277000 0.110342 -166.0 0.993682 -77.22 0.993682 -77.22 0.110342 -168.6
8.79278000 0.110451 -166.0 0.993669 -77.23 0.993669 -77.23 0.110451 -168.7
8.79279000 0.110560 -166.0 0.993657 -77.24 0.993657 -77.24 0.110560 -168.7
8.79280000 0.110670 -166.0 0.993644 -77.24 0.993644 -77.24 0.110670 -168.7
8.79281000 0.110780 -166.0 0.993632 -77.25 0.993632 -77.25 0.110780 -168.7
8.79282000 0.110890 -166.0 0.993619 -77.26 0.993619 -77.26 0.110890 -168.7
8.79283000 0.111000 -166.0 0.993606 -77.26 0.993606 -77.26 0.111000 -168.7
8.79284000 0.111110 -166.1 0.993594 -77.27 0.993594 -77.27 0.111110 -168.7
8.79285000 0.111221 -166.1 0.993581 -77.28 0.993581 -77.28 0.111221 -168.7
8.79286000 0.111331 -166.1 0.993568 -77.28 0.993568 -77.28 0.111331 -168.7
8.79287000 0.111442 -166.1 0.993555 -77.29 0.993555 -77.29 0.111442 -168.7
8.79288000 0.111554 -166.1 0.993542 -77.30 0.993542 -77.30 0.111553 -168.7
8.79289000 0.111665 -166.1 0.993529 -77.30 0.993529 -77.30 0.111665 -168.7
8.79290000 0.111776 -166.1 0.993517 -77.31 0.993517 -77.31 0.111776 -168.7
8.79291000 0.111888 -166.1 0.993504 -77.31 0.993504 -77.31 0.111888 -168.7
8.79292000 0.112000 -166.1 0.993491 -77.32 0.993491 -77.32 0.112000 -168.7
8.79293000 0.112112 -166.1 0.993478 -77.33 0.993478 -77.33 0.112112 -168.8
8.79294000 0.112225 -166.1 0.993464 -77.33 0.993464 -77.33 0.112225 -168.8
8.79295000 0.112337 -166.1 0.993451 -77.34 0.993451 -77.34 0.112337 -168.8
8.79296000 0.112450 -166.1 0.993438 -77.35 0.993438 -77.35 0.112450 -168.8
8.79297000 0.112563 -166.1 0.993425 -77.35 0.993425 -77.35 0.112563 -168.8
8.79298000 0.112677 -166.1 0.993412 -77.36 0.993412 -77.36 0.112676 -168.8
8.79299000 0.112790 -166.2 0.993398 -77.37 0.993398 -77.37 0.112790 -168.8
8.79300000 0.112904 -166.2 0.993385 -77.37 0.993385 -77.37 0.112904 -168.8
8.79301000 0.113018 -166.2 0.993372 -77.38 0.993372 -77.38 0.113017 -168.8
8.79302000 0.113132 -166.2 0.993358 -77.39 0.993358 -77.39 0.113132 -168.8
8.79303000 0.113246 -166.2 0.993345 -77.39 0.993345 -77.39 0.113246 -168.8
8.79304000 0.113360 -166.2 0.993332 -77.40 0.993332 -77.40 0.113360 -168.8
8.79305000 0.113475 -166.2 0.993318 -77.41 0.993318 -77.41 0.113475 -168.8
8.79306000 0.113590 -166.2 0.993304 -77.41 0.993304 -77.41 0.113590 -168.8
8.79307000 0.113705 -166.2 0.993291 -77.42 0.993291 -77.42 0.113705 -168.8
8.79308000 0.113821 -166.2 0.993277 -77.43 0.993277 -77.43 0.113821 -168.9
8.79309000 0.113936 -166.2 0.993264 -77.43 0.993264 -77.43 0.113936 -168.9
8.79310000 0.114052 -166.2 0.993250 -77.44 0.993250 -77.44 0.114052 -168.9
8.79311000 0.114168 -166.2 0.993236 -77.45 0.993236 -77.45 0.114168 -168.9
8.79312000 0.114284 -166.2 0.993222 -77.45 0.993222 -77.45 0.114284 -168.9
8.79313000 0.114401 -166.3 0.993209 -77.46 0.993209 -77.46 0.114401 -168.9
8.79314000 0.114518 -166.3 0.993195 -77.47 0.993195 -77.47 0.114517 -168.9
8.79315000 0.114635 -166.3 0.993181 -77.47 0.993181 -77.47 0.114634 -168.9
8.79316000 0.114752 -166.3 0.993167 -77.48 0.993167 -77.48 0.114752 -168.9
8.79317000 0.114869 -166.3 0.993153 -77.49 0.993153 -77.49 0.114869 -168.9
8.79318000 0.114987 -166.3 0.993139 -77.50 0.993139 -77.50 0.114987 -168.9
8.79319000 0.115104 -166.3 0.993125 -77.50 0.993125 -77.50 0.115104 -168.9
8.79320000 0.115222 -166.3 0.993111 -77.51 0.993111 -77.51 0.115222 -168.9
8.79321000 0.115341 -166.3 0.993096 -77.52 0.993096 -77.52 0.115341 -168.9
8.79322000 0.115459 -166.3 0.993082 -77.52 0.993082 -77.52 0.115459 -168.9
8.79323000 0.115578 -166.3 0.993068 -77.53 0.993068 -77.53 0.115578 -169.0
8.79324000 0.115697 -166.3 0.993054 -77.54 0.993054 -77.54 0.115697 -169.0
8.79325000 0.115816 -166.3 0.993039 -77.54 0.993039 -77.54 0.115816 -169.0
8.79326000 0.115936 -166.3 0.993025 -77.55 0.993025 -77.55 0.115935 -169.0
8.79327000 0.116055 -166.3 0.993011 -77.56 0.993011 -77.56 0.116055 -169.0
8.79328000 0.116175 -166.4 0.992996 -77.56 0.992996 -77.56 0.116175 -169.0
8.79329000 0.116295 -166.4 0.992982 -77.57 0.992982 -77.57 0.116295 -169.0
8.79330000 0.116415 -166.4 0.992967 -77.58 0.992967 -77.58 0.116415 -169.0
8.79331000 0.116536 -166.4 0.992953 -77.59 0.992953 -77.59 0.116536 -169.0
8.79332000 0.116657 -166.4 0.992938 -77.59 0.992938 -77.59 0.116657 -169.0
8.79333000 0.116778 -166.4 0.992923 -77.60 0.992923 -77.60 0.116778 -169.0
8.79334000 0.116899 -166.4 0.992909 -77.61 0.992909 -77.61 0.116899 -169.0
8.79335000 0.117021 -166.4 0.992894 -77.61 0.992894 -77.61 0.117020 -169.0
8.79336000 0.117142 -166.4 0.992879 -77.62 0.992879 -77.62 0.117142 -169.0
8.79337000 0.117264 -166.4 0.992864 -77.63 0.992864 -77.63 0.117264 -169.1
8.79338000 0.117386 -166.4 0.992849 -77.64 0.992849 -77.64 0.117386 -169.1
8.79339000 0.117509 -166.4 0.992834 -77.64 0.992834 -77.64 0.117509 -169.1
8.79340000 0.117632 -166.4 0.992819 -77.65 0.992819 -77.65 0.117631 -169.1
8.79341000 0.117754 -166.4 0.992804 -77.66 0.992804 -77.66 0.117754 -169.1
8.79342000 0.117878 -166.5 0.992789 -77.66 0.992789 -77.66 0.117877 -169.1
8.79343000 0.118001 -166.5 0.992774 -77.67 0.992774 -77.67 0.118001 -169.1
8.79344000 0.118125 -166.5 0.992759 -77.68 0.992759 -77.68 0.118124 -169.1
8.79345000 0.118248 -166.5 0.992744 -77.69 0.992744 -77.69 0.118248 -169.1
8.79346000 0.118373 -166.5 0.992729 -77.69 0.992729 -77.69 0.118372 -169.1
8.79347000 0.118497 -166.5 0.992713 -77.70 0.992713 -77.70 0.118497 -169.1
8.79348000 0.118622 -166.5 0.992698 -77.71 0.992698 -77.71 0.118621 -169.1
8.79349000 0.118746 -166.5 0.992683 -77.71 0.992683 -77.71 0.118746 -169.1
8.79350000 0.118871 -166.5 0.992667 -77.72 0.992667 -77.72 0.118871 -169.2
8.79351000 0.118997 -166.5 0.992652 -77.73 0.992652 -77.73 0.118997 -169.2
8.79352000 0.119122 -166.5 0.992636 -77.74 0.992636 -77.74 0.119122 -169.2
8.79353000 0.119248 -166.5 0.992621 -77.74 0.992621 -77.74 0.119248 -169.2
8.79354000 0.119374 -166.5 0.992605 -77.75 0.992605 -77.75 0.119374 -169.2
8.79355000 0.119501 -166.6 0.992589 -77.76 0.992589 -77.76 0.119500 -169.2
8.79356000 0.119627 -166.6 0.992574 -77.77 0.992574 -77.77 0.119627 -169.2
8.79357000 0.119754 -166.6 0.992558 -77.77 0.992558 -77.77 0.119754 -169.2
8.79358000 0.119881 -166.6 0.992542 -77.78 0.992542 -77.78 0.119881 -169.2
8.79359000 0.120008 -166.6 0.992526 -77.79 0.992526 -77.79 0.120008 -169.2
8.79360000 0.120136 -166.6 0.992510 -77.80 0.992510 -77.80 0.120136 -169.2
8.79361000 0.120264 -166.6 0.992494 -77.80 0.992494 -77.80 0.120264 -169.2
8.79362000 0.120392 -166.6 0.992478 -77.81 0.992478 -77.81 0.120392 -169.2
8.79363000 0.120520 -166.6 0.992462 -77.82 0.992462 -77.82 0.120520 -169.2
8.79364000 0.120649 -166.6 0.992446 -77.83 0.992446 -77.83 0.120649 -169.3
8.79365000 0.120778 -166.6 0.992430 -77.83 0.992430 -77.83 0.120778 -169.3
8.79366000 0.120907 -166.6 0.992414 -77.84 0.992414 -77.84 0.120907 -169.3
8.79367000 0.121036 -166.6 0.992397 -77.85 0.992397 -77.85 0.121036 -169.3
8.79368000 0.121166 -166.7 0.992381 -77.86 0.992381 -77.86 0.121166 -169.3
8.79369000 0.121296 -166.7 0.992365 -77.86 0.992365 -77.86 0.121296 -169.3
8.79370000 0.121426 -166.7 0.992348 -77.87 0.992348 -77.87 0.121426 -169.3
8.79371000 0.121556 -166.7 0.992332 -77.88 0.992332 -77.88 0.121556 -169.3
8.79372000 0.121687 -166.7 0.992315 -77.89 0.992315 -77.89 0.121687 -169.3
8.79373000 0.121818 -166.7 0.992299 -77.89 0.992299 -77.89 0.121818 -169.3
8.79374000 0.121949 -166.7 0.992282 -77.90 0.992282 -77.90 0.121949 -169.3
8.79375000 0.122080 -166.7 0.992266 -77.91 0.992266 -77.91 0.122080 -169.3
8.79376000 0.122212 -166.7 0.992249 -77.92 0.992249 -77.92 0.122212 -169.3
8.79377000 0.122344 -166.7 0.992232 -77.92 0.992232 -77.92 0.122344 -169.4
8.79378000 0.122476 -166.7 0.992215 -77.93 0.992215 -77.93 0.122476 -169.4
8.79379000 0.122609 -166.7 0.992198 -77.94 0.992198 -77.94 0.122609 -169.4
8.79380000 0.122742 -166.7 0.992181 -77.95 0.992181 -77.95 0.122742 -169.4
8.79381000 0.122875 -166.8 0.992164 -77.96 0.992164 -77.96 0.122875 -169.4
8.79382000 0.123008 -166.8 0.992147 -77.96 0.992147 -77.96 0.123008 -169.4
8.79383000 0.123142 -166.8 0.992130 -77.97 0.992130 -77.97 0.123141 -169.4
8.79384000 0.123275 -166.8 0.992113 -77.98 0.992113 -77.98 0.123275 -169.4
8.79385000 0.123410 -166.8 0.992096 -77.99 0.992096 -77.99 0.123409 -169.4
8.79386000 0.123544 -166.8 0.992079 -77.99 0.992079 -77.99 0.123544 -169.4
8.79387000 0.123679 -166.8 0.992061 -78.00 0.992061 -78.00 0.123679 -169.4
8.79388000 0.123814 -166.8 0.992044 -78.01 0.992044 -78.01 0.123814 -169.4
8.79389000 0.123949 -166.8 0.992027 -78.02 0.992027 -78.02 0.123949 -169.5
8.79390000 0.124084 -166.8 0.992009 -78.03 0.992009 -78.03 0.124084 -169.5
8.79391000 0.124220 -166.8 0.991992 -78.03 0.991992 -78.03 0.124220 -169.5
8.79392000 0.124356 -166.8 0.991974 -78.04 0.991974 -78.04 0.124356 -169.5