! Sonnet Data File
! From: emgraph Version : 16.52
! From Project: Qubit_Xmon2
! Data is De-embedded 
! Data File Written: 10/18/2017 11:36:08
!< HDATE 10/18/2017 10:24:37
!< MDATE 10/18/2017 10:24:37
!< PARAMS
!< Lj = 11.0
!< Gap = 6.0
!< Pwid = 2000.0
!< Airgap = 12.0
!< Width = 20.0
!< END PARAMS
# GHZ S MA R 40.13000
8.79000000 0.139979 -167.4 0.990003 -77.72 0.990003 -77.72 0.139977 -168.2
!< P1 F=8.79 Eeff=(4.99688633 -5.9225e-5) Z0=(38.486563 -1.2923e-4) R=0.0 C=0.0 
!< P2 F=8.79 Eeff=(4.99688633 -5.9225e-5) Z0=(38.486563 -1.2923e-4) R=0.0 C=0.0 
8.79001000 0.140056 -167.4 0.989992 -77.73 0.989992 -77.73 0.140053 -168.2
8.79002000 0.140132 -167.4 0.989981 -77.73 0.989981 -77.73 0.140129 -168.2
8.79003000 0.140209 -167.4 0.989970 -77.74 0.989970 -77.74 0.140206 -168.2
8.79004000 0.140285 -167.4 0.989959 -77.74 0.989959 -77.74 0.140283 -168.2
8.79005000 0.140362 -167.4 0.989948 -77.75 0.989948 -77.75 0.140359 -168.2
8.79006000 0.140439 -167.4 0.989937 -77.75 0.989937 -77.75 0.140436 -168.2
8.79007000 0.140516 -167.4 0.989926 -77.76 0.989926 -77.76 0.140513 -168.2
8.79008000 0.140593 -167.4 0.989915 -77.76 0.989915 -77.76 0.140590 -168.2
8.79009000 0.140670 -167.4 0.989904 -77.76 0.989904 -77.76 0.140667 -168.2
8.79010000 0.140747 -167.4 0.989893 -77.77 0.989893 -77.77 0.140744 -168.2
8.79011000 0.140824 -167.4 0.989881 -77.77 0.989881 -77.77 0.140822 -168.2
8.79012000 0.140902 -167.4 0.989870 -77.78 0.989870 -77.78 0.140899 -168.3
8.79013000 0.140979 -167.4 0.989859 -77.78 0.989859 -77.78 0.140977 -168.3
8.79014000 0.141057 -167.4 0.989848 -77.79 0.989848 -77.79 0.141054 -168.3
8.79015000 0.141135 -167.4 0.989836 -77.79 0.989836 -77.79 0.141132 -168.3
8.79016000 0.141212 -167.4 0.989825 -77.80 0.989825 -77.80 0.141210 -168.3
8.79017000 0.141290 -167.4 0.989814 -77.80 0.989814 -77.80 0.141288 -168.3
8.79018000 0.141369 -167.4 0.989802 -77.81 0.989802 -77.81 0.141366 -168.3
8.79019000 0.141447 -167.4 0.989791 -77.81 0.989791 -77.81 0.141444 -168.3
8.79020000 0.141525 -167.5 0.989780 -77.81 0.989780 -77.81 0.141522 -168.3
8.79021000 0.141603 -167.5 0.989768 -77.82 0.989768 -77.82 0.141601 -168.3
8.79022000 0.141682 -167.5 0.989757 -77.82 0.989757 -77.82 0.141679 -168.3
8.79023000 0.141760 -167.5 0.989745 -77.83 0.989745 -77.83 0.141758 -168.3
8.79024000 0.141839 -167.5 0.989734 -77.83 0.989734 -77.83 0.141836 -168.3
8.79025000 0.141918 -167.5 0.989722 -77.84 0.989722 -77.84 0.141915 -168.3
8.79026000 0.141997 -167.5 0.989711 -77.84 0.989711 -77.84 0.141994 -168.3
8.79027000 0.142076 -167.5 0.989699 -77.85 0.989699 -77.85 0.142073 -168.3
8.79028000 0.142155 -167.5 0.989688 -77.85 0.989688 -77.85 0.142152 -168.3
8.79029000 0.142234 -167.5 0.989676 -77.86 0.989676 -77.86 0.142232 -168.3
8.79030000 0.142314 -167.5 0.989664 -77.86 0.989664 -77.86 0.142311 -168.3
8.79031000 0.142393 -167.5 0.989653 -77.87 0.989653 -77.87 0.142390 -168.3
8.79032000 0.142473 -167.5 0.989641 -77.87 0.989641 -77.87 0.142470 -168.4
8.79033000 0.142552 -167.5 0.989629 -77.88 0.989629 -77.88 0.142550 -168.4
8.79034000 0.142632 -167.5 0.989618 -77.88 0.989618 -77.88 0.142630 -168.4
8.79035000 0.142712 -167.5 0.989606 -77.88 0.989606 -77.88 0.142709 -168.4
8.79036000 0.142792 -167.5 0.989594 -77.89 0.989594 -77.89 0.142789 -168.4
8.79037000 0.142872 -167.5 0.989583 -77.89 0.989583 -77.89 0.142870 -168.4
8.79038000 0.142953 -167.5 0.989571 -77.90 0.989571 -77.90 0.142950 -168.4
8.79039000 0.143033 -167.5 0.989559 -77.90 0.989559 -77.90 0.143030 -168.4
8.79040000 0.143113 -167.5 0.989547 -77.91 0.989547 -77.91 0.143111 -168.4
8.79041000 0.143194 -167.5 0.989535 -77.91 0.989535 -77.91 0.143191 -168.4
8.79042000 0.143275 -167.6 0.989523 -77.92 0.989523 -77.92 0.143272 -168.4
8.79043000 0.143356 -167.6 0.989511 -77.92 0.989511 -77.92 0.143353 -168.4
8.79044000 0.143436 -167.6 0.989499 -77.93 0.989499 -77.93 0.143434 -168.4
8.79045000 0.143517 -167.6 0.989487 -77.93 0.989487 -77.93 0.143515 -168.4
8.79046000 0.143599 -167.6 0.989475 -77.94 0.989475 -77.94 0.143596 -168.4
8.79047000 0.143680 -167.6 0.989463 -77.94 0.989463 -77.94 0.143677 -168.4
8.79048000 0.143761 -167.6 0.989451 -77.95 0.989451 -77.95 0.143758 -168.4
8.79049000 0.143843 -167.6 0.989439 -77.95 0.989439 -77.95 0.143840 -168.4
8.79050000 0.143924 -167.6 0.989427 -77.96 0.989427 -77.96 0.143922 -168.4
8.79051000 0.144006 -167.6 0.989415 -77.96 0.989415 -77.96 0.144003 -168.4
8.79052000 0.144088 -167.6 0.989403 -77.97 0.989403 -77.97 0.144085 -168.5
8.79053000 0.144170 -167.6 0.989391 -77.97 0.989391 -77.97 0.144167 -168.5
8.79054000 0.144252 -167.6 0.989379 -77.98 0.989379 -77.98 0.144249 -168.5
8.79055000 0.144334 -167.6 0.989367 -77.98 0.989367 -77.98 0.144331 -168.5
8.79056000 0.144416 -167.6 0.989354 -77.98 0.989354 -77.98 0.144414 -168.5
8.79057000 0.144499 -167.6 0.989342 -77.99 0.989342 -77.99 0.144496 -168.5
8.79058000 0.144581 -167.6 0.989330 -77.99 0.989330 -77.99 0.144578 -168.5
8.79059000 0.144664 -167.6 0.989317 -78.00 0.989317 -78.00 0.144661 -168.5
8.79060000 0.144747 -167.6 0.989305 -78.00 0.989305 -78.00 0.144744 -168.5
8.79061000 0.144829 -167.6 0.989293 -78.01 0.989293 -78.01 0.144827 -168.5
8.79062000 0.144912 -167.6 0.989280 -78.01 0.989280 -78.01 0.144910 -168.5
8.79063000 0.144996 -167.6 0.989268 -78.02 0.989268 -78.02 0.144993 -168.5
8.79064000 0.145079 -167.7 0.989256 -78.02 0.989256 -78.02 0.145076 -168.5
8.79065000 0.145162 -167.7 0.989243 -78.03 0.989243 -78.03 0.145159 -168.5
8.79066000 0.145246 -167.7 0.989231 -78.03 0.989231 -78.03 0.145243 -168.5
8.79067000 0.145329 -167.7 0.989218 -78.04 0.989218 -78.04 0.145326 -168.5
8.79068000 0.145413 -167.7 0.989206 -78.04 0.989206 -78.04 0.145410 -168.5
8.79069000 0.145497 -167.7 0.989193 -78.05 0.989193 -78.05 0.145494 -168.5
8.79070000 0.145581 -167.7 0.989181 -78.05 0.989181 -78.05 0.145578 -168.5
8.79071000 0.145665 -167.7 0.989168 -78.06 0.989168 -78.06 0.145662 -168.6
8.79072000 0.145749 -167.7 0.989155 -78.06 0.989155 -78.06 0.145746 -168.6
8.79073000 0.145833 -167.7 0.989143 -78.07 0.989143 -78.07 0.145830 -168.6
8.79074000 0.145917 -167.7 0.989130 -78.07 0.989130 -78.07 0.145915 -168.6
8.79075000 0.146002 -167.7 0.989117 -78.08 0.989117 -78.08 0.145999 -168.6
8.79076000 0.146087 -167.7 0.989105 -78.08 0.989105 -78.08 0.146084 -168.6
8.79077000 0.146171 -167.7 0.989092 -78.09 0.989092 -78.09 0.146169 -168.6
8.79078000 0.146256 -167.7 0.989079 -78.09 0.989079 -78.09 0.146253 -168.6
8.79079000 0.146341 -167.7 0.989066 -78.10 0.989066 -78.10 0.146338 -168.6
8.79080000 0.146426 -167.7 0.989053 -78.10 0.989053 -78.10 0.146424 -168.6
8.79081000 0.146512 -167.7 0.989041 -78.11 0.989041 -78.11 0.146509 -168.6
8.79082000 0.146597 -167.7 0.989028 -78.11 0.989028 -78.11 0.146594 -168.6
8.79083000 0.146682 -167.7 0.989015 -78.12 0.989015 -78.12 0.146680 -168.6
8.79084000 0.146768 -167.7 0.989002 -78.12 0.989002 -78.12 0.146765 -168.6
8.79085000 0.146854 -167.8 0.988989 -78.13 0.988989 -78.13 0.146851 -168.6
8.79086000 0.146940 -167.8 0.988976 -78.13 0.988976 -78.13 0.146937 -168.6
8.79087000 0.147026 -167.8 0.988963 -78.14 0.988963 -78.14 0.147023 -168.6
8.79088000 0.147112 -167.8 0.988950 -78.14 0.988950 -78.14 0.147109 -168.6
8.79089000 0.147198 -167.8 0.988937 -78.15 0.988937 -78.15 0.147195 -168.7
8.79090000 0.147284 -167.8 0.988924 -78.15 0.988924 -78.15 0.147281 -168.7
8.79091000 0.147371 -167.8 0.988911 -78.16 0.988911 -78.16 0.147368 -168.7
8.79092000 0.147457 -167.8 0.988897 -78.16 0.988897 -78.16 0.147455 -168.7
8.79093000 0.147544 -167.8 0.988884 -78.17 0.988884 -78.17 0.147541 -168.7
8.79094000 0.147631 -167.8 0.988871 -78.17 0.988871 -78.17 0.147628 -168.7
8.79095000 0.147718 -167.8 0.988858 -78.18 0.988858 -78.18 0.147715 -168.7
8.79096000 0.147805 -167.8 0.988845 -78.18 0.988845 -78.18 0.147802 -168.7
8.79097000 0.147892 -167.8 0.988831 -78.19 0.988831 -78.19 0.147889 -168.7
8.79098000 0.147980 -167.8 0.988818 -78.19 0.988818 -78.19 0.147977 -168.7
8.79099000 0.148067 -167.8 0.988805 -78.20 0.988805 -78.20 0.148064 -168.7
8.79100000 0.148155 -167.8 0.988791 -78.21 0.988791 -78.21 0.148152 -168.7
8.79101000 0.148242 -167.8 0.988778 -78.21 0.988778 -78.21 0.148240 -168.7
8.79102000 0.148330 -167.8 0.988764 -78.22 0.988764 -78.22 0.148327 -168.7
8.79103000 0.148418 -167.8 0.988751 -78.22 0.988751 -78.22 0.148415 -168.7
8.79104000 0.148506 -167.8 0.988737 -78.23 0.988737 -78.23 0.148504 -168.7
8.79105000 0.148595 -167.8 0.988724 -78.23 0.988724 -78.23 0.148592 -168.7
8.79106000 0.148683 -167.9 0.988710 -78.24 0.988710 -78.24 0.148680 -168.7
8.79107000 0.148772 -167.9 0.988697 -78.24 0.988697 -78.24 0.148769 -168.7
8.79108000 0.148860 -167.9 0.988683 -78.25 0.988683 -78.25 0.148857 -168.8
8.79109000 0.148949 -167.9 0.988670 -78.25 0.988670 -78.25 0.148946 -168.8
8.79110000 0.149038 -167.9 0.988656 -78.26 0.988656 -78.26 0.149035 -168.8
8.79111000 0.149127 -167.9 0.988642 -78.26 0.988642 -78.26 0.149124 -168.8
8.79112000 0.149216 -167.9 0.988629 -78.27 0.988629 -78.27 0.149213 -168.8
8.79113000 0.149305 -167.9 0.988615 -78.27 0.988615 -78.27 0.149302 -168.8
8.79114000 0.149395 -167.9 0.988601 -78.28 0.988601 -78.28 0.149392 -168.8
8.79115000 0.149484 -167.9 0.988587 -78.28 0.988587 -78.28 0.149481 -168.8
8.79116000 0.149574 -167.9 0.988574 -78.29 0.988574 -78.29 0.149571 -168.8
8.79117000 0.149664 -167.9 0.988560 -78.29 0.988560 -78.29 0.149661 -168.8
8.79118000 0.149754 -167.9 0.988546 -78.30 0.988546 -78.30 0.149751 -168.8
8.79119000 0.149844 -167.9 0.988532 -78.30 0.988532 -78.30 0.149841 -168.8
8.79120000 0.149934 -167.9 0.988518 -78.31 0.988518 -78.31 0.149931 -168.8
8.79121000 0.150024 -167.9 0.988504 -78.32 0.988504 -78.32 0.150021 -168.8
8.79122000 0.150115 -167.9 0.988490 -78.32 0.988490 -78.32 0.150112 -168.8
8.79123000 0.150205 -167.9 0.988476 -78.33 0.988476 -78.33 0.150202 -168.8
8.79124000 0.150296 -167.9 0.988462 -78.33 0.988462 -78.33 0.150293 -168.8
8.79125000 0.150387 -167.9 0.988448 -78.34 0.988448 -78.34 0.150384 -168.9
8.79126000 0.150478 -168.0 0.988434 -78.34 0.988434 -78.34 0.150475 -168.9
8.79127000 0.150569 -168.0 0.988420 -78.35 0.988420 -78.35 0.150566 -168.9
8.79128000 0.150660 -168.0 0.988406 -78.35 0.988406 -78.35 0.150657 -168.9
8.79129000 0.150752 -168.0 0.988391 -78.36 0.988391 -78.36 0.150749 -168.9
8.79130000 0.150843 -168.0 0.988377 -78.36 0.988377 -78.36 0.150840 -168.9
8.79131000 0.150935 -168.0 0.988363 -78.37 0.988363 -78.37 0.150932 -168.9
8.79132000 0.151027 -168.0 0.988349 -78.37 0.988349 -78.37 0.151024 -168.9
8.79133000 0.151118 -168.0 0.988334 -78.38 0.988334 -78.38 0.151116 -168.9
8.79134000 0.151211 -168.0 0.988320 -78.38 0.988320 -78.38 0.151208 -168.9
8.79135000 0.151303 -168.0 0.988306 -78.39 0.988306 -78.39 0.151300 -168.9
8.79136000 0.151395 -168.0 0.988291 -78.40 0.988291 -78.40 0.151392 -168.9
8.79137000 0.151488 -168.0 0.988277 -78.40 0.988277 -78.40 0.151485 -168.9
8.79138000 0.151580 -168.0 0.988262 -78.41 0.988262 -78.41 0.151577 -168.9
8.79139000 0.151673 -168.0 0.988248 -78.41 0.988248 -78.41 0.151670 -168.9
8.79140000 0.151766 -168.0 0.988233 -78.42 0.988233 -78.42 0.151763 -168.9
8.79141000 0.151859 -168.0 0.988219 -78.42 0.988219 -78.42 0.151856 -168.9
8.79142000 0.151952 -168.0 0.988204 -78.43 0.988204 -78.43 0.151949 -168.9
8.79143000 0.152045 -168.0 0.988190 -78.43 0.988190 -78.43 0.152042 -169.0
8.79144000 0.152139 -168.0 0.988175 -78.44 0.988175 -78.44 0.152136 -169.0
8.79145000 0.152232 -168.1 0.988160 -78.44 0.988160 -78.44 0.152229 -169.0
8.79146000 0.152326 -168.1 0.988145 -78.45 0.988145 -78.45 0.152323 -169.0
8.79147000 0.152420 -168.1 0.988131 -78.46 0.988131 -78.46 0.152417 -169.0
8.79148000 0.152514 -168.1 0.988116 -78.46 0.988116 -78.46 0.152511 -169.0
8.79149000 0.152608 -168.1 0.988101 -78.47 0.988101 -78.47 0.152605 -169.0
8.79150000 0.152703 -168.1 0.988086 -78.47 0.988086 -78.47 0.152699 -169.0
8.79151000 0.152797 -168.1 0.988071 -78.48 0.988071 -78.48 0.152794 -169.0
8.79152000 0.152892 -168.1 0.988057 -78.48 0.988057 -78.48 0.152888 -169.0
8.79153000 0.152986 -168.1 0.988042 -78.49 0.988042 -78.49 0.152983 -169.0
8.79154000 0.153081 -168.1 0.988027 -78.49 0.988027 -78.49 0.153078 -169.0
8.79155000 0.153176 -168.1 0.988012 -78.50 0.988012 -78.50 0.153173 -169.0
8.79156000 0.153271 -168.1 0.987997 -78.51 0.987997 -78.51 0.153268 -169.0
8.79157000 0.153367 -168.1 0.987982 -78.51 0.987982 -78.51 0.153364 -169.0
8.79158000 0.153462 -168.1 0.987966 -78.52 0.987966 -78.52 0.153459 -169.0
8.79159000 0.153558 -168.1 0.987951 -78.52 0.987951 -78.52 0.153555 -169.1
8.79160000 0.153653 -168.1 0.987936 -78.53 0.987936 -78.53 0.153650 -169.1
8.79161000 0.153749 -168.1 0.987921 -78.53 0.987921 -78.53 0.153746 -169.1
8.79162000 0.153845 -168.1 0.987906 -78.54 0.987906 -78.54 0.153842 -169.1
8.79163000 0.153941 -168.1 0.987891 -78.55 0.987891 -78.55 0.153938 -169.1
8.79164000 0.154038 -168.2 0.987875 -78.55 0.987875 -78.55 0.154035 -169.1
8.79165000 0.154134 -168.2 0.987860 -78.56 0.987860 -78.56 0.154131 -169.1
8.79166000 0.154231 -168.2 0.987845 -78.56 0.987845 -78.56 0.154228 -169.1
8.79167000 0.154327 -168.2 0.987829 -78.57 0.987829 -78.57 0.154324 -169.1
8.79168000 0.154424 -168.2 0.987814 -78.57 0.987814 -78.57 0.154421 -169.1
8.79169000 0.154521 -168.2 0.987798 -78.58 0.987798 -78.58 0.154518 -169.1
8.79170000 0.154619 -168.2 0.987783 -78.59 0.987783 -78.59 0.154615 -169.1
8.79171000 0.154716 -168.2 0.987767 -78.59 0.987767 -78.59 0.154713 -169.1
8.79172000 0.154813 -168.2 0.987752 -78.60 0.987752 -78.60 0.154810 -169.1
8.79173000 0.154911 -168.2 0.987736 -78.60 0.987736 -78.60 0.154908 -169.1
8.79174000 0.155009 -168.2 0.987720 -78.61 0.987720 -78.61 0.155006 -169.1
8.79175000 0.155107 -168.2 0.987705 -78.61 0.987705 -78.61 0.155104 -169.1
8.79176000 0.155205 -168.2 0.987689 -78.62 0.987689 -78.62 0.155202 -169.2
8.79177000 0.155303 -168.2 0.987673 -78.63 0.987673 -78.63 0.155300 -169.2
8.79178000 0.155401 -168.2 0.987658 -78.63 0.987658 -78.63 0.155398 -169.2
8.79179000 0.155500 -168.2 0.987642 -78.64 0.987642 -78.64 0.155497 -169.2
8.79180000 0.155599 -168.2 0.987626 -78.64 0.987626 -78.64 0.155595 -169.2
8.79181000 0.155697 -168.2 0.987610 -78.65 0.987610 -78.65 0.155694 -169.2
8.79182000 0.155796 -168.3 0.987594 -78.65 0.987594 -78.65 0.155793 -169.2
8.79183000 0.155896 -168.3 0.987578 -78.66 0.987578 -78.66 0.155892 -169.2
8.79184000 0.155995 -168.3 0.987562 -78.67 0.987562 -78.67 0.155992 -169.2
8.79185000 0.156094 -168.3 0.987546 -78.67 0.987546 -78.67 0.156091 -169.2
8.79186000 0.156194 -168.3 0.987530 -78.68 0.987530 -78.68 0.156191 -169.2
8.79187000 0.156294 -168.3 0.987514 -78.68 0.987514 -78.68 0.156290 -169.2
8.79188000 0.156394 -168.3 0.987498 -78.69 0.987498 -78.69 0.156390 -169.2
8.79189000 0.156494 -168.3 0.987482 -78.70 0.987482 -78.70 0.156490 -169.2
8.79190000 0.156594 -168.3 0.987466 -78.70 0.987466 -78.70 0.156591 -169.2
8.79191000 0.156694 -168.3 0.987450 -78.71 0.987450 -78.71 0.156691 -169.2
8.79192000 0.156795 -168.3 0.987433 -78.71 0.987433 -78.71 0.156792 -169.3
8.79193000 0.156895 -168.3 0.987417 -78.72 0.987417 -78.72 0.156892 -169.3
8.79194000 0.156996 -168.3 0.987401 -78.73 0.987401 -78.73 0.156993 -169.3
8.79195000 0.157097 -168.3 0.987384 -78.73 0.987384 -78.73 0.157094 -169.3
8.79196000 0.157198 -168.3 0.987368 -78.74 0.987368 -78.74 0.157195 -169.3
8.79197000 0.157300 -168.3 0.987351 -78.74 0.987351 -78.74 0.157296 -169.3
8.79198000 0.157401 -168.3 0.987335 -78.75 0.987335 -78.75 0.157398 -169.3
8.79199000 0.157503 -168.4 0.987319 -78.75 0.987319 -78.75 0.157500 -169.3
8.79200000 0.157604 -168.4 0.987302 -78.76 0.987302 -78.76 0.157601 -169.3
8.79201000 0.157706 -168.4 0.987285 -78.77 0.987285 -78.77 0.157703 -169.3
8.79202000 0.157808 -168.4 0.987269 -78.77 0.987269 -78.77 0.157805 -169.3
8.79203000 0.157911 -168.4 0.987252 -78.78 0.987252 -78.78 0.157908 -169.3
8.79204000 0.158013 -168.4 0.987235 -78.79 0.987235 -78.79 0.158010 -169.3
8.79205000 0.158116 -168.4 0.987219 -78.79 0.987219 -78.79 0.158113 -169.3
8.79206000 0.158218 -168.4 0.987202 -78.80 0.987202 -78.80 0.158215 -169.3
8.79207000 0.158321 -168.4 0.987185 -78.80 0.987185 -78.80 0.158318 -169.3
8.79208000 0.158424 -168.4 0.987168 -78.81 0.987168 -78.81 0.158421 -169.4
8.79209000 0.158528 -168.4 0.987151 -78.82 0.987151 -78.82 0.158524 -169.4
8.79210000 0.158631 -168.4 0.987134 -78.82 0.987134 -78.82 0.158628 -169.4
8.79211000 0.158735 -168.4 0.987118 -78.83 0.987118 -78.83 0.158731 -169.4
8.79212000 0.158838 -168.4 0.987101 -78.83 0.987101 -78.83 0.158835 -169.4
8.79213000 0.158942 -168.4 0.987083 -78.84 0.987083 -78.84 0.158939 -169.4
8.79214000 0.159046 -168.4 0.987066 -78.85 0.987066 -78.85 0.159043 -169.4
8.79215000 0.159150 -168.4 0.987049 -78.85 0.987049 -78.85 0.159147 -169.4
8.79216000 0.159255 -168.4 0.987032 -78.86 0.987032 -78.86 0.159251 -169.4
8.79217000 0.159359 -168.5 0.987015 -78.86 0.987015 -78.86 0.159356 -169.4
8.79218000 0.159464 -168.5 0.986998 -78.87 0.986998 -78.87 0.159461 -169.4
8.79219000 0.159569 -168.5 0.986981 -78.88 0.986981 -78.88 0.159566 -169.4
8.79220000 0.159674 -168.5 0.986963 -78.88 0.986963 -78.88 0.159671 -169.4
8.79221000 0.159779 -168.5 0.986946 -78.89 0.986946 -78.89 0.159776 -169.4
8.79222000 0.159884 -168.5 0.986928 -78.90 0.986928 -78.90 0.159881 -169.4
8.79223000 0.159990 -168.5 0.986911 -78.90 0.986911 -78.90 0.159987 -169.5
8.79224000 0.160095 -168.5 0.986894 -78.91 0.986894 -78.91 0.160092 -169.5
8.79225000 0.160201 -168.5 0.986876 -78.91 0.986876 -78.91 0.160198 -169.5
8.79226000 0.160307 -168.5 0.986859 -78.92 0.986859 -78.92 0.160304 -169.5
8.79227000 0.160414 -168.5 0.986841 -78.93 0.986841 -78.93 0.160410 -169.5
8.79228000 0.160520 -168.5 0.986823 -78.93 0.986823 -78.93 0.160517 -169.5
8.79229000 0.160626 -168.5 0.986806 -78.94 0.986806 -78.94 0.160623 -169.5
8.79230000 0.160733 -168.5 0.986788 -78.94 0.986788 -78.94 0.160730 -169.5
8.79231000 0.160840 -168.5 0.986770 -78.95 0.986770 -78.95 0.160837 -169.5
8.79232000 0.160947 -168.5 0.986752 -78.96 0.986752 -78.96 0.160944 -169.5
8.79233000 0.161054 -168.6 0.986735 -78.96 0.986735 -78.96 0.161051 -169.5
8.79234000 0.161162 -168.6 0.986717 -78.97 0.986717 -78.97 0.161158 -169.5
8.79235000 0.161269 -168.6 0.986699 -78.98 0.986699 -78.98 0.161266 -169.5
8.79236000 0.161377 -168.6 0.986681 -78.98 0.986681 -78.98 0.161374 -169.5
8.79237000 0.161485 -168.6 0.986663 -78.99 0.986663 -78.99 0.161481 -169.5
8.79238000 0.161593 -168.6 0.986645 -79.00 0.986645 -79.00 0.161590 -169.6
8.79239000 0.161701 -168.6 0.986627 -79.00 0.986627 -79.00 0.161698 -169.6
8.79240000 0.161809 -168.6 0.986609 -79.01 0.986609 -79.01 0.161806 -169.6
8.79241000 0.161918 -168.6 0.986591 -79.01 0.986591 -79.01 0.161915 -169.6
8.79242000 0.162027 -168.6 0.986572 -79.02 0.986572 -79.02 0.162024 -169.6
8.79243000 0.162136 -168.6 0.986554 -79.03 0.986554 -79.03 0.162132 -169.6
8.79244000 0.162245 -168.6 0.986536 -79.03 0.986536 -79.03 0.162242 -169.6
8.79245000 0.162354 -168.6 0.986518 -79.04 0.986518 -79.04 0.162351 -169.6
8.79246000 0.162464 -168.6 0.986499 -79.05 0.986499 -79.05 0.162460 -169.6
8.79247000 0.162573 -168.6 0.986481 -79.05 0.986481 -79.05 0.162570 -169.6
8.79248000 0.162683 -168.6 0.986462 -79.06 0.986462 -79.06 0.162680 -169.6
8.79249000 0.162793 -168.7 0.986444 -79.07 0.986444 -79.07 0.162790 -169.6
8.79250000 0.162903 -168.7 0.986425 -79.07 0.986425 -79.07 0.162900 -169.6
8.79251000 0.163014 -168.7 0.986407 -79.08 0.986407 -79.08 0.163010 -169.6
8.79252000 0.163124 -168.7 0.986388 -79.09 0.986388 -79.09 0.163121 -169.6
8.79253000 0.163235 -168.7 0.986370 -79.09 0.986370 -79.09 0.163231 -169.7
8.79254000 0.163346 -168.7 0.986351 -79.10 0.986351 -79.10 0.163342 -169.7
8.79255000 0.163457 -168.7 0.986332 -79.11 0.986332 -79.11 0.163453 -169.7
8.79256000 0.163568 -168.7 0.986313 -79.11 0.986313 -79.11 0.163565 -169.7
8.79257000 0.163679 -168.7 0.986294 -79.12 0.986294 -79.12 0.163676 -169.7
8.79258000 0.163791 -168.7 0.986276 -79.12 0.986276 -79.12 0.163788 -169.7
8.79259000 0.163903 -168.7 0.986257 -79.13 0.986257 -79.13 0.163900 -169.7
8.79260000 0.164015 -168.7 0.986238 -79.14 0.986238 -79.14 0.164011 -169.7
8.79261000 0.164127 -168.7 0.986219 -79.14 0.986219 -79.14 0.164124 -169.7
8.79262000 0.164239 -168.7 0.986200 -79.15 0.986200 -79.15 0.164236 -169.7
8.79263000 0.164352 -168.7 0.986181 -79.16 0.986181 -79.16 0.164348 -169.7
8.79264000 0.164465 -168.7 0.986161 -79.16 0.986161 -79.16 0.164461 -169.7
8.79265000 0.164577 -168.8 0.986142 -79.17 0.986142 -79.17 0.164574 -169.7
8.79266000 0.164691 -168.8 0.986123 -79.18 0.986123 -79.18 0.164687 -169.7
8.79267000 0.164804 -168.8 0.986104 -79.18 0.986104 -79.18 0.164800 -169.8
8.79268000 0.164917 -168.8 0.986084 -79.19 0.986084 -79.19 0.164914 -169.8
8.79269000 0.165031 -168.8 0.986065 -79.20 0.986065 -79.20 0.165028 -169.8
8.79270000 0.165145 -168.8 0.986046 -79.20 0.986046 -79.20 0.165141 -169.8
8.79271000 0.165259 -168.8 0.986026 -79.21 0.986026 -79.21 0.165255 -169.8
8.79272000 0.165373 -168.8 0.986007 -79.22 0.986007 -79.22 0.165370 -169.8
8.79273000 0.165487 -168.8 0.985987 -79.22 0.985987 -79.22 0.165484 -169.8
8.79274000 0.165602 -168.8 0.985967 -79.23 0.985967 -79.23 0.165598 -169.8
8.79275000 0.165717 -168.8 0.985948 -79.24 0.985948 -79.24 0.165713 -169.8
8.79276000 0.165832 -168.8 0.985928 -79.24 0.985928 -79.24 0.165828 -169.8
8.79277000 0.165947 -168.8 0.985908 -79.25 0.985908 -79.25 0.165943 -169.8
8.79278000 0.166062 -168.8 0.985889 -79.26 0.985889 -79.26 0.166059 -169.8
8.79279000 0.166178 -168.8 0.985869 -79.27 0.985869 -79.27 0.166174 -169.8
8.79280000 0.166293 -168.8 0.985849 -79.27 0.985849 -79.27 0.166290 -169.8
8.79281000 0.166409 -168.9 0.985829 -79.28 0.985829 -79.28 0.166406 -169.9
8.79282000 0.166525 -168.9 0.985809 -79.29 0.985809 -79.29 0.166522 -169.9
8.79283000 0.166642 -168.9 0.985789 -79.29 0.985789 -79.29 0.166638 -169.9
8.79284000 0.166758 -168.9 0.985769 -79.30 0.985769 -79.30 0.166755 -169.9
8.79285000 0.166875 -168.9 0.985749 -79.31 0.985749 -79.31 0.166871 -169.9
8.79286000 0.166992 -168.9 0.985729 -79.31 0.985729 -79.31 0.166988 -169.9
8.79287000 0.167109 -168.9 0.985708 -79.32 0.985708 -79.32 0.167105 -169.9
8.79288000 0.167226 -168.9 0.985688 -79.33 0.985688 -79.33 0.167223 -169.9
8.79289000 0.167343 -168.9 0.985668 -79.33 0.985668 -79.33 0.167340 -169.9
8.79290000 0.167461 -168.9 0.985647 -79.34 0.985647 -79.34 0.167458 -169.9
8.79291000 0.167579 -168.9 0.985627 -79.35 0.985627 -79.35 0.167575 -169.9
8.79292000 0.167697 -168.9 0.985607 -79.35 0.985607 -79.35 0.167694 -169.9
8.79293000 0.167815 -168.9 0.985586 -79.36 0.985586 -79.36 0.167812 -169.9
8.79294000 0.167934 -168.9 0.985566 -79.37 0.985566 -79.37 0.167930 -169.9
8.79295000 0.168052 -168.9 0.985545 -79.38 0.985545 -79.38 0.168049 -170.0
8.79296000 0.168171 -169.0 0.985524 -79.38 0.985524 -79.38 0.168168 -170.0
8.79297000 0.168290 -169.0 0.985504 -79.39 0.985504 -79.39 0.168287 -170.0
8.79298000 0.168409 -169.0 0.985483 -79.40 0.985483 -79.40 0.168406 -170.0
8.79299000 0.168529 -169.0 0.985462 -79.40 0.985462 -79.40 0.168525 -170.0
8.79300000 0.168649 -169.0 0.985441 -79.41 0.985441 -79.41 0.168645 -170.0
8.79301000 0.168768 -169.0 0.985420 -79.42 0.985420 -79.42 0.168765 -170.0
8.79302000 0.168888 -169.0 0.985399 -79.42 0.985399 -79.42 0.168885 -170.0
8.79303000 0.169009 -169.0 0.985378 -79.43 0.985378 -79.43 0.169005 -170.0
8.79304000 0.169129 -169.0 0.985357 -79.44 0.985357 -79.44 0.169126 -170.0
8.79305000 0.169250 -169.0 0.985336 -79.45 0.985336 -79.45 0.169246 -170.0
8.79306000 0.169371 -169.0 0.985315 -79.45 0.985315 -79.45 0.169367 -170.0
8.79307000 0.169492 -169.0 0.985294 -79.46 0.985294 -79.46 0.169488 -170.0
8.79308000 0.169613 -169.0 0.985272 -79.47 0.985272 -79.47 0.169609 -170.1
8.79309000 0.169734 -169.0 0.985251 -79.47 0.985251 -79.47 0.169731 -170.1
8.79310000 0.169856 -169.1 0.985230 -79.48 0.985230 -79.48 0.169853 -170.1
8.79311000 0.169978 -169.1 0.985208 -79.49 0.985208 -79.49 0.169974 -170.1
8.79312000 0.170100 -169.1 0.985187 -79.50 0.985187 -79.50 0.170097 -170.1
8.79313000 0.170222 -169.1 0.985165 -79.50 0.985165 -79.50 0.170219 -170.1
8.79314000 0.170345 -169.1 0.985144 -79.51 0.985144 -79.51 0.170341 -170.1
8.79315000 0.170468 -169.1 0.985122 -79.52 0.985122 -79.52 0.170464 -170.1
8.79316000 0.170591 -169.1 0.985100 -79.52 0.985100 -79.52 0.170587 -170.1
8.79317000 0.170714 -169.1 0.985079 -79.53 0.985079 -79.53 0.170710 -170.1
8.79318000 0.170837 -169.1 0.985057 -79.54 0.985057 -79.54 0.170833 -170.1
8.79319000 0.170961 -169.1 0.985035 -79.55 0.985035 -79.55 0.170957 -170.1
8.79320000 0.171084 -169.1 0.985013 -79.55 0.985013 -79.55 0.171081 -170.1
8.79321000 0.171208 -169.1 0.984991 -79.56 0.984991 -79.56 0.171205 -170.1
8.79322000 0.171333 -169.1 0.984969 -79.57 0.984969 -79.57 0.171329 -170.2
8.79323000 0.171457 -169.1 0.984947 -79.58 0.984947 -79.58 0.171453 -170.2
8.79324000 0.171582 -169.1 0.984925 -79.58 0.984925 -79.58 0.171578 -170.2
8.79325000 0.171706 -169.2 0.984903 -79.59 0.984903 -79.59 0.171703 -170.2
8.79326000 0.171831 -169.2 0.984881 -79.60 0.984881 -79.60 0.171828 -170.2
8.79327000 0.171957 -169.2 0.984858 -79.60 0.984858 -79.60 0.171953 -170.2
8.79328000 0.172082 -169.2 0.984836 -79.61 0.984836 -79.61 0.172079 -170.2
8.79329000 0.172208 -169.2 0.984814 -79.62 0.984814 -79.62 0.172204 -170.2
8.79330000 0.172334 -169.2 0.984791 -79.63 0.984791 -79.63 0.172330 -170.2
8.79331000 0.172460 -169.2 0.984769 -79.63 0.984769 -79.63 0.172456 -170.2
8.79332000 0.172586 -169.2 0.984746 -79.64 0.984746 -79.64 0.172583 -170.2
8.79333000 0.172713 -169.2 0.984724 -79.65 0.984724 -79.65 0.172709 -170.2
8.79334000 0.172840 -169.2 0.984701 -79.66 0.984701 -79.66 0.172836 -170.3
8.79335000 0.172967 -169.2 0.984678 -79.66 0.984678 -79.66 0.172963 -170.3
8.79336000 0.173094 -169.2 0.984655 -79.67 0.984655 -79.67 0.173090 -170.3
8.79337000 0.173221 -169.2 0.984633 -79.68 0.984633 -79.68 0.173218 -170.3
8.79338000 0.173349 -169.3 0.984610 -79.69 0.984610 -79.69 0.173345 -170.3
8.79339000 0.173477 -169.3 0.984587 -79.69 0.984587 -79.69 0.173473 -170.3
8.79340000 0.173605 -169.3 0.984564 -79.70 0.984564 -79.70 0.173601 -170.3
8.79341000 0.173733 -169.3 0.984541 -79.71 0.984541 -79.71 0.173730 -170.3
8.79342000 0.173862 -169.3 0.984517 -79.72 0.984517 -79.72 0.173858 -170.3
8.79343000 0.173991 -169.3 0.984494 -79.72 0.984494 -79.72 0.173987 -170.3
8.79344000 0.174120 -169.3 0.984471 -79.73 0.984471 -79.73 0.174116 -170.3
8.79345000 0.174249 -169.3 0.984448 -79.74 0.984448 -79.74 0.174245 -170.3
8.79346000 0.174378 -169.3 0.984424 -79.75 0.984424 -79.75 0.174375 -170.3
8.79347000 0.174508 -169.3 0.984401 -79.76 0.984401 -79.76 0.174504 -170.4
8.79348000 0.174638 -169.3 0.984377 -79.76 0.984377 -79.76 0.174634 -170.4
8.79349000 0.174768 -169.3 0.984354 -79.77 0.984354 -79.77 0.174765 -170.4
8.79350000 0.174899 -169.3 0.984330 -79.78 0.984330 -79.78 0.174895 -170.4
8.79351000 0.175029 -169.3 0.984307 -79.79 0.984307 -79.79 0.175025 -170.4
8.79352000 0.175160 -169.4 0.984283 -79.79 0.984283 -79.79 0.175156 -170.4
8.79353000 0.175291 -169.4 0.984259 -79.80 0.984259 -79.80 0.175287 -170.4
8.79354000 0.175422 -169.4 0.984235 -79.81 0.984235 -79.81 0.175419 -170.4
8.79355000 0.175554 -169.4 0.984211 -79.82 0.984211 -79.82 0.175550 -170.4
8.79356000 0.175686 -169.4 0.984188 -79.82 0.984188 -79.82 0.175682 -170.4
8.79357000 0.175818 -169.4 0.984163 -79.83 0.984163 -79.83 0.175814 -170.4
8.79358000 0.175950 -169.4 0.984139 -79.84 0.984139 -79.84 0.175946 -170.4
8.79359000 0.176082 -169.4 0.984115 -79.85 0.984115 -79.85 0.176079 -170.5
8.79360000 0.176215 -169.4 0.984091 -79.86 0.984091 -79.86 0.176211 -170.5
8.79361000 0.176348 -169.4 0.984067 -79.86 0.984067 -79.86 0.176344 -170.5
8.79362000 0.176481 -169.4 0.984042 -79.87 0.984042 -79.87 0.176477 -170.5
8.79363000 0.176614 -169.4 0.984018 -79.88 0.984018 -79.88 0.176611 -170.5
8.79364000 0.176748 -169.4 0.983994 -79.89 0.983994 -79.89 0.176744 -170.5
8.79365000 0.176882 -169.5 0.983969 -79.89 0.983969 -79.89 0.176878 -170.5
8.79366000 0.177016 -169.5 0.983945 -79.90 0.983945 -79.90 0.177012 -170.5
8.79367000 0.177150 -169.5 0.983920 -79.91 0.983920 -79.91 0.177147 -170.5
8.79368000 0.177285 -169.5 0.983895 -79.92 0.983895 -79.92 0.177281 -170.5
8.79369000 0.177420 -169.5 0.983870 -79.93 0.983870 -79.93 0.177416 -170.5
8.79370000 0.177555 -169.5 0.983846 -79.93 0.983846 -79.93 0.177551 -170.5
8.79371000 0.177690 -169.5 0.983821 -79.94 0.983821 -79.94 0.177686 -170.6
8.79372000 0.177826 -169.5 0.983796 -79.95 0.983796 -79.95 0.177822 -170.6
8.79373000 0.177962 -169.5 0.983771 -79.96 0.983771 -79.96 0.177958 -170.6
8.79374000 0.178098 -169.5 0.983746 -79.97 0.983746 -79.97 0.178094 -170.6
8.79375000 0.178234 -169.5 0.983720 -79.97 0.983720 -79.97 0.178230 -170.6
8.79376000 0.178370 -169.5 0.983695 -79.98 0.983695 -79.98 0.178367 -170.6
8.79377000 0.178507 -169.5 0.983670 -79.99 0.983670 -79.99 0.178503 -170.6
8.79378000 0.178644 -169.6 0.983645 -80.00 0.983645 -80.00 0.178640 -170.6
8.79379000 0.178781 -169.6 0.983619 -80.01 0.983619 -80.01 0.178778 -170.6
8.79380000 0.178919 -169.6 0.983594 -80.01 0.983594 -80.01 0.178915 -170.6
8.79381000 0.179057 -169.6 0.983568 -80.02 0.983568 -80.02 0.179053 -170.6
8.79382000 0.179195 -169.6 0.983543 -80.03 0.983543 -80.03 0.179191 -170.6
8.79383000 0.179333 -169.6 0.983517 -80.04 0.983517 -80.04 0.179329 -170.7
8.79384000 0.179471 -169.6 0.983491 -80.05 0.983491 -80.05 0.179468 -170.7
8.79385000 0.179610 -169.6 0.983465 -80.06 0.983465 -80.06 0.179606 -170.7
8.79386000 0.179749 -169.6 0.983439 -80.06 0.983439 -80.06 0.179745 -170.7
8.79387000 0.179888 -169.6 0.983413 -80.07 0.983413 -80.07 0.179885 -170.7
8.79388000 0.180028 -169.6 0.983387 -80.08 0.983387 -80.08 0.180024 -170.7
8.79389000 0.180168 -169.6 0.983361 -80.09 0.983361 -80.09 0.180164 -170.7
8.79390000 0.180308 -169.6 0.983335 -80.10 0.983335 -80.10 0.180304 -170.7
8.79391000 0.180448 -169.7 0.983309 -80.10 0.983309 -80.10 0.180444 -170.7
8.79392000 0.180589 -169.7 0.983283 -80.11 0.983283 -80.11 0.180585 -170.7