! Sonnet Data File
! From: emgraph Version : 16.52
! From Project: Qubit_Xmon2
! Data is De-embedded 
! Data File Written: 10/18/2017 11:36:09
!< HDATE 10/18/2017 10:24:37
!< MDATE 10/18/2017 10:24:37
!< PARAMS
!< Lj = 11.0
!< Gap = 16.0
!< Pwid = 2000.0
!< Airgap = 12.0
!< Width = 20.0
!< END PARAMS
# GHZ S MA R 40.13000
8.79000000 0.132952 -166.2 0.990972 -77.01 0.990972 -77.01 0.132950 -168.0
!< P1 F=8.79 Eeff=(4.99688633 -5.9225e-5) Z0=(38.486563 -1.2923e-4) R=0.0 C=0.0 
!< P2 F=8.79 Eeff=(4.99688633 -5.9225e-5) Z0=(38.486563 -1.2923e-4) R=0.0 C=0.0 
8.79001000 0.133028 -166.2 0.990962 -77.01 0.990962 -77.01 0.133026 -168.0
8.79002000 0.133104 -166.2 0.990951 -77.01 0.990951 -77.01 0.133102 -168.0
8.79003000 0.133180 -166.2 0.990941 -77.02 0.990941 -77.02 0.133178 -168.0
8.79004000 0.133257 -166.2 0.990930 -77.02 0.990930 -77.02 0.133255 -168.0
8.79005000 0.133333 -166.2 0.990920 -77.03 0.990920 -77.03 0.133331 -168.0
8.79006000 0.133410 -166.2 0.990909 -77.03 0.990909 -77.03 0.133408 -168.0
8.79007000 0.133486 -166.2 0.990899 -77.04 0.990899 -77.04 0.133484 -168.0
8.79008000 0.133563 -166.2 0.990888 -77.04 0.990888 -77.04 0.133561 -168.0
8.79009000 0.133640 -166.2 0.990878 -77.05 0.990878 -77.05 0.133638 -168.0
8.79010000 0.133717 -166.2 0.990867 -77.05 0.990867 -77.05 0.133715 -168.0
8.79011000 0.133794 -166.2 0.990856 -77.05 0.990856 -77.05 0.133792 -168.0
8.79012000 0.133871 -166.2 0.990846 -77.06 0.990846 -77.06 0.133869 -168.0
8.79013000 0.133949 -166.2 0.990835 -77.06 0.990835 -77.06 0.133947 -168.0
8.79014000 0.134026 -166.2 0.990824 -77.07 0.990824 -77.07 0.134024 -168.0
8.79015000 0.134104 -166.2 0.990814 -77.07 0.990814 -77.07 0.134102 -168.0
8.79016000 0.134182 -166.2 0.990803 -77.08 0.990803 -77.08 0.134180 -168.0
8.79017000 0.134259 -166.2 0.990792 -77.08 0.990792 -77.08 0.134257 -168.0
8.79018000 0.134337 -166.2 0.990781 -77.09 0.990781 -77.09 0.134335 -168.0
8.79019000 0.134415 -166.3 0.990771 -77.09 0.990771 -77.09 0.134413 -168.1
8.79020000 0.134494 -166.3 0.990760 -77.10 0.990760 -77.10 0.134492 -168.1
8.79021000 0.134572 -166.3 0.990749 -77.10 0.990749 -77.10 0.134570 -168.1
8.79022000 0.134650 -166.3 0.990738 -77.10 0.990738 -77.10 0.134648 -168.1
8.79023000 0.134729 -166.3 0.990727 -77.11 0.990727 -77.11 0.134727 -168.1
8.79024000 0.134808 -166.3 0.990716 -77.11 0.990716 -77.11 0.134805 -168.1
8.79025000 0.134886 -166.3 0.990705 -77.12 0.990705 -77.12 0.134884 -168.1
8.79026000 0.134965 -166.3 0.990694 -77.12 0.990694 -77.12 0.134963 -168.1
8.79027000 0.135044 -166.3 0.990683 -77.13 0.990683 -77.13 0.135042 -168.1
8.79028000 0.135123 -166.3 0.990672 -77.13 0.990672 -77.13 0.135121 -168.1
8.79029000 0.135203 -166.3 0.990661 -77.14 0.990661 -77.14 0.135200 -168.1
8.79030000 0.135282 -166.3 0.990650 -77.14 0.990650 -77.14 0.135280 -168.1
8.79031000 0.135361 -166.3 0.990639 -77.15 0.990639 -77.15 0.135359 -168.1
8.79032000 0.135441 -166.3 0.990628 -77.15 0.990628 -77.15 0.135439 -168.1
8.79033000 0.135521 -166.3 0.990617 -77.16 0.990617 -77.16 0.135519 -168.1
8.79034000 0.135601 -166.3 0.990606 -77.16 0.990606 -77.16 0.135598 -168.1
8.79035000 0.135681 -166.3 0.990594 -77.17 0.990594 -77.17 0.135678 -168.1
8.79036000 0.135761 -166.3 0.990583 -77.17 0.990583 -77.17 0.135759 -168.1
8.79037000 0.135841 -166.3 0.990572 -77.18 0.990572 -77.18 0.135839 -168.1
8.79038000 0.135921 -166.3 0.990561 -77.18 0.990561 -77.18 0.135919 -168.1
8.79039000 0.136002 -166.3 0.990550 -77.18 0.990550 -77.18 0.136000 -168.2
8.79040000 0.136082 -166.3 0.990538 -77.19 0.990538 -77.19 0.136080 -168.2
8.79041000 0.136163 -166.4 0.990527 -77.19 0.990527 -77.19 0.136161 -168.2
8.79042000 0.136244 -166.4 0.990516 -77.20 0.990516 -77.20 0.136242 -168.2
8.79043000 0.136325 -166.4 0.990504 -77.20 0.990504 -77.20 0.136323 -168.2
8.79044000 0.136406 -166.4 0.990493 -77.21 0.990493 -77.21 0.136404 -168.2
8.79045000 0.136487 -166.4 0.990481 -77.21 0.990481 -77.21 0.136485 -168.2
8.79046000 0.136568 -166.4 0.990470 -77.22 0.990470 -77.22 0.136566 -168.2
8.79047000 0.136650 -166.4 0.990458 -77.22 0.990458 -77.22 0.136648 -168.2
8.79048000 0.136731 -166.4 0.990447 -77.23 0.990447 -77.23 0.136729 -168.2
8.79049000 0.136813 -166.4 0.990435 -77.23 0.990435 -77.23 0.136811 -168.2
8.79050000 0.136895 -166.4 0.990424 -77.24 0.990424 -77.24 0.136893 -168.2
8.79051000 0.136977 -166.4 0.990412 -77.24 0.990412 -77.24 0.136975 -168.2
8.79052000 0.137059 -166.4 0.990401 -77.25 0.990401 -77.25 0.137057 -168.2
8.79053000 0.137141 -166.4 0.990389 -77.25 0.990389 -77.25 0.137139 -168.2
8.79054000 0.137224 -166.4 0.990377 -77.26 0.990377 -77.26 0.137221 -168.2
8.79055000 0.137306 -166.4 0.990366 -77.26 0.990366 -77.26 0.137304 -168.2
8.79056000 0.137389 -166.4 0.990354 -77.27 0.990354 -77.27 0.137387 -168.2
8.79057000 0.137471 -166.4 0.990342 -77.27 0.990342 -77.27 0.137469 -168.2
8.79058000 0.137554 -166.4 0.990331 -77.28 0.990331 -77.28 0.137552 -168.2
8.79059000 0.137637 -166.4 0.990319 -77.28 0.990319 -77.28 0.137635 -168.3
8.79060000 0.137720 -166.4 0.990307 -77.29 0.990307 -77.29 0.137718 -168.3
8.79061000 0.137804 -166.4 0.990295 -77.29 0.990295 -77.29 0.137801 -168.3
8.79062000 0.137887 -166.4 0.990283 -77.30 0.990283 -77.30 0.137885 -168.3
8.79063000 0.137971 -166.5 0.990271 -77.30 0.990271 -77.30 0.137968 -168.3
8.79064000 0.138054 -166.5 0.990260 -77.31 0.990260 -77.31 0.138052 -168.3
8.79065000 0.138138 -166.5 0.990248 -77.31 0.990248 -77.31 0.138136 -168.3
8.79066000 0.138222 -166.5 0.990236 -77.32 0.990236 -77.32 0.138220 -168.3
8.79067000 0.138306 -166.5 0.990224 -77.32 0.990224 -77.32 0.138304 -168.3
8.79068000 0.138390 -166.5 0.990212 -77.32 0.990212 -77.32 0.138388 -168.3
8.79069000 0.138474 -166.5 0.990200 -77.33 0.990200 -77.33 0.138472 -168.3
8.79070000 0.138559 -166.5 0.990188 -77.33 0.990188 -77.33 0.138556 -168.3
8.79071000 0.138643 -166.5 0.990176 -77.34 0.990176 -77.34 0.138641 -168.3
8.79072000 0.138728 -166.5 0.990163 -77.34 0.990163 -77.34 0.138726 -168.3
8.79073000 0.138813 -166.5 0.990151 -77.35 0.990151 -77.35 0.138811 -168.3
8.79074000 0.138898 -166.5 0.990139 -77.35 0.990139 -77.35 0.138895 -168.3
8.79075000 0.138983 -166.5 0.990127 -77.36 0.990127 -77.36 0.138981 -168.3
8.79076000 0.139068 -166.5 0.990115 -77.36 0.990115 -77.36 0.139066 -168.3
8.79077000 0.139153 -166.5 0.990102 -77.37 0.990102 -77.37 0.139151 -168.3
8.79078000 0.139239 -166.5 0.990090 -77.37 0.990090 -77.37 0.139237 -168.4
8.79079000 0.139324 -166.5 0.990078 -77.38 0.990078 -77.38 0.139322 -168.4
8.79080000 0.139410 -166.5 0.990066 -77.38 0.990066 -77.38 0.139408 -168.4
8.79081000 0.139496 -166.5 0.990053 -77.39 0.990053 -77.39 0.139494 -168.4
8.79082000 0.139582 -166.5 0.990041 -77.40 0.990041 -77.40 0.139580 -168.4
8.79083000 0.139668 -166.5 0.990028 -77.40 0.990028 -77.40 0.139666 -168.4
8.79084000 0.139755 -166.6 0.990016 -77.41 0.990016 -77.41 0.139752 -168.4
8.79085000 0.139841 -166.6 0.990003 -77.41 0.990003 -77.41 0.139839 -168.4
8.79086000 0.139928 -166.6 0.989991 -77.42 0.989991 -77.42 0.139925 -168.4
8.79087000 0.140014 -166.6 0.989978 -77.42 0.989978 -77.42 0.140012 -168.4
8.79088000 0.140101 -166.6 0.989966 -77.43 0.989966 -77.43 0.140099 -168.4
8.79089000 0.140188 -166.6 0.989953 -77.43 0.989953 -77.43 0.140186 -168.4
8.79090000 0.140275 -166.6 0.989941 -77.44 0.989941 -77.44 0.140273 -168.4
8.79091000 0.140363 -166.6 0.989928 -77.44 0.989928 -77.44 0.140360 -168.4
8.79092000 0.140450 -166.6 0.989915 -77.45 0.989915 -77.45 0.140448 -168.4
8.79093000 0.140537 -166.6 0.989903 -77.45 0.989903 -77.45 0.140535 -168.4
8.79094000 0.140625 -166.6 0.989890 -77.46 0.989890 -77.46 0.140623 -168.4
8.79095000 0.140713 -166.6 0.989877 -77.46 0.989877 -77.46 0.140711 -168.4
8.79096000 0.140801 -166.6 0.989865 -77.47 0.989865 -77.47 0.140799 -168.5
8.79097000 0.140889 -166.6 0.989852 -77.47 0.989852 -77.47 0.140887 -168.5
8.79098000 0.140977 -166.6 0.989839 -77.48 0.989839 -77.48 0.140975 -168.5
8.79099000 0.141066 -166.6 0.989826 -77.48 0.989826 -77.48 0.141063 -168.5
8.79100000 0.141154 -166.6 0.989813 -77.49 0.989813 -77.49 0.141152 -168.5
8.79101000 0.141243 -166.6 0.989800 -77.49 0.989800 -77.49 0.141241 -168.5
8.79102000 0.141332 -166.6 0.989787 -77.50 0.989787 -77.50 0.141329 -168.5
8.79103000 0.141421 -166.6 0.989774 -77.50 0.989774 -77.50 0.141418 -168.5
8.79104000 0.141510 -166.7 0.989761 -77.51 0.989761 -77.51 0.141507 -168.5
8.79105000 0.141599 -166.7 0.989748 -77.51 0.989748 -77.51 0.141597 -168.5
8.79106000 0.141688 -166.7 0.989735 -77.52 0.989735 -77.52 0.141686 -168.5
8.79107000 0.141778 -166.7 0.989722 -77.52 0.989722 -77.52 0.141776 -168.5
8.79108000 0.141868 -166.7 0.989709 -77.53 0.989709 -77.53 0.141865 -168.5
8.79109000 0.141957 -166.7 0.989696 -77.53 0.989696 -77.53 0.141955 -168.5
8.79110000 0.142047 -166.7 0.989683 -77.54 0.989683 -77.54 0.142045 -168.5
8.79111000 0.142137 -166.7 0.989669 -77.55 0.989669 -77.55 0.142135 -168.5
8.79112000 0.142228 -166.7 0.989656 -77.55 0.989656 -77.55 0.142225 -168.5
8.79113000 0.142318 -166.7 0.989643 -77.56 0.989643 -77.56 0.142316 -168.5
8.79114000 0.142409 -166.7 0.989630 -77.56 0.989630 -77.56 0.142406 -168.6
8.79115000 0.142499 -166.7 0.989616 -77.57 0.989616 -77.57 0.142497 -168.6
8.79116000 0.142590 -166.7 0.989603 -77.57 0.989603 -77.57 0.142588 -168.6
8.79117000 0.142681 -166.7 0.989589 -77.58 0.989589 -77.58 0.142679 -168.6
8.79118000 0.142772 -166.7 0.989576 -77.58 0.989576 -77.58 0.142770 -168.6
8.79119000 0.142864 -166.7 0.989563 -77.59 0.989563 -77.59 0.142861 -168.6
8.79120000 0.142955 -166.7 0.989549 -77.59 0.989549 -77.59 0.142953 -168.6
8.79121000 0.143047 -166.7 0.989536 -77.60 0.989536 -77.60 0.143044 -168.6
8.79122000 0.143138 -166.7 0.989522 -77.60 0.989522 -77.60 0.143136 -168.6
8.79123000 0.143230 -166.8 0.989508 -77.61 0.989508 -77.61 0.143228 -168.6
8.79124000 0.143322 -166.8 0.989495 -77.61 0.989495 -77.61 0.143320 -168.6
8.79125000 0.143414 -166.8 0.989481 -77.62 0.989481 -77.62 0.143412 -168.6
8.79126000 0.143507 -166.8 0.989468 -77.63 0.989468 -77.63 0.143504 -168.6
8.79127000 0.143599 -166.8 0.989454 -77.63 0.989454 -77.63 0.143597 -168.6
8.79128000 0.143692 -166.8 0.989440 -77.64 0.989440 -77.64 0.143689 -168.6
8.79129000 0.143785 -166.8 0.989426 -77.64 0.989426 -77.64 0.143782 -168.6
8.79130000 0.143878 -166.8 0.989413 -77.65 0.989413 -77.65 0.143875 -168.6
8.79131000 0.143971 -166.8 0.989399 -77.65 0.989399 -77.65 0.143968 -168.6
8.79132000 0.144064 -166.8 0.989385 -77.66 0.989385 -77.66 0.144062 -168.7
8.79133000 0.144157 -166.8 0.989371 -77.66 0.989371 -77.66 0.144155 -168.7
8.79134000 0.144251 -166.8 0.989357 -77.67 0.989357 -77.67 0.144248 -168.7
8.79135000 0.144345 -166.8 0.989343 -77.68 0.989343 -77.68 0.144342 -168.7
8.79136000 0.144438 -166.8 0.989329 -77.68 0.989329 -77.68 0.144436 -168.7
8.79137000 0.144532 -166.8 0.989315 -77.69 0.989315 -77.69 0.144530 -168.7
8.79138000 0.144627 -166.8 0.989301 -77.69 0.989301 -77.69 0.144624 -168.7
8.79139000 0.144721 -166.8 0.989287 -77.70 0.989287 -77.70 0.144719 -168.7
8.79140000 0.144815 -166.8 0.989273 -77.70 0.989273 -77.70 0.144813 -168.7
8.79141000 0.144910 -166.8 0.989259 -77.71 0.989259 -77.71 0.144908 -168.7
8.79142000 0.145005 -166.9 0.989244 -77.71 0.989244 -77.71 0.145002 -168.7
8.79143000 0.145100 -166.9 0.989230 -77.72 0.989230 -77.72 0.145097 -168.7
8.79144000 0.145195 -166.9 0.989216 -77.72 0.989216 -77.72 0.145193 -168.7
8.79145000 0.145290 -166.9 0.989202 -77.73 0.989202 -77.73 0.145288 -168.7
8.79146000 0.145386 -166.9 0.989187 -77.74 0.989187 -77.74 0.145383 -168.7
8.79147000 0.145481 -166.9 0.989173 -77.74 0.989173 -77.74 0.145479 -168.7
8.79148000 0.145577 -166.9 0.989159 -77.75 0.989159 -77.75 0.145575 -168.7
8.79149000 0.145673 -166.9 0.989144 -77.75 0.989144 -77.75 0.145670 -168.8
8.79150000 0.145769 -166.9 0.989130 -77.76 0.989130 -77.76 0.145766 -168.8
8.79151000 0.145865 -166.9 0.989115 -77.76 0.989115 -77.76 0.145863 -168.8
8.79152000 0.145961 -166.9 0.989101 -77.77 0.989101 -77.77 0.145959 -168.8
8.79153000 0.146058 -166.9 0.989086 -77.78 0.989086 -77.78 0.146056 -168.8
8.79154000 0.146155 -166.9 0.989072 -77.78 0.989072 -77.78 0.146152 -168.8
8.79155000 0.146252 -166.9 0.989057 -77.79 0.989057 -77.79 0.146249 -168.8
8.79156000 0.146349 -166.9 0.989042 -77.79 0.989042 -77.79 0.146346 -168.8
8.79157000 0.146446 -166.9 0.989028 -77.80 0.989028 -77.80 0.146443 -168.8
8.79158000 0.146543 -166.9 0.989013 -77.80 0.989013 -77.80 0.146541 -168.8
8.79159000 0.146641 -166.9 0.988998 -77.81 0.988998 -77.81 0.146638 -168.8
8.79160000 0.146738 -167.0 0.988983 -77.82 0.988983 -77.82 0.146736 -168.8
8.79161000 0.146836 -167.0 0.988968 -77.82 0.988968 -77.82 0.146834 -168.8
8.79162000 0.146934 -167.0 0.988954 -77.83 0.988954 -77.83 0.146932 -168.8
8.79163000 0.147032 -167.0 0.988939 -77.83 0.988939 -77.83 0.147030 -168.8
8.79164000 0.147131 -167.0 0.988924 -77.84 0.988924 -77.84 0.147128 -168.8
8.79165000 0.147229 -167.0 0.988909 -77.84 0.988909 -77.84 0.147227 -168.9
8.79166000 0.147328 -167.0 0.988894 -77.85 0.988894 -77.85 0.147326 -168.9
8.79167000 0.147427 -167.0 0.988879 -77.86 0.988879 -77.86 0.147424 -168.9
8.79168000 0.147526 -167.0 0.988864 -77.86 0.988864 -77.86 0.147523 -168.9
8.79169000 0.147625 -167.0 0.988848 -77.87 0.988848 -77.87 0.147623 -168.9
8.79170000 0.147724 -167.0 0.988833 -77.87 0.988833 -77.87 0.147722 -168.9
8.79171000 0.147824 -167.0 0.988818 -77.88 0.988818 -77.88 0.147821 -168.9
8.79172000 0.147924 -167.0 0.988803 -77.89 0.988803 -77.89 0.147921 -168.9
8.79173000 0.148023 -167.0 0.988788 -77.89 0.988788 -77.89 0.148021 -168.9
8.79174000 0.148123 -167.0 0.988772 -77.90 0.988772 -77.90 0.148121 -168.9
8.79175000 0.148224 -167.0 0.988757 -77.90 0.988757 -77.90 0.148221 -168.9
8.79176000 0.148324 -167.0 0.988742 -77.91 0.988742 -77.91 0.148322 -168.9
8.79177000 0.148425 -167.0 0.988726 -77.91 0.988726 -77.91 0.148422 -168.9
8.79178000 0.148525 -167.1 0.988711 -77.92 0.988711 -77.92 0.148523 -168.9
8.79179000 0.148626 -167.1 0.988695 -77.93 0.988695 -77.93 0.148624 -168.9
8.79180000 0.148727 -167.1 0.988680 -77.93 0.988680 -77.93 0.148725 -168.9
8.79181000 0.148828 -167.1 0.988664 -77.94 0.988664 -77.94 0.148826 -169.0
8.79182000 0.148930 -167.1 0.988649 -77.94 0.988649 -77.94 0.148927 -169.0
8.79183000 0.149031 -167.1 0.988633 -77.95 0.988633 -77.95 0.149029 -169.0
8.79184000 0.149133 -167.1 0.988617 -77.96 0.988617 -77.96 0.149131 -169.0
8.79185000 0.149235 -167.1 0.988601 -77.96 0.988601 -77.96 0.149233 -169.0
8.79186000 0.149337 -167.1 0.988586 -77.97 0.988586 -77.97 0.149335 -169.0
8.79187000 0.149439 -167.1 0.988570 -77.97 0.988570 -77.97 0.149437 -169.0
8.79188000 0.149542 -167.1 0.988554 -77.98 0.988554 -77.98 0.149539 -169.0
8.79189000 0.149645 -167.1 0.988538 -77.99 0.988538 -77.99 0.149642 -169.0
8.79190000 0.149747 -167.1 0.988522 -77.99 0.988522 -77.99 0.149745 -169.0
8.79191000 0.149850 -167.1 0.988506 -78.00 0.988506 -78.00 0.149848 -169.0
8.79192000 0.149953 -167.1 0.988490 -78.00 0.988490 -78.00 0.149951 -169.0
8.79193000 0.150057 -167.1 0.988474 -78.01 0.988474 -78.01 0.150054 -169.0
8.79194000 0.150160 -167.1 0.988458 -78.02 0.988458 -78.02 0.150158 -169.0
8.79195000 0.150264 -167.2 0.988442 -78.02 0.988442 -78.02 0.150262 -169.0
8.79196000 0.150368 -167.2 0.988426 -78.03 0.988426 -78.03 0.150365 -169.0
8.79197000 0.150472 -167.2 0.988410 -78.03 0.988410 -78.03 0.150469 -169.1
8.79198000 0.150576 -167.2 0.988394 -78.04 0.988394 -78.04 0.150574 -169.1
8.79199000 0.150681 -167.2 0.988377 -78.05 0.988377 -78.05 0.150678 -169.1
8.79200000 0.150785 -167.2 0.988361 -78.05 0.988361 -78.05 0.150783 -169.1
8.79201000 0.150890 -167.2 0.988345 -78.06 0.988345 -78.06 0.150888 -169.1
8.79202000 0.150995 -167.2 0.988328 -78.07 0.988328 -78.07 0.150992 -169.1
8.79203000 0.151100 -167.2 0.988312 -78.07 0.988312 -78.07 0.151098 -169.1
8.79204000 0.151205 -167.2 0.988296 -78.08 0.988296 -78.08 0.151203 -169.1
8.79205000 0.151311 -167.2 0.988279 -78.08 0.988279 -78.08 0.151308 -169.1
8.79206000 0.151417 -167.2 0.988262 -78.09 0.988262 -78.09 0.151414 -169.1
8.79207000 0.151523 -167.2 0.988246 -78.10 0.988246 -78.10 0.151520 -169.1
8.79208000 0.151629 -167.2 0.988229 -78.10 0.988229 -78.10 0.151626 -169.1
8.79209000 0.151735 -167.2 0.988213 -78.11 0.988213 -78.11 0.151732 -169.1
8.79210000 0.151841 -167.2 0.988196 -78.12 0.988196 -78.12 0.151839 -169.1
8.79211000 0.151948 -167.3 0.988179 -78.12 0.988179 -78.12 0.151945 -169.1
8.79212000 0.152055 -167.3 0.988162 -78.13 0.988162 -78.13 0.152052 -169.1
8.79213000 0.152162 -167.3 0.988146 -78.13 0.988146 -78.13 0.152159 -169.2
8.79214000 0.152269 -167.3 0.988129 -78.14 0.988129 -78.14 0.152266 -169.2
8.79215000 0.152376 -167.3 0.988112 -78.15 0.988112 -78.15 0.152374 -169.2
8.79216000 0.152484 -167.3 0.988095 -78.15 0.988095 -78.15 0.152481 -169.2
8.79217000 0.152592 -167.3 0.988078 -78.16 0.988078 -78.16 0.152589 -169.2
8.79218000 0.152700 -167.3 0.988061 -78.17 0.988061 -78.17 0.152697 -169.2
8.79219000 0.152808 -167.3 0.988044 -78.17 0.988044 -78.17 0.152805 -169.2
8.79220000 0.152916 -167.3 0.988027 -78.18 0.988027 -78.18 0.152914 -169.2
8.79221000 0.153025 -167.3 0.988009 -78.18 0.988009 -78.18 0.153022 -169.2
8.79222000 0.153133 -167.3 0.987992 -78.19 0.987992 -78.19 0.153131 -169.2
8.79223000 0.153242 -167.3 0.987975 -78.20 0.987975 -78.20 0.153240 -169.2
8.79224000 0.153351 -167.3 0.987958 -78.20 0.987958 -78.20 0.153349 -169.2
8.79225000 0.153461 -167.3 0.987940 -78.21 0.987940 -78.21 0.153458 -169.2
8.79226000 0.153570 -167.3 0.987923 -78.22 0.987923 -78.22 0.153568 -169.2
8.79227000 0.153680 -167.3 0.987905 -78.22 0.987905 -78.22 0.153677 -169.3
8.79228000 0.153790 -167.4 0.987888 -78.23 0.987888 -78.23 0.153787 -169.3
8.79229000 0.153900 -167.4 0.987870 -78.24 0.987870 -78.24 0.153897 -169.3
8.79230000 0.154010 -167.4 0.987853 -78.24 0.987853 -78.24 0.154008 -169.3
8.79231000 0.154121 -167.4 0.987835 -78.25 0.987835 -78.25 0.154118 -169.3
8.79232000 0.154231 -167.4 0.987818 -78.26 0.987818 -78.26 0.154229 -169.3
8.79233000 0.154342 -167.4 0.987800 -78.26 0.987800 -78.26 0.154340 -169.3
8.79234000 0.154453 -167.4 0.987782 -78.27 0.987782 -78.27 0.154451 -169.3
8.79235000 0.154564 -167.4 0.987764 -78.28 0.987764 -78.28 0.154562 -169.3
8.79236000 0.154676 -167.4 0.987747 -78.28 0.987747 -78.28 0.154673 -169.3
8.79237000 0.154788 -167.4 0.987729 -78.29 0.987729 -78.29 0.154785 -169.3
8.79238000 0.154899 -167.4 0.987711 -78.29 0.987711 -78.29 0.154897 -169.3
8.79239000 0.155011 -167.4 0.987693 -78.30 0.987693 -78.30 0.155009 -169.3
8.79240000 0.155124 -167.4 0.987675 -78.31 0.987675 -78.31 0.155121 -169.3
8.79241000 0.155236 -167.4 0.987657 -78.31 0.987657 -78.31 0.155234 -169.3
8.79242000 0.155349 -167.4 0.987639 -78.32 0.987639 -78.32 0.155346 -169.4
8.79243000 0.155462 -167.5 0.987620 -78.33 0.987620 -78.33 0.155459 -169.4
8.79244000 0.155575 -167.5 0.987602 -78.33 0.987602 -78.33 0.155572 -169.4
8.79245000 0.155688 -167.5 0.987584 -78.34 0.987584 -78.34 0.155686 -169.4
8.79246000 0.155802 -167.5 0.987566 -78.35 0.987566 -78.35 0.155799 -169.4
8.79247000 0.155915 -167.5 0.987547 -78.35 0.987547 -78.35 0.155913 -169.4
8.79248000 0.156029 -167.5 0.987529 -78.36 0.987529 -78.36 0.156027 -169.4
8.79249000 0.156143 -167.5 0.987511 -78.37 0.987511 -78.37 0.156141 -169.4
8.79250000 0.156258 -167.5 0.987492 -78.37 0.987492 -78.37 0.156255 -169.4
8.79251000 0.156372 -167.5 0.987474 -78.38 0.987474 -78.38 0.156370 -169.4
8.79252000 0.156487 -167.5 0.987455 -78.39 0.987455 -78.39 0.156484 -169.4
8.79253000 0.156602 -167.5 0.987436 -78.39 0.987436 -78.39 0.156599 -169.4
8.79254000 0.156717 -167.5 0.987418 -78.40 0.987418 -78.40 0.156714 -169.4
8.79255000 0.156832 -167.5 0.987399 -78.41 0.987399 -78.41 0.156830 -169.4
8.79256000 0.156948 -167.5 0.987380 -78.42 0.987380 -78.42 0.156945 -169.5
8.79257000 0.157064 -167.5 0.987361 -78.42 0.987361 -78.42 0.157061 -169.5
8.79258000 0.157180 -167.5 0.987343 -78.43 0.987343 -78.43 0.157177 -169.5
8.79259000 0.157296 -167.6 0.987324 -78.44 0.987324 -78.44 0.157293 -169.5
8.79260000 0.157412 -167.6 0.987305 -78.44 0.987305 -78.44 0.157410 -169.5
8.79261000 0.157529 -167.6 0.987286 -78.45 0.987286 -78.45 0.157526 -169.5
8.79262000 0.157646 -167.6 0.987267 -78.46 0.987267 -78.46 0.157643 -169.5
8.79263000 0.157763 -167.6 0.987247 -78.46 0.987247 -78.46 0.157760 -169.5
8.79264000 0.157880 -167.6 0.987228 -78.47 0.987228 -78.47 0.157878 -169.5
8.79265000 0.157998 -167.6 0.987209 -78.48 0.987209 -78.48 0.157995 -169.5
8.79266000 0.158115 -167.6 0.987190 -78.48 0.987190 -78.48 0.158113 -169.5
8.79267000 0.158233 -167.6 0.987171 -78.49 0.987171 -78.49 0.158231 -169.5
8.79268000 0.158351 -167.6 0.987151 -78.50 0.987151 -78.50 0.158349 -169.5
8.79269000 0.158470 -167.6 0.987132 -78.50 0.987132 -78.50 0.158467 -169.5
8.79270000 0.158588 -167.6 0.987112 -78.51 0.987112 -78.51 0.158586 -169.6
8.79271000 0.158707 -167.6 0.987093 -78.52 0.987093 -78.52 0.158705 -169.6
8.79272000 0.158826 -167.6 0.987073 -78.53 0.987073 -78.53 0.158824 -169.6
8.79273000 0.158945 -167.7 0.987054 -78.53 0.987054 -78.53 0.158943 -169.6
8.79274000 0.159065 -167.7 0.987034 -78.54 0.987034 -78.54 0.159062 -169.6
8.79275000 0.159185 -167.7 0.987014 -78.55 0.987014 -78.55 0.159182 -169.6
8.79276000 0.159305 -167.7 0.986994 -78.55 0.986994 -78.55 0.159302 -169.6
8.79277000 0.159425 -167.7 0.986975 -78.56 0.986975 -78.56 0.159422 -169.6
8.79278000 0.159545 -167.7 0.986955 -78.57 0.986955 -78.57 0.159542 -169.6
8.79279000 0.159666 -167.7 0.986935 -78.57 0.986935 -78.57 0.159663 -169.6
8.79280000 0.159786 -167.7 0.986915 -78.58 0.986915 -78.58 0.159784 -169.6
8.79281000 0.159907 -167.7 0.986895 -78.59 0.986895 -78.59 0.159905 -169.6
8.79282000 0.160029 -167.7 0.986875 -78.60 0.986875 -78.60 0.160026 -169.6
8.79283000 0.160150 -167.7 0.986855 -78.60 0.986855 -78.60 0.160147 -169.6
8.79284000 0.160272 -167.7 0.986834 -78.61 0.986834 -78.61 0.160269 -169.7
8.79285000 0.160394 -167.7 0.986814 -78.62 0.986814 -78.62 0.160391 -169.7
8.79286000 0.160516 -167.7 0.986794 -78.62 0.986794 -78.62 0.160513 -169.7
8.79287000 0.160638 -167.7 0.986773 -78.63 0.986773 -78.63 0.160636 -169.7
8.79288000 0.160761 -167.8 0.986753 -78.64 0.986753 -78.64 0.160758 -169.7
8.79289000 0.160884 -167.8 0.986733 -78.65 0.986733 -78.65 0.160881 -169.7
8.79290000 0.161007 -167.8 0.986712 -78.65 0.986712 -78.65 0.161004 -169.7
8.79291000 0.161130 -167.8 0.986691 -78.66 0.986691 -78.66 0.161128 -169.7
8.79292000 0.161254 -167.8 0.986671 -78.67 0.986671 -78.67 0.161251 -169.7
8.79293000 0.161378 -167.8 0.986650 -78.68 0.986650 -78.68 0.161375 -169.7
8.79294000 0.161502 -167.8 0.986629 -78.68 0.986629 -78.68 0.161499 -169.7
8.79295000 0.161626 -167.8 0.986609 -78.69 0.986609 -78.69 0.161623 -169.7
8.79296000 0.161750 -167.8 0.986588 -78.70 0.986588 -78.70 0.161748 -169.7
8.79297000 0.161875 -167.8 0.986567 -78.70 0.986567 -78.70 0.161872 -169.8
8.79298000 0.162000 -167.8 0.986546 -78.71 0.986546 -78.71 0.161997 -169.8
8.79299000 0.162125 -167.8 0.986525 -78.72 0.986525 -78.72 0.162123 -169.8
8.79300000 0.162251 -167.8 0.986504 -78.73 0.986504 -78.73 0.162248 -169.8
8.79301000 0.162376 -167.8 0.986483 -78.73 0.986483 -78.73 0.162374 -169.8
8.79302000 0.162502 -167.9 0.986461 -78.74 0.986461 -78.74 0.162500 -169.8
8.79303000 0.162629 -167.9 0.986440 -78.75 0.986440 -78.75 0.162626 -169.8
8.79304000 0.162755 -167.9 0.986419 -78.76 0.986419 -78.76 0.162752 -169.8
8.79305000 0.162882 -167.9 0.986398 -78.76 0.986398 -78.76 0.162879 -169.8
8.79306000 0.163008 -167.9 0.986376 -78.77 0.986376 -78.77 0.163006 -169.8
8.79307000 0.163136 -167.9 0.986355 -78.78 0.986355 -78.78 0.163133 -169.8
8.79308000 0.163263 -167.9 0.986333 -78.79 0.986333 -78.79 0.163260 -169.8
8.79309000 0.163391 -167.9 0.986311 -78.79 0.986311 -78.79 0.163388 -169.8
8.79310000 0.163518 -167.9 0.986290 -78.80 0.986290 -78.80 0.163516 -169.9
8.79311000 0.163647 -167.9 0.986268 -78.81 0.986268 -78.81 0.163644 -169.9
8.79312000 0.163775 -167.9 0.986246 -78.82 0.986246 -78.82 0.163772 -169.9
8.79313000 0.163903 -167.9 0.986224 -78.82 0.986224 -78.82 0.163901 -169.9
8.79314000 0.164032 -167.9 0.986203 -78.83 0.986203 -78.83 0.164029 -169.9
8.79315000 0.164161 -168.0 0.986181 -78.84 0.986181 -78.84 0.164159 -169.9
8.79316000 0.164291 -168.0 0.986159 -78.85 0.986159 -78.85 0.164288 -169.9
8.79317000 0.164420 -168.0 0.986137 -78.85 0.986137 -78.85 0.164417 -169.9
8.79318000 0.164550 -168.0 0.986114 -78.86 0.986114 -78.86 0.164547 -169.9
8.79319000 0.164680 -168.0 0.986092 -78.87 0.986092 -78.87 0.164677 -169.9
8.79320000 0.164811 -168.0 0.986070 -78.88 0.986070 -78.88 0.164808 -169.9
8.79321000 0.164941 -168.0 0.986048 -78.88 0.986048 -78.88 0.164938 -169.9
8.79322000 0.165072 -168.0 0.986025 -78.89 0.986025 -78.89 0.165069 -170.0
8.79323000 0.165203 -168.0 0.986003 -78.90 0.986003 -78.90 0.165200 -170.0
8.79324000 0.165335 -168.0 0.985980 -78.91 0.985980 -78.91 0.165332 -170.0
8.79325000 0.165466 -168.0 0.985958 -78.92 0.985958 -78.92 0.165463 -170.0
8.79326000 0.165598 -168.0 0.985935 -78.92 0.985935 -78.92 0.165595 -170.0
8.79327000 0.165730 -168.0 0.985912 -78.93 0.985912 -78.93 0.165727 -170.0
8.79328000 0.165863 -168.0 0.985890 -78.94 0.985890 -78.94 0.165860 -170.0
8.79329000 0.165995 -168.1 0.985867 -78.95 0.985867 -78.95 0.165992 -170.0
8.79330000 0.166128 -168.1 0.985844 -78.95 0.985844 -78.95 0.166125 -170.0
8.79331000 0.166261 -168.1 0.985821 -78.96 0.985821 -78.96 0.166258 -170.0
8.79332000 0.166395 -168.1 0.985798 -78.97 0.985798 -78.97 0.166392 -170.0
8.79333000 0.166528 -168.1 0.985775 -78.98 0.985775 -78.98 0.166525 -170.0
8.79334000 0.166662 -168.1 0.985752 -78.99 0.985752 -78.99 0.166659 -170.0
8.79335000 0.166796 -168.1 0.985728 -78.99 0.985728 -78.99 0.166794 -170.1
8.79336000 0.166931 -168.1 0.985705 -79.00 0.985705 -79.00 0.166928 -170.1
8.79337000 0.167066 -168.1 0.985682 -79.01 0.985682 -79.01 0.167063 -170.1
8.79338000 0.167201 -168.1 0.985658 -79.02 0.985658 -79.02 0.167198 -170.1
8.79339000 0.167336 -168.1 0.985635 -79.03 0.985635 -79.03 0.167333 -170.1
8.79340000 0.167472 -168.1 0.985611 -79.03 0.985611 -79.03 0.167469 -170.1
8.79341000 0.167607 -168.1 0.985588 -79.04 0.985588 -79.04 0.167604 -170.1
8.79342000 0.167743 -168.2 0.985564 -79.05 0.985564 -79.05 0.167740 -170.1
8.79343000 0.167880 -168.2 0.985540 -79.06 0.985540 -79.06 0.167877 -170.1
8.79344000 0.168016 -168.2 0.985517 -79.07 0.985517 -79.07 0.168013 -170.1
8.79345000 0.168153 -168.2 0.985493 -79.07 0.985493 -79.07 0.168150 -170.1
8.79346000 0.168290 -168.2 0.985469 -79.08 0.985469 -79.08 0.168287 -170.1
8.79347000 0.168428 -168.2 0.985445 -79.09 0.985445 -79.09 0.168425 -170.2
8.79348000 0.168566 -168.2 0.985421 -79.10 0.985421 -79.10 0.168563 -170.2
8.79349000 0.168704 -168.2 0.985397 -79.11 0.985397 -79.11 0.168701 -170.2
8.79350000 0.168842 -168.2 0.985372 -79.11 0.985372 -79.11 0.168839 -170.2
8.79351000 0.168980 -168.2 0.985348 -79.12 0.985348 -79.12 0.168977 -170.2
8.79352000 0.169119 -168.2 0.985324 -79.13 0.985324 -79.13 0.169116 -170.2
8.79353000 0.169258 -168.2 0.985299 -79.14 0.985299 -79.14 0.169255 -170.2
8.79354000 0.169398 -168.3 0.985275 -79.15 0.985275 -79.15 0.169395 -170.2
8.79355000 0.169537 -168.3 0.985250 -79.15 0.985250 -79.15 0.169534 -170.2
8.79356000 0.169677 -168.3 0.985226 -79.16 0.985226 -79.16 0.169674 -170.2
8.79357000 0.169817 -168.3 0.985201 -79.17 0.985201 -79.17 0.169814 -170.2
8.79358000 0.169958 -168.3 0.985176 -79.18 0.985176 -79.18 0.169955 -170.3
8.79359000 0.170099 -168.3 0.985151 -79.19 0.985151 -79.19 0.170096 -170.3
8.79360000 0.170240 -168.3 0.985127 -79.20 0.985127 -79.20 0.170237 -170.3
8.79361000 0.170381 -168.3 0.985102 -79.20 0.985102 -79.20 0.170378 -170.3
8.79362000 0.170523 -168.3 0.985076 -79.21 0.985076 -79.21 0.170520 -170.3
8.79363000 0.170664 -168.3 0.985051 -79.22 0.985051 -79.22 0.170661 -170.3
8.79364000 0.170807 -168.3 0.985026 -79.23 0.985026 -79.23 0.170804 -170.3
8.79365000 0.170949 -168.3 0.985001 -79.24 0.985001 -79.24 0.170946 -170.3
8.79366000 0.171092 -168.4 0.984976 -79.25 0.984976 -79.25 0.171089 -170.3
8.79367000 0.171235 -168.4 0.984950 -79.25 0.984950 -79.25 0.171232 -170.3
8.79368000 0.171378 -168.4 0.984925 -79.26 0.984925 -79.26 0.171375 -170.3
8.79369000 0.171522 -168.4 0.984899 -79.27 0.984899 -79.27 0.171519 -170.3
8.79370000 0.171666 -168.4 0.984873 -79.28 0.984873 -79.28 0.171663 -170.4
8.79371000 0.171810 -168.4 0.984848 -79.29 0.984848 -79.29 0.171807 -170.4
8.79372000 0.171955 -168.4 0.984822 -79.30 0.984822 -79.30 0.171952 -170.4
8.79373000 0.172099 -168.4 0.984796 -79.30 0.984796 -79.30 0.172096 -170.4
8.79374000 0.172244 -168.4 0.984770 -79.31 0.984770 -79.31 0.172241 -170.4
8.79375000 0.172390 -168.4 0.984744 -79.32 0.984744 -79.32 0.172387 -170.4
8.79376000 0.172536 -168.4 0.984718 -79.33 0.984718 -79.33 0.172532 -170.4
8.79377000 0.172682 -168.4 0.984692 -79.34 0.984692 -79.34 0.172678 -170.4
8.79378000 0.172828 -168.5 0.984666 -79.35 0.984666 -79.35 0.172825 -170.4
8.79379000 0.172974 -168.5 0.984639 -79.36 0.984639 -79.36 0.172971 -170.4
8.79380000 0.173121 -168.5 0.984613 -79.36 0.984613 -79.36 0.173118 -170.4
8.79381000 0.173268 -168.5 0.984586 -79.37 0.984586 -79.37 0.173265 -170.5
8.79382000 0.173416 -168.5 0.984560 -79.38 0.984560 -79.38 0.173413 -170.5
8.79383000 0.173564 -168.5 0.984533 -79.39 0.984533 -79.39 0.173561 -170.5
8.79384000 0.173712 -168.5 0.984507 -79.40 0.984507 -79.40 0.173709 -170.5
8.79385000 0.173860 -168.5 0.984480 -79.41 0.984480 -79.41 0.173857 -170.5
8.79386000 0.174009 -168.5 0.984453 -79.42 0.984453 -79.42 0.174006 -170.5
8.79387000 0.174158 -168.5 0.984426 -79.43 0.984426 -79.43 0.174155 -170.5
8.79388000 0.174307 -168.5 0.984399 -79.43 0.984399 -79.43 0.174304 -170.5
8.79389000 0.174457 -168.5 0.984372 -79.44 0.984372 -79.44 0.174454 -170.5
8.79390000 0.174607 -168.6 0.984345 -79.45 0.984345 -79.45 0.174604 -170.5
8.79391000 0.174757 -168.6 0.984317 -79.46 0.984317 -79.46 0.174754 -170.5
8.79392000 0.174908 -168.6 0.984290 -79.47 0.984290 -79.47 0.174905 -170.6