! Sonnet Data File
! From: emgraph Version : 16.52
! From Project: Qubit_Xmon2
! Data is De-embedded 
! Data File Written: 10/18/2017 16:48:16
!< HDATE 10/18/2017 14:47:42
!< MDATE 10/18/2017 14:47:42
!< PARAMS
!< Lj = 11.0
!< Gap = 6.0
!< Pwid = 2000.0
!< Airgap = 30.0
!< Width = 50.0
!< END PARAMS
# GHZ S MA R 45.30000
8.79000000 0.078802 -163.6 0.996785 -74.23 0.996785 -74.23 0.078801 -165.0
!< P1 F=8.79 Eeff=(4.74953887 -6.4479e-5) Z0=(45.1259111 -2.0732e-4) R=0.0 C=0.0 
!< P2 F=8.79 Eeff=(4.74953887 -6.4479e-5) Z0=(45.1259111 -2.0732e-4) R=0.0 C=0.0 
8.79001000 0.078854 -163.6 0.996781 -74.24 0.996781 -74.24 0.078853 -165.1
8.79002000 0.078907 -163.6 0.996777 -74.24 0.996777 -74.24 0.078906 -165.1
8.79003000 0.078959 -163.6 0.996772 -74.24 0.996772 -74.24 0.078958 -165.1
8.79004000 0.079011 -163.6 0.996768 -74.24 0.996768 -74.24 0.079010 -165.1
8.79005000 0.079064 -163.6 0.996764 -74.25 0.996764 -74.25 0.079063 -165.1
8.79006000 0.079116 -163.6 0.996759 -74.25 0.996759 -74.25 0.079115 -165.1
8.79007000 0.079169 -163.6 0.996755 -74.25 0.996755 -74.25 0.079168 -165.1
8.79008000 0.079221 -163.6 0.996751 -74.26 0.996751 -74.26 0.079220 -165.1
8.79009000 0.079274 -163.6 0.996747 -74.26 0.996747 -74.26 0.079273 -165.1
8.79010000 0.079327 -163.6 0.996742 -74.26 0.996742 -74.26 0.079326 -165.1
8.79011000 0.079379 -163.6 0.996738 -74.27 0.996738 -74.27 0.079379 -165.1
8.79012000 0.079432 -163.6 0.996734 -74.27 0.996734 -74.27 0.079431 -165.1
8.79013000 0.079485 -163.6 0.996729 -74.27 0.996729 -74.27 0.079484 -165.1
8.79014000 0.079538 -163.6 0.996725 -74.28 0.996725 -74.28 0.079537 -165.1
8.79015000 0.079591 -163.6 0.996721 -74.28 0.996721 -74.28 0.079591 -165.1
8.79016000 0.079645 -163.6 0.996716 -74.28 0.996716 -74.28 0.079644 -165.1
8.79017000 0.079698 -163.6 0.996712 -74.29 0.996712 -74.29 0.079697 -165.1
8.79018000 0.079751 -163.6 0.996707 -74.29 0.996707 -74.29 0.079750 -165.1
8.79019000 0.079804 -163.6 0.996703 -74.29 0.996703 -74.29 0.079803 -165.1
8.79020000 0.079858 -163.6 0.996699 -74.29 0.996699 -74.29 0.079857 -165.1
8.79021000 0.079911 -163.6 0.996694 -74.30 0.996694 -74.30 0.079910 -165.1
8.79022000 0.079965 -163.6 0.996690 -74.30 0.996690 -74.30 0.079964 -165.1
8.79023000 0.080018 -163.6 0.996685 -74.30 0.996685 -74.30 0.080017 -165.1
8.79024000 0.080072 -163.6 0.996681 -74.31 0.996681 -74.31 0.080071 -165.1
8.79025000 0.080126 -163.6 0.996676 -74.31 0.996676 -74.31 0.080125 -165.1
8.79026000 0.080180 -163.6 0.996672 -74.31 0.996672 -74.31 0.080179 -165.1
8.79027000 0.080233 -163.6 0.996668 -74.32 0.996668 -74.32 0.080233 -165.1
8.79028000 0.080287 -163.6 0.996663 -74.32 0.996663 -74.32 0.080287 -165.1
8.79029000 0.080341 -163.6 0.996659 -74.32 0.996659 -74.32 0.080341 -165.1
8.79030000 0.080396 -163.6 0.996654 -74.33 0.996654 -74.33 0.080395 -165.1
8.79031000 0.080450 -163.6 0.996650 -74.33 0.996650 -74.33 0.080449 -165.2
8.79032000 0.080504 -163.6 0.996645 -74.33 0.996645 -74.33 0.080503 -165.2
8.79033000 0.080558 -163.7 0.996641 -74.34 0.996641 -74.34 0.080557 -165.2
8.79034000 0.080613 -163.7 0.996636 -74.34 0.996636 -74.34 0.080612 -165.2
8.79035000 0.080667 -163.7 0.996632 -74.34 0.996632 -74.34 0.080666 -165.2
8.79036000 0.080721 -163.7 0.996627 -74.35 0.996627 -74.35 0.080721 -165.2
8.79037000 0.080776 -163.7 0.996622 -74.35 0.996622 -74.35 0.080775 -165.2
8.79038000 0.080831 -163.7 0.996618 -74.35 0.996618 -74.35 0.080830 -165.2
8.79039000 0.080885 -163.7 0.996613 -74.36 0.996613 -74.36 0.080884 -165.2
8.79040000 0.080940 -163.7 0.996609 -74.36 0.996609 -74.36 0.080939 -165.2
8.79041000 0.080995 -163.7 0.996604 -74.36 0.996604 -74.36 0.080994 -165.2
8.79042000 0.081050 -163.7 0.996600 -74.36 0.996600 -74.36 0.081049 -165.2
8.79043000 0.081105 -163.7 0.996595 -74.37 0.996595 -74.37 0.081104 -165.2
8.79044000 0.081160 -163.7 0.996590 -74.37 0.996590 -74.37 0.081159 -165.2
8.79045000 0.081215 -163.7 0.996586 -74.37 0.996586 -74.37 0.081214 -165.2
8.79046000 0.081270 -163.7 0.996581 -74.38 0.996581 -74.38 0.081269 -165.2
8.79047000 0.081325 -163.7 0.996576 -74.38 0.996576 -74.38 0.081324 -165.2
8.79048000 0.081381 -163.7 0.996572 -74.38 0.996572 -74.38 0.081380 -165.2
8.79049000 0.081436 -163.7 0.996567 -74.39 0.996567 -74.39 0.081435 -165.2
8.79050000 0.081492 -163.7 0.996562 -74.39 0.996562 -74.39 0.081491 -165.2
8.79051000 0.081547 -163.7 0.996558 -74.39 0.996558 -74.39 0.081546 -165.2
8.79052000 0.081603 -163.7 0.996553 -74.40 0.996553 -74.40 0.081602 -165.2
8.79053000 0.081658 -163.7 0.996548 -74.40 0.996548 -74.40 0.081657 -165.2
8.79054000 0.081714 -163.7 0.996544 -74.40 0.996544 -74.40 0.081713 -165.2
8.79055000 0.081770 -163.7 0.996539 -74.41 0.996539 -74.41 0.081769 -165.2
8.79056000 0.081826 -163.7 0.996534 -74.41 0.996534 -74.41 0.081825 -165.2
8.79057000 0.081882 -163.7 0.996530 -74.41 0.996530 -74.41 0.081881 -165.2
8.79058000 0.081938 -163.7 0.996525 -74.42 0.996525 -74.42 0.081937 -165.2
8.79059000 0.081994 -163.7 0.996520 -74.42 0.996520 -74.42 0.081993 -165.2
8.79060000 0.082050 -163.7 0.996515 -74.42 0.996515 -74.42 0.082049 -165.3
8.79061000 0.082106 -163.7 0.996511 -74.43 0.996511 -74.43 0.082105 -165.3
8.79062000 0.082163 -163.7 0.996506 -74.43 0.996506 -74.43 0.082162 -165.3
8.79063000 0.082219 -163.7 0.996501 -74.43 0.996501 -74.43 0.082218 -165.3
8.79064000 0.082275 -163.7 0.996496 -74.44 0.996496 -74.44 0.082275 -165.3
8.79065000 0.082332 -163.8 0.996491 -74.44 0.996491 -74.44 0.082331 -165.3
8.79066000 0.082389 -163.8 0.996487 -74.44 0.996487 -74.44 0.082388 -165.3
8.79067000 0.082445 -163.8 0.996482 -74.45 0.996482 -74.45 0.082444 -165.3
8.79068000 0.082502 -163.8 0.996477 -74.45 0.996477 -74.45 0.082501 -165.3
8.79069000 0.082559 -163.8 0.996472 -74.45 0.996472 -74.45 0.082558 -165.3
8.79070000 0.082616 -163.8 0.996467 -74.46 0.996467 -74.46 0.082615 -165.3
8.79071000 0.082673 -163.8 0.996462 -74.46 0.996462 -74.46 0.082672 -165.3
8.79072000 0.082730 -163.8 0.996457 -74.46 0.996457 -74.46 0.082729 -165.3
8.79073000 0.082787 -163.8 0.996453 -74.47 0.996453 -74.47 0.082786 -165.3
8.79074000 0.082844 -163.8 0.996448 -74.47 0.996448 -74.47 0.082843 -165.3
8.79075000 0.082901 -163.8 0.996443 -74.47 0.996443 -74.47 0.082900 -165.3
8.79076000 0.082959 -163.8 0.996438 -74.48 0.996438 -74.48 0.082958 -165.3
8.79077000 0.083016 -163.8 0.996433 -74.48 0.996433 -74.48 0.083015 -165.3
8.79078000 0.083074 -163.8 0.996428 -74.48 0.996428 -74.48 0.083073 -165.3
8.79079000 0.083131 -163.8 0.996423 -74.49 0.996423 -74.49 0.083130 -165.3
8.79080000 0.083189 -163.8 0.996418 -74.49 0.996418 -74.49 0.083188 -165.3
8.79081000 0.083247 -163.8 0.996413 -74.49 0.996413 -74.49 0.083246 -165.3
8.79082000 0.083304 -163.8 0.996408 -74.50 0.996408 -74.50 0.083303 -165.3
8.79083000 0.083362 -163.8 0.996403 -74.50 0.996403 -74.50 0.083361 -165.3
8.79084000 0.083420 -163.8 0.996398 -74.50 0.996398 -74.50 0.083419 -165.3
8.79085000 0.083478 -163.8 0.996393 -74.51 0.996393 -74.51 0.083477 -165.3
8.79086000 0.083536 -163.8 0.996388 -74.51 0.996388 -74.51 0.083535 -165.3
8.79087000 0.083594 -163.8 0.996383 -74.51 0.996383 -74.51 0.083594 -165.3
8.79088000 0.083653 -163.8 0.996378 -74.52 0.996378 -74.52 0.083652 -165.4
8.79089000 0.083711 -163.8 0.996373 -74.52 0.996373 -74.52 0.083710 -165.4
8.79090000 0.083769 -163.8 0.996368 -74.52 0.996368 -74.52 0.083768 -165.4
8.79091000 0.083828 -163.8 0.996363 -74.53 0.996363 -74.53 0.083827 -165.4
8.79092000 0.083886 -163.8 0.996358 -74.53 0.996358 -74.53 0.083886 -165.4
8.79093000 0.083945 -163.8 0.996353 -74.54 0.996353 -74.54 0.083944 -165.4
8.79094000 0.084004 -163.8 0.996348 -74.54 0.996348 -74.54 0.084003 -165.4
8.79095000 0.084063 -163.9 0.996343 -74.54 0.996343 -74.54 0.084062 -165.4
8.79096000 0.084121 -163.9 0.996338 -74.55 0.996338 -74.55 0.084120 -165.4
8.79097000 0.084180 -163.9 0.996332 -74.55 0.996332 -74.55 0.084179 -165.4
8.79098000 0.084239 -163.9 0.996327 -74.55 0.996327 -74.55 0.084238 -165.4
8.79099000 0.084298 -163.9 0.996322 -74.56 0.996322 -74.56 0.084297 -165.4
8.79100000 0.084358 -163.9 0.996317 -74.56 0.996317 -74.56 0.084357 -165.4
8.79101000 0.084417 -163.9 0.996312 -74.56 0.996312 -74.56 0.084416 -165.4
8.79102000 0.084476 -163.9 0.996307 -74.57 0.996307 -74.57 0.084475 -165.4
8.79103000 0.084536 -163.9 0.996302 -74.57 0.996302 -74.57 0.084535 -165.4
8.79104000 0.084595 -163.9 0.996296 -74.57 0.996296 -74.57 0.084594 -165.4
8.79105000 0.084655 -163.9 0.996291 -74.58 0.996291 -74.58 0.084654 -165.4
8.79106000 0.084714 -163.9 0.996286 -74.58 0.996286 -74.58 0.084713 -165.4
8.79107000 0.084774 -163.9 0.996281 -74.58 0.996281 -74.58 0.084773 -165.4
8.79108000 0.084834 -163.9 0.996275 -74.59 0.996275 -74.59 0.084833 -165.4
8.79109000 0.084894 -163.9 0.996270 -74.59 0.996270 -74.59 0.084893 -165.4
8.79110000 0.084954 -163.9 0.996265 -74.59 0.996265 -74.59 0.084953 -165.4
8.79111000 0.085014 -163.9 0.996260 -74.60 0.996260 -74.60 0.085013 -165.4
8.79112000 0.085074 -163.9 0.996254 -74.60 0.996254 -74.60 0.085073 -165.4
8.79113000 0.085134 -163.9 0.996249 -74.61 0.996249 -74.61 0.085133 -165.4
8.79114000 0.085194 -163.9 0.996244 -74.61 0.996244 -74.61 0.085193 -165.4
8.79115000 0.085254 -163.9 0.996239 -74.61 0.996239 -74.61 0.085254 -165.4
8.79116000 0.085315 -163.9 0.996233 -74.62 0.996233 -74.62 0.085314 -165.5
8.79117000 0.085375 -163.9 0.996228 -74.62 0.996228 -74.62 0.085374 -165.5
8.79118000 0.085436 -163.9 0.996223 -74.62 0.996223 -74.62 0.085435 -165.5
8.79119000 0.085497 -163.9 0.996217 -74.63 0.996217 -74.63 0.085496 -165.5
8.79120000 0.085557 -163.9 0.996212 -74.63 0.996212 -74.63 0.085556 -165.5
8.79121000 0.085618 -163.9 0.996206 -74.63 0.996206 -74.63 0.085617 -165.5
8.79122000 0.085679 -163.9 0.996201 -74.64 0.996201 -74.64 0.085678 -165.5
8.79123000 0.085740 -163.9 0.996196 -74.64 0.996196 -74.64 0.085739 -165.5
8.79124000 0.085801 -164.0 0.996190 -74.64 0.996190 -74.64 0.085800 -165.5
8.79125000 0.085862 -164.0 0.996185 -74.65 0.996185 -74.65 0.085861 -165.5
8.79126000 0.085924 -164.0 0.996179 -74.65 0.996179 -74.65 0.085923 -165.5
8.79127000 0.085985 -164.0 0.996174 -74.66 0.996174 -74.66 0.085984 -165.5
8.79128000 0.086046 -164.0 0.996168 -74.66 0.996168 -74.66 0.086045 -165.5
8.79129000 0.086108 -164.0 0.996163 -74.66 0.996163 -74.66 0.086107 -165.5
8.79130000 0.086169 -164.0 0.996158 -74.67 0.996158 -74.67 0.086168 -165.5
8.79131000 0.086231 -164.0 0.996152 -74.67 0.996152 -74.67 0.086230 -165.5
8.79132000 0.086293 -164.0 0.996147 -74.67 0.996147 -74.67 0.086292 -165.5
8.79133000 0.086355 -164.0 0.996141 -74.68 0.996141 -74.68 0.086354 -165.5
8.79134000 0.086416 -164.0 0.996135 -74.68 0.996135 -74.68 0.086415 -165.5
8.79135000 0.086478 -164.0 0.996130 -74.68 0.996130 -74.68 0.086477 -165.5
8.79136000 0.086540 -164.0 0.996124 -74.69 0.996124 -74.69 0.086540 -165.5
8.79137000 0.086603 -164.0 0.996119 -74.69 0.996119 -74.69 0.086602 -165.5
8.79138000 0.086665 -164.0 0.996113 -74.70 0.996113 -74.70 0.086664 -165.5
8.79139000 0.086727 -164.0 0.996108 -74.70 0.996108 -74.70 0.086726 -165.5
8.79140000 0.086790 -164.0 0.996102 -74.70 0.996102 -74.70 0.086789 -165.5
8.79141000 0.086852 -164.0 0.996097 -74.71 0.996097 -74.71 0.086851 -165.5
8.79142000 0.086915 -164.0 0.996091 -74.71 0.996091 -74.71 0.086914 -165.6
8.79143000 0.086977 -164.0 0.996085 -74.71 0.996085 -74.71 0.086976 -165.6
8.79144000 0.087040 -164.0 0.996080 -74.72 0.996080 -74.72 0.087039 -165.6
8.79145000 0.087103 -164.0 0.996074 -74.72 0.996074 -74.72 0.087102 -165.6
8.79146000 0.087166 -164.0 0.996068 -74.72 0.996068 -74.72 0.087165 -165.6
8.79147000 0.087229 -164.0 0.996063 -74.73 0.996063 -74.73 0.087228 -165.6
8.79148000 0.087292 -164.0 0.996057 -74.73 0.996057 -74.73 0.087291 -165.6
8.79149000 0.087355 -164.0 0.996051 -74.74 0.996051 -74.74 0.087354 -165.6
8.79150000 0.087418 -164.0 0.996046 -74.74 0.996046 -74.74 0.087417 -165.6
8.79151000 0.087482 -164.0 0.996040 -74.74 0.996040 -74.74 0.087481 -165.6
8.79152000 0.087545 -164.1 0.996034 -74.75 0.996034 -74.75 0.087544 -165.6
8.79153000 0.087608 -164.1 0.996028 -74.75 0.996028 -74.75 0.087607 -165.6
8.79154000 0.087672 -164.1 0.996023 -74.75 0.996023 -74.75 0.087671 -165.6
8.79155000 0.087736 -164.1 0.996017 -74.76 0.996017 -74.76 0.087735 -165.6
8.79156000 0.087799 -164.1 0.996011 -74.76 0.996011 -74.76 0.087799 -165.6
8.79157000 0.087863 -164.1 0.996005 -74.77 0.996005 -74.77 0.087862 -165.6
8.79158000 0.087927 -164.1 0.995999 -74.77 0.995999 -74.77 0.087926 -165.6
8.79159000 0.087991 -164.1 0.995994 -74.77 0.995994 -74.77 0.087990 -165.6
8.79160000 0.088055 -164.1 0.995988 -74.78 0.995988 -74.78 0.088054 -165.6
8.79161000 0.088120 -164.1 0.995982 -74.78 0.995982 -74.78 0.088119 -165.6
8.79162000 0.088184 -164.1 0.995976 -74.78 0.995976 -74.78 0.088183 -165.6
8.79163000 0.088248 -164.1 0.995970 -74.79 0.995970 -74.79 0.088247 -165.6
8.79164000 0.088313 -164.1 0.995964 -74.79 0.995964 -74.79 0.088312 -165.6
8.79165000 0.088377 -164.1 0.995958 -74.80 0.995958 -74.80 0.088376 -165.6
8.79166000 0.088442 -164.1 0.995953 -74.80 0.995953 -74.80 0.088441 -165.6
8.79167000 0.088507 -164.1 0.995947 -74.80 0.995947 -74.80 0.088506 -165.7
8.79168000 0.088571 -164.1 0.995941 -74.81 0.995941 -74.81 0.088570 -165.7
8.79169000 0.088636 -164.1 0.995935 -74.81 0.995935 -74.81 0.088635 -165.7
8.79170000 0.088701 -164.1 0.995929 -74.81 0.995929 -74.81 0.088700 -165.7
8.79171000 0.088766 -164.1 0.995923 -74.82 0.995923 -74.82 0.088765 -165.7
8.79172000 0.088832 -164.1 0.995917 -74.82 0.995917 -74.82 0.088831 -165.7
8.79173000 0.088897 -164.1 0.995911 -74.83 0.995911 -74.83 0.088896 -165.7
8.79174000 0.088962 -164.1 0.995905 -74.83 0.995905 -74.83 0.088961 -165.7
8.79175000 0.089028 -164.1 0.995899 -74.83 0.995899 -74.83 0.089027 -165.7
8.79176000 0.089093 -164.1 0.995893 -74.84 0.995893 -74.84 0.089092 -165.7
8.79177000 0.089159 -164.1 0.995887 -74.84 0.995887 -74.84 0.089158 -165.7
8.79178000 0.089225 -164.1 0.995881 -74.85 0.995881 -74.85 0.089224 -165.7
8.79179000 0.089290 -164.2 0.995875 -74.85 0.995875 -74.85 0.089289 -165.7
8.79180000 0.089356 -164.2 0.995869 -74.85 0.995869 -74.85 0.089355 -165.7
8.79181000 0.089422 -164.2 0.995862 -74.86 0.995862 -74.86 0.089421 -165.7
8.79182000 0.089488 -164.2 0.995856 -74.86 0.995856 -74.86 0.089487 -165.7
8.79183000 0.089555 -164.2 0.995850 -74.87 0.995850 -74.87 0.089554 -165.7
8.79184000 0.089621 -164.2 0.995844 -74.87 0.995844 -74.87 0.089620 -165.7
8.79185000 0.089687 -164.2 0.995838 -74.87 0.995838 -74.87 0.089686 -165.7
8.79186000 0.089754 -164.2 0.995832 -74.88 0.995832 -74.88 0.089753 -165.7
8.79187000 0.089820 -164.2 0.995826 -74.88 0.995826 -74.88 0.089819 -165.7
8.79188000 0.089887 -164.2 0.995819 -74.88 0.995819 -74.88 0.089886 -165.7
8.79189000 0.089954 -164.2 0.995813 -74.89 0.995813 -74.89 0.089953 -165.7
8.79190000 0.090020 -164.2 0.995807 -74.89 0.995807 -74.89 0.090019 -165.7
8.79191000 0.090087 -164.2 0.995801 -74.90 0.995801 -74.90 0.090086 -165.7
8.79192000 0.090154 -164.2 0.995795 -74.90 0.995795 -74.90 0.090153 -165.8
8.79193000 0.090221 -164.2 0.995788 -74.90 0.995788 -74.90 0.090220 -165.8
8.79194000 0.090289 -164.2 0.995782 -74.91 0.995782 -74.91 0.090288 -165.8
8.79195000 0.090356 -164.2 0.995776 -74.91 0.995776 -74.91 0.090355 -165.8
8.79196000 0.090423 -164.2 0.995770 -74.92 0.995770 -74.92 0.090422 -165.8
8.79197000 0.090491 -164.2 0.995763 -74.92 0.995763 -74.92 0.090490 -165.8
8.79198000 0.090558 -164.2 0.995757 -74.92 0.995757 -74.92 0.090557 -165.8
8.79199000 0.090626 -164.2 0.995751 -74.93 0.995751 -74.93 0.090625 -165.8
8.79200000 0.090694 -164.2 0.995744 -74.93 0.995744 -74.93 0.090693 -165.8
8.79201000 0.090762 -164.2 0.995738 -74.94 0.995738 -74.94 0.090761 -165.8
8.79202000 0.090830 -164.2 0.995731 -74.94 0.995731 -74.94 0.090829 -165.8
8.79203000 0.090898 -164.2 0.995725 -74.94 0.995725 -74.94 0.090897 -165.8
8.79204000 0.090966 -164.2 0.995719 -74.95 0.995719 -74.95 0.090965 -165.8
8.79205000 0.091034 -164.3 0.995712 -74.95 0.995712 -74.95 0.091033 -165.8
8.79206000 0.091102 -164.3 0.995706 -74.96 0.995706 -74.96 0.091101 -165.8
8.79207000 0.091171 -164.3 0.995699 -74.96 0.995699 -74.96 0.091170 -165.8
8.79208000 0.091239 -164.3 0.995693 -74.96 0.995693 -74.96 0.091238 -165.8
8.79209000 0.091308 -164.3 0.995686 -74.97 0.995686 -74.97 0.091307 -165.8
8.79210000 0.091377 -164.3 0.995680 -74.97 0.995680 -74.97 0.091376 -165.8
8.79211000 0.091445 -164.3 0.995673 -74.98 0.995673 -74.98 0.091444 -165.8
8.79212000 0.091514 -164.3 0.995667 -74.98 0.995667 -74.98 0.091513 -165.8
8.79213000 0.091583 -164.3 0.995660 -74.98 0.995660 -74.98 0.091582 -165.8
8.79214000 0.091653 -164.3 0.995654 -74.99 0.995654 -74.99 0.091652 -165.8
8.79215000 0.091722 -164.3 0.995647 -74.99 0.995647 -74.99 0.091721 -165.8
8.79216000 0.091791 -164.3 0.995641 -75.00 0.995641 -75.00 0.091790 -165.9
8.79217000 0.091860 -164.3 0.995634 -75.00 0.995634 -75.00 0.091859 -165.9
8.79218000 0.091930 -164.3 0.995628 -75.00 0.995628 -75.00 0.091929 -165.9
8.79219000 0.092000 -164.3 0.995621 -75.01 0.995621 -75.01 0.091999 -165.9
8.79220000 0.092069 -164.3 0.995614 -75.01 0.995614 -75.01 0.092068 -165.9
8.79221000 0.092139 -164.3 0.995608 -75.02 0.995608 -75.02 0.092138 -165.9
8.79222000 0.092209 -164.3 0.995601 -75.02 0.995601 -75.02 0.092208 -165.9
8.79223000 0.092279 -164.3 0.995594 -75.02 0.995594 -75.02 0.092278 -165.9
8.79224000 0.092349 -164.3 0.995588 -75.03 0.995588 -75.03 0.092348 -165.9
8.79225000 0.092419 -164.3 0.995581 -75.03 0.995581 -75.03 0.092418 -165.9
8.79226000 0.092490 -164.3 0.995574 -75.04 0.995574 -75.04 0.092489 -165.9
8.79227000 0.092560 -164.3 0.995568 -75.04 0.995568 -75.04 0.092559 -165.9
8.79228000 0.092631 -164.3 0.995561 -75.05 0.995561 -75.05 0.092630 -165.9
8.79229000 0.092701 -164.3 0.995554 -75.05 0.995554 -75.05 0.092700 -165.9
8.79230000 0.092772 -164.4 0.995547 -75.05 0.995547 -75.05 0.092771 -165.9
8.79231000 0.092843 -164.4 0.995540 -75.06 0.995540 -75.06 0.092842 -165.9
8.79232000 0.092914 -164.4 0.995534 -75.06 0.995534 -75.06 0.092913 -165.9
8.79233000 0.092985 -164.4 0.995527 -75.07 0.995527 -75.07 0.092984 -165.9
8.79234000 0.093056 -164.4 0.995520 -75.07 0.995520 -75.07 0.093055 -165.9
8.79235000 0.093127 -164.4 0.995513 -75.07 0.995513 -75.07 0.093126 -165.9
8.79236000 0.093198 -164.4 0.995506 -75.08 0.995506 -75.08 0.093197 -165.9
8.79237000 0.093270 -164.4 0.995499 -75.08 0.995499 -75.08 0.093269 -165.9
8.79238000 0.093341 -164.4 0.995492 -75.09 0.995492 -75.09 0.093340 -165.9
8.79239000 0.093413 -164.4 0.995486 -75.09 0.995486 -75.09 0.093412 -166.0
8.79240000 0.093485 -164.4 0.995479 -75.10 0.995479 -75.10 0.093484 -166.0
8.79241000 0.093556 -164.4 0.995472 -75.10 0.995472 -75.10 0.093555 -166.0
8.79242000 0.093628 -164.4 0.995465 -75.10 0.995465 -75.10 0.093627 -166.0
8.79243000 0.093700 -164.4 0.995458 -75.11 0.995458 -75.11 0.093699 -166.0
8.79244000 0.093773 -164.4 0.995451 -75.11 0.995451 -75.11 0.093772 -166.0
8.79245000 0.093845 -164.4 0.995444 -75.12 0.995444 -75.12 0.093844 -166.0
8.79246000 0.093917 -164.4 0.995437 -75.12 0.995437 -75.12 0.093916 -166.0
8.79247000 0.093990 -164.4 0.995430 -75.13 0.995430 -75.13 0.093989 -166.0
8.79248000 0.094062 -164.4 0.995423 -75.13 0.995423 -75.13 0.094061 -166.0
8.79249000 0.094135 -164.4 0.995416 -75.13 0.995416 -75.13 0.094134 -166.0
8.79250000 0.094208 -164.4 0.995409 -75.14 0.995409 -75.14 0.094207 -166.0
8.79251000 0.094281 -164.4 0.995401 -75.14 0.995401 -75.14 0.094280 -166.0
8.79252000 0.094354 -164.4 0.995394 -75.15 0.995394 -75.15 0.094352 -166.0
8.79253000 0.094427 -164.4 0.995387 -75.15 0.995387 -75.15 0.094426 -166.0
8.79254000 0.094500 -164.5 0.995380 -75.16 0.995380 -75.16 0.094499 -166.0
8.79255000 0.094573 -164.5 0.995373 -75.16 0.995373 -75.16 0.094572 -166.0
8.79256000 0.094647 -164.5 0.995366 -75.16 0.995366 -75.16 0.094646 -166.0
8.79257000 0.094720 -164.5 0.995358 -75.17 0.995358 -75.17 0.094719 -166.0
8.79258000 0.094794 -164.5 0.995351 -75.17 0.995351 -75.17 0.094793 -166.0
8.79259000 0.094867 -164.5 0.995344 -75.18 0.995344 -75.18 0.094866 -166.0
8.79260000 0.094941 -164.5 0.995337 -75.18 0.995337 -75.18 0.094940 -166.0
8.79261000 0.095015 -164.5 0.995330 -75.19 0.995330 -75.19 0.095014 -166.1
8.79262000 0.095089 -164.5 0.995322 -75.19 0.995322 -75.19 0.095088 -166.1
8.79263000 0.095164 -164.5 0.995315 -75.19 0.995315 -75.19 0.095162 -166.1
8.79264000 0.095238 -164.5 0.995308 -75.20 0.995308 -75.20 0.095237 -166.1
8.79265000 0.095312 -164.5 0.995300 -75.20 0.995300 -75.20 0.095311 -166.1
8.79266000 0.095387 -164.5 0.995293 -75.21 0.995293 -75.21 0.095386 -166.1
8.79267000 0.095461 -164.5 0.995286 -75.21 0.995286 -75.21 0.095460 -166.1
8.79268000 0.095536 -164.5 0.995278 -75.22 0.995278 -75.22 0.095535 -166.1
8.79269000 0.095611 -164.5 0.995271 -75.22 0.995271 -75.22 0.095610 -166.1
8.79270000 0.095686 -164.5 0.995263 -75.22 0.995263 -75.22 0.095685 -166.1
8.79271000 0.095761 -164.5 0.995256 -75.23 0.995256 -75.23 0.095760 -166.1
8.79272000 0.095836 -164.5 0.995249 -75.23 0.995249 -75.23 0.095835 -166.1
8.79273000 0.095911 -164.5 0.995241 -75.24 0.995241 -75.24 0.095910 -166.1
8.79274000 0.095987 -164.5 0.995234 -75.24 0.995234 -75.24 0.095986 -166.1
8.79275000 0.096062 -164.5 0.995226 -75.25 0.995226 -75.25 0.096061 -166.1
8.79276000 0.096138 -164.5 0.995219 -75.25 0.995219 -75.25 0.096137 -166.1
8.79277000 0.096214 -164.5 0.995211 -75.26 0.995211 -75.26 0.096212 -166.1
8.79278000 0.096289 -164.6 0.995204 -75.26 0.995204 -75.26 0.096288 -166.1
8.79279000 0.096365 -164.6 0.995196 -75.26 0.995196 -75.26 0.096364 -166.1
8.79280000 0.096441 -164.6 0.995188 -75.27 0.995188 -75.27 0.096440 -166.1
8.79281000 0.096518 -164.6 0.995181 -75.27 0.995181 -75.27 0.096517 -166.1
8.79282000 0.096594 -164.6 0.995173 -75.28 0.995173 -75.28 0.096593 -166.1
8.79283000 0.096670 -164.6 0.995166 -75.28 0.995166 -75.28 0.096669 -166.2
8.79284000 0.096747 -164.6 0.995158 -75.29 0.995158 -75.29 0.096746 -166.2
8.79285000 0.096823 -164.6 0.995150 -75.29 0.995150 -75.29 0.096822 -166.2
8.79286000 0.096900 -164.6 0.995143 -75.30 0.995143 -75.30 0.096899 -166.2
8.79287000 0.096977 -164.6 0.995135 -75.30 0.995135 -75.30 0.096976 -166.2
8.79288000 0.097054 -164.6 0.995127 -75.30 0.995127 -75.30 0.097053 -166.2
8.79289000 0.097131 -164.6 0.995119 -75.31 0.995119 -75.31 0.097130 -166.2
8.79290000 0.097208 -164.6 0.995112 -75.31 0.995112 -75.31 0.097207 -166.2
8.79291000 0.097286 -164.6 0.995104 -75.32 0.995104 -75.32 0.097285 -166.2
8.79292000 0.097363 -164.6 0.995096 -75.32 0.995096 -75.32 0.097362 -166.2
8.79293000 0.097441 -164.6 0.995088 -75.33 0.995088 -75.33 0.097440 -166.2
8.79294000 0.097518 -164.6 0.995080 -75.33 0.995080 -75.33 0.097517 -166.2
8.79295000 0.097596 -164.6 0.995073 -75.34 0.995073 -75.34 0.097595 -166.2
8.79296000 0.097674 -164.6 0.995065 -75.34 0.995065 -75.34 0.097673 -166.2
8.79297000 0.097752 -164.6 0.995057 -75.35 0.995057 -75.35 0.097751 -166.2
8.79298000 0.097830 -164.6 0.995049 -75.35 0.995049 -75.35 0.097829 -166.2
8.79299000 0.097908 -164.6 0.995041 -75.35 0.995041 -75.35 0.097907 -166.2
8.79300000 0.097987 -164.7 0.995033 -75.36 0.995033 -75.36 0.097986 -166.2
8.79301000 0.098065 -164.7 0.995025 -75.36 0.995025 -75.36 0.098064 -166.2
8.79302000 0.098144 -164.7 0.995017 -75.37 0.995017 -75.37 0.098143 -166.2
8.79303000 0.098223 -164.7 0.995009 -75.37 0.995009 -75.37 0.098221 -166.2
8.79304000 0.098301 -164.7 0.995001 -75.38 0.995001 -75.38 0.098300 -166.3
8.79305000 0.098380 -164.7 0.994993 -75.38 0.994993 -75.38 0.098379 -166.3
8.79306000 0.098459 -164.7 0.994985 -75.39 0.994985 -75.39 0.098458 -166.3
8.79307000 0.098539 -164.7 0.994977 -75.39 0.994977 -75.39 0.098538 -166.3
8.79308000 0.098618 -164.7 0.994969 -75.40 0.994969 -75.40 0.098617 -166.3
8.79309000 0.098697 -164.7 0.994961 -75.40 0.994961 -75.40 0.098696 -166.3
8.79310000 0.098777 -164.7 0.994953 -75.41 0.994953 -75.41 0.098776 -166.3
8.79311000 0.098857 -164.7 0.994945 -75.41 0.994945 -75.41 0.098856 -166.3
8.79312000 0.098937 -164.7 0.994936 -75.42 0.994936 -75.42 0.098935 -166.3
8.79313000 0.099016 -164.7 0.994928 -75.42 0.994928 -75.42 0.099015 -166.3
8.79314000 0.099096 -164.7 0.994920 -75.42 0.994920 -75.42 0.099095 -166.3
8.79315000 0.099177 -164.7 0.994912 -75.43 0.994912 -75.43 0.099176 -166.3
8.79316000 0.099257 -164.7 0.994904 -75.43 0.994904 -75.43 0.099256 -166.3
8.79317000 0.099337 -164.7 0.994895 -75.44 0.994895 -75.44 0.099336 -166.3
8.79318000 0.099418 -164.7 0.994887 -75.44 0.994887 -75.44 0.099417 -166.3
8.79319000 0.099499 -164.7 0.994879 -75.45 0.994879 -75.45 0.099498 -166.3
8.79320000 0.099579 -164.7 0.994870 -75.45 0.994870 -75.45 0.099578 -166.3
8.79321000 0.099660 -164.7 0.994862 -75.46 0.994862 -75.46 0.099659 -166.3
8.79322000 0.099741 -164.8 0.994854 -75.46 0.994854 -75.46 0.099740 -166.3
8.79323000 0.099823 -164.8 0.994845 -75.47 0.994845 -75.47 0.099821 -166.3
8.79324000 0.099904 -164.8 0.994837 -75.47 0.994837 -75.47 0.099903 -166.4
8.79325000 0.099985 -164.8 0.994829 -75.48 0.994829 -75.48 0.099984 -166.4
8.79326000 0.100067 -164.8 0.994820 -75.48 0.994820 -75.48 0.100066 -166.4
8.79327000 0.100148 -164.8 0.994812 -75.49 0.994812 -75.49 0.100147 -166.4
8.79328000 0.100230 -164.8 0.994803 -75.49 0.994803 -75.49 0.100229 -166.4
8.79329000 0.100312 -164.8 0.994795 -75.50 0.994795 -75.50 0.100311 -166.4
8.79330000 0.100394 -164.8 0.994786 -75.50 0.994786 -75.50 0.100393 -166.4
8.79331000 0.100476 -164.8 0.994778 -75.51 0.994778 -75.51 0.100475 -166.4
8.79332000 0.100559 -164.8 0.994769 -75.51 0.994769 -75.51 0.100558 -166.4
8.79333000 0.100641 -164.8 0.994761 -75.52 0.994761 -75.52 0.100640 -166.4
8.79334000 0.100724 -164.8 0.994752 -75.52 0.994752 -75.52 0.100723 -166.4
8.79335000 0.100806 -164.8 0.994743 -75.52 0.994743 -75.52 0.100805 -166.4
8.79336000 0.100889 -164.8 0.994735 -75.53 0.994735 -75.53 0.100888 -166.4
8.79337000 0.100972 -164.8 0.994726 -75.53 0.994726 -75.53 0.100971 -166.4
8.79338000 0.101055 -164.8 0.994717 -75.54 0.994717 -75.54 0.101054 -166.4
8.79339000 0.101138 -164.8 0.994709 -75.54 0.994709 -75.54 0.101137 -166.4
8.79340000 0.101222 -164.8 0.994700 -75.55 0.994700 -75.55 0.101221 -166.4
8.79341000 0.101305 -164.8 0.994691 -75.55 0.994691 -75.55 0.101304 -166.4
8.79342000 0.101389 -164.8 0.994682 -75.56 0.994682 -75.56 0.101388 -166.4
8.79343000 0.101472 -164.9 0.994674 -75.56 0.994674 -75.56 0.101471 -166.4
8.79344000 0.101556 -164.9 0.994665 -75.57 0.994665 -75.57 0.101555 -166.5
8.79345000 0.101640 -164.9 0.994656 -75.57 0.994656 -75.57 0.101639 -166.5
8.79346000 0.101724 -164.9 0.994647 -75.58 0.994647 -75.58 0.101723 -166.5
8.79347000 0.101809 -164.9 0.994638 -75.58 0.994638 -75.58 0.101807 -166.5
8.79348000 0.101893 -164.9 0.994629 -75.59 0.994629 -75.59 0.101892 -166.5
8.79349000 0.101977 -164.9 0.994621 -75.59 0.994621 -75.59 0.101976 -166.5
8.79350000 0.102062 -164.9 0.994612 -75.60 0.994612 -75.60 0.102061 -166.5
8.79351000 0.102147 -164.9 0.994603 -75.60 0.994603 -75.60 0.102146 -166.5
8.79352000 0.102232 -164.9 0.994594 -75.61 0.994594 -75.61 0.102231 -166.5
8.79353000 0.102317 -164.9 0.994585 -75.61 0.994585 -75.61 0.102316 -166.5
8.79354000 0.102402 -164.9 0.994576 -75.62 0.994576 -75.62 0.102401 -166.5
8.79355000 0.102487 -164.9 0.994567 -75.62 0.994567 -75.62 0.102486 -166.5
8.79356000 0.102573 -164.9 0.994558 -75.63 0.994558 -75.63 0.102571 -166.5
8.79357000 0.102658 -164.9 0.994549 -75.63 0.994549 -75.63 0.102657 -166.5
8.79358000 0.102744 -164.9 0.994539 -75.64 0.994539 -75.64 0.102743 -166.5
8.79359000 0.102830 -164.9 0.994530 -75.64 0.994530 -75.64 0.102829 -166.5
8.79360000 0.102916 -164.9 0.994521 -75.65 0.994521 -75.65 0.102915 -166.5
8.79361000 0.103002 -164.9 0.994512 -75.65 0.994512 -75.65 0.103001 -166.5
8.79362000 0.103088 -164.9 0.994503 -75.66 0.994503 -75.66 0.103087 -166.5
8.79363000 0.103174 -165.0 0.994494 -75.66 0.994494 -75.66 0.103173 -166.6
8.79364000 0.103261 -165.0 0.994484 -75.67 0.994484 -75.67 0.103260 -166.6
8.79365000 0.103348 -165.0 0.994475 -75.67 0.994475 -75.67 0.103346 -166.6
8.79366000 0.103434 -165.0 0.994466 -75.68 0.994466 -75.68 0.103433 -166.6
8.79367000 0.103521 -165.0 0.994456 -75.68 0.994456 -75.68 0.103520 -166.6
8.79368000 0.103608 -165.0 0.994447 -75.69 0.994447 -75.69 0.103607 -166.6
8.79369000 0.103696 -165.0 0.994438 -75.69 0.994438 -75.69 0.103694 -166.6
8.79370000 0.103783 -165.0 0.994428 -75.70 0.994428 -75.70 0.103782 -166.6
8.79371000 0.103870 -165.0 0.994419 -75.70 0.994419 -75.70 0.103869 -166.6
8.79372000 0.103958 -165.0 0.994410 -75.71 0.994410 -75.71 0.103957 -166.6
8.79373000 0.104046 -165.0 0.994400 -75.71 0.994400 -75.71 0.104045 -166.6
8.79374000 0.104134 -165.0 0.994391 -75.72 0.994391 -75.72 0.104133 -166.6
8.79375000 0.104222 -165.0 0.994381 -75.72 0.994381 -75.72 0.104221 -166.6
8.79376000 0.104310 -165.0 0.994372 -75.73 0.994372 -75.73 0.104309 -166.6
8.79377000 0.104398 -165.0 0.994362 -75.73 0.994362 -75.73 0.104397 -166.6
8.79378000 0.104487 -165.0 0.994353 -75.74 0.994353 -75.74 0.104486 -166.6
8.79379000 0.104575 -165.0 0.994343 -75.75 0.994343 -75.75 0.104574 -166.6
8.79380000 0.104664 -165.0 0.994333 -75.75 0.994333 -75.75 0.104663 -166.6
8.79381000 0.104753 -165.0 0.994324 -75.76 0.994324 -75.76 0.104752 -166.6
8.79382000 0.104842 -165.0 0.994314 -75.76 0.994314 -75.76 0.104841 -166.7
8.79383000 0.104931 -165.1 0.994304 -75.77 0.994304 -75.77 0.104930 -166.7
8.79384000 0.105021 -165.1 0.994295 -75.77 0.994295 -75.77 0.105019 -166.7
8.79385000 0.105110 -165.1 0.994285 -75.78 0.994285 -75.78 0.105109 -166.7
8.79386000 0.105200 -165.1 0.994275 -75.78 0.994275 -75.78 0.105198 -166.7
8.79387000 0.105289 -165.1 0.994266 -75.79 0.994266 -75.79 0.105288 -166.7
8.79388000 0.105379 -165.1 0.994256 -75.79 0.994256 -75.79 0.105378 -166.7
8.79389000 0.105469 -165.1 0.994246 -75.80 0.994246 -75.80 0.105468 -166.7
8.79390000 0.105560 -165.1 0.994236 -75.80 0.994236 -75.80 0.105558 -166.7
8.79391000 0.105650 -165.1 0.994226 -75.81 0.994226 -75.81 0.105649 -166.7
8.79392000 0.105740 -165.1 0.994216 -75.81 0.994216 -75.81 0.105739 -166.7