! Sonnet Data File
! From: emgraph Version : 16.52
! From Project: Qubit_Xmon2
! Data is De-embedded 
! Data File Written: 10/18/2017 14:46:52
!< HDATE 10/18/2017 13:36:36
!< MDATE 10/18/2017 13:36:36
!< PARAMS
!< Lj = 11.0
!< Gap = 6.0
!< Pwid = 2000.0
!< Airgap = 24.0
!< Width = 40.0
!< END PARAMS
# GHZ S MA R 43.40000
8.79000000 0.083854 -164.5 0.996361 -75.18 0.996361 -75.18 0.083853 -166.0
!< P1 F=8.79 Eeff=(4.81771806 -6.2668e-5) Z0=(43.3161425 -1.8142e-4) R=0.0 C=0.0 
!< P2 F=8.79 Eeff=(4.81771806 -6.2668e-5) Z0=(43.3161425 -1.8142e-4) R=0.0 C=0.0 
8.79001000 0.083912 -164.5 0.996356 -75.19 0.996356 -75.19 0.083911 -166.0
8.79002000 0.083971 -164.5 0.996351 -75.19 0.996351 -75.19 0.083970 -166.0
8.79003000 0.084030 -164.5 0.996346 -75.19 0.996346 -75.19 0.084029 -166.0
8.79004000 0.084088 -164.5 0.996341 -75.20 0.996341 -75.20 0.084087 -166.0
8.79005000 0.084147 -164.5 0.996336 -75.20 0.996336 -75.20 0.084146 -166.0
8.79006000 0.084206 -164.5 0.996331 -75.20 0.996331 -75.20 0.084205 -166.0
8.79007000 0.084265 -164.5 0.996325 -75.21 0.996325 -75.21 0.084264 -166.0
8.79008000 0.084324 -164.6 0.996320 -75.21 0.996320 -75.21 0.084323 -166.0
8.79009000 0.084383 -164.6 0.996315 -75.21 0.996315 -75.21 0.084382 -166.0
8.79010000 0.084443 -164.6 0.996310 -75.22 0.996310 -75.22 0.084442 -166.0
8.79011000 0.084502 -164.6 0.996305 -75.22 0.996305 -75.22 0.084501 -166.0
8.79012000 0.084561 -164.6 0.996300 -75.22 0.996300 -75.22 0.084560 -166.0
8.79013000 0.084621 -164.6 0.996294 -75.23 0.996294 -75.23 0.084620 -166.0
8.79014000 0.084680 -164.6 0.996289 -75.23 0.996289 -75.23 0.084679 -166.0
8.79015000 0.084740 -164.6 0.996284 -75.23 0.996284 -75.23 0.084739 -166.0
8.79016000 0.084799 -164.6 0.996279 -75.24 0.996279 -75.24 0.084798 -166.0
8.79017000 0.084859 -164.6 0.996274 -75.24 0.996274 -75.24 0.084858 -166.0
8.79018000 0.084919 -164.6 0.996268 -75.25 0.996268 -75.25 0.084918 -166.1
8.79019000 0.084979 -164.6 0.996263 -75.25 0.996263 -75.25 0.084978 -166.1
8.79020000 0.085039 -164.6 0.996258 -75.25 0.996258 -75.25 0.085038 -166.1
8.79021000 0.085099 -164.6 0.996253 -75.26 0.996253 -75.26 0.085098 -166.1
8.79022000 0.085159 -164.6 0.996247 -75.26 0.996247 -75.26 0.085158 -166.1
8.79023000 0.085219 -164.6 0.996242 -75.26 0.996242 -75.26 0.085218 -166.1
8.79024000 0.085280 -164.6 0.996237 -75.27 0.996237 -75.27 0.085278 -166.1
8.79025000 0.085340 -164.6 0.996231 -75.27 0.996231 -75.27 0.085339 -166.1
8.79026000 0.085400 -164.6 0.996226 -75.27 0.996226 -75.27 0.085399 -166.1
8.79027000 0.085461 -164.6 0.996221 -75.28 0.996221 -75.28 0.085460 -166.1
8.79028000 0.085521 -164.6 0.996215 -75.28 0.996215 -75.28 0.085520 -166.1
8.79029000 0.085582 -164.6 0.996210 -75.28 0.996210 -75.28 0.085581 -166.1
8.79030000 0.085643 -164.6 0.996205 -75.29 0.996205 -75.29 0.085642 -166.1
8.79031000 0.085704 -164.6 0.996199 -75.29 0.996199 -75.29 0.085703 -166.1
8.79032000 0.085765 -164.6 0.996194 -75.29 0.996194 -75.29 0.085764 -166.1
8.79033000 0.085826 -164.6 0.996189 -75.30 0.996189 -75.30 0.085825 -166.1
8.79034000 0.085887 -164.6 0.996183 -75.30 0.996183 -75.30 0.085886 -166.1
8.79035000 0.085948 -164.6 0.996178 -75.31 0.996178 -75.31 0.085947 -166.1
8.79036000 0.086009 -164.6 0.996172 -75.31 0.996172 -75.31 0.086008 -166.1
8.79037000 0.086070 -164.7 0.996167 -75.31 0.996167 -75.31 0.086069 -166.1
8.79038000 0.086132 -164.7 0.996161 -75.32 0.996161 -75.32 0.086131 -166.1
8.79039000 0.086193 -164.7 0.996156 -75.32 0.996156 -75.32 0.086192 -166.1
8.79040000 0.086255 -164.7 0.996150 -75.32 0.996150 -75.32 0.086254 -166.1
8.79041000 0.086316 -164.7 0.996145 -75.33 0.996145 -75.33 0.086315 -166.1
8.79042000 0.086378 -164.7 0.996139 -75.33 0.996139 -75.33 0.086377 -166.1
8.79043000 0.086440 -164.7 0.996134 -75.33 0.996134 -75.33 0.086439 -166.1
8.79044000 0.086502 -164.7 0.996128 -75.34 0.996128 -75.34 0.086501 -166.1
8.79045000 0.086564 -164.7 0.996123 -75.34 0.996123 -75.34 0.086563 -166.2
8.79046000 0.086626 -164.7 0.996117 -75.35 0.996117 -75.35 0.086625 -166.2
8.79047000 0.086688 -164.7 0.996112 -75.35 0.996112 -75.35 0.086687 -166.2
8.79048000 0.086750 -164.7 0.996106 -75.35 0.996106 -75.35 0.086749 -166.2
8.79049000 0.086812 -164.7 0.996101 -75.36 0.996101 -75.36 0.086811 -166.2
8.79050000 0.086875 -164.7 0.996095 -75.36 0.996095 -75.36 0.086874 -166.2
8.79051000 0.086937 -164.7 0.996089 -75.36 0.996089 -75.36 0.086936 -166.2
8.79052000 0.087000 -164.7 0.996084 -75.37 0.996084 -75.37 0.086999 -166.2
8.79053000 0.087062 -164.7 0.996078 -75.37 0.996078 -75.37 0.087061 -166.2
8.79054000 0.087125 -164.7 0.996073 -75.37 0.996073 -75.37 0.087124 -166.2
8.79055000 0.087188 -164.7 0.996067 -75.38 0.996067 -75.38 0.087187 -166.2
8.79056000 0.087251 -164.7 0.996061 -75.38 0.996061 -75.38 0.087249 -166.2
8.79057000 0.087313 -164.7 0.996056 -75.39 0.996056 -75.39 0.087312 -166.2
8.79058000 0.087376 -164.7 0.996050 -75.39 0.996050 -75.39 0.087375 -166.2
8.79059000 0.087440 -164.7 0.996044 -75.39 0.996044 -75.39 0.087439 -166.2
8.79060000 0.087503 -164.7 0.996039 -75.40 0.996039 -75.40 0.087502 -166.2
8.79061000 0.087566 -164.7 0.996033 -75.40 0.996033 -75.40 0.087565 -166.2
8.79062000 0.087629 -164.7 0.996027 -75.40 0.996027 -75.40 0.087628 -166.2
8.79063000 0.087693 -164.7 0.996021 -75.41 0.996021 -75.41 0.087692 -166.2
8.79064000 0.087756 -164.7 0.996016 -75.41 0.996016 -75.41 0.087755 -166.2
8.79065000 0.087820 -164.7 0.996010 -75.42 0.996010 -75.42 0.087819 -166.2
8.79066000 0.087884 -164.8 0.996004 -75.42 0.996004 -75.42 0.087883 -166.2
8.79067000 0.087947 -164.8 0.995998 -75.42 0.995998 -75.42 0.087946 -166.2
8.79068000 0.088011 -164.8 0.995992 -75.43 0.995992 -75.43 0.088010 -166.2
8.79069000 0.088075 -164.8 0.995987 -75.43 0.995987 -75.43 0.088074 -166.2
8.79070000 0.088139 -164.8 0.995981 -75.43 0.995981 -75.43 0.088138 -166.3
8.79071000 0.088203 -164.8 0.995975 -75.44 0.995975 -75.44 0.088202 -166.3
8.79072000 0.088267 -164.8 0.995969 -75.44 0.995969 -75.44 0.088266 -166.3
8.79073000 0.088332 -164.8 0.995963 -75.45 0.995963 -75.45 0.088331 -166.3
8.79074000 0.088396 -164.8 0.995957 -75.45 0.995957 -75.45 0.088395 -166.3
8.79075000 0.088461 -164.8 0.995952 -75.45 0.995952 -75.45 0.088460 -166.3
8.79076000 0.088525 -164.8 0.995946 -75.46 0.995946 -75.46 0.088524 -166.3
8.79077000 0.088590 -164.8 0.995940 -75.46 0.995940 -75.46 0.088589 -166.3
8.79078000 0.088654 -164.8 0.995934 -75.46 0.995934 -75.46 0.088653 -166.3
8.79079000 0.088719 -164.8 0.995928 -75.47 0.995928 -75.47 0.088718 -166.3
8.79080000 0.088784 -164.8 0.995922 -75.47 0.995922 -75.47 0.088783 -166.3
8.79081000 0.088849 -164.8 0.995916 -75.48 0.995916 -75.48 0.088848 -166.3
8.79082000 0.088914 -164.8 0.995910 -75.48 0.995910 -75.48 0.088913 -166.3
8.79083000 0.088979 -164.8 0.995904 -75.48 0.995904 -75.48 0.088978 -166.3
8.79084000 0.089045 -164.8 0.995898 -75.49 0.995898 -75.49 0.089043 -166.3
8.79085000 0.089110 -164.8 0.995892 -75.49 0.995892 -75.49 0.089109 -166.3
8.79086000 0.089175 -164.8 0.995886 -75.50 0.995886 -75.50 0.089174 -166.3
8.79087000 0.089241 -164.8 0.995880 -75.50 0.995880 -75.50 0.089240 -166.3
8.79088000 0.089306 -164.8 0.995874 -75.50 0.995874 -75.50 0.089305 -166.3
8.79089000 0.089372 -164.8 0.995868 -75.51 0.995868 -75.51 0.089371 -166.3
8.79090000 0.089438 -164.8 0.995862 -75.51 0.995862 -75.51 0.089437 -166.3
8.79091000 0.089504 -164.8 0.995856 -75.51 0.995856 -75.51 0.089503 -166.3
8.79092000 0.089570 -164.8 0.995850 -75.52 0.995850 -75.52 0.089568 -166.3
8.79093000 0.089636 -164.9 0.995844 -75.52 0.995844 -75.52 0.089634 -166.3
8.79094000 0.089702 -164.9 0.995837 -75.53 0.995837 -75.53 0.089701 -166.3
8.79095000 0.089768 -164.9 0.995831 -75.53 0.995831 -75.53 0.089767 -166.4
8.79096000 0.089834 -164.9 0.995825 -75.53 0.995825 -75.53 0.089833 -166.4
8.79097000 0.089901 -164.9 0.995819 -75.54 0.995819 -75.54 0.089899 -166.4
8.79098000 0.089967 -164.9 0.995813 -75.54 0.995813 -75.54 0.089966 -166.4
8.79099000 0.090034 -164.9 0.995807 -75.55 0.995807 -75.55 0.090032 -166.4
8.79100000 0.090100 -164.9 0.995800 -75.55 0.995800 -75.55 0.090099 -166.4
8.79101000 0.090167 -164.9 0.995794 -75.55 0.995794 -75.55 0.090166 -166.4
8.79102000 0.090234 -164.9 0.995788 -75.56 0.995788 -75.56 0.090233 -166.4
8.79103000 0.090301 -164.9 0.995782 -75.56 0.995782 -75.56 0.090300 -166.4
8.79104000 0.090368 -164.9 0.995775 -75.57 0.995775 -75.57 0.090367 -166.4
8.79105000 0.090435 -164.9 0.995769 -75.57 0.995769 -75.57 0.090434 -166.4
8.79106000 0.090502 -164.9 0.995763 -75.57 0.995763 -75.57 0.090501 -166.4
8.79107000 0.090569 -164.9 0.995757 -75.58 0.995757 -75.58 0.090568 -166.4
8.79108000 0.090637 -164.9 0.995750 -75.58 0.995750 -75.58 0.090636 -166.4
8.79109000 0.090704 -164.9 0.995744 -75.59 0.995744 -75.59 0.090703 -166.4
8.79110000 0.090772 -164.9 0.995738 -75.59 0.995738 -75.59 0.090771 -166.4
8.79111000 0.090839 -164.9 0.995731 -75.59 0.995731 -75.59 0.090838 -166.4
8.79112000 0.090907 -164.9 0.995725 -75.60 0.995725 -75.60 0.090906 -166.4
8.79113000 0.090975 -164.9 0.995719 -75.60 0.995719 -75.60 0.090974 -166.4
8.79114000 0.091043 -164.9 0.995712 -75.61 0.995712 -75.61 0.091042 -166.4
8.79115000 0.091111 -164.9 0.995706 -75.61 0.995706 -75.61 0.091110 -166.4
8.79116000 0.091179 -164.9 0.995699 -75.61 0.995699 -75.61 0.091178 -166.4
8.79117000 0.091247 -164.9 0.995693 -75.62 0.995693 -75.62 0.091246 -166.4
8.79118000 0.091316 -164.9 0.995687 -75.62 0.995687 -75.62 0.091314 -166.4
8.79119000 0.091384 -165.0 0.995680 -75.63 0.995680 -75.63 0.091383 -166.5
8.79120000 0.091452 -165.0 0.995674 -75.63 0.995674 -75.63 0.091451 -166.5
8.79121000 0.091521 -165.0 0.995667 -75.63 0.995667 -75.63 0.091520 -166.5
8.79122000 0.091590 -165.0 0.995661 -75.64 0.995661 -75.64 0.091589 -166.5
8.79123000 0.091658 -165.0 0.995654 -75.64 0.995654 -75.64 0.091657 -166.5
8.79124000 0.091727 -165.0 0.995648 -75.65 0.995648 -75.65 0.091726 -166.5
8.79125000 0.091796 -165.0 0.995641 -75.65 0.995641 -75.65 0.091795 -166.5
8.79126000 0.091865 -165.0 0.995635 -75.65 0.995635 -75.65 0.091864 -166.5
8.79127000 0.091935 -165.0 0.995628 -75.66 0.995628 -75.66 0.091933 -166.5
8.79128000 0.092004 -165.0 0.995621 -75.66 0.995621 -75.66 0.092003 -166.5
8.79129000 0.092073 -165.0 0.995615 -75.67 0.995615 -75.67 0.092072 -166.5
8.79130000 0.092143 -165.0 0.995608 -75.67 0.995608 -75.67 0.092141 -166.5
8.79131000 0.092212 -165.0 0.995602 -75.67 0.995602 -75.67 0.092211 -166.5
8.79132000 0.092282 -165.0 0.995595 -75.68 0.995595 -75.68 0.092281 -166.5
8.79133000 0.092351 -165.0 0.995588 -75.68 0.995588 -75.68 0.092350 -166.5
8.79134000 0.092421 -165.0 0.995582 -75.69 0.995582 -75.69 0.092420 -166.5
8.79135000 0.092491 -165.0 0.995575 -75.69 0.995575 -75.69 0.092490 -166.5
8.79136000 0.092561 -165.0 0.995568 -75.69 0.995568 -75.69 0.092560 -166.5
8.79137000 0.092631 -165.0 0.995562 -75.70 0.995562 -75.70 0.092630 -166.5
8.79138000 0.092702 -165.0 0.995555 -75.70 0.995555 -75.70 0.092700 -166.5
8.79139000 0.092772 -165.0 0.995548 -75.71 0.995548 -75.71 0.092771 -166.5
8.79140000 0.092842 -165.0 0.995541 -75.71 0.995541 -75.71 0.092841 -166.5
8.79141000 0.092913 -165.0 0.995535 -75.71 0.995535 -75.71 0.092912 -166.5
8.79142000 0.092983 -165.0 0.995528 -75.72 0.995528 -75.72 0.092982 -166.6
8.79143000 0.093054 -165.0 0.995521 -75.72 0.995521 -75.72 0.093053 -166.6
8.79144000 0.093125 -165.1 0.995514 -75.73 0.995514 -75.73 0.093124 -166.6
8.79145000 0.093196 -165.1 0.995507 -75.73 0.995507 -75.73 0.093195 -166.6
8.79146000 0.093267 -165.1 0.995501 -75.74 0.995501 -75.74 0.093266 -166.6
8.79147000 0.093338 -165.1 0.995494 -75.74 0.995494 -75.74 0.093337 -166.6
8.79148000 0.093409 -165.1 0.995487 -75.74 0.995487 -75.74 0.093408 -166.6
8.79149000 0.093480 -165.1 0.995480 -75.75 0.995480 -75.75 0.093479 -166.6
8.79150000 0.093552 -165.1 0.995473 -75.75 0.995473 -75.75 0.093551 -166.6
8.79151000 0.093623 -165.1 0.995466 -75.76 0.995466 -75.76 0.093622 -166.6
8.79152000 0.093695 -165.1 0.995459 -75.76 0.995459 -75.76 0.093694 -166.6
8.79153000 0.093767 -165.1 0.995452 -75.76 0.995452 -75.76 0.093766 -166.6
8.79154000 0.093838 -165.1 0.995445 -75.77 0.995445 -75.77 0.093837 -166.6
8.79155000 0.093910 -165.1 0.995438 -75.77 0.995438 -75.77 0.093909 -166.6
8.79156000 0.093982 -165.1 0.995431 -75.78 0.995431 -75.78 0.093981 -166.6
8.79157000 0.094054 -165.1 0.995424 -75.78 0.995424 -75.78 0.094053 -166.6
8.79158000 0.094127 -165.1 0.995417 -75.79 0.995417 -75.79 0.094126 -166.6
8.79159000 0.094199 -165.1 0.995410 -75.79 0.995410 -75.79 0.094198 -166.6
8.79160000 0.094271 -165.1 0.995403 -75.79 0.995403 -75.79 0.094270 -166.6
8.79161000 0.094344 -165.1 0.995396 -75.80 0.995396 -75.80 0.094343 -166.6
8.79162000 0.094417 -165.1 0.995389 -75.80 0.995389 -75.80 0.094415 -166.6
8.79163000 0.094489 -165.1 0.995382 -75.81 0.995382 -75.81 0.094488 -166.6
8.79164000 0.094562 -165.1 0.995375 -75.81 0.995375 -75.81 0.094561 -166.6
8.79165000 0.094635 -165.1 0.995368 -75.82 0.995368 -75.82 0.094634 -166.7
8.79166000 0.094708 -165.1 0.995361 -75.82 0.995361 -75.82 0.094707 -166.7
8.79167000 0.094781 -165.1 0.995354 -75.82 0.995354 -75.82 0.094780 -166.7
8.79168000 0.094854 -165.2 0.995346 -75.83 0.995346 -75.83 0.094853 -166.7
8.79169000 0.094928 -165.2 0.995339 -75.83 0.995339 -75.83 0.094927 -166.7
8.79170000 0.095001 -165.2 0.995332 -75.84 0.995332 -75.84 0.095000 -166.7
8.79171000 0.095075 -165.2 0.995325 -75.84 0.995325 -75.84 0.095074 -166.7
8.79172000 0.095148 -165.2 0.995318 -75.85 0.995318 -75.85 0.095147 -166.7
8.79173000 0.095222 -165.2 0.995310 -75.85 0.995310 -75.85 0.095221 -166.7
8.79174000 0.095296 -165.2 0.995303 -75.85 0.995303 -75.85 0.095295 -166.7
8.79175000 0.095370 -165.2 0.995296 -75.86 0.995296 -75.86 0.095369 -166.7
8.79176000 0.095444 -165.2 0.995289 -75.86 0.995289 -75.86 0.095443 -166.7
8.79177000 0.095518 -165.2 0.995281 -75.87 0.995281 -75.87 0.095517 -166.7
8.79178000 0.095593 -165.2 0.995274 -75.87 0.995274 -75.87 0.095591 -166.7
8.79179000 0.095667 -165.2 0.995267 -75.88 0.995267 -75.88 0.095666 -166.7
8.79180000 0.095741 -165.2 0.995259 -75.88 0.995259 -75.88 0.095740 -166.7
8.79181000 0.095816 -165.2 0.995252 -75.89 0.995252 -75.89 0.095815 -166.7
8.79182000 0.095891 -165.2 0.995244 -75.89 0.995244 -75.89 0.095890 -166.7
8.79183000 0.095966 -165.2 0.995237 -75.89 0.995237 -75.89 0.095964 -166.7
8.79184000 0.096040 -165.2 0.995230 -75.90 0.995230 -75.90 0.096039 -166.7
8.79185000 0.096116 -165.2 0.995222 -75.90 0.995222 -75.90 0.096114 -166.7
8.79186000 0.096191 -165.2 0.995215 -75.91 0.995215 -75.91 0.096190 -166.7
8.79187000 0.096266 -165.2 0.995207 -75.91 0.995207 -75.91 0.096265 -166.8
8.79188000 0.096341 -165.2 0.995200 -75.92 0.995200 -75.92 0.096340 -166.8
8.79189000 0.096417 -165.2 0.995192 -75.92 0.995192 -75.92 0.096416 -166.8
8.79190000 0.096492 -165.2 0.995185 -75.92 0.995185 -75.92 0.096491 -166.8
8.79191000 0.096568 -165.3 0.995177 -75.93 0.995177 -75.93 0.096567 -166.8
8.79192000 0.096644 -165.3 0.995170 -75.93 0.995170 -75.93 0.096643 -166.8
8.79193000 0.096720 -165.3 0.995162 -75.94 0.995162 -75.94 0.096719 -166.8
8.79194000 0.096796 -165.3 0.995154 -75.94 0.995154 -75.94 0.096795 -166.8
8.79195000 0.096872 -165.3 0.995147 -75.95 0.995147 -75.95 0.096871 -166.8
8.79196000 0.096948 -165.3 0.995139 -75.95 0.995139 -75.95 0.096947 -166.8
8.79197000 0.097024 -165.3 0.995131 -75.96 0.995131 -75.96 0.097023 -166.8
8.79198000 0.097101 -165.3 0.995124 -75.96 0.995124 -75.96 0.097100 -166.8
8.79199000 0.097177 -165.3 0.995116 -75.96 0.995116 -75.96 0.097176 -166.8
8.79200000 0.097254 -165.3 0.995108 -75.97 0.995108 -75.97 0.097253 -166.8
8.79201000 0.097331 -165.3 0.995101 -75.97 0.995101 -75.97 0.097330 -166.8
8.79202000 0.097408 -165.3 0.995093 -75.98 0.995093 -75.98 0.097407 -166.8
8.79203000 0.097485 -165.3 0.995085 -75.98 0.995085 -75.98 0.097484 -166.8
8.79204000 0.097562 -165.3 0.995077 -75.99 0.995077 -75.99 0.097561 -166.8
8.79205000 0.097639 -165.3 0.995070 -75.99 0.995070 -75.99 0.097638 -166.8
8.79206000 0.097717 -165.3 0.995062 -76.00 0.995062 -76.00 0.097715 -166.8
8.79207000 0.097794 -165.3 0.995054 -76.00 0.995054 -76.00 0.097793 -166.8
8.79208000 0.097872 -165.3 0.995046 -76.01 0.995046 -76.01 0.097870 -166.9
8.79209000 0.097949 -165.3 0.995038 -76.01 0.995038 -76.01 0.097948 -166.9
8.79210000 0.098027 -165.3 0.995030 -76.01 0.995030 -76.01 0.098026 -166.9
8.79211000 0.098105 -165.3 0.995023 -76.02 0.995023 -76.02 0.098104 -166.9
8.79212000 0.098183 -165.3 0.995015 -76.02 0.995015 -76.02 0.098182 -166.9
8.79213000 0.098261 -165.3 0.995007 -76.03 0.995007 -76.03 0.098260 -166.9
8.79214000 0.098339 -165.4 0.994999 -76.03 0.994999 -76.03 0.098338 -166.9
8.79215000 0.098418 -165.4 0.994991 -76.04 0.994991 -76.04 0.098417 -166.9
8.79216000 0.098496 -165.4 0.994983 -76.04 0.994983 -76.04 0.098495 -166.9
8.79217000 0.098575 -165.4 0.994975 -76.05 0.994975 -76.05 0.098574 -166.9
8.79218000 0.098654 -165.4 0.994967 -76.05 0.994967 -76.05 0.098652 -166.9
8.79219000 0.098732 -165.4 0.994959 -76.06 0.994959 -76.06 0.098731 -166.9
8.79220000 0.098811 -165.4 0.994951 -76.06 0.994951 -76.06 0.098810 -166.9
8.79221000 0.098890 -165.4 0.994943 -76.07 0.994943 -76.07 0.098889 -166.9
8.79222000 0.098970 -165.4 0.994935 -76.07 0.994935 -76.07 0.098968 -166.9
8.79223000 0.099049 -165.4 0.994926 -76.07 0.994926 -76.07 0.099048 -166.9
8.79224000 0.099128 -165.4 0.994918 -76.08 0.994918 -76.08 0.099127 -166.9
8.79225000 0.099208 -165.4 0.994910 -76.08 0.994910 -76.08 0.099207 -166.9
8.79226000 0.099288 -165.4 0.994902 -76.09 0.994902 -76.09 0.099286 -166.9
8.79227000 0.099367 -165.4 0.994894 -76.09 0.994894 -76.09 0.099366 -166.9
8.79228000 0.099447 -165.4 0.994886 -76.10 0.994886 -76.10 0.099446 -166.9
8.79229000 0.099527 -165.4 0.994877 -76.10 0.994877 -76.10 0.099526 -167.0
8.79230000 0.099607 -165.4 0.994869 -76.11 0.994869 -76.11 0.099606 -167.0
8.79231000 0.099688 -165.4 0.994861 -76.11 0.994861 -76.11 0.099686 -167.0
8.79232000 0.099768 -165.4 0.994853 -76.12 0.994853 -76.12 0.099767 -167.0
8.79233000 0.099848 -165.4 0.994844 -76.12 0.994844 -76.12 0.099847 -167.0
8.79234000 0.099929 -165.4 0.994836 -76.13 0.994836 -76.13 0.099928 -167.0
8.79235000 0.100010 -165.4 0.994828 -76.13 0.994828 -76.13 0.100009 -167.0
8.79236000 0.100091 -165.5 0.994819 -76.14 0.994819 -76.14 0.100089 -167.0
8.79237000 0.100172 -165.5 0.994811 -76.14 0.994811 -76.14 0.100170 -167.0
8.79238000 0.100253 -165.5 0.994803 -76.15 0.994803 -76.15 0.100251 -167.0
8.79239000 0.100334 -165.5 0.994794 -76.15 0.994794 -76.15 0.100333 -167.0
8.79240000 0.100415 -165.5 0.994786 -76.15 0.994786 -76.15 0.100414 -167.0
8.79241000 0.100497 -165.5 0.994777 -76.16 0.994777 -76.16 0.100495 -167.0
8.79242000 0.100578 -165.5 0.994769 -76.16 0.994769 -76.16 0.100577 -167.0
8.79243000 0.100660 -165.5 0.994760 -76.17 0.994760 -76.17 0.100659 -167.0
8.79244000 0.100742 -165.5 0.994752 -76.17 0.994752 -76.17 0.100740 -167.0
8.79245000 0.100824 -165.5 0.994743 -76.18 0.994743 -76.18 0.100822 -167.0
8.79246000 0.100906 -165.5 0.994735 -76.18 0.994735 -76.18 0.100904 -167.0
8.79247000 0.100988 -165.5 0.994726 -76.19 0.994726 -76.19 0.100987 -167.0
8.79248000 0.101070 -165.5 0.994717 -76.19 0.994717 -76.19 0.101069 -167.0
8.79249000 0.101153 -165.5 0.994709 -76.20 0.994709 -76.20 0.101151 -167.1
8.79250000 0.101235 -165.5 0.994700 -76.20 0.994700 -76.20 0.101234 -167.1
8.79251000 0.101318 -165.5 0.994692 -76.21 0.994692 -76.21 0.101317 -167.1
8.79252000 0.101401 -165.5 0.994683 -76.21 0.994683 -76.21 0.101399 -167.1
8.79253000 0.101484 -165.5 0.994674 -76.22 0.994674 -76.22 0.101482 -167.1
8.79254000 0.101567 -165.5 0.994666 -76.22 0.994666 -76.22 0.101565 -167.1
8.79255000 0.101650 -165.5 0.994657 -76.23 0.994657 -76.23 0.101649 -167.1
8.79256000 0.101733 -165.5 0.994648 -76.23 0.994648 -76.23 0.101732 -167.1
8.79257000 0.101817 -165.6 0.994639 -76.24 0.994639 -76.24 0.101815 -167.1
8.79258000 0.101900 -165.6 0.994630 -76.24 0.994630 -76.24 0.101899 -167.1
8.79259000 0.101984 -165.6 0.994622 -76.25 0.994622 -76.25 0.101983 -167.1
8.79260000 0.102068 -165.6 0.994613 -76.25 0.994613 -76.25 0.102066 -167.1
8.79261000 0.102152 -165.6 0.994604 -76.26 0.994604 -76.26 0.102150 -167.1
8.79262000 0.102236 -165.6 0.994595 -76.26 0.994595 -76.26 0.102234 -167.1
8.79263000 0.102320 -165.6 0.994586 -76.27 0.994586 -76.27 0.102319 -167.1
8.79264000 0.102404 -165.6 0.994577 -76.27 0.994577 -76.27 0.102403 -167.1
8.79265000 0.102489 -165.6 0.994568 -76.28 0.994568 -76.28 0.102487 -167.1
8.79266000 0.102573 -165.6 0.994559 -76.28 0.994559 -76.28 0.102572 -167.1
8.79267000 0.102658 -165.6 0.994550 -76.29 0.994550 -76.29 0.102657 -167.1
8.79268000 0.102743 -165.6 0.994541 -76.29 0.994541 -76.29 0.102741 -167.1
8.79269000 0.102828 -165.6 0.994532 -76.30 0.994532 -76.30 0.102826 -167.2
8.79270000 0.102913 -165.6 0.994523 -76.30 0.994523 -76.30 0.102912 -167.2
8.79271000 0.102998 -165.6 0.994514 -76.31 0.994514 -76.31 0.102997 -167.2
8.79272000 0.103083 -165.6 0.994505 -76.31 0.994505 -76.31 0.103082 -167.2
8.79273000 0.103169 -165.6 0.994496 -76.32 0.994496 -76.32 0.103168 -167.2
8.79274000 0.103254 -165.6 0.994487 -76.32 0.994487 -76.32 0.103253 -167.2
8.79275000 0.103340 -165.6 0.994478 -76.33 0.994478 -76.33 0.103339 -167.2
8.79276000 0.103426 -165.6 0.994469 -76.33 0.994469 -76.33 0.103425 -167.2
8.79277000 0.103512 -165.6 0.994459 -76.34 0.994459 -76.34 0.103511 -167.2
8.79278000 0.103598 -165.7 0.994450 -76.34 0.994450 -76.34 0.103597 -167.2
8.79279000 0.103684 -165.7 0.994441 -76.35 0.994441 -76.35 0.103683 -167.2
8.79280000 0.103771 -165.7 0.994432 -76.35 0.994432 -76.35 0.103770 -167.2
8.79281000 0.103857 -165.7 0.994422 -76.36 0.994422 -76.36 0.103856 -167.2
8.79282000 0.103944 -165.7 0.994413 -76.36 0.994413 -76.36 0.103943 -167.2
8.79283000 0.104031 -165.7 0.994404 -76.37 0.994404 -76.37 0.104030 -167.2
8.79284000 0.104118 -165.7 0.994394 -76.37 0.994394 -76.37 0.104117 -167.2
8.79285000 0.104205 -165.7 0.994385 -76.38 0.994385 -76.38 0.104204 -167.2
8.79286000 0.104292 -165.7 0.994376 -76.38 0.994376 -76.38 0.104291 -167.2
8.79287000 0.104379 -165.7 0.994366 -76.39 0.994366 -76.39 0.104378 -167.2
8.79288000 0.104467 -165.7 0.994357 -76.39 0.994357 -76.39 0.104466 -167.3
8.79289000 0.104555 -165.7 0.994347 -76.40 0.994347 -76.40 0.104553 -167.3
8.79290000 0.104642 -165.7 0.994338 -76.40 0.994338 -76.40 0.104641 -167.3
8.79291000 0.104730 -165.7 0.994328 -76.41 0.994328 -76.41 0.104729 -167.3
8.79292000 0.104818 -165.7 0.994319 -76.41 0.994319 -76.41 0.104817 -167.3
8.79293000 0.104906 -165.7 0.994309 -76.42 0.994309 -76.42 0.104905 -167.3
8.79294000 0.104995 -165.7 0.994300 -76.42 0.994300 -76.42 0.104994 -167.3
8.79295000 0.105083 -165.7 0.994290 -76.43 0.994290 -76.43 0.105082 -167.3
8.79296000 0.105172 -165.7 0.994280 -76.43 0.994280 -76.43 0.105171 -167.3
8.79297000 0.105260 -165.7 0.994271 -76.44 0.994271 -76.44 0.105259 -167.3
8.79298000 0.105349 -165.8 0.994261 -76.44 0.994261 -76.44 0.105348 -167.3
8.79299000 0.105438 -165.8 0.994251 -76.45 0.994251 -76.45 0.105437 -167.3
8.79300000 0.105527 -165.8 0.994242 -76.45 0.994242 -76.45 0.105526 -167.3
8.79301000 0.105617 -165.8 0.994232 -76.46 0.994232 -76.46 0.105615 -167.3
8.79302000 0.105706 -165.8 0.994222 -76.46 0.994222 -76.46 0.105705 -167.3
8.79303000 0.105796 -165.8 0.994212 -76.47 0.994212 -76.47 0.105794 -167.3
8.79304000 0.105885 -165.8 0.994203 -76.47 0.994203 -76.47 0.105884 -167.3
8.79305000 0.105975 -165.8 0.994193 -76.48 0.994193 -76.48 0.105974 -167.3
8.79306000 0.106065 -165.8 0.994183 -76.49 0.994183 -76.49 0.106064 -167.4
8.79307000 0.106155 -165.8 0.994173 -76.49 0.994173 -76.49 0.106154 -167.4
8.79308000 0.106246 -165.8 0.994163 -76.50 0.994163 -76.50 0.106244 -167.4
8.79309000 0.106336 -165.8 0.994153 -76.50 0.994153 -76.50 0.106335 -167.4
8.79310000 0.106426 -165.8 0.994143 -76.51 0.994143 -76.51 0.106425 -167.4
8.79311000 0.106517 -165.8 0.994133 -76.51 0.994133 -76.51 0.106516 -167.4
8.79312000 0.106608 -165.8 0.994123 -76.52 0.994123 -76.52 0.106607 -167.4
8.79313000 0.106699 -165.8 0.994113 -76.52 0.994113 -76.52 0.106698 -167.4
8.79314000 0.106790 -165.8 0.994103 -76.53 0.994103 -76.53 0.106789 -167.4
8.79315000 0.106881 -165.8 0.994093 -76.53 0.994093 -76.53 0.106880 -167.4
8.79316000 0.106973 -165.8 0.994083 -76.54 0.994083 -76.54 0.106971 -167.4
8.79317000 0.107064 -165.9 0.994073 -76.54 0.994073 -76.54 0.107063 -167.4
8.79318000 0.107156 -165.9 0.994063 -76.55 0.994063 -76.55 0.107155 -167.4
8.79319000 0.107248 -165.9 0.994052 -76.55 0.994052 -76.55 0.107247 -167.4
8.79320000 0.107340 -165.9 0.994042 -76.56 0.994042 -76.56 0.107339 -167.4
8.79321000 0.107432 -165.9 0.994032 -76.57 0.994032 -76.57 0.107431 -167.4
8.79322000 0.107524 -165.9 0.994022 -76.57 0.994022 -76.57 0.107523 -167.4
8.79323000 0.107617 -165.9 0.994012 -76.58 0.994012 -76.58 0.107615 -167.4
8.79324000 0.107709 -165.9 0.994001 -76.58 0.994001 -76.58 0.107708 -167.5
8.79325000 0.107802 -165.9 0.993991 -76.59 0.993991 -76.59 0.107801 -167.5
8.79326000 0.107895 -165.9 0.993981 -76.59 0.993981 -76.59 0.107893 -167.5
8.79327000 0.107988 -165.9 0.993970 -76.60 0.993970 -76.60 0.107986 -167.5
8.79328000 0.108081 -165.9 0.993960 -76.60 0.993960 -76.60 0.108080 -167.5
8.79329000 0.108174 -165.9 0.993949 -76.61 0.993949 -76.61 0.108173 -167.5
8.79330000 0.108268 -165.9 0.993939 -76.61 0.993939 -76.61 0.108266 -167.5
8.79331000 0.108361 -165.9 0.993928 -76.62 0.993928 -76.62 0.108360 -167.5
8.79332000 0.108455 -165.9 0.993918 -76.63 0.993918 -76.63 0.108454 -167.5
8.79333000 0.108549 -165.9 0.993907 -76.63 0.993907 -76.63 0.108548 -167.5
8.79334000 0.108643 -165.9 0.993897 -76.64 0.993897 -76.64 0.108642 -167.5
8.79335000 0.108737 -165.9 0.993886 -76.64 0.993886 -76.64 0.108736 -167.5
8.79336000 0.108832 -166.0 0.993876 -76.65 0.993876 -76.65 0.108830 -167.5
8.79337000 0.108926 -166.0 0.993865 -76.65 0.993865 -76.65 0.108925 -167.5
8.79338000 0.109021 -166.0 0.993854 -76.66 0.993854 -76.66 0.109019 -167.5
8.79339000 0.109116 -166.0 0.993844 -76.66 0.993844 -76.66 0.109114 -167.5
8.79340000 0.109211 -166.0 0.993833 -76.67 0.993833 -76.67 0.109209 -167.5
8.79341000 0.109306 -166.0 0.993822 -76.67 0.993822 -76.67 0.109304 -167.6
8.79342000 0.109401 -166.0 0.993811 -76.68 0.993811 -76.68 0.109400 -167.6
8.79343000 0.109496 -166.0 0.993801 -76.69 0.993801 -76.69 0.109495 -167.6
8.79344000 0.109592 -166.0 0.993790 -76.69 0.993790 -76.69 0.109591 -167.6
8.79345000 0.109688 -166.0 0.993779 -76.70 0.993779 -76.70 0.109686 -167.6
8.79346000 0.109784 -166.0 0.993768 -76.70 0.993768 -76.70 0.109782 -167.6
8.79347000 0.109880 -166.0 0.993757 -76.71 0.993757 -76.71 0.109878 -167.6
8.79348000 0.109976 -166.0 0.993746 -76.71 0.993746 -76.71 0.109975 -167.6
8.79349000 0.110072 -166.0 0.993735 -76.72 0.993735 -76.72 0.110071 -167.6
8.79350000 0.110169 -166.0 0.993724 -76.73 0.993724 -76.73 0.110167 -167.6
8.79351000 0.110265 -166.0 0.993713 -76.73 0.993713 -76.73 0.110264 -167.6
8.79352000 0.110362 -166.0 0.993702 -76.74 0.993702 -76.74 0.110361 -167.6
8.79353000 0.110459 -166.0 0.993691 -76.74 0.993691 -76.74 0.110458 -167.6
8.79354000 0.110556 -166.1 0.993680 -76.75 0.993680 -76.75 0.110555 -167.6
8.79355000 0.110654 -166.1 0.993669 -76.75 0.993669 -76.75 0.110652 -167.6
8.79356000 0.110751 -166.1 0.993658 -76.76 0.993658 -76.76 0.110750 -167.6
8.79357000 0.110849 -166.1 0.993646 -76.77 0.993646 -76.77 0.110847 -167.6
8.79358000 0.110947 -166.1 0.993635 -76.77 0.993635 -76.77 0.110945 -167.7
8.79359000 0.111044 -166.1 0.993624 -76.78 0.993624 -76.78 0.111043 -167.7
8.79360000 0.111143 -166.1 0.993613 -76.78 0.993613 -76.78 0.111141 -167.7
8.79361000 0.111241 -166.1 0.993601 -76.79 0.993601 -76.79 0.111240 -167.7
8.79362000 0.111339 -166.1 0.993590 -76.79 0.993590 -76.79 0.111338 -167.7
8.79363000 0.111438 -166.1 0.993579 -76.80 0.993579 -76.80 0.111437 -167.7
8.79364000 0.111537 -166.1 0.993567 -76.81 0.993567 -76.81 0.111535 -167.7
8.79365000 0.111636 -166.1 0.993556 -76.81 0.993556 -76.81 0.111634 -167.7
8.79366000 0.111735 -166.1 0.993545 -76.82 0.993545 -76.82 0.111733 -167.7
8.79367000 0.111834 -166.1 0.993533 -76.82 0.993533 -76.82 0.111833 -167.7
8.79368000 0.111933 -166.1 0.993522 -76.83 0.993522 -76.83 0.111932 -167.7
8.79369000 0.112033 -166.1 0.993510 -76.83 0.993510 -76.83 0.112032 -167.7
8.79370000 0.112133 -166.1 0.993498 -76.84 0.993498 -76.84 0.112131 -167.7
8.79371000 0.112232 -166.2 0.993487 -76.85 0.993487 -76.85 0.112231 -167.7
8.79372000 0.112333 -166.2 0.993475 -76.85 0.993475 -76.85 0.112331 -167.7
8.79373000 0.112433 -166.2 0.993464 -76.86 0.993464 -76.86 0.112431 -167.7
8.79374000 0.112533 -166.2 0.993452 -76.86 0.993452 -76.86 0.112532 -167.7
8.79375000 0.112634 -166.2 0.993440 -76.87 0.993440 -76.87 0.112632 -167.8
8.79376000 0.112734 -166.2 0.993428 -76.88 0.993428 -76.88 0.112733 -167.8
8.79377000 0.112835 -166.2 0.993417 -76.88 0.993417 -76.88 0.112834 -167.8
8.79378000 0.112936 -166.2 0.993405 -76.89 0.993405 -76.89 0.112935 -167.8
8.79379000 0.113038 -166.2 0.993393 -76.89 0.993393 -76.89 0.113036 -167.8
8.79380000 0.113139 -166.2 0.993381 -76.90 0.993381 -76.90 0.113138 -167.8
8.79381000 0.113241 -166.2 0.993369 -76.91 0.993369 -76.91 0.113239 -167.8
8.79382000 0.113342 -166.2 0.993357 -76.91 0.993357 -76.91 0.113341 -167.8
8.79383000 0.113444 -166.2 0.993345 -76.92 0.993345 -76.92 0.113443 -167.8
8.79384000 0.113546 -166.2 0.993333 -76.92 0.993333 -76.92 0.113545 -167.8
8.79385000 0.113649 -166.2 0.993321 -76.93 0.993321 -76.93 0.113647 -167.8
8.79386000 0.113751 -166.2 0.993309 -76.93 0.993309 -76.93 0.113750 -167.8
8.79387000 0.113854 -166.2 0.993297 -76.94 0.993297 -76.94 0.113852 -167.8
8.79388000 0.113956 -166.3 0.993285 -76.95 0.993285 -76.95 0.113955 -167.8
8.79389000 0.114059 -166.3 0.993273 -76.95 0.993273 -76.95 0.114058 -167.8
8.79390000 0.114162 -166.3 0.993261 -76.96 0.993261 -76.96 0.114161 -167.8
8.79391000 0.114266 -166.3 0.993249 -76.96 0.993249 -76.96 0.114264 -167.9
8.79392000 0.114369 -166.3 0.993236 -76.97 0.993236 -76.97 0.114368 -167.9