! Sonnet Data File
! From: emgraph Version : 16.52
! From Project: Qubit_Xmon2
! Data is De-embedded 
! Data File Written: 10/18/2017 13:35:04
!< HDATE 10/18/2017 12:09:35
!< MDATE 10/18/2017 12:09:35
!< PARAMS
!< Lj = 11.0
!< Gap = 6.0
!< Pwid = 2000.0
!< Airgap = 18.0
!< Width = 30.0
!< END PARAMS
# GHZ S MA R 41.17000
8.79000000 0.090097 -165.7 0.995801 -76.30 0.995801 -76.30 0.090096 -167.1
!< P1 F=8.79 Eeff=(4.89767601 -6.0965e-5) Z0=(41.1732234 -1.5591e-4) R=0.0 C=0.0 
!< P2 F=8.79 Eeff=(4.89767601 -6.0965e-5) Z0=(41.1732234 -1.5591e-4) R=0.0 C=0.0 
8.79001000 0.090164 -165.7 0.995795 -76.31 0.995795 -76.31 0.090163 -167.1
8.79002000 0.090230 -165.7 0.995789 -76.31 0.995789 -76.31 0.090229 -167.1
8.79003000 0.090297 -165.7 0.995783 -76.32 0.995783 -76.32 0.090296 -167.1
8.79004000 0.090364 -165.7 0.995777 -76.32 0.995777 -76.32 0.090363 -167.1
8.79005000 0.090431 -165.7 0.995770 -76.32 0.995770 -76.32 0.090429 -167.1
8.79006000 0.090498 -165.7 0.995764 -76.33 0.995764 -76.33 0.090496 -167.1
8.79007000 0.090565 -165.7 0.995758 -76.33 0.995758 -76.33 0.090563 -167.1
8.79008000 0.090632 -165.7 0.995752 -76.34 0.995752 -76.34 0.090631 -167.1
8.79009000 0.090699 -165.7 0.995745 -76.34 0.995745 -76.34 0.090698 -167.1
8.79010000 0.090766 -165.7 0.995739 -76.34 0.995739 -76.34 0.090765 -167.1
8.79011000 0.090834 -165.7 0.995733 -76.35 0.995733 -76.35 0.090832 -167.1
8.79012000 0.090901 -165.7 0.995726 -76.35 0.995726 -76.35 0.090900 -167.1
8.79013000 0.090969 -165.7 0.995720 -76.35 0.995720 -76.35 0.090967 -167.1
8.79014000 0.091036 -165.7 0.995714 -76.36 0.995714 -76.36 0.091035 -167.1
8.79015000 0.091104 -165.7 0.995707 -76.36 0.995707 -76.36 0.091103 -167.1
8.79016000 0.091172 -165.8 0.995701 -76.37 0.995701 -76.37 0.091171 -167.1
8.79017000 0.091240 -165.8 0.995695 -76.37 0.995695 -76.37 0.091239 -167.1
8.79018000 0.091308 -165.8 0.995688 -76.37 0.995688 -76.37 0.091307 -167.1
8.79019000 0.091376 -165.8 0.995682 -76.38 0.995682 -76.38 0.091375 -167.1
8.79020000 0.091444 -165.8 0.995675 -76.38 0.995675 -76.38 0.091443 -167.2
8.79021000 0.091512 -165.8 0.995669 -76.39 0.995669 -76.39 0.091511 -167.2
8.79022000 0.091581 -165.8 0.995662 -76.39 0.995662 -76.39 0.091580 -167.2
8.79023000 0.091649 -165.8 0.995656 -76.39 0.995656 -76.39 0.091648 -167.2
8.79024000 0.091718 -165.8 0.995649 -76.40 0.995649 -76.40 0.091717 -167.2
8.79025000 0.091787 -165.8 0.995643 -76.40 0.995643 -76.40 0.091785 -167.2
8.79026000 0.091855 -165.8 0.995636 -76.41 0.995636 -76.41 0.091854 -167.2
8.79027000 0.091924 -165.8 0.995630 -76.41 0.995630 -76.41 0.091923 -167.2
8.79028000 0.091993 -165.8 0.995623 -76.42 0.995623 -76.42 0.091992 -167.2
8.79029000 0.092062 -165.8 0.995617 -76.42 0.995617 -76.42 0.092061 -167.2
8.79030000 0.092131 -165.8 0.995610 -76.42 0.995610 -76.42 0.092130 -167.2
8.79031000 0.092200 -165.8 0.995604 -76.43 0.995604 -76.43 0.092199 -167.2
8.79032000 0.092270 -165.8 0.995597 -76.43 0.995597 -76.43 0.092268 -167.2
8.79033000 0.092339 -165.8 0.995591 -76.44 0.995591 -76.44 0.092338 -167.2
8.79034000 0.092408 -165.8 0.995584 -76.44 0.995584 -76.44 0.092407 -167.2
8.79035000 0.092478 -165.8 0.995577 -76.44 0.995577 -76.44 0.092477 -167.2
8.79036000 0.092548 -165.8 0.995571 -76.45 0.995571 -76.45 0.092546 -167.2
8.79037000 0.092617 -165.8 0.995564 -76.45 0.995564 -76.45 0.092616 -167.2
8.79038000 0.092687 -165.8 0.995557 -76.46 0.995557 -76.46 0.092686 -167.2
8.79039000 0.092757 -165.8 0.995551 -76.46 0.995551 -76.46 0.092756 -167.2
8.79040000 0.092827 -165.8 0.995544 -76.46 0.995544 -76.46 0.092826 -167.2
8.79041000 0.092897 -165.9 0.995537 -76.47 0.995537 -76.47 0.092896 -167.2
8.79042000 0.092968 -165.9 0.995530 -76.47 0.995530 -76.47 0.092966 -167.2
8.79043000 0.093038 -165.9 0.995524 -76.48 0.995524 -76.48 0.093037 -167.3
8.79044000 0.093108 -165.9 0.995517 -76.48 0.995517 -76.48 0.093107 -167.3
8.79045000 0.093179 -165.9 0.995510 -76.48 0.995510 -76.48 0.093178 -167.3
8.79046000 0.093250 -165.9 0.995503 -76.49 0.995503 -76.49 0.093248 -167.3
8.79047000 0.093320 -165.9 0.995497 -76.49 0.995497 -76.49 0.093319 -167.3
8.79048000 0.093391 -165.9 0.995490 -76.50 0.995490 -76.50 0.093390 -167.3
8.79049000 0.093462 -165.9 0.995483 -76.50 0.995483 -76.50 0.093461 -167.3
8.79050000 0.093533 -165.9 0.995476 -76.51 0.995476 -76.51 0.093532 -167.3
8.79051000 0.093604 -165.9 0.995469 -76.51 0.995469 -76.51 0.093603 -167.3
8.79052000 0.093675 -165.9 0.995462 -76.51 0.995462 -76.51 0.093674 -167.3
8.79053000 0.093747 -165.9 0.995455 -76.52 0.995455 -76.52 0.093745 -167.3
8.79054000 0.093818 -165.9 0.995449 -76.52 0.995449 -76.52 0.093817 -167.3
8.79055000 0.093889 -165.9 0.995442 -76.53 0.995442 -76.53 0.093888 -167.3
8.79056000 0.093961 -165.9 0.995435 -76.53 0.995435 -76.53 0.093960 -167.3
8.79057000 0.094033 -165.9 0.995428 -76.53 0.995428 -76.53 0.094031 -167.3
8.79058000 0.094104 -165.9 0.995421 -76.54 0.995421 -76.54 0.094103 -167.3
8.79059000 0.094176 -165.9 0.995414 -76.54 0.995414 -76.54 0.094175 -167.3
8.79060000 0.094248 -165.9 0.995407 -76.55 0.995407 -76.55 0.094247 -167.3
8.79061000 0.094320 -165.9 0.995400 -76.55 0.995400 -76.55 0.094319 -167.3
8.79062000 0.094392 -165.9 0.995393 -76.56 0.995393 -76.56 0.094391 -167.3
8.79063000 0.094465 -165.9 0.995386 -76.56 0.995386 -76.56 0.094463 -167.3
8.79064000 0.094537 -165.9 0.995379 -76.56 0.995379 -76.56 0.094536 -167.3
8.79065000 0.094610 -165.9 0.995372 -76.57 0.995372 -76.57 0.094608 -167.3
8.79066000 0.094682 -166.0 0.995364 -76.57 0.995364 -76.57 0.094681 -167.4
8.79067000 0.094755 -166.0 0.995357 -76.58 0.995357 -76.58 0.094753 -167.4
8.79068000 0.094828 -166.0 0.995350 -76.58 0.995350 -76.58 0.094826 -167.4
8.79069000 0.094900 -166.0 0.995343 -76.59 0.995343 -76.59 0.094899 -167.4
8.79070000 0.094973 -166.0 0.995336 -76.59 0.995336 -76.59 0.094972 -167.4
8.79071000 0.095046 -166.0 0.995329 -76.59 0.995329 -76.59 0.095045 -167.4
8.79072000 0.095120 -166.0 0.995322 -76.60 0.995322 -76.60 0.095118 -167.4
8.79073000 0.095193 -166.0 0.995314 -76.60 0.995314 -76.60 0.095192 -167.4
8.79074000 0.095266 -166.0 0.995307 -76.61 0.995307 -76.61 0.095265 -167.4
8.79075000 0.095340 -166.0 0.995300 -76.61 0.995300 -76.61 0.095338 -167.4
8.79076000 0.095413 -166.0 0.995293 -76.62 0.995293 -76.62 0.095412 -167.4
8.79077000 0.095487 -166.0 0.995286 -76.62 0.995286 -76.62 0.095486 -167.4
8.79078000 0.095561 -166.0 0.995278 -76.62 0.995278 -76.62 0.095559 -167.4
8.79079000 0.095635 -166.0 0.995271 -76.63 0.995271 -76.63 0.095633 -167.4
8.79080000 0.095709 -166.0 0.995264 -76.63 0.995264 -76.63 0.095707 -167.4
8.79081000 0.095783 -166.0 0.995256 -76.64 0.995256 -76.64 0.095781 -167.4
8.79082000 0.095857 -166.0 0.995249 -76.64 0.995249 -76.64 0.095855 -167.4
8.79083000 0.095931 -166.0 0.995242 -76.65 0.995242 -76.65 0.095930 -167.4
8.79084000 0.096005 -166.0 0.995234 -76.65 0.995234 -76.65 0.096004 -167.4
8.79085000 0.096080 -166.0 0.995227 -76.65 0.995227 -76.65 0.096079 -167.4
8.79086000 0.096155 -166.0 0.995220 -76.66 0.995220 -76.66 0.096153 -167.4
8.79087000 0.096229 -166.0 0.995212 -76.66 0.995212 -76.66 0.096228 -167.4
8.79088000 0.096304 -166.0 0.995205 -76.67 0.995205 -76.67 0.096303 -167.5
8.79089000 0.096379 -166.0 0.995197 -76.67 0.995197 -76.67 0.096378 -167.5
8.79090000 0.096454 -166.1 0.995190 -76.68 0.995190 -76.68 0.096453 -167.5
8.79091000 0.096529 -166.1 0.995182 -76.68 0.995182 -76.68 0.096528 -167.5
8.79092000 0.096604 -166.1 0.995175 -76.69 0.995175 -76.69 0.096603 -167.5
8.79093000 0.096680 -166.1 0.995167 -76.69 0.995167 -76.69 0.096678 -167.5
8.79094000 0.096755 -166.1 0.995160 -76.69 0.995160 -76.69 0.096754 -167.5
8.79095000 0.096831 -166.1 0.995152 -76.70 0.995152 -76.70 0.096829 -167.5
8.79096000 0.096906 -166.1 0.995145 -76.70 0.995145 -76.70 0.096905 -167.5
8.79097000 0.096982 -166.1 0.995137 -76.71 0.995137 -76.71 0.096981 -167.5
8.79098000 0.097058 -166.1 0.995129 -76.71 0.995129 -76.71 0.097056 -167.5
8.79099000 0.097134 -166.1 0.995122 -76.72 0.995122 -76.72 0.097132 -167.5
8.79100000 0.097210 -166.1 0.995114 -76.72 0.995114 -76.72 0.097208 -167.5
8.79101000 0.097286 -166.1 0.995107 -76.73 0.995107 -76.73 0.097285 -167.5
8.79102000 0.097362 -166.1 0.995099 -76.73 0.995099 -76.73 0.097361 -167.5
8.79103000 0.097439 -166.1 0.995091 -76.73 0.995091 -76.73 0.097437 -167.5
8.79104000 0.097515 -166.1 0.995084 -76.74 0.995084 -76.74 0.097514 -167.5
8.79105000 0.097592 -166.1 0.995076 -76.74 0.995076 -76.74 0.097590 -167.5
8.79106000 0.097668 -166.1 0.995068 -76.75 0.995068 -76.75 0.097667 -167.5
8.79107000 0.097745 -166.1 0.995060 -76.75 0.995060 -76.75 0.097744 -167.5
8.79108000 0.097822 -166.1 0.995053 -76.76 0.995053 -76.76 0.097821 -167.5
8.79109000 0.097899 -166.1 0.995045 -76.76 0.995045 -76.76 0.097898 -167.6
8.79110000 0.097976 -166.1 0.995037 -76.77 0.995037 -76.77 0.097975 -167.6
8.79111000 0.098054 -166.1 0.995029 -76.77 0.995029 -76.77 0.098052 -167.6
8.79112000 0.098131 -166.1 0.995021 -76.78 0.995021 -76.78 0.098130 -167.6
8.79113000 0.098208 -166.2 0.995014 -76.78 0.995014 -76.78 0.098207 -167.6
8.79114000 0.098286 -166.2 0.995006 -76.78 0.995006 -76.78 0.098285 -167.6
8.79115000 0.098364 -166.2 0.994998 -76.79 0.994998 -76.79 0.098362 -167.6
8.79116000 0.098441 -166.2 0.994990 -76.79 0.994990 -76.79 0.098440 -167.6
8.79117000 0.098519 -166.2 0.994982 -76.80 0.994982 -76.80 0.098518 -167.6
8.79118000 0.098597 -166.2 0.994974 -76.80 0.994974 -76.80 0.098596 -167.6
8.79119000 0.098675 -166.2 0.994966 -76.81 0.994966 -76.81 0.098674 -167.6
8.79120000 0.098754 -166.2 0.994958 -76.81 0.994958 -76.81 0.098752 -167.6
8.79121000 0.098832 -166.2 0.994950 -76.82 0.994950 -76.82 0.098831 -167.6
8.79122000 0.098911 -166.2 0.994942 -76.82 0.994942 -76.82 0.098909 -167.6
8.79123000 0.098989 -166.2 0.994934 -76.83 0.994934 -76.83 0.098988 -167.6
8.79124000 0.099068 -166.2 0.994926 -76.83 0.994926 -76.83 0.099066 -167.6
8.79125000 0.099147 -166.2 0.994918 -76.83 0.994918 -76.83 0.099145 -167.6
8.79126000 0.099226 -166.2 0.994910 -76.84 0.994910 -76.84 0.099224 -167.6
8.79127000 0.099305 -166.2 0.994902 -76.84 0.994902 -76.84 0.099303 -167.6
8.79128000 0.099384 -166.2 0.994894 -76.85 0.994894 -76.85 0.099382 -167.6
8.79129000 0.099463 -166.2 0.994886 -76.85 0.994886 -76.85 0.099462 -167.6
8.79130000 0.099542 -166.2 0.994877 -76.86 0.994877 -76.86 0.099541 -167.7
8.79131000 0.099622 -166.2 0.994869 -76.86 0.994869 -76.86 0.099620 -167.7
8.79132000 0.099701 -166.2 0.994861 -76.87 0.994861 -76.87 0.099700 -167.7
8.79133000 0.099781 -166.2 0.994853 -76.87 0.994853 -76.87 0.099780 -167.7
8.79134000 0.099861 -166.2 0.994845 -76.88 0.994845 -76.88 0.099860 -167.7
8.79135000 0.099941 -166.3 0.994836 -76.88 0.994836 -76.88 0.099939 -167.7
8.79136000 0.100021 -166.3 0.994828 -76.89 0.994828 -76.89 0.100020 -167.7
8.79137000 0.100101 -166.3 0.994820 -76.89 0.994820 -76.89 0.100100 -167.7
8.79138000 0.100181 -166.3 0.994812 -76.90 0.994812 -76.90 0.100180 -167.7
8.79139000 0.100262 -166.3 0.994803 -76.90 0.994803 -76.90 0.100260 -167.7
8.79140000 0.100342 -166.3 0.994795 -76.90 0.994795 -76.90 0.100341 -167.7
8.79141000 0.100423 -166.3 0.994787 -76.91 0.994787 -76.91 0.100422 -167.7
8.79142000 0.100504 -166.3 0.994778 -76.91 0.994778 -76.91 0.100502 -167.7
8.79143000 0.100585 -166.3 0.994770 -76.92 0.994770 -76.92 0.100583 -167.7
8.79144000 0.100665 -166.3 0.994761 -76.92 0.994761 -76.92 0.100664 -167.7
8.79145000 0.100747 -166.3 0.994753 -76.93 0.994753 -76.93 0.100745 -167.7
8.79146000 0.100828 -166.3 0.994744 -76.93 0.994744 -76.93 0.100826 -167.7
8.79147000 0.100909 -166.3 0.994736 -76.94 0.994736 -76.94 0.100908 -167.7
8.79148000 0.100991 -166.3 0.994728 -76.94 0.994728 -76.94 0.100989 -167.7
8.79149000 0.101072 -166.3 0.994719 -76.95 0.994719 -76.95 0.101071 -167.7
8.79150000 0.101154 -166.3 0.994710 -76.95 0.994710 -76.95 0.101152 -167.8
8.79151000 0.101236 -166.3 0.994702 -76.96 0.994702 -76.96 0.101234 -167.8
8.79152000 0.101318 -166.3 0.994693 -76.96 0.994693 -76.96 0.101316 -167.8
8.79153000 0.101400 -166.3 0.994685 -76.97 0.994685 -76.97 0.101398 -167.8
8.79154000 0.101482 -166.3 0.994676 -76.97 0.994676 -76.97 0.101480 -167.8
8.79155000 0.101564 -166.3 0.994668 -76.98 0.994668 -76.98 0.101563 -167.8
8.79156000 0.101646 -166.3 0.994659 -76.98 0.994659 -76.98 0.101645 -167.8
8.79157000 0.101729 -166.4 0.994650 -76.99 0.994650 -76.99 0.101728 -167.8
8.79158000 0.101812 -166.4 0.994642 -76.99 0.994642 -76.99 0.101810 -167.8
8.79159000 0.101894 -166.4 0.994633 -77.00 0.994633 -77.00 0.101893 -167.8
8.79160000 0.101977 -166.4 0.994624 -77.00 0.994624 -77.00 0.101976 -167.8
8.79161000 0.102060 -166.4 0.994615 -77.01 0.994615 -77.01 0.102059 -167.8
8.79162000 0.102143 -166.4 0.994607 -77.01 0.994607 -77.01 0.102142 -167.8
8.79163000 0.102227 -166.4 0.994598 -77.02 0.994598 -77.02 0.102225 -167.8
8.79164000 0.102310 -166.4 0.994589 -77.02 0.994589 -77.02 0.102309 -167.8
8.79165000 0.102394 -166.4 0.994580 -77.02 0.994580 -77.02 0.102392 -167.8
8.79166000 0.102477 -166.4 0.994571 -77.03 0.994571 -77.03 0.102476 -167.8
8.79167000 0.102561 -166.4 0.994563 -77.03 0.994563 -77.03 0.102560 -167.8
8.79168000 0.102645 -166.4 0.994554 -77.04 0.994554 -77.04 0.102643 -167.8
8.79169000 0.102729 -166.4 0.994545 -77.04 0.994545 -77.04 0.102727 -167.9
8.79170000 0.102813 -166.4 0.994536 -77.05 0.994536 -77.05 0.102811 -167.9
8.79171000 0.102897 -166.4 0.994527 -77.05 0.994527 -77.05 0.102896 -167.9
8.79172000 0.102982 -166.4 0.994518 -77.06 0.994518 -77.06 0.102980 -167.9
8.79173000 0.103066 -166.4 0.994509 -77.06 0.994509 -77.06 0.103065 -167.9
8.79174000 0.103151 -166.4 0.994500 -77.07 0.994500 -77.07 0.103149 -167.9
8.79175000 0.103235 -166.4 0.994491 -77.07 0.994491 -77.07 0.103234 -167.9
8.79176000 0.103320 -166.4 0.994482 -77.08 0.994482 -77.08 0.103319 -167.9
8.79177000 0.103405 -166.4 0.994473 -77.08 0.994473 -77.08 0.103404 -167.9
8.79178000 0.103490 -166.5 0.994464 -77.09 0.994464 -77.09 0.103489 -167.9
8.79179000 0.103576 -166.5 0.994455 -77.09 0.994455 -77.09 0.103574 -167.9
8.79180000 0.103661 -166.5 0.994445 -77.10 0.994445 -77.10 0.103659 -167.9
8.79181000 0.103746 -166.5 0.994436 -77.10 0.994436 -77.10 0.103745 -167.9
8.79182000 0.103832 -166.5 0.994427 -77.11 0.994427 -77.11 0.103831 -167.9
8.79183000 0.103918 -166.5 0.994418 -77.11 0.994418 -77.11 0.103916 -167.9
8.79184000 0.104004 -166.5 0.994409 -77.12 0.994409 -77.12 0.104002 -167.9
8.79185000 0.104090 -166.5 0.994399 -77.12 0.994399 -77.12 0.104088 -167.9
8.79186000 0.104176 -166.5 0.994390 -77.13 0.994390 -77.13 0.104174 -167.9
8.79187000 0.104262 -166.5 0.994381 -77.13 0.994381 -77.13 0.104261 -167.9
8.79188000 0.104348 -166.5 0.994372 -77.14 0.994372 -77.14 0.104347 -168.0
8.79189000 0.104435 -166.5 0.994362 -77.14 0.994362 -77.14 0.104434 -168.0
8.79190000 0.104522 -166.5 0.994353 -77.15 0.994353 -77.15 0.104520 -168.0
8.79191000 0.104608 -166.5 0.994344 -77.15 0.994344 -77.15 0.104607 -168.0
8.79192000 0.104695 -166.5 0.994334 -77.16 0.994334 -77.16 0.104694 -168.0
8.79193000 0.104782 -166.5 0.994325 -77.16 0.994325 -77.16 0.104781 -168.0
8.79194000 0.104869 -166.5 0.994315 -77.17 0.994315 -77.17 0.104868 -168.0
8.79195000 0.104957 -166.5 0.994306 -77.17 0.994306 -77.17 0.104955 -168.0
8.79196000 0.105044 -166.5 0.994296 -77.18 0.994296 -77.18 0.105043 -168.0
8.79197000 0.105132 -166.5 0.994287 -77.19 0.994287 -77.19 0.105130 -168.0
8.79198000 0.105219 -166.6 0.994277 -77.19 0.994277 -77.19 0.105218 -168.0
8.79199000 0.105307 -166.6 0.994268 -77.20 0.994268 -77.20 0.105306 -168.0
8.79200000 0.105395 -166.6 0.994258 -77.20 0.994258 -77.20 0.105394 -168.0
8.79201000 0.105483 -166.6 0.994249 -77.21 0.994249 -77.21 0.105482 -168.0
8.79202000 0.105572 -166.6 0.994239 -77.21 0.994239 -77.21 0.105570 -168.0
8.79203000 0.105660 -166.6 0.994229 -77.22 0.994229 -77.22 0.105658 -168.0
8.79204000 0.105748 -166.6 0.994220 -77.22 0.994220 -77.22 0.105747 -168.0
8.79205000 0.105837 -166.6 0.994210 -77.23 0.994210 -77.23 0.105836 -168.0
8.79206000 0.105926 -166.6 0.994200 -77.23 0.994200 -77.23 0.105924 -168.0
8.79207000 0.106015 -166.6 0.994191 -77.24 0.994191 -77.24 0.106013 -168.1
8.79208000 0.106104 -166.6 0.994181 -77.24 0.994181 -77.24 0.106102 -168.1
8.79209000 0.106193 -166.6 0.994171 -77.25 0.994171 -77.25 0.106191 -168.1
8.79210000 0.106282 -166.6 0.994161 -77.25 0.994161 -77.25 0.106281 -168.1
8.79211000 0.106372 -166.6 0.994151 -77.26 0.994151 -77.26 0.106370 -168.1
8.79212000 0.106461 -166.6 0.994142 -77.26 0.994142 -77.26 0.106460 -168.1
8.79213000 0.106551 -166.6 0.994132 -77.27 0.994132 -77.27 0.106549 -168.1
8.79214000 0.106641 -166.6 0.994122 -77.27 0.994122 -77.27 0.106639 -168.1
8.79215000 0.106731 -166.6 0.994112 -77.28 0.994112 -77.28 0.106729 -168.1
8.79216000 0.106821 -166.6 0.994102 -77.28 0.994102 -77.28 0.106819 -168.1
8.79217000 0.106911 -166.6 0.994092 -77.29 0.994092 -77.29 0.106910 -168.1
8.79218000 0.107001 -166.7 0.994082 -77.29 0.994082 -77.29 0.107000 -168.1
8.79219000 0.107092 -166.7 0.994072 -77.30 0.994072 -77.30 0.107091 -168.1
8.79220000 0.107183 -166.7 0.994062 -77.31 0.994062 -77.31 0.107181 -168.1
8.79221000 0.107273 -166.7 0.994052 -77.31 0.994052 -77.31 0.107272 -168.1
8.79222000 0.107364 -166.7 0.994042 -77.32 0.994042 -77.32 0.107363 -168.1
8.79223000 0.107456 -166.7 0.994032 -77.32 0.994032 -77.32 0.107454 -168.1
8.79224000 0.107547 -166.7 0.994022 -77.33 0.994022 -77.33 0.107545 -168.1
8.79225000 0.107638 -166.7 0.994012 -77.33 0.994012 -77.33 0.107637 -168.2
8.79226000 0.107730 -166.7 0.994001 -77.34 0.994001 -77.34 0.107728 -168.2
8.79227000 0.107821 -166.7 0.993991 -77.34 0.993991 -77.34 0.107820 -168.2
8.79228000 0.107913 -166.7 0.993981 -77.35 0.993981 -77.35 0.107912 -168.2
8.79229000 0.108005 -166.7 0.993971 -77.35 0.993971 -77.35 0.108004 -168.2
8.79230000 0.108097 -166.7 0.993960 -77.36 0.993960 -77.36 0.108096 -168.2
8.79231000 0.108189 -166.7 0.993950 -77.36 0.993950 -77.36 0.108188 -168.2
8.79232000 0.108282 -166.7 0.993940 -77.37 0.993940 -77.37 0.108280 -168.2
8.79233000 0.108374 -166.7 0.993929 -77.37 0.993929 -77.37 0.108373 -168.2
8.79234000 0.108467 -166.7 0.993919 -77.38 0.993919 -77.38 0.108465 -168.2
8.79235000 0.108560 -166.7 0.993909 -77.39 0.993909 -77.39 0.108558 -168.2
8.79236000 0.108652 -166.7 0.993898 -77.39 0.993898 -77.39 0.108651 -168.2
8.79237000 0.108746 -166.8 0.993888 -77.40 0.993888 -77.40 0.108744 -168.2
8.79238000 0.108839 -166.8 0.993877 -77.40 0.993877 -77.40 0.108837 -168.2
8.79239000 0.108932 -166.8 0.993867 -77.41 0.993867 -77.41 0.108931 -168.2
8.79240000 0.109026 -166.8 0.993856 -77.41 0.993856 -77.41 0.109024 -168.2
8.79241000 0.109119 -166.8 0.993846 -77.42 0.993846 -77.42 0.109118 -168.2
8.79242000 0.109213 -166.8 0.993835 -77.42 0.993835 -77.42 0.109212 -168.2
8.79243000 0.109307 -166.8 0.993825 -77.43 0.993825 -77.43 0.109306 -168.3
8.79244000 0.109401 -166.8 0.993814 -77.44 0.993814 -77.44 0.109400 -168.3
8.79245000 0.109495 -166.8 0.993803 -77.44 0.993803 -77.44 0.109494 -168.3
8.79246000 0.109590 -166.8 0.993793 -77.45 0.993793 -77.45 0.109588 -168.3
8.79247000 0.109684 -166.8 0.993782 -77.45 0.993782 -77.45 0.109683 -168.3
8.79248000 0.109779 -166.8 0.993771 -77.46 0.993771 -77.46 0.109777 -168.3
8.79249000 0.109874 -166.8 0.993760 -77.46 0.993760 -77.46 0.109872 -168.3
8.79250000 0.109969 -166.8 0.993750 -77.47 0.993750 -77.47 0.109967 -168.3
8.79251000 0.110064 -166.8 0.993739 -77.47 0.993739 -77.47 0.110062 -168.3
8.79252000 0.110159 -166.8 0.993728 -77.48 0.993728 -77.48 0.110158 -168.3
8.79253000 0.110255 -166.8 0.993717 -77.48 0.993717 -77.48 0.110253 -168.3
8.79254000 0.110350 -166.8 0.993706 -77.49 0.993706 -77.49 0.110349 -168.3
8.79255000 0.110446 -166.8 0.993695 -77.50 0.993695 -77.50 0.110444 -168.3
8.79256000 0.110542 -166.9 0.993684 -77.50 0.993684 -77.50 0.110540 -168.3
8.79257000 0.110638 -166.9 0.993673 -77.51 0.993673 -77.51 0.110636 -168.3
8.79258000 0.110734 -166.9 0.993662 -77.51 0.993662 -77.51 0.110732 -168.3
8.79259000 0.110830 -166.9 0.993651 -77.52 0.993651 -77.52 0.110829 -168.3
8.79260000 0.110927 -166.9 0.993640 -77.52 0.993640 -77.52 0.110925 -168.4
8.79261000 0.111023 -166.9 0.993629 -77.53 0.993629 -77.53 0.111022 -168.4
8.79262000 0.111120 -166.9 0.993618 -77.54 0.993618 -77.54 0.111119 -168.4
8.79263000 0.111217 -166.9 0.993607 -77.54 0.993607 -77.54 0.111215 -168.4
8.79264000 0.111314 -166.9 0.993596 -77.55 0.993596 -77.55 0.111313 -168.4
8.79265000 0.111411 -166.9 0.993585 -77.55 0.993585 -77.55 0.111410 -168.4
8.79266000 0.111509 -166.9 0.993573 -77.56 0.993573 -77.56 0.111507 -168.4
8.79267000 0.111606 -166.9 0.993562 -77.56 0.993562 -77.56 0.111605 -168.4
8.79268000 0.111704 -166.9 0.993551 -77.57 0.993551 -77.57 0.111702 -168.4
8.79269000 0.111802 -166.9 0.993540 -77.58 0.993540 -77.58 0.111800 -168.4
8.79270000 0.111900 -166.9 0.993528 -77.58 0.993528 -77.58 0.111898 -168.4
8.79271000 0.111998 -166.9 0.993517 -77.59 0.993517 -77.59 0.111997 -168.4
8.79272000 0.112096 -166.9 0.993506 -77.59 0.993506 -77.59 0.112095 -168.4
8.79273000 0.112195 -166.9 0.993494 -77.60 0.993494 -77.60 0.112193 -168.4
8.79274000 0.112293 -167.0 0.993483 -77.60 0.993483 -77.60 0.112292 -168.4
8.79275000 0.112392 -167.0 0.993471 -77.61 0.993471 -77.61 0.112391 -168.4
8.79276000 0.112491 -167.0 0.993460 -77.62 0.993460 -77.62 0.112490 -168.4
8.79277000 0.112590 -167.0 0.993448 -77.62 0.993448 -77.62 0.112589 -168.5
8.79278000 0.112690 -167.0 0.993437 -77.63 0.993437 -77.63 0.112688 -168.5
8.79279000 0.112789 -167.0 0.993425 -77.63 0.993425 -77.63 0.112788 -168.5
8.79280000 0.112889 -167.0 0.993413 -77.64 0.993413 -77.64 0.112887 -168.5
8.79281000 0.112988 -167.0 0.993402 -77.64 0.993402 -77.64 0.112987 -168.5
8.79282000 0.113088 -167.0 0.993390 -77.65 0.993390 -77.65 0.113087 -168.5
8.79283000 0.113188 -167.0 0.993378 -77.66 0.993378 -77.66 0.113187 -168.5
8.79284000 0.113289 -167.0 0.993367 -77.66 0.993367 -77.66 0.113287 -168.5
8.79285000 0.113389 -167.0 0.993355 -77.67 0.993355 -77.67 0.113387 -168.5
8.79286000 0.113490 -167.0 0.993343 -77.67 0.993343 -77.67 0.113488 -168.5
8.79287000 0.113590 -167.0 0.993331 -77.68 0.993331 -77.68 0.113589 -168.5
8.79288000 0.113691 -167.0 0.993319 -77.69 0.993319 -77.69 0.113690 -168.5
8.79289000 0.113792 -167.0 0.993308 -77.69 0.993308 -77.69 0.113791 -168.5
8.79290000 0.113893 -167.0 0.993296 -77.70 0.993296 -77.70 0.113892 -168.5
8.79291000 0.113995 -167.1 0.993284 -77.70 0.993284 -77.70 0.113993 -168.5
8.79292000 0.114096 -167.1 0.993272 -77.71 0.993272 -77.71 0.114095 -168.5
8.79293000 0.114198 -167.1 0.993260 -77.72 0.993260 -77.72 0.114196 -168.6
8.79294000 0.114300 -167.1 0.993248 -77.72 0.993248 -77.72 0.114298 -168.6
8.79295000 0.114402 -167.1 0.993236 -77.73 0.993236 -77.73 0.114400 -168.6
8.79296000 0.114504 -167.1 0.993224 -77.73 0.993224 -77.73 0.114502 -168.6
8.79297000 0.114606 -167.1 0.993212 -77.74 0.993212 -77.74 0.114605 -168.6
8.79298000 0.114709 -167.1 0.993199 -77.75 0.993199 -77.75 0.114707 -168.6
8.79299000 0.114812 -167.1 0.993187 -77.75 0.993187 -77.75 0.114810 -168.6
8.79300000 0.114914 -167.1 0.993175 -77.76 0.993175 -77.76 0.114913 -168.6
8.79301000 0.115017 -167.1 0.993163 -77.76 0.993163 -77.76 0.115016 -168.6
8.79302000 0.115121 -167.1 0.993150 -77.77 0.993150 -77.77 0.115119 -168.6
8.79303000 0.115224 -167.1 0.993138 -77.78 0.993138 -77.78 0.115222 -168.6
8.79304000 0.115327 -167.1 0.993126 -77.78 0.993126 -77.78 0.115326 -168.6
8.79305000 0.115431 -167.1 0.993113 -77.79 0.993113 -77.79 0.115430 -168.6
8.79306000 0.115535 -167.1 0.993101 -77.79 0.993101 -77.79 0.115533 -168.6
8.79307000 0.115639 -167.1 0.993089 -77.80 0.993089 -77.80 0.115638 -168.6
8.79308000 0.115743 -167.2 0.993076 -77.81 0.993076 -77.81 0.115742 -168.6
8.79309000 0.115848 -167.2 0.993064 -77.81 0.993064 -77.81 0.115846 -168.7
8.79310000 0.115952 -167.2 0.993051 -77.82 0.993051 -77.82 0.115951 -168.7
8.79311000 0.116057 -167.2 0.993039 -77.82 0.993039 -77.82 0.116055 -168.7
8.79312000 0.116162 -167.2 0.993026 -77.83 0.993026 -77.83 0.116160 -168.7
8.79313000 0.116267 -167.2 0.993013 -77.84 0.993013 -77.84 0.116265 -168.7
8.79314000 0.116372 -167.2 0.993001 -77.84 0.993001 -77.84 0.116371 -168.7
8.79315000 0.116478 -167.2 0.992988 -77.85 0.992988 -77.85 0.116476 -168.7
8.79316000 0.116583 -167.2 0.992975 -77.86 0.992975 -77.86 0.116582 -168.7
8.79317000 0.116689 -167.2 0.992963 -77.86 0.992963 -77.86 0.116687 -168.7
8.79318000 0.116795 -167.2 0.992950 -77.87 0.992950 -77.87 0.116793 -168.7
8.79319000 0.116901 -167.2 0.992937 -77.87 0.992937 -77.87 0.116899 -168.7
8.79320000 0.117007 -167.2 0.992924 -77.88 0.992924 -77.88 0.117006 -168.7
8.79321000 0.117114 -167.2 0.992911 -77.89 0.992911 -77.89 0.117112 -168.7
8.79322000 0.117220 -167.2 0.992898 -77.89 0.992898 -77.89 0.117219 -168.7
8.79323000 0.117327 -167.2 0.992885 -77.90 0.992885 -77.90 0.117326 -168.7
8.79324000 0.117434 -167.2 0.992872 -77.90 0.992872 -77.90 0.117432 -168.8
8.79325000 0.117541 -167.3 0.992859 -77.91 0.992859 -77.91 0.117540 -168.8
8.79326000 0.117649 -167.3 0.992846 -77.92 0.992846 -77.92 0.117647 -168.8
8.79327000 0.117756 -167.3 0.992833 -77.92 0.992833 -77.92 0.117755 -168.8
8.79328000 0.117864 -167.3 0.992820 -77.93 0.992820 -77.93 0.117862 -168.8
8.79329000 0.117972 -167.3 0.992807 -77.94 0.992807 -77.94 0.117970 -168.8
8.79330000 0.118080 -167.3 0.992794 -77.94 0.992794 -77.94 0.118078 -168.8
8.79331000 0.118188 -167.3 0.992781 -77.95 0.992781 -77.95 0.118186 -168.8
8.79332000 0.118296 -167.3 0.992767 -77.96 0.992767 -77.96 0.118295 -168.8
8.79333000 0.118405 -167.3 0.992754 -77.96 0.992754 -77.96 0.118403 -168.8
8.79334000 0.118514 -167.3 0.992741 -77.97 0.992741 -77.97 0.118512 -168.8
8.79335000 0.118623 -167.3 0.992727 -77.97 0.992727 -77.97 0.118621 -168.8
8.79336000 0.118732 -167.3 0.992714 -77.98 0.992714 -77.98 0.118730 -168.8
8.79337000 0.118841 -167.3 0.992701 -77.99 0.992701 -77.99 0.118840 -168.8
8.79338000 0.118951 -167.3 0.992687 -77.99 0.992687 -77.99 0.118949 -168.8
8.79339000 0.119060 -167.3 0.992674 -78.00 0.992674 -78.00 0.119059 -168.9
8.79340000 0.119170 -167.3 0.992660 -78.01 0.992660 -78.01 0.119169 -168.9
8.79341000 0.119280 -167.4 0.992646 -78.01 0.992646 -78.01 0.119279 -168.9
8.79342000 0.119391 -167.4 0.992633 -78.02 0.992633 -78.02 0.119389 -168.9
8.79343000 0.119501 -167.4 0.992619 -78.03 0.992619 -78.03 0.119499 -168.9
8.79344000 0.119612 -167.4 0.992606 -78.03 0.992606 -78.03 0.119610 -168.9
8.79345000 0.119722 -167.4 0.992592 -78.04 0.992592 -78.04 0.119721 -168.9
8.79346000 0.119833 -167.4 0.992578 -78.05 0.992578 -78.05 0.119832 -168.9
8.79347000 0.119945 -167.4 0.992564 -78.05 0.992564 -78.05 0.119943 -168.9
8.79348000 0.120056 -167.4 0.992550 -78.06 0.992550 -78.06 0.120054 -168.9
8.79349000 0.120168 -167.4 0.992537 -78.06 0.992537 -78.06 0.120166 -168.9
8.79350000 0.120279 -167.4 0.992523 -78.07 0.992523 -78.07 0.120278 -168.9
8.79351000 0.120391 -167.4 0.992509 -78.08 0.992509 -78.08 0.120390 -168.9
8.79352000 0.120503 -167.4 0.992495 -78.08 0.992495 -78.08 0.120502 -168.9
8.79353000 0.120616 -167.4 0.992481 -78.09 0.992481 -78.09 0.120614 -168.9
8.79354000 0.120728 -167.4 0.992467 -78.10 0.992467 -78.10 0.120727 -169.0
8.79355000 0.120841 -167.4 0.992453 -78.10 0.992453 -78.10 0.120839 -169.0
8.79356000 0.120954 -167.5 0.992439 -78.11 0.992439 -78.11 0.120952 -169.0
8.79357000 0.121067 -167.5 0.992424 -78.12 0.992424 -78.12 0.121065 -169.0
8.79358000 0.121180 -167.5 0.992410 -78.12 0.992410 -78.12 0.121179 -169.0
8.79359000 0.121294 -167.5 0.992396 -78.13 0.992396 -78.13 0.121292 -169.0
8.79360000 0.121407 -167.5 0.992382 -78.14 0.992382 -78.14 0.121406 -169.0
8.79361000 0.121521 -167.5 0.992367 -78.14 0.992367 -78.14 0.121520 -169.0
8.79362000 0.121635 -167.5 0.992353 -78.15 0.992353 -78.15 0.121634 -169.0
8.79363000 0.121749 -167.5 0.992339 -78.16 0.992339 -78.16 0.121748 -169.0
8.79364000 0.121864 -167.5 0.992324 -78.16 0.992324 -78.16 0.121862 -169.0
8.79365000 0.121979 -167.5 0.992310 -78.17 0.992310 -78.17 0.121977 -169.0
8.79366000 0.122093 -167.5 0.992295 -78.18 0.992295 -78.18 0.122092 -169.0
8.79367000 0.122208 -167.5 0.992281 -78.18 0.992281 -78.18 0.122207 -169.0
8.79368000 0.122324 -167.5 0.992266 -78.19 0.992266 -78.19 0.122322 -169.0
8.79369000 0.122439 -167.5 0.992252 -78.20 0.992252 -78.20 0.122437 -169.1
8.79370000 0.122555 -167.5 0.992237 -78.20 0.992237 -78.20 0.122553 -169.1
8.79371000 0.122671 -167.6 0.992222 -78.21 0.992222 -78.21 0.122669 -169.1
8.79372000 0.122787 -167.6 0.992208 -78.22 0.992208 -78.22 0.122785 -169.1
8.79373000 0.122903 -167.6 0.992193 -78.22 0.992193 -78.22 0.122901 -169.1
8.79374000 0.123019 -167.6 0.992178 -78.23 0.992178 -78.23 0.123018 -169.1
8.79375000 0.123136 -167.6 0.992163 -78.24 0.992163 -78.24 0.123134 -169.1
8.79376000 0.123253 -167.6 0.992148 -78.24 0.992148 -78.24 0.123251 -169.1
8.79377000 0.123370 -167.6 0.992133 -78.25 0.992133 -78.25 0.123368 -169.1
8.79378000 0.123487 -167.6 0.992118 -78.26 0.992118 -78.26 0.123485 -169.1
8.79379000 0.123604 -167.6 0.992103 -78.27 0.992103 -78.27 0.123603 -169.1
8.79380000 0.123722 -167.6 0.992088 -78.27 0.992088 -78.27 0.123720 -169.1
8.79381000 0.123840 -167.6 0.992073 -78.28 0.992073 -78.28 0.123838 -169.1
8.79382000 0.123958 -167.6 0.992058 -78.29 0.992058 -78.29 0.123956 -169.1
8.79383000 0.124076 -167.6 0.992043 -78.29 0.992043 -78.29 0.124075 -169.2
8.79384000 0.124195 -167.6 0.992028 -78.30 0.992028 -78.30 0.124193 -169.2
8.79385000 0.124313 -167.6 0.992012 -78.31 0.992012 -78.31 0.124312 -169.2
8.79386000 0.124432 -167.7 0.991997 -78.31 0.991997 -78.31 0.124431 -169.2
8.79387000 0.124551 -167.7 0.991982 -78.32 0.991982 -78.32 0.124550 -169.2
8.79388000 0.124671 -167.7 0.991966 -78.33 0.991966 -78.33 0.124669 -169.2
8.79389000 0.124790 -167.7 0.991951 -78.33 0.991951 -78.33 0.124788 -169.2
8.79390000 0.124910 -167.7 0.991936 -78.34 0.991936 -78.34 0.124908 -169.2
8.79391000 0.125030 -167.7 0.991920 -78.35 0.991920 -78.35 0.125028 -169.2
8.79392000 0.125150 -167.7 0.991904 -78.36 0.991904 -78.36 0.125148 -169.2