! Sonnet Data File
! From: emgraph Version : 16.52
! From Project: Qubit_Xmon2
! Data is De-embedded 
! Data File Written: 10/18/2017 14:46:52
!< HDATE 10/18/2017 13:36:36
!< MDATE 10/18/2017 13:36:36
!< PARAMS
!< Lj = 11.0
!< Gap = 16.0
!< Pwid = 2000.0
!< Airgap = 24.0
!< Width = 40.0
!< END PARAMS
# GHZ S MA R 43.40000
8.79000000 0.082186 -163.6 0.996491 -74.85 0.996491 -74.85 0.082186 -166.2
!< P1 F=8.79 Eeff=(4.81771806 -6.2668e-5) Z0=(43.3161425 -1.8142e-4) R=0.0 C=0.0 
!< P2 F=8.79 Eeff=(4.81771806 -6.2668e-5) Z0=(43.3161425 -1.8142e-4) R=0.0 C=0.0 
8.79001000 0.082250 -163.6 0.996486 -74.86 0.996486 -74.86 0.082250 -166.2
8.79002000 0.082313 -163.6 0.996480 -74.86 0.996480 -74.86 0.082313 -166.2
8.79003000 0.082377 -163.6 0.996475 -74.86 0.996475 -74.86 0.082377 -166.3
8.79004000 0.082440 -163.6 0.996469 -74.87 0.996469 -74.87 0.082440 -166.3
8.79005000 0.082504 -163.6 0.996464 -74.87 0.996464 -74.87 0.082504 -166.3
8.79006000 0.082568 -163.6 0.996459 -74.87 0.996459 -74.87 0.082568 -166.3
8.79007000 0.082632 -163.6 0.996453 -74.88 0.996453 -74.88 0.082631 -166.3
8.79008000 0.082696 -163.7 0.996448 -74.88 0.996448 -74.88 0.082695 -166.3
8.79009000 0.082760 -163.7 0.996442 -74.89 0.996442 -74.89 0.082760 -166.3
8.79010000 0.082824 -163.7 0.996437 -74.89 0.996437 -74.89 0.082824 -166.3
8.79011000 0.082888 -163.7 0.996431 -74.89 0.996431 -74.89 0.082888 -166.3
8.79012000 0.082952 -163.7 0.996426 -74.90 0.996426 -74.90 0.082952 -166.3
8.79013000 0.083017 -163.7 0.996420 -74.90 0.996420 -74.90 0.083017 -166.3
8.79014000 0.083081 -163.7 0.996415 -74.90 0.996415 -74.90 0.083081 -166.3
8.79015000 0.083146 -163.7 0.996409 -74.91 0.996409 -74.91 0.083146 -166.3
8.79016000 0.083211 -163.7 0.996403 -74.91 0.996403 -74.91 0.083211 -166.3
8.79017000 0.083276 -163.7 0.996398 -74.92 0.996398 -74.92 0.083275 -166.3
8.79018000 0.083340 -163.7 0.996392 -74.92 0.996392 -74.92 0.083340 -166.3
8.79019000 0.083405 -163.7 0.996387 -74.92 0.996387 -74.92 0.083405 -166.3
8.79020000 0.083471 -163.7 0.996381 -74.93 0.996381 -74.93 0.083470 -166.3
8.79021000 0.083536 -163.7 0.996375 -74.93 0.996375 -74.93 0.083536 -166.3
8.79022000 0.083601 -163.7 0.996370 -74.94 0.996370 -74.94 0.083601 -166.3
8.79023000 0.083666 -163.7 0.996364 -74.94 0.996364 -74.94 0.083666 -166.3
8.79024000 0.083732 -163.7 0.996358 -74.94 0.996358 -74.94 0.083732 -166.3
8.79025000 0.083797 -163.7 0.996353 -74.95 0.996353 -74.95 0.083797 -166.3
8.79026000 0.083863 -163.7 0.996347 -74.95 0.996347 -74.95 0.083863 -166.3
8.79027000 0.083929 -163.7 0.996341 -74.95 0.996341 -74.95 0.083929 -166.3
8.79028000 0.083995 -163.7 0.996335 -74.96 0.996335 -74.96 0.083995 -166.3
8.79029000 0.084061 -163.7 0.996330 -74.96 0.996330 -74.96 0.084061 -166.4
8.79030000 0.084127 -163.7 0.996324 -74.97 0.996324 -74.97 0.084127 -166.4
8.79031000 0.084193 -163.7 0.996318 -74.97 0.996318 -74.97 0.084193 -166.4
8.79032000 0.084259 -163.7 0.996312 -74.97 0.996312 -74.97 0.084259 -166.4
8.79033000 0.084326 -163.7 0.996307 -74.98 0.996307 -74.98 0.084325 -166.4
8.79034000 0.084392 -163.8 0.996301 -74.98 0.996301 -74.98 0.084392 -166.4
8.79035000 0.084459 -163.8 0.996295 -74.99 0.996295 -74.99 0.084458 -166.4
8.79036000 0.084525 -163.8 0.996289 -74.99 0.996289 -74.99 0.084525 -166.4
8.79037000 0.084592 -163.8 0.996283 -74.99 0.996283 -74.99 0.084592 -166.4
8.79038000 0.084659 -163.8 0.996277 -75.00 0.996277 -75.00 0.084659 -166.4
8.79039000 0.084726 -163.8 0.996272 -75.00 0.996272 -75.00 0.084726 -166.4
8.79040000 0.084793 -163.8 0.996266 -75.01 0.996266 -75.01 0.084793 -166.4
8.79041000 0.084860 -163.8 0.996260 -75.01 0.996260 -75.01 0.084860 -166.4
8.79042000 0.084927 -163.8 0.996254 -75.01 0.996254 -75.01 0.084927 -166.4
8.79043000 0.084994 -163.8 0.996248 -75.02 0.996248 -75.02 0.084994 -166.4
8.79044000 0.085062 -163.8 0.996242 -75.02 0.996242 -75.02 0.085062 -166.4
8.79045000 0.085129 -163.8 0.996236 -75.03 0.996236 -75.03 0.085129 -166.4
8.79046000 0.085197 -163.8 0.996230 -75.03 0.996230 -75.03 0.085197 -166.4
8.79047000 0.085265 -163.8 0.996224 -75.03 0.996224 -75.03 0.085265 -166.4
8.79048000 0.085333 -163.8 0.996218 -75.04 0.996218 -75.04 0.085332 -166.4
8.79049000 0.085401 -163.8 0.996212 -75.04 0.996212 -75.04 0.085400 -166.4
8.79050000 0.085469 -163.8 0.996206 -75.05 0.996206 -75.05 0.085468 -166.4
8.79051000 0.085537 -163.8 0.996200 -75.05 0.996200 -75.05 0.085537 -166.4
8.79052000 0.085605 -163.8 0.996194 -75.05 0.996194 -75.05 0.085605 -166.4
8.79053000 0.085673 -163.8 0.996188 -75.06 0.996188 -75.06 0.085673 -166.4
8.79054000 0.085742 -163.8 0.996182 -75.06 0.996182 -75.06 0.085742 -166.5
8.79055000 0.085810 -163.8 0.996176 -75.07 0.996176 -75.07 0.085810 -166.5
8.79056000 0.085879 -163.8 0.996170 -75.07 0.996170 -75.07 0.085879 -166.5
8.79057000 0.085948 -163.8 0.996163 -75.07 0.996163 -75.07 0.085948 -166.5
8.79058000 0.086017 -163.9 0.996157 -75.08 0.996157 -75.08 0.086016 -166.5
8.79059000 0.086086 -163.9 0.996151 -75.08 0.996151 -75.08 0.086085 -166.5
8.79060000 0.086155 -163.9 0.996145 -75.09 0.996145 -75.09 0.086154 -166.5
8.79061000 0.086224 -163.9 0.996139 -75.09 0.996139 -75.09 0.086224 -166.5
8.79062000 0.086293 -163.9 0.996133 -75.09 0.996133 -75.09 0.086293 -166.5
8.79063000 0.086363 -163.9 0.996126 -75.10 0.996126 -75.10 0.086362 -166.5
8.79064000 0.086432 -163.9 0.996120 -75.10 0.996120 -75.10 0.086432 -166.5
8.79065000 0.086502 -163.9 0.996114 -75.11 0.996114 -75.11 0.086501 -166.5
8.79066000 0.086571 -163.9 0.996108 -75.11 0.996108 -75.11 0.086571 -166.5
8.79067000 0.086641 -163.9 0.996101 -75.11 0.996101 -75.11 0.086641 -166.5
8.79068000 0.086711 -163.9 0.996095 -75.12 0.996095 -75.12 0.086711 -166.5
8.79069000 0.086781 -163.9 0.996089 -75.12 0.996089 -75.12 0.086781 -166.5
8.79070000 0.086851 -163.9 0.996083 -75.13 0.996083 -75.13 0.086851 -166.5
8.79071000 0.086921 -163.9 0.996076 -75.13 0.996076 -75.13 0.086921 -166.5
8.79072000 0.086992 -163.9 0.996070 -75.13 0.996070 -75.13 0.086992 -166.5
8.79073000 0.087062 -163.9 0.996064 -75.14 0.996064 -75.14 0.087062 -166.5
8.79074000 0.087133 -163.9 0.996057 -75.14 0.996057 -75.14 0.087132 -166.5
8.79075000 0.087203 -163.9 0.996051 -75.15 0.996051 -75.15 0.087203 -166.5
8.79076000 0.087274 -163.9 0.996044 -75.15 0.996044 -75.15 0.087274 -166.5
8.79077000 0.087345 -163.9 0.996038 -75.16 0.996038 -75.16 0.087345 -166.5
8.79078000 0.087416 -163.9 0.996032 -75.16 0.996032 -75.16 0.087416 -166.6
8.79079000 0.087487 -163.9 0.996025 -75.16 0.996025 -75.16 0.087487 -166.6
8.79080000 0.087558 -163.9 0.996019 -75.17 0.996019 -75.17 0.087558 -166.6
8.79081000 0.087630 -163.9 0.996012 -75.17 0.996012 -75.17 0.087629 -166.6
8.79082000 0.087701 -164.0 0.996006 -75.18 0.996006 -75.18 0.087701 -166.6
8.79083000 0.087772 -164.0 0.995999 -75.18 0.995999 -75.18 0.087772 -166.6
8.79084000 0.087844 -164.0 0.995993 -75.18 0.995993 -75.18 0.087844 -166.6
8.79085000 0.087916 -164.0 0.995986 -75.19 0.995986 -75.19 0.087916 -166.6
8.79086000 0.087988 -164.0 0.995980 -75.19 0.995980 -75.19 0.087987 -166.6
8.79087000 0.088060 -164.0 0.995973 -75.20 0.995973 -75.20 0.088059 -166.6
8.79088000 0.088132 -164.0 0.995966 -75.20 0.995966 -75.20 0.088132 -166.6
8.79089000 0.088204 -164.0 0.995960 -75.21 0.995960 -75.21 0.088204 -166.6
8.79090000 0.088276 -164.0 0.995953 -75.21 0.995953 -75.21 0.088276 -166.6
8.79091000 0.088349 -164.0 0.995947 -75.21 0.995947 -75.21 0.088348 -166.6
8.79092000 0.088421 -164.0 0.995940 -75.22 0.995940 -75.22 0.088421 -166.6
8.79093000 0.088494 -164.0 0.995933 -75.22 0.995933 -75.22 0.088494 -166.6
8.79094000 0.088566 -164.0 0.995927 -75.23 0.995927 -75.23 0.088566 -166.6
8.79095000 0.088639 -164.0 0.995920 -75.23 0.995920 -75.23 0.088639 -166.6
8.79096000 0.088712 -164.0 0.995913 -75.24 0.995913 -75.24 0.088712 -166.6
8.79097000 0.088785 -164.0 0.995906 -75.24 0.995906 -75.24 0.088785 -166.6
8.79098000 0.088859 -164.0 0.995900 -75.24 0.995900 -75.24 0.088858 -166.6
8.79099000 0.088932 -164.0 0.995893 -75.25 0.995893 -75.25 0.088932 -166.6
8.79100000 0.089005 -164.0 0.995886 -75.25 0.995886 -75.25 0.089005 -166.6
8.79101000 0.089079 -164.0 0.995879 -75.26 0.995879 -75.26 0.089079 -166.7
8.79102000 0.089152 -164.0 0.995873 -75.26 0.995873 -75.26 0.089152 -166.7
8.79103000 0.089226 -164.0 0.995866 -75.27 0.995866 -75.27 0.089226 -166.7
8.79104000 0.089300 -164.0 0.995859 -75.27 0.995859 -75.27 0.089300 -166.7
8.79105000 0.089374 -164.1 0.995852 -75.27 0.995852 -75.27 0.089374 -166.7
8.79106000 0.089448 -164.1 0.995845 -75.28 0.995845 -75.28 0.089448 -166.7
8.79107000 0.089522 -164.1 0.995838 -75.28 0.995838 -75.28 0.089522 -166.7
8.79108000 0.089597 -164.1 0.995831 -75.29 0.995831 -75.29 0.089597 -166.7
8.79109000 0.089671 -164.1 0.995825 -75.29 0.995825 -75.29 0.089671 -166.7
8.79110000 0.089746 -164.1 0.995818 -75.30 0.995818 -75.30 0.089746 -166.7
8.79111000 0.089820 -164.1 0.995811 -75.30 0.995811 -75.30 0.089820 -166.7
8.79112000 0.089895 -164.1 0.995804 -75.30 0.995804 -75.30 0.089895 -166.7
8.79113000 0.089970 -164.1 0.995797 -75.31 0.995797 -75.31 0.089970 -166.7
8.79114000 0.090045 -164.1 0.995790 -75.31 0.995790 -75.31 0.090045 -166.7
8.79115000 0.090120 -164.1 0.995783 -75.32 0.995783 -75.32 0.090120 -166.7
8.79116000 0.090196 -164.1 0.995776 -75.32 0.995776 -75.32 0.090195 -166.7
8.79117000 0.090271 -164.1 0.995769 -75.33 0.995769 -75.33 0.090271 -166.7
8.79118000 0.090346 -164.1 0.995762 -75.33 0.995762 -75.33 0.090346 -166.7
8.79119000 0.090422 -164.1 0.995754 -75.34 0.995754 -75.34 0.090422 -166.7
8.79120000 0.090498 -164.1 0.995747 -75.34 0.995747 -75.34 0.090498 -166.7
8.79121000 0.090574 -164.1 0.995740 -75.34 0.995740 -75.34 0.090574 -166.7
8.79122000 0.090650 -164.1 0.995733 -75.35 0.995733 -75.35 0.090649 -166.7
8.79123000 0.090726 -164.1 0.995726 -75.35 0.995726 -75.35 0.090726 -166.8
8.79124000 0.090802 -164.1 0.995719 -75.36 0.995719 -75.36 0.090802 -166.8
8.79125000 0.090878 -164.1 0.995712 -75.36 0.995712 -75.36 0.090878 -166.8
8.79126000 0.090955 -164.1 0.995704 -75.37 0.995704 -75.37 0.090955 -166.8
8.79127000 0.091031 -164.1 0.995697 -75.37 0.995697 -75.37 0.091031 -166.8
8.79128000 0.091108 -164.2 0.995690 -75.38 0.995690 -75.38 0.091108 -166.8
8.79129000 0.091185 -164.2 0.995683 -75.38 0.995683 -75.38 0.091185 -166.8
8.79130000 0.091262 -164.2 0.995675 -75.38 0.995675 -75.38 0.091262 -166.8
8.79131000 0.091339 -164.2 0.995668 -75.39 0.995668 -75.39 0.091339 -166.8
8.79132000 0.091416 -164.2 0.995661 -75.39 0.995661 -75.39 0.091416 -166.8
8.79133000 0.091493 -164.2 0.995653 -75.40 0.995653 -75.40 0.091493 -166.8
8.79134000 0.091571 -164.2 0.995646 -75.40 0.995646 -75.40 0.091571 -166.8
8.79135000 0.091649 -164.2 0.995639 -75.41 0.995639 -75.41 0.091648 -166.8
8.79136000 0.091726 -164.2 0.995631 -75.41 0.995631 -75.41 0.091726 -166.8
8.79137000 0.091804 -164.2 0.995624 -75.42 0.995624 -75.42 0.091804 -166.8
8.79138000 0.091882 -164.2 0.995616 -75.42 0.995616 -75.42 0.091882 -166.8
8.79139000 0.091960 -164.2 0.995609 -75.43 0.995609 -75.43 0.091960 -166.8
8.79140000 0.092038 -164.2 0.995602 -75.43 0.995602 -75.43 0.092038 -166.8
8.79141000 0.092116 -164.2 0.995594 -75.43 0.995594 -75.43 0.092116 -166.8
8.79142000 0.092195 -164.2 0.995587 -75.44 0.995587 -75.44 0.092195 -166.8
8.79143000 0.092273 -164.2 0.995579 -75.44 0.995579 -75.44 0.092273 -166.8
8.79144000 0.092352 -164.2 0.995572 -75.45 0.995572 -75.45 0.092352 -166.8
8.79145000 0.092431 -164.2 0.995564 -75.45 0.995564 -75.45 0.092431 -166.9
8.79146000 0.092510 -164.2 0.995556 -75.46 0.995556 -75.46 0.092510 -166.9
8.79147000 0.092589 -164.2 0.995549 -75.46 0.995549 -75.46 0.092589 -166.9
8.79148000 0.092668 -164.2 0.995541 -75.47 0.995541 -75.47 0.092668 -166.9
8.79149000 0.092748 -164.3 0.995534 -75.47 0.995534 -75.47 0.092747 -166.9
8.79150000 0.092827 -164.3 0.995526 -75.48 0.995526 -75.48 0.092827 -166.9
8.79151000 0.092907 -164.3 0.995518 -75.48 0.995518 -75.48 0.092906 -166.9
8.79152000 0.092986 -164.3 0.995511 -75.49 0.995511 -75.49 0.092986 -166.9
8.79153000 0.093066 -164.3 0.995503 -75.49 0.995503 -75.49 0.093066 -166.9
8.79154000 0.093146 -164.3 0.995495 -75.50 0.995495 -75.50 0.093146 -166.9
8.79155000 0.093226 -164.3 0.995487 -75.50 0.995487 -75.50 0.093226 -166.9
8.79156000 0.093306 -164.3 0.995480 -75.50 0.995480 -75.50 0.093306 -166.9
8.79157000 0.093387 -164.3 0.995472 -75.51 0.995472 -75.51 0.093387 -166.9
8.79158000 0.093467 -164.3 0.995464 -75.51 0.995464 -75.51 0.093467 -166.9
8.79159000 0.093548 -164.3 0.995456 -75.52 0.995456 -75.52 0.093548 -166.9
8.79160000 0.093629 -164.3 0.995448 -75.52 0.995448 -75.52 0.093628 -166.9
8.79161000 0.093709 -164.3 0.995441 -75.53 0.995441 -75.53 0.093709 -166.9
8.79162000 0.093790 -164.3 0.995433 -75.53 0.995433 -75.53 0.093790 -166.9
8.79163000 0.093872 -164.3 0.995425 -75.54 0.995425 -75.54 0.093871 -166.9
8.79164000 0.093953 -164.3 0.995417 -75.54 0.995417 -75.54 0.093953 -166.9
8.79165000 0.094034 -164.3 0.995409 -75.55 0.995409 -75.55 0.094034 -166.9
8.79166000 0.094116 -164.3 0.995401 -75.55 0.995401 -75.55 0.094116 -167.0
8.79167000 0.094197 -164.3 0.995393 -75.56 0.995393 -75.56 0.094197 -167.0
8.79168000 0.094279 -164.3 0.995385 -75.56 0.995385 -75.56 0.094279 -167.0
8.79169000 0.094361 -164.3 0.995377 -75.57 0.995377 -75.57 0.094361 -167.0
8.79170000 0.094443 -164.4 0.995369 -75.57 0.995369 -75.57 0.094443 -167.0
8.79171000 0.094525 -164.4 0.995361 -75.58 0.995361 -75.58 0.094525 -167.0
8.79172000 0.094608 -164.4 0.995353 -75.58 0.995353 -75.58 0.094608 -167.0
8.79173000 0.094690 -164.4 0.995345 -75.59 0.995345 -75.59 0.094690 -167.0
8.79174000 0.094773 -164.4 0.995337 -75.59 0.995337 -75.59 0.094773 -167.0
8.79175000 0.094856 -164.4 0.995329 -75.60 0.995329 -75.60 0.094855 -167.0
8.79176000 0.094939 -164.4 0.995320 -75.60 0.995320 -75.60 0.094938 -167.0
8.79177000 0.095022 -164.4 0.995312 -75.60 0.995312 -75.60 0.095021 -167.0
8.79178000 0.095105 -164.4 0.995304 -75.61 0.995304 -75.61 0.095105 -167.0
8.79179000 0.095188 -164.4 0.995296 -75.61 0.995296 -75.61 0.095188 -167.0
8.79180000 0.095271 -164.4 0.995288 -75.62 0.995288 -75.62 0.095271 -167.0
8.79181000 0.095355 -164.4 0.995279 -75.62 0.995279 -75.62 0.095355 -167.0
8.79182000 0.095439 -164.4 0.995271 -75.63 0.995271 -75.63 0.095439 -167.0
8.79183000 0.095523 -164.4 0.995263 -75.63 0.995263 -75.63 0.095522 -167.0
8.79184000 0.095607 -164.4 0.995254 -75.64 0.995254 -75.64 0.095606 -167.0
8.79185000 0.095691 -164.4 0.995246 -75.64 0.995246 -75.64 0.095690 -167.0
8.79186000 0.095775 -164.4 0.995238 -75.65 0.995238 -75.65 0.095775 -167.1
8.79187000 0.095859 -164.4 0.995229 -75.65 0.995229 -75.65 0.095859 -167.1
8.79188000 0.095944 -164.4 0.995221 -75.66 0.995221 -75.66 0.095944 -167.1
8.79189000 0.096029 -164.4 0.995212 -75.66 0.995212 -75.66 0.096028 -167.1
8.79190000 0.096113 -164.5 0.995204 -75.67 0.995204 -75.67 0.096113 -167.1
8.79191000 0.096198 -164.5 0.995195 -75.67 0.995195 -75.67 0.096198 -167.1
8.79192000 0.096283 -164.5 0.995187 -75.68 0.995187 -75.68 0.096283 -167.1
8.79193000 0.096369 -164.5 0.995178 -75.68 0.995178 -75.68 0.096369 -167.1
8.79194000 0.096454 -164.5 0.995170 -75.69 0.995170 -75.69 0.096454 -167.1
8.79195000 0.096540 -164.5 0.995161 -75.69 0.995161 -75.69 0.096539 -167.1
8.79196000 0.096625 -164.5 0.995153 -75.70 0.995153 -75.70 0.096625 -167.1
8.79197000 0.096711 -164.5 0.995144 -75.70 0.995144 -75.70 0.096711 -167.1
8.79198000 0.096797 -164.5 0.995136 -75.71 0.995136 -75.71 0.096797 -167.1
8.79199000 0.096883 -164.5 0.995127 -75.71 0.995127 -75.71 0.096883 -167.1
8.79200000 0.096969 -164.5 0.995118 -75.72 0.995118 -75.72 0.096969 -167.1
8.79201000 0.097056 -164.5 0.995110 -75.72 0.995110 -75.72 0.097056 -167.1
8.79202000 0.097142 -164.5 0.995101 -75.73 0.995101 -75.73 0.097142 -167.1
8.79203000 0.097229 -164.5 0.995092 -75.73 0.995092 -75.73 0.097229 -167.1
8.79204000 0.097316 -164.5 0.995083 -75.74 0.995083 -75.74 0.097316 -167.1
8.79205000 0.097403 -164.5 0.995075 -75.74 0.995075 -75.74 0.097403 -167.1
8.79206000 0.097490 -164.5 0.995066 -75.75 0.995066 -75.75 0.097490 -167.2
8.79207000 0.097577 -164.5 0.995057 -75.75 0.995057 -75.75 0.097577 -167.2
8.79208000 0.097665 -164.5 0.995048 -75.76 0.995048 -75.76 0.097665 -167.2
8.79209000 0.097752 -164.5 0.995039 -75.76 0.995039 -75.76 0.097752 -167.2
8.79210000 0.097840 -164.6 0.995030 -75.77 0.995030 -75.77 0.097840 -167.2
8.79211000 0.097928 -164.6 0.995021 -75.77 0.995021 -75.77 0.097928 -167.2
8.79212000 0.098016 -164.6 0.995012 -75.78 0.995012 -75.78 0.098016 -167.2
8.79213000 0.098104 -164.6 0.995003 -75.79 0.995003 -75.79 0.098104 -167.2
8.79214000 0.098192 -164.6 0.994994 -75.79 0.994994 -75.79 0.098192 -167.2
8.79215000 0.098281 -164.6 0.994985 -75.80 0.994985 -75.80 0.098281 -167.2
8.79216000 0.098369 -164.6 0.994976 -75.80 0.994976 -75.80 0.098369 -167.2
8.79217000 0.098458 -164.6 0.994967 -75.81 0.994967 -75.81 0.098458 -167.2
8.79218000 0.098547 -164.6 0.994958 -75.81 0.994958 -75.81 0.098547 -167.2
8.79219000 0.098636 -164.6 0.994949 -75.82 0.994949 -75.82 0.098636 -167.2
8.79220000 0.098725 -164.6 0.994940 -75.82 0.994940 -75.82 0.098725 -167.2
8.79221000 0.098815 -164.6 0.994931 -75.83 0.994931 -75.83 0.098815 -167.2
8.79222000 0.098904 -164.6 0.994922 -75.83 0.994922 -75.83 0.098904 -167.2
8.79223000 0.098994 -164.6 0.994912 -75.84 0.994912 -75.84 0.098994 -167.2
8.79224000 0.099084 -164.6 0.994903 -75.84 0.994903 -75.84 0.099084 -167.2
8.79225000 0.099174 -164.6 0.994894 -75.85 0.994894 -75.85 0.099174 -167.3
8.79226000 0.099264 -164.6 0.994885 -75.85 0.994885 -75.85 0.099264 -167.3
8.79227000 0.099354 -164.6 0.994875 -75.86 0.994875 -75.86 0.099354 -167.3
8.79228000 0.099445 -164.6 0.994866 -75.86 0.994866 -75.86 0.099445 -167.3
8.79229000 0.099535 -164.7 0.994857 -75.87 0.994857 -75.87 0.099535 -167.3
8.79230000 0.099626 -164.7 0.994847 -75.87 0.994847 -75.87 0.099626 -167.3
8.79231000 0.099717 -164.7 0.994838 -75.88 0.994838 -75.88 0.099717 -167.3
8.79232000 0.099808 -164.7 0.994828 -75.88 0.994828 -75.88 0.099808 -167.3
8.79233000 0.099899 -164.7 0.994819 -75.89 0.994819 -75.89 0.099899 -167.3
8.79234000 0.099991 -164.7 0.994810 -75.90 0.994810 -75.90 0.099991 -167.3
8.79235000 0.100082 -164.7 0.994800 -75.90 0.994800 -75.90 0.100082 -167.3
8.79236000 0.100174 -164.7 0.994791 -75.91 0.994791 -75.91 0.100174 -167.3
8.79237000 0.100266 -164.7 0.994781 -75.91 0.994781 -75.91 0.100266 -167.3
8.79238000 0.100358 -164.7 0.994771 -75.92 0.994771 -75.92 0.100358 -167.3
8.79239000 0.100450 -164.7 0.994762 -75.92 0.994762 -75.92 0.100450 -167.3
8.79240000 0.100542 -164.7 0.994752 -75.93 0.994752 -75.93 0.100542 -167.3
8.79241000 0.100635 -164.7 0.994742 -75.93 0.994742 -75.93 0.100635 -167.3
8.79242000 0.100728 -164.7 0.994733 -75.94 0.994733 -75.94 0.100727 -167.3
8.79243000 0.100820 -164.7 0.994723 -75.94 0.994723 -75.94 0.100820 -167.3
8.79244000 0.100913 -164.7 0.994713 -75.95 0.994713 -75.95 0.100913 -167.4
8.79245000 0.101007 -164.7 0.994704 -75.95 0.994704 -75.95 0.101006 -167.4
8.79246000 0.101100 -164.7 0.994694 -75.96 0.994694 -75.96 0.101100 -167.4
8.79247000 0.101193 -164.8 0.994684 -75.97 0.994684 -75.97 0.101193 -167.4
8.79248000 0.101287 -164.8 0.994674 -75.97 0.994674 -75.97 0.101287 -167.4
8.79249000 0.101381 -164.8 0.994664 -75.98 0.994664 -75.98 0.101381 -167.4
8.79250000 0.101475 -164.8 0.994654 -75.98 0.994654 -75.98 0.101475 -167.4
8.79251000 0.101569 -164.8 0.994645 -75.99 0.994645 -75.99 0.101569 -167.4
8.79252000 0.101663 -164.8 0.994635 -75.99 0.994635 -75.99 0.101663 -167.4
8.79253000 0.101758 -164.8 0.994625 -76.00 0.994625 -76.00 0.101757 -167.4
8.79254000 0.101852 -164.8 0.994615 -76.00 0.994615 -76.00 0.101852 -167.4
8.79255000 0.101947 -164.8 0.994605 -76.01 0.994605 -76.01 0.101947 -167.4
8.79256000 0.102042 -164.8 0.994595 -76.02 0.994595 -76.02 0.102042 -167.4
8.79257000 0.102137 -164.8 0.994584 -76.02 0.994584 -76.02 0.102137 -167.4
8.79258000 0.102232 -164.8 0.994574 -76.03 0.994574 -76.03 0.102232 -167.4
8.79259000 0.102328 -164.8 0.994564 -76.03 0.994564 -76.03 0.102328 -167.4
8.79260000 0.102424 -164.8 0.994554 -76.04 0.994554 -76.04 0.102423 -167.4
8.79261000 0.102519 -164.8 0.994544 -76.04 0.994544 -76.04 0.102519 -167.5
8.79262000 0.102615 -164.8 0.994534 -76.05 0.994534 -76.05 0.102615 -167.5
8.79263000 0.102711 -164.8 0.994523 -76.05 0.994523 -76.05 0.102711 -167.5
8.79264000 0.102808 -164.8 0.994513 -76.06 0.994513 -76.06 0.102808 -167.5
8.79265000 0.102904 -164.9 0.994503 -76.07 0.994503 -76.07 0.102904 -167.5
8.79266000 0.103001 -164.9 0.994492 -76.07 0.994492 -76.07 0.103001 -167.5
8.79267000 0.103098 -164.9 0.994482 -76.08 0.994482 -76.08 0.103097 -167.5
8.79268000 0.103195 -164.9 0.994472 -76.08 0.994472 -76.08 0.103194 -167.5
8.79269000 0.103292 -164.9 0.994461 -76.09 0.994461 -76.09 0.103292 -167.5
8.79270000 0.103389 -164.9 0.994451 -76.09 0.994451 -76.09 0.103389 -167.5
8.79271000 0.103487 -164.9 0.994440 -76.10 0.994440 -76.10 0.103486 -167.5
8.79272000 0.103584 -164.9 0.994430 -76.11 0.994430 -76.11 0.103584 -167.5
8.79273000 0.103682 -164.9 0.994419 -76.11 0.994419 -76.11 0.103682 -167.5
8.79274000 0.103780 -164.9 0.994409 -76.12 0.994409 -76.12 0.103780 -167.5
8.79275000 0.103879 -164.9 0.994398 -76.12 0.994398 -76.12 0.103878 -167.5
8.79276000 0.103977 -164.9 0.994388 -76.13 0.994388 -76.13 0.103977 -167.5
8.79277000 0.104075 -164.9 0.994377 -76.13 0.994377 -76.13 0.104075 -167.5
8.79278000 0.104174 -164.9 0.994366 -76.14 0.994366 -76.14 0.104174 -167.5
8.79279000 0.104273 -164.9 0.994356 -76.15 0.994356 -76.15 0.104273 -167.6
8.79280000 0.104372 -164.9 0.994345 -76.15 0.994345 -76.15 0.104372 -167.6
8.79281000 0.104472 -164.9 0.994334 -76.16 0.994334 -76.16 0.104471 -167.6
8.79282000 0.104571 -165.0 0.994323 -76.16 0.994323 -76.16 0.104571 -167.6
8.79283000 0.104671 -165.0 0.994313 -76.17 0.994313 -76.17 0.104670 -167.6
8.79284000 0.104770 -165.0 0.994302 -76.17 0.994302 -76.17 0.104770 -167.6
8.79285000 0.104870 -165.0 0.994291 -76.18 0.994291 -76.18 0.104870 -167.6
8.79286000 0.104971 -165.0 0.994280 -76.19 0.994280 -76.19 0.104970 -167.6
8.79287000 0.105071 -165.0 0.994269 -76.19 0.994269 -76.19 0.105071 -167.6
8.79288000 0.105171 -165.0 0.994258 -76.20 0.994258 -76.20 0.105171 -167.6
8.79289000 0.105272 -165.0 0.994247 -76.20 0.994247 -76.20 0.105272 -167.6
8.79290000 0.105373 -165.0 0.994236 -76.21 0.994236 -76.21 0.105373 -167.6
8.79291000 0.105474 -165.0 0.994225 -76.22 0.994225 -76.22 0.105474 -167.6
8.79292000 0.105575 -165.0 0.994214 -76.22 0.994214 -76.22 0.105575 -167.6
8.79293000 0.105677 -165.0 0.994203 -76.23 0.994203 -76.23 0.105677 -167.6
8.79294000 0.105779 -165.0 0.994192 -76.23 0.994192 -76.23 0.105778 -167.6
8.79295000 0.105880 -165.0 0.994180 -76.24 0.994180 -76.24 0.105880 -167.6
8.79296000 0.105982 -165.0 0.994169 -76.25 0.994169 -76.25 0.105982 -167.7
8.79297000 0.106085 -165.0 0.994158 -76.25 0.994158 -76.25 0.106084 -167.7
8.79298000 0.106187 -165.0 0.994147 -76.26 0.994147 -76.26 0.106187 -167.7
8.79299000 0.106289 -165.1 0.994135 -76.26 0.994135 -76.26 0.106289 -167.7
8.79300000 0.106392 -165.1 0.994124 -76.27 0.994124 -76.27 0.106392 -167.7
8.79301000 0.106495 -165.1 0.994113 -76.28 0.994113 -76.28 0.106495 -167.7
8.79302000 0.106598 -165.1 0.994101 -76.28 0.994101 -76.28 0.106598 -167.7
8.79303000 0.106702 -165.1 0.994090 -76.29 0.994090 -76.29 0.106701 -167.7
8.79304000 0.106805 -165.1 0.994078 -76.29 0.994078 -76.29 0.106805 -167.7
8.79305000 0.106909 -165.1 0.994067 -76.30 0.994067 -76.30 0.106909 -167.7
8.79306000 0.107013 -165.1 0.994055 -76.31 0.994055 -76.31 0.107013 -167.7
8.79307000 0.107117 -165.1 0.994044 -76.31 0.994044 -76.31 0.107117 -167.7
8.79308000 0.107221 -165.1 0.994032 -76.32 0.994032 -76.32 0.107221 -167.7
8.79309000 0.107326 -165.1 0.994020 -76.32 0.994020 -76.32 0.107325 -167.7
8.79310000 0.107430 -165.1 0.994009 -76.33 0.994009 -76.33 0.107430 -167.7
8.79311000 0.107535 -165.1 0.993997 -76.34 0.993997 -76.34 0.107535 -167.7
8.79312000 0.107640 -165.1 0.993985 -76.34 0.993985 -76.34 0.107640 -167.8
8.79313000 0.107745 -165.1 0.993974 -76.35 0.993974 -76.35 0.107745 -167.8
8.79314000 0.107851 -165.1 0.993962 -76.35 0.993962 -76.35 0.107851 -167.8
8.79315000 0.107956 -165.2 0.993950 -76.36 0.993950 -76.36 0.107956 -167.8
8.79316000 0.108062 -165.2 0.993938 -76.37 0.993938 -76.37 0.108062 -167.8
8.79317000 0.108168 -165.2 0.993926 -76.37 0.993926 -76.37 0.108168 -167.8
8.79318000 0.108274 -165.2 0.993914 -76.38 0.993914 -76.38 0.108274 -167.8
8.79319000 0.108381 -165.2 0.993902 -76.39 0.993902 -76.39 0.108381 -167.8
8.79320000 0.108488 -165.2 0.993890 -76.39 0.993890 -76.39 0.108487 -167.8
8.79321000 0.108594 -165.2 0.993878 -76.40 0.993878 -76.40 0.108594 -167.8
8.79322000 0.108701 -165.2 0.993866 -76.40 0.993866 -76.40 0.108701 -167.8
8.79323000 0.108809 -165.2 0.993854 -76.41 0.993854 -76.41 0.108808 -167.8
8.79324000 0.108916 -165.2 0.993842 -76.42 0.993842 -76.42 0.108916 -167.8
8.79325000 0.109024 -165.2 0.993830 -76.42 0.993830 -76.42 0.109023 -167.8
8.79326000 0.109131 -165.2 0.993817 -76.43 0.993817 -76.43 0.109131 -167.8
8.79327000 0.109239 -165.2 0.993805 -76.44 0.993805 -76.44 0.109239 -167.8
8.79328000 0.109348 -165.2 0.993793 -76.44 0.993793 -76.44 0.109347 -167.9
8.79329000 0.109456 -165.2 0.993781 -76.45 0.993781 -76.45 0.109456 -167.9
8.79330000 0.109565 -165.2 0.993768 -76.45 0.993768 -76.45 0.109564 -167.9
8.79331000 0.109674 -165.3 0.993756 -76.46 0.993756 -76.46 0.109673 -167.9
8.79332000 0.109783 -165.3 0.993743 -76.47 0.993743 -76.47 0.109782 -167.9
8.79333000 0.109892 -165.3 0.993731 -76.47 0.993731 -76.47 0.109892 -167.9
8.79334000 0.110001 -165.3 0.993718 -76.48 0.993718 -76.48 0.110001 -167.9
8.79335000 0.110111 -165.3 0.993706 -76.49 0.993706 -76.49 0.110111 -167.9
8.79336000 0.110221 -165.3 0.993693 -76.49 0.993693 -76.49 0.110221 -167.9
8.79337000 0.110331 -165.3 0.993681 -76.50 0.993681 -76.50 0.110331 -167.9
8.79338000 0.110441 -165.3 0.993668 -76.51 0.993668 -76.51 0.110441 -167.9
8.79339000 0.110552 -165.3 0.993655 -76.51 0.993655 -76.51 0.110551 -167.9
8.79340000 0.110662 -165.3 0.993643 -76.52 0.993643 -76.52 0.110662 -167.9
8.79341000 0.110773 -165.3 0.993630 -76.53 0.993630 -76.53 0.110773 -167.9
8.79342000 0.110884 -165.3 0.993617 -76.53 0.993617 -76.53 0.110884 -167.9
8.79343000 0.110996 -165.3 0.993604 -76.54 0.993604 -76.54 0.110995 -168.0
8.79344000 0.111107 -165.3 0.993591 -76.54 0.993591 -76.54 0.111107 -168.0
8.79345000 0.111219 -165.3 0.993579 -76.55 0.993579 -76.55 0.111219 -168.0
8.79346000 0.111331 -165.4 0.993566 -76.56 0.993566 -76.56 0.111331 -168.0
8.79347000 0.111443 -165.4 0.993553 -76.56 0.993553 -76.56 0.111443 -168.0
8.79348000 0.111555 -165.4 0.993540 -76.57 0.993540 -76.57 0.111555 -168.0
8.79349000 0.111668 -165.4 0.993527 -76.58 0.993527 -76.58 0.111668 -168.0
8.79350000 0.111781 -165.4 0.993513 -76.58 0.993513 -76.58 0.111781 -168.0
8.79351000 0.111894 -165.4 0.993500 -76.59 0.993500 -76.59 0.111894 -168.0
8.79352000 0.112007 -165.4 0.993487 -76.60 0.993487 -76.60 0.112007 -168.0
8.79353000 0.112121 -165.4 0.993474 -76.60 0.993474 -76.60 0.112120 -168.0
8.79354000 0.112234 -165.4 0.993461 -76.61 0.993461 -76.61 0.112234 -168.0
8.79355000 0.112348 -165.4 0.993447 -76.62 0.993447 -76.62 0.112348 -168.0
8.79356000 0.112462 -165.4 0.993434 -76.62 0.993434 -76.62 0.112462 -168.0
8.79357000 0.112577 -165.4 0.993421 -76.63 0.993421 -76.63 0.112577 -168.0
8.79358000 0.112691 -165.4 0.993407 -76.64 0.993407 -76.64 0.112691 -168.1
8.79359000 0.112806 -165.4 0.993394 -76.64 0.993394 -76.64 0.112806 -168.1
8.79360000 0.112921 -165.4 0.993380 -76.65 0.993380 -76.65 0.112921 -168.1
8.79361000 0.113036 -165.5 0.993367 -76.66 0.993367 -76.66 0.113036 -168.1
8.79362000 0.113152 -165.5 0.993353 -76.66 0.993353 -76.66 0.113152 -168.1
8.79363000 0.113268 -165.5 0.993340 -76.67 0.993340 -76.67 0.113267 -168.1
8.79364000 0.113383 -165.5 0.993326 -76.68 0.993326 -76.68 0.113383 -168.1
8.79365000 0.113500 -165.5 0.993312 -76.68 0.993312 -76.68 0.113499 -168.1
8.79366000 0.113616 -165.5 0.993299 -76.69 0.993299 -76.69 0.113616 -168.1
8.79367000 0.113732 -165.5 0.993285 -76.70 0.993285 -76.70 0.113732 -168.1
8.79368000 0.113849 -165.5 0.993271 -76.70 0.993271 -76.70 0.113849 -168.1
8.79369000 0.113966 -165.5 0.993257 -76.71 0.993257 -76.71 0.113966 -168.1
8.79370000 0.114084 -165.5 0.993243 -76.72 0.993243 -76.72 0.114083 -168.1
8.79371000 0.114201 -165.5 0.993229 -76.73 0.993229 -76.73 0.114201 -168.1
8.79372000 0.114319 -165.5 0.993215 -76.73 0.993215 -76.73 0.114319 -168.1
8.79373000 0.114437 -165.5 0.993201 -76.74 0.993201 -76.74 0.114437 -168.2
8.79374000 0.114555 -165.5 0.993187 -76.75 0.993187 -76.75 0.114555 -168.2
8.79375000 0.114673 -165.6 0.993173 -76.75 0.993173 -76.75 0.114673 -168.2
8.79376000 0.114792 -165.6 0.993159 -76.76 0.993159 -76.76 0.114792 -168.2
8.79377000 0.114911 -165.6 0.993145 -76.77 0.993145 -76.77 0.114911 -168.2
8.79378000 0.115030 -165.6 0.993131 -76.77 0.993131 -76.77 0.115030 -168.2
8.79379000 0.115149 -165.6 0.993116 -76.78 0.993116 -76.78 0.115149 -168.2
8.79380000 0.115269 -165.6 0.993102 -76.79 0.993102 -76.79 0.115269 -168.2
8.79381000 0.115389 -165.6 0.993088 -76.79 0.993088 -76.79 0.115389 -168.2
8.79382000 0.115509 -165.6 0.993073 -76.80 0.993073 -76.80 0.115509 -168.2
8.79383000 0.115629 -165.6 0.993059 -76.81 0.993059 -76.81 0.115629 -168.2
8.79384000 0.115750 -165.6 0.993044 -76.82 0.993044 -76.82 0.115750 -168.2
8.79385000 0.115871 -165.6 0.993030 -76.82 0.993030 -76.82 0.115870 -168.2
8.79386000 0.115992 -165.6 0.993015 -76.83 0.993015 -76.83 0.115991 -168.2
8.79387000 0.116113 -165.6 0.993001 -76.84 0.993001 -76.84 0.116113 -168.3
8.79388000 0.116234 -165.6 0.992986 -76.84 0.992986 -76.84 0.116234 -168.3
8.79389000 0.116356 -165.7 0.992971 -76.85 0.992971 -76.85 0.116356 -168.3
8.79390000 0.116478 -165.7 0.992956 -76.86 0.992956 -76.86 0.116478 -168.3
8.79391000 0.116600 -165.7 0.992942 -76.87 0.992942 -76.87 0.116600 -168.3
8.79392000 0.116723 -165.7 0.992927 -76.87 0.992927 -76.87 0.116722 -168.3