! Sonnet Data File
! From: emgraph Version : 16.52
! From Project: Qubit_Xmon2
! Data is De-embedded 
! Data File Written: 10/18/2017 11:36:09
!< HDATE 10/18/2017 10:24:37
!< MDATE 10/18/2017 10:24:37
!< PARAMS
!< Lj = 11.0
!< Gap = 26.0
!< Pwid = 2000.0
!< Airgap = 12.0
!< Width = 20.0
!< END PARAMS
# GHZ S MA R 40.13000
8.79000000 0.121886 -165.4 0.992409 -76.22 0.992409 -76.22 0.121884 -167.2
!< P1 F=8.79 Eeff=(4.99688633 -5.9225e-5) Z0=(38.486563 -1.2923e-4) R=0.0 C=0.0 
!< P2 F=8.79 Eeff=(4.99688633 -5.9225e-5) Z0=(38.486563 -1.2923e-4) R=0.0 C=0.0 
8.79001000 0.121954 -165.4 0.992400 -76.23 0.992400 -76.23 0.121952 -167.2
8.79002000 0.122022 -165.4 0.992391 -76.23 0.992391 -76.23 0.122020 -167.2
8.79003000 0.122091 -165.4 0.992383 -76.24 0.992383 -76.24 0.122089 -167.2
8.79004000 0.122160 -165.4 0.992374 -76.24 0.992374 -76.24 0.122158 -167.2
8.79005000 0.122228 -165.4 0.992365 -76.24 0.992365 -76.24 0.122226 -167.2
8.79006000 0.122297 -165.4 0.992357 -76.25 0.992357 -76.25 0.122295 -167.2
8.79007000 0.122366 -165.4 0.992348 -76.25 0.992348 -76.25 0.122364 -167.2
8.79008000 0.122435 -165.4 0.992339 -76.26 0.992339 -76.26 0.122433 -167.2
8.79009000 0.122504 -165.4 0.992331 -76.26 0.992331 -76.26 0.122503 -167.3
8.79010000 0.122574 -165.4 0.992322 -76.26 0.992322 -76.26 0.122572 -167.3
8.79011000 0.122643 -165.4 0.992313 -76.27 0.992313 -76.27 0.122641 -167.3
8.79012000 0.122713 -165.4 0.992304 -76.27 0.992304 -76.27 0.122711 -167.3
8.79013000 0.122782 -165.4 0.992295 -76.28 0.992295 -76.28 0.122780 -167.3
8.79014000 0.122852 -165.4 0.992287 -76.28 0.992287 -76.28 0.122850 -167.3
8.79015000 0.122922 -165.4 0.992278 -76.28 0.992278 -76.28 0.122920 -167.3
8.79016000 0.122992 -165.4 0.992269 -76.29 0.992269 -76.29 0.122990 -167.3
8.79017000 0.123062 -165.4 0.992260 -76.29 0.992260 -76.29 0.123060 -167.3
8.79018000 0.123132 -165.4 0.992251 -76.30 0.992251 -76.30 0.123130 -167.3
8.79019000 0.123202 -165.4 0.992242 -76.30 0.992242 -76.30 0.123200 -167.3
8.79020000 0.123273 -165.4 0.992233 -76.30 0.992233 -76.30 0.123271 -167.3
8.79021000 0.123343 -165.4 0.992224 -76.31 0.992224 -76.31 0.123341 -167.3
8.79022000 0.123414 -165.4 0.992215 -76.31 0.992215 -76.31 0.123412 -167.3
8.79023000 0.123485 -165.4 0.992206 -76.32 0.992206 -76.32 0.123483 -167.3
8.79024000 0.123555 -165.4 0.992197 -76.32 0.992197 -76.32 0.123553 -167.3
8.79025000 0.123626 -165.4 0.992188 -76.33 0.992188 -76.33 0.123624 -167.3
8.79026000 0.123697 -165.5 0.992179 -76.33 0.992179 -76.33 0.123695 -167.3
8.79027000 0.123769 -165.5 0.992170 -76.33 0.992170 -76.33 0.123767 -167.3
8.79028000 0.123840 -165.5 0.992161 -76.34 0.992161 -76.34 0.123838 -167.3
8.79029000 0.123911 -165.5 0.992152 -76.34 0.992152 -76.34 0.123909 -167.3
8.79030000 0.123983 -165.5 0.992143 -76.35 0.992143 -76.35 0.123981 -167.3
8.79031000 0.124054 -165.5 0.992133 -76.35 0.992133 -76.35 0.124052 -167.3
8.79032000 0.124126 -165.5 0.992124 -76.35 0.992124 -76.35 0.124124 -167.4
8.79033000 0.124198 -165.5 0.992115 -76.36 0.992115 -76.36 0.124196 -167.4
8.79034000 0.124270 -165.5 0.992106 -76.36 0.992106 -76.36 0.124268 -167.4
8.79035000 0.124342 -165.5 0.992097 -76.37 0.992097 -76.37 0.124340 -167.4
8.79036000 0.124414 -165.5 0.992087 -76.37 0.992087 -76.37 0.124412 -167.4
8.79037000 0.124486 -165.5 0.992078 -76.38 0.992078 -76.38 0.124484 -167.4
8.79038000 0.124559 -165.5 0.992069 -76.38 0.992069 -76.38 0.124557 -167.4
8.79039000 0.124631 -165.5 0.992059 -76.38 0.992059 -76.38 0.124629 -167.4
8.79040000 0.124704 -165.5 0.992050 -76.39 0.992050 -76.39 0.124702 -167.4
8.79041000 0.124776 -165.5 0.992041 -76.39 0.992041 -76.39 0.124774 -167.4
8.79042000 0.124849 -165.5 0.992031 -76.40 0.992031 -76.40 0.124847 -167.4
8.79043000 0.124922 -165.5 0.992022 -76.40 0.992022 -76.40 0.124920 -167.4
8.79044000 0.124995 -165.5 0.992013 -76.41 0.992013 -76.41 0.124993 -167.4
8.79045000 0.125068 -165.5 0.992003 -76.41 0.992003 -76.41 0.125066 -167.4
8.79046000 0.125142 -165.5 0.991994 -76.41 0.991994 -76.41 0.125140 -167.4
8.79047000 0.125215 -165.5 0.991984 -76.42 0.991984 -76.42 0.125213 -167.4
8.79048000 0.125289 -165.5 0.991975 -76.42 0.991975 -76.42 0.125287 -167.4
8.79049000 0.125362 -165.5 0.991965 -76.43 0.991965 -76.43 0.125360 -167.4
8.79050000 0.125436 -165.6 0.991956 -76.43 0.991956 -76.43 0.125434 -167.4
8.79051000 0.125510 -165.6 0.991946 -76.44 0.991946 -76.44 0.125508 -167.4
8.79052000 0.125584 -165.6 0.991936 -76.44 0.991936 -76.44 0.125582 -167.4
8.79053000 0.125658 -165.6 0.991927 -76.45 0.991927 -76.45 0.125656 -167.5
8.79054000 0.125732 -165.6 0.991917 -76.45 0.991917 -76.45 0.125730 -167.5
8.79055000 0.125807 -165.6 0.991907 -76.45 0.991907 -76.45 0.125805 -167.5
8.79056000 0.125881 -165.6 0.991898 -76.46 0.991898 -76.46 0.125879 -167.5
8.79057000 0.125956 -165.6 0.991888 -76.46 0.991888 -76.46 0.125954 -167.5
8.79058000 0.126031 -165.6 0.991878 -76.47 0.991878 -76.47 0.126029 -167.5
8.79059000 0.126105 -165.6 0.991869 -76.47 0.991869 -76.47 0.126103 -167.5
8.79060000 0.126180 -165.6 0.991859 -76.48 0.991859 -76.48 0.126178 -167.5
8.79061000 0.126255 -165.6 0.991849 -76.48 0.991849 -76.48 0.126253 -167.5
8.79062000 0.126331 -165.6 0.991839 -76.48 0.991839 -76.48 0.126329 -167.5
8.79063000 0.126406 -165.6 0.991829 -76.49 0.991829 -76.49 0.126404 -167.5
8.79064000 0.126481 -165.6 0.991820 -76.49 0.991820 -76.49 0.126479 -167.5
8.79065000 0.126557 -165.6 0.991810 -76.50 0.991810 -76.50 0.126555 -167.5
8.79066000 0.126633 -165.6 0.991800 -76.50 0.991800 -76.50 0.126631 -167.5
8.79067000 0.126708 -165.6 0.991790 -76.51 0.991790 -76.51 0.126706 -167.5
8.79068000 0.126784 -165.6 0.991780 -76.51 0.991780 -76.51 0.126782 -167.5
8.79069000 0.126860 -165.6 0.991770 -76.52 0.991770 -76.52 0.126858 -167.5
8.79070000 0.126937 -165.6 0.991760 -76.52 0.991760 -76.52 0.126934 -167.5
8.79071000 0.127013 -165.6 0.991750 -76.52 0.991750 -76.52 0.127011 -167.5
8.79072000 0.127089 -165.6 0.991740 -76.53 0.991740 -76.53 0.127087 -167.5
8.79073000 0.127166 -165.6 0.991730 -76.53 0.991730 -76.53 0.127164 -167.5
8.79074000 0.127242 -165.7 0.991720 -76.54 0.991720 -76.54 0.127240 -167.5
8.79075000 0.127319 -165.7 0.991710 -76.54 0.991710 -76.54 0.127317 -167.6
8.79076000 0.127396 -165.7 0.991700 -76.55 0.991700 -76.55 0.127394 -167.6
8.79077000 0.127473 -165.7 0.991690 -76.55 0.991690 -76.55 0.127471 -167.6
8.79078000 0.127550 -165.7 0.991679 -76.56 0.991679 -76.56 0.127548 -167.6
8.79079000 0.127628 -165.7 0.991669 -76.56 0.991669 -76.56 0.127626 -167.6
8.79080000 0.127705 -165.7 0.991659 -76.57 0.991659 -76.57 0.127703 -167.6
8.79081000 0.127783 -165.7 0.991649 -76.57 0.991649 -76.57 0.127780 -167.6
8.79082000 0.127860 -165.7 0.991639 -76.57 0.991639 -76.57 0.127858 -167.6
8.79083000 0.127938 -165.7 0.991628 -76.58 0.991628 -76.58 0.127936 -167.6
8.79084000 0.128016 -165.7 0.991618 -76.58 0.991618 -76.58 0.128014 -167.6
8.79085000 0.128094 -165.7 0.991608 -76.59 0.991608 -76.59 0.128092 -167.6
8.79086000 0.128172 -165.7 0.991597 -76.59 0.991597 -76.59 0.128170 -167.6
8.79087000 0.128250 -165.7 0.991587 -76.60 0.991587 -76.60 0.128248 -167.6
8.79088000 0.128329 -165.7 0.991577 -76.60 0.991577 -76.60 0.128327 -167.6
8.79089000 0.128407 -165.7 0.991566 -76.61 0.991566 -76.61 0.128405 -167.6
8.79090000 0.128486 -165.7 0.991556 -76.61 0.991556 -76.61 0.128484 -167.6
8.79091000 0.128565 -165.7 0.991545 -76.62 0.991545 -76.62 0.128563 -167.6
8.79092000 0.128644 -165.7 0.991535 -76.62 0.991535 -76.62 0.128642 -167.6
8.79093000 0.128723 -165.7 0.991524 -76.63 0.991524 -76.63 0.128721 -167.6
8.79094000 0.128802 -165.7 0.991514 -76.63 0.991514 -76.63 0.128800 -167.6
8.79095000 0.128881 -165.7 0.991503 -76.63 0.991503 -76.63 0.128879 -167.7
8.79096000 0.128961 -165.8 0.991493 -76.64 0.991493 -76.64 0.128959 -167.7
8.79097000 0.129040 -165.8 0.991482 -76.64 0.991482 -76.64 0.129038 -167.7
8.79098000 0.129120 -165.8 0.991471 -76.65 0.991471 -76.65 0.129118 -167.7
8.79099000 0.129200 -165.8 0.991461 -76.65 0.991461 -76.65 0.129198 -167.7
8.79100000 0.129280 -165.8 0.991450 -76.66 0.991450 -76.66 0.129278 -167.7
8.79101000 0.129360 -165.8 0.991439 -76.66 0.991439 -76.66 0.129358 -167.7
8.79102000 0.129440 -165.8 0.991429 -76.67 0.991429 -76.67 0.129438 -167.7
8.79103000 0.129521 -165.8 0.991418 -76.67 0.991418 -76.67 0.129519 -167.7
8.79104000 0.129601 -165.8 0.991407 -76.68 0.991407 -76.68 0.129599 -167.7
8.79105000 0.129682 -165.8 0.991396 -76.68 0.991396 -76.68 0.129680 -167.7
8.79106000 0.129763 -165.8 0.991386 -76.69 0.991386 -76.69 0.129761 -167.7
8.79107000 0.129844 -165.8 0.991375 -76.69 0.991375 -76.69 0.129841 -167.7
8.79108000 0.129925 -165.8 0.991364 -76.70 0.991364 -76.70 0.129923 -167.7
8.79109000 0.130006 -165.8 0.991353 -76.70 0.991353 -76.70 0.130004 -167.7
8.79110000 0.130087 -165.8 0.991342 -76.71 0.991342 -76.71 0.130085 -167.7
8.79111000 0.130169 -165.8 0.991331 -76.71 0.991331 -76.71 0.130166 -167.7
8.79112000 0.130250 -165.8 0.991320 -76.72 0.991320 -76.72 0.130248 -167.7
8.79113000 0.130332 -165.8 0.991309 -76.72 0.991309 -76.72 0.130330 -167.7
8.79114000 0.130414 -165.8 0.991298 -76.72 0.991298 -76.72 0.130412 -167.7
8.79115000 0.130496 -165.8 0.991287 -76.73 0.991287 -76.73 0.130494 -167.8
8.79116000 0.130578 -165.8 0.991276 -76.73 0.991276 -76.73 0.130576 -167.8
8.79117000 0.130660 -165.8 0.991265 -76.74 0.991265 -76.74 0.130658 -167.8
8.79118000 0.130743 -165.9 0.991254 -76.74 0.991254 -76.74 0.130740 -167.8
8.79119000 0.130825 -165.9 0.991243 -76.75 0.991243 -76.75 0.130823 -167.8
8.79120000 0.130908 -165.9 0.991231 -76.75 0.991231 -76.75 0.130906 -167.8
8.79121000 0.130991 -165.9 0.991220 -76.76 0.991220 -76.76 0.130989 -167.8
8.79122000 0.131074 -165.9 0.991209 -76.76 0.991209 -76.76 0.131071 -167.8
8.79123000 0.131157 -165.9 0.991198 -76.77 0.991198 -76.77 0.131155 -167.8
8.79124000 0.131240 -165.9 0.991186 -76.77 0.991186 -76.77 0.131238 -167.8
8.79125000 0.131323 -165.9 0.991175 -76.78 0.991175 -76.78 0.131321 -167.8
8.79126000 0.131407 -165.9 0.991164 -76.78 0.991164 -76.78 0.131405 -167.8
8.79127000 0.131491 -165.9 0.991152 -76.79 0.991152 -76.79 0.131488 -167.8
8.79128000 0.131574 -165.9 0.991141 -76.79 0.991141 -76.79 0.131572 -167.8
8.79129000 0.131658 -165.9 0.991130 -76.80 0.991130 -76.80 0.131656 -167.8
8.79130000 0.131742 -165.9 0.991118 -76.80 0.991118 -76.80 0.131740 -167.8
8.79131000 0.131827 -165.9 0.991107 -76.81 0.991107 -76.81 0.131824 -167.8
8.79132000 0.131911 -165.9 0.991095 -76.81 0.991095 -76.81 0.131909 -167.8
8.79133000 0.131996 -165.9 0.991084 -76.82 0.991084 -76.82 0.131993 -167.8
8.79134000 0.132080 -165.9 0.991072 -76.82 0.991072 -76.82 0.132078 -167.9
8.79135000 0.132165 -165.9 0.991060 -76.83 0.991060 -76.83 0.132163 -167.9
8.79136000 0.132250 -165.9 0.991049 -76.83 0.991049 -76.83 0.132248 -167.9
8.79137000 0.132335 -165.9 0.991037 -76.84 0.991037 -76.84 0.132333 -167.9
8.79138000 0.132420 -165.9 0.991026 -76.84 0.991026 -76.84 0.132418 -167.9
8.79139000 0.132506 -166.0 0.991014 -76.85 0.991014 -76.85 0.132504 -167.9
8.79140000 0.132591 -166.0 0.991002 -76.85 0.991002 -76.85 0.132589 -167.9
8.79141000 0.132677 -166.0 0.990990 -76.86 0.990990 -76.86 0.132675 -167.9
8.79142000 0.132763 -166.0 0.990979 -76.86 0.990979 -76.86 0.132761 -167.9
8.79143000 0.132849 -166.0 0.990967 -76.87 0.990967 -76.87 0.132847 -167.9
8.79144000 0.132935 -166.0 0.990955 -76.87 0.990955 -76.87 0.132933 -167.9
8.79145000 0.133021 -166.0 0.990943 -76.88 0.990943 -76.88 0.133019 -167.9
8.79146000 0.133108 -166.0 0.990931 -76.88 0.990931 -76.88 0.133105 -167.9
8.79147000 0.133194 -166.0 0.990919 -76.89 0.990919 -76.89 0.133192 -167.9
8.79148000 0.133281 -166.0 0.990907 -76.89 0.990907 -76.89 0.133279 -167.9
8.79149000 0.133368 -166.0 0.990895 -76.90 0.990895 -76.90 0.133365 -167.9
8.79150000 0.133455 -166.0 0.990883 -76.90 0.990883 -76.90 0.133452 -167.9
8.79151000 0.133542 -166.0 0.990871 -76.91 0.990871 -76.91 0.133540 -167.9
8.79152000 0.133629 -166.0 0.990859 -76.91 0.990859 -76.91 0.133627 -168.0
8.79153000 0.133717 -166.0 0.990847 -76.92 0.990847 -76.92 0.133714 -168.0
8.79154000 0.133804 -166.0 0.990835 -76.92 0.990835 -76.92 0.133802 -168.0
8.79155000 0.133892 -166.0 0.990823 -76.93 0.990823 -76.93 0.133890 -168.0
8.79156000 0.133980 -166.0 0.990811 -76.93 0.990811 -76.93 0.133978 -168.0
8.79157000 0.134068 -166.0 0.990799 -76.94 0.990799 -76.94 0.134066 -168.0
8.79158000 0.134156 -166.0 0.990786 -76.94 0.990786 -76.94 0.134154 -168.0
8.79159000 0.134245 -166.1 0.990774 -76.95 0.990774 -76.95 0.134242 -168.0
8.79160000 0.134333 -166.1 0.990762 -76.95 0.990762 -76.95 0.134331 -168.0
8.79161000 0.134422 -166.1 0.990750 -76.96 0.990750 -76.96 0.134420 -168.0
8.79162000 0.134511 -166.1 0.990737 -76.97 0.990737 -76.97 0.134508 -168.0
8.79163000 0.134600 -166.1 0.990725 -76.97 0.990725 -76.97 0.134597 -168.0
8.79164000 0.134689 -166.1 0.990712 -76.98 0.990712 -76.98 0.134686 -168.0
8.79165000 0.134778 -166.1 0.990700 -76.98 0.990700 -76.98 0.134776 -168.0
8.79166000 0.134868 -166.1 0.990688 -76.99 0.990688 -76.99 0.134865 -168.0
8.79167000 0.134957 -166.1 0.990675 -76.99 0.990675 -76.99 0.134955 -168.0
8.79168000 0.135047 -166.1 0.990662 -77.00 0.990662 -77.00 0.135045 -168.0
8.79169000 0.135137 -166.1 0.990650 -77.00 0.990650 -77.00 0.135135 -168.0
8.79170000 0.135227 -166.1 0.990637 -77.01 0.990637 -77.01 0.135225 -168.0
8.79171000 0.135317 -166.1 0.990625 -77.01 0.990625 -77.01 0.135315 -168.1
8.79172000 0.135408 -166.1 0.990612 -77.02 0.990612 -77.02 0.135405 -168.1
8.79173000 0.135498 -166.1 0.990599 -77.02 0.990599 -77.02 0.135496 -168.1
8.79174000 0.135589 -166.1 0.990587 -77.03 0.990587 -77.03 0.135587 -168.1
8.79175000 0.135680 -166.1 0.990574 -77.03 0.990574 -77.03 0.135677 -168.1
8.79176000 0.135771 -166.1 0.990561 -77.04 0.990561 -77.04 0.135768 -168.1
8.79177000 0.135862 -166.1 0.990548 -77.04 0.990548 -77.04 0.135860 -168.1
8.79178000 0.135953 -166.1 0.990535 -77.05 0.990535 -77.05 0.135951 -168.1
8.79179000 0.136045 -166.2 0.990523 -77.06 0.990523 -77.06 0.136042 -168.1
8.79180000 0.136136 -166.2 0.990510 -77.06 0.990510 -77.06 0.136134 -168.1
8.79181000 0.136228 -166.2 0.990497 -77.07 0.990497 -77.07 0.136226 -168.1
8.79182000 0.136320 -166.2 0.990484 -77.07 0.990484 -77.07 0.136318 -168.1
8.79183000 0.136413 -166.2 0.990471 -77.08 0.990471 -77.08 0.136410 -168.1
8.79184000 0.136505 -166.2 0.990458 -77.08 0.990458 -77.08 0.136502 -168.1
8.79185000 0.136597 -166.2 0.990445 -77.09 0.990445 -77.09 0.136595 -168.1
8.79186000 0.136690 -166.2 0.990432 -77.09 0.990432 -77.09 0.136688 -168.1
8.79187000 0.136783 -166.2 0.990418 -77.10 0.990418 -77.10 0.136780 -168.1
8.79188000 0.136876 -166.2 0.990405 -77.10 0.990405 -77.10 0.136873 -168.2
8.79189000 0.136969 -166.2 0.990392 -77.11 0.990392 -77.11 0.136967 -168.2
8.79190000 0.137062 -166.2 0.990379 -77.12 0.990379 -77.12 0.137060 -168.2
8.79191000 0.137156 -166.2 0.990366 -77.12 0.990366 -77.12 0.137153 -168.2
8.79192000 0.137249 -166.2 0.990352 -77.13 0.990352 -77.13 0.137247 -168.2
8.79193000 0.137343 -166.2 0.990339 -77.13 0.990339 -77.13 0.137341 -168.2
8.79194000 0.137437 -166.2 0.990326 -77.14 0.990326 -77.14 0.137435 -168.2
8.79195000 0.137531 -166.2 0.990312 -77.14 0.990312 -77.14 0.137529 -168.2
8.79196000 0.137626 -166.2 0.990299 -77.15 0.990299 -77.15 0.137623 -168.2
8.79197000 0.137720 -166.2 0.990285 -77.15 0.990285 -77.15 0.137718 -168.2
8.79198000 0.137815 -166.3 0.990272 -77.16 0.990272 -77.16 0.137812 -168.2
8.79199000 0.137910 -166.3 0.990258 -77.16 0.990258 -77.16 0.137907 -168.2
8.79200000 0.138005 -166.3 0.990245 -77.17 0.990245 -77.17 0.138002 -168.2
8.79201000 0.138100 -166.3 0.990231 -77.18 0.990231 -77.18 0.138097 -168.2
8.79202000 0.138195 -166.3 0.990218 -77.18 0.990218 -77.18 0.138193 -168.2
8.79203000 0.138291 -166.3 0.990204 -77.19 0.990204 -77.19 0.138288 -168.2
8.79204000 0.138386 -166.3 0.990190 -77.19 0.990190 -77.19 0.138384 -168.2
8.79205000 0.138482 -166.3 0.990177 -77.20 0.990177 -77.20 0.138480 -168.3
8.79206000 0.138578 -166.3 0.990163 -77.20 0.990163 -77.20 0.138576 -168.3
8.79207000 0.138674 -166.3 0.990149 -77.21 0.990149 -77.21 0.138672 -168.3
8.79208000 0.138771 -166.3 0.990135 -77.22 0.990135 -77.22 0.138768 -168.3
8.79209000 0.138867 -166.3 0.990121 -77.22 0.990121 -77.22 0.138865 -168.3
8.79210000 0.138964 -166.3 0.990107 -77.23 0.990107 -77.23 0.138962 -168.3
8.79211000 0.139061 -166.3 0.990093 -77.23 0.990093 -77.23 0.139059 -168.3
8.79212000 0.139158 -166.3 0.990079 -77.24 0.990079 -77.24 0.139156 -168.3
8.79213000 0.139255 -166.3 0.990065 -77.24 0.990065 -77.24 0.139253 -168.3
8.79214000 0.139353 -166.3 0.990051 -77.25 0.990051 -77.25 0.139350 -168.3
8.79215000 0.139450 -166.3 0.990037 -77.26 0.990037 -77.26 0.139448 -168.3
8.79216000 0.139548 -166.4 0.990023 -77.26 0.990023 -77.26 0.139546 -168.3
8.79217000 0.139646 -166.4 0.990009 -77.27 0.990009 -77.27 0.139644 -168.3
8.79218000 0.139744 -166.4 0.989995 -77.27 0.989995 -77.27 0.139742 -168.3
8.79219000 0.139843 -166.4 0.989981 -77.28 0.989981 -77.28 0.139840 -168.3
8.79220000 0.139941 -166.4 0.989966 -77.28 0.989966 -77.28 0.139939 -168.3
8.79221000 0.140040 -166.4 0.989952 -77.29 0.989952 -77.29 0.140037 -168.3
8.79222000 0.140139 -166.4 0.989938 -77.30 0.989938 -77.30 0.140136 -168.4
8.79223000 0.140238 -166.4 0.989923 -77.30 0.989923 -77.30 0.140235 -168.4
8.79224000 0.140337 -166.4 0.989909 -77.31 0.989909 -77.31 0.140335 -168.4
8.79225000 0.140436 -166.4 0.989894 -77.31 0.989894 -77.31 0.140434 -168.4
8.79226000 0.140536 -166.4 0.989880 -77.32 0.989880 -77.32 0.140534 -168.4
8.79227000 0.140636 -166.4 0.989865 -77.32 0.989865 -77.32 0.140633 -168.4
8.79228000 0.140736 -166.4 0.989851 -77.33 0.989851 -77.33 0.140733 -168.4
8.79229000 0.140836 -166.4 0.989836 -77.34 0.989836 -77.34 0.140833 -168.4
8.79230000 0.140936 -166.4 0.989822 -77.34 0.989822 -77.34 0.140934 -168.4
8.79231000 0.141037 -166.4 0.989807 -77.35 0.989807 -77.35 0.141034 -168.4
8.79232000 0.141137 -166.4 0.989792 -77.35 0.989792 -77.35 0.141135 -168.4
8.79233000 0.141238 -166.4 0.989778 -77.36 0.989778 -77.36 0.141236 -168.4
8.79234000 0.141339 -166.5 0.989763 -77.37 0.989763 -77.37 0.141337 -168.4
8.79235000 0.141441 -166.5 0.989748 -77.37 0.989748 -77.37 0.141438 -168.4
8.79236000 0.141542 -166.5 0.989733 -77.38 0.989733 -77.38 0.141540 -168.4
8.79237000 0.141644 -166.5 0.989718 -77.38 0.989718 -77.38 0.141641 -168.4
8.79238000 0.141746 -166.5 0.989703 -77.39 0.989703 -77.39 0.141743 -168.5
8.79239000 0.141848 -166.5 0.989688 -77.40 0.989688 -77.40 0.141845 -168.5
8.79240000 0.141950 -166.5 0.989673 -77.40 0.989673 -77.40 0.141947 -168.5
8.79241000 0.142052 -166.5 0.989658 -77.41 0.989658 -77.41 0.142050 -168.5
8.79242000 0.142155 -166.5 0.989643 -77.41 0.989643 -77.41 0.142152 -168.5
8.79243000 0.142258 -166.5 0.989628 -77.42 0.989628 -77.42 0.142255 -168.5
8.79244000 0.142361 -166.5 0.989613 -77.43 0.989613 -77.43 0.142358 -168.5
8.79245000 0.142464 -166.5 0.989598 -77.43 0.989598 -77.43 0.142461 -168.5
8.79246000 0.142567 -166.5 0.989582 -77.44 0.989582 -77.44 0.142565 -168.5
8.79247000 0.142671 -166.5 0.989567 -77.44 0.989567 -77.44 0.142668 -168.5
8.79248000 0.142774 -166.5 0.989552 -77.45 0.989552 -77.45 0.142772 -168.5
8.79249000 0.142878 -166.5 0.989536 -77.46 0.989536 -77.46 0.142876 -168.5
8.79250000 0.142983 -166.5 0.989521 -77.46 0.989521 -77.46 0.142980 -168.5
8.79251000 0.143087 -166.6 0.989505 -77.47 0.989505 -77.47 0.143084 -168.5
8.79252000 0.143191 -166.6 0.989490 -77.47 0.989490 -77.47 0.143189 -168.5
8.79253000 0.143296 -166.6 0.989474 -77.48 0.989474 -77.48 0.143294 -168.6
8.79254000 0.143401 -166.6 0.989459 -77.49 0.989459 -77.49 0.143398 -168.6
8.79255000 0.143506 -166.6 0.989443 -77.49 0.989443 -77.49 0.143504 -168.6
8.79256000 0.143611 -166.6 0.989428 -77.50 0.989428 -77.50 0.143609 -168.6
8.79257000 0.143717 -166.6 0.989412 -77.51 0.989412 -77.51 0.143714 -168.6
8.79258000 0.143823 -166.6 0.989396 -77.51 0.989396 -77.51 0.143820 -168.6
8.79259000 0.143929 -166.6 0.989380 -77.52 0.989380 -77.52 0.143926 -168.6
8.79260000 0.144035 -166.6 0.989365 -77.52 0.989365 -77.52 0.144032 -168.6
8.79261000 0.144141 -166.6 0.989349 -77.53 0.989349 -77.53 0.144139 -168.6
8.79262000 0.144248 -166.6 0.989333 -77.54 0.989333 -77.54 0.144245 -168.6
8.79263000 0.144354 -166.6 0.989317 -77.54 0.989317 -77.54 0.144352 -168.6
8.79264000 0.144461 -166.6 0.989301 -77.55 0.989301 -77.55 0.144459 -168.6
8.79265000 0.144568 -166.6 0.989285 -77.56 0.989285 -77.56 0.144566 -168.6
8.79266000 0.144676 -166.6 0.989269 -77.56 0.989269 -77.56 0.144673 -168.6
8.79267000 0.144783 -166.7 0.989253 -77.57 0.989253 -77.57 0.144781 -168.6
8.79268000 0.144891 -166.7 0.989236 -77.57 0.989236 -77.57 0.144888 -168.7
8.79269000 0.144999 -166.7 0.989220 -77.58 0.989220 -77.58 0.144996 -168.7
8.79270000 0.145107 -166.7 0.989204 -77.59 0.989204 -77.59 0.145105 -168.7
8.79271000 0.145216 -166.7 0.989188 -77.59 0.989188 -77.59 0.145213 -168.7
8.79272000 0.145324 -166.7 0.989171 -77.60 0.989171 -77.60 0.145322 -168.7
8.79273000 0.145433 -166.7 0.989155 -77.61 0.989155 -77.61 0.145430 -168.7
8.79274000 0.145542 -166.7 0.989138 -77.61 0.989138 -77.61 0.145539 -168.7
8.79275000 0.145651 -166.7 0.989122 -77.62 0.989122 -77.62 0.145648 -168.7
8.79276000 0.145760 -166.7 0.989105 -77.63 0.989105 -77.63 0.145758 -168.7
8.79277000 0.145870 -166.7 0.989089 -77.63 0.989089 -77.63 0.145868 -168.7
8.79278000 0.145980 -166.7 0.989072 -77.64 0.989072 -77.64 0.145977 -168.7
8.79279000 0.146090 -166.7 0.989056 -77.64 0.989056 -77.64 0.146087 -168.7
8.79280000 0.146200 -166.7 0.989039 -77.65 0.989039 -77.65 0.146198 -168.7
8.79281000 0.146311 -166.7 0.989022 -77.66 0.989022 -77.66 0.146308 -168.7
8.79282000 0.146421 -166.7 0.989005 -77.66 0.989005 -77.66 0.146419 -168.7
8.79283000 0.146532 -166.8 0.988989 -77.67 0.988989 -77.67 0.146530 -168.8
8.79284000 0.146643 -166.8 0.988972 -77.68 0.988972 -77.68 0.146641 -168.8
8.79285000 0.146755 -166.8 0.988955 -77.68 0.988955 -77.68 0.146752 -168.8
8.79286000 0.146866 -166.8 0.988938 -77.69 0.988938 -77.69 0.146864 -168.8
8.79287000 0.146978 -166.8 0.988921 -77.70 0.988921 -77.70 0.146975 -168.8
8.79288000 0.147090 -166.8 0.988904 -77.70 0.988904 -77.70 0.147087 -168.8
8.79289000 0.147202 -166.8 0.988887 -77.71 0.988887 -77.71 0.147200 -168.8
8.79290000 0.147315 -166.8 0.988869 -77.72 0.988869 -77.72 0.147312 -168.8
8.79291000 0.147427 -166.8 0.988852 -77.72 0.988852 -77.72 0.147425 -168.8
8.79292000 0.147540 -166.8 0.988835 -77.73 0.988835 -77.73 0.147538 -168.8
8.79293000 0.147653 -166.8 0.988818 -77.74 0.988818 -77.74 0.147651 -168.8
8.79294000 0.147767 -166.8 0.988800 -77.74 0.988800 -77.74 0.147764 -168.8
8.79295000 0.147880 -166.8 0.988783 -77.75 0.988783 -77.75 0.147878 -168.8
8.79296000 0.147994 -166.8 0.988765 -77.76 0.988765 -77.76 0.147991 -168.8
8.79297000 0.148108 -166.8 0.988748 -77.76 0.988748 -77.76 0.148105 -168.8
8.79298000 0.148222 -166.8 0.988730 -77.77 0.988730 -77.77 0.148219 -168.9
8.79299000 0.148337 -166.9 0.988713 -77.78 0.988713 -77.78 0.148334 -168.9
8.79300000 0.148451 -166.9 0.988695 -77.78 0.988695 -77.78 0.148448 -168.9
8.79301000 0.148566 -166.9 0.988677 -77.79 0.988677 -77.79 0.148563 -168.9
8.79302000 0.148681 -166.9 0.988660 -77.80 0.988660 -77.80 0.148678 -168.9
8.79303000 0.148796 -166.9 0.988642 -77.80 0.988642 -77.80 0.148794 -168.9
8.79304000 0.148912 -166.9 0.988624 -77.81 0.988624 -77.81 0.148909 -168.9
8.79305000 0.149028 -166.9 0.988606 -77.82 0.988606 -77.82 0.149025 -168.9
8.79306000 0.149144 -166.9 0.988588 -77.82 0.988588 -77.82 0.149141 -168.9
8.79307000 0.149260 -166.9 0.988570 -77.83 0.988570 -77.83 0.149257 -168.9
8.79308000 0.149377 -166.9 0.988552 -77.84 0.988552 -77.84 0.149374 -168.9
8.79309000 0.149493 -166.9 0.988534 -77.84 0.988534 -77.84 0.149491 -168.9
8.79310000 0.149610 -166.9 0.988516 -77.85 0.988516 -77.85 0.149607 -168.9
8.79311000 0.149727 -166.9 0.988498 -77.86 0.988498 -77.86 0.149725 -168.9
8.79312000 0.149845 -166.9 0.988480 -77.87 0.988480 -77.87 0.149842 -169.0
8.79313000 0.149962 -166.9 0.988461 -77.87 0.988461 -77.87 0.149960 -169.0
8.79314000 0.150080 -167.0 0.988443 -77.88 0.988443 -77.88 0.150078 -169.0
8.79315000 0.150198 -167.0 0.988425 -77.89 0.988425 -77.89 0.150196 -169.0
8.79316000 0.150317 -167.0 0.988406 -77.89 0.988406 -77.89 0.150314 -169.0
8.79317000 0.150435 -167.0 0.988388 -77.90 0.988388 -77.90 0.150433 -169.0
8.79318000 0.150554 -167.0 0.988369 -77.91 0.988369 -77.91 0.150551 -169.0
8.79319000 0.150673 -167.0 0.988351 -77.91 0.988351 -77.91 0.150670 -169.0
8.79320000 0.150793 -167.0 0.988332 -77.92 0.988332 -77.92 0.150790 -169.0
8.79321000 0.150912 -167.0 0.988313 -77.93 0.988313 -77.93 0.150909 -169.0
8.79322000 0.151032 -167.0 0.988294 -77.93 0.988294 -77.93 0.151029 -169.0
8.79323000 0.151152 -167.0 0.988276 -77.94 0.988276 -77.94 0.151149 -169.0
8.79324000 0.151272 -167.0 0.988257 -77.95 0.988257 -77.95 0.151269 -169.0
8.79325000 0.151393 -167.0 0.988238 -77.96 0.988238 -77.96 0.151390 -169.1
8.79326000 0.151513 -167.0 0.988219 -77.96 0.988219 -77.96 0.151511 -169.1
8.79327000 0.151634 -167.0 0.988200 -77.97 0.988200 -77.97 0.151632 -169.1
8.79328000 0.151756 -167.1 0.988181 -77.98 0.988181 -77.98 0.151753 -169.1
8.79329000 0.151877 -167.1 0.988162 -77.98 0.988162 -77.98 0.151874 -169.1
8.79330000 0.151999 -167.1 0.988142 -77.99 0.988142 -77.99 0.151996 -169.1
8.79331000 0.152121 -167.1 0.988123 -78.00 0.988123 -78.00 0.152118 -169.1
8.79332000 0.152243 -167.1 0.988104 -78.01 0.988104 -78.01 0.152240 -169.1
8.79333000 0.152366 -167.1 0.988085 -78.01 0.988085 -78.01 0.152363 -169.1
8.79334000 0.152488 -167.1 0.988065 -78.02 0.988065 -78.02 0.152485 -169.1
8.79335000 0.152611 -167.1 0.988046 -78.03 0.988046 -78.03 0.152608 -169.1
8.79336000 0.152734 -167.1 0.988026 -78.03 0.988026 -78.03 0.152732 -169.1
8.79337000 0.152858 -167.1 0.988007 -78.04 0.988007 -78.04 0.152855 -169.1
8.79338000 0.152982 -167.1 0.987987 -78.05 0.987987 -78.05 0.152979 -169.2
8.79339000 0.153106 -167.1 0.987967 -78.06 0.987967 -78.06 0.153103 -169.2
8.79340000 0.153230 -167.1 0.987947 -78.06 0.987947 -78.06 0.153227 -169.2
8.79341000 0.153354 -167.1 0.987928 -78.07 0.987928 -78.07 0.153352 -169.2
8.79342000 0.153479 -167.1 0.987908 -78.08 0.987908 -78.08 0.153476 -169.2
8.79343000 0.153604 -167.2 0.987888 -78.09 0.987888 -78.09 0.153601 -169.2
8.79344000 0.153729 -167.2 0.987868 -78.09 0.987868 -78.09 0.153727 -169.2
8.79345000 0.153855 -167.2 0.987848 -78.10 0.987848 -78.10 0.153852 -169.2
8.79346000 0.153981 -167.2 0.987828 -78.11 0.987828 -78.11 0.153978 -169.2
8.79347000 0.154107 -167.2 0.987808 -78.11 0.987808 -78.11 0.154104 -169.2
8.79348000 0.154233 -167.2 0.987787 -78.12 0.987787 -78.12 0.154230 -169.2
8.79349000 0.154360 -167.2 0.987767 -78.13 0.987767 -78.13 0.154357 -169.2
8.79350000 0.154486 -167.2 0.987747 -78.14 0.987747 -78.14 0.154484 -169.2
8.79351000 0.154614 -167.2 0.987726 -78.14 0.987726 -78.14 0.154611 -169.3
8.79352000 0.154741 -167.2 0.987706 -78.15 0.987706 -78.15 0.154738 -169.3
8.79353000 0.154868 -167.2 0.987685 -78.16 0.987685 -78.16 0.154866 -169.3
8.79354000 0.154996 -167.2 0.987665 -78.17 0.987665 -78.17 0.154993 -169.3
8.79355000 0.155124 -167.2 0.987644 -78.17 0.987644 -78.17 0.155122 -169.3
8.79356000 0.155253 -167.3 0.987624 -78.18 0.987624 -78.18 0.155250 -169.3
8.79357000 0.155382 -167.3 0.987603 -78.19 0.987603 -78.19 0.155379 -169.3
8.79358000 0.155511 -167.3 0.987582 -78.20 0.987582 -78.20 0.155508 -169.3
8.79359000 0.155640 -167.3 0.987561 -78.20 0.987561 -78.20 0.155637 -169.3
8.79360000 0.155769 -167.3 0.987540 -78.21 0.987540 -78.21 0.155766 -169.3
8.79361000 0.155899 -167.3 0.987519 -78.22 0.987519 -78.22 0.155896 -169.3
8.79362000 0.156029 -167.3 0.987498 -78.23 0.987498 -78.23 0.156026 -169.3
8.79363000 0.156159 -167.3 0.987477 -78.24 0.987477 -78.24 0.156156 -169.3
8.79364000 0.156290 -167.3 0.987456 -78.24 0.987456 -78.24 0.156287 -169.4
8.79365000 0.156421 -167.3 0.987435 -78.25 0.987435 -78.25 0.156418 -169.4
8.79366000 0.156552 -167.3 0.987413 -78.26 0.987413 -78.26 0.156549 -169.4
8.79367000 0.156683 -167.3 0.987392 -78.27 0.987392 -78.27 0.156680 -169.4
8.79368000 0.156815 -167.3 0.987370 -78.27 0.987370 -78.27 0.156812 -169.4
8.79369000 0.156947 -167.3 0.987349 -78.28 0.987349 -78.28 0.156944 -169.4
8.79370000 0.157079 -167.4 0.987327 -78.29 0.987327 -78.29 0.157076 -169.4
8.79371000 0.157212 -167.4 0.987306 -78.30 0.987306 -78.30 0.157209 -169.4
8.79372000 0.157344 -167.4 0.987284 -78.30 0.987284 -78.30 0.157342 -169.4
8.79373000 0.157478 -167.4 0.987262 -78.31 0.987262 -78.31 0.157475 -169.4
8.79374000 0.157611 -167.4 0.987241 -78.32 0.987241 -78.32 0.157608 -169.4
8.79375000 0.157745 -167.4 0.987219 -78.33 0.987219 -78.33 0.157742 -169.4
8.79376000 0.157878 -167.4 0.987197 -78.34 0.987197 -78.34 0.157876 -169.5
8.79377000 0.158013 -167.4 0.987175 -78.34 0.987175 -78.34 0.158010 -169.5
8.79378000 0.158147 -167.4 0.987153 -78.35 0.987153 -78.35 0.158144 -169.5
8.79379000 0.158282 -167.4 0.987130 -78.36 0.987130 -78.36 0.158279 -169.5
8.79380000 0.158417 -167.4 0.987108 -78.37 0.987108 -78.37 0.158414 -169.5
8.79381000 0.158552 -167.4 0.987086 -78.38 0.987086 -78.38 0.158549 -169.5
8.79382000 0.158688 -167.4 0.987064 -78.38 0.987064 -78.38 0.158685 -169.5
8.79383000 0.158824 -167.5 0.987041 -78.39 0.987041 -78.39 0.158821 -169.5
8.79384000 0.158960 -167.5 0.987019 -78.40 0.987019 -78.40 0.158957 -169.5
8.79385000 0.159097 -167.5 0.986996 -78.41 0.986996 -78.41 0.159094 -169.5
8.79386000 0.159234 -167.5 0.986973 -78.42 0.986973 -78.42 0.159231 -169.5
8.79387000 0.159371 -167.5 0.986951 -78.42 0.986951 -78.42 0.159368 -169.5
8.79388000 0.159508 -167.5 0.986928 -78.43 0.986928 -78.43 0.159505 -169.6
8.79389000 0.159646 -167.5 0.986905 -78.44 0.986905 -78.44 0.159643 -169.6
8.79390000 0.159784 -167.5 0.986882 -78.45 0.986882 -78.45 0.159781 -169.6
8.79391000 0.159922 -167.5 0.986859 -78.46 0.986859 -78.46 0.159919 -169.6
8.79392000 0.160061 -167.5 0.986836 -78.46 0.986836 -78.46 0.160058 -169.6