! Sonnet Data File
! From: emgraph Version : 16.52
! From Project: Qubit_Xmon2
! Data is De-embedded 
! Data File Written: 10/18/2017 16:48:16
!< HDATE 10/18/2017 14:47:42
!< MDATE 10/18/2017 14:47:42
!< PARAMS
!< Lj = 11.0
!< Gap = 26.0
!< Pwid = 2000.0
!< Airgap = 30.0
!< Width = 50.0
!< END PARAMS
# GHZ S MA R 45.30000
8.79000000 0.072539 -162.3 0.997254 -73.56 0.997254 -73.56 0.072539 -165.0
!< P1 F=8.79 Eeff=(4.74953887 -6.4479e-5) Z0=(45.1259111 -2.0732e-4) R=0.0 C=0.0 
!< P2 F=8.79 Eeff=(4.74953887 -6.4479e-5) Z0=(45.1259111 -2.0732e-4) R=0.0 C=0.0 
8.79001000 0.072595 -162.3 0.997250 -73.56 0.997250 -73.56 0.072595 -165.0
8.79002000 0.072651 -162.3 0.997246 -73.57 0.997246 -73.57 0.072650 -165.0
8.79003000 0.072706 -162.3 0.997241 -73.57 0.997241 -73.57 0.072706 -165.0
8.79004000 0.072762 -162.3 0.997237 -73.57 0.997237 -73.57 0.072762 -165.0
8.79005000 0.072818 -162.3 0.997233 -73.58 0.997233 -73.58 0.072818 -165.0
8.79006000 0.072874 -162.3 0.997229 -73.58 0.997229 -73.58 0.072874 -165.0
8.79007000 0.072930 -162.3 0.997224 -73.58 0.997224 -73.58 0.072930 -165.0
8.79008000 0.072986 -162.3 0.997220 -73.59 0.997220 -73.59 0.072986 -165.0
8.79009000 0.073043 -162.3 0.997216 -73.59 0.997216 -73.59 0.073042 -165.0
8.79010000 0.073099 -162.3 0.997212 -73.59 0.997212 -73.59 0.073099 -165.0
8.79011000 0.073155 -162.3 0.997207 -73.60 0.997207 -73.60 0.073155 -165.0
8.79012000 0.073212 -162.3 0.997203 -73.60 0.997203 -73.60 0.073212 -165.0
8.79013000 0.073268 -162.3 0.997199 -73.60 0.997199 -73.60 0.073268 -165.0
8.79014000 0.073325 -162.3 0.997194 -73.61 0.997194 -73.61 0.073325 -165.1
8.79015000 0.073382 -162.3 0.997190 -73.61 0.997190 -73.61 0.073382 -165.1
8.79016000 0.073439 -162.3 0.997186 -73.61 0.997186 -73.61 0.073438 -165.1
8.79017000 0.073496 -162.3 0.997181 -73.62 0.997181 -73.62 0.073495 -165.1
8.79018000 0.073553 -162.3 0.997177 -73.62 0.997177 -73.62 0.073552 -165.1
8.79019000 0.073610 -162.3 0.997173 -73.62 0.997173 -73.62 0.073609 -165.1
8.79020000 0.073667 -162.3 0.997168 -73.63 0.997168 -73.63 0.073667 -165.1
8.79021000 0.073724 -162.3 0.997164 -73.63 0.997164 -73.63 0.073724 -165.1
8.79022000 0.073781 -162.3 0.997159 -73.63 0.997159 -73.63 0.073781 -165.1
8.79023000 0.073839 -162.3 0.997155 -73.64 0.997155 -73.64 0.073839 -165.1
8.79024000 0.073896 -162.4 0.997151 -73.64 0.997151 -73.64 0.073896 -165.1
8.79025000 0.073954 -162.4 0.997146 -73.64 0.997146 -73.64 0.073954 -165.1
8.79026000 0.074012 -162.4 0.997142 -73.65 0.997142 -73.65 0.074011 -165.1
8.79027000 0.074069 -162.4 0.997137 -73.65 0.997137 -73.65 0.074069 -165.1
8.79028000 0.074127 -162.4 0.997133 -73.65 0.997133 -73.65 0.074127 -165.1
8.79029000 0.074185 -162.4 0.997128 -73.66 0.997128 -73.66 0.074185 -165.1
8.79030000 0.074243 -162.4 0.997124 -73.66 0.997124 -73.66 0.074243 -165.1
8.79031000 0.074301 -162.4 0.997119 -73.66 0.997119 -73.66 0.074301 -165.1
8.79032000 0.074360 -162.4 0.997115 -73.67 0.997115 -73.67 0.074359 -165.1
8.79033000 0.074418 -162.4 0.997110 -73.67 0.997110 -73.67 0.074418 -165.1
8.79034000 0.074476 -162.4 0.997106 -73.67 0.997106 -73.67 0.074476 -165.1
8.79035000 0.074535 -162.4 0.997101 -73.68 0.997101 -73.68 0.074535 -165.1
8.79036000 0.074593 -162.4 0.997097 -73.68 0.997097 -73.68 0.074593 -165.1
8.79037000 0.074652 -162.4 0.997092 -73.68 0.997092 -73.68 0.074652 -165.1
8.79038000 0.074711 -162.4 0.997088 -73.69 0.997088 -73.69 0.074711 -165.1
8.79039000 0.074770 -162.4 0.997083 -73.69 0.997083 -73.69 0.074769 -165.1
8.79040000 0.074829 -162.4 0.997078 -73.69 0.997078 -73.69 0.074828 -165.1
8.79041000 0.074888 -162.4 0.997074 -73.70 0.997074 -73.70 0.074887 -165.1
8.79042000 0.074947 -162.4 0.997069 -73.70 0.997069 -73.70 0.074947 -165.1
8.79043000 0.075006 -162.4 0.997065 -73.70 0.997065 -73.70 0.075006 -165.2
8.79044000 0.075065 -162.4 0.997060 -73.71 0.997060 -73.71 0.075065 -165.2
8.79045000 0.075125 -162.4 0.997055 -73.71 0.997055 -73.71 0.075124 -165.2
8.79046000 0.075184 -162.4 0.997051 -73.71 0.997051 -73.71 0.075184 -165.2
8.79047000 0.075244 -162.4 0.997046 -73.72 0.997046 -73.72 0.075243 -165.2
8.79048000 0.075303 -162.4 0.997041 -73.72 0.997041 -73.72 0.075303 -165.2
8.79049000 0.075363 -162.4 0.997037 -73.73 0.997037 -73.73 0.075363 -165.2
8.79050000 0.075423 -162.4 0.997032 -73.73 0.997032 -73.73 0.075423 -165.2
8.79051000 0.075483 -162.4 0.997027 -73.73 0.997027 -73.73 0.075483 -165.2
8.79052000 0.075543 -162.5 0.997022 -73.74 0.997022 -73.74 0.075543 -165.2
8.79053000 0.075603 -162.5 0.997018 -73.74 0.997018 -73.74 0.075603 -165.2
8.79054000 0.075663 -162.5 0.997013 -73.74 0.997013 -73.74 0.075663 -165.2
8.79055000 0.075724 -162.5 0.997008 -73.75 0.997008 -73.75 0.075723 -165.2
8.79056000 0.075784 -162.5 0.997004 -73.75 0.997004 -73.75 0.075784 -165.2
8.79057000 0.075844 -162.5 0.996999 -73.75 0.996999 -73.75 0.075844 -165.2
8.79058000 0.075905 -162.5 0.996994 -73.76 0.996994 -73.76 0.075905 -165.2
8.79059000 0.075966 -162.5 0.996989 -73.76 0.996989 -73.76 0.075965 -165.2
8.79060000 0.076026 -162.5 0.996984 -73.76 0.996984 -73.76 0.076026 -165.2
8.79061000 0.076087 -162.5 0.996980 -73.77 0.996980 -73.77 0.076087 -165.2
8.79062000 0.076148 -162.5 0.996975 -73.77 0.996975 -73.77 0.076148 -165.2
8.79063000 0.076209 -162.5 0.996970 -73.78 0.996970 -73.78 0.076209 -165.2
8.79064000 0.076270 -162.5 0.996965 -73.78 0.996965 -73.78 0.076270 -165.2
8.79065000 0.076332 -162.5 0.996960 -73.78 0.996960 -73.78 0.076331 -165.2
8.79066000 0.076393 -162.5 0.996955 -73.79 0.996955 -73.79 0.076393 -165.2
8.79067000 0.076454 -162.5 0.996950 -73.79 0.996950 -73.79 0.076454 -165.2
8.79068000 0.076516 -162.5 0.996945 -73.79 0.996945 -73.79 0.076516 -165.2
8.79069000 0.076578 -162.5 0.996941 -73.80 0.996941 -73.80 0.076577 -165.2
8.79070000 0.076639 -162.5 0.996936 -73.80 0.996936 -73.80 0.076639 -165.2
8.79071000 0.076701 -162.5 0.996931 -73.80 0.996931 -73.80 0.076701 -165.3
8.79072000 0.076763 -162.5 0.996926 -73.81 0.996926 -73.81 0.076763 -165.3
8.79073000 0.076825 -162.5 0.996921 -73.81 0.996921 -73.81 0.076825 -165.3
8.79074000 0.076887 -162.5 0.996916 -73.81 0.996916 -73.81 0.076887 -165.3
8.79075000 0.076949 -162.5 0.996911 -73.82 0.996911 -73.82 0.076949 -165.3
8.79076000 0.077012 -162.5 0.996906 -73.82 0.996906 -73.82 0.077012 -165.3
8.79077000 0.077074 -162.5 0.996901 -73.83 0.996901 -73.83 0.077074 -165.3
8.79078000 0.077137 -162.5 0.996896 -73.83 0.996896 -73.83 0.077136 -165.3
8.79079000 0.077199 -162.6 0.996891 -73.83 0.996891 -73.83 0.077199 -165.3
8.79080000 0.077262 -162.6 0.996886 -73.84 0.996886 -73.84 0.077262 -165.3
8.79081000 0.077325 -162.6 0.996881 -73.84 0.996881 -73.84 0.077325 -165.3
8.79082000 0.077388 -162.6 0.996876 -73.84 0.996876 -73.84 0.077387 -165.3
8.79083000 0.077451 -162.6 0.996871 -73.85 0.996871 -73.85 0.077450 -165.3
8.79084000 0.077514 -162.6 0.996865 -73.85 0.996865 -73.85 0.077514 -165.3
8.79085000 0.077577 -162.6 0.996860 -73.86 0.996860 -73.86 0.077577 -165.3
8.79086000 0.077640 -162.6 0.996855 -73.86 0.996855 -73.86 0.077640 -165.3
8.79087000 0.077704 -162.6 0.996850 -73.86 0.996850 -73.86 0.077703 -165.3
8.79088000 0.077767 -162.6 0.996845 -73.87 0.996845 -73.87 0.077767 -165.3
8.79089000 0.077831 -162.6 0.996840 -73.87 0.996840 -73.87 0.077831 -165.3
8.79090000 0.077894 -162.6 0.996835 -73.87 0.996835 -73.87 0.077894 -165.3
8.79091000 0.077958 -162.6 0.996829 -73.88 0.996829 -73.88 0.077958 -165.3
8.79092000 0.078022 -162.6 0.996824 -73.88 0.996824 -73.88 0.078022 -165.3
8.79093000 0.078086 -162.6 0.996819 -73.89 0.996819 -73.89 0.078086 -165.3
8.79094000 0.078150 -162.6 0.996814 -73.89 0.996814 -73.89 0.078150 -165.3
8.79095000 0.078214 -162.6 0.996809 -73.89 0.996809 -73.89 0.078214 -165.3
8.79096000 0.078279 -162.6 0.996803 -73.90 0.996803 -73.90 0.078279 -165.3
8.79097000 0.078343 -162.6 0.996798 -73.90 0.996798 -73.90 0.078343 -165.4
8.79098000 0.078408 -162.6 0.996793 -73.90 0.996793 -73.90 0.078407 -165.4
8.79099000 0.078472 -162.6 0.996788 -73.91 0.996788 -73.91 0.078472 -165.4
8.79100000 0.078537 -162.6 0.996782 -73.91 0.996782 -73.91 0.078537 -165.4
8.79101000 0.078602 -162.6 0.996777 -73.92 0.996777 -73.92 0.078602 -165.4
8.79102000 0.078667 -162.6 0.996772 -73.92 0.996772 -73.92 0.078667 -165.4
8.79103000 0.078732 -162.6 0.996766 -73.92 0.996766 -73.92 0.078732 -165.4
8.79104000 0.078797 -162.6 0.996761 -73.93 0.996761 -73.93 0.078797 -165.4
8.79105000 0.078862 -162.7 0.996756 -73.93 0.996756 -73.93 0.078862 -165.4
8.79106000 0.078928 -162.7 0.996750 -73.93 0.996750 -73.93 0.078927 -165.4
8.79107000 0.078993 -162.7 0.996745 -73.94 0.996745 -73.94 0.078993 -165.4
8.79108000 0.079059 -162.7 0.996740 -73.94 0.996740 -73.94 0.079058 -165.4
8.79109000 0.079124 -162.7 0.996734 -73.95 0.996734 -73.95 0.079124 -165.4
8.79110000 0.079190 -162.7 0.996729 -73.95 0.996729 -73.95 0.079190 -165.4
8.79111000 0.079256 -162.7 0.996723 -73.95 0.996723 -73.95 0.079256 -165.4
8.79112000 0.079322 -162.7 0.996718 -73.96 0.996718 -73.96 0.079322 -165.4
8.79113000 0.079388 -162.7 0.996712 -73.96 0.996712 -73.96 0.079388 -165.4
8.79114000 0.079454 -162.7 0.996707 -73.97 0.996707 -73.97 0.079454 -165.4
8.79115000 0.079520 -162.7 0.996701 -73.97 0.996701 -73.97 0.079520 -165.4
8.79116000 0.079587 -162.7 0.996696 -73.97 0.996696 -73.97 0.079587 -165.4
8.79117000 0.079653 -162.7 0.996690 -73.98 0.996690 -73.98 0.079653 -165.4
8.79118000 0.079720 -162.7 0.996685 -73.98 0.996685 -73.98 0.079720 -165.4
8.79119000 0.079787 -162.7 0.996679 -73.99 0.996679 -73.99 0.079787 -165.4
8.79120000 0.079854 -162.7 0.996674 -73.99 0.996674 -73.99 0.079853 -165.4
8.79121000 0.079921 -162.7 0.996668 -73.99 0.996668 -73.99 0.079920 -165.4
8.79122000 0.079988 -162.7 0.996663 -74.00 0.996663 -74.00 0.079987 -165.4
8.79123000 0.080055 -162.7 0.996657 -74.00 0.996657 -74.00 0.080055 -165.5
8.79124000 0.080122 -162.7 0.996651 -74.00 0.996651 -74.00 0.080122 -165.5
8.79125000 0.080189 -162.7 0.996646 -74.01 0.996646 -74.01 0.080189 -165.5
8.79126000 0.080257 -162.7 0.996640 -74.01 0.996640 -74.01 0.080257 -165.5
8.79127000 0.080325 -162.7 0.996634 -74.02 0.996634 -74.02 0.080324 -165.5
8.79128000 0.080392 -162.7 0.996629 -74.02 0.996629 -74.02 0.080392 -165.5
8.79129000 0.080460 -162.7 0.996623 -74.02 0.996623 -74.02 0.080460 -165.5
8.79130000 0.080528 -162.7 0.996617 -74.03 0.996617 -74.03 0.080528 -165.5
8.79131000 0.080596 -162.8 0.996612 -74.03 0.996612 -74.03 0.080596 -165.5
8.79132000 0.080664 -162.8 0.996606 -74.04 0.996606 -74.04 0.080664 -165.5
8.79133000 0.080733 -162.8 0.996600 -74.04 0.996600 -74.04 0.080732 -165.5
8.79134000 0.080801 -162.8 0.996595 -74.04 0.996595 -74.04 0.080801 -165.5
8.79135000 0.080869 -162.8 0.996589 -74.05 0.996589 -74.05 0.080869 -165.5
8.79136000 0.080938 -162.8 0.996583 -74.05 0.996583 -74.05 0.080938 -165.5
8.79137000 0.081007 -162.8 0.996577 -74.06 0.996577 -74.06 0.081007 -165.5
8.79138000 0.081076 -162.8 0.996571 -74.06 0.996571 -74.06 0.081075 -165.5
8.79139000 0.081145 -162.8 0.996566 -74.06 0.996566 -74.06 0.081144 -165.5
8.79140000 0.081214 -162.8 0.996560 -74.07 0.996560 -74.07 0.081213 -165.5
8.79141000 0.081283 -162.8 0.996554 -74.07 0.996554 -74.07 0.081283 -165.5
8.79142000 0.081352 -162.8 0.996548 -74.08 0.996548 -74.08 0.081352 -165.5
8.79143000 0.081422 -162.8 0.996542 -74.08 0.996542 -74.08 0.081421 -165.5
8.79144000 0.081491 -162.8 0.996536 -74.09 0.996536 -74.09 0.081491 -165.5
8.79145000 0.081561 -162.8 0.996530 -74.09 0.996530 -74.09 0.081560 -165.5
8.79146000 0.081630 -162.8 0.996524 -74.09 0.996524 -74.09 0.081630 -165.5
8.79147000 0.081700 -162.8 0.996518 -74.10 0.996518 -74.10 0.081700 -165.6
8.79148000 0.081770 -162.8 0.996512 -74.10 0.996512 -74.10 0.081770 -165.6
8.79149000 0.081840 -162.8 0.996506 -74.11 0.996506 -74.11 0.081840 -165.6
8.79150000 0.081911 -162.8 0.996500 -74.11 0.996500 -74.11 0.081910 -165.6
8.79151000 0.081981 -162.8 0.996494 -74.11 0.996494 -74.11 0.081981 -165.6
8.79152000 0.082051 -162.8 0.996488 -74.12 0.996488 -74.12 0.082051 -165.6
8.79153000 0.082122 -162.8 0.996482 -74.12 0.996482 -74.12 0.082122 -165.6
8.79154000 0.082193 -162.8 0.996476 -74.13 0.996476 -74.13 0.082192 -165.6
8.79155000 0.082264 -162.9 0.996470 -74.13 0.996470 -74.13 0.082263 -165.6
8.79156000 0.082334 -162.9 0.996464 -74.13 0.996464 -74.13 0.082334 -165.6
8.79157000 0.082406 -162.9 0.996458 -74.14 0.996458 -74.14 0.082405 -165.6
8.79158000 0.082477 -162.9 0.996452 -74.14 0.996452 -74.14 0.082476 -165.6
8.79159000 0.082548 -162.9 0.996446 -74.15 0.996446 -74.15 0.082548 -165.6
8.79160000 0.082619 -162.9 0.996440 -74.15 0.996440 -74.15 0.082619 -165.6
8.79161000 0.082691 -162.9 0.996434 -74.16 0.996434 -74.16 0.082691 -165.6
8.79162000 0.082763 -162.9 0.996427 -74.16 0.996427 -74.16 0.082762 -165.6
8.79163000 0.082834 -162.9 0.996421 -74.16 0.996421 -74.16 0.082834 -165.6
8.79164000 0.082906 -162.9 0.996415 -74.17 0.996415 -74.17 0.082906 -165.6
8.79165000 0.082978 -162.9 0.996409 -74.17 0.996409 -74.17 0.082978 -165.6
8.79166000 0.083050 -162.9 0.996403 -74.18 0.996403 -74.18 0.083050 -165.6
8.79167000 0.083123 -162.9 0.996396 -74.18 0.996396 -74.18 0.083122 -165.6
8.79168000 0.083195 -162.9 0.996390 -74.18 0.996390 -74.18 0.083195 -165.6
8.79169000 0.083267 -162.9 0.996384 -74.19 0.996384 -74.19 0.083267 -165.6
8.79170000 0.083340 -162.9 0.996377 -74.19 0.996377 -74.19 0.083340 -165.6
8.79171000 0.083413 -162.9 0.996371 -74.20 0.996371 -74.20 0.083413 -165.7
8.79172000 0.083486 -162.9 0.996365 -74.20 0.996365 -74.20 0.083485 -165.7
8.79173000 0.083559 -162.9 0.996358 -74.21 0.996358 -74.21 0.083558 -165.7
8.79174000 0.083632 -162.9 0.996352 -74.21 0.996352 -74.21 0.083632 -165.7
8.79175000 0.083705 -162.9 0.996346 -74.21 0.996346 -74.21 0.083705 -165.7
8.79176000 0.083778 -162.9 0.996339 -74.22 0.996339 -74.22 0.083778 -165.7
8.79177000 0.083852 -162.9 0.996333 -74.22 0.996333 -74.22 0.083852 -165.7
8.79178000 0.083926 -163.0 0.996326 -74.23 0.996326 -74.23 0.083925 -165.7
8.79179000 0.083999 -163.0 0.996320 -74.23 0.996320 -74.23 0.083999 -165.7
8.79180000 0.084073 -163.0 0.996314 -74.24 0.996314 -74.24 0.084073 -165.7
8.79181000 0.084147 -163.0 0.996307 -74.24 0.996307 -74.24 0.084147 -165.7
8.79182000 0.084221 -163.0 0.996301 -74.25 0.996301 -74.25 0.084221 -165.7
8.79183000 0.084295 -163.0 0.996294 -74.25 0.996294 -74.25 0.084295 -165.7
8.79184000 0.084370 -163.0 0.996288 -74.25 0.996288 -74.25 0.084370 -165.7
8.79185000 0.084444 -163.0 0.996281 -74.26 0.996281 -74.26 0.084444 -165.7
8.79186000 0.084519 -163.0 0.996274 -74.26 0.996274 -74.26 0.084519 -165.7
8.79187000 0.084594 -163.0 0.996268 -74.27 0.996268 -74.27 0.084594 -165.7
8.79188000 0.084669 -163.0 0.996261 -74.27 0.996261 -74.27 0.084668 -165.7
8.79189000 0.084744 -163.0 0.996255 -74.28 0.996255 -74.28 0.084743 -165.7
8.79190000 0.084819 -163.0 0.996248 -74.28 0.996248 -74.28 0.084819 -165.7
8.79191000 0.084894 -163.0 0.996241 -74.28 0.996241 -74.28 0.084894 -165.7
8.79192000 0.084969 -163.0 0.996235 -74.29 0.996235 -74.29 0.084969 -165.7
8.79193000 0.085045 -163.0 0.996228 -74.29 0.996228 -74.29 0.085045 -165.8
8.79194000 0.085121 -163.0 0.996221 -74.30 0.996221 -74.30 0.085120 -165.8
8.79195000 0.085196 -163.0 0.996215 -74.30 0.996215 -74.30 0.085196 -165.8
8.79196000 0.085272 -163.0 0.996208 -74.31 0.996208 -74.31 0.085272 -165.8
8.79197000 0.085348 -163.0 0.996201 -74.31 0.996201 -74.31 0.085348 -165.8
8.79198000 0.085425 -163.0 0.996194 -74.32 0.996194 -74.32 0.085424 -165.8
8.79199000 0.085501 -163.0 0.996187 -74.32 0.996187 -74.32 0.085501 -165.8
8.79200000 0.085577 -163.1 0.996181 -74.32 0.996181 -74.32 0.085577 -165.8
8.79201000 0.085654 -163.1 0.996174 -74.33 0.996174 -74.33 0.085654 -165.8
8.79202000 0.085731 -163.1 0.996167 -74.33 0.996167 -74.33 0.085730 -165.8
8.79203000 0.085808 -163.1 0.996160 -74.34 0.996160 -74.34 0.085807 -165.8
8.79204000 0.085885 -163.1 0.996153 -74.34 0.996153 -74.34 0.085884 -165.8
8.79205000 0.085962 -163.1 0.996146 -74.35 0.996146 -74.35 0.085961 -165.8
8.79206000 0.086039 -163.1 0.996139 -74.35 0.996139 -74.35 0.086039 -165.8
8.79207000 0.086116 -163.1 0.996132 -74.36 0.996132 -74.36 0.086116 -165.8
8.79208000 0.086194 -163.1 0.996125 -74.36 0.996125 -74.36 0.086194 -165.8
8.79209000 0.086272 -163.1 0.996118 -74.37 0.996118 -74.37 0.086271 -165.8
8.79210000 0.086349 -163.1 0.996111 -74.37 0.996111 -74.37 0.086349 -165.8
8.79211000 0.086427 -163.1 0.996104 -74.37 0.996104 -74.37 0.086427 -165.8
8.79212000 0.086505 -163.1 0.996097 -74.38 0.996097 -74.38 0.086505 -165.8
8.79213000 0.086584 -163.1 0.996090 -74.38 0.996090 -74.38 0.086583 -165.8
8.79214000 0.086662 -163.1 0.996083 -74.39 0.996083 -74.39 0.086662 -165.8
8.79215000 0.086740 -163.1 0.996076 -74.39 0.996076 -74.39 0.086740 -165.9
8.79216000 0.086819 -163.1 0.996069 -74.40 0.996069 -74.40 0.086819 -165.9
8.79217000 0.086898 -163.1 0.996062 -74.40 0.996062 -74.40 0.086898 -165.9
8.79218000 0.086977 -163.1 0.996055 -74.41 0.996055 -74.41 0.086976 -165.9
8.79219000 0.087056 -163.1 0.996048 -74.41 0.996048 -74.41 0.087055 -165.9
8.79220000 0.087135 -163.1 0.996040 -74.42 0.996040 -74.42 0.087135 -165.9
8.79221000 0.087214 -163.1 0.996033 -74.42 0.996033 -74.42 0.087214 -165.9
8.79222000 0.087294 -163.2 0.996026 -74.42 0.996026 -74.42 0.087293 -165.9
8.79223000 0.087373 -163.2 0.996019 -74.43 0.996019 -74.43 0.087373 -165.9
8.79224000 0.087453 -163.2 0.996012 -74.43 0.996012 -74.43 0.087453 -165.9
8.79225000 0.087533 -163.2 0.996004 -74.44 0.996004 -74.44 0.087533 -165.9
8.79226000 0.087613 -163.2 0.995997 -74.44 0.995997 -74.44 0.087613 -165.9
8.79227000 0.087693 -163.2 0.995990 -74.45 0.995990 -74.45 0.087693 -165.9
8.79228000 0.087773 -163.2 0.995982 -74.45 0.995982 -74.45 0.087773 -165.9
8.79229000 0.087854 -163.2 0.995975 -74.46 0.995975 -74.46 0.087854 -165.9
8.79230000 0.087934 -163.2 0.995968 -74.46 0.995968 -74.46 0.087934 -165.9
8.79231000 0.088015 -163.2 0.995960 -74.47 0.995960 -74.47 0.088015 -165.9
8.79232000 0.088096 -163.2 0.995953 -74.47 0.995953 -74.47 0.088096 -165.9
8.79233000 0.088177 -163.2 0.995945 -74.48 0.995945 -74.48 0.088177 -165.9
8.79234000 0.088258 -163.2 0.995938 -74.48 0.995938 -74.48 0.088258 -165.9
8.79235000 0.088340 -163.2 0.995930 -74.49 0.995930 -74.49 0.088339 -165.9
8.79236000 0.088421 -163.2 0.995923 -74.49 0.995923 -74.49 0.088421 -166.0
8.79237000 0.088503 -163.2 0.995915 -74.50 0.995915 -74.50 0.088502 -166.0
8.79238000 0.088584 -163.2 0.995908 -74.50 0.995908 -74.50 0.088584 -166.0
8.79239000 0.088666 -163.2 0.995900 -74.51 0.995900 -74.51 0.088666 -166.0
8.79240000 0.088748 -163.2 0.995893 -74.51 0.995893 -74.51 0.088748 -166.0
8.79241000 0.088831 -163.2 0.995885 -74.51 0.995885 -74.51 0.088830 -166.0
8.79242000 0.088913 -163.3 0.995877 -74.52 0.995877 -74.52 0.088913 -166.0
8.79243000 0.088995 -163.3 0.995870 -74.52 0.995870 -74.52 0.088995 -166.0
8.79244000 0.089078 -163.3 0.995862 -74.53 0.995862 -74.53 0.089078 -166.0
8.79245000 0.089161 -163.3 0.995854 -74.53 0.995854 -74.53 0.089161 -166.0
8.79246000 0.089244 -163.3 0.995847 -74.54 0.995847 -74.54 0.089244 -166.0
8.79247000 0.089327 -163.3 0.995839 -74.54 0.995839 -74.54 0.089327 -166.0
8.79248000 0.089410 -163.3 0.995831 -74.55 0.995831 -74.55 0.089410 -166.0
8.79249000 0.089494 -163.3 0.995823 -74.55 0.995823 -74.55 0.089493 -166.0
8.79250000 0.089577 -163.3 0.995816 -74.56 0.995816 -74.56 0.089577 -166.0
8.79251000 0.089661 -163.3 0.995808 -74.56 0.995808 -74.56 0.089661 -166.0
8.79252000 0.089745 -163.3 0.995800 -74.57 0.995800 -74.57 0.089744 -166.0
8.79253000 0.089829 -163.3 0.995792 -74.57 0.995792 -74.57 0.089828 -166.0
8.79254000 0.089913 -163.3 0.995784 -74.58 0.995784 -74.58 0.089913 -166.0
8.79255000 0.089997 -163.3 0.995776 -74.58 0.995776 -74.58 0.089997 -166.0
8.79256000 0.090082 -163.3 0.995768 -74.59 0.995768 -74.59 0.090081 -166.1
8.79257000 0.090166 -163.3 0.995760 -74.59 0.995760 -74.59 0.090166 -166.1
8.79258000 0.090251 -163.3 0.995752 -74.60 0.995752 -74.60 0.090251 -166.1
8.79259000 0.090336 -163.3 0.995744 -74.60 0.995744 -74.60 0.090336 -166.1
8.79260000 0.090421 -163.3 0.995736 -74.61 0.995736 -74.61 0.090421 -166.1
8.79261000 0.090506 -163.3 0.995728 -74.61 0.995728 -74.61 0.090506 -166.1
8.79262000 0.090592 -163.4 0.995720 -74.62 0.995720 -74.62 0.090591 -166.1
8.79263000 0.090677 -163.4 0.995712 -74.62 0.995712 -74.62 0.090677 -166.1
8.79264000 0.090763 -163.4 0.995704 -74.63 0.995704 -74.63 0.090763 -166.1
8.79265000 0.090849 -163.4 0.995696 -74.63 0.995696 -74.63 0.090849 -166.1
8.79266000 0.090935 -163.4 0.995688 -74.64 0.995688 -74.64 0.090935 -166.1
8.79267000 0.091021 -163.4 0.995680 -74.64 0.995680 -74.64 0.091021 -166.1
8.79268000 0.091107 -163.4 0.995672 -74.65 0.995672 -74.65 0.091107 -166.1
8.79269000 0.091194 -163.4 0.995663 -74.65 0.995663 -74.65 0.091194 -166.1
8.79270000 0.091281 -163.4 0.995655 -74.66 0.995655 -74.66 0.091280 -166.1
8.79271000 0.091367 -163.4 0.995647 -74.66 0.995647 -74.66 0.091367 -166.1
8.79272000 0.091454 -163.4 0.995639 -74.67 0.995639 -74.67 0.091454 -166.1
8.79273000 0.091541 -163.4 0.995630 -74.67 0.995630 -74.67 0.091541 -166.1
8.79274000 0.091629 -163.4 0.995622 -74.68 0.995622 -74.68 0.091629 -166.1
8.79275000 0.091716 -163.4 0.995614 -74.68 0.995614 -74.68 0.091716 -166.1
8.79276000 0.091804 -163.4 0.995605 -74.69 0.995605 -74.69 0.091804 -166.2
8.79277000 0.091892 -163.4 0.995597 -74.69 0.995597 -74.69 0.091891 -166.2
8.79278000 0.091980 -163.4 0.995588 -74.70 0.995588 -74.70 0.091979 -166.2
8.79279000 0.092068 -163.4 0.995580 -74.70 0.995580 -74.70 0.092068 -166.2
8.79280000 0.092156 -163.4 0.995571 -74.71 0.995571 -74.71 0.092156 -166.2
8.79281000 0.092244 -163.4 0.995563 -74.71 0.995563 -74.71 0.092244 -166.2
8.79282000 0.092333 -163.5 0.995554 -74.72 0.995554 -74.72 0.092333 -166.2
8.79283000 0.092422 -163.5 0.995546 -74.72 0.995546 -74.72 0.092422 -166.2
8.79284000 0.092511 -163.5 0.995537 -74.73 0.995537 -74.73 0.092511 -166.2
8.79285000 0.092600 -163.5 0.995529 -74.74 0.995529 -74.74 0.092600 -166.2
8.79286000 0.092689 -163.5 0.995520 -74.74 0.995520 -74.74 0.092689 -166.2
8.79287000 0.092779 -163.5 0.995511 -74.75 0.995511 -74.75 0.092778 -166.2
8.79288000 0.092868 -163.5 0.995503 -74.75 0.995503 -74.75 0.092868 -166.2
8.79289000 0.092958 -163.5 0.995494 -74.76 0.995494 -74.76 0.092958 -166.2
8.79290000 0.093048 -163.5 0.995485 -74.76 0.995485 -74.76 0.093048 -166.2
8.79291000 0.093138 -163.5 0.995477 -74.77 0.995477 -74.77 0.093138 -166.2
8.79292000 0.093228 -163.5 0.995468 -74.77 0.995468 -74.77 0.093228 -166.2
8.79293000 0.093319 -163.5 0.995459 -74.78 0.995459 -74.78 0.093319 -166.2
8.79294000 0.093410 -163.5 0.995450 -74.78 0.995450 -74.78 0.093409 -166.2
8.79295000 0.093500 -163.5 0.995441 -74.79 0.995441 -74.79 0.093500 -166.3
8.79296000 0.093591 -163.5 0.995432 -74.79 0.995432 -74.79 0.093591 -166.3
8.79297000 0.093683 -163.5 0.995424 -74.80 0.995424 -74.80 0.093682 -166.3
8.79298000 0.093774 -163.5 0.995415 -74.80 0.995415 -74.80 0.093774 -166.3
8.79299000 0.093865 -163.5 0.995406 -74.81 0.995406 -74.81 0.093865 -166.3
8.79300000 0.093957 -163.6 0.995397 -74.81 0.995397 -74.81 0.093957 -166.3
8.79301000 0.094049 -163.6 0.995388 -74.82 0.995388 -74.82 0.094049 -166.3
8.79302000 0.094141 -163.6 0.995379 -74.83 0.995379 -74.83 0.094141 -166.3
8.79303000 0.094233 -163.6 0.995370 -74.83 0.995370 -74.83 0.094233 -166.3
8.79304000 0.094325 -163.6 0.995361 -74.84 0.995361 -74.84 0.094325 -166.3
8.79305000 0.094418 -163.6 0.995351 -74.84 0.995351 -74.84 0.094418 -166.3
8.79306000 0.094511 -163.6 0.995342 -74.85 0.995342 -74.85 0.094511 -166.3
8.79307000 0.094604 -163.6 0.995333 -74.85 0.995333 -74.85 0.094603 -166.3
8.79308000 0.094697 -163.6 0.995324 -74.86 0.995324 -74.86 0.094697 -166.3
8.79309000 0.094790 -163.6 0.995315 -74.86 0.995315 -74.86 0.094790 -166.3
8.79310000 0.094883 -163.6 0.995305 -74.87 0.995305 -74.87 0.094883 -166.3
8.79311000 0.094977 -163.6 0.995296 -74.87 0.995296 -74.87 0.094977 -166.3
8.79312000 0.095071 -163.6 0.995287 -74.88 0.995287 -74.88 0.095071 -166.3
8.79313000 0.095165 -163.6 0.995278 -74.88 0.995278 -74.88 0.095165 -166.4
8.79314000 0.095259 -163.6 0.995268 -74.89 0.995268 -74.89 0.095259 -166.4
8.79315000 0.095353 -163.6 0.995259 -74.90 0.995259 -74.90 0.095353 -166.4
8.79316000 0.095448 -163.6 0.995249 -74.90 0.995249 -74.90 0.095448 -166.4
8.79317000 0.095543 -163.6 0.995240 -74.91 0.995240 -74.91 0.095542 -166.4
8.79318000 0.095637 -163.7 0.995231 -74.91 0.995231 -74.91 0.095637 -166.4
8.79319000 0.095733 -163.7 0.995221 -74.92 0.995221 -74.92 0.095732 -166.4
8.79320000 0.095828 -163.7 0.995212 -74.92 0.995212 -74.92 0.095828 -166.4
8.79321000 0.095923 -163.7 0.995202 -74.93 0.995202 -74.93 0.095923 -166.4
8.79322000 0.096019 -163.7 0.995192 -74.93 0.995192 -74.93 0.096019 -166.4
8.79323000 0.096115 -163.7 0.995183 -74.94 0.995183 -74.94 0.096114 -166.4
8.79324000 0.096211 -163.7 0.995173 -74.95 0.995173 -74.95 0.096210 -166.4
8.79325000 0.096307 -163.7 0.995164 -74.95 0.995164 -74.95 0.096307 -166.4
8.79326000 0.096403 -163.7 0.995154 -74.96 0.995154 -74.96 0.096403 -166.4
8.79327000 0.096500 -163.7 0.995144 -74.96 0.995144 -74.96 0.096500 -166.4
8.79328000 0.096597 -163.7 0.995134 -74.97 0.995134 -74.97 0.096596 -166.4
8.79329000 0.096693 -163.7 0.995125 -74.97 0.995125 -74.97 0.096693 -166.4
8.79330000 0.096791 -163.7 0.995115 -74.98 0.995115 -74.98 0.096790 -166.4
8.79331000 0.096888 -163.7 0.995105 -74.99 0.995105 -74.99 0.096888 -166.5
8.79332000 0.096985 -163.7 0.995095 -74.99 0.995095 -74.99 0.096985 -166.5
8.79333000 0.097083 -163.7 0.995085 -75.00 0.995085 -75.00 0.097083 -166.5
8.79334000 0.097181 -163.7 0.995075 -75.00 0.995075 -75.00 0.097181 -166.5
8.79335000 0.097279 -163.7 0.995065 -75.01 0.995065 -75.01 0.097279 -166.5
8.79336000 0.097377 -163.8 0.995055 -75.01 0.995055 -75.01 0.097377 -166.5
8.79337000 0.097476 -163.8 0.995045 -75.02 0.995045 -75.02 0.097476 -166.5
8.79338000 0.097575 -163.8 0.995035 -75.03 0.995035 -75.03 0.097574 -166.5
8.79339000 0.097673 -163.8 0.995025 -75.03 0.995025 -75.03 0.097673 -166.5
8.79340000 0.097772 -163.8 0.995015 -75.04 0.995015 -75.04 0.097772 -166.5
8.79341000 0.097872 -163.8 0.995005 -75.04 0.995005 -75.04 0.097871 -166.5
8.79342000 0.097971 -163.8 0.994995 -75.05 0.994995 -75.05 0.097971 -166.5
8.79343000 0.098071 -163.8 0.994985 -75.05 0.994985 -75.05 0.098071 -166.5
8.79344000 0.098171 -163.8 0.994975 -75.06 0.994975 -75.06 0.098170 -166.5
8.79345000 0.098271 -163.8 0.994964 -75.07 0.994964 -75.07 0.098270 -166.5
8.79346000 0.098371 -163.8 0.994954 -75.07 0.994954 -75.07 0.098371 -166.5
8.79347000 0.098471 -163.8 0.994944 -75.08 0.994944 -75.08 0.098471 -166.5
8.79348000 0.098572 -163.8 0.994933 -75.08 0.994933 -75.08 0.098572 -166.6
8.79349000 0.098673 -163.8 0.994923 -75.09 0.994923 -75.09 0.098673 -166.6
8.79350000 0.098774 -163.8 0.994913 -75.10 0.994913 -75.10 0.098774 -166.6
8.79351000 0.098875 -163.8 0.994902 -75.10 0.994902 -75.10 0.098875 -166.6
8.79352000 0.098977 -163.8 0.994892 -75.11 0.994892 -75.11 0.098976 -166.6
8.79353000 0.099078 -163.9 0.994881 -75.11 0.994881 -75.11 0.099078 -166.6
8.79354000 0.099180 -163.9 0.994871 -75.12 0.994871 -75.12 0.099180 -166.6
8.79355000 0.099282 -163.9 0.994860 -75.13 0.994860 -75.13 0.099282 -166.6
8.79356000 0.099384 -163.9 0.994850 -75.13 0.994850 -75.13 0.099384 -166.6
8.79357000 0.099487 -163.9 0.994839 -75.14 0.994839 -75.14 0.099487 -166.6
8.79358000 0.099589 -163.9 0.994828 -75.14 0.994828 -75.14 0.099589 -166.6
8.79359000 0.099692 -163.9 0.994818 -75.15 0.994818 -75.15 0.099692 -166.6
8.79360000 0.099795 -163.9 0.994807 -75.16 0.994807 -75.16 0.099795 -166.6
8.79361000 0.099899 -163.9 0.994796 -75.16 0.994796 -75.16 0.099898 -166.6
8.79362000 0.100002 -163.9 0.994785 -75.17 0.994785 -75.17 0.100002 -166.6
8.79363000 0.100106 -163.9 0.994774 -75.17 0.994774 -75.17 0.100106 -166.6
8.79364000 0.100210 -163.9 0.994764 -75.18 0.994764 -75.18 0.100210 -166.7
8.79365000 0.100314 -163.9 0.994753 -75.19 0.994753 -75.19 0.100314 -166.7
8.79366000 0.100418 -163.9 0.994742 -75.19 0.994742 -75.19 0.100418 -166.7
8.79367000 0.100523 -163.9 0.994731 -75.20 0.994731 -75.20 0.100523 -166.7
8.79368000 0.100628 -163.9 0.994720 -75.20 0.994720 -75.20 0.100627 -166.7
8.79369000 0.100733 -164.0 0.994709 -75.21 0.994709 -75.21 0.100732 -166.7
8.79370000 0.100838 -164.0 0.994698 -75.22 0.994698 -75.22 0.100838 -166.7
8.79371000 0.100943 -164.0 0.994687 -75.22 0.994687 -75.22 0.100943 -166.7
8.79372000 0.101049 -164.0 0.994676 -75.23 0.994676 -75.23 0.101049 -166.7
8.79373000 0.101155 -164.0 0.994664 -75.23 0.994664 -75.23 0.101154 -166.7
8.79374000 0.101261 -164.0 0.994653 -75.24 0.994653 -75.24 0.101260 -166.7
8.79375000 0.101367 -164.0 0.994642 -75.25 0.994642 -75.25 0.101367 -166.7
8.79376000 0.101473 -164.0 0.994631 -75.25 0.994631 -75.25 0.101473 -166.7
8.79377000 0.101580 -164.0 0.994619 -75.26 0.994619 -75.26 0.101580 -166.7
8.79378000 0.101687 -164.0 0.994608 -75.27 0.994608 -75.27 0.101687 -166.7
8.79379000 0.101794 -164.0 0.994597 -75.27 0.994597 -75.27 0.101794 -166.7
8.79380000 0.101902 -164.0 0.994585 -75.28 0.994585 -75.28 0.101901 -166.8
8.79381000 0.102009 -164.0 0.994574 -75.28 0.994574 -75.28 0.102009 -166.8
8.79382000 0.102117 -164.0 0.994562 -75.29 0.994562 -75.29 0.102117 -166.8
8.79383000 0.102225 -164.0 0.994551 -75.30 0.994551 -75.30 0.102225 -166.8
8.79384000 0.102333 -164.0 0.994539 -75.30 0.994539 -75.30 0.102333 -166.8
8.79385000 0.102442 -164.1 0.994528 -75.31 0.994528 -75.31 0.102441 -166.8
8.79386000 0.102550 -164.1 0.994516 -75.32 0.994516 -75.32 0.102550 -166.8
8.79387000 0.102659 -164.1 0.994504 -75.32 0.994504 -75.32 0.102659 -166.8
8.79388000 0.102768 -164.1 0.994493 -75.33 0.994493 -75.33 0.102768 -166.8
8.79389000 0.102878 -164.1 0.994481 -75.34 0.994481 -75.34 0.102878 -166.8
8.79390000 0.102987 -164.1 0.994469 -75.34 0.994469 -75.34 0.102987 -166.8
8.79391000 0.103097 -164.1 0.994457 -75.35 0.994457 -75.35 0.103097 -166.8
8.79392000 0.103207 -164.1 0.994446 -75.35 0.994446 -75.35 0.103207 -166.8