! Sonnet Data File
! From: emgraph Version : 16.52
! From Project: Qubit_Xmon2
! Data is De-embedded 
! Data File Written: 10/18/2017 13:35:04
!< HDATE 10/18/2017 12:09:35
!< MDATE 10/18/2017 12:09:35
!< PARAMS
!< Lj = 11.0
!< Gap = 26.0
!< Pwid = 2000.0
!< Airgap = 18.0
!< Width = 30.0
!< END PARAMS
# GHZ S MA R 41.17000
8.79000000 0.077295 -163.8 0.996882 -75.17 0.996882 -75.17 0.077295 -166.7
!< P1 F=8.79 Eeff=(4.89767601 -6.0965e-5) Z0=(41.1732234 -1.5591e-4) R=0.0 C=0.0 
!< P2 F=8.79 Eeff=(4.89767601 -6.0965e-5) Z0=(41.1732234 -1.5591e-4) R=0.0 C=0.0 
8.79001000 0.077359 -163.8 0.996877 -75.18 0.996877 -75.18 0.077359 -166.7
8.79002000 0.077423 -163.9 0.996872 -75.18 0.996872 -75.18 0.077423 -166.7
8.79003000 0.077487 -163.9 0.996866 -75.18 0.996866 -75.18 0.077487 -166.7
8.79004000 0.077551 -163.9 0.996861 -75.19 0.996861 -75.19 0.077551 -166.7
8.79005000 0.077615 -163.9 0.996856 -75.19 0.996856 -75.19 0.077615 -166.7
8.79006000 0.077679 -163.9 0.996851 -75.20 0.996851 -75.20 0.077679 -166.7
8.79007000 0.077744 -163.9 0.996846 -75.20 0.996846 -75.20 0.077744 -166.7
8.79008000 0.077808 -163.9 0.996840 -75.20 0.996840 -75.20 0.077808 -166.7
8.79009000 0.077873 -163.9 0.996835 -75.21 0.996835 -75.21 0.077873 -166.7
8.79010000 0.077937 -163.9 0.996830 -75.21 0.996830 -75.21 0.077938 -166.7
8.79011000 0.078002 -163.9 0.996825 -75.21 0.996825 -75.21 0.078002 -166.7
8.79012000 0.078067 -163.9 0.996819 -75.22 0.996819 -75.22 0.078067 -166.7
8.79013000 0.078132 -163.9 0.996814 -75.22 0.996814 -75.22 0.078132 -166.7
8.79014000 0.078197 -163.9 0.996809 -75.23 0.996809 -75.23 0.078197 -166.7
8.79015000 0.078262 -163.9 0.996804 -75.23 0.996804 -75.23 0.078262 -166.7
8.79016000 0.078328 -163.9 0.996798 -75.23 0.996798 -75.23 0.078328 -166.7
8.79017000 0.078393 -163.9 0.996793 -75.24 0.996793 -75.24 0.078393 -166.7
8.79018000 0.078459 -163.9 0.996788 -75.24 0.996788 -75.24 0.078459 -166.7
8.79019000 0.078524 -163.9 0.996782 -75.25 0.996782 -75.25 0.078524 -166.7
8.79020000 0.078590 -163.9 0.996777 -75.25 0.996777 -75.25 0.078590 -166.8
8.79021000 0.078656 -163.9 0.996772 -75.25 0.996772 -75.25 0.078656 -166.8
8.79022000 0.078722 -163.9 0.996766 -75.26 0.996766 -75.26 0.078722 -166.8
8.79023000 0.078788 -163.9 0.996761 -75.26 0.996761 -75.26 0.078788 -166.8
8.79024000 0.078854 -163.9 0.996755 -75.26 0.996755 -75.26 0.078854 -166.8
8.79025000 0.078920 -163.9 0.996750 -75.27 0.996750 -75.27 0.078920 -166.8
8.79026000 0.078986 -163.9 0.996744 -75.27 0.996744 -75.27 0.078986 -166.8
8.79027000 0.079053 -163.9 0.996739 -75.28 0.996739 -75.28 0.079053 -166.8
8.79028000 0.079119 -164.0 0.996734 -75.28 0.996734 -75.28 0.079119 -166.8
8.79029000 0.079186 -164.0 0.996728 -75.28 0.996728 -75.28 0.079186 -166.8
8.79030000 0.079252 -164.0 0.996723 -75.29 0.996723 -75.29 0.079253 -166.8
8.79031000 0.079319 -164.0 0.996717 -75.29 0.996717 -75.29 0.079319 -166.8
8.79032000 0.079386 -164.0 0.996711 -75.30 0.996711 -75.30 0.079386 -166.8
8.79033000 0.079453 -164.0 0.996706 -75.30 0.996706 -75.30 0.079453 -166.8
8.79034000 0.079520 -164.0 0.996700 -75.30 0.996700 -75.30 0.079520 -166.8
8.79035000 0.079588 -164.0 0.996695 -75.31 0.996695 -75.31 0.079588 -166.8
8.79036000 0.079655 -164.0 0.996689 -75.31 0.996689 -75.31 0.079655 -166.8
8.79037000 0.079722 -164.0 0.996684 -75.32 0.996684 -75.32 0.079722 -166.8
8.79038000 0.079790 -164.0 0.996678 -75.32 0.996678 -75.32 0.079790 -166.8
8.79039000 0.079858 -164.0 0.996672 -75.32 0.996672 -75.32 0.079858 -166.8
8.79040000 0.079925 -164.0 0.996667 -75.33 0.996667 -75.33 0.079925 -166.8
8.79041000 0.079993 -164.0 0.996661 -75.33 0.996661 -75.33 0.079993 -166.8
8.79042000 0.080061 -164.0 0.996656 -75.34 0.996656 -75.34 0.080061 -166.8
8.79043000 0.080129 -164.0 0.996650 -75.34 0.996650 -75.34 0.080129 -166.8
8.79044000 0.080198 -164.0 0.996644 -75.34 0.996644 -75.34 0.080198 -166.8
8.79045000 0.080266 -164.0 0.996638 -75.35 0.996638 -75.35 0.080266 -166.8
8.79046000 0.080334 -164.0 0.996633 -75.35 0.996633 -75.35 0.080334 -166.9
8.79047000 0.080403 -164.0 0.996627 -75.36 0.996627 -75.36 0.080403 -166.9
8.79048000 0.080471 -164.0 0.996621 -75.36 0.996621 -75.36 0.080471 -166.9
8.79049000 0.080540 -164.0 0.996616 -75.36 0.996616 -75.36 0.080540 -166.9
8.79050000 0.080609 -164.0 0.996610 -75.37 0.996610 -75.37 0.080609 -166.9
8.79051000 0.080678 -164.0 0.996604 -75.37 0.996604 -75.37 0.080678 -166.9
8.79052000 0.080747 -164.1 0.996598 -75.38 0.996598 -75.38 0.080747 -166.9
8.79053000 0.080816 -164.1 0.996592 -75.38 0.996592 -75.38 0.080816 -166.9
8.79054000 0.080885 -164.1 0.996587 -75.38 0.996587 -75.38 0.080885 -166.9
8.79055000 0.080955 -164.1 0.996581 -75.39 0.996581 -75.39 0.080955 -166.9
8.79056000 0.081024 -164.1 0.996575 -75.39 0.996575 -75.39 0.081024 -166.9
8.79057000 0.081094 -164.1 0.996569 -75.40 0.996569 -75.40 0.081094 -166.9
8.79058000 0.081164 -164.1 0.996563 -75.40 0.996563 -75.40 0.081164 -166.9
8.79059000 0.081233 -164.1 0.996557 -75.40 0.996557 -75.40 0.081234 -166.9
8.79060000 0.081303 -164.1 0.996551 -75.41 0.996551 -75.41 0.081303 -166.9
8.79061000 0.081373 -164.1 0.996545 -75.41 0.996545 -75.41 0.081373 -166.9
8.79062000 0.081444 -164.1 0.996539 -75.42 0.996539 -75.42 0.081444 -166.9
8.79063000 0.081514 -164.1 0.996533 -75.42 0.996533 -75.42 0.081514 -166.9
8.79064000 0.081584 -164.1 0.996528 -75.42 0.996528 -75.42 0.081584 -166.9
8.79065000 0.081655 -164.1 0.996522 -75.43 0.996522 -75.43 0.081655 -166.9
8.79066000 0.081725 -164.1 0.996516 -75.43 0.996516 -75.43 0.081725 -166.9
8.79067000 0.081796 -164.1 0.996510 -75.44 0.996510 -75.44 0.081796 -166.9
8.79068000 0.081867 -164.1 0.996503 -75.44 0.996503 -75.44 0.081867 -166.9
8.79069000 0.081938 -164.1 0.996497 -75.45 0.996497 -75.45 0.081938 -166.9
8.79070000 0.082009 -164.1 0.996491 -75.45 0.996491 -75.45 0.082009 -167.0
8.79071000 0.082080 -164.1 0.996485 -75.45 0.996485 -75.45 0.082080 -167.0
8.79072000 0.082151 -164.1 0.996479 -75.46 0.996479 -75.46 0.082151 -167.0
8.79073000 0.082223 -164.1 0.996473 -75.46 0.996473 -75.46 0.082223 -167.0
8.79074000 0.082294 -164.1 0.996467 -75.47 0.996467 -75.47 0.082294 -167.0
8.79075000 0.082366 -164.1 0.996461 -75.47 0.996461 -75.47 0.082366 -167.0
8.79076000 0.082438 -164.2 0.996455 -75.47 0.996455 -75.47 0.082438 -167.0
8.79077000 0.082510 -164.2 0.996449 -75.48 0.996449 -75.48 0.082510 -167.0
8.79078000 0.082582 -164.2 0.996442 -75.48 0.996442 -75.48 0.082582 -167.0
8.79079000 0.082654 -164.2 0.996436 -75.49 0.996436 -75.49 0.082654 -167.0
8.79080000 0.082726 -164.2 0.996430 -75.49 0.996430 -75.49 0.082726 -167.0
8.79081000 0.082798 -164.2 0.996424 -75.50 0.996424 -75.50 0.082798 -167.0
8.79082000 0.082871 -164.2 0.996418 -75.50 0.996418 -75.50 0.082871 -167.0
8.79083000 0.082943 -164.2 0.996411 -75.50 0.996411 -75.50 0.082943 -167.0
8.79084000 0.083016 -164.2 0.996405 -75.51 0.996405 -75.51 0.083016 -167.0
8.79085000 0.083089 -164.2 0.996399 -75.51 0.996399 -75.51 0.083089 -167.0
8.79086000 0.083162 -164.2 0.996392 -75.52 0.996392 -75.52 0.083162 -167.0
8.79087000 0.083235 -164.2 0.996386 -75.52 0.996386 -75.52 0.083235 -167.0
8.79088000 0.083308 -164.2 0.996380 -75.53 0.996380 -75.53 0.083308 -167.0
8.79089000 0.083381 -164.2 0.996373 -75.53 0.996373 -75.53 0.083381 -167.0
8.79090000 0.083454 -164.2 0.996367 -75.53 0.996367 -75.53 0.083454 -167.0
8.79091000 0.083528 -164.2 0.996361 -75.54 0.996361 -75.54 0.083528 -167.0
8.79092000 0.083602 -164.2 0.996354 -75.54 0.996354 -75.54 0.083602 -167.0
8.79093000 0.083675 -164.2 0.996348 -75.55 0.996348 -75.55 0.083675 -167.1
8.79094000 0.083749 -164.2 0.996341 -75.55 0.996341 -75.55 0.083749 -167.1
8.79095000 0.083823 -164.2 0.996335 -75.56 0.996335 -75.56 0.083823 -167.1
8.79096000 0.083897 -164.2 0.996328 -75.56 0.996328 -75.56 0.083897 -167.1
8.79097000 0.083972 -164.2 0.996322 -75.56 0.996322 -75.56 0.083972 -167.1
8.79098000 0.084046 -164.2 0.996315 -75.57 0.996315 -75.57 0.084046 -167.1
8.79099000 0.084120 -164.3 0.996309 -75.57 0.996309 -75.57 0.084120 -167.1
8.79100000 0.084195 -164.3 0.996302 -75.58 0.996302 -75.58 0.084195 -167.1
8.79101000 0.084270 -164.3 0.996296 -75.58 0.996296 -75.58 0.084270 -167.1
8.79102000 0.084345 -164.3 0.996289 -75.59 0.996289 -75.59 0.084345 -167.1
8.79103000 0.084419 -164.3 0.996283 -75.59 0.996283 -75.59 0.084420 -167.1
8.79104000 0.084495 -164.3 0.996276 -75.60 0.996276 -75.60 0.084495 -167.1
8.79105000 0.084570 -164.3 0.996270 -75.60 0.996270 -75.60 0.084570 -167.1
8.79106000 0.084645 -164.3 0.996263 -75.60 0.996263 -75.60 0.084645 -167.1
8.79107000 0.084721 -164.3 0.996256 -75.61 0.996256 -75.61 0.084721 -167.1
8.79108000 0.084796 -164.3 0.996250 -75.61 0.996250 -75.61 0.084796 -167.1
8.79109000 0.084872 -164.3 0.996243 -75.62 0.996243 -75.62 0.084872 -167.1
8.79110000 0.084948 -164.3 0.996236 -75.62 0.996236 -75.62 0.084948 -167.1
8.79111000 0.085024 -164.3 0.996230 -75.63 0.996230 -75.63 0.085024 -167.1
8.79112000 0.085100 -164.3 0.996223 -75.63 0.996223 -75.63 0.085100 -167.1
8.79113000 0.085176 -164.3 0.996216 -75.64 0.996216 -75.64 0.085176 -167.1
8.79114000 0.085252 -164.3 0.996209 -75.64 0.996209 -75.64 0.085252 -167.1
8.79115000 0.085329 -164.3 0.996202 -75.64 0.996202 -75.64 0.085329 -167.1
8.79116000 0.085405 -164.3 0.996196 -75.65 0.996196 -75.65 0.085405 -167.2
8.79117000 0.085482 -164.3 0.996189 -75.65 0.996189 -75.65 0.085482 -167.2
8.79118000 0.085559 -164.3 0.996182 -75.66 0.996182 -75.66 0.085559 -167.2
8.79119000 0.085636 -164.3 0.996175 -75.66 0.996175 -75.66 0.085636 -167.2
8.79120000 0.085713 -164.4 0.996168 -75.67 0.996168 -75.67 0.085713 -167.2
8.79121000 0.085790 -164.4 0.996161 -75.67 0.996161 -75.67 0.085790 -167.2
8.79122000 0.085868 -164.4 0.996154 -75.68 0.996154 -75.68 0.085868 -167.2
8.79123000 0.085945 -164.4 0.996148 -75.68 0.996148 -75.68 0.085945 -167.2
8.79124000 0.086023 -164.4 0.996141 -75.68 0.996141 -75.68 0.086023 -167.2
8.79125000 0.086101 -164.4 0.996134 -75.69 0.996134 -75.69 0.086101 -167.2
8.79126000 0.086178 -164.4 0.996127 -75.69 0.996127 -75.69 0.086178 -167.2
8.79127000 0.086256 -164.4 0.996120 -75.70 0.996120 -75.70 0.086256 -167.2
8.79128000 0.086335 -164.4 0.996113 -75.70 0.996113 -75.70 0.086335 -167.2
8.79129000 0.086413 -164.4 0.996106 -75.71 0.996106 -75.71 0.086413 -167.2
8.79130000 0.086491 -164.4 0.996099 -75.71 0.996099 -75.71 0.086491 -167.2
8.79131000 0.086570 -164.4 0.996092 -75.72 0.996092 -75.72 0.086570 -167.2
8.79132000 0.086648 -164.4 0.996084 -75.72 0.996084 -75.72 0.086649 -167.2
8.79133000 0.086727 -164.4 0.996077 -75.73 0.996077 -75.73 0.086727 -167.2
8.79134000 0.086806 -164.4 0.996070 -75.73 0.996070 -75.73 0.086806 -167.2
8.79135000 0.086885 -164.4 0.996063 -75.74 0.996063 -75.74 0.086885 -167.2
8.79136000 0.086964 -164.4 0.996056 -75.74 0.996056 -75.74 0.086965 -167.2
8.79137000 0.087044 -164.4 0.996049 -75.74 0.996049 -75.74 0.087044 -167.2
8.79138000 0.087123 -164.4 0.996042 -75.75 0.996042 -75.75 0.087123 -167.3
8.79139000 0.087203 -164.4 0.996034 -75.75 0.996034 -75.75 0.087203 -167.3
8.79140000 0.087283 -164.4 0.996027 -75.76 0.996027 -75.76 0.087283 -167.3
8.79141000 0.087363 -164.4 0.996020 -75.76 0.996020 -75.76 0.087363 -167.3
8.79142000 0.087443 -164.5 0.996013 -75.77 0.996013 -75.77 0.087443 -167.3
8.79143000 0.087523 -164.5 0.996005 -75.77 0.996005 -75.77 0.087523 -167.3
8.79144000 0.087603 -164.5 0.995998 -75.78 0.995998 -75.78 0.087603 -167.3
8.79145000 0.087683 -164.5 0.995991 -75.78 0.995991 -75.78 0.087683 -167.3
8.79146000 0.087764 -164.5 0.995983 -75.79 0.995983 -75.79 0.087764 -167.3
8.79147000 0.087845 -164.5 0.995976 -75.79 0.995976 -75.79 0.087845 -167.3
8.79148000 0.087925 -164.5 0.995968 -75.80 0.995968 -75.80 0.087926 -167.3
8.79149000 0.088006 -164.5 0.995961 -75.80 0.995961 -75.80 0.088006 -167.3
8.79150000 0.088088 -164.5 0.995954 -75.81 0.995954 -75.81 0.088088 -167.3
8.79151000 0.088169 -164.5 0.995946 -75.81 0.995946 -75.81 0.088169 -167.3
8.79152000 0.088250 -164.5 0.995939 -75.82 0.995939 -75.82 0.088250 -167.3
8.79153000 0.088332 -164.5 0.995931 -75.82 0.995931 -75.82 0.088332 -167.3
8.79154000 0.088413 -164.5 0.995924 -75.82 0.995924 -75.82 0.088413 -167.3
8.79155000 0.088495 -164.5 0.995916 -75.83 0.995916 -75.83 0.088495 -167.3
8.79156000 0.088577 -164.5 0.995909 -75.83 0.995909 -75.83 0.088577 -167.3
8.79157000 0.088659 -164.5 0.995901 -75.84 0.995901 -75.84 0.088659 -167.3
8.79158000 0.088741 -164.5 0.995893 -75.84 0.995893 -75.84 0.088742 -167.3
8.79159000 0.088824 -164.5 0.995886 -75.85 0.995886 -75.85 0.088824 -167.4
8.79160000 0.088906 -164.5 0.995878 -75.85 0.995878 -75.85 0.088906 -167.4
8.79161000 0.088989 -164.5 0.995871 -75.86 0.995871 -75.86 0.088989 -167.4
8.79162000 0.089072 -164.6 0.995863 -75.86 0.995863 -75.86 0.089072 -167.4
8.79163000 0.089155 -164.6 0.995855 -75.87 0.995855 -75.87 0.089155 -167.4
8.79164000 0.089238 -164.6 0.995848 -75.87 0.995848 -75.87 0.089238 -167.4
8.79165000 0.089321 -164.6 0.995840 -75.88 0.995840 -75.88 0.089321 -167.4
8.79166000 0.089404 -164.6 0.995832 -75.88 0.995832 -75.88 0.089404 -167.4
8.79167000 0.089488 -164.6 0.995824 -75.89 0.995824 -75.89 0.089488 -167.4
8.79168000 0.089572 -164.6 0.995816 -75.89 0.995816 -75.89 0.089572 -167.4
8.79169000 0.089655 -164.6 0.995809 -75.90 0.995809 -75.90 0.089655 -167.4
8.79170000 0.089739 -164.6 0.995801 -75.90 0.995801 -75.90 0.089739 -167.4
8.79171000 0.089823 -164.6 0.995793 -75.91 0.995793 -75.91 0.089824 -167.4
8.79172000 0.089908 -164.6 0.995785 -75.91 0.995785 -75.91 0.089908 -167.4
8.79173000 0.089992 -164.6 0.995777 -75.92 0.995777 -75.92 0.089992 -167.4
8.79174000 0.090077 -164.6 0.995769 -75.92 0.995769 -75.92 0.090077 -167.4
8.79175000 0.090161 -164.6 0.995761 -75.93 0.995761 -75.93 0.090161 -167.4
8.79176000 0.090246 -164.6 0.995753 -75.93 0.995753 -75.93 0.090246 -167.4
8.79177000 0.090331 -164.6 0.995745 -75.94 0.995745 -75.94 0.090331 -167.4
8.79178000 0.090416 -164.6 0.995737 -75.94 0.995737 -75.94 0.090416 -167.4
8.79179000 0.090502 -164.6 0.995729 -75.95 0.995729 -75.95 0.090502 -167.5
8.79180000 0.090587 -164.6 0.995721 -75.95 0.995721 -75.95 0.090587 -167.5
8.79181000 0.090673 -164.6 0.995713 -75.96 0.995713 -75.96 0.090673 -167.5
8.79182000 0.090758 -164.7 0.995705 -75.96 0.995705 -75.96 0.090758 -167.5
8.79183000 0.090844 -164.7 0.995697 -75.97 0.995697 -75.97 0.090844 -167.5
8.79184000 0.090930 -164.7 0.995689 -75.97 0.995689 -75.97 0.090930 -167.5
8.79185000 0.091016 -164.7 0.995681 -75.98 0.995681 -75.98 0.091016 -167.5
8.79186000 0.091103 -164.7 0.995673 -75.98 0.995673 -75.98 0.091103 -167.5
8.79187000 0.091189 -164.7 0.995664 -75.99 0.995664 -75.99 0.091189 -167.5
8.79188000 0.091276 -164.7 0.995656 -75.99 0.995656 -75.99 0.091276 -167.5
8.79189000 0.091363 -164.7 0.995648 -76.00 0.995648 -76.00 0.091363 -167.5
8.79190000 0.091450 -164.7 0.995640 -76.00 0.995640 -76.00 0.091450 -167.5
8.79191000 0.091537 -164.7 0.995631 -76.01 0.995631 -76.01 0.091537 -167.5
8.79192000 0.091624 -164.7 0.995623 -76.01 0.995623 -76.01 0.091624 -167.5
8.79193000 0.091711 -164.7 0.995615 -76.02 0.995615 -76.02 0.091711 -167.5
8.79194000 0.091799 -164.7 0.995606 -76.02 0.995606 -76.02 0.091799 -167.5
8.79195000 0.091887 -164.7 0.995598 -76.03 0.995598 -76.03 0.091887 -167.5
8.79196000 0.091975 -164.7 0.995589 -76.03 0.995589 -76.03 0.091975 -167.5
8.79197000 0.092063 -164.7 0.995581 -76.04 0.995581 -76.04 0.092063 -167.5
8.79198000 0.092151 -164.7 0.995573 -76.04 0.995573 -76.04 0.092151 -167.6
8.79199000 0.092239 -164.7 0.995564 -76.05 0.995564 -76.05 0.092239 -167.6
8.79200000 0.092328 -164.7 0.995556 -76.05 0.995556 -76.05 0.092328 -167.6
8.79201000 0.092416 -164.8 0.995547 -76.06 0.995547 -76.06 0.092416 -167.6
8.79202000 0.092505 -164.8 0.995539 -76.06 0.995539 -76.06 0.092505 -167.6
8.79203000 0.092594 -164.8 0.995530 -76.07 0.995530 -76.07 0.092594 -167.6
8.79204000 0.092683 -164.8 0.995521 -76.07 0.995521 -76.07 0.092683 -167.6
8.79205000 0.092773 -164.8 0.995513 -76.08 0.995513 -76.08 0.092773 -167.6
8.79206000 0.092862 -164.8 0.995504 -76.08 0.995504 -76.08 0.092862 -167.6
8.79207000 0.092952 -164.8 0.995495 -76.09 0.995495 -76.09 0.092952 -167.6
8.79208000 0.093041 -164.8 0.995487 -76.10 0.995487 -76.10 0.093042 -167.6
8.79209000 0.093131 -164.8 0.995478 -76.10 0.995478 -76.10 0.093131 -167.6
8.79210000 0.093222 -164.8 0.995469 -76.11 0.995469 -76.11 0.093222 -167.6
8.79211000 0.093312 -164.8 0.995461 -76.11 0.995461 -76.11 0.093312 -167.6
8.79212000 0.093402 -164.8 0.995452 -76.12 0.995452 -76.12 0.093402 -167.6
8.79213000 0.093493 -164.8 0.995443 -76.12 0.995443 -76.12 0.093493 -167.6
8.79214000 0.093584 -164.8 0.995434 -76.13 0.995434 -76.13 0.093584 -167.6
8.79215000 0.093675 -164.8 0.995425 -76.13 0.995425 -76.13 0.093675 -167.6
8.79216000 0.093766 -164.8 0.995416 -76.14 0.995416 -76.14 0.093766 -167.6
8.79217000 0.093857 -164.8 0.995407 -76.14 0.995407 -76.14 0.093857 -167.7
8.79218000 0.093948 -164.8 0.995399 -76.15 0.995399 -76.15 0.093948 -167.7
8.79219000 0.094040 -164.9 0.995390 -76.15 0.995390 -76.15 0.094040 -167.7
8.79220000 0.094132 -164.9 0.995381 -76.16 0.995381 -76.16 0.094132 -167.7
8.79221000 0.094224 -164.9 0.995372 -76.16 0.995372 -76.16 0.094224 -167.7
8.79222000 0.094316 -164.9 0.995363 -76.17 0.995363 -76.17 0.094316 -167.7
8.79223000 0.094408 -164.9 0.995353 -76.18 0.995353 -76.18 0.094408 -167.7
8.79224000 0.094500 -164.9 0.995344 -76.18 0.995344 -76.18 0.094500 -167.7
8.79225000 0.094593 -164.9 0.995335 -76.19 0.995335 -76.19 0.094593 -167.7
8.79226000 0.094686 -164.9 0.995326 -76.19 0.995326 -76.19 0.094686 -167.7
8.79227000 0.094779 -164.9 0.995317 -76.20 0.995317 -76.20 0.094779 -167.7
8.79228000 0.094872 -164.9 0.995308 -76.20 0.995308 -76.20 0.094872 -167.7
8.79229000 0.094965 -164.9 0.995299 -76.21 0.995299 -76.21 0.094965 -167.7
8.79230000 0.095058 -164.9 0.995289 -76.21 0.995289 -76.21 0.095058 -167.7
8.79231000 0.095152 -164.9 0.995280 -76.22 0.995280 -76.22 0.095152 -167.7
8.79232000 0.095246 -164.9 0.995271 -76.22 0.995271 -76.22 0.095246 -167.7
8.79233000 0.095340 -164.9 0.995261 -76.23 0.995261 -76.23 0.095340 -167.7
8.79234000 0.095434 -164.9 0.995252 -76.24 0.995252 -76.24 0.095434 -167.7
8.79235000 0.095528 -164.9 0.995243 -76.24 0.995243 -76.24 0.095528 -167.7
8.79236000 0.095623 -164.9 0.995233 -76.25 0.995233 -76.25 0.095623 -167.8
8.79237000 0.095717 -165.0 0.995224 -76.25 0.995224 -76.25 0.095717 -167.8
8.79238000 0.095812 -165.0 0.995214 -76.26 0.995214 -76.26 0.095812 -167.8
8.79239000 0.095907 -165.0 0.995205 -76.26 0.995205 -76.26 0.095907 -167.8
8.79240000 0.096002 -165.0 0.995195 -76.27 0.995195 -76.27 0.096002 -167.8
8.79241000 0.096098 -165.0 0.995186 -76.27 0.995186 -76.27 0.096098 -167.8
8.79242000 0.096193 -165.0 0.995176 -76.28 0.995176 -76.28 0.096193 -167.8
8.79243000 0.096289 -165.0 0.995167 -76.29 0.995167 -76.29 0.096289 -167.8
8.79244000 0.096385 -165.0 0.995157 -76.29 0.995157 -76.29 0.096385 -167.8
8.79245000 0.096481 -165.0 0.995148 -76.30 0.995148 -76.30 0.096481 -167.8
8.79246000 0.096577 -165.0 0.995138 -76.30 0.995138 -76.30 0.096577 -167.8
8.79247000 0.096673 -165.0 0.995128 -76.31 0.995128 -76.31 0.096674 -167.8
8.79248000 0.096770 -165.0 0.995118 -76.31 0.995118 -76.31 0.096770 -167.8
8.79249000 0.096867 -165.0 0.995109 -76.32 0.995109 -76.32 0.096867 -167.8
8.79250000 0.096964 -165.0 0.995099 -76.32 0.995099 -76.32 0.096964 -167.8
8.79251000 0.097061 -165.0 0.995089 -76.33 0.995089 -76.33 0.097061 -167.8
8.79252000 0.097158 -165.0 0.995079 -76.34 0.995079 -76.34 0.097158 -167.8
8.79253000 0.097256 -165.0 0.995069 -76.34 0.995069 -76.34 0.097256 -167.9
8.79254000 0.097353 -165.0 0.995059 -76.35 0.995059 -76.35 0.097354 -167.9
8.79255000 0.097451 -165.1 0.995050 -76.35 0.995050 -76.35 0.097451 -167.9
8.79256000 0.097549 -165.1 0.995040 -76.36 0.995040 -76.36 0.097549 -167.9
8.79257000 0.097648 -165.1 0.995030 -76.36 0.995030 -76.36 0.097648 -167.9
8.79258000 0.097746 -165.1 0.995020 -76.37 0.995020 -76.37 0.097746 -167.9
8.79259000 0.097845 -165.1 0.995010 -76.38 0.995010 -76.38 0.097845 -167.9
8.79260000 0.097943 -165.1 0.994999 -76.38 0.994999 -76.38 0.097944 -167.9
8.79261000 0.098042 -165.1 0.994989 -76.39 0.994989 -76.39 0.098042 -167.9
8.79262000 0.098142 -165.1 0.994979 -76.39 0.994979 -76.39 0.098142 -167.9
8.79263000 0.098241 -165.1 0.994969 -76.40 0.994969 -76.40 0.098241 -167.9
8.79264000 0.098340 -165.1 0.994959 -76.40 0.994959 -76.40 0.098341 -167.9
8.79265000 0.098440 -165.1 0.994949 -76.41 0.994949 -76.41 0.098440 -167.9
8.79266000 0.098540 -165.1 0.994938 -76.42 0.994938 -76.42 0.098540 -167.9
8.79267000 0.098640 -165.1 0.994928 -76.42 0.994928 -76.42 0.098640 -167.9
8.79268000 0.098741 -165.1 0.994918 -76.43 0.994918 -76.43 0.098741 -167.9
8.79269000 0.098841 -165.1 0.994908 -76.43 0.994908 -76.43 0.098841 -167.9
8.79270000 0.098942 -165.1 0.994897 -76.44 0.994897 -76.44 0.098942 -168.0
8.79271000 0.099043 -165.1 0.994887 -76.45 0.994887 -76.45 0.099043 -168.0
8.79272000 0.099144 -165.2 0.994876 -76.45 0.994876 -76.45 0.099144 -168.0
8.79273000 0.099245 -165.2 0.994866 -76.46 0.994866 -76.46 0.099245 -168.0
8.79274000 0.099346 -165.2 0.994855 -76.46 0.994855 -76.46 0.099346 -168.0
8.79275000 0.099448 -165.2 0.994845 -76.47 0.994845 -76.47 0.099448 -168.0
8.79276000 0.099550 -165.2 0.994834 -76.48 0.994834 -76.48 0.099550 -168.0
8.79277000 0.099652 -165.2 0.994824 -76.48 0.994824 -76.48 0.099652 -168.0
8.79278000 0.099754 -165.2 0.994813 -76.49 0.994813 -76.49 0.099754 -168.0
8.79279000 0.099857 -165.2 0.994802 -76.49 0.994802 -76.49 0.099857 -168.0
8.79280000 0.099959 -165.2 0.994792 -76.50 0.994792 -76.50 0.099959 -168.0
8.79281000 0.100062 -165.2 0.994781 -76.51 0.994781 -76.51 0.100062 -168.0
8.79282000 0.100165 -165.2 0.994770 -76.51 0.994770 -76.51 0.100165 -168.0
8.79283000 0.100268 -165.2 0.994760 -76.52 0.994760 -76.52 0.100268 -168.0
8.79284000 0.100372 -165.2 0.994749 -76.52 0.994749 -76.52 0.100372 -168.0
8.79285000 0.100475 -165.2 0.994738 -76.53 0.994738 -76.53 0.100475 -168.0
8.79286000 0.100579 -165.2 0.994727 -76.54 0.994727 -76.54 0.100579 -168.0
8.79287000 0.100683 -165.2 0.994716 -76.54 0.994716 -76.54 0.100683 -168.1
8.79288000 0.100787 -165.3 0.994705 -76.55 0.994705 -76.55 0.100787 -168.1
8.79289000 0.100892 -165.3 0.994694 -76.55 0.994694 -76.55 0.100892 -168.1
8.79290000 0.100996 -165.3 0.994683 -76.56 0.994683 -76.56 0.100996 -168.1
8.79291000 0.101101 -165.3 0.994672 -76.57 0.994672 -76.57 0.101101 -168.1
8.79292000 0.101206 -165.3 0.994661 -76.57 0.994661 -76.57 0.101206 -168.1
8.79293000 0.101311 -165.3 0.994650 -76.58 0.994650 -76.58 0.101311 -168.1
8.79294000 0.101417 -165.3 0.994639 -76.58 0.994639 -76.58 0.101417 -168.1
8.79295000 0.101522 -165.3 0.994628 -76.59 0.994628 -76.59 0.101523 -168.1
8.79296000 0.101628 -165.3 0.994617 -76.60 0.994617 -76.60 0.101628 -168.1
8.79297000 0.101734 -165.3 0.994605 -76.60 0.994605 -76.60 0.101734 -168.1
8.79298000 0.101841 -165.3 0.994594 -76.61 0.994594 -76.61 0.101841 -168.1
8.79299000 0.101947 -165.3 0.994583 -76.62 0.994583 -76.62 0.101947 -168.1
8.79300000 0.102054 -165.3 0.994571 -76.62 0.994571 -76.62 0.102054 -168.1
8.79301000 0.102161 -165.3 0.994560 -76.63 0.994560 -76.63 0.102161 -168.1
8.79302000 0.102268 -165.3 0.994549 -76.63 0.994549 -76.63 0.102268 -168.1
8.79303000 0.102375 -165.3 0.994537 -76.64 0.994537 -76.64 0.102375 -168.2
8.79304000 0.102483 -165.4 0.994526 -76.65 0.994526 -76.65 0.102483 -168.2
8.79305000 0.102590 -165.4 0.994514 -76.65 0.994514 -76.65 0.102590 -168.2
8.79306000 0.102698 -165.4 0.994503 -76.66 0.994503 -76.66 0.102698 -168.2
8.79307000 0.102806 -165.4 0.994491 -76.67 0.994491 -76.67 0.102806 -168.2
8.79308000 0.102915 -165.4 0.994480 -76.67 0.994480 -76.67 0.102915 -168.2
8.79309000 0.103023 -165.4 0.994468 -76.68 0.994468 -76.68 0.103023 -168.2
8.79310000 0.103132 -165.4 0.994456 -76.68 0.994456 -76.68 0.103132 -168.2
8.79311000 0.103241 -165.4 0.994445 -76.69 0.994445 -76.69 0.103241 -168.2
8.79312000 0.103350 -165.4 0.994433 -76.70 0.994433 -76.70 0.103350 -168.2
8.79313000 0.103460 -165.4 0.994421 -76.70 0.994421 -76.70 0.103460 -168.2
8.79314000 0.103569 -165.4 0.994409 -76.71 0.994409 -76.71 0.103569 -168.2
8.79315000 0.103679 -165.4 0.994397 -76.72 0.994397 -76.72 0.103679 -168.2
8.79316000 0.103789 -165.4 0.994385 -76.72 0.994385 -76.72 0.103789 -168.2
8.79317000 0.103900 -165.4 0.994373 -76.73 0.994373 -76.73 0.103900 -168.2
8.79318000 0.104010 -165.4 0.994362 -76.74 0.994362 -76.74 0.104010 -168.2
8.79319000 0.104121 -165.5 0.994349 -76.74 0.994349 -76.74 0.104121 -168.3
8.79320000 0.104232 -165.5 0.994337 -76.75 0.994337 -76.75 0.104232 -168.3
8.79321000 0.104343 -165.5 0.994325 -76.76 0.994325 -76.76 0.104343 -168.3
8.79322000 0.104455 -165.5 0.994313 -76.76 0.994313 -76.76 0.104455 -168.3
8.79323000 0.104566 -165.5 0.994301 -76.77 0.994301 -76.77 0.104566 -168.3
8.79324000 0.104678 -165.5 0.994289 -76.77 0.994289 -76.77 0.104678 -168.3
8.79325000 0.104790 -165.5 0.994277 -76.78 0.994277 -76.78 0.104790 -168.3
8.79326000 0.104902 -165.5 0.994264 -76.79 0.994264 -76.79 0.104903 -168.3
8.79327000 0.105015 -165.5 0.994252 -76.79 0.994252 -76.79 0.105015 -168.3
8.79328000 0.105128 -165.5 0.994240 -76.80 0.994240 -76.80 0.105128 -168.3
8.79329000 0.105241 -165.5 0.994227 -76.81 0.994227 -76.81 0.105241 -168.3
8.79330000 0.105354 -165.5 0.994215 -76.81 0.994215 -76.81 0.105354 -168.3
8.79331000 0.105467 -165.5 0.994203 -76.82 0.994203 -76.82 0.105467 -168.3
8.79332000 0.105581 -165.5 0.994190 -76.83 0.994190 -76.83 0.105581 -168.3
8.79333000 0.105695 -165.5 0.994177 -76.83 0.994177 -76.83 0.105695 -168.3
8.79334000 0.105809 -165.6 0.994165 -76.84 0.994165 -76.84 0.105809 -168.4
8.79335000 0.105923 -165.6 0.994152 -76.85 0.994152 -76.85 0.105924 -168.4
8.79336000 0.106038 -165.6 0.994140 -76.85 0.994140 -76.85 0.106038 -168.4
8.79337000 0.106153 -165.6 0.994127 -76.86 0.994127 -76.86 0.106153 -168.4
8.79338000 0.106268 -165.6 0.994114 -76.87 0.994114 -76.87 0.106268 -168.4
8.79339000 0.106383 -165.6 0.994101 -76.87 0.994101 -76.87 0.106383 -168.4
8.79340000 0.106499 -165.6 0.994089 -76.88 0.994089 -76.88 0.106499 -168.4
8.79341000 0.106615 -165.6 0.994076 -76.89 0.994076 -76.89 0.106615 -168.4
8.79342000 0.106731 -165.6 0.994063 -76.89 0.994063 -76.89 0.106731 -168.4
8.79343000 0.106847 -165.6 0.994050 -76.90 0.994050 -76.90 0.106847 -168.4
8.79344000 0.106963 -165.6 0.994037 -76.91 0.994037 -76.91 0.106963 -168.4
8.79345000 0.107080 -165.6 0.994024 -76.91 0.994024 -76.91 0.107080 -168.4
8.79346000 0.107197 -165.6 0.994011 -76.92 0.994011 -76.92 0.107197 -168.4
8.79347000 0.107314 -165.6 0.993998 -76.93 0.993998 -76.93 0.107314 -168.4
8.79348000 0.107432 -165.7 0.993985 -76.94 0.993985 -76.94 0.107432 -168.5
8.79349000 0.107549 -165.7 0.993971 -76.94 0.993971 -76.94 0.107549 -168.5
8.79350000 0.107667 -165.7 0.993958 -76.95 0.993958 -76.95 0.107667 -168.5
8.79351000 0.107785 -165.7 0.993945 -76.96 0.993945 -76.96 0.107785 -168.5
8.79352000 0.107904 -165.7 0.993932 -76.96 0.993932 -76.96 0.107904 -168.5
8.79353000 0.108022 -165.7 0.993918 -76.97 0.993918 -76.97 0.108022 -168.5
8.79354000 0.108141 -165.7 0.993905 -76.98 0.993905 -76.98 0.108141 -168.5
8.79355000 0.108260 -165.7 0.993892 -76.98 0.993892 -76.98 0.108260 -168.5
8.79356000 0.108380 -165.7 0.993878 -76.99 0.993878 -76.99 0.108380 -168.5
8.79357000 0.108499 -165.7 0.993865 -77.00 0.993865 -77.00 0.108499 -168.5
8.79358000 0.108619 -165.7 0.993851 -77.00 0.993851 -77.00 0.108619 -168.5
8.79359000 0.108739 -165.7 0.993837 -77.01 0.993837 -77.01 0.108739 -168.5
8.79360000 0.108860 -165.7 0.993824 -77.02 0.993824 -77.02 0.108860 -168.5
8.79361000 0.108980 -165.7 0.993810 -77.03 0.993810 -77.03 0.108980 -168.5
8.79362000 0.109101 -165.8 0.993796 -77.03 0.993796 -77.03 0.109101 -168.5
8.79363000 0.109222 -165.8 0.993782 -77.04 0.993782 -77.04 0.109222 -168.6
8.79364000 0.109344 -165.8 0.993769 -77.05 0.993769 -77.05 0.109344 -168.6
8.79365000 0.109465 -165.8 0.993755 -77.05 0.993755 -77.05 0.109465 -168.6
8.79366000 0.109587 -165.8 0.993741 -77.06 0.993741 -77.06 0.109587 -168.6
8.79367000 0.109709 -165.8 0.993727 -77.07 0.993727 -77.07 0.109709 -168.6
8.79368000 0.109832 -165.8 0.993713 -77.08 0.993713 -77.08 0.109832 -168.6
8.79369000 0.109954 -165.8 0.993699 -77.08 0.993699 -77.08 0.109955 -168.6
8.79370000 0.110077 -165.8 0.993685 -77.09 0.993685 -77.09 0.110077 -168.6
8.79371000 0.110201 -165.8 0.993671 -77.10 0.993671 -77.10 0.110201 -168.6
8.79372000 0.110324 -165.8 0.993656 -77.10 0.993656 -77.10 0.110324 -168.6
8.79373000 0.110448 -165.8 0.993642 -77.11 0.993642 -77.11 0.110448 -168.6
8.79374000 0.110572 -165.8 0.993628 -77.12 0.993628 -77.12 0.110572 -168.6
8.79375000 0.110696 -165.8 0.993614 -77.13 0.993614 -77.13 0.110696 -168.6
8.79376000 0.110820 -165.9 0.993599 -77.13 0.993599 -77.13 0.110820 -168.7
8.79377000 0.110945 -165.9 0.993585 -77.14 0.993585 -77.14 0.110945 -168.7
8.79378000 0.111070 -165.9 0.993570 -77.15 0.993570 -77.15 0.111070 -168.7
8.79379000 0.111195 -165.9 0.993556 -77.15 0.993556 -77.15 0.111195 -168.7
8.79380000 0.111321 -165.9 0.993541 -77.16 0.993541 -77.16 0.111321 -168.7
8.79381000 0.111447 -165.9 0.993527 -77.17 0.993527 -77.17 0.111447 -168.7
8.79382000 0.111573 -165.9 0.993512 -77.18 0.993512 -77.18 0.111573 -168.7
8.79383000 0.111699 -165.9 0.993497 -77.18 0.993497 -77.18 0.111699 -168.7
8.79384000 0.111826 -165.9 0.993483 -77.19 0.993483 -77.19 0.111826 -168.7
8.79385000 0.111952 -165.9 0.993468 -77.20 0.993468 -77.20 0.111953 -168.7
8.79386000 0.112080 -165.9 0.993453 -77.21 0.993453 -77.21 0.112080 -168.7
8.79387000 0.112207 -165.9 0.993438 -77.21 0.993438 -77.21 0.112207 -168.7
8.79388000 0.112335 -165.9 0.993423 -77.22 0.993423 -77.22 0.112335 -168.7
8.79389000 0.112463 -166.0 0.993408 -77.23 0.993408 -77.23 0.112463 -168.7
8.79390000 0.112591 -166.0 0.993393 -77.24 0.993393 -77.24 0.112591 -168.8
8.79391000 0.112719 -166.0 0.993378 -77.24 0.993378 -77.24 0.112719 -168.8
8.79392000 0.112848 -166.0 0.993363 -77.25 0.993363 -77.25 0.112848 -168.8