! Sonnet Data File
! From: emgraph Version : 16.52
! From Project: Qubit_Xmon2
! Data is De-embedded 
! Data File Written: 10/18/2017 10:22:27
!< HDATE 10/18/2017 09:13:04
!< MDATE 10/18/2017 09:13:04
!< PARAMS
!< Lj = 11.0
!< Gap = 26.0
!< Pwid = 2000.0
!< Airgap = 6.0
!< Width = 10.0
!< END PARAMS
# GHZ S MA R 34.60000
8.79000000 0.083452 -166.1 0.996371 -77.35 0.996371 -77.35 0.083452 -168.8
!< P1 F=8.79 Eeff=(5.1373841 -5.7056e-5) Z0=(34.640405 -9.7526e-5) R=0.0 C=0.0 
!< P2 F=8.79 Eeff=(5.1373841 -5.7056e-5) Z0=(34.640405 -9.7526e-5) R=0.0 C=0.0 
8.79001000 0.083523 -166.1 0.996365 -77.35 0.996365 -77.35 0.083523 -168.8
8.79002000 0.083595 -166.1 0.996359 -77.36 0.996359 -77.36 0.083595 -168.8
8.79003000 0.083667 -166.1 0.996353 -77.36 0.996353 -77.36 0.083667 -168.8
8.79004000 0.083739 -166.1 0.996346 -77.37 0.996346 -77.37 0.083739 -168.8
8.79005000 0.083811 -166.1 0.996340 -77.37 0.996340 -77.37 0.083811 -168.8
8.79006000 0.083883 -166.1 0.996334 -77.38 0.996334 -77.38 0.083883 -168.8
8.79007000 0.083955 -166.1 0.996328 -77.38 0.996328 -77.38 0.083955 -168.8
8.79008000 0.084028 -166.1 0.996321 -77.38 0.996321 -77.38 0.084027 -168.8
8.79009000 0.084100 -166.1 0.996315 -77.39 0.996315 -77.39 0.084100 -168.8
8.79010000 0.084173 -166.1 0.996309 -77.39 0.996309 -77.39 0.084173 -168.9
8.79011000 0.084245 -166.1 0.996302 -77.40 0.996302 -77.40 0.084245 -168.9
8.79012000 0.084318 -166.1 0.996296 -77.40 0.996296 -77.40 0.084318 -168.9
8.79013000 0.084391 -166.1 0.996289 -77.40 0.996289 -77.40 0.084391 -168.9
8.79014000 0.084464 -166.1 0.996283 -77.41 0.996283 -77.41 0.084464 -168.9
8.79015000 0.084537 -166.1 0.996277 -77.41 0.996277 -77.41 0.084537 -168.9
8.79016000 0.084611 -166.1 0.996270 -77.42 0.996270 -77.42 0.084611 -168.9
8.79017000 0.084684 -166.1 0.996264 -77.42 0.996264 -77.42 0.084684 -168.9
8.79018000 0.084758 -166.1 0.996257 -77.43 0.996257 -77.43 0.084757 -168.9
8.79019000 0.084831 -166.2 0.996251 -77.43 0.996251 -77.43 0.084831 -168.9
8.79020000 0.084905 -166.2 0.996244 -77.43 0.996244 -77.43 0.084905 -168.9
8.79021000 0.084979 -166.2 0.996238 -77.44 0.996238 -77.44 0.084979 -168.9
8.79022000 0.085053 -166.2 0.996231 -77.44 0.996231 -77.44 0.085053 -168.9
8.79023000 0.085127 -166.2 0.996225 -77.45 0.996225 -77.45 0.085127 -168.9
8.79024000 0.085201 -166.2 0.996218 -77.45 0.996218 -77.45 0.085201 -168.9
8.79025000 0.085275 -166.2 0.996212 -77.46 0.996212 -77.46 0.085275 -168.9
8.79026000 0.085350 -166.2 0.996205 -77.46 0.996205 -77.46 0.085350 -168.9
8.79027000 0.085424 -166.2 0.996198 -77.47 0.996198 -77.47 0.085424 -168.9
8.79028000 0.085499 -166.2 0.996192 -77.47 0.996192 -77.47 0.085499 -168.9
8.79029000 0.085574 -166.2 0.996185 -77.47 0.996185 -77.47 0.085574 -168.9
8.79030000 0.085649 -166.2 0.996178 -77.48 0.996178 -77.48 0.085649 -168.9
8.79031000 0.085724 -166.2 0.996172 -77.48 0.996172 -77.48 0.085724 -168.9
8.79032000 0.085799 -166.2 0.996165 -77.49 0.996165 -77.49 0.085799 -168.9
8.79033000 0.085874 -166.2 0.996158 -77.49 0.996158 -77.49 0.085874 -169.0
8.79034000 0.085950 -166.2 0.996152 -77.50 0.996152 -77.50 0.085950 -169.0
8.79035000 0.086025 -166.2 0.996145 -77.50 0.996145 -77.50 0.086025 -169.0
8.79036000 0.086101 -166.2 0.996138 -77.51 0.996138 -77.51 0.086101 -169.0
8.79037000 0.086177 -166.2 0.996131 -77.51 0.996131 -77.51 0.086177 -169.0
8.79038000 0.086253 -166.2 0.996124 -77.51 0.996124 -77.51 0.086253 -169.0
8.79039000 0.086329 -166.2 0.996118 -77.52 0.996118 -77.52 0.086329 -169.0
8.79040000 0.086405 -166.2 0.996111 -77.52 0.996111 -77.52 0.086405 -169.0
8.79041000 0.086481 -166.3 0.996104 -77.53 0.996104 -77.53 0.086481 -169.0
8.79042000 0.086557 -166.3 0.996097 -77.53 0.996097 -77.53 0.086557 -169.0
8.79043000 0.086634 -166.3 0.996090 -77.54 0.996090 -77.54 0.086634 -169.0
8.79044000 0.086711 -166.3 0.996083 -77.54 0.996083 -77.54 0.086710 -169.0
8.79045000 0.086787 -166.3 0.996076 -77.55 0.996076 -77.55 0.086787 -169.0
8.79046000 0.086864 -166.3 0.996070 -77.55 0.996070 -77.55 0.086864 -169.0
8.79047000 0.086941 -166.3 0.996063 -77.55 0.996063 -77.55 0.086941 -169.0
8.79048000 0.087018 -166.3 0.996056 -77.56 0.996056 -77.56 0.087018 -169.0
8.79049000 0.087096 -166.3 0.996049 -77.56 0.996049 -77.56 0.087095 -169.0
8.79050000 0.087173 -166.3 0.996042 -77.57 0.996042 -77.57 0.087173 -169.0
8.79051000 0.087250 -166.3 0.996035 -77.57 0.996035 -77.57 0.087250 -169.0
8.79052000 0.087328 -166.3 0.996028 -77.58 0.996028 -77.58 0.087328 -169.0
8.79053000 0.087406 -166.3 0.996020 -77.58 0.996020 -77.58 0.087406 -169.0
8.79054000 0.087484 -166.3 0.996013 -77.59 0.996013 -77.59 0.087484 -169.0
8.79055000 0.087562 -166.3 0.996006 -77.59 0.996006 -77.59 0.087562 -169.1
8.79056000 0.087640 -166.3 0.995999 -77.60 0.995999 -77.60 0.087640 -169.1
8.79057000 0.087718 -166.3 0.995992 -77.60 0.995992 -77.60 0.087718 -169.1
8.79058000 0.087796 -166.3 0.995985 -77.60 0.995985 -77.60 0.087796 -169.1
8.79059000 0.087875 -166.3 0.995978 -77.61 0.995978 -77.61 0.087875 -169.1
8.79060000 0.087954 -166.3 0.995971 -77.61 0.995971 -77.61 0.087953 -169.1
8.79061000 0.088032 -166.3 0.995963 -77.62 0.995963 -77.62 0.088032 -169.1
8.79062000 0.088111 -166.3 0.995956 -77.62 0.995956 -77.62 0.088111 -169.1
8.79063000 0.088190 -166.4 0.995949 -77.63 0.995949 -77.63 0.088190 -169.1
8.79064000 0.088269 -166.4 0.995942 -77.63 0.995942 -77.63 0.088269 -169.1
8.79065000 0.088349 -166.4 0.995934 -77.64 0.995934 -77.64 0.088349 -169.1
8.79066000 0.088428 -166.4 0.995927 -77.64 0.995927 -77.64 0.088428 -169.1
8.79067000 0.088508 -166.4 0.995920 -77.65 0.995920 -77.65 0.088507 -169.1
8.79068000 0.088587 -166.4 0.995912 -77.65 0.995912 -77.65 0.088587 -169.1
8.79069000 0.088667 -166.4 0.995905 -77.66 0.995905 -77.66 0.088667 -169.1
8.79070000 0.088747 -166.4 0.995898 -77.66 0.995898 -77.66 0.088747 -169.1
8.79071000 0.088827 -166.4 0.995890 -77.66 0.995890 -77.66 0.088827 -169.1
8.79072000 0.088907 -166.4 0.995883 -77.67 0.995883 -77.67 0.088907 -169.1
8.79073000 0.088988 -166.4 0.995876 -77.67 0.995876 -77.67 0.088987 -169.1
8.79074000 0.089068 -166.4 0.995868 -77.68 0.995868 -77.68 0.089068 -169.1
8.79075000 0.089149 -166.4 0.995861 -77.68 0.995861 -77.68 0.089148 -169.1
8.79076000 0.089229 -166.4 0.995853 -77.69 0.995853 -77.69 0.089229 -169.2
8.79077000 0.089310 -166.4 0.995846 -77.69 0.995846 -77.69 0.089310 -169.2
8.79078000 0.089391 -166.4 0.995838 -77.70 0.995838 -77.70 0.089391 -169.2
8.79079000 0.089472 -166.4 0.995831 -77.70 0.995831 -77.70 0.089472 -169.2
8.79080000 0.089554 -166.4 0.995823 -77.71 0.995823 -77.71 0.089553 -169.2
8.79081000 0.089635 -166.4 0.995816 -77.71 0.995816 -77.71 0.089635 -169.2
8.79082000 0.089716 -166.4 0.995808 -77.72 0.995808 -77.72 0.089716 -169.2
8.79083000 0.089798 -166.4 0.995800 -77.72 0.995800 -77.72 0.089798 -169.2
8.79084000 0.089880 -166.5 0.995793 -77.73 0.995793 -77.73 0.089880 -169.2
8.79085000 0.089962 -166.5 0.995785 -77.73 0.995785 -77.73 0.089962 -169.2
8.79086000 0.090044 -166.5 0.995777 -77.74 0.995777 -77.74 0.090044 -169.2
8.79087000 0.090126 -166.5 0.995770 -77.74 0.995770 -77.74 0.090126 -169.2
8.79088000 0.090208 -166.5 0.995762 -77.75 0.995762 -77.75 0.090208 -169.2
8.79089000 0.090291 -166.5 0.995754 -77.75 0.995754 -77.75 0.090291 -169.2
8.79090000 0.090374 -166.5 0.995746 -77.76 0.995746 -77.76 0.090373 -169.2
8.79091000 0.090456 -166.5 0.995739 -77.76 0.995739 -77.76 0.090456 -169.2
8.79092000 0.090539 -166.5 0.995731 -77.76 0.995731 -77.76 0.090539 -169.2
8.79093000 0.090622 -166.5 0.995723 -77.77 0.995723 -77.77 0.090622 -169.2
8.79094000 0.090705 -166.5 0.995715 -77.77 0.995715 -77.77 0.090705 -169.2
8.79095000 0.090789 -166.5 0.995707 -77.78 0.995707 -77.78 0.090789 -169.2
8.79096000 0.090872 -166.5 0.995699 -77.78 0.995699 -77.78 0.090872 -169.3
8.79097000 0.090956 -166.5 0.995692 -77.79 0.995692 -77.79 0.090956 -169.3
8.79098000 0.091039 -166.5 0.995684 -77.79 0.995684 -77.79 0.091039 -169.3
8.79099000 0.091123 -166.5 0.995676 -77.80 0.995676 -77.80 0.091123 -169.3
8.79100000 0.091207 -166.5 0.995668 -77.80 0.995668 -77.80 0.091207 -169.3
8.79101000 0.091292 -166.5 0.995660 -77.81 0.995660 -77.81 0.091291 -169.3
8.79102000 0.091376 -166.5 0.995652 -77.81 0.995652 -77.81 0.091376 -169.3
8.79103000 0.091460 -166.5 0.995644 -77.82 0.995644 -77.82 0.091460 -169.3
8.79104000 0.091545 -166.6 0.995636 -77.82 0.995636 -77.82 0.091545 -169.3
8.79105000 0.091630 -166.6 0.995628 -77.83 0.995628 -77.83 0.091629 -169.3
8.79106000 0.091714 -166.6 0.995620 -77.83 0.995620 -77.83 0.091714 -169.3
8.79107000 0.091799 -166.6 0.995611 -77.84 0.995611 -77.84 0.091799 -169.3
8.79108000 0.091885 -166.6 0.995603 -77.84 0.995603 -77.84 0.091884 -169.3
8.79109000 0.091970 -166.6 0.995595 -77.85 0.995595 -77.85 0.091970 -169.3
8.79110000 0.092055 -166.6 0.995587 -77.85 0.995587 -77.85 0.092055 -169.3
8.79111000 0.092141 -166.6 0.995579 -77.86 0.995579 -77.86 0.092141 -169.3
8.79112000 0.092227 -166.6 0.995571 -77.86 0.995571 -77.86 0.092227 -169.3
8.79113000 0.092313 -166.6 0.995562 -77.87 0.995562 -77.87 0.092312 -169.3
8.79114000 0.092399 -166.6 0.995554 -77.87 0.995554 -77.87 0.092398 -169.3
8.79115000 0.092485 -166.6 0.995546 -77.88 0.995546 -77.88 0.092485 -169.3
8.79116000 0.092571 -166.6 0.995538 -77.88 0.995538 -77.88 0.092571 -169.4
8.79117000 0.092658 -166.6 0.995529 -77.89 0.995529 -77.89 0.092657 -169.4
8.79118000 0.092744 -166.6 0.995521 -77.89 0.995521 -77.89 0.092744 -169.4
8.79119000 0.092831 -166.6 0.995513 -77.90 0.995513 -77.90 0.092831 -169.4
8.79120000 0.092918 -166.6 0.995504 -77.90 0.995504 -77.90 0.092918 -169.4
8.79121000 0.093005 -166.6 0.995496 -77.91 0.995496 -77.91 0.093005 -169.4
8.79122000 0.093092 -166.6 0.995487 -77.91 0.995487 -77.91 0.093092 -169.4
8.79123000 0.093179 -166.6 0.995479 -77.92 0.995479 -77.92 0.093179 -169.4
8.79124000 0.093267 -166.7 0.995470 -77.92 0.995470 -77.92 0.093267 -169.4
8.79125000 0.093355 -166.7 0.995462 -77.93 0.995462 -77.93 0.093354 -169.4
8.79126000 0.093442 -166.7 0.995453 -77.93 0.995453 -77.93 0.093442 -169.4
8.79127000 0.093530 -166.7 0.995445 -77.94 0.995445 -77.94 0.093530 -169.4
8.79128000 0.093618 -166.7 0.995436 -77.95 0.995436 -77.95 0.093618 -169.4
8.79129000 0.093707 -166.7 0.995428 -77.95 0.995428 -77.95 0.093707 -169.4
8.79130000 0.093795 -166.7 0.995419 -77.96 0.995419 -77.96 0.093795 -169.4
8.79131000 0.093884 -166.7 0.995410 -77.96 0.995410 -77.96 0.093884 -169.4
8.79132000 0.093972 -166.7 0.995402 -77.97 0.995402 -77.97 0.093972 -169.4
8.79133000 0.094061 -166.7 0.995393 -77.97 0.995393 -77.97 0.094061 -169.4
8.79134000 0.094150 -166.7 0.995384 -77.98 0.995384 -77.98 0.094150 -169.4
8.79135000 0.094240 -166.7 0.995376 -77.98 0.995376 -77.98 0.094239 -169.5
8.79136000 0.094329 -166.7 0.995367 -77.99 0.995367 -77.99 0.094329 -169.5
8.79137000 0.094418 -166.7 0.995358 -77.99 0.995358 -77.99 0.094418 -169.5
8.79138000 0.094508 -166.7 0.995349 -78.00 0.995349 -78.00 0.094508 -169.5
8.79139000 0.094598 -166.7 0.995340 -78.00 0.995340 -78.00 0.094598 -169.5
8.79140000 0.094688 -166.7 0.995332 -78.01 0.995332 -78.01 0.094688 -169.5
8.79141000 0.094778 -166.7 0.995323 -78.01 0.995323 -78.01 0.094778 -169.5
8.79142000 0.094868 -166.7 0.995314 -78.02 0.995314 -78.02 0.094868 -169.5
8.79143000 0.094959 -166.8 0.995305 -78.02 0.995305 -78.02 0.094958 -169.5
8.79144000 0.095049 -166.8 0.995296 -78.03 0.995296 -78.03 0.095049 -169.5
8.79145000 0.095140 -166.8 0.995287 -78.03 0.995287 -78.03 0.095140 -169.5
8.79146000 0.095231 -166.8 0.995278 -78.04 0.995278 -78.04 0.095231 -169.5
8.79147000 0.095322 -166.8 0.995269 -78.04 0.995269 -78.04 0.095322 -169.5
8.79148000 0.095413 -166.8 0.995260 -78.05 0.995260 -78.05 0.095413 -169.5
8.79149000 0.095505 -166.8 0.995251 -78.06 0.995251 -78.06 0.095504 -169.5
8.79150000 0.095596 -166.8 0.995242 -78.06 0.995242 -78.06 0.095596 -169.5
8.79151000 0.095688 -166.8 0.995233 -78.07 0.995233 -78.07 0.095688 -169.5
8.79152000 0.095780 -166.8 0.995224 -78.07 0.995224 -78.07 0.095780 -169.5
8.79153000 0.095872 -166.8 0.995214 -78.08 0.995214 -78.08 0.095872 -169.5
8.79154000 0.095964 -166.8 0.995205 -78.08 0.995205 -78.08 0.095964 -169.6
8.79155000 0.096056 -166.8 0.995196 -78.09 0.995196 -78.09 0.096056 -169.6
8.79156000 0.096149 -166.8 0.995187 -78.09 0.995187 -78.09 0.096149 -169.6
8.79157000 0.096241 -166.8 0.995177 -78.10 0.995177 -78.10 0.096241 -169.6
8.79158000 0.096334 -166.8 0.995168 -78.10 0.995168 -78.10 0.096334 -169.6
8.79159000 0.096427 -166.8 0.995159 -78.11 0.995159 -78.11 0.096427 -169.6
8.79160000 0.096520 -166.8 0.995150 -78.11 0.995150 -78.11 0.096520 -169.6
8.79161000 0.096614 -166.9 0.995140 -78.12 0.995140 -78.12 0.096614 -169.6
8.79162000 0.096707 -166.9 0.995131 -78.13 0.995131 -78.13 0.096707 -169.6
8.79163000 0.096801 -166.9 0.995121 -78.13 0.995121 -78.13 0.096801 -169.6
8.79164000 0.096895 -166.9 0.995112 -78.14 0.995112 -78.14 0.096895 -169.6
8.79165000 0.096989 -166.9 0.995102 -78.14 0.995102 -78.14 0.096989 -169.6
8.79166000 0.097083 -166.9 0.995093 -78.15 0.995093 -78.15 0.097083 -169.6
8.79167000 0.097177 -166.9 0.995083 -78.15 0.995083 -78.15 0.097177 -169.6
8.79168000 0.097272 -166.9 0.995074 -78.16 0.995074 -78.16 0.097272 -169.6
8.79169000 0.097367 -166.9 0.995064 -78.16 0.995064 -78.16 0.097366 -169.6
8.79170000 0.097461 -166.9 0.995055 -78.17 0.995055 -78.17 0.097461 -169.6
8.79171000 0.097556 -166.9 0.995045 -78.18 0.995045 -78.18 0.097556 -169.6
8.79172000 0.097652 -166.9 0.995035 -78.18 0.995035 -78.18 0.097651 -169.7
8.79173000 0.097747 -166.9 0.995026 -78.19 0.995026 -78.19 0.097747 -169.7
8.79174000 0.097842 -166.9 0.995016 -78.19 0.995016 -78.19 0.097842 -169.7
8.79175000 0.097938 -166.9 0.995006 -78.20 0.995006 -78.20 0.097938 -169.7
8.79176000 0.098034 -166.9 0.994997 -78.20 0.994997 -78.20 0.098034 -169.7
8.79177000 0.098130 -166.9 0.994987 -78.21 0.994987 -78.21 0.098130 -169.7
8.79178000 0.098226 -166.9 0.994977 -78.21 0.994977 -78.21 0.098226 -169.7
8.79179000 0.098323 -167.0 0.994967 -78.22 0.994967 -78.22 0.098323 -169.7
8.79180000 0.098419 -167.0 0.994957 -78.23 0.994957 -78.23 0.098419 -169.7
8.79181000 0.098516 -167.0 0.994947 -78.23 0.994947 -78.23 0.098516 -169.7
8.79182000 0.098613 -167.0 0.994937 -78.24 0.994937 -78.24 0.098613 -169.7
8.79183000 0.098710 -167.0 0.994927 -78.24 0.994927 -78.24 0.098710 -169.7
8.79184000 0.098807 -167.0 0.994917 -78.25 0.994917 -78.25 0.098807 -169.7
8.79185000 0.098905 -167.0 0.994907 -78.25 0.994907 -78.25 0.098904 -169.7
8.79186000 0.099002 -167.0 0.994897 -78.26 0.994897 -78.26 0.099002 -169.7
8.79187000 0.099100 -167.0 0.994887 -78.27 0.994887 -78.27 0.099100 -169.7
8.79188000 0.099198 -167.0 0.994877 -78.27 0.994877 -78.27 0.099198 -169.7
8.79189000 0.099296 -167.0 0.994867 -78.28 0.994867 -78.28 0.099296 -169.7
8.79190000 0.099394 -167.0 0.994857 -78.28 0.994857 -78.28 0.099394 -169.8
8.79191000 0.099493 -167.0 0.994847 -78.29 0.994847 -78.29 0.099493 -169.8
8.79192000 0.099592 -167.0 0.994837 -78.29 0.994837 -78.29 0.099592 -169.8
8.79193000 0.099690 -167.0 0.994826 -78.30 0.994826 -78.30 0.099690 -169.8
8.79194000 0.099790 -167.0 0.994816 -78.31 0.994816 -78.31 0.099789 -169.8
8.79195000 0.099889 -167.0 0.994806 -78.31 0.994806 -78.31 0.099889 -169.8
8.79196000 0.099988 -167.1 0.994795 -78.32 0.994795 -78.32 0.099988 -169.8
8.79197000 0.100088 -167.1 0.994785 -78.32 0.994785 -78.32 0.100088 -169.8
8.79198000 0.100188 -167.1 0.994775 -78.33 0.994775 -78.33 0.100187 -169.8
8.79199000 0.100287 -167.1 0.994764 -78.33 0.994764 -78.33 0.100287 -169.8
8.79200000 0.100388 -167.1 0.994754 -78.34 0.994754 -78.34 0.100387 -169.8
8.79201000 0.100488 -167.1 0.994743 -78.35 0.994743 -78.35 0.100488 -169.8
8.79202000 0.100588 -167.1 0.994733 -78.35 0.994733 -78.35 0.100588 -169.8
8.79203000 0.100689 -167.1 0.994722 -78.36 0.994722 -78.36 0.100689 -169.8
8.79204000 0.100790 -167.1 0.994712 -78.36 0.994712 -78.36 0.100790 -169.8
8.79205000 0.100891 -167.1 0.994701 -78.37 0.994701 -78.37 0.100891 -169.8
8.79206000 0.100992 -167.1 0.994690 -78.38 0.994690 -78.38 0.100992 -169.9
8.79207000 0.101094 -167.1 0.994680 -78.38 0.994680 -78.38 0.101094 -169.9
8.79208000 0.101195 -167.1 0.994669 -78.39 0.994669 -78.39 0.101195 -169.9
8.79209000 0.101297 -167.1 0.994658 -78.39 0.994658 -78.39 0.101297 -169.9
8.79210000 0.101399 -167.1 0.994648 -78.40 0.994648 -78.40 0.101399 -169.9
8.79211000 0.101501 -167.1 0.994637 -78.41 0.994637 -78.41 0.101501 -169.9
8.79212000 0.101604 -167.2 0.994626 -78.41 0.994626 -78.41 0.101604 -169.9
8.79213000 0.101706 -167.2 0.994615 -78.42 0.994615 -78.42 0.101706 -169.9
8.79214000 0.101809 -167.2 0.994604 -78.42 0.994604 -78.42 0.101809 -169.9
8.79215000 0.101912 -167.2 0.994593 -78.43 0.994593 -78.43 0.101912 -169.9
8.79216000 0.102015 -167.2 0.994583 -78.44 0.994583 -78.44 0.102015 -169.9
8.79217000 0.102118 -167.2 0.994572 -78.44 0.994572 -78.44 0.102118 -169.9
8.79218000 0.102222 -167.2 0.994561 -78.45 0.994561 -78.45 0.102222 -169.9
8.79219000 0.102326 -167.2 0.994550 -78.45 0.994550 -78.45 0.102326 -169.9
8.79220000 0.102430 -167.2 0.994538 -78.46 0.994538 -78.46 0.102429 -169.9
8.79221000 0.102534 -167.2 0.994527 -78.47 0.994527 -78.47 0.102534 -169.9
8.79222000 0.102638 -167.2 0.994516 -78.47 0.994516 -78.47 0.102638 -169.9
8.79223000 0.102742 -167.2 0.994505 -78.48 0.994505 -78.48 0.102742 -170.0
8.79224000 0.102847 -167.2 0.994494 -78.48 0.994494 -78.48 0.102847 -170.0
8.79225000 0.102952 -167.2 0.994483 -78.49 0.994483 -78.49 0.102952 -170.0
8.79226000 0.103057 -167.2 0.994471 -78.50 0.994471 -78.50 0.103057 -170.0
8.79227000 0.103162 -167.2 0.994460 -78.50 0.994460 -78.50 0.103162 -170.0
8.79228000 0.103268 -167.2 0.994449 -78.51 0.994449 -78.51 0.103268 -170.0
8.79229000 0.103374 -167.3 0.994437 -78.52 0.994437 -78.52 0.103373 -170.0
8.79230000 0.103479 -167.3 0.994426 -78.52 0.994426 -78.52 0.103479 -170.0
8.79231000 0.103585 -167.3 0.994415 -78.53 0.994415 -78.53 0.103585 -170.0
8.79232000 0.103692 -167.3 0.994403 -78.53 0.994403 -78.53 0.103692 -170.0
8.79233000 0.103798 -167.3 0.994392 -78.54 0.994392 -78.54 0.103798 -170.0
8.79234000 0.103905 -167.3 0.994380 -78.55 0.994380 -78.55 0.103905 -170.0
8.79235000 0.104012 -167.3 0.994369 -78.55 0.994369 -78.55 0.104012 -170.0
8.79236000 0.104119 -167.3 0.994357 -78.56 0.994357 -78.56 0.104119 -170.0
8.79237000 0.104226 -167.3 0.994345 -78.56 0.994345 -78.56 0.104226 -170.0
8.79238000 0.104334 -167.3 0.994334 -78.57 0.994334 -78.57 0.104334 -170.0
8.79239000 0.104441 -167.3 0.994322 -78.58 0.994322 -78.58 0.104441 -170.1
8.79240000 0.104549 -167.3 0.994310 -78.58 0.994310 -78.58 0.104549 -170.1
8.79241000 0.104657 -167.3 0.994299 -78.59 0.994299 -78.59 0.104657 -170.1
8.79242000 0.104766 -167.3 0.994287 -78.60 0.994287 -78.60 0.104766 -170.1
8.79243000 0.104874 -167.3 0.994275 -78.60 0.994275 -78.60 0.104874 -170.1
8.79244000 0.104983 -167.4 0.994263 -78.61 0.994263 -78.61 0.104983 -170.1
8.79245000 0.105092 -167.4 0.994251 -78.62 0.994251 -78.62 0.105092 -170.1
8.79246000 0.105201 -167.4 0.994239 -78.62 0.994239 -78.62 0.105201 -170.1
8.79247000 0.105310 -167.4 0.994227 -78.63 0.994227 -78.63 0.105310 -170.1
8.79248000 0.105420 -167.4 0.994215 -78.63 0.994215 -78.63 0.105420 -170.1
8.79249000 0.105530 -167.4 0.994203 -78.64 0.994203 -78.64 0.105530 -170.1
8.79250000 0.105640 -167.4 0.994191 -78.65 0.994191 -78.65 0.105639 -170.1
8.79251000 0.105750 -167.4 0.994179 -78.65 0.994179 -78.65 0.105750 -170.1
8.79252000 0.105860 -167.4 0.994167 -78.66 0.994167 -78.66 0.105860 -170.1
8.79253000 0.105971 -167.4 0.994155 -78.67 0.994155 -78.67 0.105971 -170.1
8.79254000 0.106082 -167.4 0.994142 -78.67 0.994142 -78.67 0.106082 -170.2
8.79255000 0.106193 -167.4 0.994130 -78.68 0.994130 -78.68 0.106193 -170.2
8.79256000 0.106304 -167.4 0.994118 -78.69 0.994118 -78.69 0.106304 -170.2
8.79257000 0.106415 -167.4 0.994106 -78.69 0.994106 -78.69 0.106415 -170.2
8.79258000 0.106527 -167.4 0.994093 -78.70 0.994093 -78.70 0.106527 -170.2
8.79259000 0.106639 -167.4 0.994081 -78.71 0.994081 -78.71 0.106639 -170.2
8.79260000 0.106751 -167.5 0.994068 -78.71 0.994068 -78.71 0.106751 -170.2
8.79261000 0.106863 -167.5 0.994056 -78.72 0.994056 -78.72 0.106863 -170.2
8.79262000 0.106976 -167.5 0.994043 -78.73 0.994043 -78.73 0.106976 -170.2
8.79263000 0.107089 -167.5 0.994031 -78.73 0.994031 -78.73 0.107089 -170.2
8.79264000 0.107202 -167.5 0.994018 -78.74 0.994018 -78.74 0.107202 -170.2
8.79265000 0.107315 -167.5 0.994006 -78.75 0.994006 -78.75 0.107315 -170.2
8.79266000 0.107428 -167.5 0.993993 -78.75 0.993993 -78.75 0.107428 -170.2
8.79267000 0.107542 -167.5 0.993980 -78.76 0.993980 -78.76 0.107542 -170.2
8.79268000 0.107656 -167.5 0.993967 -78.77 0.993967 -78.77 0.107656 -170.2
8.79269000 0.107770 -167.5 0.993955 -78.77 0.993955 -78.77 0.107770 -170.3
8.79270000 0.107884 -167.5 0.993942 -78.78 0.993942 -78.78 0.107884 -170.3
8.79271000 0.107999 -167.5 0.993929 -78.79 0.993929 -78.79 0.107999 -170.3
8.79272000 0.108114 -167.5 0.993916 -78.79 0.993916 -78.79 0.108114 -170.3
8.79273000 0.108229 -167.5 0.993903 -78.80 0.993903 -78.80 0.108229 -170.3
8.79274000 0.108344 -167.6 0.993890 -78.81 0.993890 -78.81 0.108344 -170.3
8.79275000 0.108459 -167.6 0.993877 -78.81 0.993877 -78.81 0.108459 -170.3
8.79276000 0.108575 -167.6 0.993864 -78.82 0.993864 -78.82 0.108575 -170.3
8.79277000 0.108691 -167.6 0.993851 -78.83 0.993851 -78.83 0.108691 -170.3
8.79278000 0.108807 -167.6 0.993838 -78.83 0.993838 -78.83 0.108807 -170.3
8.79279000 0.108924 -167.6 0.993825 -78.84 0.993825 -78.84 0.108923 -170.3
8.79280000 0.109040 -167.6 0.993811 -78.85 0.993811 -78.85 0.109040 -170.3
8.79281000 0.109157 -167.6 0.993798 -78.85 0.993798 -78.85 0.109157 -170.3
8.79282000 0.109274 -167.6 0.993785 -78.86 0.993785 -78.86 0.109274 -170.3
8.79283000 0.109391 -167.6 0.993772 -78.87 0.993772 -78.87 0.109391 -170.3
8.79284000 0.109509 -167.6 0.993758 -78.87 0.993758 -78.87 0.109509 -170.4
8.79285000 0.109627 -167.6 0.993745 -78.88 0.993745 -78.88 0.109626 -170.4
8.79286000 0.109745 -167.6 0.993731 -78.89 0.993731 -78.89 0.109744 -170.4
8.79287000 0.109863 -167.6 0.993718 -78.89 0.993718 -78.89 0.109863 -170.4
8.79288000 0.109981 -167.6 0.993704 -78.90 0.993704 -78.90 0.109981 -170.4
8.79289000 0.110100 -167.7 0.993691 -78.91 0.993691 -78.91 0.110100 -170.4
8.79290000 0.110219 -167.7 0.993677 -78.91 0.993677 -78.91 0.110219 -170.4
8.79291000 0.110338 -167.7 0.993663 -78.92 0.993663 -78.92 0.110338 -170.4
8.79292000 0.110457 -167.7 0.993650 -78.93 0.993650 -78.93 0.110457 -170.4
8.79293000 0.110577 -167.7 0.993636 -78.94 0.993636 -78.94 0.110577 -170.4
8.79294000 0.110697 -167.7 0.993622 -78.94 0.993622 -78.94 0.110697 -170.4
8.79295000 0.110817 -167.7 0.993608 -78.95 0.993608 -78.95 0.110817 -170.4
8.79296000 0.110937 -167.7 0.993594 -78.96 0.993594 -78.96 0.110937 -170.4
8.79297000 0.111058 -167.7 0.993580 -78.96 0.993580 -78.96 0.111058 -170.4
8.79298000 0.111179 -167.7 0.993566 -78.97 0.993566 -78.97 0.111179 -170.5
8.79299000 0.111300 -167.7 0.993552 -78.98 0.993552 -78.98 0.111300 -170.5
8.79300000 0.111421 -167.7 0.993538 -78.98 0.993538 -78.98 0.111421 -170.5
8.79301000 0.111543 -167.7 0.993524 -78.99 0.993524 -78.99 0.111543 -170.5
8.79302000 0.111665 -167.7 0.993510 -79.00 0.993510 -79.00 0.111665 -170.5
8.79303000 0.111787 -167.8 0.993496 -79.01 0.993496 -79.01 0.111787 -170.5
8.79304000 0.111909 -167.8 0.993482 -79.01 0.993482 -79.01 0.111909 -170.5
8.79305000 0.112032 -167.8 0.993467 -79.02 0.993467 -79.02 0.112032 -170.5
8.79306000 0.112155 -167.8 0.993453 -79.03 0.993453 -79.03 0.112154 -170.5
8.79307000 0.112278 -167.8 0.993439 -79.03 0.993439 -79.03 0.112278 -170.5
8.79308000 0.112401 -167.8 0.993424 -79.04 0.993424 -79.04 0.112401 -170.5
8.79309000 0.112525 -167.8 0.993410 -79.05 0.993410 -79.05 0.112524 -170.5
8.79310000 0.112648 -167.8 0.993395 -79.06 0.993395 -79.06 0.112648 -170.5
8.79311000 0.112772 -167.8 0.993381 -79.06 0.993381 -79.06 0.112772 -170.5
8.79312000 0.112897 -167.8 0.993366 -79.07 0.993366 -79.07 0.112897 -170.6
8.79313000 0.113021 -167.8 0.993351 -79.08 0.993351 -79.08 0.113021 -170.6
8.79314000 0.113146 -167.8 0.993337 -79.09 0.993337 -79.09 0.113146 -170.6
8.79315000 0.113271 -167.8 0.993322 -79.09 0.993322 -79.09 0.113271 -170.6
8.79316000 0.113397 -167.8 0.993307 -79.10 0.993307 -79.10 0.113397 -170.6
8.79317000 0.113522 -167.9 0.993292 -79.11 0.993292 -79.11 0.113522 -170.6
8.79318000 0.113648 -167.9 0.993277 -79.11 0.993277 -79.11 0.113648 -170.6
8.79319000 0.113774 -167.9 0.993263 -79.12 0.993263 -79.12 0.113774 -170.6
8.79320000 0.113901 -167.9 0.993248 -79.13 0.993248 -79.13 0.113900 -170.6
8.79321000 0.114027 -167.9 0.993233 -79.14 0.993233 -79.14 0.114027 -170.6
8.79322000 0.114154 -167.9 0.993218 -79.14 0.993218 -79.14 0.114154 -170.6
8.79323000 0.114281 -167.9 0.993202 -79.15 0.993202 -79.15 0.114281 -170.6
8.79324000 0.114409 -167.9 0.993187 -79.16 0.993187 -79.16 0.114409 -170.6
8.79325000 0.114536 -167.9 0.993172 -79.17 0.993172 -79.17 0.114536 -170.7
8.79326000 0.114664 -167.9 0.993157 -79.17 0.993157 -79.17 0.114664 -170.7
8.79327000 0.114793 -167.9 0.993141 -79.18 0.993141 -79.18 0.114792 -170.7
8.79328000 0.114921 -167.9 0.993126 -79.19 0.993126 -79.19 0.114921 -170.7
8.79329000 0.115050 -167.9 0.993111 -79.20 0.993111 -79.20 0.115050 -170.7
8.79330000 0.115179 -168.0 0.993095 -79.20 0.993095 -79.20 0.115179 -170.7
8.79331000 0.115308 -168.0 0.993080 -79.21 0.993080 -79.21 0.115308 -170.7
8.79332000 0.115438 -168.0 0.993064 -79.22 0.993064 -79.22 0.115438 -170.7
8.79333000 0.115567 -168.0 0.993049 -79.23 0.993049 -79.23 0.115567 -170.7
8.79334000 0.115698 -168.0 0.993033 -79.23 0.993033 -79.23 0.115697 -170.7
8.79335000 0.115828 -168.0 0.993017 -79.24 0.993017 -79.24 0.115828 -170.7
8.79336000 0.115959 -168.0 0.993001 -79.25 0.993001 -79.25 0.115958 -170.7
8.79337000 0.116090 -168.0 0.992986 -79.26 0.992986 -79.26 0.116089 -170.7
8.79338000 0.116221 -168.0 0.992970 -79.26 0.992970 -79.26 0.116221 -170.8
8.79339000 0.116352 -168.0 0.992954 -79.27 0.992954 -79.27 0.116352 -170.8
8.79340000 0.116484 -168.0 0.992938 -79.28 0.992938 -79.28 0.116484 -170.8
8.79341000 0.116616 -168.0 0.992922 -79.29 0.992922 -79.29 0.116616 -170.8
8.79342000 0.116748 -168.0 0.992906 -79.30 0.992906 -79.30 0.116748 -170.8
8.79343000 0.116881 -168.1 0.992890 -79.30 0.992890 -79.30 0.116881 -170.8
8.79344000 0.117014 -168.1 0.992873 -79.31 0.992873 -79.31 0.117013 -170.8
8.79345000 0.117147 -168.1 0.992857 -79.32 0.992857 -79.32 0.117147 -170.8
8.79346000 0.117280 -168.1 0.992841 -79.33 0.992841 -79.33 0.117280 -170.8
8.79347000 0.117414 -168.1 0.992825 -79.33 0.992825 -79.33 0.117414 -170.8
8.79348000 0.117548 -168.1 0.992808 -79.34 0.992808 -79.34 0.117548 -170.8
8.79349000 0.117682 -168.1 0.992792 -79.35 0.992792 -79.35 0.117682 -170.8
8.79350000 0.117817 -168.1 0.992775 -79.36 0.992775 -79.36 0.117816 -170.8
8.79351000 0.117951 -168.1 0.992759 -79.37 0.992759 -79.37 0.117951 -170.9
8.79352000 0.118087 -168.1 0.992742 -79.37 0.992742 -79.37 0.118086 -170.9
8.79353000 0.118222 -168.1 0.992725 -79.38 0.992725 -79.38 0.118222 -170.9
8.79354000 0.118358 -168.1 0.992709 -79.39 0.992709 -79.39 0.118358 -170.9
8.79355000 0.118494 -168.2 0.992692 -79.40 0.992692 -79.40 0.118493 -170.9
8.79356000 0.118630 -168.2 0.992675 -79.41 0.992675 -79.41 0.118630 -170.9
8.79357000 0.118766 -168.2 0.992658 -79.41 0.992658 -79.41 0.118766 -170.9
8.79358000 0.118903 -168.2 0.992641 -79.42 0.992641 -79.42 0.118903 -170.9
8.79359000 0.119040 -168.2 0.992624 -79.43 0.992624 -79.43 0.119040 -170.9
8.79360000 0.119178 -168.2 0.992607 -79.44 0.992607 -79.44 0.119178 -170.9
8.79361000 0.119316 -168.2 0.992590 -79.45 0.992590 -79.45 0.119315 -170.9
8.79362000 0.119454 -168.2 0.992573 -79.45 0.992573 -79.45 0.119454 -170.9
8.79363000 0.119592 -168.2 0.992556 -79.46 0.992556 -79.46 0.119592 -171.0
8.79364000 0.119731 -168.2 0.992538 -79.47 0.992538 -79.47 0.119730 -171.0
8.79365000 0.119870 -168.2 0.992521 -79.48 0.992521 -79.48 0.119869 -171.0
8.79366000 0.120009 -168.2 0.992504 -79.49 0.992504 -79.49 0.120009 -171.0
8.79367000 0.120148 -168.3 0.992486 -79.49 0.992486 -79.49 0.120148 -171.0
8.79368000 0.120288 -168.3 0.992469 -79.50 0.992469 -79.50 0.120288 -171.0
8.79369000 0.120428 -168.3 0.992451 -79.51 0.992451 -79.51 0.120428 -171.0
8.79370000 0.120569 -168.3 0.992434 -79.52 0.992434 -79.52 0.120568 -171.0
8.79371000 0.120709 -168.3 0.992416 -79.53 0.992416 -79.53 0.120709 -171.0
8.79372000 0.120850 -168.3 0.992398 -79.53 0.992398 -79.53 0.120850 -171.0
8.79373000 0.120992 -168.3 0.992380 -79.54 0.992380 -79.54 0.120992 -171.0
8.79374000 0.121133 -168.3 0.992362 -79.55 0.992362 -79.55 0.121133 -171.0
8.79375000 0.121275 -168.3 0.992345 -79.56 0.992345 -79.56 0.121275 -171.1
8.79376000 0.121418 -168.3 0.992327 -79.57 0.992327 -79.57 0.121417 -171.1
8.79377000 0.121560 -168.3 0.992309 -79.58 0.992309 -79.58 0.121560 -171.1
8.79378000 0.121703 -168.3 0.992290 -79.58 0.992290 -79.58 0.121703 -171.1
8.79379000 0.121846 -168.4 0.992272 -79.59 0.992272 -79.59 0.121846 -171.1
8.79380000 0.121990 -168.4 0.992254 -79.60 0.992254 -79.60 0.121990 -171.1
8.79381000 0.122134 -168.4 0.992236 -79.61 0.992236 -79.61 0.122133 -171.1
8.79382000 0.122278 -168.4 0.992217 -79.62 0.992217 -79.62 0.122278 -171.1
8.79383000 0.122422 -168.4 0.992199 -79.63 0.992199 -79.63 0.122422 -171.1
8.79384000 0.122567 -168.4 0.992181 -79.63 0.992181 -79.63 0.122567 -171.1
8.79385000 0.122712 -168.4 0.992162 -79.64 0.992162 -79.64 0.122712 -171.1
8.79386000 0.122857 -168.4 0.992143 -79.65 0.992143 -79.65 0.122857 -171.1
8.79387000 0.123003 -168.4 0.992125 -79.66 0.992125 -79.66 0.123003 -171.2
8.79388000 0.123149 -168.4 0.992106 -79.67 0.992106 -79.67 0.123149 -171.2
8.79389000 0.123296 -168.4 0.992087 -79.68 0.992087 -79.68 0.123296 -171.2
8.79390000 0.123442 -168.4 0.992068 -79.69 0.992068 -79.69 0.123442 -171.2
8.79391000 0.123589 -168.5 0.992049 -79.69 0.992049 -79.69 0.123589 -171.2
8.79392000 0.123737 -168.5 0.992030 -79.70 0.992030 -79.70 0.123737 -171.2