! Sonnet Data File
! From: emgraph Version : 16.52
! From Project: Qubit_Xmon2
! Data is De-embedded 
! Data File Written: 10/18/2017 10:22:27
!< HDATE 10/18/2017 09:13:04
!< MDATE 10/18/2017 09:13:04
!< PARAMS
!< Lj = 11.0
!< Gap = 16.0
!< Pwid = 2000.0
!< Airgap = 6.0
!< Width = 10.0
!< END PARAMS
# GHZ S MA R 34.60000
8.79000000 0.097038 -167.1 0.995120 -78.30 0.995120 -78.30 0.097038 -169.6
!< P1 F=8.79 Eeff=(5.1373841 -5.7056e-5) Z0=(34.640405 -9.7526e-5) R=0.0 C=0.0 
!< P2 F=8.79 Eeff=(5.1373841 -5.7056e-5) Z0=(34.640405 -9.7526e-5) R=0.0 C=0.0 
8.79001000 0.097120 -167.1 0.995112 -78.31 0.995112 -78.31 0.097120 -169.6
8.79002000 0.097202 -167.1 0.995104 -78.31 0.995104 -78.31 0.097202 -169.7
8.79003000 0.097285 -167.2 0.995095 -78.32 0.995095 -78.32 0.097284 -169.7
8.79004000 0.097367 -167.2 0.995087 -78.32 0.995087 -78.32 0.097367 -169.7
8.79005000 0.097450 -167.2 0.995079 -78.33 0.995079 -78.33 0.097450 -169.7
8.79006000 0.097533 -167.2 0.995070 -78.33 0.995070 -78.33 0.097532 -169.7
8.79007000 0.097616 -167.2 0.995062 -78.34 0.995062 -78.34 0.097615 -169.7
8.79008000 0.097699 -167.2 0.995054 -78.34 0.995054 -78.34 0.097698 -169.7
8.79009000 0.097782 -167.2 0.995045 -78.35 0.995045 -78.35 0.097782 -169.7
8.79010000 0.097865 -167.2 0.995037 -78.35 0.995037 -78.35 0.097865 -169.7
8.79011000 0.097949 -167.2 0.995028 -78.36 0.995028 -78.36 0.097948 -169.7
8.79012000 0.098032 -167.2 0.995020 -78.36 0.995020 -78.36 0.098032 -169.7
8.79013000 0.098116 -167.2 0.995011 -78.36 0.995011 -78.36 0.098116 -169.7
8.79014000 0.098200 -167.2 0.995003 -78.37 0.995003 -78.37 0.098199 -169.7
8.79015000 0.098284 -167.2 0.994994 -78.37 0.994994 -78.37 0.098283 -169.7
8.79016000 0.098368 -167.2 0.994986 -78.38 0.994986 -78.38 0.098367 -169.7
8.79017000 0.098452 -167.2 0.994977 -78.38 0.994977 -78.38 0.098452 -169.7
8.79018000 0.098536 -167.2 0.994969 -78.39 0.994969 -78.39 0.098536 -169.7
8.79019000 0.098621 -167.2 0.994960 -78.39 0.994960 -78.39 0.098620 -169.7
8.79020000 0.098705 -167.2 0.994951 -78.40 0.994951 -78.40 0.098705 -169.7
8.79021000 0.098790 -167.2 0.994943 -78.40 0.994943 -78.40 0.098790 -169.7
8.79022000 0.098875 -167.2 0.994934 -78.41 0.994934 -78.41 0.098875 -169.8
8.79023000 0.098960 -167.3 0.994925 -78.41 0.994925 -78.41 0.098960 -169.8
8.79024000 0.099045 -167.3 0.994917 -78.42 0.994917 -78.42 0.099045 -169.8
8.79025000 0.099130 -167.3 0.994908 -78.42 0.994908 -78.42 0.099130 -169.8
8.79026000 0.099216 -167.3 0.994899 -78.43 0.994899 -78.43 0.099215 -169.8
8.79027000 0.099301 -167.3 0.994890 -78.43 0.994890 -78.43 0.099301 -169.8
8.79028000 0.099387 -167.3 0.994881 -78.44 0.994881 -78.44 0.099387 -169.8
8.79029000 0.099473 -167.3 0.994873 -78.44 0.994873 -78.44 0.099472 -169.8
8.79030000 0.099559 -167.3 0.994864 -78.45 0.994864 -78.45 0.099558 -169.8
8.79031000 0.099645 -167.3 0.994855 -78.45 0.994855 -78.45 0.099644 -169.8
8.79032000 0.099731 -167.3 0.994846 -78.46 0.994846 -78.46 0.099731 -169.8
8.79033000 0.099817 -167.3 0.994837 -78.46 0.994837 -78.46 0.099817 -169.8
8.79034000 0.099904 -167.3 0.994828 -78.47 0.994828 -78.47 0.099903 -169.8
8.79035000 0.099990 -167.3 0.994819 -78.47 0.994819 -78.47 0.099990 -169.8
8.79036000 0.100077 -167.3 0.994810 -78.48 0.994810 -78.48 0.100077 -169.8
8.79037000 0.100164 -167.3 0.994801 -78.48 0.994801 -78.48 0.100164 -169.8
8.79038000 0.100251 -167.3 0.994792 -78.49 0.994792 -78.49 0.100251 -169.8
8.79039000 0.100338 -167.3 0.994783 -78.49 0.994783 -78.49 0.100338 -169.8
8.79040000 0.100425 -167.3 0.994774 -78.50 0.994774 -78.50 0.100425 -169.8
8.79041000 0.100513 -167.3 0.994765 -78.51 0.994765 -78.51 0.100512 -169.9
8.79042000 0.100600 -167.3 0.994756 -78.51 0.994756 -78.51 0.100600 -169.9
8.79043000 0.100688 -167.4 0.994747 -78.52 0.994747 -78.52 0.100688 -169.9
8.79044000 0.100776 -167.4 0.994738 -78.52 0.994738 -78.52 0.100775 -169.9
8.79045000 0.100864 -167.4 0.994728 -78.53 0.994728 -78.53 0.100863 -169.9
8.79046000 0.100952 -167.4 0.994719 -78.53 0.994719 -78.53 0.100952 -169.9
8.79047000 0.101040 -167.4 0.994710 -78.54 0.994710 -78.54 0.101040 -169.9
8.79048000 0.101129 -167.4 0.994701 -78.54 0.994701 -78.54 0.101128 -169.9
8.79049000 0.101217 -167.4 0.994692 -78.55 0.994692 -78.55 0.101217 -169.9
8.79050000 0.101306 -167.4 0.994682 -78.55 0.994682 -78.55 0.101305 -169.9
8.79051000 0.101395 -167.4 0.994673 -78.56 0.994673 -78.56 0.101394 -169.9
8.79052000 0.101484 -167.4 0.994664 -78.56 0.994664 -78.56 0.101483 -169.9
8.79053000 0.101573 -167.4 0.994654 -78.57 0.994654 -78.57 0.101572 -169.9
8.79054000 0.101662 -167.4 0.994645 -78.57 0.994645 -78.57 0.101661 -169.9
8.79055000 0.101751 -167.4 0.994635 -78.58 0.994635 -78.58 0.101751 -169.9
8.79056000 0.101841 -167.4 0.994626 -78.58 0.994626 -78.58 0.101840 -169.9
8.79057000 0.101930 -167.4 0.994617 -78.59 0.994617 -78.59 0.101930 -169.9
8.79058000 0.102020 -167.4 0.994607 -78.59 0.994607 -78.59 0.102020 -169.9
8.79059000 0.102110 -167.4 0.994598 -78.60 0.994598 -78.60 0.102110 -169.9
8.79060000 0.102200 -167.4 0.994588 -78.60 0.994588 -78.60 0.102200 -170.0
8.79061000 0.102291 -167.4 0.994579 -78.61 0.994579 -78.61 0.102290 -170.0
8.79062000 0.102381 -167.5 0.994569 -78.61 0.994569 -78.61 0.102380 -170.0
8.79063000 0.102471 -167.5 0.994559 -78.62 0.994559 -78.62 0.102471 -170.0
8.79064000 0.102562 -167.5 0.994550 -78.63 0.994550 -78.63 0.102562 -170.0
8.79065000 0.102653 -167.5 0.994540 -78.63 0.994540 -78.63 0.102653 -170.0
8.79066000 0.102744 -167.5 0.994530 -78.64 0.994530 -78.64 0.102743 -170.0
8.79067000 0.102835 -167.5 0.994521 -78.64 0.994521 -78.64 0.102835 -170.0
8.79068000 0.102926 -167.5 0.994511 -78.65 0.994511 -78.65 0.102926 -170.0
8.79069000 0.103018 -167.5 0.994501 -78.65 0.994501 -78.65 0.103017 -170.0
8.79070000 0.103109 -167.5 0.994491 -78.66 0.994491 -78.66 0.103109 -170.0
8.79071000 0.103201 -167.5 0.994482 -78.66 0.994482 -78.66 0.103200 -170.0
8.79072000 0.103293 -167.5 0.994472 -78.67 0.994472 -78.67 0.103292 -170.0
8.79073000 0.103385 -167.5 0.994462 -78.67 0.994462 -78.67 0.103384 -170.0
8.79074000 0.103477 -167.5 0.994452 -78.68 0.994452 -78.68 0.103476 -170.0
8.79075000 0.103569 -167.5 0.994442 -78.68 0.994442 -78.68 0.103569 -170.0
8.79076000 0.103662 -167.5 0.994432 -78.69 0.994432 -78.69 0.103661 -170.0
8.79077000 0.103754 -167.5 0.994422 -78.69 0.994422 -78.69 0.103754 -170.0
8.79078000 0.103847 -167.5 0.994412 -78.70 0.994412 -78.70 0.103846 -170.0
8.79079000 0.103940 -167.5 0.994403 -78.71 0.994403 -78.71 0.103939 -170.1
8.79080000 0.104033 -167.6 0.994392 -78.71 0.994392 -78.71 0.104032 -170.1
8.79081000 0.104126 -167.6 0.994382 -78.72 0.994382 -78.72 0.104126 -170.1
8.79082000 0.104219 -167.6 0.994372 -78.72 0.994372 -78.72 0.104219 -170.1
8.79083000 0.104313 -167.6 0.994362 -78.73 0.994362 -78.73 0.104312 -170.1
8.79084000 0.104406 -167.6 0.994352 -78.73 0.994352 -78.73 0.104406 -170.1
8.79085000 0.104500 -167.6 0.994342 -78.74 0.994342 -78.74 0.104500 -170.1
8.79086000 0.104594 -167.6 0.994332 -78.74 0.994332 -78.74 0.104594 -170.1
8.79087000 0.104688 -167.6 0.994322 -78.75 0.994322 -78.75 0.104688 -170.1
8.79088000 0.104783 -167.6 0.994311 -78.75 0.994311 -78.75 0.104782 -170.1
8.79089000 0.104877 -167.6 0.994301 -78.76 0.994301 -78.76 0.104877 -170.1
8.79090000 0.104972 -167.6 0.994291 -78.77 0.994291 -78.77 0.104971 -170.1
8.79091000 0.105066 -167.6 0.994281 -78.77 0.994281 -78.77 0.105066 -170.1
8.79092000 0.105161 -167.6 0.994270 -78.78 0.994270 -78.78 0.105161 -170.1
8.79093000 0.105256 -167.6 0.994260 -78.78 0.994260 -78.78 0.105256 -170.1
8.79094000 0.105351 -167.6 0.994250 -78.79 0.994250 -78.79 0.105351 -170.1
8.79095000 0.105447 -167.6 0.994239 -78.79 0.994239 -78.79 0.105446 -170.1
8.79096000 0.105542 -167.6 0.994229 -78.80 0.994229 -78.80 0.105542 -170.2
8.79097000 0.105638 -167.6 0.994218 -78.80 0.994218 -78.80 0.105637 -170.2
8.79098000 0.105734 -167.7 0.994208 -78.81 0.994208 -78.81 0.105733 -170.2
8.79099000 0.105830 -167.7 0.994197 -78.82 0.994197 -78.82 0.105829 -170.2
8.79100000 0.105926 -167.7 0.994187 -78.82 0.994187 -78.82 0.105925 -170.2
8.79101000 0.106022 -167.7 0.994176 -78.83 0.994176 -78.83 0.106022 -170.2
8.79102000 0.106119 -167.7 0.994166 -78.83 0.994166 -78.83 0.106118 -170.2
8.79103000 0.106215 -167.7 0.994155 -78.84 0.994155 -78.84 0.106215 -170.2
8.79104000 0.106312 -167.7 0.994144 -78.84 0.994144 -78.84 0.106311 -170.2
8.79105000 0.106409 -167.7 0.994134 -78.85 0.994134 -78.85 0.106408 -170.2
8.79106000 0.106506 -167.7 0.994123 -78.86 0.994123 -78.86 0.106505 -170.2
8.79107000 0.106603 -167.7 0.994112 -78.86 0.994112 -78.86 0.106603 -170.2
8.79108000 0.106701 -167.7 0.994102 -78.87 0.994102 -78.87 0.106700 -170.2
8.79109000 0.106798 -167.7 0.994091 -78.87 0.994091 -78.87 0.106798 -170.2
8.79110000 0.106896 -167.7 0.994080 -78.88 0.994080 -78.88 0.106895 -170.2
8.79111000 0.106994 -167.7 0.994069 -78.88 0.994069 -78.88 0.106993 -170.2
8.79112000 0.107092 -167.7 0.994058 -78.89 0.994058 -78.89 0.107091 -170.2
8.79113000 0.107190 -167.7 0.994047 -78.90 0.994047 -78.90 0.107190 -170.2
8.79114000 0.107288 -167.7 0.994036 -78.90 0.994036 -78.90 0.107288 -170.3
8.79115000 0.107387 -167.7 0.994025 -78.91 0.994025 -78.91 0.107387 -170.3
8.79116000 0.107486 -167.8 0.994014 -78.91 0.994014 -78.91 0.107485 -170.3
8.79117000 0.107585 -167.8 0.994003 -78.92 0.994003 -78.92 0.107584 -170.3
8.79118000 0.107684 -167.8 0.993992 -78.92 0.993992 -78.92 0.107683 -170.3
8.79119000 0.107783 -167.8 0.993981 -78.93 0.993981 -78.93 0.107782 -170.3
8.79120000 0.107882 -167.8 0.993970 -78.94 0.993970 -78.94 0.107882 -170.3
8.79121000 0.107982 -167.8 0.993959 -78.94 0.993959 -78.94 0.107981 -170.3
8.79122000 0.108081 -167.8 0.993948 -78.95 0.993948 -78.95 0.108081 -170.3
8.79123000 0.108181 -167.8 0.993937 -78.95 0.993937 -78.95 0.108181 -170.3
8.79124000 0.108281 -167.8 0.993926 -78.96 0.993926 -78.96 0.108281 -170.3
8.79125000 0.108382 -167.8 0.993914 -78.97 0.993914 -78.97 0.108381 -170.3
8.79126000 0.108482 -167.8 0.993903 -78.97 0.993903 -78.97 0.108481 -170.3
8.79127000 0.108582 -167.8 0.993892 -78.98 0.993892 -78.98 0.108582 -170.3
8.79128000 0.108683 -167.8 0.993880 -78.98 0.993880 -78.98 0.108683 -170.3
8.79129000 0.108784 -167.8 0.993869 -78.99 0.993869 -78.99 0.108784 -170.3
8.79130000 0.108885 -167.8 0.993858 -78.99 0.993858 -78.99 0.108885 -170.4
8.79131000 0.108986 -167.8 0.993846 -79.00 0.993846 -79.00 0.108986 -170.4
8.79132000 0.109088 -167.8 0.993835 -79.01 0.993835 -79.01 0.109087 -170.4
8.79133000 0.109189 -167.9 0.993823 -79.01 0.993823 -79.01 0.109189 -170.4
8.79134000 0.109291 -167.9 0.993812 -79.02 0.993812 -79.02 0.109291 -170.4
8.79135000 0.109393 -167.9 0.993800 -79.02 0.993800 -79.02 0.109393 -170.4
8.79136000 0.109495 -167.9 0.993789 -79.03 0.993789 -79.03 0.109495 -170.4
8.79137000 0.109597 -167.9 0.993777 -79.04 0.993777 -79.04 0.109597 -170.4
8.79138000 0.109700 -167.9 0.993766 -79.04 0.993766 -79.04 0.109699 -170.4
8.79139000 0.109802 -167.9 0.993754 -79.05 0.993754 -79.05 0.109802 -170.4
8.79140000 0.109905 -167.9 0.993742 -79.05 0.993742 -79.05 0.109905 -170.4
8.79141000 0.110008 -167.9 0.993730 -79.06 0.993730 -79.06 0.110008 -170.4
8.79142000 0.110111 -167.9 0.993719 -79.07 0.993719 -79.07 0.110111 -170.4
8.79143000 0.110215 -167.9 0.993707 -79.07 0.993707 -79.07 0.110214 -170.4
8.79144000 0.110318 -167.9 0.993695 -79.08 0.993695 -79.08 0.110318 -170.4
8.79145000 0.110422 -167.9 0.993683 -79.08 0.993683 -79.08 0.110421 -170.4
8.79146000 0.110526 -167.9 0.993671 -79.09 0.993671 -79.09 0.110525 -170.4
8.79147000 0.110630 -167.9 0.993659 -79.10 0.993659 -79.10 0.110629 -170.5
8.79148000 0.110734 -167.9 0.993648 -79.10 0.993648 -79.10 0.110733 -170.5
8.79149000 0.110838 -168.0 0.993636 -79.11 0.993636 -79.11 0.110838 -170.5
8.79150000 0.110943 -168.0 0.993624 -79.12 0.993624 -79.12 0.110942 -170.5
8.79151000 0.111048 -168.0 0.993611 -79.12 0.993611 -79.12 0.111047 -170.5
8.79152000 0.111153 -168.0 0.993599 -79.13 0.993599 -79.13 0.111152 -170.5
8.79153000 0.111258 -168.0 0.993587 -79.13 0.993587 -79.13 0.111257 -170.5
8.79154000 0.111363 -168.0 0.993575 -79.14 0.993575 -79.14 0.111362 -170.5
8.79155000 0.111468 -168.0 0.993563 -79.15 0.993563 -79.15 0.111468 -170.5
8.79156000 0.111574 -168.0 0.993551 -79.15 0.993551 -79.15 0.111574 -170.5
8.79157000 0.111680 -168.0 0.993539 -79.16 0.993539 -79.16 0.111679 -170.5
8.79158000 0.111786 -168.0 0.993526 -79.16 0.993526 -79.16 0.111785 -170.5
8.79159000 0.111892 -168.0 0.993514 -79.17 0.993514 -79.17 0.111892 -170.5
8.79160000 0.111998 -168.0 0.993502 -79.18 0.993502 -79.18 0.111998 -170.5
8.79161000 0.112105 -168.0 0.993489 -79.18 0.993489 -79.18 0.112105 -170.5
8.79162000 0.112212 -168.0 0.993477 -79.19 0.993477 -79.19 0.112211 -170.5
8.79163000 0.112319 -168.0 0.993464 -79.20 0.993464 -79.20 0.112318 -170.6
8.79164000 0.112426 -168.0 0.993452 -79.20 0.993452 -79.20 0.112425 -170.6
8.79165000 0.112533 -168.1 0.993439 -79.21 0.993439 -79.21 0.112533 -170.6
8.79166000 0.112641 -168.1 0.993427 -79.21 0.993427 -79.21 0.112640 -170.6
8.79167000 0.112748 -168.1 0.993414 -79.22 0.993414 -79.22 0.112748 -170.6
8.79168000 0.112856 -168.1 0.993402 -79.23 0.993402 -79.23 0.112856 -170.6
8.79169000 0.112964 -168.1 0.993389 -79.23 0.993389 -79.23 0.112964 -170.6
8.79170000 0.113072 -168.1 0.993376 -79.24 0.993376 -79.24 0.113072 -170.6
8.79171000 0.113181 -168.1 0.993364 -79.25 0.993364 -79.25 0.113180 -170.6
8.79172000 0.113290 -168.1 0.993351 -79.25 0.993351 -79.25 0.113289 -170.6
8.79173000 0.113398 -168.1 0.993338 -79.26 0.993338 -79.26 0.113398 -170.6
8.79174000 0.113507 -168.1 0.993325 -79.26 0.993325 -79.26 0.113507 -170.6
8.79175000 0.113617 -168.1 0.993313 -79.27 0.993313 -79.27 0.113616 -170.6
8.79176000 0.113726 -168.1 0.993300 -79.28 0.993300 -79.28 0.113725 -170.6
8.79177000 0.113836 -168.1 0.993287 -79.28 0.993287 -79.28 0.113835 -170.6
8.79178000 0.113945 -168.1 0.993274 -79.29 0.993274 -79.29 0.113945 -170.7
8.79179000 0.114055 -168.1 0.993261 -79.30 0.993261 -79.30 0.114055 -170.7
8.79180000 0.114165 -168.1 0.993248 -79.30 0.993248 -79.30 0.114165 -170.7
8.79181000 0.114276 -168.2 0.993235 -79.31 0.993235 -79.31 0.114275 -170.7
8.79182000 0.114386 -168.2 0.993222 -79.32 0.993222 -79.32 0.114386 -170.7
8.79183000 0.114497 -168.2 0.993209 -79.32 0.993209 -79.32 0.114497 -170.7
8.79184000 0.114608 -168.2 0.993195 -79.33 0.993195 -79.33 0.114608 -170.7
8.79185000 0.114719 -168.2 0.993182 -79.34 0.993182 -79.34 0.114719 -170.7
8.79186000 0.114831 -168.2 0.993169 -79.34 0.993169 -79.34 0.114830 -170.7
8.79187000 0.114942 -168.2 0.993156 -79.35 0.993156 -79.35 0.114942 -170.7
8.79188000 0.115054 -168.2 0.993142 -79.36 0.993142 -79.36 0.115053 -170.7
8.79189000 0.115166 -168.2 0.993129 -79.36 0.993129 -79.36 0.115165 -170.7
8.79190000 0.115278 -168.2 0.993116 -79.37 0.993116 -79.37 0.115277 -170.7
8.79191000 0.115390 -168.2 0.993102 -79.37 0.993102 -79.37 0.115390 -170.7
8.79192000 0.115503 -168.2 0.993089 -79.38 0.993089 -79.38 0.115502 -170.7
8.79193000 0.115615 -168.2 0.993075 -79.39 0.993075 -79.39 0.115615 -170.8
8.79194000 0.115728 -168.2 0.993062 -79.39 0.993062 -79.39 0.115728 -170.8
8.79195000 0.115841 -168.2 0.993048 -79.40 0.993048 -79.40 0.115841 -170.8
8.79196000 0.115955 -168.3 0.993035 -79.41 0.993035 -79.41 0.115954 -170.8
8.79197000 0.116068 -168.3 0.993021 -79.41 0.993021 -79.41 0.116068 -170.8
8.79198000 0.116182 -168.3 0.993007 -79.42 0.993007 -79.42 0.116182 -170.8
8.79199000 0.116296 -168.3 0.992993 -79.43 0.992993 -79.43 0.116296 -170.8
8.79200000 0.116410 -168.3 0.992980 -79.43 0.992980 -79.43 0.116410 -170.8
8.79201000 0.116525 -168.3 0.992966 -79.44 0.992966 -79.44 0.116524 -170.8
8.79202000 0.116639 -168.3 0.992952 -79.45 0.992952 -79.45 0.116639 -170.8
8.79203000 0.116754 -168.3 0.992938 -79.45 0.992938 -79.45 0.116753 -170.8
8.79204000 0.116869 -168.3 0.992924 -79.46 0.992924 -79.46 0.116868 -170.8
8.79205000 0.116984 -168.3 0.992910 -79.47 0.992910 -79.47 0.116984 -170.8
8.79206000 0.117099 -168.3 0.992896 -79.47 0.992896 -79.47 0.117099 -170.8
8.79207000 0.117215 -168.3 0.992882 -79.48 0.992882 -79.48 0.117214 -170.8
8.79208000 0.117331 -168.3 0.992868 -79.49 0.992868 -79.49 0.117330 -170.9
8.79209000 0.117447 -168.3 0.992854 -79.50 0.992854 -79.50 0.117446 -170.9
8.79210000 0.117563 -168.3 0.992840 -79.50 0.992840 -79.50 0.117563 -170.9
8.79211000 0.117679 -168.4 0.992826 -79.51 0.992826 -79.51 0.117679 -170.9
8.79212000 0.117796 -168.4 0.992812 -79.52 0.992812 -79.52 0.117796 -170.9
8.79213000 0.117913 -168.4 0.992797 -79.52 0.992797 -79.52 0.117912 -170.9
8.79214000 0.118030 -168.4 0.992783 -79.53 0.992783 -79.53 0.118030 -170.9
8.79215000 0.118147 -168.4 0.992769 -79.54 0.992769 -79.54 0.118147 -170.9
8.79216000 0.118265 -168.4 0.992754 -79.54 0.992754 -79.54 0.118264 -170.9
8.79217000 0.118382 -168.4 0.992740 -79.55 0.992740 -79.55 0.118382 -170.9
8.79218000 0.118500 -168.4 0.992725 -79.56 0.992725 -79.56 0.118500 -170.9
8.79219000 0.118619 -168.4 0.992711 -79.56 0.992711 -79.56 0.118618 -170.9
8.79220000 0.118737 -168.4 0.992696 -79.57 0.992696 -79.57 0.118736 -170.9
8.79221000 0.118855 -168.4 0.992682 -79.58 0.992682 -79.58 0.118855 -170.9
8.79222000 0.118974 -168.4 0.992667 -79.58 0.992667 -79.58 0.118974 -171.0
8.79223000 0.119093 -168.4 0.992652 -79.59 0.992652 -79.59 0.119093 -171.0
8.79224000 0.119212 -168.4 0.992638 -79.60 0.992638 -79.60 0.119212 -171.0
8.79225000 0.119332 -168.5 0.992623 -79.61 0.992623 -79.61 0.119331 -171.0
8.79226000 0.119452 -168.5 0.992608 -79.61 0.992608 -79.61 0.119451 -171.0
8.79227000 0.119571 -168.5 0.992593 -79.62 0.992593 -79.62 0.119571 -171.0
8.79228000 0.119691 -168.5 0.992578 -79.63 0.992578 -79.63 0.119691 -171.0
8.79229000 0.119812 -168.5 0.992563 -79.63 0.992563 -79.63 0.119811 -171.0
8.79230000 0.119932 -168.5 0.992548 -79.64 0.992548 -79.64 0.119932 -171.0
8.79231000 0.120053 -168.5 0.992533 -79.65 0.992533 -79.65 0.120053 -171.0
8.79232000 0.120174 -168.5 0.992518 -79.65 0.992518 -79.65 0.120174 -171.0
8.79233000 0.120295 -168.5 0.992503 -79.66 0.992503 -79.66 0.120295 -171.0
8.79234000 0.120417 -168.5 0.992488 -79.67 0.992488 -79.67 0.120416 -171.0
8.79235000 0.120538 -168.5 0.992473 -79.68 0.992473 -79.68 0.120538 -171.0
8.79236000 0.120660 -168.5 0.992458 -79.68 0.992458 -79.68 0.120660 -171.1
8.79237000 0.120782 -168.5 0.992442 -79.69 0.992442 -79.69 0.120782 -171.1
8.79238000 0.120905 -168.5 0.992427 -79.70 0.992427 -79.70 0.120904 -171.1
8.79239000 0.121027 -168.6 0.992412 -79.70 0.992412 -79.70 0.121027 -171.1
8.79240000 0.121150 -168.6 0.992396 -79.71 0.992396 -79.71 0.121150 -171.1
8.79241000 0.121273 -168.6 0.992381 -79.72 0.992381 -79.72 0.121273 -171.1
8.79242000 0.121396 -168.6 0.992365 -79.73 0.992365 -79.73 0.121396 -171.1
8.79243000 0.121520 -168.6 0.992350 -79.73 0.992350 -79.73 0.121519 -171.1
8.79244000 0.121643 -168.6 0.992334 -79.74 0.992334 -79.74 0.121643 -171.1
8.79245000 0.121767 -168.6 0.992318 -79.75 0.992318 -79.75 0.121767 -171.1
8.79246000 0.121892 -168.6 0.992303 -79.75 0.992303 -79.75 0.121891 -171.1
8.79247000 0.122016 -168.6 0.992287 -79.76 0.992287 -79.76 0.122015 -171.1
8.79248000 0.122141 -168.6 0.992271 -79.77 0.992271 -79.77 0.122140 -171.1
8.79249000 0.122265 -168.6 0.992255 -79.78 0.992255 -79.78 0.122265 -171.1
8.79250000 0.122391 -168.6 0.992240 -79.78 0.992240 -79.78 0.122390 -171.2
8.79251000 0.122516 -168.6 0.992224 -79.79 0.992224 -79.79 0.122515 -171.2
8.79252000 0.122641 -168.6 0.992208 -79.80 0.992208 -79.80 0.122641 -171.2
8.79253000 0.122767 -168.7 0.992192 -79.81 0.992192 -79.81 0.122767 -171.2
8.79254000 0.122893 -168.7 0.992176 -79.81 0.992176 -79.81 0.122893 -171.2
8.79255000 0.123020 -168.7 0.992160 -79.82 0.992160 -79.82 0.123019 -171.2
8.79256000 0.123146 -168.7 0.992143 -79.83 0.992143 -79.83 0.123146 -171.2
8.79257000 0.123273 -168.7 0.992127 -79.84 0.992127 -79.84 0.123272 -171.2
8.79258000 0.123400 -168.7 0.992111 -79.84 0.992111 -79.84 0.123399 -171.2
8.79259000 0.123527 -168.7 0.992095 -79.85 0.992095 -79.85 0.123527 -171.2
8.79260000 0.123655 -168.7 0.992078 -79.86 0.992078 -79.86 0.123654 -171.2
8.79261000 0.123782 -168.7 0.992062 -79.87 0.992062 -79.87 0.123782 -171.2
8.79262000 0.123910 -168.7 0.992046 -79.87 0.992046 -79.87 0.123910 -171.2
8.79263000 0.124038 -168.7 0.992029 -79.88 0.992029 -79.88 0.124038 -171.3
8.79264000 0.124167 -168.7 0.992013 -79.89 0.992013 -79.89 0.124166 -171.3
8.79265000 0.124296 -168.7 0.991996 -79.90 0.991996 -79.90 0.124295 -171.3
8.79266000 0.124425 -168.7 0.991979 -79.90 0.991979 -79.90 0.124424 -171.3
8.79267000 0.124554 -168.8 0.991963 -79.91 0.991963 -79.91 0.124553 -171.3
8.79268000 0.124683 -168.8 0.991946 -79.92 0.991946 -79.92 0.124683 -171.3
8.79269000 0.124813 -168.8 0.991929 -79.93 0.991929 -79.93 0.124812 -171.3
8.79270000 0.124943 -168.8 0.991912 -79.93 0.991912 -79.93 0.124942 -171.3
8.79271000 0.125073 -168.8 0.991895 -79.94 0.991895 -79.94 0.125072 -171.3
8.79272000 0.125203 -168.8 0.991878 -79.95 0.991878 -79.95 0.125203 -171.3
8.79273000 0.125334 -168.8 0.991862 -79.96 0.991862 -79.96 0.125333 -171.3
8.79274000 0.125465 -168.8 0.991844 -79.96 0.991844 -79.96 0.125464 -171.3
8.79275000 0.125596 -168.8 0.991827 -79.97 0.991827 -79.97 0.125596 -171.3
8.79276000 0.125727 -168.8 0.991810 -79.98 0.991810 -79.98 0.125727 -171.4
8.79277000 0.125859 -168.8 0.991793 -79.99 0.991793 -79.99 0.125859 -171.4
8.79278000 0.125991 -168.8 0.991776 -79.99 0.991776 -79.99 0.125991 -171.4
8.79279000 0.126123 -168.8 0.991759 -80.00 0.991759 -80.00 0.126123 -171.4
8.79280000 0.126256 -168.9 0.991741 -80.01 0.991741 -80.01 0.126255 -171.4
8.79281000 0.126388 -168.9 0.991724 -80.02 0.991724 -80.02 0.126388 -171.4
8.79282000 0.126521 -168.9 0.991706 -80.03 0.991706 -80.03 0.126521 -171.4
8.79283000 0.126655 -168.9 0.991689 -80.03 0.991689 -80.03 0.126654 -171.4
8.79284000 0.126788 -168.9 0.991671 -80.04 0.991671 -80.04 0.126788 -171.4
8.79285000 0.126922 -168.9 0.991654 -80.05 0.991654 -80.05 0.126921 -171.4
8.79286000 0.127056 -168.9 0.991636 -80.06 0.991636 -80.06 0.127055 -171.4
8.79287000 0.127190 -168.9 0.991618 -80.06 0.991618 -80.06 0.127189 -171.4
8.79288000 0.127324 -168.9 0.991601 -80.07 0.991601 -80.07 0.127324 -171.4
8.79289000 0.127459 -168.9 0.991583 -80.08 0.991583 -80.08 0.127459 -171.5
8.79290000 0.127594 -168.9 0.991565 -80.09 0.991565 -80.09 0.127594 -171.5
8.79291000 0.127730 -168.9 0.991547 -80.10 0.991547 -80.10 0.127729 -171.5
8.79292000 0.127865 -169.0 0.991529 -80.10 0.991529 -80.10 0.127865 -171.5
8.79293000 0.128001 -169.0 0.991511 -80.11 0.991511 -80.11 0.128000 -171.5
8.79294000 0.128137 -169.0 0.991493 -80.12 0.991493 -80.12 0.128136 -171.5
8.79295000 0.128273 -169.0 0.991475 -80.13 0.991475 -80.13 0.128273 -171.5
8.79296000 0.128410 -169.0 0.991457 -80.14 0.991457 -80.14 0.128409 -171.5
8.79297000 0.128547 -169.0 0.991438 -80.14 0.991438 -80.14 0.128546 -171.5
8.79298000 0.128684 -169.0 0.991420 -80.15 0.991420 -80.15 0.128683 -171.5
8.79299000 0.128821 -169.0 0.991402 -80.16 0.991402 -80.16 0.128821 -171.5
8.79300000 0.128959 -169.0 0.991383 -80.17 0.991383 -80.17 0.128959 -171.5
8.79301000 0.129097 -169.0 0.991365 -80.18 0.991365 -80.18 0.129097 -171.6
8.79302000 0.129235 -169.0 0.991346 -80.18 0.991346 -80.18 0.129235 -171.6
8.79303000 0.129374 -169.0 0.991328 -80.19 0.991328 -80.19 0.129373 -171.6
8.79304000 0.129513 -169.0 0.991309 -80.20 0.991309 -80.20 0.129512 -171.6
8.79305000 0.129652 -169.1 0.991290 -80.21 0.991290 -80.21 0.129651 -171.6
8.79306000 0.129791 -169.1 0.991272 -80.22 0.991272 -80.22 0.129790 -171.6
8.79307000 0.129931 -169.1 0.991253 -80.22 0.991253 -80.22 0.129930 -171.6
8.79308000 0.130070 -169.1 0.991234 -80.23 0.991234 -80.23 0.130070 -171.6
8.79309000 0.130211 -169.1 0.991215 -80.24 0.991215 -80.24 0.130210 -171.6
8.79310000 0.130351 -169.1 0.991196 -80.25 0.991196 -80.25 0.130350 -171.6
8.79311000 0.130492 -169.1 0.991177 -80.26 0.991177 -80.26 0.130491 -171.6
8.79312000 0.130633 -169.1 0.991158 -80.27 0.991158 -80.27 0.130632 -171.6
8.79313000 0.130774 -169.1 0.991139 -80.27 0.991139 -80.27 0.130773 -171.7
8.79314000 0.130915 -169.1 0.991120 -80.28 0.991120 -80.28 0.130915 -171.7
8.79315000 0.131057 -169.1 0.991100 -80.29 0.991100 -80.29 0.131057 -171.7
8.79316000 0.131199 -169.1 0.991081 -80.30 0.991081 -80.30 0.131199 -171.7
8.79317000 0.131342 -169.2 0.991062 -80.31 0.991062 -80.31 0.131341 -171.7
8.79318000 0.131485 -169.2 0.991042 -80.31 0.991042 -80.31 0.131484 -171.7
8.79319000 0.131627 -169.2 0.991023 -80.32 0.991023 -80.32 0.131627 -171.7
8.79320000 0.131771 -169.2 0.991003 -80.33 0.991003 -80.33 0.131770 -171.7
8.79321000 0.131914 -169.2 0.990983 -80.34 0.990983 -80.34 0.131914 -171.7
8.79322000 0.132058 -169.2 0.990964 -80.35 0.990964 -80.35 0.132058 -171.7
8.79323000 0.132202 -169.2 0.990944 -80.36 0.990944 -80.36 0.132202 -171.7
8.79324000 0.132347 -169.2 0.990924 -80.37 0.990924 -80.37 0.132346 -171.7
8.79325000 0.132491 -169.2 0.990904 -80.37 0.990904 -80.37 0.132491 -171.8
8.79326000 0.132636 -169.2 0.990884 -80.38 0.990884 -80.38 0.132636 -171.8
8.79327000 0.132782 -169.2 0.990864 -80.39 0.990864 -80.39 0.132781 -171.8
8.79328000 0.132927 -169.3 0.990844 -80.40 0.990844 -80.40 0.132927 -171.8
8.79329000 0.133073 -169.3 0.990824 -80.41 0.990824 -80.41 0.133073 -171.8
8.79330000 0.133219 -169.3 0.990804 -80.42 0.990804 -80.42 0.133219 -171.8
8.79331000 0.133366 -169.3 0.990783 -80.42 0.990783 -80.42 0.133365 -171.8
8.79332000 0.133512 -169.3 0.990763 -80.43 0.990763 -80.43 0.133512 -171.8
8.79333000 0.133660 -169.3 0.990743 -80.44 0.990743 -80.44 0.133659 -171.8
8.79334000 0.133807 -169.3 0.990722 -80.45 0.990722 -80.45 0.133806 -171.8
8.79335000 0.133955 -169.3 0.990702 -80.46 0.990702 -80.46 0.133954 -171.8
8.79336000 0.134102 -169.3 0.990681 -80.47 0.990681 -80.47 0.134102 -171.9
8.79337000 0.134251 -169.3 0.990661 -80.48 0.990661 -80.48 0.134250 -171.9
8.79338000 0.134399 -169.3 0.990640 -80.48 0.990640 -80.48 0.134399 -171.9
8.79339000 0.134548 -169.3 0.990619 -80.49 0.990619 -80.49 0.134548 -171.9
8.79340000 0.134697 -169.4 0.990598 -80.50 0.990598 -80.50 0.134697 -171.9
8.79341000 0.134847 -169.4 0.990577 -80.51 0.990577 -80.51 0.134846 -171.9
8.79342000 0.134997 -169.4 0.990556 -80.52 0.990556 -80.52 0.134996 -171.9
8.79343000 0.135147 -169.4 0.990535 -80.53 0.990535 -80.53 0.135146 -171.9
8.79344000 0.135297 -169.4 0.990514 -80.54 0.990514 -80.54 0.135297 -171.9
8.79345000 0.135448 -169.4 0.990493 -80.55 0.990493 -80.55 0.135447 -171.9
8.79346000 0.135599 -169.4 0.990472 -80.55 0.990472 -80.55 0.135598 -171.9
8.79347000 0.135750 -169.4 0.990450 -80.56 0.990450 -80.56 0.135750 -171.9
8.79348000 0.135902 -169.4 0.990429 -80.57 0.990429 -80.57 0.135901 -172.0
8.79349000 0.136054 -169.4 0.990407 -80.58 0.990407 -80.58 0.136053 -172.0
8.79350000 0.136206 -169.4 0.990386 -80.59 0.990386 -80.59 0.136205 -172.0
8.79351000 0.136358 -169.5 0.990364 -80.60 0.990364 -80.60 0.136358 -172.0
8.79352000 0.136511 -169.5 0.990343 -80.61 0.990343 -80.61 0.136511 -172.0
8.79353000 0.136665 -169.5 0.990321 -80.62 0.990321 -80.62 0.136664 -172.0
8.79354000 0.136818 -169.5 0.990299 -80.63 0.990299 -80.63 0.136818 -172.0
8.79355000 0.136972 -169.5 0.990277 -80.64 0.990277 -80.64 0.136971 -172.0
8.79356000 0.137126 -169.5 0.990255 -80.64 0.990255 -80.64 0.137126 -172.0
8.79357000 0.137281 -169.5 0.990233 -80.65 0.990233 -80.65 0.137280 -172.0
8.79358000 0.137435 -169.5 0.990211 -80.66 0.990211 -80.66 0.137435 -172.0
8.79359000 0.137590 -169.5 0.990189 -80.67 0.990189 -80.67 0.137590 -172.1
8.79360000 0.137746 -169.5 0.990167 -80.68 0.990167 -80.68 0.137745 -172.1
8.79361000 0.137902 -169.5 0.990145 -80.69 0.990145 -80.69 0.137901 -172.1
8.79362000 0.138058 -169.6 0.990122 -80.70 0.990122 -80.70 0.138057 -172.1
8.79363000 0.138214 -169.6 0.990100 -80.71 0.990100 -80.71 0.138214 -172.1
8.79364000 0.138371 -169.6 0.990077 -80.72 0.990077 -80.72 0.138370 -172.1
8.79365000 0.138528 -169.6 0.990055 -80.73 0.990055 -80.73 0.138527 -172.1
8.79366000 0.138685 -169.6 0.990032 -80.74 0.990032 -80.74 0.138685 -172.1
8.79367000 0.138843 -169.6 0.990009 -80.74 0.990009 -80.74 0.138843 -172.1
8.79368000 0.139001 -169.6 0.989986 -80.75 0.989986 -80.75 0.139001 -172.1
8.79369000 0.139160 -169.6 0.989964 -80.76 0.989964 -80.76 0.139159 -172.2
8.79370000 0.139318 -169.6 0.989941 -80.77 0.989941 -80.77 0.139318 -172.2
8.79371000 0.139477 -169.6 0.989918 -80.78 0.989918 -80.78 0.139477 -172.2
8.79372000 0.139637 -169.6 0.989894 -80.79 0.989894 -80.79 0.139636 -172.2
8.79373000 0.139796 -169.7 0.989871 -80.80 0.989871 -80.80 0.139796 -172.2
8.79374000 0.139957 -169.7 0.989848 -80.81 0.989848 -80.81 0.139956 -172.2
8.79375000 0.140117 -169.7 0.989825 -80.82 0.989825 -80.82 0.140116 -172.2
8.79376000 0.140278 -169.7 0.989801 -80.83 0.989801 -80.83 0.140277 -172.2
8.79377000 0.140439 -169.7 0.989778 -80.84 0.989778 -80.84 0.140438 -172.2
8.79378000 0.140600 -169.7 0.989754 -80.85 0.989754 -80.85 0.140600 -172.2
8.79379000 0.140762 -169.7 0.989730 -80.86 0.989730 -80.86 0.140761 -172.2
8.79380000 0.140924 -169.7 0.989707 -80.87 0.989707 -80.87 0.140924 -172.3
8.79381000 0.141087 -169.7 0.989683 -80.88 0.989683 -80.88 0.141086 -172.3
8.79382000 0.141249 -169.7 0.989659 -80.88 0.989659 -80.88 0.141249 -172.3
8.79383000 0.141413 -169.8 0.989635 -80.89 0.989635 -80.89 0.141412 -172.3
8.79384000 0.141576 -169.8 0.989611 -80.90 0.989611 -80.90 0.141576 -172.3
8.79385000 0.141740 -169.8 0.989587 -80.91 0.989587 -80.91 0.141739 -172.3
8.79386000 0.141904 -169.8 0.989563 -80.92 0.989563 -80.92 0.141904 -172.3
8.79387000 0.142069 -169.8 0.989538 -80.93 0.989538 -80.93 0.142068 -172.3
8.79388000 0.142234 -169.8 0.989514 -80.94 0.989514 -80.94 0.142233 -172.3
8.79389000 0.142399 -169.8 0.989490 -80.95 0.989490 -80.95 0.142398 -172.3
8.79390000 0.142564 -169.8 0.989465 -80.96 0.989465 -80.96 0.142564 -172.4
8.79391000 0.142730 -169.8 0.989440 -80.97 0.989440 -80.97 0.142730 -172.4
8.79392000 0.142897 -169.8 0.989416 -80.98 0.989416 -80.98 0.142896 -172.4