! Sonnet Data File
! From: emgraph Version : 16.52
! From Project: Qubit_Xmon2
! Data is De-embedded 
! Data File Written: 10/18/2017 16:48:16
!< HDATE 10/18/2017 14:47:42
!< MDATE 10/18/2017 14:47:42
!< PARAMS
!< Lj = 11.0
!< Gap = 16.0
!< Pwid = 2000.0
!< Airgap = 30.0
!< Width = 50.0
!< END PARAMS
# GHZ S MA R 45.30000
8.79000000 0.078630 -162.8 0.996788 -74.01 0.996788 -74.01 0.078629 -165.4
!< P1 F=8.79 Eeff=(4.74953887 -6.4479e-5) Z0=(45.1259111 -2.0732e-4) R=0.0 C=0.0 
!< P2 F=8.79 Eeff=(4.74953887 -6.4479e-5) Z0=(45.1259111 -2.0732e-4) R=0.0 C=0.0 
8.79001000 0.078688 -162.8 0.996783 -74.02 0.996783 -74.02 0.078688 -165.4
8.79002000 0.078746 -162.8 0.996778 -74.02 0.996778 -74.02 0.078746 -165.4
8.79003000 0.078804 -162.8 0.996773 -74.02 0.996773 -74.02 0.078804 -165.4
8.79004000 0.078863 -162.8 0.996769 -74.03 0.996769 -74.03 0.078863 -165.4
8.79005000 0.078921 -162.8 0.996764 -74.03 0.996764 -74.03 0.078921 -165.4
8.79006000 0.078980 -162.8 0.996759 -74.03 0.996759 -74.03 0.078980 -165.4
8.79007000 0.079038 -162.8 0.996754 -74.04 0.996754 -74.04 0.079038 -165.4
8.79008000 0.079097 -162.8 0.996749 -74.04 0.996749 -74.04 0.079097 -165.4
8.79009000 0.079156 -162.8 0.996744 -74.04 0.996744 -74.04 0.079156 -165.4
8.79010000 0.079215 -162.8 0.996740 -74.05 0.996740 -74.05 0.079215 -165.4
8.79011000 0.079274 -162.8 0.996735 -74.05 0.996735 -74.05 0.079274 -165.4
8.79012000 0.079333 -162.8 0.996730 -74.05 0.996730 -74.05 0.079333 -165.4
8.79013000 0.079392 -162.8 0.996725 -74.06 0.996725 -74.06 0.079392 -165.4
8.79014000 0.079451 -162.8 0.996720 -74.06 0.996720 -74.06 0.079451 -165.4
8.79015000 0.079511 -162.8 0.996715 -74.06 0.996715 -74.06 0.079510 -165.4
8.79016000 0.079570 -162.9 0.996710 -74.07 0.996710 -74.07 0.079570 -165.4
8.79017000 0.079629 -162.9 0.996706 -74.07 0.996706 -74.07 0.079629 -165.4
8.79018000 0.079689 -162.9 0.996701 -74.07 0.996701 -74.07 0.079689 -165.4
8.79019000 0.079749 -162.9 0.996696 -74.08 0.996696 -74.08 0.079748 -165.4
8.79020000 0.079808 -162.9 0.996691 -74.08 0.996691 -74.08 0.079808 -165.5
8.79021000 0.079868 -162.9 0.996686 -74.09 0.996686 -74.09 0.079868 -165.5
8.79022000 0.079928 -162.9 0.996681 -74.09 0.996681 -74.09 0.079928 -165.5
8.79023000 0.079988 -162.9 0.996676 -74.09 0.996676 -74.09 0.079988 -165.5
8.79024000 0.080048 -162.9 0.996671 -74.10 0.996671 -74.10 0.080048 -165.5
8.79025000 0.080108 -162.9 0.996666 -74.10 0.996666 -74.10 0.080108 -165.5
8.79026000 0.080169 -162.9 0.996661 -74.10 0.996661 -74.10 0.080168 -165.5
8.79027000 0.080229 -162.9 0.996656 -74.11 0.996656 -74.11 0.080229 -165.5
8.79028000 0.080289 -162.9 0.996651 -74.11 0.996651 -74.11 0.080289 -165.5
8.79029000 0.080350 -162.9 0.996646 -74.11 0.996646 -74.11 0.080350 -165.5
8.79030000 0.080410 -162.9 0.996641 -74.12 0.996641 -74.12 0.080410 -165.5
8.79031000 0.080471 -162.9 0.996636 -74.12 0.996636 -74.12 0.080471 -165.5
8.79032000 0.080532 -162.9 0.996631 -74.12 0.996631 -74.12 0.080532 -165.5
8.79033000 0.080593 -162.9 0.996626 -74.13 0.996626 -74.13 0.080592 -165.5
8.79034000 0.080654 -162.9 0.996620 -74.13 0.996620 -74.13 0.080653 -165.5
8.79035000 0.080715 -162.9 0.996615 -74.14 0.996615 -74.14 0.080714 -165.5
8.79036000 0.080776 -162.9 0.996610 -74.14 0.996610 -74.14 0.080776 -165.5
8.79037000 0.080837 -162.9 0.996605 -74.14 0.996605 -74.14 0.080837 -165.5
8.79038000 0.080898 -162.9 0.996600 -74.15 0.996600 -74.15 0.080898 -165.5
8.79039000 0.080960 -162.9 0.996595 -74.15 0.996595 -74.15 0.080959 -165.5
8.79040000 0.081021 -162.9 0.996590 -74.15 0.996590 -74.15 0.081021 -165.5
8.79041000 0.081083 -162.9 0.996584 -74.16 0.996584 -74.16 0.081082 -165.5
8.79042000 0.081144 -162.9 0.996579 -74.16 0.996579 -74.16 0.081144 -165.5
8.79043000 0.081206 -163.0 0.996574 -74.16 0.996574 -74.16 0.081206 -165.5
8.79044000 0.081268 -163.0 0.996569 -74.17 0.996569 -74.17 0.081268 -165.5
8.79045000 0.081330 -163.0 0.996564 -74.17 0.996564 -74.17 0.081330 -165.5
8.79046000 0.081392 -163.0 0.996558 -74.17 0.996558 -74.17 0.081392 -165.5
8.79047000 0.081454 -163.0 0.996553 -74.18 0.996553 -74.18 0.081454 -165.5
8.79048000 0.081516 -163.0 0.996548 -74.18 0.996548 -74.18 0.081516 -165.6
8.79049000 0.081579 -163.0 0.996543 -74.19 0.996543 -74.19 0.081578 -165.6
8.79050000 0.081641 -163.0 0.996537 -74.19 0.996537 -74.19 0.081641 -165.6
8.79051000 0.081703 -163.0 0.996532 -74.19 0.996532 -74.19 0.081703 -165.6
8.79052000 0.081766 -163.0 0.996527 -74.20 0.996527 -74.20 0.081766 -165.6
8.79053000 0.081829 -163.0 0.996521 -74.20 0.996521 -74.20 0.081828 -165.6
8.79054000 0.081891 -163.0 0.996516 -74.20 0.996516 -74.20 0.081891 -165.6
8.79055000 0.081954 -163.0 0.996511 -74.21 0.996511 -74.21 0.081954 -165.6
8.79056000 0.082017 -163.0 0.996505 -74.21 0.996505 -74.21 0.082017 -165.6
8.79057000 0.082080 -163.0 0.996500 -74.22 0.996500 -74.22 0.082080 -165.6
8.79058000 0.082143 -163.0 0.996495 -74.22 0.996495 -74.22 0.082143 -165.6
8.79059000 0.082207 -163.0 0.996489 -74.22 0.996489 -74.22 0.082206 -165.6
8.79060000 0.082270 -163.0 0.996484 -74.23 0.996484 -74.23 0.082270 -165.6
8.79061000 0.082333 -163.0 0.996478 -74.23 0.996478 -74.23 0.082333 -165.6
8.79062000 0.082397 -163.0 0.996473 -74.23 0.996473 -74.23 0.082397 -165.6
8.79063000 0.082460 -163.0 0.996468 -74.24 0.996468 -74.24 0.082460 -165.6
8.79064000 0.082524 -163.0 0.996462 -74.24 0.996462 -74.24 0.082524 -165.6
8.79065000 0.082588 -163.0 0.996457 -74.25 0.996457 -74.25 0.082588 -165.6
8.79066000 0.082652 -163.0 0.996451 -74.25 0.996451 -74.25 0.082651 -165.6
8.79067000 0.082716 -163.0 0.996446 -74.25 0.996446 -74.25 0.082715 -165.6
8.79068000 0.082780 -163.0 0.996440 -74.26 0.996440 -74.26 0.082779 -165.6
8.79069000 0.082844 -163.0 0.996435 -74.26 0.996435 -74.26 0.082844 -165.6
8.79070000 0.082908 -163.1 0.996429 -74.26 0.996429 -74.26 0.082908 -165.6
8.79071000 0.082973 -163.1 0.996424 -74.27 0.996424 -74.27 0.082972 -165.6
8.79072000 0.083037 -163.1 0.996418 -74.27 0.996418 -74.27 0.083037 -165.6
8.79073000 0.083102 -163.1 0.996413 -74.28 0.996413 -74.28 0.083101 -165.6
8.79074000 0.083166 -163.1 0.996407 -74.28 0.996407 -74.28 0.083166 -165.7
8.79075000 0.083231 -163.1 0.996401 -74.28 0.996401 -74.28 0.083231 -165.7
8.79076000 0.083296 -163.1 0.996396 -74.29 0.996396 -74.29 0.083295 -165.7
8.79077000 0.083361 -163.1 0.996390 -74.29 0.996390 -74.29 0.083360 -165.7
8.79078000 0.083426 -163.1 0.996385 -74.29 0.996385 -74.29 0.083425 -165.7
8.79079000 0.083491 -163.1 0.996379 -74.30 0.996379 -74.30 0.083491 -165.7
8.79080000 0.083556 -163.1 0.996373 -74.30 0.996373 -74.30 0.083556 -165.7
8.79081000 0.083621 -163.1 0.996368 -74.31 0.996368 -74.31 0.083621 -165.7
8.79082000 0.083687 -163.1 0.996362 -74.31 0.996362 -74.31 0.083686 -165.7
8.79083000 0.083752 -163.1 0.996356 -74.31 0.996356 -74.31 0.083752 -165.7
8.79084000 0.083818 -163.1 0.996351 -74.32 0.996351 -74.32 0.083818 -165.7
8.79085000 0.083884 -163.1 0.996345 -74.32 0.996345 -74.32 0.083883 -165.7
8.79086000 0.083949 -163.1 0.996339 -74.33 0.996339 -74.33 0.083949 -165.7
8.79087000 0.084015 -163.1 0.996333 -74.33 0.996333 -74.33 0.084015 -165.7
8.79088000 0.084081 -163.1 0.996328 -74.33 0.996328 -74.33 0.084081 -165.7
8.79089000 0.084147 -163.1 0.996322 -74.34 0.996322 -74.34 0.084147 -165.7
8.79090000 0.084214 -163.1 0.996316 -74.34 0.996316 -74.34 0.084213 -165.7
8.79091000 0.084280 -163.1 0.996310 -74.34 0.996310 -74.34 0.084280 -165.7
8.79092000 0.084346 -163.1 0.996304 -74.35 0.996304 -74.35 0.084346 -165.7
8.79093000 0.084413 -163.1 0.996299 -74.35 0.996299 -74.35 0.084413 -165.7
8.79094000 0.084480 -163.1 0.996293 -74.36 0.996293 -74.36 0.084479 -165.7
8.79095000 0.084546 -163.1 0.996287 -74.36 0.996287 -74.36 0.084546 -165.7
8.79096000 0.084613 -163.2 0.996281 -74.36 0.996281 -74.36 0.084613 -165.7
8.79097000 0.084680 -163.2 0.996275 -74.37 0.996275 -74.37 0.084680 -165.7
8.79098000 0.084747 -163.2 0.996269 -74.37 0.996269 -74.37 0.084747 -165.7
8.79099000 0.084814 -163.2 0.996263 -74.38 0.996263 -74.38 0.084814 -165.8
8.79100000 0.084881 -163.2 0.996258 -74.38 0.996258 -74.38 0.084881 -165.8
8.79101000 0.084949 -163.2 0.996252 -74.38 0.996252 -74.38 0.084948 -165.8
8.79102000 0.085016 -163.2 0.996246 -74.39 0.996246 -74.39 0.085016 -165.8
8.79103000 0.085084 -163.2 0.996240 -74.39 0.996240 -74.39 0.085083 -165.8
8.79104000 0.085151 -163.2 0.996234 -74.40 0.996234 -74.40 0.085151 -165.8
8.79105000 0.085219 -163.2 0.996228 -74.40 0.996228 -74.40 0.085219 -165.8
8.79106000 0.085287 -163.2 0.996222 -74.40 0.996222 -74.40 0.085286 -165.8
8.79107000 0.085355 -163.2 0.996216 -74.41 0.996216 -74.41 0.085354 -165.8
8.79108000 0.085423 -163.2 0.996210 -74.41 0.996210 -74.41 0.085422 -165.8
8.79109000 0.085491 -163.2 0.996204 -74.42 0.996204 -74.42 0.085491 -165.8
8.79110000 0.085559 -163.2 0.996198 -74.42 0.996198 -74.42 0.085559 -165.8
8.79111000 0.085628 -163.2 0.996192 -74.42 0.996192 -74.42 0.085627 -165.8
8.79112000 0.085696 -163.2 0.996185 -74.43 0.996185 -74.43 0.085696 -165.8
8.79113000 0.085765 -163.2 0.996179 -74.43 0.996179 -74.43 0.085764 -165.8
8.79114000 0.085833 -163.2 0.996173 -74.44 0.996173 -74.44 0.085833 -165.8
8.79115000 0.085902 -163.2 0.996167 -74.44 0.996167 -74.44 0.085902 -165.8
8.79116000 0.085971 -163.2 0.996161 -74.44 0.996161 -74.44 0.085971 -165.8
8.79117000 0.086040 -163.2 0.996155 -74.45 0.996155 -74.45 0.086040 -165.8
8.79118000 0.086109 -163.2 0.996149 -74.45 0.996149 -74.45 0.086109 -165.8
8.79119000 0.086178 -163.2 0.996142 -74.46 0.996142 -74.46 0.086178 -165.8
8.79120000 0.086248 -163.2 0.996136 -74.46 0.996136 -74.46 0.086247 -165.8
8.79121000 0.086317 -163.3 0.996130 -74.46 0.996130 -74.46 0.086317 -165.8
8.79122000 0.086386 -163.3 0.996124 -74.47 0.996124 -74.47 0.086386 -165.8
8.79123000 0.086456 -163.3 0.996118 -74.47 0.996118 -74.47 0.086456 -165.8
8.79124000 0.086526 -163.3 0.996111 -74.48 0.996111 -74.48 0.086526 -165.9
8.79125000 0.086596 -163.3 0.996105 -74.48 0.996105 -74.48 0.086595 -165.9
8.79126000 0.086666 -163.3 0.996099 -74.48 0.996099 -74.48 0.086665 -165.9
8.79127000 0.086736 -163.3 0.996092 -74.49 0.996092 -74.49 0.086735 -165.9
8.79128000 0.086806 -163.3 0.996086 -74.49 0.996086 -74.49 0.086806 -165.9
8.79129000 0.086876 -163.3 0.996080 -74.50 0.996080 -74.50 0.086876 -165.9
8.79130000 0.086947 -163.3 0.996074 -74.50 0.996074 -74.50 0.086946 -165.9
8.79131000 0.087017 -163.3 0.996067 -74.51 0.996067 -74.51 0.087017 -165.9
8.79132000 0.087088 -163.3 0.996061 -74.51 0.996061 -74.51 0.087087 -165.9
8.79133000 0.087158 -163.3 0.996054 -74.51 0.996054 -74.51 0.087158 -165.9
8.79134000 0.087229 -163.3 0.996048 -74.52 0.996048 -74.52 0.087229 -165.9
8.79135000 0.087300 -163.3 0.996042 -74.52 0.996042 -74.52 0.087300 -165.9
8.79136000 0.087371 -163.3 0.996035 -74.53 0.996035 -74.53 0.087371 -165.9
8.79137000 0.087442 -163.3 0.996029 -74.53 0.996029 -74.53 0.087442 -165.9
8.79138000 0.087514 -163.3 0.996022 -74.53 0.996022 -74.53 0.087513 -165.9
8.79139000 0.087585 -163.3 0.996016 -74.54 0.996016 -74.54 0.087585 -165.9
8.79140000 0.087657 -163.3 0.996009 -74.54 0.996009 -74.54 0.087656 -165.9
8.79141000 0.087728 -163.3 0.996003 -74.55 0.996003 -74.55 0.087728 -165.9
8.79142000 0.087800 -163.3 0.995996 -74.55 0.995996 -74.55 0.087800 -165.9
8.79143000 0.087872 -163.3 0.995990 -74.56 0.995990 -74.56 0.087871 -165.9
8.79144000 0.087944 -163.4 0.995983 -74.56 0.995983 -74.56 0.087943 -165.9
8.79145000 0.088016 -163.4 0.995976 -74.56 0.995976 -74.56 0.088015 -165.9
8.79146000 0.088088 -163.4 0.995970 -74.57 0.995970 -74.57 0.088088 -165.9
8.79147000 0.088160 -163.4 0.995963 -74.57 0.995963 -74.57 0.088160 -166.0
8.79148000 0.088233 -163.4 0.995957 -74.58 0.995957 -74.58 0.088232 -166.0
8.79149000 0.088305 -163.4 0.995950 -74.58 0.995950 -74.58 0.088305 -166.0
8.79150000 0.088378 -163.4 0.995943 -74.58 0.995943 -74.58 0.088377 -166.0
8.79151000 0.088451 -163.4 0.995937 -74.59 0.995937 -74.59 0.088450 -166.0
8.79152000 0.088523 -163.4 0.995930 -74.59 0.995930 -74.59 0.088523 -166.0
8.79153000 0.088596 -163.4 0.995923 -74.60 0.995923 -74.60 0.088596 -166.0
8.79154000 0.088670 -163.4 0.995917 -74.60 0.995917 -74.60 0.088669 -166.0
8.79155000 0.088743 -163.4 0.995910 -74.61 0.995910 -74.61 0.088742 -166.0
8.79156000 0.088816 -163.4 0.995903 -74.61 0.995903 -74.61 0.088816 -166.0
8.79157000 0.088890 -163.4 0.995896 -74.61 0.995896 -74.61 0.088889 -166.0
8.79158000 0.088963 -163.4 0.995890 -74.62 0.995890 -74.62 0.088963 -166.0
8.79159000 0.089037 -163.4 0.995883 -74.62 0.995883 -74.62 0.089036 -166.0
8.79160000 0.089111 -163.4 0.995876 -74.63 0.995876 -74.63 0.089110 -166.0
8.79161000 0.089184 -163.4 0.995869 -74.63 0.995869 -74.63 0.089184 -166.0
8.79162000 0.089258 -163.4 0.995862 -74.64 0.995862 -74.64 0.089258 -166.0
8.79163000 0.089333 -163.4 0.995855 -74.64 0.995855 -74.64 0.089332 -166.0
8.79164000 0.089407 -163.4 0.995848 -74.65 0.995848 -74.65 0.089407 -166.0
8.79165000 0.089481 -163.4 0.995842 -74.65 0.995842 -74.65 0.089481 -166.0
8.79166000 0.089556 -163.4 0.995835 -74.65 0.995835 -74.65 0.089555 -166.0
8.79167000 0.089630 -163.5 0.995828 -74.66 0.995828 -74.66 0.089630 -166.0
8.79168000 0.089705 -163.5 0.995821 -74.66 0.995821 -74.66 0.089705 -166.0
8.79169000 0.089780 -163.5 0.995814 -74.67 0.995814 -74.67 0.089780 -166.0
8.79170000 0.089855 -163.5 0.995807 -74.67 0.995807 -74.67 0.089855 -166.1
8.79171000 0.089930 -163.5 0.995800 -74.68 0.995800 -74.68 0.089930 -166.1
8.79172000 0.090005 -163.5 0.995793 -74.68 0.995793 -74.68 0.090005 -166.1
8.79173000 0.090081 -163.5 0.995786 -74.68 0.995786 -74.68 0.090080 -166.1
8.79174000 0.090156 -163.5 0.995779 -74.69 0.995779 -74.69 0.090156 -166.1
8.79175000 0.090232 -163.5 0.995772 -74.69 0.995772 -74.69 0.090231 -166.1
8.79176000 0.090307 -163.5 0.995764 -74.70 0.995764 -74.70 0.090307 -166.1
8.79177000 0.090383 -163.5 0.995757 -74.70 0.995757 -74.70 0.090383 -166.1
8.79178000 0.090459 -163.5 0.995750 -74.71 0.995750 -74.71 0.090459 -166.1
8.79179000 0.090535 -163.5 0.995743 -74.71 0.995743 -74.71 0.090535 -166.1
8.79180000 0.090612 -163.5 0.995736 -74.72 0.995736 -74.72 0.090611 -166.1
8.79181000 0.090688 -163.5 0.995729 -74.72 0.995729 -74.72 0.090688 -166.1
8.79182000 0.090764 -163.5 0.995722 -74.72 0.995722 -74.72 0.090764 -166.1
8.79183000 0.090841 -163.5 0.995714 -74.73 0.995714 -74.73 0.090841 -166.1
8.79184000 0.090918 -163.5 0.995707 -74.73 0.995707 -74.73 0.090917 -166.1
8.79185000 0.090994 -163.5 0.995700 -74.74 0.995700 -74.74 0.090994 -166.1
8.79186000 0.091071 -163.5 0.995693 -74.74 0.995693 -74.74 0.091071 -166.1
8.79187000 0.091148 -163.5 0.995685 -74.75 0.995685 -74.75 0.091148 -166.1
8.79188000 0.091226 -163.5 0.995678 -74.75 0.995678 -74.75 0.091225 -166.1
8.79189000 0.091303 -163.6 0.995671 -74.76 0.995671 -74.76 0.091303 -166.1
8.79190000 0.091380 -163.6 0.995663 -74.76 0.995663 -74.76 0.091380 -166.1
8.79191000 0.091458 -163.6 0.995656 -74.77 0.995656 -74.77 0.091458 -166.1
8.79192000 0.091536 -163.6 0.995649 -74.77 0.995649 -74.77 0.091535 -166.2
8.79193000 0.091614 -163.6 0.995641 -74.77 0.995641 -74.77 0.091613 -166.2
8.79194000 0.091692 -163.6 0.995634 -74.78 0.995634 -74.78 0.091691 -166.2
8.79195000 0.091770 -163.6 0.995626 -74.78 0.995626 -74.78 0.091769 -166.2
8.79196000 0.091848 -163.6 0.995619 -74.79 0.995619 -74.79 0.091848 -166.2
8.79197000 0.091926 -163.6 0.995611 -74.79 0.995611 -74.79 0.091926 -166.2
8.79198000 0.092005 -163.6 0.995604 -74.80 0.995604 -74.80 0.092004 -166.2
8.79199000 0.092083 -163.6 0.995596 -74.80 0.995596 -74.80 0.092083 -166.2
8.79200000 0.092162 -163.6 0.995589 -74.81 0.995589 -74.81 0.092162 -166.2
8.79201000 0.092241 -163.6 0.995581 -74.81 0.995581 -74.81 0.092241 -166.2
8.79202000 0.092320 -163.6 0.995574 -74.82 0.995574 -74.82 0.092320 -166.2
8.79203000 0.092399 -163.6 0.995566 -74.82 0.995566 -74.82 0.092399 -166.2
8.79204000 0.092478 -163.6 0.995559 -74.83 0.995559 -74.83 0.092478 -166.2
8.79205000 0.092558 -163.6 0.995551 -74.83 0.995551 -74.83 0.092557 -166.2
8.79206000 0.092637 -163.6 0.995543 -74.83 0.995543 -74.83 0.092637 -166.2
8.79207000 0.092717 -163.6 0.995536 -74.84 0.995536 -74.84 0.092716 -166.2
8.79208000 0.092797 -163.6 0.995528 -74.84 0.995528 -74.84 0.092796 -166.2
8.79209000 0.092876 -163.6 0.995520 -74.85 0.995520 -74.85 0.092876 -166.2
8.79210000 0.092956 -163.6 0.995513 -74.85 0.995513 -74.85 0.092956 -166.2
8.79211000 0.093037 -163.7 0.995505 -74.86 0.995505 -74.86 0.093036 -166.2
8.79212000 0.093117 -163.7 0.995497 -74.86 0.995497 -74.86 0.093117 -166.2
8.79213000 0.093197 -163.7 0.995489 -74.87 0.995489 -74.87 0.093197 -166.3
8.79214000 0.093278 -163.7 0.995482 -74.87 0.995482 -74.87 0.093278 -166.3
8.79215000 0.093359 -163.7 0.995474 -74.88 0.995474 -74.88 0.093358 -166.3
8.79216000 0.093440 -163.7 0.995466 -74.88 0.995466 -74.88 0.093439 -166.3
8.79217000 0.093521 -163.7 0.995458 -74.89 0.995458 -74.89 0.093520 -166.3
8.79218000 0.093602 -163.7 0.995450 -74.89 0.995450 -74.89 0.093601 -166.3
8.79219000 0.093683 -163.7 0.995442 -74.90 0.995442 -74.90 0.093683 -166.3
8.79220000 0.093764 -163.7 0.995434 -74.90 0.995434 -74.90 0.093764 -166.3
8.79221000 0.093846 -163.7 0.995426 -74.91 0.995426 -74.91 0.093845 -166.3
8.79222000 0.093927 -163.7 0.995418 -74.91 0.995418 -74.91 0.093927 -166.3
8.79223000 0.094009 -163.7 0.995410 -74.91 0.995410 -74.91 0.094009 -166.3
8.79224000 0.094091 -163.7 0.995402 -74.92 0.995402 -74.92 0.094091 -166.3
8.79225000 0.094173 -163.7 0.995394 -74.92 0.995394 -74.92 0.094173 -166.3
8.79226000 0.094255 -163.7 0.995386 -74.93 0.995386 -74.93 0.094255 -166.3
8.79227000 0.094338 -163.7 0.995378 -74.93 0.995378 -74.93 0.094337 -166.3
8.79228000 0.094420 -163.7 0.995370 -74.94 0.995370 -74.94 0.094420 -166.3
8.79229000 0.094503 -163.7 0.995362 -74.94 0.995362 -74.94 0.094503 -166.3
8.79230000 0.094586 -163.7 0.995354 -74.95 0.995354 -74.95 0.094585 -166.3
8.79231000 0.094669 -163.7 0.995346 -74.95 0.995346 -74.95 0.094668 -166.3
8.79232000 0.094752 -163.8 0.995338 -74.96 0.995338 -74.96 0.094751 -166.3
8.79233000 0.094835 -163.8 0.995330 -74.96 0.995330 -74.96 0.094834 -166.3
8.79234000 0.094918 -163.8 0.995321 -74.97 0.995321 -74.97 0.094918 -166.4
8.79235000 0.095002 -163.8 0.995313 -74.97 0.995313 -74.97 0.095001 -166.4
8.79236000 0.095085 -163.8 0.995305 -74.98 0.995305 -74.98 0.095085 -166.4
8.79237000 0.095169 -163.8 0.995297 -74.98 0.995297 -74.98 0.095169 -166.4
8.79238000 0.095253 -163.8 0.995288 -74.99 0.995288 -74.99 0.095252 -166.4
8.79239000 0.095337 -163.8 0.995280 -74.99 0.995280 -74.99 0.095337 -166.4
8.79240000 0.095421 -163.8 0.995272 -75.00 0.995272 -75.00 0.095421 -166.4
8.79241000 0.095505 -163.8 0.995263 -75.00 0.995263 -75.00 0.095505 -166.4
8.79242000 0.095590 -163.8 0.995255 -75.01 0.995255 -75.01 0.095589 -166.4
8.79243000 0.095674 -163.8 0.995246 -75.01 0.995246 -75.01 0.095674 -166.4
8.79244000 0.095759 -163.8 0.995238 -75.02 0.995238 -75.02 0.095759 -166.4
8.79245000 0.095844 -163.8 0.995230 -75.02 0.995230 -75.02 0.095844 -166.4
8.79246000 0.095929 -163.8 0.995221 -75.03 0.995221 -75.03 0.095929 -166.4
8.79247000 0.096014 -163.8 0.995213 -75.03 0.995213 -75.03 0.096014 -166.4
8.79248000 0.096100 -163.8 0.995204 -75.04 0.995204 -75.04 0.096099 -166.4
8.79249000 0.096185 -163.8 0.995196 -75.04 0.995196 -75.04 0.096185 -166.4
8.79250000 0.096271 -163.8 0.995187 -75.05 0.995187 -75.05 0.096270 -166.4
8.79251000 0.096356 -163.8 0.995179 -75.05 0.995179 -75.05 0.096356 -166.4
8.79252000 0.096442 -163.9 0.995170 -75.06 0.995170 -75.06 0.096442 -166.4
8.79253000 0.096528 -163.9 0.995161 -75.06 0.995161 -75.06 0.096528 -166.4
8.79254000 0.096615 -163.9 0.995153 -75.07 0.995153 -75.07 0.096614 -166.5
8.79255000 0.096701 -163.9 0.995144 -75.07 0.995144 -75.07 0.096701 -166.5
8.79256000 0.096788 -163.9 0.995135 -75.08 0.995135 -75.08 0.096787 -166.5
8.79257000 0.096874 -163.9 0.995127 -75.08 0.995127 -75.08 0.096874 -166.5
8.79258000 0.096961 -163.9 0.995118 -75.09 0.995118 -75.09 0.096961 -166.5
8.79259000 0.097048 -163.9 0.995109 -75.09 0.995109 -75.09 0.097048 -166.5
8.79260000 0.097135 -163.9 0.995100 -75.10 0.995100 -75.10 0.097135 -166.5
8.79261000 0.097222 -163.9 0.995091 -75.10 0.995091 -75.10 0.097222 -166.5
8.79262000 0.097310 -163.9 0.995083 -75.11 0.995083 -75.11 0.097309 -166.5
8.79263000 0.097397 -163.9 0.995074 -75.11 0.995074 -75.11 0.097397 -166.5
8.79264000 0.097485 -163.9 0.995065 -75.12 0.995065 -75.12 0.097485 -166.5
8.79265000 0.097573 -163.9 0.995056 -75.12 0.995056 -75.12 0.097573 -166.5
8.79266000 0.097661 -163.9 0.995047 -75.13 0.995047 -75.13 0.097661 -166.5
8.79267000 0.097749 -163.9 0.995038 -75.13 0.995038 -75.13 0.097749 -166.5
8.79268000 0.097837 -163.9 0.995029 -75.14 0.995029 -75.14 0.097837 -166.5
8.79269000 0.097926 -163.9 0.995020 -75.14 0.995020 -75.14 0.097926 -166.5
8.79270000 0.098015 -163.9 0.995011 -75.15 0.995011 -75.15 0.098014 -166.5
8.79271000 0.098103 -164.0 0.995002 -75.15 0.995002 -75.15 0.098103 -166.5
8.79272000 0.098192 -164.0 0.994993 -75.16 0.994993 -75.16 0.098192 -166.5
8.79273000 0.098281 -164.0 0.994984 -75.16 0.994984 -75.16 0.098281 -166.6
8.79274000 0.098371 -164.0 0.994975 -75.17 0.994975 -75.17 0.098370 -166.6
8.79275000 0.098460 -164.0 0.994966 -75.17 0.994966 -75.17 0.098460 -166.6
8.79276000 0.098550 -164.0 0.994957 -75.18 0.994957 -75.18 0.098549 -166.6
8.79277000 0.098639 -164.0 0.994947 -75.19 0.994947 -75.19 0.098639 -166.6
8.79278000 0.098729 -164.0 0.994938 -75.19 0.994938 -75.19 0.098729 -166.6
8.79279000 0.098819 -164.0 0.994929 -75.20 0.994929 -75.20 0.098819 -166.6
8.79280000 0.098909 -164.0 0.994920 -75.20 0.994920 -75.20 0.098909 -166.6
8.79281000 0.099000 -164.0 0.994910 -75.21 0.994910 -75.21 0.098999 -166.6
8.79282000 0.099090 -164.0 0.994901 -75.21 0.994901 -75.21 0.099090 -166.6
8.79283000 0.099181 -164.0 0.994892 -75.22 0.994892 -75.22 0.099181 -166.6
8.79284000 0.099272 -164.0 0.994882 -75.22 0.994882 -75.22 0.099271 -166.6
8.79285000 0.099363 -164.0 0.994873 -75.23 0.994873 -75.23 0.099362 -166.6
8.79286000 0.099454 -164.0 0.994864 -75.23 0.994864 -75.23 0.099454 -166.6
8.79287000 0.099545 -164.0 0.994854 -75.24 0.994854 -75.24 0.099545 -166.6
8.79288000 0.099637 -164.0 0.994845 -75.24 0.994845 -75.24 0.099636 -166.6
8.79289000 0.099728 -164.0 0.994835 -75.25 0.994835 -75.25 0.099728 -166.6
8.79290000 0.099820 -164.1 0.994826 -75.25 0.994826 -75.25 0.099820 -166.6
8.79291000 0.099912 -164.1 0.994816 -75.26 0.994816 -75.26 0.099912 -166.7
8.79292000 0.100004 -164.1 0.994807 -75.27 0.994807 -75.27 0.100004 -166.7
8.79293000 0.100097 -164.1 0.994797 -75.27 0.994797 -75.27 0.100096 -166.7
8.79294000 0.100189 -164.1 0.994787 -75.28 0.994787 -75.28 0.100189 -166.7
8.79295000 0.100282 -164.1 0.994778 -75.28 0.994778 -75.28 0.100281 -166.7
8.79296000 0.100374 -164.1 0.994768 -75.29 0.994768 -75.29 0.100374 -166.7
8.79297000 0.100467 -164.1 0.994758 -75.29 0.994758 -75.29 0.100467 -166.7
8.79298000 0.100561 -164.1 0.994749 -75.30 0.994749 -75.30 0.100560 -166.7
8.79299000 0.100654 -164.1 0.994739 -75.30 0.994739 -75.30 0.100654 -166.7
8.79300000 0.100747 -164.1 0.994729 -75.31 0.994729 -75.31 0.100747 -166.7
8.79301000 0.100841 -164.1 0.994719 -75.31 0.994719 -75.31 0.100841 -166.7
8.79302000 0.100935 -164.1 0.994710 -75.32 0.994710 -75.32 0.100934 -166.7
8.79303000 0.101029 -164.1 0.994700 -75.33 0.994700 -75.33 0.101028 -166.7
8.79304000 0.101123 -164.1 0.994690 -75.33 0.994690 -75.33 0.101122 -166.7
8.79305000 0.101217 -164.1 0.994680 -75.34 0.994680 -75.34 0.101217 -166.7
8.79306000 0.101312 -164.1 0.994670 -75.34 0.994670 -75.34 0.101311 -166.7
8.79307000 0.101406 -164.1 0.994660 -75.35 0.994660 -75.35 0.101406 -166.7
8.79308000 0.101501 -164.2 0.994650 -75.35 0.994650 -75.35 0.101501 -166.7
8.79309000 0.101596 -164.2 0.994640 -75.36 0.994640 -75.36 0.101596 -166.8
8.79310000 0.101691 -164.2 0.994630 -75.36 0.994630 -75.36 0.101691 -166.8
8.79311000 0.101786 -164.2 0.994620 -75.37 0.994620 -75.37 0.101786 -166.8
8.79312000 0.101882 -164.2 0.994610 -75.37 0.994610 -75.37 0.101882 -166.8
8.79313000 0.101978 -164.2 0.994600 -75.38 0.994600 -75.38 0.101977 -166.8
8.79314000 0.102073 -164.2 0.994589 -75.39 0.994589 -75.39 0.102073 -166.8
8.79315000 0.102169 -164.2 0.994579 -75.39 0.994579 -75.39 0.102169 -166.8
8.79316000 0.102266 -164.2 0.994569 -75.40 0.994569 -75.40 0.102265 -166.8
8.79317000 0.102362 -164.2 0.994559 -75.40 0.994559 -75.40 0.102362 -166.8
8.79318000 0.102459 -164.2 0.994549 -75.41 0.994549 -75.41 0.102458 -166.8
8.79319000 0.102555 -164.2 0.994538 -75.41 0.994538 -75.41 0.102555 -166.8
8.79320000 0.102652 -164.2 0.994528 -75.42 0.994528 -75.42 0.102652 -166.8
8.79321000 0.102749 -164.2 0.994518 -75.43 0.994518 -75.43 0.102749 -166.8
8.79322000 0.102846 -164.2 0.994507 -75.43 0.994507 -75.43 0.102846 -166.8
8.79323000 0.102944 -164.2 0.994497 -75.44 0.994497 -75.44 0.102944 -166.8
8.79324000 0.103041 -164.2 0.994486 -75.44 0.994486 -75.44 0.103041 -166.8
8.79325000 0.103139 -164.3 0.994476 -75.45 0.994476 -75.45 0.103139 -166.8
8.79326000 0.103237 -164.3 0.994465 -75.45 0.994465 -75.45 0.103237 -166.8
8.79327000 0.103335 -164.3 0.994455 -75.46 0.994455 -75.46 0.103335 -166.9
8.79328000 0.103434 -164.3 0.994444 -75.47 0.994444 -75.47 0.103433 -166.9
8.79329000 0.103532 -164.3 0.994434 -75.47 0.994434 -75.47 0.103532 -166.9
8.79330000 0.103631 -164.3 0.994423 -75.48 0.994423 -75.48 0.103631 -166.9
8.79331000 0.103730 -164.3 0.994412 -75.48 0.994412 -75.48 0.103729 -166.9
8.79332000 0.103829 -164.3 0.994402 -75.49 0.994402 -75.49 0.103828 -166.9
8.79333000 0.103928 -164.3 0.994391 -75.49 0.994391 -75.49 0.103928 -166.9
8.79334000 0.104027 -164.3 0.994380 -75.50 0.994380 -75.50 0.104027 -166.9
8.79335000 0.104127 -164.3 0.994370 -75.51 0.994370 -75.51 0.104127 -166.9
8.79336000 0.104227 -164.3 0.994359 -75.51 0.994359 -75.51 0.104226 -166.9
8.79337000 0.104327 -164.3 0.994348 -75.52 0.994348 -75.52 0.104326 -166.9
8.79338000 0.104427 -164.3 0.994337 -75.52 0.994337 -75.52 0.104427 -166.9
8.79339000 0.104527 -164.3 0.994326 -75.53 0.994326 -75.53 0.104527 -166.9
8.79340000 0.104628 -164.3 0.994315 -75.54 0.994315 -75.54 0.104627 -166.9
8.79341000 0.104728 -164.3 0.994304 -75.54 0.994304 -75.54 0.104728 -166.9
8.79342000 0.104829 -164.4 0.994293 -75.55 0.994293 -75.55 0.104829 -166.9
8.79343000 0.104930 -164.4 0.994282 -75.55 0.994282 -75.55 0.104930 -166.9
8.79344000 0.105032 -164.4 0.994271 -75.56 0.994271 -75.56 0.105031 -167.0
8.79345000 0.105133 -164.4 0.994260 -75.56 0.994260 -75.56 0.105133 -167.0
8.79346000 0.105235 -164.4 0.994249 -75.57 0.994249 -75.57 0.105234 -167.0
8.79347000 0.105337 -164.4 0.994238 -75.58 0.994238 -75.58 0.105336 -167.0
8.79348000 0.105439 -164.4 0.994227 -75.58 0.994227 -75.58 0.105438 -167.0
8.79349000 0.105541 -164.4 0.994216 -75.59 0.994216 -75.59 0.105540 -167.0
8.79350000 0.105643 -164.4 0.994204 -75.59 0.994204 -75.59 0.105643 -167.0
8.79351000 0.105746 -164.4 0.994193 -75.60 0.994193 -75.60 0.105745 -167.0
8.79352000 0.105849 -164.4 0.994182 -75.61 0.994182 -75.61 0.105848 -167.0
8.79353000 0.105952 -164.4 0.994170 -75.61 0.994170 -75.61 0.105951 -167.0
8.79354000 0.106055 -164.4 0.994159 -75.62 0.994159 -75.62 0.106054 -167.0
8.79355000 0.106158 -164.4 0.994148 -75.62 0.994148 -75.62 0.106158 -167.0
8.79356000 0.106262 -164.4 0.994136 -75.63 0.994136 -75.63 0.106261 -167.0
8.79357000 0.106365 -164.4 0.994125 -75.64 0.994125 -75.64 0.106365 -167.0
8.79358000 0.106469 -164.4 0.994113 -75.64 0.994113 -75.64 0.106469 -167.0
8.79359000 0.106574 -164.5 0.994102 -75.65 0.994102 -75.65 0.106573 -167.0
8.79360000 0.106678 -164.5 0.994090 -75.66 0.994090 -75.66 0.106678 -167.1
8.79361000 0.106783 -164.5 0.994079 -75.66 0.994079 -75.66 0.106782 -167.1
8.79362000 0.106887 -164.5 0.994067 -75.67 0.994067 -75.67 0.106887 -167.1
8.79363000 0.106992 -164.5 0.994055 -75.67 0.994055 -75.67 0.106992 -167.1
8.79364000 0.107097 -164.5 0.994044 -75.68 0.994044 -75.68 0.107097 -167.1
8.79365000 0.107203 -164.5 0.994032 -75.69 0.994032 -75.69 0.107202 -167.1
8.79366000 0.107308 -164.5 0.994020 -75.69 0.994020 -75.69 0.107308 -167.1
8.79367000 0.107414 -164.5 0.994008 -75.70 0.994008 -75.70 0.107414 -167.1
8.79368000 0.107520 -164.5 0.993996 -75.70 0.993996 -75.70 0.107520 -167.1
8.79369000 0.107626 -164.5 0.993985 -75.71 0.993985 -75.71 0.107626 -167.1
8.79370000 0.107732 -164.5 0.993973 -75.72 0.993973 -75.72 0.107732 -167.1
8.79371000 0.107839 -164.5 0.993961 -75.72 0.993961 -75.72 0.107839 -167.1
8.79372000 0.107946 -164.5 0.993949 -75.73 0.993949 -75.73 0.107945 -167.1
8.79373000 0.108053 -164.5 0.993937 -75.74 0.993937 -75.74 0.108052 -167.1
8.79374000 0.108160 -164.5 0.993925 -75.74 0.993925 -75.74 0.108159 -167.1
8.79375000 0.108267 -164.6 0.993913 -75.75 0.993913 -75.75 0.108267 -167.1
8.79376000 0.108375 -164.6 0.993901 -75.75 0.993901 -75.75 0.108374 -167.2
8.79377000 0.108483 -164.6 0.993888 -75.76 0.993888 -75.76 0.108482 -167.2
8.79378000 0.108591 -164.6 0.993876 -75.77 0.993876 -75.77 0.108590 -167.2
8.79379000 0.108699 -164.6 0.993864 -75.77 0.993864 -75.77 0.108698 -167.2
8.79380000 0.108807 -164.6 0.993852 -75.78 0.993852 -75.78 0.108807 -167.2
8.79381000 0.108916 -164.6 0.993839 -75.79 0.993839 -75.79 0.108915 -167.2
8.79382000 0.109025 -164.6 0.993827 -75.79 0.993827 -75.79 0.109024 -167.2
8.79383000 0.109134 -164.6 0.993815 -75.80 0.993815 -75.80 0.109133 -167.2
8.79384000 0.109243 -164.6 0.993802 -75.80 0.993802 -75.80 0.109243 -167.2
8.79385000 0.109352 -164.6 0.993790 -75.81 0.993790 -75.81 0.109352 -167.2
8.79386000 0.109462 -164.6 0.993777 -75.82 0.993777 -75.82 0.109462 -167.2
8.79387000 0.109572 -164.6 0.993765 -75.82 0.993765 -75.82 0.109572 -167.2
8.79388000 0.109682 -164.6 0.993752 -75.83 0.993752 -75.83 0.109682 -167.2
8.79389000 0.109792 -164.6 0.993740 -75.84 0.993740 -75.84 0.109792 -167.2
8.79390000 0.109903 -164.7 0.993727 -75.84 0.993727 -75.84 0.109902 -167.2
8.79391000 0.110014 -164.7 0.993715 -75.85 0.993715 -75.85 0.110013 -167.3
8.79392000 0.110124 -164.7 0.993702 -75.86 0.993702 -75.86 0.110124 -167.3