! Sonnet Data File
! From: emgraph Version : 16.52
! From Project: Qubit_Xmon2
! Data is De-embedded 
! Data File Written: 10/18/2017 14:46:52
!< HDATE 10/18/2017 13:36:36
!< MDATE 10/18/2017 13:36:36
!< PARAMS
!< Lj = 11.0
!< Gap = 26.0
!< Pwid = 2000.0
!< Airgap = 24.0
!< Width = 40.0
!< END PARAMS
# GHZ S MA R 43.40000
8.79000000 0.074831 -163.0 0.997078 -74.32 0.997078 -74.32 0.074831 -165.8
!< P1 F=8.79 Eeff=(4.81771806 -6.2668e-5) Z0=(43.3161425 -1.8142e-4) R=0.0 C=0.0 
!< P2 F=8.79 Eeff=(4.81771806 -6.2668e-5) Z0=(43.3161425 -1.8142e-4) R=0.0 C=0.0 
8.79001000 0.074891 -163.0 0.997073 -74.32 0.997073 -74.32 0.074890 -165.8
8.79002000 0.074950 -163.0 0.997068 -74.32 0.997068 -74.32 0.074950 -165.8
8.79003000 0.075010 -163.0 0.997064 -74.33 0.997064 -74.33 0.075010 -165.8
8.79004000 0.075070 -163.0 0.997059 -74.33 0.997059 -74.33 0.075069 -165.8
8.79005000 0.075129 -163.0 0.997054 -74.33 0.997054 -74.33 0.075129 -165.8
8.79006000 0.075189 -163.0 0.997050 -74.34 0.997050 -74.34 0.075189 -165.8
8.79007000 0.075249 -163.0 0.997045 -74.34 0.997045 -74.34 0.075249 -165.8
8.79008000 0.075310 -163.0 0.997040 -74.34 0.997040 -74.34 0.075309 -165.8
8.79009000 0.075370 -163.0 0.997035 -74.35 0.997035 -74.35 0.075370 -165.8
8.79010000 0.075430 -163.0 0.997031 -74.35 0.997031 -74.35 0.075430 -165.8
8.79011000 0.075490 -163.0 0.997026 -74.35 0.997026 -74.35 0.075490 -165.8
8.79012000 0.075551 -163.0 0.997021 -74.36 0.997021 -74.36 0.075551 -165.8
8.79013000 0.075612 -163.1 0.997016 -74.36 0.997016 -74.36 0.075611 -165.8
8.79014000 0.075672 -163.1 0.997012 -74.37 0.997012 -74.37 0.075672 -165.8
8.79015000 0.075733 -163.1 0.997007 -74.37 0.997007 -74.37 0.075733 -165.8
8.79016000 0.075794 -163.1 0.997002 -74.37 0.997002 -74.37 0.075794 -165.8
8.79017000 0.075855 -163.1 0.996997 -74.38 0.996997 -74.38 0.075855 -165.9
8.79018000 0.075916 -163.1 0.996993 -74.38 0.996993 -74.38 0.075916 -165.9
8.79019000 0.075977 -163.1 0.996988 -74.38 0.996988 -74.38 0.075977 -165.9
8.79020000 0.076038 -163.1 0.996983 -74.39 0.996983 -74.39 0.076038 -165.9
8.79021000 0.076100 -163.1 0.996978 -74.39 0.996978 -74.39 0.076099 -165.9
8.79022000 0.076161 -163.1 0.996973 -74.39 0.996973 -74.39 0.076161 -165.9
8.79023000 0.076222 -163.1 0.996968 -74.40 0.996968 -74.40 0.076222 -165.9
8.79024000 0.076284 -163.1 0.996963 -74.40 0.996963 -74.40 0.076284 -165.9
8.79025000 0.076346 -163.1 0.996958 -74.41 0.996958 -74.41 0.076346 -165.9
8.79026000 0.076408 -163.1 0.996954 -74.41 0.996954 -74.41 0.076407 -165.9
8.79027000 0.076469 -163.1 0.996949 -74.41 0.996949 -74.41 0.076469 -165.9
8.79028000 0.076531 -163.1 0.996944 -74.42 0.996944 -74.42 0.076531 -165.9
8.79029000 0.076593 -163.1 0.996939 -74.42 0.996939 -74.42 0.076593 -165.9
8.79030000 0.076656 -163.1 0.996934 -74.42 0.996934 -74.42 0.076656 -165.9
8.79031000 0.076718 -163.1 0.996929 -74.43 0.996929 -74.43 0.076718 -165.9
8.79032000 0.076780 -163.1 0.996924 -74.43 0.996924 -74.43 0.076780 -165.9
8.79033000 0.076843 -163.1 0.996919 -74.43 0.996919 -74.43 0.076843 -165.9
8.79034000 0.076905 -163.1 0.996914 -74.44 0.996914 -74.44 0.076905 -165.9
8.79035000 0.076968 -163.1 0.996909 -74.44 0.996909 -74.44 0.076968 -165.9
8.79036000 0.077031 -163.1 0.996904 -74.45 0.996904 -74.45 0.077031 -165.9
8.79037000 0.077094 -163.1 0.996899 -74.45 0.996899 -74.45 0.077093 -165.9
8.79038000 0.077156 -163.1 0.996894 -74.45 0.996894 -74.45 0.077156 -165.9
8.79039000 0.077219 -163.1 0.996889 -74.46 0.996889 -74.46 0.077219 -165.9
8.79040000 0.077283 -163.2 0.996884 -74.46 0.996884 -74.46 0.077283 -165.9
8.79041000 0.077346 -163.2 0.996878 -74.46 0.996878 -74.46 0.077346 -165.9
8.79042000 0.077409 -163.2 0.996873 -74.47 0.996873 -74.47 0.077409 -165.9
8.79043000 0.077473 -163.2 0.996868 -74.47 0.996868 -74.47 0.077473 -165.9
8.79044000 0.077536 -163.2 0.996863 -74.47 0.996863 -74.47 0.077536 -166.0
8.79045000 0.077600 -163.2 0.996858 -74.48 0.996858 -74.48 0.077600 -166.0
8.79046000 0.077663 -163.2 0.996853 -74.48 0.996853 -74.48 0.077663 -166.0
8.79047000 0.077727 -163.2 0.996848 -74.49 0.996848 -74.49 0.077727 -166.0
8.79048000 0.077791 -163.2 0.996843 -74.49 0.996843 -74.49 0.077791 -166.0
8.79049000 0.077855 -163.2 0.996837 -74.49 0.996837 -74.49 0.077855 -166.0
8.79050000 0.077919 -163.2 0.996832 -74.50 0.996832 -74.50 0.077919 -166.0
8.79051000 0.077984 -163.2 0.996827 -74.50 0.996827 -74.50 0.077984 -166.0
8.79052000 0.078048 -163.2 0.996822 -74.51 0.996822 -74.51 0.078048 -166.0
8.79053000 0.078112 -163.2 0.996816 -74.51 0.996816 -74.51 0.078112 -166.0
8.79054000 0.078177 -163.2 0.996811 -74.51 0.996811 -74.51 0.078177 -166.0
8.79055000 0.078241 -163.2 0.996806 -74.52 0.996806 -74.52 0.078241 -166.0
8.79056000 0.078306 -163.2 0.996801 -74.52 0.996801 -74.52 0.078306 -166.0
8.79057000 0.078371 -163.2 0.996795 -74.52 0.996795 -74.52 0.078371 -166.0
8.79058000 0.078436 -163.2 0.996790 -74.53 0.996790 -74.53 0.078436 -166.0
8.79059000 0.078501 -163.2 0.996785 -74.53 0.996785 -74.53 0.078501 -166.0
8.79060000 0.078566 -163.2 0.996780 -74.54 0.996780 -74.54 0.078566 -166.0
8.79061000 0.078631 -163.2 0.996774 -74.54 0.996774 -74.54 0.078631 -166.0
8.79062000 0.078697 -163.2 0.996769 -74.54 0.996769 -74.54 0.078697 -166.0
8.79063000 0.078762 -163.2 0.996763 -74.55 0.996763 -74.55 0.078762 -166.0
8.79064000 0.078828 -163.2 0.996758 -74.55 0.996758 -74.55 0.078828 -166.0
8.79065000 0.078893 -163.2 0.996753 -74.55 0.996753 -74.55 0.078893 -166.0
8.79066000 0.078959 -163.3 0.996747 -74.56 0.996747 -74.56 0.078959 -166.0
8.79067000 0.079025 -163.3 0.996742 -74.56 0.996742 -74.56 0.079025 -166.0
8.79068000 0.079091 -163.3 0.996736 -74.57 0.996736 -74.57 0.079091 -166.0
8.79069000 0.079157 -163.3 0.996731 -74.57 0.996731 -74.57 0.079157 -166.0
8.79070000 0.079223 -163.3 0.996726 -74.57 0.996726 -74.57 0.079223 -166.1
8.79071000 0.079289 -163.3 0.996720 -74.58 0.996720 -74.58 0.079289 -166.1
8.79072000 0.079356 -163.3 0.996715 -74.58 0.996715 -74.58 0.079356 -166.1
8.79073000 0.079422 -163.3 0.996709 -74.59 0.996709 -74.59 0.079422 -166.1
8.79074000 0.079489 -163.3 0.996704 -74.59 0.996704 -74.59 0.079489 -166.1
8.79075000 0.079555 -163.3 0.996698 -74.59 0.996698 -74.59 0.079555 -166.1
8.79076000 0.079622 -163.3 0.996693 -74.60 0.996693 -74.60 0.079622 -166.1
8.79077000 0.079689 -163.3 0.996687 -74.60 0.996687 -74.60 0.079689 -166.1
8.79078000 0.079756 -163.3 0.996681 -74.61 0.996681 -74.61 0.079756 -166.1
8.79079000 0.079823 -163.3 0.996676 -74.61 0.996676 -74.61 0.079823 -166.1
8.79080000 0.079891 -163.3 0.996670 -74.61 0.996670 -74.61 0.079890 -166.1
8.79081000 0.079958 -163.3 0.996665 -74.62 0.996665 -74.62 0.079958 -166.1
8.79082000 0.080025 -163.3 0.996659 -74.62 0.996659 -74.62 0.080025 -166.1
8.79083000 0.080093 -163.3 0.996653 -74.63 0.996653 -74.63 0.080093 -166.1
8.79084000 0.080160 -163.3 0.996648 -74.63 0.996648 -74.63 0.080160 -166.1
8.79085000 0.080228 -163.3 0.996642 -74.63 0.996642 -74.63 0.080228 -166.1
8.79086000 0.080296 -163.3 0.996637 -74.64 0.996637 -74.64 0.080296 -166.1
8.79087000 0.080364 -163.3 0.996631 -74.64 0.996631 -74.64 0.080364 -166.1
8.79088000 0.080432 -163.3 0.996625 -74.64 0.996625 -74.64 0.080432 -166.1
8.79089000 0.080500 -163.3 0.996619 -74.65 0.996619 -74.65 0.080500 -166.1
8.79090000 0.080569 -163.4 0.996614 -74.65 0.996614 -74.65 0.080569 -166.1
8.79091000 0.080637 -163.4 0.996608 -74.66 0.996608 -74.66 0.080637 -166.1
8.79092000 0.080706 -163.4 0.996602 -74.66 0.996602 -74.66 0.080706 -166.1
8.79093000 0.080774 -163.4 0.996596 -74.66 0.996596 -74.66 0.080774 -166.1
8.79094000 0.080843 -163.4 0.996591 -74.67 0.996591 -74.67 0.080843 -166.1
8.79095000 0.080912 -163.4 0.996585 -74.67 0.996585 -74.67 0.080912 -166.2
8.79096000 0.080981 -163.4 0.996579 -74.68 0.996579 -74.68 0.080981 -166.2
8.79097000 0.081050 -163.4 0.996573 -74.68 0.996573 -74.68 0.081050 -166.2
8.79098000 0.081119 -163.4 0.996567 -74.69 0.996567 -74.69 0.081119 -166.2
8.79099000 0.081188 -163.4 0.996562 -74.69 0.996562 -74.69 0.081188 -166.2
8.79100000 0.081258 -163.4 0.996556 -74.69 0.996556 -74.69 0.081258 -166.2
8.79101000 0.081327 -163.4 0.996550 -74.70 0.996550 -74.70 0.081327 -166.2
8.79102000 0.081397 -163.4 0.996544 -74.70 0.996544 -74.70 0.081397 -166.2
8.79103000 0.081467 -163.4 0.996538 -74.71 0.996538 -74.71 0.081467 -166.2
8.79104000 0.081537 -163.4 0.996532 -74.71 0.996532 -74.71 0.081537 -166.2
8.79105000 0.081607 -163.4 0.996526 -74.71 0.996526 -74.71 0.081606 -166.2
8.79106000 0.081677 -163.4 0.996520 -74.72 0.996520 -74.72 0.081677 -166.2
8.79107000 0.081747 -163.4 0.996514 -74.72 0.996514 -74.72 0.081747 -166.2
8.79108000 0.081817 -163.4 0.996508 -74.73 0.996508 -74.73 0.081817 -166.2
8.79109000 0.081888 -163.4 0.996502 -74.73 0.996502 -74.73 0.081888 -166.2
8.79110000 0.081958 -163.4 0.996496 -74.73 0.996496 -74.73 0.081958 -166.2
8.79111000 0.082029 -163.4 0.996490 -74.74 0.996490 -74.74 0.082029 -166.2
8.79112000 0.082100 -163.4 0.996484 -74.74 0.996484 -74.74 0.082100 -166.2
8.79113000 0.082171 -163.4 0.996478 -74.75 0.996478 -74.75 0.082170 -166.2
8.79114000 0.082242 -163.5 0.996472 -74.75 0.996472 -74.75 0.082241 -166.2
8.79115000 0.082313 -163.5 0.996466 -74.76 0.996466 -74.76 0.082313 -166.2
8.79116000 0.082384 -163.5 0.996460 -74.76 0.996460 -74.76 0.082384 -166.2
8.79117000 0.082455 -163.5 0.996454 -74.76 0.996454 -74.76 0.082455 -166.2
8.79118000 0.082527 -163.5 0.996448 -74.77 0.996448 -74.77 0.082527 -166.2
8.79119000 0.082598 -163.5 0.996441 -74.77 0.996441 -74.77 0.082598 -166.3
8.79120000 0.082670 -163.5 0.996435 -74.78 0.996435 -74.78 0.082670 -166.3
8.79121000 0.082742 -163.5 0.996429 -74.78 0.996429 -74.78 0.082742 -166.3
8.79122000 0.082814 -163.5 0.996423 -74.78 0.996423 -74.78 0.082814 -166.3
8.79123000 0.082886 -163.5 0.996417 -74.79 0.996417 -74.79 0.082886 -166.3
8.79124000 0.082958 -163.5 0.996410 -74.79 0.996410 -74.79 0.082958 -166.3
8.79125000 0.083030 -163.5 0.996404 -74.80 0.996404 -74.80 0.083030 -166.3
8.79126000 0.083103 -163.5 0.996398 -74.80 0.996398 -74.80 0.083103 -166.3
8.79127000 0.083175 -163.5 0.996392 -74.81 0.996392 -74.81 0.083175 -166.3
8.79128000 0.083248 -163.5 0.996385 -74.81 0.996385 -74.81 0.083248 -166.3
8.79129000 0.083321 -163.5 0.996379 -74.81 0.996379 -74.81 0.083321 -166.3
8.79130000 0.083394 -163.5 0.996373 -74.82 0.996373 -74.82 0.083394 -166.3
8.79131000 0.083467 -163.5 0.996366 -74.82 0.996366 -74.82 0.083467 -166.3
8.79132000 0.083540 -163.5 0.996360 -74.83 0.996360 -74.83 0.083540 -166.3
8.79133000 0.083613 -163.5 0.996354 -74.83 0.996354 -74.83 0.083613 -166.3
8.79134000 0.083687 -163.5 0.996347 -74.84 0.996347 -74.84 0.083687 -166.3
8.79135000 0.083760 -163.5 0.996341 -74.84 0.996341 -74.84 0.083760 -166.3
8.79136000 0.083834 -163.5 0.996334 -74.84 0.996334 -74.84 0.083834 -166.3
8.79137000 0.083908 -163.6 0.996328 -74.85 0.996328 -74.85 0.083908 -166.3
8.79138000 0.083982 -163.6 0.996321 -74.85 0.996321 -74.85 0.083981 -166.3
8.79139000 0.084056 -163.6 0.996315 -74.86 0.996315 -74.86 0.084055 -166.3
8.79140000 0.084130 -163.6 0.996308 -74.86 0.996308 -74.86 0.084130 -166.3
8.79141000 0.084204 -163.6 0.996302 -74.87 0.996302 -74.87 0.084204 -166.3
8.79142000 0.084278 -163.6 0.996295 -74.87 0.996295 -74.87 0.084278 -166.4
8.79143000 0.084353 -163.6 0.996289 -74.87 0.996289 -74.87 0.084353 -166.4
8.79144000 0.084427 -163.6 0.996282 -74.88 0.996282 -74.88 0.084427 -166.4
8.79145000 0.084502 -163.6 0.996276 -74.88 0.996276 -74.88 0.084502 -166.4
8.79146000 0.084577 -163.6 0.996269 -74.89 0.996269 -74.89 0.084577 -166.4
8.79147000 0.084652 -163.6 0.996263 -74.89 0.996263 -74.89 0.084652 -166.4
8.79148000 0.084727 -163.6 0.996256 -74.90 0.996256 -74.90 0.084727 -166.4
8.79149000 0.084803 -163.6 0.996249 -74.90 0.996249 -74.90 0.084802 -166.4
8.79150000 0.084878 -163.6 0.996243 -74.91 0.996243 -74.91 0.084878 -166.4
8.79151000 0.084953 -163.6 0.996236 -74.91 0.996236 -74.91 0.084953 -166.4
8.79152000 0.085029 -163.6 0.996229 -74.91 0.996229 -74.91 0.085029 -166.4
8.79153000 0.085105 -163.6 0.996223 -74.92 0.996223 -74.92 0.085105 -166.4
8.79154000 0.085181 -163.6 0.996216 -74.92 0.996216 -74.92 0.085181 -166.4
8.79155000 0.085257 -163.6 0.996209 -74.93 0.996209 -74.93 0.085257 -166.4
8.79156000 0.085333 -163.6 0.996202 -74.93 0.996202 -74.93 0.085333 -166.4
8.79157000 0.085409 -163.6 0.996196 -74.94 0.996196 -74.94 0.085409 -166.4
8.79158000 0.085486 -163.6 0.996189 -74.94 0.996189 -74.94 0.085486 -166.4
8.79159000 0.085562 -163.6 0.996182 -74.95 0.996182 -74.95 0.085562 -166.4
8.79160000 0.085639 -163.7 0.996175 -74.95 0.996175 -74.95 0.085639 -166.4
8.79161000 0.085716 -163.7 0.996168 -74.95 0.996168 -74.95 0.085716 -166.4
8.79162000 0.085793 -163.7 0.996161 -74.96 0.996161 -74.96 0.085793 -166.4
8.79163000 0.085870 -163.7 0.996155 -74.96 0.996155 -74.96 0.085870 -166.4
8.79164000 0.085947 -163.7 0.996148 -74.97 0.996148 -74.97 0.085947 -166.5
8.79165000 0.086024 -163.7 0.996141 -74.97 0.996141 -74.97 0.086024 -166.5
8.79166000 0.086102 -163.7 0.996134 -74.98 0.996134 -74.98 0.086102 -166.5
8.79167000 0.086179 -163.7 0.996127 -74.98 0.996127 -74.98 0.086179 -166.5
8.79168000 0.086257 -163.7 0.996120 -74.99 0.996120 -74.99 0.086257 -166.5
8.79169000 0.086335 -163.7 0.996113 -74.99 0.996113 -74.99 0.086335 -166.5
8.79170000 0.086413 -163.7 0.996106 -75.00 0.996106 -75.00 0.086413 -166.5
8.79171000 0.086491 -163.7 0.996099 -75.00 0.996099 -75.00 0.086491 -166.5
8.79172000 0.086569 -163.7 0.996092 -75.00 0.996092 -75.00 0.086569 -166.5
8.79173000 0.086648 -163.7 0.996085 -75.01 0.996085 -75.01 0.086648 -166.5
8.79174000 0.086726 -163.7 0.996078 -75.01 0.996078 -75.01 0.086726 -166.5
8.79175000 0.086805 -163.7 0.996070 -75.02 0.996070 -75.02 0.086805 -166.5
8.79176000 0.086884 -163.7 0.996063 -75.02 0.996063 -75.02 0.086884 -166.5
8.79177000 0.086963 -163.7 0.996056 -75.03 0.996056 -75.03 0.086963 -166.5
8.79178000 0.087042 -163.7 0.996049 -75.03 0.996049 -75.03 0.087042 -166.5
8.79179000 0.087121 -163.7 0.996042 -75.04 0.996042 -75.04 0.087121 -166.5
8.79180000 0.087200 -163.7 0.996035 -75.04 0.996035 -75.04 0.087200 -166.5
8.79181000 0.087280 -163.8 0.996027 -75.05 0.996027 -75.05 0.087280 -166.5
8.79182000 0.087359 -163.8 0.996020 -75.05 0.996020 -75.05 0.087359 -166.5
8.79183000 0.087439 -163.8 0.996013 -75.06 0.996013 -75.06 0.087439 -166.5
8.79184000 0.087519 -163.8 0.996006 -75.06 0.996006 -75.06 0.087519 -166.5
8.79185000 0.087599 -163.8 0.995998 -75.06 0.995998 -75.06 0.087599 -166.5
8.79186000 0.087679 -163.8 0.995991 -75.07 0.995991 -75.07 0.087679 -166.6
8.79187000 0.087760 -163.8 0.995984 -75.07 0.995984 -75.07 0.087760 -166.6
8.79188000 0.087840 -163.8 0.995976 -75.08 0.995976 -75.08 0.087840 -166.6
8.79189000 0.087921 -163.8 0.995969 -75.08 0.995969 -75.08 0.087921 -166.6
8.79190000 0.088001 -163.8 0.995962 -75.09 0.995962 -75.09 0.088001 -166.6
8.79191000 0.088082 -163.8 0.995954 -75.09 0.995954 -75.09 0.088082 -166.6
8.79192000 0.088163 -163.8 0.995947 -75.10 0.995947 -75.10 0.088163 -166.6
8.79193000 0.088245 -163.8 0.995939 -75.10 0.995939 -75.10 0.088244 -166.6
8.79194000 0.088326 -163.8 0.995932 -75.11 0.995932 -75.11 0.088326 -166.6
8.79195000 0.088407 -163.8 0.995924 -75.11 0.995924 -75.11 0.088407 -166.6
8.79196000 0.088489 -163.8 0.995917 -75.12 0.995917 -75.12 0.088489 -166.6
8.79197000 0.088571 -163.8 0.995909 -75.12 0.995909 -75.12 0.088571 -166.6
8.79198000 0.088653 -163.8 0.995902 -75.13 0.995902 -75.13 0.088652 -166.6
8.79199000 0.088735 -163.8 0.995894 -75.13 0.995894 -75.13 0.088734 -166.6
8.79200000 0.088817 -163.8 0.995887 -75.14 0.995887 -75.14 0.088817 -166.6
8.79201000 0.088899 -163.8 0.995879 -75.14 0.995879 -75.14 0.088899 -166.6
8.79202000 0.088981 -163.9 0.995871 -75.15 0.995871 -75.15 0.088981 -166.6
8.79203000 0.089064 -163.9 0.995864 -75.15 0.995864 -75.15 0.089064 -166.6
8.79204000 0.089147 -163.9 0.995856 -75.16 0.995856 -75.16 0.089147 -166.6
8.79205000 0.089230 -163.9 0.995848 -75.16 0.995848 -75.16 0.089230 -166.6
8.79206000 0.089313 -163.9 0.995841 -75.16 0.995841 -75.16 0.089313 -166.6
8.79207000 0.089396 -163.9 0.995833 -75.17 0.995833 -75.17 0.089396 -166.7
8.79208000 0.089479 -163.9 0.995825 -75.17 0.995825 -75.17 0.089479 -166.7
8.79209000 0.089563 -163.9 0.995817 -75.18 0.995817 -75.18 0.089563 -166.7
8.79210000 0.089646 -163.9 0.995809 -75.18 0.995809 -75.18 0.089646 -166.7
8.79211000 0.089730 -163.9 0.995802 -75.19 0.995802 -75.19 0.089730 -166.7
8.79212000 0.089814 -163.9 0.995794 -75.19 0.995794 -75.19 0.089814 -166.7
8.79213000 0.089898 -163.9 0.995786 -75.20 0.995786 -75.20 0.089898 -166.7
8.79214000 0.089982 -163.9 0.995778 -75.20 0.995778 -75.20 0.089982 -166.7
8.79215000 0.090067 -163.9 0.995770 -75.21 0.995770 -75.21 0.090067 -166.7
8.79216000 0.090151 -163.9 0.995762 -75.21 0.995762 -75.21 0.090151 -166.7
8.79217000 0.090236 -163.9 0.995754 -75.22 0.995754 -75.22 0.090236 -166.7
8.79218000 0.090321 -163.9 0.995746 -75.22 0.995746 -75.22 0.090321 -166.7
8.79219000 0.090406 -163.9 0.995738 -75.23 0.995738 -75.23 0.090406 -166.7
8.79220000 0.090491 -163.9 0.995730 -75.23 0.995730 -75.23 0.090491 -166.7
8.79221000 0.090576 -164.0 0.995722 -75.24 0.995722 -75.24 0.090576 -166.7
8.79222000 0.090662 -164.0 0.995714 -75.24 0.995714 -75.24 0.090662 -166.7
8.79223000 0.090747 -164.0 0.995706 -75.25 0.995706 -75.25 0.090747 -166.7
8.79224000 0.090833 -164.0 0.995698 -75.25 0.995698 -75.25 0.090833 -166.7
8.79225000 0.090919 -164.0 0.995690 -75.26 0.995690 -75.26 0.090919 -166.7
8.79226000 0.091005 -164.0 0.995682 -75.26 0.995682 -75.26 0.091005 -166.7
8.79227000 0.091091 -164.0 0.995673 -75.27 0.995673 -75.27 0.091091 -166.8
8.79228000 0.091178 -164.0 0.995665 -75.27 0.995665 -75.27 0.091178 -166.8
8.79229000 0.091264 -164.0 0.995657 -75.28 0.995657 -75.28 0.091264 -166.8
8.79230000 0.091351 -164.0 0.995649 -75.28 0.995649 -75.28 0.091351 -166.8
8.79231000 0.091438 -164.0 0.995641 -75.29 0.995641 -75.29 0.091438 -166.8
8.79232000 0.091525 -164.0 0.995632 -75.29 0.995632 -75.29 0.091525 -166.8
8.79233000 0.091612 -164.0 0.995624 -75.30 0.995624 -75.30 0.091612 -166.8
8.79234000 0.091699 -164.0 0.995616 -75.30 0.995616 -75.30 0.091699 -166.8
8.79235000 0.091787 -164.0 0.995607 -75.31 0.995607 -75.31 0.091787 -166.8
8.79236000 0.091874 -164.0 0.995599 -75.31 0.995599 -75.31 0.091874 -166.8
8.79237000 0.091962 -164.0 0.995590 -75.32 0.995590 -75.32 0.091962 -166.8
8.79238000 0.092050 -164.0 0.995582 -75.33 0.995582 -75.33 0.092050 -166.8
8.79239000 0.092138 -164.0 0.995574 -75.33 0.995574 -75.33 0.092138 -166.8
8.79240000 0.092226 -164.0 0.995565 -75.34 0.995565 -75.34 0.092226 -166.8
8.79241000 0.092315 -164.1 0.995557 -75.34 0.995557 -75.34 0.092315 -166.8
8.79242000 0.092403 -164.1 0.995548 -75.35 0.995548 -75.35 0.092403 -166.8
8.79243000 0.092492 -164.1 0.995540 -75.35 0.995540 -75.35 0.092492 -166.8
8.79244000 0.092581 -164.1 0.995531 -75.36 0.995531 -75.36 0.092581 -166.8
8.79245000 0.092670 -164.1 0.995522 -75.36 0.995522 -75.36 0.092670 -166.8
8.79246000 0.092759 -164.1 0.995514 -75.37 0.995514 -75.37 0.092759 -166.9
8.79247000 0.092849 -164.1 0.995505 -75.37 0.995505 -75.37 0.092849 -166.9
8.79248000 0.092938 -164.1 0.995496 -75.38 0.995496 -75.38 0.092938 -166.9
8.79249000 0.093028 -164.1 0.995488 -75.38 0.995488 -75.38 0.093028 -166.9
8.79250000 0.093118 -164.1 0.995479 -75.39 0.995479 -75.39 0.093118 -166.9
8.79251000 0.093208 -164.1 0.995470 -75.39 0.995470 -75.39 0.093208 -166.9
8.79252000 0.093298 -164.1 0.995462 -75.40 0.995462 -75.40 0.093298 -166.9
8.79253000 0.093389 -164.1 0.995453 -75.40 0.995453 -75.40 0.093389 -166.9
8.79254000 0.093479 -164.1 0.995444 -75.41 0.995444 -75.41 0.093479 -166.9
8.79255000 0.093570 -164.1 0.995435 -75.41 0.995435 -75.41 0.093570 -166.9
8.79256000 0.093661 -164.1 0.995426 -75.42 0.995426 -75.42 0.093661 -166.9
8.79257000 0.093752 -164.1 0.995417 -75.42 0.995417 -75.42 0.093752 -166.9
8.79258000 0.093843 -164.1 0.995408 -75.43 0.995408 -75.43 0.093843 -166.9
8.79259000 0.093935 -164.2 0.995399 -75.44 0.995399 -75.44 0.093935 -166.9
8.79260000 0.094026 -164.2 0.995391 -75.44 0.995391 -75.44 0.094026 -166.9
8.79261000 0.094118 -164.2 0.995382 -75.45 0.995382 -75.45 0.094118 -166.9
8.79262000 0.094210 -164.2 0.995373 -75.45 0.995373 -75.45 0.094210 -166.9
8.79263000 0.094302 -164.2 0.995363 -75.46 0.995363 -75.46 0.094302 -166.9
8.79264000 0.094394 -164.2 0.995354 -75.46 0.995354 -75.46 0.094394 -167.0
8.79265000 0.094487 -164.2 0.995345 -75.47 0.995345 -75.47 0.094487 -167.0
8.79266000 0.094579 -164.2 0.995336 -75.47 0.995336 -75.47 0.094579 -167.0
8.79267000 0.094672 -164.2 0.995327 -75.48 0.995327 -75.48 0.094672 -167.0
8.79268000 0.094765 -164.2 0.995318 -75.48 0.995318 -75.48 0.094765 -167.0
8.79269000 0.094858 -164.2 0.995309 -75.49 0.995309 -75.49 0.094858 -167.0
8.79270000 0.094951 -164.2 0.995299 -75.49 0.995299 -75.49 0.094951 -167.0
8.79271000 0.095045 -164.2 0.995290 -75.50 0.995290 -75.50 0.095045 -167.0
8.79272000 0.095139 -164.2 0.995281 -75.51 0.995281 -75.51 0.095138 -167.0
8.79273000 0.095232 -164.2 0.995272 -75.51 0.995272 -75.51 0.095232 -167.0
8.79274000 0.095326 -164.2 0.995262 -75.52 0.995262 -75.52 0.095326 -167.0
8.79275000 0.095421 -164.2 0.995253 -75.52 0.995253 -75.52 0.095420 -167.0
8.79276000 0.095515 -164.2 0.995244 -75.53 0.995244 -75.53 0.095515 -167.0
8.79277000 0.095609 -164.3 0.995234 -75.53 0.995234 -75.53 0.095609 -167.0
8.79278000 0.095704 -164.3 0.995225 -75.54 0.995225 -75.54 0.095704 -167.0
8.79279000 0.095799 -164.3 0.995215 -75.54 0.995215 -75.54 0.095799 -167.0
8.79280000 0.095894 -164.3 0.995206 -75.55 0.995206 -75.55 0.095894 -167.0
8.79281000 0.095989 -164.3 0.995196 -75.56 0.995196 -75.56 0.095989 -167.0
8.79282000 0.096085 -164.3 0.995187 -75.56 0.995187 -75.56 0.096085 -167.1
8.79283000 0.096180 -164.3 0.995177 -75.57 0.995177 -75.57 0.096180 -167.1
8.79284000 0.096276 -164.3 0.995167 -75.57 0.995167 -75.57 0.096276 -167.1
8.79285000 0.096372 -164.3 0.995158 -75.58 0.995158 -75.58 0.096372 -167.1
8.79286000 0.096468 -164.3 0.995148 -75.58 0.995148 -75.58 0.096468 -167.1
8.79287000 0.096565 -164.3 0.995139 -75.59 0.995139 -75.59 0.096565 -167.1
8.79288000 0.096661 -164.3 0.995129 -75.59 0.995129 -75.59 0.096661 -167.1
8.79289000 0.096758 -164.3 0.995119 -75.60 0.995119 -75.60 0.096758 -167.1
8.79290000 0.096855 -164.3 0.995109 -75.61 0.995109 -75.61 0.096855 -167.1
8.79291000 0.096952 -164.3 0.995099 -75.61 0.995099 -75.61 0.096952 -167.1
8.79292000 0.097049 -164.3 0.995090 -75.62 0.995090 -75.62 0.097049 -167.1
8.79293000 0.097147 -164.3 0.995080 -75.62 0.995080 -75.62 0.097147 -167.1
8.79294000 0.097244 -164.3 0.995070 -75.63 0.995070 -75.63 0.097244 -167.1
8.79295000 0.097342 -164.4 0.995060 -75.63 0.995060 -75.63 0.097342 -167.1
8.79296000 0.097440 -164.4 0.995050 -75.64 0.995050 -75.64 0.097440 -167.1
8.79297000 0.097538 -164.4 0.995040 -75.65 0.995040 -75.65 0.097538 -167.1
8.79298000 0.097637 -164.4 0.995030 -75.65 0.995030 -75.65 0.097637 -167.1
8.79299000 0.097735 -164.4 0.995020 -75.66 0.995020 -75.66 0.097735 -167.1
8.79300000 0.097834 -164.4 0.995010 -75.66 0.995010 -75.66 0.097834 -167.2
8.79301000 0.097933 -164.4 0.995000 -75.67 0.995000 -75.67 0.097933 -167.2
8.79302000 0.098032 -164.4 0.994990 -75.67 0.994990 -75.67 0.098032 -167.2
8.79303000 0.098132 -164.4 0.994980 -75.68 0.994980 -75.68 0.098131 -167.2
8.79304000 0.098231 -164.4 0.994969 -75.69 0.994969 -75.69 0.098231 -167.2
8.79305000 0.098331 -164.4 0.994959 -75.69 0.994959 -75.69 0.098331 -167.2
8.79306000 0.098431 -164.4 0.994949 -75.70 0.994949 -75.70 0.098431 -167.2
8.79307000 0.098531 -164.4 0.994939 -75.70 0.994939 -75.70 0.098531 -167.2
8.79308000 0.098631 -164.4 0.994928 -75.71 0.994928 -75.71 0.098631 -167.2
8.79309000 0.098732 -164.4 0.994918 -75.72 0.994918 -75.72 0.098732 -167.2
8.79310000 0.098832 -164.4 0.994908 -75.72 0.994908 -75.72 0.098832 -167.2
8.79311000 0.098933 -164.4 0.994897 -75.73 0.994897 -75.73 0.098933 -167.2
8.79312000 0.099034 -164.5 0.994887 -75.73 0.994887 -75.73 0.099034 -167.2
8.79313000 0.099136 -164.5 0.994876 -75.74 0.994876 -75.74 0.099136 -167.2
8.79314000 0.099237 -164.5 0.994866 -75.74 0.994866 -75.74 0.099237 -167.2
8.79315000 0.099339 -164.5 0.994855 -75.75 0.994855 -75.75 0.099339 -167.2
8.79316000 0.099441 -164.5 0.994845 -75.76 0.994845 -75.76 0.099441 -167.2
8.79317000 0.099543 -164.5 0.994834 -75.76 0.994834 -75.76 0.099543 -167.3
8.79318000 0.099645 -164.5 0.994824 -75.77 0.994824 -75.77 0.099645 -167.3
8.79319000 0.099748 -164.5 0.994813 -75.77 0.994813 -75.77 0.099747 -167.3
8.79320000 0.099850 -164.5 0.994802 -75.78 0.994802 -75.78 0.099850 -167.3
8.79321000 0.099953 -164.5 0.994792 -75.79 0.994792 -75.79 0.099953 -167.3
8.79322000 0.100056 -164.5 0.994781 -75.79 0.994781 -75.79 0.100056 -167.3
8.79323000 0.100160 -164.5 0.994770 -75.80 0.994770 -75.80 0.100159 -167.3
8.79324000 0.100263 -164.5 0.994759 -75.80 0.994759 -75.80 0.100263 -167.3
8.79325000 0.100367 -164.5 0.994748 -75.81 0.994748 -75.81 0.100367 -167.3
8.79326000 0.100471 -164.5 0.994738 -75.82 0.994738 -75.82 0.100471 -167.3
8.79327000 0.100575 -164.5 0.994727 -75.82 0.994727 -75.82 0.100575 -167.3
8.79328000 0.100679 -164.6 0.994716 -75.83 0.994716 -75.83 0.100679 -167.3
8.79329000 0.100784 -164.6 0.994705 -75.84 0.994705 -75.84 0.100784 -167.3
8.79330000 0.100888 -164.6 0.994694 -75.84 0.994694 -75.84 0.100888 -167.3
8.79331000 0.100993 -164.6 0.994683 -75.85 0.994683 -75.85 0.100993 -167.3
8.79332000 0.101098 -164.6 0.994672 -75.85 0.994672 -75.85 0.101098 -167.3
8.79333000 0.101204 -164.6 0.994660 -75.86 0.994660 -75.86 0.101204 -167.4
8.79334000 0.101309 -164.6 0.994649 -75.87 0.994649 -75.87 0.101309 -167.4
8.79335000 0.101415 -164.6 0.994638 -75.87 0.994638 -75.87 0.101415 -167.4
8.79336000 0.101521 -164.6 0.994627 -75.88 0.994627 -75.88 0.101521 -167.4
8.79337000 0.101627 -164.6 0.994616 -75.88 0.994616 -75.88 0.101627 -167.4
8.79338000 0.101734 -164.6 0.994604 -75.89 0.994604 -75.89 0.101734 -167.4
8.79339000 0.101840 -164.6 0.994593 -75.90 0.994593 -75.90 0.101840 -167.4
8.79340000 0.101947 -164.6 0.994582 -75.90 0.994582 -75.90 0.101947 -167.4
8.79341000 0.102054 -164.6 0.994570 -75.91 0.994570 -75.91 0.102054 -167.4
8.79342000 0.102162 -164.6 0.994559 -75.92 0.994559 -75.92 0.102161 -167.4
8.79343000 0.102269 -164.6 0.994547 -75.92 0.994547 -75.92 0.102269 -167.4
8.79344000 0.102377 -164.7 0.994536 -75.93 0.994536 -75.93 0.102377 -167.4
8.79345000 0.102485 -164.7 0.994524 -75.93 0.994524 -75.93 0.102485 -167.4
8.79346000 0.102593 -164.7 0.994513 -75.94 0.994513 -75.94 0.102593 -167.4
8.79347000 0.102701 -164.7 0.994501 -75.95 0.994501 -75.95 0.102701 -167.4
8.79348000 0.102810 -164.7 0.994490 -75.95 0.994490 -75.95 0.102810 -167.4
8.79349000 0.102918 -164.7 0.994478 -75.96 0.994478 -75.96 0.102918 -167.5
8.79350000 0.103028 -164.7 0.994466 -75.97 0.994466 -75.97 0.103027 -167.5
8.79351000 0.103137 -164.7 0.994455 -75.97 0.994455 -75.97 0.103137 -167.5
8.79352000 0.103246 -164.7 0.994443 -75.98 0.994443 -75.98 0.103246 -167.5
8.79353000 0.103356 -164.7 0.994431 -75.99 0.994431 -75.99 0.103356 -167.5
8.79354000 0.103466 -164.7 0.994419 -75.99 0.994419 -75.99 0.103466 -167.5
8.79355000 0.103576 -164.7 0.994407 -76.00 0.994407 -76.00 0.103576 -167.5
8.79356000 0.103686 -164.7 0.994395 -76.00 0.994395 -76.00 0.103686 -167.5
8.79357000 0.103797 -164.7 0.994383 -76.01 0.994383 -76.01 0.103797 -167.5
8.79358000 0.103908 -164.7 0.994371 -76.02 0.994371 -76.02 0.103908 -167.5
8.79359000 0.104019 -164.8 0.994359 -76.02 0.994359 -76.02 0.104019 -167.5
8.79360000 0.104130 -164.8 0.994347 -76.03 0.994347 -76.03 0.104130 -167.5
8.79361000 0.104241 -164.8 0.994335 -76.04 0.994335 -76.04 0.104241 -167.5
8.79362000 0.104353 -164.8 0.994323 -76.04 0.994323 -76.04 0.104353 -167.5
8.79363000 0.104465 -164.8 0.994311 -76.05 0.994311 -76.05 0.104465 -167.5
8.79364000 0.104577 -164.8 0.994299 -76.06 0.994299 -76.06 0.104577 -167.6
8.79365000 0.104690 -164.8 0.994286 -76.06 0.994286 -76.06 0.104689 -167.6
8.79366000 0.104802 -164.8 0.994274 -76.07 0.994274 -76.07 0.104802 -167.6
8.79367000 0.104915 -164.8 0.994262 -76.08 0.994262 -76.08 0.104915 -167.6
8.79368000 0.105028 -164.8 0.994249 -76.08 0.994249 -76.08 0.105028 -167.6
8.79369000 0.105141 -164.8 0.994237 -76.09 0.994237 -76.09 0.105141 -167.6
8.79370000 0.105255 -164.8 0.994224 -76.10 0.994224 -76.10 0.105255 -167.6
8.79371000 0.105369 -164.8 0.994212 -76.10 0.994212 -76.10 0.105369 -167.6
8.79372000 0.105483 -164.8 0.994199 -76.11 0.994199 -76.11 0.105483 -167.6
8.79373000 0.105597 -164.8 0.994187 -76.12 0.994187 -76.12 0.105597 -167.6
8.79374000 0.105712 -164.9 0.994174 -76.12 0.994174 -76.12 0.105712 -167.6
8.79375000 0.105826 -164.9 0.994162 -76.13 0.994162 -76.13 0.105826 -167.6
8.79376000 0.105941 -164.9 0.994149 -76.14 0.994149 -76.14 0.105941 -167.6
8.79377000 0.106057 -164.9 0.994136 -76.14 0.994136 -76.14 0.106056 -167.6
8.79378000 0.106172 -164.9 0.994123 -76.15 0.994123 -76.15 0.106172 -167.6
8.79379000 0.106288 -164.9 0.994111 -76.16 0.994111 -76.16 0.106288 -167.7
8.79380000 0.106404 -164.9 0.994098 -76.16 0.994098 -76.16 0.106404 -167.7
8.79381000 0.106520 -164.9 0.994085 -76.17 0.994085 -76.17 0.106520 -167.7
8.79382000 0.106636 -164.9 0.994072 -76.18 0.994072 -76.18 0.106636 -167.7
8.79383000 0.106753 -164.9 0.994059 -76.18 0.994059 -76.18 0.106753 -167.7
8.79384000 0.106870 -164.9 0.994046 -76.19 0.994046 -76.19 0.106870 -167.7
8.79385000 0.106987 -164.9 0.994033 -76.20 0.994033 -76.20 0.106987 -167.7
8.79386000 0.107104 -164.9 0.994020 -76.20 0.994020 -76.20 0.107104 -167.7
8.79387000 0.107222 -164.9 0.994007 -76.21 0.994007 -76.21 0.107222 -167.7
8.79388000 0.107340 -165.0 0.993993 -76.22 0.993993 -76.22 0.107340 -167.7
8.79389000 0.107458 -165.0 0.993980 -76.22 0.993980 -76.22 0.107458 -167.7
8.79390000 0.107576 -165.0 0.993967 -76.23 0.993967 -76.23 0.107576 -167.7
8.79391000 0.107695 -165.0 0.993954 -76.24 0.993954 -76.24 0.107695 -167.7
8.79392000 0.107814 -165.0 0.993940 -76.25 0.993940 -76.25 0.107814 -167.7