! Sonnet Data File
! From: emgraph Version : 16.52
! From Project: Qubit_Xmon2
! Data is De-embedded 
! Data File Written: 10/18/2017 10:22:27
!< HDATE 10/18/2017 09:13:04
!< MDATE 10/18/2017 09:13:04
!< PARAMS
!< Lj = 11.0
!< Gap = 6.0
!< Pwid = 2000.0
!< Airgap = 6.0
!< Width = 10.0
!< END PARAMS
# GHZ S MA R 34.60000
8.79000000 0.108485 -169.1 0.993927 -79.36 0.993927 -79.36 0.108482 -169.8
!< P1 F=8.79 Eeff=(5.1373841 -5.7056e-5) Z0=(34.640405 -9.7526e-5) R=0.0 C=0.0 
!< P2 F=8.79 Eeff=(5.1373841 -5.7056e-5) Z0=(34.640405 -9.7526e-5) R=0.0 C=0.0 
8.79001000 0.108573 -169.1 0.993917 -79.37 0.993917 -79.37 0.108570 -169.8
8.79002000 0.108661 -169.1 0.993907 -79.37 0.993907 -79.37 0.108658 -169.8
8.79003000 0.108749 -169.1 0.993897 -79.38 0.993897 -79.38 0.108746 -169.8
8.79004000 0.108837 -169.1 0.993887 -79.38 0.993887 -79.38 0.108834 -169.8
8.79005000 0.108925 -169.1 0.993878 -79.39 0.993878 -79.39 0.108922 -169.8
8.79006000 0.109014 -169.1 0.993868 -79.40 0.993868 -79.40 0.109010 -169.8
8.79007000 0.109102 -169.1 0.993858 -79.40 0.993858 -79.40 0.109099 -169.8
8.79008000 0.109191 -169.1 0.993848 -79.41 0.993848 -79.41 0.109188 -169.8
8.79009000 0.109280 -169.1 0.993838 -79.41 0.993838 -79.41 0.109276 -169.8
8.79010000 0.109369 -169.2 0.993828 -79.42 0.993828 -79.42 0.109365 -169.9
8.79011000 0.109458 -169.2 0.993818 -79.42 0.993818 -79.42 0.109454 -169.9
8.79012000 0.109547 -169.2 0.993808 -79.43 0.993808 -79.43 0.109543 -169.9
8.79013000 0.109636 -169.2 0.993798 -79.43 0.993798 -79.43 0.109633 -169.9
8.79014000 0.109725 -169.2 0.993787 -79.44 0.993787 -79.44 0.109722 -169.9
8.79015000 0.109815 -169.2 0.993777 -79.44 0.993777 -79.44 0.109811 -169.9
8.79016000 0.109904 -169.2 0.993767 -79.45 0.993767 -79.45 0.109901 -169.9
8.79017000 0.109994 -169.2 0.993757 -79.45 0.993757 -79.45 0.109991 -169.9
8.79018000 0.110084 -169.2 0.993747 -79.46 0.993747 -79.46 0.110081 -169.9
8.79019000 0.110174 -169.2 0.993737 -79.46 0.993737 -79.46 0.110171 -169.9
8.79020000 0.110264 -169.2 0.993726 -79.47 0.993726 -79.47 0.110261 -169.9
8.79021000 0.110355 -169.2 0.993716 -79.47 0.993716 -79.47 0.110351 -169.9
8.79022000 0.110445 -169.2 0.993706 -79.48 0.993706 -79.48 0.110442 -169.9
8.79023000 0.110536 -169.2 0.993695 -79.48 0.993695 -79.48 0.110532 -169.9
8.79024000 0.110626 -169.2 0.993685 -79.49 0.993685 -79.49 0.110623 -169.9
8.79025000 0.110717 -169.2 0.993675 -79.49 0.993675 -79.49 0.110714 -169.9
8.79026000 0.110808 -169.2 0.993664 -79.50 0.993664 -79.50 0.110805 -169.9
8.79027000 0.110899 -169.2 0.993654 -79.51 0.993654 -79.51 0.110896 -170.0
8.79028000 0.110990 -169.2 0.993644 -79.51 0.993644 -79.51 0.110987 -170.0
8.79029000 0.111082 -169.2 0.993633 -79.52 0.993633 -79.52 0.111078 -170.0
8.79030000 0.111173 -169.2 0.993623 -79.52 0.993623 -79.52 0.111170 -170.0
8.79031000 0.111265 -169.3 0.993612 -79.53 0.993612 -79.53 0.111261 -170.0
8.79032000 0.111356 -169.3 0.993602 -79.53 0.993602 -79.53 0.111353 -170.0
8.79033000 0.111448 -169.3 0.993591 -79.54 0.993591 -79.54 0.111445 -170.0
8.79034000 0.111540 -169.3 0.993580 -79.54 0.993580 -79.54 0.111537 -170.0
8.79035000 0.111632 -169.3 0.993570 -79.55 0.993570 -79.55 0.111629 -170.0
8.79036000 0.111725 -169.3 0.993559 -79.55 0.993559 -79.55 0.111721 -170.0
8.79037000 0.111817 -169.3 0.993549 -79.56 0.993549 -79.56 0.111814 -170.0
8.79038000 0.111909 -169.3 0.993538 -79.56 0.993538 -79.56 0.111906 -170.0
8.79039000 0.112002 -169.3 0.993527 -79.57 0.993527 -79.57 0.111999 -170.0
8.79040000 0.112095 -169.3 0.993517 -79.58 0.993517 -79.58 0.112091 -170.0
8.79041000 0.112188 -169.3 0.993506 -79.58 0.993506 -79.58 0.112184 -170.0
8.79042000 0.112281 -169.3 0.993495 -79.59 0.993495 -79.59 0.112277 -170.0
8.79043000 0.112374 -169.3 0.993484 -79.59 0.993484 -79.59 0.112371 -170.0
8.79044000 0.112467 -169.3 0.993473 -79.60 0.993473 -79.60 0.112464 -170.1
8.79045000 0.112561 -169.3 0.993463 -79.60 0.993463 -79.60 0.112557 -170.1
8.79046000 0.112655 -169.3 0.993452 -79.61 0.993452 -79.61 0.112651 -170.1
8.79047000 0.112748 -169.3 0.993441 -79.61 0.993441 -79.61 0.112745 -170.1
8.79048000 0.112842 -169.3 0.993430 -79.62 0.993430 -79.62 0.112839 -170.1
8.79049000 0.112936 -169.3 0.993419 -79.62 0.993419 -79.62 0.112933 -170.1
8.79050000 0.113030 -169.3 0.993408 -79.63 0.993408 -79.63 0.113027 -170.1
8.79051000 0.113125 -169.4 0.993397 -79.64 0.993397 -79.64 0.113121 -170.1
8.79052000 0.113219 -169.4 0.993386 -79.64 0.993386 -79.64 0.113216 -170.1
8.79053000 0.113314 -169.4 0.993375 -79.65 0.993375 -79.65 0.113310 -170.1
8.79054000 0.113408 -169.4 0.993364 -79.65 0.993364 -79.65 0.113405 -170.1
8.79055000 0.113503 -169.4 0.993353 -79.66 0.993353 -79.66 0.113500 -170.1
8.79056000 0.113598 -169.4 0.993342 -79.66 0.993342 -79.66 0.113595 -170.1
8.79057000 0.113693 -169.4 0.993330 -79.67 0.993330 -79.67 0.113690 -170.1
8.79058000 0.113789 -169.4 0.993319 -79.67 0.993319 -79.67 0.113785 -170.1
8.79059000 0.113884 -169.4 0.993308 -79.68 0.993308 -79.68 0.113880 -170.1
8.79060000 0.113980 -169.4 0.993297 -79.69 0.993297 -79.69 0.113976 -170.1
8.79061000 0.114075 -169.4 0.993286 -79.69 0.993286 -79.69 0.114072 -170.2
8.79062000 0.114171 -169.4 0.993274 -79.70 0.993274 -79.70 0.114168 -170.2
8.79063000 0.114267 -169.4 0.993263 -79.70 0.993263 -79.70 0.114264 -170.2
8.79064000 0.114363 -169.4 0.993252 -79.71 0.993252 -79.71 0.114360 -170.2
8.79065000 0.114459 -169.4 0.993240 -79.71 0.993240 -79.71 0.114456 -170.2
8.79066000 0.114556 -169.4 0.993229 -79.72 0.993229 -79.72 0.114552 -170.2
8.79067000 0.114652 -169.4 0.993218 -79.73 0.993218 -79.73 0.114649 -170.2
8.79068000 0.114749 -169.4 0.993206 -79.73 0.993206 -79.73 0.114746 -170.2
8.79069000 0.114846 -169.4 0.993195 -79.74 0.993195 -79.74 0.114842 -170.2
8.79070000 0.114943 -169.5 0.993183 -79.74 0.993183 -79.74 0.114939 -170.2
8.79071000 0.115040 -169.5 0.993172 -79.75 0.993172 -79.75 0.115036 -170.2
8.79072000 0.115137 -169.5 0.993160 -79.75 0.993160 -79.75 0.115134 -170.2
8.79073000 0.115235 -169.5 0.993149 -79.76 0.993149 -79.76 0.115231 -170.2
8.79074000 0.115332 -169.5 0.993137 -79.77 0.993137 -79.77 0.115329 -170.2
8.79075000 0.115430 -169.5 0.993125 -79.77 0.993125 -79.77 0.115426 -170.2
8.79076000 0.115528 -169.5 0.993114 -79.78 0.993114 -79.78 0.115524 -170.2
8.79077000 0.115626 -169.5 0.993102 -79.78 0.993102 -79.78 0.115622 -170.3
8.79078000 0.115724 -169.5 0.993090 -79.79 0.993090 -79.79 0.115720 -170.3
8.79079000 0.115822 -169.5 0.993079 -79.79 0.993079 -79.79 0.115819 -170.3
8.79080000 0.115921 -169.5 0.993067 -79.80 0.993067 -79.80 0.115917 -170.3
8.79081000 0.116019 -169.5 0.993055 -79.81 0.993055 -79.81 0.116016 -170.3
8.79082000 0.116118 -169.5 0.993043 -79.81 0.993043 -79.81 0.116114 -170.3
8.79083000 0.116217 -169.5 0.993031 -79.82 0.993031 -79.82 0.116213 -170.3
8.79084000 0.116316 -169.5 0.993019 -79.82 0.993019 -79.82 0.116312 -170.3
8.79085000 0.116415 -169.5 0.993008 -79.83 0.993008 -79.83 0.116411 -170.3
8.79086000 0.116514 -169.5 0.992996 -79.83 0.992996 -79.83 0.116511 -170.3
8.79087000 0.116614 -169.5 0.992984 -79.84 0.992984 -79.84 0.116610 -170.3
8.79088000 0.116713 -169.5 0.992972 -79.85 0.992972 -79.85 0.116710 -170.3
8.79089000 0.116813 -169.6 0.992960 -79.85 0.992960 -79.85 0.116810 -170.3
8.79090000 0.116913 -169.6 0.992948 -79.86 0.992948 -79.86 0.116909 -170.3
8.79091000 0.117013 -169.6 0.992936 -79.86 0.992936 -79.86 0.117010 -170.3
8.79092000 0.117113 -169.6 0.992923 -79.87 0.992923 -79.87 0.117110 -170.3
8.79093000 0.117214 -169.6 0.992911 -79.88 0.992911 -79.88 0.117210 -170.4
8.79094000 0.117314 -169.6 0.992899 -79.88 0.992899 -79.88 0.117311 -170.4
8.79095000 0.117415 -169.6 0.992887 -79.89 0.992887 -79.89 0.117411 -170.4
8.79096000 0.117516 -169.6 0.992875 -79.89 0.992875 -79.89 0.117512 -170.4
8.79097000 0.117617 -169.6 0.992862 -79.90 0.992862 -79.90 0.117613 -170.4
8.79098000 0.117718 -169.6 0.992850 -79.90 0.992850 -79.90 0.117714 -170.4
8.79099000 0.117819 -169.6 0.992838 -79.91 0.992838 -79.91 0.117816 -170.4
8.79100000 0.117921 -169.6 0.992826 -79.92 0.992826 -79.92 0.117917 -170.4
8.79101000 0.118022 -169.6 0.992813 -79.92 0.992813 -79.92 0.118019 -170.4
8.79102000 0.118124 -169.6 0.992801 -79.93 0.992801 -79.93 0.118120 -170.4
8.79103000 0.118226 -169.6 0.992788 -79.93 0.992788 -79.93 0.118222 -170.4
8.79104000 0.118328 -169.6 0.992776 -79.94 0.992776 -79.94 0.118324 -170.4
8.79105000 0.118430 -169.6 0.992763 -79.95 0.992763 -79.95 0.118427 -170.4
8.79106000 0.118532 -169.6 0.992751 -79.95 0.992751 -79.95 0.118529 -170.4
8.79107000 0.118635 -169.7 0.992738 -79.96 0.992738 -79.96 0.118631 -170.4
8.79108000 0.118738 -169.7 0.992726 -79.96 0.992726 -79.96 0.118734 -170.5
8.79109000 0.118841 -169.7 0.992713 -79.97 0.992713 -79.97 0.118837 -170.5
8.79110000 0.118944 -169.7 0.992701 -79.98 0.992701 -79.98 0.118940 -170.5
8.79111000 0.119047 -169.7 0.992688 -79.98 0.992688 -79.98 0.119043 -170.5
8.79112000 0.119150 -169.7 0.992675 -79.99 0.992675 -79.99 0.119146 -170.5
8.79113000 0.119253 -169.7 0.992662 -79.99 0.992662 -79.99 0.119250 -170.5
8.79114000 0.119357 -169.7 0.992650 -80.00 0.992650 -80.00 0.119353 -170.5
8.79115000 0.119461 -169.7 0.992637 -80.01 0.992637 -80.01 0.119457 -170.5
8.79116000 0.119565 -169.7 0.992624 -80.01 0.992624 -80.01 0.119561 -170.5
8.79117000 0.119669 -169.7 0.992611 -80.02 0.992611 -80.02 0.119665 -170.5
8.79118000 0.119773 -169.7 0.992598 -80.02 0.992598 -80.02 0.119770 -170.5
8.79119000 0.119878 -169.7 0.992585 -80.03 0.992585 -80.03 0.119874 -170.5
8.79120000 0.119982 -169.7 0.992573 -80.04 0.992573 -80.04 0.119979 -170.5
8.79121000 0.120087 -169.7 0.992560 -80.04 0.992560 -80.04 0.120083 -170.5
8.79122000 0.120192 -169.7 0.992547 -80.05 0.992547 -80.05 0.120188 -170.5
8.79123000 0.120297 -169.7 0.992534 -80.06 0.992534 -80.06 0.120293 -170.6
8.79124000 0.120402 -169.8 0.992520 -80.06 0.992520 -80.06 0.120399 -170.6
8.79125000 0.120508 -169.8 0.992507 -80.07 0.992507 -80.07 0.120504 -170.6
8.79126000 0.120613 -169.8 0.992494 -80.07 0.992494 -80.07 0.120610 -170.6
8.79127000 0.120719 -169.8 0.992481 -80.08 0.992481 -80.08 0.120715 -170.6
8.79128000 0.120825 -169.8 0.992468 -80.09 0.992468 -80.09 0.120821 -170.6
8.79129000 0.120931 -169.8 0.992455 -80.09 0.992455 -80.09 0.120927 -170.6
8.79130000 0.121037 -169.8 0.992441 -80.10 0.992441 -80.10 0.121033 -170.6
8.79131000 0.121144 -169.8 0.992428 -80.11 0.992428 -80.11 0.121140 -170.6
8.79132000 0.121250 -169.8 0.992415 -80.11 0.992415 -80.11 0.121246 -170.6
8.79133000 0.121357 -169.8 0.992401 -80.12 0.992401 -80.12 0.121353 -170.6
8.79134000 0.121464 -169.8 0.992388 -80.12 0.992388 -80.12 0.121460 -170.6
8.79135000 0.121571 -169.8 0.992375 -80.13 0.992375 -80.13 0.121567 -170.6
8.79136000 0.121678 -169.8 0.992361 -80.14 0.992361 -80.14 0.121674 -170.6
8.79137000 0.121785 -169.8 0.992348 -80.14 0.992348 -80.14 0.121782 -170.6
8.79138000 0.121893 -169.8 0.992334 -80.15 0.992334 -80.15 0.121889 -170.7
8.79139000 0.122001 -169.8 0.992321 -80.16 0.992321 -80.16 0.121997 -170.7
8.79140000 0.122109 -169.8 0.992307 -80.16 0.992307 -80.16 0.122105 -170.7
8.79141000 0.122217 -169.8 0.992293 -80.17 0.992293 -80.17 0.122213 -170.7
8.79142000 0.122325 -169.9 0.992280 -80.17 0.992280 -80.17 0.122321 -170.7
8.79143000 0.122433 -169.9 0.992266 -80.18 0.992266 -80.18 0.122429 -170.7
8.79144000 0.122542 -169.9 0.992252 -80.19 0.992252 -80.19 0.122538 -170.7
8.79145000 0.122650 -169.9 0.992238 -80.19 0.992238 -80.19 0.122647 -170.7
8.79146000 0.122759 -169.9 0.992225 -80.20 0.992225 -80.20 0.122756 -170.7
8.79147000 0.122868 -169.9 0.992211 -80.21 0.992211 -80.21 0.122865 -170.7
8.79148000 0.122978 -169.9 0.992197 -80.21 0.992197 -80.21 0.122974 -170.7
8.79149000 0.123087 -169.9 0.992183 -80.22 0.992183 -80.22 0.123083 -170.7
8.79150000 0.123197 -169.9 0.992169 -80.23 0.992169 -80.23 0.123193 -170.7
8.79151000 0.123307 -169.9 0.992155 -80.23 0.992155 -80.23 0.123303 -170.7
8.79152000 0.123416 -169.9 0.992141 -80.24 0.992141 -80.24 0.123413 -170.7
8.79153000 0.123527 -169.9 0.992127 -80.24 0.992127 -80.24 0.123523 -170.8
8.79154000 0.123637 -169.9 0.992113 -80.25 0.992113 -80.25 0.123633 -170.8
8.79155000 0.123747 -169.9 0.992099 -80.26 0.992099 -80.26 0.123744 -170.8
8.79156000 0.123858 -169.9 0.992085 -80.26 0.992085 -80.26 0.123854 -170.8
8.79157000 0.123969 -169.9 0.992071 -80.27 0.992071 -80.27 0.123965 -170.8
8.79158000 0.124080 -170.0 0.992056 -80.28 0.992056 -80.28 0.124076 -170.8
8.79159000 0.124191 -170.0 0.992042 -80.28 0.992042 -80.28 0.124187 -170.8
8.79160000 0.124302 -170.0 0.992028 -80.29 0.992028 -80.29 0.124299 -170.8
8.79161000 0.124414 -170.0 0.992014 -80.30 0.992014 -80.30 0.124410 -170.8
8.79162000 0.124526 -170.0 0.991999 -80.30 0.991999 -80.30 0.124522 -170.8
8.79163000 0.124637 -170.0 0.991985 -80.31 0.991985 -80.31 0.124634 -170.8
8.79164000 0.124750 -170.0 0.991970 -80.32 0.991970 -80.32 0.124746 -170.8
8.79165000 0.124862 -170.0 0.991956 -80.32 0.991956 -80.32 0.124858 -170.8
8.79166000 0.124974 -170.0 0.991942 -80.33 0.991942 -80.33 0.124970 -170.8
8.79167000 0.125087 -170.0 0.991927 -80.34 0.991927 -80.34 0.125083 -170.9
8.79168000 0.125200 -170.0 0.991912 -80.34 0.991912 -80.34 0.125196 -170.9
8.79169000 0.125312 -170.0 0.991898 -80.35 0.991898 -80.35 0.125309 -170.9
8.79170000 0.125426 -170.0 0.991883 -80.36 0.991883 -80.36 0.125422 -170.9
8.79171000 0.125539 -170.0 0.991868 -80.36 0.991868 -80.36 0.125535 -170.9
8.79172000 0.125652 -170.0 0.991854 -80.37 0.991854 -80.37 0.125649 -170.9
8.79173000 0.125766 -170.0 0.991839 -80.38 0.991839 -80.38 0.125762 -170.9
8.79174000 0.125880 -170.1 0.991824 -80.38 0.991824 -80.38 0.125876 -170.9
8.79175000 0.125994 -170.1 0.991809 -80.39 0.991809 -80.39 0.125990 -170.9
8.79176000 0.126108 -170.1 0.991795 -80.40 0.991795 -80.40 0.126104 -170.9
8.79177000 0.126223 -170.1 0.991780 -80.40 0.991780 -80.40 0.126219 -170.9
8.79178000 0.126337 -170.1 0.991765 -80.41 0.991765 -80.41 0.126333 -170.9
8.79179000 0.126452 -170.1 0.991750 -80.42 0.991750 -80.42 0.126448 -170.9
8.79180000 0.126567 -170.1 0.991735 -80.42 0.991735 -80.42 0.126563 -170.9
8.79181000 0.126682 -170.1 0.991720 -80.43 0.991720 -80.43 0.126678 -171.0
8.79182000 0.126798 -170.1 0.991705 -80.44 0.991705 -80.44 0.126794 -171.0
8.79183000 0.126913 -170.1 0.991689 -80.44 0.991689 -80.44 0.126909 -171.0
8.79184000 0.127029 -170.1 0.991674 -80.45 0.991674 -80.45 0.127025 -171.0
8.79185000 0.127145 -170.1 0.991659 -80.46 0.991659 -80.46 0.127141 -171.0
8.79186000 0.127261 -170.1 0.991644 -80.46 0.991644 -80.46 0.127257 -171.0
8.79187000 0.127377 -170.1 0.991628 -80.47 0.991628 -80.47 0.127373 -171.0
8.79188000 0.127493 -170.1 0.991613 -80.48 0.991613 -80.48 0.127490 -171.0
8.79189000 0.127610 -170.1 0.991598 -80.48 0.991598 -80.48 0.127606 -171.0
8.79190000 0.127727 -170.2 0.991582 -80.49 0.991582 -80.49 0.127723 -171.0
8.79191000 0.127844 -170.2 0.991567 -80.50 0.991567 -80.50 0.127840 -171.0
8.79192000 0.127961 -170.2 0.991551 -80.50 0.991551 -80.50 0.127957 -171.0
8.79193000 0.128079 -170.2 0.991536 -80.51 0.991536 -80.51 0.128075 -171.0
8.79194000 0.128196 -170.2 0.991520 -80.52 0.991520 -80.52 0.128192 -171.1
8.79195000 0.128314 -170.2 0.991505 -80.52 0.991505 -80.52 0.128310 -171.1
8.79196000 0.128432 -170.2 0.991489 -80.53 0.991489 -80.53 0.128428 -171.1
8.79197000 0.128550 -170.2 0.991473 -80.54 0.991473 -80.54 0.128546 -171.1
8.79198000 0.128669 -170.2 0.991458 -80.55 0.991458 -80.55 0.128665 -171.1
8.79199000 0.128787 -170.2 0.991442 -80.55 0.991442 -80.55 0.128783 -171.1
8.79200000 0.128906 -170.2 0.991426 -80.56 0.991426 -80.56 0.128902 -171.1
8.79201000 0.129025 -170.2 0.991410 -80.57 0.991410 -80.57 0.129021 -171.1
8.79202000 0.129144 -170.2 0.991394 -80.57 0.991394 -80.57 0.129140 -171.1
8.79203000 0.129263 -170.2 0.991379 -80.58 0.991379 -80.58 0.129260 -171.1
8.79204000 0.129383 -170.2 0.991363 -80.59 0.991363 -80.59 0.129379 -171.1
8.79205000 0.129503 -170.3 0.991347 -80.59 0.991347 -80.59 0.129499 -171.1
8.79206000 0.129623 -170.3 0.991330 -80.60 0.991330 -80.60 0.129619 -171.1
8.79207000 0.129743 -170.3 0.991314 -80.61 0.991314 -80.61 0.129739 -171.1
8.79208000 0.129863 -170.3 0.991298 -80.62 0.991298 -80.62 0.129859 -171.2
8.79209000 0.129984 -170.3 0.991282 -80.62 0.991282 -80.62 0.129980 -171.2
8.79210000 0.130104 -170.3 0.991266 -80.63 0.991266 -80.63 0.130101 -171.2
8.79211000 0.130225 -170.3 0.991250 -80.64 0.991250 -80.64 0.130222 -171.2
8.79212000 0.130347 -170.3 0.991233 -80.64 0.991233 -80.64 0.130343 -171.2
8.79213000 0.130468 -170.3 0.991217 -80.65 0.991217 -80.65 0.130464 -171.2
8.79214000 0.130589 -170.3 0.991201 -80.66 0.991201 -80.66 0.130586 -171.2
8.79215000 0.130711 -170.3 0.991184 -80.66 0.991184 -80.66 0.130707 -171.2
8.79216000 0.130833 -170.3 0.991168 -80.67 0.991168 -80.67 0.130829 -171.2
8.79217000 0.130955 -170.3 0.991151 -80.68 0.991151 -80.68 0.130951 -171.2
8.79218000 0.131078 -170.3 0.991135 -80.69 0.991135 -80.69 0.131074 -171.2
8.79219000 0.131200 -170.3 0.991118 -80.69 0.991118 -80.69 0.131196 -171.2
8.79220000 0.131323 -170.4 0.991101 -80.70 0.991101 -80.70 0.131319 -171.2
8.79221000 0.131446 -170.4 0.991085 -80.71 0.991085 -80.71 0.131442 -171.3
8.79222000 0.131569 -170.4 0.991068 -80.71 0.991068 -80.71 0.131565 -171.3
8.79223000 0.131692 -170.4 0.991051 -80.72 0.991051 -80.72 0.131689 -171.3
8.79224000 0.131816 -170.4 0.991034 -80.73 0.991034 -80.73 0.131812 -171.3
8.79225000 0.131940 -170.4 0.991017 -80.74 0.991017 -80.74 0.131936 -171.3
8.79226000 0.132064 -170.4 0.991001 -80.74 0.991001 -80.74 0.132060 -171.3
8.79227000 0.132188 -170.4 0.990984 -80.75 0.990984 -80.75 0.132184 -171.3
8.79228000 0.132312 -170.4 0.990967 -80.76 0.990967 -80.76 0.132308 -171.3
8.79229000 0.132437 -170.4 0.990950 -80.77 0.990950 -80.77 0.132433 -171.3
8.79230000 0.132562 -170.4 0.990932 -80.77 0.990932 -80.77 0.132558 -171.3
8.79231000 0.132687 -170.4 0.990915 -80.78 0.990915 -80.78 0.132683 -171.3
8.79232000 0.132812 -170.4 0.990898 -80.79 0.990898 -80.79 0.132808 -171.3
8.79233000 0.132938 -170.4 0.990881 -80.79 0.990881 -80.79 0.132934 -171.3
8.79234000 0.133063 -170.4 0.990864 -80.80 0.990864 -80.80 0.133059 -171.4
8.79235000 0.133189 -170.5 0.990846 -80.81 0.990846 -80.81 0.133185 -171.4
8.79236000 0.133315 -170.5 0.990829 -80.82 0.990829 -80.82 0.133311 -171.4
8.79237000 0.133442 -170.5 0.990812 -80.82 0.990812 -80.82 0.133438 -171.4
8.79238000 0.133568 -170.5 0.990794 -80.83 0.990794 -80.83 0.133564 -171.4
8.79239000 0.133695 -170.5 0.990777 -80.84 0.990777 -80.84 0.133691 -171.4
8.79240000 0.133822 -170.5 0.990759 -80.85 0.990759 -80.85 0.133818 -171.4
8.79241000 0.133949 -170.5 0.990741 -80.85 0.990741 -80.85 0.133945 -171.4
8.79242000 0.134076 -170.5 0.990724 -80.86 0.990724 -80.86 0.134072 -171.4
8.79243000 0.134204 -170.5 0.990706 -80.87 0.990706 -80.87 0.134200 -171.4
8.79244000 0.134332 -170.5 0.990688 -80.88 0.990688 -80.88 0.134328 -171.4
8.79245000 0.134460 -170.5 0.990671 -80.88 0.990671 -80.88 0.134456 -171.4
8.79246000 0.134588 -170.5 0.990653 -80.89 0.990653 -80.89 0.134584 -171.5
8.79247000 0.134716 -170.5 0.990635 -80.90 0.990635 -80.90 0.134712 -171.5
8.79248000 0.134845 -170.5 0.990617 -80.91 0.990617 -80.91 0.134841 -171.5
8.79249000 0.134974 -170.6 0.990599 -80.91 0.990599 -80.91 0.134970 -171.5
8.79250000 0.135103 -170.6 0.990581 -80.92 0.990581 -80.92 0.135099 -171.5
8.79251000 0.135232 -170.6 0.990563 -80.93 0.990563 -80.93 0.135228 -171.5
8.79252000 0.135362 -170.6 0.990545 -80.94 0.990545 -80.94 0.135358 -171.5
8.79253000 0.135492 -170.6 0.990527 -80.94 0.990527 -80.94 0.135488 -171.5
8.79254000 0.135622 -170.6 0.990508 -80.95 0.990508 -80.95 0.135618 -171.5
8.79255000 0.135752 -170.6 0.990490 -80.96 0.990490 -80.96 0.135748 -171.5
8.79256000 0.135883 -170.6 0.990472 -80.97 0.990472 -80.97 0.135879 -171.5
8.79257000 0.136013 -170.6 0.990453 -80.97 0.990453 -80.97 0.136009 -171.5
8.79258000 0.136144 -170.6 0.990435 -80.98 0.990435 -80.98 0.136140 -171.6
8.79259000 0.136275 -170.6 0.990417 -80.99 0.990417 -80.99 0.136271 -171.6
8.79260000 0.136407 -170.6 0.990398 -81.00 0.990398 -81.00 0.136403 -171.6
8.79261000 0.136538 -170.6 0.990380 -81.01 0.990380 -81.01 0.136534 -171.6
8.79262000 0.136670 -170.6 0.990361 -81.01 0.990361 -81.01 0.136666 -171.6
8.79263000 0.136802 -170.7 0.990342 -81.02 0.990342 -81.02 0.136798 -171.6
8.79264000 0.136934 -170.7 0.990324 -81.03 0.990324 -81.03 0.136930 -171.6
8.79265000 0.137067 -170.7 0.990305 -81.04 0.990305 -81.04 0.137063 -171.6
8.79266000 0.137200 -170.7 0.990286 -81.04 0.990286 -81.04 0.137195 -171.6
8.79267000 0.137332 -170.7 0.990267 -81.05 0.990267 -81.05 0.137328 -171.6
8.79268000 0.137466 -170.7 0.990248 -81.06 0.990248 -81.06 0.137462 -171.6
8.79269000 0.137599 -170.7 0.990229 -81.07 0.990229 -81.07 0.137595 -171.6
8.79270000 0.137733 -170.7 0.990210 -81.08 0.990210 -81.08 0.137729 -171.6
8.79271000 0.137867 -170.7 0.990191 -81.08 0.990191 -81.08 0.137862 -171.7
8.79272000 0.138001 -170.7 0.990172 -81.09 0.990172 -81.09 0.137997 -171.7
8.79273000 0.138135 -170.7 0.990153 -81.10 0.990153 -81.10 0.138131 -171.7
8.79274000 0.138270 -170.7 0.990134 -81.11 0.990134 -81.11 0.138266 -171.7
8.79275000 0.138404 -170.7 0.990114 -81.11 0.990114 -81.11 0.138400 -171.7
8.79276000 0.138539 -170.8 0.990095 -81.12 0.990095 -81.12 0.138535 -171.7
8.79277000 0.138675 -170.8 0.990076 -81.13 0.990076 -81.13 0.138671 -171.7
8.79278000 0.138810 -170.8 0.990056 -81.14 0.990056 -81.14 0.138806 -171.7
8.79279000 0.138946 -170.8 0.990037 -81.15 0.990037 -81.15 0.138942 -171.7
8.79280000 0.139082 -170.8 0.990017 -81.15 0.990017 -81.15 0.139078 -171.7
8.79281000 0.139218 -170.8 0.989997 -81.16 0.989997 -81.16 0.139214 -171.7
8.79282000 0.139355 -170.8 0.989978 -81.17 0.989978 -81.17 0.139351 -171.8
8.79283000 0.139491 -170.8 0.989958 -81.18 0.989958 -81.18 0.139487 -171.8
8.79284000 0.139628 -170.8 0.989938 -81.19 0.989938 -81.19 0.139624 -171.8
8.79285000 0.139766 -170.8 0.989918 -81.19 0.989918 -81.19 0.139761 -171.8
8.79286000 0.139903 -170.8 0.989899 -81.20 0.989899 -81.20 0.139899 -171.8
8.79287000 0.140041 -170.8 0.989879 -81.21 0.989879 -81.21 0.140037 -171.8
8.79288000 0.140179 -170.8 0.989859 -81.22 0.989859 -81.22 0.140174 -171.8
8.79289000 0.140317 -170.9 0.989839 -81.23 0.989839 -81.23 0.140313 -171.8
8.79290000 0.140455 -170.9 0.989819 -81.23 0.989819 -81.23 0.140451 -171.8
8.79291000 0.140594 -170.9 0.989798 -81.24 0.989798 -81.24 0.140590 -171.8
8.79292000 0.140733 -170.9 0.989778 -81.25 0.989778 -81.25 0.140729 -171.8
8.79293000 0.140872 -170.9 0.989758 -81.26 0.989758 -81.26 0.140868 -171.8
8.79294000 0.141011 -170.9 0.989738 -81.27 0.989738 -81.27 0.141007 -171.9
8.79295000 0.141151 -170.9 0.989717 -81.28 0.989717 -81.28 0.141147 -171.9
8.79296000 0.141291 -170.9 0.989697 -81.28 0.989697 -81.28 0.141287 -171.9
8.79297000 0.141431 -170.9 0.989676 -81.29 0.989676 -81.29 0.141427 -171.9
8.79298000 0.141571 -170.9 0.989656 -81.30 0.989656 -81.30 0.141567 -171.9
8.79299000 0.141712 -170.9 0.989635 -81.31 0.989635 -81.31 0.141708 -171.9
8.79300000 0.141853 -170.9 0.989615 -81.32 0.989615 -81.32 0.141849 -171.9
8.79301000 0.141994 -170.9 0.989594 -81.32 0.989594 -81.32 0.141990 -171.9
8.79302000 0.142135 -171.0 0.989573 -81.33 0.989573 -81.33 0.142131 -171.9
8.79303000 0.142277 -171.0 0.989552 -81.34 0.989552 -81.34 0.142273 -171.9
8.79304000 0.142419 -171.0 0.989531 -81.35 0.989531 -81.35 0.142415 -171.9
8.79305000 0.142561 -171.0 0.989510 -81.36 0.989510 -81.36 0.142557 -172.0
8.79306000 0.142703 -171.0 0.989489 -81.37 0.989489 -81.37 0.142699 -172.0
8.79307000 0.142846 -171.0 0.989468 -81.37 0.989468 -81.37 0.142842 -172.0
8.79308000 0.142989 -171.0 0.989447 -81.38 0.989447 -81.38 0.142985 -172.0
8.79309000 0.143132 -171.0 0.989426 -81.39 0.989426 -81.39 0.143128 -172.0
8.79310000 0.143275 -171.0 0.989405 -81.40 0.989405 -81.40 0.143271 -172.0
8.79311000 0.143419 -171.0 0.989383 -81.41 0.989383 -81.41 0.143415 -172.0
8.79312000 0.143563 -171.0 0.989362 -81.42 0.989362 -81.42 0.143559 -172.0
8.79313000 0.143707 -171.0 0.989341 -81.42 0.989341 -81.42 0.143703 -172.0
8.79314000 0.143852 -171.1 0.989319 -81.43 0.989319 -81.43 0.143847 -172.0
8.79315000 0.143996 -171.1 0.989298 -81.44 0.989298 -81.44 0.143992 -172.0
8.79316000 0.144141 -171.1 0.989276 -81.45 0.989276 -81.45 0.144137 -172.0
8.79317000 0.144287 -171.1 0.989254 -81.46 0.989254 -81.46 0.144282 -172.1
8.79318000 0.144432 -171.1 0.989233 -81.47 0.989233 -81.47 0.144428 -172.1
8.79319000 0.144578 -171.1 0.989211 -81.48 0.989211 -81.48 0.144574 -172.1
8.79320000 0.144724 -171.1 0.989189 -81.48 0.989189 -81.48 0.144720 -172.1
8.79321000 0.144870 -171.1 0.989167 -81.49 0.989167 -81.49 0.144866 -172.1
8.79322000 0.145017 -171.1 0.989145 -81.50 0.989145 -81.50 0.145012 -172.1
8.79323000 0.145163 -171.1 0.989123 -81.51 0.989123 -81.51 0.145159 -172.1
8.79324000 0.145311 -171.1 0.989101 -81.52 0.989101 -81.52 0.145306 -172.1
8.79325000 0.145458 -171.1 0.989079 -81.53 0.989079 -81.53 0.145454 -172.1
8.79326000 0.145606 -171.1 0.989056 -81.54 0.989056 -81.54 0.145601 -172.1
8.79327000 0.145753 -171.2 0.989034 -81.54 0.989034 -81.54 0.145749 -172.1
8.79328000 0.145902 -171.2 0.989012 -81.55 0.989012 -81.55 0.145897 -172.2
8.79329000 0.146050 -171.2 0.988989 -81.56 0.988989 -81.56 0.146046 -172.2
8.79330000 0.146199 -171.2 0.988967 -81.57 0.988967 -81.57 0.146194 -172.2
8.79331000 0.146348 -171.2 0.988944 -81.58 0.988944 -81.58 0.146343 -172.2
8.79332000 0.146497 -171.2 0.988922 -81.59 0.988922 -81.59 0.146493 -172.2
8.79333000 0.146646 -171.2 0.988899 -81.60 0.988899 -81.60 0.146642 -172.2
8.79334000 0.146796 -171.2 0.988876 -81.61 0.988876 -81.61 0.146792 -172.2
8.79335000 0.146946 -171.2 0.988853 -81.61 0.988853 -81.61 0.146942 -172.2
8.79336000 0.147097 -171.2 0.988831 -81.62 0.988831 -81.62 0.147092 -172.2
8.79337000 0.147247 -171.2 0.988808 -81.63 0.988808 -81.63 0.147243 -172.2
8.79338000 0.147398 -171.2 0.988785 -81.64 0.988785 -81.64 0.147394 -172.3
8.79339000 0.147549 -171.3 0.988761 -81.65 0.988761 -81.65 0.147545 -172.3
8.79340000 0.147701 -171.3 0.988738 -81.66 0.988738 -81.66 0.147697 -172.3
8.79341000 0.147853 -171.3 0.988715 -81.67 0.988715 -81.67 0.147848 -172.3
8.79342000 0.148005 -171.3 0.988692 -81.68 0.988692 -81.68 0.148000 -172.3
8.79343000 0.148157 -171.3 0.988668 -81.68 0.988668 -81.68 0.148153 -172.3
8.79344000 0.148309 -171.3 0.988645 -81.69 0.988645 -81.69 0.148305 -172.3
8.79345000 0.148462 -171.3 0.988622 -81.70 0.988622 -81.70 0.148458 -172.3
8.79346000 0.148615 -171.3 0.988598 -81.71 0.988598 -81.71 0.148611 -172.3
8.79347000 0.148769 -171.3 0.988574 -81.72 0.988574 -81.72 0.148765 -172.3
8.79348000 0.148923 -171.3 0.988551 -81.73 0.988551 -81.73 0.148918 -172.3
8.79349000 0.149077 -171.3 0.988527 -81.74 0.988527 -81.74 0.149072 -172.4
8.79350000 0.149231 -171.4 0.988503 -81.75 0.988503 -81.75 0.149227 -172.4
8.79351000 0.149385 -171.4 0.988479 -81.76 0.988479 -81.76 0.149381 -172.4
8.79352000 0.149540 -171.4 0.988455 -81.77 0.988455 -81.77 0.149536 -172.4
8.79353000 0.149695 -171.4 0.988431 -81.77 0.988431 -81.77 0.149691 -172.4
8.79354000 0.149851 -171.4 0.988407 -81.78 0.988407 -81.78 0.149847 -172.4
8.79355000 0.150007 -171.4 0.988383 -81.79 0.988383 -81.79 0.150002 -172.4
8.79356000 0.150163 -171.4 0.988359 -81.80 0.988359 -81.80 0.150158 -172.4
8.79357000 0.150319 -171.4 0.988334 -81.81 0.988334 -81.81 0.150315 -172.4
8.79358000 0.150476 -171.4 0.988310 -81.82 0.988310 -81.82 0.150471 -172.4
8.79359000 0.150632 -171.4 0.988285 -81.83 0.988285 -81.83 0.150628 -172.5
8.79360000 0.150790 -171.4 0.988261 -81.84 0.988261 -81.84 0.150785 -172.5
8.79361000 0.150947 -171.4 0.988236 -81.85 0.988236 -81.85 0.150943 -172.5
8.79362000 0.151105 -171.5 0.988212 -81.86 0.988212 -81.86 0.151101 -172.5
8.79363000 0.151263 -171.5 0.988187 -81.87 0.988187 -81.87 0.151259 -172.5
8.79364000 0.151421 -171.5 0.988162 -81.88 0.988162 -81.88 0.151417 -172.5
8.79365000 0.151580 -171.5 0.988137 -81.89 0.988137 -81.89 0.151576 -172.5
8.79366000 0.151739 -171.5 0.988112 -81.89 0.988112 -81.89 0.151735 -172.5
8.79367000 0.151898 -171.5 0.988087 -81.90 0.988087 -81.90 0.151894 -172.5
8.79368000 0.152058 -171.5 0.988062 -81.91 0.988062 -81.91 0.152053 -172.5
8.79369000 0.152218 -171.5 0.988037 -81.92 0.988037 -81.92 0.152213 -172.5
8.79370000 0.152378 -171.5 0.988012 -81.93 0.988012 -81.93 0.152374 -172.6
8.79371000 0.152538 -171.5 0.987986 -81.94 0.987986 -81.94 0.152534 -172.6
8.79372000 0.152699 -171.5 0.987961 -81.95 0.987961 -81.95 0.152695 -172.6
8.79373000 0.152860 -171.6 0.987935 -81.96 0.987935 -81.96 0.152856 -172.6
8.79374000 0.153022 -171.6 0.987910 -81.97 0.987910 -81.97 0.153017 -172.6
8.79375000 0.153183 -171.6 0.987884 -81.98 0.987884 -81.98 0.153179 -172.6
8.79376000 0.153345 -171.6 0.987858 -81.99 0.987858 -81.99 0.153341 -172.6
8.79377000 0.153508 -171.6 0.987833 -82.00 0.987833 -82.00 0.153503 -172.6
8.79378000 0.153670 -171.6 0.987807 -82.01 0.987807 -82.01 0.153666 -172.6
8.79379000 0.153833 -171.6 0.987781 -82.02 0.987781 -82.02 0.153829 -172.6
8.79380000 0.153997 -171.6 0.987755 -82.03 0.987755 -82.03 0.153992 -172.7
8.79381000 0.154160 -171.6 0.987729 -82.04 0.987729 -82.04 0.154156 -172.7
8.79382000 0.154324 -171.6 0.987702 -82.05 0.987702 -82.05 0.154320 -172.7
8.79383000 0.154488 -171.6 0.987676 -82.06 0.987676 -82.06 0.154484 -172.7
8.79384000 0.154653 -171.7 0.987650 -82.06 0.987650 -82.06 0.154648 -172.7
8.79385000 0.154818 -171.7 0.987623 -82.07 0.987623 -82.07 0.154813 -172.7
8.79386000 0.154983 -171.7 0.987597 -82.08 0.987597 -82.08 0.154978 -172.7
8.79387000 0.155148 -171.7 0.987570 -82.09 0.987570 -82.09 0.155144 -172.7
8.79388000 0.155314 -171.7 0.987544 -82.10 0.987544 -82.10 0.155309 -172.7
8.79389000 0.155480 -171.7 0.987517 -82.11 0.987517 -82.11 0.155475 -172.8
8.79390000 0.155646 -171.7 0.987490 -82.12 0.987490 -82.12 0.155642 -172.8
8.79391000 0.155813 -171.7 0.987463 -82.13 0.987463 -82.13 0.155809 -172.8
8.79392000 0.155980 -171.7 0.987436 -82.14 0.987436 -82.14 0.155976 -172.8