! Sonnet Data File
! From: emgraph Version : 16.52
! From Emgraph Data: Waveguide3
! Data File Written: 09/29/2017 11:43:02
!< HDATE 09/29/2017 11:42:39
!< MDATE 09/29/2017 11:42:39
!< PARAMS
!< Pwid = 45.0
!< gap = 9.0
!< hWid = 15.0
!< END PARAMS
# GHZ S MA R 50.0 !  non standard terminations in data
! TERM 52.50000 0.000000 72.00000 0.000000
6.00000000 0.996061 -116.6 0.082956 -95.68 0.082956 -95.68 0.996546 105.28
!< P1 F=6.0 Eeff=(6.44896202 -2.9765e-5) Z0=(52.1586307 1.20189e-4) R=0.0 C=0.0 
!< P2 F=6.0 Eeff=(6.44722557 -3.1974e-4) Z0=(72.563926 -1.6653e-3) R=0.0 C=0.0 
