! Sonnet Data File
! From: emgraph Version : 16.52
! From Emgraph Data: Waveguide3
! Data File Written: 09/28/2017 21:32:34
!< HDATE 09/28/2017 21:31:27
!< MDATE 09/28/2017 21:31:27
!< PARAMS
!< Pwid = 45.0
!< gap = 9.0
!< hWid = 15.0
!< END PARAMS
# GHZ S MA R 50.0 !  non standard terminations in data
! TERM 52.50000 0.000000 72.00000 0.000000
6.00000000 0.985609 93.759 0.053981 -116.2 0.053981 -116.2 0.998492 -147.4
!< P1 F=6.0 Eeff=(6.44442609 -2.9721e-5) Z0=(52.1412573 1.20216e-4) R=0.0 C=0.0 
!< P2 F=6.0 Eeff=(6.39471783 -7.0626e-5) Z0=(72.7409554 -2.3052e-3) R=0.0 C=0.0 
