! Sonnet Data File
! From: emgraph Version : 16.52
! From Emgraph Data: Waveguide3
! Data File Written: 09/29/2017 11:41:01
!< HDATE 09/29/2017 11:40:30
!< MDATE 09/29/2017 11:40:30
!< PARAMS
!< Pwid = 45.0
!< gap = 9.0
!< hWid = 15.0
!< END PARAMS
# GHZ S MA R 50.0 !  non standard terminations in data
! TERM 52.50000 0.000000 72.00000 0.000000
6.00000000 0.990531 -155.3 0.129765 -129.9 0.129765 -129.9 0.991521 75.599
!< P1 F=6.0 Eeff=(6.44773924 -2.9755e-5) Z0=(52.1549914 1.20185e-4) R=0.0 C=0.0 
!< P2 F=6.0 Eeff=(6.42046967 -2.9928e-4) Z0=(72.6924733 -1.7386e-3) R=0.0 C=0.0 
