! Sonnet Data File
! From: emgraph Version : 16.52
! From Emgraph Data: Waveguide3
! Data File Written: 09/28/2017 21:45:42
!< HDATE 09/28/2017 21:45:04
!< MDATE 09/28/2017 21:45:04
!< PARAMS
!< Pwid = 45.0
!< gap = 9.0
!< hWid = 15.0
!< END PARAMS
# GHZ S MA R 50.0 !  non standard terminations in data
! TERM 52.50000 0.000000 72.00000 0.000000
6.00000000 0.981886 116.26 0.083295 -99.41 0.083295 -99.41 0.996440 -136.2
!< P1 F=6.0 Eeff=(6.44479238 -2.9724e-5) Z0=(52.1433105 1.20211e-4) R=0.0 C=0.0 
!< P2 F=6.0 Eeff=(6.39340243 -8.4186e-5) Z0=(72.7500646 -2.3036e-3) R=0.0 C=0.0 
