! Sonnet Data File
! From: emgraph Version : 16.52
! From Emgraph Data: Waveguide3
! Data File Written: 09/29/2017 14:56:51
!< HDATE 09/29/2017 14:55:28
!< MDATE 09/29/2017 14:55:28
!< PARAMS
!< Pwid = 500.0
!< gap = 9.0
!< hWid = 15.0
!< END PARAMS
# GHZ S MA R 50.0 !  non standard terminations in data
! TERM 51.80000 0.000000 48.60000 0.000000
6.00000000 0.973784 1.9722 0.001756 -66.33 0.001756 -66.33 0.999950 45.238
!< P1 F=6.0 Eeff=(6.44500155 -2.9713e-5) Z0=(51.8029178 1.19675e-4) R=0.0 C=0.0 
!< P2 F=6.0 Eeff=(6.01556591 -6.509e-5) Z0=(48.6748813 -1.1657e-4) R=0.0 C=0.0 
