! Sonnet Data File
! From: emgraph Version : 16.52
! From Emgraph Data: Waveguide3
! Data File Written: 09/29/2017 11:45:03
!< HDATE 09/29/2017 11:43:30
!< MDATE 09/29/2017 11:43:30
!< PARAMS
!< Pwid = 45.0
!< gap = 9.0
!< hWid = 15.0
!< END PARAMS
# GHZ S MA R 50.0 !  non standard terminations in data
! TERM 52.50000 0.000000 72.00000 0.000000
6.00000000 0.997800 -97.28 0.061339 -78.56 0.061339 -78.56 0.998114 120.21
!< P1 F=6.0 Eeff=(6.44907356 -2.9766e-5) Z0=(52.157799 1.20191e-4) R=0.0 C=0.0 
!< P2 F=6.0 Eeff=(6.4686521 -3.2835e-4) Z0=(72.4503899 -1.6349e-3) R=0.0 C=0.0 
