! Sonnet Data File
! From: emgraph Version : 16.52
! From Emgraph Data: Waveguide3
! Data File Written: 09/28/2017 20:20:46
!< HDATE 09/28/2017 20:19:27
!< MDATE 09/28/2017 20:19:27
!< PARAMS
!< Pwid = 45.0
!< gap = 9.0
!< hWid = 15.0
!< END PARAMS
# GHZ S MA R 50.0 !  non standard terminations in data
! TERM 52.20000 0.000000 83.32000 0.000000
6.00000000 0.978055 -163.7 0.118474 61.279 0.118474 61.279 0.992820 107.26
!< P1 F=6.0 Eeff=(6.44507107 -2.9716e-5) Z0=(52.2066881 1.20405e-4) R=0.0 C=0.0 
!< P2 F=6.0 Eeff=(7.12304378 -0.1670731) Z0=(83.327978 -2.1746744) R=0.0 C=0.0 
