! Sonnet Data File
! From: emgraph Version : 16.52
! From Emgraph Data: Waveguide3
! Data File Written: 09/29/2017 09:21:39
!< HDATE 09/29/2017 09:20:39
!< MDATE 09/29/2017 09:20:39
!< PARAMS
!< Pwid = 45.0
!< gap = 9.0
!< hWid = 15.0
!< END PARAMS
# GHZ S MA R 50.0 !  non standard terminations in data
! TERM 52.10000 0.000000 72.80000 0.000000
6.00000000 0.995522 -36.98 7.234e-4 -14.15 7.234e-4 -14.15 0.999969 145.89
!< P1 F=6.0 Eeff=(6.44455693 -2.9723e-5) Z0=(52.141656 1.20213e-4) R=0.0 C=0.0 
!< P2 F=6.0 Eeff=(6.42386262 -2.495e-5) Z0=(72.8180394 -2.0311e-3) R=0.0 C=0.0 
