! Sonnet Data File
! From: emgraph Version : 16.52
! From Emgraph Data: Waveguide3
! Data File Written: 09/29/2017 09:15:50
!< HDATE 09/29/2017 09:15:16
!< MDATE 09/29/2017 09:15:16
!< PARAMS
!< Pwid = 45.0
!< gap = 9.0
!< hWid = 15.0
!< END PARAMS
# GHZ S MA R 50.0 !  non standard terminations in data
! TERM 52.50000 0.000000 72.00000 0.000000
6.00000000 0.991290 36.581 0.001580 -159.4 0.001580 -159.4 0.999983 -177.3
!< P1 F=6.0 Eeff=(6.44539834 -2.973e-5) Z0=(52.1467147 1.20198e-4) R=0.0 C=0.0 
!< P2 F=6.0 Eeff=(6.4047548 -3.4414e-5) Z0=(72.7606226 -2.2524e-3) R=0.0 C=0.0 
