! Sonnet Data File
! From: emgraph Version : 16.52
! From Emgraph Data: Waveguide3
! Data File Written: 09/28/2017 21:30:39
!< HDATE 09/28/2017 21:26:36
!< MDATE 09/28/2017 21:26:36
!< PARAMS
!< Pwid = 45.0
!< gap = 9.0
!< hWid = 15.0
!< END PARAMS
# GHZ S MA R 50.0 !  non standard terminations in data
! TERM 52.14600 0.000000 72.16900 0.000000
6.00000000 0.967206 173.08 0.168129 -58.12 0.168129 -58.12 0.985541 -110.1
!< P1 F=6.0 Eeff=(6.44539492 -2.9728e-5) Z0=(52.1464915 1.20202e-4) R=0.0 C=0.0 
!< P2 F=6.0 Eeff=(6.39105425 -1.1429e-4) Z0=(72.7693746 -2.2726e-3) R=0.0 C=0.0 
