! Sonnet Data File
! From: emgraph Version : 16.52
! From Emgraph Data: Waveguide3
! Data File Written: 09/28/2017 21:38:38
!< HDATE 09/28/2017 21:37:57
!< MDATE 09/28/2017 21:37:57
!< PARAMS
!< Pwid = 45.0
!< gap = 9.0
!< hWid = 15.0
!< END PARAMS
# GHZ S MA R 50.0 !  non standard terminations in data
! TERM 52.50000 0.000000 72.00000 0.000000
6.00000000 0.974702 147.91 0.129356 -76.17 0.129356 -76.17 0.991444 -121.2
!< P1 F=6.0 Eeff=(6.44518017 -2.9727e-5) Z0=(52.145405 1.20205e-4) R=0.0 C=0.0 
!< P2 F=6.0 Eeff=(6.39196102 -1.0167e-4) Z0=(72.7615856 -2.2895e-3) R=0.0 C=0.0 
