! Sonnet Data File
! From: emgraph Version : 16.52
! From Emgraph Data: Waveguide3
! Data File Written: 09/29/2017 11:27:28
!< HDATE 09/29/2017 11:26:52
!< MDATE 09/29/2017 11:26:52
!< PARAMS
!< Pwid = 45.0
!< gap = 9.0
!< hWid = 15.0
!< END PARAMS
# GHZ S MA R 50.0 !  non standard terminations in data
! TERM 52.50000 0.000000 72.00000 0.000000
6.00000000 0.934044 -73.76 0.303438 19.750 0.303438 19.750 0.952379 -66.79
!< P1 F=6.0 Eeff=(6.44513994 -2.9725e-5) Z0=(52.1461871 1.20206e-4) R=0.0 C=0.0 
!< P2 F=6.0 Eeff=(6.38824154 -1.6115e-4) Z0=(72.7906318 -2.1765e-3) R=0.0 C=0.0 
