! Sonnet Data File
! From: emgraph Version : 16.52
! From Emgraph Data: Waveguide3
! Data File Written: 09/28/2017 20:13:20
!< HDATE 09/28/2017 20:12:19
!< MDATE 09/28/2017 20:12:19
!< PARAMS
!< Pwid = 45.0
!< gap = 9.0
!< hWid = 15.0
!< END PARAMS
# GHZ S MA R 50.0 !  non standard terminations in data
! TERM 52.62600 0.000000 84.73200 0.000000
6.00000000 0.981284 -160.0 2.127e-4 60.981 2.127e-4 60.981 0.999984 101.55
!< P1 F=6.0 Eeff=(6.4455026 -2.9708e-5) Z0=(52.6262338 1.21442e-4) R=0.0 C=0.0 
!< P2 F=6.0 Eeff=(6.42994635 -3.0807e-5) Z0=(84.7318571 1.81047e-4) R=0.0 C=0.0 
