! Sonnet Data File
! From: emgraph Version : 16.52
! From Emgraph Data: Waveguide3
! Data File Written: 09/29/2017 11:33:58
!< HDATE 09/29/2017 11:33:23
!< MDATE 09/29/2017 11:33:23
!< PARAMS
!< Pwid = 45.0
!< gap = 9.0
!< hWid = 15.0
!< END PARAMS
# GHZ S MA R 50.0 !  non standard terminations in data
! TERM 52.50000 0.000000 72.00000 0.000000
6.00000000 0.950271 65.513 0.288917 116.87 0.288917 116.87 0.957096 -11.44
!< P1 F=6.0 Eeff=(6.44657726 -2.9739e-5) Z0=(52.1513155 1.20193e-4) R=0.0 C=0.0 
!< P2 F=6.0 Eeff=(6.39158 -2.1919e-4) Z0=(72.8028565 -2.0121e-3) R=0.0 C=0.0 
