! Sonnet Data File
! From: emgraph Version : 16.52
! From Emgraph Data: Waveguide3
! Data File Written: 09/29/2017 11:49:29
!< HDATE 09/29/2017 11:48:45
!< MDATE 09/29/2017 11:48:45
!< PARAMS
!< Pwid = 45.0
!< gap = 9.0
!< hWid = 15.0
!< END PARAMS
# GHZ S MA R 50.0 !  non standard terminations in data
! TERM 52.50000 0.000000 72.00000 0.000000
6.00000000 0.999943 -33.83 0.008358 -24.39 0.008358 -24.39 0.999965 165.06
!< P1 F=6.0 Eeff=(6.45442587 -2.9797e-5) Z0=(52.1450259 1.20147e-4) R=0.0 C=0.0 
!< P2 F=6.0 Eeff=(6.78158593 -3.5801e-4) Z0=(70.7910774 -1.5496e-3) R=0.0 C=0.0 
