! Sonnet Data File
! From: emgraph Version : 16.52
! From Emgraph Data: Waveguide3
! Data File Written: 09/28/2017 21:35:48
!< HDATE 09/28/2017 21:35:20
!< MDATE 09/28/2017 21:35:20
!< PARAMS
!< Pwid = 45.0
!< gap = 9.0
!< hWid = 15.0
!< END PARAMS
# GHZ S MA R 50.0 !  non standard terminations in data
! TERM 52.50000 0.000000 72.00000 0.000000
6.00000000 0.970021 164.57 0.154641 -64.15 0.154641 -64.15 0.987773 -113.7
!< P1 F=6.0 Eeff=(6.44534063 -2.9728e-5) Z0=(52.1462002 1.20203e-4) R=0.0 C=0.0 
!< P2 F=6.0 Eeff=(6.39134786 -1.1013e-4) Z0=(72.766917 -2.2787e-3) R=0.0 C=0.0 
