! Sonnet Data File
! From: emgraph Version : 16.52
! From Emgraph Data: Waveguide3
! Data File Written: 09/29/2017 11:40:03
!< HDATE 09/29/2017 11:39:30
!< MDATE 09/29/2017 11:39:30
!< PARAMS
!< Pwid = 45.0
!< gap = 9.0
!< hWid = 15.0
!< END PARAMS
# GHZ S MA R 50.0 !  non standard terminations in data
! TERM 52.50000 0.000000 72.00000 0.000000
6.00000000 0.986527 -175.4 0.154874 -147.3 0.154874 -147.3 0.987895 60.866
!< P1 F=6.0 Eeff=(6.44710748 -2.9747e-5) Z0=(52.1536535 1.20198e-4) R=0.0 C=0.0 
!< P2 F=6.0 Eeff=(6.41141189 -2.8743e-4) Z0=(72.7282917 -1.7801e-3) R=0.0 C=0.0 
