! Sonnet Data File
! From: emgraph Version : 16.52
! From Emgraph Data: Waveguide3
! Data File Written: 09/28/2017 21:44:31
!< HDATE 09/28/2017 21:43:54
!< MDATE 09/28/2017 21:43:54
!< PARAMS
!< Pwid = 45.0
!< gap = 9.0
!< hWid = 15.0
!< END PARAMS
# GHZ S MA R 50.0 !  non standard terminations in data
! TERM 52.50000 0.000000 72.00000 0.000000
6.00000000 0.980350 123.97 0.094113 -93.70 0.094113 -93.70 0.995462 -132.4
!< P1 F=6.0 Eeff=(6.44491661 -2.9725e-5) Z0=(52.1439211 1.20208e-4) R=0.0 C=0.0 
!< P2 F=6.0 Eeff=(6.39303619 -8.8624e-5) Z0=(72.7530733 -2.3013e-3) R=0.0 C=0.0 
