! Sonnet Data File
! From: emgraph Version : 16.52
! From Emgraph Data: Waveguide3
! Data File Written: 09/28/2017 21:37:27
!< HDATE 09/28/2017 21:36:27
!< MDATE 09/28/2017 21:36:27
!< PARAMS
!< Pwid = 45.0
!< gap = 9.0
!< hWid = 15.0
!< END PARAMS
# GHZ S MA R 50.0 !  non standard terminations in data
! TERM 52.50000 0.000000 72.00000 0.000000
6.00000000 0.972453 156.16 0.141852 -70.20 0.141852 -70.20 0.989712 -117.5
!< P1 F=6.0 Eeff=(6.44526422 -2.9728e-5) Z0=(52.1458124 1.20204e-4) R=0.0 C=0.0 
!< P2 F=6.0 Eeff=(6.39165299 -1.0592e-4) Z0=(72.7642751 -2.2844e-3) R=0.0 C=0.0 
