! Sonnet Data File
! From: emgraph Version : 16.52
! From Emgraph Data: Waveguide3
! Data File Written: 09/29/2017 09:12:34
!< HDATE 09/29/2017 09:11:53
!< MDATE 09/29/2017 09:11:53
!< PARAMS
!< Pwid = 45.0
!< gap = 9.0
!< hWid = 15.0
!< END PARAMS
# GHZ S MA R 50.0 !  non standard terminations in data
! TERM 52.50000 0.000000 72.00000 0.000000
6.00000000 0.987482 79.210 0.037253 -127.2 0.037253 -127.2 0.999272 -154.9
!< P1 F=6.0 Eeff=(6.44572697 -2.9732e-5) Z0=(52.1484654 1.20194e-4) R=0.0 C=0.0 
!< P2 F=6.0 Eeff=(6.3991237 -6.1494e-5) Z0=(72.7624196 -2.3057e-3) R=0.0 C=0.0 
