! Sonnet Data File
! From: emgraph Version : 16.52
! From Emgraph Data: Waveguide3
! Data File Written: 09/29/2017 11:35:12
!< HDATE 09/29/2017 11:34:25
!< MDATE 09/29/2017 11:34:25
!< PARAMS
!< Pwid = 45.0
!< gap = 9.0
!< hWid = 15.0
!< END PARAMS
# GHZ S MA R 50.0 !  non standard terminations in data
! TERM 52.50000 0.000000 72.00000 0.000000
6.00000000 0.959583 93.111 0.263317 137.78 0.263317 137.78 0.964521 2.7418
!< P1 F=6.0 Eeff=(6.44554946 -2.973e-5) Z0=(52.1467566 1.20205e-4) R=0.0 C=0.0 
!< P2 F=6.0 Eeff=(6.39218716 -2.3336e-4) Z0=(72.7892659 -1.9649e-3) R=0.0 C=0.0 
