! Sonnet Data File
! From: emgraph Version : 16.52
! From Emgraph Data: Waveguide3
! Data File Written: 09/29/2017 09:14:52
!< HDATE 09/29/2017 09:14:00
!< MDATE 09/29/2017 09:14:00
!< PARAMS
!< Pwid = 45.0
!< gap = 9.0
!< hWid = 15.0
!< END PARAMS
# GHZ S MA R 50.0 !  non standard terminations in data
! TERM 52.50000 0.000000 72.00000 0.000000
6.00000000 0.990228 50.688 0.010959 -148.9 0.010959 -148.9 0.999922 -169.9
!< P1 F=6.0 Eeff=(6.44552854 -2.9731e-5) Z0=(52.1473991 1.20197e-4) R=0.0 C=0.0 
!< P2 F=6.0 Eeff=(6.40262439 -4.3174e-5) Z0=(72.7600653 -2.2782e-3) R=0.0 C=0.0 
