! Sonnet Data File
! From: emgraph Version : 16.52
! From Emgraph Data: Waveguide3
! Data File Written: 09/28/2017 20:10:24
!< HDATE 09/28/2017 20:09:30
!< MDATE 09/28/2017 20:09:30
!< PARAMS
!< Pwid = 45.0
!< gap = 9.0
!< hWid = 15.0
!< END PARAMS
# GHZ S MA R 50.0 !  non standard terminations in data
! TERM 52.55000 0.000000 83.38000 0.000000
6.00000000 0.981577 -160.5 0.013717 59.972 0.013717 59.972 0.999888 101.65
!< P1 F=6.0 Eeff=(6.44546192 -2.9708e-5) Z0=(52.5521539 1.21271e-4) R=0.0 C=0.0 
!< P2 F=6.0 Eeff=(6.43559805 -1.4715e-3) Z0=(83.3805023 -0.018731) R=0.0 C=0.0 
