! Sonnet Data File
! From: emgraph Version : 16.52
! From Emgraph Data: Waveguide3
! Data File Written: 09/28/2017 21:41:47
!< HDATE 09/28/2017 21:41:09
!< MDATE 09/28/2017 21:41:09
!< PARAMS
!< Pwid = 45.0
!< gap = 9.0
!< hWid = 15.0
!< END PARAMS
# GHZ S MA R 50.0 !  non standard terminations in data
! TERM 52.50000 0.000000 72.00000 0.000000
6.00000000 0.978646 131.81 0.105411 -87.92 0.105411 -87.92 0.994313 -128.7
!< P1 F=6.0 Eeff=(6.4449941 -2.9725e-5) Z0=(52.1444213 1.20207e-4) R=0.0 C=0.0 
!< P2 F=6.0 Eeff=(6.3926397 -9.3017e-5) Z0=(72.7559142 -2.298e-3) R=0.0 C=0.0 
