! Sonnet Data File
! From: emgraph Version : 16.52
! From Emgraph Data: Waveguide3
! Data File Written: 09/29/2017 09:25:22
!< HDATE 09/29/2017 09:24:35
!< MDATE 09/29/2017 09:24:35
!< PARAMS
!< Pwid = 45.0
!< gap = 9.0
!< hWid = 15.0
!< END PARAMS
# GHZ S MA R 50.0 !  non standard terminations in data
! TERM 52.14000 0.000000 72.90000 0.000000
6.00000000 0.995741 -71.32 0.026111 119.22 0.026111 119.22 0.999617 131.15
!< P1 F=6.0 Eeff=(6.44511471 -2.9727e-5) Z0=(52.147434 1.20188e-4) R=0.0 C=0.0 
!< P2 F=6.0 Eeff=(6.44462237 -1.1857e-4) Z0=(72.960009 -2.4215e-3) R=0.0 C=0.0 
