! Sonnet Data File
! From: emgraph Version : 16.52
! From Emgraph Data: Waveguide3
! Data File Written: 09/29/2017 11:42:14
!< HDATE 09/29/2017 11:41:33
!< MDATE 09/29/2017 11:41:33
!< PARAMS
!< Pwid = 45.0
!< gap = 9.0
!< hWid = 15.0
!< END PARAMS
# GHZ S MA R 50.0 !  non standard terminations in data
! TERM 52.50000 0.000000 72.00000 0.000000
6.00000000 0.993675 -135.8 0.105755 -112.7 0.105755 -112.7 0.994378 90.427
!< P1 F=6.0 Eeff=(6.44759109 -2.9753e-5) Z0=(52.1538257 1.202e-4) R=0.0 C=0.0 
!< P2 F=6.0 Eeff=(6.43127514 -3.1003e-4) Z0=(72.6361534 -1.6998e-3) R=0.0 C=0.0 
