! Sonnet Data File
! From: emgraph Version : 16.52
! From Emgraph Data: Waveguide3
! Data File Written: 09/28/2017 21:47:59
!< HDATE 09/28/2017 21:47:08
!< MDATE 09/28/2017 21:47:08
!< PARAMS
!< Pwid = 45.0
!< gap = 9.0
!< hWid = 15.0
!< END PARAMS
# GHZ S MA R 50.0 !  non standard terminations in data
! TERM 52.50000 0.000000 72.00000 0.000000
6.00000000 0.984504 101.16 0.063208 -110.7 0.063208 -110.7 0.997941 -143.7
!< P1 F=6.0 Eeff=(6.44456116 -2.9722e-5) Z0=(52.1420035 1.20214e-4) R=0.0 C=0.0 
!< P2 F=6.0 Eeff=(6.39425181 -7.5183e-5) Z0=(72.7440411 -2.3058e-3) R=0.0 C=0.0 
