! Sonnet Data File
! From: emgraph Version : 16.52
! From Emgraph Data: Waveguide3
! Data File Written: 09/29/2017 15:20:54
!< HDATE 09/29/2017 15:16:55
!< MDATE 09/29/2017 15:16:55
!< PARAMS
!< Pwid = 700.0
!< gap = 9.0
!< hWid = 15.0
!< END PARAMS
# GHZ S MA R 50.0 !  non standard terminations in data
! TERM 51.80000 0.000000 45.00000 0.000000
6.00000000 0.999054 -142.2 3.959e-4 -107.2 3.959e-4 -107.2 0.999990 107.98
!< P1 F=6.0 Eeff=(6.44870132 -2.9759e-5) Z0=(51.81317 1.19416e-4) R=0.0 C=0.0 
!< P2 F=6.0 Eeff=(6.22952704 -7.8718e-5) Z0=(45.0810081 -1.0244e-4) R=0.0 C=0.0 
