! Sonnet Data File
! From: emgraph Version : 16.52
! From Emgraph Data: Resonator2_extremeCap
! Data File Written: 10/09/2017 17:14:46
!< HDATE 10/09/2017 15:24:44
!< MDATE 10/09/2017 15:26:17
!< PARAMS
!< Pwid1 = 2000.0
!< Width = 10.0
!< Gap = 12.0
!< END PARAMS
# GHZ S MA R 51.80000
8.00000000 0.085995 8.7205 0.996292 -77.72 0.996292 -77.72 0.085995 15.838
!< P1 F=8.0 Eeff=(6.44728641 -2.9726e-5) Z0=(51.8015453 1.19512e-4) R=0.0 C=0.0 
!< P2 F=8.0 Eeff=(6.44728641 -2.9726e-5) Z0=(51.8015453 1.19512e-4) R=0.0 C=0.0 
8.00200000 0.086026 8.7058 0.996294 -77.74 0.996294 -77.74 0.086026 15.817
8.00400000 0.086057 8.6912 0.996296 -77.76 0.996296 -77.76 0.086057 15.796
8.00600000 0.086088 8.6766 0.996297 -77.78 0.996297 -77.78 0.086087 15.776
8.00800000 0.086119 8.6620 0.996299 -77.80 0.996299 -77.80 0.086118 15.755
8.01000000 0.086150 8.6473 0.996301 -77.82 0.996301 -77.82 0.086149 15.734
8.01200000 0.086181 8.6327 0.996302 -77.84 0.996302 -77.84 0.086180 15.714
8.01400000 0.086212 8.6180 0.996304 -77.87 0.996304 -77.87 0.086211 15.693
8.01600000 0.086243 8.6033 0.996306 -77.89 0.996306 -77.89 0.086241 15.672
8.01800000 0.086274 8.5886 0.996307 -77.91 0.996307 -77.91 0.086272 15.651
8.02000000 0.086305 8.5738 0.996309 -77.93 0.996309 -77.93 0.086303 15.631
8.02200000 0.086336 8.5590 0.996310 -77.95 0.996310 -77.95 0.086334 15.610
8.02400000 0.086367 8.5442 0.996311 -77.97 0.996311 -77.97 0.086364 15.589
8.02600000 0.086398 8.5294 0.996313 -77.99 0.996313 -77.99 0.086395 15.568
8.02800000 0.086429 8.5146 0.996314 -78.01 0.996314 -78.01 0.086425 15.547
8.03000000 0.086459 8.4997 0.996316 -78.03 0.996316 -78.03 0.086456 15.526
8.03200000 0.086490 8.4849 0.996317 -78.05 0.996317 -78.05 0.086486 15.505
8.03400000 0.086521 8.4700 0.996318 -78.07 0.996318 -78.07 0.086517 15.484
8.03600000 0.086552 8.4551 0.996320 -78.09 0.996320 -78.09 0.086547 15.463
8.03800000 0.086582 8.4401 0.996321 -78.11 0.996321 -78.11 0.086578 15.442
8.04000000 0.086613 8.4252 0.996322 -78.13 0.996322 -78.13 0.086608 15.421
8.04200000 0.086643 8.4102 0.996323 -78.15 0.996323 -78.15 0.086639 15.400
8.04400000 0.086674 8.3952 0.996324 -78.17 0.996324 -78.17 0.086669 15.379
8.04600000 0.086705 8.3802 0.996325 -78.19 0.996325 -78.19 0.086699 15.358
8.04800000 0.086735 8.3652 0.996327 -78.21 0.996327 -78.21 0.086730 15.337
8.05000000 0.086766 8.3501 0.996328 -78.23 0.996328 -78.23 0.086760 15.316
8.05200000 0.086796 8.3350 0.996329 -78.25 0.996329 -78.25 0.086790 15.295
8.05400000 0.086827 8.3200 0.996330 -78.27 0.996330 -78.27 0.086820 15.274
8.05600000 0.086857 8.3049 0.996331 -78.29 0.996331 -78.29 0.086851 15.252
8.05800000 0.086887 8.2897 0.996332 -78.31 0.996332 -78.31 0.086881 15.231
8.06000000 0.086918 8.2746 0.996333 -78.33 0.996333 -78.33 0.086911 15.210
8.06200000 0.086948 8.2594 0.996333 -78.36 0.996333 -78.36 0.086941 15.189
8.06400000 0.086978 8.2443 0.996334 -78.38 0.996334 -78.38 0.086971 15.167
8.06600000 0.087009 8.2291 0.996335 -78.40 0.996335 -78.40 0.087001 15.146
8.06800000 0.087039 8.2139 0.996336 -78.42 0.996336 -78.42 0.087031 15.125
8.07000000 0.087069 8.1986 0.996337 -78.44 0.996337 -78.44 0.087061 15.103
8.07200000 0.087099 8.1834 0.996337 -78.46 0.996337 -78.46 0.087091 15.082
8.07400000 0.087129 8.1681 0.996338 -78.48 0.996338 -78.48 0.087121 15.060
8.07600000 0.087160 8.1529 0.996339 -78.50 0.996339 -78.50 0.087151 15.039
8.07800000 0.087190 8.1376 0.996340 -78.52 0.996340 -78.52 0.087181 15.017
8.08000000 0.087220 8.1223 0.996340 -78.54 0.996340 -78.54 0.087211 14.996
8.08200000 0.087250 8.1069 0.996341 -78.56 0.996341 -78.56 0.087241 14.974
8.08400000 0.087280 8.0916 0.996341 -78.58 0.996341 -78.58 0.087271 14.953
8.08600000 0.087310 8.0762 0.996342 -78.60 0.996342 -78.60 0.087300 14.931
8.08800000 0.087340 8.0609 0.996342 -78.62 0.996342 -78.62 0.087330 14.910
8.09000000 0.087370 8.0455 0.996343 -78.64 0.996343 -78.64 0.087360 14.888
8.09200000 0.087400 8.0301 0.996343 -78.66 0.996343 -78.66 0.087390 14.866
8.09400000 0.087429 8.0147 0.996344 -78.68 0.996344 -78.68 0.087419 14.845
8.09600000 0.087459 7.9992 0.996344 -78.70 0.996344 -78.70 0.087449 14.823
8.09800000 0.087489 7.9838 0.996345 -78.72 0.996345 -78.72 0.087479 14.801
8.10000000 0.087519 7.9683 0.996345 -78.74 0.996345 -78.74 0.087508 14.779
8.10200000 0.087549 7.9529 0.996345 -78.76 0.996345 -78.76 0.087538 14.758
8.10400000 0.087578 7.9374 0.996346 -78.78 0.996346 -78.78 0.087567 14.736
8.10600000 0.087608 7.9219 0.996346 -78.81 0.996346 -78.81 0.087597 14.714
8.10800000 0.087638 7.9064 0.996346 -78.83 0.996346 -78.83 0.087626 14.692
8.11000000 0.087667 7.8909 0.996346 -78.85 0.996346 -78.85 0.087656 14.670
8.11200000 0.087697 7.8753 0.996347 -78.87 0.996347 -78.87 0.087685 14.648
8.11400000 0.087726 7.8598 0.996347 -78.89 0.996347 -78.89 0.087714 14.626
8.11600000 0.087756 7.8442 0.996347 -78.91 0.996347 -78.91 0.087744 14.604
8.11800000 0.087785 7.8286 0.996347 -78.93 0.996347 -78.93 0.087773 14.582
8.12000000 0.087815 7.8130 0.996347 -78.95 0.996347 -78.95 0.087802 14.560
8.12200000 0.087844 7.7974 0.996347 -78.97 0.996347 -78.97 0.087832 14.538
8.12400000 0.087874 7.7818 0.996347 -78.99 0.996347 -78.99 0.087861 14.516
8.12600000 0.087903 7.7662 0.996347 -79.01 0.996347 -79.01 0.087890 14.494
8.12800000 0.087932 7.7506 0.996347 -79.03 0.996347 -79.03 0.087919 14.472
8.13000000 0.087962 7.7349 0.996347 -79.05 0.996347 -79.05 0.087949 14.450
8.13200000 0.087991 7.7193 0.996347 -79.07 0.996347 -79.07 0.087978 14.427
8.13400000 0.088020 7.7036 0.996347 -79.09 0.996347 -79.09 0.088007 14.405
8.13600000 0.088049 7.6879 0.996347 -79.11 0.996347 -79.11 0.088036 14.383
8.13800000 0.088079 7.6723 0.996347 -79.13 0.996347 -79.13 0.088065 14.361
8.14000000 0.088108 7.6566 0.996347 -79.15 0.996347 -79.15 0.088094 14.338
8.14200000 0.088137 7.6409 0.996347 -79.17 0.996347 -79.17 0.088123 14.316
8.14400000 0.088166 7.6251 0.996346 -79.19 0.996346 -79.19 0.088152 14.293
8.14600000 0.088195 7.6094 0.996346 -79.21 0.996346 -79.21 0.088181 14.271
8.14800000 0.088224 7.5937 0.996346 -79.24 0.996346 -79.24 0.088210 14.249
8.15000000 0.088253 7.5779 0.996345 -79.26 0.996345 -79.26 0.088238 14.226
8.15200000 0.088282 7.5622 0.996345 -79.28 0.996345 -79.28 0.088267 14.204
8.15400000 0.088311 7.5464 0.996345 -79.30 0.996345 -79.30 0.088296 14.181
8.15600000 0.088340 7.5307 0.996344 -79.32 0.996344 -79.32 0.088325 14.159
8.15800000 0.088369 7.5149 0.996344 -79.34 0.996344 -79.34 0.088354 14.136
8.16000000 0.088398 7.4991 0.996344 -79.36 0.996344 -79.36 0.088382 14.113
8.16200000 0.088426 7.4833 0.996343 -79.38 0.996343 -79.38 0.088411 14.091
8.16400000 0.088455 7.4675 0.996343 -79.40 0.996343 -79.40 0.088440 14.068
8.16600000 0.088484 7.4517 0.996342 -79.42 0.996342 -79.42 0.088468 14.045
8.16800000 0.088513 7.4359 0.996342 -79.44 0.996342 -79.44 0.088497 14.023
8.17000000 0.088541 7.4201 0.996341 -79.46 0.996341 -79.46 0.088525 14.000
8.17200000 0.088570 7.4042 0.996341 -79.48 0.996341 -79.48 0.088554 13.977
8.17400000 0.088599 7.3884 0.996340 -79.50 0.996340 -79.50 0.088582 13.954
8.17600000 0.088627 7.3726 0.996339 -79.52 0.996339 -79.52 0.088611 13.931
8.17800000 0.088656 7.3567 0.996339 -79.54 0.996339 -79.54 0.088639 13.909
8.18000000 0.088684 7.3409 0.996338 -79.56 0.996338 -79.56 0.088668 13.886
8.18200000 0.088713 7.3250 0.996337 -79.58 0.996337 -79.58 0.088696 13.863
8.18400000 0.088741 7.3092 0.996337 -79.60 0.996337 -79.60 0.088724 13.840
8.18600000 0.088770 7.2933 0.996336 -79.62 0.996336 -79.62 0.088753 13.817
8.18800000 0.088798 7.2774 0.996335 -79.65 0.996335 -79.65 0.088781 13.794
8.19000000 0.088826 7.2616 0.996334 -79.67 0.996334 -79.67 0.088809 13.771
8.19200000 0.088855 7.2457 0.996334 -79.69 0.996334 -79.69 0.088837 13.747
8.19400000 0.088883 7.2298 0.996333 -79.71 0.996333 -79.71 0.088866 13.724
8.19600000 0.088911 7.2139 0.996332 -79.73 0.996332 -79.73 0.088894 13.701
8.19800000 0.088940 7.1980 0.996331 -79.75 0.996331 -79.75 0.088922 13.678
8.20000000 0.088968 7.1821 0.996330 -79.77 0.996330 -79.77 0.088950 13.655
8.20200000 0.088996 7.1662 0.996329 -79.79 0.996329 -79.79 0.088978 13.631
8.20400000 0.089024 7.1503 0.996328 -79.81 0.996328 -79.81 0.089006 13.608
8.20600000 0.089052 7.1344 0.996327 -79.83 0.996327 -79.83 0.089034 13.585
8.20800000 0.089080 7.1185 0.996326 -79.85 0.996326 -79.85 0.089062 13.562
8.21000000 0.089108 7.1026 0.996325 -79.87 0.996325 -79.87 0.089090 13.538
8.21200000 0.089136 7.0867 0.996324 -79.89 0.996324 -79.89 0.089118 13.515
8.21400000 0.089164 7.0708 0.996323 -79.91 0.996323 -79.91 0.089146 13.491
8.21600000 0.089192 7.0549 0.996322 -79.93 0.996322 -79.93 0.089174 13.468
8.21800000 0.089220 7.0390 0.996321 -79.95 0.996321 -79.95 0.089201 13.444
8.22000000 0.089248 7.0231 0.996320 -79.97 0.996320 -79.97 0.089229 13.421
8.22200000 0.089276 7.0072 0.996319 -79.99 0.996319 -79.99 0.089257 13.397
8.22400000 0.089303 6.9913 0.996318 -80.02 0.996318 -80.02 0.089284 13.373
8.22600000 0.089331 6.9753 0.996317 -80.04 0.996317 -80.04 0.089312 13.350
8.22800000 0.089359 6.9594 0.996315 -80.06 0.996315 -80.06 0.089340 13.326
8.23000000 0.089387 6.9435 0.996314 -80.08 0.996314 -80.08 0.089367 13.302
8.23200000 0.089414 6.9276 0.996313 -80.10 0.996313 -80.10 0.089395 13.279
8.23400000 0.089442 6.9117 0.996312 -80.12 0.996312 -80.12 0.089422 13.255
8.23600000 0.089469 6.8958 0.996310 -80.14 0.996310 -80.14 0.089450 13.231
8.23800000 0.089497 6.8799 0.996309 -80.16 0.996309 -80.16 0.089477 13.207
8.24000000 0.089524 6.8640 0.996308 -80.18 0.996308 -80.18 0.089505 13.183
8.24200000 0.089552 6.8481 0.996306 -80.20 0.996306 -80.20 0.089532 13.159
8.24400000 0.089579 6.8322 0.996305 -80.22 0.996305 -80.22 0.089560 13.135
8.24600000 0.089607 6.8163 0.996304 -80.24 0.996304 -80.24 0.089587 13.111
8.24800000 0.089634 6.8004 0.996302 -80.26 0.996302 -80.26 0.089614 13.087
8.25000000 0.089661 6.7845 0.996301 -80.28 0.996301 -80.28 0.089641 13.063
8.25200000 0.089689 6.7686 0.996299 -80.30 0.996299 -80.30 0.089669 13.039
8.25400000 0.089716 6.7527 0.996298 -80.32 0.996298 -80.32 0.089696 13.015
8.25600000 0.089743 6.7369 0.996296 -80.34 0.996296 -80.34 0.089723 12.990
8.25800000 0.089770 6.7210 0.996295 -80.36 0.996295 -80.36 0.089750 12.966
8.26000000 0.089798 6.7051 0.996293 -80.39 0.996293 -80.39 0.089777 12.942
8.26200000 0.089825 6.6893 0.996292 -80.41 0.996292 -80.41 0.089804 12.918
8.26400000 0.089852 6.6734 0.996290 -80.43 0.996290 -80.43 0.089831 12.893
8.26600000 0.089879 6.6576 0.996289 -80.45 0.996289 -80.45 0.089858 12.869
8.26800000 0.089906 6.6417 0.996287 -80.47 0.996287 -80.47 0.089885 12.844
8.27000000 0.089933 6.6259 0.996285 -80.49 0.996285 -80.49 0.089912 12.820
8.27200000 0.089960 6.6100 0.996284 -80.51 0.996284 -80.51 0.089939 12.795
8.27400000 0.089987 6.5942 0.996282 -80.53 0.996282 -80.53 0.089966 12.771
8.27600000 0.090013 6.5784 0.996280 -80.55 0.996280 -80.55 0.089992 12.746
8.27800000 0.090040 6.5626 0.996279 -80.57 0.996279 -80.57 0.090019 12.722
8.28000000 0.090067 6.5468 0.996277 -80.59 0.996277 -80.59 0.090046 12.697
8.28200000 0.090094 6.5310 0.996275 -80.61 0.996275 -80.61 0.090073 12.672
8.28400000 0.090120 6.5152 0.996273 -80.63 0.996273 -80.63 0.090099 12.647
8.28600000 0.090147 6.4994 0.996272 -80.65 0.996272 -80.65 0.090126 12.623
8.28800000 0.090174 6.4837 0.996270 -80.67 0.996270 -80.67 0.090152 12.598
8.29000000 0.090200 6.4679 0.996268 -80.69 0.996268 -80.69 0.090179 12.573
8.29200000 0.090227 6.4522 0.996266 -80.72 0.996266 -80.72 0.090205 12.548
8.29400000 0.090253 6.4364 0.996264 -80.74 0.996264 -80.74 0.090232 12.523
8.29600000 0.090280 6.4207 0.996262 -80.76 0.996262 -80.76 0.090258 12.498
8.29800000 0.090306 6.4050 0.996261 -80.78 0.996261 -80.78 0.090285 12.473
8.30000000 0.090333 6.3893 0.996259 -80.80 0.996259 -80.80 0.090311 12.448
8.30200000 0.090359 6.3736 0.996257 -80.82 0.996257 -80.82 0.090337 12.423
8.30400000 0.090385 6.3579 0.996255 -80.84 0.996255 -80.84 0.090363 12.398
8.30600000 0.090411 6.3422 0.996253 -80.86 0.996253 -80.86 0.090390 12.372
8.30800000 0.090438 6.3266 0.996251 -80.88 0.996251 -80.88 0.090416 12.347
8.31000000 0.090464 6.3109 0.996249 -80.90 0.996249 -80.90 0.090442 12.322
8.31200000 0.090490 6.2953 0.996247 -80.92 0.996247 -80.92 0.090468 12.296
8.31400000 0.090516 6.2797 0.996245 -80.94 0.996245 -80.94 0.090494 12.271
8.31600000 0.090542 6.2641 0.996243 -80.96 0.996243 -80.96 0.090520 12.246
8.31800000 0.090568 6.2485 0.996241 -80.98 0.996241 -80.98 0.090546 12.220
8.32000000 0.090594 6.2329 0.996239 -81.01 0.996239 -81.01 0.090572 12.195
8.32200000 0.090620 6.2173 0.996236 -81.03 0.996236 -81.03 0.090598 12.169
8.32400000 0.090646 6.2018 0.996234 -81.05 0.996234 -81.05 0.090624 12.143
8.32600000 0.090672 6.1863 0.996232 -81.07 0.996232 -81.07 0.090650 12.118
8.32800000 0.090698 6.1708 0.996230 -81.09 0.996230 -81.09 0.090675 12.092
8.33000000 0.090723 6.1553 0.996228 -81.11 0.996228 -81.11 0.090701 12.066
8.33200000 0.090749 6.1398 0.996226 -81.13 0.996226 -81.13 0.090727 12.040
8.33400000 0.090775 6.1243 0.996224 -81.15 0.996224 -81.15 0.090752 12.014
8.33600000 0.090800 6.1089 0.996221 -81.17 0.996221 -81.17 0.090778 11.989
8.33800000 0.090826 6.0935 0.996219 -81.19 0.996219 -81.19 0.090804 11.963
8.34000000 0.090852 6.0781 0.996217 -81.21 0.996217 -81.21 0.090829 11.937
8.34200000 0.090877 6.0627 0.996215 -81.23 0.996215 -81.23 0.090855 11.910
8.34400000 0.090903 6.0473 0.996212 -81.25 0.996212 -81.25 0.090880 11.884
8.34600000 0.090928 6.0320 0.996210 -81.27 0.996210 -81.27 0.090905 11.858
8.34800000 0.090953 6.0166 0.996208 -81.30 0.996208 -81.30 0.090931 11.832
8.35000000 0.090979 6.0013 0.996205 -81.32 0.996205 -81.32 0.090956 11.806
8.35200000 0.091004 5.9860 0.996203 -81.34 0.996203 -81.34 0.090981 11.779
8.35400000 0.091029 5.9708 0.996201 -81.36 0.996201 -81.36 0.091007 11.753
8.35600000 0.091054 5.9555 0.996198 -81.38 0.996198 -81.38 0.091032 11.727
8.35800000 0.091080 5.9403 0.996196 -81.40 0.996196 -81.40 0.091057 11.700
8.36000000 0.091105 5.9251 0.996194 -81.42 0.996194 -81.42 0.091082 11.674
8.36200000 0.091130 5.9100 0.996191 -81.44 0.996191 -81.44 0.091107 11.647
8.36400000 0.091155 5.8948 0.996189 -81.46 0.996189 -81.46 0.091132 11.620
8.36600000 0.091180 5.8797 0.996186 -81.48 0.996186 -81.48 0.091157 11.594
8.36800000 0.091205 5.8646 0.996184 -81.50 0.996184 -81.50 0.091182 11.567
8.37000000 0.091229 5.8495 0.996181 -81.52 0.996181 -81.52 0.091207 11.540
8.37200000 0.091254 5.8345 0.996179 -81.54 0.996179 -81.54 0.091232 11.513
8.37400000 0.091279 5.8194 0.996177 -81.57 0.996177 -81.57 0.091256 11.486
8.37600000 0.091304 5.8044 0.996174 -81.59 0.996174 -81.59 0.091281 11.459
8.37800000 0.091328 5.7895 0.996171 -81.61 0.996171 -81.61 0.091306 11.432
8.38000000 0.091353 5.7745 0.996169 -81.63 0.996169 -81.63 0.091330 11.405
8.38200000 0.091378 5.7596 0.996166 -81.65 0.996166 -81.65 0.091355 11.378
8.38400000 0.091402 5.7447 0.996164 -81.67 0.996164 -81.67 0.091379 11.351
8.38600000 0.091427 5.7299 0.996161 -81.69 0.996161 -81.69 0.091404 11.324
8.38800000 0.091451 5.7150 0.996159 -81.71 0.996159 -81.71 0.091428 11.296
8.39000000 0.091476 5.7002 0.996156 -81.73 0.996156 -81.73 0.091453 11.269
8.39200000 0.091500 5.6855 0.996154 -81.75 0.996154 -81.75 0.091477 11.242
8.39400000 0.091524 5.6707 0.996151 -81.77 0.996151 -81.77 0.091501 11.214
8.39600000 0.091548 5.6560 0.996148 -81.79 0.996148 -81.79 0.091525 11.187
8.39800000 0.091573 5.6414 0.996146 -81.82 0.996146 -81.82 0.091550 11.159
8.40000000 0.091597 5.6267 0.996143 -81.84 0.996143 -81.84 0.091574 11.131
8.40200000 0.091621 5.6121 0.996140 -81.86 0.996140 -81.86 0.091598 11.104
8.40400000 0.091645 5.5976 0.996138 -81.88 0.996138 -81.88 0.091622 11.076
8.40600000 0.091669 5.5830 0.996135 -81.90 0.996135 -81.90 0.091646 11.048
8.40800000 0.091693 5.5685 0.996132 -81.92 0.996132 -81.92 0.091670 11.020
8.41000000 0.091717 5.5540 0.996130 -81.94 0.996130 -81.94 0.091694 10.992
8.41200000 0.091740 5.5396 0.996127 -81.96 0.996127 -81.96 0.091717 10.964
8.41400000 0.091764 5.5252 0.996124 -81.98 0.996124 -81.98 0.091741 10.936
8.41600000 0.091788 5.5109 0.996121 -82.00 0.996121 -82.00 0.091765 10.908
8.41800000 0.091812 5.4965 0.996119 -82.02 0.996119 -82.02 0.091788 10.879
8.42000000 0.091835 5.4823 0.996116 -82.05 0.996116 -82.05 0.091812 10.851
8.42200000 0.091859 5.4680 0.996113 -82.07 0.996113 -82.07 0.091836 10.823
8.42400000 0.091882 5.4538 0.996110 -82.09 0.996110 -82.09 0.091859 10.794
8.42600000 0.091906 5.4397 0.996108 -82.11 0.996108 -82.11 0.091883 10.766
8.42800000 0.091929 5.4255 0.996105 -82.13 0.996105 -82.13 0.091906 10.737
8.43000000 0.091952 5.4115 0.996102 -82.15 0.996102 -82.15 0.091929 10.708
8.43200000 0.091976 5.3974 0.996099 -82.17 0.996099 -82.17 0.091952 10.679
8.43400000 0.091999 5.3834 0.996096 -82.19 0.996096 -82.19 0.091976 10.651
8.43600000 0.092022 5.3695 0.996094 -82.21 0.996094 -82.21 0.091999 10.622
8.43800000 0.092045 5.3556 0.996091 -82.23 0.996091 -82.23 0.092022 10.593
8.44000000 0.092068 5.3417 0.996088 -82.26 0.996088 -82.26 0.092045 10.564
8.44200000 0.092091 5.3279 0.996085 -82.28 0.996085 -82.28 0.092068 10.535
8.44400000 0.092114 5.3141 0.996082 -82.30 0.996082 -82.30 0.092091 10.505
8.44600000 0.092137 5.3004 0.996079 -82.32 0.996079 -82.32 0.092114 10.476
8.44800000 0.092159 5.2867 0.996076 -82.34 0.996076 -82.34 0.092136 10.447
8.45000000 0.092182 5.2731 0.996073 -82.36 0.996073 -82.36 0.092159 10.417
8.45200000 0.092205 5.2595 0.996071 -82.38 0.996071 -82.38 0.092182 10.388
8.45400000 0.092227 5.2460 0.996068 -82.40 0.996068 -82.40 0.092204 10.358
8.45600000 0.092250 5.2325 0.996065 -82.42 0.996065 -82.42 0.092227 10.329
8.45800000 0.092272 5.2191 0.996062 -82.44 0.996062 -82.44 0.092249 10.299
8.46000000 0.092295 5.2057 0.996059 -82.47 0.996059 -82.47 0.092272 10.269
8.46200000 0.092317 5.1924 0.996056 -82.49 0.996056 -82.49 0.092294 10.239
8.46400000 0.092339 5.1791 0.996053 -82.51 0.996053 -82.51 0.092316 10.209
8.46600000 0.092362 5.1659 0.996050 -82.53 0.996050 -82.53 0.092339 10.179
8.46800000 0.092384 5.1527 0.996047 -82.55 0.996047 -82.55 0.092361 10.149
8.47000000 0.092406 5.1396 0.996044 -82.57 0.996044 -82.57 0.092383 10.119
8.47200000 0.092428 5.1266 0.996041 -82.59 0.996041 -82.59 0.092405 10.088
8.47400000 0.092450 5.1136 0.996038 -82.61 0.996038 -82.61 0.092427 10.058
8.47600000 0.092472 5.1007 0.996035 -82.63 0.996035 -82.63 0.092449 10.027
8.47800000 0.092493 5.0878 0.996032 -82.66 0.996032 -82.66 0.092471 9.9967
8.48000000 0.092515 5.0750 0.996029 -82.68 0.996029 -82.68 0.092492 9.9660
8.48200000 0.092537 5.0622 0.996026 -82.70 0.996026 -82.70 0.092514 9.9352
8.48400000 0.092558 5.0496 0.996023 -82.72 0.996023 -82.72 0.092536 9.9043
8.48600000 0.092580 5.0369 0.996020 -82.74 0.996020 -82.74 0.092557 9.8733
8.48800000 0.092601 5.0244 0.996017 -82.76 0.996017 -82.76 0.092579 9.8422
8.49000000 0.092623 5.0119 0.996014 -82.78 0.996014 -82.78 0.092600 9.8111
8.49200000 0.092644 4.9994 0.996011 -82.80 0.996011 -82.80 0.092621 9.7798
8.49400000 0.092665 4.9871 0.996008 -82.83 0.996008 -82.83 0.092642 9.7484
8.49600000 0.092686 4.9748 0.996005 -82.85 0.996005 -82.85 0.092664 9.7170
8.49800000 0.092708 4.9626 0.996002 -82.87 0.996002 -82.87 0.092685 9.6854
8.50000000 0.092729 4.9504 0.995999 -82.89 0.995999 -82.89 0.092706 9.6538
8.50200000 0.092749 4.9383 0.995996 -82.91 0.995996 -82.91 0.092727 9.6220
8.50400000 0.092770 4.9263 0.995993 -82.93 0.995993 -82.93 0.092748 9.5901
8.50600000 0.092791 4.9144 0.995990 -82.95 0.995990 -82.95 0.092768 9.5582
8.50800000 0.092812 4.9025 0.995987 -82.97 0.995987 -82.97 0.092789 9.5261
8.51000000 0.092832 4.8907 0.995984 -83.00 0.995984 -83.00 0.092810 9.4939
8.51200000 0.092853 4.8790 0.995981 -83.02 0.995981 -83.02 0.092830 9.4616
8.51400000 0.092873 4.8673 0.995977 -83.04 0.995977 -83.04 0.092851 9.4292
8.51600000 0.092894 4.8558 0.995974 -83.06 0.995974 -83.06 0.092871 9.3967
8.51800000 0.092914 4.8443 0.995971 -83.08 0.995971 -83.08 0.092891 9.3641
8.52000000 0.092934 4.8329 0.995968 -83.10 0.995968 -83.10 0.092911 9.3313
8.52200000 0.092954 4.8216 0.995965 -83.12 0.995965 -83.12 0.092932 9.2985
8.52400000 0.092974 4.8103 0.995962 -83.14 0.995962 -83.14 0.092952 9.2655
8.52600000 0.092994 4.7992 0.995959 -83.17 0.995959 -83.17 0.092972 9.2324
8.52800000 0.093014 4.7881 0.995956 -83.19 0.995956 -83.19 0.092991 9.1992
8.53000000 0.093034 4.7771 0.995953 -83.21 0.995953 -83.21 0.093011 9.1659
8.53200000 0.093054 4.7662 0.995950 -83.23 0.995950 -83.23 0.093031 9.1325
8.53400000 0.093073 4.7554 0.995947 -83.25 0.995947 -83.25 0.093051 9.0989
8.53600000 0.093093 4.7447 0.995944 -83.27 0.995944 -83.27 0.093070 9.0652
8.53800000 0.093112 4.7341 0.995940 -83.29 0.995940 -83.29 0.093090 9.0314
8.54000000 0.093131 4.7236 0.995937 -83.32 0.995937 -83.32 0.093109 8.9975
8.54200000 0.093151 4.7131 0.995934 -83.34 0.995934 -83.34 0.093128 8.9634
8.54400000 0.093170 4.7028 0.995931 -83.36 0.995931 -83.36 0.093147 8.9292
8.54600000 0.093189 4.6925 0.995928 -83.38 0.995928 -83.38 0.093166 8.8949
8.54800000 0.093208 4.6824 0.995925 -83.40 0.995925 -83.40 0.093185 8.8604
8.55000000 0.093227 4.6723 0.995922 -83.42 0.995922 -83.42 0.093204 8.8258
8.55200000 0.093245 4.6624 0.995919 -83.45 0.995919 -83.45 0.093223 8.7911
8.55400000 0.093264 4.6526 0.995916 -83.47 0.995916 -83.47 0.093241 8.7562
8.55600000 0.093282 4.6428 0.995913 -83.49 0.995913 -83.49 0.093260 8.7212
8.55800000 0.093301 4.6332 0.995910 -83.51 0.995910 -83.51 0.093278 8.6861
8.56000000 0.093319 4.6237 0.995907 -83.53 0.995907 -83.53 0.093297 8.6508
8.56200000 0.093337 4.6142 0.995903 -83.55 0.995903 -83.55 0.093315 8.6153
8.56400000 0.093356 4.6049 0.995900 -83.57 0.995900 -83.57 0.093333 8.5797
8.56600000 0.093374 4.5958 0.995897 -83.60 0.995897 -83.60 0.093351 8.5440
8.56800000 0.093392 4.5867 0.995894 -83.62 0.995894 -83.62 0.093369 8.5081
8.57000000 0.093409 4.5777 0.995891 -83.64 0.995891 -83.64 0.093387 8.4721
8.57200000 0.093427 4.5689 0.995888 -83.66 0.995888 -83.66 0.093405 8.4359
8.57400000 0.093445 4.5602 0.995885 -83.68 0.995885 -83.68 0.093422 8.3995
8.57600000 0.093462 4.5516 0.995882 -83.70 0.995882 -83.70 0.093440 8.3630
8.57800000 0.093479 4.5431 0.995879 -83.73 0.995879 -83.73 0.093457 8.3263
8.58000000 0.093497 4.5347 0.995876 -83.75 0.995876 -83.75 0.093474 8.2895
8.58200000 0.093514 4.5265 0.995873 -83.77 0.995873 -83.77 0.093491 8.2525
8.58400000 0.093531 4.5184 0.995870 -83.79 0.995870 -83.79 0.093509 8.2153
8.58600000 0.093548 4.5104 0.995867 -83.81 0.995867 -83.81 0.093525 8.1779
8.58800000 0.093564 4.5026 0.995864 -83.84 0.995864 -83.84 0.093542 8.1404
8.59000000 0.093581 4.4949 0.995861 -83.86 0.995861 -83.86 0.093559 8.1027
8.59200000 0.093598 4.4873 0.995858 -83.88 0.995858 -83.88 0.093575 8.0649
8.59400000 0.093614 4.4799 0.995855 -83.90 0.995855 -83.90 0.093592 8.0268
8.59600000 0.093630 4.4726 0.995852 -83.92 0.995852 -83.92 0.093608 7.9886
8.59800000 0.093646 4.4655 0.995849 -83.94 0.995849 -83.94 0.093624 7.9502
8.60000000 0.093662 4.4585 0.995846 -83.97 0.995846 -83.97 0.093640 7.9116
8.60200000 0.093678 4.4516 0.995843 -83.99 0.995843 -83.99 0.093656 7.8728
8.60400000 0.093694 4.4449 0.995840 -84.01 0.995840 -84.01 0.093672 7.8338
8.60600000 0.093710 4.4384 0.995837 -84.03 0.995837 -84.03 0.093687 7.7946
8.60800000 0.093725 4.4320 0.995834 -84.05 0.995834 -84.05 0.093703 7.7552
8.61000000 0.093740 4.4258 0.995831 -84.08 0.995831 -84.08 0.093718 7.7156
8.61200000 0.093755 4.4197 0.995828 -84.10 0.995828 -84.10 0.093733 7.6758
8.61400000 0.093771 4.4138 0.995825 -84.12 0.995825 -84.12 0.093748 7.6358
8.61600000 0.093785 4.4080 0.995822 -84.14 0.995822 -84.14 0.093763 7.5956
8.61800000 0.093800 4.4025 0.995819 -84.16 0.995819 -84.16 0.093778 7.5552
8.62000000 0.093815 4.3971 0.995816 -84.19 0.995816 -84.19 0.093793 7.5146
8.62200000 0.093829 4.3918 0.995813 -84.21 0.995813 -84.21 0.093807 7.4737
8.62400000 0.093843 4.3868 0.995810 -84.23 0.995810 -84.23 0.093822 7.4326
8.62600000 0.093858 4.3819 0.995808 -84.25 0.995808 -84.25 0.093836 7.3913
8.62800000 0.093872 4.3772 0.995805 -84.28 0.995805 -84.28 0.093850 7.3498
8.63000000 0.093885 4.3727 0.995802 -84.30 0.995802 -84.30 0.093864 7.3080
8.63200000 0.093899 4.3684 0.995799 -84.32 0.995799 -84.32 0.093877 7.2660
8.63400000 0.093913 4.3642 0.995796 -84.34 0.995796 -84.34 0.093891 7.2237
8.63600000 0.093926 4.3603 0.995793 -84.36 0.995793 -84.36 0.093904 7.1812
8.63800000 0.093939 4.3565 0.995791 -84.39 0.995791 -84.39 0.093917 7.1385
8.64000000 0.093952 4.3530 0.995788 -84.41 0.995788 -84.41 0.093930 7.0955
8.64200000 0.093965 4.3497 0.995785 -84.43 0.995785 -84.43 0.093943 7.0522
8.64400000 0.093978 4.3465 0.995782 -84.45 0.995782 -84.45 0.093956 7.0087
8.64600000 0.093990 4.3436 0.995779 -84.48 0.995779 -84.48 0.093968 6.9649
8.64800000 0.094002 4.3409 0.995777 -84.50 0.995777 -84.50 0.093981 6.9209
8.65000000 0.094014 4.3384 0.995774 -84.52 0.995774 -84.52 0.093993 6.8765
8.65200000 0.094026 4.3361 0.995771 -84.54 0.995771 -84.54 0.094005 6.8319
8.65400000 0.094038 4.3341 0.995769 -84.57 0.995769 -84.57 0.094016 6.7871
8.65600000 0.094050 4.3323 0.995766 -84.59 0.995766 -84.59 0.094028 6.7419
8.65800000 0.094061 4.3307 0.995763 -84.61 0.995763 -84.61 0.094039 6.6964
8.66000000 0.094072 4.3294 0.995761 -84.63 0.995761 -84.63 0.094050 6.6507
8.66200000 0.094083 4.3283 0.995758 -84.66 0.995758 -84.66 0.094061 6.6046
8.66400000 0.094094 4.3274 0.995755 -84.68 0.995755 -84.68 0.094072 6.5582
8.66600000 0.094105 4.3268 0.995753 -84.70 0.995753 -84.70 0.094083 6.5115
8.66800000 0.094115 4.3265 0.995750 -84.73 0.995750 -84.73 0.094093 6.4645
8.67000000 0.094125 4.3264 0.995748 -84.75 0.995748 -84.75 0.094103 6.4172
8.67200000 0.094135 4.3266 0.995745 -84.77 0.995745 -84.77 0.094113 6.3695
8.67400000 0.094145 4.3270 0.995743 -84.79 0.995743 -84.79 0.094123 6.3215
8.67600000 0.094154 4.3277 0.995740 -84.82 0.995740 -84.82 0.094132 6.2732
8.67800000 0.094163 4.3287 0.995738 -84.84 0.995738 -84.84 0.094142 6.2245
8.68000000 0.094172 4.3300 0.995735 -84.86 0.995735 -84.86 0.094151 6.1755
8.68200000 0.094181 4.3316 0.995733 -84.89 0.995733 -84.89 0.094160 6.1261
8.68400000 0.094190 4.3335 0.995730 -84.91 0.995730 -84.91 0.094168 6.0764
8.68600000 0.094198 4.3356 0.995728 -84.93 0.995728 -84.93 0.094176 6.0262
8.68800000 0.094206 4.3381 0.995726 -84.95 0.995726 -84.95 0.094185 5.9757
8.69000000 0.094214 4.3409 0.995723 -84.98 0.995723 -84.98 0.094192 5.9248
8.69200000 0.094222 4.3440 0.995721 -85.00 0.995721 -85.00 0.094200 5.8735
8.69400000 0.094229 4.3474 0.995719 -85.02 0.995719 -85.02 0.094207 5.8219
8.69600000 0.094236 4.3512 0.995716 -85.05 0.995716 -85.05 0.094214 5.7698
8.69800000 0.094243 4.3553 0.995714 -85.07 0.995714 -85.07 0.094221 5.7173
8.70000000 0.094249 4.3597 0.995712 -85.09 0.995712 -85.09 0.094228 5.6643
8.70200000 0.094256 4.3645 0.995710 -85.12 0.995710 -85.12 0.094234 5.6110
8.70400000 0.094262 4.3696 0.995707 -85.14 0.995707 -85.14 0.094240 5.5571
8.70600000 0.094267 4.3751 0.995705 -85.16 0.995705 -85.16 0.094246 5.5029
8.70800000 0.094273 4.3810 0.995703 -85.19 0.995703 -85.19 0.094251 5.4482
8.71000000 0.094278 4.3873 0.995701 -85.21 0.995701 -85.21 0.094256 5.3930
8.71200000 0.094283 4.3939 0.995699 -85.23 0.995699 -85.23 0.094261 5.3374
8.71400000 0.094287 4.4009 0.995697 -85.26 0.995697 -85.26 0.094266 5.2812
8.71600000 0.094291 4.4084 0.995695 -85.28 0.995695 -85.28 0.094270 5.2246
8.71800000 0.094295 4.4162 0.995693 -85.31 0.995693 -85.31 0.094274 5.1675
8.72000000 0.094299 4.4245 0.995691 -85.33 0.995691 -85.33 0.094277 5.1098
8.72200000 0.094302 4.4332 0.995689 -85.35 0.995689 -85.35 0.094281 5.0516
8.72400000 0.094305 4.4423 0.995687 -85.38 0.995687 -85.38 0.094284 4.9929
8.72600000 0.094308 4.4519 0.995685 -85.40 0.995685 -85.40 0.094286 4.9337
8.72800000 0.094310 4.4619 0.995684 -85.42 0.995684 -85.42 0.094289 4.8738
8.73000000 0.094312 4.4724 0.995682 -85.45 0.995682 -85.45 0.094291 4.8135
8.73200000 0.094314 4.4833 0.995680 -85.47 0.995680 -85.47 0.094292 4.7525
8.73400000 0.094315 4.4948 0.995678 -85.50 0.995678 -85.50 0.094293 4.6909
8.73600000 0.094316 4.5067 0.995677 -85.52 0.995677 -85.52 0.094294 4.6288
8.73800000 0.094316 4.5192 0.995675 -85.55 0.995675 -85.55 0.094295 4.5660
8.74000000 0.094316 4.5321 0.995674 -85.57 0.995674 -85.57 0.094295 4.5025
8.74200000 0.094316 4.5456 0.995672 -85.59 0.995672 -85.59 0.094294 4.4385
8.74400000 0.094315 4.5596 0.995671 -85.62 0.995671 -85.62 0.094294 4.3737
8.74600000 0.094314 4.5742 0.995669 -85.64 0.995669 -85.64 0.094293 4.3083
8.74800000 0.094313 4.5894 0.995668 -85.67 0.995668 -85.67 0.094291 4.2422
8.75000000 0.094311 4.6051 0.995666 -85.69 0.995666 -85.69 0.094289 4.1754
8.75200000 0.094309 4.6214 0.995665 -85.72 0.995665 -85.72 0.094287 4.1079
8.75400000 0.094306 4.6383 0.995664 -85.74 0.995664 -85.74 0.094284 4.0396
8.75600000 0.094303 4.6559 0.995662 -85.77 0.995662 -85.77 0.094281 3.9706
8.75800000 0.094299 4.6740 0.995661 -85.79 0.995661 -85.79 0.094277 3.9008
8.76000000 0.094295 4.6929 0.995660 -85.82 0.995660 -85.82 0.094273 3.8302
8.76200000 0.094290 4.7123 0.995659 -85.84 0.995659 -85.84 0.094269 3.7588
8.76400000 0.094285 4.7325 0.995658 -85.87 0.995658 -85.87 0.094264 3.6866
8.76600000 0.094280 4.7534 0.995657 -85.89 0.995657 -85.89 0.094258 3.6135
8.76800000 0.094274 4.7749 0.995656 -85.92 0.995656 -85.92 0.094252 3.5395
8.77000000 0.094267 4.7972 0.995655 -85.94 0.995655 -85.94 0.094245 3.4646
8.77000835 0.094267 4.7973 0.995655 -85.94 0.995655 -85.94 0.094245 3.4643
8.77200000 0.094260 4.8203 0.995654 -85.97 0.995654 -85.97 0.094238 3.3889
8.77400000 0.094252 4.8441 0.995653 -85.99 0.995653 -85.99 0.094231 3.3122
8.77587902 0.094245 4.8672 0.995653 -86.02 0.995653 -86.02 0.094223 3.2392
8.77600000 0.094244 4.8687 0.995653 -86.02 0.995653 -86.02 0.094223 3.2345
8.77800000 0.094236 4.8941 0.995652 -86.04 0.995652 -86.04 0.094214 3.1559
8.78000000 0.094226 4.9204 0.995651 -86.07 0.995651 -86.07 0.094205 3.0762
8.78161517 0.094219 4.9422 0.995651 -86.09 0.995651 -86.09 0.094197 3.0111