! Sonnet Data File
! From: emgraph Version : 16.52
! From Project: Resonator2_cp_cp
! Data is De-embedded 
! Data File Written: 10/06/2017 09:20:30
!< HDATE 10/05/2017 21:11:40
!< MDATE 10/05/2017 21:11:40
!< PARAMS
!< gap = 6.0
!< Length = 400.0
!< Pwid1 = 2000.0
!< Pwid2 = 2000.0
!< END PARAMS
# GHZ S MA R 51.80000
8.80000000 0.007544 -1.612 0.999967 -80.91 0.999967 -80.91 0.007545 19.810
!< P1 F=8.8 Eeff=(6.44679989 -2.9721e-5) Z0=(51.7992624 1.19519e-4) R=0.0 C=0.0 
!< P2 F=8.8 Eeff=(6.44679989 -2.9721e-5) Z0=(51.7992624 1.19519e-4) R=0.0 C=0.0 
8.80020000 0.007557 -1.616 0.999967 -80.91 0.999967 -80.91 0.007558 19.808
8.80040000 0.007569 -1.620 0.999967 -80.91 0.999967 -80.91 0.007570 19.807
8.80060000 0.007581 -1.624 0.999967 -80.92 0.999967 -80.92 0.007582 19.805
8.80080000 0.007594 -1.627 0.999967 -80.92 0.999967 -80.92 0.007595 19.804
8.80100000 0.007606 -1.631 0.999967 -80.92 0.999967 -80.92 0.007607 19.803
8.80120000 0.007619 -1.635 0.999966 -80.92 0.999966 -80.92 0.007620 19.801
8.80140000 0.007632 -1.639 0.999966 -80.93 0.999966 -80.93 0.007633 19.800
8.80160000 0.007644 -1.643 0.999966 -80.93 0.999966 -80.93 0.007645 19.798
8.80180000 0.007657 -1.646 0.999966 -80.93 0.999966 -80.93 0.007658 19.797
8.80200000 0.007670 -1.650 0.999966 -80.93 0.999966 -80.93 0.007671 19.795
8.80220000 0.007683 -1.654 0.999966 -80.94 0.999966 -80.94 0.007684 19.794
8.80240000 0.007696 -1.658 0.999966 -80.94 0.999966 -80.94 0.007697 19.792
8.80260000 0.007709 -1.662 0.999966 -80.94 0.999966 -80.94 0.007710 19.791
8.80280000 0.007722 -1.666 0.999966 -80.94 0.999966 -80.94 0.007723 19.789
8.80300000 0.007735 -1.669 0.999966 -80.95 0.999966 -80.95 0.007736 19.788
8.80320000 0.007748 -1.673 0.999965 -80.95 0.999965 -80.95 0.007749 19.787
8.80340000 0.007762 -1.677 0.999965 -80.95 0.999965 -80.95 0.007762 19.785
8.80360000 0.007775 -1.681 0.999965 -80.96 0.999965 -80.96 0.007776 19.784
8.80380000 0.007788 -1.685 0.999965 -80.96 0.999965 -80.96 0.007789 19.782
8.80400000 0.007802 -1.689 0.999965 -80.96 0.999965 -80.96 0.007803 19.781
8.80420000 0.007815 -1.693 0.999965 -80.96 0.999965 -80.96 0.007816 19.779
8.80440000 0.007829 -1.696 0.999965 -80.97 0.999965 -80.97 0.007830 19.778
8.80460000 0.007843 -1.700 0.999965 -80.97 0.999965 -80.97 0.007844 19.776
8.80480000 0.007856 -1.704 0.999965 -80.97 0.999965 -80.97 0.007857 19.775
8.80500000 0.007870 -1.708 0.999964 -80.97 0.999964 -80.97 0.007871 19.773
8.80520000 0.007884 -1.712 0.999964 -80.98 0.999964 -80.98 0.007885 19.772
8.80540000 0.007898 -1.716 0.999964 -80.98 0.999964 -80.98 0.007899 19.770
8.80560000 0.007912 -1.720 0.999964 -80.98 0.999964 -80.98 0.007913 19.769
8.80580000 0.007926 -1.724 0.999964 -80.98 0.999964 -80.98 0.007927 19.767
8.80600000 0.007941 -1.728 0.999964 -80.99 0.999964 -80.99 0.007941 19.766
8.80620000 0.007955 -1.732 0.999964 -80.99 0.999964 -80.99 0.007956 19.764
8.80640000 0.007969 -1.736 0.999964 -80.99 0.999964 -80.99 0.007970 19.763
8.80660000 0.007984 -1.739 0.999963 -80.99 0.999963 -80.99 0.007984 19.761
8.80680000 0.007998 -1.743 0.999963 -81.00 0.999963 -81.00 0.007999 19.760
8.80700000 0.008013 -1.747 0.999963 -81.00 0.999963 -81.00 0.008013 19.758
8.80720000 0.008027 -1.751 0.999963 -81.00 0.999963 -81.00 0.008028 19.757
8.80740000 0.008042 -1.755 0.999963 -81.01 0.999963 -81.01 0.008043 19.755
8.80760000 0.008057 -1.759 0.999963 -81.01 0.999963 -81.01 0.008058 19.754
8.80780000 0.008072 -1.763 0.999963 -81.01 0.999963 -81.01 0.008072 19.752
8.80800000 0.008087 -1.767 0.999963 -81.01 0.999963 -81.01 0.008087 19.751
8.80820000 0.008102 -1.771 0.999962 -81.02 0.999962 -81.02 0.008102 19.749
8.80840000 0.008117 -1.775 0.999962 -81.02 0.999962 -81.02 0.008118 19.747
8.80860000 0.008132 -1.779 0.999962 -81.02 0.999962 -81.02 0.008133 19.746
8.80880000 0.008147 -1.783 0.999962 -81.02 0.999962 -81.02 0.008148 19.744
8.80900000 0.008163 -1.787 0.999962 -81.03 0.999962 -81.03 0.008163 19.743
8.80920000 0.008178 -1.791 0.999962 -81.03 0.999962 -81.03 0.008179 19.741
8.80940000 0.008194 -1.795 0.999962 -81.03 0.999962 -81.03 0.008194 19.740
8.80960000 0.008209 -1.799 0.999961 -81.03 0.999961 -81.03 0.008210 19.738
8.80980000 0.008225 -1.803 0.999961 -81.04 0.999961 -81.04 0.008226 19.737
8.81000000 0.008241 -1.807 0.999961 -81.04 0.999961 -81.04 0.008242 19.735
8.81020000 0.008257 -1.811 0.999961 -81.04 0.999961 -81.04 0.008257 19.733
8.81040000 0.008273 -1.816 0.999961 -81.05 0.999961 -81.05 0.008273 19.732
8.81060000 0.008289 -1.820 0.999961 -81.05 0.999961 -81.05 0.008289 19.730
8.81080000 0.008305 -1.824 0.999961 -81.05 0.999961 -81.05 0.008306 19.729
8.81100000 0.008321 -1.828 0.999960 -81.05 0.999960 -81.05 0.008322 19.727
8.81120000 0.008337 -1.832 0.999960 -81.06 0.999960 -81.06 0.008338 19.726
8.81140000 0.008354 -1.836 0.999960 -81.06 0.999960 -81.06 0.008354 19.724
8.81160000 0.008370 -1.840 0.999960 -81.06 0.999960 -81.06 0.008371 19.722
8.81180000 0.008387 -1.844 0.999960 -81.07 0.999960 -81.07 0.008388 19.721
8.81200000 0.008403 -1.848 0.999960 -81.07 0.999960 -81.07 0.008404 19.719
8.81220000 0.008420 -1.852 0.999960 -81.07 0.999960 -81.07 0.008421 19.718
8.81240000 0.008437 -1.857 0.999959 -81.07 0.999959 -81.07 0.008438 19.716
8.81260000 0.008454 -1.861 0.999959 -81.08 0.999959 -81.08 0.008455 19.714
8.81280000 0.008471 -1.865 0.999959 -81.08 0.999959 -81.08 0.008472 19.713
8.81300000 0.008488 -1.869 0.999959 -81.08 0.999959 -81.08 0.008489 19.711
8.81320000 0.008506 -1.873 0.999959 -81.08 0.999959 -81.08 0.008506 19.710
8.81340000 0.008523 -1.877 0.999959 -81.09 0.999959 -81.09 0.008524 19.708
8.81360000 0.008540 -1.882 0.999959 -81.09 0.999959 -81.09 0.008541 19.706
8.81380000 0.008558 -1.886 0.999958 -81.09 0.999958 -81.09 0.008559 19.705
8.81400000 0.008576 -1.890 0.999958 -81.10 0.999958 -81.10 0.008576 19.703
8.81420000 0.008593 -1.894 0.999958 -81.10 0.999958 -81.10 0.008594 19.701
8.81440000 0.008611 -1.898 0.999958 -81.10 0.999958 -81.10 0.008612 19.700
8.81460000 0.008629 -1.903 0.999958 -81.10 0.999958 -81.10 0.008630 19.698
8.81480000 0.008647 -1.907 0.999958 -81.11 0.999958 -81.11 0.008648 19.696
8.81500000 0.008665 -1.911 0.999957 -81.11 0.999957 -81.11 0.008666 19.695
8.81520000 0.008684 -1.915 0.999957 -81.11 0.999957 -81.11 0.008685 19.693
8.81540000 0.008702 -1.920 0.999957 -81.12 0.999957 -81.12 0.008703 19.691
8.81560000 0.008721 -1.924 0.999957 -81.12 0.999957 -81.12 0.008721 19.690
8.81580000 0.008739 -1.928 0.999957 -81.12 0.999957 -81.12 0.008740 19.688
8.81600000 0.008758 -1.932 0.999956 -81.12 0.999956 -81.12 0.008759 19.686
8.81620000 0.008777 -1.937 0.999956 -81.13 0.999956 -81.13 0.008778 19.685
8.81640000 0.008796 -1.941 0.999956 -81.13 0.999956 -81.13 0.008797 19.683
8.81660000 0.008815 -1.945 0.999956 -81.13 0.999956 -81.13 0.008816 19.681
8.81680000 0.008834 -1.950 0.999956 -81.14 0.999956 -81.14 0.008835 19.679
8.81700000 0.008853 -1.954 0.999956 -81.14 0.999956 -81.14 0.008854 19.678
8.81720000 0.008873 -1.958 0.999955 -81.14 0.999955 -81.14 0.008874 19.676
8.81740000 0.008892 -1.962 0.999955 -81.15 0.999955 -81.15 0.008893 19.674
8.81760000 0.008912 -1.967 0.999955 -81.15 0.999955 -81.15 0.008913 19.673
8.81780000 0.008932 -1.971 0.999955 -81.15 0.999955 -81.15 0.008933 19.671
8.81800000 0.008952 -1.976 0.999955 -81.15 0.999955 -81.15 0.008952 19.669
8.81820000 0.008972 -1.980 0.999954 -81.16 0.999954 -81.16 0.008972 19.667
8.81840000 0.008992 -1.984 0.999954 -81.16 0.999954 -81.16 0.008993 19.666
8.81860000 0.009012 -1.989 0.999954 -81.16 0.999954 -81.16 0.009013 19.664
8.81880000 0.009032 -1.993 0.999954 -81.17 0.999954 -81.17 0.009033 19.662
8.81900000 0.009053 -1.998 0.999954 -81.17 0.999954 -81.17 0.009054 19.660
8.81920000 0.009074 -2.002 0.999953 -81.17 0.999953 -81.17 0.009074 19.658
8.81940000 0.009094 -2.006 0.999953 -81.18 0.999953 -81.18 0.009095 19.657
8.81960000 0.009115 -2.011 0.999953 -81.18 0.999953 -81.18 0.009116 19.655
8.81980000 0.009136 -2.015 0.999953 -81.18 0.999953 -81.18 0.009137 19.653
8.82000000 0.009158 -2.020 0.999953 -81.18 0.999953 -81.18 0.009158 19.651
8.82020000 0.009179 -2.024 0.999952 -81.19 0.999952 -81.19 0.009180 19.649
8.82040000 0.009200 -2.029 0.999952 -81.19 0.999952 -81.19 0.009201 19.648
8.82060000 0.009222 -2.033 0.999952 -81.19 0.999952 -81.19 0.009223 19.646
8.82080000 0.009244 -2.038 0.999952 -81.20 0.999952 -81.20 0.009244 19.644
8.82100000 0.009266 -2.042 0.999952 -81.20 0.999952 -81.20 0.009266 19.642
8.82120000 0.009288 -2.047 0.999951 -81.20 0.999951 -81.20 0.009288 19.640
8.82140000 0.009310 -2.051 0.999951 -81.21 0.999951 -81.21 0.009310 19.639
8.82160000 0.009332 -2.056 0.999951 -81.21 0.999951 -81.21 0.009333 19.637
8.82180000 0.009354 -2.060 0.999951 -81.21 0.999951 -81.21 0.009355 19.635
8.82200000 0.009377 -2.065 0.999950 -81.22 0.999950 -81.22 0.009378 19.633
8.82220000 0.009400 -2.069 0.999950 -81.22 0.999950 -81.22 0.009401 19.631
8.82240000 0.009423 -2.074 0.999950 -81.22 0.999950 -81.22 0.009423 19.629
8.82260000 0.009446 -2.079 0.999950 -81.22 0.999950 -81.22 0.009446 19.627
8.82280000 0.009469 -2.083 0.999950 -81.23 0.999950 -81.23 0.009470 19.625
8.82300000 0.009492 -2.088 0.999949 -81.23 0.999949 -81.23 0.009493 19.623
8.82320000 0.009516 -2.092 0.999949 -81.23 0.999949 -81.23 0.009516 19.622
8.82340000 0.009539 -2.097 0.999949 -81.24 0.999949 -81.24 0.009540 19.620
8.82360000 0.009563 -2.102 0.999949 -81.24 0.999949 -81.24 0.009564 19.618
8.82380000 0.009587 -2.106 0.999948 -81.24 0.999948 -81.24 0.009588 19.616
8.82400000 0.009611 -2.111 0.999948 -81.25 0.999948 -81.25 0.009612 19.614
8.82420000 0.009636 -2.116 0.999948 -81.25 0.999948 -81.25 0.009636 19.612
8.82440000 0.009660 -2.120 0.999948 -81.25 0.999948 -81.25 0.009661 19.610
8.82460000 0.009685 -2.125 0.999947 -81.26 0.999947 -81.26 0.009685 19.608
8.82480000 0.009709 -2.130 0.999947 -81.26 0.999947 -81.26 0.009710 19.606
8.82500000 0.009734 -2.135 0.999947 -81.26 0.999947 -81.26 0.009735 19.604
8.82520000 0.009760 -2.139 0.999947 -81.27 0.999947 -81.27 0.009760 19.602
8.82540000 0.009785 -2.144 0.999946 -81.27 0.999946 -81.27 0.009786 19.600
8.82560000 0.009810 -2.149 0.999946 -81.27 0.999946 -81.27 0.009811 19.598
8.82580000 0.009836 -2.154 0.999946 -81.28 0.999946 -81.28 0.009837 19.596
8.82600000 0.009862 -2.159 0.999945 -81.28 0.999945 -81.28 0.009863 19.594
8.82620000 0.009888 -2.163 0.999945 -81.28 0.999945 -81.28 0.009889 19.592
8.82640000 0.009914 -2.168 0.999945 -81.29 0.999945 -81.29 0.009915 19.590
8.82660000 0.009941 -2.173 0.999945 -81.29 0.999945 -81.29 0.009941 19.588
8.82680000 0.009967 -2.178 0.999944 -81.29 0.999944 -81.29 0.009968 19.586
8.82700000 0.009994 -2.183 0.999944 -81.30 0.999944 -81.30 0.009995 19.584
8.82720000 0.010021 -2.188 0.999944 -81.30 0.999944 -81.30 0.010022 19.582
8.82740000 0.010048 -2.192 0.999943 -81.30 0.999943 -81.30 0.010049 19.580
8.82760000 0.010076 -2.197 0.999943 -81.31 0.999943 -81.31 0.010076 19.577
8.82780000 0.010103 -2.202 0.999943 -81.31 0.999943 -81.31 0.010104 19.575
8.82800000 0.010131 -2.207 0.999943 -81.31 0.999943 -81.31 0.010132 19.573
8.82820000 0.010159 -2.212 0.999942 -81.32 0.999942 -81.32 0.010160 19.571
8.82840000 0.010187 -2.217 0.999942 -81.32 0.999942 -81.32 0.010188 19.569
8.82860000 0.010215 -2.222 0.999942 -81.32 0.999942 -81.32 0.010216 19.567
8.82880000 0.010244 -2.227 0.999941 -81.33 0.999941 -81.33 0.010245 19.565
8.82900000 0.010273 -2.232 0.999941 -81.33 0.999941 -81.33 0.010274 19.562
8.82920000 0.010302 -2.237 0.999941 -81.33 0.999941 -81.33 0.010303 19.560
8.82940000 0.010331 -2.242 0.999940 -81.34 0.999940 -81.34 0.010332 19.558
8.82960000 0.010361 -2.247 0.999940 -81.34 0.999940 -81.34 0.010361 19.556
8.82980000 0.010390 -2.252 0.999940 -81.34 0.999940 -81.34 0.010391 19.554
8.83000000 0.010420 -2.257 0.999939 -81.35 0.999939 -81.35 0.010421 19.551
8.83020000 0.010450 -2.262 0.999939 -81.35 0.999939 -81.35 0.010451 19.549
8.83040000 0.010481 -2.268 0.999939 -81.36 0.999939 -81.36 0.010481 19.547
8.83060000 0.010511 -2.273 0.999938 -81.36 0.999938 -81.36 0.010512 19.545
8.83080000 0.010542 -2.278 0.999938 -81.36 0.999938 -81.36 0.010543 19.542
8.83100000 0.010573 -2.283 0.999938 -81.37 0.999938 -81.37 0.010574 19.540
8.83120000 0.010604 -2.288 0.999937 -81.37 0.999937 -81.37 0.010605 19.538
8.83140000 0.010636 -2.293 0.999937 -81.37 0.999937 -81.37 0.010637 19.535
8.83160000 0.010668 -2.299 0.999937 -81.38 0.999937 -81.38 0.010669 19.533
8.83180000 0.010700 -2.304 0.999936 -81.38 0.999936 -81.38 0.010701 19.531
8.83200000 0.010732 -2.309 0.999936 -81.38 0.999936 -81.38 0.010733 19.528
8.83220000 0.010765 -2.314 0.999935 -81.39 0.999935 -81.39 0.010765 19.526
8.83240000 0.010797 -2.320 0.999935 -81.39 0.999935 -81.39 0.010798 19.524
8.83260000 0.010830 -2.325 0.999935 -81.40 0.999935 -81.40 0.010831 19.521
8.83280000 0.010864 -2.330 0.999934 -81.40 0.999934 -81.40 0.010865 19.519
8.83300000 0.010897 -2.336 0.999934 -81.40 0.999934 -81.40 0.010898 19.517
8.83320000 0.010931 -2.341 0.999934 -81.41 0.999934 -81.41 0.010932 19.514
8.83340000 0.010965 -2.346 0.999933 -81.41 0.999933 -81.41 0.010966 19.512
8.83360000 0.011000 -2.352 0.999933 -81.41 0.999933 -81.41 0.011001 19.509
8.83380000 0.011035 -2.357 0.999932 -81.42 0.999932 -81.42 0.011035 19.507
8.83400000 0.011069 -2.363 0.999932 -81.42 0.999932 -81.42 0.011070 19.504
8.83420000 0.011105 -2.368 0.999931 -81.43 0.999931 -81.43 0.011106 19.502
8.83440000 0.011140 -2.373 0.999931 -81.43 0.999931 -81.43 0.011141 19.499
8.83460000 0.011176 -2.379 0.999931 -81.43 0.999931 -81.43 0.011177 19.497
8.83480000 0.011212 -2.384 0.999930 -81.44 0.999930 -81.44 0.011213 19.494
8.83500000 0.011249 -2.390 0.999930 -81.44 0.999930 -81.44 0.011250 19.492
8.83520000 0.011285 -2.396 0.999929 -81.45 0.999929 -81.45 0.011286 19.489
8.83540000 0.011323 -2.401 0.999929 -81.45 0.999929 -81.45 0.011323 19.486
8.83560000 0.011360 -2.407 0.999928 -81.45 0.999928 -81.45 0.011361 19.484
8.83580000 0.011398 -2.412 0.999928 -81.46 0.999928 -81.46 0.011398 19.481
8.83600000 0.011436 -2.418 0.999927 -81.46 0.999927 -81.46 0.011436 19.478
8.83620000 0.011474 -2.424 0.999927 -81.47 0.999927 -81.47 0.011475 19.476
8.83640000 0.011513 -2.429 0.999927 -81.47 0.999927 -81.47 0.011513 19.473
8.83660000 0.011552 -2.435 0.999926 -81.47 0.999926 -81.47 0.011552 19.470
8.83680000 0.011591 -2.441 0.999926 -81.48 0.999926 -81.48 0.011592 19.468
8.83700000 0.011631 -2.446 0.999925 -81.48 0.999925 -81.48 0.011631 19.465
8.83720000 0.011671 -2.452 0.999925 -81.49 0.999925 -81.49 0.011671 19.462
8.83740000 0.011711 -2.458 0.999924 -81.49 0.999924 -81.49 0.011712 19.459
8.83760000 0.011752 -2.464 0.999924 -81.49 0.999924 -81.49 0.011753 19.457
8.83780000 0.011793 -2.470 0.999923 -81.50 0.999923 -81.50 0.011794 19.454
8.83800000 0.011834 -2.476 0.999922 -81.50 0.999922 -81.50 0.011835 19.451
8.83820000 0.011876 -2.481 0.999922 -81.51 0.999922 -81.51 0.011877 19.448
8.83840000 0.011918 -2.487 0.999921 -81.51 0.999921 -81.51 0.011919 19.445
8.83860000 0.011961 -2.493 0.999921 -81.52 0.999921 -81.52 0.011962 19.442
8.83880000 0.012004 -2.499 0.999920 -81.52 0.999920 -81.52 0.012005 19.439
8.83900000 0.012047 -2.505 0.999920 -81.52 0.999920 -81.52 0.012048 19.437
8.83920000 0.012091 -2.511 0.999919 -81.53 0.999919 -81.53 0.012092 19.434
8.83940000 0.012135 -2.517 0.999919 -81.53 0.999919 -81.53 0.012136 19.431
8.83960000 0.012180 -2.523 0.999918 -81.54 0.999918 -81.54 0.012181 19.428
8.83980000 0.012225 -2.530 0.999917 -81.54 0.999917 -81.54 0.012226 19.425
8.84000000 0.012270 -2.536 0.999917 -81.55 0.999917 -81.55 0.012271 19.422
8.84020000 0.012316 -2.542 0.999916 -81.55 0.999916 -81.55 0.012317 19.418
8.84040000 0.012362 -2.548 0.999916 -81.55 0.999916 -81.55 0.012363 19.415
8.84060000 0.012409 -2.554 0.999915 -81.56 0.999915 -81.56 0.012410 19.412
8.84080000 0.012456 -2.560 0.999914 -81.56 0.999914 -81.56 0.012457 19.409
8.84100000 0.012504 -2.567 0.999914 -81.57 0.999914 -81.57 0.012504 19.406
8.84120000 0.012552 -2.573 0.999913 -81.57 0.999913 -81.57 0.012552 19.403
8.84140000 0.012600 -2.579 0.999912 -81.58 0.999912 -81.58 0.012601 19.400
8.84160000 0.012649 -2.586 0.999912 -81.58 0.999912 -81.58 0.012650 19.396
8.84180000 0.012699 -2.592 0.999911 -81.59 0.999911 -81.59 0.012699 19.393
8.84200000 0.012749 -2.599 0.999910 -81.59 0.999910 -81.59 0.012749 19.390
8.84220000 0.012799 -2.605 0.999910 -81.60 0.999910 -81.60 0.012800 19.386
8.84240000 0.012850 -2.612 0.999909 -81.60 0.999909 -81.60 0.012851 19.383
8.84260000 0.012901 -2.618 0.999908 -81.61 0.999908 -81.61 0.012902 19.380
8.84280000 0.012953 -2.625 0.999908 -81.61 0.999908 -81.61 0.012954 19.376
8.84300000 0.013006 -2.631 0.999907 -81.62 0.999907 -81.62 0.013007 19.373
8.84320000 0.013059 -2.638 0.999906 -81.62 0.999906 -81.62 0.013059 19.369
8.84340000 0.013112 -2.645 0.999905 -81.62 0.999905 -81.62 0.013113 19.366
8.84360000 0.013166 -2.651 0.999905 -81.63 0.999905 -81.63 0.013167 19.362
8.84380000 0.013221 -2.658 0.999904 -81.63 0.999904 -81.63 0.013222 19.359
8.84400000 0.013276 -2.665 0.999903 -81.64 0.999903 -81.64 0.013277 19.355
8.84420000 0.013332 -2.672 0.999902 -81.64 0.999902 -81.64 0.013333 19.352
8.84440000 0.013388 -2.678 0.999901 -81.65 0.999901 -81.65 0.013389 19.348
8.84460000 0.013445 -2.685 0.999901 -81.65 0.999901 -81.65 0.013446 19.344
8.84480000 0.013503 -2.692 0.999900 -81.66 0.999900 -81.66 0.013503 19.341
8.84500000 0.013561 -2.699 0.999899 -81.67 0.999899 -81.67 0.013561 19.337
8.84520000 0.013619 -2.706 0.999898 -81.67 0.999898 -81.67 0.013620 19.333
8.84540000 0.013679 -2.713 0.999897 -81.68 0.999897 -81.68 0.013680 19.329
8.84560000 0.013739 -2.720 0.999896 -81.68 0.999896 -81.68 0.013740 19.325
8.84580000 0.013799 -2.727 0.999895 -81.69 0.999895 -81.69 0.013800 19.322
8.84600000 0.013861 -2.735 0.999894 -81.69 0.999894 -81.69 0.013862 19.318
8.84620000 0.013923 -2.742 0.999893 -81.70 0.999893 -81.70 0.013923 19.314
8.84640000 0.013985 -2.749 0.999893 -81.70 0.999893 -81.70 0.013986 19.310
8.84660000 0.014049 -2.756 0.999892 -81.71 0.999892 -81.71 0.014049 19.306
8.84680000 0.014113 -2.764 0.999891 -81.71 0.999891 -81.71 0.014113 19.302
8.84700000 0.014177 -2.771 0.999890 -81.72 0.999890 -81.72 0.014178 19.297
8.84720000 0.014243 -2.778 0.999889 -81.72 0.999889 -81.72 0.014244 19.293
8.84740000 0.014309 -2.786 0.999888 -81.73 0.999888 -81.73 0.014310 19.289
8.84760000 0.014376 -2.793 0.999887 -81.74 0.999887 -81.74 0.014377 19.285
8.84780000 0.014444 -2.801 0.999885 -81.74 0.999885 -81.74 0.014445 19.281
8.84800000 0.014512 -2.809 0.999884 -81.75 0.999884 -81.75 0.014513 19.276
8.84820000 0.014582 -2.816 0.999883 -81.75 0.999883 -81.75 0.014582 19.272
8.84840000 0.014652 -2.824 0.999882 -81.76 0.999882 -81.76 0.014652 19.267
8.84860000 0.014723 -2.832 0.999881 -81.76 0.999881 -81.76 0.014723 19.263
8.84880000 0.014794 -2.840 0.999880 -81.77 0.999880 -81.77 0.014795 19.258
8.84900000 0.014867 -2.848 0.999879 -81.78 0.999879 -81.78 0.014868 19.254
8.84920000 0.014940 -2.855 0.999878 -81.78 0.999878 -81.78 0.014941 19.249
8.84940000 0.015015 -2.863 0.999876 -81.79 0.999876 -81.79 0.015015 19.245
8.84960000 0.015090 -2.872 0.999875 -81.79 0.999875 -81.79 0.015091 19.240
8.84980000 0.015166 -2.880 0.999874 -81.80 0.999874 -81.80 0.015167 19.235
8.85000000 0.015243 -2.888 0.999873 -81.81 0.999873 -81.81 0.015244 19.230
8.85020000 0.015321 -2.896 0.999871 -81.81 0.999871 -81.81 0.015322 19.225
8.85040000 0.015400 -2.904 0.999870 -81.82 0.999870 -81.82 0.015401 19.220
8.85060000 0.015480 -2.913 0.999869 -81.83 0.999869 -81.83 0.015481 19.216
8.85080000 0.015561 -2.921 0.999867 -81.83 0.999867 -81.83 0.015562 19.210
8.85100000 0.015643 -2.930 0.999866 -81.84 0.999866 -81.84 0.015644 19.205
8.85120000 0.015726 -2.938 0.999865 -81.85 0.999865 -81.85 0.015726 19.200
8.85140000 0.015810 -2.947 0.999863 -81.85 0.999863 -81.85 0.015810 19.195
8.85160000 0.015895 -2.955 0.999862 -81.86 0.999862 -81.86 0.015896 19.190
8.85180000 0.015981 -2.964 0.999860 -81.87 0.999860 -81.87 0.015982 19.184
8.85200000 0.016068 -2.973 0.999859 -81.87 0.999859 -81.87 0.016069 19.179
8.85220000 0.016157 -2.982 0.999857 -81.88 0.999857 -81.88 0.016157 19.174
8.85240000 0.016246 -2.991 0.999856 -81.89 0.999856 -81.89 0.016247 19.168
8.85260000 0.016337 -3.000 0.999854 -81.89 0.999854 -81.89 0.016338 19.162
8.85280000 0.016429 -3.009 0.999852 -81.90 0.999852 -81.90 0.016430 19.157
8.85290445 0.016477 -3.014 0.999851 -81.90 0.999851 -81.90 0.016478 19.154
8.85300000 0.016522 -3.018 0.999851 -81.91 0.999851 -81.91 0.016523 19.151
8.85320000 0.016617 -3.027 0.999849 -81.92 0.999849 -81.92 0.016617 19.145
8.85340000 0.016712 -3.037 0.999847 -81.92 0.999847 -81.92 0.016713 19.139
8.85359276 0.016806 -3.046 0.999846 -81.93 0.999846 -81.93 0.016807 19.133
8.85360000 0.016809 -3.046 0.999846 -81.93 0.999846 -81.93 0.016810 19.133
8.85380000 0.016908 -3.056 0.999844 -81.94 0.999844 -81.94 0.016909 19.127
8.85400000 0.017007 -3.065 0.999842 -81.95 0.999842 -81.95 0.017008 19.121
8.85420000 0.017109 -3.075 0.999840 -81.95 0.999840 -81.95 0.017109 19.115
8.85426530 0.017142 -3.078 0.999839 -81.96 0.999839 -81.96 0.017143 19.113
8.85440000 0.017211 -3.085 0.999838 -81.96 0.999838 -81.96 0.017212 19.109
8.85460000 0.017315 -3.095 0.999836 -81.97 0.999836 -81.97 0.017316 19.102
8.85480000 0.017421 -3.105 0.999834 -81.98 0.999834 -81.98 0.017422 19.096
8.85492242 0.017486 -3.111 0.999833 -81.98 0.999833 -81.98 0.017487 19.092
8.85500000 0.017528 -3.115 0.999832 -81.98 0.999832 -81.98 0.017528 19.089
8.85520000 0.017636 -3.125 0.999830 -81.99 0.999830 -81.99 0.017637 19.083
8.85540000 0.017746 -3.135 0.999828 -82.00 0.999828 -82.00 0.017747 19.076
8.85556449 0.017838 -3.143 0.999826 -82.01 0.999826 -82.01 0.017839 19.070
8.85560000 0.017858 -3.145 0.999826 -82.01 0.999826 -82.01 0.017859 19.069
8.85580000 0.017971 -3.156 0.999824 -82.02 0.999824 -82.02 0.017972 19.062
8.85600000 0.018086 -3.166 0.999821 -82.03 0.999821 -82.03 0.018087 19.055
8.85619185 0.018198 -3.176 0.999819 -82.03 0.999819 -82.03 0.018199 19.048
8.85620000 0.018203 -3.177 0.999819 -82.03 0.999819 -82.03 0.018204 19.048
8.85640000 0.018322 -3.188 0.999817 -82.04 0.999817 -82.04 0.018323 19.041
8.85660000 0.018442 -3.199 0.999814 -82.05 0.999814 -82.05 0.018443 19.034
8.85680000 0.018564 -3.210 0.999812 -82.06 0.999812 -82.06 0.018565 19.026
8.85680483 0.018567 -3.210 0.999812 -82.06 0.999812 -82.06 0.018568 19.026
8.85700000 0.018688 -3.221 0.999809 -82.07 0.999809 -82.07 0.018689 19.019
8.85720000 0.018814 -3.232 0.999807 -82.08 0.999807 -82.08 0.018815 19.011
8.85740000 0.018942 -3.243 0.999804 -82.09 0.999804 -82.09 0.018943 19.003
8.85740377 0.018945 -3.243 0.999804 -82.09 0.999804 -82.09 0.018945 19.003
8.85760000 0.019072 -3.255 0.999802 -82.10 0.999802 -82.10 0.019073 18.995
8.85780000 0.019204 -3.266 0.999799 -82.11 0.999799 -82.11 0.019205 18.987
8.85798898 0.019331 -3.277 0.999796 -82.11 0.999796 -82.11 0.019332 18.980
8.85800000 0.019338 -3.278 0.999796 -82.12 0.999796 -82.12 0.019339 18.979
8.85820000 0.019475 -3.290 0.999793 -82.12 0.999793 -82.12 0.019476 18.971
8.85840000 0.019613 -3.302 0.999790 -82.13 0.999790 -82.13 0.019614 18.962
8.85856078 0.019726 -3.312 0.999788 -82.14 0.999788 -82.14 0.019727 18.956
8.85860000 0.019754 -3.314 0.999787 -82.14 0.999787 -82.14 0.019755 18.954
8.85880000 0.019897 -3.326 0.999784 -82.15 0.999784 -82.15 0.019898 18.945
8.85900000 0.020043 -3.339 0.999781 -82.16 0.999781 -82.16 0.020044 18.936
8.85911948 0.020131 -3.346 0.999779 -82.17 0.999779 -82.17 0.020132 18.931
8.85920000 0.020191 -3.351 0.999778 -82.17 0.999778 -82.17 0.020192 18.928
8.85940000 0.020342 -3.364 0.999774 -82.19 0.999774 -82.19 0.020342 18.918
8.85960000 0.020495 -3.377 0.999771 -82.20 0.999771 -82.20 0.020496 18.909
8.85966538 0.020545 -3.381 0.999770 -82.20 0.999770 -82.20 0.020546 18.906
8.85980000 0.020650 -3.390 0.999767 -82.21 0.999767 -82.21 0.020651 18.900
8.86000000 0.020809 -3.403 0.999764 -82.22 0.999764 -82.22 0.020810 18.890
8.86019877 0.020969 -3.417 0.999760 -82.23 0.999760 -82.23 0.020970 18.881
8.86020000 0.020970 -3.417 0.999760 -82.23 0.999760 -82.23 0.020971 18.881
8.86040000 0.021134 -3.430 0.999757 -82.24 0.999757 -82.24 0.021135 18.871
8.86060000 0.021301 -3.444 0.999753 -82.25 0.999753 -82.25 0.021302 18.861
8.86071994 0.021403 -3.452 0.999750 -82.26 0.999750 -82.26 0.021404 18.854
8.86080000 0.021472 -3.458 0.999749 -82.26 0.999749 -82.26 0.021473 18.850
8.86100000 0.021645 -3.472 0.999745 -82.27 0.999745 -82.27 0.021646 18.840
8.86120000 0.021821 -3.486 0.999741 -82.29 0.999741 -82.29 0.021822 18.829
8.86122916 0.021847 -3.488 0.999740 -82.29 0.999740 -82.29 0.021848 18.828
8.86140000 0.022001 -3.501 0.999736 -82.30 0.999736 -82.30 0.022002 18.818
8.86160000 0.022184 -3.516 0.999732 -82.31 0.999732 -82.31 0.022185 18.807
8.86172672 0.022302 -3.525 0.999729 -82.32 0.999729 -82.32 0.022303 18.800
8.86180000 0.022371 -3.530 0.999727 -82.32 0.999727 -82.32 0.022371 18.796
8.86200000 0.022561 -3.546 0.999723 -82.34 0.999723 -82.34 0.022562 18.785
8.86220000 0.022754 -3.561 0.999718 -82.35 0.999718 -82.35 0.022755 18.773
8.86221288 0.022767 -3.562 0.999718 -82.35 0.999718 -82.35 0.022768 18.772
8.86240000 0.022952 -3.577 0.999713 -82.36 0.999713 -82.36 0.022953 18.761
8.86260000 0.023153 -3.592 0.999708 -82.38 0.999708 -82.38 0.023154 18.749
8.86268789 0.023243 -3.600 0.999706 -82.38 0.999706 -82.38 0.023244 18.744
8.86280000 0.023359 -3.609 0.999703 -82.39 0.999703 -82.39 0.023360 18.737
8.86300000 0.023568 -3.625 0.999697 -82.40 0.999697 -82.40 0.023569 18.724
8.86315203 0.023731 -3.638 0.999693 -82.41 0.999693 -82.41 0.023731 18.715
8.86320000 0.023782 -3.642 0.999692 -82.42 0.999692 -82.42 0.023783 18.711
8.86340000 0.024000 -3.658 0.999686 -82.43 0.999686 -82.43 0.024001 18.698
8.86360000 0.024223 -3.676 0.999680 -82.45 0.999680 -82.45 0.024224 18.685
8.86360552 0.024229 -3.676 0.999680 -82.45 0.999680 -82.45 0.024230 18.685
8.86380000 0.024451 -3.693 0.999674 -82.46 0.999674 -82.46 0.024451 18.671
8.86400000 0.024683 -3.711 0.999668 -82.48 0.999668 -82.48 0.024684 18.657
8.86404863 0.024740 -3.715 0.999667 -82.48 0.999667 -82.48 0.024741 18.654
8.86420000 0.024920 -3.729 0.999662 -82.49 0.999662 -82.49 0.024921 18.643
8.86440000 0.025162 -3.747 0.999655 -82.51 0.999655 -82.51 0.025163 18.629
8.86448158 0.025262 -3.755 0.999652 -82.51 0.999652 -82.51 0.025263 18.623
8.86460000 0.025410 -3.766 0.999648 -82.52 0.999648 -82.52 0.025411 18.614
8.86480000 0.025663 -3.785 0.999641 -82.54 0.999641 -82.54 0.025664 18.599
8.86490462 0.025797 -3.795 0.999638 -82.55 0.999638 -82.55 0.025798 18.591
8.86500000 0.025921 -3.804 0.999634 -82.56 0.999634 -82.56 0.025922 18.583
8.86520000 0.026186 -3.824 0.999627 -82.57 0.999627 -82.57 0.026187 18.567
8.86531796 0.026345 -3.836 0.999622 -82.58 0.999622 -82.58 0.026346 18.558
8.86540000 0.026456 -3.844 0.999619 -82.59 0.999619 -82.59 0.026457 18.551
8.86560000 0.026733 -3.864 0.999611 -82.61 0.999611 -82.61 0.026734 18.535
8.86572182 0.026905 -3.877 0.999606 -82.62 0.999606 -82.62 0.026906 18.524
8.86580000 0.027016 -3.885 0.999603 -82.63 0.999603 -82.63 0.027017 18.518
8.86600000 0.027306 -3.906 0.999594 -82.64 0.999594 -82.64 0.027307 18.500
8.86611644 0.027478 -3.919 0.999589 -82.66 0.999589 -82.66 0.027479 18.490
8.86620000 0.027603 -3.928 0.999585 -82.66 0.999585 -82.66 0.027604 18.482
8.86640000 0.027907 -3.950 0.999576 -82.68 0.999576 -82.68 0.027908 18.464
8.86650201 0.028065 -3.962 0.999571 -82.69 0.999571 -82.69 0.028066 18.455
8.86660000 0.028219 -3.973 0.999566 -82.70 0.999566 -82.70 0.028220 18.446
8.86680000 0.028538 -3.996 0.999557 -82.72 0.999557 -82.72 0.028539 18.427
8.86687875 0.028666 -4.005 0.999553 -82.73 0.999553 -82.73 0.028667 18.419
8.86700000 0.028866 -4.019 0.999546 -82.74 0.999546 -82.74 0.028867 18.407
8.86720000 0.029201 -4.043 0.999536 -82.76 0.999536 -82.76 0.029202 18.387
8.86724685 0.029281 -4.049 0.999533 -82.77 0.999533 -82.77 0.029282 18.382
8.86740000 0.029545 -4.068 0.999525 -82.79 0.999525 -82.79 0.029546 18.366
8.86760000 0.029899 -4.093 0.999513 -82.81 0.999513 -82.81 0.029900 18.345
8.86760652 0.029910 -4.094 0.999513 -82.81 0.999513 -82.81 0.029911 18.344
8.86780000 0.030261 -4.118 0.999501 -82.83 0.999501 -82.83 0.030262 18.323
8.86795795 0.030555 -4.139 0.999492 -82.85 0.999492 -82.85 0.030556 18.306
8.86800000 0.030634 -4.145 0.999489 -82.85 0.999489 -82.85 0.030635 18.301
8.86820000 0.031016 -4.171 0.999476 -82.88 0.999476 -82.88 0.031017 18.278
8.86830132 0.031214 -4.185 0.999469 -82.89 0.999469 -82.89 0.031215 18.266
8.86840000 0.031409 -4.199 0.999463 -82.90 0.999463 -82.90 0.031410 18.255
8.86860000 0.031813 -4.227 0.999449 -82.93 0.999449 -82.93 0.031814 18.231
8.86863683 0.031889 -4.232 0.999446 -82.93 0.999446 -82.93 0.031890 18.226
8.86880000 0.032228 -4.256 0.999434 -82.95 0.999434 -82.95 0.032229 18.206
8.86896465 0.032579 -4.280 0.999422 -82.97 0.999422 -82.97 0.032580 18.185
8.86900000 0.032656 -4.285 0.999419 -82.98 0.999419 -82.98 0.032657 18.180
8.86920000 0.033096 -4.316 0.999403 -83.01 0.999403 -83.01 0.033097 18.154
8.86928496 0.033286 -4.329 0.999397 -83.02 0.999397 -83.02 0.033287 18.142
8.86940000 0.033548 -4.347 0.999387 -83.03 0.999387 -83.03 0.033549 18.127
8.86959793 0.034010 -4.378 0.999370 -83.06 0.999370 -83.06 0.034011 18.099
8.86960000 0.034015 -4.379 0.999370 -83.06 0.999370 -83.06 0.034016 18.099
8.86980000 0.034495 -4.412 0.999352 -83.09 0.999352 -83.09 0.034496 18.070
8.86990373 0.034750 -4.429 0.999342 -83.11 0.999342 -83.11 0.034751 18.055
8.87000000 0.034991 -4.445 0.999333 -83.12 0.999333 -83.12 0.034992 18.040
8.87020000 0.035502 -4.480 0.999313 -83.15 0.999313 -83.15 0.035503 18.010
8.87020252 0.035508 -4.480 0.999313 -83.15 0.999313 -83.15 0.035509 18.009
8.87040000 0.036029 -4.515 0.999293 -83.19 0.999293 -83.19 0.036030 17.978
8.87049446 0.036284 -4.533 0.999283 -83.20 0.999283 -83.20 0.036285 17.963
8.87060000 0.036574 -4.552 0.999271 -83.22 0.999271 -83.22 0.036575 17.946