! Sonnet Data File
! From: emgraph Version : 16.52
! From Project: Resonator2_cp_varyW
! Data is De-embedded 
! Data File Written: 10/07/2017 09:25:24
!< HDATE 10/06/2017 17:18:21
!< MDATE 10/06/2017 17:18:21
!< PARAMS
!< gap = 16.0
!< Length = 400.0
!< Pwid1 = 2000.0
!< Pwid2 = 2000.0
!< Air_gap = 30.0
!< Width = 50.0
!< END PARAMS
# GHZ S MA R 51.80000
8.80000000 0.020801 -167.0 0.999780 -80.81 0.999780 -80.81 0.020801 -174.7
!< P1 F=8.8 Eeff=(6.4404796 -2.969e-5) Z0=(50.4071347 1.16291e-4) R=0.0 C=0.0 
!< P2 F=8.8 Eeff=(6.4404796 -2.969e-5) Z0=(50.4071347 1.16291e-4) R=0.0 C=0.0 
8.80020000 0.020797 -167.0 0.999780 -80.82 0.999780 -80.82 0.020797 -174.7
8.80040000 0.020793 -166.9 0.999780 -80.82 0.999780 -80.82 0.020793 -174.7
8.80060000 0.020789 -166.9 0.999780 -80.82 0.999780 -80.82 0.020789 -174.7
8.80080000 0.020785 -166.9 0.999780 -80.82 0.999780 -80.82 0.020785 -174.7
8.80100000 0.020781 -166.9 0.999780 -80.83 0.999780 -80.83 0.020781 -174.7
8.80120000 0.020777 -166.9 0.999780 -80.83 0.999780 -80.83 0.020777 -174.7
8.80140000 0.020773 -166.9 0.999780 -80.83 0.999780 -80.83 0.020773 -174.7
8.80160000 0.020769 -166.9 0.999781 -80.83 0.999781 -80.83 0.020769 -174.7
8.80180000 0.020765 -166.9 0.999781 -80.83 0.999781 -80.83 0.020765 -174.7
8.80200000 0.020761 -166.9 0.999781 -80.84 0.999781 -80.84 0.020761 -174.8
8.80220000 0.020756 -166.9 0.999781 -80.84 0.999781 -80.84 0.020756 -174.8
8.80240000 0.020752 -166.9 0.999781 -80.84 0.999781 -80.84 0.020752 -174.8
8.80260000 0.020748 -166.9 0.999781 -80.84 0.999781 -80.84 0.020748 -174.8
8.80280000 0.020744 -166.9 0.999781 -80.84 0.999781 -80.84 0.020744 -174.8
8.80300000 0.020740 -166.9 0.999781 -80.85 0.999781 -80.85 0.020739 -174.8
8.80320000 0.020735 -166.9 0.999781 -80.85 0.999781 -80.85 0.020735 -174.8
8.80340000 0.020731 -166.9 0.999781 -80.85 0.999781 -80.85 0.020731 -174.8
8.80360000 0.020727 -166.9 0.999781 -80.85 0.999781 -80.85 0.020727 -174.8
8.80380000 0.020722 -166.9 0.999782 -80.85 0.999782 -80.85 0.020722 -174.8
8.80400000 0.020718 -166.9 0.999782 -80.86 0.999782 -80.86 0.020718 -174.8
8.80420000 0.020714 -166.9 0.999782 -80.86 0.999782 -80.86 0.020714 -174.8
8.80440000 0.020709 -166.9 0.999782 -80.86 0.999782 -80.86 0.020709 -174.8
8.80460000 0.020705 -166.9 0.999782 -80.86 0.999782 -80.86 0.020705 -174.9
8.80480000 0.020700 -166.9 0.999782 -80.87 0.999782 -80.87 0.020700 -174.9
8.80500000 0.020696 -166.9 0.999782 -80.87 0.999782 -80.87 0.020696 -174.9
8.80520000 0.020692 -166.9 0.999782 -80.87 0.999782 -80.87 0.020691 -174.9
8.80540000 0.020687 -166.9 0.999782 -80.87 0.999782 -80.87 0.020687 -174.9
8.80560000 0.020683 -166.9 0.999782 -80.87 0.999782 -80.87 0.020683 -174.9
8.80580000 0.020678 -166.9 0.999782 -80.88 0.999782 -80.88 0.020678 -174.9
8.80600000 0.020674 -166.9 0.999783 -80.88 0.999783 -80.88 0.020673 -174.9
8.80620000 0.020669 -166.9 0.999783 -80.88 0.999783 -80.88 0.020669 -174.9
8.80640000 0.020664 -166.9 0.999783 -80.88 0.999783 -80.88 0.020664 -174.9
8.80660000 0.020660 -166.9 0.999783 -80.88 0.999783 -80.88 0.020660 -174.9
8.80680000 0.020655 -166.8 0.999783 -80.89 0.999783 -80.89 0.020655 -174.9
8.80700000 0.020651 -166.8 0.999783 -80.89 0.999783 -80.89 0.020651 -174.9
8.80720000 0.020646 -166.8 0.999783 -80.89 0.999783 -80.89 0.020646 -174.9
8.80740000 0.020641 -166.8 0.999783 -80.89 0.999783 -80.89 0.020641 -175.0
8.80760000 0.020637 -166.8 0.999783 -80.89 0.999783 -80.89 0.020637 -175.0
8.80780000 0.020632 -166.8 0.999783 -80.90 0.999783 -80.90 0.020632 -175.0
8.80800000 0.020627 -166.8 0.999783 -80.90 0.999783 -80.90 0.020627 -175.0
8.80820000 0.020622 -166.8 0.999784 -80.90 0.999784 -80.90 0.020622 -175.0
8.80840000 0.020618 -166.8 0.999784 -80.90 0.999784 -80.90 0.020618 -175.0
8.80860000 0.020613 -166.8 0.999784 -80.91 0.999784 -80.91 0.020613 -175.0
8.80880000 0.020608 -166.8 0.999784 -80.91 0.999784 -80.91 0.020608 -175.0
8.80900000 0.020603 -166.8 0.999784 -80.91 0.999784 -80.91 0.020603 -175.0
8.80920000 0.020598 -166.8 0.999784 -80.91 0.999784 -80.91 0.020598 -175.0
8.80940000 0.020594 -166.8 0.999784 -80.91 0.999784 -80.91 0.020593 -175.0
8.80960000 0.020589 -166.8 0.999784 -80.92 0.999784 -80.92 0.020589 -175.0
8.80980000 0.020584 -166.8 0.999784 -80.92 0.999784 -80.92 0.020584 -175.1
8.81000000 0.020579 -166.8 0.999784 -80.92 0.999784 -80.92 0.020579 -175.1
8.81020000 0.020574 -166.8 0.999785 -80.92 0.999785 -80.92 0.020574 -175.1
8.81040000 0.020569 -166.8 0.999785 -80.92 0.999785 -80.92 0.020569 -175.1
8.81060000 0.020564 -166.8 0.999785 -80.93 0.999785 -80.93 0.020564 -175.1
8.81080000 0.020559 -166.8 0.999785 -80.93 0.999785 -80.93 0.020559 -175.1
8.81100000 0.020554 -166.8 0.999785 -80.93 0.999785 -80.93 0.020554 -175.1
8.81120000 0.020549 -166.8 0.999785 -80.93 0.999785 -80.93 0.020549 -175.1
8.81140000 0.020544 -166.8 0.999785 -80.94 0.999785 -80.94 0.020543 -175.1
8.81160000 0.020538 -166.8 0.999785 -80.94 0.999785 -80.94 0.020538 -175.1
8.81180000 0.020533 -166.8 0.999785 -80.94 0.999785 -80.94 0.020533 -175.1
8.81200000 0.020528 -166.7 0.999785 -80.94 0.999785 -80.94 0.020528 -175.1
8.81220000 0.020523 -166.7 0.999786 -80.94 0.999786 -80.94 0.020523 -175.2
8.81240000 0.020518 -166.7 0.999786 -80.95 0.999786 -80.95 0.020518 -175.2
8.81260000 0.020513 -166.7 0.999786 -80.95 0.999786 -80.95 0.020512 -175.2
8.81280000 0.020507 -166.7 0.999786 -80.95 0.999786 -80.95 0.020507 -175.2
8.81300000 0.020502 -166.7 0.999786 -80.95 0.999786 -80.95 0.020502 -175.2
8.81320000 0.020497 -166.7 0.999786 -80.96 0.999786 -80.96 0.020497 -175.2
8.81340000 0.020491 -166.7 0.999786 -80.96 0.999786 -80.96 0.020491 -175.2
8.81360000 0.020486 -166.7 0.999786 -80.96 0.999786 -80.96 0.020486 -175.2
8.81380000 0.020481 -166.7 0.999786 -80.96 0.999786 -80.96 0.020480 -175.2
8.81400000 0.020475 -166.7 0.999787 -80.96 0.999787 -80.96 0.020475 -175.2
8.81420000 0.020470 -166.7 0.999787 -80.97 0.999787 -80.97 0.020470 -175.2
8.81440000 0.020464 -166.7 0.999787 -80.97 0.999787 -80.97 0.020464 -175.2
8.81460000 0.020459 -166.7 0.999787 -80.97 0.999787 -80.97 0.020459 -175.3
8.81480000 0.020453 -166.7 0.999787 -80.97 0.999787 -80.97 0.020453 -175.3
8.81500000 0.020448 -166.7 0.999787 -80.97 0.999787 -80.97 0.020448 -175.3
8.81520000 0.020442 -166.7 0.999787 -80.98 0.999787 -80.98 0.020442 -175.3
8.81540000 0.020437 -166.7 0.999787 -80.98 0.999787 -80.98 0.020436 -175.3
8.81560000 0.020431 -166.7 0.999787 -80.98 0.999787 -80.98 0.020431 -175.3
8.81580000 0.020425 -166.7 0.999787 -80.98 0.999787 -80.98 0.020425 -175.3
8.81600000 0.020420 -166.7 0.999788 -80.99 0.999788 -80.99 0.020420 -175.3
8.81620000 0.020414 -166.7 0.999788 -80.99 0.999788 -80.99 0.020414 -175.3
8.81640000 0.020408 -166.6 0.999788 -80.99 0.999788 -80.99 0.020408 -175.3
8.81660000 0.020403 -166.6 0.999788 -80.99 0.999788 -80.99 0.020402 -175.3
8.81680000 0.020397 -166.6 0.999788 -80.99 0.999788 -80.99 0.020397 -175.4
8.81700000 0.020391 -166.6 0.999788 -81.00 0.999788 -81.00 0.020391 -175.4
8.81720000 0.020385 -166.6 0.999788 -81.00 0.999788 -81.00 0.020385 -175.4
8.81740000 0.020379 -166.6 0.999788 -81.00 0.999788 -81.00 0.020379 -175.4
8.81760000 0.020373 -166.6 0.999789 -81.00 0.999789 -81.00 0.020373 -175.4
8.81780000 0.020368 -166.6 0.999789 -81.01 0.999789 -81.01 0.020367 -175.4
8.81800000 0.020362 -166.6 0.999789 -81.01 0.999789 -81.01 0.020361 -175.4
8.81820000 0.020356 -166.6 0.999789 -81.01 0.999789 -81.01 0.020355 -175.4
8.81840000 0.020350 -166.6 0.999789 -81.01 0.999789 -81.01 0.020349 -175.4
8.81860000 0.020344 -166.6 0.999789 -81.01 0.999789 -81.01 0.020343 -175.4
8.81880000 0.020337 -166.6 0.999789 -81.02 0.999789 -81.02 0.020337 -175.5
8.81900000 0.020331 -166.6 0.999789 -81.02 0.999789 -81.02 0.020331 -175.5
8.81920000 0.020325 -166.6 0.999789 -81.02 0.999789 -81.02 0.020325 -175.5
8.81940000 0.020319 -166.6 0.999790 -81.02 0.999790 -81.02 0.020319 -175.5
8.81960000 0.020313 -166.6 0.999790 -81.03 0.999790 -81.03 0.020313 -175.5
8.81980000 0.020307 -166.6 0.999790 -81.03 0.999790 -81.03 0.020307 -175.5
8.82000000 0.020300 -166.6 0.999790 -81.03 0.999790 -81.03 0.020300 -175.5
8.82020000 0.020294 -166.5 0.999790 -81.03 0.999790 -81.03 0.020294 -175.5
8.82040000 0.020288 -166.5 0.999790 -81.03 0.999790 -81.03 0.020288 -175.5
8.82060000 0.020282 -166.5 0.999790 -81.04 0.999790 -81.04 0.020281 -175.5
8.82080000 0.020275 -166.5 0.999790 -81.04 0.999790 -81.04 0.020275 -175.6
8.82100000 0.020269 -166.5 0.999791 -81.04 0.999791 -81.04 0.020269 -175.6
8.82120000 0.020262 -166.5 0.999791 -81.04 0.999791 -81.04 0.020262 -175.6
8.82140000 0.020256 -166.5 0.999791 -81.05 0.999791 -81.05 0.020256 -175.6
8.82160000 0.020249 -166.5 0.999791 -81.05 0.999791 -81.05 0.020249 -175.6
8.82180000 0.020243 -166.5 0.999791 -81.05 0.999791 -81.05 0.020243 -175.6
8.82200000 0.020236 -166.5 0.999791 -81.05 0.999791 -81.05 0.020236 -175.6
8.82220000 0.020230 -166.5 0.999791 -81.05 0.999791 -81.05 0.020229 -175.6
8.82240000 0.020223 -166.5 0.999791 -81.06 0.999791 -81.06 0.020223 -175.6
8.82260000 0.020216 -166.5 0.999792 -81.06 0.999792 -81.06 0.020216 -175.6
8.82280000 0.020210 -166.5 0.999792 -81.06 0.999792 -81.06 0.020209 -175.7
8.82300000 0.020203 -166.5 0.999792 -81.06 0.999792 -81.06 0.020203 -175.7
8.82320000 0.020196 -166.5 0.999792 -81.07 0.999792 -81.07 0.020196 -175.7
8.82340000 0.020189 -166.5 0.999792 -81.07 0.999792 -81.07 0.020189 -175.7
8.82360000 0.020183 -166.4 0.999792 -81.07 0.999792 -81.07 0.020182 -175.7
8.82380000 0.020176 -166.4 0.999792 -81.07 0.999792 -81.07 0.020175 -175.7
8.82400000 0.020169 -166.4 0.999793 -81.07 0.999793 -81.07 0.020169 -175.7
8.82420000 0.020162 -166.4 0.999793 -81.08 0.999793 -81.08 0.020162 -175.7
8.82440000 0.020155 -166.4 0.999793 -81.08 0.999793 -81.08 0.020155 -175.7
8.82460000 0.020148 -166.4 0.999793 -81.08 0.999793 -81.08 0.020148 -175.8
8.82480000 0.020141 -166.4 0.999793 -81.08 0.999793 -81.08 0.020140 -175.8
8.82500000 0.020134 -166.4 0.999793 -81.09 0.999793 -81.09 0.020133 -175.8
8.82520000 0.020127 -166.4 0.999793 -81.09 0.999793 -81.09 0.020126 -175.8
8.82540000 0.020119 -166.4 0.999794 -81.09 0.999794 -81.09 0.020119 -175.8
8.82560000 0.020112 -166.4 0.999794 -81.09 0.999794 -81.09 0.020112 -175.8
8.82580000 0.020105 -166.4 0.999794 -81.10 0.999794 -81.10 0.020105 -175.8
8.82600000 0.020098 -166.4 0.999794 -81.10 0.999794 -81.10 0.020097 -175.8
8.82620000 0.020090 -166.4 0.999794 -81.10 0.999794 -81.10 0.020090 -175.8
8.82640000 0.020083 -166.4 0.999794 -81.10 0.999794 -81.10 0.020083 -175.9
8.82660000 0.020076 -166.3 0.999794 -81.10 0.999794 -81.10 0.020075 -175.9
8.82680000 0.020068 -166.3 0.999795 -81.11 0.999795 -81.11 0.020068 -175.9
8.82700000 0.020061 -166.3 0.999795 -81.11 0.999795 -81.11 0.020060 -175.9
8.82720000 0.020053 -166.3 0.999795 -81.11 0.999795 -81.11 0.020053 -175.9
8.82740000 0.020045 -166.3 0.999795 -81.11 0.999795 -81.11 0.020045 -175.9
8.82760000 0.020038 -166.3 0.999795 -81.12 0.999795 -81.12 0.020038 -175.9
8.82780000 0.020030 -166.3 0.999795 -81.12 0.999795 -81.12 0.020030 -175.9
8.82800000 0.020023 -166.3 0.999795 -81.12 0.999795 -81.12 0.020022 -176.0
8.82820000 0.020015 -166.3 0.999796 -81.12 0.999796 -81.12 0.020014 -176.0
8.82840000 0.020007 -166.3 0.999796 -81.13 0.999796 -81.13 0.020007 -176.0
8.82860000 0.019999 -166.3 0.999796 -81.13 0.999796 -81.13 0.019999 -176.0
8.82880000 0.019991 -166.3 0.999796 -81.13 0.999796 -81.13 0.019991 -176.0
8.82900000 0.019983 -166.3 0.999796 -81.13 0.999796 -81.13 0.019983 -176.0
8.82920000 0.019975 -166.2 0.999796 -81.13 0.999796 -81.13 0.019975 -176.0
8.82940000 0.019967 -166.2 0.999796 -81.14 0.999796 -81.14 0.019967 -176.0
8.82960000 0.019959 -166.2 0.999797 -81.14 0.999797 -81.14 0.019959 -176.1
8.82980000 0.019951 -166.2 0.999797 -81.14 0.999797 -81.14 0.019951 -176.1
8.83000000 0.019943 -166.2 0.999797 -81.14 0.999797 -81.14 0.019943 -176.1
8.83020000 0.019935 -166.2 0.999797 -81.15 0.999797 -81.15 0.019935 -176.1
8.83040000 0.019927 -166.2 0.999797 -81.15 0.999797 -81.15 0.019926 -176.1
8.83060000 0.019919 -166.2 0.999797 -81.15 0.999797 -81.15 0.019918 -176.1
8.83080000 0.019910 -166.2 0.999798 -81.15 0.999798 -81.15 0.019910 -176.1
8.83100000 0.019902 -166.2 0.999798 -81.16 0.999798 -81.16 0.019901 -176.1
8.83120000 0.019893 -166.2 0.999798 -81.16 0.999798 -81.16 0.019893 -176.2
8.83140000 0.019885 -166.2 0.999798 -81.16 0.999798 -81.16 0.019885 -176.2
8.83160000 0.019876 -166.1 0.999798 -81.16 0.999798 -81.16 0.019876 -176.2
8.83180000 0.019868 -166.1 0.999798 -81.17 0.999798 -81.17 0.019867 -176.2
8.83200000 0.019859 -166.1 0.999799 -81.17 0.999799 -81.17 0.019859 -176.2
8.83220000 0.019851 -166.1 0.999799 -81.17 0.999799 -81.17 0.019850 -176.2
8.83240000 0.019842 -166.1 0.999799 -81.17 0.999799 -81.17 0.019841 -176.2
8.83260000 0.019833 -166.1 0.999799 -81.17 0.999799 -81.17 0.019833 -176.3
8.83280000 0.019824 -166.1 0.999799 -81.18 0.999799 -81.18 0.019824 -176.3
8.83300000 0.019815 -166.1 0.999799 -81.18 0.999799 -81.18 0.019815 -176.3
8.83320000 0.019807 -166.1 0.999800 -81.18 0.999800 -81.18 0.019806 -176.3
8.83340000 0.019798 -166.1 0.999800 -81.18 0.999800 -81.18 0.019797 -176.3
8.83360000 0.019789 -166.1 0.999800 -81.19 0.999800 -81.19 0.019788 -176.3
8.83380000 0.019779 -166.0 0.999800 -81.19 0.999800 -81.19 0.019779 -176.3
8.83400000 0.019770 -166.0 0.999800 -81.19 0.999800 -81.19 0.019770 -176.4
8.83420000 0.019761 -166.0 0.999800 -81.19 0.999800 -81.19 0.019761 -176.4
8.83440000 0.019752 -166.0 0.999801 -81.20 0.999801 -81.20 0.019751 -176.4
8.83460000 0.019743 -166.0 0.999801 -81.20 0.999801 -81.20 0.019742 -176.4
8.83480000 0.019733 -166.0 0.999801 -81.20 0.999801 -81.20 0.019733 -176.4
8.83500000 0.019724 -166.0 0.999801 -81.20 0.999801 -81.20 0.019723 -176.4
8.83520000 0.019714 -166.0 0.999801 -81.21 0.999801 -81.21 0.019714 -176.4
8.83540000 0.019705 -166.0 0.999802 -81.21 0.999802 -81.21 0.019704 -176.5
8.83560000 0.019695 -166.0 0.999802 -81.21 0.999802 -81.21 0.019695 -176.5
8.83580000 0.019686 -165.9 0.999802 -81.21 0.999802 -81.21 0.019685 -176.5
8.83600000 0.019676 -165.9 0.999802 -81.22 0.999802 -81.22 0.019675 -176.5
8.83620000 0.019666 -165.9 0.999802 -81.22 0.999802 -81.22 0.019666 -176.5
8.83640000 0.019656 -165.9 0.999802 -81.22 0.999802 -81.22 0.019656 -176.5
8.83660000 0.019646 -165.9 0.999803 -81.22 0.999803 -81.22 0.019646 -176.5
8.83680000 0.019636 -165.9 0.999803 -81.23 0.999803 -81.23 0.019636 -176.6
8.83700000 0.019626 -165.9 0.999803 -81.23 0.999803 -81.23 0.019626 -176.6
8.83720000 0.019616 -165.9 0.999803 -81.23 0.999803 -81.23 0.019616 -176.6
8.83740000 0.019606 -165.9 0.999803 -81.23 0.999803 -81.23 0.019606 -176.6
8.83760000 0.019596 -165.8 0.999804 -81.24 0.999804 -81.24 0.019595 -176.6
8.83780000 0.019586 -165.8 0.999804 -81.24 0.999804 -81.24 0.019585 -176.6
8.83800000 0.019575 -165.8 0.999804 -81.24 0.999804 -81.24 0.019575 -176.7
8.83820000 0.019565 -165.8 0.999804 -81.24 0.999804 -81.24 0.019564 -176.7
8.83840000 0.019555 -165.8 0.999804 -81.25 0.999804 -81.25 0.019554 -176.7
8.83860000 0.019544 -165.8 0.999805 -81.25 0.999805 -81.25 0.019543 -176.7
8.83880000 0.019533 -165.8 0.999805 -81.25 0.999805 -81.25 0.019533 -176.7
8.83900000 0.019523 -165.8 0.999805 -81.25 0.999805 -81.25 0.019522 -176.7
8.83920000 0.019512 -165.8 0.999805 -81.26 0.999805 -81.26 0.019511 -176.8
8.83940000 0.019501 -165.7 0.999805 -81.26 0.999805 -81.26 0.019501 -176.8
8.83960000 0.019490 -165.7 0.999806 -81.26 0.999806 -81.26 0.019490 -176.8
8.83980000 0.019479 -165.7 0.999806 -81.26 0.999806 -81.26 0.019479 -176.8
8.84000000 0.019468 -165.7 0.999806 -81.27 0.999806 -81.27 0.019468 -176.8
8.84020000 0.019457 -165.7 0.999806 -81.27 0.999806 -81.27 0.019457 -176.8
8.84040000 0.019446 -165.7 0.999806 -81.27 0.999806 -81.27 0.019445 -176.9
8.84060000 0.019435 -165.7 0.999807 -81.27 0.999807 -81.27 0.019434 -176.9
8.84080000 0.019424 -165.7 0.999807 -81.28 0.999807 -81.28 0.019423 -176.9
8.84100000 0.019412 -165.6 0.999807 -81.28 0.999807 -81.28 0.019411 -176.9
8.84120000 0.019401 -165.6 0.999807 -81.28 0.999807 -81.28 0.019400 -176.9
8.84140000 0.019389 -165.6 0.999807 -81.28 0.999807 -81.28 0.019388 -177.0
8.84160000 0.019377 -165.6 0.999808 -81.29 0.999808 -81.29 0.019377 -177.0
8.84180000 0.019366 -165.6 0.999808 -81.29 0.999808 -81.29 0.019365 -177.0
8.84200000 0.019354 -165.6 0.999808 -81.29 0.999808 -81.29 0.019353 -177.0
8.84220000 0.019342 -165.6 0.999808 -81.29 0.999808 -81.29 0.019341 -177.0
8.84240000 0.019330 -165.5 0.999809 -81.30 0.999809 -81.30 0.019330 -177.1
8.84260000 0.019318 -165.5 0.999809 -81.30 0.999809 -81.30 0.019318 -177.1
8.84280000 0.019306 -165.5 0.999809 -81.30 0.999809 -81.30 0.019305 -177.1
8.84300000 0.019294 -165.5 0.999809 -81.30 0.999809 -81.30 0.019293 -177.1
8.84320000 0.019282 -165.5 0.999809 -81.31 0.999809 -81.31 0.019281 -177.1
8.84340000 0.019269 -165.5 0.999810 -81.31 0.999810 -81.31 0.019269 -177.1
8.84360000 0.019257 -165.5 0.999810 -81.31 0.999810 -81.31 0.019256 -177.2
8.84380000 0.019244 -165.4 0.999810 -81.31 0.999810 -81.31 0.019244 -177.2
8.84400000 0.019232 -165.4 0.999810 -81.32 0.999810 -81.32 0.019231 -177.2
8.84420000 0.019219 -165.4 0.999811 -81.32 0.999811 -81.32 0.019218 -177.2
8.84440000 0.019206 -165.4 0.999811 -81.32 0.999811 -81.32 0.019205 -177.2
8.84460000 0.019193 -165.4 0.999811 -81.33 0.999811 -81.33 0.019193 -177.3
8.84480000 0.019180 -165.4 0.999811 -81.33 0.999811 -81.33 0.019180 -177.3
8.84500000 0.019167 -165.4 0.999812 -81.33 0.999812 -81.33 0.019166 -177.3
8.84520000 0.019154 -165.3 0.999812 -81.33 0.999812 -81.33 0.019153 -177.3
8.84540000 0.019141 -165.3 0.999812 -81.34 0.999812 -81.34 0.019140 -177.4
8.84560000 0.019128 -165.3 0.999812 -81.34 0.999812 -81.34 0.019127 -177.4
8.84580000 0.019114 -165.3 0.999813 -81.34 0.999813 -81.34 0.019113 -177.4
8.84600000 0.019101 -165.3 0.999813 -81.34 0.999813 -81.34 0.019100 -177.4
8.84620000 0.019087 -165.3 0.999813 -81.35 0.999813 -81.35 0.019086 -177.4
8.84640000 0.019073 -165.2 0.999813 -81.35 0.999813 -81.35 0.019072 -177.5
8.84660000 0.019059 -165.2 0.999814 -81.35 0.999814 -81.35 0.019058 -177.5
8.84680000 0.019045 -165.2 0.999814 -81.36 0.999814 -81.36 0.019044 -177.5
8.84700000 0.019031 -165.2 0.999814 -81.36 0.999814 -81.36 0.019030 -177.5
8.84720000 0.019017 -165.2 0.999814 -81.36 0.999814 -81.36 0.019016 -177.6
8.84740000 0.019003 -165.2 0.999815 -81.36 0.999815 -81.36 0.019002 -177.6
8.84760000 0.018989 -165.1 0.999815 -81.37 0.999815 -81.37 0.018988 -177.6
8.84780000 0.018974 -165.1 0.999815 -81.37 0.999815 -81.37 0.018973 -177.6
8.84800000 0.018959 -165.1 0.999815 -81.37 0.999815 -81.37 0.018959 -177.6
8.84820000 0.018945 -165.1 0.999816 -81.37 0.999816 -81.37 0.018944 -177.7
8.84840000 0.018930 -165.1 0.999816 -81.38 0.999816 -81.38 0.018929 -177.7
8.84860000 0.018915 -165.0 0.999816 -81.38 0.999816 -81.38 0.018914 -177.7
8.84880000 0.018900 -165.0 0.999816 -81.38 0.999816 -81.38 0.018899 -177.7
8.84900000 0.018885 -165.0 0.999817 -81.39 0.999817 -81.39 0.018884 -177.8
8.84920000 0.018870 -165.0 0.999817 -81.39 0.999817 -81.39 0.018869 -177.8
8.84940000 0.018854 -165.0 0.999817 -81.39 0.999817 -81.39 0.018853 -177.8
8.84960000 0.018839 -164.9 0.999818 -81.39 0.999818 -81.39 0.018838 -177.8
8.84980000 0.018823 -164.9 0.999818 -81.40 0.999818 -81.40 0.018822 -177.9
8.85000000 0.018807 -164.9 0.999818 -81.40 0.999818 -81.40 0.018806 -177.9
8.85020000 0.018792 -164.9 0.999818 -81.40 0.999818 -81.40 0.018790 -177.9
8.85040000 0.018776 -164.9 0.999819 -81.41 0.999819 -81.41 0.018774 -177.9
8.85060000 0.018759 -164.8 0.999819 -81.41 0.999819 -81.41 0.018758 -178.0
8.85080000 0.018743 -164.8 0.999819 -81.41 0.999819 -81.41 0.018742 -178.0
8.85100000 0.018727 -164.8 0.999820 -81.41 0.999820 -81.41 0.018726 -178.0
8.85120000 0.018710 -164.8 0.999820 -81.42 0.999820 -81.42 0.018709 -178.1
8.85140000 0.018694 -164.8 0.999820 -81.42 0.999820 -81.42 0.018693 -178.1
8.85160000 0.018677 -164.7 0.999820 -81.42 0.999820 -81.42 0.018676 -178.1
8.85180000 0.018660 -164.7 0.999821 -81.43 0.999821 -81.43 0.018659 -178.1
8.85200000 0.018643 -164.7 0.999821 -81.43 0.999821 -81.43 0.018642 -178.2
8.85220000 0.018626 -164.7 0.999821 -81.43 0.999821 -81.43 0.018625 -178.2
8.85240000 0.018608 -164.6 0.999822 -81.43 0.999822 -81.43 0.018607 -178.2
8.85260000 0.018591 -164.6 0.999822 -81.44 0.999822 -81.44 0.018590 -178.3
8.85280000 0.018573 -164.6 0.999822 -81.44 0.999822 -81.44 0.018572 -178.3
8.85300000 0.018556 -164.6 0.999823 -81.44 0.999823 -81.44 0.018554 -178.3
8.85320000 0.018538 -164.6 0.999823 -81.45 0.999823 -81.45 0.018536 -178.3
8.85340000 0.018520 -164.5 0.999823 -81.45 0.999823 -81.45 0.018518 -178.4
8.85360000 0.018501 -164.5 0.999823 -81.45 0.999823 -81.45 0.018500 -178.4
8.85380000 0.018483 -164.5 0.999824 -81.46 0.999824 -81.46 0.018482 -178.4
8.85400000 0.018465 -164.5 0.999824 -81.46 0.999824 -81.46 0.018463 -178.5
8.85420000 0.018446 -164.4 0.999824 -81.46 0.999824 -81.46 0.018445 -178.5
8.85440000 0.018427 -164.4 0.999825 -81.46 0.999825 -81.46 0.018426 -178.5
8.85460000 0.018408 -164.4 0.999825 -81.47 0.999825 -81.47 0.018407 -178.6
8.85480000 0.018389 -164.4 0.999825 -81.47 0.999825 -81.47 0.018388 -178.6
8.85500000 0.018370 -164.3 0.999826 -81.47 0.999826 -81.47 0.018368 -178.6
8.85520000 0.018350 -164.3 0.999826 -81.48 0.999826 -81.48 0.018349 -178.7
8.85540000 0.018331 -164.3 0.999826 -81.48 0.999826 -81.48 0.018329 -178.7
8.85560000 0.018311 -164.2 0.999827 -81.48 0.999827 -81.48 0.018309 -178.7
8.85580000 0.018291 -164.2 0.999827 -81.49 0.999827 -81.49 0.018289 -178.8
8.85600000 0.018271 -164.2 0.999828 -81.49 0.999828 -81.49 0.018269 -178.8
8.85620000 0.018250 -164.2 0.999828 -81.49 0.999828 -81.49 0.018249 -178.8
8.85640000 0.018230 -164.1 0.999828 -81.50 0.999828 -81.50 0.018228 -178.9
8.85660000 0.018209 -164.1 0.999829 -81.50 0.999829 -81.50 0.018207 -178.9
8.85680000 0.018188 -164.1 0.999829 -81.50 0.999829 -81.50 0.018187 -178.9
8.85700000 0.018167 -164.0 0.999829 -81.50 0.999829 -81.50 0.018165 -179.0
8.85720000 0.018146 -164.0 0.999830 -81.51 0.999830 -81.51 0.018144 -179.0
8.85740000 0.018124 -164.0 0.999830 -81.51 0.999830 -81.51 0.018123 -179.0
8.85760000 0.018103 -163.9 0.999830 -81.51 0.999830 -81.51 0.018101 -179.1
8.85780000 0.018081 -163.9 0.999831 -81.52 0.999831 -81.52 0.018079 -179.1
8.85800000 0.018059 -163.9 0.999831 -81.52 0.999831 -81.52 0.018057 -179.2
8.85820000 0.018036 -163.8 0.999832 -81.52 0.999832 -81.52 0.018035 -179.2
8.85840000 0.018014 -163.8 0.999832 -81.53 0.999832 -81.53 0.018012 -179.2
8.85860000 0.017991 -163.8 0.999832 -81.53 0.999832 -81.53 0.017990 -179.3
8.85880000 0.017968 -163.7 0.999833 -81.53 0.999833 -81.53 0.017967 -179.3
8.85900000 0.017945 -163.7 0.999833 -81.54 0.999833 -81.54 0.017944 -179.4
8.85920000 0.017922 -163.7 0.999833 -81.54 0.999833 -81.54 0.017920 -179.4
8.85940000 0.017898 -163.6 0.999834 -81.54 0.999834 -81.54 0.017897 -179.4
8.85960000 0.017875 -163.6 0.999834 -81.55 0.999834 -81.55 0.017873 -179.5
8.85980000 0.017851 -163.6 0.999835 -81.55 0.999835 -81.55 0.017849 -179.5
8.86000000 0.017826 -163.5 0.999835 -81.55 0.999835 -81.55 0.017825 -179.6
8.86020000 0.017802 -163.5 0.999835 -81.56 0.999835 -81.56 0.017800 -179.6
8.86040000 0.017777 -163.5 0.999836 -81.56 0.999836 -81.56 0.017775 -179.7
8.86060000 0.017752 -163.4 0.999836 -81.56 0.999836 -81.56 0.017750 -179.7
8.86080000 0.017727 -163.4 0.999837 -81.57 0.999837 -81.57 0.017725 -179.7
8.86100000 0.017702 -163.3 0.999837 -81.57 0.999837 -81.57 0.017700 -179.8
8.86120000 0.017676 -163.3 0.999838 -81.57 0.999838 -81.57 0.017674 -179.8
8.86140000 0.017650 -163.3 0.999838 -81.58 0.999838 -81.58 0.017648 -179.9
8.86160000 0.017624 -163.2 0.999838 -81.58 0.999838 -81.58 0.017622 -179.9
8.86180000 0.017597 -163.2 0.999839 -81.59 0.999839 -81.59 0.017595 -180.0
8.86200000 0.017571 -163.1 0.999839 -81.59 0.999839 -81.59 0.017568 179.97
8.86220000 0.017544 -163.1 0.999840 -81.59 0.999840 -81.59 0.017541 179.92
8.86240000 0.017516 -163.1 0.999840 -81.60 0.999840 -81.60 0.017514 179.87
8.86260000 0.017489 -163.0 0.999841 -81.60 0.999841 -81.60 0.017487 179.82
8.86280000 0.017461 -163.0 0.999841 -81.60 0.999841 -81.60 0.017459 179.77
8.86300000 0.017433 -162.9 0.999842 -81.61 0.999842 -81.61 0.017431 179.72
8.86320000 0.017405 -162.9 0.999842 -81.61 0.999842 -81.61 0.017402 179.66
8.86340000 0.017376 -162.8 0.999842 -81.61 0.999842 -81.61 0.017373 179.61
8.86360000 0.017347 -162.8 0.999843 -81.62 0.999843 -81.62 0.017344 179.56
8.86380000 0.017317 -162.7 0.999843 -81.62 0.999843 -81.62 0.017315 179.50
8.86400000 0.017288 -162.7 0.999844 -81.63 0.999844 -81.63 0.017285 179.44
8.86420000 0.017258 -162.6 0.999844 -81.63 0.999844 -81.63 0.017255 179.39
8.86440000 0.017228 -162.6 0.999845 -81.63 0.999845 -81.63 0.017225 179.33
8.86460000 0.017197 -162.5 0.999845 -81.64 0.999845 -81.64 0.017194 179.27
8.86480000 0.017166 -162.5 0.999846 -81.64 0.999846 -81.64 0.017163 179.21
8.86500000 0.017135 -162.4 0.999846 -81.64 0.999846 -81.64 0.017132 179.15
8.86520000 0.017103 -162.4 0.999847 -81.65 0.999847 -81.65 0.017100 179.09
8.86540000 0.017071 -162.3 0.999847 -81.65 0.999847 -81.65 0.017069 179.03
8.86560000 0.017039 -162.3 0.999848 -81.66 0.999848 -81.66 0.017036 178.97
8.86580000 0.017006 -162.2 0.999848 -81.66 0.999848 -81.66 0.017003 178.91
8.86600000 0.016973 -162.2 0.999849 -81.66 0.999849 -81.66 0.016970 178.84
8.86620000 0.016940 -162.1 0.999849 -81.67 0.999849 -81.67 0.016937 178.78
8.86640000 0.016906 -162.0 0.999850 -81.67 0.999850 -81.67 0.016903 178.71
8.86660000 0.016872 -162.0 0.999850 -81.68 0.999850 -81.68 0.016869 178.64
8.86680000 0.016838 -161.9 0.999851 -81.68 0.999851 -81.68 0.016834 178.57
8.86700000 0.016803 -161.9 0.999851 -81.68 0.999851 -81.68 0.016799 178.50
8.86720000 0.016767 -161.8 0.999852 -81.69 0.999852 -81.69 0.016764 178.43
8.86740000 0.016732 -161.7 0.999853 -81.69 0.999853 -81.69 0.016728 178.36
8.86760000 0.016695 -161.7 0.999853 -81.70 0.999853 -81.70 0.016692 178.29
8.86780000 0.016659 -161.6 0.999854 -81.70 0.999854 -81.70 0.016655 178.21
8.86800000 0.016622 -161.5 0.999854 -81.71 0.999854 -81.71 0.016618 178.14
8.86820000 0.016584 -161.5 0.999855 -81.71 0.999855 -81.71 0.016581 178.06
8.86840000 0.016547 -161.4 0.999855 -81.71 0.999855 -81.71 0.016543 177.98
8.86860000 0.016508 -161.3 0.999856 -81.72 0.999856 -81.72 0.016505 177.91
8.86880000 0.016469 -161.3 0.999857 -81.72 0.999857 -81.72 0.016466 177.82
8.86900000 0.016430 -161.2 0.999857 -81.73 0.999857 -81.73 0.016426 177.74
8.86920000 0.016390 -161.1 0.999858 -81.73 0.999858 -81.73 0.016387 177.66
8.86940000 0.016350 -161.0 0.999858 -81.74 0.999858 -81.74 0.016346 177.58
8.86960000 0.016309 -161.0 0.999859 -81.74 0.999859 -81.74 0.016305 177.49
8.86980000 0.016268 -160.9 0.999860 -81.75 0.999860 -81.75 0.016264 177.40
8.87000000 0.016227 -160.8 0.999860 -81.75 0.999860 -81.75 0.016222 177.31
8.87020000 0.016184 -160.7 0.999861 -81.75 0.999861 -81.75 0.016180 177.22
8.87030163 0.016163 -160.7 0.999861 -81.76 0.999861 -81.76 0.016158 177.17
8.87040000 0.016141 -160.6 0.999861 -81.76 0.999861 -81.76 0.016137 177.13
8.87060000 0.016098 -160.5 0.999862 -81.76 0.999862 -81.76 0.016094 177.03
8.87080000 0.016054 -160.5 0.999863 -81.77 0.999863 -81.77 0.016050 176.94
8.87098718 0.016013 -160.4 0.999863 -81.77 0.999863 -81.77 0.016008 176.85
8.87100000 0.016010 -160.4 0.999863 -81.77 0.999863 -81.77 0.016005 176.84
8.87120000 0.015965 -160.3 0.999864 -81.78 0.999864 -81.78 0.015960 176.74
8.87140000 0.015919 -160.2 0.999865 -81.78 0.999865 -81.78 0.015915 176.64
8.87160000 0.015873 -160.1 0.999865 -81.79 0.999865 -81.79 0.015868 176.54
8.87165702 0.015860 -160.1 0.999865 -81.79 0.999865 -81.79 0.015855 176.51
8.87180000 0.015826 -160.0 0.999866 -81.79 0.999866 -81.79 0.015822 176.43
8.87200000 0.015779 -159.9 0.999867 -81.80 0.999867 -81.80 0.015774 176.32
8.87220000 0.015731 -159.8 0.999867 -81.80 0.999867 -81.80 0.015726 176.21
8.87231152 0.015704 -159.7 0.999868 -81.81 0.999868 -81.81 0.015699 176.15
8.87240000 0.015682 -159.7 0.999868 -81.81 0.999868 -81.81 0.015677 176.10
8.87260000 0.015633 -159.6 0.999869 -81.81 0.999869 -81.81 0.015628 175.99
8.87280000 0.015583 -159.5 0.999869 -81.82 0.999869 -81.82 0.015578 175.87
8.87295101 0.015545 -159.4 0.999870 -81.82 0.999870 -81.82 0.015539 175.78
8.87300000 0.015532 -159.4 0.999870 -81.82 0.999870 -81.82 0.015527 175.75
8.87320000 0.015481 -159.3 0.999871 -81.83 0.999871 -81.83 0.015476 175.63
8.87340000 0.015429 -159.2 0.999871 -81.83 0.999871 -81.83 0.015423 175.51
8.87357586 0.015383 -159.1 0.999872 -81.84 0.999872 -81.84 0.015377 175.40
8.87360000 0.015376 -159.0 0.999872 -81.84 0.999872 -81.84 0.015371 175.38
8.87380000 0.015323 -158.9 0.999873 -81.85 0.999873 -81.85 0.015317 175.25
8.87400000 0.015269 -158.8 0.999874 -81.85 0.999874 -81.85 0.015263 175.12
8.87418639 0.015217 -158.7 0.999874 -81.86 0.999874 -81.86 0.015211 174.99
8.87420000 0.015214 -158.7 0.999874 -81.86 0.999874 -81.86 0.015208 174.98
8.87440000 0.015158 -158.5 0.999875 -81.86 0.999875 -81.86 0.015152 174.84
8.87460000 0.015101 -158.4 0.999876 -81.87 0.999876 -81.87 0.015095 174.70
8.87478292 0.015049 -158.3 0.999877 -81.87 0.999877 -81.87 0.015043 174.57
8.87480000 0.015044 -158.3 0.999877 -81.87 0.999877 -81.87 0.015038 174.56
8.87500000 0.014986 -158.1 0.999877 -81.88 0.999877 -81.88 0.014979 174.41
8.87520000 0.014927 -158.0 0.999878 -81.89 0.999878 -81.89 0.014920 174.26
8.87536579 0.014877 -157.9 0.999879 -81.89 0.999879 -81.89 0.014871 174.13
8.87540000 0.014867 -157.9 0.999879 -81.89 0.999879 -81.89 0.014860 174.10
8.87560000 0.014806 -157.7 0.999880 -81.90 0.999880 -81.90 0.014799 173.95
8.87580000 0.014745 -157.6 0.999880 -81.90 0.999880 -81.90 0.014738 173.78
8.87593530 0.014703 -157.5 0.999881 -81.91 0.999881 -81.91 0.014695 173.67
8.87600000 0.014682 -157.4 0.999881 -81.91 0.999881 -81.91 0.014675 173.62
8.87620000 0.014619 -157.2 0.999882 -81.92 0.999882 -81.92 0.014611 173.45
8.87640000 0.014555 -157.1 0.999883 -81.92 0.999883 -81.92 0.014547 173.27