! Sonnet Data File
! From: emgraph Version : 16.52
! From Project: Resonator2_extremeCap
! Data is De-embedded 
! Data File Written: 10/11/2017 17:55:30
!< HDATE 10/10/2017 20:37:37
!< MDATE 10/10/2017 20:37:37
!< PARAMS
!< Pwid1 = 2000.0
!< Pwid2 = 2000.0
!< Air_gap = 30.0
!< Width = 50.0
!< Gap = 40.0
!< END PARAMS
# GHZ S MA R 50.70000
8.95000000 0.096635 5.8039 0.995313 -88.57 0.995313 -88.57 0.096627 -2.949
!< P1 F=8.95 Eeff=(6.44048267 -2.9687e-5) Z0=(50.4065418 1.16289e-4) R=0.0 C=0.0 
!< P2 F=8.95 Eeff=(6.44048267 -2.9687e-5) Z0=(50.4065418 1.16289e-4) R=0.0 C=0.0 
8.95020000 0.096641 5.8193 0.995312 -88.58 0.995312 -88.58 0.096634 -2.973
8.95040000 0.096647 5.8348 0.995312 -88.58 0.995312 -88.58 0.096640 -2.996
8.95060000 0.096654 5.8503 0.995311 -88.59 0.995311 -88.59 0.096647 -3.020
8.95080000 0.096660 5.8658 0.995311 -88.59 0.995311 -88.59 0.096653 -3.043
8.95100000 0.096667 5.8815 0.995310 -88.59 0.995310 -88.59 0.096659 -3.067
8.95120000 0.096673 5.8972 0.995309 -88.60 0.995309 -88.60 0.096666 -3.091
8.95140000 0.096680 5.9129 0.995309 -88.60 0.995309 -88.60 0.096672 -3.115
8.95160000 0.096686 5.9287 0.995308 -88.61 0.995308 -88.61 0.096679 -3.138
8.95180000 0.096693 5.9446 0.995307 -88.61 0.995307 -88.61 0.096685 -3.162
8.95200000 0.096699 5.9605 0.995307 -88.61 0.995307 -88.61 0.096692 -3.186
8.95220000 0.096706 5.9765 0.995306 -88.62 0.995306 -88.62 0.096699 -3.210
8.95240000 0.096713 5.9925 0.995305 -88.62 0.995305 -88.62 0.096705 -3.235
8.95260000 0.096719 6.0086 0.995305 -88.63 0.995305 -88.63 0.096712 -3.259
8.95280000 0.096726 6.0248 0.995304 -88.63 0.995304 -88.63 0.096718 -3.283
8.95300000 0.096733 6.0410 0.995303 -88.63 0.995303 -88.63 0.096725 -3.307
8.95320000 0.096739 6.0573 0.995303 -88.64 0.995303 -88.64 0.096732 -3.332
8.95340000 0.096746 6.0737 0.995302 -88.64 0.995302 -88.64 0.096738 -3.356
8.95360000 0.096753 6.0901 0.995301 -88.65 0.995301 -88.65 0.096745 -3.381
8.95380000 0.096760 6.1065 0.995301 -88.65 0.995301 -88.65 0.096752 -3.406
8.95400000 0.096766 6.1231 0.995300 -88.65 0.995300 -88.65 0.096759 -3.430
8.95420000 0.096773 6.1396 0.995299 -88.66 0.995299 -88.66 0.096765 -3.455
8.95440000 0.096780 6.1563 0.995299 -88.66 0.995299 -88.66 0.096772 -3.480
8.95460000 0.096787 6.1730 0.995298 -88.67 0.995298 -88.67 0.096779 -3.505
8.95480000 0.096794 6.1898 0.995297 -88.67 0.995297 -88.67 0.096786 -3.530
8.95500000 0.096801 6.2066 0.995297 -88.68 0.995297 -88.68 0.096793 -3.555
8.95520000 0.096808 6.2236 0.995296 -88.68 0.995296 -88.68 0.096800 -3.581
8.95540000 0.096815 6.2405 0.995295 -88.68 0.995295 -88.68 0.096807 -3.606
8.95560000 0.096822 6.2576 0.995295 -88.69 0.995295 -88.69 0.096814 -3.631
8.95580000 0.096829 6.2747 0.995294 -88.69 0.995294 -88.69 0.096821 -3.657
8.95600000 0.096836 6.2918 0.995293 -88.70 0.995293 -88.70 0.096828 -3.682
8.95620000 0.096843 6.3091 0.995292 -88.70 0.995292 -88.70 0.096835 -3.708
8.95640000 0.096850 6.3264 0.995292 -88.70 0.995292 -88.70 0.096842 -3.734
8.95660000 0.096857 6.3437 0.995291 -88.71 0.995291 -88.71 0.096849 -3.759
8.95680000 0.096864 6.3612 0.995290 -88.71 0.995290 -88.71 0.096856 -3.785
8.95700000 0.096871 6.3787 0.995290 -88.72 0.995290 -88.72 0.096863 -3.811
8.95720000 0.096878 6.3962 0.995289 -88.72 0.995289 -88.72 0.096870 -3.837
8.95740000 0.096886 6.4138 0.995288 -88.73 0.995288 -88.73 0.096878 -3.863
8.95760000 0.096893 6.4315 0.995288 -88.73 0.995288 -88.73 0.096885 -3.889
8.95780000 0.096900 6.4493 0.995287 -88.73 0.995287 -88.73 0.096892 -3.916
8.95800000 0.096907 6.4671 0.995286 -88.74 0.995286 -88.74 0.096899 -3.942
8.95820000 0.096915 6.4851 0.995285 -88.74 0.995285 -88.74 0.096907 -3.969
8.95840000 0.096922 6.5030 0.995285 -88.75 0.995285 -88.75 0.096914 -3.995
8.95860000 0.096929 6.5211 0.995284 -88.75 0.995284 -88.75 0.096921 -4.022
8.95880000 0.096937 6.5392 0.995283 -88.76 0.995283 -88.76 0.096929 -4.048
8.95900000 0.096944 6.5574 0.995282 -88.76 0.995282 -88.76 0.096936 -4.075
8.95920000 0.096952 6.5756 0.995282 -88.76 0.995282 -88.76 0.096943 -4.102
8.95940000 0.096959 6.5939 0.995281 -88.77 0.995281 -88.77 0.096951 -4.129
8.95960000 0.096967 6.6123 0.995280 -88.77 0.995280 -88.77 0.096958 -4.156
8.95980000 0.096974 6.6308 0.995279 -88.78 0.995279 -88.78 0.096966 -4.183
8.96000000 0.096982 6.6493 0.995279 -88.78 0.995279 -88.78 0.096973 -4.210
8.96020000 0.096990 6.6679 0.995278 -88.79 0.995278 -88.79 0.096981 -4.238
8.96040000 0.096997 6.6866 0.995277 -88.79 0.995277 -88.79 0.096989 -4.265
8.96060000 0.097005 6.7054 0.995276 -88.79 0.995276 -88.79 0.096996 -4.292
8.96080000 0.097013 6.7242 0.995276 -88.80 0.995276 -88.80 0.097004 -4.320
8.96100000 0.097020 6.7431 0.995275 -88.80 0.995275 -88.80 0.097012 -4.348
8.96120000 0.097028 6.7621 0.995274 -88.81 0.995274 -88.81 0.097019 -4.375
8.96140000 0.097036 6.7812 0.995273 -88.81 0.995273 -88.81 0.097027 -4.403
8.96160000 0.097044 6.8003 0.995273 -88.82 0.995273 -88.82 0.097035 -4.431
8.96180000 0.097052 6.8195 0.995272 -88.82 0.995272 -88.82 0.097043 -4.459
8.96200000 0.097059 6.8388 0.995271 -88.83 0.995271 -88.83 0.097051 -4.487
8.96220000 0.097067 6.8581 0.995270 -88.83 0.995270 -88.83 0.097059 -4.516
8.96240000 0.097075 6.8775 0.995269 -88.83 0.995269 -88.83 0.097067 -4.544
8.96260000 0.097083 6.8971 0.995269 -88.84 0.995269 -88.84 0.097074 -4.572
8.96280000 0.097091 6.9166 0.995268 -88.84 0.995268 -88.84 0.097082 -4.601
8.96300000 0.097099 6.9363 0.995267 -88.85 0.995267 -88.85 0.097090 -4.629
8.96320000 0.097108 6.9560 0.995266 -88.85 0.995266 -88.85 0.097099 -4.658
8.96340000 0.097116 6.9759 0.995265 -88.86 0.995265 -88.86 0.097107 -4.687
8.96360000 0.097124 6.9958 0.995265 -88.86 0.995265 -88.86 0.097115 -4.716
8.96380000 0.097132 7.0157 0.995264 -88.87 0.995264 -88.87 0.097123 -4.745
8.96400000 0.097140 7.0358 0.995263 -88.87 0.995263 -88.87 0.097131 -4.774
!< P1 F=8.964 Eeff=(6.44048296 -2.9688e-5) Z0=(50.4064859 1.16289e-4) R=0.0 C=0.0 
!< P2 F=8.964 Eeff=(6.44048296 -2.9688e-5) Z0=(50.4064859 1.16289e-4) R=0.0 C=0.0 
8.96420000 0.097148 7.0559 0.995262 -88.87 0.995262 -88.87 0.097139 -4.803
8.96440000 0.097157 7.0762 0.995261 -88.88 0.995261 -88.88 0.097148 -4.832
8.96460000 0.097165 7.0965 0.995260 -88.88 0.995260 -88.88 0.097156 -4.862
8.96480000 0.097173 7.1168 0.995260 -88.89 0.995260 -88.89 0.097164 -4.891
8.96500000 0.097182 7.1373 0.995259 -88.89 0.995259 -88.89 0.097173 -4.921
8.96520000 0.097190 7.1579 0.995258 -88.90 0.995258 -88.90 0.097181 -4.950
8.96540000 0.097199 7.1785 0.995257 -88.90 0.995257 -88.90 0.097189 -4.980
8.96560000 0.097207 7.1992 0.995256 -88.91 0.995256 -88.91 0.097198 -5.010
8.96580000 0.097216 7.2200 0.995255 -88.91 0.995255 -88.91 0.097206 -5.040
8.96600000 0.097224 7.2409 0.995255 -88.92 0.995255 -88.92 0.097215 -5.070
8.96620000 0.097233 7.2618 0.995254 -88.92 0.995254 -88.92 0.097224 -5.100
8.96640000 0.097242 7.2829 0.995253 -88.92 0.995253 -88.92 0.097232 -5.131
8.96660000 0.097250 7.3040 0.995252 -88.93 0.995252 -88.93 0.097241 -5.161
8.96680000 0.097259 7.3252 0.995251 -88.93 0.995251 -88.93 0.097250 -5.192
8.96700000 0.097268 7.3466 0.995250 -88.94 0.995250 -88.94 0.097258 -5.222
8.96720000 0.097277 7.3680 0.995249 -88.94 0.995249 -88.94 0.097267 -5.253
8.96740000 0.097286 7.3894 0.995248 -88.95 0.995248 -88.95 0.097276 -5.284
8.96760000 0.097295 7.4110 0.995248 -88.95 0.995248 -88.95 0.097285 -5.315
8.96780000 0.097304 7.4327 0.995247 -88.96 0.995247 -88.96 0.097294 -5.346
8.96800000 0.097313 7.4544 0.995246 -88.96 0.995246 -88.96 0.097303 -5.377
8.96820000 0.097322 7.4762 0.995245 -88.97 0.995245 -88.97 0.097312 -5.408
8.96840000 0.097331 7.4982 0.995244 -88.97 0.995244 -88.97 0.097321 -5.440
8.96860000 0.097340 7.5202 0.995243 -88.98 0.995243 -88.98 0.097330 -5.471
8.96880000 0.097349 7.5423 0.995242 -88.98 0.995242 -88.98 0.097339 -5.503
8.96900000 0.097358 7.5645 0.995241 -88.99 0.995241 -88.99 0.097348 -5.534
8.96920000 0.097367 7.5868 0.995240 -88.99 0.995240 -88.99 0.097357 -5.566
8.96940000 0.097377 7.6092 0.995239 -89.00 0.995239 -89.00 0.097366 -5.598
8.96960000 0.097386 7.6317 0.995238 -89.00 0.995238 -89.00 0.097376 -5.630
8.96980000 0.097395 7.6542 0.995238 -89.00 0.995238 -89.00 0.097385 -5.662
8.97000000 0.097405 7.6769 0.995237 -89.01 0.995237 -89.01 0.097394 -5.695
8.97020000 0.097414 7.6996 0.995236 -89.01 0.995236 -89.01 0.097404 -5.727
8.97040000 0.097424 7.7225 0.995235 -89.02 0.995235 -89.02 0.097413 -5.760
8.97060000 0.097433 7.7454 0.995234 -89.02 0.995234 -89.02 0.097423 -5.792
8.97080000 0.097443 7.7685 0.995233 -89.03 0.995233 -89.03 0.097432 -5.825
8.97100000 0.097452 7.7916 0.995232 -89.03 0.995232 -89.03 0.097442 -5.858
8.97120000 0.097462 7.8149 0.995231 -89.04 0.995231 -89.04 0.097452 -5.891
8.97140000 0.097472 7.8382 0.995230 -89.04 0.995230 -89.04 0.097461 -5.924
8.97160000 0.097482 7.8616 0.995229 -89.05 0.995229 -89.05 0.097471 -5.957
8.97180000 0.097492 7.8852 0.995228 -89.05 0.995228 -89.05 0.097481 -5.991
8.97200000 0.097501 7.9088 0.995227 -89.06 0.995227 -89.06 0.097491 -6.024
8.97220000 0.097511 7.9325 0.995226 -89.06 0.995226 -89.06 0.097501 -6.058
8.97240000 0.097521 7.9564 0.995225 -89.07 0.995225 -89.07 0.097511 -6.091
8.97260000 0.097531 7.9803 0.995224 -89.07 0.995224 -89.07 0.097521 -6.125
8.97280000 0.097541 8.0043 0.995223 -89.08 0.995223 -89.08 0.097531 -6.159
8.97300000 0.097552 8.0285 0.995222 -89.08 0.995222 -89.08 0.097541 -6.193
8.97320000 0.097562 8.0527 0.995221 -89.09 0.995221 -89.09 0.097551 -6.228
8.97340000 0.097572 8.0771 0.995220 -89.09 0.995220 -89.09 0.097561 -6.262
8.97360000 0.097582 8.1015 0.995219 -89.10 0.995219 -89.10 0.097571 -6.296
8.97380000 0.097593 8.1261 0.995218 -89.10 0.995218 -89.10 0.097582 -6.331
8.97400000 0.097603 8.1507 0.995217 -89.11 0.995217 -89.11 0.097592 -6.366
8.97420000 0.097614 8.1755 0.995216 -89.11 0.995216 -89.11 0.097602 -6.401
8.97440000 0.097624 8.2003 0.995215 -89.12 0.995215 -89.12 0.097613 -6.436
8.97460000 0.097635 8.2253 0.995214 -89.12 0.995214 -89.12 0.097623 -6.471
8.97480000 0.097645 8.2504 0.995213 -89.13 0.995213 -89.13 0.097634 -6.506
8.97500000 0.097656 8.2756 0.995212 -89.13 0.995212 -89.13 0.097645 -6.541
8.97520000 0.097667 8.3009 0.995210 -89.14 0.995210 -89.14 0.097655 -6.577
8.97540000 0.097677 8.3263 0.995209 -89.14 0.995209 -89.14 0.097666 -6.613
8.97560000 0.097688 8.3518 0.995208 -89.15 0.995208 -89.15 0.097677 -6.648
8.97580000 0.097699 8.3775 0.995207 -89.15 0.995207 -89.15 0.097688 -6.684
8.97600000 0.097710 8.4032 0.995206 -89.16 0.995206 -89.16 0.097699 -6.720
8.97620000 0.097721 8.4290 0.995205 -89.16 0.995205 -89.16 0.097710 -6.757
8.97640000 0.097732 8.4550 0.995204 -89.17 0.995204 -89.17 0.097721 -6.793
8.97660000 0.097743 8.4811 0.995203 -89.17 0.995203 -89.17 0.097732 -6.830
8.97680000 0.097755 8.5073 0.995202 -89.18 0.995202 -89.18 0.097743 -6.866
8.97700000 0.097766 8.5336 0.995200 -89.19 0.995200 -89.19 0.097754 -6.903
8.97720000 0.097777 8.5600 0.995199 -89.19 0.995199 -89.19 0.097765 -6.940
8.97740000 0.097789 8.5866 0.995198 -89.20 0.995198 -89.20 0.097777 -6.977
8.97760000 0.097800 8.6132 0.995197 -89.20 0.995197 -89.20 0.097788 -7.014
8.97780000 0.097812 8.6400 0.995196 -89.21 0.995196 -89.21 0.097800 -7.051
8.97800000 0.097823 8.6669 0.995195 -89.21 0.995195 -89.21 0.097811 -7.089
8.97820000 0.097835 8.6939 0.995194 -89.22 0.995194 -89.22 0.097823 -7.127
8.97840000 0.097847 8.7210 0.995192 -89.22 0.995192 -89.22 0.097834 -7.164
8.97860000 0.097858 8.7483 0.995191 -89.23 0.995191 -89.23 0.097846 -7.202
8.97880000 0.097870 8.7756 0.995190 -89.23 0.995190 -89.23 0.097858 -7.240
8.97900000 0.097882 8.8031 0.995189 -89.24 0.995189 -89.24 0.097870 -7.279
8.97920000 0.097894 8.8307 0.995188 -89.24 0.995188 -89.24 0.097882 -7.317
8.97940000 0.097906 8.8585 0.995186 -89.25 0.995186 -89.25 0.097894 -7.356
8.97960000 0.097918 8.8863 0.995185 -89.25 0.995185 -89.25 0.097906 -7.394
8.97980000 0.097930 8.9143 0.995184 -89.26 0.995184 -89.26 0.097918 -7.433
8.98000000 0.097943 8.9424 0.995183 -89.27 0.995183 -89.27 0.097930 -7.472
8.98020000 0.097955 8.9707 0.995182 -89.27 0.995182 -89.27 0.097942 -7.511
8.98040000 0.097967 8.9990 0.995180 -89.28 0.995180 -89.28 0.097955 -7.551
8.98060000 0.097980 9.0275 0.995179 -89.28 0.995179 -89.28 0.097967 -7.590
8.98080000 0.097992 9.0562 0.995178 -89.29 0.995178 -89.29 0.097980 -7.630
8.98100000 0.098005 9.0849 0.995177 -89.29 0.995177 -89.29 0.097992 -7.670
8.98120000 0.098018 9.1138 0.995175 -89.30 0.995175 -89.30 0.098005 -7.709
8.98140000 0.098031 9.1428 0.995174 -89.30 0.995174 -89.30 0.098018 -7.750
8.98160000 0.098043 9.1719 0.995173 -89.31 0.995173 -89.31 0.098030 -7.790
8.98180000 0.098056 9.2012 0.995171 -89.32 0.995171 -89.32 0.098043 -7.830
8.98200000 0.098069 9.2306 0.995170 -89.32 0.995170 -89.32 0.098056 -7.871
8.98220000 0.098082 9.2602 0.995169 -89.33 0.995169 -89.33 0.098069 -7.912
8.98240000 0.098096 9.2898 0.995167 -89.33 0.995167 -89.33 0.098082 -7.953
8.98260000 0.098109 9.3196 0.995166 -89.34 0.995166 -89.34 0.098095 -7.994
8.98280000 0.098122 9.3496 0.995165 -89.34 0.995165 -89.34 0.098109 -8.035
8.98300000 0.098136 9.3797 0.995163 -89.35 0.995163 -89.35 0.098122 -8.076
8.98320000 0.098149 9.4099 0.995162 -89.35 0.995162 -89.35 0.098136 -8.118
8.98340000 0.098163 9.4403 0.995161 -89.36 0.995161 -89.36 0.098149 -8.160
8.98360000 0.098176 9.4708 0.995159 -89.37 0.995159 -89.37 0.098163 -8.202
8.98380000 0.098190 9.5014 0.995158 -89.37 0.995158 -89.37 0.098176 -8.244
8.98400000 0.098204 9.5322 0.995157 -89.38 0.995157 -89.38 0.098190 -8.286
8.98420000 0.098218 9.5631 0.995155 -89.38 0.995155 -89.38 0.098204 -8.329
8.98440000 0.098232 9.5942 0.995154 -89.39 0.995154 -89.39 0.098218 -8.371
8.98460000 0.098246 9.6254 0.995152 -89.39 0.995152 -89.39 0.098232 -8.414
8.98480000 0.098260 9.6568 0.995151 -89.40 0.995151 -89.40 0.098246 -8.457
8.98500000 0.098274 9.6883 0.995149 -89.41 0.995149 -89.41 0.098260 -8.500
8.98520000 0.098289 9.7199 0.995148 -89.41 0.995148 -89.41 0.098274 -8.544
8.98540000 0.098303 9.7517 0.995147 -89.42 0.995147 -89.42 0.098289 -8.587
8.98560000 0.098318 9.7837 0.995145 -89.42 0.995145 -89.42 0.098303 -8.631
8.98580000 0.098332 9.8158 0.995144 -89.43 0.995144 -89.43 0.098318 -8.675
8.98600000 0.098347 9.8481 0.995142 -89.44 0.995142 -89.44 0.098333 -8.719
8.98620000 0.098362 9.8805 0.995141 -89.44 0.995141 -89.44 0.098347 -8.764
8.98640000 0.098377 9.9130 0.995139 -89.45 0.995139 -89.45 0.098362 -8.808
8.98660000 0.098392 9.9457 0.995138 -89.45 0.995138 -89.45 0.098377 -8.853
8.98680000 0.098407 9.9786 0.995136 -89.46 0.995136 -89.46 0.098392 -8.898
8.98700000 0.098422 10.012 0.995135 -89.47 0.995135 -89.47 0.098407 -8.943
8.98720000 0.098437 10.045 0.995133 -89.47 0.995133 -89.47 0.098423 -8.988
8.98740000 0.098453 10.078 0.995131 -89.48 0.995131 -89.48 0.098438 -9.034
8.98760000 0.098468 10.112 0.995130 -89.48 0.995130 -89.48 0.098453 -9.079
8.98780000 0.098484 10.145 0.995128 -89.49 0.995128 -89.49 0.098469 -9.125
8.98800000 0.098500 10.179 0.995127 -89.50 0.995127 -89.50 0.098485 -9.171
8.98820000 0.098516 10.213 0.995125 -89.50 0.995125 -89.50 0.098500 -9.217
8.98840000 0.098532 10.247 0.995123 -89.51 0.995123 -89.51 0.098516 -9.264
8.98860000 0.098548 10.282 0.995122 -89.51 0.995122 -89.51 0.098532 -9.311
8.98880000 0.098564 10.316 0.995120 -89.52 0.995120 -89.52 0.098548 -9.357
8.98900000 0.098580 10.351 0.995119 -89.53 0.995119 -89.53 0.098565 -9.404
8.98920000 0.098596 10.385 0.995117 -89.53 0.995117 -89.53 0.098581 -9.452
8.98940000 0.098613 10.420 0.995115 -89.54 0.995115 -89.54 0.098597 -9.499
8.98960000 0.098630 10.456 0.995114 -89.55 0.995114 -89.55 0.098614 -9.547
8.98980000 0.098646 10.491 0.995112 -89.55 0.995112 -89.55 0.098631 -9.595
8.99000000 0.098663 10.526 0.995110 -89.56 0.995110 -89.56 0.098647 -9.643
8.99020000 0.098680 10.562 0.995108 -89.56 0.995108 -89.56 0.098664 -9.691
8.99040000 0.098697 10.598 0.995107 -89.57 0.995107 -89.57 0.098681 -9.740
8.99060000 0.098714 10.634 0.995105 -89.58 0.995105 -89.58 0.098698 -9.789
8.99080000 0.098732 10.670 0.995103 -89.58 0.995103 -89.58 0.098716 -9.838
8.99100000 0.098749 10.706 0.995101 -89.59 0.995101 -89.59 0.098733 -9.887
8.99120000 0.098767 10.743 0.995100 -89.60 0.995100 -89.60 0.098750 -9.936
8.99140000 0.098784 10.780 0.995098 -89.60 0.995098 -89.60 0.098768 -9.986
8.99160000 0.098802 10.817 0.995096 -89.61 0.995096 -89.61 0.098786 -10.04
8.99180000 0.098820 10.854 0.995094 -89.62 0.995094 -89.62 0.098804 -10.09
8.99200000 0.098838 10.891 0.995092 -89.62 0.995092 -89.62 0.098822 -10.14
8.99220000 0.098856 10.928 0.995091 -89.63 0.995091 -89.63 0.098840 -10.19
8.99240000 0.098875 10.966 0.995089 -89.64 0.995089 -89.64 0.098858 -10.24
8.99260000 0.098893 11.004 0.995087 -89.64 0.995087 -89.64 0.098876 -10.29
8.99280000 0.098912 11.042 0.995085 -89.65 0.995085 -89.65 0.098895 -10.34
8.99300000 0.098931 11.080 0.995083 -89.66 0.995083 -89.66 0.098914 -10.39
8.99320000 0.098949 11.118 0.995081 -89.66 0.995081 -89.66 0.098932 -10.44
8.99340000 0.098968 11.157 0.995079 -89.67 0.995079 -89.67 0.098951 -10.50
8.99360000 0.098988 11.196 0.995077 -89.68 0.995077 -89.68 0.098970 -10.55
8.99380000 0.099007 11.235 0.995075 -89.68 0.995075 -89.68 0.098990 -10.60
8.99400000 0.099026 11.274 0.995073 -89.69 0.995073 -89.69 0.099009 -10.65
8.99420000 0.099046 11.313 0.995071 -89.70 0.995071 -89.70 0.099028 -10.71
8.99440000 0.099066 11.353 0.995069 -89.70 0.995069 -89.70 0.099048 -10.76
8.99460000 0.099086 11.393 0.995067 -89.71 0.995067 -89.71 0.099068 -10.81
8.99480000 0.099106 11.433 0.995065 -89.72 0.995065 -89.72 0.099088 -10.87
8.99500000 0.099126 11.473 0.995063 -89.72 0.995063 -89.72 0.099108 -10.92
8.99520000 0.099146 11.513 0.995061 -89.73 0.995061 -89.73 0.099128 -10.97
8.99540000 0.099167 11.554 0.995059 -89.74 0.995059 -89.74 0.099149 -11.03
8.99560000 0.099187 11.595 0.995057 -89.74 0.995057 -89.74 0.099169 -11.08
8.99580000 0.099208 11.636 0.995055 -89.75 0.995055 -89.75 0.099190 -11.14
8.99600000 0.099229 11.677 0.995053 -89.76 0.995053 -89.76 0.099211 -11.19
8.99620000 0.099250 11.718 0.995051 -89.77 0.995051 -89.77 0.099232 -11.25
8.99640000 0.099272 11.760 0.995048 -89.77 0.995048 -89.77 0.099253 -11.31
8.99660000 0.099293 11.802 0.995046 -89.78 0.995046 -89.78 0.099274 -11.36
8.99680000 0.099315 11.844 0.995044 -89.79 0.995044 -89.79 0.099296 -11.42
8.99700000 0.099336 11.886 0.995042 -89.79 0.995042 -89.79 0.099318 -11.47
8.99720000 0.099358 11.929 0.995040 -89.80 0.995040 -89.80 0.099340 -11.53
8.99740000 0.099381 11.971 0.995037 -89.81 0.995037 -89.81 0.099362 -11.59
8.99760000 0.099403 12.014 0.995035 -89.82 0.995035 -89.82 0.099384 -11.65
8.99780000 0.099425 12.057 0.995033 -89.82 0.995033 -89.82 0.099406 -11.70
8.99800000 0.099448 12.101 0.995030 -89.83 0.995030 -89.83 0.099429 -11.76
8.99820000 0.099471 12.144 0.995028 -89.84 0.995028 -89.84 0.099452 -11.82
8.99840000 0.099494 12.188 0.995026 -89.84 0.995026 -89.84 0.099474 -11.88
8.99860000 0.099517 12.232 0.995023 -89.85 0.995023 -89.85 0.099498 -11.94
8.99880000 0.099541 12.277 0.995021 -89.86 0.995021 -89.86 0.099521 -12.00
8.99900000 0.099564 12.321 0.995019 -89.87 0.995019 -89.87 0.099544 -12.06
8.99920000 0.099588 12.366 0.995016 -89.87 0.995016 -89.87 0.099568 -12.12
8.99940000 0.099612 12.411 0.995014 -89.88 0.995014 -89.88 0.099592 -12.18
8.99960000 0.099636 12.456 0.995011 -89.89 0.995011 -89.89 0.099616 -12.24
8.99980000 0.099661 12.502 0.995009 -89.90 0.995009 -89.90 0.099640 -12.30
9.00000000 0.099685 12.548 0.995006 -89.90 0.995006 -89.90 0.099665 -12.36
9.00020000 0.099710 12.594 0.995004 -89.91 0.995004 -89.91 0.099690 -12.42
9.00040000 0.099735 12.640 0.995001 -89.92 0.995001 -89.92 0.099714 -12.48
9.00060000 0.099760 12.686 0.994999 -89.93 0.994999 -89.93 0.099740 -12.54
9.00080000 0.099786 12.733 0.994996 -89.94 0.994996 -89.94 0.099765 -12.60
9.00100000 0.099811 12.780 0.994993 -89.94 0.994993 -89.94 0.099790 -12.67
9.00120000 0.099837 12.827 0.994991 -89.95 0.994991 -89.95 0.099816 -12.73
9.00140000 0.099863 12.875 0.994988 -89.96 0.994988 -89.96 0.099842 -12.79
9.00160000 0.099889 12.923 0.994985 -89.97 0.994985 -89.97 0.099868 -12.86
9.00180000 0.099916 12.971 0.994983 -89.97 0.994983 -89.97 0.099895 -12.92
9.00200000 0.099943 13.019 0.994980 -89.98 0.994980 -89.98 0.099921 -12.98
9.00220000 0.099970 13.067 0.994977 -89.99 0.994977 -89.99 0.099948 -13.05
9.00240000 0.099997 13.116 0.994974 -90.00 0.994974 -90.00 0.099975 -13.11
9.00260000 0.100024 13.165 0.994971 -90.01 0.994971 -90.01 0.100003 -13.18
9.00280000 0.100052 13.215 0.994969 -90.01 0.994969 -90.01 0.100030 -13.24
9.00300000 0.100080 13.264 0.994966 -90.02 0.994966 -90.02 0.100058 -13.31
9.00320000 0.100108 13.314 0.994963 -90.03 0.994963 -90.03 0.100086 -13.38
9.00340000 0.100137 13.364 0.994960 -90.04 0.994960 -90.04 0.100114 -13.44
9.00360000 0.100165 13.415 0.994957 -90.05 0.994957 -90.05 0.100143 -13.51
9.00380000 0.100194 13.465 0.994954 -90.06 0.994954 -90.06 0.100172 -13.58
9.00400000 0.100223 13.516 0.994951 -90.06 0.994951 -90.06 0.100201 -13.64
9.00420000 0.100253 13.568 0.994948 -90.07 0.994948 -90.07 0.100230 -13.71
9.00440000 0.100282 13.619 0.994945 -90.08 0.994945 -90.08 0.100259 -13.78
9.00460000 0.100312 13.671 0.994942 -90.09 0.994942 -90.09 0.100289 -13.85
9.00480000 0.100343 13.723 0.994939 -90.10 0.994939 -90.10 0.100319 -13.92
9.00500000 0.100373 13.776 0.994936 -90.11 0.994936 -90.11 0.100350 -13.99
9.00520000 0.100404 13.828 0.994932 -90.11 0.994932 -90.11 0.100380 -14.06
9.00540000 0.100435 13.881 0.994929 -90.12 0.994929 -90.12 0.100411 -14.13
9.00560000 0.100466 13.935 0.994926 -90.13 0.994926 -90.13 0.100442 -14.20
9.00580000 0.100498 13.988 0.994923 -90.14 0.994923 -90.14 0.100474 -14.27
9.00600000 0.100530 14.042 0.994919 -90.15 0.994919 -90.15 0.100506 -14.34
9.00620000 0.100562 14.097 0.994916 -90.16 0.994916 -90.16 0.100538 -14.41
9.00640000 0.100594 14.151 0.994913 -90.17 0.994913 -90.17 0.100570 -14.48
9.00660000 0.100627 14.206 0.994909 -90.17 0.994909 -90.17 0.100603 -14.56
9.00680000 0.100660 14.261 0.994906 -90.18 0.994906 -90.18 0.100636 -14.63
9.00700000 0.100694 14.317 0.994903 -90.19 0.994903 -90.19 0.100669 -14.70
9.00720000 0.100727 14.372 0.994899 -90.20 0.994899 -90.20 0.100702 -14.78
9.00740000 0.100761 14.428 0.994896 -90.21 0.994896 -90.21 0.100736 -14.85
9.00760000 0.100796 14.485 0.994892 -90.22 0.994892 -90.22 0.100770 -14.92
9.00780000 0.100830 14.542 0.994888 -90.23 0.994888 -90.23 0.100805 -15.00
9.00800000 0.100865 14.599 0.994885 -90.24 0.994885 -90.24 0.100840 -15.07
9.00820000 0.100901 14.656 0.994881 -90.25 0.994881 -90.25 0.100875 -15.15
9.00840000 0.100936 14.714 0.994877 -90.25 0.994877 -90.25 0.100911 -15.23
9.00860000 0.100972 14.772 0.994874 -90.26 0.994874 -90.26 0.100946 -15.30
9.00880000 0.101009 14.830 0.994870 -90.27 0.994870 -90.27 0.100983 -15.38
9.00900000 0.101045 14.889 0.994866 -90.28 0.994866 -90.28 0.101019 -15.46
9.00920000 0.101082 14.948 0.994862 -90.29 0.994862 -90.29 0.101056 -15.53
9.00940000 0.101120 15.008 0.994858 -90.30 0.994858 -90.30 0.101093 -15.61
9.00960000 0.101158 15.068 0.994855 -90.31 0.994855 -90.31 0.101131 -15.69
9.00980000 0.101196 15.128 0.994851 -90.32 0.994851 -90.32 0.101169 -15.77
9.01000000 0.101234 15.188 0.994847 -90.33 0.994847 -90.33 0.101207 -15.85
9.01020000 0.101273 15.249 0.994843 -90.34 0.994843 -90.34 0.101246 -15.93
9.01040000 0.101312 15.310 0.994838 -90.35 0.994838 -90.35 0.101285 -16.01
9.01060000 0.101352 15.372 0.994834 -90.36 0.994834 -90.36 0.101325 -16.09
9.01080000 0.101392 15.434 0.994830 -90.37 0.994830 -90.37 0.101364 -16.17
9.01100000 0.101433 15.496 0.994826 -90.38 0.994826 -90.38 0.101405 -16.25
9.01120000 0.101473 15.559 0.994822 -90.39 0.994822 -90.39 0.101445 -16.34
9.01140000 0.101515 15.622 0.994817 -90.40 0.994817 -90.40 0.101486 -16.42
9.01160000 0.101556 15.685 0.994813 -90.41 0.994813 -90.41 0.101528 -16.50
9.01180000 0.101599 15.749 0.994809 -90.42 0.994809 -90.42 0.101570 -16.59
9.01200000 0.101641 15.813 0.994804 -90.43 0.994804 -90.43 0.101612 -16.67
9.01220000 0.101684 15.878 0.994800 -90.44 0.994800 -90.44 0.101655 -16.76
9.01240000 0.101727 15.943 0.994795 -90.45 0.994795 -90.45 0.101698 -16.84
9.01260000 0.101771 16.008 0.994791 -90.46 0.994791 -90.46 0.101742 -16.93
9.01280000 0.101816 16.074 0.994786 -90.47 0.994786 -90.47 0.101786 -17.01
9.01300000 0.101860 16.140 0.994781 -90.48 0.994781 -90.48 0.101831 -17.10
9.01320000 0.101905 16.207 0.994777 -90.49 0.994777 -90.49 0.101876 -17.19
9.01340000 0.101951 16.274 0.994772 -90.50 0.994772 -90.50 0.101921 -17.27
9.01360000 0.101997 16.341 0.994767 -90.51 0.994767 -90.51 0.101967 -17.36
9.01380000 0.102044 16.409 0.994762 -90.52 0.994762 -90.52 0.102013 -17.45
9.01400000 0.102091 16.477 0.994757 -90.53 0.994757 -90.53 0.102060 -17.54
9.01420000 0.102139 16.546 0.994752 -90.54 0.994752 -90.54 0.102108 -17.63
9.01440000 0.102187 16.615 0.994747 -90.55 0.994747 -90.55 0.102156 -17.72
9.01460000 0.102235 16.684 0.994742 -90.56 0.994742 -90.56 0.102204 -17.81
9.01480000 0.102285 16.754 0.994737 -90.57 0.994737 -90.57 0.102253 -17.90
9.01500000 0.102334 16.824 0.994732 -90.58 0.994732 -90.58 0.102303 -18.00
9.01520000 0.102384 16.895 0.994726 -90.60 0.994726 -90.60 0.102353 -18.09
9.01540000 0.102435 16.966 0.994721 -90.61 0.994721 -90.61 0.102403 -18.18
9.01560000 0.102486 17.038 0.994716 -90.62 0.994716 -90.62 0.102454 -18.28
9.01580000 0.102538 17.110 0.994710 -90.63 0.994710 -90.63 0.102506 -18.37
9.01600000 0.102591 17.183 0.994705 -90.64 0.994705 -90.64 0.102558 -18.47
9.01620000 0.102644 17.256 0.994699 -90.65 0.994699 -90.65 0.102611 -18.56
9.01640000 0.102697 17.329 0.994694 -90.66 0.994694 -90.66 0.102664 -18.66
9.01660000 0.102751 17.403 0.994688 -90.67 0.994688 -90.67 0.102718 -18.75
9.01680000 0.102806 17.478 0.994682 -90.69 0.994682 -90.69 0.102772 -18.85
9.01700000 0.102861 17.552 0.994676 -90.70 0.994676 -90.70 0.102828 -18.95
9.01720000 0.102917 17.628 0.994670 -90.71 0.994670 -90.71 0.102883 -19.05
9.01740000 0.102974 17.704 0.994664 -90.72 0.994664 -90.72 0.102940 -19.15
9.01760000 0.103031 17.780 0.994658 -90.73 0.994658 -90.73 0.102997 -19.25
9.01780000 0.103089 17.857 0.994652 -90.74 0.994652 -90.74 0.103054 -19.35
9.01800000 0.103147 17.934 0.994646 -90.76 0.994646 -90.76 0.103112 -19.45
9.01820000 0.103207 18.012 0.994640 -90.77 0.994640 -90.77 0.103171 -19.55
9.01840000 0.103266 18.090 0.994634 -90.78 0.994634 -90.78 0.103231 -19.65
9.01860000 0.103327 18.169 0.994627 -90.79 0.994627 -90.79 0.103291 -19.76
9.01880000 0.103388 18.248 0.994621 -90.80 0.994621 -90.80 0.103352 -19.86
9.01900000 0.103450 18.328 0.994614 -90.82 0.994614 -90.82 0.103414 -19.96
9.01920000 0.103513 18.408 0.994607 -90.83 0.994607 -90.83 0.103476 -20.07
9.01940000 0.103576 18.489 0.994601 -90.84 0.994601 -90.84 0.103539 -20.18
9.01960000 0.103640 18.570 0.994594 -90.85 0.994594 -90.85 0.103603 -20.28
9.01980000 0.103705 18.652 0.994587 -90.87 0.994587 -90.87 0.103667 -20.39
9.02000000 0.103770 18.734 0.994580 -90.88 0.994580 -90.88 0.103733 -20.50
9.02020000 0.103837 18.817 0.994573 -90.89 0.994573 -90.89 0.103799 -20.60
9.02040000 0.103904 18.901 0.994566 -90.90 0.994566 -90.90 0.103865 -20.71
9.02060000 0.103971 18.985 0.994559 -90.92 0.994559 -90.92 0.103933 -20.82
9.02080000 0.104040 19.069 0.994551 -90.93 0.994551 -90.93 0.104001 -20.93
9.02100000 0.104110 19.155 0.994544 -90.94 0.994544 -90.94 0.104071 -21.05
9.02120000 0.104180 19.240 0.994536 -90.96 0.994536 -90.96 0.104141 -21.16
9.02140000 0.104251 19.327 0.994529 -90.97 0.994529 -90.97 0.104212 -21.27
9.02160000 0.104323 19.413 0.994521 -90.98 0.994521 -90.98 0.104283 -21.38
9.02180000 0.104396 19.501 0.994513 -91.00 0.994513 -91.00 0.104356 -21.50
9.02200000 0.104470 19.589 0.994505 -91.01 0.994505 -91.01 0.104429 -21.61
9.02220000 0.104544 19.677 0.994497 -91.02 0.994497 -91.02 0.104504 -21.73
9.02240000 0.104620 19.767 0.994489 -91.04 0.994489 -91.04 0.104579 -21.85
9.02260000 0.104696 19.856 0.994481 -91.05 0.994481 -91.05 0.104655 -21.96
9.02280000 0.104774 19.947 0.994473 -91.06 0.994473 -91.06 0.104732 -22.08
9.02300000 0.104852 20.038 0.994464 -91.08 0.994464 -91.08 0.104810 -22.20
9.02320000 0.104931 20.129 0.994456 -91.09 0.994456 -91.09 0.104889 -22.32
9.02340000 0.105012 20.221 0.994447 -91.11 0.994447 -91.11 0.104969 -22.44
9.02360000 0.105093 20.314 0.994438 -91.12 0.994438 -91.12 0.105050 -22.56
9.02380000 0.105175 20.408 0.994430 -91.14 0.994430 -91.14 0.105132 -22.69
9.02400000 0.105259 20.502 0.994421 -91.15 0.994421 -91.15 0.105215 -22.81
9.02420000 0.105343 20.596 0.994411 -91.16 0.994411 -91.16 0.105299 -22.93
9.02440000 0.105428 20.692 0.994402 -91.18 0.994402 -91.18 0.105384 -23.06
9.02460000 0.105515 20.788 0.994393 -91.19 0.994393 -91.19 0.105470 -23.18
9.02480000 0.105603 20.884 0.994383 -91.21 0.994383 -91.21 0.105558 -23.31
9.02500000 0.105691 20.982 0.994374 -91.22 0.994374 -91.22 0.105646 -23.44
9.02520000 0.105781 21.080 0.994364 -91.24 0.994364 -91.24 0.105736 -23.57
9.02540000 0.105872 21.178 0.994354 -91.25 0.994354 -91.25 0.105826 -23.69
9.02560000 0.105964 21.278 0.994344 -91.27 0.994344 -91.27 0.105918 -23.82
9.02580000 0.106058 21.378 0.994334 -91.28 0.994334 -91.28 0.106011 -23.96
9.02600000 0.106152 21.478 0.994324 -91.30 0.994324 -91.30 0.106105 -24.09
9.02620000 0.106248 21.580 0.994313 -91.32 0.994313 -91.32 0.106201 -24.22
9.02640000 0.106345 21.682 0.994303 -91.33 0.994303 -91.33 0.106298 -24.35
9.02660000 0.106444 21.785 0.994292 -91.35 0.994292 -91.35 0.106396 -24.49
9.02680000 0.106543 21.888 0.994281 -91.36 0.994281 -91.36 0.106495 -24.63
9.02700000 0.106644 21.992 0.994270 -91.38 0.994270 -91.38 0.106595 -24.76
9.02720000 0.106747 22.097 0.994259 -91.40 0.994259 -91.40 0.106697 -24.90
9.02740000 0.106850 22.203 0.994248 -91.41 0.994248 -91.41 0.106801 -25.04
9.02760000 0.106955 22.309 0.994236 -91.43 0.994236 -91.43 0.106905 -25.18
9.02780000 0.107062 22.417 0.994224 -91.45 0.994224 -91.45 0.107011 -25.32
9.02800000 0.107170 22.524 0.994213 -91.46 0.994213 -91.46 0.107119 -25.46