! Sonnet Data File
! From: emgraph Version : 16.52
! From Project: Resonator2_cp_varyW
! Data is De-embedded 
! Data File Written: 10/07/2017 09:25:24
!< HDATE 10/06/2017 17:18:21
!< MDATE 10/06/2017 17:18:21
!< PARAMS
!< gap = 16.0
!< Length = 400.0
!< Pwid1 = 2000.0
!< Pwid2 = 2000.0
!< Air_gap = 12.0
!< Width = 20.0
!< END PARAMS
# GHZ S MA R 51.80000
8.80000000 0.013882 -167.9 0.999900 -80.68 0.999900 -80.68 0.013882 -173.5
!< P1 F=8.8 Eeff=(6.44629866 -2.9719e-5) Z0=(50.907433 1.17455e-4) R=0.0 C=0.0 
!< P2 F=8.8 Eeff=(6.44629866 -2.9719e-5) Z0=(50.907433 1.17455e-4) R=0.0 C=0.0 
8.80020000 0.013879 -167.9 0.999900 -80.68 0.999900 -80.68 0.013879 -173.5
8.80040000 0.013876 -167.9 0.999900 -80.68 0.999900 -80.68 0.013876 -173.5
8.80060000 0.013873 -167.9 0.999900 -80.69 0.999900 -80.69 0.013873 -173.5
8.80080000 0.013870 -167.8 0.999900 -80.69 0.999900 -80.69 0.013870 -173.5
8.80100000 0.013868 -167.8 0.999900 -80.69 0.999900 -80.69 0.013867 -173.6
8.80120000 0.013865 -167.8 0.999900 -80.69 0.999900 -80.69 0.013865 -173.6
8.80140000 0.013862 -167.8 0.999900 -80.69 0.999900 -80.69 0.013862 -173.6
8.80160000 0.013859 -167.8 0.999900 -80.70 0.999900 -80.70 0.013859 -173.6
8.80180000 0.013856 -167.8 0.999900 -80.70 0.999900 -80.70 0.013856 -173.6
8.80200000 0.013853 -167.8 0.999900 -80.70 0.999900 -80.70 0.013853 -173.6
8.80220000 0.013850 -167.8 0.999901 -80.70 0.999901 -80.70 0.013850 -173.6
8.80240000 0.013847 -167.8 0.999901 -80.70 0.999901 -80.70 0.013847 -173.6
8.80260000 0.013844 -167.8 0.999901 -80.71 0.999901 -80.71 0.013844 -173.6
8.80280000 0.013841 -167.8 0.999901 -80.71 0.999901 -80.71 0.013841 -173.6
8.80300000 0.013838 -167.8 0.999901 -80.71 0.999901 -80.71 0.013838 -173.6
8.80320000 0.013835 -167.8 0.999901 -80.71 0.999901 -80.71 0.013835 -173.6
8.80340000 0.013832 -167.8 0.999901 -80.71 0.999901 -80.71 0.013832 -173.6
8.80360000 0.013829 -167.8 0.999901 -80.72 0.999901 -80.72 0.013829 -173.6
8.80380000 0.013826 -167.8 0.999901 -80.72 0.999901 -80.72 0.013826 -173.6
8.80400000 0.013823 -167.8 0.999901 -80.72 0.999901 -80.72 0.013823 -173.6
8.80420000 0.013820 -167.8 0.999901 -80.72 0.999901 -80.72 0.013820 -173.6
8.80440000 0.013817 -167.8 0.999901 -80.72 0.999901 -80.72 0.013817 -173.7
8.80460000 0.013814 -167.8 0.999901 -80.73 0.999901 -80.73 0.013813 -173.7
8.80480000 0.013810 -167.8 0.999901 -80.73 0.999901 -80.73 0.013810 -173.7
8.80500000 0.013807 -167.8 0.999901 -80.73 0.999901 -80.73 0.013807 -173.7
8.80520000 0.013804 -167.8 0.999901 -80.73 0.999901 -80.73 0.013804 -173.7
8.80540000 0.013801 -167.8 0.999901 -80.73 0.999901 -80.73 0.013801 -173.7
8.80560000 0.013798 -167.8 0.999901 -80.74 0.999901 -80.74 0.013798 -173.7
8.80580000 0.013795 -167.8 0.999901 -80.74 0.999901 -80.74 0.013795 -173.7
8.80600000 0.013791 -167.8 0.999901 -80.74 0.999901 -80.74 0.013791 -173.7
8.80620000 0.013788 -167.8 0.999901 -80.74 0.999901 -80.74 0.013788 -173.7
8.80640000 0.013785 -167.8 0.999901 -80.74 0.999901 -80.74 0.013785 -173.7
8.80660000 0.013782 -167.8 0.999901 -80.75 0.999901 -80.75 0.013782 -173.7
8.80680000 0.013778 -167.8 0.999901 -80.75 0.999901 -80.75 0.013778 -173.7
8.80700000 0.013775 -167.8 0.999902 -80.75 0.999902 -80.75 0.013775 -173.7
8.80720000 0.013772 -167.8 0.999902 -80.75 0.999902 -80.75 0.013772 -173.7
8.80740000 0.013769 -167.8 0.999902 -80.75 0.999902 -80.75 0.013769 -173.8
8.80760000 0.013765 -167.8 0.999902 -80.76 0.999902 -80.76 0.013765 -173.8
8.80780000 0.013762 -167.8 0.999902 -80.76 0.999902 -80.76 0.013762 -173.8
8.80800000 0.013759 -167.8 0.999902 -80.76 0.999902 -80.76 0.013759 -173.8
8.80820000 0.013755 -167.8 0.999902 -80.76 0.999902 -80.76 0.013755 -173.8
8.80840000 0.013752 -167.8 0.999902 -80.77 0.999902 -80.77 0.013752 -173.8
8.80860000 0.013748 -167.8 0.999902 -80.77 0.999902 -80.77 0.013748 -173.8
8.80880000 0.013745 -167.8 0.999902 -80.77 0.999902 -80.77 0.013745 -173.8
8.80900000 0.013742 -167.8 0.999902 -80.77 0.999902 -80.77 0.013742 -173.8
8.80920000 0.013738 -167.8 0.999902 -80.77 0.999902 -80.77 0.013738 -173.8
8.80940000 0.013735 -167.7 0.999902 -80.78 0.999902 -80.78 0.013735 -173.8
8.80960000 0.013731 -167.7 0.999902 -80.78 0.999902 -80.78 0.013731 -173.8
8.80980000 0.013728 -167.7 0.999902 -80.78 0.999902 -80.78 0.013728 -173.8
8.81000000 0.013724 -167.7 0.999902 -80.78 0.999902 -80.78 0.013724 -173.8
8.81020000 0.013721 -167.7 0.999902 -80.78 0.999902 -80.78 0.013721 -173.8
8.81040000 0.013717 -167.7 0.999902 -80.79 0.999902 -80.79 0.013717 -173.9
8.81060000 0.013714 -167.7 0.999902 -80.79 0.999902 -80.79 0.013714 -173.9
8.81080000 0.013710 -167.7 0.999902 -80.79 0.999902 -80.79 0.013710 -173.9
8.81100000 0.013707 -167.7 0.999902 -80.79 0.999902 -80.79 0.013707 -173.9
8.81120000 0.013703 -167.7 0.999902 -80.79 0.999902 -80.79 0.013703 -173.9
8.81140000 0.013699 -167.7 0.999903 -80.80 0.999903 -80.80 0.013699 -173.9
8.81160000 0.013696 -167.7 0.999903 -80.80 0.999903 -80.80 0.013696 -173.9
8.81180000 0.013692 -167.7 0.999903 -80.80 0.999903 -80.80 0.013692 -173.9
8.81200000 0.013689 -167.7 0.999903 -80.80 0.999903 -80.80 0.013688 -173.9
8.81220000 0.013685 -167.7 0.999903 -80.80 0.999903 -80.80 0.013685 -173.9
8.81240000 0.013681 -167.7 0.999903 -80.81 0.999903 -80.81 0.013681 -173.9
8.81260000 0.013677 -167.7 0.999903 -80.81 0.999903 -80.81 0.013677 -173.9
8.81280000 0.013674 -167.7 0.999903 -80.81 0.999903 -80.81 0.013674 -173.9
8.81300000 0.013670 -167.7 0.999903 -80.81 0.999903 -80.81 0.013670 -173.9
8.81320000 0.013666 -167.7 0.999903 -80.81 0.999903 -80.81 0.013666 -174.0
8.81340000 0.013662 -167.7 0.999903 -80.82 0.999903 -80.82 0.013662 -174.0
8.81360000 0.013659 -167.7 0.999903 -80.82 0.999903 -80.82 0.013659 -174.0
8.81380000 0.013655 -167.7 0.999903 -80.82 0.999903 -80.82 0.013655 -174.0
8.81400000 0.013651 -167.7 0.999903 -80.82 0.999903 -80.82 0.013651 -174.0
8.81420000 0.013647 -167.7 0.999903 -80.82 0.999903 -80.82 0.013647 -174.0
8.81440000 0.013643 -167.7 0.999903 -80.83 0.999903 -80.83 0.013643 -174.0
8.81460000 0.013639 -167.7 0.999903 -80.83 0.999903 -80.83 0.013639 -174.0
8.81480000 0.013636 -167.7 0.999903 -80.83 0.999903 -80.83 0.013635 -174.0
8.81500000 0.013632 -167.7 0.999903 -80.83 0.999903 -80.83 0.013632 -174.0
8.81520000 0.013628 -167.7 0.999903 -80.84 0.999903 -80.84 0.013628 -174.0
8.81540000 0.013624 -167.7 0.999904 -80.84 0.999904 -80.84 0.013624 -174.0
8.81560000 0.013620 -167.6 0.999904 -80.84 0.999904 -80.84 0.013620 -174.0
8.81580000 0.013616 -167.6 0.999904 -80.84 0.999904 -80.84 0.013616 -174.1
8.81600000 0.013612 -167.6 0.999904 -80.84 0.999904 -80.84 0.013612 -174.1
8.81620000 0.013608 -167.6 0.999904 -80.85 0.999904 -80.85 0.013608 -174.1
8.81640000 0.013604 -167.6 0.999904 -80.85 0.999904 -80.85 0.013604 -174.1
8.81660000 0.013600 -167.6 0.999904 -80.85 0.999904 -80.85 0.013600 -174.1
8.81680000 0.013595 -167.6 0.999904 -80.85 0.999904 -80.85 0.013595 -174.1
8.81700000 0.013591 -167.6 0.999904 -80.85 0.999904 -80.85 0.013591 -174.1
8.81720000 0.013587 -167.6 0.999904 -80.86 0.999904 -80.86 0.013587 -174.1
8.81740000 0.013583 -167.6 0.999904 -80.86 0.999904 -80.86 0.013583 -174.1
8.81760000 0.013579 -167.6 0.999904 -80.86 0.999904 -80.86 0.013579 -174.1
8.81780000 0.013575 -167.6 0.999904 -80.86 0.999904 -80.86 0.013575 -174.1
8.81800000 0.013571 -167.6 0.999904 -80.86 0.999904 -80.86 0.013570 -174.1
8.81820000 0.013566 -167.6 0.999904 -80.87 0.999904 -80.87 0.013566 -174.1
8.81840000 0.013562 -167.6 0.999904 -80.87 0.999904 -80.87 0.013562 -174.2
8.81860000 0.013558 -167.6 0.999904 -80.87 0.999904 -80.87 0.013558 -174.2
8.81880000 0.013553 -167.6 0.999904 -80.87 0.999904 -80.87 0.013553 -174.2
8.81900000 0.013549 -167.6 0.999904 -80.87 0.999904 -80.87 0.013549 -174.2
8.81920000 0.013545 -167.6 0.999905 -80.88 0.999905 -80.88 0.013545 -174.2
8.81940000 0.013540 -167.6 0.999905 -80.88 0.999905 -80.88 0.013540 -174.2
8.81960000 0.013536 -167.6 0.999905 -80.88 0.999905 -80.88 0.013536 -174.2
8.81980000 0.013532 -167.6 0.999905 -80.88 0.999905 -80.88 0.013532 -174.2
8.82000000 0.013527 -167.6 0.999905 -80.89 0.999905 -80.89 0.013527 -174.2
8.82020000 0.013523 -167.6 0.999905 -80.89 0.999905 -80.89 0.013523 -174.2
8.82040000 0.013518 -167.6 0.999905 -80.89 0.999905 -80.89 0.013518 -174.2
8.82060000 0.013514 -167.5 0.999905 -80.89 0.999905 -80.89 0.013514 -174.2
8.82080000 0.013509 -167.5 0.999905 -80.89 0.999905 -80.89 0.013509 -174.3
8.82100000 0.013505 -167.5 0.999905 -80.90 0.999905 -80.90 0.013505 -174.3
8.82120000 0.013500 -167.5 0.999905 -80.90 0.999905 -80.90 0.013500 -174.3
8.82140000 0.013496 -167.5 0.999905 -80.90 0.999905 -80.90 0.013496 -174.3
8.82160000 0.013491 -167.5 0.999905 -80.90 0.999905 -80.90 0.013491 -174.3
8.82180000 0.013486 -167.5 0.999905 -80.90 0.999905 -80.90 0.013486 -174.3
8.82200000 0.013482 -167.5 0.999905 -80.91 0.999905 -80.91 0.013482 -174.3
8.82220000 0.013477 -167.5 0.999905 -80.91 0.999905 -80.91 0.013477 -174.3
8.82240000 0.013472 -167.5 0.999905 -80.91 0.999905 -80.91 0.013472 -174.3
8.82260000 0.013468 -167.5 0.999906 -80.91 0.999906 -80.91 0.013468 -174.3
8.82280000 0.013463 -167.5 0.999906 -80.91 0.999906 -80.91 0.013463 -174.3
8.82300000 0.013458 -167.5 0.999906 -80.92 0.999906 -80.92 0.013458 -174.4
8.82320000 0.013453 -167.5 0.999906 -80.92 0.999906 -80.92 0.013453 -174.4
8.82340000 0.013449 -167.5 0.999906 -80.92 0.999906 -80.92 0.013448 -174.4
8.82360000 0.013444 -167.5 0.999906 -80.92 0.999906 -80.92 0.013444 -174.4
8.82380000 0.013439 -167.5 0.999906 -80.93 0.999906 -80.93 0.013439 -174.4
8.82400000 0.013434 -167.5 0.999906 -80.93 0.999906 -80.93 0.013434 -174.4
8.82420000 0.013429 -167.5 0.999906 -80.93 0.999906 -80.93 0.013429 -174.4
8.82440000 0.013424 -167.5 0.999906 -80.93 0.999906 -80.93 0.013424 -174.4
8.82460000 0.013419 -167.5 0.999906 -80.93 0.999906 -80.93 0.013419 -174.4
8.82480000 0.013414 -167.4 0.999906 -80.94 0.999906 -80.94 0.013414 -174.4
8.82500000 0.013409 -167.4 0.999906 -80.94 0.999906 -80.94 0.013409 -174.4
8.82520000 0.013404 -167.4 0.999906 -80.94 0.999906 -80.94 0.013404 -174.5
8.82540000 0.013399 -167.4 0.999906 -80.94 0.999906 -80.94 0.013399 -174.5
8.82560000 0.013394 -167.4 0.999906 -80.94 0.999906 -80.94 0.013394 -174.5
8.82580000 0.013389 -167.4 0.999907 -80.95 0.999907 -80.95 0.013388 -174.5
8.82600000 0.013383 -167.4 0.999907 -80.95 0.999907 -80.95 0.013383 -174.5
8.82620000 0.013378 -167.4 0.999907 -80.95 0.999907 -80.95 0.013378 -174.5
8.82640000 0.013373 -167.4 0.999907 -80.95 0.999907 -80.95 0.013373 -174.5
8.82660000 0.013368 -167.4 0.999907 -80.96 0.999907 -80.96 0.013368 -174.5
8.82680000 0.013362 -167.4 0.999907 -80.96 0.999907 -80.96 0.013362 -174.5
8.82700000 0.013357 -167.4 0.999907 -80.96 0.999907 -80.96 0.013357 -174.5
8.82720000 0.013352 -167.4 0.999907 -80.96 0.999907 -80.96 0.013352 -174.6
8.82740000 0.013346 -167.4 0.999907 -80.96 0.999907 -80.96 0.013346 -174.6
8.82760000 0.013341 -167.4 0.999907 -80.97 0.999907 -80.97 0.013341 -174.6
8.82780000 0.013336 -167.4 0.999907 -80.97 0.999907 -80.97 0.013335 -174.6
8.82800000 0.013330 -167.4 0.999907 -80.97 0.999907 -80.97 0.013330 -174.6
8.82820000 0.013325 -167.4 0.999907 -80.97 0.999907 -80.97 0.013325 -174.6
8.82840000 0.013319 -167.3 0.999907 -80.97 0.999907 -80.97 0.013319 -174.6
8.82860000 0.013314 -167.3 0.999907 -80.98 0.999907 -80.98 0.013313 -174.6
8.82880000 0.013308 -167.3 0.999908 -80.98 0.999908 -80.98 0.013308 -174.6
8.82900000 0.013302 -167.3 0.999908 -80.98 0.999908 -80.98 0.013302 -174.6
8.82920000 0.013297 -167.3 0.999908 -80.98 0.999908 -80.98 0.013297 -174.7
8.82940000 0.013291 -167.3 0.999908 -80.99 0.999908 -80.99 0.013291 -174.7
8.82960000 0.013285 -167.3 0.999908 -80.99 0.999908 -80.99 0.013285 -174.7
8.82980000 0.013280 -167.3 0.999908 -80.99 0.999908 -80.99 0.013279 -174.7
8.83000000 0.013274 -167.3 0.999908 -80.99 0.999908 -80.99 0.013274 -174.7
8.83020000 0.013268 -167.3 0.999908 -80.99 0.999908 -80.99 0.013268 -174.7
8.83040000 0.013262 -167.3 0.999908 -81.00 0.999908 -81.00 0.013262 -174.7
8.83060000 0.013256 -167.3 0.999908 -81.00 0.999908 -81.00 0.013256 -174.7
8.83080000 0.013250 -167.3 0.999908 -81.00 0.999908 -81.00 0.013250 -174.7
8.83100000 0.013244 -167.3 0.999908 -81.00 0.999908 -81.00 0.013244 -174.8
8.83120000 0.013239 -167.3 0.999908 -81.01 0.999908 -81.01 0.013238 -174.8
8.83140000 0.013233 -167.3 0.999909 -81.01 0.999909 -81.01 0.013232 -174.8
8.83160000 0.013226 -167.2 0.999909 -81.01 0.999909 -81.01 0.013226 -174.8
8.83180000 0.013220 -167.2 0.999909 -81.01 0.999909 -81.01 0.013220 -174.8
8.83200000 0.013214 -167.2 0.999909 -81.01 0.999909 -81.01 0.013214 -174.8
8.83220000 0.013208 -167.2 0.999909 -81.02 0.999909 -81.02 0.013208 -174.8
8.83240000 0.013202 -167.2 0.999909 -81.02 0.999909 -81.02 0.013202 -174.8
8.83260000 0.013196 -167.2 0.999909 -81.02 0.999909 -81.02 0.013196 -174.8
8.83280000 0.013189 -167.2 0.999909 -81.02 0.999909 -81.02 0.013189 -174.9
8.83300000 0.013183 -167.2 0.999909 -81.03 0.999909 -81.03 0.013183 -174.9
8.83320000 0.013177 -167.2 0.999909 -81.03 0.999909 -81.03 0.013177 -174.9
8.83340000 0.013170 -167.2 0.999909 -81.03 0.999909 -81.03 0.013170 -174.9
8.83360000 0.013164 -167.2 0.999909 -81.03 0.999909 -81.03 0.013164 -174.9
8.83380000 0.013158 -167.2 0.999909 -81.03 0.999909 -81.03 0.013157 -174.9
8.83400000 0.013151 -167.2 0.999910 -81.04 0.999910 -81.04 0.013151 -174.9
8.83420000 0.013145 -167.2 0.999910 -81.04 0.999910 -81.04 0.013144 -174.9
8.83440000 0.013138 -167.1 0.999910 -81.04 0.999910 -81.04 0.013138 -175.0
8.83460000 0.013131 -167.1 0.999910 -81.04 0.999910 -81.04 0.013131 -175.0
8.83480000 0.013125 -167.1 0.999910 -81.05 0.999910 -81.05 0.013125 -175.0
8.83500000 0.013118 -167.1 0.999910 -81.05 0.999910 -81.05 0.013118 -175.0
8.83520000 0.013111 -167.1 0.999910 -81.05 0.999910 -81.05 0.013111 -175.0
8.83540000 0.013105 -167.1 0.999910 -81.05 0.999910 -81.05 0.013104 -175.0
8.83560000 0.013098 -167.1 0.999910 -81.05 0.999910 -81.05 0.013098 -175.0
8.83580000 0.013091 -167.1 0.999910 -81.06 0.999910 -81.06 0.013091 -175.0
8.83600000 0.013084 -167.1 0.999910 -81.06 0.999910 -81.06 0.013084 -175.1
8.83620000 0.013077 -167.1 0.999910 -81.06 0.999910 -81.06 0.013077 -175.1
8.83640000 0.013070 -167.1 0.999911 -81.06 0.999911 -81.06 0.013070 -175.1
8.83660000 0.013063 -167.1 0.999911 -81.07 0.999911 -81.07 0.013063 -175.1
8.83680000 0.013056 -167.0 0.999911 -81.07 0.999911 -81.07 0.013056 -175.1
8.83700000 0.013049 -167.0 0.999911 -81.07 0.999911 -81.07 0.013049 -175.1
8.83720000 0.013042 -167.0 0.999911 -81.07 0.999911 -81.07 0.013042 -175.1
8.83740000 0.013035 -167.0 0.999911 -81.07 0.999911 -81.07 0.013034 -175.1
8.83760000 0.013027 -167.0 0.999911 -81.08 0.999911 -81.08 0.013027 -175.2
8.83780000 0.013020 -167.0 0.999911 -81.08 0.999911 -81.08 0.013020 -175.2
8.83800000 0.013013 -167.0 0.999911 -81.08 0.999911 -81.08 0.013012 -175.2
8.83820000 0.013005 -167.0 0.999911 -81.08 0.999911 -81.08 0.013005 -175.2
8.83840000 0.012998 -167.0 0.999911 -81.09 0.999911 -81.09 0.012998 -175.2
8.83860000 0.012990 -167.0 0.999912 -81.09 0.999912 -81.09 0.012990 -175.2
8.83880000 0.012983 -167.0 0.999912 -81.09 0.999912 -81.09 0.012983 -175.2
8.83900000 0.012975 -166.9 0.999912 -81.09 0.999912 -81.09 0.012975 -175.3
8.83920000 0.012968 -166.9 0.999912 -81.10 0.999912 -81.10 0.012967 -175.3
8.83940000 0.012960 -166.9 0.999912 -81.10 0.999912 -81.10 0.012960 -175.3
8.83960000 0.012952 -166.9 0.999912 -81.10 0.999912 -81.10 0.012952 -175.3
8.83980000 0.012944 -166.9 0.999912 -81.10 0.999912 -81.10 0.012944 -175.3
8.84000000 0.012937 -166.9 0.999912 -81.10 0.999912 -81.10 0.012936 -175.3
8.84020000 0.012929 -166.9 0.999912 -81.11 0.999912 -81.11 0.012928 -175.3
8.84040000 0.012921 -166.9 0.999912 -81.11 0.999912 -81.11 0.012921 -175.4
8.84060000 0.012913 -166.9 0.999912 -81.11 0.999912 -81.11 0.012913 -175.4
8.84080000 0.012905 -166.9 0.999913 -81.11 0.999913 -81.11 0.012904 -175.4
8.84100000 0.012897 -166.8 0.999913 -81.12 0.999913 -81.12 0.012896 -175.4
8.84120000 0.012888 -166.8 0.999913 -81.12 0.999913 -81.12 0.012888 -175.4
8.84140000 0.012880 -166.8 0.999913 -81.12 0.999913 -81.12 0.012880 -175.4
8.84160000 0.012872 -166.8 0.999913 -81.12 0.999913 -81.12 0.012872 -175.4
8.84180000 0.012864 -166.8 0.999913 -81.13 0.999913 -81.13 0.012863 -175.5
8.84200000 0.012855 -166.8 0.999913 -81.13 0.999913 -81.13 0.012855 -175.5
8.84220000 0.012847 -166.8 0.999913 -81.13 0.999913 -81.13 0.012847 -175.5
8.84240000 0.012838 -166.8 0.999913 -81.13 0.999913 -81.13 0.012838 -175.5
8.84260000 0.012830 -166.8 0.999913 -81.13 0.999913 -81.13 0.012830 -175.5
8.84280000 0.012821 -166.7 0.999914 -81.14 0.999914 -81.14 0.012821 -175.5
8.84300000 0.012813 -166.7 0.999914 -81.14 0.999914 -81.14 0.012812 -175.6
8.84320000 0.012804 -166.7 0.999914 -81.14 0.999914 -81.14 0.012804 -175.6
8.84340000 0.012795 -166.7 0.999914 -81.14 0.999914 -81.14 0.012795 -175.6
8.84360000 0.012786 -166.7 0.999914 -81.15 0.999914 -81.15 0.012786 -175.6
8.84380000 0.012777 -166.7 0.999914 -81.15 0.999914 -81.15 0.012777 -175.6
8.84400000 0.012768 -166.7 0.999914 -81.15 0.999914 -81.15 0.012768 -175.6
8.84420000 0.012759 -166.7 0.999914 -81.15 0.999914 -81.15 0.012759 -175.7
8.84440000 0.012750 -166.7 0.999914 -81.16 0.999914 -81.16 0.012750 -175.7
8.84460000 0.012741 -166.6 0.999915 -81.16 0.999915 -81.16 0.012741 -175.7
8.84480000 0.012732 -166.6 0.999915 -81.16 0.999915 -81.16 0.012731 -175.7
8.84500000 0.012723 -166.6 0.999915 -81.16 0.999915 -81.16 0.012722 -175.7
8.84520000 0.012713 -166.6 0.999915 -81.17 0.999915 -81.17 0.012713 -175.7
8.84540000 0.012704 -166.6 0.999915 -81.17 0.999915 -81.17 0.012703 -175.8
8.84560000 0.012694 -166.6 0.999915 -81.17 0.999915 -81.17 0.012694 -175.8
8.84580000 0.012685 -166.6 0.999915 -81.17 0.999915 -81.17 0.012684 -175.8
8.84600000 0.012675 -166.5 0.999915 -81.18 0.999915 -81.18 0.012675 -175.8
8.84620000 0.012665 -166.5 0.999915 -81.18 0.999915 -81.18 0.012665 -175.8
8.84640000 0.012656 -166.5 0.999916 -81.18 0.999916 -81.18 0.012655 -175.8
8.84660000 0.012646 -166.5 0.999916 -81.18 0.999916 -81.18 0.012645 -175.9
8.84680000 0.012636 -166.5 0.999916 -81.18 0.999916 -81.18 0.012635 -175.9
8.84700000 0.012626 -166.5 0.999916 -81.19 0.999916 -81.19 0.012625 -175.9
8.84720000 0.012616 -166.5 0.999916 -81.19 0.999916 -81.19 0.012615 -175.9
8.84740000 0.012606 -166.5 0.999916 -81.19 0.999916 -81.19 0.012605 -175.9
8.84760000 0.012595 -166.4 0.999916 -81.19 0.999916 -81.19 0.012595 -176.0
8.84780000 0.012585 -166.4 0.999916 -81.20 0.999916 -81.20 0.012585 -176.0
8.84800000 0.012575 -166.4 0.999917 -81.20 0.999917 -81.20 0.012574 -176.0
8.84820000 0.012564 -166.4 0.999917 -81.20 0.999917 -81.20 0.012564 -176.0
8.84840000 0.012554 -166.4 0.999917 -81.20 0.999917 -81.20 0.012553 -176.0
8.84860000 0.012543 -166.4 0.999917 -81.21 0.999917 -81.21 0.012543 -176.1
8.84880000 0.012532 -166.3 0.999917 -81.21 0.999917 -81.21 0.012532 -176.1
8.84900000 0.012522 -166.3 0.999917 -81.21 0.999917 -81.21 0.012521 -176.1
8.84920000 0.012511 -166.3 0.999917 -81.21 0.999917 -81.21 0.012510 -176.1
8.84940000 0.012500 -166.3 0.999917 -81.22 0.999917 -81.22 0.012499 -176.1
8.84960000 0.012489 -166.3 0.999918 -81.22 0.999918 -81.22 0.012488 -176.2
8.84980000 0.012478 -166.3 0.999918 -81.22 0.999918 -81.22 0.012477 -176.2
8.85000000 0.012466 -166.3 0.999918 -81.22 0.999918 -81.22 0.012466 -176.2
8.85020000 0.012455 -166.2 0.999918 -81.23 0.999918 -81.23 0.012455 -176.2
8.85040000 0.012444 -166.2 0.999918 -81.23 0.999918 -81.23 0.012443 -176.3
8.85060000 0.012432 -166.2 0.999918 -81.23 0.999918 -81.23 0.012432 -176.3
8.85080000 0.012421 -166.2 0.999918 -81.23 0.999918 -81.23 0.012420 -176.3
8.85100000 0.012409 -166.2 0.999918 -81.24 0.999918 -81.24 0.012409 -176.3
8.85120000 0.012397 -166.1 0.999919 -81.24 0.999919 -81.24 0.012397 -176.3
8.85140000 0.012385 -166.1 0.999919 -81.24 0.999919 -81.24 0.012385 -176.4
8.85160000 0.012374 -166.1 0.999919 -81.24 0.999919 -81.24 0.012373 -176.4
8.85180000 0.012361 -166.1 0.999919 -81.25 0.999919 -81.25 0.012361 -176.4
8.85200000 0.012349 -166.1 0.999919 -81.25 0.999919 -81.25 0.012349 -176.4
8.85220000 0.012337 -166.1 0.999919 -81.25 0.999919 -81.25 0.012337 -176.5
8.85240000 0.012325 -166.0 0.999919 -81.26 0.999919 -81.26 0.012324 -176.5
8.85260000 0.012312 -166.0 0.999920 -81.26 0.999920 -81.26 0.012312 -176.5
8.85280000 0.012300 -166.0 0.999920 -81.26 0.999920 -81.26 0.012299 -176.5
8.85300000 0.012287 -166.0 0.999920 -81.26 0.999920 -81.26 0.012287 -176.6
8.85320000 0.012274 -166.0 0.999920 -81.27 0.999920 -81.27 0.012274 -176.6
8.85340000 0.012262 -165.9 0.999920 -81.27 0.999920 -81.27 0.012261 -176.6
8.85360000 0.012249 -165.9 0.999920 -81.27 0.999920 -81.27 0.012248 -176.6
8.85380000 0.012235 -165.9 0.999920 -81.27 0.999920 -81.27 0.012235 -176.7
8.85400000 0.012222 -165.9 0.999921 -81.28 0.999921 -81.28 0.012222 -176.7
8.85420000 0.012209 -165.9 0.999921 -81.28 0.999921 -81.28 0.012208 -176.7
8.85440000 0.012196 -165.8 0.999921 -81.28 0.999921 -81.28 0.012195 -176.7
8.85460000 0.012182 -165.8 0.999921 -81.28 0.999921 -81.28 0.012181 -176.8
8.85480000 0.012168 -165.8 0.999921 -81.29 0.999921 -81.29 0.012168 -176.8
8.85500000 0.012155 -165.8 0.999921 -81.29 0.999921 -81.29 0.012154 -176.8
8.85520000 0.012141 -165.8 0.999921 -81.29 0.999921 -81.29 0.012140 -176.8
8.85540000 0.012127 -165.7 0.999922 -81.29 0.999922 -81.29 0.012126 -176.9
8.85560000 0.012113 -165.7 0.999922 -81.30 0.999922 -81.30 0.012112 -176.9
8.85580000 0.012098 -165.7 0.999922 -81.30 0.999922 -81.30 0.012098 -176.9
8.85600000 0.012084 -165.7 0.999922 -81.30 0.999922 -81.30 0.012083 -177.0
8.85620000 0.012069 -165.6 0.999922 -81.31 0.999922 -81.31 0.012069 -177.0
8.85640000 0.012055 -165.6 0.999922 -81.31 0.999922 -81.31 0.012054 -177.0
8.85660000 0.012040 -165.6 0.999923 -81.31 0.999923 -81.31 0.012039 -177.0
8.85680000 0.012025 -165.6 0.999923 -81.31 0.999923 -81.31 0.012024 -177.1
8.85700000 0.012010 -165.5 0.999923 -81.32 0.999923 -81.32 0.012009 -177.1
8.85720000 0.011995 -165.5 0.999923 -81.32 0.999923 -81.32 0.011994 -177.1
8.85740000 0.011980 -165.5 0.999923 -81.32 0.999923 -81.32 0.011979 -177.2
8.85760000 0.011964 -165.5 0.999923 -81.33 0.999923 -81.33 0.011963 -177.2
8.85780000 0.011949 -165.4 0.999924 -81.33 0.999924 -81.33 0.011948 -177.2
8.85800000 0.011933 -165.4 0.999924 -81.33 0.999924 -81.33 0.011932 -177.3
8.85820000 0.011917 -165.4 0.999924 -81.33 0.999924 -81.33 0.011916 -177.3
8.85840000 0.011901 -165.4 0.999924 -81.34 0.999924 -81.34 0.011900 -177.3
8.85860000 0.011885 -165.3 0.999924 -81.34 0.999924 -81.34 0.011884 -177.4
8.85880000 0.011868 -165.3 0.999924 -81.34 0.999924 -81.34 0.011868 -177.4
8.85900000 0.011852 -165.3 0.999925 -81.34 0.999925 -81.34 0.011851 -177.4
8.85920000 0.011835 -165.2 0.999925 -81.35 0.999925 -81.35 0.011834 -177.5
8.85940000 0.011819 -165.2 0.999925 -81.35 0.999925 -81.35 0.011818 -177.5
8.85960000 0.011802 -165.2 0.999925 -81.35 0.999925 -81.35 0.011801 -177.5
8.85980000 0.011784 -165.2 0.999925 -81.36 0.999925 -81.36 0.011783 -177.6
8.86000000 0.011767 -165.1 0.999926 -81.36 0.999926 -81.36 0.011766 -177.6
8.86020000 0.011750 -165.1 0.999926 -81.36 0.999926 -81.36 0.011749 -177.6
8.86040000 0.011732 -165.1 0.999926 -81.37 0.999926 -81.37 0.011731 -177.7
8.86060000 0.011714 -165.0 0.999926 -81.37 0.999926 -81.37 0.011713 -177.7
8.86080000 0.011696 -165.0 0.999926 -81.37 0.999926 -81.37 0.011695 -177.7
8.86100000 0.011678 -165.0 0.999927 -81.37 0.999927 -81.37 0.011677 -177.8
8.86120000 0.011660 -164.9 0.999927 -81.38 0.999927 -81.38 0.011659 -177.8
8.86140000 0.011641 -164.9 0.999927 -81.38 0.999927 -81.38 0.011640 -177.9
8.86160000 0.011622 -164.9 0.999927 -81.38 0.999927 -81.38 0.011621 -177.9
8.86180000 0.011604 -164.8 0.999927 -81.39 0.999927 -81.39 0.011603 -177.9
8.86200000 0.011584 -164.8 0.999928 -81.39 0.999928 -81.39 0.011583 -178.0
8.86220000 0.011565 -164.8 0.999928 -81.39 0.999928 -81.39 0.011564 -178.0
8.86240000 0.011546 -164.7 0.999928 -81.39 0.999928 -81.39 0.011545 -178.1
8.86260000 0.011526 -164.7 0.999928 -81.40 0.999928 -81.40 0.011525 -178.1
8.86280000 0.011506 -164.7 0.999928 -81.40 0.999928 -81.40 0.011505 -178.1
8.86300000 0.011486 -164.6 0.999929 -81.40 0.999929 -81.40 0.011485 -178.2
8.86320000 0.011466 -164.6 0.999929 -81.41 0.999929 -81.41 0.011465 -178.2
8.86340000 0.011445 -164.5 0.999929 -81.41 0.999929 -81.41 0.011444 -178.3
8.86360000 0.011424 -164.5 0.999929 -81.41 0.999929 -81.41 0.011423 -178.3
8.86380000 0.011403 -164.5 0.999929 -81.42 0.999929 -81.42 0.011402 -178.4
8.86400000 0.011382 -164.4 0.999930 -81.42 0.999930 -81.42 0.011381 -178.4
8.86420000 0.011361 -164.4 0.999930 -81.42 0.999930 -81.42 0.011360 -178.5
8.86440000 0.011339 -164.3 0.999930 -81.43 0.999930 -81.43 0.011338 -178.5
8.86460000 0.011317 -164.3 0.999930 -81.43 0.999930 -81.43 0.011316 -178.6
8.86480000 0.011295 -164.3 0.999930 -81.43 0.999930 -81.43 0.011294 -178.6
8.86500000 0.011273 -164.2 0.999931 -81.44 0.999931 -81.44 0.011272 -178.7
8.86520000 0.011250 -164.2 0.999931 -81.44 0.999931 -81.44 0.011249 -178.7
8.86540000 0.011227 -164.1 0.999931 -81.44 0.999931 -81.44 0.011226 -178.8
8.86560000 0.011204 -164.1 0.999931 -81.45 0.999931 -81.45 0.011203 -178.8
8.86580000 0.011181 -164.0 0.999932 -81.45 0.999932 -81.45 0.011179 -178.9
8.86600000 0.011157 -164.0 0.999932 -81.45 0.999932 -81.45 0.011156 -178.9
8.86620000 0.011133 -163.9 0.999932 -81.46 0.999932 -81.46 0.011132 -179.0
8.86640000 0.011109 -163.9 0.999932 -81.46 0.999932 -81.46 0.011108 -179.0
8.86660000 0.011085 -163.8 0.999933 -81.46 0.999933 -81.46 0.011083 -179.1
8.86680000 0.011060 -163.8 0.999933 -81.47 0.999933 -81.47 0.011058 -179.1
8.86700000 0.011035 -163.7 0.999933 -81.47 0.999933 -81.47 0.011033 -179.2
8.86720000 0.011010 -163.7 0.999933 -81.47 0.999933 -81.47 0.011008 -179.3
8.86740000 0.010984 -163.6 0.999934 -81.48 0.999934 -81.48 0.010982 -179.3
8.86760000 0.010958 -163.6 0.999934 -81.48 0.999934 -81.48 0.010957 -179.4
8.86780000 0.010932 -163.5 0.999934 -81.48 0.999934 -81.48 0.010930 -179.4
8.86800000 0.010905 -163.5 0.999934 -81.49 0.999934 -81.49 0.010904 -179.5
8.86820000 0.010879 -163.4 0.999935 -81.49 0.999935 -81.49 0.010877 -179.6
8.86840000 0.010851 -163.4 0.999935 -81.49 0.999935 -81.49 0.010850 -179.6
8.86860000 0.010824 -163.3 0.999935 -81.50 0.999935 -81.50 0.010822 -179.7
8.86880000 0.010796 -163.2 0.999935 -81.50 0.999935 -81.50 0.010794 -179.8
8.86900000 0.010768 -163.2 0.999936 -81.50 0.999936 -81.50 0.010766 -179.8
8.86920000 0.010739 -163.1 0.999936 -81.51 0.999936 -81.51 0.010738 -179.9
8.86940000 0.010711 -163.0 0.999936 -81.51 0.999936 -81.51 0.010709 -180.0
8.86960000 0.010681 -163.0 0.999936 -81.51 0.999936 -81.51 0.010679 179.96
8.86980000 0.010652 -162.9 0.999937 -81.52 0.999937 -81.52 0.010650 179.89
8.87000000 0.010622 -162.8 0.999937 -81.52 0.999937 -81.52 0.010620 179.81
8.87020000 0.010591 -162.8 0.999937 -81.53 0.999937 -81.53 0.010589 179.74
8.87040000 0.010561 -162.7 0.999937 -81.53 0.999937 -81.53 0.010559 179.66
8.87050371 0.010545 -162.7 0.999938 -81.53 0.999938 -81.53 0.010542 179.62
8.87060000 0.010530 -162.6 0.999938 -81.53 0.999938 -81.53 0.010527 179.58
8.87080000 0.010498 -162.6 0.999938 -81.54 0.999938 -81.54 0.010496 179.50
8.87100000 0.010466 -162.5 0.999938 -81.54 0.999938 -81.54 0.010464 179.42
8.87119129 0.010435 -162.4 0.999939 -81.54 0.999939 -81.54 0.010433 179.34
8.87120000 0.010434 -162.4 0.999939 -81.54 0.999939 -81.54 0.010431 179.34
8.87140000 0.010401 -162.3 0.999939 -81.55 0.999939 -81.55 0.010399 179.25
8.87160000 0.010368 -162.3 0.999939 -81.55 0.999939 -81.55 0.010365 179.17
8.87180000 0.010334 -162.2 0.999940 -81.56 0.999940 -81.56 0.010332 179.08
8.87186311 0.010323 -162.2 0.999940 -81.56 0.999940 -81.56 0.010321 179.05
8.87200000 0.010300 -162.1 0.999940 -81.56 0.999940 -81.56 0.010298 178.99
8.87220000 0.010265 -162.0 0.999940 -81.56 0.999940 -81.56 0.010263 178.90
8.87240000 0.010230 -161.9 0.999940 -81.57 0.999940 -81.57 0.010228 178.80
8.87251954 0.010209 -161.9 0.999941 -81.57 0.999941 -81.57 0.010207 178.75
8.87260000 0.010195 -161.8 0.999941 -81.57 0.999941 -81.57 0.010192 178.71
8.87280000 0.010159 -161.7 0.999941 -81.58 0.999941 -81.58 0.010156 178.61
8.87300000 0.010122 -161.7 0.999941 -81.58 0.999941 -81.58 0.010120 178.51
8.87316093 0.010093 -161.6 0.999942 -81.58 0.999942 -81.58 0.010090 178.43
8.87320000 0.010085 -161.6 0.999942 -81.59 0.999942 -81.59 0.010083 178.41
8.87340000 0.010048 -161.5 0.999942 -81.59 0.999942 -81.59 0.010045 178.30
8.87360000 0.010010 -161.4 0.999942 -81.59 0.999942 -81.59 0.010007 178.20
8.87378763 0.009974 -161.3 0.999943 -81.60 0.999943 -81.60 0.009971 178.09
8.87380000 0.009971 -161.3 0.999943 -81.60 0.999943 -81.60 0.009968 178.09
8.87400000 0.009932 -161.2 0.999943 -81.60 0.999943 -81.60 0.009929 177.98
8.87420000 0.009892 -161.1 0.999943 -81.61 0.999943 -81.61 0.009889 177.86
8.87439996 0.009852 -160.9 0.999944 -81.61 0.999944 -81.61 0.009849 177.75
8.87440000 0.009852 -160.9 0.999944 -81.61 0.999944 -81.61 0.009849 177.75
8.87460000 0.009811 -160.8 0.999944 -81.62 0.999944 -81.62 0.009808 177.63
8.87480000 0.009770 -160.7 0.999944 -81.62 0.999944 -81.62 0.009767 177.50
8.87499827 0.009728 -160.6 0.999945 -81.62 0.999945 -81.62 0.009725 177.38
8.87500000 0.009728 -160.6 0.999945 -81.62 0.999945 -81.62 0.009724 177.38
8.87520000 0.009685 -160.5 0.999945 -81.63 0.999945 -81.63 0.009682 177.25
8.87540000 0.009642 -160.4 0.999945 -81.63 0.999945 -81.63 0.009638 177.12
8.87558286 0.009602 -160.2 0.999946 -81.64 0.999946 -81.64 0.009598 177.00
8.87560000 0.009598 -160.2 0.999946 -81.64 0.999946 -81.64 0.009594 176.99
8.87580000 0.009553 -160.1 0.999946 -81.64 0.999946 -81.64 0.009550 176.85
8.87600000 0.009508 -160.0 0.999946 -81.65 0.999946 -81.65 0.009504 176.71
8.87615406 0.009473 -159.9 0.999947 -81.65 0.999947 -81.65 0.009469 176.60
8.87620000 0.009462 -159.8 0.999947 -81.65 0.999947 -81.65 0.009458 176.56
8.87640000 0.009415 -159.7 0.999947 -81.66 0.999947 -81.66 0.009411 176.41