! Sonnet Data File
! From: emgraph Version : 16.52
! From Project: Resonator2_cp_varyW
! Data is De-embedded 
! Data File Written: 10/07/2017 09:25:24
!< HDATE 10/06/2017 17:18:21
!< MDATE 10/06/2017 17:18:21
!< PARAMS
!< gap = 16.0
!< Length = 400.0
!< Pwid1 = 2000.0
!< Pwid2 = 2000.0
!< Air_gap = 18.0
!< Width = 30.0
!< END PARAMS
# GHZ S MA R 51.80000
8.80000000 0.018264 -167.7 0.999830 -80.75 0.999830 -80.75 0.018264 -173.8
!< P1 F=8.8 Eeff=(6.44507571 -2.9713e-5) Z0=(50.6188468 1.16784e-4) R=0.0 C=0.0 
!< P2 F=8.8 Eeff=(6.44507571 -2.9713e-5) Z0=(50.6188468 1.16784e-4) R=0.0 C=0.0 
8.80020000 0.018261 -167.7 0.999830 -80.75 0.999830 -80.75 0.018260 -173.9
8.80040000 0.018257 -167.7 0.999830 -80.75 0.999830 -80.75 0.018257 -173.9
8.80060000 0.018253 -167.7 0.999830 -80.75 0.999830 -80.75 0.018253 -173.9
8.80080000 0.018250 -167.7 0.999830 -80.75 0.999830 -80.75 0.018250 -173.9
8.80100000 0.018246 -167.6 0.999830 -80.76 0.999830 -80.76 0.018246 -173.9
8.80120000 0.018243 -167.6 0.999830 -80.76 0.999830 -80.76 0.018243 -173.9
8.80140000 0.018239 -167.6 0.999830 -80.76 0.999830 -80.76 0.018239 -173.9
8.80160000 0.018236 -167.6 0.999830 -80.76 0.999830 -80.76 0.018236 -173.9
8.80180000 0.018232 -167.6 0.999830 -80.76 0.999830 -80.76 0.018232 -173.9
8.80200000 0.018228 -167.6 0.999830 -80.77 0.999830 -80.77 0.018228 -173.9
8.80220000 0.018225 -167.6 0.999830 -80.77 0.999830 -80.77 0.018225 -173.9
8.80240000 0.018221 -167.6 0.999830 -80.77 0.999830 -80.77 0.018221 -173.9
8.80260000 0.018217 -167.6 0.999830 -80.77 0.999830 -80.77 0.018217 -173.9
8.80280000 0.018214 -167.6 0.999830 -80.78 0.999830 -80.78 0.018214 -173.9
8.80300000 0.018210 -167.6 0.999831 -80.78 0.999831 -80.78 0.018210 -173.9
8.80320000 0.018206 -167.6 0.999831 -80.78 0.999831 -80.78 0.018206 -173.9
8.80340000 0.018202 -167.6 0.999831 -80.78 0.999831 -80.78 0.018202 -174.0
8.80360000 0.018199 -167.6 0.999831 -80.78 0.999831 -80.78 0.018199 -174.0
8.80380000 0.018195 -167.6 0.999831 -80.79 0.999831 -80.79 0.018195 -174.0
8.80400000 0.018191 -167.6 0.999831 -80.79 0.999831 -80.79 0.018191 -174.0
8.80420000 0.018187 -167.6 0.999831 -80.79 0.999831 -80.79 0.018187 -174.0
8.80440000 0.018183 -167.6 0.999831 -80.79 0.999831 -80.79 0.018183 -174.0
8.80460000 0.018180 -167.6 0.999831 -80.79 0.999831 -80.79 0.018180 -174.0
8.80480000 0.018176 -167.6 0.999831 -80.80 0.999831 -80.80 0.018176 -174.0
8.80500000 0.018172 -167.6 0.999831 -80.80 0.999831 -80.80 0.018172 -174.0
8.80520000 0.018168 -167.6 0.999831 -80.80 0.999831 -80.80 0.018168 -174.0
8.80540000 0.018164 -167.6 0.999831 -80.80 0.999831 -80.80 0.018164 -174.0
8.80560000 0.018160 -167.6 0.999831 -80.80 0.999831 -80.80 0.018160 -174.0
8.80580000 0.018156 -167.6 0.999831 -80.81 0.999831 -80.81 0.018156 -174.0
8.80600000 0.018152 -167.6 0.999832 -80.81 0.999832 -80.81 0.018152 -174.0
8.80620000 0.018148 -167.6 0.999832 -80.81 0.999832 -80.81 0.018148 -174.0
8.80640000 0.018144 -167.6 0.999832 -80.81 0.999832 -80.81 0.018144 -174.1
8.80660000 0.018140 -167.6 0.999832 -80.81 0.999832 -80.81 0.018140 -174.1
8.80680000 0.018136 -167.6 0.999832 -80.82 0.999832 -80.82 0.018136 -174.1
8.80700000 0.018132 -167.6 0.999832 -80.82 0.999832 -80.82 0.018132 -174.1
8.80720000 0.018128 -167.6 0.999832 -80.82 0.999832 -80.82 0.018128 -174.1
8.80740000 0.018124 -167.6 0.999832 -80.82 0.999832 -80.82 0.018124 -174.1
8.80760000 0.018120 -167.6 0.999832 -80.82 0.999832 -80.82 0.018120 -174.1
8.80780000 0.018116 -167.6 0.999832 -80.83 0.999832 -80.83 0.018116 -174.1
8.80800000 0.018112 -167.6 0.999832 -80.83 0.999832 -80.83 0.018112 -174.1
8.80820000 0.018108 -167.6 0.999832 -80.83 0.999832 -80.83 0.018108 -174.1
8.80840000 0.018103 -167.6 0.999832 -80.83 0.999832 -80.83 0.018103 -174.1
8.80860000 0.018099 -167.6 0.999832 -80.84 0.999832 -80.84 0.018099 -174.1
8.80880000 0.018095 -167.6 0.999833 -80.84 0.999833 -80.84 0.018095 -174.1
8.80900000 0.018091 -167.6 0.999833 -80.84 0.999833 -80.84 0.018091 -174.1
8.80920000 0.018087 -167.5 0.999833 -80.84 0.999833 -80.84 0.018087 -174.1
8.80940000 0.018082 -167.5 0.999833 -80.84 0.999833 -80.84 0.018082 -174.2
8.80960000 0.018078 -167.5 0.999833 -80.85 0.999833 -80.85 0.018078 -174.2
8.80980000 0.018074 -167.5 0.999833 -80.85 0.999833 -80.85 0.018074 -174.2
8.81000000 0.018069 -167.5 0.999833 -80.85 0.999833 -80.85 0.018069 -174.2
8.81020000 0.018065 -167.5 0.999833 -80.85 0.999833 -80.85 0.018065 -174.2
8.81040000 0.018061 -167.5 0.999833 -80.85 0.999833 -80.85 0.018061 -174.2
8.81060000 0.018056 -167.5 0.999833 -80.86 0.999833 -80.86 0.018056 -174.2
8.81080000 0.018052 -167.5 0.999833 -80.86 0.999833 -80.86 0.018052 -174.2
8.81100000 0.018048 -167.5 0.999833 -80.86 0.999833 -80.86 0.018047 -174.2
8.81120000 0.018043 -167.5 0.999833 -80.86 0.999833 -80.86 0.018043 -174.2
8.81140000 0.018039 -167.5 0.999834 -80.86 0.999834 -80.86 0.018039 -174.2
8.81160000 0.018034 -167.5 0.999834 -80.87 0.999834 -80.87 0.018034 -174.2
8.81180000 0.018030 -167.5 0.999834 -80.87 0.999834 -80.87 0.018030 -174.2
8.81200000 0.018025 -167.5 0.999834 -80.87 0.999834 -80.87 0.018025 -174.2
8.81220000 0.018021 -167.5 0.999834 -80.87 0.999834 -80.87 0.018021 -174.3
8.81240000 0.018016 -167.5 0.999834 -80.88 0.999834 -80.88 0.018016 -174.3
8.81260000 0.018012 -167.5 0.999834 -80.88 0.999834 -80.88 0.018011 -174.3
8.81280000 0.018007 -167.5 0.999834 -80.88 0.999834 -80.88 0.018007 -174.3
8.81300000 0.018002 -167.5 0.999834 -80.88 0.999834 -80.88 0.018002 -174.3
8.81320000 0.017998 -167.5 0.999834 -80.88 0.999834 -80.88 0.017998 -174.3
8.81340000 0.017993 -167.5 0.999834 -80.89 0.999834 -80.89 0.017993 -174.3
8.81360000 0.017988 -167.5 0.999834 -80.89 0.999834 -80.89 0.017988 -174.3
8.81380000 0.017984 -167.5 0.999835 -80.89 0.999835 -80.89 0.017984 -174.3
8.81400000 0.017979 -167.5 0.999835 -80.89 0.999835 -80.89 0.017979 -174.3
8.81420000 0.017974 -167.5 0.999835 -80.89 0.999835 -80.89 0.017974 -174.3
8.81440000 0.017969 -167.5 0.999835 -80.90 0.999835 -80.90 0.017969 -174.3
8.81460000 0.017965 -167.5 0.999835 -80.90 0.999835 -80.90 0.017964 -174.3
8.81480000 0.017960 -167.5 0.999835 -80.90 0.999835 -80.90 0.017960 -174.4
8.81500000 0.017955 -167.5 0.999835 -80.90 0.999835 -80.90 0.017955 -174.4
8.81520000 0.017950 -167.5 0.999835 -80.91 0.999835 -80.91 0.017950 -174.4
8.81540000 0.017945 -167.4 0.999835 -80.91 0.999835 -80.91 0.017945 -174.4
8.81560000 0.017940 -167.4 0.999835 -80.91 0.999835 -80.91 0.017940 -174.4
8.81580000 0.017935 -167.4 0.999835 -80.91 0.999835 -80.91 0.017935 -174.4
8.81600000 0.017930 -167.4 0.999835 -80.91 0.999835 -80.91 0.017930 -174.4
8.81620000 0.017925 -167.4 0.999836 -80.92 0.999836 -80.92 0.017925 -174.4
8.81640000 0.017920 -167.4 0.999836 -80.92 0.999836 -80.92 0.017920 -174.4
8.81660000 0.017915 -167.4 0.999836 -80.92 0.999836 -80.92 0.017915 -174.4
8.81680000 0.017910 -167.4 0.999836 -80.92 0.999836 -80.92 0.017910 -174.4
8.81700000 0.017905 -167.4 0.999836 -80.92 0.999836 -80.92 0.017905 -174.4
8.81720000 0.017900 -167.4 0.999836 -80.93 0.999836 -80.93 0.017900 -174.5
8.81740000 0.017895 -167.4 0.999836 -80.93 0.999836 -80.93 0.017895 -174.5
8.81760000 0.017890 -167.4 0.999836 -80.93 0.999836 -80.93 0.017890 -174.5
8.81780000 0.017885 -167.4 0.999836 -80.93 0.999836 -80.93 0.017885 -174.5
8.81800000 0.017879 -167.4 0.999836 -80.94 0.999836 -80.94 0.017879 -174.5
8.81820000 0.017874 -167.4 0.999836 -80.94 0.999836 -80.94 0.017874 -174.5
8.81840000 0.017869 -167.4 0.999836 -80.94 0.999836 -80.94 0.017869 -174.5
8.81860000 0.017864 -167.4 0.999837 -80.94 0.999837 -80.94 0.017864 -174.5
8.81880000 0.017858 -167.4 0.999837 -80.94 0.999837 -80.94 0.017858 -174.5
8.81900000 0.017853 -167.4 0.999837 -80.95 0.999837 -80.95 0.017853 -174.5
8.81920000 0.017848 -167.4 0.999837 -80.95 0.999837 -80.95 0.017848 -174.5
8.81940000 0.017842 -167.4 0.999837 -80.95 0.999837 -80.95 0.017842 -174.5
8.81960000 0.017837 -167.4 0.999837 -80.95 0.999837 -80.95 0.017837 -174.6
8.81980000 0.017831 -167.4 0.999837 -80.95 0.999837 -80.95 0.017831 -174.6
8.82000000 0.017826 -167.4 0.999837 -80.96 0.999837 -80.96 0.017826 -174.6
8.82020000 0.017821 -167.4 0.999837 -80.96 0.999837 -80.96 0.017820 -174.6
8.82040000 0.017815 -167.3 0.999837 -80.96 0.999837 -80.96 0.017815 -174.6
8.82060000 0.017809 -167.3 0.999838 -80.96 0.999838 -80.96 0.017809 -174.6
8.82080000 0.017804 -167.3 0.999838 -80.97 0.999838 -80.97 0.017804 -174.6
8.82100000 0.017798 -167.3 0.999838 -80.97 0.999838 -80.97 0.017798 -174.6
8.82120000 0.017793 -167.3 0.999838 -80.97 0.999838 -80.97 0.017792 -174.6
8.82140000 0.017787 -167.3 0.999838 -80.97 0.999838 -80.97 0.017787 -174.6
8.82160000 0.017781 -167.3 0.999838 -80.97 0.999838 -80.97 0.017781 -174.6
8.82180000 0.017776 -167.3 0.999838 -80.98 0.999838 -80.98 0.017775 -174.6
8.82200000 0.017770 -167.3 0.999838 -80.98 0.999838 -80.98 0.017770 -174.7
8.82220000 0.017764 -167.3 0.999838 -80.98 0.999838 -80.98 0.017764 -174.7
8.82240000 0.017758 -167.3 0.999838 -80.98 0.999838 -80.98 0.017758 -174.7
8.82260000 0.017752 -167.3 0.999839 -80.99 0.999839 -80.99 0.017752 -174.7
8.82280000 0.017747 -167.3 0.999839 -80.99 0.999839 -80.99 0.017746 -174.7
8.82300000 0.017741 -167.3 0.999839 -80.99 0.999839 -80.99 0.017740 -174.7
8.82320000 0.017735 -167.3 0.999839 -80.99 0.999839 -80.99 0.017735 -174.7
8.82340000 0.017729 -167.3 0.999839 -80.99 0.999839 -80.99 0.017729 -174.7
8.82360000 0.017723 -167.3 0.999839 -81.00 0.999839 -81.00 0.017723 -174.7
8.82380000 0.017717 -167.3 0.999839 -81.00 0.999839 -81.00 0.017717 -174.7
8.82400000 0.017711 -167.3 0.999839 -81.00 0.999839 -81.00 0.017711 -174.8
8.82420000 0.017705 -167.3 0.999839 -81.00 0.999839 -81.00 0.017704 -174.8
8.82440000 0.017699 -167.2 0.999839 -81.00 0.999839 -81.00 0.017698 -174.8
8.82460000 0.017692 -167.2 0.999840 -81.01 0.999840 -81.01 0.017692 -174.8
8.82480000 0.017686 -167.2 0.999840 -81.01 0.999840 -81.01 0.017686 -174.8
8.82500000 0.017680 -167.2 0.999840 -81.01 0.999840 -81.01 0.017680 -174.8
8.82520000 0.017674 -167.2 0.999840 -81.01 0.999840 -81.01 0.017674 -174.8
8.82540000 0.017667 -167.2 0.999840 -81.02 0.999840 -81.02 0.017667 -174.8
8.82560000 0.017661 -167.2 0.999840 -81.02 0.999840 -81.02 0.017661 -174.8
8.82580000 0.017655 -167.2 0.999840 -81.02 0.999840 -81.02 0.017655 -174.8
8.82600000 0.017648 -167.2 0.999840 -81.02 0.999840 -81.02 0.017648 -174.8
8.82620000 0.017642 -167.2 0.999840 -81.02 0.999840 -81.02 0.017642 -174.9
8.82640000 0.017636 -167.2 0.999841 -81.03 0.999841 -81.03 0.017635 -174.9
8.82660000 0.017629 -167.2 0.999841 -81.03 0.999841 -81.03 0.017629 -174.9
8.82680000 0.017623 -167.2 0.999841 -81.03 0.999841 -81.03 0.017622 -174.9
8.82700000 0.017616 -167.2 0.999841 -81.03 0.999841 -81.03 0.017616 -174.9
8.82720000 0.017609 -167.2 0.999841 -81.04 0.999841 -81.04 0.017609 -174.9
8.82740000 0.017603 -167.2 0.999841 -81.04 0.999841 -81.04 0.017603 -174.9
8.82760000 0.017596 -167.2 0.999841 -81.04 0.999841 -81.04 0.017596 -174.9
8.82780000 0.017589 -167.2 0.999841 -81.04 0.999841 -81.04 0.017589 -174.9
8.82800000 0.017583 -167.1 0.999841 -81.05 0.999841 -81.05 0.017582 -175.0
8.82820000 0.017576 -167.1 0.999842 -81.05 0.999842 -81.05 0.017576 -175.0
8.82840000 0.017569 -167.1 0.999842 -81.05 0.999842 -81.05 0.017569 -175.0
8.82860000 0.017562 -167.1 0.999842 -81.05 0.999842 -81.05 0.017562 -175.0
8.82880000 0.017555 -167.1 0.999842 -81.05 0.999842 -81.05 0.017555 -175.0
8.82900000 0.017548 -167.1 0.999842 -81.06 0.999842 -81.06 0.017548 -175.0
8.82920000 0.017541 -167.1 0.999842 -81.06 0.999842 -81.06 0.017541 -175.0
8.82940000 0.017534 -167.1 0.999842 -81.06 0.999842 -81.06 0.017534 -175.0
8.82960000 0.017527 -167.1 0.999842 -81.06 0.999842 -81.06 0.017527 -175.0
8.82980000 0.017520 -167.1 0.999842 -81.07 0.999842 -81.07 0.017520 -175.0
8.83000000 0.017513 -167.1 0.999843 -81.07 0.999843 -81.07 0.017513 -175.1
8.83020000 0.017506 -167.1 0.999843 -81.07 0.999843 -81.07 0.017506 -175.1
8.83040000 0.017499 -167.1 0.999843 -81.07 0.999843 -81.07 0.017499 -175.1
8.83060000 0.017492 -167.1 0.999843 -81.07 0.999843 -81.07 0.017491 -175.1
8.83080000 0.017484 -167.1 0.999843 -81.08 0.999843 -81.08 0.017484 -175.1
8.83100000 0.017477 -167.1 0.999843 -81.08 0.999843 -81.08 0.017477 -175.1
8.83120000 0.017470 -167.0 0.999843 -81.08 0.999843 -81.08 0.017469 -175.1
8.83140000 0.017462 -167.0 0.999843 -81.08 0.999843 -81.08 0.017462 -175.1
8.83160000 0.017455 -167.0 0.999844 -81.09 0.999844 -81.09 0.017454 -175.2
8.83180000 0.017447 -167.0 0.999844 -81.09 0.999844 -81.09 0.017447 -175.2
8.83200000 0.017440 -167.0 0.999844 -81.09 0.999844 -81.09 0.017439 -175.2
8.83220000 0.017432 -167.0 0.999844 -81.09 0.999844 -81.09 0.017432 -175.2
8.83240000 0.017424 -167.0 0.999844 -81.10 0.999844 -81.10 0.017424 -175.2
8.83260000 0.017417 -167.0 0.999844 -81.10 0.999844 -81.10 0.017416 -175.2
8.83280000 0.017409 -167.0 0.999844 -81.10 0.999844 -81.10 0.017409 -175.2
8.83300000 0.017401 -167.0 0.999844 -81.10 0.999844 -81.10 0.017401 -175.2
8.83320000 0.017393 -167.0 0.999845 -81.10 0.999845 -81.10 0.017393 -175.2
8.83340000 0.017385 -167.0 0.999845 -81.11 0.999845 -81.11 0.017385 -175.3
8.83360000 0.017378 -167.0 0.999845 -81.11 0.999845 -81.11 0.017377 -175.3
8.83380000 0.017370 -166.9 0.999845 -81.11 0.999845 -81.11 0.017369 -175.3
8.83400000 0.017362 -166.9 0.999845 -81.11 0.999845 -81.11 0.017361 -175.3
8.83420000 0.017354 -166.9 0.999845 -81.12 0.999845 -81.12 0.017353 -175.3
8.83440000 0.017345 -166.9 0.999845 -81.12 0.999845 -81.12 0.017345 -175.3
8.83460000 0.017337 -166.9 0.999846 -81.12 0.999846 -81.12 0.017337 -175.3
8.83480000 0.017329 -166.9 0.999846 -81.12 0.999846 -81.12 0.017329 -175.3
8.83500000 0.017321 -166.9 0.999846 -81.13 0.999846 -81.13 0.017321 -175.4
8.83520000 0.017313 -166.9 0.999846 -81.13 0.999846 -81.13 0.017312 -175.4
8.83540000 0.017304 -166.9 0.999846 -81.13 0.999846 -81.13 0.017304 -175.4
8.83560000 0.017296 -166.9 0.999846 -81.13 0.999846 -81.13 0.017295 -175.4
8.83580000 0.017287 -166.9 0.999846 -81.13 0.999846 -81.13 0.017287 -175.4
8.83600000 0.017279 -166.9 0.999847 -81.14 0.999847 -81.14 0.017278 -175.4
8.83620000 0.017270 -166.9 0.999847 -81.14 0.999847 -81.14 0.017270 -175.4
8.83640000 0.017262 -166.8 0.999847 -81.14 0.999847 -81.14 0.017261 -175.4
8.83660000 0.017253 -166.8 0.999847 -81.14 0.999847 -81.14 0.017253 -175.5
8.83680000 0.017244 -166.8 0.999847 -81.15 0.999847 -81.15 0.017244 -175.5
8.83700000 0.017235 -166.8 0.999847 -81.15 0.999847 -81.15 0.017235 -175.5
8.83720000 0.017227 -166.8 0.999847 -81.15 0.999847 -81.15 0.017226 -175.5
8.83740000 0.017218 -166.8 0.999848 -81.15 0.999848 -81.15 0.017217 -175.5
8.83760000 0.017209 -166.8 0.999848 -81.16 0.999848 -81.16 0.017208 -175.5
8.83780000 0.017200 -166.8 0.999848 -81.16 0.999848 -81.16 0.017199 -175.5
8.83800000 0.017191 -166.8 0.999848 -81.16 0.999848 -81.16 0.017190 -175.6
8.83820000 0.017182 -166.8 0.999848 -81.16 0.999848 -81.16 0.017181 -175.6
8.83840000 0.017172 -166.8 0.999848 -81.17 0.999848 -81.17 0.017172 -175.6
8.83860000 0.017163 -166.7 0.999848 -81.17 0.999848 -81.17 0.017163 -175.6
8.83880000 0.017154 -166.7 0.999849 -81.17 0.999849 -81.17 0.017153 -175.6
8.83900000 0.017144 -166.7 0.999849 -81.17 0.999849 -81.17 0.017144 -175.6
8.83920000 0.017135 -166.7 0.999849 -81.18 0.999849 -81.18 0.017135 -175.6
8.83940000 0.017126 -166.7 0.999849 -81.18 0.999849 -81.18 0.017125 -175.7
8.83960000 0.017116 -166.7 0.999849 -81.18 0.999849 -81.18 0.017116 -175.7
8.83980000 0.017106 -166.7 0.999849 -81.18 0.999849 -81.18 0.017106 -175.7
8.84000000 0.017097 -166.7 0.999850 -81.18 0.999850 -81.18 0.017096 -175.7
8.84020000 0.017087 -166.7 0.999850 -81.19 0.999850 -81.19 0.017087 -175.7
8.84040000 0.017077 -166.7 0.999850 -81.19 0.999850 -81.19 0.017077 -175.7
8.84060000 0.017067 -166.6 0.999850 -81.19 0.999850 -81.19 0.017067 -175.8
8.84080000 0.017057 -166.6 0.999850 -81.19 0.999850 -81.19 0.017057 -175.8
8.84100000 0.017047 -166.6 0.999850 -81.20 0.999850 -81.20 0.017047 -175.8
8.84120000 0.017037 -166.6 0.999850 -81.20 0.999850 -81.20 0.017037 -175.8
8.84140000 0.017027 -166.6 0.999851 -81.20 0.999851 -81.20 0.017027 -175.8
8.84160000 0.017017 -166.6 0.999851 -81.20 0.999851 -81.20 0.017017 -175.8
8.84180000 0.017007 -166.6 0.999851 -81.21 0.999851 -81.21 0.017006 -175.8
8.84200000 0.016996 -166.6 0.999851 -81.21 0.999851 -81.21 0.016996 -175.9
8.84220000 0.016986 -166.6 0.999851 -81.21 0.999851 -81.21 0.016986 -175.9
8.84240000 0.016976 -166.5 0.999851 -81.21 0.999851 -81.21 0.016975 -175.9
8.84260000 0.016965 -166.5 0.999852 -81.22 0.999852 -81.22 0.016965 -175.9
8.84280000 0.016954 -166.5 0.999852 -81.22 0.999852 -81.22 0.016954 -175.9
8.84300000 0.016944 -166.5 0.999852 -81.22 0.999852 -81.22 0.016943 -175.9
8.84320000 0.016933 -166.5 0.999852 -81.22 0.999852 -81.22 0.016932 -176.0
8.84340000 0.016922 -166.5 0.999852 -81.23 0.999852 -81.23 0.016922 -176.0
8.84360000 0.016911 -166.5 0.999853 -81.23 0.999853 -81.23 0.016911 -176.0
8.84380000 0.016900 -166.5 0.999853 -81.23 0.999853 -81.23 0.016900 -176.0
8.84400000 0.016889 -166.5 0.999853 -81.23 0.999853 -81.23 0.016889 -176.0
8.84420000 0.016878 -166.4 0.999853 -81.24 0.999853 -81.24 0.016877 -176.0
8.84440000 0.016867 -166.4 0.999853 -81.24 0.999853 -81.24 0.016866 -176.1
8.84460000 0.016855 -166.4 0.999853 -81.24 0.999853 -81.24 0.016855 -176.1
8.84480000 0.016844 -166.4 0.999854 -81.24 0.999854 -81.24 0.016843 -176.1
8.84500000 0.016833 -166.4 0.999854 -81.25 0.999854 -81.25 0.016832 -176.1
8.84520000 0.016821 -166.4 0.999854 -81.25 0.999854 -81.25 0.016820 -176.1
8.84540000 0.016809 -166.4 0.999854 -81.25 0.999854 -81.25 0.016809 -176.2
8.84560000 0.016798 -166.3 0.999854 -81.25 0.999854 -81.25 0.016797 -176.2
8.84580000 0.016786 -166.3 0.999855 -81.26 0.999855 -81.26 0.016785 -176.2
8.84600000 0.016774 -166.3 0.999855 -81.26 0.999855 -81.26 0.016773 -176.2
8.84620000 0.016762 -166.3 0.999855 -81.26 0.999855 -81.26 0.016761 -176.2
8.84640000 0.016750 -166.3 0.999855 -81.27 0.999855 -81.27 0.016749 -176.2
8.84660000 0.016738 -166.3 0.999855 -81.27 0.999855 -81.27 0.016737 -176.3
8.84680000 0.016725 -166.3 0.999855 -81.27 0.999855 -81.27 0.016725 -176.3
8.84700000 0.016713 -166.3 0.999856 -81.27 0.999856 -81.27 0.016712 -176.3
8.84720000 0.016701 -166.2 0.999856 -81.28 0.999856 -81.28 0.016700 -176.3
8.84740000 0.016688 -166.2 0.999856 -81.28 0.999856 -81.28 0.016688 -176.3
8.84760000 0.016676 -166.2 0.999856 -81.28 0.999856 -81.28 0.016675 -176.4
8.84780000 0.016663 -166.2 0.999856 -81.28 0.999856 -81.28 0.016662 -176.4
8.84800000 0.016650 -166.2 0.999857 -81.29 0.999857 -81.29 0.016649 -176.4
8.84820000 0.016637 -166.2 0.999857 -81.29 0.999857 -81.29 0.016636 -176.4
8.84840000 0.016624 -166.1 0.999857 -81.29 0.999857 -81.29 0.016623 -176.4
8.84860000 0.016611 -166.1 0.999857 -81.29 0.999857 -81.29 0.016610 -176.5
8.84880000 0.016598 -166.1 0.999858 -81.30 0.999858 -81.30 0.016597 -176.5
8.84900000 0.016584 -166.1 0.999858 -81.30 0.999858 -81.30 0.016584 -176.5
8.84920000 0.016571 -166.1 0.999858 -81.30 0.999858 -81.30 0.016570 -176.5
8.84940000 0.016558 -166.1 0.999858 -81.30 0.999858 -81.30 0.016557 -176.5
8.84960000 0.016544 -166.1 0.999858 -81.31 0.999858 -81.31 0.016543 -176.6
8.84980000 0.016530 -166.0 0.999859 -81.31 0.999859 -81.31 0.016529 -176.6
8.85000000 0.016516 -166.0 0.999859 -81.31 0.999859 -81.31 0.016516 -176.6
8.85020000 0.016502 -166.0 0.999859 -81.32 0.999859 -81.32 0.016502 -176.6
8.85040000 0.016488 -166.0 0.999859 -81.32 0.999859 -81.32 0.016488 -176.7
8.85060000 0.016474 -166.0 0.999859 -81.32 0.999859 -81.32 0.016473 -176.7
8.85080000 0.016460 -166.0 0.999860 -81.32 0.999860 -81.32 0.016459 -176.7
8.85100000 0.016446 -165.9 0.999860 -81.33 0.999860 -81.33 0.016445 -176.7
8.85120000 0.016431 -165.9 0.999860 -81.33 0.999860 -81.33 0.016430 -176.7
8.85140000 0.016416 -165.9 0.999860 -81.33 0.999860 -81.33 0.016416 -176.8
8.85160000 0.016402 -165.9 0.999861 -81.33 0.999861 -81.33 0.016401 -176.8
8.85180000 0.016387 -165.9 0.999861 -81.34 0.999861 -81.34 0.016386 -176.8
8.85200000 0.016372 -165.8 0.999861 -81.34 0.999861 -81.34 0.016371 -176.8
8.85220000 0.016357 -165.8 0.999861 -81.34 0.999861 -81.34 0.016356 -176.9
8.85240000 0.016341 -165.8 0.999862 -81.35 0.999862 -81.35 0.016341 -176.9
8.85260000 0.016326 -165.8 0.999862 -81.35 0.999862 -81.35 0.016325 -176.9
8.85280000 0.016311 -165.8 0.999862 -81.35 0.999862 -81.35 0.016310 -176.9
8.85300000 0.016295 -165.7 0.999862 -81.35 0.999862 -81.35 0.016294 -177.0
8.85320000 0.016279 -165.7 0.999862 -81.36 0.999862 -81.36 0.016278 -177.0
8.85340000 0.016263 -165.7 0.999863 -81.36 0.999863 -81.36 0.016262 -177.0
8.85360000 0.016247 -165.7 0.999863 -81.36 0.999863 -81.36 0.016246 -177.0
8.85380000 0.016231 -165.7 0.999863 -81.36 0.999863 -81.36 0.016230 -177.1
8.85400000 0.016215 -165.6 0.999863 -81.37 0.999863 -81.37 0.016214 -177.1
8.85420000 0.016199 -165.6 0.999864 -81.37 0.999864 -81.37 0.016198 -177.1
8.85440000 0.016182 -165.6 0.999864 -81.37 0.999864 -81.37 0.016181 -177.1
8.85460000 0.016165 -165.6 0.999864 -81.38 0.999864 -81.38 0.016164 -177.2
8.85480000 0.016148 -165.6 0.999864 -81.38 0.999864 -81.38 0.016147 -177.2
8.85500000 0.016131 -165.5 0.999865 -81.38 0.999865 -81.38 0.016130 -177.2
8.85520000 0.016114 -165.5 0.999865 -81.39 0.999865 -81.39 0.016113 -177.3
8.85540000 0.016097 -165.5 0.999865 -81.39 0.999865 -81.39 0.016096 -177.3
8.85560000 0.016080 -165.5 0.999865 -81.39 0.999865 -81.39 0.016079 -177.3
8.85580000 0.016062 -165.4 0.999866 -81.39 0.999866 -81.39 0.016061 -177.3
8.85600000 0.016044 -165.4 0.999866 -81.40 0.999866 -81.40 0.016043 -177.4
8.85620000 0.016026 -165.4 0.999866 -81.40 0.999866 -81.40 0.016025 -177.4
8.85640000 0.016008 -165.4 0.999867 -81.40 0.999867 -81.40 0.016007 -177.4
8.85660000 0.015990 -165.4 0.999867 -81.41 0.999867 -81.41 0.015989 -177.5
8.85680000 0.015972 -165.3 0.999867 -81.41 0.999867 -81.41 0.015970 -177.5
8.85700000 0.015953 -165.3 0.999867 -81.41 0.999867 -81.41 0.015952 -177.5
8.85720000 0.015934 -165.3 0.999868 -81.41 0.999868 -81.41 0.015933 -177.6
8.85740000 0.015915 -165.3 0.999868 -81.42 0.999868 -81.42 0.015914 -177.6
8.85760000 0.015896 -165.2 0.999868 -81.42 0.999868 -81.42 0.015895 -177.6
8.85780000 0.015877 -165.2 0.999869 -81.42 0.999869 -81.42 0.015876 -177.6
8.85800000 0.015858 -165.2 0.999869 -81.43 0.999869 -81.43 0.015856 -177.7
8.85820000 0.015838 -165.1 0.999869 -81.43 0.999869 -81.43 0.015837 -177.7
8.85840000 0.015818 -165.1 0.999869 -81.43 0.999869 -81.43 0.015817 -177.7
8.85860000 0.015798 -165.1 0.999870 -81.44 0.999870 -81.44 0.015797 -177.8
8.85880000 0.015778 -165.1 0.999870 -81.44 0.999870 -81.44 0.015777 -177.8
8.85900000 0.015758 -165.0 0.999870 -81.44 0.999870 -81.44 0.015756 -177.8
8.85920000 0.015737 -165.0 0.999871 -81.45 0.999871 -81.45 0.015736 -177.9
8.85940000 0.015716 -165.0 0.999871 -81.45 0.999871 -81.45 0.015715 -177.9
8.85960000 0.015695 -164.9 0.999871 -81.45 0.999871 -81.45 0.015694 -178.0
8.85980000 0.015674 -164.9 0.999872 -81.45 0.999872 -81.45 0.015673 -178.0
8.86000000 0.015653 -164.9 0.999872 -81.46 0.999872 -81.46 0.015652 -178.0
8.86020000 0.015631 -164.9 0.999872 -81.46 0.999872 -81.46 0.015630 -178.1
8.86040000 0.015610 -164.8 0.999872 -81.46 0.999872 -81.46 0.015608 -178.1
8.86060000 0.015588 -164.8 0.999873 -81.47 0.999873 -81.47 0.015586 -178.1
8.86080000 0.015565 -164.8 0.999873 -81.47 0.999873 -81.47 0.015564 -178.2
8.86100000 0.015543 -164.7 0.999873 -81.47 0.999873 -81.47 0.015542 -178.2
8.86120000 0.015520 -164.7 0.999874 -81.48 0.999874 -81.48 0.015519 -178.3
8.86140000 0.015497 -164.7 0.999874 -81.48 0.999874 -81.48 0.015496 -178.3
8.86160000 0.015474 -164.6 0.999874 -81.48 0.999874 -81.48 0.015473 -178.3
8.86180000 0.015451 -164.6 0.999875 -81.49 0.999875 -81.49 0.015449 -178.4
8.86200000 0.015427 -164.6 0.999875 -81.49 0.999875 -81.49 0.015426 -178.4
8.86220000 0.015404 -164.5 0.999875 -81.49 0.999875 -81.49 0.015402 -178.5
8.86240000 0.015380 -164.5 0.999876 -81.50 0.999876 -81.50 0.015378 -178.5
8.86260000 0.015355 -164.5 0.999876 -81.50 0.999876 -81.50 0.015354 -178.5
8.86280000 0.015331 -164.4 0.999876 -81.50 0.999876 -81.50 0.015329 -178.6
8.86300000 0.015306 -164.4 0.999877 -81.51 0.999877 -81.51 0.015304 -178.6
8.86320000 0.015281 -164.3 0.999877 -81.51 0.999877 -81.51 0.015279 -178.7
8.86340000 0.015255 -164.3 0.999878 -81.51 0.999878 -81.51 0.015254 -178.7
8.86360000 0.015230 -164.3 0.999878 -81.52 0.999878 -81.52 0.015228 -178.8
8.86380000 0.015204 -164.2 0.999878 -81.52 0.999878 -81.52 0.015202 -178.8
8.86400000 0.015178 -164.2 0.999879 -81.52 0.999879 -81.52 0.015176 -178.9
8.86420000 0.015151 -164.1 0.999879 -81.53 0.999879 -81.53 0.015149 -178.9
8.86440000 0.015125 -164.1 0.999879 -81.53 0.999879 -81.53 0.015123 -179.0
8.86460000 0.015098 -164.1 0.999880 -81.53 0.999880 -81.53 0.015096 -179.0
8.86480000 0.015070 -164.0 0.999880 -81.54 0.999880 -81.54 0.015068 -179.1
8.86500000 0.015043 -164.0 0.999880 -81.54 0.999880 -81.54 0.015041 -179.1
8.86520000 0.015015 -163.9 0.999881 -81.55 0.999881 -81.55 0.015013 -179.2
8.86540000 0.014986 -163.9 0.999881 -81.55 0.999881 -81.55 0.014984 -179.2
8.86560000 0.014958 -163.8 0.999882 -81.55 0.999882 -81.55 0.014956 -179.3
8.86580000 0.014929 -163.8 0.999882 -81.56 0.999882 -81.56 0.014927 -179.3
8.86600000 0.014900 -163.7 0.999882 -81.56 0.999882 -81.56 0.014898 -179.4
8.86620000 0.014870 -163.7 0.999883 -81.56 0.999883 -81.56 0.014868 -179.4
8.86640000 0.014840 -163.7 0.999883 -81.57 0.999883 -81.57 0.014838 -179.5
8.86660000 0.014810 -163.6 0.999884 -81.57 0.999884 -81.57 0.014808 -179.5
8.86680000 0.014780 -163.6 0.999884 -81.57 0.999884 -81.57 0.014777 -179.6
8.86700000 0.014749 -163.5 0.999884 -81.58 0.999884 -81.58 0.014747 -179.7
8.86720000 0.014718 -163.4 0.999885 -81.58 0.999885 -81.58 0.014715 -179.7
8.86740000 0.014686 -163.4 0.999885 -81.59 0.999885 -81.59 0.014684 -179.8
8.86760000 0.014654 -163.3 0.999886 -81.59 0.999886 -81.59 0.014652 -179.8
8.86780000 0.014622 -163.3 0.999886 -81.59 0.999886 -81.59 0.014619 -179.9
8.86800000 0.014589 -163.2 0.999887 -81.60 0.999887 -81.60 0.014586 -180.0
8.86820000 0.014556 -163.2 0.999887 -81.60 0.999887 -81.60 0.014553 179.98
8.86840000 0.014522 -163.1 0.999887 -81.61 0.999887 -81.61 0.014519 179.91
8.86860000 0.014488 -163.1 0.999888 -81.61 0.999888 -81.61 0.014485 179.85
8.86880000 0.014454 -163.0 0.999888 -81.61 0.999888 -81.61 0.014451 179.78
8.86900000 0.014419 -162.9 0.999889 -81.62 0.999889 -81.62 0.014416 179.71
8.86920000 0.014384 -162.9 0.999889 -81.62 0.999889 -81.62 0.014381 179.64
8.86940000 0.014348 -162.8 0.999890 -81.63 0.999890 -81.63 0.014345 179.57
8.86960000 0.014312 -162.7 0.999890 -81.63 0.999890 -81.63 0.014309 179.50
8.86980000 0.014275 -162.7 0.999891 -81.63 0.999891 -81.63 0.014272 179.42
8.87000000 0.014238 -162.6 0.999891 -81.64 0.999891 -81.64 0.014235 179.35
8.87020000 0.014201 -162.5 0.999892 -81.64 0.999892 -81.64 0.014198 179.27
8.87040000 0.014163 -162.5 0.999892 -81.65 0.999892 -81.65 0.014160 179.20
8.87050059 0.014144 -162.4 0.999892 -81.65 0.999892 -81.65 0.014141 179.16
8.87060000 0.014124 -162.4 0.999893 -81.65 0.999893 -81.65 0.014121 179.12
8.87080000 0.014086 -162.3 0.999893 -81.66 0.999893 -81.66 0.014082 179.04
8.87100000 0.014046 -162.3 0.999894 -81.66 0.999894 -81.66 0.014043 178.95
8.87118513 0.014009 -162.2 0.999894 -81.66 0.999894 -81.66 0.014006 178.88
8.87120000 0.014006 -162.2 0.999894 -81.66 0.999894 -81.66 0.014003 178.87
8.87140000 0.013966 -162.1 0.999895 -81.67 0.999895 -81.67 0.013962 178.78
8.87160000 0.013925 -162.0 0.999895 -81.67 0.999895 -81.67 0.013921 178.70
8.87180000 0.013883 -161.9 0.999896 -81.68 0.999896 -81.68 0.013880 178.61
8.87185398 0.013872 -161.9 0.999896 -81.68 0.999896 -81.68 0.013868 178.59
8.87200000 0.013841 -161.9 0.999896 -81.68 0.999896 -81.68 0.013837 178.52
8.87220000 0.013798 -161.8 0.999897 -81.69 0.999897 -81.69 0.013795 178.43
8.87240000 0.013755 -161.7 0.999897 -81.69 0.999897 -81.69 0.013751 178.33
8.87250751 0.013731 -161.7 0.999897 -81.69 0.999897 -81.69 0.013728 178.28
8.87260000 0.013711 -161.6 0.999898 -81.70 0.999898 -81.70 0.013707 178.24
8.87280000 0.013667 -161.5 0.999898 -81.70 0.999898 -81.70 0.013663 178.14
8.87300000 0.013621 -161.4 0.999899 -81.71 0.999899 -81.71 0.013618 178.04
8.87314606 0.013588 -161.4 0.999899 -81.71 0.999899 -81.71 0.013584 177.97
8.87320000 0.013576 -161.3 0.999899 -81.71 0.999899 -81.71 0.013572 177.94
8.87340000 0.013529 -161.2 0.999900 -81.72 0.999900 -81.72 0.013525 177.83
8.87360000 0.013482 -161.1 0.999900 -81.72 0.999900 -81.72 0.013478 177.73
8.87376999 0.013442 -161.1 0.999901 -81.72 0.999901 -81.72 0.013438 177.64
8.87380000 0.013435 -161.0 0.999901 -81.72 0.999901 -81.72 0.013430 177.62
8.87400000 0.013386 -160.9 0.999902 -81.73 0.999902 -81.73 0.013382 177.51
8.87420000 0.013337 -160.8 0.999902 -81.73 0.999902 -81.73 0.013333 177.40
8.87437961 0.013293 -160.7 0.999903 -81.74 0.999903 -81.74 0.013288 177.29
8.87440000 0.013288 -160.7 0.999903 -81.74 0.999903 -81.74 0.013283 177.28
8.87460000 0.013237 -160.6 0.999903 -81.74 0.999903 -81.74 0.013233 177.16
8.87480000 0.013186 -160.5 0.999904 -81.75 0.999904 -81.75 0.013181 177.04
8.87497527 0.013140 -160.4 0.999904 -81.75 0.999904 -81.75 0.013136 176.93
8.87500000 0.013134 -160.4 0.999904 -81.76 0.999904 -81.76 0.013129 176.92
8.87520000 0.013081 -160.3 0.999905 -81.76 0.999905 -81.76 0.013076 176.79
8.87540000 0.013028 -160.2 0.999906 -81.77 0.999906 -81.77 0.013023 176.66
8.87555727 0.012985 -160.1 0.999906 -81.77 0.999906 -81.77 0.012980 176.56
8.87560000 0.012973 -160.0 0.999906 -81.77 0.999906 -81.77 0.012968 176.53
8.87580000 0.012918 -159.9 0.999907 -81.78 0.999907 -81.78 0.012913 176.39
8.87600000 0.012862 -159.8 0.999907 -81.78 0.999907 -81.78 0.012857 176.25
8.87612594 0.012827 -159.7 0.999908 -81.79 0.999908 -81.79 0.012821 176.16
8.87620000 0.012805 -159.7 0.999908 -81.79 0.999908 -81.79 0.012800 176.11
8.87640000 0.012748 -159.5 0.999909 -81.79 0.999909 -81.79 0.012742 175.96