! Sonnet Data File
! From: emgraph Version : 16.52
! From Project: Resonator2_cp
! Data is De-embedded 
! Data File Written: 10/09/2017 00:47:18
!< HDATE 10/08/2017 10:09:33
!< MDATE 10/08/2017 10:09:33
!< PARAMS
!< Length = 400.0
!< Pwid1 = 2000.0
!< Pwid2 = 2000.0
!< Air_gap = 6.0
!< Width = 10.0
!< gap = 16.0
!< END PARAMS
# GHZ S MA R 51.00000
8.90000000 0.015024 9.5142 0.999883 -81.52 0.999883 -81.52 0.015024 7.4643
!< P1 F=8.9 Eeff=(6.44673582 -2.972e-5) Z0=(51.7989596 1.19519e-4) R=0.0 C=0.0 
!< P2 F=8.9 Eeff=(6.44673582 -2.972e-5) Z0=(51.7989596 1.19519e-4) R=0.0 C=0.0 
8.90010000 0.015023 9.5155 0.999883 -81.52 0.999883 -81.52 0.015022 7.4609
8.90020000 0.015021 9.5168 0.999883 -81.52 0.999883 -81.52 0.015020 7.4575
8.90030000 0.015019 9.5182 0.999884 -81.52 0.999884 -81.52 0.015018 7.4541
8.90040000 0.015017 9.5196 0.999884 -81.53 0.999884 -81.53 0.015016 7.4506
8.90050000 0.015015 9.5209 0.999884 -81.53 0.999884 -81.53 0.015014 7.4472
8.90060000 0.015013 9.5223 0.999884 -81.53 0.999884 -81.53 0.015012 7.4438
8.90070000 0.015011 9.5237 0.999884 -81.53 0.999884 -81.53 0.015010 7.4403
8.90080000 0.015009 9.5251 0.999884 -81.53 0.999884 -81.53 0.015008 7.4369
8.90090000 0.015007 9.5265 0.999884 -81.53 0.999884 -81.53 0.015006 7.4334
8.90100000 0.015005 9.5279 0.999884 -81.53 0.999884 -81.53 0.015004 7.4300
8.90110000 0.015003 9.5293 0.999884 -81.53 0.999884 -81.53 0.015002 7.4265
8.90120000 0.015001 9.5307 0.999884 -81.53 0.999884 -81.53 0.015000 7.4230
8.90130000 0.014999 9.5322 0.999884 -81.53 0.999884 -81.53 0.014998 7.4195
8.90140000 0.014997 9.5336 0.999884 -81.54 0.999884 -81.54 0.014996 7.4160
8.90150000 0.014995 9.5351 0.999884 -81.54 0.999884 -81.54 0.014994 7.4125
8.90160000 0.014992 9.5365 0.999884 -81.54 0.999884 -81.54 0.014992 7.4089
8.90170000 0.014990 9.5380 0.999884 -81.54 0.999884 -81.54 0.014990 7.4054
8.90180000 0.014988 9.5395 0.999884 -81.54 0.999884 -81.54 0.014988 7.4018
8.90190000 0.014986 9.5410 0.999884 -81.54 0.999884 -81.54 0.014986 7.3983
8.90200000 0.014984 9.5425 0.999884 -81.54 0.999884 -81.54 0.014984 7.3947
8.90210000 0.014982 9.5440 0.999884 -81.54 0.999884 -81.54 0.014982 7.3911
8.90220000 0.014980 9.5455 0.999884 -81.54 0.999884 -81.54 0.014980 7.3875
8.90230000 0.014978 9.5470 0.999884 -81.54 0.999884 -81.54 0.014978 7.3839
8.90240000 0.014976 9.5486 0.999884 -81.55 0.999884 -81.55 0.014975 7.3803
8.90250000 0.014974 9.5501 0.999884 -81.55 0.999884 -81.55 0.014973 7.3767
8.90260000 0.014972 9.5517 0.999884 -81.55 0.999884 -81.55 0.014971 7.3731
8.90270000 0.014969 9.5532 0.999884 -81.55 0.999884 -81.55 0.014969 7.3694
8.90280000 0.014967 9.5548 0.999884 -81.55 0.999884 -81.55 0.014967 7.3658
8.90290000 0.014965 9.5564 0.999884 -81.55 0.999884 -81.55 0.014965 7.3621
8.90300000 0.014963 9.5580 0.999884 -81.55 0.999884 -81.55 0.014963 7.3585
8.90310000 0.014961 9.5596 0.999884 -81.55 0.999884 -81.55 0.014960 7.3548
8.90320000 0.014959 9.5612 0.999884 -81.55 0.999884 -81.55 0.014958 7.3511
8.90330000 0.014956 9.5628 0.999884 -81.56 0.999884 -81.56 0.014956 7.3474
8.90340000 0.014954 9.5645 0.999884 -81.56 0.999884 -81.56 0.014954 7.3437
8.90350000 0.014952 9.5661 0.999884 -81.56 0.999884 -81.56 0.014952 7.3399
8.90360000 0.014950 9.5678 0.999884 -81.56 0.999884 -81.56 0.014949 7.3362
8.90370000 0.014948 9.5694 0.999885 -81.56 0.999885 -81.56 0.014947 7.3324
8.90380000 0.014945 9.5711 0.999885 -81.56 0.999885 -81.56 0.014945 7.3287
8.90390000 0.014943 9.5728 0.999885 -81.56 0.999885 -81.56 0.014943 7.3249
8.90400000 0.014941 9.5745 0.999885 -81.56 0.999885 -81.56 0.014941 7.3211
8.90410000 0.014939 9.5762 0.999885 -81.56 0.999885 -81.56 0.014938 7.3173
8.90420000 0.014936 9.5779 0.999885 -81.56 0.999885 -81.56 0.014936 7.3135
8.90430000 0.014934 9.5796 0.999885 -81.57 0.999885 -81.57 0.014934 7.3097
8.90440000 0.014932 9.5814 0.999885 -81.57 0.999885 -81.57 0.014932 7.3059
8.90450000 0.014930 9.5831 0.999885 -81.57 0.999885 -81.57 0.014929 7.3020
8.90460000 0.014927 9.5849 0.999885 -81.57 0.999885 -81.57 0.014927 7.2982
8.90470000 0.014925 9.5867 0.999885 -81.57 0.999885 -81.57 0.014925 7.2943
8.90480000 0.014923 9.5884 0.999885 -81.57 0.999885 -81.57 0.014922 7.2904
8.90490000 0.014920 9.5902 0.999885 -81.57 0.999885 -81.57 0.014920 7.2866
8.90500000 0.014918 9.5920 0.999885 -81.57 0.999885 -81.57 0.014918 7.2827
8.90510000 0.014916 9.5939 0.999885 -81.57 0.999885 -81.57 0.014915 7.2788
8.90520000 0.014913 9.5957 0.999885 -81.58 0.999885 -81.58 0.014913 7.2748
8.90530000 0.014911 9.5975 0.999885 -81.58 0.999885 -81.58 0.014911 7.2709
8.90540000 0.014909 9.5994 0.999885 -81.58 0.999885 -81.58 0.014908 7.2669
8.90550000 0.014906 9.6012 0.999885 -81.58 0.999885 -81.58 0.014906 7.2630
8.90560000 0.014904 9.6031 0.999885 -81.58 0.999885 -81.58 0.014904 7.2590
8.90570000 0.014902 9.6050 0.999885 -81.58 0.999885 -81.58 0.014901 7.2550
8.90580000 0.014899 9.6069 0.999885 -81.58 0.999885 -81.58 0.014899 7.2510
8.90590000 0.014897 9.6088 0.999885 -81.58 0.999885 -81.58 0.014896 7.2470
8.90600000 0.014894 9.6107 0.999885 -81.58 0.999885 -81.58 0.014894 7.2430
8.90610000 0.014892 9.6126 0.999885 -81.58 0.999885 -81.58 0.014892 7.2390
8.90620000 0.014890 9.6146 0.999885 -81.59 0.999885 -81.59 0.014889 7.2349
8.90630000 0.014887 9.6165 0.999885 -81.59 0.999885 -81.59 0.014887 7.2309
8.90640000 0.014885 9.6185 0.999885 -81.59 0.999885 -81.59 0.014884 7.2268
8.90650000 0.014882 9.6204 0.999885 -81.59 0.999885 -81.59 0.014882 7.2227
8.90660000 0.014880 9.6224 0.999885 -81.59 0.999885 -81.59 0.014879 7.2186
8.90670000 0.014877 9.6244 0.999886 -81.59 0.999886 -81.59 0.014877 7.2145
8.90680000 0.014875 9.6264 0.999886 -81.59 0.999886 -81.59 0.014874 7.2103
8.90690000 0.014872 9.6285 0.999886 -81.59 0.999886 -81.59 0.014872 7.2062
8.90700000 0.014870 9.6305 0.999886 -81.59 0.999886 -81.59 0.014869 7.2021
8.90710000 0.014867 9.6326 0.999886 -81.60 0.999886 -81.60 0.014867 7.1979
8.90720000 0.014865 9.6346 0.999886 -81.60 0.999886 -81.60 0.014864 7.1937
8.90730000 0.014862 9.6367 0.999886 -81.60 0.999886 -81.60 0.014862 7.1895
8.90740000 0.014860 9.6388 0.999886 -81.60 0.999886 -81.60 0.014859 7.1853
8.90750000 0.014857 9.6409 0.999886 -81.60 0.999886 -81.60 0.014857 7.1811
8.90760000 0.014854 9.6430 0.999886 -81.60 0.999886 -81.60 0.014854 7.1768
8.90770000 0.014852 9.6451 0.999886 -81.60 0.999886 -81.60 0.014851 7.1726
8.90780000 0.014849 9.6473 0.999886 -81.60 0.999886 -81.60 0.014849 7.1683
8.90790000 0.014847 9.6494 0.999886 -81.60 0.999886 -81.60 0.014846 7.1640
8.90800000 0.014844 9.6516 0.999886 -81.61 0.999886 -81.61 0.014844 7.1598
8.90810000 0.014841 9.6538 0.999886 -81.61 0.999886 -81.61 0.014841 7.1554
8.90820000 0.014839 9.6560 0.999886 -81.61 0.999886 -81.61 0.014838 7.1511
8.90830000 0.014836 9.6582 0.999886 -81.61 0.999886 -81.61 0.014836 7.1468
8.90840000 0.014834 9.6604 0.999886 -81.61 0.999886 -81.61 0.014833 7.1424
8.90850000 0.014831 9.6626 0.999886 -81.61 0.999886 -81.61 0.014830 7.1381
8.90860000 0.014828 9.6649 0.999886 -81.61 0.999886 -81.61 0.014828 7.1337
8.90870000 0.014826 9.6671 0.999886 -81.61 0.999886 -81.61 0.014825 7.1293
8.90880000 0.014823 9.6694 0.999886 -81.61 0.999886 -81.61 0.014822 7.1249
8.90890000 0.014820 9.6717 0.999886 -81.61 0.999886 -81.61 0.014820 7.1204
8.90900000 0.014817 9.6740 0.999886 -81.62 0.999886 -81.62 0.014817 7.1160
8.90910000 0.014815 9.6763 0.999886 -81.62 0.999886 -81.62 0.014814 7.1115
8.90920000 0.014812 9.6787 0.999886 -81.62 0.999886 -81.62 0.014811 7.1071
8.90930000 0.014809 9.6810 0.999886 -81.62 0.999886 -81.62 0.014809 7.1026
8.90940000 0.014806 9.6834 0.999886 -81.62 0.999886 -81.62 0.014806 7.0981
8.90950000 0.014804 9.6857 0.999887 -81.62 0.999887 -81.62 0.014803 7.0936
8.90960000 0.014801 9.6881 0.999887 -81.62 0.999887 -81.62 0.014800 7.0890
8.90970000 0.014798 9.6905 0.999887 -81.62 0.999887 -81.62 0.014798 7.0845
8.90980000 0.014795 9.6930 0.999887 -81.62 0.999887 -81.62 0.014795 7.0799
8.90990000 0.014792 9.6954 0.999887 -81.63 0.999887 -81.63 0.014792 7.0753
8.91000000 0.014790 9.6978 0.999887 -81.63 0.999887 -81.63 0.014789 7.0707
8.91010000 0.014787 9.7003 0.999887 -81.63 0.999887 -81.63 0.014786 7.0661
8.91020000 0.014784 9.7028 0.999887 -81.63 0.999887 -81.63 0.014783 7.0614
8.91030000 0.014781 9.7053 0.999887 -81.63 0.999887 -81.63 0.014781 7.0568
8.91040000 0.014778 9.7078 0.999887 -81.63 0.999887 -81.63 0.014778 7.0521
8.91050000 0.014775 9.7103 0.999887 -81.63 0.999887 -81.63 0.014775 7.0474
8.91060000 0.014772 9.7129 0.999887 -81.63 0.999887 -81.63 0.014772 7.0427
8.91070000 0.014769 9.7154 0.999887 -81.63 0.999887 -81.63 0.014769 7.0380
8.91080000 0.014767 9.7180 0.999887 -81.64 0.999887 -81.64 0.014766 7.0333
8.91090000 0.014764 9.7206 0.999887 -81.64 0.999887 -81.64 0.014763 7.0285
8.91100000 0.014761 9.7232 0.999887 -81.64 0.999887 -81.64 0.014760 7.0238
8.91110000 0.014758 9.7258 0.999887 -81.64 0.999887 -81.64 0.014757 7.0190
8.91120000 0.014755 9.7285 0.999887 -81.64 0.999887 -81.64 0.014754 7.0142
8.91130000 0.014752 9.7311 0.999887 -81.64 0.999887 -81.64 0.014751 7.0093
8.91140000 0.014749 9.7338 0.999887 -81.64 0.999887 -81.64 0.014748 7.0045
8.91150000 0.014746 9.7365 0.999887 -81.64 0.999887 -81.64 0.014745 6.9996
8.91160000 0.014743 9.7392 0.999887 -81.64 0.999887 -81.64 0.014742 6.9947
8.91170000 0.014740 9.7419 0.999887 -81.65 0.999887 -81.65 0.014739 6.9898
8.91180000 0.014737 9.7447 0.999887 -81.65 0.999887 -81.65 0.014736 6.9849
8.91190000 0.014734 9.7474 0.999888 -81.65 0.999888 -81.65 0.014733 6.9800
8.91200000 0.014730 9.7502 0.999888 -81.65 0.999888 -81.65 0.014730 6.9750
8.91210000 0.014727 9.7530 0.999888 -81.65 0.999888 -81.65 0.014727 6.9701
8.91220000 0.014724 9.7558 0.999888 -81.65 0.999888 -81.65 0.014724 6.9651
8.91230000 0.014721 9.7586 0.999888 -81.65 0.999888 -81.65 0.014721 6.9601
8.91240000 0.014718 9.7615 0.999888 -81.65 0.999888 -81.65 0.014717 6.9550
8.91250000 0.014715 9.7643 0.999888 -81.65 0.999888 -81.65 0.014714 6.9500
8.91260000 0.014712 9.7672 0.999888 -81.66 0.999888 -81.66 0.014711 6.9449
8.91270000 0.014709 9.7701 0.999888 -81.66 0.999888 -81.66 0.014708 6.9398
8.91280000 0.014705 9.7731 0.999888 -81.66 0.999888 -81.66 0.014705 6.9347
8.91290000 0.014702 9.7760 0.999888 -81.66 0.999888 -81.66 0.014702 6.9296
8.91300000 0.014699 9.7789 0.999888 -81.66 0.999888 -81.66 0.014698 6.9244
8.91310000 0.014696 9.7819 0.999888 -81.66 0.999888 -81.66 0.014695 6.9193
8.91320000 0.014692 9.7849 0.999888 -81.66 0.999888 -81.66 0.014692 6.9141
8.91330000 0.014689 9.7879 0.999888 -81.66 0.999888 -81.66 0.014689 6.9089
8.91340000 0.014686 9.7910 0.999888 -81.66 0.999888 -81.66 0.014685 6.9036
8.91350000 0.014683 9.7940 0.999888 -81.67 0.999888 -81.67 0.014682 6.8984
8.91360000 0.014679 9.7971 0.999888 -81.67 0.999888 -81.67 0.014679 6.8931
8.91370000 0.014676 9.8002 0.999888 -81.67 0.999888 -81.67 0.014675 6.8878
8.91380000 0.014673 9.8033 0.999888 -81.67 0.999888 -81.67 0.014672 6.8825
8.91390000 0.014669 9.8064 0.999888 -81.67 0.999888 -81.67 0.014669 6.8771
8.91400000 0.014666 9.8096 0.999888 -81.67 0.999888 -81.67 0.014665 6.8718
8.91410000 0.014663 9.8127 0.999888 -81.67 0.999888 -81.67 0.014662 6.8664
8.91420000 0.014659 9.8159 0.999889 -81.67 0.999889 -81.67 0.014659 6.8610
8.91430000 0.014656 9.8191 0.999889 -81.67 0.999889 -81.67 0.014655 6.8556
8.91440000 0.014652 9.8224 0.999889 -81.68 0.999889 -81.68 0.014652 6.8501
8.91450000 0.014649 9.8256 0.999889 -81.68 0.999889 -81.68 0.014648 6.8446
8.91460000 0.014645 9.8289 0.999889 -81.68 0.999889 -81.68 0.014645 6.8392
8.91470000 0.014642 9.8322 0.999889 -81.68 0.999889 -81.68 0.014641 6.8336
8.91480000 0.014639 9.8355 0.999889 -81.68 0.999889 -81.68 0.014638 6.8281
8.91490000 0.014635 9.8389 0.999889 -81.68 0.999889 -81.68 0.014634 6.8225
8.91500000 0.014631 9.8422 0.999889 -81.68 0.999889 -81.68 0.014631 6.8169
8.91510000 0.014628 9.8456 0.999889 -81.68 0.999889 -81.68 0.014627 6.8113
8.91520000 0.014624 9.8490 0.999889 -81.68 0.999889 -81.68 0.014624 6.8057
8.91530000 0.014621 9.8524 0.999889 -81.69 0.999889 -81.69 0.014620 6.8000
8.91540000 0.014617 9.8559 0.999889 -81.69 0.999889 -81.69 0.014617 6.7944
8.91550000 0.014614 9.8594 0.999889 -81.69 0.999889 -81.69 0.014613 6.7887
8.91560000 0.014610 9.8628 0.999889 -81.69 0.999889 -81.69 0.014609 6.7829
8.91570000 0.014606 9.8664 0.999889 -81.69 0.999889 -81.69 0.014606 6.7772
8.91580000 0.014603 9.8699 0.999889 -81.69 0.999889 -81.69 0.014602 6.7714
8.91590000 0.014599 9.8735 0.999889 -81.69 0.999889 -81.69 0.014598 6.7656
8.91600000 0.014595 9.8771 0.999889 -81.69 0.999889 -81.69 0.014595 6.7598
8.91610000 0.014592 9.8807 0.999889 -81.69 0.999889 -81.69 0.014591 6.7539
8.91620000 0.014588 9.8843 0.999889 -81.70 0.999889 -81.70 0.014587 6.7480
8.91630000 0.014584 9.8880 0.999890 -81.70 0.999890 -81.70 0.014584 6.7421
8.91640000 0.014580 9.8916 0.999890 -81.70 0.999890 -81.70 0.014580 6.7362
8.91650000 0.014577 9.8953 0.999890 -81.70 0.999890 -81.70 0.014576 6.7302
8.91660000 0.014573 9.8991 0.999890 -81.70 0.999890 -81.70 0.014572 6.7242
8.91670000 0.014569 9.9028 0.999890 -81.70 0.999890 -81.70 0.014568 6.7182
8.91680000 0.014565 9.9066 0.999890 -81.70 0.999890 -81.70 0.014565 6.7122
8.91690000 0.014561 9.9104 0.999890 -81.70 0.999890 -81.70 0.014561 6.7061
8.91700000 0.014558 9.9142 0.999890 -81.71 0.999890 -81.71 0.014557 6.7000
8.91710000 0.014554 9.9181 0.999890 -81.71 0.999890 -81.71 0.014553 6.6939
8.91720000 0.014550 9.9220 0.999890 -81.71 0.999890 -81.71 0.014549 6.6878
8.91730000 0.014546 9.9259 0.999890 -81.71 0.999890 -81.71 0.014545 6.6816
8.91740000 0.014542 9.9298 0.999890 -81.71 0.999890 -81.71 0.014541 6.6754
8.91750000 0.014538 9.9338 0.999890 -81.71 0.999890 -81.71 0.014537 6.6692
8.91760000 0.014534 9.9378 0.999890 -81.71 0.999890 -81.71 0.014533 6.6629
8.91770000 0.014530 9.9418 0.999890 -81.71 0.999890 -81.71 0.014529 6.6566
8.91780000 0.014526 9.9458 0.999890 -81.71 0.999890 -81.71 0.014525 6.6503
8.91790000 0.014522 9.9499 0.999890 -81.72 0.999890 -81.72 0.014521 6.6439
8.91800000 0.014518 9.9540 0.999890 -81.72 0.999890 -81.72 0.014517 6.6376
8.91810000 0.014514 9.9581 0.999890 -81.72 0.999890 -81.72 0.014513 6.6312
8.91820000 0.014510 9.9622 0.999891 -81.72 0.999891 -81.72 0.014509 6.6247
8.91830000 0.014506 9.9664 0.999891 -81.72 0.999891 -81.72 0.014505 6.6182
8.91840000 0.014501 9.9706 0.999891 -81.72 0.999891 -81.72 0.014501 6.6117
8.91850000 0.014497 9.9749 0.999891 -81.72 0.999891 -81.72 0.014497 6.6052
8.91860000 0.014493 9.9791 0.999891 -81.72 0.999891 -81.72 0.014492 6.5987
8.91870000 0.014489 9.9834 0.999891 -81.72 0.999891 -81.72 0.014488 6.5921
8.91880000 0.014485 9.9877 0.999891 -81.73 0.999891 -81.73 0.014484 6.5854
8.91890000 0.014480 9.9921 0.999891 -81.73 0.999891 -81.73 0.014480 6.5788
8.91900000 0.014476 9.9965 0.999891 -81.73 0.999891 -81.73 0.014475 6.5721
8.91910000 0.014472 10.001 0.999891 -81.73 0.999891 -81.73 0.014471 6.5654
8.91920000 0.014468 10.005 0.999891 -81.73 0.999891 -81.73 0.014467 6.5586
8.91930000 0.014463 10.010 0.999891 -81.73 0.999891 -81.73 0.014463 6.5519
8.91940000 0.014459 10.014 0.999891 -81.73 0.999891 -81.73 0.014458 6.5450
8.91950000 0.014455 10.019 0.999891 -81.73 0.999891 -81.73 0.014454 6.5382
8.91960000 0.014450 10.023 0.999891 -81.74 0.999891 -81.74 0.014449 6.5313
8.91970000 0.014446 10.028 0.999891 -81.74 0.999891 -81.74 0.014445 6.5244
8.91980000 0.014441 10.033 0.999891 -81.74 0.999891 -81.74 0.014441 6.5174
8.91990000 0.014437 10.037 0.999892 -81.74 0.999892 -81.74 0.014436 6.5104
8.92000000 0.014432 10.042 0.999892 -81.74 0.999892 -81.74 0.014432 6.5034
8.92010000 0.014428 10.047 0.999892 -81.74 0.999892 -81.74 0.014427 6.4964
8.92020000 0.014423 10.051 0.999892 -81.74 0.999892 -81.74 0.014423 6.4893
8.92030000 0.014419 10.056 0.999892 -81.74 0.999892 -81.74 0.014418 6.4821
8.92040000 0.014414 10.061 0.999892 -81.74 0.999892 -81.74 0.014413 6.4750
8.92050000 0.014410 10.066 0.999892 -81.75 0.999892 -81.75 0.014409 6.4678
8.92060000 0.014405 10.071 0.999892 -81.75 0.999892 -81.75 0.014404 6.4605
8.92070000 0.014400 10.076 0.999892 -81.75 0.999892 -81.75 0.014400 6.4533
8.92080000 0.014396 10.081 0.999892 -81.75 0.999892 -81.75 0.014395 6.4459
8.92090000 0.014391 10.086 0.999892 -81.75 0.999892 -81.75 0.014390 6.4386
8.92100000 0.014386 10.091 0.999892 -81.75 0.999892 -81.75 0.014385 6.4312
8.92110000 0.014381 10.096 0.999892 -81.75 0.999892 -81.75 0.014381 6.4238
8.92120000 0.014377 10.101 0.999892 -81.75 0.999892 -81.75 0.014376 6.4163
8.92130000 0.014372 10.106 0.999892 -81.76 0.999892 -81.76 0.014371 6.4088
8.92140000 0.014367 10.111 0.999892 -81.76 0.999892 -81.76 0.014366 6.4013
8.92150000 0.014362 10.116 0.999893 -81.76 0.999893 -81.76 0.014361 6.3937
8.92160000 0.014357 10.122 0.999893 -81.76 0.999893 -81.76 0.014357 6.3861
8.92170000 0.014352 10.127 0.999893 -81.76 0.999893 -81.76 0.014352 6.3784
8.92180000 0.014348 10.132 0.999893 -81.76 0.999893 -81.76 0.014347 6.3707
8.92190000 0.014343 10.138 0.999893 -81.76 0.999893 -81.76 0.014342 6.3629
8.92200000 0.014338 10.143 0.999893 -81.76 0.999893 -81.76 0.014337 6.3551
8.92210000 0.014333 10.149 0.999893 -81.77 0.999893 -81.77 0.014332 6.3473
8.92220000 0.014328 10.154 0.999893 -81.77 0.999893 -81.77 0.014327 6.3394
8.92230000 0.014322 10.160 0.999893 -81.77 0.999893 -81.77 0.014322 6.3315
8.92240000 0.014317 10.165 0.999893 -81.77 0.999893 -81.77 0.014316 6.3236
8.92250000 0.014312 10.171 0.999893 -81.77 0.999893 -81.77 0.014311 6.3156
8.92260000 0.014307 10.176 0.999893 -81.77 0.999893 -81.77 0.014306 6.3075
8.92270000 0.014302 10.182 0.999893 -81.77 0.999893 -81.77 0.014301 6.2994
8.92280000 0.014297 10.188 0.999893 -81.77 0.999893 -81.77 0.014296 6.2913
8.92290000 0.014291 10.194 0.999893 -81.78 0.999893 -81.78 0.014291 6.2831
8.92300000 0.014286 10.199 0.999894 -81.78 0.999894 -81.78 0.014285 6.2749
8.92310000 0.014281 10.205 0.999894 -81.78 0.999894 -81.78 0.014280 6.2666
8.92320000 0.014276 10.211 0.999894 -81.78 0.999894 -81.78 0.014275 6.2583
8.92330000 0.014270 10.217 0.999894 -81.78 0.999894 -81.78 0.014269 6.2499
8.92340000 0.014265 10.223 0.999894 -81.78 0.999894 -81.78 0.014264 6.2415
8.92350000 0.014259 10.229 0.999894 -81.78 0.999894 -81.78 0.014258 6.2331
8.92360000 0.014254 10.235 0.999894 -81.78 0.999894 -81.78 0.014253 6.2245
8.92370000 0.014248 10.241 0.999894 -81.79 0.999894 -81.79 0.014248 6.2160
8.92380000 0.014243 10.248 0.999894 -81.79 0.999894 -81.79 0.014242 6.2074
8.92390000 0.014237 10.254 0.999894 -81.79 0.999894 -81.79 0.014236 6.1987
8.92400000 0.014232 10.260 0.999894 -81.79 0.999894 -81.79 0.014231 6.1900
8.92410000 0.014226 10.266 0.999894 -81.79 0.999894 -81.79 0.014225 6.1813
8.92420000 0.014221 10.273 0.999894 -81.79 0.999894 -81.79 0.014220 6.1724
8.92430000 0.014215 10.279 0.999894 -81.79 0.999894 -81.79 0.014214 6.1636
8.92440000 0.014209 10.286 0.999895 -81.79 0.999895 -81.79 0.014208 6.1547
8.92450000 0.014204 10.292 0.999895 -81.80 0.999895 -81.80 0.014203 6.1457
8.92460000 0.014198 10.299 0.999895 -81.80 0.999895 -81.80 0.014197 6.1367
8.92470000 0.014192 10.305 0.999895 -81.80 0.999895 -81.80 0.014191 6.1276
8.92480000 0.014186 10.312 0.999895 -81.80 0.999895 -81.80 0.014185 6.1185
8.92490000 0.014180 10.319 0.999895 -81.80 0.999895 -81.80 0.014179 6.1093
8.92500000 0.014174 10.325 0.999895 -81.80 0.999895 -81.80 0.014173 6.1001
8.92510000 0.014168 10.332 0.999895 -81.80 0.999895 -81.80 0.014167 6.0908
8.92520000 0.014162 10.339 0.999895 -81.80 0.999895 -81.80 0.014161 6.0814
8.92530000 0.014156 10.346 0.999895 -81.81 0.999895 -81.81 0.014155 6.0720
8.92540000 0.014150 10.353 0.999895 -81.81 0.999895 -81.81 0.014149 6.0625
8.92550000 0.014144 10.360 0.999895 -81.81 0.999895 -81.81 0.014143 6.0530
8.92560000 0.014138 10.367 0.999895 -81.81 0.999895 -81.81 0.014137 6.0434
8.92570000 0.014132 10.374 0.999896 -81.81 0.999896 -81.81 0.014131 6.0338
8.92580000 0.014126 10.381 0.999896 -81.81 0.999896 -81.81 0.014125 6.0241
8.92590000 0.014120 10.389 0.999896 -81.81 0.999896 -81.81 0.014118 6.0143
8.92600000 0.014113 10.396 0.999896 -81.81 0.999896 -81.81 0.014112 6.0045
8.92610000 0.014107 10.403 0.999896 -81.82 0.999896 -81.82 0.014106 5.9946
8.92620000 0.014101 10.411 0.999896 -81.82 0.999896 -81.82 0.014100 5.9847
8.92630000 0.014094 10.418 0.999896 -81.82 0.999896 -81.82 0.014093 5.9746
8.92640000 0.014088 10.426 0.999896 -81.82 0.999896 -81.82 0.014087 5.9646
8.92650000 0.014081 10.433 0.999896 -81.82 0.999896 -81.82 0.014080 5.9544
8.92660000 0.014075 10.441 0.999896 -81.82 0.999896 -81.82 0.014074 5.9442
8.92670000 0.014068 10.449 0.999896 -81.82 0.999896 -81.82 0.014067 5.9339
8.92680000 0.014062 10.457 0.999896 -81.82 0.999896 -81.82 0.014061 5.9236
8.92690000 0.014055 10.464 0.999896 -81.83 0.999896 -81.83 0.014054 5.9132
8.92700000 0.014048 10.472 0.999897 -81.83 0.999897 -81.83 0.014047 5.9027
8.92710000 0.014042 10.480 0.999897 -81.83 0.999897 -81.83 0.014041 5.8922
8.92720000 0.014035 10.488 0.999897 -81.83 0.999897 -81.83 0.014034 5.8816
8.92730000 0.014028 10.496 0.999897 -81.83 0.999897 -81.83 0.014027 5.8709
8.92740000 0.014021 10.505 0.999897 -81.83 0.999897 -81.83 0.014020 5.8601
8.92750000 0.014014 10.513 0.999897 -81.83 0.999897 -81.83 0.014013 5.8493
8.92760000 0.014008 10.521 0.999897 -81.84 0.999897 -81.84 0.014006 5.8384
8.92770000 0.014001 10.530 0.999897 -81.84 0.999897 -81.84 0.013999 5.8274
8.92780000 0.013994 10.538 0.999897 -81.84 0.999897 -81.84 0.013992 5.8164
8.92790000 0.013987 10.547 0.999897 -81.84 0.999897 -81.84 0.013985 5.8052
8.92800000 0.013979 10.555 0.999897 -81.84 0.999897 -81.84 0.013978 5.7940
8.92810000 0.013972 10.564 0.999898 -81.84 0.999898 -81.84 0.013971 5.7828
8.92820000 0.013965 10.573 0.999898 -81.84 0.999898 -81.84 0.013964 5.7714
8.92830000 0.013958 10.581 0.999898 -81.84 0.999898 -81.84 0.013957 5.7600
8.92840000 0.013951 10.590 0.999898 -81.85 0.999898 -81.85 0.013949 5.7485
8.92850000 0.013943 10.599 0.999898 -81.85 0.999898 -81.85 0.013942 5.7369
8.92860000 0.013936 10.608 0.999898 -81.85 0.999898 -81.85 0.013935 5.7252
8.92870000 0.013928 10.617 0.999898 -81.85 0.999898 -81.85 0.013927 5.7134
8.92880000 0.013921 10.627 0.999898 -81.85 0.999898 -81.85 0.013920 5.7016
8.92890000 0.013913 10.636 0.999898 -81.85 0.999898 -81.85 0.013912 5.6897
8.92900000 0.013906 10.645 0.999898 -81.85 0.999898 -81.85 0.013904 5.6777
8.92910000 0.013898 10.655 0.999898 -81.86 0.999898 -81.86 0.013897 5.6656
8.92920000 0.013890 10.664 0.999899 -81.86 0.999899 -81.86 0.013889 5.6534
8.92930000 0.013883 10.674 0.999899 -81.86 0.999899 -81.86 0.013881 5.6411
8.92940000 0.013875 10.684 0.999899 -81.86 0.999899 -81.86 0.013874 5.6287
8.92950000 0.013867 10.693 0.999899 -81.86 0.999899 -81.86 0.013866 5.6163
8.92960000 0.013859 10.703 0.999899 -81.86 0.999899 -81.86 0.013858 5.6037
8.92970000 0.013851 10.713 0.999899 -81.86 0.999899 -81.86 0.013850 5.5911
8.92980000 0.013843 10.723 0.999899 -81.87 0.999899 -81.87 0.013842 5.5784
8.92990000 0.013835 10.733 0.999899 -81.87 0.999899 -81.87 0.013834 5.5656
8.93000000 0.013827 10.744 0.999899 -81.87 0.999899 -81.87 0.013826 5.5526
8.93010000 0.013819 10.754 0.999899 -81.87 0.999899 -81.87 0.013817 5.5396
8.93020000 0.013811 10.764 0.999900 -81.87 0.999900 -81.87 0.013809 5.5265
8.93030000 0.013802 10.775 0.999900 -81.87 0.999900 -81.87 0.013801 5.5133
8.93040000 0.013794 10.785 0.999900 -81.87 0.999900 -81.87 0.013793 5.5000
8.93050000 0.013786 10.796 0.999900 -81.88 0.999900 -81.88 0.013784 5.4866
8.93060000 0.013777 10.807 0.999900 -81.88 0.999900 -81.88 0.013776 5.4730
8.93070000 0.013769 10.818 0.999900 -81.88 0.999900 -81.88 0.013767 5.4594
8.93080000 0.013760 10.829 0.999900 -81.88 0.999900 -81.88 0.013759 5.4457
8.93090000 0.013751 10.840 0.999900 -81.88 0.999900 -81.88 0.013750 5.4318
8.93100000 0.013743 10.851 0.999900 -81.88 0.999900 -81.88 0.013741 5.4179
8.93110000 0.013734 10.862 0.999900 -81.88 0.999900 -81.88 0.013732 5.4038
8.93120000 0.013725 10.874 0.999901 -81.89 0.999901 -81.89 0.013724 5.3897
8.93130000 0.013716 10.885 0.999901 -81.89 0.999901 -81.89 0.013715 5.3754
8.93140000 0.013707 10.897 0.999901 -81.89 0.999901 -81.89 0.013706 5.3610
8.93150000 0.013698 10.908 0.999901 -81.89 0.999901 -81.89 0.013697 5.3465
8.93160000 0.013689 10.920 0.999901 -81.89 0.999901 -81.89 0.013688 5.3319
8.93170000 0.013680 10.932 0.999901 -81.89 0.999901 -81.89 0.013678 5.3171
8.93180000 0.013671 10.944 0.999901 -81.89 0.999901 -81.89 0.013669 5.3022
8.93190000 0.013661 10.956 0.999901 -81.90 0.999901 -81.90 0.013660 5.2873
8.93200000 0.013652 10.969 0.999901 -81.90 0.999901 -81.90 0.013650 5.2721
8.93210000 0.013643 10.981 0.999902 -81.90 0.999902 -81.90 0.013641 5.2569
8.93220000 0.013633 10.994 0.999902 -81.90 0.999902 -81.90 0.013632 5.2415
8.93230000 0.013624 11.006 0.999902 -81.90 0.999902 -81.90 0.013622 5.2261
8.93240000 0.013614 11.019 0.999902 -81.90 0.999902 -81.90 0.013612 5.2104
8.93250000 0.013604 11.032 0.999902 -81.90 0.999902 -81.90 0.013603 5.1947
8.93260000 0.013594 11.045 0.999902 -81.91 0.999902 -81.91 0.013593 5.1788
8.93270000 0.013585 11.058 0.999902 -81.91 0.999902 -81.91 0.013583 5.1628
8.93280000 0.013575 11.071 0.999902 -81.91 0.999902 -81.91 0.013573 5.1466
8.93290000 0.013565 11.085 0.999903 -81.91 0.999903 -81.91 0.013563 5.1303
8.93300000 0.013555 11.098 0.999903 -81.91 0.999903 -81.91 0.013553 5.1139
8.93310000 0.013544 11.112 0.999903 -81.91 0.999903 -81.91 0.013543 5.0973
8.93320000 0.013534 11.126 0.999903 -81.92 0.999903 -81.92 0.013532 5.0806
8.93330000 0.013524 11.140 0.999903 -81.92 0.999903 -81.92 0.013522 5.0637
8.93340000 0.013513 11.154 0.999903 -81.92 0.999903 -81.92 0.013512 5.0467
8.93350000 0.013503 11.168 0.999903 -81.92 0.999903 -81.92 0.013501 5.0295
8.93360000 0.013492 11.182 0.999903 -81.92 0.999903 -81.92 0.013491 5.0122
8.93370000 0.013482 11.197 0.999903 -81.92 0.999903 -81.92 0.013480 4.9947
8.93380000 0.013471 11.212 0.999904 -81.92 0.999904 -81.92 0.013469 4.9771
8.93390000 0.013460 11.227 0.999904 -81.93 0.999904 -81.93 0.013458 4.9593
8.93400000 0.013449 11.242 0.999904 -81.93 0.999904 -81.93 0.013447 4.9413
8.93410000 0.013438 11.257 0.999904 -81.93 0.999904 -81.93 0.013436 4.9232
8.93420000 0.013427 11.272 0.999904 -81.93 0.999904 -81.93 0.013425 4.9049
8.93430000 0.013416 11.287 0.999904 -81.93 0.999904 -81.93 0.013414 4.8864
8.93440000 0.013405 11.303 0.999904 -81.93 0.999904 -81.93 0.013403 4.8678
8.93450000 0.013393 11.319 0.999905 -81.94 0.999905 -81.94 0.013391 4.8490
8.93460000 0.013382 11.335 0.999905 -81.94 0.999905 -81.94 0.013380 4.8300
8.93470000 0.013370 11.351 0.999905 -81.94 0.999905 -81.94 0.013368 4.8108
8.93480000 0.013359 11.367 0.999905 -81.94 0.999905 -81.94 0.013357 4.7915
8.93490000 0.013347 11.384 0.999905 -81.94 0.999905 -81.94 0.013345 4.7720
8.93500000 0.013335 11.400 0.999905 -81.94 0.999905 -81.94 0.013333 4.7522
8.93510000 0.013323 11.417 0.999905 -81.95 0.999905 -81.95 0.013321 4.7323
8.93520000 0.013311 11.434 0.999905 -81.95 0.999905 -81.95 0.013309 4.7122
8.93530000 0.013299 11.451 0.999906 -81.95 0.999906 -81.95 0.013297 4.6919
8.93540000 0.013287 11.469 0.999906 -81.95 0.999906 -81.95 0.013285 4.6714
8.93550000 0.013275 11.486 0.999906 -81.95 0.999906 -81.95 0.013272 4.6507
8.93560000 0.013262 11.504 0.999906 -81.95 0.999906 -81.95 0.013260 4.6298
8.93570000 0.013250 11.522 0.999906 -81.96 0.999906 -81.96 0.013247 4.6087
8.93580000 0.013237 11.540 0.999906 -81.96 0.999906 -81.96 0.013235 4.5874
8.93590000 0.013224 11.559 0.999906 -81.96 0.999906 -81.96 0.013222 4.5658
8.93600000 0.013211 11.577 0.999907 -81.96 0.999907 -81.96 0.013209 4.5441
8.93610000 0.013198 11.596 0.999907 -81.96 0.999907 -81.96 0.013196 4.5221
8.93620000 0.013185 11.615 0.999907 -81.96 0.999907 -81.96 0.013183 4.4999
8.93630000 0.013172 11.634 0.999907 -81.97 0.999907 -81.97 0.013170 4.4774
8.93640000 0.013159 11.654 0.999907 -81.97 0.999907 -81.97 0.013156 4.4548
8.93650000 0.013145 11.674 0.999907 -81.97 0.999907 -81.97 0.013143 4.4319
8.93660000 0.013132 11.694 0.999907 -81.97 0.999907 -81.97 0.013129 4.4087
8.93670000 0.013118 11.714 0.999908 -81.97 0.999908 -81.97 0.013116 4.3853
8.93680000 0.013104 11.734 0.999908 -81.97 0.999908 -81.97 0.013102 4.3617
8.93690000 0.013090 11.755 0.999908 -81.98 0.999908 -81.98 0.013088 4.3378
8.93700000 0.013076 11.776 0.999908 -81.98 0.999908 -81.98 0.013074 4.3136
8.93710000 0.013062 11.797 0.999908 -81.98 0.999908 -81.98 0.013060 4.2892
8.93720000 0.013048 11.818 0.999908 -81.98 0.999908 -81.98 0.013045 4.2645
8.93730000 0.013033 11.840 0.999909 -81.98 0.999909 -81.98 0.013031 4.2395
8.93740000 0.013019 11.862 0.999909 -81.99 0.999909 -81.99 0.013016 4.2143
8.93750000 0.013004 11.884 0.999909 -81.99 0.999909 -81.99 0.013001 4.1888
8.93760000 0.012989 11.906 0.999909 -81.99 0.999909 -81.99 0.012987 4.1630
8.93770000 0.012974 11.929 0.999909 -81.99 0.999909 -81.99 0.012972 4.1369
8.93780000 0.012959 11.952 0.999909 -81.99 0.999909 -81.99 0.012956 4.1105
8.93790000 0.012944 11.975 0.999910 -81.99 0.999910 -81.99 0.012941 4.0838
8.93800000 0.012928 11.999 0.999910 -82.00 0.999910 -82.00 0.012926 4.0568
8.93810000 0.012913 12.023 0.999910 -82.00 0.999910 -82.00 0.012910 4.0295
8.93820000 0.012897 12.047 0.999910 -82.00 0.999910 -82.00 0.012894 4.0019
8.93830000 0.012881 12.072 0.999910 -82.00 0.999910 -82.00 0.012878 3.9739
8.93840000 0.012865 12.096 0.999910 -82.00 0.999910 -82.00 0.012862 3.9457
8.93850000 0.012849 12.122 0.999911 -82.01 0.999911 -82.01 0.012846 3.9171
8.93860000 0.012833 12.147 0.999911 -82.01 0.999911 -82.01 0.012830 3.8881
8.93870000 0.012816 12.173 0.999911 -82.01 0.999911 -82.01 0.012813 3.8588
8.93880000 0.012800 12.199 0.999911 -82.01 0.999911 -82.01 0.012797 3.8292
8.93890000 0.012783 12.225 0.999911 -82.01 0.999911 -82.01 0.012780 3.7991
8.93900000 0.012766 12.252 0.999911 -82.02 0.999911 -82.02 0.012763 3.7688
8.93910000 0.012749 12.280 0.999912 -82.02 0.999912 -82.02 0.012746 3.7380
8.93920000 0.012731 12.307 0.999912 -82.02 0.999912 -82.02 0.012728 3.7069