! Sonnet Data File
! From: emgraph Version : 16.52
! From Project: Resonator2_extremeCap
! Data is De-embedded 
! Data File Written: 10/10/2017 20:29:23
!< HDATE 10/09/2017 23:04:37
!< MDATE 10/09/2017 23:04:37
!< PARAMS
!< Pwid1 = 2000.0
!< Pwid2 = 2000.0
!< Air_gap = 30.0
!< Width = 50.0
!< Gap = 33.0
!< END PARAMS
# GHZ S MA R 51.80000
8.98000000 0.071212 15.265 0.997451 -89.58 0.997451 -89.58 0.071197 -14.42
!< P1 F=8.98 Eeff=(6.44048327 -2.9689e-5) Z0=(50.406422 1.16291e-4) R=0.0 C=0.0 
!< P2 F=8.98 Eeff=(6.44048327 -2.9689e-5) Z0=(50.406422 1.16291e-4) R=0.0 C=0.0 
8.98010000 0.071218 15.290 0.997450 -89.58 0.997450 -89.58 0.071203 -14.45
8.98020000 0.071224 15.314 0.997450 -89.58 0.997450 -89.58 0.071209 -14.48
8.98030000 0.071230 15.338 0.997449 -89.59 0.997449 -89.59 0.071215 -14.51
8.98040000 0.071237 15.363 0.997449 -89.59 0.997449 -89.59 0.071221 -14.54
8.98050000 0.071243 15.387 0.997448 -89.59 0.997448 -89.59 0.071228 -14.57
8.98060000 0.071249 15.412 0.997448 -89.60 0.997448 -89.60 0.071234 -14.60
8.98070000 0.071256 15.437 0.997448 -89.60 0.997448 -89.60 0.071240 -14.63
8.98080000 0.071262 15.461 0.997447 -89.60 0.997447 -89.60 0.071246 -14.66
8.98090000 0.071268 15.486 0.997447 -89.61 0.997447 -89.61 0.071253 -14.70
8.98100000 0.071275 15.511 0.997446 -89.61 0.997446 -89.61 0.071259 -14.73
8.98110000 0.071281 15.536 0.997446 -89.61 0.997446 -89.61 0.071265 -14.76
8.98120000 0.071288 15.560 0.997445 -89.61 0.997445 -89.61 0.071272 -14.79
8.98130000 0.071294 15.585 0.997445 -89.62 0.997445 -89.62 0.071278 -14.82
8.98140000 0.071300 15.610 0.997444 -89.62 0.997444 -89.62 0.071285 -14.85
8.98150000 0.071307 15.635 0.997444 -89.62 0.997444 -89.62 0.071291 -14.88
8.98160000 0.071314 15.660 0.997443 -89.63 0.997443 -89.63 0.071298 -14.91
8.98170000 0.071320 15.686 0.997443 -89.63 0.997443 -89.63 0.071304 -14.94
8.98180000 0.071327 15.711 0.997442 -89.63 0.997442 -89.63 0.071311 -14.98
8.98190000 0.071333 15.736 0.997442 -89.64 0.997442 -89.64 0.071318 -15.01
8.98200000 0.071340 15.761 0.997441 -89.64 0.997441 -89.64 0.071324 -15.04
8.98210000 0.071347 15.787 0.997441 -89.64 0.997441 -89.64 0.071331 -15.07
8.98220000 0.071354 15.812 0.997440 -89.65 0.997440 -89.65 0.071338 -15.10
8.98230000 0.071360 15.837 0.997440 -89.65 0.997440 -89.65 0.071344 -15.13
8.98240000 0.071367 15.863 0.997439 -89.65 0.997439 -89.65 0.071351 -15.17
8.98250000 0.071374 15.889 0.997439 -89.66 0.997439 -89.66 0.071358 -15.20
8.98260000 0.071381 15.914 0.997438 -89.66 0.997438 -89.66 0.071365 -15.23
8.98270000 0.071388 15.940 0.997438 -89.66 0.997438 -89.66 0.071372 -15.26
8.98280000 0.071395 15.966 0.997437 -89.66 0.997437 -89.66 0.071378 -15.29
8.98290000 0.071401 15.991 0.997437 -89.67 0.997437 -89.67 0.071385 -15.33
8.98300000 0.071408 16.017 0.997436 -89.67 0.997436 -89.67 0.071392 -15.36
8.98310000 0.071415 16.043 0.997436 -89.67 0.997436 -89.67 0.071399 -15.39
8.98320000 0.071422 16.069 0.997435 -89.68 0.997435 -89.68 0.071406 -15.42
8.98330000 0.071430 16.095 0.997435 -89.68 0.997435 -89.68 0.071413 -15.46
8.98340000 0.071437 16.121 0.997434 -89.68 0.997434 -89.68 0.071420 -15.49
8.98350000 0.071444 16.147 0.997434 -89.69 0.997434 -89.69 0.071427 -15.52
8.98360000 0.071451 16.174 0.997433 -89.69 0.997433 -89.69 0.071434 -15.55
8.98370000 0.071458 16.200 0.997433 -89.69 0.997433 -89.69 0.071442 -15.59
8.98380000 0.071465 16.226 0.997432 -89.70 0.997432 -89.70 0.071449 -15.62
8.98390000 0.071473 16.253 0.997432 -89.70 0.997432 -89.70 0.071456 -15.65
8.98400000 0.071480 16.279 0.997431 -89.70 0.997431 -89.70 0.071463 -15.68
8.98410000 0.071487 16.305 0.997430 -89.71 0.997430 -89.71 0.071471 -15.72
8.98420000 0.071495 16.332 0.997430 -89.71 0.997430 -89.71 0.071478 -15.75
8.98430000 0.071502 16.359 0.997429 -89.71 0.997429 -89.71 0.071485 -15.78
8.98440000 0.071509 16.385 0.997429 -89.72 0.997429 -89.72 0.071493 -15.82
8.98450000 0.071517 16.412 0.997428 -89.72 0.997428 -89.72 0.071500 -15.85
8.98460000 0.071524 16.439 0.997428 -89.72 0.997428 -89.72 0.071507 -15.88
8.98470000 0.071532 16.466 0.997427 -89.73 0.997427 -89.73 0.071515 -15.92
8.98480000 0.071539 16.492 0.997427 -89.73 0.997427 -89.73 0.071522 -15.95
8.98490000 0.071547 16.519 0.997426 -89.73 0.997426 -89.73 0.071530 -15.98
8.98500000 0.071554 16.546 0.997425 -89.74 0.997425 -89.74 0.071537 -16.02
8.98510000 0.071562 16.573 0.997425 -89.74 0.997425 -89.74 0.071545 -16.05
8.98520000 0.071570 16.601 0.997424 -89.74 0.997424 -89.74 0.071553 -16.08
8.98530000 0.071577 16.628 0.997424 -89.75 0.997424 -89.75 0.071560 -16.12
8.98540000 0.071585 16.655 0.997423 -89.75 0.997423 -89.75 0.071568 -16.15
8.98550000 0.071593 16.682 0.997423 -89.75 0.997423 -89.75 0.071576 -16.19
8.98560000 0.071601 16.710 0.997422 -89.76 0.997422 -89.76 0.071584 -16.22
8.98570000 0.071609 16.737 0.997421 -89.76 0.997421 -89.76 0.071591 -16.25
8.98580000 0.071616 16.765 0.997421 -89.76 0.997421 -89.76 0.071599 -16.29
8.98590000 0.071624 16.792 0.997420 -89.77 0.997420 -89.77 0.071607 -16.32
8.98600000 0.071632 16.820 0.997420 -89.77 0.997420 -89.77 0.071615 -16.36
8.98610000 0.071640 16.847 0.997419 -89.77 0.997419 -89.77 0.071623 -16.39
8.98620000 0.071648 16.875 0.997418 -89.78 0.997418 -89.78 0.071631 -16.42
8.98630000 0.071656 16.903 0.997418 -89.78 0.997418 -89.78 0.071639 -16.46
8.98640000 0.071665 16.931 0.997417 -89.78 0.997417 -89.78 0.071647 -16.49
8.98650000 0.071673 16.959 0.997417 -89.79 0.997417 -89.79 0.071655 -16.53
8.98660000 0.071681 16.987 0.997416 -89.79 0.997416 -89.79 0.071663 -16.56
8.98670000 0.071689 17.015 0.997415 -89.79 0.997415 -89.79 0.071671 -16.60
8.98680000 0.071697 17.043 0.997415 -89.80 0.997415 -89.80 0.071680 -16.63
8.98690000 0.071706 17.071 0.997414 -89.80 0.997414 -89.80 0.071688 -16.67
8.98700000 0.071714 17.099 0.997414 -89.80 0.997414 -89.80 0.071696 -16.70
8.98710000 0.071722 17.128 0.997413 -89.81 0.997413 -89.81 0.071704 -16.74
8.98720000 0.071731 17.156 0.997412 -89.81 0.997412 -89.81 0.071713 -16.77
8.98730000 0.071739 17.184 0.997412 -89.81 0.997412 -89.81 0.071721 -16.81
8.98740000 0.071748 17.213 0.997411 -89.82 0.997411 -89.82 0.071730 -16.84
8.98750000 0.071756 17.241 0.997411 -89.82 0.997411 -89.82 0.071738 -16.88
8.98760000 0.071765 17.270 0.997410 -89.82 0.997410 -89.82 0.071747 -16.91
8.98770000 0.071773 17.299 0.997409 -89.83 0.997409 -89.83 0.071755 -16.95
8.98780000 0.071782 17.328 0.997409 -89.83 0.997409 -89.83 0.071764 -16.99
8.98790000 0.071790 17.356 0.997408 -89.83 0.997408 -89.83 0.071772 -17.02
8.98800000 0.071799 17.385 0.997407 -89.84 0.997407 -89.84 0.071781 -17.06
8.98810000 0.071808 17.414 0.997407 -89.84 0.997407 -89.84 0.071790 -17.09
8.98820000 0.071817 17.443 0.997406 -89.84 0.997406 -89.84 0.071798 -17.13
8.98830000 0.071825 17.472 0.997405 -89.85 0.997405 -89.85 0.071807 -17.16
8.98840000 0.071834 17.501 0.997405 -89.85 0.997405 -89.85 0.071816 -17.20
8.98850000 0.071843 17.531 0.997404 -89.85 0.997404 -89.85 0.071825 -17.24
8.98860000 0.071852 17.560 0.997403 -89.86 0.997403 -89.86 0.071834 -17.27
8.98870000 0.071861 17.589 0.997403 -89.86 0.997403 -89.86 0.071843 -17.31
8.98880000 0.071870 17.619 0.997402 -89.86 0.997402 -89.86 0.071852 -17.35
8.98890000 0.071879 17.648 0.997401 -89.87 0.997401 -89.87 0.071861 -17.38
8.98900000 0.071888 17.678 0.997401 -89.87 0.997401 -89.87 0.071870 -17.42
8.98910000 0.071897 17.707 0.997400 -89.87 0.997400 -89.87 0.071879 -17.45
8.98920000 0.071907 17.737 0.997399 -89.88 0.997399 -89.88 0.071888 -17.49
8.98930000 0.071916 17.767 0.997399 -89.88 0.997399 -89.88 0.071897 -17.53
8.98940000 0.071925 17.796 0.997398 -89.88 0.997398 -89.88 0.071906 -17.57
8.98950000 0.071935 17.826 0.997397 -89.89 0.997397 -89.89 0.071916 -17.60
8.98960000 0.071944 17.856 0.997397 -89.89 0.997397 -89.89 0.071925 -17.64
8.98970000 0.071953 17.886 0.997396 -89.90 0.997396 -89.90 0.071934 -17.68
8.98980000 0.071963 17.916 0.997395 -89.90 0.997395 -89.90 0.071944 -17.71
8.98990000 0.071972 17.946 0.997394 -89.90 0.997394 -89.90 0.071953 -17.75
8.99000000 0.071982 17.977 0.997394 -89.91 0.997394 -89.91 0.071963 -17.79
8.99010000 0.071991 18.007 0.997393 -89.91 0.997393 -89.91 0.071972 -17.83
8.99020000 0.072001 18.037 0.997392 -89.91 0.997392 -89.91 0.071982 -17.86
8.99030000 0.072011 18.068 0.997392 -89.92 0.997392 -89.92 0.071991 -17.90
8.99040000 0.072020 18.098 0.997391 -89.92 0.997391 -89.92 0.072001 -17.94
8.99050000 0.072030 18.129 0.997390 -89.92 0.997390 -89.92 0.072011 -17.98
8.99060000 0.072040 18.159 0.997389 -89.93 0.997389 -89.93 0.072021 -18.01
8.99070000 0.072050 18.190 0.997389 -89.93 0.997389 -89.93 0.072030 -18.05
8.99080000 0.072060 18.221 0.997388 -89.93 0.997388 -89.93 0.072040 -18.09
8.99090000 0.072070 18.252 0.997387 -89.94 0.997387 -89.94 0.072050 -18.13
8.99100000 0.072080 18.283 0.997386 -89.94 0.997386 -89.94 0.072060 -18.17
8.99110000 0.072090 18.314 0.997386 -89.95 0.997386 -89.95 0.072070 -18.20
8.99120000 0.072100 18.345 0.997385 -89.95 0.997385 -89.95 0.072080 -18.24
8.99130000 0.072110 18.376 0.997384 -89.95 0.997384 -89.95 0.072090 -18.28
8.99140000 0.072120 18.407 0.997383 -89.96 0.997383 -89.96 0.072100 -18.32
8.99150000 0.072130 18.438 0.997383 -89.96 0.997383 -89.96 0.072111 -18.36
8.99160000 0.072141 18.470 0.997382 -89.96 0.997382 -89.96 0.072121 -18.40
8.99170000 0.072151 18.501 0.997381 -89.97 0.997381 -89.97 0.072131 -18.44
8.99180000 0.072161 18.533 0.997380 -89.97 0.997380 -89.97 0.072141 -18.47
8.99190000 0.072172 18.564 0.997380 -89.97 0.997380 -89.97 0.072152 -18.51
8.99200000 0.072182 18.596 0.997379 -89.98 0.997379 -89.98 0.072162 -18.55
8.99210000 0.072193 18.628 0.997378 -89.98 0.997378 -89.98 0.072173 -18.59
8.99220000 0.072203 18.659 0.997377 -89.99 0.997377 -89.99 0.072183 -18.63
8.99230000 0.072214 18.691 0.997376 -89.99 0.997376 -89.99 0.072194 -18.67
8.99240000 0.072225 18.723 0.997376 -89.99 0.997376 -89.99 0.072204 -18.71
8.99250000 0.072235 18.755 0.997375 -90.00 0.997375 -90.00 0.072215 -18.75
8.99260000 0.072246 18.787 0.997374 -90.00 0.997374 -90.00 0.072226 -18.79
8.99270000 0.072257 18.819 0.997373 -90.00 0.997373 -90.00 0.072237 -18.83
8.99280000 0.072268 18.852 0.997372 -90.01 0.997372 -90.01 0.072247 -18.87
8.99290000 0.072279 18.884 0.997372 -90.01 0.997372 -90.01 0.072258 -18.91
8.99300000 0.072290 18.916 0.997371 -90.02 0.997371 -90.02 0.072269 -18.95
8.99310000 0.072301 18.949 0.997370 -90.02 0.997370 -90.02 0.072280 -18.99
8.99320000 0.072312 18.981 0.997369 -90.02 0.997369 -90.02 0.072291 -19.03
8.99330000 0.072323 19.014 0.997368 -90.03 0.997368 -90.03 0.072302 -19.07
8.99340000 0.072334 19.047 0.997368 -90.03 0.997368 -90.03 0.072313 -19.11
8.99350000 0.072345 19.079 0.997367 -90.03 0.997367 -90.03 0.072325 -19.15
8.99360000 0.072357 19.112 0.997366 -90.04 0.997366 -90.04 0.072336 -19.19
8.99370000 0.072368 19.145 0.997365 -90.04 0.997365 -90.04 0.072347 -19.23
8.99380000 0.072379 19.178 0.997364 -90.05 0.997364 -90.05 0.072359 -19.27
8.99390000 0.072391 19.211 0.997363 -90.05 0.997363 -90.05 0.072370 -19.31
8.99400000 0.072402 19.244 0.997362 -90.05 0.997362 -90.05 0.072381 -19.35
8.99410000 0.072414 19.277 0.997362 -90.06 0.997362 -90.06 0.072393 -19.39
8.99420000 0.072426 19.311 0.997361 -90.06 0.997361 -90.06 0.072405 -19.43
8.99430000 0.072437 19.344 0.997360 -90.06 0.997360 -90.06 0.072416 -19.47
8.99440000 0.072449 19.378 0.997359 -90.07 0.997359 -90.07 0.072428 -19.51
8.99450000 0.072461 19.411 0.997358 -90.07 0.997358 -90.07 0.072440 -19.56
8.99460000 0.072473 19.445 0.997357 -90.08 0.997357 -90.08 0.072451 -19.60
8.99470000 0.072485 19.478 0.997356 -90.08 0.997356 -90.08 0.072463 -19.64
8.99480000 0.072497 19.512 0.997355 -90.08 0.997355 -90.08 0.072475 -19.68
8.99490000 0.072509 19.546 0.997354 -90.09 0.997354 -90.09 0.072487 -19.72
8.99500000 0.072521 19.580 0.997354 -90.09 0.997354 -90.09 0.072499 -19.76
8.99510000 0.072533 19.614 0.997353 -90.10 0.997353 -90.10 0.072511 -19.81
8.99520000 0.072545 19.648 0.997352 -90.10 0.997352 -90.10 0.072523 -19.85
8.99530000 0.072557 19.682 0.997351 -90.10 0.997351 -90.10 0.072536 -19.89
8.99540000 0.072570 19.717 0.997350 -90.11 0.997350 -90.11 0.072548 -19.93
8.99550000 0.072582 19.751 0.997349 -90.11 0.997349 -90.11 0.072560 -19.97
8.99560000 0.072594 19.785 0.997348 -90.12 0.997348 -90.12 0.072573 -20.02
8.99570000 0.072607 19.820 0.997347 -90.12 0.997347 -90.12 0.072585 -20.06
8.99580000 0.072619 19.854 0.997346 -90.12 0.997346 -90.12 0.072598 -20.10
8.99590000 0.072632 19.889 0.997345 -90.13 0.997345 -90.13 0.072610 -20.14
8.99600000 0.072645 19.924 0.997344 -90.13 0.997344 -90.13 0.072623 -20.19
8.99610000 0.072658 19.959 0.997343 -90.13 0.997343 -90.13 0.072636 -20.23
8.99620000 0.072670 19.993 0.997342 -90.14 0.997342 -90.14 0.072648 -20.27
8.99630000 0.072683 20.028 0.997341 -90.14 0.997341 -90.14 0.072661 -20.32
8.99640000 0.072696 20.064 0.997340 -90.15 0.997340 -90.15 0.072674 -20.36
8.99650000 0.072709 20.099 0.997339 -90.15 0.997339 -90.15 0.072687 -20.40
8.99660000 0.072722 20.134 0.997338 -90.15 0.997338 -90.15 0.072700 -20.44
8.99670000 0.072735 20.169 0.997337 -90.16 0.997337 -90.16 0.072713 -20.49
8.99680000 0.072749 20.205 0.997337 -90.16 0.997337 -90.16 0.072726 -20.53
8.99690000 0.072762 20.240 0.997336 -90.17 0.997336 -90.17 0.072739 -20.58
8.99700000 0.072775 20.276 0.997335 -90.17 0.997335 -90.17 0.072753 -20.62
8.99710000 0.072789 20.311 0.997334 -90.18 0.997334 -90.18 0.072766 -20.66
8.99720000 0.072802 20.347 0.997332 -90.18 0.997332 -90.18 0.072779 -20.71
8.99730000 0.072816 20.383 0.997331 -90.18 0.997331 -90.18 0.072793 -20.75
8.99740000 0.072829 20.419 0.997330 -90.19 0.997330 -90.19 0.072806 -20.79
8.99750000 0.072843 20.455 0.997329 -90.19 0.997329 -90.19 0.072820 -20.84
8.99760000 0.072857 20.491 0.997328 -90.20 0.997328 -90.20 0.072834 -20.88
8.99770000 0.072870 20.527 0.997327 -90.20 0.997327 -90.20 0.072847 -20.93
8.99780000 0.072884 20.564 0.997326 -90.20 0.997326 -90.20 0.072861 -20.97
8.99790000 0.072898 20.600 0.997325 -90.21 0.997325 -90.21 0.072875 -21.02
8.99800000 0.072912 20.636 0.997324 -90.21 0.997324 -90.21 0.072889 -21.06
8.99810000 0.072926 20.673 0.997323 -90.22 0.997323 -90.22 0.072903 -21.11
8.99820000 0.072940 20.709 0.997322 -90.22 0.997322 -90.22 0.072917 -21.15
8.99830000 0.072955 20.746 0.997321 -90.22 0.997321 -90.22 0.072931 -21.20
8.99840000 0.072969 20.783 0.997320 -90.23 0.997320 -90.23 0.072946 -21.24
8.99850000 0.072983 20.820 0.997319 -90.23 0.997319 -90.23 0.072960 -21.29
8.99860000 0.072998 20.857 0.997318 -90.24 0.997318 -90.24 0.072974 -21.33
8.99870000 0.073012 20.894 0.997317 -90.24 0.997317 -90.24 0.072989 -21.38
8.99880000 0.073027 20.931 0.997316 -90.25 0.997316 -90.25 0.073003 -21.42
8.99890000 0.073042 20.968 0.997314 -90.25 0.997314 -90.25 0.073018 -21.47
8.99900000 0.073056 21.006 0.997313 -90.25 0.997313 -90.25 0.073033 -21.51
8.99910000 0.073071 21.043 0.997312 -90.26 0.997312 -90.26 0.073047 -21.56
8.99920000 0.073086 21.081 0.997311 -90.26 0.997311 -90.26 0.073062 -21.61
8.99930000 0.073101 21.118 0.997310 -90.27 0.997310 -90.27 0.073077 -21.65
8.99940000 0.073116 21.156 0.997309 -90.27 0.997309 -90.27 0.073092 -21.70
8.99950000 0.073131 21.194 0.997308 -90.27 0.997308 -90.27 0.073107 -21.74
8.99960000 0.073146 21.232 0.997307 -90.28 0.997307 -90.28 0.073122 -21.79
8.99970000 0.073162 21.270 0.997305 -90.28 0.997305 -90.28 0.073137 -21.84
8.99980000 0.073177 21.308 0.997304 -90.29 0.997304 -90.29 0.073153 -21.88
8.99990000 0.073192 21.346 0.997303 -90.29 0.997303 -90.29 0.073168 -21.93
9.00000000 0.073208 21.384 0.997302 -90.30 0.997302 -90.30 0.073183 -21.98
9.00010000 0.073223 21.422 0.997301 -90.30 0.997301 -90.30 0.073199 -22.03
9.00020000 0.073239 21.461 0.997300 -90.30 0.997300 -90.30 0.073215 -22.07
9.00030000 0.073255 21.499 0.997298 -90.31 0.997298 -90.31 0.073230 -22.12
9.00040000 0.073271 21.538 0.997297 -90.31 0.997297 -90.31 0.073246 -22.17
9.00050000 0.073286 21.577 0.997296 -90.32 0.997296 -90.32 0.073262 -22.21
9.00060000 0.073302 21.616 0.997295 -90.32 0.997295 -90.32 0.073278 -22.26
9.00070000 0.073319 21.654 0.997294 -90.33 0.997294 -90.33 0.073294 -22.31
9.00080000 0.073335 21.693 0.997292 -90.33 0.997292 -90.33 0.073310 -22.36
9.00090000 0.073351 21.733 0.997291 -90.34 0.997291 -90.34 0.073326 -22.41
9.00100000 0.073367 21.772 0.997290 -90.34 0.997290 -90.34 0.073342 -22.45
9.00110000 0.073384 21.811 0.997289 -90.34 0.997289 -90.34 0.073359 -22.50
9.00120000 0.073400 21.850 0.997287 -90.35 0.997287 -90.35 0.073375 -22.55
9.00130000 0.073417 21.890 0.997286 -90.35 0.997286 -90.35 0.073391 -22.60
9.00140000 0.073433 21.930 0.997285 -90.36 0.997285 -90.36 0.073408 -22.65
9.00150000 0.073450 21.969 0.997284 -90.36 0.997284 -90.36 0.073425 -22.69
9.00160000 0.073467 22.009 0.997282 -90.37 0.997282 -90.37 0.073441 -22.74
9.00170000 0.073484 22.049 0.997281 -90.37 0.997281 -90.37 0.073458 -22.79
9.00180000 0.073501 22.089 0.997280 -90.38 0.997280 -90.38 0.073475 -22.84
9.00190000 0.073518 22.129 0.997279 -90.38 0.997279 -90.38 0.073492 -22.89
9.00200000 0.073535 22.169 0.997277 -90.38 0.997277 -90.38 0.073509 -22.94
9.00210000 0.073552 22.209 0.997276 -90.39 0.997276 -90.39 0.073527 -22.99
9.00220000 0.073570 22.250 0.997275 -90.39 0.997275 -90.39 0.073544 -23.04
9.00230000 0.073587 22.290 0.997273 -90.40 0.997273 -90.40 0.073561 -23.09
9.00240000 0.073605 22.331 0.997272 -90.40 0.997272 -90.40 0.073579 -23.14
9.00250000 0.073622 22.371 0.997271 -90.41 0.997271 -90.41 0.073596 -23.19
9.00260000 0.073640 22.412 0.997269 -90.41 0.997269 -90.41 0.073614 -23.24
9.00270000 0.073658 22.453 0.997268 -90.42 0.997268 -90.42 0.073632 -23.29
9.00280000 0.073676 22.494 0.997267 -90.42 0.997267 -90.42 0.073649 -23.34
9.00290000 0.073694 22.535 0.997265 -90.43 0.997265 -90.43 0.073667 -23.39
9.00300000 0.073712 22.576 0.997264 -90.43 0.997264 -90.43 0.073685 -23.44
9.00310000 0.073730 22.618 0.997262 -90.43 0.997262 -90.43 0.073704 -23.49
9.00320000 0.073748 22.659 0.997261 -90.44 0.997261 -90.44 0.073722 -23.54
9.00330000 0.073767 22.700 0.997260 -90.44 0.997260 -90.44 0.073740 -23.59
9.00340000 0.073785 22.742 0.997258 -90.45 0.997258 -90.45 0.073758 -23.64
9.00350000 0.073804 22.784 0.997257 -90.45 0.997257 -90.45 0.073777 -23.69
9.00360000 0.073822 22.826 0.997255 -90.46 0.997255 -90.46 0.073796 -23.74
9.00370000 0.073841 22.867 0.997254 -90.46 0.997254 -90.46 0.073814 -23.79
9.00380000 0.073860 22.909 0.997253 -90.47 0.997253 -90.47 0.073833 -23.85
9.00390000 0.073879 22.952 0.997251 -90.47 0.997251 -90.47 0.073852 -23.90
9.00400000 0.073898 22.994 0.997250 -90.48 0.997250 -90.48 0.073871 -23.95
9.00410000 0.073917 23.036 0.997248 -90.48 0.997248 -90.48 0.073890 -24.00
9.00420000 0.073936 23.079 0.997247 -90.49 0.997247 -90.49 0.073909 -24.05
9.00430000 0.073956 23.121 0.997245 -90.49 0.997245 -90.49 0.073929 -24.10
9.00440000 0.073975 23.164 0.997244 -90.49 0.997244 -90.49 0.073948 -24.16
9.00450000 0.073995 23.206 0.997242 -90.50 0.997242 -90.50 0.073967 -24.21
9.00460000 0.074015 23.249 0.997241 -90.50 0.997241 -90.50 0.073987 -24.26
9.00470000 0.074034 23.292 0.997239 -90.51 0.997239 -90.51 0.074007 -24.31
9.00480000 0.074054 23.335 0.997238 -90.51 0.997238 -90.51 0.074027 -24.37
9.00490000 0.074074 23.378 0.997236 -90.52 0.997236 -90.52 0.074047 -24.42
9.00500000 0.074094 23.422 0.997235 -90.52 0.997235 -90.52 0.074067 -24.47
9.00510000 0.074115 23.465 0.997233 -90.53 0.997233 -90.53 0.074087 -24.53
9.00520000 0.074135 23.509 0.997232 -90.53 0.997232 -90.53 0.074107 -24.58
9.00530000 0.074155 23.552 0.997230 -90.54 0.997230 -90.54 0.074127 -24.63
9.00540000 0.074176 23.596 0.997229 -90.54 0.997229 -90.54 0.074148 -24.69
9.00550000 0.074196 23.640 0.997227 -90.55 0.997227 -90.55 0.074168 -24.74
9.00560000 0.074217 23.684 0.997225 -90.55 0.997225 -90.55 0.074189 -24.79
9.00570000 0.074238 23.728 0.997224 -90.56 0.997224 -90.56 0.074210 -24.85
9.00580000 0.074259 23.772 0.997222 -90.56 0.997222 -90.56 0.074231 -24.90
9.00590000 0.074280 23.816 0.997221 -90.57 0.997221 -90.57 0.074252 -24.95
9.00600000 0.074301 23.861 0.997219 -90.57 0.997219 -90.57 0.074273 -25.01
9.00610000 0.074323 23.905 0.997217 -90.58 0.997217 -90.58 0.074294 -25.06
9.00620000 0.074344 23.950 0.997216 -90.58 0.997216 -90.58 0.074315 -25.12
9.00630000 0.074366 23.994 0.997214 -90.59 0.997214 -90.59 0.074337 -25.17
9.00640000 0.074387 24.039 0.997212 -90.59 0.997212 -90.59 0.074359 -25.23
9.00650000 0.074409 24.084 0.997211 -90.60 0.997211 -90.60 0.074380 -25.28
9.00660000 0.074431 24.129 0.997209 -90.60 0.997209 -90.60 0.074402 -25.34
9.00670000 0.074453 24.174 0.997207 -90.61 0.997207 -90.61 0.074424 -25.39
9.00680000 0.074475 24.220 0.997206 -90.61 0.997206 -90.61 0.074446 -25.45
9.00690000 0.074498 24.265 0.997204 -90.62 0.997204 -90.62 0.074468 -25.50
9.00700000 0.074520 24.311 0.997202 -90.62 0.997202 -90.62 0.074491 -25.56
9.00710000 0.074543 24.356 0.997201 -90.63 0.997201 -90.63 0.074513 -25.61
9.00720000 0.074565 24.402 0.997199 -90.63 0.997199 -90.63 0.074536 -25.67
9.00730000 0.074588 24.448 0.997197 -90.64 0.997197 -90.64 0.074558 -25.73
9.00740000 0.074611 24.494 0.997195 -90.64 0.997195 -90.64 0.074581 -25.78
9.00750000 0.074634 24.540 0.997194 -90.65 0.997194 -90.65 0.074604 -25.84
9.00760000 0.074657 24.586 0.997192 -90.65 0.997192 -90.65 0.074627 -25.90
9.00770000 0.074680 24.632 0.997190 -90.66 0.997190 -90.66 0.074650 -25.95
9.00780000 0.074704 24.679 0.997188 -90.66 0.997188 -90.66 0.074674 -26.01
9.00790000 0.074727 24.725 0.997186 -90.67 0.997186 -90.67 0.074697 -26.07
9.00800000 0.074751 24.772 0.997185 -90.67 0.997185 -90.67 0.074721 -26.12
9.00810000 0.074775 24.819 0.997183 -90.68 0.997183 -90.68 0.074744 -26.18
9.00820000 0.074798 24.866 0.997181 -90.68 0.997181 -90.68 0.074768 -26.24
9.00830000 0.074823 24.913 0.997179 -90.69 0.997179 -90.69 0.074792 -26.30
9.00840000 0.074847 24.960 0.997177 -90.69 0.997177 -90.69 0.074816 -26.35
9.00850000 0.074871 25.007 0.997175 -90.70 0.997175 -90.70 0.074840 -26.41
9.00860000 0.074895 25.055 0.997173 -90.70 0.997173 -90.70 0.074865 -26.47
9.00870000 0.074920 25.102 0.997172 -90.71 0.997172 -90.71 0.074889 -26.53
9.00880000 0.074945 25.150 0.997170 -90.72 0.997170 -90.72 0.074914 -26.58
9.00890000 0.074970 25.198 0.997168 -90.72 0.997168 -90.72 0.074939 -26.64
9.00900000 0.074995 25.246 0.997166 -90.73 0.997166 -90.73 0.074964 -26.70
9.00910000 0.075020 25.294 0.997164 -90.73 0.997164 -90.73 0.074989 -26.76
9.00920000 0.075045 25.342 0.997162 -90.74 0.997162 -90.74 0.075014 -26.82
9.00930000 0.075070 25.390 0.997160 -90.74 0.997160 -90.74 0.075039 -26.88
9.00940000 0.075096 25.438 0.997158 -90.75 0.997158 -90.75 0.075065 -26.94
9.00950000 0.075122 25.487 0.997156 -90.75 0.997156 -90.75 0.075090 -27.00
9.00960000 0.075148 25.536 0.997154 -90.76 0.997154 -90.76 0.075116 -27.06
9.00970000 0.075174 25.584 0.997152 -90.76 0.997152 -90.76 0.075142 -27.12
9.00980000 0.075200 25.633 0.997150 -90.77 0.997150 -90.77 0.075168 -27.18
9.00990000 0.075226 25.682 0.997148 -90.77 0.997148 -90.77 0.075194 -27.24
9.01000000 0.075252 25.731 0.997146 -90.78 0.997146 -90.78 0.075221 -27.30
9.01010000 0.075279 25.781 0.997144 -90.78 0.997144 -90.78 0.075247 -27.36
9.01020000 0.075306 25.830 0.997142 -90.79 0.997142 -90.79 0.075274 -27.42
9.01030000 0.075333 25.879 0.997140 -90.80 0.997140 -90.80 0.075300 -27.48
9.01040000 0.075360 25.929 0.997138 -90.80 0.997138 -90.80 0.075327 -27.54
9.01050000 0.075387 25.979 0.997136 -90.81 0.997136 -90.81 0.075354 -27.60
9.01060000 0.075414 26.029 0.997133 -90.81 0.997133 -90.81 0.075382 -27.66
9.01070000 0.075442 26.079 0.997131 -90.82 0.997131 -90.82 0.075409 -27.72
9.01080000 0.075469 26.129 0.997129 -90.82 0.997129 -90.82 0.075437 -27.78
9.01090000 0.075497 26.179 0.997127 -90.83 0.997127 -90.83 0.075464 -27.84
9.01100000 0.075525 26.230 0.997125 -90.83 0.997125 -90.83 0.075492 -27.90
9.01110000 0.075553 26.280 0.997123 -90.84 0.997123 -90.84 0.075520 -27.97
9.01120000 0.075581 26.331 0.997120 -90.85 0.997120 -90.85 0.075548 -28.03
9.01130000 0.075610 26.382 0.997118 -90.85 0.997118 -90.85 0.075577 -28.09
9.01140000 0.075639 26.432 0.997116 -90.86 0.997116 -90.86 0.075605 -28.15
9.01150000 0.075667 26.484 0.997114 -90.86 0.997114 -90.86 0.075634 -28.22
9.01160000 0.075696 26.535 0.997112 -90.87 0.997112 -90.87 0.075663 -28.28
9.01170000 0.075725 26.586 0.997109 -90.87 0.997109 -90.87 0.075692 -28.34
9.01180000 0.075755 26.637 0.997107 -90.88 0.997107 -90.88 0.075721 -28.40
9.01190000 0.075784 26.689 0.997105 -90.89 0.997105 -90.89 0.075750 -28.47
9.01200000 0.075814 26.741 0.997102 -90.89 0.997102 -90.89 0.075780 -28.53
9.01210000 0.075843 26.793 0.997100 -90.90 0.997100 -90.90 0.075809 -28.59
9.01220000 0.075873 26.845 0.997098 -90.90 0.997098 -90.90 0.075839 -28.66
9.01230000 0.075903 26.897 0.997095 -90.91 0.997095 -90.91 0.075869 -28.72
9.01240000 0.075934 26.949 0.997093 -90.91 0.997093 -90.91 0.075900 -28.78
9.01250000 0.075964 27.001 0.997091 -90.92 0.997091 -90.92 0.075930 -28.85
9.01260000 0.075995 27.054 0.997088 -90.93 0.997088 -90.93 0.075960 -28.91
9.01270000 0.076026 27.107 0.997086 -90.93 0.997086 -90.93 0.075991 -28.98
9.01280000 0.076057 27.159 0.997083 -90.94 0.997083 -90.94 0.076022 -29.04
9.01290000 0.076088 27.212 0.997081 -90.94 0.997081 -90.94 0.076053 -29.11
9.01300000 0.076119 27.265 0.997079 -90.95 0.997079 -90.95 0.076084 -29.17
9.01310000 0.076151 27.319 0.997076 -90.96 0.997076 -90.96 0.076116 -29.24
9.01320000 0.076182 27.372 0.997074 -90.96 0.997074 -90.96 0.076147 -29.30
9.01330000 0.076214 27.425 0.997071 -90.97 0.997071 -90.97 0.076179 -29.37
9.01340000 0.076246 27.479 0.997069 -90.97 0.997069 -90.97 0.076211 -29.43
9.01350000 0.076279 27.533 0.997066 -90.98 0.997066 -90.98 0.076243 -29.50
9.01360000 0.076311 27.587 0.997064 -90.99 0.997064 -90.99 0.076276 -29.56
9.01370000 0.076344 27.641 0.997061 -90.99 0.997061 -90.99 0.076308 -29.63
9.01380000 0.076377 27.695 0.997058 -91.00 0.997058 -91.00 0.076341 -29.70
9.01390000 0.076410 27.749 0.997056 -91.00 0.997056 -91.00 0.076374 -29.76
9.01400000 0.076443 27.804 0.997053 -91.01 0.997053 -91.01 0.076407 -29.83
9.01410000 0.076476 27.858 0.997051 -91.02 0.997051 -91.02 0.076440 -29.90
9.01420000 0.076510 27.913 0.997048 -91.02 0.997048 -91.02 0.076474 -29.96
9.01430000 0.076544 27.968 0.997045 -91.03 0.997045 -91.03 0.076508 -30.03
9.01440000 0.076578 28.023 0.997043 -91.03 0.997043 -91.03 0.076541 -30.10
9.01450000 0.076612 28.078 0.997040 -91.04 0.997040 -91.04 0.076576 -30.17
9.01460000 0.076646 28.134 0.997037 -91.05 0.997037 -91.05 0.076610 -30.23
9.01470000 0.076681 28.189 0.997035 -91.05 0.997035 -91.05 0.076644 -30.30
9.01480000 0.076716 28.245 0.997032 -91.06 0.997032 -91.06 0.076679 -30.37
9.01490000 0.076751 28.300 0.997029 -91.06 0.997029 -91.06 0.076714 -30.44
9.01500000 0.076786 28.356 0.997026 -91.07 0.997026 -91.07 0.076749 -30.51
9.01510000 0.076822 28.412 0.997023 -91.08 0.997023 -91.08 0.076785 -30.58
9.01520000 0.076857 28.469 0.997021 -91.08 0.997021 -91.08 0.076820 -30.64
9.01530000 0.076893 28.525 0.997018 -91.09 0.997018 -91.09 0.076856 -30.71
9.01540000 0.076929 28.581 0.997015 -91.10 0.997015 -91.10 0.076892 -30.78
9.01550000 0.076965 28.638 0.997012 -91.10 0.997012 -91.10 0.076928 -30.85
9.01560000 0.077002 28.695 0.997009 -91.11 0.997009 -91.11 0.076964 -30.92
9.01570000 0.077039 28.752 0.997006 -91.12 0.997006 -91.12 0.077001 -30.99
9.01580000 0.077076 28.809 0.997003 -91.12 0.997003 -91.12 0.077038 -31.06
9.01590000 0.077113 28.866 0.997000 -91.13 0.997000 -91.13 0.077075 -31.13
9.01600000 0.077150 28.923 0.996998 -91.13 0.996998 -91.13 0.077112 -31.20
9.01610000 0.077188 28.981 0.996995 -91.14 0.996995 -91.14 0.077150 -31.27
9.01620000 0.077226 29.039 0.996992 -91.15 0.996992 -91.15 0.077187 -31.34
9.01630000 0.077264 29.096 0.996989 -91.15 0.996989 -91.15 0.077225 -31.41
9.01640000 0.077302 29.154 0.996985 -91.16 0.996985 -91.16 0.077264 -31.48
9.01650000 0.077341 29.213 0.996982 -91.17 0.996982 -91.17 0.077302 -31.56
9.01660000 0.077379 29.271 0.996979 -91.17 0.996979 -91.17 0.077341 -31.63
9.01670000 0.077418 29.329 0.996976 -91.18 0.996976 -91.18 0.077379 -31.70
9.01680000 0.077458 29.388 0.996973 -91.19 0.996973 -91.19 0.077419 -31.77
9.01690000 0.077497 29.447 0.996970 -91.19 0.996970 -91.19 0.077458 -31.84
9.01700000 0.077537 29.505 0.996967 -91.20 0.996967 -91.20 0.077498 -31.91
9.01710000 0.077577 29.564 0.996964 -91.21 0.996964 -91.21 0.077537 -31.99
9.01720000 0.077617 29.624 0.996960 -91.21 0.996960 -91.21 0.077577 -32.06
9.01730000 0.077657 29.683 0.996957 -91.22 0.996957 -91.22 0.077618 -32.13
9.01740000 0.077698 29.743 0.996954 -91.23 0.996954 -91.23 0.077658 -32.21
9.01750000 0.077739 29.802 0.996951 -91.23 0.996951 -91.23 0.077699 -32.28
9.01760000 0.077780 29.862 0.996947 -91.24 0.996947 -91.24 0.077740 -32.35
9.01770000 0.077822 29.922 0.996944 -91.25 0.996944 -91.25 0.077781 -32.43
9.01780000 0.077863 29.982 0.996941 -91.25 0.996941 -91.25 0.077823 -32.50
9.01790000 0.077905 30.042 0.996938 -91.26 0.996938 -91.26 0.077865 -32.57
9.01800000 0.077947 30.103 0.996934 -91.27 0.996934 -91.27 0.077907 -32.65
9.01810000 0.077990 30.163 0.996931 -91.27 0.996931 -91.27 0.077949 -32.72
9.01820000 0.078033 30.224 0.996927 -91.28 0.996927 -91.28 0.077992 -32.80
9.01830000 0.078076 30.285 0.996924 -91.29 0.996924 -91.29 0.078035 -32.87
9.01840000 0.078119 30.346 0.996920 -91.29 0.996920 -91.29 0.078078 -32.95
9.01850000 0.078162 30.407 0.996917 -91.30 0.996917 -91.30 0.078121 -33.02
9.01860000 0.078206 30.469 0.996913 -91.31 0.996913 -91.31 0.078165 -33.10
9.01870000 0.078250 30.530 0.996910 -91.32 0.996910 -91.32 0.078209 -33.17
9.01880000 0.078294 30.592 0.996906 -91.32 0.996906 -91.32 0.078253 -33.25
9.01890000 0.078339 30.654 0.996903 -91.33 0.996903 -91.33 0.078297 -33.32
9.01900000 0.078384 30.716 0.996899 -91.34 0.996899 -91.34 0.078342 -33.40
9.01910000 0.078429 30.778 0.996896 -91.34 0.996896 -91.34 0.078387 -33.48
9.01920000 0.078474 30.841 0.996892 -91.35 0.996892 -91.35 0.078432 -33.55