! Sonnet Data File
! From: emgraph Version : 16.52
! From Project: Resonator2_extremeCap
! Data is De-embedded 
! Data File Written: 10/11/2017 17:55:29
!< HDATE 10/10/2017 20:37:37
!< MDATE 10/10/2017 20:37:37
!< PARAMS
!< Pwid1 = 2000.0
!< Pwid2 = 2000.0
!< Air_gap = 12.0
!< Width = 20.0
!< Gap = 60.0
!< END PARAMS
# GHZ S MA R 50.70000
8.95000000 0.121604 1.2473 0.992574 -87.82 0.992574 -87.82 0.121601 3.1066
!< P1 F=8.95 Eeff=(6.44622481 -2.9718e-5) Z0=(50.9069921 1.17455e-4) R=0.0 C=0.0 
!< P2 F=8.95 Eeff=(6.44622481 -2.9718e-5) Z0=(50.9069921 1.17455e-4) R=0.0 C=0.0 
8.95020000 0.121615 1.2504 0.992572 -87.83 0.992572 -87.83 0.121613 3.0976
8.95040000 0.121627 1.2536 0.992571 -87.83 0.992571 -87.83 0.121624 3.0886
8.95060000 0.121639 1.2568 0.992569 -87.83 0.992569 -87.83 0.121636 3.0796
8.95080000 0.121650 1.2600 0.992568 -87.84 0.992568 -87.84 0.121648 3.0706
8.95100000 0.121662 1.2632 0.992566 -87.84 0.992566 -87.84 0.121659 3.0615
8.95120000 0.121674 1.2664 0.992565 -87.84 0.992565 -87.84 0.121671 3.0524
8.95140000 0.121686 1.2696 0.992564 -87.84 0.992564 -87.84 0.121683 3.0433
8.95160000 0.121697 1.2729 0.992562 -87.85 0.992562 -87.85 0.121695 3.0342
8.95180000 0.121709 1.2762 0.992561 -87.85 0.992561 -87.85 0.121706 3.0251
8.95200000 0.121721 1.2794 0.992559 -87.85 0.992559 -87.85 0.121718 3.0159
8.95220000 0.121733 1.2827 0.992558 -87.86 0.992558 -87.86 0.121730 3.0067
8.95240000 0.121745 1.2861 0.992556 -87.86 0.992556 -87.86 0.121742 2.9975
8.95260000 0.121757 1.2894 0.992555 -87.86 0.992555 -87.86 0.121754 2.9883
8.95280000 0.121769 1.2927 0.992553 -87.86 0.992553 -87.86 0.121766 2.9790
8.95300000 0.121781 1.2961 0.992552 -87.87 0.992552 -87.87 0.121778 2.9698
8.95320000 0.121793 1.2995 0.992550 -87.87 0.992550 -87.87 0.121790 2.9605
8.95340000 0.121805 1.3029 0.992549 -87.87 0.992549 -87.87 0.121802 2.9511
8.95360000 0.121817 1.3063 0.992547 -87.88 0.992547 -87.88 0.121814 2.9418
8.95380000 0.121829 1.3097 0.992546 -87.88 0.992546 -87.88 0.121826 2.9324
8.95400000 0.121841 1.3132 0.992544 -87.88 0.992544 -87.88 0.121838 2.9231
8.95420000 0.121853 1.3166 0.992543 -87.89 0.992543 -87.89 0.121850 2.9136
8.95440000 0.121865 1.3201 0.992541 -87.89 0.992541 -87.89 0.121862 2.9042
8.95460000 0.121877 1.3236 0.992540 -87.89 0.992540 -87.89 0.121874 2.8948
8.95480000 0.121889 1.3271 0.992538 -87.89 0.992538 -87.89 0.121887 2.8853
8.95500000 0.121902 1.3307 0.992537 -87.90 0.992537 -87.90 0.121899 2.8758
8.95520000 0.121914 1.3342 0.992535 -87.90 0.992535 -87.90 0.121911 2.8662
8.95540000 0.121926 1.3378 0.992534 -87.90 0.992534 -87.90 0.121923 2.8567
8.95560000 0.121939 1.3414 0.992532 -87.91 0.992532 -87.91 0.121936 2.8471
8.95580000 0.121951 1.3450 0.992531 -87.91 0.992531 -87.91 0.121948 2.8375
8.95600000 0.121963 1.3486 0.992529 -87.91 0.992529 -87.91 0.121961 2.8279
8.95620000 0.121976 1.3522 0.992528 -87.92 0.992528 -87.92 0.121973 2.8183
8.95640000 0.121988 1.3559 0.992526 -87.92 0.992526 -87.92 0.121985 2.8086
8.95660000 0.122001 1.3596 0.992525 -87.92 0.992525 -87.92 0.121998 2.7989
8.95680000 0.122013 1.3632 0.992523 -87.92 0.992523 -87.92 0.122010 2.7892
8.95700000 0.122026 1.3670 0.992522 -87.93 0.992522 -87.93 0.122023 2.7795
8.95720000 0.122038 1.3707 0.992520 -87.93 0.992520 -87.93 0.122035 2.7697
8.95740000 0.122051 1.3744 0.992519 -87.93 0.992519 -87.93 0.122048 2.7599
8.95760000 0.122064 1.3782 0.992517 -87.94 0.992517 -87.94 0.122061 2.7501
8.95780000 0.122076 1.3820 0.992515 -87.94 0.992515 -87.94 0.122073 2.7402
8.95800000 0.122089 1.3858 0.992514 -87.94 0.992514 -87.94 0.122086 2.7304
8.95820000 0.122102 1.3896 0.992512 -87.95 0.992512 -87.95 0.122099 2.7205
8.95840000 0.122114 1.3934 0.992511 -87.95 0.992511 -87.95 0.122111 2.7106
8.95860000 0.122127 1.3973 0.992509 -87.95 0.992509 -87.95 0.122124 2.7006
8.95880000 0.122140 1.4011 0.992508 -87.95 0.992508 -87.95 0.122137 2.6907
8.95900000 0.122153 1.4050 0.992506 -87.96 0.992506 -87.96 0.122150 2.6807
8.95920000 0.122166 1.4089 0.992504 -87.96 0.992504 -87.96 0.122163 2.6707
8.95940000 0.122179 1.4129 0.992503 -87.96 0.992503 -87.96 0.122176 2.6606
8.95960000 0.122192 1.4168 0.992501 -87.97 0.992501 -87.97 0.122189 2.6506
8.95980000 0.122205 1.4208 0.992500 -87.97 0.992500 -87.97 0.122202 2.6405
8.96000000 0.122218 1.4248 0.992498 -87.97 0.992498 -87.97 0.122215 2.6304
8.96020000 0.122231 1.4288 0.992496 -87.98 0.992496 -87.98 0.122228 2.6202
8.96040000 0.122244 1.4328 0.992495 -87.98 0.992495 -87.98 0.122241 2.6100
8.96060000 0.122257 1.4368 0.992493 -87.98 0.992493 -87.98 0.122254 2.5998
8.96080000 0.122270 1.4409 0.992492 -87.99 0.992492 -87.99 0.122267 2.5896
8.96100000 0.122283 1.4450 0.992490 -87.99 0.992490 -87.99 0.122280 2.5794
8.96120000 0.122296 1.4491 0.992488 -87.99 0.992488 -87.99 0.122293 2.5691
8.96140000 0.122310 1.4532 0.992487 -87.99 0.992487 -87.99 0.122306 2.5588
8.96160000 0.122323 1.4574 0.992485 -88.00 0.992485 -88.00 0.122320 2.5485
8.96180000 0.122336 1.4615 0.992483 -88.00 0.992483 -88.00 0.122333 2.5381
8.96200000 0.122349 1.4657 0.992482 -88.00 0.992482 -88.00 0.122346 2.5277
8.96220000 0.122363 1.4699 0.992480 -88.01 0.992480 -88.01 0.122360 2.5173
8.96240000 0.122376 1.4741 0.992478 -88.01 0.992478 -88.01 0.122373 2.5069
8.96260000 0.122390 1.4784 0.992477 -88.01 0.992477 -88.01 0.122387 2.4964
8.96280000 0.122403 1.4826 0.992475 -88.02 0.992475 -88.02 0.122400 2.4859
8.96300000 0.122417 1.4869 0.992473 -88.02 0.992473 -88.02 0.122413 2.4754
8.96320000 0.122430 1.4912 0.992472 -88.02 0.992472 -88.02 0.122427 2.4648
8.96340000 0.122444 1.4956 0.992470 -88.03 0.992470 -88.03 0.122441 2.4542
8.96360000 0.122457 1.4999 0.992468 -88.03 0.992468 -88.03 0.122454 2.4436
8.96380000 0.122471 1.5043 0.992467 -88.03 0.992467 -88.03 0.122468 2.4330
8.96400000 0.122485 1.5087 0.992465 -88.03 0.992465 -88.03 0.122482 2.4223
8.96420000 0.122499 1.5131 0.992463 -88.04 0.992463 -88.04 0.122495 2.4116
8.96440000 0.122512 1.5175 0.992462 -88.04 0.992462 -88.04 0.122509 2.4009
8.96460000 0.122526 1.5220 0.992460 -88.04 0.992460 -88.04 0.122523 2.3901
8.96480000 0.122540 1.5264 0.992458 -88.05 0.992458 -88.05 0.122537 2.3794
8.96500000 0.122554 1.5309 0.992456 -88.05 0.992456 -88.05 0.122550 2.3685
8.96520000 0.122568 1.5354 0.992455 -88.05 0.992455 -88.05 0.122564 2.3577
8.96540000 0.122582 1.5400 0.992453 -88.06 0.992453 -88.06 0.122578 2.3468
8.96560000 0.122596 1.5445 0.992451 -88.06 0.992451 -88.06 0.122592 2.3359
8.96580000 0.122610 1.5491 0.992449 -88.06 0.992449 -88.06 0.122606 2.3250
8.96600000 0.122624 1.5537 0.992448 -88.07 0.992448 -88.07 0.122620 2.3140
8.96620000 0.122638 1.5584 0.992446 -88.07 0.992446 -88.07 0.122634 2.3030
8.96640000 0.122652 1.5630 0.992444 -88.07 0.992444 -88.07 0.122649 2.2920
8.96660000 0.122666 1.5677 0.992442 -88.08 0.992442 -88.08 0.122663 2.2810
8.96680000 0.122680 1.5724 0.992441 -88.08 0.992441 -88.08 0.122677 2.2699
8.96700000 0.122695 1.5771 0.992439 -88.08 0.992439 -88.08 0.122691 2.2588
8.96720000 0.122709 1.5818 0.992437 -88.09 0.992437 -88.09 0.122705 2.2476
8.96740000 0.122723 1.5866 0.992435 -88.09 0.992435 -88.09 0.122720 2.2364
8.96760000 0.122738 1.5914 0.992434 -88.09 0.992434 -88.09 0.122734 2.2252
8.96780000 0.122752 1.5962 0.992432 -88.10 0.992432 -88.10 0.122749 2.2140
8.96800000 0.122767 1.6010 0.992430 -88.10 0.992430 -88.10 0.122763 2.2027
8.96820000 0.122781 1.6059 0.992428 -88.10 0.992428 -88.10 0.122777 2.1914
8.96840000 0.122796 1.6108 0.992426 -88.10 0.992426 -88.10 0.122792 2.1801
8.96860000 0.122810 1.6157 0.992425 -88.11 0.992425 -88.11 0.122807 2.1687
8.96880000 0.122825 1.6206 0.992423 -88.11 0.992423 -88.11 0.122821 2.1573
8.96900000 0.122839 1.6256 0.992421 -88.11 0.992421 -88.11 0.122836 2.1459
8.96920000 0.122854 1.6305 0.992419 -88.12 0.992419 -88.12 0.122850 2.1344
8.96940000 0.122869 1.6355 0.992417 -88.12 0.992417 -88.12 0.122865 2.1229
8.96960000 0.122884 1.6406 0.992415 -88.12 0.992415 -88.12 0.122880 2.1114
8.96980000 0.122898 1.6456 0.992414 -88.13 0.992414 -88.13 0.122895 2.0998
8.97000000 0.122913 1.6507 0.992412 -88.13 0.992412 -88.13 0.122910 2.0882
8.97020000 0.122928 1.6558 0.992410 -88.13 0.992410 -88.13 0.122925 2.0766
8.97040000 0.122943 1.6609 0.992408 -88.14 0.992408 -88.14 0.122939 2.0649
8.97060000 0.122958 1.6660 0.992406 -88.14 0.992406 -88.14 0.122954 2.0532
8.97080000 0.122973 1.6712 0.992404 -88.14 0.992404 -88.14 0.122969 2.0415
8.97100000 0.122988 1.6764 0.992402 -88.15 0.992402 -88.15 0.122985 2.0297
8.97120000 0.123003 1.6816 0.992401 -88.15 0.992401 -88.15 0.123000 2.0179
8.97140000 0.123019 1.6869 0.992399 -88.15 0.992399 -88.15 0.123015 2.0061
8.97160000 0.123034 1.6922 0.992397 -88.16 0.992397 -88.16 0.123030 1.9942
8.97180000 0.123049 1.6975 0.992395 -88.16 0.992395 -88.16 0.123045 1.9823
8.97200000 0.123064 1.7028 0.992393 -88.16 0.992393 -88.16 0.123061 1.9703
8.97220000 0.123080 1.7081 0.992391 -88.17 0.992391 -88.17 0.123076 1.9584
8.97240000 0.123095 1.7135 0.992389 -88.17 0.992389 -88.17 0.123091 1.9463
8.97260000 0.123111 1.7189 0.992387 -88.17 0.992387 -88.17 0.123107 1.9343
8.97280000 0.123126 1.7243 0.992385 -88.18 0.992385 -88.18 0.123122 1.9222
8.97300000 0.123142 1.7298 0.992383 -88.18 0.992383 -88.18 0.123138 1.9101
8.97320000 0.123157 1.7353 0.992381 -88.18 0.992381 -88.18 0.123153 1.8979
8.97340000 0.123173 1.7408 0.992379 -88.19 0.992379 -88.19 0.123169 1.8857
8.97360000 0.123189 1.7463 0.992377 -88.19 0.992377 -88.19 0.123185 1.8735
8.97380000 0.123204 1.7519 0.992376 -88.19 0.992376 -88.19 0.123200 1.8612
8.97400000 0.123220 1.7575 0.992374 -88.20 0.992374 -88.20 0.123216 1.8489
8.97420000 0.123236 1.7631 0.992372 -88.20 0.992372 -88.20 0.123232 1.8366
8.97440000 0.123252 1.7687 0.992370 -88.20 0.992370 -88.20 0.123248 1.8242
8.97460000 0.123268 1.7744 0.992368 -88.21 0.992368 -88.21 0.123264 1.8118
8.97480000 0.123284 1.7801 0.992366 -88.21 0.992366 -88.21 0.123280 1.7993
8.97500000 0.123300 1.7858 0.992364 -88.21 0.992364 -88.21 0.123296 1.7868
8.97520000 0.123316 1.7916 0.992362 -88.22 0.992362 -88.22 0.123312 1.7743
8.97540000 0.123332 1.7974 0.992360 -88.22 0.992360 -88.22 0.123328 1.7617
8.97560000 0.123348 1.8032 0.992358 -88.22 0.992358 -88.22 0.123344 1.7491
8.97580000 0.123364 1.8090 0.992356 -88.23 0.992356 -88.23 0.123360 1.7365
8.97600000 0.123380 1.8149 0.992354 -88.23 0.992354 -88.23 0.123376 1.7238
8.97620000 0.123397 1.8208 0.992351 -88.23 0.992351 -88.23 0.123393 1.7111
8.97640000 0.123413 1.8267 0.992349 -88.24 0.992349 -88.24 0.123409 1.6983
8.97660000 0.123430 1.8327 0.992347 -88.24 0.992347 -88.24 0.123425 1.6855
8.97680000 0.123446 1.8386 0.992345 -88.24 0.992345 -88.24 0.123442 1.6727
8.97700000 0.123463 1.8447 0.992343 -88.25 0.992343 -88.25 0.123458 1.6598
8.97720000 0.123479 1.8507 0.992341 -88.25 0.992341 -88.25 0.123475 1.6468
8.97740000 0.123496 1.8568 0.992339 -88.25 0.992339 -88.25 0.123491 1.6339
8.97760000 0.123512 1.8629 0.992337 -88.26 0.992337 -88.26 0.123508 1.6209
8.97780000 0.123529 1.8690 0.992335 -88.26 0.992335 -88.26 0.123525 1.6078
8.97800000 0.123546 1.8752 0.992333 -88.27 0.992333 -88.27 0.123542 1.5947
8.97820000 0.123563 1.8814 0.992331 -88.27 0.992331 -88.27 0.123558 1.5816
8.97840000 0.123580 1.8876 0.992329 -88.27 0.992329 -88.27 0.123575 1.5684
8.97860000 0.123597 1.8938 0.992326 -88.28 0.992326 -88.28 0.123592 1.5552
8.97880000 0.123614 1.9001 0.992324 -88.28 0.992324 -88.28 0.123609 1.5419
8.97900000 0.123631 1.9064 0.992322 -88.28 0.992322 -88.28 0.123626 1.5286
8.97920000 0.123648 1.9128 0.992320 -88.29 0.992320 -88.29 0.123643 1.5153
8.97940000 0.123665 1.9192 0.992318 -88.29 0.992318 -88.29 0.123661 1.5019
8.97960000 0.123682 1.9256 0.992316 -88.29 0.992316 -88.29 0.123678 1.4885
8.97980000 0.123700 1.9320 0.992314 -88.30 0.992314 -88.30 0.123695 1.4750
!< P1 F=8.9798 Eeff=(6.44620999 -2.9717e-5) Z0=(50.9069034 1.17455e-4) R=0.0 C=0.0 
!< P2 F=8.9798 Eeff=(6.44620999 -2.9717e-5) Z0=(50.9069034 1.17455e-4) R=0.0 C=0.0 
8.98000000 0.123717 1.9385 0.992311 -88.30 0.992311 -88.30 0.123712 1.4615
8.98020000 0.123734 1.9450 0.992309 -88.30 0.992309 -88.30 0.123730 1.4479
8.98040000 0.123752 1.9515 0.992307 -88.31 0.992307 -88.31 0.123747 1.4343
8.98060000 0.123769 1.9581 0.992305 -88.31 0.992305 -88.31 0.123765 1.4207
8.98080000 0.123787 1.9647 0.992303 -88.31 0.992303 -88.31 0.123782 1.4070
8.98100000 0.123805 1.9714 0.992300 -88.32 0.992300 -88.32 0.123800 1.3932
8.98120000 0.123822 1.9780 0.992298 -88.32 0.992298 -88.32 0.123818 1.3795
8.98140000 0.123840 1.9847 0.992296 -88.33 0.992296 -88.33 0.123835 1.3656
8.98160000 0.123858 1.9915 0.992294 -88.33 0.992294 -88.33 0.123853 1.3518
8.98180000 0.123876 1.9982 0.992292 -88.33 0.992292 -88.33 0.123871 1.3378
8.98200000 0.123894 2.0050 0.992289 -88.34 0.992289 -88.34 0.123889 1.3239
8.98220000 0.123912 2.0119 0.992287 -88.34 0.992287 -88.34 0.123907 1.3098
8.98240000 0.123930 2.0187 0.992285 -88.34 0.992285 -88.34 0.123925 1.2958
8.98260000 0.123948 2.0256 0.992282 -88.35 0.992282 -88.35 0.123943 1.2817
8.98280000 0.123966 2.0326 0.992280 -88.35 0.992280 -88.35 0.123961 1.2675
8.98300000 0.123984 2.0396 0.992278 -88.35 0.992278 -88.35 0.123979 1.2533
8.98320000 0.124003 2.0466 0.992276 -88.36 0.992276 -88.36 0.123998 1.2391
8.98340000 0.124021 2.0536 0.992273 -88.36 0.992273 -88.36 0.124016 1.2248
8.98360000 0.124039 2.0607 0.992271 -88.36 0.992271 -88.36 0.124035 1.2104
8.98380000 0.124058 2.0678 0.992269 -88.37 0.992269 -88.37 0.124053 1.1960
8.98400000 0.124076 2.0750 0.992266 -88.37 0.992266 -88.37 0.124072 1.1816
8.98420000 0.124095 2.0821 0.992264 -88.38 0.992264 -88.38 0.124090 1.1671
8.98440000 0.124114 2.0894 0.992262 -88.38 0.992262 -88.38 0.124109 1.1525
8.98460000 0.124133 2.0966 0.992259 -88.38 0.992259 -88.38 0.124128 1.1379
8.98480000 0.124151 2.1039 0.992257 -88.39 0.992257 -88.39 0.124146 1.1233
8.98500000 0.124170 2.1113 0.992255 -88.39 0.992255 -88.39 0.124165 1.1086
8.98520000 0.124189 2.1186 0.992252 -88.39 0.992252 -88.39 0.124184 1.0938
8.98540000 0.124208 2.1260 0.992250 -88.40 0.992250 -88.40 0.124203 1.0790
8.98560000 0.124228 2.1335 0.992247 -88.40 0.992247 -88.40 0.124222 1.0642
8.98580000 0.124247 2.1410 0.992245 -88.41 0.992245 -88.41 0.124242 1.0493
8.98600000 0.124266 2.1485 0.992242 -88.41 0.992242 -88.41 0.124261 1.0343
8.98620000 0.124285 2.1560 0.992240 -88.41 0.992240 -88.41 0.124280 1.0193
8.98640000 0.124305 2.1636 0.992238 -88.42 0.992238 -88.42 0.124300 1.0043
8.98660000 0.124324 2.1713 0.992235 -88.42 0.992235 -88.42 0.124319 0.9892
8.98680000 0.124344 2.1789 0.992233 -88.42 0.992233 -88.42 0.124338 0.9740
8.98700000 0.124363 2.1867 0.992230 -88.43 0.992230 -88.43 0.124358 0.9588
8.98720000 0.124383 2.1944 0.992228 -88.43 0.992228 -88.43 0.124378 0.9435
8.98740000 0.124403 2.2022 0.992225 -88.43 0.992225 -88.43 0.124397 0.9282
8.98760000 0.124423 2.2100 0.992223 -88.44 0.992223 -88.44 0.124417 0.9128
8.98780000 0.124442 2.2179 0.992220 -88.44 0.992220 -88.44 0.124437 0.8974
8.98800000 0.124462 2.2258 0.992218 -88.45 0.992218 -88.45 0.124457 0.8819
8.98820000 0.124482 2.2338 0.992215 -88.45 0.992215 -88.45 0.124477 0.8663
8.98840000 0.124503 2.2417 0.992213 -88.45 0.992213 -88.45 0.124497 0.8507
8.98860000 0.124523 2.2498 0.992210 -88.46 0.992210 -88.46 0.124517 0.8351
8.98880000 0.124543 2.2579 0.992208 -88.46 0.992208 -88.46 0.124538 0.8193
8.98900000 0.124563 2.2660 0.992205 -88.47 0.992205 -88.47 0.124558 0.8036
8.98920000 0.124584 2.2741 0.992202 -88.47 0.992202 -88.47 0.124578 0.7877
8.98940000 0.124604 2.2823 0.992200 -88.47 0.992200 -88.47 0.124599 0.7719
8.98960000 0.124625 2.2906 0.992197 -88.48 0.992197 -88.48 0.124619 0.7559
8.98980000 0.124646 2.2988 0.992195 -88.48 0.992195 -88.48 0.124640 0.7399
8.99000000 0.124666 2.3072 0.992192 -88.48 0.992192 -88.48 0.124661 0.7238
8.99020000 0.124687 2.3155 0.992189 -88.49 0.992189 -88.49 0.124682 0.7077
8.99040000 0.124708 2.3239 0.992187 -88.49 0.992187 -88.49 0.124703 0.6915
8.99060000 0.124729 2.3324 0.992184 -88.50 0.992184 -88.50 0.124723 0.6753
8.99080000 0.124750 2.3409 0.992181 -88.50 0.992181 -88.50 0.124745 0.6590
8.99100000 0.124771 2.3494 0.992179 -88.50 0.992179 -88.50 0.124766 0.6426
8.99120000 0.124793 2.3580 0.992176 -88.51 0.992176 -88.51 0.124787 0.6262
8.99140000 0.124814 2.3667 0.992173 -88.51 0.992173 -88.51 0.124808 0.6097
8.99160000 0.124835 2.3753 0.992171 -88.52 0.992171 -88.52 0.124830 0.5932
8.99180000 0.124857 2.3841 0.992168 -88.52 0.992168 -88.52 0.124851 0.5766
8.99200000 0.124878 2.3928 0.992165 -88.52 0.992165 -88.52 0.124873 0.5599
8.99220000 0.124900 2.4016 0.992162 -88.53 0.992162 -88.53 0.124894 0.5431
8.99240000 0.124922 2.4105 0.992160 -88.53 0.992160 -88.53 0.124916 0.5263
8.99260000 0.124944 2.4194 0.992157 -88.54 0.992157 -88.54 0.124938 0.5095
8.99280000 0.124966 2.4284 0.992154 -88.54 0.992154 -88.54 0.124960 0.4926
8.99300000 0.124988 2.4373 0.992151 -88.54 0.992151 -88.54 0.124982 0.4756
8.99320000 0.125010 2.4464 0.992149 -88.55 0.992149 -88.55 0.125004 0.4585
8.99340000 0.125032 2.4555 0.992146 -88.55 0.992146 -88.55 0.125026 0.4414
8.99360000 0.125054 2.4646 0.992143 -88.56 0.992143 -88.56 0.125048 0.4242
8.99380000 0.125077 2.4738 0.992140 -88.56 0.992140 -88.56 0.125071 0.4069
8.99400000 0.125099 2.4830 0.992137 -88.56 0.992137 -88.56 0.125093 0.3896
8.99420000 0.125122 2.4923 0.992134 -88.57 0.992134 -88.57 0.125116 0.3722
8.99440000 0.125144 2.5017 0.992132 -88.57 0.992132 -88.57 0.125138 0.3548
8.99460000 0.125167 2.5110 0.992129 -88.58 0.992129 -88.58 0.125161 0.3372
8.99480000 0.125190 2.5205 0.992126 -88.58 0.992126 -88.58 0.125184 0.3196
8.99500000 0.125213 2.5300 0.992123 -88.58 0.992123 -88.58 0.125207 0.3020
8.99520000 0.125236 2.5395 0.992120 -88.59 0.992120 -88.59 0.125230 0.2843
8.99540000 0.125259 2.5491 0.992117 -88.59 0.992117 -88.59 0.125253 0.2665
8.99560000 0.125282 2.5587 0.992114 -88.60 0.992114 -88.60 0.125276 0.2486
8.99580000 0.125306 2.5684 0.992111 -88.60 0.992111 -88.60 0.125299 0.2306
8.99600000 0.125329 2.5781 0.992108 -88.60 0.992108 -88.60 0.125323 0.2126
8.99620000 0.125353 2.5879 0.992105 -88.61 0.992105 -88.61 0.125346 0.1945
8.99640000 0.125376 2.5978 0.992102 -88.61 0.992102 -88.61 0.125370 0.1764
8.99660000 0.125400 2.6076 0.992099 -88.62 0.992099 -88.62 0.125394 0.1581
8.99680000 0.125424 2.6176 0.992096 -88.62 0.992096 -88.62 0.125417 0.1398
8.99700000 0.125448 2.6276 0.992093 -88.63 0.992093 -88.63 0.125441 0.1215
8.99720000 0.125472 2.6376 0.992090 -88.63 0.992090 -88.63 0.125465 0.1030
8.99740000 0.125496 2.6477 0.992087 -88.63 0.992087 -88.63 0.125489 0.0845
8.99760000 0.125520 2.6579 0.992084 -88.64 0.992084 -88.64 0.125514 0.0659
8.99780000 0.125545 2.6681 0.992081 -88.64 0.992081 -88.64 0.125538 0.0472
8.99800000 0.125569 2.6784 0.992078 -88.65 0.992078 -88.65 0.125562 0.0284
8.99820000 0.125594 2.6887 0.992074 -88.65 0.992074 -88.65 0.125587 0.0096
8.99840000 0.125618 2.6991 0.992071 -88.65 0.992071 -88.65 0.125612 0.0000
8.99860000 0.125643 2.7095 0.992068 -88.66 0.992068 -88.66 0.125636 -0.028
8.99880000 0.125668 2.7200 0.992065 -88.66 0.992065 -88.66 0.125661 -0.047
8.99900000 0.125693 2.7306 0.992062 -88.67 0.992062 -88.67 0.125686 -0.066
8.99920000 0.125718 2.7412 0.992059 -88.67 0.992059 -88.67 0.125711 -0.086
8.99940000 0.125744 2.7518 0.992055 -88.68 0.992055 -88.68 0.125737 -0.105
8.99960000 0.125769 2.7626 0.992052 -88.68 0.992052 -88.68 0.125762 -0.124
8.99980000 0.125794 2.7733 0.992049 -88.69 0.992049 -88.69 0.125787 -0.144
9.00000000 0.125820 2.7842 0.992046 -88.69 0.992046 -88.69 0.125813 -0.163
9.00020000 0.125846 2.7951 0.992042 -88.69 0.992042 -88.69 0.125839 -0.183
9.00040000 0.125872 2.8060 0.992039 -88.70 0.992039 -88.70 0.125864 -0.203
9.00060000 0.125898 2.8171 0.992036 -88.70 0.992036 -88.70 0.125890 -0.223
9.00080000 0.125924 2.8281 0.992032 -88.71 0.992032 -88.71 0.125916 -0.242
9.00100000 0.125950 2.8393 0.992029 -88.71 0.992029 -88.71 0.125943 -0.262
9.00120000 0.125976 2.8505 0.992026 -88.72 0.992026 -88.72 0.125969 -0.282
9.00140000 0.126003 2.8617 0.992022 -88.72 0.992022 -88.72 0.125995 -0.303
9.00160000 0.126029 2.8731 0.992019 -88.72 0.992019 -88.72 0.126022 -0.323
9.00180000 0.126056 2.8845 0.992015 -88.73 0.992015 -88.73 0.126048 -0.343
9.00200000 0.126083 2.8959 0.992012 -88.73 0.992012 -88.73 0.126075 -0.364
9.00220000 0.126110 2.9074 0.992009 -88.74 0.992009 -88.74 0.126102 -0.384
9.00240000 0.126137 2.9190 0.992005 -88.74 0.992005 -88.74 0.126129 -0.405
9.00260000 0.126164 2.9306 0.992002 -88.75 0.992002 -88.75 0.126156 -0.425
9.00280000 0.126191 2.9423 0.991998 -88.75 0.991998 -88.75 0.126184 -0.446
9.00300000 0.126219 2.9541 0.991995 -88.76 0.991995 -88.76 0.126211 -0.467
9.00320000 0.126246 2.9659 0.991991 -88.76 0.991991 -88.76 0.126239 -0.488
9.00340000 0.126274 2.9778 0.991988 -88.77 0.991988 -88.77 0.126266 -0.509
9.00360000 0.126302 2.9898 0.991984 -88.77 0.991984 -88.77 0.126294 -0.530
9.00380000 0.126330 3.0018 0.991980 -88.77 0.991980 -88.77 0.126322 -0.551
9.00400000 0.126358 3.0140 0.991977 -88.78 0.991977 -88.78 0.126350 -0.572
9.00420000 0.126386 3.0261 0.991973 -88.78 0.991973 -88.78 0.126378 -0.594
9.00440000 0.126415 3.0384 0.991970 -88.79 0.991970 -88.79 0.126407 -0.615
9.00460000 0.126443 3.0507 0.991966 -88.79 0.991966 -88.79 0.126435 -0.637
9.00480000 0.126472 3.0630 0.991962 -88.80 0.991962 -88.80 0.126464 -0.659
9.00500000 0.126501 3.0755 0.991958 -88.80 0.991958 -88.80 0.126493 -0.680
9.00520000 0.126530 3.0880 0.991955 -88.81 0.991955 -88.81 0.126522 -0.702
9.00540000 0.126559 3.1006 0.991951 -88.81 0.991951 -88.81 0.126551 -0.724
9.00560000 0.126588 3.1133 0.991947 -88.82 0.991947 -88.82 0.126580 -0.746
9.00580000 0.126617 3.1260 0.991943 -88.82 0.991943 -88.82 0.126609 -0.769
9.00600000 0.126647 3.1388 0.991940 -88.83 0.991940 -88.83 0.126639 -0.791
9.00620000 0.126677 3.1517 0.991936 -88.83 0.991936 -88.83 0.126668 -0.813
9.00640000 0.126707 3.1646 0.991932 -88.84 0.991932 -88.84 0.126698 -0.836
9.00660000 0.126737 3.1777 0.991928 -88.84 0.991928 -88.84 0.126728 -0.858
9.00680000 0.126767 3.1907 0.991924 -88.84 0.991924 -88.84 0.126758 -0.881
9.00700000 0.126797 3.2039 0.991920 -88.85 0.991920 -88.85 0.126789 -0.904
9.00720000 0.126828 3.2172 0.991916 -88.85 0.991916 -88.85 0.126819 -0.927
9.00740000 0.126858 3.2305 0.991913 -88.86 0.991913 -88.86 0.126850 -0.950
9.00760000 0.126889 3.2439 0.991909 -88.86 0.991909 -88.86 0.126880 -0.973
9.00780000 0.126920 3.2574 0.991905 -88.87 0.991905 -88.87 0.126911 -0.996
9.00800000 0.126951 3.2709 0.991901 -88.87 0.991901 -88.87 0.126942 -1.019
9.00820000 0.126982 3.2846 0.991897 -88.88 0.991897 -88.88 0.126974 -1.043
9.00840000 0.127014 3.2983 0.991892 -88.88 0.991892 -88.88 0.127005 -1.067
9.00860000 0.127045 3.3121 0.991888 -88.89 0.991888 -88.89 0.127037 -1.090
9.00880000 0.127077 3.3260 0.991884 -88.89 0.991884 -88.89 0.127068 -1.114
9.00900000 0.127109 3.3399 0.991880 -88.90 0.991880 -88.90 0.127100 -1.138
9.00920000 0.127141 3.3540 0.991876 -88.90 0.991876 -88.90 0.127132 -1.162
9.00940000 0.127174 3.3681 0.991872 -88.91 0.991872 -88.91 0.127165 -1.186
9.00960000 0.127206 3.3823 0.991868 -88.91 0.991868 -88.91 0.127197 -1.210
9.00980000 0.127239 3.3966 0.991863 -88.92 0.991863 -88.92 0.127230 -1.235
9.01000000 0.127271 3.4109 0.991859 -88.92 0.991859 -88.92 0.127262 -1.259
9.01020000 0.127305 3.4254 0.991855 -88.93 0.991855 -88.93 0.127295 -1.284
9.01040000 0.127338 3.4399 0.991851 -88.93 0.991851 -88.93 0.127328 -1.308
9.01060000 0.127371 3.4546 0.991846 -88.94 0.991846 -88.94 0.127362 -1.333
9.01080000 0.127405 3.4693 0.991842 -88.94 0.991842 -88.94 0.127395 -1.358
9.01100000 0.127438 3.4841 0.991838 -88.95 0.991838 -88.95 0.127429 -1.383
9.01120000 0.127472 3.4990 0.991833 -88.95 0.991833 -88.95 0.127463 -1.409
9.01140000 0.127506 3.5140 0.991829 -88.96 0.991829 -88.96 0.127497 -1.434
9.01160000 0.127541 3.5290 0.991824 -88.96 0.991824 -88.96 0.127531 -1.459
9.01180000 0.127575 3.5442 0.991820 -88.97 0.991820 -88.97 0.127566 -1.485
9.01200000 0.127610 3.5594 0.991815 -88.98 0.991815 -88.98 0.127600 -1.511
9.01220000 0.127645 3.5748 0.991811 -88.98 0.991811 -88.98 0.127635 -1.537
9.01240000 0.127680 3.5902 0.991806 -88.99 0.991806 -88.99 0.127670 -1.563
9.01260000 0.127715 3.6057 0.991802 -88.99 0.991802 -88.99 0.127705 -1.589
9.01280000 0.127751 3.6213 0.991797 -89.00 0.991797 -89.00 0.127741 -1.615
9.01300000 0.127786 3.6370 0.991793 -89.00 0.991793 -89.00 0.127776 -1.641
9.01320000 0.127822 3.6529 0.991788 -89.01 0.991788 -89.01 0.127812 -1.668
9.01340000 0.127858 3.6688 0.991783 -89.01 0.991783 -89.01 0.127848 -1.694
9.01360000 0.127895 3.6848 0.991779 -89.02 0.991779 -89.02 0.127884 -1.721
9.01380000 0.127931 3.7008 0.991774 -89.02 0.991774 -89.02 0.127921 -1.748
9.01400000 0.127968 3.7170 0.991769 -89.03 0.991769 -89.03 0.127958 -1.775
9.01420000 0.128005 3.7333 0.991764 -89.03 0.991764 -89.03 0.127995 -1.802
9.01440000 0.128042 3.7497 0.991759 -89.04 0.991759 -89.04 0.128032 -1.830
9.01460000 0.128079 3.7662 0.991755 -89.04 0.991755 -89.04 0.128069 -1.857
9.01480000 0.128117 3.7828 0.991750 -89.05 0.991750 -89.05 0.128107 -1.885
9.01500000 0.128155 3.7995 0.991745 -89.06 0.991745 -89.06 0.128144 -1.913
9.01520000 0.128193 3.8163 0.991740 -89.06 0.991740 -89.06 0.128182 -1.941
9.01540000 0.128231 3.8332 0.991735 -89.07 0.991735 -89.07 0.128221 -1.969
9.01560000 0.128270 3.8502 0.991730 -89.07 0.991730 -89.07 0.128259 -1.997
9.01580000 0.128309 3.8673 0.991725 -89.08 0.991725 -89.08 0.128298 -2.025
9.01600000 0.128348 3.8846 0.991720 -89.08 0.991720 -89.08 0.128337 -2.054
9.01620000 0.128387 3.9019 0.991714 -89.09 0.991714 -89.09 0.128376 -2.082
9.01640000 0.128426 3.9193 0.991709 -89.10 0.991709 -89.10 0.128415 -2.111
9.01660000 0.128466 3.9369 0.991704 -89.10 0.991704 -89.10 0.128455 -2.140
9.01680000 0.128506 3.9545 0.991699 -89.11 0.991699 -89.11 0.128495 -2.169
9.01700000 0.128546 3.9723 0.991694 -89.11 0.991694 -89.11 0.128535 -2.199
9.01720000 0.128587 3.9902 0.991688 -89.12 0.991688 -89.12 0.128575 -2.228
9.01740000 0.128627 4.0082 0.991683 -89.12 0.991683 -89.12 0.128616 -2.258
9.01760000 0.128668 4.0263 0.991678 -89.13 0.991678 -89.13 0.128657 -2.287
9.01780000 0.128710 4.0445 0.991672 -89.14 0.991672 -89.14 0.128698 -2.317
9.01800000 0.128751 4.0628 0.991667 -89.14 0.991667 -89.14 0.128739 -2.347
9.01820000 0.128793 4.0813 0.991661 -89.15 0.991661 -89.15 0.128781 -2.378
9.01840000 0.128835 4.0998 0.991656 -89.15 0.991656 -89.15 0.128823 -2.408
9.01860000 0.128877 4.1185 0.991650 -89.16 0.991650 -89.16 0.128865 -2.439
9.01880000 0.128920 4.1373 0.991645 -89.17 0.991645 -89.17 0.128908 -2.469
9.01900000 0.128962 4.1563 0.991639 -89.17 0.991639 -89.17 0.128951 -2.500
9.01920000 0.129006 4.1753 0.991634 -89.18 0.991634 -89.18 0.128994 -2.531
9.01940000 0.129049 4.1945 0.991628 -89.18 0.991628 -89.18 0.129037 -2.563
9.01960000 0.129093 4.2138 0.991622 -89.19 0.991622 -89.19 0.129081 -2.594
9.01980000 0.129137 4.2332 0.991616 -89.20 0.991616 -89.20 0.129124 -2.626
9.02000000 0.129181 4.2527 0.991611 -89.20 0.991611 -89.20 0.129169 -2.658
9.02020000 0.129225 4.2724 0.991605 -89.21 0.991605 -89.21 0.129213 -2.690
9.02040000 0.129270 4.2922 0.991599 -89.21 0.991599 -89.21 0.129258 -2.722
9.02060000 0.129315 4.3121 0.991593 -89.22 0.991593 -89.22 0.129303 -2.754
9.02080000 0.129361 4.3322 0.991587 -89.23 0.991587 -89.23 0.129348 -2.787
9.02100000 0.129407 4.3524 0.991581 -89.23 0.991581 -89.23 0.129394 -2.820
9.02120000 0.129453 4.3727 0.991575 -89.24 0.991575 -89.24 0.129440 -2.852
9.02140000 0.129499 4.3932 0.991569 -89.25 0.991569 -89.25 0.129486 -2.886
9.02160000 0.129546 4.4138 0.991563 -89.25 0.991563 -89.25 0.129533 -2.919
9.02180000 0.129593 4.4345 0.991556 -89.26 0.991556 -89.26 0.129580 -2.952
9.02200000 0.129640 4.4554 0.991550 -89.26 0.991550 -89.26 0.129627 -2.986
9.02220000 0.129688 4.4764 0.991544 -89.27 0.991544 -89.27 0.129675 -3.020
9.02240000 0.129736 4.4975 0.991538 -89.28 0.991538 -89.28 0.129722 -3.054
9.02260000 0.129784 4.5188 0.991531 -89.28 0.991531 -89.28 0.129771 -3.088
9.02280000 0.129833 4.5402 0.991525 -89.29 0.991525 -89.29 0.129819 -3.123
9.02300000 0.129882 4.5618 0.991518 -89.30 0.991518 -89.30 0.129868 -3.158
9.02320000 0.129931 4.5835 0.991512 -89.30 0.991512 -89.30 0.129917 -3.193
9.02340000 0.129981 4.6054 0.991505 -89.31 0.991505 -89.31 0.129967 -3.228
9.02360000 0.130031 4.6274 0.991499 -89.32 0.991499 -89.32 0.130017 -3.263
9.02380000 0.130081 4.6495 0.991492 -89.32 0.991492 -89.32 0.130067 -3.299
9.02400000 0.130132 4.6718 0.991485 -89.33 0.991485 -89.33 0.130118 -3.334
9.02420000 0.130183 4.6943 0.991478 -89.34 0.991478 -89.34 0.130169 -3.370
9.02440000 0.130235 4.7169 0.991472 -89.34 0.991472 -89.34 0.130220 -3.407
9.02460000 0.130286 4.7397 0.991465 -89.35 0.991465 -89.35 0.130272 -3.443
9.02480000 0.130339 4.7626 0.991458 -89.36 0.991458 -89.36 0.130324 -3.480
9.02500000 0.130391 4.7857 0.991451 -89.36 0.991451 -89.36 0.130377 -3.517
9.02520000 0.130444 4.8089 0.991444 -89.37 0.991444 -89.37 0.130430 -3.554
9.02540000 0.130498 4.8323 0.991437 -89.38 0.991437 -89.38 0.130483 -3.591
9.02560000 0.130552 4.8559 0.991430 -89.38 0.991430 -89.38 0.130537 -3.629
9.02580000 0.130606 4.8796 0.991422 -89.39 0.991422 -89.39 0.130591 -3.667
9.02600000 0.130660 4.9035 0.991415 -89.40 0.991415 -89.40 0.130645 -3.705
9.02620000 0.130715 4.9276 0.991408 -89.41 0.991408 -89.41 0.130700 -3.743
9.02640000 0.130771 4.9518 0.991400 -89.41 0.991400 -89.41 0.130756 -3.781
9.02660000 0.130827 4.9762 0.991393 -89.42 0.991393 -89.42 0.130811 -3.820
9.02680000 0.130883 5.0007 0.991386 -89.43 0.991386 -89.43 0.130868 -3.859
9.02700000 0.130940 5.0255 0.991378 -89.43 0.991378 -89.43 0.130924 -3.899
9.02720000 0.130997 5.0504 0.991370 -89.44 0.991370 -89.44 0.130981 -3.938
9.02740000 0.131054 5.0755 0.991363 -89.45 0.991363 -89.45 0.131039 -3.978
9.02760000 0.131112 5.1007 0.991355 -89.46 0.991355 -89.46 0.131097 -4.018
9.02780000 0.131171 5.1262 0.991347 -89.46 0.991347 -89.46 0.131155 -4.058
9.02800000 0.131230 5.1518 0.991339 -89.47 0.991339 -89.47 0.131214 -4.099