! Sonnet Data File
! From: emgraph Version : 16.52
! From Project: Resonator2_extremeCap
! Data is De-embedded 
! Data File Written: 10/10/2017 20:29:21
!< HDATE 10/09/2017 23:04:37
!< MDATE 10/09/2017 23:04:37
!< PARAMS
!< Pwid1 = 2000.0
!< Pwid2 = 2000.0
!< Air_gap = 12.0
!< Width = 20.0
!< Gap = 13.0
!< END PARAMS
# GHZ S MA R 51.80000
8.98000000 0.073110 51.293 0.997290 -92.35 0.997290 -92.35 0.073049 -56.02
!< P1 F=8.98 Eeff=(6.44620984 -2.9718e-5) Z0=(50.9069029 1.17456e-4) R=0.0 C=0.0 
!< P2 F=8.98 Eeff=(6.44620984 -2.9718e-5) Z0=(50.9069029 1.17456e-4) R=0.0 C=0.0 
8.98010000 0.073176 51.392 0.997285 -92.36 0.997285 -92.36 0.073115 -56.14
8.98020000 0.073242 51.492 0.997280 -92.37 0.997280 -92.37 0.073181 -56.26
8.98030000 0.073309 51.592 0.997275 -92.38 0.997275 -92.38 0.073247 -56.38
8.98040000 0.073377 51.692 0.997270 -92.39 0.997270 -92.39 0.073314 -56.50
8.98050000 0.073444 51.792 0.997265 -92.40 0.997265 -92.40 0.073382 -56.62
8.98060000 0.073513 51.892 0.997260 -92.41 0.997260 -92.41 0.073450 -56.74
8.98070000 0.073582 51.993 0.997255 -92.42 0.997255 -92.42 0.073519 -56.86
8.98080000 0.073651 52.093 0.997249 -92.43 0.997249 -92.43 0.073588 -56.98
8.98090000 0.073721 52.194 0.997244 -92.44 0.997244 -92.44 0.073658 -57.10
8.98100000 0.073791 52.295 0.997239 -92.45 0.997239 -92.45 0.073728 -57.22
8.98110000 0.073863 52.397 0.997233 -92.46 0.997233 -92.46 0.073799 -57.35
8.98120000 0.073934 52.498 0.997228 -92.47 0.997228 -92.47 0.073871 -57.47
8.98130000 0.074006 52.600 0.997223 -92.49 0.997223 -92.49 0.073943 -57.59
8.98140000 0.074079 52.701 0.997217 -92.50 0.997217 -92.50 0.074015 -57.71
8.98150000 0.074152 52.803 0.997211 -92.51 0.997211 -92.51 0.074088 -57.84
8.98160000 0.074226 52.906 0.997206 -92.52 0.997206 -92.52 0.074162 -57.96
8.98170000 0.074301 53.008 0.997200 -92.53 0.997200 -92.53 0.074236 -58.08
8.98180000 0.074376 53.111 0.997194 -92.54 0.997194 -92.54 0.074311 -58.21
8.98190000 0.074451 53.213 0.997189 -92.55 0.997189 -92.55 0.074386 -58.33
8.98200000 0.074527 53.316 0.997183 -92.56 0.997183 -92.56 0.074462 -58.46
8.98210000 0.074604 53.419 0.997177 -92.57 0.997177 -92.57 0.074539 -58.58
8.98220000 0.074682 53.523 0.997171 -92.58 0.997171 -92.58 0.074616 -58.71
8.98230000 0.074760 53.626 0.997165 -92.59 0.997165 -92.59 0.074694 -58.83
8.98240000 0.074838 53.730 0.997159 -92.60 0.997159 -92.60 0.074772 -58.96
8.98250000 0.074917 53.834 0.997153 -92.61 0.997153 -92.61 0.074851 -59.08
8.98260000 0.074997 53.938 0.997147 -92.62 0.997147 -92.62 0.074931 -59.21
8.98270000 0.075078 54.042 0.997141 -92.63 0.997141 -92.63 0.075011 -59.33
8.98280000 0.075159 54.146 0.997134 -92.64 0.997134 -92.64 0.075092 -59.46
8.98290000 0.075240 54.251 0.997128 -92.66 0.997128 -92.66 0.075174 -59.59
8.98300000 0.075323 54.356 0.997122 -92.67 0.997122 -92.67 0.075256 -59.71
8.98310000 0.075406 54.461 0.997115 -92.68 0.997115 -92.68 0.075338 -59.84
8.98320000 0.075489 54.566 0.997109 -92.69 0.997109 -92.69 0.075422 -59.97
8.98330000 0.075573 54.671 0.997102 -92.70 0.997102 -92.70 0.075506 -60.10
8.98340000 0.075658 54.777 0.997096 -92.71 0.997096 -92.71 0.075591 -60.22
8.98350000 0.075744 54.882 0.997089 -92.72 0.997089 -92.72 0.075676 -60.35
8.98360000 0.075830 54.988 0.997082 -92.73 0.997082 -92.73 0.075762 -60.48
8.98370000 0.075917 55.094 0.997076 -92.74 0.997076 -92.74 0.075849 -60.61
8.98380000 0.076005 55.200 0.997069 -92.76 0.997069 -92.76 0.075936 -60.74
8.98390000 0.076093 55.306 0.997062 -92.77 0.997062 -92.77 0.076024 -60.87
8.98400000 0.076182 55.413 0.997055 -92.78 0.997055 -92.78 0.076113 -61.00
8.98410000 0.076271 55.520 0.997048 -92.79 0.997048 -92.79 0.076202 -61.13
8.98420000 0.076362 55.627 0.997041 -92.80 0.997041 -92.80 0.076292 -61.26
8.98430000 0.076453 55.734 0.997034 -92.81 0.997034 -92.81 0.076383 -61.39
8.98440000 0.076544 55.841 0.997027 -92.83 0.997027 -92.83 0.076474 -61.52
8.98450000 0.076637 55.948 0.997019 -92.84 0.997019 -92.84 0.076567 -61.65
8.98460000 0.076730 56.056 0.997012 -92.85 0.997012 -92.85 0.076659 -61.78
8.98470000 0.076824 56.163 0.997005 -92.86 0.997005 -92.86 0.076753 -61.91
8.98480000 0.076918 56.271 0.996997 -92.87 0.996997 -92.87 0.076847 -62.04
8.98490000 0.077013 56.379 0.996990 -92.88 0.996990 -92.88 0.076943 -62.17
8.98500000 0.077109 56.488 0.996982 -92.90 0.996982 -92.90 0.077038 -62.31
8.98510000 0.077206 56.596 0.996975 -92.91 0.996975 -92.91 0.077135 -62.44
8.98520000 0.077304 56.704 0.996967 -92.92 0.996967 -92.92 0.077232 -62.57
8.98530000 0.077402 56.813 0.996959 -92.93 0.996959 -92.93 0.077330 -62.70
8.98540000 0.077501 56.922 0.996951 -92.94 0.996951 -92.94 0.077429 -62.84
8.98550000 0.077601 57.031 0.996943 -92.96 0.996943 -92.96 0.077529 -62.97
8.98560000 0.077701 57.140 0.996935 -92.97 0.996935 -92.97 0.077629 -63.10
8.98570000 0.077803 57.250 0.996927 -92.98 0.996927 -92.98 0.077730 -63.24
8.98580000 0.077905 57.359 0.996919 -92.99 0.996919 -92.99 0.077832 -63.37
8.98590000 0.078007 57.469 0.996911 -93.00 0.996911 -93.00 0.077935 -63.51
8.98600000 0.078111 57.579 0.996903 -93.02 0.996903 -93.02 0.078038 -63.64
8.98610000 0.078216 57.689 0.996894 -93.03 0.996894 -93.03 0.078142 -63.78
8.98620000 0.078321 57.799 0.996886 -93.04 0.996886 -93.04 0.078247 -63.91
8.98630000 0.078427 57.909 0.996877 -93.05 0.996877 -93.05 0.078353 -64.05
8.98640000 0.078534 58.019 0.996869 -93.07 0.996869 -93.07 0.078460 -64.18
8.98650000 0.078642 58.130 0.996860 -93.08 0.996860 -93.08 0.078567 -64.32
8.98660000 0.078750 58.241 0.996851 -93.09 0.996851 -93.09 0.078676 -64.46
8.98670000 0.078860 58.352 0.996843 -93.10 0.996843 -93.10 0.078785 -64.59
8.98680000 0.078970 58.463 0.996834 -93.12 0.996834 -93.12 0.078895 -64.73
8.98690000 0.079081 58.574 0.996825 -93.13 0.996825 -93.13 0.079006 -64.87
8.98700000 0.079193 58.685 0.996816 -93.14 0.996816 -93.14 0.079117 -65.00
8.98710000 0.079306 58.797 0.996806 -93.16 0.996806 -93.16 0.079230 -65.14
8.98720000 0.079419 58.908 0.996797 -93.17 0.996797 -93.17 0.079343 -65.28
8.98730000 0.079534 59.020 0.996788 -93.18 0.996788 -93.18 0.079458 -65.42
8.98740000 0.079649 59.132 0.996779 -93.19 0.996779 -93.19 0.079573 -65.55
8.98750000 0.079766 59.244 0.996769 -93.21 0.996769 -93.21 0.079689 -65.69
8.98760000 0.079883 59.357 0.996760 -93.22 0.996760 -93.22 0.079806 -65.83
8.98770000 0.080001 59.469 0.996750 -93.23 0.996750 -93.23 0.079924 -65.97
8.98780000 0.080120 59.581 0.996740 -93.25 0.996740 -93.25 0.080043 -66.11
8.98790000 0.080240 59.694 0.996730 -93.26 0.996730 -93.26 0.080162 -66.25
8.98800000 0.080361 59.807 0.996720 -93.27 0.996720 -93.27 0.080283 -66.39
8.98810000 0.080482 59.920 0.996710 -93.29 0.996710 -93.29 0.080405 -66.53
8.98820000 0.080605 60.033 0.996700 -93.30 0.996700 -93.30 0.080527 -66.67
8.98830000 0.080729 60.146 0.996690 -93.31 0.996690 -93.31 0.080650 -66.81
8.98840000 0.080853 60.259 0.996680 -93.33 0.996680 -93.33 0.080775 -66.95
8.98850000 0.080979 60.373 0.996669 -93.34 0.996669 -93.34 0.080900 -67.09
8.98860000 0.081106 60.486 0.996659 -93.36 0.996659 -93.36 0.081027 -67.23
8.98870000 0.081233 60.600 0.996648 -93.37 0.996648 -93.37 0.081154 -67.37
8.98880000 0.081362 60.714 0.996638 -93.38 0.996638 -93.38 0.081282 -67.52
8.98890000 0.081491 60.828 0.996627 -93.40 0.996627 -93.40 0.081411 -67.66
8.98900000 0.081621 60.942 0.996616 -93.41 0.996616 -93.41 0.081542 -67.80
8.98910000 0.081753 61.056 0.996605 -93.42 0.996605 -93.42 0.081673 -67.94
8.98920000 0.081885 61.170 0.996594 -93.44 0.996594 -93.44 0.081805 -68.09
8.98930000 0.082019 61.285 0.996583 -93.45 0.996583 -93.45 0.081938 -68.23
8.98940000 0.082153 61.399 0.996571 -93.47 0.996571 -93.47 0.082073 -68.37
8.98950000 0.082289 61.514 0.996560 -93.48 0.996560 -93.48 0.082208 -68.51
8.98960000 0.082426 61.629 0.996549 -93.50 0.996549 -93.50 0.082344 -68.66
8.98970000 0.082563 61.744 0.996537 -93.51 0.996537 -93.51 0.082482 -68.80
8.98980000 0.082702 61.859 0.996525 -93.52 0.996525 -93.52 0.082620 -68.95
8.98990000 0.082842 61.974 0.996513 -93.54 0.996513 -93.54 0.082760 -69.09
8.99000000 0.082983 62.089 0.996501 -93.55 0.996501 -93.55 0.082900 -69.24
8.99010000 0.083125 62.205 0.996489 -93.57 0.996489 -93.57 0.083042 -69.38
8.99020000 0.083268 62.320 0.996477 -93.58 0.996477 -93.58 0.083185 -69.53
8.99030000 0.083412 62.436 0.996465 -93.60 0.996465 -93.60 0.083329 -69.67
8.99040000 0.083557 62.551 0.996453 -93.61 0.996453 -93.61 0.083474 -69.82
8.99050000 0.083704 62.667 0.996440 -93.63 0.996440 -93.63 0.083620 -69.96
8.99060000 0.083851 62.783 0.996427 -93.64 0.996427 -93.64 0.083767 -70.11
8.99070000 0.084000 62.899 0.996415 -93.66 0.996415 -93.66 0.083916 -70.25
8.99080000 0.084150 63.015 0.996402 -93.67 0.996402 -93.67 0.084065 -70.40
8.99090000 0.084301 63.131 0.996389 -93.69 0.996389 -93.69 0.084216 -70.55
8.99100000 0.084453 63.247 0.996376 -93.70 0.996376 -93.70 0.084368 -70.69
8.99110000 0.084606 63.364 0.996362 -93.72 0.996362 -93.72 0.084521 -70.84
8.99120000 0.084761 63.480 0.996349 -93.73 0.996349 -93.73 0.084675 -70.99
8.99130000 0.084916 63.597 0.996336 -93.75 0.996336 -93.75 0.084831 -71.14
8.99140000 0.085073 63.714 0.996322 -93.76 0.996322 -93.76 0.084987 -71.28
8.99150000 0.085231 63.830 0.996308 -93.78 0.996308 -93.78 0.085145 -71.43
8.99160000 0.085391 63.947 0.996294 -93.80 0.996294 -93.80 0.085304 -71.58
8.99170000 0.085551 64.064 0.996280 -93.81 0.996280 -93.81 0.085464 -71.73
8.99180000 0.085713 64.181 0.996266 -93.83 0.996266 -93.83 0.085626 -71.88
8.99190000 0.085876 64.298 0.996252 -93.84 0.996252 -93.84 0.085789 -72.03
8.99200000 0.086040 64.415 0.996237 -93.86 0.996237 -93.86 0.085953 -72.18
8.99210000 0.086206 64.533 0.996223 -93.87 0.996223 -93.87 0.086118 -72.33
8.99220000 0.086373 64.650 0.996208 -93.89 0.996208 -93.89 0.086285 -72.48
8.99230000 0.086541 64.767 0.996193 -93.91 0.996193 -93.91 0.086453 -72.63
8.99240000 0.086710 64.885 0.996178 -93.92 0.996178 -93.92 0.086622 -72.78
8.99250000 0.086881 65.002 0.996163 -93.94 0.996163 -93.94 0.086792 -72.93
8.99260000 0.087053 65.120 0.996148 -93.96 0.996148 -93.96 0.086964 -73.08
8.99270000 0.087226 65.238 0.996132 -93.97 0.996132 -93.97 0.087137 -73.23
8.99280000 0.087401 65.355 0.996117 -93.99 0.996117 -93.99 0.087312 -73.38
8.99290000 0.087577 65.473 0.996101 -94.01 0.996101 -94.01 0.087488 -73.53
8.99300000 0.087755 65.591 0.996085 -94.02 0.996085 -94.02 0.087665 -73.68
8.99310000 0.087934 65.709 0.996069 -94.04 0.996069 -94.04 0.087843 -73.83
8.99320000 0.088114 65.827 0.996053 -94.06 0.996053 -94.06 0.088023 -73.99
8.99330000 0.088296 65.945 0.996037 -94.07 0.996037 -94.07 0.088205 -74.14
8.99340000 0.088479 66.063 0.996020 -94.09 0.996020 -94.09 0.088388 -74.29
8.99350000 0.088663 66.181 0.996003 -94.11 0.996003 -94.11 0.088572 -74.44
8.99360000 0.088849 66.299 0.995987 -94.12 0.995987 -94.12 0.088758 -74.60
8.99370000 0.089037 66.418 0.995970 -94.14 0.995970 -94.14 0.088945 -74.75
8.99380000 0.089225 66.536 0.995952 -94.16 0.995952 -94.16 0.089133 -74.90
8.99390000 0.089416 66.654 0.995935 -94.18 0.995935 -94.18 0.089323 -75.06
8.99400000 0.089607 66.773 0.995918 -94.19 0.995918 -94.19 0.089515 -75.21
8.99410000 0.089801 66.891 0.995900 -94.21 0.995900 -94.21 0.089708 -75.36
8.99420000 0.089995 67.009 0.995882 -94.23 0.995882 -94.23 0.089902 -75.52
8.99430000 0.090192 67.128 0.995864 -94.25 0.995864 -94.25 0.090098 -75.67
8.99440000 0.090390 67.246 0.995846 -94.26 0.995846 -94.26 0.090296 -75.83
8.99450000 0.090589 67.365 0.995827 -94.28 0.995827 -94.28 0.090495 -75.98
8.99460000 0.090790 67.484 0.995809 -94.30 0.995809 -94.30 0.090696 -76.14
8.99470000 0.090992 67.602 0.995790 -94.32 0.995790 -94.32 0.090898 -76.29
8.99480000 0.091197 67.721 0.995771 -94.34 0.995771 -94.34 0.091102 -76.45
8.99490000 0.091402 67.840 0.995752 -94.35 0.995752 -94.35 0.091307 -76.60
8.99500000 0.091610 67.958 0.995732 -94.37 0.995732 -94.37 0.091514 -76.76
8.99510000 0.091818 68.077 0.995713 -94.39 0.995713 -94.39 0.091723 -76.91
8.99520000 0.092029 68.196 0.995693 -94.41 0.995693 -94.41 0.091933 -77.07
8.99530000 0.092241 68.314 0.995673 -94.43 0.995673 -94.43 0.092145 -77.23
8.99540000 0.092455 68.433 0.995653 -94.45 0.995653 -94.45 0.092358 -77.38
8.99550000 0.092671 68.552 0.995633 -94.47 0.995633 -94.47 0.092574 -77.54
8.99560000 0.092888 68.671 0.995612 -94.49 0.995612 -94.49 0.092791 -77.70
8.99570000 0.093107 68.790 0.995591 -94.50 0.995591 -94.50 0.093009 -77.85
8.99580000 0.093328 68.908 0.995570 -94.52 0.995570 -94.52 0.093230 -78.01
8.99590000 0.093550 69.027 0.995549 -94.54 0.995549 -94.54 0.093452 -78.17
8.99600000 0.093774 69.146 0.995528 -94.56 0.995528 -94.56 0.093676 -78.33
8.99610000 0.094000 69.265 0.995506 -94.58 0.995506 -94.58 0.093901 -78.49
8.99620000 0.094228 69.384 0.995484 -94.60 0.995484 -94.60 0.094129 -78.64
8.99630000 0.094457 69.502 0.995462 -94.62 0.995462 -94.62 0.094358 -78.80
8.99640000 0.094689 69.621 0.995440 -94.64 0.995440 -94.64 0.094589 -78.96
8.99650000 0.094922 69.740 0.995417 -94.66 0.995417 -94.66 0.094822 -79.12
8.99660000 0.095157 69.859 0.995394 -94.68 0.995394 -94.68 0.095057 -79.28
8.99670000 0.095394 69.977 0.995371 -94.70 0.995371 -94.70 0.095293 -79.44
8.99680000 0.095632 70.096 0.995348 -94.72 0.995348 -94.72 0.095532 -79.60
8.99690000 0.095873 70.215 0.995324 -94.74 0.995324 -94.74 0.095772 -79.76
8.99700000 0.096116 70.333 0.995301 -94.76 0.995301 -94.76 0.096014 -79.92
8.99710000 0.096360 70.452 0.995277 -94.78 0.995277 -94.78 0.096258 -80.08
8.99720000 0.096606 70.571 0.995252 -94.80 0.995252 -94.80 0.096504 -80.24
8.99730000 0.096855 70.689 0.995228 -94.82 0.995228 -94.82 0.096752 -80.40
8.99740000 0.097105 70.808 0.995203 -94.84 0.995203 -94.84 0.097002 -80.56
8.99750000 0.097357 70.926 0.995178 -94.87 0.995178 -94.87 0.097254 -80.72
8.99760000 0.097612 71.045 0.995153 -94.89 0.995153 -94.89 0.097508 -80.88
8.99770000 0.097868 71.163 0.995127 -94.91 0.995127 -94.91 0.097764 -81.04
8.99780000 0.098126 71.281 0.995101 -94.93 0.995101 -94.93 0.098022 -81.20
8.99790000 0.098387 71.400 0.995075 -94.95 0.995075 -94.95 0.098283 -81.36
8.99800000 0.098649 71.518 0.995049 -94.97 0.995049 -94.97 0.098545 -81.52
8.99810000 0.098914 71.636 0.995022 -94.99 0.995022 -94.99 0.098809 -81.69
8.99820000 0.099181 71.754 0.994995 -95.01 0.994995 -95.01 0.099075 -81.85
8.99830000 0.099450 71.872 0.994968 -95.04 0.994968 -95.04 0.099344 -82.01
8.99840000 0.099721 71.991 0.994940 -95.06 0.994940 -95.06 0.099615 -82.17
8.99850000 0.099994 72.109 0.994913 -95.08 0.994913 -95.08 0.099888 -82.34
8.99860000 0.100269 72.226 0.994884 -95.10 0.994884 -95.10 0.100163 -82.50
8.99870000 0.100547 72.344 0.994856 -95.13 0.994856 -95.13 0.100440 -82.66
8.99880000 0.100827 72.462 0.994827 -95.15 0.994827 -95.15 0.100719 -82.82
8.99890000 0.101109 72.580 0.994798 -95.17 0.994798 -95.17 0.101001 -82.99
8.99900000 0.101393 72.697 0.994769 -95.19 0.994769 -95.19 0.101285 -83.15
8.99910000 0.101680 72.815 0.994739 -95.22 0.994739 -95.22 0.101572 -83.32
8.99920000 0.101969 72.932 0.994709 -95.24 0.994709 -95.24 0.101860 -83.48
8.99930000 0.102260 73.050 0.994679 -95.26 0.994679 -95.26 0.102151 -83.64
8.99940000 0.102554 73.167 0.994648 -95.29 0.994648 -95.29 0.102445 -83.81
8.99950000 0.102850 73.284 0.994617 -95.31 0.994617 -95.31 0.102740 -83.97
8.99960000 0.103148 73.401 0.994586 -95.33 0.994586 -95.33 0.103038 -84.14
8.99970000 0.103449 73.518 0.994554 -95.36 0.994554 -95.36 0.103339 -84.30
8.99980000 0.103752 73.635 0.994522 -95.38 0.994522 -95.38 0.103642 -84.47
8.99990000 0.104058 73.752 0.994489 -95.40 0.994489 -95.40 0.103947 -84.63
9.00000000 0.104366 73.869 0.994457 -95.43 0.994457 -95.43 0.104255 -84.80
9.00010000 0.104677 73.985 0.994423 -95.45 0.994423 -95.45 0.104566 -84.96
9.00020000 0.104990 74.102 0.994390 -95.48 0.994390 -95.48 0.104878 -85.13
9.00030000 0.105306 74.218 0.994356 -95.50 0.994356 -95.50 0.105194 -85.29
9.00040000 0.105625 74.334 0.994322 -95.53 0.994322 -95.53 0.105512 -85.46
9.00050000 0.105946 74.451 0.994287 -95.55 0.994287 -95.55 0.105833 -85.63
9.00060000 0.106269 74.567 0.994252 -95.58 0.994252 -95.58 0.106156 -85.79
9.00070000 0.106596 74.682 0.994217 -95.60 0.994217 -95.60 0.106482 -85.96
9.00080000 0.106925 74.798 0.994181 -95.63 0.994181 -95.63 0.106811 -86.13
9.00090000 0.107256 74.914 0.994144 -95.65 0.994144 -95.65 0.107142 -86.29
9.00100000 0.107591 75.029 0.994108 -95.68 0.994108 -95.68 0.107476 -86.46
9.00110000 0.107928 75.145 0.994071 -95.70 0.994071 -95.70 0.107813 -86.63
9.00120000 0.108268 75.260 0.994033 -95.73 0.994033 -95.73 0.108153 -86.79
9.00130000 0.108611 75.375 0.993995 -95.76 0.993995 -95.76 0.108495 -86.96
9.00140000 0.108956 75.490 0.993957 -95.78 0.993957 -95.78 0.108840 -87.13
9.00150000 0.109305 75.604 0.993918 -95.81 0.993918 -95.81 0.109188 -87.30
9.00160000 0.109656 75.719 0.993879 -95.83 0.993879 -95.83 0.109539 -87.47
9.00170000 0.110010 75.833 0.993839 -95.86 0.993839 -95.86 0.109893 -87.63
9.00180000 0.110368 75.948 0.993799 -95.89 0.993799 -95.89 0.110250 -87.80
9.00190000 0.110728 76.062 0.993758 -95.92 0.993758 -95.92 0.110610 -87.97
9.00200000 0.111091 76.176 0.993717 -95.94 0.993717 -95.94 0.110973 -88.14
9.00210000 0.111457 76.289 0.993676 -95.97 0.993676 -95.97 0.111338 -88.31
9.00220000 0.111826 76.403 0.993634 -96.00 0.993634 -96.00 0.111707 -88.48
9.00230000 0.112199 76.516 0.993591 -96.03 0.993591 -96.03 0.112079 -88.65
9.00240000 0.112574 76.630 0.993548 -96.05 0.993548 -96.05 0.112454 -88.82
9.00250000 0.112953 76.743 0.993504 -96.08 0.993504 -96.08 0.112833 -88.99
9.00260000 0.113335 76.855 0.993460 -96.11 0.993460 -96.11 0.113214 -89.16
9.00270000 0.113720 76.968 0.993416 -96.14 0.993416 -96.14 0.113599 -89.33
9.00280000 0.114108 77.080 0.993370 -96.17 0.993370 -96.17 0.113987 -89.50
9.00290000 0.114500 77.193 0.993325 -96.20 0.993325 -96.20 0.114378 -89.67
9.00300000 0.114894 77.305 0.993279 -96.22 0.993279 -96.22 0.114772 -89.84
9.00310000 0.115293 77.417 0.993232 -96.25 0.993232 -96.25 0.115170 -90.01
9.00320000 0.115694 77.528 0.993184 -96.28 0.993184 -96.28 0.115571 -90.18
9.00330000 0.116099 77.640 0.993136 -96.31 0.993136 -96.31 0.115976 -90.35
9.00340000 0.116508 77.751 0.993088 -96.34 0.993088 -96.34 0.116384 -90.52
9.00350000 0.116919 77.862 0.993039 -96.37 0.993039 -96.37 0.116795 -90.69
9.00360000 0.117335 77.972 0.992989 -96.40 0.992989 -96.40 0.117210 -90.86
9.00370000 0.117754 78.083 0.992939 -96.43 0.992939 -96.43 0.117629 -91.04
9.00380000 0.118176 78.193 0.992888 -96.46 0.992888 -96.46 0.118051 -91.21
9.00390000 0.118602 78.303 0.992837 -96.49 0.992837 -96.49 0.118477 -91.38
9.00400000 0.119032 78.413 0.992784 -96.53 0.992784 -96.53 0.118906 -91.55
9.00410000 0.119466 78.523 0.992732 -96.56 0.992732 -96.56 0.119339 -91.72
9.00420000 0.119903 78.632 0.992678 -96.59 0.992678 -96.59 0.119776 -91.90
9.00430000 0.120344 78.741 0.992624 -96.62 0.992624 -96.62 0.120216 -92.07
9.00440000 0.120789 78.850 0.992569 -96.65 0.992569 -96.65 0.120661 -92.24
9.00450000 0.121237 78.958 0.992514 -96.68 0.992514 -96.68 0.121109 -92.42
9.00460000 0.121690 79.066 0.992458 -96.72 0.992458 -96.72 0.121561 -92.59
9.00470000 0.122146 79.174 0.992401 -96.75 0.992401 -96.75 0.122017 -92.76
9.00480000 0.122607 79.282 0.992343 -96.78 0.992343 -96.78 0.122477 -92.94
9.00490000 0.123071 79.390 0.992285 -96.81 0.992285 -96.81 0.122941 -93.11
9.00500000 0.123540 79.497 0.992226 -96.85 0.992226 -96.85 0.123409 -93.28
9.00510000 0.124012 79.604 0.992166 -96.88 0.992166 -96.88 0.123881 -93.46
9.00520000 0.124489 79.710 0.992106 -96.91 0.992106 -96.91 0.124358 -93.63
9.00530000 0.124970 79.816 0.992044 -96.95 0.992044 -96.95 0.124838 -93.81
9.00540000 0.125455 79.922 0.991982 -96.98 0.991982 -96.98 0.125323 -93.98
9.00550000 0.125945 80.028 0.991920 -97.02 0.991920 -97.02 0.125812 -94.16
9.00560000 0.126438 80.134 0.991856 -97.05 0.991856 -97.05 0.126305 -94.33
9.00570000 0.126936 80.239 0.991791 -97.09 0.991791 -97.09 0.126803 -94.51
9.00580000 0.127439 80.343 0.991726 -97.12 0.991726 -97.12 0.127305 -94.68
9.00590000 0.127946 80.448 0.991660 -97.16 0.991660 -97.16 0.127811 -94.86
9.00600000 0.128457 80.552 0.991593 -97.19 0.991593 -97.19 0.128322 -95.03
9.00610000 0.128973 80.656 0.991525 -97.23 0.991525 -97.23 0.128838 -95.21
9.00620000 0.129494 80.759 0.991456 -97.26 0.991456 -97.26 0.129358 -95.39
9.00630000 0.130019 80.862 0.991387 -97.30 0.991387 -97.30 0.129883 -95.56
9.00640000 0.130549 80.965 0.991316 -97.34 0.991316 -97.34 0.130412 -95.74
9.00650000 0.131084 81.067 0.991245 -97.37 0.991245 -97.37 0.130947 -95.92
9.00660000 0.131624 81.169 0.991172 -97.41 0.991172 -97.41 0.131486 -96.09
9.00670000 0.132168 81.271 0.991099 -97.45 0.991099 -97.45 0.132030 -96.27
9.00680000 0.132717 81.372 0.991024 -97.49 0.991024 -97.49 0.132579 -96.45
9.00690000 0.133272 81.473 0.990949 -97.53 0.990949 -97.53 0.133133 -96.63
9.00700000 0.133831 81.574 0.990873 -97.56 0.990873 -97.56 0.133692 -96.80
9.00710000 0.134396 81.674 0.990795 -97.60 0.990795 -97.60 0.134255 -96.98
9.00720000 0.134965 81.774 0.990717 -97.64 0.990717 -97.64 0.134825 -97.16
9.00730000 0.135540 81.874 0.990637 -97.68 0.990637 -97.68 0.135399 -97.34
9.00740000 0.136120 81.973 0.990557 -97.72 0.990557 -97.72 0.135979 -97.52
9.00750000 0.136706 82.071 0.990475 -97.76 0.990475 -97.76 0.136563 -97.70
9.00760000 0.137296 82.170 0.990392 -97.80 0.990392 -97.80 0.137154 -97.88
9.00770000 0.137893 82.268 0.990308 -97.84 0.990308 -97.84 0.137749 -98.05
9.00780000 0.138494 82.365 0.990223 -97.88 0.990223 -97.88 0.138351 -98.23
9.00790000 0.139102 82.462 0.990137 -97.92 0.990137 -97.92 0.138957 -98.41
9.00800000 0.139715 82.559 0.990050 -97.96 0.990050 -97.96 0.139570 -98.59
9.00810000 0.140333 82.655 0.989961 -98.01 0.989961 -98.01 0.140188 -98.77
9.00820000 0.140958 82.751 0.989871 -98.05 0.989871 -98.05 0.140812 -98.95
9.00830000 0.141588 82.846 0.989780 -98.09 0.989780 -98.09 0.141442 -99.14
9.00840000 0.142224 82.941 0.989688 -98.13 0.989688 -98.13 0.142077 -99.32
9.00850000 0.142866 83.035 0.989594 -98.18 0.989594 -98.18 0.142719 -99.50
9.00860000 0.143514 83.129 0.989499 -98.22 0.989499 -98.22 0.143367 -99.68
9.00870000 0.144169 83.223 0.989403 -98.26 0.989403 -98.26 0.144020 -99.86
9.00880000 0.144829 83.316 0.989305 -98.31 0.989305 -98.31 0.144680 -100.0
9.00890000 0.145496 83.408 0.989206 -98.35 0.989206 -98.35 0.145347 -100.2
9.00900000 0.146169 83.500 0.989105 -98.40 0.989105 -98.40 0.146019 -100.4
9.00910000 0.146849 83.592 0.989003 -98.44 0.989003 -98.44 0.146698 -100.6
9.00920000 0.147535 83.683 0.988900 -98.49 0.988900 -98.49 0.147384 -100.8
9.00930000 0.148227 83.774 0.988795 -98.53 0.988795 -98.53 0.148076 -101.0
9.00940000 0.148927 83.864 0.988689 -98.58 0.988689 -98.58 0.148774 -101.1
9.00950000 0.149633 83.953 0.988581 -98.63 0.988581 -98.63 0.149480 -101.3
9.00960000 0.150346 84.042 0.988471 -98.67 0.988471 -98.67 0.150192 -101.5
9.00970000 0.151065 84.131 0.988360 -98.72 0.988360 -98.72 0.150911 -101.7
9.00980000 0.151792 84.219 0.988247 -98.77 0.988247 -98.77 0.151638 -101.9
9.00990000 0.152526 84.307 0.988133 -98.82 0.988133 -98.82 0.152371 -102.1
9.01000000 0.153267 84.394 0.988017 -98.87 0.988017 -98.87 0.153111 -102.2
9.01010000 0.154015 84.480 0.987899 -98.92 0.987899 -98.92 0.153859 -102.4
9.01020000 0.154771 84.566 0.987780 -98.97 0.987780 -98.97 0.154614 -102.6
9.01030000 0.155534 84.651 0.987658 -99.02 0.987658 -99.02 0.155376 -102.8
9.01040000 0.156304 84.736 0.987535 -99.07 0.987535 -99.07 0.156146 -103.0
9.01050000 0.157083 84.820 0.987410 -99.12 0.987410 -99.12 0.156924 -103.2
9.01060000 0.157869 84.903 0.987283 -99.17 0.987283 -99.17 0.157709 -103.4
9.01070000 0.158662 84.986 0.987154 -99.22 0.987154 -99.22 0.158502 -103.6
9.01080000 0.159464 85.069 0.987024 -99.27 0.987024 -99.27 0.159304 -103.7
9.01090000 0.160274 85.151 0.986891 -99.33 0.986891 -99.33 0.160113 -103.9
9.01100000 0.161092 85.232 0.986756 -99.38 0.986756 -99.38 0.160930 -104.1
9.01110000 0.161918 85.312 0.986619 -99.43 0.986619 -99.43 0.161756 -104.3
9.01120000 0.162753 85.392 0.986480 -99.49 0.986480 -99.49 0.162589 -104.5
9.01130000 0.163596 85.471 0.986339 -99.54 0.986339 -99.54 0.163432 -104.7
9.01140000 0.164447 85.550 0.986196 -99.60 0.986196 -99.60 0.164283 -104.9
9.01150000 0.165307 85.628 0.986050 -99.65 0.986050 -99.65 0.165142 -105.1
9.01160000 0.166176 85.705 0.985902 -99.71 0.985902 -99.71 0.166011 -105.3
9.01170000 0.167054 85.782 0.985752 -99.77 0.985752 -99.77 0.166888 -105.4
9.01180000 0.167941 85.858 0.985599 -99.82 0.985599 -99.82 0.167774 -105.6
9.01190000 0.168838 85.933 0.985444 -99.88 0.985444 -99.88 0.168670 -105.8
9.01200000 0.169743 86.008 0.985287 -99.94 0.985287 -99.94 0.169575 -106.0
9.01210000 0.170658 86.081 0.985127 -100.00 0.985127 -100.00 0.170489 -106.2
9.01220000 0.171583 86.155 0.984965 -100.1 0.984965 -100.1 0.171413 -106.4
9.01230000 0.172517 86.227 0.984799 -100.1 0.984799 -100.1 0.172346 -106.6
9.01240000 0.173461 86.299 0.984632 -100.2 0.984632 -100.2 0.173290 -106.8
9.01250000 0.174415 86.370 0.984461 -100.2 0.984461 -100.2 0.174243 -107.0
9.01260000 0.175379 86.440 0.984288 -100.3 0.984288 -100.3 0.175206 -107.2
9.01270000 0.176353 86.509 0.984112 -100.4 0.984112 -100.4 0.176180 -107.4
9.01280000 0.177338 86.578 0.983932 -100.4 0.983932 -100.4 0.177164 -107.6
9.01290000 0.178333 86.646 0.983750 -100.5 0.983750 -100.5 0.178158 -107.8
9.01300000 0.179339 86.713 0.983565 -100.6 0.983565 -100.6 0.179163 -108.0
9.01310000 0.180355 86.779 0.983377 -100.6 0.983377 -100.6 0.180179 -108.2
9.01320000 0.181383 86.845 0.983186 -100.7 0.983186 -100.7 0.181206 -108.4
9.01330000 0.182422 86.909 0.982992 -100.8 0.982992 -100.8 0.182244 -108.6
9.01340000 0.183472 86.973 0.982794 -100.8 0.982794 -100.8 0.183293 -108.7
9.01350000 0.184533 87.036 0.982593 -100.9 0.982593 -100.9 0.184354 -108.9
9.01360000 0.185607 87.098 0.982388 -101.0 0.982388 -101.0 0.185426 -109.1
9.01370000 0.186692 87.159 0.982180 -101.0 0.982180 -101.0 0.186511 -109.3
9.01380000 0.187789 87.220 0.981969 -101.1 0.981969 -101.1 0.187607 -109.5
9.01390000 0.188898 87.279 0.981753 -101.2 0.981753 -101.2 0.188715 -109.7
9.01400000 0.190019 87.338 0.981534 -101.2 0.981534 -101.2 0.189836 -109.9
9.01410000 0.191153 87.396 0.981312 -101.3 0.981312 -101.3 0.190969 -110.2
9.01420000 0.192300 87.452 0.981085 -101.4 0.981085 -101.4 0.192114 -110.4
9.01430000 0.193459 87.508 0.980854 -101.4 0.980854 -101.4 0.193273 -110.6
9.01440000 0.194632 87.563 0.980620 -101.5 0.980620 -101.5 0.194445 -110.8
9.01450000 0.195817 87.617 0.980381 -101.6 0.980381 -101.6 0.195630 -111.0
9.01460000 0.197017 87.670 0.980138 -101.7 0.980138 -101.7 0.196828 -111.2
9.01470000 0.198230 87.722 0.979890 -101.8 0.979890 -101.8 0.198040 -111.4
9.01480000 0.199457 87.772 0.979638 -101.8 0.979638 -101.8 0.199266 -111.6
9.01490000 0.200698 87.822 0.979382 -101.9 0.979382 -101.9 0.200507 -111.8
9.01500000 0.201953 87.871 0.979121 -102.0 0.979121 -102.0 0.201761 -112.0
9.01510000 0.203223 87.919 0.978855 -102.1 0.978855 -102.1 0.203030 -112.2
9.01520000 0.204508 87.966 0.978585 -102.1 0.978585 -102.1 0.204314 -112.4
9.01530000 0.205807 88.011 0.978309 -102.2 0.978309 -102.2 0.205613 -112.6
9.01540000 0.207122 88.056 0.978028 -102.3 0.978028 -102.3 0.206927 -112.8
9.01550000 0.208453 88.099 0.977742 -102.4 0.977742 -102.4 0.208256 -113.0
9.01560000 0.209799 88.142 0.977451 -102.5 0.977451 -102.5 0.209601 -113.3
9.01570000 0.211161 88.183 0.977154 -102.6 0.977154 -102.6 0.210963 -113.5
9.01580000 0.212540 88.223 0.976852 -102.6 0.976852 -102.6 0.212340 -113.7
9.01590000 0.213935 88.261 0.976544 -102.7 0.976544 -102.7 0.213734 -113.9
9.01600000 0.215346 88.299 0.976230 -102.8 0.976230 -102.8 0.215145 -114.1
9.01610000 0.216775 88.335 0.975910 -102.9 0.975910 -102.9 0.216572 -114.3
9.01620000 0.218221 88.371 0.975584 -103.0 0.975584 -103.0 0.218017 -114.5
9.01630000 0.219685 88.404 0.975252 -103.1 0.975252 -103.1 0.219480 -114.8
9.01640000 0.221166 88.437 0.974914 -103.2 0.974914 -103.2 0.220961 -115.0
9.01650000 0.222666 88.468 0.974568 -103.3 0.974568 -103.3 0.222459 -115.2
9.01660000 0.224184 88.498 0.974216 -103.4 0.974216 -103.4 0.223977 -115.4
9.01670000 0.225721 88.527 0.973857 -103.5 0.973857 -103.5 0.225513 -115.6
9.01680000 0.227278 88.554 0.973491 -103.6 0.973491 -103.6 0.227068 -115.9
9.01690000 0.228853 88.580 0.973118 -103.7 0.973118 -103.7 0.228642 -116.1
9.01700000 0.230449 88.605 0.972737 -103.8 0.972737 -103.8 0.230237 -116.3
9.01710000 0.232064 88.628 0.972349 -103.9 0.972349 -103.9 0.231851 -116.5
9.01720000 0.233700 88.650 0.971953 -104.0 0.971953 -104.0 0.233486 -116.8
9.01730000 0.235357 88.670 0.971548 -104.1 0.971548 -104.1 0.235142 -117.0
9.01740000 0.237035 88.689 0.971136 -104.2 0.971136 -104.2 0.236818 -117.2
9.01744199 0.237746 88.696 0.970960 -104.2 0.970960 -104.2 0.237529 -117.3
9.01750000 0.238734 88.706 0.970715 -104.3 0.970715 -104.3 0.238517 -117.4
9.01760000 0.240456 88.722 0.970285 -104.4 0.970285 -104.4 0.240237 -117.7
9.01770000 0.242200 88.736 0.969846 -104.5 0.969846 -104.5 0.241980 -117.9
9.01777614 0.243543 88.745 0.969506 -104.6 0.969506 -104.6 0.243322 -118.1
9.01780000 0.243966 88.748 0.969399 -104.6 0.969399 -104.6 0.243745 -118.1
9.01790000 0.245756 88.759 0.968942 -104.7 0.968942 -104.7 0.245533 -118.4
9.01800000 0.247569 88.768 0.968475 -104.8 0.968475 -104.8 0.247345 -118.6
9.01810000 0.249406 88.776 0.967998 -104.9 0.967998 -104.9 0.249181 -118.8
9.01810264 0.249454 88.776 0.967986 -104.9 0.967986 -104.9 0.249229 -118.9
9.01820000 0.251267 88.782 0.967512 -105.1 0.967512 -105.1 0.251041 -119.1
9.01830000 0.253153 88.786 0.967014 -105.2 0.967014 -105.2 0.252925 -119.3
9.01840000 0.255064 88.788 0.966507 -105.3 0.966507 -105.3 0.254836 -119.6
9.01842165 0.255482 88.789 0.966395 -105.3 0.966395 -105.3 0.255252 -119.6
9.01850000 0.257001 88.789 0.965988 -105.4 0.965988 -105.4 0.256771 -119.8
9.01860000 0.258965 88.788 0.965458 -105.5 0.965458 -105.5 0.258733 -120.0
9.01870000 0.260955 88.785 0.964916 -105.7 0.964916 -105.7 0.260722 -120.3
9.01873335 0.261624 88.783 0.964733 -105.7 0.964733 -105.7 0.261391 -120.4