! Sonnet Data File
! From: emgraph Version : 16.52
! From Project: Resonator2_extremeCap
! Data is De-embedded 
! Data File Written: 10/10/2017 20:29:21
!< HDATE 10/09/2017 23:04:37
!< MDATE 10/09/2017 23:04:37
!< PARAMS
!< Pwid1 = 2000.0
!< Pwid2 = 2000.0
!< Air_gap = 12.0
!< Width = 20.0
!< Gap = 33.0
!< END PARAMS
# GHZ S MA R 51.80000
8.98000000 0.092874 7.5632 0.995670 -88.78 0.995670 -88.78 0.092864 -5.119
!< P1 F=8.98 Eeff=(6.44620984 -2.9718e-5) Z0=(50.9069029 1.17456e-4) R=0.0 C=0.0 
!< P2 F=8.98 Eeff=(6.44620984 -2.9718e-5) Z0=(50.9069029 1.17456e-4) R=0.0 C=0.0 
8.98010000 0.092880 7.5749 0.995669 -88.78 0.995669 -88.78 0.092870 -5.136
8.98020000 0.092886 7.5866 0.995669 -88.78 0.995669 -88.78 0.092876 -5.152
8.98030000 0.092892 7.5984 0.995668 -88.79 0.995668 -88.79 0.092882 -5.169
8.98040000 0.092898 7.6101 0.995667 -88.79 0.995667 -88.79 0.092888 -5.185
8.98050000 0.092904 7.6219 0.995667 -88.79 0.995667 -88.79 0.092894 -5.202
8.98060000 0.092910 7.6338 0.995666 -88.79 0.995666 -88.79 0.092900 -5.218
8.98070000 0.092916 7.6456 0.995666 -88.80 0.995666 -88.80 0.092906 -5.235
8.98080000 0.092922 7.6575 0.995665 -88.80 0.995665 -88.80 0.092911 -5.252
8.98090000 0.092928 7.6694 0.995665 -88.80 0.995665 -88.80 0.092917 -5.268
8.98100000 0.092934 7.6813 0.995664 -88.80 0.995664 -88.80 0.092923 -5.285
8.98110000 0.092940 7.6933 0.995664 -88.80 0.995664 -88.80 0.092929 -5.302
8.98120000 0.092946 7.7053 0.995663 -88.81 0.995663 -88.81 0.092935 -5.319
8.98130000 0.092952 7.7173 0.995662 -88.81 0.995662 -88.81 0.092942 -5.336
8.98140000 0.092958 7.7293 0.995662 -88.81 0.995662 -88.81 0.092948 -5.352
8.98150000 0.092964 7.7414 0.995661 -88.81 0.995661 -88.81 0.092954 -5.369
8.98160000 0.092970 7.7535 0.995661 -88.82 0.995661 -88.82 0.092960 -5.386
8.98170000 0.092976 7.7656 0.995660 -88.82 0.995660 -88.82 0.092966 -5.403
8.98180000 0.092982 7.7778 0.995659 -88.82 0.995659 -88.82 0.092972 -5.420
8.98190000 0.092988 7.7899 0.995659 -88.82 0.995659 -88.82 0.092978 -5.437
8.98200000 0.092995 7.8021 0.995658 -88.83 0.995658 -88.83 0.092984 -5.454
8.98210000 0.093001 7.8144 0.995658 -88.83 0.995658 -88.83 0.092990 -5.471
8.98220000 0.093007 7.8266 0.995657 -88.83 0.995657 -88.83 0.092997 -5.489
8.98230000 0.093013 7.8389 0.995657 -88.83 0.995657 -88.83 0.093003 -5.506
8.98240000 0.093019 7.8513 0.995656 -88.84 0.995656 -88.84 0.093009 -5.523
8.98250000 0.093026 7.8636 0.995655 -88.84 0.995655 -88.84 0.093015 -5.540
8.98260000 0.093032 7.8760 0.995655 -88.84 0.995655 -88.84 0.093021 -5.558
8.98270000 0.093038 7.8884 0.995654 -88.84 0.995654 -88.84 0.093028 -5.575
8.98280000 0.093045 7.9008 0.995654 -88.85 0.995654 -88.85 0.093034 -5.592
8.98290000 0.093051 7.9133 0.995653 -88.85 0.995653 -88.85 0.093040 -5.610
8.98300000 0.093057 7.9258 0.995652 -88.85 0.995652 -88.85 0.093047 -5.627
8.98310000 0.093064 7.9383 0.995652 -88.85 0.995652 -88.85 0.093053 -5.644
8.98320000 0.093070 7.9509 0.995651 -88.86 0.995651 -88.86 0.093059 -5.662
8.98330000 0.093076 7.9634 0.995651 -88.86 0.995651 -88.86 0.093066 -5.679
8.98340000 0.093083 7.9760 0.995650 -88.86 0.995650 -88.86 0.093072 -5.697
8.98350000 0.093089 7.9887 0.995649 -88.86 0.995649 -88.86 0.093078 -5.715
8.98360000 0.093096 8.0014 0.995649 -88.87 0.995649 -88.87 0.093085 -5.732
8.98370000 0.093102 8.0141 0.995648 -88.87 0.995648 -88.87 0.093091 -5.750
8.98380000 0.093109 8.0268 0.995647 -88.87 0.995647 -88.87 0.093098 -5.768
8.98390000 0.093115 8.0395 0.995647 -88.87 0.995647 -88.87 0.093104 -5.785
8.98400000 0.093121 8.0523 0.995646 -88.88 0.995646 -88.88 0.093111 -5.803
8.98410000 0.093128 8.0651 0.995646 -88.88 0.995646 -88.88 0.093117 -5.821
8.98420000 0.093135 8.0780 0.995645 -88.88 0.995645 -88.88 0.093124 -5.839
8.98430000 0.093141 8.0909 0.995644 -88.88 0.995644 -88.88 0.093130 -5.857
8.98440000 0.093148 8.1038 0.995644 -88.89 0.995644 -88.89 0.093137 -5.875
8.98450000 0.093154 8.1167 0.995643 -88.89 0.995643 -88.89 0.093143 -5.893
8.98460000 0.093161 8.1297 0.995642 -88.89 0.995642 -88.89 0.093150 -5.911
8.98470000 0.093168 8.1427 0.995642 -88.89 0.995642 -88.89 0.093156 -5.929
8.98480000 0.093174 8.1557 0.995641 -88.90 0.995641 -88.90 0.093163 -5.947
8.98490000 0.093181 8.1688 0.995641 -88.90 0.995641 -88.90 0.093170 -5.965
8.98500000 0.093187 8.1819 0.995640 -88.90 0.995640 -88.90 0.093176 -5.983
8.98510000 0.093194 8.1950 0.995639 -88.90 0.995639 -88.90 0.093183 -6.001
8.98520000 0.093201 8.2082 0.995639 -88.91 0.995639 -88.91 0.093190 -6.019
8.98530000 0.093208 8.2213 0.995638 -88.91 0.995638 -88.91 0.093196 -6.038
8.98540000 0.093214 8.2346 0.995637 -88.91 0.995637 -88.91 0.093203 -6.056
8.98550000 0.093221 8.2478 0.995637 -88.91 0.995637 -88.91 0.093210 -6.074
8.98560000 0.093228 8.2611 0.995636 -88.92 0.995636 -88.92 0.093217 -6.093
8.98570000 0.093235 8.2744 0.995635 -88.92 0.995635 -88.92 0.093223 -6.111
8.98580000 0.093242 8.2877 0.995635 -88.92 0.995635 -88.92 0.093230 -6.130
8.98590000 0.093248 8.3011 0.995634 -88.92 0.995634 -88.92 0.093237 -6.148
8.98600000 0.093255 8.3145 0.995633 -88.93 0.995633 -88.93 0.093244 -6.167
8.98610000 0.093262 8.3280 0.995633 -88.93 0.995633 -88.93 0.093251 -6.185
8.98620000 0.093269 8.3414 0.995632 -88.93 0.995632 -88.93 0.093258 -6.204
8.98630000 0.093276 8.3549 0.995631 -88.93 0.995631 -88.93 0.093265 -6.223
8.98640000 0.093283 8.3685 0.995631 -88.94 0.995631 -88.94 0.093271 -6.241
8.98650000 0.093290 8.3820 0.995630 -88.94 0.995630 -88.94 0.093278 -6.260
8.98660000 0.093297 8.3956 0.995629 -88.94 0.995629 -88.94 0.093285 -6.279
8.98670000 0.093304 8.4093 0.995629 -88.94 0.995629 -88.94 0.093292 -6.298
8.98680000 0.093311 8.4229 0.995628 -88.95 0.995628 -88.95 0.093299 -6.316
8.98690000 0.093318 8.4366 0.995627 -88.95 0.995627 -88.95 0.093306 -6.335
8.98700000 0.093325 8.4504 0.995627 -88.95 0.995627 -88.95 0.093313 -6.354
8.98710000 0.093332 8.4641 0.995626 -88.96 0.995626 -88.96 0.093320 -6.373
8.98720000 0.093339 8.4779 0.995625 -88.96 0.995625 -88.96 0.093327 -6.392
8.98730000 0.093346 8.4918 0.995625 -88.96 0.995625 -88.96 0.093335 -6.411
8.98740000 0.093353 8.5056 0.995624 -88.96 0.995624 -88.96 0.093342 -6.430
8.98750000 0.093361 8.5195 0.995623 -88.97 0.995623 -88.97 0.093349 -6.450
8.98760000 0.093368 8.5335 0.995623 -88.97 0.995623 -88.97 0.093356 -6.469
8.98770000 0.093375 8.5474 0.995622 -88.97 0.995622 -88.97 0.093363 -6.488
8.98780000 0.093382 8.5614 0.995621 -88.97 0.995621 -88.97 0.093370 -6.507
8.98790000 0.093389 8.5755 0.995621 -88.98 0.995621 -88.98 0.093378 -6.527
8.98800000 0.093397 8.5895 0.995620 -88.98 0.995620 -88.98 0.093385 -6.546
8.98810000 0.093404 8.6036 0.995619 -88.98 0.995619 -88.98 0.093392 -6.565
8.98820000 0.093411 8.6178 0.995619 -88.98 0.995619 -88.98 0.093399 -6.585
8.98830000 0.093419 8.6319 0.995618 -88.99 0.995618 -88.99 0.093407 -6.604
8.98840000 0.093426 8.6461 0.995617 -88.99 0.995617 -88.99 0.093414 -6.624
8.98850000 0.093433 8.6604 0.995616 -88.99 0.995616 -88.99 0.093421 -6.643
8.98860000 0.093441 8.6746 0.995616 -88.99 0.995616 -88.99 0.093429 -6.663
8.98870000 0.093448 8.6889 0.995615 -89.00 0.995615 -89.00 0.093436 -6.683
8.98880000 0.093456 8.7033 0.995614 -89.00 0.995614 -89.00 0.093443 -6.702
8.98890000 0.093463 8.7177 0.995614 -89.00 0.995614 -89.00 0.093451 -6.722
8.98900000 0.093471 8.7321 0.995613 -89.01 0.995613 -89.01 0.093458 -6.742
8.98910000 0.093478 8.7465 0.995612 -89.01 0.995612 -89.01 0.093466 -6.762
8.98920000 0.093486 8.7610 0.995611 -89.01 0.995611 -89.01 0.093473 -6.781
8.98930000 0.093493 8.7755 0.995611 -89.01 0.995611 -89.01 0.093481 -6.801
8.98940000 0.093501 8.7901 0.995610 -89.02 0.995610 -89.02 0.093488 -6.821
8.98950000 0.093508 8.8047 0.995609 -89.02 0.995609 -89.02 0.093496 -6.841
8.98960000 0.093516 8.8193 0.995609 -89.02 0.995609 -89.02 0.093504 -6.861
8.98970000 0.093524 8.8340 0.995608 -89.02 0.995608 -89.02 0.093511 -6.881
8.98980000 0.093531 8.8487 0.995607 -89.03 0.995607 -89.03 0.093519 -6.901
8.98990000 0.093539 8.8634 0.995606 -89.03 0.995606 -89.03 0.093526 -6.922
8.99000000 0.093547 8.8782 0.995606 -89.03 0.995606 -89.03 0.093534 -6.942
8.99010000 0.093554 8.8930 0.995605 -89.03 0.995605 -89.03 0.093542 -6.962
8.99020000 0.093562 8.9078 0.995604 -89.04 0.995604 -89.04 0.093549 -6.982
8.99030000 0.093570 8.9227 0.995603 -89.04 0.995603 -89.04 0.093557 -7.003
8.99040000 0.093578 8.9376 0.995603 -89.04 0.995603 -89.04 0.093565 -7.023
8.99050000 0.093585 8.9526 0.995602 -89.05 0.995602 -89.05 0.093573 -7.044
8.99060000 0.093593 8.9676 0.995601 -89.05 0.995601 -89.05 0.093581 -7.064
8.99070000 0.093601 8.9826 0.995600 -89.05 0.995600 -89.05 0.093588 -7.085
8.99080000 0.093609 8.9977 0.995600 -89.05 0.995600 -89.05 0.093596 -7.105
8.99090000 0.093617 9.0128 0.995599 -89.06 0.995599 -89.06 0.093604 -7.126
8.99100000 0.093625 9.0279 0.995598 -89.06 0.995598 -89.06 0.093612 -7.147
8.99110000 0.093633 9.0431 0.995597 -89.06 0.995597 -89.06 0.093620 -7.167
8.99120000 0.093641 9.0583 0.995597 -89.07 0.995597 -89.07 0.093628 -7.188
8.99130000 0.093649 9.0736 0.995596 -89.07 0.995596 -89.07 0.093636 -7.209
8.99140000 0.093657 9.0889 0.995595 -89.07 0.995595 -89.07 0.093644 -7.230
8.99150000 0.093665 9.1042 0.995594 -89.07 0.995594 -89.07 0.093652 -7.251
8.99160000 0.093673 9.1196 0.995593 -89.08 0.995593 -89.08 0.093660 -7.272
8.99170000 0.093681 9.1350 0.995593 -89.08 0.995593 -89.08 0.093668 -7.293
8.99180000 0.093689 9.1504 0.995592 -89.08 0.995592 -89.08 0.093676 -7.314
8.99190000 0.093698 9.1659 0.995591 -89.08 0.995591 -89.08 0.093684 -7.335
8.99200000 0.093706 9.1814 0.995590 -89.09 0.995590 -89.09 0.093693 -7.356
8.99210000 0.093714 9.1970 0.995590 -89.09 0.995590 -89.09 0.093701 -7.377
8.99220000 0.093722 9.2126 0.995589 -89.09 0.995589 -89.09 0.093709 -7.398
8.99230000 0.093730 9.2283 0.995588 -89.10 0.995588 -89.10 0.093717 -7.420
8.99240000 0.093739 9.2439 0.995587 -89.10 0.995587 -89.10 0.093725 -7.441
8.99250000 0.093747 9.2597 0.995586 -89.10 0.995586 -89.10 0.093734 -7.462
8.99260000 0.093755 9.2754 0.995586 -89.10 0.995586 -89.10 0.093742 -7.484
8.99270000 0.093764 9.2912 0.995585 -89.11 0.995585 -89.11 0.093750 -7.505
8.99280000 0.093772 9.3071 0.995584 -89.11 0.995584 -89.11 0.093759 -7.527
8.99290000 0.093781 9.3229 0.995583 -89.11 0.995583 -89.11 0.093767 -7.548
8.99300000 0.093789 9.3389 0.995582 -89.12 0.995582 -89.12 0.093776 -7.570
8.99310000 0.093798 9.3548 0.995582 -89.12 0.995582 -89.12 0.093784 -7.592
8.99320000 0.093806 9.3708 0.995581 -89.12 0.995581 -89.12 0.093793 -7.613
8.99330000 0.093815 9.3869 0.995580 -89.12 0.995580 -89.12 0.093801 -7.635
8.99340000 0.093823 9.4030 0.995579 -89.13 0.995579 -89.13 0.093810 -7.657
8.99350000 0.093832 9.4191 0.995578 -89.13 0.995578 -89.13 0.093818 -7.679
8.99360000 0.093840 9.4353 0.995577 -89.13 0.995577 -89.13 0.093827 -7.701
8.99370000 0.093849 9.4515 0.995577 -89.14 0.995577 -89.14 0.093835 -7.723
8.99380000 0.093858 9.4677 0.995576 -89.14 0.995576 -89.14 0.093844 -7.745
8.99390000 0.093866 9.4840 0.995575 -89.14 0.995575 -89.14 0.093853 -7.767
8.99400000 0.093875 9.5003 0.995574 -89.14 0.995574 -89.14 0.093861 -7.789
8.99410000 0.093884 9.5167 0.995573 -89.15 0.995573 -89.15 0.093870 -7.811
8.99420000 0.093893 9.5331 0.995572 -89.15 0.995572 -89.15 0.093879 -7.833
8.99430000 0.093901 9.5496 0.995572 -89.15 0.995572 -89.15 0.093888 -7.856
8.99440000 0.093910 9.5661 0.995571 -89.16 0.995571 -89.16 0.093896 -7.878
8.99450000 0.093919 9.5826 0.995570 -89.16 0.995570 -89.16 0.093905 -7.900
8.99460000 0.093928 9.5992 0.995569 -89.16 0.995569 -89.16 0.093914 -7.923
8.99470000 0.093937 9.6158 0.995568 -89.17 0.995568 -89.17 0.093923 -7.945
8.99480000 0.093946 9.6325 0.995567 -89.17 0.995567 -89.17 0.093932 -7.968
8.99490000 0.093955 9.6492 0.995566 -89.17 0.995566 -89.17 0.093941 -7.991
8.99500000 0.093964 9.6660 0.995566 -89.17 0.995566 -89.17 0.093950 -8.013
8.99510000 0.093973 9.6828 0.995565 -89.18 0.995565 -89.18 0.093959 -8.036
8.99520000 0.093982 9.6996 0.995564 -89.18 0.995564 -89.18 0.093968 -8.059
8.99530000 0.093991 9.7165 0.995563 -89.18 0.995563 -89.18 0.093977 -8.081
8.99540000 0.094000 9.7335 0.995562 -89.19 0.995562 -89.19 0.093986 -8.104
8.99550000 0.094010 9.7504 0.995561 -89.19 0.995561 -89.19 0.093995 -8.127
8.99560000 0.094019 9.7675 0.995560 -89.19 0.995560 -89.19 0.094004 -8.150
8.99570000 0.094028 9.7845 0.995559 -89.19 0.995559 -89.19 0.094014 -8.173
8.99580000 0.094037 9.8016 0.995558 -89.20 0.995558 -89.20 0.094023 -8.196
8.99590000 0.094047 9.8188 0.995558 -89.20 0.995558 -89.20 0.094032 -8.220
8.99600000 0.094056 9.8360 0.995557 -89.20 0.995557 -89.20 0.094041 -8.243
8.99610000 0.094065 9.8532 0.995556 -89.21 0.995556 -89.21 0.094051 -8.266
8.99620000 0.094075 9.8705 0.995555 -89.21 0.995555 -89.21 0.094060 -8.289
8.99630000 0.094084 9.8879 0.995554 -89.21 0.995554 -89.21 0.094069 -8.313
8.99640000 0.094093 9.9052 0.995553 -89.22 0.995553 -89.22 0.094079 -8.336
8.99650000 0.094103 9.9227 0.995552 -89.22 0.995552 -89.22 0.094088 -8.360
8.99660000 0.094112 9.9401 0.995551 -89.22 0.995551 -89.22 0.094098 -8.383
8.99670000 0.094122 9.9576 0.995550 -89.22 0.995550 -89.22 0.094107 -8.407
8.99680000 0.094132 9.9752 0.995549 -89.23 0.995549 -89.23 0.094117 -8.430
8.99690000 0.094141 9.9928 0.995548 -89.23 0.995548 -89.23 0.094126 -8.454
8.99700000 0.094151 10.010 0.995548 -89.23 0.995548 -89.23 0.094136 -8.478
8.99710000 0.094161 10.028 0.995547 -89.24 0.995547 -89.24 0.094146 -8.502
8.99720000 0.094170 10.046 0.995546 -89.24 0.995546 -89.24 0.094155 -8.526
8.99730000 0.094180 10.064 0.995545 -89.24 0.995545 -89.24 0.094165 -8.550
8.99740000 0.094190 10.082 0.995544 -89.25 0.995544 -89.25 0.094175 -8.574
8.99750000 0.094200 10.099 0.995543 -89.25 0.995543 -89.25 0.094185 -8.598
8.99760000 0.094209 10.117 0.995542 -89.25 0.995542 -89.25 0.094194 -8.622
8.99770000 0.094219 10.135 0.995541 -89.26 0.995541 -89.26 0.094204 -8.646
8.99780000 0.094229 10.153 0.995540 -89.26 0.995540 -89.26 0.094214 -8.670
8.99790000 0.094239 10.171 0.995539 -89.26 0.995539 -89.26 0.094224 -8.694
8.99800000 0.094249 10.190 0.995538 -89.26 0.995538 -89.26 0.094234 -8.719
8.99810000 0.094259 10.208 0.995537 -89.27 0.995537 -89.27 0.094244 -8.743
8.99820000 0.094269 10.226 0.995536 -89.27 0.995536 -89.27 0.094254 -8.768
8.99830000 0.094279 10.244 0.995535 -89.27 0.995535 -89.27 0.094264 -8.792
8.99840000 0.094290 10.263 0.995534 -89.28 0.995534 -89.28 0.094274 -8.817
8.99850000 0.094300 10.281 0.995533 -89.28 0.995533 -89.28 0.094284 -8.841
8.99860000 0.094310 10.299 0.995532 -89.28 0.995532 -89.28 0.094294 -8.866
8.99870000 0.094320 10.318 0.995531 -89.29 0.995531 -89.29 0.094305 -8.891
8.99880000 0.094330 10.336 0.995530 -89.29 0.995530 -89.29 0.094315 -8.916
8.99890000 0.094341 10.355 0.995529 -89.29 0.995529 -89.29 0.094325 -8.941
8.99900000 0.094351 10.374 0.995528 -89.30 0.995528 -89.30 0.094335 -8.966
8.99910000 0.094362 10.392 0.995527 -89.30 0.995527 -89.30 0.094346 -8.991
8.99920000 0.094372 10.411 0.995526 -89.30 0.995526 -89.30 0.094356 -9.016
8.99930000 0.094382 10.430 0.995525 -89.31 0.995525 -89.31 0.094367 -9.041
8.99940000 0.094393 10.449 0.995524 -89.31 0.995524 -89.31 0.094377 -9.066
8.99950000 0.094403 10.467 0.995523 -89.31 0.995523 -89.31 0.094388 -9.091
8.99960000 0.094414 10.486 0.995522 -89.32 0.995522 -89.32 0.094398 -9.117
8.99970000 0.094425 10.505 0.995521 -89.32 0.995521 -89.32 0.094409 -9.142
8.99980000 0.094435 10.524 0.995520 -89.32 0.995520 -89.32 0.094419 -9.167
8.99990000 0.094446 10.543 0.995519 -89.32 0.995519 -89.32 0.094430 -9.193
9.00000000 0.094457 10.563 0.995518 -89.33 0.995518 -89.33 0.094441 -9.219
9.00010000 0.094468 10.582 0.995517 -89.33 0.995517 -89.33 0.094451 -9.244
9.00020000 0.094478 10.601 0.995516 -89.33 0.995516 -89.33 0.094462 -9.270
9.00030000 0.094489 10.620 0.995515 -89.34 0.995515 -89.34 0.094473 -9.296
9.00040000 0.094500 10.640 0.995514 -89.34 0.995514 -89.34 0.094484 -9.322
9.00050000 0.094511 10.659 0.995513 -89.34 0.995513 -89.34 0.094495 -9.348
9.00060000 0.094522 10.678 0.995512 -89.35 0.995512 -89.35 0.094506 -9.373
9.00070000 0.094533 10.698 0.995511 -89.35 0.995511 -89.35 0.094517 -9.400
9.00080000 0.094544 10.717 0.995510 -89.35 0.995510 -89.35 0.094528 -9.426
9.00090000 0.094555 10.737 0.995508 -89.36 0.995508 -89.36 0.094539 -9.452
9.00100000 0.094566 10.757 0.995507 -89.36 0.995507 -89.36 0.094550 -9.478
9.00110000 0.094577 10.776 0.995506 -89.36 0.995506 -89.36 0.094561 -9.504
9.00120000 0.094589 10.796 0.995505 -89.37 0.995505 -89.37 0.094572 -9.531
9.00130000 0.094600 10.816 0.995504 -89.37 0.995504 -89.37 0.094583 -9.557
9.00140000 0.094611 10.836 0.995503 -89.37 0.995503 -89.37 0.094594 -9.584
9.00150000 0.094623 10.856 0.995502 -89.38 0.995502 -89.38 0.094606 -9.610
9.00160000 0.094634 10.876 0.995501 -89.38 0.995501 -89.38 0.094617 -9.637
9.00170000 0.094645 10.896 0.995500 -89.38 0.995500 -89.38 0.094629 -9.664
9.00180000 0.094657 10.916 0.995499 -89.39 0.995499 -89.39 0.094640 -9.690
9.00190000 0.094668 10.936 0.995497 -89.39 0.995497 -89.39 0.094651 -9.717
9.00200000 0.094680 10.956 0.995496 -89.39 0.995496 -89.39 0.094663 -9.744
9.00210000 0.094692 10.977 0.995495 -89.40 0.995495 -89.40 0.094674 -9.771
9.00220000 0.094703 10.997 0.995494 -89.40 0.995494 -89.40 0.094686 -9.798
9.00230000 0.094715 11.017 0.995493 -89.40 0.995493 -89.40 0.094698 -9.825
9.00240000 0.094727 11.038 0.995492 -89.41 0.995492 -89.41 0.094709 -9.853
9.00250000 0.094738 11.058 0.995491 -89.41 0.995491 -89.41 0.094721 -9.880
9.00260000 0.094750 11.079 0.995490 -89.41 0.995490 -89.41 0.094733 -9.907
9.00270000 0.094762 11.099 0.995488 -89.42 0.995488 -89.42 0.094745 -9.935
9.00280000 0.094774 11.120 0.995487 -89.42 0.995487 -89.42 0.094757 -9.962
9.00290000 0.094786 11.141 0.995486 -89.42 0.995486 -89.42 0.094769 -9.990
9.00300000 0.094798 11.161 0.995485 -89.43 0.995485 -89.43 0.094781 -10.02
9.00310000 0.094810 11.182 0.995484 -89.43 0.995484 -89.43 0.094793 -10.04
9.00320000 0.094822 11.203 0.995483 -89.43 0.995483 -89.43 0.094805 -10.07
9.00330000 0.094834 11.224 0.995481 -89.44 0.995481 -89.44 0.094817 -10.10
9.00340000 0.094847 11.245 0.995480 -89.44 0.995480 -89.44 0.094829 -10.13
9.00350000 0.094859 11.266 0.995479 -89.44 0.995479 -89.44 0.094841 -10.16
9.00360000 0.094871 11.287 0.995478 -89.45 0.995478 -89.45 0.094853 -10.18
9.00370000 0.094883 11.309 0.995477 -89.45 0.995477 -89.45 0.094866 -10.21
9.00380000 0.094896 11.330 0.995475 -89.46 0.995475 -89.46 0.094878 -10.24
9.00390000 0.094908 11.351 0.995474 -89.46 0.995474 -89.46 0.094890 -10.27
9.00400000 0.094921 11.372 0.995473 -89.46 0.995473 -89.46 0.094903 -10.30
9.00410000 0.094933 11.394 0.995472 -89.47 0.995472 -89.47 0.094915 -10.33
9.00420000 0.094946 11.415 0.995471 -89.47 0.995471 -89.47 0.094928 -10.35
9.00430000 0.094959 11.437 0.995469 -89.47 0.995469 -89.47 0.094940 -10.38
9.00440000 0.094971 11.459 0.995468 -89.48 0.995468 -89.48 0.094953 -10.41
9.00450000 0.094984 11.480 0.995467 -89.48 0.995467 -89.48 0.094966 -10.44
9.00460000 0.094997 11.502 0.995466 -89.48 0.995466 -89.48 0.094979 -10.47
9.00470000 0.095010 11.524 0.995464 -89.49 0.995464 -89.49 0.094991 -10.50
9.00480000 0.095023 11.546 0.995463 -89.49 0.995463 -89.49 0.095004 -10.53
9.00490000 0.095036 11.568 0.995462 -89.49 0.995462 -89.49 0.095017 -10.56
9.00500000 0.095049 11.590 0.995461 -89.50 0.995461 -89.50 0.095030 -10.59
9.00510000 0.095062 11.612 0.995459 -89.50 0.995459 -89.50 0.095043 -10.61
9.00520000 0.095075 11.634 0.995458 -89.50 0.995458 -89.50 0.095056 -10.64
9.00530000 0.095088 11.656 0.995457 -89.51 0.995457 -89.51 0.095069 -10.67
9.00540000 0.095101 11.678 0.995455 -89.51 0.995455 -89.51 0.095082 -10.70
9.00550000 0.095114 11.700 0.995454 -89.52 0.995454 -89.52 0.095096 -10.73
9.00560000 0.095128 11.723 0.995453 -89.52 0.995453 -89.52 0.095109 -10.76
9.00570000 0.095141 11.745 0.995452 -89.52 0.995452 -89.52 0.095122 -10.79
9.00580000 0.095154 11.768 0.995450 -89.53 0.995450 -89.53 0.095135 -10.82
9.00590000 0.095168 11.790 0.995449 -89.53 0.995449 -89.53 0.095149 -10.85
9.00600000 0.095181 11.813 0.995448 -89.53 0.995448 -89.53 0.095162 -10.88
9.00610000 0.095195 11.836 0.995446 -89.54 0.995446 -89.54 0.095176 -10.91
9.00620000 0.095209 11.858 0.995445 -89.54 0.995445 -89.54 0.095190 -10.94
9.00630000 0.095222 11.881 0.995444 -89.54 0.995444 -89.54 0.095203 -10.97
9.00640000 0.095236 11.904 0.995442 -89.55 0.995442 -89.55 0.095217 -11.00
9.00650000 0.095250 11.927 0.995441 -89.55 0.995441 -89.55 0.095231 -11.03
9.00660000 0.095264 11.950 0.995440 -89.56 0.995440 -89.56 0.095244 -11.06
9.00670000 0.095278 11.973 0.995438 -89.56 0.995438 -89.56 0.095258 -11.09
9.00680000 0.095292 11.996 0.995437 -89.56 0.995437 -89.56 0.095272 -11.12
9.00690000 0.095306 12.019 0.995435 -89.57 0.995435 -89.57 0.095286 -11.15
!< P1 F=9.0069 Eeff=(6.44619637 -2.9718e-5) Z0=(50.9068228 1.17457e-4) R=0.0 C=0.0 
!< P2 F=9.0069 Eeff=(6.44619637 -2.9718e-5) Z0=(50.9068228 1.17457e-4) R=0.0 C=0.0 
9.00700000 0.095320 12.043 0.995434 -89.57 0.995434 -89.57 0.095300 -11.18
9.00710000 0.095334 12.066 0.995433 -89.57 0.995433 -89.57 0.095314 -11.22
9.00720000 0.095348 12.090 0.995431 -89.58 0.995431 -89.58 0.095329 -11.25
9.00730000 0.095363 12.113 0.995430 -89.58 0.995430 -89.58 0.095343 -11.28
9.00740000 0.095377 12.137 0.995428 -89.59 0.995428 -89.59 0.095357 -11.31
9.00750000 0.095391 12.160 0.995427 -89.59 0.995427 -89.59 0.095372 -11.34
9.00760000 0.095406 12.184 0.995426 -89.59 0.995426 -89.59 0.095386 -11.37
9.00770000 0.095420 12.208 0.995424 -89.60 0.995424 -89.60 0.095400 -11.40
9.00780000 0.095435 12.232 0.995423 -89.60 0.995423 -89.60 0.095415 -11.43
9.00790000 0.095450 12.255 0.995421 -89.60 0.995421 -89.60 0.095430 -11.47
9.00800000 0.095464 12.279 0.995420 -89.61 0.995420 -89.61 0.095444 -11.50
9.00810000 0.095479 12.304 0.995418 -89.61 0.995418 -89.61 0.095459 -11.53
9.00820000 0.095494 12.328 0.995417 -89.62 0.995417 -89.62 0.095474 -11.56
9.00830000 0.095509 12.352 0.995416 -89.62 0.995416 -89.62 0.095489 -11.59
9.00840000 0.095524 12.376 0.995414 -89.62 0.995414 -89.62 0.095504 -11.62
9.00850000 0.095539 12.400 0.995413 -89.63 0.995413 -89.63 0.095518 -11.66
9.00860000 0.095554 12.425 0.995411 -89.63 0.995411 -89.63 0.095534 -11.69
9.00870000 0.095569 12.449 0.995410 -89.64 0.995410 -89.64 0.095549 -11.72
9.00880000 0.095585 12.474 0.995408 -89.64 0.995408 -89.64 0.095564 -11.75
9.00890000 0.095600 12.499 0.995407 -89.64 0.995407 -89.64 0.095579 -11.79
9.00900000 0.095615 12.523 0.995405 -89.65 0.995405 -89.65 0.095594 -11.82
9.00910000 0.095631 12.548 0.995404 -89.65 0.995404 -89.65 0.095610 -11.85
9.00920000 0.095646 12.573 0.995402 -89.65 0.995402 -89.65 0.095625 -11.88
9.00930000 0.095662 12.598 0.995401 -89.66 0.995401 -89.66 0.095641 -11.92
9.00940000 0.095677 12.623 0.995399 -89.66 0.995399 -89.66 0.095656 -11.95
9.00950000 0.095693 12.648 0.995398 -89.67 0.995398 -89.67 0.095672 -11.98
9.00960000 0.095709 12.673 0.995396 -89.67 0.995396 -89.67 0.095688 -12.02
9.00970000 0.095725 12.698 0.995394 -89.67 0.995394 -89.67 0.095703 -12.05
9.00980000 0.095741 12.724 0.995393 -89.68 0.995393 -89.68 0.095719 -12.08
9.00990000 0.095757 12.749 0.995391 -89.68 0.995391 -89.68 0.095735 -12.12
9.01000000 0.095773 12.774 0.995390 -89.69 0.995390 -89.69 0.095751 -12.15
9.01010000 0.095789 12.800 0.995388 -89.69 0.995388 -89.69 0.095767 -12.18
9.01020000 0.095805 12.826 0.995387 -89.69 0.995387 -89.69 0.095783 -12.22
9.01030000 0.095821 12.851 0.995385 -89.70 0.995385 -89.70 0.095800 -12.25
9.01040000 0.095838 12.877 0.995383 -89.70 0.995383 -89.70 0.095816 -12.28
9.01050000 0.095854 12.903 0.995382 -89.71 0.995382 -89.71 0.095832 -12.32
9.01060000 0.095871 12.929 0.995380 -89.71 0.995380 -89.71 0.095849 -12.35
9.01070000 0.095887 12.955 0.995378 -89.71 0.995378 -89.71 0.095865 -12.39
9.01080000 0.095904 12.981 0.995377 -89.72 0.995377 -89.72 0.095882 -12.42
9.01090000 0.095920 13.007 0.995375 -89.72 0.995375 -89.72 0.095898 -12.45
9.01100000 0.095937 13.033 0.995374 -89.73 0.995374 -89.73 0.095915 -12.49
9.01110000 0.095954 13.060 0.995372 -89.73 0.995372 -89.73 0.095932 -12.52
9.01120000 0.095971 13.086 0.995370 -89.74 0.995370 -89.74 0.095949 -12.56
9.01130000 0.095988 13.112 0.995369 -89.74 0.995369 -89.74 0.095966 -12.59
9.01140000 0.096005 13.139 0.995367 -89.74 0.995367 -89.74 0.095983 -12.63
9.01150000 0.096022 13.166 0.995365 -89.75 0.995365 -89.75 0.096000 -12.66
9.01160000 0.096040 13.192 0.995363 -89.75 0.995363 -89.75 0.096017 -12.70
9.01170000 0.096057 13.219 0.995362 -89.76 0.995362 -89.76 0.096034 -12.73
9.01180000 0.096074 13.246 0.995360 -89.76 0.995360 -89.76 0.096052 -12.77
9.01190000 0.096092 13.273 0.995358 -89.76 0.995358 -89.76 0.096069 -12.80
9.01200000 0.096110 13.300 0.995357 -89.77 0.995357 -89.77 0.096087 -12.84
9.01210000 0.096127 13.327 0.995355 -89.77 0.995355 -89.77 0.096104 -12.87
9.01220000 0.096145 13.355 0.995353 -89.78 0.995353 -89.78 0.096122 -12.91
9.01230000 0.096163 13.382 0.995351 -89.78 0.995351 -89.78 0.096140 -12.95
9.01240000 0.096181 13.409 0.995350 -89.79 0.995350 -89.79 0.096158 -12.98
9.01250000 0.096199 13.437 0.995348 -89.79 0.995348 -89.79 0.096175 -13.02
9.01260000 0.096217 13.464 0.995346 -89.79 0.995346 -89.79 0.096193 -13.05
9.01270000 0.096235 13.492 0.995344 -89.80 0.995344 -89.80 0.096212 -13.09
9.01280000 0.096253 13.520 0.995342 -89.80 0.995342 -89.80 0.096230 -13.13
9.01290000 0.096272 13.547 0.995341 -89.81 0.995341 -89.81 0.096248 -13.16
9.01300000 0.096290 13.575 0.995339 -89.81 0.995339 -89.81 0.096266 -13.20
9.01310000 0.096308 13.603 0.995337 -89.82 0.995337 -89.82 0.096285 -13.24
9.01320000 0.096327 13.631 0.995335 -89.82 0.995335 -89.82 0.096303 -13.27
9.01330000 0.096346 13.660 0.995333 -89.82 0.995333 -89.82 0.096322 -13.31
9.01340000 0.096364 13.688 0.995331 -89.83 0.995331 -89.83 0.096341 -13.35
9.01350000 0.096383 13.716 0.995330 -89.83 0.995330 -89.83 0.096359 -13.38
9.01360000 0.096402 13.745 0.995328 -89.84 0.995328 -89.84 0.096378 -13.42
9.01370000 0.096421 13.773 0.995326 -89.84 0.995326 -89.84 0.096397 -13.46
9.01380000 0.096440 13.802 0.995324 -89.85 0.995324 -89.85 0.096416 -13.50
9.01390000 0.096460 13.831 0.995322 -89.85 0.995322 -89.85 0.096435 -13.53
9.01400000 0.096479 13.859 0.995320 -89.85 0.995320 -89.85 0.096455 -13.57
9.01410000 0.096498 13.888 0.995318 -89.86 0.995318 -89.86 0.096474 -13.61
9.01420000 0.096518 13.917 0.995316 -89.86 0.995316 -89.86 0.096493 -13.65
9.01430000 0.096538 13.946 0.995314 -89.87 0.995314 -89.87 0.096513 -13.68
9.01440000 0.096557 13.975 0.995312 -89.87 0.995312 -89.87 0.096533 -13.72
9.01450000 0.096577 14.005 0.995310 -89.88 0.995310 -89.88 0.096552 -13.76
9.01460000 0.096597 14.034 0.995308 -89.88 0.995308 -89.88 0.096572 -13.80
9.01470000 0.096617 14.064 0.995306 -89.89 0.995306 -89.89 0.096592 -13.84
9.01480000 0.096637 14.093 0.995304 -89.89 0.995304 -89.89 0.096612 -13.88
9.01490000 0.096657 14.123 0.995302 -89.89 0.995302 -89.89 0.096632 -13.91
9.01500000 0.096677 14.152 0.995300 -89.90 0.995300 -89.90 0.096652 -13.95
9.01510000 0.096698 14.182 0.995298 -89.90 0.995298 -89.90 0.096673 -13.99
9.01520000 0.096718 14.212 0.995296 -89.91 0.995296 -89.91 0.096693 -14.03
9.01530000 0.096739 14.242 0.995294 -89.91 0.995294 -89.91 0.096713 -14.07
9.01540000 0.096760 14.272 0.995292 -89.92 0.995292 -89.92 0.096734 -14.11
9.01550000 0.096780 14.303 0.995290 -89.92 0.995290 -89.92 0.096755 -14.15
9.01560000 0.096801 14.333 0.995288 -89.93 0.995288 -89.93 0.096776 -14.19
9.01570000 0.096822 14.363 0.995286 -89.93 0.995286 -89.93 0.096796 -14.23
9.01580000 0.096843 14.394 0.995284 -89.94 0.995284 -89.94 0.096817 -14.27
9.01590000 0.096864 14.424 0.995282 -89.94 0.995282 -89.94 0.096839 -14.31
9.01600000 0.096886 14.455 0.995280 -89.95 0.995280 -89.95 0.096860 -14.35
9.01610000 0.096907 14.486 0.995278 -89.95 0.995278 -89.95 0.096881 -14.39
9.01620000 0.096929 14.517 0.995275 -89.95 0.995275 -89.95 0.096903 -14.43
9.01630000 0.096950 14.548 0.995273 -89.96 0.995273 -89.96 0.096924 -14.47
9.01640000 0.096972 14.579 0.995271 -89.96 0.995271 -89.96 0.096946 -14.51
9.01650000 0.096994 14.610 0.995269 -89.97 0.995269 -89.97 0.096967 -14.55
9.01660000 0.097016 14.641 0.995267 -89.97 0.995267 -89.97 0.096989 -14.59
9.01670000 0.097038 14.673 0.995265 -89.98 0.995265 -89.98 0.097011 -14.63
9.01680000 0.097060 14.704 0.995262 -89.98 0.995262 -89.98 0.097033 -14.67
9.01690000 0.097082 14.736 0.995260 -89.99 0.995260 -89.99 0.097056 -14.71
9.01700000 0.097105 14.768 0.995258 -89.99 0.995258 -89.99 0.097078 -14.76
9.01710000 0.097127 14.799 0.995256 -90.00 0.995256 -90.00 0.097100 -14.80
9.01720000 0.097150 14.831 0.995253 -90.00 0.995253 -90.00 0.097123 -14.84
9.01730000 0.097173 14.863 0.995251 -90.01 0.995251 -90.01 0.097146 -14.88
9.01740000 0.097196 14.895 0.995249 -90.01 0.995249 -90.01 0.097168 -14.92
9.01750000 0.097219 14.928 0.995247 -90.02 0.995247 -90.02 0.097191 -14.96
9.01760000 0.097242 14.960 0.995244 -90.02 0.995244 -90.02 0.097214 -15.01
9.01770000 0.097265 14.992 0.995242 -90.03 0.995242 -90.03 0.097237 -15.05
9.01780000 0.097288 15.025 0.995240 -90.03 0.995240 -90.03 0.097261 -15.09
9.01790000 0.097312 15.058 0.995237 -90.04 0.995237 -90.04 0.097284 -15.13
9.01800000 0.097335 15.090 0.995235 -90.04 0.995235 -90.04 0.097308 -15.18
9.01810000 0.097359 15.123 0.995233 -90.05 0.995233 -90.05 0.097331 -15.22
9.01820000 0.097383 15.156 0.995230 -90.05 0.995230 -90.05 0.097355 -15.26
9.01830000 0.097407 15.189 0.995228 -90.06 0.995228 -90.06 0.097379 -15.31
9.01840000 0.097431 15.223 0.995225 -90.06 0.995225 -90.06 0.097403 -15.35
9.01850000 0.097455 15.256 0.995223 -90.07 0.995223 -90.07 0.097427 -15.39
9.01860000 0.097480 15.289 0.995221 -90.07 0.995221 -90.07 0.097451 -15.44
9.01870000 0.097504 15.323 0.995218 -90.08 0.995218 -90.08 0.097475 -15.48
9.01880000 0.097529 15.357 0.995216 -90.08 0.995216 -90.08 0.097500 -15.52
9.01890000 0.097553 15.390 0.995213 -90.09 0.995213 -90.09 0.097525 -15.57
9.01900000 0.097578 15.424 0.995211 -90.09 0.995211 -90.09 0.097549 -15.61