! Sonnet Data File
! From: emgraph Version : 16.52
! From Project: Resonator2_cp_varyW
! Data is De-embedded 
! Data File Written: 10/07/2017 23:12:07
!< HDATE 10/07/2017 13:09:30
!< MDATE 10/07/2017 13:09:30
!< PARAMS
!< gap = 6.0
!< Length = 400.0
!< Pwid1 = 2000.0
!< Pwid2 = 2000.0
!< Air_gap = 18.0
!< Width = 30.0
!< END PARAMS
# GHZ S MA R 51.80000
8.80000000 0.019116 -170.7 0.999814 -80.94 0.999814 -80.94 0.019116 -171.2
!< P1 F=8.8 Eeff=(6.44507571 -2.9713e-5) Z0=(50.6188468 1.16784e-4) R=0.0 C=0.0 
!< P2 F=8.8 Eeff=(6.44507571 -2.9713e-5) Z0=(50.6188468 1.16784e-4) R=0.0 C=0.0 
8.80020000 0.019119 -170.7 0.999814 -80.95 0.999814 -80.95 0.019119 -171.2
8.80040000 0.019122 -170.7 0.999814 -80.95 0.999814 -80.95 0.019122 -171.2
8.80060000 0.019125 -170.7 0.999814 -80.95 0.999814 -80.95 0.019125 -171.2
8.80080000 0.019127 -170.7 0.999813 -80.95 0.999813 -80.95 0.019128 -171.2
8.80100000 0.019130 -170.7 0.999813 -80.95 0.999813 -80.95 0.019131 -171.2
8.80120000 0.019133 -170.7 0.999813 -80.96 0.999813 -80.96 0.019133 -171.2
8.80140000 0.019136 -170.7 0.999813 -80.96 0.999813 -80.96 0.019136 -171.2
8.80160000 0.019139 -170.7 0.999813 -80.96 0.999813 -80.96 0.019139 -171.2
8.80180000 0.019142 -170.7 0.999813 -80.96 0.999813 -80.96 0.019142 -171.2
8.80200000 0.019145 -170.8 0.999813 -80.96 0.999813 -80.96 0.019145 -171.2
8.80220000 0.019148 -170.8 0.999813 -80.97 0.999813 -80.97 0.019148 -171.2
8.80240000 0.019150 -170.8 0.999813 -80.97 0.999813 -80.97 0.019151 -171.2
8.80260000 0.019153 -170.8 0.999813 -80.97 0.999813 -80.97 0.019154 -171.2
8.80280000 0.019156 -170.8 0.999813 -80.97 0.999813 -80.97 0.019157 -171.2
8.80300000 0.019159 -170.8 0.999813 -80.97 0.999813 -80.97 0.019159 -171.2
8.80320000 0.019162 -170.8 0.999813 -80.98 0.999813 -80.98 0.019162 -171.2
8.80340000 0.019165 -170.8 0.999813 -80.98 0.999813 -80.98 0.019165 -171.2
8.80360000 0.019168 -170.8 0.999813 -80.98 0.999813 -80.98 0.019168 -171.2
8.80380000 0.019171 -170.8 0.999813 -80.98 0.999813 -80.98 0.019171 -171.2
8.80400000 0.019174 -170.8 0.999813 -80.98 0.999813 -80.98 0.019174 -171.2
8.80420000 0.019177 -170.8 0.999813 -80.99 0.999813 -80.99 0.019177 -171.2
8.80440000 0.019180 -170.8 0.999812 -80.99 0.999812 -80.99 0.019180 -171.2
8.80460000 0.019183 -170.8 0.999812 -80.99 0.999812 -80.99 0.019183 -171.2
8.80480000 0.019186 -170.8 0.999812 -80.99 0.999812 -80.99 0.019186 -171.2
8.80500000 0.019189 -170.8 0.999812 -80.99 0.999812 -80.99 0.019189 -171.2
8.80520000 0.019192 -170.8 0.999812 -81.00 0.999812 -81.00 0.019192 -171.2
8.80540000 0.019195 -170.8 0.999812 -81.00 0.999812 -81.00 0.019195 -171.2
8.80560000 0.019198 -170.8 0.999812 -81.00 0.999812 -81.00 0.019198 -171.2
8.80580000 0.019201 -170.8 0.999812 -81.00 0.999812 -81.00 0.019201 -171.2
8.80600000 0.019204 -170.9 0.999812 -81.00 0.999812 -81.00 0.019204 -171.2
8.80620000 0.019207 -170.9 0.999812 -81.01 0.999812 -81.01 0.019207 -171.2
8.80640000 0.019210 -170.9 0.999812 -81.01 0.999812 -81.01 0.019210 -171.2
8.80660000 0.019213 -170.9 0.999812 -81.01 0.999812 -81.01 0.019213 -171.2
8.80680000 0.019216 -170.9 0.999812 -81.01 0.999812 -81.01 0.019217 -171.2
8.80700000 0.019219 -170.9 0.999812 -81.01 0.999812 -81.01 0.019220 -171.2
8.80720000 0.019222 -170.9 0.999812 -81.02 0.999812 -81.02 0.019223 -171.2
8.80740000 0.019226 -170.9 0.999812 -81.02 0.999812 -81.02 0.019226 -171.2
8.80760000 0.019229 -170.9 0.999812 -81.02 0.999812 -81.02 0.019229 -171.2
8.80780000 0.019232 -170.9 0.999811 -81.02 0.999811 -81.02 0.019232 -171.2
8.80800000 0.019235 -170.9 0.999811 -81.02 0.999811 -81.02 0.019235 -171.2
8.80820000 0.019238 -170.9 0.999811 -81.03 0.999811 -81.03 0.019238 -171.2
8.80840000 0.019241 -170.9 0.999811 -81.03 0.999811 -81.03 0.019241 -171.2
8.80860000 0.019244 -170.9 0.999811 -81.03 0.999811 -81.03 0.019245 -171.2
8.80880000 0.019247 -170.9 0.999811 -81.03 0.999811 -81.03 0.019248 -171.2
8.80900000 0.019251 -170.9 0.999811 -81.03 0.999811 -81.03 0.019251 -171.2
8.80920000 0.019254 -170.9 0.999811 -81.04 0.999811 -81.04 0.019254 -171.2
8.80940000 0.019257 -170.9 0.999811 -81.04 0.999811 -81.04 0.019257 -171.2
8.80960000 0.019260 -170.9 0.999811 -81.04 0.999811 -81.04 0.019260 -171.2
8.80980000 0.019263 -171.0 0.999811 -81.04 0.999811 -81.04 0.019264 -171.2
8.81000000 0.019267 -171.0 0.999811 -81.04 0.999811 -81.04 0.019267 -171.1
8.81020000 0.019270 -171.0 0.999811 -81.05 0.999811 -81.05 0.019270 -171.1
8.81040000 0.019273 -171.0 0.999811 -81.05 0.999811 -81.05 0.019273 -171.1
8.81060000 0.019276 -171.0 0.999811 -81.05 0.999811 -81.05 0.019276 -171.1
8.81080000 0.019279 -171.0 0.999811 -81.05 0.999811 -81.05 0.019280 -171.1
8.81100000 0.019283 -171.0 0.999810 -81.06 0.999810 -81.06 0.019283 -171.1
8.81120000 0.019286 -171.0 0.999810 -81.06 0.999810 -81.06 0.019286 -171.1
8.81140000 0.019289 -171.0 0.999810 -81.06 0.999810 -81.06 0.019289 -171.1
8.81160000 0.019292 -171.0 0.999810 -81.06 0.999810 -81.06 0.019293 -171.1
8.81180000 0.019296 -171.0 0.999810 -81.06 0.999810 -81.06 0.019296 -171.1
8.81200000 0.019299 -171.0 0.999810 -81.07 0.999810 -81.07 0.019299 -171.1
8.81220000 0.019302 -171.0 0.999810 -81.07 0.999810 -81.07 0.019303 -171.1
8.81240000 0.019306 -171.0 0.999810 -81.07 0.999810 -81.07 0.019306 -171.1
8.81260000 0.019309 -171.0 0.999810 -81.07 0.999810 -81.07 0.019309 -171.1
8.81280000 0.019312 -171.0 0.999810 -81.07 0.999810 -81.07 0.019313 -171.1
8.81300000 0.019316 -171.0 0.999810 -81.08 0.999810 -81.08 0.019316 -171.1
8.81320000 0.019319 -171.0 0.999810 -81.08 0.999810 -81.08 0.019319 -171.1
8.81340000 0.019322 -171.0 0.999810 -81.08 0.999810 -81.08 0.019323 -171.1
8.81360000 0.019326 -171.1 0.999810 -81.08 0.999810 -81.08 0.019326 -171.1
8.81380000 0.019329 -171.1 0.999810 -81.08 0.999810 -81.08 0.019329 -171.1
8.81400000 0.019332 -171.1 0.999809 -81.09 0.999809 -81.09 0.019333 -171.1
8.81420000 0.019336 -171.1 0.999809 -81.09 0.999809 -81.09 0.019336 -171.1
8.81440000 0.019339 -171.1 0.999809 -81.09 0.999809 -81.09 0.019339 -171.1
8.81460000 0.019343 -171.1 0.999809 -81.09 0.999809 -81.09 0.019343 -171.1
8.81480000 0.019346 -171.1 0.999809 -81.09 0.999809 -81.09 0.019346 -171.1
8.81500000 0.019349 -171.1 0.999809 -81.10 0.999809 -81.10 0.019350 -171.1
8.81520000 0.019353 -171.1 0.999809 -81.10 0.999809 -81.10 0.019353 -171.1
8.81540000 0.019356 -171.1 0.999809 -81.10 0.999809 -81.10 0.019357 -171.1
8.81560000 0.019360 -171.1 0.999809 -81.10 0.999809 -81.10 0.019360 -171.1
8.81580000 0.019363 -171.1 0.999809 -81.10 0.999809 -81.10 0.019363 -171.1
8.81600000 0.019367 -171.1 0.999809 -81.11 0.999809 -81.11 0.019367 -171.1
8.81620000 0.019370 -171.1 0.999809 -81.11 0.999809 -81.11 0.019370 -171.1
8.81640000 0.019374 -171.1 0.999809 -81.11 0.999809 -81.11 0.019374 -171.1
8.81660000 0.019377 -171.1 0.999809 -81.11 0.999809 -81.11 0.019377 -171.1
8.81680000 0.019381 -171.1 0.999809 -81.11 0.999809 -81.11 0.019381 -171.1
8.81700000 0.019384 -171.1 0.999808 -81.12 0.999808 -81.12 0.019384 -171.1
8.81720000 0.019388 -171.1 0.999808 -81.12 0.999808 -81.12 0.019388 -171.1
8.81740000 0.019391 -171.2 0.999808 -81.12 0.999808 -81.12 0.019391 -171.1
8.81760000 0.019395 -171.2 0.999808 -81.12 0.999808 -81.12 0.019395 -171.1
8.81780000 0.019398 -171.2 0.999808 -81.12 0.999808 -81.12 0.019399 -171.1
8.81800000 0.019402 -171.2 0.999808 -81.13 0.999808 -81.13 0.019402 -171.1
8.81820000 0.019406 -171.2 0.999808 -81.13 0.999808 -81.13 0.019406 -171.1
8.81840000 0.019409 -171.2 0.999808 -81.13 0.999808 -81.13 0.019409 -171.1
8.81860000 0.019413 -171.2 0.999808 -81.13 0.999808 -81.13 0.019413 -171.1
8.81880000 0.019416 -171.2 0.999808 -81.13 0.999808 -81.13 0.019417 -171.1
8.81900000 0.019420 -171.2 0.999808 -81.14 0.999808 -81.14 0.019420 -171.1
8.81920000 0.019424 -171.2 0.999808 -81.14 0.999808 -81.14 0.019424 -171.1
8.81940000 0.019427 -171.2 0.999808 -81.14 0.999808 -81.14 0.019427 -171.1
8.81960000 0.019431 -171.2 0.999808 -81.14 0.999808 -81.14 0.019431 -171.1
8.81980000 0.019435 -171.2 0.999807 -81.15 0.999807 -81.15 0.019435 -171.1
8.82000000 0.019438 -171.2 0.999807 -81.15 0.999807 -81.15 0.019438 -171.1
8.82020000 0.019442 -171.2 0.999807 -81.15 0.999807 -81.15 0.019442 -171.1
8.82040000 0.019446 -171.2 0.999807 -81.15 0.999807 -81.15 0.019446 -171.1
8.82060000 0.019449 -171.2 0.999807 -81.15 0.999807 -81.15 0.019449 -171.1
8.82080000 0.019453 -171.3 0.999807 -81.16 0.999807 -81.16 0.019453 -171.1
8.82100000 0.019457 -171.3 0.999807 -81.16 0.999807 -81.16 0.019457 -171.1
8.82120000 0.019460 -171.3 0.999807 -81.16 0.999807 -81.16 0.019461 -171.1
8.82140000 0.019464 -171.3 0.999807 -81.16 0.999807 -81.16 0.019464 -171.1
8.82160000 0.019468 -171.3 0.999807 -81.16 0.999807 -81.16 0.019468 -171.1
8.82180000 0.019472 -171.3 0.999807 -81.17 0.999807 -81.17 0.019472 -171.1
8.82200000 0.019475 -171.3 0.999807 -81.17 0.999807 -81.17 0.019476 -171.1
8.82220000 0.019479 -171.3 0.999807 -81.17 0.999807 -81.17 0.019479 -171.1
8.82240000 0.019483 -171.3 0.999806 -81.17 0.999806 -81.17 0.019483 -171.1
8.82260000 0.019487 -171.3 0.999806 -81.17 0.999806 -81.17 0.019487 -171.1
8.82280000 0.019491 -171.3 0.999806 -81.18 0.999806 -81.18 0.019491 -171.1
8.82300000 0.019495 -171.3 0.999806 -81.18 0.999806 -81.18 0.019495 -171.1
8.82320000 0.019498 -171.3 0.999806 -81.18 0.999806 -81.18 0.019499 -171.1
8.82340000 0.019502 -171.3 0.999806 -81.18 0.999806 -81.18 0.019502 -171.1
8.82360000 0.019506 -171.3 0.999806 -81.18 0.999806 -81.18 0.019506 -171.1
8.82380000 0.019510 -171.3 0.999806 -81.19 0.999806 -81.19 0.019510 -171.1
8.82400000 0.019514 -171.3 0.999806 -81.19 0.999806 -81.19 0.019514 -171.0
8.82420000 0.019518 -171.3 0.999806 -81.19 0.999806 -81.19 0.019518 -171.0
8.82440000 0.019522 -171.4 0.999806 -81.19 0.999806 -81.19 0.019522 -171.0
8.82460000 0.019526 -171.4 0.999806 -81.19 0.999806 -81.19 0.019526 -171.0
8.82480000 0.019529 -171.4 0.999806 -81.20 0.999806 -81.20 0.019530 -171.0
8.82500000 0.019533 -171.4 0.999805 -81.20 0.999805 -81.20 0.019534 -171.0
8.82520000 0.019537 -171.4 0.999805 -81.20 0.999805 -81.20 0.019538 -171.0
8.82540000 0.019541 -171.4 0.999805 -81.20 0.999805 -81.20 0.019542 -171.0
8.82560000 0.019545 -171.4 0.999805 -81.21 0.999805 -81.21 0.019546 -171.0
8.82580000 0.019549 -171.4 0.999805 -81.21 0.999805 -81.21 0.019550 -171.0
8.82600000 0.019553 -171.4 0.999805 -81.21 0.999805 -81.21 0.019554 -171.0
8.82620000 0.019557 -171.4 0.999805 -81.21 0.999805 -81.21 0.019558 -171.0
8.82640000 0.019561 -171.4 0.999805 -81.21 0.999805 -81.21 0.019562 -171.0
8.82660000 0.019565 -171.4 0.999805 -81.22 0.999805 -81.22 0.019566 -171.0
8.82680000 0.019569 -171.4 0.999805 -81.22 0.999805 -81.22 0.019570 -171.0
8.82700000 0.019573 -171.4 0.999805 -81.22 0.999805 -81.22 0.019574 -171.0
8.82720000 0.019578 -171.4 0.999805 -81.22 0.999805 -81.22 0.019578 -171.0
8.82740000 0.019582 -171.4 0.999805 -81.22 0.999805 -81.22 0.019582 -171.0
8.82760000 0.019586 -171.5 0.999804 -81.23 0.999804 -81.23 0.019586 -171.0
8.82780000 0.019590 -171.5 0.999804 -81.23 0.999804 -81.23 0.019590 -171.0
8.82800000 0.019594 -171.5 0.999804 -81.23 0.999804 -81.23 0.019594 -171.0
8.82820000 0.019598 -171.5 0.999804 -81.23 0.999804 -81.23 0.019598 -171.0
8.82840000 0.019602 -171.5 0.999804 -81.23 0.999804 -81.23 0.019602 -171.0
8.82860000 0.019606 -171.5 0.999804 -81.24 0.999804 -81.24 0.019607 -171.0
8.82880000 0.019611 -171.5 0.999804 -81.24 0.999804 -81.24 0.019611 -171.0
8.82900000 0.019615 -171.5 0.999804 -81.24 0.999804 -81.24 0.019615 -171.0
8.82920000 0.019619 -171.5 0.999804 -81.24 0.999804 -81.24 0.019619 -171.0
8.82940000 0.019623 -171.5 0.999804 -81.24 0.999804 -81.24 0.019623 -171.0
8.82960000 0.019627 -171.5 0.999804 -81.25 0.999804 -81.25 0.019628 -171.0
8.82980000 0.019632 -171.5 0.999804 -81.25 0.999804 -81.25 0.019632 -171.0
8.83000000 0.019636 -171.5 0.999803 -81.25 0.999803 -81.25 0.019636 -171.0
8.83020000 0.019640 -171.5 0.999803 -81.25 0.999803 -81.25 0.019640 -171.0
8.83040000 0.019644 -171.5 0.999803 -81.26 0.999803 -81.26 0.019645 -171.0
8.83060000 0.019649 -171.5 0.999803 -81.26 0.999803 -81.26 0.019649 -171.0
8.83080000 0.019653 -171.5 0.999803 -81.26 0.999803 -81.26 0.019653 -171.0
8.83100000 0.019657 -171.6 0.999803 -81.26 0.999803 -81.26 0.019657 -171.0
8.83120000 0.019662 -171.6 0.999803 -81.26 0.999803 -81.26 0.019662 -171.0
8.83140000 0.019666 -171.6 0.999803 -81.27 0.999803 -81.27 0.019666 -171.0
8.83160000 0.019670 -171.6 0.999803 -81.27 0.999803 -81.27 0.019670 -171.0
8.83180000 0.019675 -171.6 0.999803 -81.27 0.999803 -81.27 0.019675 -171.0
8.83200000 0.019679 -171.6 0.999803 -81.27 0.999803 -81.27 0.019679 -171.0
8.83220000 0.019683 -171.6 0.999802 -81.27 0.999802 -81.27 0.019684 -171.0
8.83240000 0.019688 -171.6 0.999802 -81.28 0.999802 -81.28 0.019688 -171.0
8.83260000 0.019692 -171.6 0.999802 -81.28 0.999802 -81.28 0.019692 -171.0
8.83280000 0.019697 -171.6 0.999802 -81.28 0.999802 -81.28 0.019697 -171.0
8.83300000 0.019701 -171.6 0.999802 -81.28 0.999802 -81.28 0.019701 -171.0
8.83320000 0.019706 -171.6 0.999802 -81.28 0.999802 -81.28 0.019706 -171.0
8.83340000 0.019710 -171.6 0.999802 -81.29 0.999802 -81.29 0.019710 -171.0
8.83360000 0.019715 -171.6 0.999802 -81.29 0.999802 -81.29 0.019715 -171.0
8.83380000 0.019719 -171.6 0.999802 -81.29 0.999802 -81.29 0.019719 -171.0
8.83400000 0.019724 -171.7 0.999802 -81.29 0.999802 -81.29 0.019724 -171.0
8.83420000 0.019728 -171.7 0.999802 -81.30 0.999802 -81.30 0.019728 -171.0
8.83440000 0.019733 -171.7 0.999801 -81.30 0.999801 -81.30 0.019733 -170.9
8.83460000 0.019737 -171.7 0.999801 -81.30 0.999801 -81.30 0.019737 -170.9
8.83480000 0.019742 -171.7 0.999801 -81.30 0.999801 -81.30 0.019742 -170.9
8.83500000 0.019746 -171.7 0.999801 -81.30 0.999801 -81.30 0.019747 -170.9
8.83520000 0.019751 -171.7 0.999801 -81.31 0.999801 -81.31 0.019751 -170.9
8.83540000 0.019756 -171.7 0.999801 -81.31 0.999801 -81.31 0.019756 -170.9
8.83560000 0.019760 -171.7 0.999801 -81.31 0.999801 -81.31 0.019760 -170.9
8.83580000 0.019765 -171.7 0.999801 -81.31 0.999801 -81.31 0.019765 -170.9
8.83600000 0.019769 -171.7 0.999801 -81.31 0.999801 -81.31 0.019770 -170.9
8.83620000 0.019774 -171.7 0.999801 -81.32 0.999801 -81.32 0.019774 -170.9
8.83640000 0.019779 -171.7 0.999801 -81.32 0.999801 -81.32 0.019779 -170.9
8.83660000 0.019784 -171.7 0.999800 -81.32 0.999800 -81.32 0.019784 -170.9
8.83680000 0.019788 -171.7 0.999800 -81.32 0.999800 -81.32 0.019788 -170.9
8.83700000 0.019793 -171.7 0.999800 -81.33 0.999800 -81.33 0.019793 -170.9
8.83720000 0.019798 -171.8 0.999800 -81.33 0.999800 -81.33 0.019798 -170.9
8.83740000 0.019803 -171.8 0.999800 -81.33 0.999800 -81.33 0.019803 -170.9
8.83760000 0.019807 -171.8 0.999800 -81.33 0.999800 -81.33 0.019808 -170.9
8.83780000 0.019812 -171.8 0.999800 -81.33 0.999800 -81.33 0.019812 -170.9
8.83800000 0.019817 -171.8 0.999800 -81.34 0.999800 -81.34 0.019817 -170.9
8.83820000 0.019822 -171.8 0.999800 -81.34 0.999800 -81.34 0.019822 -170.9
8.83840000 0.019827 -171.8 0.999800 -81.34 0.999800 -81.34 0.019827 -170.9
8.83860000 0.019831 -171.8 0.999799 -81.34 0.999799 -81.34 0.019832 -170.9
8.83880000 0.019836 -171.8 0.999799 -81.34 0.999799 -81.34 0.019837 -170.9
8.83900000 0.019841 -171.8 0.999799 -81.35 0.999799 -81.35 0.019841 -170.9
8.83920000 0.019846 -171.8 0.999799 -81.35 0.999799 -81.35 0.019846 -170.9
8.83940000 0.019851 -171.8 0.999799 -81.35 0.999799 -81.35 0.019851 -170.9
8.83960000 0.019856 -171.8 0.999799 -81.35 0.999799 -81.35 0.019856 -170.9
8.83980000 0.019861 -171.8 0.999799 -81.35 0.999799 -81.35 0.019861 -170.9
8.84000000 0.019866 -171.8 0.999799 -81.36 0.999799 -81.36 0.019866 -170.9
8.84020000 0.019871 -171.9 0.999799 -81.36 0.999799 -81.36 0.019871 -170.9
8.84040000 0.019876 -171.9 0.999799 -81.36 0.999799 -81.36 0.019876 -170.9
8.84060000 0.019881 -171.9 0.999798 -81.36 0.999798 -81.36 0.019881 -170.9
8.84080000 0.019886 -171.9 0.999798 -81.37 0.999798 -81.37 0.019886 -170.9
8.84100000 0.019891 -171.9 0.999798 -81.37 0.999798 -81.37 0.019891 -170.9
8.84120000 0.019896 -171.9 0.999798 -81.37 0.999798 -81.37 0.019896 -170.9
8.84140000 0.019901 -171.9 0.999798 -81.37 0.999798 -81.37 0.019901 -170.9
8.84160000 0.019906 -171.9 0.999798 -81.37 0.999798 -81.37 0.019906 -170.9
8.84180000 0.019911 -171.9 0.999798 -81.38 0.999798 -81.38 0.019912 -170.9
8.84200000 0.019916 -171.9 0.999798 -81.38 0.999798 -81.38 0.019917 -170.9
8.84220000 0.019922 -171.9 0.999798 -81.38 0.999798 -81.38 0.019922 -170.9
8.84240000 0.019927 -171.9 0.999798 -81.38 0.999798 -81.38 0.019927 -170.8
8.84260000 0.019932 -171.9 0.999797 -81.38 0.999797 -81.38 0.019932 -170.8
8.84280000 0.019937 -171.9 0.999797 -81.39 0.999797 -81.39 0.019937 -170.8
8.84300000 0.019942 -172.0 0.999797 -81.39 0.999797 -81.39 0.019943 -170.8
8.84320000 0.019948 -172.0 0.999797 -81.39 0.999797 -81.39 0.019948 -170.8
8.84340000 0.019953 -172.0 0.999797 -81.39 0.999797 -81.39 0.019953 -170.8
8.84360000 0.019958 -172.0 0.999797 -81.40 0.999797 -81.40 0.019958 -170.8
8.84380000 0.019963 -172.0 0.999797 -81.40 0.999797 -81.40 0.019964 -170.8
8.84400000 0.019969 -172.0 0.999797 -81.40 0.999797 -81.40 0.019969 -170.8
8.84420000 0.019974 -172.0 0.999797 -81.40 0.999797 -81.40 0.019974 -170.8
8.84440000 0.019979 -172.0 0.999796 -81.40 0.999796 -81.40 0.019980 -170.8
8.84460000 0.019985 -172.0 0.999796 -81.41 0.999796 -81.41 0.019985 -170.8
8.84480000 0.019990 -172.0 0.999796 -81.41 0.999796 -81.41 0.019990 -170.8
8.84500000 0.019996 -172.0 0.999796 -81.41 0.999796 -81.41 0.019996 -170.8
8.84520000 0.020001 -172.0 0.999796 -81.41 0.999796 -81.41 0.020001 -170.8
8.84540000 0.020006 -172.0 0.999796 -81.42 0.999796 -81.42 0.020007 -170.8
8.84560000 0.020012 -172.0 0.999796 -81.42 0.999796 -81.42 0.020012 -170.8
8.84580000 0.020017 -172.1 0.999796 -81.42 0.999796 -81.42 0.020018 -170.8
8.84600000 0.020023 -172.1 0.999796 -81.42 0.999796 -81.42 0.020023 -170.8
8.84620000 0.020028 -172.1 0.999795 -81.42 0.999795 -81.42 0.020029 -170.8
8.84640000 0.020034 -172.1 0.999795 -81.43 0.999795 -81.43 0.020034 -170.8
8.84660000 0.020039 -172.1 0.999795 -81.43 0.999795 -81.43 0.020040 -170.8
8.84680000 0.020045 -172.1 0.999795 -81.43 0.999795 -81.43 0.020045 -170.8
8.84700000 0.020051 -172.1 0.999795 -81.43 0.999795 -81.43 0.020051 -170.8
8.84720000 0.020056 -172.1 0.999795 -81.43 0.999795 -81.43 0.020056 -170.8
8.84740000 0.020062 -172.1 0.999795 -81.44 0.999795 -81.44 0.020062 -170.8
8.84760000 0.020068 -172.1 0.999795 -81.44 0.999795 -81.44 0.020068 -170.8
8.84780000 0.020073 -172.1 0.999795 -81.44 0.999795 -81.44 0.020073 -170.8
8.84800000 0.020079 -172.1 0.999794 -81.44 0.999794 -81.44 0.020079 -170.8
8.84820000 0.020085 -172.1 0.999794 -81.45 0.999794 -81.45 0.020085 -170.8
8.84840000 0.020090 -172.1 0.999794 -81.45 0.999794 -81.45 0.020091 -170.8
8.84860000 0.020096 -172.2 0.999794 -81.45 0.999794 -81.45 0.020096 -170.8
8.84880000 0.020102 -172.2 0.999794 -81.45 0.999794 -81.45 0.020102 -170.8
8.84900000 0.020108 -172.2 0.999794 -81.45 0.999794 -81.45 0.020108 -170.8
8.84920000 0.020113 -172.2 0.999794 -81.46 0.999794 -81.46 0.020114 -170.7
8.84940000 0.020119 -172.2 0.999794 -81.46 0.999794 -81.46 0.020119 -170.7
8.84960000 0.020125 -172.2 0.999794 -81.46 0.999794 -81.46 0.020125 -170.7
8.84980000 0.020131 -172.2 0.999793 -81.46 0.999793 -81.46 0.020131 -170.7
8.85000000 0.020137 -172.2 0.999793 -81.47 0.999793 -81.47 0.020137 -170.7
8.85020000 0.020143 -172.2 0.999793 -81.47 0.999793 -81.47 0.020143 -170.7
8.85040000 0.020149 -172.2 0.999793 -81.47 0.999793 -81.47 0.020149 -170.7
8.85060000 0.020155 -172.2 0.999793 -81.47 0.999793 -81.47 0.020155 -170.7
8.85080000 0.020161 -172.2 0.999793 -81.47 0.999793 -81.47 0.020161 -170.7
8.85100000 0.020167 -172.2 0.999793 -81.48 0.999793 -81.48 0.020167 -170.7
8.85120000 0.020173 -172.3 0.999793 -81.48 0.999793 -81.48 0.020173 -170.7
8.85140000 0.020179 -172.3 0.999792 -81.48 0.999792 -81.48 0.020179 -170.7
8.85160000 0.020185 -172.3 0.999792 -81.48 0.999792 -81.48 0.020185 -170.7
8.85180000 0.020191 -172.3 0.999792 -81.49 0.999792 -81.49 0.020191 -170.7
8.85200000 0.020197 -172.3 0.999792 -81.49 0.999792 -81.49 0.020197 -170.7
8.85220000 0.020203 -172.3 0.999792 -81.49 0.999792 -81.49 0.020203 -170.7
8.85240000 0.020209 -172.3 0.999792 -81.49 0.999792 -81.49 0.020209 -170.7
8.85260000 0.020215 -172.3 0.999792 -81.49 0.999792 -81.49 0.020216 -170.7
8.85280000 0.020222 -172.3 0.999792 -81.50 0.999792 -81.50 0.020222 -170.7
8.85300000 0.020228 -172.3 0.999791 -81.50 0.999791 -81.50 0.020228 -170.7
8.85320000 0.020234 -172.3 0.999791 -81.50 0.999791 -81.50 0.020234 -170.7
8.85340000 0.020240 -172.3 0.999791 -81.50 0.999791 -81.50 0.020241 -170.7
8.85360000 0.020247 -172.4 0.999791 -81.51 0.999791 -81.51 0.020247 -170.7
8.85380000 0.020253 -172.4 0.999791 -81.51 0.999791 -81.51 0.020253 -170.7
8.85400000 0.020259 -172.4 0.999791 -81.51 0.999791 -81.51 0.020260 -170.7
8.85420000 0.020266 -172.4 0.999791 -81.51 0.999791 -81.51 0.020266 -170.7
8.85440000 0.020272 -172.4 0.999790 -81.51 0.999790 -81.51 0.020272 -170.7
8.85460000 0.020278 -172.4 0.999790 -81.52 0.999790 -81.52 0.020279 -170.7
8.85480000 0.020285 -172.4 0.999790 -81.52 0.999790 -81.52 0.020285 -170.7
8.85500000 0.020291 -172.4 0.999790 -81.52 0.999790 -81.52 0.020292 -170.7
8.85520000 0.020298 -172.4 0.999790 -81.52 0.999790 -81.52 0.020298 -170.6
8.85540000 0.020304 -172.4 0.999790 -81.53 0.999790 -81.53 0.020305 -170.6
8.85560000 0.020311 -172.4 0.999790 -81.53 0.999790 -81.53 0.020311 -170.6
8.85580000 0.020317 -172.4 0.999790 -81.53 0.999790 -81.53 0.020318 -170.6
8.85600000 0.020324 -172.4 0.999789 -81.53 0.999789 -81.53 0.020324 -170.6
8.85620000 0.020331 -172.5 0.999789 -81.53 0.999789 -81.53 0.020331 -170.6
8.85640000 0.020337 -172.5 0.999789 -81.54 0.999789 -81.54 0.020337 -170.6
8.85660000 0.020344 -172.5 0.999789 -81.54 0.999789 -81.54 0.020344 -170.6
8.85680000 0.020350 -172.5 0.999789 -81.54 0.999789 -81.54 0.020351 -170.6
8.85700000 0.020357 -172.5 0.999789 -81.54 0.999789 -81.54 0.020357 -170.6
8.85720000 0.020364 -172.5 0.999789 -81.55 0.999789 -81.55 0.020364 -170.6
8.85740000 0.020371 -172.5 0.999788 -81.55 0.999788 -81.55 0.020371 -170.6
8.85760000 0.020377 -172.5 0.999788 -81.55 0.999788 -81.55 0.020378 -170.6
8.85780000 0.020384 -172.5 0.999788 -81.55 0.999788 -81.55 0.020384 -170.6
8.85800000 0.020391 -172.5 0.999788 -81.55 0.999788 -81.55 0.020391 -170.6
8.85820000 0.020398 -172.5 0.999788 -81.56 0.999788 -81.56 0.020398 -170.6
8.85840000 0.020405 -172.5 0.999788 -81.56 0.999788 -81.56 0.020405 -170.6
8.85860000 0.020412 -172.6 0.999788 -81.56 0.999788 -81.56 0.020412 -170.6
8.85880000 0.020419 -172.6 0.999787 -81.56 0.999787 -81.56 0.020419 -170.6
8.85900000 0.020426 -172.6 0.999787 -81.57 0.999787 -81.57 0.020426 -170.6
8.85920000 0.020433 -172.6 0.999787 -81.57 0.999787 -81.57 0.020433 -170.6
8.85940000 0.020440 -172.6 0.999787 -81.57 0.999787 -81.57 0.020440 -170.6
8.85960000 0.020447 -172.6 0.999787 -81.57 0.999787 -81.57 0.020447 -170.6
8.85980000 0.020454 -172.6 0.999787 -81.57 0.999787 -81.57 0.020454 -170.6
8.86000000 0.020461 -172.6 0.999787 -81.58 0.999787 -81.58 0.020461 -170.6
8.86020000 0.020468 -172.6 0.999786 -81.58 0.999786 -81.58 0.020468 -170.6
8.86040000 0.020475 -172.6 0.999786 -81.58 0.999786 -81.58 0.020475 -170.5
8.86060000 0.020482 -172.6 0.999786 -81.58 0.999786 -81.58 0.020483 -170.5
8.86080000 0.020489 -172.6 0.999786 -81.59 0.999786 -81.59 0.020490 -170.5
8.86100000 0.020497 -172.7 0.999786 -81.59 0.999786 -81.59 0.020497 -170.5
8.86120000 0.020504 -172.7 0.999786 -81.59 0.999786 -81.59 0.020504 -170.5
8.86140000 0.020511 -172.7 0.999786 -81.59 0.999786 -81.59 0.020512 -170.5
8.86160000 0.020519 -172.7 0.999785 -81.59 0.999785 -81.59 0.020519 -170.5
8.86180000 0.020526 -172.7 0.999785 -81.60 0.999785 -81.60 0.020526 -170.5
8.86200000 0.020533 -172.7 0.999785 -81.60 0.999785 -81.60 0.020534 -170.5
8.86220000 0.020541 -172.7 0.999785 -81.60 0.999785 -81.60 0.020541 -170.5
8.86240000 0.020548 -172.7 0.999785 -81.60 0.999785 -81.60 0.020548 -170.5
8.86260000 0.020556 -172.7 0.999785 -81.61 0.999785 -81.61 0.020556 -170.5
8.86280000 0.020563 -172.7 0.999784 -81.61 0.999784 -81.61 0.020563 -170.5
8.86300000 0.020571 -172.7 0.999784 -81.61 0.999784 -81.61 0.020571 -170.5
8.86320000 0.020578 -172.8 0.999784 -81.61 0.999784 -81.61 0.020579 -170.5
8.86340000 0.020586 -172.8 0.999784 -81.62 0.999784 -81.62 0.020586 -170.5
8.86360000 0.020593 -172.8 0.999784 -81.62 0.999784 -81.62 0.020594 -170.5
8.86380000 0.020601 -172.8 0.999784 -81.62 0.999784 -81.62 0.020601 -170.5
8.86400000 0.020609 -172.8 0.999783 -81.62 0.999783 -81.62 0.020609 -170.5
8.86420000 0.020617 -172.8 0.999783 -81.62 0.999783 -81.62 0.020617 -170.5
8.86440000 0.020624 -172.8 0.999783 -81.63 0.999783 -81.63 0.020625 -170.5
8.86460000 0.020632 -172.8 0.999783 -81.63 0.999783 -81.63 0.020632 -170.5
8.86480000 0.020640 -172.8 0.999783 -81.63 0.999783 -81.63 0.020640 -170.5
8.86500000 0.020648 -172.8 0.999783 -81.63 0.999783 -81.63 0.020648 -170.4
8.86520000 0.020656 -172.8 0.999782 -81.64 0.999782 -81.64 0.020656 -170.4
8.86540000 0.020663 -172.9 0.999782 -81.64 0.999782 -81.64 0.020664 -170.4
8.86560000 0.020671 -172.9 0.999782 -81.64 0.999782 -81.64 0.020672 -170.4
8.86580000 0.020679 -172.9 0.999782 -81.64 0.999782 -81.64 0.020680 -170.4
8.86600000 0.020687 -172.9 0.999782 -81.65 0.999782 -81.65 0.020688 -170.4
8.86620000 0.020695 -172.9 0.999782 -81.65 0.999782 -81.65 0.020696 -170.4
8.86640000 0.020704 -172.9 0.999781 -81.65 0.999781 -81.65 0.020704 -170.4
8.86660000 0.020712 -172.9 0.999781 -81.65 0.999781 -81.65 0.020712 -170.4
8.86680000 0.020720 -172.9 0.999781 -81.65 0.999781 -81.65 0.020720 -170.4
8.86700000 0.020728 -172.9 0.999781 -81.66 0.999781 -81.66 0.020728 -170.4
8.86720000 0.020736 -172.9 0.999781 -81.66 0.999781 -81.66 0.020736 -170.4
8.86740000 0.020744 -173.0 0.999781 -81.66 0.999781 -81.66 0.020745 -170.4
8.86760000 0.020753 -173.0 0.999780 -81.66 0.999780 -81.66 0.020753 -170.4
8.86780000 0.020761 -173.0 0.999780 -81.67 0.999780 -81.67 0.020761 -170.4
8.86800000 0.020769 -173.0 0.999780 -81.67 0.999780 -81.67 0.020770 -170.4
8.86820000 0.020778 -173.0 0.999780 -81.67 0.999780 -81.67 0.020778 -170.4
8.86840000 0.020786 -173.0 0.999780 -81.67 0.999780 -81.67 0.020786 -170.4
8.86860000 0.020795 -173.0 0.999780 -81.68 0.999780 -81.68 0.020795 -170.4
8.86880000 0.020803 -173.0 0.999779 -81.68 0.999779 -81.68 0.020803 -170.4
8.86900000 0.020812 -173.0 0.999779 -81.68 0.999779 -81.68 0.020812 -170.4
8.86920000 0.020820 -173.0 0.999779 -81.68 0.999779 -81.68 0.020821 -170.3
8.86940000 0.020829 -173.0 0.999779 -81.69 0.999779 -81.69 0.020829 -170.3
8.86960000 0.020837 -173.1 0.999779 -81.69 0.999779 -81.69 0.020838 -170.3
8.86980000 0.020846 -173.1 0.999778 -81.69 0.999778 -81.69 0.020846 -170.3
8.87000000 0.020855 -173.1 0.999778 -81.69 0.999778 -81.69 0.020855 -170.3
8.87020000 0.020864 -173.1 0.999778 -81.69 0.999778 -81.69 0.020864 -170.3
8.87040000 0.020872 -173.1 0.999778 -81.70 0.999778 -81.70 0.020873 -170.3
8.87060000 0.020881 -173.1 0.999778 -81.70 0.999778 -81.70 0.020882 -170.3
8.87080000 0.020890 -173.1 0.999777 -81.70 0.999777 -81.70 0.020890 -170.3
8.87100000 0.020899 -173.1 0.999777 -81.70 0.999777 -81.70 0.020899 -170.3
8.87120000 0.020908 -173.1 0.999777 -81.71 0.999777 -81.71 0.020908 -170.3
8.87140000 0.020917 -173.1 0.999777 -81.71 0.999777 -81.71 0.020917 -170.3
8.87160000 0.020926 -173.2 0.999777 -81.71 0.999777 -81.71 0.020926 -170.3
8.87180000 0.020935 -173.2 0.999777 -81.71 0.999777 -81.71 0.020935 -170.3
8.87200000 0.020944 -173.2 0.999776 -81.72 0.999776 -81.72 0.020944 -170.3
8.87220000 0.020953 -173.2 0.999776 -81.72 0.999776 -81.72 0.020954 -170.3
8.87240000 0.020962 -173.2 0.999776 -81.72 0.999776 -81.72 0.020963 -170.3
8.87260000 0.020972 -173.2 0.999776 -81.72 0.999776 -81.72 0.020972 -170.3
8.87280000 0.020981 -173.2 0.999776 -81.73 0.999776 -81.73 0.020981 -170.3
8.87300000 0.020990 -173.2 0.999775 -81.73 0.999775 -81.73 0.020991 -170.2
8.87320000 0.021000 -173.2 0.999775 -81.73 0.999775 -81.73 0.021000 -170.2
8.87340000 0.021009 -173.2 0.999775 -81.73 0.999775 -81.73 0.021009 -170.2
8.87360000 0.021018 -173.3 0.999775 -81.74 0.999775 -81.74 0.021019 -170.2
8.87380000 0.021028 -173.3 0.999775 -81.74 0.999775 -81.74 0.021028 -170.2
8.87400000 0.021037 -173.3 0.999774 -81.74 0.999774 -81.74 0.021038 -170.2
8.87420000 0.021047 -173.3 0.999774 -81.74 0.999774 -81.74 0.021047 -170.2
8.87440000 0.021057 -173.3 0.999774 -81.74 0.999774 -81.74 0.021057 -170.2
8.87460000 0.021066 -173.3 0.999774 -81.75 0.999774 -81.75 0.021067 -170.2
8.87480000 0.021076 -173.3 0.999773 -81.75 0.999773 -81.75 0.021076 -170.2
8.87500000 0.021086 -173.3 0.999773 -81.75 0.999773 -81.75 0.021086 -170.2
8.87520000 0.021095 -173.3 0.999773 -81.75 0.999773 -81.75 0.021096 -170.2
8.87540000 0.021105 -173.4 0.999773 -81.76 0.999773 -81.76 0.021106 -170.2
8.87560000 0.021115 -173.4 0.999773 -81.76 0.999773 -81.76 0.021115 -170.2
8.87580000 0.021125 -173.4 0.999772 -81.76 0.999772 -81.76 0.021125 -170.2
8.87600000 0.021135 -173.4 0.999772 -81.76 0.999772 -81.76 0.021135 -170.2
8.87620000 0.021145 -173.4 0.999772 -81.77 0.999772 -81.77 0.021145 -170.2
8.87640000 0.021155 -173.4 0.999772 -81.77 0.999772 -81.77 0.021155 -170.1
8.87660000 0.021165 -173.4 0.999772 -81.77 0.999772 -81.77 0.021165 -170.1
8.87680000 0.021175 -173.4 0.999771 -81.77 0.999771 -81.77 0.021176 -170.1
8.87700000 0.021185 -173.4 0.999771 -81.78 0.999771 -81.78 0.021186 -170.1
8.87720000 0.021196 -173.5 0.999771 -81.78 0.999771 -81.78 0.021196 -170.1
8.87740000 0.021206 -173.5 0.999771 -81.78 0.999771 -81.78 0.021206 -170.1
8.87760000 0.021216 -173.5 0.999770 -81.78 0.999770 -81.78 0.021217 -170.1
8.87780000 0.021227 -173.5 0.999770 -81.79 0.999770 -81.79 0.021227 -170.1
8.87800000 0.021237 -173.5 0.999770 -81.79 0.999770 -81.79 0.021238 -170.1
8.87820000 0.021248 -173.5 0.999770 -81.79 0.999770 -81.79 0.021248 -170.1
8.87840000 0.021258 -173.5 0.999770 -81.79 0.999770 -81.79 0.021259 -170.1