! Sonnet Data File
! From: emgraph Version : 16.52
! From Project: Resonator2_cp_varyW
! Data is De-embedded 
! Data File Written: 10/07/2017 09:25:23
!< HDATE 10/06/2017 17:18:21
!< MDATE 10/06/2017 17:18:21
!< PARAMS
!< gap = 6.0
!< Length = 400.0
!< Pwid1 = 2000.0
!< Pwid2 = 2000.0
!< Air_gap = 18.0
!< Width = 30.0
!< END PARAMS
# GHZ S MA R 51.80000
8.80000000 0.009704 -154.3 0.999948 -81.26 0.999948 -81.26 0.009704 171.83
!< P1 F=8.8 Eeff=(6.44507571 -2.9713e-5) Z0=(50.6188468 1.16784e-4) R=0.0 C=0.0 
!< P2 F=8.8 Eeff=(6.44507571 -2.9713e-5) Z0=(50.6188468 1.16784e-4) R=0.0 C=0.0 
8.80020000 0.009688 -154.3 0.999948 -81.26 0.999948 -81.26 0.009687 171.77
8.80040000 0.009671 -154.2 0.999948 -81.26 0.999948 -81.26 0.009670 171.71
8.80060000 0.009654 -154.2 0.999948 -81.27 0.999948 -81.27 0.009653 171.64
8.80080000 0.009637 -154.1 0.999948 -81.27 0.999948 -81.27 0.009636 171.58
8.80100000 0.009619 -154.1 0.999948 -81.27 0.999948 -81.27 0.009619 171.52
8.80120000 0.009602 -154.0 0.999949 -81.27 0.999949 -81.27 0.009601 171.45
8.80140000 0.009585 -153.9 0.999949 -81.28 0.999949 -81.28 0.009584 171.39
8.80160000 0.009567 -153.9 0.999949 -81.28 0.999949 -81.28 0.009567 171.32
8.80180000 0.009550 -153.8 0.999949 -81.28 0.999949 -81.28 0.009549 171.26
8.80200000 0.009532 -153.8 0.999949 -81.29 0.999949 -81.29 0.009532 171.19
8.80220000 0.009515 -153.7 0.999949 -81.29 0.999949 -81.29 0.009514 171.12
8.80240000 0.009497 -153.6 0.999950 -81.29 0.999950 -81.29 0.009496 171.05
8.80260000 0.009479 -153.6 0.999950 -81.30 0.999950 -81.30 0.009478 170.99
8.80280000 0.009461 -153.5 0.999950 -81.30 0.999950 -81.30 0.009461 170.92
8.80300000 0.009443 -153.5 0.999950 -81.30 0.999950 -81.30 0.009443 170.85
8.80320000 0.009425 -153.4 0.999950 -81.30 0.999950 -81.30 0.009425 170.78
8.80340000 0.009407 -153.3 0.999950 -81.31 0.999950 -81.31 0.009407 170.71
8.80360000 0.009389 -153.3 0.999951 -81.31 0.999951 -81.31 0.009388 170.64
8.80380000 0.009371 -153.2 0.999951 -81.31 0.999951 -81.31 0.009370 170.56
8.80400000 0.009353 -153.1 0.999951 -81.32 0.999951 -81.32 0.009352 170.49
8.80420000 0.009334 -153.1 0.999951 -81.32 0.999951 -81.32 0.009333 170.42
8.80440000 0.009316 -153.0 0.999951 -81.32 0.999951 -81.32 0.009315 170.34
8.80460000 0.009297 -152.9 0.999951 -81.33 0.999951 -81.33 0.009296 170.27
8.80480000 0.009279 -152.9 0.999951 -81.33 0.999951 -81.33 0.009278 170.20
8.80500000 0.009260 -152.8 0.999952 -81.33 0.999952 -81.33 0.009259 170.12
8.80520000 0.009241 -152.7 0.999952 -81.34 0.999952 -81.34 0.009240 170.04
8.80540000 0.009222 -152.6 0.999952 -81.34 0.999952 -81.34 0.009221 169.97
8.80560000 0.009203 -152.6 0.999952 -81.34 0.999952 -81.34 0.009202 169.89
8.80580000 0.009184 -152.5 0.999952 -81.34 0.999952 -81.34 0.009183 169.81
8.80600000 0.009165 -152.4 0.999952 -81.35 0.999952 -81.35 0.009164 169.73
8.80620000 0.009146 -152.4 0.999953 -81.35 0.999953 -81.35 0.009145 169.65
8.80640000 0.009126 -152.3 0.999953 -81.35 0.999953 -81.35 0.009125 169.57
8.80660000 0.009107 -152.2 0.999953 -81.36 0.999953 -81.36 0.009106 169.49
8.80680000 0.009087 -152.1 0.999953 -81.36 0.999953 -81.36 0.009086 169.41
8.80700000 0.009068 -152.1 0.999953 -81.36 0.999953 -81.36 0.009067 169.32
8.80720000 0.009048 -152.0 0.999953 -81.37 0.999953 -81.37 0.009047 169.24
8.80740000 0.009028 -151.9 0.999954 -81.37 0.999954 -81.37 0.009027 169.15
8.80760000 0.009009 -151.8 0.999954 -81.37 0.999954 -81.37 0.009008 169.07
8.80780000 0.008989 -151.7 0.999954 -81.38 0.999954 -81.38 0.008988 168.98
8.80800000 0.008969 -151.7 0.999954 -81.38 0.999954 -81.38 0.008968 168.90
8.80820000 0.008949 -151.6 0.999954 -81.38 0.999954 -81.38 0.008947 168.81
8.80840000 0.008928 -151.5 0.999954 -81.39 0.999954 -81.39 0.008927 168.72
8.80860000 0.008908 -151.4 0.999955 -81.39 0.999955 -81.39 0.008907 168.63
8.80880000 0.008888 -151.3 0.999955 -81.39 0.999955 -81.39 0.008887 168.54
8.80900000 0.008867 -151.2 0.999955 -81.40 0.999955 -81.40 0.008866 168.45
8.80920000 0.008847 -151.2 0.999955 -81.40 0.999955 -81.40 0.008845 168.35
8.80940000 0.008826 -151.1 0.999955 -81.40 0.999955 -81.40 0.008825 168.26
8.80960000 0.008805 -151.0 0.999955 -81.41 0.999955 -81.41 0.008804 168.17
8.80980000 0.008784 -150.9 0.999956 -81.41 0.999956 -81.41 0.008783 168.07
8.81000000 0.008764 -150.8 0.999956 -81.41 0.999956 -81.41 0.008762 167.98
8.81020000 0.008743 -150.7 0.999956 -81.42 0.999956 -81.42 0.008741 167.88
8.81040000 0.008721 -150.6 0.999956 -81.42 0.999956 -81.42 0.008720 167.78
8.81060000 0.008700 -150.5 0.999956 -81.42 0.999956 -81.42 0.008699 167.68
8.81080000 0.008679 -150.4 0.999956 -81.43 0.999956 -81.43 0.008678 167.58
8.81100000 0.008658 -150.3 0.999957 -81.43 0.999957 -81.43 0.008656 167.48
8.81120000 0.008636 -150.2 0.999957 -81.43 0.999957 -81.43 0.008635 167.38
8.81140000 0.008614 -150.1 0.999957 -81.44 0.999957 -81.44 0.008613 167.28
8.81160000 0.008593 -150.0 0.999957 -81.44 0.999957 -81.44 0.008591 167.17
8.81180000 0.008571 -149.9 0.999957 -81.44 0.999957 -81.44 0.008570 167.07
8.81200000 0.008549 -149.8 0.999957 -81.45 0.999957 -81.45 0.008548 166.96
8.81220000 0.008527 -149.7 0.999958 -81.45 0.999958 -81.45 0.008526 166.85
8.81240000 0.008505 -149.6 0.999958 -81.45 0.999958 -81.45 0.008504 166.74
8.81260000 0.008483 -149.5 0.999958 -81.46 0.999958 -81.46 0.008481 166.63
8.81280000 0.008461 -149.4 0.999958 -81.46 0.999958 -81.46 0.008459 166.52
8.81300000 0.008438 -149.3 0.999958 -81.46 0.999958 -81.46 0.008437 166.41
8.81320000 0.008416 -149.2 0.999959 -81.47 0.999959 -81.47 0.008414 166.30
8.81340000 0.008393 -149.1 0.999959 -81.47 0.999959 -81.47 0.008392 166.18
8.81360000 0.008371 -149.0 0.999959 -81.47 0.999959 -81.47 0.008369 166.07
8.81380000 0.008348 -148.9 0.999959 -81.48 0.999959 -81.48 0.008346 165.95
8.81400000 0.008325 -148.8 0.999959 -81.48 0.999959 -81.48 0.008323 165.83
8.81420000 0.008302 -148.7 0.999959 -81.48 0.999959 -81.48 0.008300 165.71
8.81440000 0.008279 -148.6 0.999960 -81.49 0.999960 -81.49 0.008277 165.59
8.81460000 0.008256 -148.4 0.999960 -81.49 0.999960 -81.49 0.008254 165.47
8.81480000 0.008232 -148.3 0.999960 -81.49 0.999960 -81.49 0.008231 165.34
8.81500000 0.008209 -148.2 0.999960 -81.50 0.999960 -81.50 0.008207 165.22
8.81520000 0.008186 -148.1 0.999960 -81.50 0.999960 -81.50 0.008184 165.09
8.81540000 0.008162 -148.0 0.999960 -81.50 0.999960 -81.50 0.008160 164.96
8.81560000 0.008138 -147.8 0.999961 -81.51 0.999961 -81.51 0.008137 164.83
8.81580000 0.008115 -147.7 0.999961 -81.51 0.999961 -81.51 0.008113 164.70
8.81600000 0.008091 -147.6 0.999961 -81.51 0.999961 -81.51 0.008089 164.57
8.81620000 0.008067 -147.5 0.999961 -81.52 0.999961 -81.52 0.008065 164.43
8.81640000 0.008043 -147.3 0.999961 -81.52 0.999961 -81.52 0.008041 164.30
8.81660000 0.008018 -147.2 0.999961 -81.53 0.999961 -81.53 0.008016 164.16
8.81680000 0.007994 -147.1 0.999962 -81.53 0.999962 -81.53 0.007992 164.02
8.81700000 0.007970 -146.9 0.999962 -81.53 0.999962 -81.53 0.007968 163.88
8.81720000 0.007945 -146.8 0.999962 -81.54 0.999962 -81.54 0.007943 163.74
8.81740000 0.007921 -146.7 0.999962 -81.54 0.999962 -81.54 0.007919 163.59
8.81760000 0.007896 -146.5 0.999962 -81.54 0.999962 -81.54 0.007894 163.45
8.81780000 0.007871 -146.4 0.999963 -81.55 0.999963 -81.55 0.007869 163.30
8.81800000 0.007846 -146.2 0.999963 -81.55 0.999963 -81.55 0.007844 163.15
8.81820000 0.007821 -146.1 0.999963 -81.55 0.999963 -81.55 0.007819 163.00
8.81840000 0.007796 -146.0 0.999963 -81.56 0.999963 -81.56 0.007794 162.84
8.81860000 0.007771 -145.8 0.999963 -81.56 0.999963 -81.56 0.007768 162.69
8.81880000 0.007745 -145.7 0.999963 -81.57 0.999963 -81.57 0.007743 162.53
8.81900000 0.007720 -145.5 0.999964 -81.57 0.999964 -81.57 0.007718 162.37
8.81920000 0.007694 -145.3 0.999964 -81.57 0.999964 -81.57 0.007692 162.21
8.81940000 0.007669 -145.2 0.999964 -81.58 0.999964 -81.58 0.007666 162.05
8.81960000 0.007643 -145.0 0.999964 -81.58 0.999964 -81.58 0.007641 161.88
8.81980000 0.007617 -144.9 0.999964 -81.58 0.999964 -81.58 0.007615 161.71
8.82000000 0.007591 -144.7 0.999964 -81.59 0.999964 -81.59 0.007589 161.54
8.82020000 0.007565 -144.5 0.999965 -81.59 0.999965 -81.59 0.007563 161.37
8.82040000 0.007539 -144.4 0.999965 -81.60 0.999965 -81.60 0.007536 161.19
8.82060000 0.007513 -144.2 0.999965 -81.60 0.999965 -81.60 0.007510 161.02
8.82080000 0.007486 -144.0 0.999965 -81.60 0.999965 -81.60 0.007484 160.84
8.82100000 0.007460 -143.9 0.999965 -81.61 0.999965 -81.61 0.007457 160.66
8.82120000 0.007433 -143.7 0.999966 -81.61 0.999966 -81.61 0.007430 160.47
8.82140000 0.007406 -143.5 0.999966 -81.61 0.999966 -81.61 0.007404 160.29
8.82160000 0.007380 -143.3 0.999966 -81.62 0.999966 -81.62 0.007377 160.10
8.82180000 0.007353 -143.1 0.999966 -81.62 0.999966 -81.62 0.007350 159.90
8.82200000 0.007326 -143.0 0.999966 -81.63 0.999966 -81.63 0.007323 159.71
8.82220000 0.007299 -142.8 0.999966 -81.63 0.999966 -81.63 0.007296 159.51
8.82240000 0.007272 -142.6 0.999967 -81.63 0.999967 -81.63 0.007269 159.31
8.82260000 0.007244 -142.4 0.999967 -81.64 0.999967 -81.64 0.007241 159.11
8.82280000 0.007217 -142.2 0.999967 -81.64 0.999967 -81.64 0.007214 158.90
8.82300000 0.007189 -142.0 0.999967 -81.65 0.999967 -81.65 0.007186 158.69
8.82320000 0.007162 -141.8 0.999967 -81.65 0.999967 -81.65 0.007159 158.48
8.82340000 0.007134 -141.6 0.999967 -81.65 0.999967 -81.65 0.007131 158.27
8.82360000 0.007107 -141.4 0.999968 -81.66 0.999968 -81.66 0.007103 158.05
8.82380000 0.007079 -141.1 0.999968 -81.66 0.999968 -81.66 0.007076 157.83
8.82400000 0.007051 -140.9 0.999968 -81.67 0.999968 -81.67 0.007048 157.61
8.82420000 0.007023 -140.7 0.999968 -81.67 0.999968 -81.67 0.007020 157.38
8.82440000 0.006995 -140.5 0.999968 -81.67 0.999968 -81.67 0.006991 157.15
8.82460000 0.006967 -140.3 0.999968 -81.68 0.999968 -81.68 0.006963 156.91
8.82480000 0.006938 -140.0 0.999969 -81.68 0.999969 -81.68 0.006935 156.67
8.82500000 0.006910 -139.8 0.999969 -81.69 0.999969 -81.69 0.006907 156.43
8.82520000 0.006882 -139.6 0.999969 -81.69 0.999969 -81.69 0.006878 156.19
8.82540000 0.006853 -139.3 0.999969 -81.70 0.999969 -81.70 0.006850 155.94
8.82560000 0.006824 -139.1 0.999969 -81.70 0.999969 -81.70 0.006821 155.69
8.82580000 0.006796 -138.8 0.999969 -81.70 0.999969 -81.70 0.006792 155.43
8.82600000 0.006767 -138.6 0.999970 -81.71 0.999970 -81.71 0.006763 155.17
8.82620000 0.006738 -138.3 0.999970 -81.71 0.999970 -81.71 0.006735 154.90
8.82640000 0.006710 -138.1 0.999970 -81.72 0.999970 -81.72 0.006706 154.64
8.82660000 0.006681 -137.8 0.999970 -81.72 0.999970 -81.72 0.006677 154.36
8.82680000 0.006652 -137.5 0.999970 -81.73 0.999970 -81.73 0.006648 154.09
8.82700000 0.006623 -137.2 0.999970 -81.73 0.999970 -81.73 0.006619 153.80
8.82720000 0.006594 -137.0 0.999971 -81.73 0.999971 -81.73 0.006590 153.52
8.82740000 0.006564 -136.7 0.999971 -81.74 0.999971 -81.74 0.006560 153.23
8.82760000 0.006535 -136.4 0.999971 -81.74 0.999971 -81.74 0.006531 152.93
8.82780000 0.006506 -136.1 0.999971 -81.75 0.999971 -81.75 0.006502 152.63
8.82800000 0.006477 -135.8 0.999971 -81.75 0.999971 -81.75 0.006473 152.33
8.82820000 0.006448 -135.5 0.999971 -81.76 0.999971 -81.76 0.006443 152.02
8.82840000 0.006418 -135.2 0.999972 -81.76 0.999972 -81.76 0.006414 151.70
8.82860000 0.006389 -134.9 0.999972 -81.76 0.999972 -81.76 0.006384 151.38
8.82880000 0.006360 -134.6 0.999972 -81.77 0.999972 -81.77 0.006355 151.05
8.82900000 0.006330 -134.2 0.999972 -81.77 0.999972 -81.77 0.006326 150.72
8.82920000 0.006301 -133.9 0.999972 -81.78 0.999972 -81.78 0.006296 150.38
8.82940000 0.006271 -133.6 0.999972 -81.78 0.999972 -81.78 0.006267 150.04
8.82960000 0.006242 -133.2 0.999972 -81.79 0.999972 -81.79 0.006237 149.69
8.82980000 0.006213 -132.9 0.999973 -81.79 0.999973 -81.79 0.006208 149.34
8.83000000 0.006183 -132.5 0.999973 -81.80 0.999973 -81.80 0.006178 148.98
8.83020000 0.006154 -132.2 0.999973 -81.80 0.999973 -81.80 0.006149 148.61
8.83040000 0.006124 -131.8 0.999973 -81.81 0.999973 -81.81 0.006119 148.24
8.83060000 0.006095 -131.5 0.999973 -81.81 0.999973 -81.81 0.006090 147.86
8.83080000 0.006066 -131.1 0.999973 -81.82 0.999973 -81.82 0.006061 147.47
8.83100000 0.006037 -130.7 0.999973 -81.82 0.999973 -81.82 0.006031 147.08
8.83120000 0.006007 -130.3 0.999974 -81.82 0.999974 -81.82 0.006002 146.68
8.83140000 0.005978 -129.9 0.999974 -81.83 0.999974 -81.83 0.005973 146.27
8.83160000 0.005949 -129.5 0.999974 -81.83 0.999974 -81.83 0.005944 145.86
8.83180000 0.005920 -129.1 0.999974 -81.84 0.999974 -81.84 0.005915 145.44
8.83200000 0.005891 -128.7 0.999974 -81.84 0.999974 -81.84 0.005886 145.01
8.83220000 0.005863 -128.2 0.999974 -81.85 0.999974 -81.85 0.005857 144.57
8.83240000 0.005834 -127.8 0.999974 -81.85 0.999974 -81.85 0.005828 144.13
8.83260000 0.005805 -127.4 0.999974 -81.86 0.999974 -81.86 0.005799 143.68
8.83280000 0.005777 -126.9 0.999975 -81.86 0.999975 -81.86 0.005771 143.21
8.83300000 0.005749 -126.5 0.999975 -81.87 0.999975 -81.87 0.005743 142.75
8.83320000 0.005721 -126.0 0.999975 -81.87 0.999975 -81.87 0.005714 142.27
8.83340000 0.005693 -125.5 0.999975 -81.88 0.999975 -81.88 0.005686 141.78
8.83360000 0.005665 -125.0 0.999975 -81.88 0.999975 -81.88 0.005658 141.29
8.83380000 0.005637 -124.5 0.999975 -81.89 0.999975 -81.89 0.005631 140.78
8.83400000 0.005610 -124.0 0.999975 -81.89 0.999975 -81.89 0.005603 140.27
8.83420000 0.005583 -123.5 0.999975 -81.90 0.999975 -81.90 0.005576 139.75
8.83440000 0.005556 -123.0 0.999975 -81.90 0.999975 -81.90 0.005549 139.22
8.83460000 0.005529 -122.5 0.999976 -81.91 0.999976 -81.91 0.005522 138.68
8.83480000 0.005503 -121.9 0.999976 -81.91 0.999976 -81.91 0.005496 138.13
8.83500000 0.005477 -121.4 0.999976 -81.92 0.999976 -81.92 0.005469 137.57
8.83520000 0.005451 -120.8 0.999976 -81.92 0.999976 -81.92 0.005443 136.99
8.83540000 0.005425 -120.2 0.999976 -81.93 0.999976 -81.93 0.005418 136.41
8.83560000 0.005400 -119.7 0.999976 -81.94 0.999976 -81.94 0.005392 135.82
8.83580000 0.005375 -119.1 0.999976 -81.94 0.999976 -81.94 0.005368 135.22
8.83600000 0.005351 -118.5 0.999976 -81.95 0.999976 -81.95 0.005343 134.60
8.83620000 0.005327 -117.9 0.999976 -81.95 0.999976 -81.95 0.005319 133.98
8.83640000 0.005303 -117.2 0.999976 -81.96 0.999976 -81.96 0.005295 133.35
8.83660000 0.005280 -116.6 0.999976 -81.96 0.999976 -81.96 0.005272 132.70
8.83680000 0.005257 -116.0 0.999976 -81.97 0.999976 -81.97 0.005249 132.04
8.83700000 0.005235 -115.3 0.999976 -81.97 0.999976 -81.97 0.005227 131.37
8.83720000 0.005214 -114.6 0.999977 -81.98 0.999977 -81.98 0.005205 130.69
8.83740000 0.005192 -113.9 0.999977 -81.98 0.999977 -81.98 0.005184 130.00
8.83760000 0.005172 -113.3 0.999977 -81.99 0.999977 -81.99 0.005163 129.29
8.83780000 0.005152 -112.5 0.999977 -82.00 0.999977 -82.00 0.005143 128.57
8.83800000 0.005133 -111.8 0.999977 -82.00 0.999977 -82.00 0.005123 127.85
8.83820000 0.005114 -111.1 0.999977 -82.01 0.999977 -82.01 0.005105 127.11
8.83840000 0.005096 -110.4 0.999977 -82.01 0.999977 -82.01 0.005086 126.35
8.83860000 0.005079 -109.6 0.999977 -82.02 0.999977 -82.02 0.005069 125.59
8.83880000 0.005062 -108.8 0.999977 -82.03 0.999977 -82.03 0.005052 124.81
8.83900000 0.005046 -108.1 0.999977 -82.03 0.999977 -82.03 0.005037 124.02
8.83920000 0.005032 -107.3 0.999977 -82.04 0.999977 -82.04 0.005021 123.22
8.83940000 0.005017 -106.5 0.999977 -82.04 0.999977 -82.04 0.005007 122.40
8.83960000 0.005004 -105.7 0.999977 -82.05 0.999977 -82.05 0.004994 121.58
8.83980000 0.004992 -104.8 0.999977 -82.05 0.999977 -82.05 0.004982 120.74
8.84000000 0.004981 -104.0 0.999977 -82.06 0.999977 -82.06 0.004970 119.89
8.84020000 0.004970 -103.2 0.999977 -82.07 0.999977 -82.07 0.004960 119.02
8.84040000 0.004961 -102.3 0.999977 -82.07 0.999977 -82.07 0.004950 118.15
8.84060000 0.004953 -101.4 0.999977 -82.08 0.999977 -82.08 0.004942 117.26
8.84080000 0.004946 -100.5 0.999977 -82.09 0.999977 -82.09 0.004934 116.37
8.84100000 0.004940 -99.65 0.999977 -82.09 0.999977 -82.09 0.004928 115.46
8.84120000 0.004935 -98.74 0.999977 -82.10 0.999977 -82.10 0.004923 114.54
8.84140000 0.004931 -97.83 0.999977 -82.10 0.999977 -82.10 0.004920 113.61
8.84160000 0.004929 -96.90 0.999976 -82.11 0.999976 -82.11 0.004917 112.67
8.84180000 0.004928 -95.97 0.999976 -82.12 0.999976 -82.12 0.004916 111.72
8.84200000 0.004928 -95.02 0.999976 -82.12 0.999976 -82.12 0.004916 110.76
8.84220000 0.004930 -94.07 0.999976 -82.13 0.999976 -82.13 0.004918 109.79
8.84240000 0.004933 -93.10 0.999976 -82.14 0.999976 -82.14 0.004921 108.81
8.84260000 0.004938 -92.13 0.999976 -82.14 0.999976 -82.14 0.004925 107.82
8.84280000 0.004944 -91.15 0.999976 -82.15 0.999976 -82.15 0.004931 106.83
8.84300000 0.004951 -90.17 0.999976 -82.16 0.999976 -82.16 0.004939 105.83
8.84320000 0.004961 -89.18 0.999976 -82.16 0.999976 -82.16 0.004948 104.82
8.84340000 0.004971 -88.18 0.999975 -82.17 0.999975 -82.17 0.004958 103.80
8.84360000 0.004984 -87.17 0.999975 -82.18 0.999975 -82.18 0.004971 102.78
8.84380000 0.004998 -86.16 0.999975 -82.19 0.999975 -82.19 0.004985 101.75
8.84400000 0.005014 -85.15 0.999975 -82.19 0.999975 -82.19 0.005001 100.72
8.84420000 0.005032 -84.13 0.999975 -82.20 0.999975 -82.20 0.005018 99.687
8.84440000 0.005051 -83.11 0.999975 -82.21 0.999975 -82.21 0.005038 98.648
8.84460000 0.005073 -82.08 0.999974 -82.21 0.999974 -82.21 0.005059 97.606
8.84480000 0.005096 -81.06 0.999974 -82.22 0.999974 -82.22 0.005082 96.563
8.84500000 0.005121 -80.03 0.999974 -82.23 0.999974 -82.23 0.005107 95.518
8.84520000 0.005148 -79.00 0.999974 -82.24 0.999974 -82.24 0.005134 94.472
8.84540000 0.005177 -77.98 0.999973 -82.24 0.999973 -82.24 0.005163 93.427
8.84560000 0.005209 -76.95 0.999973 -82.25 0.999973 -82.25 0.005194 92.382
8.84580000 0.005242 -75.92 0.999973 -82.26 0.999973 -82.26 0.005227 91.338
8.84600000 0.005277 -74.90 0.999973 -82.27 0.999973 -82.27 0.005262 90.296
8.84620000 0.005314 -73.88 0.999972 -82.27 0.999972 -82.27 0.005300 89.257
8.84640000 0.005354 -72.86 0.999972 -82.28 0.999972 -82.28 0.005339 88.222
8.84660000 0.005396 -71.85 0.999972 -82.29 0.999972 -82.29 0.005381 87.190
8.84680000 0.005439 -70.84 0.999971 -82.30 0.999971 -82.30 0.005425 86.163
8.84700000 0.005486 -69.84 0.999971 -82.30 0.999971 -82.30 0.005471 85.141
8.84720000 0.005534 -68.84 0.999970 -82.31 0.999970 -82.31 0.005519 84.124
8.84740000 0.005584 -67.85 0.999970 -82.32 0.999970 -82.32 0.005569 83.115
8.84760000 0.005637 -66.87 0.999970 -82.33 0.999970 -82.33 0.005622 82.112
8.84780000 0.005692 -65.89 0.999969 -82.34 0.999969 -82.34 0.005677 81.116
8.84800000 0.005750 -64.92 0.999969 -82.35 0.999969 -82.35 0.005735 80.128
8.84820000 0.005810 -63.96 0.999968 -82.35 0.999968 -82.35 0.005794 79.149
8.84840000 0.005872 -63.01 0.999968 -82.36 0.999968 -82.36 0.005857 78.178
8.84860000 0.005937 -62.07 0.999967 -82.37 0.999967 -82.37 0.005921 77.217
8.84880000 0.006004 -61.14 0.999967 -82.38 0.999967 -82.38 0.005988 76.265
8.84900000 0.006073 -60.22 0.999966 -82.39 0.999966 -82.39 0.006057 75.324
8.84920000 0.006145 -59.31 0.999966 -82.40 0.999966 -82.40 0.006129 74.392
8.84940000 0.006219 -58.41 0.999965 -82.41 0.999965 -82.41 0.006204 73.471
8.84960000 0.006296 -57.52 0.999964 -82.42 0.999964 -82.42 0.006280 72.561
8.84980000 0.006375 -56.64 0.999964 -82.42 0.999964 -82.42 0.006360 71.662
8.85000000 0.006457 -55.77 0.999963 -82.43 0.999963 -82.43 0.006441 70.775
8.85020000 0.006541 -54.92 0.999962 -82.44 0.999962 -82.44 0.006526 69.898
8.85040000 0.006628 -54.07 0.999961 -82.45 0.999961 -82.45 0.006613 69.034
8.85060000 0.006718 -53.24 0.999961 -82.46 0.999961 -82.46 0.006702 68.181
8.85080000 0.006810 -52.42 0.999960 -82.47 0.999960 -82.47 0.006794 67.340
8.85100000 0.006904 -51.61 0.999959 -82.48 0.999959 -82.48 0.006889 66.511
8.85120000 0.007002 -50.82 0.999958 -82.49 0.999958 -82.49 0.006986 65.694
8.85140000 0.007102 -50.03 0.999957 -82.50 0.999957 -82.50 0.007086 64.889
8.85160000 0.007204 -49.26 0.999956 -82.51 0.999956 -82.51 0.007188 64.097
8.85180000 0.007310 -48.50 0.999955 -82.52 0.999955 -82.52 0.007294 63.316
8.85190561 0.007366 -48.11 0.999955 -82.53 0.999955 -82.53 0.007350 62.909
8.85200000 0.007417 -47.76 0.999954 -82.53 0.999954 -82.53 0.007402 62.547
8.85220000 0.007528 -47.02 0.999953 -82.54 0.999953 -82.54 0.007512 61.791
8.85240000 0.007642 -46.30 0.999952 -82.55 0.999952 -82.55 0.007626 61.046
8.85259506 0.007755 -45.61 0.999951 -82.56 0.999951 -82.56 0.007739 60.332
8.85260000 0.007758 -45.59 0.999951 -82.56 0.999951 -82.56 0.007742 60.314
8.85280000 0.007877 -44.89 0.999950 -82.57 0.999950 -82.57 0.007861 59.593
8.85300000 0.007999 -44.21 0.999949 -82.58 0.999949 -82.58 0.007983 58.884
8.85320000 0.008124 -43.53 0.999948 -82.59 0.999948 -82.59 0.008108 58.187
8.85326871 0.008167 -43.31 0.999947 -82.60 0.999947 -82.60 0.008151 57.950
8.85340000 0.008251 -42.87 0.999946 -82.60 0.999946 -82.60 0.008235 57.502
8.85360000 0.008382 -42.22 0.999945 -82.62 0.999945 -82.62 0.008366 56.827
8.85380000 0.008515 -41.58 0.999944 -82.63 0.999944 -82.63 0.008500 56.165
8.85392692 0.008602 -41.18 0.999943 -82.63 0.999943 -82.63 0.008586 55.750
8.85400000 0.008652 -40.95 0.999942 -82.64 0.999942 -82.64 0.008636 55.513
8.85420000 0.008792 -40.34 0.999941 -82.65 0.999941 -82.65 0.008776 54.873
8.85440000 0.008934 -39.73 0.999939 -82.66 0.999939 -82.66 0.008918 54.243
8.85457005 0.009058 -39.23 0.999938 -82.67 0.999938 -82.67 0.009042 53.716
8.85460000 0.009080 -39.14 0.999938 -82.67 0.999938 -82.67 0.009064 53.624
8.85480000 0.009229 -38.56 0.999936 -82.69 0.999936 -82.69 0.009213 53.016
8.85500000 0.009381 -37.98 0.999935 -82.70 0.999935 -82.70 0.009365 52.418
8.85519845 0.009535 -37.43 0.999933 -82.71 0.999933 -82.71 0.009519 51.835
8.85520000 0.009536 -37.42 0.999933 -82.71 0.999933 -82.71 0.009520 51.830
8.85540000 0.009695 -36.87 0.999931 -82.72 0.999931 -82.72 0.009679 51.253
8.85560000 0.009857 -36.33 0.999929 -82.73 0.999929 -82.73 0.009841 50.685
8.85580000 0.010022 -35.80 0.999927 -82.75 0.999927 -82.75 0.010006 50.128
8.85581244 0.010033 -35.76 0.999927 -82.75 0.999927 -82.75 0.010017 50.093
8.85600000 0.010191 -35.28 0.999925 -82.76 0.999925 -82.76 0.010175 49.580
8.85620000 0.010363 -34.76 0.999923 -82.77 0.999923 -82.77 0.010347 49.041
8.85640000 0.010539 -34.26 0.999921 -82.79 0.999921 -82.79 0.010523 48.511
8.85641237 0.010550 -34.23 0.999921 -82.79 0.999921 -82.79 0.010534 48.479
8.85660000 0.010719 -33.77 0.999919 -82.80 0.999919 -82.80 0.010703 47.991
8.85680000 0.010902 -33.29 0.999916 -82.81 0.999916 -82.81 0.010886 47.480
8.85699855 0.011087 -32.81 0.999914 -82.83 0.999914 -82.83 0.011071 46.980
8.85700000 0.011089 -32.81 0.999914 -82.83 0.999914 -82.83 0.011073 46.977
8.85720000 0.011280 -32.35 0.999912 -82.84 0.999912 -82.84 0.011264 46.483
8.85740000 0.011474 -31.89 0.999909 -82.86 0.999909 -82.86 0.011458 45.997
8.85757130 0.011644 -31.50 0.999907 -82.87 0.999907 -82.87 0.011628 45.587
8.85760000 0.011673 -31.44 0.999906 -82.87 0.999906 -82.87 0.011657 45.519
8.85780000 0.011875 -31.00 0.999904 -82.88 0.999904 -82.88 0.011859 45.049
8.85800000 0.012082 -30.57 0.999901 -82.90 0.999901 -82.90 0.012066 44.588
8.85813092 0.012220 -30.29 0.999899 -82.91 0.999899 -82.91 0.012204 44.290
8.85820000 0.012293 -30.15 0.999898 -82.91 0.999898 -82.91 0.012277 44.134
8.85840000 0.012508 -29.73 0.999895 -82.93 0.999895 -82.93 0.012492 43.687
8.85860000 0.012728 -29.32 0.999892 -82.95 0.999892 -82.95 0.012712 43.248
8.85867772 0.012814 -29.17 0.999890 -82.95 0.999890 -82.95 0.012798 43.079
8.85880000 0.012952 -28.92 0.999888 -82.96 0.999888 -82.96 0.012936 42.816
8.85900000 0.013181 -28.53 0.999885 -82.98 0.999885 -82.98 0.013165 42.391
8.85920000 0.013414 -28.15 0.999881 -82.99 0.999881 -82.99 0.013398 41.973
8.85921199 0.013428 -28.12 0.999881 -82.99 0.999881 -82.99 0.013412 41.948
8.85940000 0.013652 -27.77 0.999878 -83.01 0.999878 -83.01 0.013636 41.562
8.85960000 0.013895 -27.40 0.999874 -83.03 0.999874 -83.03 0.013879 41.157
8.85973402 0.014061 -27.16 0.999871 -83.04 0.999871 -83.04 0.014045 40.890
8.85980000 0.014143 -27.04 0.999870 -83.04 0.999870 -83.04 0.014127 40.759
8.86000000 0.014396 -26.68 0.999866 -83.06 0.999866 -83.06 0.014380 40.367
8.86020000 0.014655 -26.33 0.999861 -83.08 0.999861 -83.08 0.014639 39.982
8.86024409 0.014713 -26.25 0.999860 -83.08 0.999860 -83.08 0.014696 39.897
8.86040000 0.014919 -25.99 0.999857 -83.10 0.999857 -83.10 0.014902 39.602
8.86060000 0.015188 -25.65 0.999852 -83.11 0.999852 -83.11 0.015172 39.228
8.86074247 0.015384 -25.41 0.999849 -83.13 0.999849 -83.13 0.015367 38.965
8.86080000 0.015463 -25.32 0.999848 -83.13 0.999848 -83.13 0.015447 38.860
8.86100000 0.015744 -25.00 0.999843 -83.15 0.999843 -83.15 0.015728 38.497
8.86120000 0.016031 -24.68 0.999838 -83.17 0.999838 -83.17 0.016014 38.140
8.86122943 0.016074 -24.63 0.999837 -83.17 0.999837 -83.17 0.016057 38.088
8.86140000 0.016324 -24.37 0.999832 -83.19 0.999832 -83.19 0.016307 37.788
8.86160000 0.016623 -24.06 0.999827 -83.21 0.999827 -83.21 0.016607 37.441
8.86170524 0.016783 -23.90 0.999824 -83.22 0.999824 -83.22 0.016767 37.261
8.86180000 0.016929 -23.76 0.999821 -83.23 0.999821 -83.23 0.016912 37.100
8.86200000 0.017241 -23.46 0.999815 -83.25 0.999815 -83.25 0.017225 36.763
8.86217014 0.017512 -23.22 0.999810 -83.27 0.999810 -83.27 0.017496 36.481
8.86220000 0.017561 -23.17 0.999809 -83.27 0.999809 -83.27 0.017544 36.431
8.86240000 0.017887 -22.89 0.999802 -83.29 0.999802 -83.29 0.017870 36.104
8.86260000 0.018220 -22.61 0.999795 -83.31 0.999795 -83.31 0.018203 35.782
8.86262438 0.018262 -22.58 0.999795 -83.32 0.999795 -83.32 0.018245 35.743
8.86280000 0.018561 -22.34 0.999788 -83.34 0.999788 -83.34 0.018544 35.463
8.86300000 0.018910 -22.07 0.999781 -83.36 0.999781 -83.36 0.018893 35.150
8.86306822 0.019031 -21.98 0.999779 -83.37 0.999779 -83.37 0.019014 35.044
8.86320000 0.019267 -21.81 0.999774 -83.38 0.999774 -83.38 0.019249 34.840
8.86340000 0.019631 -21.55 0.999766 -83.41 0.999766 -83.41 0.019614 34.535
8.86350189 0.019820 -21.42 0.999761 -83.42 0.999761 -83.42 0.019803 34.380
8.86360000 0.020004 -21.30 0.999757 -83.43 0.999757 -83.43 0.019987 34.233
8.86380000 0.020386 -21.05 0.999749 -83.45 0.999749 -83.45 0.020369 33.935
8.86392562 0.020631 -20.90 0.999743 -83.47 0.999743 -83.47 0.020613 33.751
8.86400000 0.020777 -20.81 0.999740 -83.48 0.999740 -83.48 0.020760 33.642
8.86420000 0.021177 -20.57 0.999731 -83.50 0.999731 -83.50 0.021159 33.352
8.86433965 0.021462 -20.41 0.999724 -83.52 0.999724 -83.52 0.021444 33.151
8.86440000 0.021586 -20.34 0.999721 -83.53 0.999721 -83.53 0.021569 33.065
8.86460000 0.022006 -20.11 0.999711 -83.56 0.999711 -83.56 0.021988 32.782
8.86474418 0.022315 -19.95 0.999703 -83.58 0.999703 -83.58 0.022297 32.580
8.86480000 0.022436 -19.88 0.999700 -83.58 0.999700 -83.58 0.022418 32.502
8.86500000 0.022876 -19.66 0.999689 -83.61 0.999689 -83.61 0.022858 32.226
8.86513945 0.023189 -19.51 0.999681 -83.63 0.999681 -83.63 0.023171 32.035
8.86520000 0.023327 -19.45 0.999678 -83.64 0.999678 -83.64 0.023309 31.952
8.86540000 0.023789 -19.24 0.999666 -83.67 0.999666 -83.67 0.023771 31.682
8.86552566 0.024086 -19.11 0.999658 -83.69 0.999658 -83.69 0.024068 31.514
8.86560000 0.024263 -19.03 0.999653 -83.70 0.999653 -83.70 0.024245 31.415
8.86580000 0.024750 -18.83 0.999640 -83.73 0.999640 -83.73 0.024731 31.150
8.86590302 0.025005 -18.73 0.999633 -83.74 0.999633 -83.74 0.024987 31.015
8.86600000 0.025249 -18.63 0.999626 -83.76 0.999626 -83.76 0.025230 30.888
8.86620000 0.025760 -18.44 0.999612 -83.79 0.999612 -83.79 0.025742 30.629
8.86627173 0.025947 -18.37 0.999606 -83.80 0.999606 -83.80 0.025929 30.537
8.86640000 0.026286 -18.25 0.999597 -83.82 0.999597 -83.82 0.026267 30.373
8.86660000 0.026825 -18.06 0.999581 -83.86 0.999581 -83.86 0.026807 30.119
8.86663199 0.026913 -18.03 0.999578 -83.86 0.999578 -83.86 0.026894 30.078
8.86680000 0.027380 -17.88 0.999564 -83.89 0.999564 -83.89 0.027361 29.867
8.86698400 0.027903 -17.72 0.999548 -83.92 0.999548 -83.92 0.027884 29.637
8.86700000 0.027949 -17.70 0.999547 -83.93 0.999547 -83.93 0.027930 29.618
8.86720000 0.028534 -17.53 0.999529 -83.96 0.999529 -83.96 0.028515 29.370
8.86732795 0.028917 -17.42 0.999517 -83.99 0.999517 -83.99 0.028898 29.213
8.86740000 0.029136 -17.36 0.999510 -84.00 0.999510 -84.00 0.029116 29.125
8.86760000 0.029754 -17.19 0.999490 -84.04 0.999490 -84.04 0.029735 28.882
8.86766401 0.029956 -17.14 0.999483 -84.05 0.999483 -84.05 0.029936 28.804
8.86780000 0.030391 -17.03 0.999469 -84.08 0.999469 -84.08 0.030371 28.640
8.86799237 0.031020 -16.88 0.999448 -84.11 0.999448 -84.11 0.031001 28.410
8.86800000 0.031046 -16.87 0.999447 -84.12 0.999447 -84.12 0.031026 28.401
8.86820000 0.031720 -16.72 0.999424 -84.16 0.999424 -84.16 0.031700 28.163
8.86831321 0.032111 -16.63 0.999410 -84.18 0.999410 -84.18 0.032091 28.029
8.86840000 0.032415 -16.57 0.999399 -84.20 0.999399 -84.20 0.032395 27.927
8.86860000 0.033131 -16.42 0.999374 -84.24 0.999374 -84.24 0.033110 27.692
8.86862670 0.033228 -16.40 0.999370 -84.25 0.999370 -84.25 0.033208 27.660
8.86880000 0.033869 -16.28 0.999347 -84.29 0.999347 -84.29 0.033848 27.458
8.86893300 0.034372 -16.19 0.999328 -84.32 0.999328 -84.32 0.034351 27.303
8.86900000 0.034630 -16.14 0.999318 -84.33 0.999318 -84.33 0.034609 27.226
8.86920000 0.035415 -16.01 0.999288 -84.38 0.999288 -84.38 0.035394 26.994
8.86923228 0.035544 -15.99 0.999283 -84.39 0.999283 -84.39 0.035523 26.957
8.86940000 0.036225 -15.88 0.999257 -84.43 0.999257 -84.43 0.036204 26.764
8.86952471 0.036744 -15.80 0.999236 -84.46 0.999236 -84.46 0.036723 26.621
8.86960000 0.037062 -15.75 0.999223 -84.48 0.999223 -84.48 0.037041 26.535
8.86980000 0.037927 -15.63 0.999188 -84.53 0.999188 -84.53 0.037905 26.306
8.86981044 0.037973 -15.62 0.999186 -84.53 0.999186 -84.53 0.037951 26.294
8.87000000 0.038821 -15.51 0.999151 -84.58 0.999151 -84.58 0.038799 26.078
8.87008962 0.039231 -15.46 0.999133 -84.61 0.999133 -84.61 0.039209 25.976
8.87020000 0.039746 -15.40 0.999111 -84.64 0.999111 -84.64 0.039723 25.851