! Sonnet Data File
! From: emgraph Version : 16.52
! From Project: Resonator2_cp_varyW
! Data is De-embedded 
! Data File Written: 10/07/2017 09:25:24
!< HDATE 10/06/2017 17:18:21
!< MDATE 10/06/2017 17:18:21
!< PARAMS
!< gap = 26.0
!< Length = 400.0
!< Pwid1 = 2000.0
!< Pwid2 = 2000.0
!< Air_gap = 30.0
!< Width = 50.0
!< END PARAMS
# GHZ S MA R 51.80000
8.80000000 0.023207 -168.6 0.999727 -80.67 0.999727 -80.67 0.023207 -172.8
!< P1 F=8.8 Eeff=(6.4404796 -2.969e-5) Z0=(50.4071347 1.16291e-4) R=0.0 C=0.0 
!< P2 F=8.8 Eeff=(6.4404796 -2.969e-5) Z0=(50.4071347 1.16291e-4) R=0.0 C=0.0 
8.80020000 0.023205 -168.6 0.999727 -80.68 0.999727 -80.68 0.023205 -172.8
8.80040000 0.023203 -168.6 0.999727 -80.68 0.999727 -80.68 0.023203 -172.8
8.80060000 0.023201 -168.6 0.999727 -80.68 0.999727 -80.68 0.023201 -172.8
8.80080000 0.023200 -168.6 0.999727 -80.68 0.999727 -80.68 0.023200 -172.8
8.80100000 0.023198 -168.6 0.999727 -80.68 0.999727 -80.68 0.023198 -172.8
8.80120000 0.023196 -168.6 0.999727 -80.69 0.999727 -80.69 0.023196 -172.8
8.80140000 0.023194 -168.6 0.999728 -80.69 0.999728 -80.69 0.023194 -172.8
8.80160000 0.023193 -168.6 0.999728 -80.69 0.999728 -80.69 0.023193 -172.8
8.80180000 0.023191 -168.6 0.999728 -80.69 0.999728 -80.69 0.023191 -172.8
8.80200000 0.023189 -168.6 0.999728 -80.69 0.999728 -80.69 0.023189 -172.8
8.80220000 0.023187 -168.6 0.999728 -80.70 0.999728 -80.70 0.023187 -172.8
8.80240000 0.023185 -168.6 0.999728 -80.70 0.999728 -80.70 0.023185 -172.8
8.80260000 0.023184 -168.6 0.999728 -80.70 0.999728 -80.70 0.023184 -172.8
8.80280000 0.023182 -168.6 0.999728 -80.70 0.999728 -80.70 0.023182 -172.8
8.80300000 0.023180 -168.6 0.999728 -80.70 0.999728 -80.70 0.023180 -172.9
8.80320000 0.023178 -168.6 0.999728 -80.70 0.999728 -80.70 0.023178 -172.9
8.80340000 0.023176 -168.6 0.999728 -80.71 0.999728 -80.71 0.023176 -172.9
8.80360000 0.023174 -168.6 0.999728 -80.71 0.999728 -80.71 0.023174 -172.9
8.80380000 0.023172 -168.6 0.999728 -80.71 0.999728 -80.71 0.023172 -172.9
8.80400000 0.023171 -168.6 0.999728 -80.71 0.999728 -80.71 0.023171 -172.9
8.80420000 0.023169 -168.6 0.999728 -80.71 0.999728 -80.71 0.023169 -172.9
8.80440000 0.023167 -168.6 0.999728 -80.72 0.999728 -80.72 0.023167 -172.9
8.80460000 0.023165 -168.6 0.999728 -80.72 0.999728 -80.72 0.023165 -172.9
8.80480000 0.023163 -168.6 0.999728 -80.72 0.999728 -80.72 0.023163 -172.9
8.80500000 0.023161 -168.6 0.999728 -80.72 0.999728 -80.72 0.023161 -172.9
8.80520000 0.023159 -168.6 0.999728 -80.72 0.999728 -80.72 0.023159 -172.9
8.80540000 0.023157 -168.6 0.999728 -80.73 0.999728 -80.73 0.023157 -172.9
8.80560000 0.023155 -168.6 0.999728 -80.73 0.999728 -80.73 0.023155 -172.9
8.80580000 0.023153 -168.6 0.999728 -80.73 0.999728 -80.73 0.023153 -172.9
8.80600000 0.023151 -168.6 0.999728 -80.73 0.999728 -80.73 0.023151 -172.9
8.80620000 0.023149 -168.6 0.999729 -80.73 0.999729 -80.73 0.023149 -172.9
8.80640000 0.023147 -168.6 0.999729 -80.74 0.999729 -80.74 0.023147 -172.9
8.80660000 0.023145 -168.6 0.999729 -80.74 0.999729 -80.74 0.023145 -172.9
8.80680000 0.023143 -168.6 0.999729 -80.74 0.999729 -80.74 0.023143 -172.9
8.80700000 0.023141 -168.6 0.999729 -80.74 0.999729 -80.74 0.023141 -172.9
8.80720000 0.023139 -168.6 0.999729 -80.74 0.999729 -80.74 0.023139 -172.9
8.80740000 0.023137 -168.6 0.999729 -80.75 0.999729 -80.75 0.023137 -172.9
8.80760000 0.023135 -168.6 0.999729 -80.75 0.999729 -80.75 0.023135 -173.0
8.80780000 0.023133 -168.6 0.999729 -80.75 0.999729 -80.75 0.023133 -173.0
8.80800000 0.023131 -168.6 0.999729 -80.75 0.999729 -80.75 0.023131 -173.0
8.80820000 0.023129 -168.6 0.999729 -80.75 0.999729 -80.75 0.023129 -173.0
8.80840000 0.023127 -168.6 0.999729 -80.76 0.999729 -80.76 0.023127 -173.0
8.80860000 0.023125 -168.6 0.999729 -80.76 0.999729 -80.76 0.023125 -173.0
8.80880000 0.023123 -168.6 0.999729 -80.76 0.999729 -80.76 0.023123 -173.0
8.80900000 0.023121 -168.6 0.999729 -80.76 0.999729 -80.76 0.023121 -173.0
8.80920000 0.023119 -168.6 0.999729 -80.76 0.999729 -80.76 0.023119 -173.0
8.80940000 0.023117 -168.6 0.999729 -80.77 0.999729 -80.77 0.023117 -173.0
8.80960000 0.023115 -168.5 0.999729 -80.77 0.999729 -80.77 0.023115 -173.0
8.80980000 0.023113 -168.5 0.999729 -80.77 0.999729 -80.77 0.023113 -173.0
8.81000000 0.023110 -168.5 0.999729 -80.77 0.999729 -80.77 0.023110 -173.0
8.81020000 0.023108 -168.5 0.999729 -80.77 0.999729 -80.77 0.023108 -173.0
8.81040000 0.023106 -168.5 0.999729 -80.78 0.999729 -80.78 0.023106 -173.0
8.81060000 0.023104 -168.5 0.999730 -80.78 0.999730 -80.78 0.023104 -173.0
8.81080000 0.023102 -168.5 0.999730 -80.78 0.999730 -80.78 0.023102 -173.0
8.81100000 0.023100 -168.5 0.999730 -80.78 0.999730 -80.78 0.023100 -173.0
8.81120000 0.023097 -168.5 0.999730 -80.78 0.999730 -80.78 0.023097 -173.0
8.81140000 0.023095 -168.5 0.999730 -80.79 0.999730 -80.79 0.023095 -173.0
8.81160000 0.023093 -168.5 0.999730 -80.79 0.999730 -80.79 0.023093 -173.0
8.81180000 0.023091 -168.5 0.999730 -80.79 0.999730 -80.79 0.023091 -173.0
8.81200000 0.023089 -168.5 0.999730 -80.79 0.999730 -80.79 0.023089 -173.1
8.81220000 0.023086 -168.5 0.999730 -80.79 0.999730 -80.79 0.023086 -173.1
8.81240000 0.023084 -168.5 0.999730 -80.80 0.999730 -80.80 0.023084 -173.1
8.81260000 0.023082 -168.5 0.999730 -80.80 0.999730 -80.80 0.023082 -173.1
8.81280000 0.023080 -168.5 0.999730 -80.80 0.999730 -80.80 0.023080 -173.1
8.81300000 0.023077 -168.5 0.999730 -80.80 0.999730 -80.80 0.023077 -173.1
8.81320000 0.023075 -168.5 0.999730 -80.80 0.999730 -80.80 0.023075 -173.1
8.81340000 0.023073 -168.5 0.999730 -80.81 0.999730 -80.81 0.023073 -173.1
8.81360000 0.023070 -168.5 0.999730 -80.81 0.999730 -80.81 0.023070 -173.1
8.81380000 0.023068 -168.5 0.999730 -80.81 0.999730 -80.81 0.023068 -173.1
8.81400000 0.023066 -168.5 0.999730 -80.81 0.999730 -80.81 0.023066 -173.1
8.81420000 0.023063 -168.5 0.999730 -80.81 0.999730 -80.81 0.023063 -173.1
8.81440000 0.023061 -168.5 0.999731 -80.82 0.999731 -80.82 0.023061 -173.1
8.81460000 0.023059 -168.5 0.999731 -80.82 0.999731 -80.82 0.023059 -173.1
8.81480000 0.023056 -168.5 0.999731 -80.82 0.999731 -80.82 0.023056 -173.1
8.81500000 0.023054 -168.5 0.999731 -80.82 0.999731 -80.82 0.023054 -173.1
8.81520000 0.023051 -168.5 0.999731 -80.82 0.999731 -80.82 0.023051 -173.1
8.81540000 0.023049 -168.5 0.999731 -80.83 0.999731 -80.83 0.023049 -173.1
8.81560000 0.023047 -168.5 0.999731 -80.83 0.999731 -80.83 0.023047 -173.1
8.81580000 0.023044 -168.5 0.999731 -80.83 0.999731 -80.83 0.023044 -173.1
8.81600000 0.023042 -168.5 0.999731 -80.83 0.999731 -80.83 0.023042 -173.1
8.81620000 0.023039 -168.5 0.999731 -80.83 0.999731 -80.83 0.023039 -173.2
8.81640000 0.023037 -168.5 0.999731 -80.83 0.999731 -80.83 0.023037 -173.2
8.81660000 0.023034 -168.5 0.999731 -80.84 0.999731 -80.84 0.023034 -173.2
8.81680000 0.023032 -168.5 0.999731 -80.84 0.999731 -80.84 0.023032 -173.2
8.81700000 0.023029 -168.5 0.999731 -80.84 0.999731 -80.84 0.023029 -173.2
8.81720000 0.023027 -168.5 0.999731 -80.84 0.999731 -80.84 0.023027 -173.2
8.81740000 0.023024 -168.5 0.999731 -80.84 0.999731 -80.84 0.023024 -173.2
8.81760000 0.023022 -168.5 0.999731 -80.85 0.999731 -80.85 0.023022 -173.2
8.81780000 0.023019 -168.5 0.999731 -80.85 0.999731 -80.85 0.023019 -173.2
8.81800000 0.023017 -168.5 0.999731 -80.85 0.999731 -80.85 0.023017 -173.2
8.81820000 0.023014 -168.5 0.999732 -80.85 0.999732 -80.85 0.023014 -173.2
8.81840000 0.023011 -168.5 0.999732 -80.85 0.999732 -80.85 0.023011 -173.2
8.81860000 0.023009 -168.5 0.999732 -80.86 0.999732 -80.86 0.023009 -173.2
8.81880000 0.023006 -168.5 0.999732 -80.86 0.999732 -80.86 0.023006 -173.2
8.81900000 0.023004 -168.5 0.999732 -80.86 0.999732 -80.86 0.023004 -173.2
8.81920000 0.023001 -168.5 0.999732 -80.86 0.999732 -80.86 0.023001 -173.2
8.81940000 0.022998 -168.5 0.999732 -80.86 0.999732 -80.86 0.022998 -173.2
8.81960000 0.022996 -168.5 0.999732 -80.87 0.999732 -80.87 0.022996 -173.2
8.81980000 0.022993 -168.5 0.999732 -80.87 0.999732 -80.87 0.022993 -173.2
8.82000000 0.022990 -168.5 0.999732 -80.87 0.999732 -80.87 0.022990 -173.2
8.82020000 0.022988 -168.5 0.999732 -80.87 0.999732 -80.87 0.022988 -173.3
8.82040000 0.022985 -168.5 0.999732 -80.88 0.999732 -80.88 0.022985 -173.3
8.82060000 0.022982 -168.5 0.999732 -80.88 0.999732 -80.88 0.022982 -173.3
8.82080000 0.022979 -168.5 0.999732 -80.88 0.999732 -80.88 0.022979 -173.3
8.82100000 0.022977 -168.5 0.999732 -80.88 0.999732 -80.88 0.022977 -173.3
8.82120000 0.022974 -168.5 0.999732 -80.88 0.999732 -80.88 0.022974 -173.3
8.82140000 0.022971 -168.5 0.999733 -80.89 0.999733 -80.89 0.022971 -173.3
8.82160000 0.022968 -168.5 0.999733 -80.89 0.999733 -80.89 0.022968 -173.3
8.82180000 0.022966 -168.5 0.999733 -80.89 0.999733 -80.89 0.022965 -173.3
8.82200000 0.022963 -168.5 0.999733 -80.89 0.999733 -80.89 0.022963 -173.3
8.82220000 0.022960 -168.5 0.999733 -80.89 0.999733 -80.89 0.022960 -173.3
8.82240000 0.022957 -168.5 0.999733 -80.90 0.999733 -80.90 0.022957 -173.3
8.82260000 0.022954 -168.5 0.999733 -80.90 0.999733 -80.90 0.022954 -173.3
8.82280000 0.022951 -168.5 0.999733 -80.90 0.999733 -80.90 0.022951 -173.3
8.82300000 0.022948 -168.5 0.999733 -80.90 0.999733 -80.90 0.022948 -173.3
8.82320000 0.022945 -168.5 0.999733 -80.90 0.999733 -80.90 0.022945 -173.3
8.82340000 0.022942 -168.5 0.999733 -80.91 0.999733 -80.91 0.022942 -173.3
8.82360000 0.022940 -168.5 0.999733 -80.91 0.999733 -80.91 0.022939 -173.3
8.82380000 0.022937 -168.5 0.999733 -80.91 0.999733 -80.91 0.022936 -173.4
8.82400000 0.022934 -168.5 0.999733 -80.91 0.999733 -80.91 0.022934 -173.4
8.82420000 0.022931 -168.5 0.999733 -80.91 0.999733 -80.91 0.022931 -173.4
8.82440000 0.022928 -168.5 0.999733 -80.92 0.999733 -80.92 0.022928 -173.4
8.82460000 0.022925 -168.5 0.999734 -80.92 0.999734 -80.92 0.022925 -173.4
8.82480000 0.022922 -168.5 0.999734 -80.92 0.999734 -80.92 0.022921 -173.4
8.82500000 0.022919 -168.5 0.999734 -80.92 0.999734 -80.92 0.022918 -173.4
8.82520000 0.022915 -168.5 0.999734 -80.92 0.999734 -80.92 0.022915 -173.4
8.82540000 0.022912 -168.5 0.999734 -80.93 0.999734 -80.93 0.022912 -173.4
8.82560000 0.022909 -168.5 0.999734 -80.93 0.999734 -80.93 0.022909 -173.4
8.82580000 0.022906 -168.5 0.999734 -80.93 0.999734 -80.93 0.022906 -173.4
8.82600000 0.022903 -168.5 0.999734 -80.93 0.999734 -80.93 0.022903 -173.4
8.82620000 0.022900 -168.5 0.999734 -80.93 0.999734 -80.93 0.022900 -173.4
8.82640000 0.022897 -168.5 0.999734 -80.94 0.999734 -80.94 0.022897 -173.4
8.82660000 0.022894 -168.5 0.999734 -80.94 0.999734 -80.94 0.022893 -173.4
8.82680000 0.022890 -168.5 0.999734 -80.94 0.999734 -80.94 0.022890 -173.4
8.82700000 0.022887 -168.5 0.999734 -80.94 0.999734 -80.94 0.022887 -173.4
8.82720000 0.022884 -168.4 0.999734 -80.94 0.999734 -80.94 0.022884 -173.4
8.82740000 0.022881 -168.4 0.999735 -80.95 0.999735 -80.95 0.022881 -173.5
8.82760000 0.022877 -168.4 0.999735 -80.95 0.999735 -80.95 0.022877 -173.5
8.82780000 0.022874 -168.4 0.999735 -80.95 0.999735 -80.95 0.022874 -173.5
8.82800000 0.022871 -168.4 0.999735 -80.95 0.999735 -80.95 0.022871 -173.5
8.82820000 0.022867 -168.4 0.999735 -80.95 0.999735 -80.95 0.022867 -173.5
8.82840000 0.022864 -168.4 0.999735 -80.96 0.999735 -80.96 0.022864 -173.5
8.82860000 0.022861 -168.4 0.999735 -80.96 0.999735 -80.96 0.022861 -173.5
8.82880000 0.022857 -168.4 0.999735 -80.96 0.999735 -80.96 0.022857 -173.5
8.82900000 0.022854 -168.4 0.999735 -80.96 0.999735 -80.96 0.022854 -173.5
8.82920000 0.022851 -168.4 0.999735 -80.96 0.999735 -80.96 0.022851 -173.5
8.82940000 0.022847 -168.4 0.999735 -80.97 0.999735 -80.97 0.022847 -173.5
8.82960000 0.022844 -168.4 0.999735 -80.97 0.999735 -80.97 0.022844 -173.5
8.82980000 0.022840 -168.4 0.999735 -80.97 0.999735 -80.97 0.022840 -173.5
8.83000000 0.022837 -168.4 0.999736 -80.97 0.999736 -80.97 0.022837 -173.5
8.83020000 0.022833 -168.4 0.999736 -80.97 0.999736 -80.97 0.022833 -173.5
8.83040000 0.022830 -168.4 0.999736 -80.98 0.999736 -80.98 0.022830 -173.5
8.83060000 0.022826 -168.4 0.999736 -80.98 0.999736 -80.98 0.022826 -173.6
8.83080000 0.022823 -168.4 0.999736 -80.98 0.999736 -80.98 0.022823 -173.6
8.83100000 0.022819 -168.4 0.999736 -80.98 0.999736 -80.98 0.022819 -173.6
8.83120000 0.022816 -168.4 0.999736 -80.98 0.999736 -80.98 0.022815 -173.6
8.83140000 0.022812 -168.4 0.999736 -80.99 0.999736 -80.99 0.022812 -173.6
8.83160000 0.022808 -168.4 0.999736 -80.99 0.999736 -80.99 0.022808 -173.6
8.83180000 0.022805 -168.4 0.999736 -80.99 0.999736 -80.99 0.022804 -173.6
8.83200000 0.022801 -168.4 0.999736 -80.99 0.999736 -80.99 0.022801 -173.6
8.83220000 0.022797 -168.4 0.999736 -81.00 0.999736 -81.00 0.022797 -173.6
8.83240000 0.022793 -168.4 0.999736 -81.00 0.999736 -81.00 0.022793 -173.6
8.83260000 0.022790 -168.4 0.999737 -81.00 0.999737 -81.00 0.022790 -173.6
8.83280000 0.022786 -168.4 0.999737 -81.00 0.999737 -81.00 0.022786 -173.6
8.83300000 0.022782 -168.4 0.999737 -81.00 0.999737 -81.00 0.022782 -173.6
8.83320000 0.022778 -168.4 0.999737 -81.01 0.999737 -81.01 0.022778 -173.6
8.83340000 0.022775 -168.4 0.999737 -81.01 0.999737 -81.01 0.022774 -173.6
8.83360000 0.022771 -168.4 0.999737 -81.01 0.999737 -81.01 0.022771 -173.6
8.83380000 0.022767 -168.4 0.999737 -81.01 0.999737 -81.01 0.022767 -173.7
8.83400000 0.022763 -168.4 0.999737 -81.01 0.999737 -81.01 0.022763 -173.7
8.83420000 0.022759 -168.4 0.999737 -81.02 0.999737 -81.02 0.022759 -173.7
8.83440000 0.022755 -168.4 0.999737 -81.02 0.999737 -81.02 0.022755 -173.7
8.83460000 0.022751 -168.4 0.999737 -81.02 0.999737 -81.02 0.022751 -173.7
8.83480000 0.022747 -168.4 0.999737 -81.02 0.999737 -81.02 0.022747 -173.7
8.83500000 0.022743 -168.4 0.999738 -81.02 0.999738 -81.02 0.022743 -173.7
8.83520000 0.022739 -168.4 0.999738 -81.03 0.999738 -81.03 0.022739 -173.7
8.83540000 0.022735 -168.4 0.999738 -81.03 0.999738 -81.03 0.022735 -173.7
8.83560000 0.022731 -168.4 0.999738 -81.03 0.999738 -81.03 0.022731 -173.7
8.83580000 0.022727 -168.3 0.999738 -81.03 0.999738 -81.03 0.022727 -173.7
8.83600000 0.022723 -168.3 0.999738 -81.03 0.999738 -81.03 0.022723 -173.7
8.83620000 0.022719 -168.3 0.999738 -81.04 0.999738 -81.04 0.022718 -173.7
8.83640000 0.022714 -168.3 0.999738 -81.04 0.999738 -81.04 0.022714 -173.7
8.83660000 0.022710 -168.3 0.999738 -81.04 0.999738 -81.04 0.022710 -173.8
8.83680000 0.022706 -168.3 0.999738 -81.04 0.999738 -81.04 0.022706 -173.8
8.83700000 0.022702 -168.3 0.999738 -81.05 0.999738 -81.05 0.022701 -173.8
8.83720000 0.022697 -168.3 0.999739 -81.05 0.999739 -81.05 0.022697 -173.8
8.83740000 0.022693 -168.3 0.999739 -81.05 0.999739 -81.05 0.022693 -173.8
8.83760000 0.022689 -168.3 0.999739 -81.05 0.999739 -81.05 0.022689 -173.8
8.83780000 0.022684 -168.3 0.999739 -81.05 0.999739 -81.05 0.022684 -173.8
8.83800000 0.022680 -168.3 0.999739 -81.06 0.999739 -81.06 0.022680 -173.8
8.83820000 0.022676 -168.3 0.999739 -81.06 0.999739 -81.06 0.022675 -173.8
8.83840000 0.022671 -168.3 0.999739 -81.06 0.999739 -81.06 0.022671 -173.8
8.83860000 0.022667 -168.3 0.999739 -81.06 0.999739 -81.06 0.022666 -173.8
8.83880000 0.022662 -168.3 0.999739 -81.06 0.999739 -81.06 0.022662 -173.8
8.83900000 0.022658 -168.3 0.999739 -81.07 0.999739 -81.07 0.022657 -173.8
8.83920000 0.022653 -168.3 0.999740 -81.07 0.999740 -81.07 0.022653 -173.9
8.83940000 0.022649 -168.3 0.999740 -81.07 0.999740 -81.07 0.022648 -173.9
8.83960000 0.022644 -168.3 0.999740 -81.07 0.999740 -81.07 0.022644 -173.9
8.83980000 0.022639 -168.3 0.999740 -81.08 0.999740 -81.08 0.022639 -173.9
8.84000000 0.022635 -168.3 0.999740 -81.08 0.999740 -81.08 0.022634 -173.9
8.84020000 0.022630 -168.3 0.999740 -81.08 0.999740 -81.08 0.022630 -173.9
8.84040000 0.022625 -168.3 0.999740 -81.08 0.999740 -81.08 0.022625 -173.9
8.84060000 0.022620 -168.3 0.999740 -81.08 0.999740 -81.08 0.022620 -173.9
8.84080000 0.022616 -168.3 0.999740 -81.09 0.999740 -81.09 0.022615 -173.9
8.84100000 0.022611 -168.3 0.999740 -81.09 0.999740 -81.09 0.022611 -173.9
8.84120000 0.022606 -168.3 0.999741 -81.09 0.999741 -81.09 0.022606 -173.9
8.84140000 0.022601 -168.3 0.999741 -81.09 0.999741 -81.09 0.022601 -173.9
8.84160000 0.022596 -168.3 0.999741 -81.09 0.999741 -81.09 0.022596 -173.9
8.84180000 0.022591 -168.2 0.999741 -81.10 0.999741 -81.10 0.022591 -174.0
8.84200000 0.022586 -168.2 0.999741 -81.10 0.999741 -81.10 0.022586 -174.0
8.84220000 0.022581 -168.2 0.999741 -81.10 0.999741 -81.10 0.022581 -174.0
8.84240000 0.022576 -168.2 0.999741 -81.10 0.999741 -81.10 0.022576 -174.0
8.84260000 0.022571 -168.2 0.999741 -81.11 0.999741 -81.11 0.022571 -174.0
8.84280000 0.022566 -168.2 0.999741 -81.11 0.999741 -81.11 0.022566 -174.0
8.84300000 0.022561 -168.2 0.999742 -81.11 0.999742 -81.11 0.022561 -174.0
8.84320000 0.022556 -168.2 0.999742 -81.11 0.999742 -81.11 0.022556 -174.0
8.84340000 0.022551 -168.2 0.999742 -81.11 0.999742 -81.11 0.022550 -174.0
8.84360000 0.022545 -168.2 0.999742 -81.12 0.999742 -81.12 0.022545 -174.0
8.84380000 0.022540 -168.2 0.999742 -81.12 0.999742 -81.12 0.022540 -174.0
8.84400000 0.022535 -168.2 0.999742 -81.12 0.999742 -81.12 0.022535 -174.0
8.84420000 0.022529 -168.2 0.999742 -81.12 0.999742 -81.12 0.022529 -174.1
8.84440000 0.022524 -168.2 0.999742 -81.12 0.999742 -81.12 0.022524 -174.1
8.84460000 0.022519 -168.2 0.999742 -81.13 0.999742 -81.13 0.022518 -174.1
8.84480000 0.022513 -168.2 0.999743 -81.13 0.999743 -81.13 0.022513 -174.1
8.84500000 0.022508 -168.2 0.999743 -81.13 0.999743 -81.13 0.022507 -174.1
8.84520000 0.022502 -168.2 0.999743 -81.13 0.999743 -81.13 0.022502 -174.1
8.84540000 0.022497 -168.2 0.999743 -81.14 0.999743 -81.14 0.022496 -174.1
8.84560000 0.022491 -168.2 0.999743 -81.14 0.999743 -81.14 0.022491 -174.1
8.84580000 0.022485 -168.2 0.999743 -81.14 0.999743 -81.14 0.022485 -174.1
8.84600000 0.022480 -168.2 0.999743 -81.14 0.999743 -81.14 0.022479 -174.1
8.84620000 0.022474 -168.2 0.999743 -81.14 0.999743 -81.14 0.022474 -174.1
8.84640000 0.022468 -168.1 0.999744 -81.15 0.999744 -81.15 0.022468 -174.2
8.84660000 0.022462 -168.1 0.999744 -81.15 0.999744 -81.15 0.022462 -174.2
8.84680000 0.022457 -168.1 0.999744 -81.15 0.999744 -81.15 0.022456 -174.2
8.84700000 0.022451 -168.1 0.999744 -81.15 0.999744 -81.15 0.022450 -174.2
8.84720000 0.022445 -168.1 0.999744 -81.16 0.999744 -81.16 0.022444 -174.2
8.84740000 0.022439 -168.1 0.999744 -81.16 0.999744 -81.16 0.022439 -174.2
8.84760000 0.022433 -168.1 0.999744 -81.16 0.999744 -81.16 0.022433 -174.2
8.84780000 0.022427 -168.1 0.999744 -81.16 0.999744 -81.16 0.022426 -174.2
8.84800000 0.022421 -168.1 0.999745 -81.16 0.999745 -81.16 0.022420 -174.2
8.84820000 0.022415 -168.1 0.999745 -81.17 0.999745 -81.17 0.022414 -174.2
8.84840000 0.022408 -168.1 0.999745 -81.17 0.999745 -81.17 0.022408 -174.2
8.84860000 0.022402 -168.1 0.999745 -81.17 0.999745 -81.17 0.022402 -174.3
8.84880000 0.022396 -168.1 0.999745 -81.17 0.999745 -81.17 0.022396 -174.3
8.84900000 0.022390 -168.1 0.999745 -81.18 0.999745 -81.18 0.022389 -174.3
8.84920000 0.022383 -168.1 0.999745 -81.18 0.999745 -81.18 0.022383 -174.3
8.84940000 0.022377 -168.1 0.999746 -81.18 0.999746 -81.18 0.022376 -174.3
8.84960000 0.022370 -168.1 0.999746 -81.18 0.999746 -81.18 0.022370 -174.3
8.84980000 0.022364 -168.1 0.999746 -81.18 0.999746 -81.18 0.022364 -174.3
8.85000000 0.022357 -168.1 0.999746 -81.19 0.999746 -81.19 0.022357 -174.3
8.85020000 0.022351 -168.0 0.999746 -81.19 0.999746 -81.19 0.022350 -174.3
8.85040000 0.022344 -168.0 0.999746 -81.19 0.999746 -81.19 0.022344 -174.4
8.85060000 0.022337 -168.0 0.999746 -81.19 0.999746 -81.19 0.022337 -174.4
8.85080000 0.022331 -168.0 0.999747 -81.20 0.999747 -81.20 0.022330 -174.4
8.85100000 0.022324 -168.0 0.999747 -81.20 0.999747 -81.20 0.022324 -174.4
8.85120000 0.022317 -168.0 0.999747 -81.20 0.999747 -81.20 0.022317 -174.4
8.85140000 0.022310 -168.0 0.999747 -81.20 0.999747 -81.20 0.022310 -174.4
8.85160000 0.022303 -168.0 0.999747 -81.20 0.999747 -81.20 0.022303 -174.4
8.85180000 0.022296 -168.0 0.999747 -81.21 0.999747 -81.21 0.022296 -174.4
8.85200000 0.022289 -168.0 0.999747 -81.21 0.999747 -81.21 0.022289 -174.4
8.85220000 0.022282 -168.0 0.999748 -81.21 0.999748 -81.21 0.022282 -174.4
8.85240000 0.022275 -168.0 0.999748 -81.21 0.999748 -81.21 0.022275 -174.5
8.85260000 0.022268 -168.0 0.999748 -81.22 0.999748 -81.22 0.022267 -174.5
8.85280000 0.022260 -168.0 0.999748 -81.22 0.999748 -81.22 0.022260 -174.5
8.85300000 0.022253 -168.0 0.999748 -81.22 0.999748 -81.22 0.022253 -174.5
8.85320000 0.022246 -167.9 0.999748 -81.22 0.999748 -81.22 0.022245 -174.5
8.85340000 0.022238 -167.9 0.999749 -81.23 0.999749 -81.23 0.022238 -174.5
8.85360000 0.022231 -167.9 0.999749 -81.23 0.999749 -81.23 0.022230 -174.5
8.85380000 0.022223 -167.9 0.999749 -81.23 0.999749 -81.23 0.022223 -174.5
8.85400000 0.022216 -167.9 0.999749 -81.23 0.999749 -81.23 0.022215 -174.6
8.85420000 0.022208 -167.9 0.999749 -81.23 0.999749 -81.23 0.022207 -174.6
8.85440000 0.022200 -167.9 0.999749 -81.24 0.999749 -81.24 0.022200 -174.6
8.85460000 0.022192 -167.9 0.999750 -81.24 0.999750 -81.24 0.022192 -174.6
8.85480000 0.022185 -167.9 0.999750 -81.24 0.999750 -81.24 0.022184 -174.6
8.85500000 0.022177 -167.9 0.999750 -81.24 0.999750 -81.24 0.022176 -174.6
8.85520000 0.022169 -167.9 0.999750 -81.25 0.999750 -81.25 0.022168 -174.6
8.85540000 0.022161 -167.9 0.999750 -81.25 0.999750 -81.25 0.022160 -174.6
8.85560000 0.022152 -167.9 0.999750 -81.25 0.999750 -81.25 0.022152 -174.6
8.85580000 0.022144 -167.9 0.999751 -81.25 0.999751 -81.25 0.022144 -174.7
8.85600000 0.022136 -167.8 0.999751 -81.26 0.999751 -81.26 0.022135 -174.7
8.85620000 0.022128 -167.8 0.999751 -81.26 0.999751 -81.26 0.022127 -174.7
8.85640000 0.022119 -167.8 0.999751 -81.26 0.999751 -81.26 0.022119 -174.7
8.85660000 0.022111 -167.8 0.999751 -81.26 0.999751 -81.26 0.022110 -174.7
8.85680000 0.022102 -167.8 0.999751 -81.27 0.999751 -81.27 0.022102 -174.7
8.85700000 0.022094 -167.8 0.999752 -81.27 0.999752 -81.27 0.022093 -174.7
8.85720000 0.022085 -167.8 0.999752 -81.27 0.999752 -81.27 0.022084 -174.8
8.85740000 0.022076 -167.8 0.999752 -81.27 0.999752 -81.27 0.022076 -174.8
8.85760000 0.022067 -167.8 0.999752 -81.27 0.999752 -81.27 0.022067 -174.8
8.85780000 0.022059 -167.8 0.999752 -81.28 0.999752 -81.28 0.022058 -174.8
8.85800000 0.022050 -167.8 0.999753 -81.28 0.999753 -81.28 0.022049 -174.8
8.85820000 0.022040 -167.8 0.999753 -81.28 0.999753 -81.28 0.022040 -174.8
8.85840000 0.022031 -167.7 0.999753 -81.28 0.999753 -81.28 0.022031 -174.8
8.85860000 0.022022 -167.7 0.999753 -81.29 0.999753 -81.29 0.022022 -174.8
8.85880000 0.022013 -167.7 0.999753 -81.29 0.999753 -81.29 0.022012 -174.9
8.85900000 0.022003 -167.7 0.999754 -81.29 0.999754 -81.29 0.022003 -174.9
8.85920000 0.021994 -167.7 0.999754 -81.29 0.999754 -81.29 0.021993 -174.9
8.85940000 0.021984 -167.7 0.999754 -81.30 0.999754 -81.30 0.021984 -174.9
8.85960000 0.021975 -167.7 0.999754 -81.30 0.999754 -81.30 0.021974 -174.9
8.85980000 0.021965 -167.7 0.999754 -81.30 0.999754 -81.30 0.021964 -174.9
8.86000000 0.021955 -167.7 0.999755 -81.30 0.999755 -81.30 0.021955 -175.0
8.86020000 0.021945 -167.7 0.999755 -81.31 0.999755 -81.31 0.021945 -175.0
8.86040000 0.021935 -167.6 0.999755 -81.31 0.999755 -81.31 0.021935 -175.0
8.86060000 0.021925 -167.6 0.999755 -81.31 0.999755 -81.31 0.021925 -175.0
8.86080000 0.021915 -167.6 0.999755 -81.31 0.999755 -81.31 0.021915 -175.0
8.86100000 0.021905 -167.6 0.999756 -81.32 0.999756 -81.32 0.021904 -175.0
8.86120000 0.021895 -167.6 0.999756 -81.32 0.999756 -81.32 0.021894 -175.0
8.86140000 0.021884 -167.6 0.999756 -81.32 0.999756 -81.32 0.021884 -175.1
8.86160000 0.021874 -167.6 0.999756 -81.32 0.999756 -81.32 0.021873 -175.1
8.86180000 0.021863 -167.6 0.999756 -81.33 0.999756 -81.33 0.021862 -175.1
8.86200000 0.021852 -167.6 0.999757 -81.33 0.999757 -81.33 0.021852 -175.1
8.86220000 0.021842 -167.5 0.999757 -81.33 0.999757 -81.33 0.021841 -175.1
8.86240000 0.021831 -167.5 0.999757 -81.33 0.999757 -81.33 0.021830 -175.1
8.86260000 0.021820 -167.5 0.999757 -81.34 0.999757 -81.34 0.021819 -175.2
8.86280000 0.021808 -167.5 0.999758 -81.34 0.999758 -81.34 0.021808 -175.2
8.86300000 0.021797 -167.5 0.999758 -81.34 0.999758 -81.34 0.021796 -175.2
8.86320000 0.021786 -167.5 0.999758 -81.34 0.999758 -81.34 0.021785 -175.2
8.86340000 0.021774 -167.5 0.999758 -81.35 0.999758 -81.35 0.021774 -175.2
8.86360000 0.021763 -167.5 0.999759 -81.35 0.999759 -81.35 0.021762 -175.2
8.86380000 0.021751 -167.4 0.999759 -81.35 0.999759 -81.35 0.021750 -175.3
8.86400000 0.021739 -167.4 0.999759 -81.35 0.999759 -81.35 0.021738 -175.3
8.86420000 0.021727 -167.4 0.999759 -81.36 0.999759 -81.36 0.021726 -175.3
8.86440000 0.021715 -167.4 0.999759 -81.36 0.999759 -81.36 0.021714 -175.3
8.86460000 0.021703 -167.4 0.999760 -81.36 0.999760 -81.36 0.021702 -175.3
8.86480000 0.021691 -167.4 0.999760 -81.37 0.999760 -81.37 0.021690 -175.4
8.86500000 0.021678 -167.4 0.999760 -81.37 0.999760 -81.37 0.021678 -175.4
8.86520000 0.021666 -167.4 0.999761 -81.37 0.999761 -81.37 0.021665 -175.4
8.86540000 0.021653 -167.3 0.999761 -81.37 0.999761 -81.37 0.021652 -175.4
8.86560000 0.021641 -167.3 0.999761 -81.38 0.999761 -81.38 0.021640 -175.4
8.86580000 0.021628 -167.3 0.999761 -81.38 0.999761 -81.38 0.021627 -175.5
8.86600000 0.021615 -167.3 0.999762 -81.38 0.999762 -81.38 0.021614 -175.5
8.86620000 0.021601 -167.3 0.999762 -81.38 0.999762 -81.38 0.021600 -175.5
8.86640000 0.021588 -167.3 0.999762 -81.39 0.999762 -81.39 0.021587 -175.5
8.86660000 0.021575 -167.3 0.999762 -81.39 0.999762 -81.39 0.021574 -175.5
8.86680000 0.021561 -167.2 0.999763 -81.39 0.999763 -81.39 0.021560 -175.6
8.86700000 0.021547 -167.2 0.999763 -81.39 0.999763 -81.39 0.021546 -175.6
8.86720000 0.021533 -167.2 0.999763 -81.40 0.999763 -81.40 0.021532 -175.6
8.86740000 0.021519 -167.2 0.999764 -81.40 0.999764 -81.40 0.021518 -175.6
8.86760000 0.021505 -167.2 0.999764 -81.40 0.999764 -81.40 0.021504 -175.6
8.86780000 0.021491 -167.2 0.999764 -81.41 0.999764 -81.41 0.021490 -175.7
8.86800000 0.021476 -167.1 0.999764 -81.41 0.999764 -81.41 0.021475 -175.7
8.86820000 0.021462 -167.1 0.999765 -81.41 0.999765 -81.41 0.021461 -175.7
8.86840000 0.021447 -167.1 0.999765 -81.41 0.999765 -81.41 0.021446 -175.7
8.86860000 0.021432 -167.1 0.999765 -81.42 0.999765 -81.42 0.021431 -175.7
8.86880000 0.021417 -167.1 0.999766 -81.42 0.999766 -81.42 0.021416 -175.8
8.86900000 0.021402 -167.1 0.999766 -81.42 0.999766 -81.42 0.021400 -175.8
8.86920000 0.021386 -167.0 0.999766 -81.42 0.999766 -81.42 0.021385 -175.8
8.86940000 0.021370 -167.0 0.999767 -81.43 0.999767 -81.43 0.021369 -175.8
8.86960000 0.021355 -167.0 0.999767 -81.43 0.999767 -81.43 0.021353 -175.9
8.86980000 0.021339 -167.0 0.999767 -81.43 0.999767 -81.43 0.021337 -175.9
8.87000000 0.021322 -167.0 0.999767 -81.44 0.999767 -81.44 0.021321 -175.9
8.87020000 0.021306 -166.9 0.999768 -81.44 0.999768 -81.44 0.021305 -175.9
8.87040000 0.021289 -166.9 0.999768 -81.44 0.999768 -81.44 0.021288 -176.0
8.87060000 0.021273 -166.9 0.999768 -81.45 0.999768 -81.45 0.021271 -176.0
8.87080000 0.021256 -166.9 0.999769 -81.45 0.999769 -81.45 0.021254 -176.0
8.87100000 0.021239 -166.9 0.999769 -81.45 0.999769 -81.45 0.021237 -176.0
8.87120000 0.021221 -166.8 0.999769 -81.45 0.999769 -81.45 0.021220 -176.1
8.87140000 0.021204 -166.8 0.999770 -81.46 0.999770 -81.46 0.021202 -176.1
8.87160000 0.021186 -166.8 0.999770 -81.46 0.999770 -81.46 0.021184 -176.1
8.87180000 0.021168 -166.8 0.999771 -81.46 0.999771 -81.46 0.021166 -176.2
8.87200000 0.021150 -166.8 0.999771 -81.47 0.999771 -81.47 0.021148 -176.2
8.87220000 0.021131 -166.7 0.999771 -81.47 0.999771 -81.47 0.021130 -176.2
8.87240000 0.021113 -166.7 0.999772 -81.47 0.999772 -81.47 0.021111 -176.2
8.87260000 0.021094 -166.7 0.999772 -81.47 0.999772 -81.47 0.021092 -176.3
8.87280000 0.021075 -166.7 0.999772 -81.48 0.999772 -81.48 0.021073 -176.3
8.87300000 0.021055 -166.6 0.999773 -81.48 0.999773 -81.48 0.021054 -176.3
8.87320000 0.021036 -166.6 0.999773 -81.48 0.999773 -81.48 0.021034 -176.4
8.87340000 0.021016 -166.6 0.999774 -81.49 0.999774 -81.49 0.021014 -176.4
8.87360000 0.020996 -166.6 0.999774 -81.49 0.999774 -81.49 0.020994 -176.4
8.87380000 0.020976 -166.5 0.999774 -81.49 0.999774 -81.49 0.020974 -176.5
8.87400000 0.020955 -166.5 0.999775 -81.50 0.999775 -81.50 0.020953 -176.5
8.87420000 0.020934 -166.5 0.999775 -81.50 0.999775 -81.50 0.020932 -176.5
8.87440000 0.020913 -166.5 0.999776 -81.50 0.999776 -81.50 0.020911 -176.6
8.87460000 0.020892 -166.4 0.999776 -81.51 0.999776 -81.51 0.020890 -176.6
8.87470185 0.020881 -166.4 0.999776 -81.51 0.999776 -81.51 0.020879 -176.6
8.87480000 0.020870 -166.4 0.999776 -81.51 0.999776 -81.51 0.020868 -176.6
8.87500000 0.020848 -166.4 0.999777 -81.51 0.999777 -81.51 0.020846 -176.7
8.87520000 0.020826 -166.3 0.999777 -81.52 0.999777 -81.52 0.020824 -176.7
8.87538761 0.020804 -166.3 0.999778 -81.52 0.999778 -81.52 0.020803 -176.7
8.87540000 0.020803 -166.3 0.999778 -81.52 0.999778 -81.52 0.020801 -176.7
8.87560000 0.020780 -166.3 0.999778 -81.52 0.999778 -81.52 0.020778 -176.8
8.87580000 0.020757 -166.3 0.999779 -81.53 0.999779 -81.53 0.020755 -176.8
8.87600000 0.020734 -166.2 0.999779 -81.53 0.999779 -81.53 0.020731 -176.8
8.87605767 0.020727 -166.2 0.999779 -81.53 0.999779 -81.53 0.020725 -176.8
8.87620000 0.020710 -166.2 0.999779 -81.53 0.999779 -81.53 0.020708 -176.9
8.87640000 0.020686 -166.2 0.999780 -81.54 0.999780 -81.54 0.020683 -176.9
8.87660000 0.020661 -166.1 0.999780 -81.54 0.999780 -81.54 0.020659 -176.9
8.87671236 0.020647 -166.1 0.999781 -81.54 0.999781 -81.54 0.020645 -177.0
8.87680000 0.020636 -166.1 0.999781 -81.54 0.999781 -81.54 0.020634 -177.0
8.87700000 0.020611 -166.1 0.999781 -81.55 0.999781 -81.55 0.020609 -177.0
8.87720000 0.020585 -166.0 0.999782 -81.55 0.999782 -81.55 0.020583 -177.1
8.87735206 0.020566 -166.0 0.999782 -81.55 0.999782 -81.55 0.020563 -177.1
8.87740000 0.020559 -166.0 0.999782 -81.55 0.999782 -81.55 0.020557 -177.1