! Sonnet Data File
! From: emgraph Version : 16.52
! From Project: Resonator2
! Data is De-embedded 
! Data File Written: 10/04/2017 18:31:03
!< HDATE 10/04/2017 15:54:54
!< MDATE 10/04/2017 15:55:28
!< PARAMS
!< gap = 6.0
!< Length = 400.0
!< END PARAMS
# GHZ S MA R 50.00000
8.80000000 0.029055 47.218 0.999576 -40.61 0.999576 -40.61 0.029055 51.565
!< P1 F=8.8 Eeff=(6.44890994 -2.9739e-5) Z0=(51.8068348 1.19496e-4) R=0.0 C=0.0 
!< P2 F=8.8 Eeff=(6.44890994 -2.9739e-5) Z0=(51.8068348 1.19496e-4) R=0.0 C=0.0 
8.80025000 0.029064 47.214 0.999575 -40.61 0.999575 -40.61 0.029065 51.566
8.80050000 0.029074 47.209 0.999575 -40.61 0.999575 -40.61 0.029074 51.567
8.80075000 0.029083 47.205 0.999575 -40.62 0.999575 -40.62 0.029084 51.568
8.80100000 0.029093 47.200 0.999574 -40.62 0.999574 -40.62 0.029093 51.569
8.80125000 0.029103 47.196 0.999574 -40.62 0.999574 -40.62 0.029103 51.570
8.80150000 0.029112 47.191 0.999574 -40.62 0.999574 -40.62 0.029113 51.571
8.80175000 0.029122 47.187 0.999574 -40.62 0.999574 -40.62 0.029122 51.573
8.80200000 0.029132 47.182 0.999573 -40.62 0.999573 -40.62 0.029132 51.574
8.80225000 0.029142 47.178 0.999573 -40.63 0.999573 -40.63 0.029142 51.575
8.80250000 0.029152 47.173 0.999573 -40.63 0.999573 -40.63 0.029152 51.576
8.80275000 0.029162 47.169 0.999572 -40.63 0.999572 -40.63 0.029162 51.577
8.80300000 0.029172 47.164 0.999572 -40.63 0.999572 -40.63 0.029172 51.578
8.80325000 0.029182 47.160 0.999572 -40.63 0.999572 -40.63 0.029182 51.579
8.80350000 0.029192 47.155 0.999571 -40.63 0.999571 -40.63 0.029192 51.581
8.80375000 0.029202 47.150 0.999571 -40.64 0.999571 -40.64 0.029202 51.582
8.80400000 0.029212 47.146 0.999571 -40.64 0.999571 -40.64 0.029212 51.583
8.80425000 0.029222 47.141 0.999571 -40.64 0.999571 -40.64 0.029223 51.584
8.80450000 0.029232 47.136 0.999570 -40.64 0.999570 -40.64 0.029233 51.586
8.80475000 0.029243 47.132 0.999570 -40.64 0.999570 -40.64 0.029243 51.587
8.80500000 0.029253 47.127 0.999570 -40.64 0.999570 -40.64 0.029253 51.588
8.80525000 0.029263 47.122 0.999569 -40.65 0.999569 -40.65 0.029264 51.589
8.80550000 0.029274 47.118 0.999569 -40.65 0.999569 -40.65 0.029274 51.591
8.80575000 0.029284 47.113 0.999569 -40.65 0.999569 -40.65 0.029285 51.592
8.80600000 0.029295 47.108 0.999568 -40.65 0.999568 -40.65 0.029295 51.593
8.80625000 0.029306 47.103 0.999568 -40.65 0.999568 -40.65 0.029306 51.594
8.80650000 0.029316 47.099 0.999568 -40.65 0.999568 -40.65 0.029317 51.596
8.80675000 0.029327 47.094 0.999567 -40.66 0.999567 -40.66 0.029327 51.597
8.80700000 0.029338 47.089 0.999567 -40.66 0.999567 -40.66 0.029338 51.598
8.80725000 0.029348 47.084 0.999567 -40.66 0.999567 -40.66 0.029349 51.600
8.80750000 0.029359 47.079 0.999567 -40.66 0.999567 -40.66 0.029360 51.601
8.80775000 0.029370 47.074 0.999566 -40.66 0.999566 -40.66 0.029371 51.602
8.80800000 0.029381 47.070 0.999566 -40.66 0.999566 -40.66 0.029382 51.604
8.80825000 0.029392 47.065 0.999566 -40.67 0.999566 -40.67 0.029393 51.605
8.80850000 0.029403 47.060 0.999565 -40.67 0.999565 -40.67 0.029404 51.607
8.80875000 0.029414 47.055 0.999565 -40.67 0.999565 -40.67 0.029415 51.608
8.80900000 0.029426 47.050 0.999565 -40.67 0.999565 -40.67 0.029426 51.609
8.80925000 0.029437 47.045 0.999564 -40.67 0.999564 -40.67 0.029437 51.611
8.80950000 0.029448 47.040 0.999564 -40.68 0.999564 -40.68 0.029448 51.612
8.80975000 0.029459 47.035 0.999564 -40.68 0.999564 -40.68 0.029460 51.614
8.81000000 0.029471 47.030 0.999563 -40.68 0.999563 -40.68 0.029471 51.615
8.81025000 0.029482 47.025 0.999563 -40.68 0.999563 -40.68 0.029483 51.617
8.81050000 0.029494 47.020 0.999563 -40.68 0.999563 -40.68 0.029494 51.618
8.81075000 0.029505 47.015 0.999562 -40.68 0.999562 -40.68 0.029506 51.620
8.81100000 0.029517 47.010 0.999562 -40.69 0.999562 -40.69 0.029517 51.621
8.81125000 0.029529 47.004 0.999561 -40.69 0.999561 -40.69 0.029529 51.623
8.81150000 0.029540 46.999 0.999561 -40.69 0.999561 -40.69 0.029541 51.624
8.81175000 0.029552 46.994 0.999561 -40.69 0.999561 -40.69 0.029552 51.626
8.81200000 0.029564 46.989 0.999560 -40.69 0.999560 -40.69 0.029564 51.627
8.81225000 0.029576 46.984 0.999560 -40.69 0.999560 -40.69 0.029576 51.629
8.81250000 0.029588 46.979 0.999560 -40.70 0.999560 -40.70 0.029588 51.630
8.81275000 0.029600 46.973 0.999559 -40.70 0.999559 -40.70 0.029600 51.632
8.81300000 0.029612 46.968 0.999559 -40.70 0.999559 -40.70 0.029612 51.633
8.81325000 0.029624 46.963 0.999559 -40.70 0.999559 -40.70 0.029624 51.635
8.81350000 0.029636 46.958 0.999558 -40.70 0.999558 -40.70 0.029637 51.637
8.81375000 0.029649 46.952 0.999558 -40.71 0.999558 -40.71 0.029649 51.638
8.81400000 0.029661 46.947 0.999557 -40.71 0.999557 -40.71 0.029661 51.640
8.81425000 0.029673 46.942 0.999557 -40.71 0.999557 -40.71 0.029674 51.642
8.81450000 0.029686 46.936 0.999557 -40.71 0.999557 -40.71 0.029686 51.643
8.81475000 0.029698 46.931 0.999556 -40.71 0.999556 -40.71 0.029699 51.645
8.81500000 0.029711 46.926 0.999556 -40.71 0.999556 -40.71 0.029711 51.647
8.81525000 0.029724 46.920 0.999556 -40.72 0.999556 -40.72 0.029724 51.648
8.81550000 0.029736 46.915 0.999555 -40.72 0.999555 -40.72 0.029737 51.650
8.81575000 0.029749 46.909 0.999555 -40.72 0.999555 -40.72 0.029750 51.652
8.81600000 0.029762 46.904 0.999554 -40.72 0.999554 -40.72 0.029762 51.654
8.81625000 0.029775 46.898 0.999554 -40.72 0.999554 -40.72 0.029775 51.655
8.81650000 0.029788 46.893 0.999554 -40.73 0.999554 -40.73 0.029788 51.657
8.81675000 0.029801 46.887 0.999553 -40.73 0.999553 -40.73 0.029801 51.659
8.81700000 0.029814 46.882 0.999553 -40.73 0.999553 -40.73 0.029815 51.661
8.81725000 0.029827 46.876 0.999552 -40.73 0.999552 -40.73 0.029828 51.662
8.81750000 0.029841 46.871 0.999552 -40.73 0.999552 -40.73 0.029841 51.664
8.81775000 0.029854 46.865 0.999552 -40.74 0.999552 -40.74 0.029854 51.666
8.81800000 0.029867 46.859 0.999551 -40.74 0.999551 -40.74 0.029868 51.668
8.81825000 0.029881 46.854 0.999551 -40.74 0.999551 -40.74 0.029881 51.670
8.81850000 0.029894 46.848 0.999550 -40.74 0.999550 -40.74 0.029895 51.672
8.81875000 0.029908 46.842 0.999550 -40.74 0.999550 -40.74 0.029909 51.674
8.81900000 0.029922 46.836 0.999550 -40.74 0.999550 -40.74 0.029922 51.675
8.81925000 0.029936 46.831 0.999549 -40.75 0.999549 -40.75 0.029936 51.677
8.81950000 0.029949 46.825 0.999549 -40.75 0.999549 -40.75 0.029950 51.679
8.81975000 0.029963 46.819 0.999548 -40.75 0.999548 -40.75 0.029964 51.681
8.82000000 0.029977 46.813 0.999548 -40.75 0.999548 -40.75 0.029978 51.683
8.82025000 0.029992 46.807 0.999547 -40.75 0.999547 -40.75 0.029992 51.685
8.82050000 0.030006 46.802 0.999547 -40.76 0.999547 -40.76 0.030006 51.687
8.82075000 0.030020 46.796 0.999547 -40.76 0.999547 -40.76 0.030020 51.689
8.82100000 0.030034 46.790 0.999546 -40.76 0.999546 -40.76 0.030035 51.691
8.82125000 0.030049 46.784 0.999546 -40.76 0.999546 -40.76 0.030049 51.693
8.82150000 0.030063 46.778 0.999545 -40.76 0.999545 -40.76 0.030064 51.695
8.82175000 0.030078 46.772 0.999545 -40.77 0.999545 -40.77 0.030078 51.697
8.82200000 0.030092 46.766 0.999544 -40.77 0.999544 -40.77 0.030093 51.699
8.82225000 0.030107 46.760 0.999544 -40.77 0.999544 -40.77 0.030108 51.701
8.82250000 0.030122 46.754 0.999543 -40.77 0.999543 -40.77 0.030123 51.704
8.82275000 0.030137 46.748 0.999543 -40.77 0.999543 -40.77 0.030137 51.706
8.82300000 0.030152 46.741 0.999543 -40.78 0.999543 -40.78 0.030152 51.708
8.82325000 0.030167 46.735 0.999542 -40.78 0.999542 -40.78 0.030168 51.710
8.82350000 0.030182 46.729 0.999542 -40.78 0.999542 -40.78 0.030183 51.712
8.82375000 0.030197 46.723 0.999541 -40.78 0.999541 -40.78 0.030198 51.714
8.82400000 0.030213 46.717 0.999541 -40.78 0.999541 -40.78 0.030213 51.716
8.82425000 0.030228 46.710 0.999540 -40.79 0.999540 -40.79 0.030229 51.719
8.82450000 0.030244 46.704 0.999540 -40.79 0.999540 -40.79 0.030244 51.721
8.82475000 0.030259 46.698 0.999539 -40.79 0.999539 -40.79 0.030260 51.723
8.82500000 0.030275 46.691 0.999539 -40.79 0.999539 -40.79 0.030276 51.725
8.82525000 0.030291 46.685 0.999538 -40.79 0.999538 -40.79 0.030291 51.728
8.82550000 0.030307 46.679 0.999538 -40.80 0.999538 -40.80 0.030307 51.730
8.82575000 0.030323 46.672 0.999537 -40.80 0.999537 -40.80 0.030323 51.732
8.82600000 0.030339 46.666 0.999537 -40.80 0.999537 -40.80 0.030339 51.735
8.82625000 0.030355 46.659 0.999536 -40.80 0.999536 -40.80 0.030356 51.737
8.82650000 0.030371 46.653 0.999536 -40.80 0.999536 -40.80 0.030372 51.739
8.82675000 0.030388 46.646 0.999535 -40.81 0.999535 -40.81 0.030388 51.742
8.82700000 0.030404 46.640 0.999535 -40.81 0.999535 -40.81 0.030405 51.744
8.82725000 0.030421 46.633 0.999534 -40.81 0.999534 -40.81 0.030421 51.747
8.82750000 0.030438 46.627 0.999534 -40.81 0.999534 -40.81 0.030438 51.749
8.82775000 0.030454 46.620 0.999533 -40.81 0.999533 -40.81 0.030455 51.751
8.82800000 0.030471 46.613 0.999533 -40.82 0.999533 -40.82 0.030472 51.754
8.82825000 0.030488 46.607 0.999532 -40.82 0.999532 -40.82 0.030489 51.756
8.82850000 0.030505 46.600 0.999532 -40.82 0.999532 -40.82 0.030506 51.759
8.82875000 0.030523 46.593 0.999531 -40.82 0.999531 -40.82 0.030523 51.761
8.82900000 0.030540 46.586 0.999531 -40.83 0.999531 -40.83 0.030540 51.764
8.82925000 0.030557 46.579 0.999530 -40.83 0.999530 -40.83 0.030558 51.766
8.82950000 0.030575 46.573 0.999530 -40.83 0.999530 -40.83 0.030575 51.769
8.82975000 0.030592 46.566 0.999529 -40.83 0.999529 -40.83 0.030593 51.772
8.83000000 0.030610 46.559 0.999528 -40.83 0.999528 -40.83 0.030611 51.774
8.83025000 0.030628 46.552 0.999528 -40.84 0.999528 -40.84 0.030629 51.777
8.83050000 0.030646 46.545 0.999527 -40.84 0.999527 -40.84 0.030647 51.780
8.83075000 0.030664 46.538 0.999527 -40.84 0.999527 -40.84 0.030665 51.782
8.83100000 0.030682 46.531 0.999526 -40.84 0.999526 -40.84 0.030683 51.785
8.83125000 0.030701 46.524 0.999526 -40.84 0.999526 -40.84 0.030701 51.788
8.83150000 0.030719 46.516 0.999525 -40.85 0.999525 -40.85 0.030720 51.790
8.83175000 0.030738 46.509 0.999524 -40.85 0.999524 -40.85 0.030738 51.793
8.83200000 0.030756 46.502 0.999524 -40.85 0.999524 -40.85 0.030757 51.796
8.83225000 0.030775 46.495 0.999523 -40.85 0.999523 -40.85 0.030776 51.799
8.83250000 0.030794 46.488 0.999523 -40.86 0.999523 -40.86 0.030795 51.801
8.83275000 0.030813 46.480 0.999522 -40.86 0.999522 -40.86 0.030814 51.804
8.83300000 0.030832 46.473 0.999521 -40.86 0.999521 -40.86 0.030833 51.807
8.83325000 0.030852 46.466 0.999521 -40.86 0.999521 -40.86 0.030852 51.810
8.83350000 0.030871 46.458 0.999520 -40.86 0.999520 -40.86 0.030872 51.813
8.83375000 0.030891 46.451 0.999520 -40.87 0.999520 -40.87 0.030891 51.816
8.83400000 0.030910 46.443 0.999519 -40.87 0.999519 -40.87 0.030911 51.819
8.83425000 0.030930 46.436 0.999518 -40.87 0.999518 -40.87 0.030931 51.822
8.83450000 0.030950 46.428 0.999518 -40.87 0.999518 -40.87 0.030951 51.825
8.83475000 0.030970 46.421 0.999517 -40.88 0.999517 -40.88 0.030971 51.828
8.83500000 0.030990 46.413 0.999516 -40.88 0.999516 -40.88 0.030991 51.831
8.83525000 0.031011 46.405 0.999516 -40.88 0.999516 -40.88 0.031011 51.834
8.83550000 0.031031 46.398 0.999515 -40.88 0.999515 -40.88 0.031032 51.837
8.83575000 0.031052 46.390 0.999515 -40.88 0.999515 -40.88 0.031053 51.840
8.83600000 0.031073 46.382 0.999514 -40.89 0.999514 -40.89 0.031073 51.843
8.83625000 0.031094 46.374 0.999513 -40.89 0.999513 -40.89 0.031094 51.846
8.83650000 0.031115 46.366 0.999513 -40.89 0.999513 -40.89 0.031115 51.849
8.83675000 0.031136 46.358 0.999512 -40.89 0.999512 -40.89 0.031137 51.852
8.83700000 0.031157 46.350 0.999511 -40.90 0.999511 -40.90 0.031158 51.856
8.83725000 0.031179 46.342 0.999511 -40.90 0.999511 -40.90 0.031179 51.859
8.83750000 0.031200 46.334 0.999510 -40.90 0.999510 -40.90 0.031201 51.862
8.83775000 0.031222 46.326 0.999509 -40.90 0.999509 -40.90 0.031223 51.865
8.83800000 0.031244 46.318 0.999508 -40.91 0.999508 -40.91 0.031245 51.869
8.83825000 0.031266 46.310 0.999508 -40.91 0.999508 -40.91 0.031267 51.872
8.83850000 0.031289 46.302 0.999507 -40.91 0.999507 -40.91 0.031289 51.875
8.83875000 0.031311 46.294 0.999506 -40.91 0.999506 -40.91 0.031312 51.879
8.83900000 0.031334 46.285 0.999506 -40.92 0.999506 -40.92 0.031334 51.882
8.83925000 0.031357 46.277 0.999505 -40.92 0.999505 -40.92 0.031357 51.886
8.83950000 0.031380 46.269 0.999504 -40.92 0.999504 -40.92 0.031380 51.889
8.83975000 0.031403 46.260 0.999503 -40.92 0.999503 -40.92 0.031403 51.893
8.84000000 0.031426 46.252 0.999503 -40.93 0.999503 -40.93 0.031427 51.896
8.84025000 0.031449 46.243 0.999502 -40.93 0.999502 -40.93 0.031450 51.900
8.84050000 0.031473 46.235 0.999501 -40.93 0.999501 -40.93 0.031474 51.903
8.84075000 0.031497 46.226 0.999500 -40.93 0.999500 -40.93 0.031497 51.907
8.84100000 0.031521 46.217 0.999500 -40.94 0.999500 -40.94 0.031521 51.910
8.84125000 0.031545 46.209 0.999499 -40.94 0.999499 -40.94 0.031546 51.914
8.84150000 0.031569 46.200 0.999498 -40.94 0.999498 -40.94 0.031570 51.918
8.84175000 0.031594 46.191 0.999497 -40.94 0.999497 -40.94 0.031595 51.921
8.84200000 0.031618 46.182 0.999496 -40.95 0.999496 -40.95 0.031619 51.925
8.84225000 0.031643 46.173 0.999496 -40.95 0.999496 -40.95 0.031644 51.929
8.84250000 0.031668 46.164 0.999495 -40.95 0.999495 -40.95 0.031669 51.933
8.84250619 0.031669 46.164 0.999495 -40.95 0.999495 -40.95 0.031670 51.933
8.84275000 0.031694 46.155 0.999494 -40.95 0.999494 -40.95 0.031694 51.936
8.84300000 0.031719 46.146 0.999493 -40.96 0.999493 -40.96 0.031720 51.940
8.84325000 0.031745 46.137 0.999492 -40.96 0.999492 -40.96 0.031746 51.944
8.84350000 0.031771 46.128 0.999492 -40.96 0.999492 -40.96 0.031771 51.948
8.84375000 0.031797 46.119 0.999491 -40.96 0.999491 -40.96 0.031798 51.952
8.84397788 0.031821 46.110 0.999490 -40.97 0.999490 -40.97 0.031821 51.955
8.84400000 0.031823 46.109 0.999490 -40.97 0.999490 -40.97 0.031824 51.956
8.84425000 0.031850 46.100 0.999489 -40.97 0.999489 -40.97 0.031850 51.960
8.84450000 0.031876 46.091 0.999488 -40.97 0.999488 -40.97 0.031877 51.964
8.84475000 0.031903 46.081 0.999487 -40.97 0.999487 -40.97 0.031904 51.968
8.84500000 0.031930 46.072 0.999486 -40.98 0.999486 -40.98 0.031931 51.972
8.84525000 0.031958 46.062 0.999485 -40.98 0.999485 -40.98 0.031958 51.976
8.84541584 0.031976 46.056 0.999485 -40.98 0.999485 -40.98 0.031977 51.979
8.84550000 0.031985 46.053 0.999485 -40.98 0.999485 -40.98 0.031986 51.980
8.84575000 0.032013 46.043 0.999484 -40.98 0.999484 -40.98 0.032014 51.984
8.84600000 0.032041 46.033 0.999483 -40.99 0.999483 -40.99 0.032042 51.988
8.84625000 0.032069 46.024 0.999482 -40.99 0.999482 -40.99 0.032070 51.993
8.84650000 0.032097 46.014 0.999481 -40.99 0.999481 -40.99 0.032098 51.997
8.84675000 0.032126 46.004 0.999480 -41.00 0.999480 -41.00 0.032127 52.001
8.84682085 0.032134 46.001 0.999480 -41.00 0.999480 -41.00 0.032135 52.002
8.84700000 0.032155 45.994 0.999479 -41.00 0.999479 -41.00 0.032156 52.006
8.84725000 0.032184 45.984 0.999478 -41.00 0.999478 -41.00 0.032185 52.010
8.84750000 0.032214 45.974 0.999477 -41.00 0.999477 -41.00 0.032214 52.014
8.84775000 0.032243 45.964 0.999476 -41.01 0.999476 -41.01 0.032244 52.019
8.84800000 0.032273 45.953 0.999475 -41.01 0.999475 -41.01 0.032274 52.023
8.84819366 0.032296 45.945 0.999474 -41.01 0.999474 -41.01 0.032297 52.027
8.84825000 0.032303 45.943 0.999474 -41.01 0.999474 -41.01 0.032304 52.028
8.84850000 0.032334 45.933 0.999473 -41.02 0.999473 -41.02 0.032335 52.032
8.84875000 0.032364 45.922 0.999472 -41.02 0.999472 -41.02 0.032365 52.037
8.84900000 0.032395 45.912 0.999471 -41.02 0.999471 -41.02 0.032396 52.041
8.84925000 0.032426 45.901 0.999470 -41.02 0.999470 -41.02 0.032427 52.046
8.84950000 0.032458 45.891 0.999469 -41.03 0.999469 -41.03 0.032459 52.051
8.84953502 0.032462 45.889 0.999469 -41.03 0.999469 -41.03 0.032463 52.051
8.84975000 0.032490 45.880 0.999468 -41.03 0.999468 -41.03 0.032490 52.055
8.85000000 0.032522 45.869 0.999467 -41.03 0.999467 -41.03 0.032522 52.060
8.85025000 0.032554 45.859 0.999466 -41.04 0.999466 -41.04 0.032555 52.065
8.85050000 0.032586 45.848 0.999465 -41.04 0.999465 -41.04 0.032587 52.070
8.85075000 0.032619 45.837 0.999464 -41.04 0.999464 -41.04 0.032620 52.075
8.85084565 0.032632 45.832 0.999463 -41.04 0.999463 -41.04 0.032633 52.076
8.85100000 0.032652 45.826 0.999463 -41.05 0.999463 -41.05 0.032653 52.079
8.85125000 0.032686 45.815 0.999461 -41.05 0.999461 -41.05 0.032687 52.084
8.85150000 0.032719 45.803 0.999460 -41.05 0.999460 -41.05 0.032720 52.089
8.85175000 0.032753 45.792 0.999459 -41.05 0.999459 -41.05 0.032754 52.094
8.85200000 0.032788 45.781 0.999458 -41.06 0.999458 -41.06 0.032789 52.099
8.85212624 0.032805 45.775 0.999457 -41.06 0.999457 -41.06 0.032806 52.102
8.85225000 0.032822 45.769 0.999457 -41.06 0.999457 -41.06 0.032823 52.104
8.85250000 0.032857 45.758 0.999456 -41.06 0.999456 -41.06 0.032858 52.110
8.85275000 0.032893 45.746 0.999454 -41.07 0.999454 -41.07 0.032894 52.115
8.85300000 0.032928 45.735 0.999453 -41.07 0.999453 -41.07 0.032929 52.120
8.85325000 0.032964 45.723 0.999452 -41.07 0.999452 -41.07 0.032965 52.125
8.85337749 0.032983 45.717 0.999451 -41.08 0.999451 -41.08 0.032984 52.128
8.85350000 0.033000 45.711 0.999451 -41.08 0.999451 -41.08 0.033001 52.130
8.85375000 0.033037 45.699 0.999450 -41.08 0.999450 -41.08 0.033038 52.136
8.85400000 0.033074 45.687 0.999448 -41.08 0.999448 -41.08 0.033075 52.141
8.85425000 0.033111 45.675 0.999447 -41.09 0.999447 -41.09 0.033112 52.147
8.85450000 0.033149 45.663 0.999446 -41.09 0.999446 -41.09 0.033150 52.152
8.85460007 0.033164 45.658 0.999445 -41.09 0.999445 -41.09 0.033165 52.154
8.85475000 0.033187 45.651 0.999444 -41.09 0.999444 -41.09 0.033188 52.158
8.85500000 0.033225 45.639 0.999443 -41.10 0.999443 -41.10 0.033226 52.163
8.85525000 0.033264 45.626 0.999442 -41.10 0.999442 -41.10 0.033265 52.169
8.85550000 0.033303 45.614 0.999441 -41.10 0.999441 -41.10 0.033304 52.174
8.85575000 0.033343 45.601 0.999439 -41.11 0.999439 -41.11 0.033344 52.180
8.85579464 0.033350 45.599 0.999439 -41.11 0.999439 -41.11 0.033351 52.181
8.85600000 0.033382 45.589 0.999438 -41.11 0.999438 -41.11 0.033383 52.186
8.85625000 0.033423 45.576 0.999436 -41.11 0.999436 -41.11 0.033424 52.191
8.85650000 0.033463 45.563 0.999435 -41.12 0.999435 -41.12 0.033464 52.197
8.85675000 0.033504 45.550 0.999434 -41.12 0.999434 -41.12 0.033505 52.203
8.85696183 0.033539 45.539 0.999432 -41.12 0.999432 -41.12 0.033541 52.208
8.85700000 0.033546 45.537 0.999432 -41.12 0.999432 -41.12 0.033547 52.209
8.85725000 0.033588 45.524 0.999431 -41.13 0.999431 -41.13 0.033589 52.215
8.85750000 0.033630 45.511 0.999429 -41.13 0.999429 -41.13 0.033631 52.221
8.85775000 0.033673 45.497 0.999428 -41.13 0.999428 -41.13 0.033674 52.227
8.85800000 0.033716 45.484 0.999426 -41.14 0.999426 -41.14 0.033717 52.233
8.85810228 0.033734 45.478 0.999426 -41.14 0.999426 -41.14 0.033735 52.236
8.85825000 0.033759 45.470 0.999425 -41.14 0.999425 -41.14 0.033761 52.239
8.85850000 0.033803 45.457 0.999423 -41.15 0.999423 -41.15 0.033805 52.245
8.85875000 0.033848 45.443 0.999422 -41.15 0.999422 -41.15 0.033849 52.252
8.85900000 0.033893 45.429 0.999420 -41.15 0.999420 -41.15 0.033894 52.258
8.85921659 0.033932 45.417 0.999419 -41.16 0.999419 -41.16 0.033933 52.264
8.85925000 0.033938 45.415 0.999419 -41.16 0.999419 -41.16 0.033939 52.264
8.85950000 0.033984 45.401 0.999417 -41.16 0.999417 -41.16 0.033985 52.271
8.85975000 0.034031 45.387 0.999415 -41.16 0.999415 -41.16 0.034032 52.277
8.86000000 0.034077 45.373 0.999414 -41.17 0.999414 -41.17 0.034079 52.284
8.86025000 0.034125 45.358 0.999412 -41.17 0.999412 -41.17 0.034126 52.290
8.86030538 0.034135 45.355 0.999412 -41.17 0.999412 -41.17 0.034137 52.292
8.86050000 0.034173 45.344 0.999410 -41.18 0.999410 -41.18 0.034174 52.297
8.86075000 0.034221 45.329 0.999409 -41.18 0.999409 -41.18 0.034222 52.304
8.86100000 0.034270 45.314 0.999407 -41.18 0.999407 -41.18 0.034271 52.310
8.86125000 0.034319 45.299 0.999405 -41.19 0.999405 -41.19 0.034321 52.317
8.86136921 0.034343 45.292 0.999404 -41.19 0.999404 -41.19 0.034344 52.320
8.86150000 0.034369 45.285 0.999404 -41.19 0.999404 -41.19 0.034371 52.324
8.86175000 0.034420 45.269 0.999402 -41.20 0.999402 -41.20 0.034421 52.331
8.86200000 0.034471 45.254 0.999400 -41.20 0.999400 -41.20 0.034472 52.338
8.86225000 0.034523 45.239 0.999398 -41.20 0.999398 -41.20 0.034524 52.345
8.86240867 0.034556 45.229 0.999397 -41.21 0.999397 -41.21 0.034557 52.349
8.86250000 0.034575 45.223 0.999396 -41.21 0.999396 -41.21 0.034576 52.352
8.86275000 0.034628 45.208 0.999394 -41.21 0.999394 -41.21 0.034629 52.359
8.86300000 0.034681 45.192 0.999392 -41.22 0.999392 -41.22 0.034683 52.366
8.86325000 0.034735 45.176 0.999391 -41.22 0.999391 -41.22 0.034737 52.373
8.86342431 0.034773 45.165 0.999389 -41.22 0.999389 -41.22 0.034775 52.379
8.86350000 0.034790 45.160 0.999389 -41.22 0.999389 -41.22 0.034791 52.381
8.86375000 0.034845 45.144 0.999387 -41.23 0.999387 -41.23 0.034847 52.388
8.86400000 0.034901 45.128 0.999385 -41.23 0.999385 -41.23 0.034903 52.396
8.86425000 0.034958 45.111 0.999383 -41.24 0.999383 -41.24 0.034959 52.403
8.86441668 0.034996 45.100 0.999381 -41.24 0.999381 -41.24 0.034997 52.408
8.86450000 0.035015 45.095 0.999380 -41.24 0.999380 -41.24 0.035017 52.411
8.86475000 0.035073 45.078 0.999378 -41.25 0.999378 -41.25 0.035074 52.418
8.86500000 0.035132 45.061 0.999376 -41.25 0.999376 -41.25 0.035133 52.426
8.86525000 0.035191 45.044 0.999374 -41.26 0.999374 -41.26 0.035192 52.434
8.86538631 0.035224 45.035 0.999373 -41.26 0.999373 -41.26 0.035225 52.438
8.86550000 0.035251 45.027 0.999372 -41.26 0.999372 -41.26 0.035253 52.442
8.86575000 0.035312 45.010 0.999370 -41.26 0.999370 -41.26 0.035313 52.449
8.86600000 0.035373 44.992 0.999368 -41.27 0.999368 -41.27 0.035375 52.457
8.86625000 0.035436 44.975 0.999365 -41.27 0.999365 -41.27 0.035437 52.465
8.86633372 0.035457 44.969 0.999364 -41.28 0.999364 -41.28 0.035458 52.468
8.86650000 0.035499 44.957 0.999363 -41.28 0.999363 -41.28 0.035500 52.473
8.86675000 0.035562 44.939 0.999361 -41.28 0.999361 -41.28 0.035564 52.482
8.86700000 0.035627 44.921 0.999358 -41.29 0.999358 -41.29 0.035629 52.490
8.86725000 0.035693 44.902 0.999356 -41.29 0.999356 -41.29 0.035694 52.498
8.86725942 0.035695 44.902 0.999356 -41.29 0.999356 -41.29 0.035697 52.498
8.86750000 0.035759 44.884 0.999353 -41.30 0.999353 -41.30 0.035760 52.507
8.86775000 0.035826 44.865 0.999351 -41.30 0.999351 -41.30 0.035827 52.515
8.86800000 0.035894 44.847 0.999348 -41.31 0.999348 -41.31 0.035895 52.523
8.86816391 0.035939 44.834 0.999347 -41.31 0.999347 -41.31 0.035941 52.529
8.86825000 0.035963 44.828 0.999346 -41.31 0.999346 -41.31 0.035964 52.532
8.86850000 0.036032 44.808 0.999343 -41.32 0.999343 -41.32 0.036034 52.541
8.86875000 0.036103 44.789 0.999341 -41.32 0.999341 -41.32 0.036105 52.549
8.86900000 0.036175 44.770 0.999338 -41.33 0.999338 -41.33 0.036176 52.558
8.86904768 0.036188 44.766 0.999337 -41.33 0.999337 -41.33 0.036190 52.560
8.86925000 0.036247 44.750 0.999335 -41.33 0.999335 -41.33 0.036249 52.567
8.86950000 0.036321 44.730 0.999333 -41.34 0.999333 -41.34 0.036322 52.576
8.86975000 0.036395 44.710 0.999330 -41.35 0.999330 -41.35 0.036397 52.585
8.86991120 0.036444 44.697 0.999328 -41.35 0.999328 -41.35 0.036446 52.591
8.87000000 0.036471 44.690 0.999327 -41.35 0.999327 -41.35 0.036472 52.594
8.87025000 0.036547 44.669 0.999324 -41.36 0.999324 -41.36 0.036549 52.603
8.87050000 0.036625 44.648 0.999321 -41.36 0.999321 -41.36 0.036627 52.613
8.87075000 0.036704 44.627 0.999318 -41.37 0.999318 -41.37 0.036705 52.622
8.87075493 0.036705 44.627 0.999318 -41.37 0.999318 -41.37 0.036707 52.622
8.87100000 0.036783 44.606 0.999315 -41.37 0.999315 -41.37 0.036785 52.631
8.87125000 0.036864 44.585 0.999312 -41.38 0.999312 -41.38 0.036866 52.641
8.87150000 0.036946 44.563 0.999309 -41.38 0.999309 -41.38 0.036948 52.651
8.87157932 0.036972 44.556 0.999308 -41.39 0.999308 -41.39 0.036974 52.654
8.87175000 0.037029 44.542 0.999306 -41.39 0.999306 -41.39 0.037031 52.660
8.87200000 0.037114 44.520 0.999302 -41.40 0.999302 -41.40 0.037116 52.670
8.87225000 0.037199 44.497 0.999299 -41.40 0.999299 -41.40 0.037201 52.680
8.87238483 0.037246 44.485 0.999297 -41.41 0.999297 -41.41 0.037248 52.685
8.87250000 0.037286 44.475 0.999296 -41.41 0.999296 -41.41 0.037288 52.690
8.87275000 0.037374 44.452 0.999292 -41.42 0.999292 -41.42 0.037376 52.700
8.87300000 0.037464 44.429 0.999289 -41.42 0.999289 -41.42 0.037466 52.710
8.87317188 0.037526 44.413 0.999287 -41.43 0.999287 -41.43 0.037528 52.717
8.87325000 0.037555 44.406 0.999285 -41.43 0.999285 -41.43 0.037557 52.720
8.87350000 0.037647 44.383 0.999282 -41.43 0.999282 -41.43 0.037649 52.730
8.87375000 0.037740 44.359 0.999278 -41.44 0.999278 -41.44 0.037742 52.741
8.87394089 0.037812 44.341 0.999275 -41.45 0.999275 -41.45 0.037815 52.749
8.87400000 0.037835 44.335 0.999275 -41.45 0.999275 -41.45 0.037837 52.751
8.87425000 0.037931 44.311 0.999271 -41.45 0.999271 -41.45 0.037934 52.762
8.87450000 0.038029 44.286 0.999267 -41.46 0.999267 -41.46 0.038032 52.772
8.87469229 0.038106 44.267 0.999264 -41.47 0.999264 -41.47 0.038108 52.781
8.87475000 0.038129 44.261 0.999263 -41.47 0.999263 -41.47 0.038131 52.783
8.87500000 0.038230 44.236 0.999259 -41.47 0.999259 -41.47 0.038232 52.794
8.87525000 0.038332 44.211 0.999255 -41.48 0.999255 -41.48 0.038335 52.805
8.87542646 0.038406 44.193 0.999252 -41.49 0.999252 -41.49 0.038408 52.813
8.87550000 0.038437 44.185 0.999251 -41.49 0.999251 -41.49 0.038439 52.816
8.87575000 0.038542 44.159 0.999247 -41.50 0.999247 -41.50 0.038545 52.827
8.87600000 0.038650 44.133 0.999242 -41.50 0.999242 -41.50 0.038652 52.838
8.87614382 0.038713 44.118 0.999240 -41.51 0.999240 -41.51 0.038715 52.845
8.87625000 0.038759 44.107 0.999238 -41.51 0.999238 -41.51 0.038762 52.850
8.87650000 0.038871 44.080 0.999233 -41.52 0.999233 -41.52 0.038873 52.861
8.87675000 0.038984 44.053 0.999229 -41.53 0.999229 -41.53 0.038986 52.873
8.87684473 0.039027 44.042 0.999227 -41.53 0.999227 -41.53 0.039029 52.877
8.87700000 0.039099 44.025 0.999224 -41.53 0.999224 -41.53 0.039101 52.884
8.87725000 0.039215 43.997 0.999219 -41.54 0.999219 -41.54 0.039218 52.896
8.87750000 0.039334 43.969 0.999215 -41.55 0.999215 -41.55 0.039337 52.908
8.87752959 0.039348 43.966 0.999214 -41.55 0.999214 -41.55 0.039351 52.909
8.87775000 0.039455 43.941 0.999210 -41.56 0.999210 -41.56 0.039458 52.920
8.87800000 0.039578 43.912 0.999205 -41.57 0.999205 -41.57 0.039581 52.932
8.87819875 0.039678 43.889 0.999201 -41.57 0.999201 -41.57 0.039680 52.941
8.87825000 0.039703 43.883 0.999200 -41.57 0.999200 -41.57 0.039706 52.944
8.87850000 0.039831 43.853 0.999194 -41.58 0.999194 -41.58 0.039833 52.956
8.87875000 0.039960 43.823 0.999189 -41.59 0.999189 -41.59 0.039963 52.968
8.87885258 0.040014 43.811 0.999187 -41.59 0.999187 -41.59 0.040017 52.973
8.87900000 0.040092 43.793 0.999183 -41.60 0.999183 -41.60 0.040095 52.981
8.87925000 0.040227 43.762 0.999178 -41.61 0.999178 -41.61 0.040230 52.993
8.87949143 0.040359 43.732 0.999172 -41.62 0.999172 -41.62 0.040362 53.005
8.87950000 0.040364 43.731 0.999172 -41.62 0.999172 -41.62 0.040367 53.006
8.87975000 0.040503 43.699 0.999166 -41.63 0.999166 -41.63 0.040506 53.018
8.88000000 0.040645 43.667 0.999160 -41.64 0.999160 -41.64 0.040648 53.031
8.88011564 0.040712 43.652 0.999157 -41.64 0.999157 -41.64 0.040715 53.037
8.88025000 0.040790 43.635 0.999154 -41.65 0.999154 -41.65 0.040793 53.044
8.88050000 0.040937 43.602 0.999148 -41.66 0.999148 -41.66 0.040940 53.057
8.88072555 0.041073 43.572 0.999142 -41.66 0.999142 -41.66 0.041076 53.069
8.88075000 0.041088 43.569 0.999141 -41.67 0.999141 -41.67 0.041091 53.070
8.88100000 0.041241 43.535 0.999135 -41.68 0.999135 -41.68 0.041244 53.083
8.88125000 0.041397 43.501 0.999128 -41.69 0.999128 -41.69 0.041400 53.097
8.88132148 0.041442 43.491 0.999126 -41.69 0.999126 -41.69 0.041445 53.101
8.88150000 0.041556 43.466 0.999121 -41.70 0.999121 -41.70 0.041559 53.110
8.88175000 0.041719 43.431 0.999114 -41.71 0.999114 -41.71 0.041722 53.124
8.88190376 0.041820 43.409 0.999110 -41.71 0.999110 -41.71 0.041824 53.132
8.88200000 0.041885 43.396 0.999107 -41.72 0.999107 -41.72 0.041888 53.137
8.88225000 0.042054 43.360 0.999100 -41.73 0.999100 -41.73 0.042057 53.151
8.88247269 0.042207 43.327 0.999093 -41.74 0.999093 -41.74 0.042211 53.164
8.88250000 0.042226 43.323 0.999092 -41.74 0.999092 -41.74 0.042230 53.165
8.88275000 0.042403 43.286 0.999084 -41.75 0.999084 -41.75 0.042406 53.179
8.88300000 0.042583 43.248 0.999076 -41.76 0.999076 -41.76 0.042586 53.193
8.88302859 0.042603 43.244 0.999075 -41.76 0.999075 -41.76 0.042607 53.195
8.88325000 0.042766 43.210 0.999068 -41.77 0.999068 -41.77 0.042770 53.207
8.88350000 0.042954 43.171 0.999060 -41.79 0.999060 -41.79 0.042958 53.221
8.88357175 0.043009 43.160 0.999057 -41.79 0.999057 -41.79 0.043012 53.226
8.88375000 0.043146 43.131 0.999051 -41.80 0.999051 -41.80 0.043150 53.236
8.88400000 0.043342 43.091 0.999042 -41.81 0.999042 -41.81 0.043346 53.250
8.88410246 0.043424 43.075 0.999039 -41.81 0.999039 -41.81 0.043428 53.256
8.88425000 0.043543 43.051 0.999033 -41.82 0.999033 -41.82 0.043546 53.265
8.88450000 0.043748 43.009 0.999024 -41.84 0.999024 -41.84 0.043751 53.279
8.88462102 0.043848 42.989 0.999019 -41.84 0.999019 -41.84 0.043852 53.286
8.88475000 0.043957 42.968 0.999014 -41.85 0.999014 -41.85 0.043961 53.294
8.88500000 0.044172 42.925 0.999004 -41.86 0.999004 -41.86 0.044176 53.309
8.88512769 0.044283 42.903 0.998999 -41.87 0.998999 -41.87 0.044287 53.316
8.88525000 0.044391 42.882 0.998994 -41.88 0.998994 -41.88 0.044395 53.324
8.88550000 0.044616 42.838 0.998984 -41.89 0.998984 -41.89 0.044620 53.339
8.88562275 0.044728 42.816 0.998979 -41.90 0.998979 -41.90 0.044732 53.346
8.88575000 0.044846 42.793 0.998973 -41.90 0.998973 -41.90 0.044850 53.354
8.88600000 0.045081 42.748 0.998962 -41.92 0.998962 -41.92 0.045086 53.369