! Sonnet Data File
! From: emgraph Version : 16.52
! From Emgraph Data: Resonator2_cp_varyW
! Data File Written: 10/09/2017 14:44:31
!< HDATE 10/09/2017 13:29:57
!< MDATE 10/09/2017 13:32:33
!< PARAMS
!< Length = 400.0
!< Pwid1 = 2000.0
!< Width = 50.0
!< gap = 26.0
!< END PARAMS
# GHZ S MA R 50.40000
8.90000000 0.001299 16.445 0.999995 -81.63 0.999995 -81.63 0.001298 0.5420
!< P1 F=8.9 Eeff=(6.44048165 -2.9687e-5) Z0=(50.4067405 1.16285e-4) R=0.0 C=0.0 
!< P2 F=8.9 Eeff=(6.44048165 -2.9687e-5) Z0=(50.4067405 1.16285e-4) R=0.0 C=0.0 
8.90010000 0.001297 16.509 0.999995 -81.63 0.999995 -81.63 0.001296 0.4767
8.90020000 0.001294 16.573 0.999995 -81.63 0.999995 -81.63 0.001293 0.4108
8.90030000 0.001292 16.638 0.999995 -81.63 0.999995 -81.63 0.001290 0.3443
8.90040000 0.001289 16.703 0.999995 -81.63 0.999995 -81.63 0.001288 0.2774
8.90050000 0.001286 16.769 0.999995 -81.64 0.999995 -81.64 0.001285 0.2100
8.90060000 0.001284 16.835 0.999995 -81.64 0.999995 -81.64 0.001282 0.1420
8.90070000 0.001281 16.902 0.999995 -81.64 0.999995 -81.64 0.001280 0.0736
8.90080000 0.001278 16.970 0.999995 -81.64 0.999995 -81.64 0.001277 0.0046
8.90090000 0.001276 17.038 0.999995 -81.64 0.999995 -81.64 0.001274 -0.065
8.90100000 0.001273 17.106 0.999995 -81.64 0.999995 -81.64 0.001272 -0.135
8.90110000 0.001270 17.175 0.999995 -81.64 0.999995 -81.64 0.001269 -0.205
8.90120000 0.001268 17.245 0.999995 -81.64 0.999995 -81.64 0.001266 -0.276
8.90130000 0.001265 17.315 0.999995 -81.64 0.999995 -81.64 0.001264 -0.348
8.90140000 0.001262 17.385 0.999995 -81.65 0.999995 -81.65 0.001261 -0.420
8.90150000 0.001260 17.456 0.999995 -81.65 0.999995 -81.65 0.001258 -0.493
8.90160000 0.001257 17.528 0.999995 -81.65 0.999995 -81.65 0.001256 -0.566
8.90170000 0.001254 17.600 0.999995 -81.65 0.999995 -81.65 0.001253 -0.640
8.90180000 0.001251 17.673 0.999995 -81.65 0.999995 -81.65 0.001250 -0.715
8.90190000 0.001249 17.747 0.999995 -81.65 0.999995 -81.65 0.001247 -0.790
8.90200000 0.001246 17.821 0.999995 -81.65 0.999995 -81.65 0.001245 -0.865
8.90210000 0.001243 17.896 0.999995 -81.65 0.999995 -81.65 0.001242 -0.941
8.90220000 0.001241 17.971 0.999995 -81.65 0.999995 -81.65 0.001239 -1.018
8.90230000 0.001238 18.047 0.999995 -81.66 0.999995 -81.66 0.001236 -1.096
8.90240000 0.001235 18.123 0.999995 -81.66 0.999995 -81.66 0.001234 -1.174
8.90250000 0.001232 18.200 0.999995 -81.66 0.999995 -81.66 0.001231 -1.252
8.90260000 0.001229 18.278 0.999995 -81.66 0.999995 -81.66 0.001228 -1.332
8.90270000 0.001227 18.356 0.999995 -81.66 0.999995 -81.66 0.001225 -1.411
8.90280000 0.001224 18.435 0.999995 -81.66 0.999995 -81.66 0.001222 -1.492
8.90290000 0.001221 18.515 0.999995 -81.66 0.999995 -81.66 0.001220 -1.573
8.90300000 0.001218 18.595 0.999995 -81.66 0.999995 -81.66 0.001217 -1.655
8.90310000 0.001215 18.677 0.999995 -81.66 0.999995 -81.66 0.001214 -1.738
8.90320000 0.001213 18.758 0.999995 -81.67 0.999995 -81.67 0.001211 -1.821
8.90330000 0.001210 18.841 0.999995 -81.67 0.999995 -81.67 0.001208 -1.905
8.90340000 0.001207 18.924 0.999995 -81.67 0.999995 -81.67 0.001205 -1.989
8.90350000 0.001204 19.007 0.999995 -81.67 0.999995 -81.67 0.001202 -2.075
8.90360000 0.001201 19.092 0.999995 -81.67 0.999995 -81.67 0.001200 -2.161
8.90370000 0.001198 19.177 0.999995 -81.67 0.999995 -81.67 0.001197 -2.247
8.90380000 0.001195 19.263 0.999995 -81.67 0.999995 -81.67 0.001194 -2.335
8.90390000 0.001193 19.350 0.999995 -81.67 0.999995 -81.67 0.001191 -2.423
8.90400000 0.001190 19.437 0.999995 -81.67 0.999995 -81.67 0.001188 -2.512
8.90410000 0.001187 19.526 0.999995 -81.68 0.999995 -81.68 0.001185 -2.602
8.90420000 0.001184 19.615 0.999995 -81.68 0.999995 -81.68 0.001182 -2.692
8.90430000 0.001181 19.704 0.999995 -81.68 0.999995 -81.68 0.001179 -2.783
8.90440000 0.001178 19.795 0.999995 -81.68 0.999995 -81.68 0.001176 -2.875
8.90450000 0.001175 19.886 0.999995 -81.68 0.999995 -81.68 0.001173 -2.968
8.90460000 0.001172 19.978 0.999995 -81.68 0.999995 -81.68 0.001170 -3.062
8.90470000 0.001169 20.071 0.999995 -81.68 0.999995 -81.68 0.001168 -3.156
8.90480000 0.001166 20.165 0.999995 -81.68 0.999995 -81.68 0.001165 -3.251
8.90490000 0.001163 20.260 0.999995 -81.68 0.999995 -81.68 0.001162 -3.347
8.90500000 0.001160 20.355 0.999995 -81.69 0.999995 -81.69 0.001159 -3.444
8.90510000 0.001157 20.451 0.999995 -81.69 0.999995 -81.69 0.001156 -3.542
8.90520000 0.001154 20.548 0.999995 -81.69 0.999995 -81.69 0.001153 -3.641
8.90530000 0.001151 20.647 0.999995 -81.69 0.999995 -81.69 0.001150 -3.740
8.90540000 0.001148 20.745 0.999995 -81.69 0.999995 -81.69 0.001147 -3.840
8.90550000 0.001145 20.845 0.999995 -81.69 0.999995 -81.69 0.001144 -3.942
8.90560000 0.001142 20.946 0.999995 -81.69 0.999995 -81.69 0.001141 -4.044
8.90570000 0.001139 21.048 0.999995 -81.69 0.999995 -81.69 0.001138 -4.147
8.90580000 0.001136 21.150 0.999995 -81.69 0.999995 -81.69 0.001134 -4.251
8.90590000 0.001133 21.254 0.999995 -81.70 0.999995 -81.70 0.001131 -4.356
8.90600000 0.001130 21.358 0.999995 -81.70 0.999995 -81.70 0.001128 -4.462
8.90610000 0.001127 21.464 0.999995 -81.70 0.999995 -81.70 0.001125 -4.569
8.90620000 0.001124 21.570 0.999995 -81.70 0.999995 -81.70 0.001122 -4.677
8.90630000 0.001121 21.678 0.999995 -81.70 0.999995 -81.70 0.001119 -4.786
8.90640000 0.001118 21.786 0.999995 -81.70 0.999995 -81.70 0.001116 -4.896
8.90650000 0.001115 21.896 0.999995 -81.70 0.999995 -81.70 0.001113 -5.006
8.90660000 0.001112 22.007 0.999995 -81.70 0.999995 -81.70 0.001110 -5.118
8.90670000 0.001109 22.118 0.999995 -81.70 0.999995 -81.70 0.001107 -5.231
8.90680000 0.001106 22.231 0.999995 -81.71 0.999995 -81.71 0.001104 -5.346
8.90690000 0.001103 22.345 0.999995 -81.71 0.999995 -81.71 0.001101 -5.461
8.90700000 0.001099 22.459 0.999995 -81.71 0.999995 -81.71 0.001097 -5.577
8.90710000 0.001096 22.575 0.999995 -81.71 0.999995 -81.71 0.001094 -5.694
8.90720000 0.001093 22.693 0.999995 -81.71 0.999995 -81.71 0.001091 -5.813
8.90730000 0.001090 22.811 0.999995 -81.71 0.999995 -81.71 0.001088 -5.932
8.90740000 0.001087 22.930 0.999995 -81.71 0.999995 -81.71 0.001085 -6.053
8.90750000 0.001084 23.051 0.999995 -81.71 0.999995 -81.71 0.001082 -6.175
8.90760000 0.001081 23.173 0.999995 -81.71 0.999995 -81.71 0.001078 -6.298
8.90770000 0.001077 23.295 0.999995 -81.72 0.999995 -81.72 0.001075 -6.423
8.90780000 0.001074 23.420 0.999995 -81.72 0.999995 -81.72 0.001072 -6.548
8.90790000 0.001071 23.545 0.999995 -81.72 0.999995 -81.72 0.001069 -6.675
8.90800000 0.001068 23.672 0.999995 -81.72 0.999995 -81.72 0.001066 -6.803
8.90810000 0.001065 23.800 0.999995 -81.72 0.999995 -81.72 0.001062 -6.932
8.90820000 0.001061 23.929 0.999995 -81.72 0.999995 -81.72 0.001059 -7.063
8.90830000 0.001058 24.060 0.999995 -81.72 0.999995 -81.72 0.001056 -7.195
8.90840000 0.001055 24.191 0.999995 -81.72 0.999995 -81.72 0.001053 -7.328
8.90850000 0.001052 24.325 0.999995 -81.72 0.999995 -81.72 0.001049 -7.463
8.90860000 0.001048 24.459 0.999995 -81.73 0.999995 -81.73 0.001046 -7.599
8.90870000 0.001045 24.595 0.999995 -81.73 0.999995 -81.73 0.001043 -7.736
8.90880000 0.001042 24.733 0.999995 -81.73 0.999995 -81.73 0.001040 -7.875
8.90890000 0.001039 24.871 0.999995 -81.73 0.999995 -81.73 0.001036 -8.015
8.90900000 0.001035 25.012 0.999995 -81.73 0.999995 -81.73 0.001033 -8.156
8.90910000 0.001032 25.153 0.999995 -81.73 0.999995 -81.73 0.001030 -8.299
8.90920000 0.001029 25.297 0.999995 -81.73 0.999995 -81.73 0.001027 -8.444
8.90930000 0.001026 25.441 0.999995 -81.73 0.999995 -81.73 0.001023 -8.590
8.90940000 0.001022 25.588 0.999995 -81.74 0.999995 -81.74 0.001020 -8.738
8.90950000 0.001019 25.735 0.999995 -81.74 0.999995 -81.74 0.001017 -8.887
8.90960000 0.001016 25.885 0.999995 -81.74 0.999995 -81.74 0.001013 -9.037
8.90970000 0.001012 26.036 0.999995 -81.74 0.999995 -81.74 0.001010 -9.190
8.90980000 0.001009 26.188 0.999995 -81.74 0.999995 -81.74 0.001007 -9.344
8.90990000 0.001006 26.343 0.999995 -81.74 0.999995 -81.74 0.001003 -9.499
8.91000000 0.001003 26.498 0.999995 -81.74 0.999995 -81.74 0.001000 -9.656
8.91010000 9.992e-4 26.656 0.999995 -81.74 0.999995 -81.74 9.966e-4 -9.815
8.91020000 9.958e-4 26.815 0.999995 -81.74 0.999995 -81.74 9.932e-4 -9.976
8.91030000 9.925e-4 26.976 0.999995 -81.75 0.999995 -81.75 9.899e-4 -10.14
8.91040000 9.891e-4 27.139 0.999995 -81.75 0.999995 -81.75 9.865e-4 -10.30
8.91050000 9.858e-4 27.304 0.999995 -81.75 0.999995 -81.75 9.831e-4 -10.47
8.91060000 9.824e-4 27.470 0.999995 -81.75 0.999995 -81.75 9.798e-4 -10.64
8.91070000 9.791e-4 27.639 0.999995 -81.75 0.999995 -81.75 9.764e-4 -10.81
8.91080000 9.757e-4 27.809 0.999995 -81.75 0.999995 -81.75 9.730e-4 -10.98
8.91090000 9.723e-4 27.981 0.999995 -81.75 0.999995 -81.75 9.696e-4 -11.15
8.91100000 9.689e-4 28.155 0.999995 -81.75 0.999995 -81.75 9.662e-4 -11.33
8.91110000 9.655e-4 28.331 0.999995 -81.76 0.999995 -81.76 9.628e-4 -11.50
8.91120000 9.621e-4 28.509 0.999995 -81.76 0.999995 -81.76 9.593e-4 -11.68
8.91130000 9.588e-4 28.689 0.999995 -81.76 0.999995 -81.76 9.559e-4 -11.86
8.91140000 9.554e-4 28.871 0.999995 -81.76 0.999995 -81.76 9.525e-4 -12.05
8.91150000 9.519e-4 29.055 0.999995 -81.76 0.999995 -81.76 9.491e-4 -12.23
8.91160000 9.485e-4 29.242 0.999995 -81.76 0.999995 -81.76 9.456e-4 -12.42
8.91170000 9.451e-4 29.430 0.999995 -81.76 0.999995 -81.76 9.422e-4 -12.61
8.91180000 9.417e-4 29.621 0.999995 -81.76 0.999995 -81.76 9.388e-4 -12.80
8.91190000 9.383e-4 29.813 0.999995 -81.76 0.999995 -81.76 9.353e-4 -13.00
8.91200000 9.349e-4 30.009 0.999995 -81.77 0.999995 -81.77 9.319e-4 -13.19
8.91210000 9.314e-4 30.206 0.999995 -81.77 0.999995 -81.77 9.284e-4 -13.39
8.91220000 9.280e-4 30.406 0.999995 -81.77 0.999995 -81.77 9.249e-4 -13.59
8.91230000 9.246e-4 30.608 0.999995 -81.77 0.999995 -81.77 9.215e-4 -13.80
8.91240000 9.211e-4 30.812 0.999995 -81.77 0.999995 -81.77 9.180e-4 -14.00
8.91250000 9.177e-4 31.019 0.999995 -81.77 0.999995 -81.77 9.146e-4 -14.21
8.91260000 9.142e-4 31.228 0.999995 -81.77 0.999995 -81.77 9.111e-4 -14.42
8.91270000 9.108e-4 31.440 0.999995 -81.77 0.999995 -81.77 9.076e-4 -14.63
8.91280000 9.073e-4 31.655 0.999995 -81.78 0.999995 -81.78 9.041e-4 -14.85
8.91290000 9.039e-4 31.872 0.999995 -81.78 0.999995 -81.78 9.007e-4 -15.07
8.91300000 9.004e-4 32.091 0.999995 -81.78 0.999995 -81.78 8.972e-4 -15.29
8.91310000 8.970e-4 32.314 0.999995 -81.78 0.999995 -81.78 8.937e-4 -15.51
8.91320000 8.935e-4 32.539 0.999995 -81.78 0.999995 -81.78 8.902e-4 -15.74
8.91330000 8.901e-4 32.766 0.999995 -81.78 0.999995 -81.78 8.867e-4 -15.97
8.91340000 8.866e-4 32.997 0.999995 -81.78 0.999995 -81.78 8.833e-4 -16.20
8.91350000 8.832e-4 33.230 0.999995 -81.78 0.999995 -81.78 8.798e-4 -16.44
8.91360000 8.797e-4 33.467 0.999995 -81.78 0.999995 -81.78 8.763e-4 -16.67
8.91370000 8.763e-4 33.706 0.999995 -81.79 0.999995 -81.79 8.728e-4 -16.91
8.91380000 8.728e-4 33.948 0.999995 -81.79 0.999995 -81.79 8.693e-4 -17.16
8.91390000 8.693e-4 34.193 0.999995 -81.79 0.999995 -81.79 8.658e-4 -17.41
8.91400000 8.659e-4 34.442 0.999995 -81.79 0.999995 -81.79 8.623e-4 -17.66
8.91410000 8.624e-4 34.693 0.999995 -81.79 0.999995 -81.79 8.589e-4 -17.91
8.91420000 8.590e-4 34.948 0.999995 -81.79 0.999995 -81.79 8.554e-4 -18.16
8.91430000 8.555e-4 35.205 0.999995 -81.79 0.999995 -81.79 8.519e-4 -18.42
8.91440000 8.521e-4 35.466 0.999995 -81.79 0.999995 -81.79 8.484e-4 -18.69
8.91450000 8.486e-4 35.731 0.999995 -81.80 0.999995 -81.80 8.449e-4 -18.95
8.91460000 8.452e-4 35.998 0.999995 -81.80 0.999995 -81.80 8.415e-4 -19.22
8.91470000 8.418e-4 36.270 0.999995 -81.80 0.999995 -81.80 8.380e-4 -19.49
8.91480000 8.383e-4 36.544 0.999995 -81.80 0.999995 -81.80 8.345e-4 -19.77
8.91490000 8.349e-4 36.822 0.999995 -81.80 0.999995 -81.80 8.311e-4 -20.05
8.91500000 8.315e-4 37.104 0.999995 -81.80 0.999995 -81.80 8.276e-4 -20.33
8.91510000 8.281e-4 37.390 0.999995 -81.80 0.999995 -81.80 8.241e-4 -20.62
8.91520000 8.246e-4 37.679 0.999995 -81.80 0.999995 -81.80 8.207e-4 -20.91
8.91530000 8.212e-4 37.972 0.999995 -81.81 0.999995 -81.81 8.172e-4 -21.21
8.91540000 8.178e-4 38.268 0.999995 -81.81 0.999995 -81.81 8.138e-4 -21.51
8.91550000 8.144e-4 38.569 0.999995 -81.81 0.999995 -81.81 8.104e-4 -21.81
8.91560000 8.110e-4 38.873 0.999995 -81.81 0.999995 -81.81 8.069e-4 -22.11
8.91570000 8.077e-4 39.182 0.999995 -81.81 0.999995 -81.81 8.035e-4 -22.43
8.91580000 8.043e-4 39.494 0.999995 -81.81 0.999995 -81.81 8.001e-4 -22.74
8.91590000 8.009e-4 39.811 0.999995 -81.81 0.999995 -81.81 7.967e-4 -23.06
8.91600000 7.976e-4 40.131 0.999995 -81.81 0.999995 -81.81 7.933e-4 -23.38
8.91610000 7.942e-4 40.456 0.999995 -81.82 0.999995 -81.82 7.899e-4 -23.71
8.91620000 7.909e-4 40.785 0.999995 -81.82 0.999995 -81.82 7.866e-4 -24.04
8.91630000 7.876e-4 41.119 0.999995 -81.82 0.999995 -81.82 7.832e-4 -24.38
8.91640000 7.843e-4 41.457 0.999995 -81.82 0.999995 -81.82 7.799e-4 -24.72
8.91650000 7.810e-4 41.800 0.999995 -81.82 0.999995 -81.82 7.765e-4 -25.06
8.91660000 7.777e-4 42.147 0.999995 -81.82 0.999995 -81.82 7.732e-4 -25.41
8.91670000 7.744e-4 42.498 0.999995 -81.82 0.999995 -81.82 7.699e-4 -25.76
8.91680000 7.711e-4 42.855 0.999995 -81.82 0.999995 -81.82 7.666e-4 -26.12
8.91690000 7.679e-4 43.216 0.999995 -81.83 0.999995 -81.83 7.633e-4 -26.49
8.91700000 7.647e-4 43.582 0.999995 -81.83 0.999995 -81.83 7.600e-4 -26.86
8.91710000 7.615e-4 43.952 0.999995 -81.83 0.999995 -81.83 7.568e-4 -27.23
8.91720000 7.583e-4 44.328 0.999995 -81.83 0.999995 -81.83 7.535e-4 -27.61
8.91730000 7.551e-4 44.709 0.999995 -81.83 0.999995 -81.83 7.503e-4 -27.99
8.91740000 7.519e-4 45.094 0.999995 -81.83 0.999995 -81.83 7.471e-4 -28.38
8.91750000 7.488e-4 45.485 0.999995 -81.83 0.999995 -81.83 7.439e-4 -28.77
8.91760000 7.457e-4 45.881 0.999995 -81.83 0.999995 -81.83 7.408e-4 -29.17
8.91770000 7.426e-4 46.283 0.999995 -81.84 0.999995 -81.84 7.376e-4 -29.58
8.91780000 7.395e-4 46.689 0.999995 -81.84 0.999995 -81.84 7.345e-4 -29.99
8.91790000 7.365e-4 47.101 0.999995 -81.84 0.999995 -81.84 7.314e-4 -30.40
8.91800000 7.334e-4 47.519 0.999995 -81.84 0.999995 -81.84 7.284e-4 -30.82
8.91810000 7.304e-4 47.942 0.999995 -81.84 0.999995 -81.84 7.253e-4 -31.25
8.91820000 7.275e-4 48.370 0.999995 -81.84 0.999995 -81.84 7.223e-4 -31.68
8.91830000 7.245e-4 48.805 0.999995 -81.84 0.999995 -81.84 7.193e-4 -32.12
8.91840000 7.216e-4 49.245 0.999995 -81.84 0.999995 -81.84 7.163e-4 -32.56
8.91850000 7.187e-4 49.690 0.999995 -81.85 0.999995 -81.85 7.134e-4 -33.01
8.91860000 7.159e-4 50.142 0.999995 -81.85 0.999995 -81.85 7.105e-4 -33.47
8.91870000 7.130e-4 50.599 0.999995 -81.85 0.999995 -81.85 7.076e-4 -33.93
8.91880000 7.102e-4 51.062 0.999995 -81.85 0.999995 -81.85 7.048e-4 -34.40
8.91890000 7.075e-4 51.532 0.999995 -81.85 0.999995 -81.85 7.019e-4 -34.87
8.91900000 7.047e-4 52.007 0.999995 -81.85 0.999995 -81.85 6.992e-4 -35.35
8.91910000 7.020e-4 52.488 0.999995 -81.85 0.999995 -81.85 6.964e-4 -35.84
8.91920000 6.994e-4 52.976 0.999995 -81.85 0.999995 -81.85 6.937e-4 -36.33
8.91930000 6.968e-4 53.470 0.999995 -81.86 0.999995 -81.86 6.911e-4 -36.83
8.91940000 6.942e-4 53.969 0.999995 -81.86 0.999995 -81.86 6.884e-4 -37.33
8.91950000 6.917e-4 54.476 0.999995 -81.86 0.999995 -81.86 6.858e-4 -37.84
8.91960000 6.892e-4 54.988 0.999995 -81.86 0.999995 -81.86 6.833e-4 -38.36
8.91970000 6.867e-4 55.507 0.999995 -81.86 0.999995 -81.86 6.808e-4 -38.89
8.91980000 6.843e-4 56.032 0.999995 -81.86 0.999995 -81.86 6.783e-4 -39.42
8.91990000 6.819e-4 56.564 0.999995 -81.86 0.999995 -81.86 6.759e-4 -39.95
8.92000000 6.796e-4 57.101 0.999995 -81.87 0.999995 -81.87 6.736e-4 -40.50
8.92010000 6.774e-4 57.646 0.999995 -81.87 0.999995 -81.87 6.713e-4 -41.05
8.92020000 6.752e-4 58.197 0.999995 -81.87 0.999995 -81.87 6.690e-4 -41.60
8.92030000 6.730e-4 58.754 0.999995 -81.87 0.999995 -81.87 6.668e-4 -42.17
8.92040000 6.709e-4 59.318 0.999995 -81.87 0.999995 -81.87 6.646e-4 -42.74
8.92050000 6.689e-4 59.888 0.999995 -81.87 0.999995 -81.87 6.625e-4 -43.32
8.92060000 6.669e-4 60.464 0.999995 -81.87 0.999995 -81.87 6.605e-4 -43.90
8.92070000 6.649e-4 61.047 0.999995 -81.87 0.999995 -81.87 6.585e-4 -44.49
8.92080000 6.630e-4 61.637 0.999995 -81.88 0.999995 -81.88 6.566e-4 -45.09
8.92090000 6.612e-4 62.233 0.999995 -81.88 0.999995 -81.88 6.547e-4 -45.69
8.92100000 6.595e-4 62.835 0.999995 -81.88 0.999995 -81.88 6.529e-4 -46.30
8.92110000 6.578e-4 63.444 0.999995 -81.88 0.999995 -81.88 6.512e-4 -46.91
8.92120000 6.562e-4 64.059 0.999995 -81.88 0.999995 -81.88 6.495e-4 -47.54
8.92130000 6.546e-4 64.680 0.999995 -81.88 0.999995 -81.88 6.479e-4 -48.17
8.92140000 6.532e-4 65.307 0.999995 -81.88 0.999995 -81.88 6.464e-4 -48.80
8.92150000 6.517e-4 65.941 0.999995 -81.89 0.999995 -81.89 6.449e-4 -49.44
8.92160000 6.504e-4 66.580 0.999995 -81.89 0.999995 -81.89 6.435e-4 -50.09
8.92170000 6.492e-4 67.226 0.999995 -81.89 0.999995 -81.89 6.422e-4 -50.75
8.92180000 6.480e-4 67.877 0.999995 -81.89 0.999995 -81.89 6.410e-4 -51.41
8.92190000 6.469e-4 68.535 0.999995 -81.89 0.999995 -81.89 6.398e-4 -52.07
8.92200000 6.458e-4 69.198 0.999995 -81.89 0.999995 -81.89 6.388e-4 -52.75
8.92210000 6.449e-4 69.866 0.999995 -81.89 0.999995 -81.89 6.378e-4 -53.43
8.92220000 6.440e-4 70.541 0.999995 -81.89 0.999995 -81.89 6.369e-4 -54.11
8.92230000 6.433e-4 71.220 0.999995 -81.90 0.999995 -81.90 6.361e-4 -54.80
8.92240000 6.426e-4 71.905 0.999995 -81.90 0.999995 -81.90 6.353e-4 -55.49
8.92250000 6.420e-4 72.595 0.999995 -81.90 0.999995 -81.90 6.347e-4 -56.19
8.92260000 6.415e-4 73.290 0.999995 -81.90 0.999995 -81.90 6.341e-4 -56.90
8.92270000 6.411e-4 73.990 0.999995 -81.90 0.999995 -81.90 6.337e-4 -57.61
8.92280000 6.408e-4 74.694 0.999995 -81.90 0.999995 -81.90 6.333e-4 -58.33
8.92290000 6.406e-4 75.403 0.999995 -81.90 0.999995 -81.90 6.331e-4 -59.05
8.92300000 6.404e-4 76.116 0.999995 -81.91 0.999995 -81.91 6.329e-4 -59.77
8.92310000 6.404e-4 76.834 0.999995 -81.91 0.999995 -81.91 6.329e-4 -60.50
8.92320000 6.405e-4 77.555 0.999995 -81.91 0.999995 -81.91 6.329e-4 -61.23
8.92330000 6.407e-4 78.280 0.999995 -81.91 0.999995 -81.91 6.330e-4 -61.97
8.92340000 6.410e-4 79.008 0.999995 -81.91 0.999995 -81.91 6.333e-4 -62.71
8.92350000 6.414e-4 79.740 0.999995 -81.91 0.999995 -81.91 6.337e-4 -63.45
8.92360000 6.419e-4 80.475 0.999995 -81.91 0.999995 -81.91 6.341e-4 -64.20
8.92370000 6.425e-4 81.213 0.999995 -81.92 0.999995 -81.92 6.347e-4 -64.95
8.92380000 6.432e-4 81.953 0.999995 -81.92 0.999995 -81.92 6.354e-4 -65.70
8.92390000 6.440e-4 82.696 0.999995 -81.92 0.999995 -81.92 6.362e-4 -66.46
8.92400000 6.450e-4 83.441 0.999995 -81.92 0.999995 -81.92 6.371e-4 -67.21
8.92410000 6.461e-4 84.188 0.999995 -81.92 0.999995 -81.92 6.382e-4 -67.97
8.92420000 6.472e-4 84.937 0.999995 -81.92 0.999995 -81.92 6.393e-4 -68.73
8.92430000 6.485e-4 85.687 0.999995 -81.92 0.999995 -81.92 6.406e-4 -69.50
8.92440000 6.500e-4 86.438 0.999995 -81.92 0.999995 -81.92 6.420e-4 -70.26
8.92450000 6.515e-4 87.190 0.999995 -81.93 0.999995 -81.93 6.435e-4 -71.02
8.92460000 6.532e-4 87.943 0.999995 -81.93 0.999995 -81.93 6.452e-4 -71.79
8.92470000 6.550e-4 88.696 0.999995 -81.93 0.999995 -81.93 6.469e-4 -72.56
8.92480000 6.569e-4 89.449 0.999995 -81.93 0.999995 -81.93 6.488e-4 -73.32
8.92490000 6.589e-4 90.202 0.999995 -81.93 0.999995 -81.93 6.508e-4 -74.09
8.92500000 6.611e-4 90.955 0.999995 -81.93 0.999995 -81.93 6.530e-4 -74.85
8.92510000 6.634e-4 91.707 0.999995 -81.93 0.999995 -81.93 6.553e-4 -75.62
8.92520000 6.658e-4 92.458 0.999995 -81.94 0.999995 -81.94 6.577e-4 -76.38
8.92530000 6.683e-4 93.207 0.999995 -81.94 0.999995 -81.94 6.602e-4 -77.14
8.92540000 6.710e-4 93.956 0.999995 -81.94 0.999995 -81.94 6.629e-4 -77.90
8.92550000 6.738e-4 94.703 0.999995 -81.94 0.999995 -81.94 6.657e-4 -78.66
8.92560000 6.768e-4 95.447 0.999995 -81.94 0.999995 -81.94 6.686e-4 -79.42
8.92570000 6.798e-4 96.190 0.999995 -81.94 0.999995 -81.94 6.717e-4 -80.17
8.92580000 6.831e-4 96.930 0.999995 -81.95 0.999995 -81.95 6.749e-4 -80.93
8.92590000 6.864e-4 97.668 0.999995 -81.95 0.999995 -81.95 6.782e-4 -81.68
8.92600000 6.899e-4 98.402 0.999995 -81.95 0.999995 -81.95 6.817e-4 -82.42
8.92610000 6.935e-4 99.134 0.999995 -81.95 0.999995 -81.95 6.853e-4 -83.17
8.92620000 6.972e-4 99.862 0.999995 -81.95 0.999995 -81.95 6.890e-4 -83.91
8.92630000 7.011e-4 100.59 0.999994 -81.95 0.999994 -81.95 6.929e-4 -84.64
8.92640000 7.051e-4 101.31 0.999994 -81.95 0.999994 -81.95 6.969e-4 -85.37
8.92650000 7.093e-4 102.02 0.999994 -81.96 0.999994 -81.96 7.011e-4 -86.10
8.92660000 7.136e-4 102.74 0.999994 -81.96 0.999994 -81.96 7.054e-4 -86.83
8.92670000 7.180e-4 103.45 0.999994 -81.96 0.999994 -81.96 7.098e-4 -87.55
8.92680000 7.226e-4 104.15 0.999994 -81.96 0.999994 -81.96 7.144e-4 -88.26
8.92690000 7.273e-4 104.85 0.999994 -81.96 0.999994 -81.96 7.191e-4 -88.97
8.92700000 7.321e-4 105.54 0.999994 -81.96 0.999994 -81.96 7.240e-4 -89.68
8.92710000 7.371e-4 106.23 0.999994 -81.96 0.999994 -81.96 7.289e-4 -90.38
8.92720000 7.422e-4 106.92 0.999994 -81.97 0.999994 -81.97 7.341e-4 -91.07
8.92730000 7.475e-4 107.60 0.999994 -81.97 0.999994 -81.97 7.393e-4 -91.76
8.92740000 7.529e-4 108.27 0.999994 -81.97 0.999994 -81.97 7.447e-4 -92.44
8.92750000 7.584e-4 108.94 0.999994 -81.97 0.999994 -81.97 7.503e-4 -93.12
8.92760000 7.641e-4 109.60 0.999994 -81.97 0.999994 -81.97 7.560e-4 -93.79
8.92770000 7.699e-4 110.26 0.999994 -81.97 0.999994 -81.97 7.618e-4 -94.46
8.92780000 7.758e-4 110.91 0.999994 -81.97 0.999994 -81.97 7.678e-4 -95.12
8.92790000 7.819e-4 111.55 0.999994 -81.98 0.999994 -81.98 7.739e-4 -95.77
8.92800000 7.881e-4 112.19 0.999994 -81.98 0.999994 -81.98 7.801e-4 -96.42
8.92810000 7.945e-4 112.82 0.999994 -81.98 0.999994 -81.98 7.865e-4 -97.06
8.92820000 8.010e-4 113.45 0.999994 -81.98 0.999994 -81.98 7.930e-4 -97.70
8.92830000 8.076e-4 114.07 0.999994 -81.98 0.999994 -81.98 7.996e-4 -98.32
8.92840000 8.144e-4 114.69 0.999994 -81.98 0.999994 -81.98 8.064e-4 -98.95
8.92850000 8.213e-4 115.29 0.999994 -81.99 0.999994 -81.99 8.134e-4 -99.56
8.92860000 8.283e-4 115.90 0.999994 -81.99 0.999994 -81.99 8.204e-4 -100.2
8.92870000 8.355e-4 116.49 0.999994 -81.99 0.999994 -81.99 8.276e-4 -100.8
8.92880000 8.428e-4 117.08 0.999994 -81.99 0.999994 -81.99 8.350e-4 -101.4
8.92890000 8.503e-4 117.66 0.999994 -81.99 0.999994 -81.99 8.425e-4 -102.0
8.92900000 8.579e-4 118.24 0.999994 -81.99 0.999994 -81.99 8.501e-4 -102.5
8.92910000 8.656e-4 118.81 0.999994 -82.00 0.999994 -82.00 8.579e-4 -103.1
8.92920000 8.735e-4 119.37 0.999994 -82.00 0.999994 -82.00 8.657e-4 -103.7
8.92930000 8.815e-4 119.93 0.999994 -82.00 0.999994 -82.00 8.738e-4 -104.3
8.92940000 8.897e-4 120.48 0.999994 -82.00 0.999994 -82.00 8.820e-4 -104.8
8.92950000 8.979e-4 121.02 0.999994 -82.00 0.999994 -82.00 8.903e-4 -105.4
8.92960000 9.064e-4 121.56 0.999994 -82.00 0.999994 -82.00 8.987e-4 -105.9
8.92970000 9.149e-4 122.09 0.999994 -82.00 0.999994 -82.00 9.073e-4 -106.4
8.92980000 9.236e-4 122.61 0.999994 -82.01 0.999994 -82.01 9.160e-4 -107.0
8.92990000 9.324e-4 123.13 0.999994 -82.01 0.999994 -82.01 9.249e-4 -107.5
8.93000000 9.414e-4 123.64 0.999994 -82.01 0.999994 -82.01 9.339e-4 -108.0
8.93010000 9.505e-4 124.15 0.999994 -82.01 0.999994 -82.01 9.430e-4 -108.5
8.93020000 9.597e-4 124.65 0.999994 -82.01 0.999994 -82.01 9.522e-4 -109.0
8.93030000 9.691e-4 125.14 0.999994 -82.01 0.999994 -82.01 9.616e-4 -109.5
8.93040000 9.786e-4 125.63 0.999994 -82.02 0.999994 -82.02 9.712e-4 -110.0
8.93050000 9.883e-4 126.11 0.999994 -82.02 0.999994 -82.02 9.809e-4 -110.5
8.93060000 9.981e-4 126.58 0.999994 -82.02 0.999994 -82.02 9.907e-4 -111.0
8.93070000 0.001008 127.05 0.999994 -82.02 0.999994 -82.02 0.001001 -111.5
8.93080000 0.001018 127.51 0.999994 -82.02 0.999994 -82.02 0.001011 -111.9
8.93090000 0.001028 127.97 0.999994 -82.02 0.999994 -82.02 0.001021 -112.4
8.93100000 0.001039 128.42 0.999993 -82.03 0.999993 -82.03 0.001031 -112.8
8.93110000 0.001049 128.86 0.999993 -82.03 0.999993 -82.03 0.001042 -113.3
8.93120000 0.001060 129.30 0.999993 -82.03 0.999993 -82.03 0.001052 -113.7
8.93130000 0.001070 129.74 0.999993 -82.03 0.999993 -82.03 0.001063 -114.2
8.93140000 0.001081 130.16 0.999993 -82.03 0.999993 -82.03 0.001074 -114.6
8.93150000 0.001092 130.59 0.999993 -82.03 0.999993 -82.03 0.001085 -115.0
8.93160000 0.001103 131.00 0.999993 -82.04 0.999993 -82.04 0.001096 -115.4
8.93170000 0.001115 131.41 0.999993 -82.04 0.999993 -82.04 0.001108 -115.9
8.93180000 0.001126 131.82 0.999993 -82.04 0.999993 -82.04 0.001119 -116.3
8.93190000 0.001138 132.22 0.999993 -82.04 0.999993 -82.04 0.001131 -116.7
8.93200000 0.001150 132.61 0.999993 -82.04 0.999993 -82.04 0.001143 -117.1
8.93210000 0.001161 133.00 0.999993 -82.04 0.999993 -82.04 0.001154 -117.5
8.93220000 0.001173 133.39 0.999993 -82.05 0.999993 -82.05 0.001166 -117.9
8.93230000 0.001186 133.77 0.999993 -82.05 0.999993 -82.05 0.001179 -118.2
8.93240000 0.001198 134.14 0.999993 -82.05 0.999993 -82.05 0.001191 -118.6
8.93250000 0.001210 134.51 0.999993 -82.05 0.999993 -82.05 0.001203 -119.0
8.93260000 0.001223 134.88 0.999993 -82.05 0.999993 -82.05 0.001216 -119.4
8.93270000 0.001236 135.24 0.999993 -82.06 0.999993 -82.06 0.001229 -119.7
8.93280000 0.001248 135.59 0.999993 -82.06 0.999993 -82.06 0.001242 -120.1
8.93290000 0.001261 135.94 0.999993 -82.06 0.999993 -82.06 0.001255 -120.4
8.93300000 0.001275 136.29 0.999993 -82.06 0.999993 -82.06 0.001268 -120.8
8.93310000 0.001288 136.63 0.999993 -82.06 0.999993 -82.06 0.001281 -121.1
8.93320000 0.001301 136.97 0.999993 -82.06 0.999993 -82.06 0.001295 -121.5
8.93330000 0.001315 137.30 0.999993 -82.07 0.999993 -82.07 0.001308 -121.8
8.93340000 0.001329 137.63 0.999993 -82.07 0.999993 -82.07 0.001322 -122.1
8.93350000 0.001343 137.95 0.999993 -82.07 0.999993 -82.07 0.001336 -122.5
8.93360000 0.001357 138.27 0.999993 -82.07 0.999993 -82.07 0.001350 -122.8
8.93370000 0.001371 138.59 0.999992 -82.07 0.999992 -82.07 0.001364 -123.1
8.93380000 0.001385 138.90 0.999992 -82.08 0.999992 -82.08 0.001379 -123.4
8.93390000 0.001400 139.21 0.999992 -82.08 0.999992 -82.08 0.001393 -123.7
8.93400000 0.001415 139.51 0.999992 -82.08 0.999992 -82.08 0.001408 -124.0
8.93410000 0.001429 139.81 0.999992 -82.08 0.999992 -82.08 0.001423 -124.3
8.93420000 0.001444 140.11 0.999992 -82.08 0.999992 -82.08 0.001438 -124.6
8.93430000 0.001460 140.40 0.999992 -82.08 0.999992 -82.08 0.001453 -124.9
8.93440000 0.001475 140.69 0.999992 -82.09 0.999992 -82.09 0.001468 -125.2
8.93450000 0.001490 140.97 0.999992 -82.09 0.999992 -82.09 0.001484 -125.5
8.93460000 0.001506 141.25 0.999992 -82.09 0.999992 -82.09 0.001500 -125.8
8.93470000 0.001522 141.53 0.999992 -82.09 0.999992 -82.09 0.001515 -126.1
8.93480000 0.001538 141.80 0.999992 -82.09 0.999992 -82.09 0.001531 -126.4
8.93490000 0.001554 142.07 0.999992 -82.10 0.999992 -82.10 0.001548 -126.6
8.93500000 0.001570 142.34 0.999992 -82.10 0.999992 -82.10 0.001564 -126.9
8.93510000 0.001587 142.60 0.999992 -82.10 0.999992 -82.10 0.001580 -127.2
8.93520000 0.001603 142.86 0.999992 -82.10 0.999992 -82.10 0.001597 -127.4
8.93530000 0.001620 143.12 0.999992 -82.10 0.999992 -82.10 0.001614 -127.7
8.93540000 0.001637 143.37 0.999992 -82.11 0.999992 -82.11 0.001631 -127.9
8.93550000 0.001654 143.62 0.999992 -82.11 0.999992 -82.11 0.001648 -128.2
8.93560000 0.001672 143.87 0.999991 -82.11 0.999991 -82.11 0.001665 -128.4
8.93570000 0.001689 144.11 0.999991 -82.11 0.999991 -82.11 0.001683 -128.7
8.93580000 0.001707 144.35 0.999991 -82.11 0.999991 -82.11 0.001701 -128.9
8.93590000 0.001725 144.59 0.999991 -82.12 0.999991 -82.12 0.001719 -129.2
8.93600000 0.001743 144.83 0.999991 -82.12 0.999991 -82.12 0.001737 -129.4
8.93610000 0.001761 145.06 0.999991 -82.12 0.999991 -82.12 0.001755 -129.7
8.93620000 0.001779 145.29 0.999991 -82.12 0.999991 -82.12 0.001773 -129.9
8.93630000 0.001798 145.52 0.999991 -82.12 0.999991 -82.12 0.001792 -130.1
8.93640000 0.001817 145.74 0.999991 -82.13 0.999991 -82.13 0.001811 -130.3
8.93650000 0.001836 145.96 0.999991 -82.13 0.999991 -82.13 0.001830 -130.6
8.93660000 0.001855 146.18 0.999991 -82.13 0.999991 -82.13 0.001849 -130.8
8.93670000 0.001875 146.39 0.999991 -82.13 0.999991 -82.13 0.001869 -131.0
8.93680000 0.001894 146.61 0.999991 -82.13 0.999991 -82.13 0.001888 -131.2
8.93690000 0.001914 146.82 0.999991 -82.14 0.999991 -82.14 0.001908 -131.4
8.93700000 0.001934 147.03 0.999990 -82.14 0.999990 -82.14 0.001928 -131.7
8.93710000 0.001954 147.23 0.999990 -82.14 0.999990 -82.14 0.001948 -131.9
8.93720000 0.001975 147.44 0.999990 -82.14 0.999990 -82.14 0.001969 -132.1
8.93730000 0.001995 147.64 0.999990 -82.15 0.999990 -82.15 0.001989 -132.3
8.93740000 0.002016 147.83 0.999990 -82.15 0.999990 -82.15 0.002010 -132.5
8.93750000 0.002037 148.03 0.999990 -82.15 0.999990 -82.15 0.002031 -132.7
8.93760000 0.002059 148.22 0.999990 -82.15 0.999990 -82.15 0.002053 -132.9
8.93770000 0.002080 148.42 0.999990 -82.15 0.999990 -82.15 0.002074 -133.1
8.93780000 0.002102 148.60 0.999990 -82.16 0.999990 -82.16 0.002096 -133.3
8.93790000 0.002124 148.79 0.999990 -82.16 0.999990 -82.16 0.002118 -133.5
8.93800000 0.002146 148.98 0.999990 -82.16 0.999990 -82.16 0.002140 -133.6
8.93810000 0.002168 149.16 0.999990 -82.16 0.999990 -82.16 0.002163 -133.8
8.93820000 0.002191 149.34 0.999989 -82.17 0.999989 -82.17 0.002185 -134.0
8.93830000 0.002214 149.52 0.999989 -82.17 0.999989 -82.17 0.002208 -134.2
8.93840000 0.002237 149.69 0.999989 -82.17 0.999989 -82.17 0.002232 -134.4
8.93850000 0.002261 149.87 0.999989 -82.17 0.999989 -82.17 0.002255 -134.6
8.93860000 0.002284 150.04 0.999989 -82.17 0.999989 -82.17 0.002279 -134.7
8.93870000 0.002308 150.21 0.999989 -82.18 0.999989 -82.18 0.002302 -134.9
8.93880000 0.002332 150.38 0.999989 -82.18 0.999989 -82.18 0.002327 -135.1
8.93890000 0.002357 150.55 0.999989 -82.18 0.999989 -82.18 0.002351 -135.2
8.93900000 0.002381 150.71 0.999989 -82.18 0.999989 -82.18 0.002376 -135.4
8.93910000 0.002406 150.88 0.999988 -82.19 0.999988 -82.19 0.002401 -135.6
8.93920000 0.002432 151.04 0.999988 -82.19 0.999988 -82.19 0.002426 -135.7