! Sonnet Data File
! From: emgraph Version : 16.52
! From Project: Resonator2_cp_cp
! Data is De-embedded 
! Data File Written: 10/06/2017 09:20:31
!< HDATE 10/05/2017 21:11:40
!< MDATE 10/05/2017 21:11:40
!< PARAMS
!< gap = 46.0
!< Length = 400.0
!< Pwid1 = 2000.0
!< Pwid2 = 2000.0
!< END PARAMS
# GHZ S MA R 51.80000
8.80000000 1.620e-4 -8.055 0.999997 -80.50 0.999997 -80.50 1.634e-4 28.561
!< P1 F=8.8 Eeff=(6.44679989 -2.9721e-5) Z0=(51.7992624 1.19519e-4) R=0.0 C=0.0 
!< P2 F=8.8 Eeff=(6.44679989 -2.9721e-5) Z0=(51.7992624 1.19519e-4) R=0.0 C=0.0 
8.80020000 1.621e-4 -8.060 0.999997 -80.51 0.999997 -80.51 1.635e-4 28.561
8.80040000 1.622e-4 -8.065 0.999997 -80.51 0.999997 -80.51 1.637e-4 28.562
8.80060000 1.624e-4 -8.070 0.999997 -80.51 0.999997 -80.51 1.638e-4 28.562
8.80080000 1.625e-4 -8.076 0.999997 -80.51 0.999997 -80.51 1.639e-4 28.562
8.80100000 1.626e-4 -8.081 0.999997 -80.51 0.999997 -80.51 1.640e-4 28.563
8.80120000 1.627e-4 -8.086 0.999997 -80.51 0.999997 -80.51 1.642e-4 28.563
8.80140000 1.629e-4 -8.092 0.999997 -80.52 0.999997 -80.52 1.643e-4 28.564
8.80160000 1.630e-4 -8.097 0.999997 -80.52 0.999997 -80.52 1.644e-4 28.564
8.80180000 1.631e-4 -8.102 0.999997 -80.52 0.999997 -80.52 1.645e-4 28.565
8.80200000 1.632e-4 -8.107 0.999997 -80.52 0.999997 -80.52 1.647e-4 28.565
8.80220000 1.634e-4 -8.113 0.999997 -80.52 0.999997 -80.52 1.648e-4 28.566
8.80240000 1.635e-4 -8.118 0.999997 -80.53 0.999997 -80.53 1.649e-4 28.566
8.80260000 1.636e-4 -8.123 0.999997 -80.53 0.999997 -80.53 1.651e-4 28.566
8.80280000 1.638e-4 -8.129 0.999997 -80.53 0.999997 -80.53 1.652e-4 28.567
8.80300000 1.639e-4 -8.134 0.999997 -80.53 0.999997 -80.53 1.653e-4 28.567
8.80320000 1.640e-4 -8.140 0.999997 -80.53 0.999997 -80.53 1.655e-4 28.568
8.80340000 1.641e-4 -8.145 0.999997 -80.53 0.999997 -80.53 1.656e-4 28.568
8.80360000 1.643e-4 -8.150 0.999997 -80.54 0.999997 -80.54 1.657e-4 28.569
8.80380000 1.644e-4 -8.156 0.999997 -80.54 0.999997 -80.54 1.658e-4 28.569
8.80400000 1.645e-4 -8.161 0.999997 -80.54 0.999997 -80.54 1.660e-4 28.570
8.80420000 1.647e-4 -8.166 0.999997 -80.54 0.999997 -80.54 1.661e-4 28.570
8.80440000 1.648e-4 -8.172 0.999997 -80.54 0.999997 -80.54 1.663e-4 28.571
8.80460000 1.649e-4 -8.177 0.999997 -80.55 0.999997 -80.55 1.664e-4 28.571
8.80480000 1.651e-4 -8.183 0.999997 -80.55 0.999997 -80.55 1.665e-4 28.571
8.80500000 1.652e-4 -8.188 0.999997 -80.55 0.999997 -80.55 1.667e-4 28.572
8.80520000 1.654e-4 -8.193 0.999997 -80.55 0.999997 -80.55 1.668e-4 28.572
8.80540000 1.655e-4 -8.199 0.999997 -80.55 0.999997 -80.55 1.669e-4 28.573
8.80560000 1.656e-4 -8.204 0.999997 -80.55 0.999997 -80.55 1.671e-4 28.573
8.80580000 1.658e-4 -8.210 0.999997 -80.56 0.999997 -80.56 1.672e-4 28.574
8.80600000 1.659e-4 -8.215 0.999997 -80.56 0.999997 -80.56 1.673e-4 28.574
8.80620000 1.660e-4 -8.221 0.999997 -80.56 0.999997 -80.56 1.675e-4 28.575
8.80640000 1.662e-4 -8.226 0.999997 -80.56 0.999997 -80.56 1.676e-4 28.575
8.80660000 1.663e-4 -8.231 0.999997 -80.56 0.999997 -80.56 1.678e-4 28.576
8.80680000 1.665e-4 -8.237 0.999997 -80.57 0.999997 -80.57 1.679e-4 28.576
8.80700000 1.666e-4 -8.242 0.999997 -80.57 0.999997 -80.57 1.680e-4 28.577
8.80720000 1.667e-4 -8.248 0.999997 -80.57 0.999997 -80.57 1.682e-4 28.577
8.80740000 1.669e-4 -8.253 0.999997 -80.57 0.999997 -80.57 1.683e-4 28.578
8.80760000 1.670e-4 -8.259 0.999997 -80.57 0.999997 -80.57 1.685e-4 28.578
8.80780000 1.672e-4 -8.264 0.999997 -80.57 0.999997 -80.57 1.686e-4 28.579
8.80800000 1.673e-4 -8.270 0.999997 -80.58 0.999997 -80.58 1.688e-4 28.579
8.80820000 1.675e-4 -8.275 0.999997 -80.58 0.999997 -80.58 1.689e-4 28.580
8.80840000 1.676e-4 -8.281 0.999997 -80.58 0.999997 -80.58 1.690e-4 28.580
8.80860000 1.678e-4 -8.286 0.999997 -80.58 0.999997 -80.58 1.692e-4 28.581
8.80880000 1.679e-4 -8.292 0.999997 -80.58 0.999997 -80.58 1.693e-4 28.581
8.80900000 1.680e-4 -8.297 0.999997 -80.59 0.999997 -80.59 1.695e-4 28.582
8.80920000 1.682e-4 -8.303 0.999997 -80.59 0.999997 -80.59 1.696e-4 28.582
8.80940000 1.683e-4 -8.308 0.999997 -80.59 0.999997 -80.59 1.698e-4 28.583
8.80960000 1.685e-4 -8.314 0.999997 -80.59 0.999997 -80.59 1.699e-4 28.583
8.80980000 1.686e-4 -8.319 0.999997 -80.59 0.999997 -80.59 1.701e-4 28.584
8.81000000 1.688e-4 -8.325 0.999997 -80.60 0.999997 -80.60 1.702e-4 28.584
8.81020000 1.689e-4 -8.330 0.999997 -80.60 0.999997 -80.60 1.704e-4 28.585
8.81040000 1.691e-4 -8.336 0.999997 -80.60 0.999997 -80.60 1.705e-4 28.585
8.81060000 1.692e-4 -8.341 0.999997 -80.60 0.999997 -80.60 1.707e-4 28.586
8.81080000 1.694e-4 -8.347 0.999997 -80.60 0.999997 -80.60 1.708e-4 28.586
8.81100000 1.695e-4 -8.352 0.999997 -80.60 0.999997 -80.60 1.710e-4 28.587
8.81120000 1.697e-4 -8.358 0.999997 -80.61 0.999997 -80.61 1.712e-4 28.587
8.81140000 1.699e-4 -8.363 0.999997 -80.61 0.999997 -80.61 1.713e-4 28.588
8.81160000 1.700e-4 -8.369 0.999997 -80.61 0.999997 -80.61 1.715e-4 28.588
8.81180000 1.702e-4 -8.375 0.999997 -80.61 0.999997 -80.61 1.716e-4 28.589
8.81200000 1.703e-4 -8.380 0.999997 -80.61 0.999997 -80.61 1.718e-4 28.589
8.81220000 1.705e-4 -8.386 0.999997 -80.62 0.999997 -80.62 1.719e-4 28.590
8.81240000 1.706e-4 -8.391 0.999997 -80.62 0.999997 -80.62 1.721e-4 28.590
8.81260000 1.708e-4 -8.397 0.999997 -80.62 0.999997 -80.62 1.723e-4 28.591
8.81280000 1.710e-4 -8.403 0.999997 -80.62 0.999997 -80.62 1.724e-4 28.591
8.81300000 1.711e-4 -8.408 0.999997 -80.62 0.999997 -80.62 1.726e-4 28.592
8.81320000 1.713e-4 -8.414 0.999997 -80.62 0.999997 -80.62 1.727e-4 28.592
8.81340000 1.714e-4 -8.419 0.999997 -80.63 0.999997 -80.63 1.729e-4 28.593
8.81360000 1.716e-4 -8.425 0.999997 -80.63 0.999997 -80.63 1.731e-4 28.593
8.81380000 1.718e-4 -8.431 0.999997 -80.63 0.999997 -80.63 1.732e-4 28.594
8.81400000 1.719e-4 -8.436 0.999997 -80.63 0.999997 -80.63 1.734e-4 28.595
8.81420000 1.721e-4 -8.442 0.999997 -80.63 0.999997 -80.63 1.735e-4 28.595
8.81440000 1.723e-4 -8.447 0.999997 -80.64 0.999997 -80.64 1.737e-4 28.596
8.81460000 1.724e-4 -8.453 0.999997 -80.64 0.999997 -80.64 1.739e-4 28.596
8.81480000 1.726e-4 -8.459 0.999997 -80.64 0.999997 -80.64 1.740e-4 28.597
8.81500000 1.728e-4 -8.464 0.999997 -80.64 0.999997 -80.64 1.742e-4 28.597
8.81520000 1.729e-4 -8.470 0.999997 -80.64 0.999997 -80.64 1.744e-4 28.598
8.81540000 1.731e-4 -8.476 0.999997 -80.64 0.999997 -80.64 1.746e-4 28.598
8.81560000 1.733e-4 -8.481 0.999997 -80.65 0.999997 -80.65 1.747e-4 28.599
8.81580000 1.734e-4 -8.487 0.999997 -80.65 0.999997 -80.65 1.749e-4 28.599
8.81600000 1.736e-4 -8.493 0.999997 -80.65 0.999997 -80.65 1.751e-4 28.600
8.81620000 1.738e-4 -8.498 0.999997 -80.65 0.999997 -80.65 1.752e-4 28.601
8.81640000 1.740e-4 -8.504 0.999997 -80.65 0.999997 -80.65 1.754e-4 28.601
8.81660000 1.741e-4 -8.510 0.999997 -80.66 0.999997 -80.66 1.756e-4 28.602
8.81680000 1.743e-4 -8.516 0.999997 -80.66 0.999997 -80.66 1.758e-4 28.602
8.81700000 1.745e-4 -8.521 0.999997 -80.66 0.999997 -80.66 1.759e-4 28.603
8.81720000 1.747e-4 -8.527 0.999997 -80.66 0.999997 -80.66 1.761e-4 28.603
8.81740000 1.748e-4 -8.533 0.999997 -80.66 0.999997 -80.66 1.763e-4 28.604
8.81760000 1.750e-4 -8.538 0.999997 -80.66 0.999997 -80.66 1.765e-4 28.604
8.81780000 1.752e-4 -8.544 0.999997 -80.67 0.999997 -80.67 1.766e-4 28.605
8.81800000 1.754e-4 -8.550 0.999997 -80.67 0.999997 -80.67 1.768e-4 28.606
8.81820000 1.755e-4 -8.556 0.999997 -80.67 0.999997 -80.67 1.770e-4 28.606
8.81840000 1.757e-4 -8.561 0.999997 -80.67 0.999997 -80.67 1.772e-4 28.607
8.81860000 1.759e-4 -8.567 0.999997 -80.67 0.999997 -80.67 1.774e-4 28.607
8.81880000 1.761e-4 -8.573 0.999997 -80.68 0.999997 -80.68 1.775e-4 28.608
8.81900000 1.763e-4 -8.579 0.999997 -80.68 0.999997 -80.68 1.777e-4 28.608
8.81920000 1.765e-4 -8.584 0.999997 -80.68 0.999997 -80.68 1.779e-4 28.609
8.81940000 1.766e-4 -8.590 0.999997 -80.68 0.999997 -80.68 1.781e-4 28.610
8.81960000 1.768e-4 -8.596 0.999997 -80.68 0.999997 -80.68 1.783e-4 28.610
8.81980000 1.770e-4 -8.602 0.999997 -80.69 0.999997 -80.69 1.785e-4 28.611
8.82000000 1.772e-4 -8.608 0.999997 -80.69 0.999997 -80.69 1.787e-4 28.611
8.82020000 1.774e-4 -8.613 0.999997 -80.69 0.999997 -80.69 1.789e-4 28.612
8.82040000 1.776e-4 -8.619 0.999997 -80.69 0.999997 -80.69 1.790e-4 28.613
8.82060000 1.778e-4 -8.625 0.999997 -80.69 0.999997 -80.69 1.792e-4 28.613
8.82080000 1.780e-4 -8.631 0.999997 -80.69 0.999997 -80.69 1.794e-4 28.614
8.82100000 1.782e-4 -8.637 0.999997 -80.70 0.999997 -80.70 1.796e-4 28.614
8.82120000 1.783e-4 -8.642 0.999997 -80.70 0.999997 -80.70 1.798e-4 28.615
8.82140000 1.785e-4 -8.648 0.999997 -80.70 0.999997 -80.70 1.800e-4 28.615
8.82160000 1.787e-4 -8.654 0.999997 -80.70 0.999997 -80.70 1.802e-4 28.616
8.82180000 1.789e-4 -8.660 0.999997 -80.70 0.999997 -80.70 1.804e-4 28.617
8.82200000 1.791e-4 -8.666 0.999997 -80.71 0.999997 -80.71 1.806e-4 28.617
8.82220000 1.793e-4 -8.672 0.999997 -80.71 0.999997 -80.71 1.808e-4 28.618
8.82240000 1.795e-4 -8.677 0.999997 -80.71 0.999997 -80.71 1.810e-4 28.618
8.82260000 1.797e-4 -8.683 0.999997 -80.71 0.999997 -80.71 1.812e-4 28.619
8.82280000 1.799e-4 -8.689 0.999997 -80.71 0.999997 -80.71 1.814e-4 28.620
8.82300000 1.801e-4 -8.695 0.999997 -80.71 0.999997 -80.71 1.816e-4 28.620
8.82320000 1.803e-4 -8.701 0.999997 -80.72 0.999997 -80.72 1.818e-4 28.621
8.82340000 1.805e-4 -8.707 0.999997 -80.72 0.999997 -80.72 1.820e-4 28.621
8.82360000 1.807e-4 -8.713 0.999997 -80.72 0.999997 -80.72 1.822e-4 28.622
8.82380000 1.809e-4 -8.719 0.999997 -80.72 0.999997 -80.72 1.824e-4 28.623
8.82400000 1.812e-4 -8.725 0.999997 -80.72 0.999997 -80.72 1.826e-4 28.623
8.82420000 1.814e-4 -8.730 0.999997 -80.73 0.999997 -80.73 1.828e-4 28.624
8.82440000 1.816e-4 -8.736 0.999997 -80.73 0.999997 -80.73 1.830e-4 28.624
8.82460000 1.818e-4 -8.742 0.999997 -80.73 0.999997 -80.73 1.832e-4 28.625
8.82480000 1.820e-4 -8.748 0.999997 -80.73 0.999997 -80.73 1.835e-4 28.626
8.82500000 1.822e-4 -8.754 0.999997 -80.73 0.999997 -80.73 1.837e-4 28.626
8.82520000 1.824e-4 -8.760 0.999997 -80.73 0.999997 -80.73 1.839e-4 28.627
8.82540000 1.826e-4 -8.766 0.999997 -80.74 0.999997 -80.74 1.841e-4 28.627
8.82560000 1.828e-4 -8.772 0.999997 -80.74 0.999997 -80.74 1.843e-4 28.628
8.82580000 1.831e-4 -8.778 0.999997 -80.74 0.999997 -80.74 1.845e-4 28.629
8.82600000 1.833e-4 -8.784 0.999997 -80.74 0.999997 -80.74 1.847e-4 28.629
8.82620000 1.835e-4 -8.790 0.999997 -80.74 0.999997 -80.74 1.850e-4 28.630
8.82640000 1.837e-4 -8.796 0.999997 -80.75 0.999997 -80.75 1.852e-4 28.631
8.82660000 1.839e-4 -8.802 0.999997 -80.75 0.999997 -80.75 1.854e-4 28.631
8.82680000 1.842e-4 -8.808 0.999997 -80.75 0.999997 -80.75 1.856e-4 28.632
8.82700000 1.844e-4 -8.814 0.999997 -80.75 0.999997 -80.75 1.858e-4 28.632
8.82720000 1.846e-4 -8.820 0.999997 -80.75 0.999997 -80.75 1.861e-4 28.633
8.82740000 1.848e-4 -8.826 0.999997 -80.76 0.999997 -80.76 1.863e-4 28.634
8.82760000 1.851e-4 -8.832 0.999997 -80.76 0.999997 -80.76 1.865e-4 28.634
8.82780000 1.853e-4 -8.838 0.999997 -80.76 0.999997 -80.76 1.868e-4 28.635
8.82800000 1.855e-4 -8.844 0.999997 -80.76 0.999997 -80.76 1.870e-4 28.636
8.82820000 1.857e-4 -8.850 0.999997 -80.76 0.999997 -80.76 1.872e-4 28.636
8.82840000 1.860e-4 -8.856 0.999997 -80.76 0.999997 -80.76 1.874e-4 28.637
8.82860000 1.862e-4 -8.862 0.999997 -80.77 0.999997 -80.77 1.877e-4 28.637
8.82880000 1.864e-4 -8.868 0.999997 -80.77 0.999997 -80.77 1.879e-4 28.638
8.82900000 1.867e-4 -8.874 0.999997 -80.77 0.999997 -80.77 1.881e-4 28.639
8.82920000 1.869e-4 -8.880 0.999997 -80.77 0.999997 -80.77 1.884e-4 28.639
8.82940000 1.871e-4 -8.886 0.999997 -80.77 0.999997 -80.77 1.886e-4 28.640
8.82960000 1.874e-4 -8.892 0.999997 -80.78 0.999997 -80.78 1.889e-4 28.641
8.82980000 1.876e-4 -8.898 0.999997 -80.78 0.999997 -80.78 1.891e-4 28.641
8.83000000 1.879e-4 -8.904 0.999997 -80.78 0.999997 -80.78 1.893e-4 28.642
8.83020000 1.881e-4 -8.910 0.999997 -80.78 0.999997 -80.78 1.896e-4 28.643
8.83040000 1.883e-4 -8.917 0.999997 -80.78 0.999997 -80.78 1.898e-4 28.643
8.83060000 1.886e-4 -8.923 0.999997 -80.78 0.999997 -80.78 1.901e-4 28.644
8.83080000 1.888e-4 -8.929 0.999997 -80.79 0.999997 -80.79 1.903e-4 28.645
8.83100000 1.891e-4 -8.935 0.999997 -80.79 0.999997 -80.79 1.906e-4 28.645
8.83120000 1.893e-4 -8.941 0.999997 -80.79 0.999997 -80.79 1.908e-4 28.646
8.83140000 1.896e-4 -8.947 0.999997 -80.79 0.999997 -80.79 1.911e-4 28.646
8.83160000 1.898e-4 -8.953 0.999997 -80.79 0.999997 -80.79 1.913e-4 28.647
8.83180000 1.901e-4 -8.959 0.999997 -80.80 0.999997 -80.80 1.916e-4 28.648
8.83200000 1.903e-4 -8.965 0.999997 -80.80 0.999997 -80.80 1.918e-4 28.648
8.83220000 1.906e-4 -8.972 0.999997 -80.80 0.999997 -80.80 1.921e-4 28.649
8.83240000 1.909e-4 -8.978 0.999997 -80.80 0.999997 -80.80 1.923e-4 28.650
8.83260000 1.911e-4 -8.984 0.999997 -80.80 0.999997 -80.80 1.926e-4 28.650
8.83280000 1.914e-4 -8.990 0.999997 -80.80 0.999997 -80.80 1.929e-4 28.651
8.83300000 1.916e-4 -8.996 0.999997 -80.81 0.999997 -80.81 1.931e-4 28.652
8.83320000 1.919e-4 -9.002 0.999997 -80.81 0.999997 -80.81 1.934e-4 28.652
8.83340000 1.922e-4 -9.009 0.999997 -80.81 0.999997 -80.81 1.936e-4 28.653
8.83360000 1.924e-4 -9.015 0.999997 -80.81 0.999997 -80.81 1.939e-4 28.654
8.83380000 1.927e-4 -9.021 0.999997 -80.81 0.999997 -80.81 1.942e-4 28.654
8.83400000 1.930e-4 -9.027 0.999997 -80.82 0.999997 -80.82 1.944e-4 28.655
8.83420000 1.932e-4 -9.033 0.999997 -80.82 0.999997 -80.82 1.947e-4 28.656
8.83440000 1.935e-4 -9.040 0.999997 -80.82 0.999997 -80.82 1.950e-4 28.656
8.83460000 1.938e-4 -9.046 0.999997 -80.82 0.999997 -80.82 1.953e-4 28.657
8.83480000 1.941e-4 -9.052 0.999997 -80.82 0.999997 -80.82 1.955e-4 28.658
8.83500000 1.943e-4 -9.058 0.999997 -80.83 0.999997 -80.83 1.958e-4 28.658
8.83520000 1.946e-4 -9.065 0.999997 -80.83 0.999997 -80.83 1.961e-4 28.659
8.83540000 1.949e-4 -9.071 0.999997 -80.83 0.999997 -80.83 1.964e-4 28.660
8.83560000 1.952e-4 -9.077 0.999997 -80.83 0.999997 -80.83 1.966e-4 28.660
8.83580000 1.954e-4 -9.083 0.999997 -80.83 0.999997 -80.83 1.969e-4 28.661
8.83600000 1.957e-4 -9.090 0.999997 -80.83 0.999997 -80.83 1.972e-4 28.662
8.83620000 1.960e-4 -9.096 0.999997 -80.84 0.999997 -80.84 1.975e-4 28.662
8.83640000 1.963e-4 -9.102 0.999997 -80.84 0.999997 -80.84 1.978e-4 28.663
8.83660000 1.966e-4 -9.109 0.999997 -80.84 0.999997 -80.84 1.981e-4 28.664
8.83680000 1.969e-4 -9.115 0.999997 -80.84 0.999997 -80.84 1.984e-4 28.664
8.83700000 1.972e-4 -9.121 0.999997 -80.84 0.999997 -80.84 1.987e-4 28.665
8.83720000 1.975e-4 -9.127 0.999997 -80.85 0.999997 -80.85 1.990e-4 28.666
8.83740000 1.978e-4 -9.134 0.999997 -80.85 0.999997 -80.85 1.993e-4 28.666
8.83760000 1.981e-4 -9.140 0.999997 -80.85 0.999997 -80.85 1.996e-4 28.667
8.83780000 1.984e-4 -9.146 0.999997 -80.85 0.999997 -80.85 1.999e-4 28.668
8.83800000 1.987e-4 -9.153 0.999997 -80.85 0.999997 -80.85 2.002e-4 28.668
8.83820000 1.990e-4 -9.159 0.999997 -80.85 0.999997 -80.85 2.005e-4 28.669
8.83840000 1.993e-4 -9.165 0.999997 -80.86 0.999997 -80.86 2.008e-4 28.670
8.83860000 1.996e-4 -9.172 0.999997 -80.86 0.999997 -80.86 2.011e-4 28.670
8.83880000 1.999e-4 -9.178 0.999997 -80.86 0.999997 -80.86 2.014e-4 28.671
8.83900000 2.002e-4 -9.185 0.999997 -80.86 0.999997 -80.86 2.017e-4 28.672
8.83920000 2.005e-4 -9.191 0.999997 -80.86 0.999997 -80.86 2.020e-4 28.672
8.83940000 2.008e-4 -9.197 0.999997 -80.87 0.999997 -80.87 2.023e-4 28.673
8.83960000 2.011e-4 -9.204 0.999997 -80.87 0.999997 -80.87 2.026e-4 28.674
8.83980000 2.015e-4 -9.210 0.999997 -80.87 0.999997 -80.87 2.029e-4 28.674
8.84000000 2.018e-4 -9.217 0.999997 -80.87 0.999997 -80.87 2.033e-4 28.675
8.84020000 2.021e-4 -9.223 0.999997 -80.87 0.999997 -80.87 2.036e-4 28.676
8.84040000 2.024e-4 -9.229 0.999997 -80.87 0.999997 -80.87 2.039e-4 28.676
8.84060000 2.027e-4 -9.236 0.999997 -80.88 0.999997 -80.88 2.042e-4 28.677
8.84080000 2.031e-4 -9.242 0.999997 -80.88 0.999997 -80.88 2.046e-4 28.678
8.84100000 2.034e-4 -9.249 0.999997 -80.88 0.999997 -80.88 2.049e-4 28.679
8.84120000 2.037e-4 -9.255 0.999997 -80.88 0.999997 -80.88 2.052e-4 28.679
8.84140000 2.041e-4 -9.262 0.999997 -80.88 0.999997 -80.88 2.056e-4 28.680
8.84160000 2.044e-4 -9.268 0.999997 -80.89 0.999997 -80.89 2.059e-4 28.681
8.84180000 2.047e-4 -9.275 0.999997 -80.89 0.999997 -80.89 2.062e-4 28.681
8.84200000 2.051e-4 -9.281 0.999997 -80.89 0.999997 -80.89 2.066e-4 28.682
8.84220000 2.054e-4 -9.288 0.999997 -80.89 0.999997 -80.89 2.069e-4 28.683
8.84240000 2.058e-4 -9.294 0.999997 -80.89 0.999997 -80.89 2.073e-4 28.683
8.84260000 2.061e-4 -9.300 0.999997 -80.90 0.999997 -80.90 2.076e-4 28.684
8.84280000 2.065e-4 -9.307 0.999997 -80.90 0.999997 -80.90 2.080e-4 28.685
8.84300000 2.068e-4 -9.314 0.999997 -80.90 0.999997 -80.90 2.083e-4 28.685
8.84320000 2.072e-4 -9.320 0.999997 -80.90 0.999997 -80.90 2.087e-4 28.686
8.84340000 2.075e-4 -9.327 0.999997 -80.90 0.999997 -80.90 2.090e-4 28.687
8.84360000 2.079e-4 -9.333 0.999997 -80.90 0.999997 -80.90 2.094e-4 28.687
8.84380000 2.082e-4 -9.340 0.999997 -80.91 0.999997 -80.91 2.097e-4 28.688
8.84400000 2.086e-4 -9.346 0.999997 -80.91 0.999997 -80.91 2.101e-4 28.689
8.84420000 2.090e-4 -9.353 0.999997 -80.91 0.999997 -80.91 2.105e-4 28.690
8.84440000 2.093e-4 -9.359 0.999997 -80.91 0.999997 -80.91 2.108e-4 28.690
8.84460000 2.097e-4 -9.366 0.999997 -80.91 0.999997 -80.91 2.112e-4 28.691
8.84480000 2.101e-4 -9.372 0.999997 -80.92 0.999997 -80.92 2.116e-4 28.692
8.84500000 2.104e-4 -9.379 0.999997 -80.92 0.999997 -80.92 2.119e-4 28.692
8.84520000 2.108e-4 -9.386 0.999997 -80.92 0.999997 -80.92 2.123e-4 28.693
8.84540000 2.112e-4 -9.392 0.999997 -80.92 0.999997 -80.92 2.127e-4 28.694
8.84560000 2.116e-4 -9.399 0.999997 -80.92 0.999997 -80.92 2.131e-4 28.694
8.84580000 2.120e-4 -9.405 0.999997 -80.92 0.999997 -80.92 2.135e-4 28.695
8.84600000 2.123e-4 -9.412 0.999997 -80.93 0.999997 -80.93 2.138e-4 28.696
8.84620000 2.127e-4 -9.419 0.999997 -80.93 0.999997 -80.93 2.142e-4 28.696
8.84640000 2.131e-4 -9.425 0.999997 -80.93 0.999997 -80.93 2.146e-4 28.697
8.84660000 2.135e-4 -9.432 0.999997 -80.93 0.999997 -80.93 2.150e-4 28.698
8.84680000 2.139e-4 -9.439 0.999997 -80.93 0.999997 -80.93 2.154e-4 28.699
8.84700000 2.143e-4 -9.445 0.999997 -80.94 0.999997 -80.94 2.158e-4 28.699
8.84720000 2.147e-4 -9.452 0.999997 -80.94 0.999997 -80.94 2.162e-4 28.700
8.84740000 2.151e-4 -9.459 0.999997 -80.94 0.999997 -80.94 2.166e-4 28.701
8.84760000 2.155e-4 -9.465 0.999997 -80.94 0.999997 -80.94 2.170e-4 28.701
8.84780000 2.159e-4 -9.472 0.999997 -80.94 0.999997 -80.94 2.174e-4 28.702
8.84800000 2.164e-4 -9.479 0.999997 -80.95 0.999997 -80.95 2.179e-4 28.703
8.84820000 2.168e-4 -9.485 0.999997 -80.95 0.999997 -80.95 2.183e-4 28.703
8.84840000 2.172e-4 -9.492 0.999997 -80.95 0.999997 -80.95 2.187e-4 28.704
8.84860000 2.176e-4 -9.499 0.999997 -80.95 0.999997 -80.95 2.191e-4 28.705
8.84880000 2.180e-4 -9.506 0.999997 -80.95 0.999997 -80.95 2.195e-4 28.706
8.84900000 2.185e-4 -9.512 0.999997 -80.95 0.999997 -80.95 2.200e-4 28.706
8.84920000 2.189e-4 -9.519 0.999997 -80.96 0.999997 -80.96 2.204e-4 28.707
8.84940000 2.193e-4 -9.526 0.999997 -80.96 0.999997 -80.96 2.208e-4 28.708
8.84960000 2.198e-4 -9.533 0.999997 -80.96 0.999997 -80.96 2.213e-4 28.708
8.84980000 2.202e-4 -9.539 0.999997 -80.96 0.999997 -80.96 2.217e-4 28.709
8.85000000 2.206e-4 -9.546 0.999997 -80.96 0.999997 -80.96 2.222e-4 28.710
8.85020000 2.211e-4 -9.553 0.999997 -80.97 0.999997 -80.97 2.226e-4 28.710
8.85040000 2.215e-4 -9.560 0.999997 -80.97 0.999997 -80.97 2.230e-4 28.711
8.85060000 2.220e-4 -9.567 0.999997 -80.97 0.999997 -80.97 2.235e-4 28.712
8.85080000 2.225e-4 -9.573 0.999997 -80.97 0.999997 -80.97 2.240e-4 28.712
8.85100000 2.229e-4 -9.580 0.999997 -80.97 0.999997 -80.97 2.244e-4 28.713
8.85120000 2.234e-4 -9.587 0.999997 -80.97 0.999997 -80.97 2.249e-4 28.714
8.85140000 2.238e-4 -9.594 0.999997 -80.98 0.999997 -80.98 2.253e-4 28.715
8.85160000 2.243e-4 -9.601 0.999997 -80.98 0.999997 -80.98 2.258e-4 28.715
8.85180000 2.248e-4 -9.608 0.999997 -80.98 0.999997 -80.98 2.263e-4 28.716
8.85200000 2.253e-4 -9.614 0.999997 -80.98 0.999997 -80.98 2.268e-4 28.717
8.85220000 2.257e-4 -9.621 0.999997 -80.98 0.999997 -80.98 2.272e-4 28.717
8.85240000 2.262e-4 -9.628 0.999997 -80.99 0.999997 -80.99 2.277e-4 28.718
8.85260000 2.267e-4 -9.635 0.999997 -80.99 0.999997 -80.99 2.282e-4 28.719
8.85280000 2.272e-4 -9.642 0.999997 -80.99 0.999997 -80.99 2.287e-4 28.719
8.85300000 2.277e-4 -9.649 0.999997 -80.99 0.999997 -80.99 2.292e-4 28.720
8.85320000 2.282e-4 -9.656 0.999997 -80.99 0.999997 -80.99 2.297e-4 28.721
8.85340000 2.287e-4 -9.663 0.999997 -81.00 0.999997 -81.00 2.302e-4 28.721
8.85360000 2.292e-4 -9.670 0.999997 -81.00 0.999997 -81.00 2.307e-4 28.722
8.85380000 2.297e-4 -9.677 0.999997 -81.00 0.999997 -81.00 2.312e-4 28.723
8.85400000 2.302e-4 -9.683 0.999997 -81.00 0.999997 -81.00 2.317e-4 28.724
8.85420000 2.307e-4 -9.690 0.999997 -81.00 0.999997 -81.00 2.322e-4 28.724
8.85440000 2.312e-4 -9.697 0.999997 -81.00 0.999997 -81.00 2.328e-4 28.725
8.85460000 2.318e-4 -9.704 0.999997 -81.01 0.999997 -81.01 2.333e-4 28.726
8.85480000 2.323e-4 -9.711 0.999997 -81.01 0.999997 -81.01 2.338e-4 28.726
8.85500000 2.328e-4 -9.718 0.999997 -81.01 0.999997 -81.01 2.343e-4 28.727
8.85520000 2.334e-4 -9.725 0.999997 -81.01 0.999997 -81.01 2.349e-4 28.728
8.85540000 2.339e-4 -9.732 0.999997 -81.01 0.999997 -81.01 2.354e-4 28.728
8.85560000 2.345e-4 -9.739 0.999997 -81.02 0.999997 -81.02 2.360e-4 28.729
8.85580000 2.350e-4 -9.746 0.999997 -81.02 0.999997 -81.02 2.365e-4 28.730
8.85600000 2.356e-4 -9.753 0.999997 -81.02 0.999997 -81.02 2.371e-4 28.730
8.85620000 2.361e-4 -9.760 0.999997 -81.02 0.999997 -81.02 2.376e-4 28.731
8.85640000 2.367e-4 -9.767 0.999997 -81.02 0.999997 -81.02 2.382e-4 28.732
8.85660000 2.372e-4 -9.775 0.999997 -81.03 0.999997 -81.03 2.388e-4 28.732
8.85680000 2.378e-4 -9.782 0.999997 -81.03 0.999997 -81.03 2.393e-4 28.733
8.85700000 2.384e-4 -9.789 0.999997 -81.03 0.999997 -81.03 2.399e-4 28.734
8.85720000 2.390e-4 -9.796 0.999997 -81.03 0.999997 -81.03 2.405e-4 28.735
8.85740000 2.396e-4 -9.803 0.999997 -81.03 0.999997 -81.03 2.411e-4 28.735
8.85760000 2.401e-4 -9.810 0.999997 -81.03 0.999997 -81.03 2.417e-4 28.736
8.85780000 2.407e-4 -9.817 0.999997 -81.04 0.999997 -81.04 2.423e-4 28.737
8.85800000 2.413e-4 -9.824 0.999997 -81.04 0.999997 -81.04 2.429e-4 28.737
8.85820000 2.419e-4 -9.831 0.999997 -81.04 0.999997 -81.04 2.435e-4 28.738
8.85840000 2.426e-4 -9.838 0.999997 -81.04 0.999997 -81.04 2.441e-4 28.739
8.85860000 2.432e-4 -9.846 0.999997 -81.04 0.999997 -81.04 2.447e-4 28.739
8.85880000 2.438e-4 -9.853 0.999997 -81.05 0.999997 -81.05 2.453e-4 28.740
8.85900000 2.444e-4 -9.860 0.999997 -81.05 0.999997 -81.05 2.459e-4 28.741
8.85920000 2.450e-4 -9.867 0.999997 -81.05 0.999997 -81.05 2.466e-4 28.741
8.85940000 2.457e-4 -9.874 0.999997 -81.05 0.999997 -81.05 2.472e-4 28.742
8.85960000 2.463e-4 -9.881 0.999997 -81.05 0.999997 -81.05 2.478e-4 28.743
8.85980000 2.470e-4 -9.889 0.999997 -81.05 0.999997 -81.05 2.485e-4 28.743
8.86000000 2.476e-4 -9.896 0.999997 -81.06 0.999997 -81.06 2.491e-4 28.744
8.86020000 2.483e-4 -9.903 0.999997 -81.06 0.999997 -81.06 2.498e-4 28.745
8.86040000 2.489e-4 -9.910 0.999997 -81.06 0.999997 -81.06 2.505e-4 28.745
8.86060000 2.496e-4 -9.918 0.999997 -81.06 0.999997 -81.06 2.511e-4 28.746
8.86080000 2.503e-4 -9.925 0.999997 -81.06 0.999997 -81.06 2.518e-4 28.747
8.86100000 2.510e-4 -9.932 0.999997 -81.07 0.999997 -81.07 2.525e-4 28.747
8.86120000 2.516e-4 -9.939 0.999997 -81.07 0.999997 -81.07 2.532e-4 28.748
8.86140000 2.523e-4 -9.947 0.999997 -81.07 0.999997 -81.07 2.539e-4 28.749
8.86160000 2.530e-4 -9.954 0.999997 -81.07 0.999997 -81.07 2.546e-4 28.749
8.86180000 2.537e-4 -9.961 0.999997 -81.07 0.999997 -81.07 2.553e-4 28.750
8.86200000 2.544e-4 -9.969 0.999997 -81.08 0.999997 -81.08 2.560e-4 28.751
8.86220000 2.552e-4 -9.976 0.999997 -81.08 0.999997 -81.08 2.567e-4 28.751
8.86240000 2.559e-4 -9.983 0.999997 -81.08 0.999997 -81.08 2.574e-4 28.752
8.86260000 2.566e-4 -9.991 0.999997 -81.08 0.999997 -81.08 2.581e-4 28.752
8.86280000 2.574e-4 -9.998 0.999997 -81.08 0.999997 -81.08 2.589e-4 28.753
8.86300000 2.581e-4 -10.01 0.999997 -81.08 0.999997 -81.08 2.596e-4 28.754
8.86320000 2.588e-4 -10.01 0.999997 -81.09 0.999997 -81.09 2.604e-4 28.754
8.86340000 2.596e-4 -10.02 0.999997 -81.09 0.999997 -81.09 2.611e-4 28.755
8.86360000 2.604e-4 -10.03 0.999997 -81.09 0.999997 -81.09 2.619e-4 28.756
8.86380000 2.611e-4 -10.03 0.999997 -81.09 0.999997 -81.09 2.627e-4 28.756
8.86400000 2.619e-4 -10.04 0.999997 -81.09 0.999997 -81.09 2.634e-4 28.757
8.86420000 2.627e-4 -10.05 0.999997 -81.10 0.999997 -81.10 2.642e-4 28.758
8.86440000 2.635e-4 -10.06 0.999997 -81.10 0.999997 -81.10 2.650e-4 28.758
8.86460000 2.643e-4 -10.06 0.999997 -81.10 0.999997 -81.10 2.658e-4 28.759
8.86480000 2.651e-4 -10.07 0.999997 -81.10 0.999997 -81.10 2.666e-4 28.760
8.86500000 2.659e-4 -10.08 0.999997 -81.10 0.999997 -81.10 2.674e-4 28.760
8.86520000 2.667e-4 -10.09 0.999997 -81.11 0.999997 -81.11 2.683e-4 28.761
8.86540000 2.676e-4 -10.09 0.999997 -81.11 0.999997 -81.11 2.691e-4 28.761
8.86560000 2.684e-4 -10.10 0.999997 -81.11 0.999997 -81.11 2.699e-4 28.762
8.86580000 2.693e-4 -10.11 0.999997 -81.11 0.999997 -81.11 2.708e-4 28.763
8.86600000 2.701e-4 -10.12 0.999997 -81.11 0.999997 -81.11 2.716e-4 28.763
8.86620000 2.710e-4 -10.12 0.999997 -81.11 0.999997 -81.11 2.725e-4 28.764
8.86640000 2.718e-4 -10.13 0.999997 -81.12 0.999997 -81.12 2.734e-4 28.764
8.86660000 2.727e-4 -10.14 0.999997 -81.12 0.999997 -81.12 2.743e-4 28.765
8.86680000 2.736e-4 -10.15 0.999997 -81.12 0.999997 -81.12 2.751e-4 28.766
8.86700000 2.745e-4 -10.15 0.999997 -81.12 0.999997 -81.12 2.760e-4 28.766
8.86720000 2.754e-4 -10.16 0.999997 -81.12 0.999997 -81.12 2.769e-4 28.767
8.86740000 2.763e-4 -10.17 0.999997 -81.13 0.999997 -81.13 2.779e-4 28.767
8.86760000 2.773e-4 -10.18 0.999997 -81.13 0.999997 -81.13 2.788e-4 28.768
8.86780000 2.782e-4 -10.19 0.999997 -81.13 0.999997 -81.13 2.797e-4 28.769
8.86800000 2.791e-4 -10.19 0.999997 -81.13 0.999997 -81.13 2.807e-4 28.769
8.86820000 2.801e-4 -10.20 0.999997 -81.13 0.999997 -81.13 2.816e-4 28.770
8.86840000 2.811e-4 -10.21 0.999997 -81.14 0.999997 -81.14 2.826e-4 28.770
8.86860000 2.820e-4 -10.22 0.999997 -81.14 0.999997 -81.14 2.836e-4 28.771
8.86880000 2.830e-4 -10.22 0.999997 -81.14 0.999997 -81.14 2.845e-4 28.772
8.86900000 2.840e-4 -10.23 0.999997 -81.14 0.999997 -81.14 2.855e-4 28.772
8.86920000 2.850e-4 -10.24 0.999997 -81.14 0.999997 -81.14 2.865e-4 28.773
8.86940000 2.860e-4 -10.25 0.999997 -81.15 0.999997 -81.15 2.876e-4 28.773
8.86960000 2.871e-4 -10.25 0.999997 -81.15 0.999997 -81.15 2.886e-4 28.774
8.86980000 2.881e-4 -10.26 0.999997 -81.15 0.999997 -81.15 2.896e-4 28.774
8.87000000 2.891e-4 -10.27 0.999997 -81.15 0.999997 -81.15 2.907e-4 28.775
8.87020000 2.902e-4 -10.28 0.999997 -81.15 0.999997 -81.15 2.917e-4 28.776
8.87040000 2.913e-4 -10.29 0.999997 -81.15 0.999997 -81.15 2.928e-4 28.776
8.87060000 2.924e-4 -10.29 0.999997 -81.16 0.999997 -81.16 2.939e-4 28.777
8.87080000 2.934e-4 -10.30 0.999997 -81.16 0.999997 -81.16 2.950e-4 28.777
8.87100000 2.946e-4 -10.31 0.999997 -81.16 0.999997 -81.16 2.961e-4 28.778
8.87120000 2.957e-4 -10.32 0.999997 -81.16 0.999997 -81.16 2.972e-4 28.778
8.87140000 2.968e-4 -10.32 0.999997 -81.16 0.999997 -81.16 2.983e-4 28.779
8.87160000 2.979e-4 -10.33 0.999997 -81.17 0.999997 -81.17 2.995e-4 28.779
8.87180000 2.991e-4 -10.34 0.999997 -81.17 0.999997 -81.17 3.006e-4 28.780
8.87200000 3.003e-4 -10.35 0.999997 -81.17 0.999997 -81.17 3.018e-4 28.780
8.87220000 3.015e-4 -10.36 0.999997 -81.17 0.999997 -81.17 3.030e-4 28.781
8.87240000 3.026e-4 -10.36 0.999997 -81.17 0.999997 -81.17 3.042e-4 28.782
8.87260000 3.039e-4 -10.37 0.999997 -81.18 0.999997 -81.18 3.054e-4 28.782
8.87280000 3.051e-4 -10.38 0.999997 -81.18 0.999997 -81.18 3.066e-4 28.783
8.87300000 3.063e-4 -10.39 0.999997 -81.18 0.999997 -81.18 3.079e-4 28.783
8.87320000 3.076e-4 -10.40 0.999997 -81.18 0.999997 -81.18 3.091e-4 28.784
8.87340000 3.088e-4 -10.40 0.999997 -81.18 0.999997 -81.18 3.104e-4 28.784
8.87360000 3.101e-4 -10.41 0.999997 -81.18 0.999997 -81.18 3.117e-4 28.785
8.87380000 3.114e-4 -10.42 0.999997 -81.19 0.999997 -81.19 3.130e-4 28.785
8.87400000 3.127e-4 -10.43 0.999997 -81.19 0.999997 -81.19 3.143e-4 28.786
8.87420000 3.141e-4 -10.44 0.999997 -81.19 0.999997 -81.19 3.156e-4 28.786
8.87440000 3.154e-4 -10.44 0.999997 -81.19 0.999997 -81.19 3.169e-4 28.786
8.87460000 3.168e-4 -10.45 0.999997 -81.19 0.999997 -81.19 3.183e-4 28.787
8.87480000 3.181e-4 -10.46 0.999997 -81.20 0.999997 -81.20 3.197e-4 28.787
8.87500000 3.195e-4 -10.47 0.999997 -81.20 0.999997 -81.20 3.211e-4 28.788
8.87520000 3.210e-4 -10.48 0.999997 -81.20 0.999997 -81.20 3.225e-4 28.788
8.87540000 3.224e-4 -10.48 0.999997 -81.20 0.999997 -81.20 3.239e-4 28.789
8.87560000 3.238e-4 -10.49 0.999997 -81.20 0.999997 -81.20 3.254e-4 28.789
8.87580000 3.253e-4 -10.50 0.999997 -81.21 0.999997 -81.21 3.268e-4 28.790
8.87600000 3.268e-4 -10.51 0.999997 -81.21 0.999997 -81.21 3.283e-4 28.790
8.87620000 3.283e-4 -10.52 0.999997 -81.21 0.999997 -81.21 3.298e-4 28.791
8.87640000 3.298e-4 -10.52 0.999997 -81.21 0.999997 -81.21 3.314e-4 28.791
8.87660000 3.314e-4 -10.53 0.999997 -81.21 0.999997 -81.21 3.329e-4 28.791
8.87680000 3.329e-4 -10.54 0.999997 -81.22 0.999997 -81.22 3.345e-4 28.792
8.87700000 3.345e-4 -10.55 0.999997 -81.22 0.999997 -81.22 3.360e-4 28.792
8.87720000 3.361e-4 -10.56 0.999997 -81.22 0.999997 -81.22 3.376e-4 28.793
8.87740000 3.377e-4 -10.57 0.999997 -81.22 0.999997 -81.22 3.393e-4 28.793
8.87760000 3.394e-4 -10.57 0.999996 -81.22 0.999996 -81.22 3.409e-4 28.793
8.87780000 3.410e-4 -10.58 0.999996 -81.23 0.999996 -81.23 3.426e-4 28.794
8.87800000 3.427e-4 -10.59 0.999996 -81.23 0.999996 -81.23 3.443e-4 28.794
8.87820000 3.445e-4 -10.60 0.999996 -81.23 0.999996 -81.23 3.460e-4 28.795
8.87840000 3.462e-4 -10.61 0.999996 -81.23 0.999996 -81.23 3.477e-4 28.795