! Sonnet Data File
! From: emgraph Version : 16.52
! From Project: Resonator2_cp_varyW
! Data is De-embedded 
! Data File Written: 10/07/2017 09:25:24
!< HDATE 10/06/2017 17:18:21
!< MDATE 10/06/2017 17:18:21
!< PARAMS
!< gap = 26.0
!< Length = 400.0
!< Pwid1 = 2000.0
!< Pwid2 = 2000.0
!< Air_gap = 18.0
!< Width = 30.0
!< END PARAMS
# GHZ S MA R 51.80000
8.80000000 0.020324 -169.1 0.999790 -80.63 0.999790 -80.63 0.020324 -172.2
!< P1 F=8.8 Eeff=(6.44507571 -2.9713e-5) Z0=(50.6188468 1.16784e-4) R=0.0 C=0.0 
!< P2 F=8.8 Eeff=(6.44507571 -2.9713e-5) Z0=(50.6188468 1.16784e-4) R=0.0 C=0.0 
8.80020000 0.020323 -169.1 0.999790 -80.63 0.999790 -80.63 0.020323 -172.2
8.80040000 0.020322 -169.1 0.999790 -80.63 0.999790 -80.63 0.020322 -172.2
8.80060000 0.020320 -169.1 0.999790 -80.63 0.999790 -80.63 0.020320 -172.2
8.80080000 0.020319 -169.1 0.999790 -80.63 0.999790 -80.63 0.020319 -172.2
8.80100000 0.020317 -169.1 0.999790 -80.64 0.999790 -80.64 0.020317 -172.2
8.80120000 0.020316 -169.1 0.999790 -80.64 0.999790 -80.64 0.020316 -172.2
8.80140000 0.020315 -169.1 0.999790 -80.64 0.999790 -80.64 0.020315 -172.2
8.80160000 0.020313 -169.1 0.999790 -80.64 0.999790 -80.64 0.020313 -172.2
8.80180000 0.020312 -169.1 0.999790 -80.64 0.999790 -80.64 0.020312 -172.2
8.80200000 0.020310 -169.1 0.999790 -80.65 0.999790 -80.65 0.020310 -172.2
8.80220000 0.020309 -169.1 0.999790 -80.65 0.999790 -80.65 0.020309 -172.2
8.80240000 0.020307 -169.1 0.999790 -80.65 0.999790 -80.65 0.020307 -172.2
8.80260000 0.020306 -169.1 0.999790 -80.65 0.999790 -80.65 0.020306 -172.2
8.80280000 0.020305 -169.1 0.999790 -80.65 0.999790 -80.65 0.020305 -172.2
8.80300000 0.020303 -169.1 0.999790 -80.66 0.999790 -80.66 0.020303 -172.2
8.80320000 0.020302 -169.1 0.999790 -80.66 0.999790 -80.66 0.020302 -172.2
8.80340000 0.020300 -169.1 0.999791 -80.66 0.999791 -80.66 0.020300 -172.2
8.80360000 0.020299 -169.1 0.999791 -80.66 0.999791 -80.66 0.020299 -172.2
8.80380000 0.020297 -169.1 0.999791 -80.66 0.999791 -80.66 0.020297 -172.2
8.80400000 0.020296 -169.1 0.999791 -80.67 0.999791 -80.67 0.020296 -172.2
8.80420000 0.020294 -169.1 0.999791 -80.67 0.999791 -80.67 0.020294 -172.2
8.80440000 0.020293 -169.1 0.999791 -80.67 0.999791 -80.67 0.020293 -172.2
8.80460000 0.020291 -169.1 0.999791 -80.67 0.999791 -80.67 0.020291 -172.2
8.80480000 0.020290 -169.1 0.999791 -80.67 0.999791 -80.67 0.020290 -172.3
8.80500000 0.020288 -169.1 0.999791 -80.67 0.999791 -80.67 0.020288 -172.3
8.80520000 0.020287 -169.1 0.999791 -80.68 0.999791 -80.68 0.020287 -172.3
8.80540000 0.020285 -169.1 0.999791 -80.68 0.999791 -80.68 0.020285 -172.3
8.80560000 0.020284 -169.1 0.999791 -80.68 0.999791 -80.68 0.020284 -172.3
8.80580000 0.020282 -169.1 0.999791 -80.68 0.999791 -80.68 0.020282 -172.3
8.80600000 0.020281 -169.1 0.999791 -80.68 0.999791 -80.68 0.020280 -172.3
8.80620000 0.020279 -169.1 0.999791 -80.69 0.999791 -80.69 0.020279 -172.3
8.80640000 0.020277 -169.1 0.999791 -80.69 0.999791 -80.69 0.020277 -172.3
8.80660000 0.020276 -169.1 0.999791 -80.69 0.999791 -80.69 0.020276 -172.3
8.80680000 0.020274 -169.1 0.999791 -80.69 0.999791 -80.69 0.020274 -172.3
8.80700000 0.020273 -169.1 0.999791 -80.69 0.999791 -80.69 0.020273 -172.3
8.80720000 0.020271 -169.1 0.999791 -80.70 0.999791 -80.70 0.020271 -172.3
8.80740000 0.020269 -169.1 0.999791 -80.70 0.999791 -80.70 0.020269 -172.3
8.80760000 0.020268 -169.1 0.999791 -80.70 0.999791 -80.70 0.020268 -172.3
8.80780000 0.020266 -169.1 0.999791 -80.70 0.999791 -80.70 0.020266 -172.3
8.80800000 0.020265 -169.1 0.999791 -80.70 0.999791 -80.70 0.020265 -172.3
8.80820000 0.020263 -169.1 0.999791 -80.71 0.999791 -80.71 0.020263 -172.3
8.80840000 0.020261 -169.1 0.999791 -80.71 0.999791 -80.71 0.020261 -172.3
8.80860000 0.020260 -169.1 0.999791 -80.71 0.999791 -80.71 0.020260 -172.3
8.80880000 0.020258 -169.1 0.999791 -80.71 0.999791 -80.71 0.020258 -172.3
8.80900000 0.020256 -169.1 0.999791 -80.71 0.999791 -80.71 0.020256 -172.3
8.80920000 0.020255 -169.1 0.999791 -80.72 0.999791 -80.72 0.020255 -172.3
8.80940000 0.020253 -169.1 0.999791 -80.72 0.999791 -80.72 0.020253 -172.3
8.80960000 0.020251 -169.1 0.999791 -80.72 0.999791 -80.72 0.020251 -172.3
8.80980000 0.020250 -169.1 0.999792 -80.72 0.999792 -80.72 0.020250 -172.3
8.81000000 0.020248 -169.1 0.999792 -80.72 0.999792 -80.72 0.020248 -172.4
8.81020000 0.020246 -169.1 0.999792 -80.73 0.999792 -80.73 0.020246 -172.4
8.81040000 0.020245 -169.1 0.999792 -80.73 0.999792 -80.73 0.020245 -172.4
8.81060000 0.020243 -169.1 0.999792 -80.73 0.999792 -80.73 0.020243 -172.4
8.81080000 0.020241 -169.1 0.999792 -80.73 0.999792 -80.73 0.020241 -172.4
8.81100000 0.020239 -169.1 0.999792 -80.73 0.999792 -80.73 0.020239 -172.4
8.81120000 0.020238 -169.1 0.999792 -80.73 0.999792 -80.73 0.020238 -172.4
8.81140000 0.020236 -169.1 0.999792 -80.74 0.999792 -80.74 0.020236 -172.4
8.81160000 0.020234 -169.1 0.999792 -80.74 0.999792 -80.74 0.020234 -172.4
8.81180000 0.020233 -169.1 0.999792 -80.74 0.999792 -80.74 0.020232 -172.4
8.81200000 0.020231 -169.1 0.999792 -80.74 0.999792 -80.74 0.020231 -172.4
8.81220000 0.020229 -169.1 0.999792 -80.74 0.999792 -80.74 0.020229 -172.4
8.81240000 0.020227 -169.1 0.999792 -80.75 0.999792 -80.75 0.020227 -172.4
8.81260000 0.020225 -169.1 0.999792 -80.75 0.999792 -80.75 0.020225 -172.4
8.81280000 0.020224 -169.1 0.999792 -80.75 0.999792 -80.75 0.020224 -172.4
8.81300000 0.020222 -169.1 0.999792 -80.75 0.999792 -80.75 0.020222 -172.4
8.81320000 0.020220 -169.1 0.999792 -80.75 0.999792 -80.75 0.020220 -172.4
8.81340000 0.020218 -169.1 0.999792 -80.76 0.999792 -80.76 0.020218 -172.4
8.81360000 0.020216 -169.1 0.999792 -80.76 0.999792 -80.76 0.020216 -172.4
8.81380000 0.020214 -169.1 0.999792 -80.76 0.999792 -80.76 0.020214 -172.4
8.81400000 0.020213 -169.1 0.999792 -80.76 0.999792 -80.76 0.020213 -172.4
8.81420000 0.020211 -169.1 0.999792 -80.76 0.999792 -80.76 0.020211 -172.4
8.81440000 0.020209 -169.1 0.999792 -80.77 0.999792 -80.77 0.020209 -172.4
8.81460000 0.020207 -169.1 0.999792 -80.77 0.999792 -80.77 0.020207 -172.4
8.81480000 0.020205 -169.1 0.999792 -80.77 0.999792 -80.77 0.020205 -172.4
8.81500000 0.020203 -169.1 0.999792 -80.77 0.999792 -80.77 0.020203 -172.5
8.81520000 0.020201 -169.1 0.999792 -80.77 0.999792 -80.77 0.020201 -172.5
8.81540000 0.020199 -169.1 0.999792 -80.78 0.999792 -80.78 0.020199 -172.5
8.81560000 0.020197 -169.1 0.999793 -80.78 0.999793 -80.78 0.020197 -172.5
8.81580000 0.020196 -169.1 0.999793 -80.78 0.999793 -80.78 0.020196 -172.5
8.81600000 0.020194 -169.1 0.999793 -80.78 0.999793 -80.78 0.020194 -172.5
8.81620000 0.020192 -169.1 0.999793 -80.78 0.999793 -80.78 0.020192 -172.5
8.81640000 0.020190 -169.1 0.999793 -80.79 0.999793 -80.79 0.020190 -172.5
8.81660000 0.020188 -169.1 0.999793 -80.79 0.999793 -80.79 0.020188 -172.5
8.81680000 0.020186 -169.1 0.999793 -80.79 0.999793 -80.79 0.020186 -172.5
8.81700000 0.020184 -169.1 0.999793 -80.79 0.999793 -80.79 0.020184 -172.5
8.81720000 0.020182 -169.1 0.999793 -80.79 0.999793 -80.79 0.020182 -172.5
8.81740000 0.020180 -169.1 0.999793 -80.80 0.999793 -80.80 0.020180 -172.5
8.81760000 0.020178 -169.1 0.999793 -80.80 0.999793 -80.80 0.020178 -172.5
8.81780000 0.020176 -169.1 0.999793 -80.80 0.999793 -80.80 0.020176 -172.5
8.81800000 0.020174 -169.1 0.999793 -80.80 0.999793 -80.80 0.020174 -172.5
8.81820000 0.020172 -169.1 0.999793 -80.80 0.999793 -80.80 0.020172 -172.5
8.81840000 0.020170 -169.1 0.999793 -80.81 0.999793 -80.81 0.020170 -172.5
8.81860000 0.020168 -169.1 0.999793 -80.81 0.999793 -80.81 0.020167 -172.5
8.81880000 0.020165 -169.1 0.999793 -80.81 0.999793 -80.81 0.020165 -172.5
8.81900000 0.020163 -169.1 0.999793 -80.81 0.999793 -80.81 0.020163 -172.5
8.81920000 0.020161 -169.1 0.999793 -80.81 0.999793 -80.81 0.020161 -172.5
8.81940000 0.020159 -169.1 0.999793 -80.81 0.999793 -80.81 0.020159 -172.5
8.81960000 0.020157 -169.1 0.999793 -80.82 0.999793 -80.82 0.020157 -172.5
8.81980000 0.020155 -169.1 0.999793 -80.82 0.999793 -80.82 0.020155 -172.6
8.82000000 0.020153 -169.1 0.999793 -80.82 0.999793 -80.82 0.020153 -172.6
8.82020000 0.020151 -169.1 0.999793 -80.82 0.999793 -80.82 0.020151 -172.6
8.82040000 0.020149 -169.1 0.999793 -80.82 0.999793 -80.82 0.020148 -172.6
8.82060000 0.020146 -169.1 0.999794 -80.83 0.999794 -80.83 0.020146 -172.6
8.82080000 0.020144 -169.1 0.999794 -80.83 0.999794 -80.83 0.020144 -172.6
8.82100000 0.020142 -169.1 0.999794 -80.83 0.999794 -80.83 0.020142 -172.6
8.82120000 0.020140 -169.1 0.999794 -80.83 0.999794 -80.83 0.020140 -172.6
8.82140000 0.020138 -169.1 0.999794 -80.83 0.999794 -80.83 0.020138 -172.6
8.82160000 0.020135 -169.1 0.999794 -80.84 0.999794 -80.84 0.020135 -172.6
8.82180000 0.020133 -169.1 0.999794 -80.84 0.999794 -80.84 0.020133 -172.6
8.82200000 0.020131 -169.1 0.999794 -80.84 0.999794 -80.84 0.020131 -172.6
8.82220000 0.020129 -169.1 0.999794 -80.84 0.999794 -80.84 0.020129 -172.6
8.82240000 0.020126 -169.1 0.999794 -80.84 0.999794 -80.84 0.020126 -172.6
8.82260000 0.020124 -169.1 0.999794 -80.85 0.999794 -80.85 0.020124 -172.6
8.82280000 0.020122 -169.1 0.999794 -80.85 0.999794 -80.85 0.020122 -172.6
8.82300000 0.020119 -169.1 0.999794 -80.85 0.999794 -80.85 0.020119 -172.6
8.82320000 0.020117 -169.1 0.999794 -80.85 0.999794 -80.85 0.020117 -172.6
8.82340000 0.020115 -169.1 0.999794 -80.85 0.999794 -80.85 0.020115 -172.6
8.82360000 0.020113 -169.1 0.999794 -80.86 0.999794 -80.86 0.020112 -172.6
8.82380000 0.020110 -169.1 0.999794 -80.86 0.999794 -80.86 0.020110 -172.6
8.82400000 0.020108 -169.1 0.999794 -80.86 0.999794 -80.86 0.020108 -172.6
8.82420000 0.020105 -169.1 0.999794 -80.86 0.999794 -80.86 0.020105 -172.7
8.82440000 0.020103 -169.1 0.999794 -80.86 0.999794 -80.86 0.020103 -172.7
8.82460000 0.020101 -169.1 0.999794 -80.87 0.999794 -80.87 0.020101 -172.7
8.82480000 0.020098 -169.1 0.999794 -80.87 0.999794 -80.87 0.020098 -172.7
8.82500000 0.020096 -169.1 0.999795 -80.87 0.999795 -80.87 0.020096 -172.7
8.82520000 0.020093 -169.1 0.999795 -80.87 0.999795 -80.87 0.020093 -172.7
8.82540000 0.020091 -169.1 0.999795 -80.87 0.999795 -80.87 0.020091 -172.7
8.82560000 0.020088 -169.1 0.999795 -80.88 0.999795 -80.88 0.020088 -172.7
8.82580000 0.020086 -169.1 0.999795 -80.88 0.999795 -80.88 0.020086 -172.7
8.82600000 0.020084 -169.1 0.999795 -80.88 0.999795 -80.88 0.020083 -172.7
8.82620000 0.020081 -169.1 0.999795 -80.88 0.999795 -80.88 0.020081 -172.7
8.82640000 0.020079 -169.1 0.999795 -80.88 0.999795 -80.88 0.020078 -172.7
8.82660000 0.020076 -169.1 0.999795 -80.89 0.999795 -80.89 0.020076 -172.7
8.82680000 0.020073 -169.1 0.999795 -80.89 0.999795 -80.89 0.020073 -172.7
8.82700000 0.020071 -169.1 0.999795 -80.89 0.999795 -80.89 0.020071 -172.7
8.82720000 0.020068 -169.1 0.999795 -80.89 0.999795 -80.89 0.020068 -172.7
8.82740000 0.020066 -169.1 0.999795 -80.89 0.999795 -80.89 0.020066 -172.7
8.82760000 0.020063 -169.1 0.999795 -80.90 0.999795 -80.90 0.020063 -172.7
8.82780000 0.020061 -169.1 0.999795 -80.90 0.999795 -80.90 0.020060 -172.7
8.82800000 0.020058 -169.1 0.999795 -80.90 0.999795 -80.90 0.020058 -172.7
8.82820000 0.020055 -169.1 0.999795 -80.90 0.999795 -80.90 0.020055 -172.7
8.82840000 0.020053 -169.1 0.999795 -80.90 0.999795 -80.90 0.020053 -172.8
8.82860000 0.020050 -169.1 0.999795 -80.91 0.999795 -80.91 0.020050 -172.8
8.82880000 0.020047 -169.1 0.999795 -80.91 0.999795 -80.91 0.020047 -172.8
8.82900000 0.020045 -169.1 0.999796 -80.91 0.999796 -80.91 0.020044 -172.8
8.82920000 0.020042 -169.1 0.999796 -80.91 0.999796 -80.91 0.020042 -172.8
8.82940000 0.020039 -169.1 0.999796 -80.91 0.999796 -80.91 0.020039 -172.8
8.82960000 0.020036 -169.1 0.999796 -80.92 0.999796 -80.92 0.020036 -172.8
8.82980000 0.020034 -169.1 0.999796 -80.92 0.999796 -80.92 0.020034 -172.8
8.83000000 0.020031 -169.1 0.999796 -80.92 0.999796 -80.92 0.020031 -172.8
8.83020000 0.020028 -169.1 0.999796 -80.92 0.999796 -80.92 0.020028 -172.8
8.83040000 0.020025 -169.1 0.999796 -80.92 0.999796 -80.92 0.020025 -172.8
8.83060000 0.020023 -169.1 0.999796 -80.93 0.999796 -80.93 0.020022 -172.8
8.83080000 0.020020 -169.1 0.999796 -80.93 0.999796 -80.93 0.020020 -172.8
8.83100000 0.020017 -169.0 0.999796 -80.93 0.999796 -80.93 0.020017 -172.8
8.83120000 0.020014 -169.0 0.999796 -80.93 0.999796 -80.93 0.020014 -172.8
8.83140000 0.020011 -169.0 0.999796 -80.93 0.999796 -80.93 0.020011 -172.8
8.83160000 0.020008 -169.0 0.999796 -80.94 0.999796 -80.94 0.020008 -172.8
8.83180000 0.020005 -169.0 0.999796 -80.94 0.999796 -80.94 0.020005 -172.8
8.83200000 0.020002 -169.0 0.999796 -80.94 0.999796 -80.94 0.020002 -172.8
8.83220000 0.019999 -169.0 0.999796 -80.94 0.999796 -80.94 0.019999 -172.9
8.83240000 0.019996 -169.0 0.999796 -80.94 0.999796 -80.94 0.019996 -172.9
8.83260000 0.019993 -169.0 0.999797 -80.95 0.999797 -80.95 0.019993 -172.9
8.83280000 0.019990 -169.0 0.999797 -80.95 0.999797 -80.95 0.019990 -172.9
8.83300000 0.019987 -169.0 0.999797 -80.95 0.999797 -80.95 0.019987 -172.9
8.83320000 0.019984 -169.0 0.999797 -80.95 0.999797 -80.95 0.019984 -172.9
8.83340000 0.019981 -169.0 0.999797 -80.95 0.999797 -80.95 0.019981 -172.9
8.83360000 0.019978 -169.0 0.999797 -80.96 0.999797 -80.96 0.019978 -172.9
8.83380000 0.019975 -169.0 0.999797 -80.96 0.999797 -80.96 0.019975 -172.9
8.83400000 0.019972 -169.0 0.999797 -80.96 0.999797 -80.96 0.019972 -172.9
8.83420000 0.019969 -169.0 0.999797 -80.96 0.999797 -80.96 0.019969 -172.9
8.83440000 0.019966 -169.0 0.999797 -80.96 0.999797 -80.96 0.019966 -172.9
8.83460000 0.019963 -169.0 0.999797 -80.97 0.999797 -80.97 0.019963 -172.9
8.83480000 0.019960 -169.0 0.999797 -80.97 0.999797 -80.97 0.019959 -172.9
8.83500000 0.019956 -169.0 0.999797 -80.97 0.999797 -80.97 0.019956 -172.9
8.83520000 0.019953 -169.0 0.999797 -80.97 0.999797 -80.97 0.019953 -172.9
8.83540000 0.019950 -169.0 0.999797 -80.97 0.999797 -80.97 0.019950 -172.9
8.83560000 0.019947 -169.0 0.999797 -80.98 0.999797 -80.98 0.019947 -172.9
8.83580000 0.019943 -169.0 0.999797 -80.98 0.999797 -80.98 0.019943 -173.0
8.83600000 0.019940 -169.0 0.999798 -80.98 0.999798 -80.98 0.019940 -173.0
8.83620000 0.019937 -169.0 0.999798 -80.98 0.999798 -80.98 0.019937 -173.0
8.83640000 0.019934 -169.0 0.999798 -80.98 0.999798 -80.98 0.019933 -173.0
8.83660000 0.019930 -169.0 0.999798 -80.99 0.999798 -80.99 0.019930 -173.0
8.83680000 0.019927 -169.0 0.999798 -80.99 0.999798 -80.99 0.019927 -173.0
8.83700000 0.019923 -169.0 0.999798 -80.99 0.999798 -80.99 0.019923 -173.0
8.83720000 0.019920 -169.0 0.999798 -80.99 0.999798 -80.99 0.019920 -173.0
8.83740000 0.019917 -169.0 0.999798 -80.99 0.999798 -80.99 0.019916 -173.0
8.83760000 0.019913 -169.0 0.999798 -81.00 0.999798 -81.00 0.019913 -173.0
8.83780000 0.019910 -169.0 0.999798 -81.00 0.999798 -81.00 0.019910 -173.0
8.83800000 0.019906 -169.0 0.999798 -81.00 0.999798 -81.00 0.019906 -173.0
8.83820000 0.019903 -169.0 0.999798 -81.00 0.999798 -81.00 0.019903 -173.0
8.83840000 0.019899 -169.0 0.999798 -81.01 0.999798 -81.01 0.019899 -173.0
8.83860000 0.019896 -169.0 0.999798 -81.01 0.999798 -81.01 0.019895 -173.0
8.83880000 0.019892 -169.0 0.999798 -81.01 0.999798 -81.01 0.019892 -173.0
8.83900000 0.019888 -169.0 0.999799 -81.01 0.999799 -81.01 0.019888 -173.1
8.83920000 0.019885 -169.0 0.999799 -81.01 0.999799 -81.01 0.019885 -173.1
8.83940000 0.019881 -169.0 0.999799 -81.02 0.999799 -81.02 0.019881 -173.1
8.83960000 0.019877 -169.0 0.999799 -81.02 0.999799 -81.02 0.019877 -173.1
8.83980000 0.019874 -169.0 0.999799 -81.02 0.999799 -81.02 0.019874 -173.1
8.84000000 0.019870 -169.0 0.999799 -81.02 0.999799 -81.02 0.019870 -173.1
8.84020000 0.019866 -169.0 0.999799 -81.02 0.999799 -81.02 0.019866 -173.1
8.84040000 0.019863 -169.0 0.999799 -81.03 0.999799 -81.03 0.019862 -173.1
8.84060000 0.019859 -169.0 0.999799 -81.03 0.999799 -81.03 0.019859 -173.1
8.84080000 0.019855 -169.0 0.999799 -81.03 0.999799 -81.03 0.019855 -173.1
8.84100000 0.019851 -169.0 0.999799 -81.03 0.999799 -81.03 0.019851 -173.1
8.84120000 0.019847 -169.0 0.999799 -81.03 0.999799 -81.03 0.019847 -173.1
8.84140000 0.019843 -169.0 0.999799 -81.04 0.999799 -81.04 0.019843 -173.1
8.84160000 0.019840 -169.0 0.999799 -81.04 0.999799 -81.04 0.019839 -173.1
8.84180000 0.019836 -169.0 0.999800 -81.04 0.999800 -81.04 0.019835 -173.1
8.84200000 0.019832 -168.9 0.999800 -81.04 0.999800 -81.04 0.019831 -173.1
8.84220000 0.019828 -168.9 0.999800 -81.04 0.999800 -81.04 0.019827 -173.2
8.84240000 0.019824 -168.9 0.999800 -81.05 0.999800 -81.05 0.019823 -173.2
8.84260000 0.019820 -168.9 0.999800 -81.05 0.999800 -81.05 0.019819 -173.2
8.84280000 0.019816 -168.9 0.999800 -81.05 0.999800 -81.05 0.019815 -173.2
8.84300000 0.019811 -168.9 0.999800 -81.05 0.999800 -81.05 0.019811 -173.2
8.84320000 0.019807 -168.9 0.999800 -81.05 0.999800 -81.05 0.019807 -173.2
8.84340000 0.019803 -168.9 0.999800 -81.06 0.999800 -81.06 0.019803 -173.2
8.84360000 0.019799 -168.9 0.999800 -81.06 0.999800 -81.06 0.019799 -173.2
8.84380000 0.019795 -168.9 0.999800 -81.06 0.999800 -81.06 0.019795 -173.2
8.84400000 0.019791 -168.9 0.999800 -81.06 0.999800 -81.06 0.019790 -173.2
8.84420000 0.019786 -168.9 0.999800 -81.07 0.999800 -81.07 0.019786 -173.2
8.84440000 0.019782 -168.9 0.999801 -81.07 0.999801 -81.07 0.019782 -173.2
8.84460000 0.019778 -168.9 0.999801 -81.07 0.999801 -81.07 0.019778 -173.2
8.84480000 0.019773 -168.9 0.999801 -81.07 0.999801 -81.07 0.019773 -173.2
8.84500000 0.019769 -168.9 0.999801 -81.07 0.999801 -81.07 0.019769 -173.3
8.84520000 0.019765 -168.9 0.999801 -81.08 0.999801 -81.08 0.019764 -173.3
8.84540000 0.019760 -168.9 0.999801 -81.08 0.999801 -81.08 0.019760 -173.3
8.84560000 0.019756 -168.9 0.999801 -81.08 0.999801 -81.08 0.019756 -173.3
8.84580000 0.019751 -168.9 0.999801 -81.08 0.999801 -81.08 0.019751 -173.3
8.84600000 0.019747 -168.9 0.999801 -81.08 0.999801 -81.08 0.019746 -173.3
8.84620000 0.019742 -168.9 0.999801 -81.09 0.999801 -81.09 0.019742 -173.3
8.84640000 0.019738 -168.9 0.999801 -81.09 0.999801 -81.09 0.019737 -173.3
8.84660000 0.019733 -168.9 0.999801 -81.09 0.999801 -81.09 0.019733 -173.3
8.84680000 0.019728 -168.9 0.999802 -81.09 0.999802 -81.09 0.019728 -173.3
8.84700000 0.019724 -168.9 0.999802 -81.09 0.999802 -81.09 0.019723 -173.3
8.84720000 0.019719 -168.9 0.999802 -81.10 0.999802 -81.10 0.019719 -173.3
8.84740000 0.019714 -168.9 0.999802 -81.10 0.999802 -81.10 0.019714 -173.3
8.84760000 0.019709 -168.9 0.999802 -81.10 0.999802 -81.10 0.019709 -173.3
8.84780000 0.019705 -168.9 0.999802 -81.10 0.999802 -81.10 0.019704 -173.4
8.84800000 0.019700 -168.9 0.999802 -81.11 0.999802 -81.11 0.019699 -173.4
8.84820000 0.019695 -168.9 0.999802 -81.11 0.999802 -81.11 0.019695 -173.4
8.84840000 0.019690 -168.9 0.999802 -81.11 0.999802 -81.11 0.019690 -173.4
8.84860000 0.019685 -168.8 0.999802 -81.11 0.999802 -81.11 0.019685 -173.4
8.84880000 0.019680 -168.8 0.999802 -81.11 0.999802 -81.11 0.019680 -173.4
8.84900000 0.019675 -168.8 0.999803 -81.12 0.999803 -81.12 0.019675 -173.4
8.84920000 0.019670 -168.8 0.999803 -81.12 0.999803 -81.12 0.019670 -173.4
8.84940000 0.019665 -168.8 0.999803 -81.12 0.999803 -81.12 0.019664 -173.4
8.84960000 0.019660 -168.8 0.999803 -81.12 0.999803 -81.12 0.019659 -173.4
8.84980000 0.019654 -168.8 0.999803 -81.12 0.999803 -81.12 0.019654 -173.4
8.85000000 0.019649 -168.8 0.999803 -81.13 0.999803 -81.13 0.019649 -173.4
8.85020000 0.019644 -168.8 0.999803 -81.13 0.999803 -81.13 0.019644 -173.5
8.85040000 0.019639 -168.8 0.999803 -81.13 0.999803 -81.13 0.019638 -173.5
8.85060000 0.019633 -168.8 0.999803 -81.13 0.999803 -81.13 0.019633 -173.5
8.85080000 0.019628 -168.8 0.999803 -81.14 0.999803 -81.14 0.019628 -173.5
8.85100000 0.019623 -168.8 0.999804 -81.14 0.999804 -81.14 0.019622 -173.5
8.85120000 0.019617 -168.8 0.999804 -81.14 0.999804 -81.14 0.019617 -173.5
8.85140000 0.019612 -168.8 0.999804 -81.14 0.999804 -81.14 0.019611 -173.5
8.85160000 0.019606 -168.8 0.999804 -81.14 0.999804 -81.14 0.019606 -173.5
8.85180000 0.019600 -168.8 0.999804 -81.15 0.999804 -81.15 0.019600 -173.5
8.85200000 0.019595 -168.8 0.999804 -81.15 0.999804 -81.15 0.019595 -173.5
8.85220000 0.019589 -168.8 0.999804 -81.15 0.999804 -81.15 0.019589 -173.5
8.85240000 0.019583 -168.8 0.999804 -81.15 0.999804 -81.15 0.019583 -173.5
8.85260000 0.019578 -168.8 0.999804 -81.16 0.999804 -81.16 0.019577 -173.6
8.85280000 0.019572 -168.8 0.999805 -81.16 0.999805 -81.16 0.019572 -173.6
8.85300000 0.019566 -168.8 0.999805 -81.16 0.999805 -81.16 0.019566 -173.6
8.85320000 0.019560 -168.8 0.999805 -81.16 0.999805 -81.16 0.019560 -173.6
8.85340000 0.019554 -168.7 0.999805 -81.16 0.999805 -81.16 0.019554 -173.6
8.85360000 0.019548 -168.7 0.999805 -81.17 0.999805 -81.17 0.019548 -173.6
8.85380000 0.019542 -168.7 0.999805 -81.17 0.999805 -81.17 0.019542 -173.6
8.85400000 0.019536 -168.7 0.999805 -81.17 0.999805 -81.17 0.019536 -173.6
8.85420000 0.019530 -168.7 0.999805 -81.17 0.999805 -81.17 0.019530 -173.6
8.85440000 0.019524 -168.7 0.999805 -81.18 0.999805 -81.18 0.019523 -173.6
8.85460000 0.019518 -168.7 0.999806 -81.18 0.999806 -81.18 0.019517 -173.6
8.85480000 0.019511 -168.7 0.999806 -81.18 0.999806 -81.18 0.019511 -173.7
8.85500000 0.019505 -168.7 0.999806 -81.18 0.999806 -81.18 0.019505 -173.7
8.85520000 0.019499 -168.7 0.999806 -81.18 0.999806 -81.18 0.019498 -173.7
8.85540000 0.019492 -168.7 0.999806 -81.19 0.999806 -81.19 0.019492 -173.7
8.85560000 0.019486 -168.7 0.999806 -81.19 0.999806 -81.19 0.019485 -173.7
8.85580000 0.019479 -168.7 0.999806 -81.19 0.999806 -81.19 0.019479 -173.7
8.85600000 0.019473 -168.7 0.999806 -81.19 0.999806 -81.19 0.019472 -173.7
8.85620000 0.019466 -168.7 0.999807 -81.20 0.999807 -81.20 0.019466 -173.7
8.85640000 0.019459 -168.7 0.999807 -81.20 0.999807 -81.20 0.019459 -173.7
8.85660000 0.019452 -168.7 0.999807 -81.20 0.999807 -81.20 0.019452 -173.7
8.85680000 0.019446 -168.7 0.999807 -81.20 0.999807 -81.20 0.019445 -173.8
8.85700000 0.019439 -168.6 0.999807 -81.20 0.999807 -81.20 0.019438 -173.8
8.85720000 0.019432 -168.6 0.999807 -81.21 0.999807 -81.21 0.019431 -173.8
8.85740000 0.019425 -168.6 0.999807 -81.21 0.999807 -81.21 0.019424 -173.8
8.85760000 0.019418 -168.6 0.999807 -81.21 0.999807 -81.21 0.019417 -173.8
8.85780000 0.019411 -168.6 0.999808 -81.21 0.999808 -81.21 0.019410 -173.8
8.85800000 0.019404 -168.6 0.999808 -81.22 0.999808 -81.22 0.019403 -173.8
8.85820000 0.019396 -168.6 0.999808 -81.22 0.999808 -81.22 0.019396 -173.8
8.85840000 0.019389 -168.6 0.999808 -81.22 0.999808 -81.22 0.019389 -173.8
8.85860000 0.019382 -168.6 0.999808 -81.22 0.999808 -81.22 0.019381 -173.9
8.85880000 0.019374 -168.6 0.999808 -81.22 0.999808 -81.22 0.019374 -173.9
8.85900000 0.019367 -168.6 0.999808 -81.23 0.999808 -81.23 0.019366 -173.9
8.85920000 0.019359 -168.6 0.999808 -81.23 0.999808 -81.23 0.019359 -173.9
8.85940000 0.019352 -168.6 0.999809 -81.23 0.999809 -81.23 0.019351 -173.9
8.85960000 0.019344 -168.6 0.999809 -81.23 0.999809 -81.23 0.019343 -173.9
8.85980000 0.019336 -168.6 0.999809 -81.24 0.999809 -81.24 0.019336 -173.9
8.86000000 0.019328 -168.6 0.999809 -81.24 0.999809 -81.24 0.019328 -173.9
8.86020000 0.019320 -168.5 0.999809 -81.24 0.999809 -81.24 0.019320 -173.9
8.86040000 0.019312 -168.5 0.999809 -81.24 0.999809 -81.24 0.019312 -174.0
8.86060000 0.019304 -168.5 0.999809 -81.25 0.999809 -81.25 0.019304 -174.0
8.86080000 0.019296 -168.5 0.999810 -81.25 0.999810 -81.25 0.019296 -174.0
8.86100000 0.019288 -168.5 0.999810 -81.25 0.999810 -81.25 0.019288 -174.0
8.86120000 0.019280 -168.5 0.999810 -81.25 0.999810 -81.25 0.019279 -174.0
8.86140000 0.019271 -168.5 0.999810 -81.26 0.999810 -81.26 0.019271 -174.0
8.86160000 0.019263 -168.5 0.999810 -81.26 0.999810 -81.26 0.019263 -174.0
8.86180000 0.019255 -168.5 0.999810 -81.26 0.999810 -81.26 0.019254 -174.0
8.86200000 0.019246 -168.5 0.999811 -81.26 0.999811 -81.26 0.019245 -174.1
8.86220000 0.019237 -168.5 0.999811 -81.26 0.999811 -81.26 0.019237 -174.1
8.86240000 0.019229 -168.5 0.999811 -81.27 0.999811 -81.27 0.019228 -174.1
8.86260000 0.019220 -168.4 0.999811 -81.27 0.999811 -81.27 0.019219 -174.1
8.86280000 0.019211 -168.4 0.999811 -81.27 0.999811 -81.27 0.019210 -174.1
8.86300000 0.019202 -168.4 0.999811 -81.27 0.999811 -81.27 0.019201 -174.1
8.86320000 0.019193 -168.4 0.999812 -81.28 0.999812 -81.28 0.019192 -174.1
8.86340000 0.019184 -168.4 0.999812 -81.28 0.999812 -81.28 0.019183 -174.2
8.86360000 0.019174 -168.4 0.999812 -81.28 0.999812 -81.28 0.019174 -174.2
8.86380000 0.019165 -168.4 0.999812 -81.28 0.999812 -81.28 0.019164 -174.2
8.86400000 0.019156 -168.4 0.999812 -81.29 0.999812 -81.29 0.019155 -174.2
8.86420000 0.019146 -168.4 0.999812 -81.29 0.999812 -81.29 0.019145 -174.2
8.86440000 0.019136 -168.4 0.999813 -81.29 0.999813 -81.29 0.019136 -174.2
8.86460000 0.019127 -168.4 0.999813 -81.29 0.999813 -81.29 0.019126 -174.2
8.86480000 0.019117 -168.3 0.999813 -81.30 0.999813 -81.30 0.019116 -174.2
8.86500000 0.019107 -168.3 0.999813 -81.30 0.999813 -81.30 0.019106 -174.3
8.86520000 0.019097 -168.3 0.999813 -81.30 0.999813 -81.30 0.019096 -174.3
8.86540000 0.019087 -168.3 0.999813 -81.30 0.999813 -81.30 0.019086 -174.3
8.86560000 0.019077 -168.3 0.999814 -81.31 0.999814 -81.31 0.019076 -174.3
8.86580000 0.019066 -168.3 0.999814 -81.31 0.999814 -81.31 0.019066 -174.3
8.86600000 0.019056 -168.3 0.999814 -81.31 0.999814 -81.31 0.019055 -174.3
8.86620000 0.019045 -168.3 0.999814 -81.31 0.999814 -81.31 0.019045 -174.4
8.86640000 0.019035 -168.3 0.999814 -81.32 0.999814 -81.32 0.019034 -174.4
8.86660000 0.019024 -168.3 0.999815 -81.32 0.999815 -81.32 0.019023 -174.4
8.86680000 0.019013 -168.2 0.999815 -81.32 0.999815 -81.32 0.019012 -174.4
8.86700000 0.019002 -168.2 0.999815 -81.32 0.999815 -81.32 0.019001 -174.4
8.86720000 0.018991 -168.2 0.999815 -81.33 0.999815 -81.33 0.018990 -174.4
8.86740000 0.018980 -168.2 0.999815 -81.33 0.999815 -81.33 0.018979 -174.5
8.86760000 0.018968 -168.2 0.999816 -81.33 0.999816 -81.33 0.018968 -174.5
8.86780000 0.018957 -168.2 0.999816 -81.33 0.999816 -81.33 0.018956 -174.5
8.86800000 0.018945 -168.2 0.999816 -81.34 0.999816 -81.34 0.018944 -174.5
8.86820000 0.018934 -168.2 0.999816 -81.34 0.999816 -81.34 0.018933 -174.5
8.86840000 0.018922 -168.2 0.999816 -81.34 0.999816 -81.34 0.018921 -174.5
8.86860000 0.018910 -168.1 0.999817 -81.34 0.999817 -81.34 0.018909 -174.6
8.86880000 0.018898 -168.1 0.999817 -81.35 0.999817 -81.35 0.018897 -174.6
8.86900000 0.018885 -168.1 0.999817 -81.35 0.999817 -81.35 0.018884 -174.6
8.86920000 0.018873 -168.1 0.999817 -81.35 0.999817 -81.35 0.018872 -174.6
8.86940000 0.018860 -168.1 0.999817 -81.35 0.999817 -81.35 0.018860 -174.6
8.86960000 0.018848 -168.1 0.999818 -81.36 0.999818 -81.36 0.018847 -174.6
8.86980000 0.018835 -168.1 0.999818 -81.36 0.999818 -81.36 0.018834 -174.7
8.87000000 0.018822 -168.0 0.999818 -81.36 0.999818 -81.36 0.018821 -174.7
8.87020000 0.018809 -168.0 0.999818 -81.36 0.999818 -81.36 0.018808 -174.7
8.87040000 0.018796 -168.0 0.999819 -81.37 0.999819 -81.37 0.018795 -174.7
8.87060000 0.018782 -168.0 0.999819 -81.37 0.999819 -81.37 0.018781 -174.7
8.87080000 0.018769 -168.0 0.999819 -81.37 0.999819 -81.37 0.018768 -174.8
8.87100000 0.018755 -168.0 0.999819 -81.38 0.999819 -81.38 0.018754 -174.8
8.87120000 0.018741 -168.0 0.999820 -81.38 0.999820 -81.38 0.018740 -174.8
8.87140000 0.018727 -167.9 0.999820 -81.38 0.999820 -81.38 0.018726 -174.8
8.87160000 0.018713 -167.9 0.999820 -81.38 0.999820 -81.38 0.018712 -174.8
8.87180000 0.018698 -167.9 0.999820 -81.39 0.999820 -81.39 0.018697 -174.9
8.87200000 0.018684 -167.9 0.999821 -81.39 0.999821 -81.39 0.018683 -174.9
8.87220000 0.018669 -167.9 0.999821 -81.39 0.999821 -81.39 0.018668 -174.9
8.87240000 0.018654 -167.9 0.999821 -81.39 0.999821 -81.39 0.018653 -174.9
8.87260000 0.018639 -167.8 0.999821 -81.40 0.999821 -81.40 0.018638 -175.0
8.87280000 0.018623 -167.8 0.999822 -81.40 0.999822 -81.40 0.018622 -175.0
8.87300000 0.018608 -167.8 0.999822 -81.40 0.999822 -81.40 0.018607 -175.0
8.87320000 0.018592 -167.8 0.999822 -81.41 0.999822 -81.41 0.018591 -175.0
8.87340000 0.018576 -167.8 0.999822 -81.41 0.999822 -81.41 0.018575 -175.0
8.87360000 0.018560 -167.8 0.999823 -81.41 0.999823 -81.41 0.018559 -175.1
8.87380000 0.018544 -167.7 0.999823 -81.41 0.999823 -81.41 0.018543 -175.1
8.87400000 0.018527 -167.7 0.999823 -81.42 0.999823 -81.42 0.018526 -175.1
8.87420000 0.018511 -167.7 0.999824 -81.42 0.999824 -81.42 0.018510 -175.1
8.87440000 0.018494 -167.7 0.999824 -81.42 0.999824 -81.42 0.018493 -175.2
8.87460000 0.018477 -167.7 0.999824 -81.43 0.999824 -81.43 0.018475 -175.2
8.87480000 0.018459 -167.6 0.999824 -81.43 0.999824 -81.43 0.018458 -175.2
8.87490032 0.018450 -167.6 0.999825 -81.43 0.999825 -81.43 0.018449 -175.2
8.87500000 0.018442 -167.6 0.999825 -81.43 0.999825 -81.43 0.018440 -175.2
8.87520000 0.018424 -167.6 0.999825 -81.43 0.999825 -81.43 0.018422 -175.3
8.87540000 0.018406 -167.6 0.999825 -81.44 0.999825 -81.44 0.018404 -175.3
8.87558459 0.018389 -167.6 0.999826 -81.44 0.999826 -81.44 0.018387 -175.3
8.87560000 0.018387 -167.6 0.999826 -81.44 0.999826 -81.44 0.018386 -175.3
8.87580000 0.018369 -167.5 0.999826 -81.44 0.999826 -81.44 0.018367 -175.4
8.87600000 0.018350 -167.5 0.999826 -81.45 0.999826 -81.45 0.018348 -175.4
8.87620000 0.018331 -167.5 0.999827 -81.45 0.999827 -81.45 0.018329 -175.4
8.87625318 0.018325 -167.5 0.999827 -81.45 0.999827 -81.45 0.018324 -175.4
8.87640000 0.018311 -167.5 0.999827 -81.45 0.999827 -81.45 0.018310 -175.4
8.87660000 0.018291 -167.4 0.999827 -81.46 0.999827 -81.46 0.018290 -175.5
8.87680000 0.018272 -167.4 0.999828 -81.46 0.999828 -81.46 0.018270 -175.5
8.87690645 0.018261 -167.4 0.999828 -81.46 0.999828 -81.46 0.018259 -175.5
8.87700000 0.018251 -167.4 0.999828 -81.46 0.999828 -81.46 0.018250 -175.5
8.87720000 0.018231 -167.4 0.999828 -81.46 0.999828 -81.46 0.018229 -175.6
8.87740000 0.018210 -167.3 0.999829 -81.47 0.999829 -81.47 0.018208 -175.6
8.87754475 0.018195 -167.3 0.999829 -81.47 0.999829 -81.47 0.018193 -175.6