! Sonnet Data File
! From: emgraph Version : 16.52
! From Project: Resonator2_extremeCap
! Data is De-embedded 
! Data File Written: 10/10/2017 20:29:22
!< HDATE 10/09/2017 23:04:37
!< MDATE 10/09/2017 23:04:37
!< PARAMS
!< Pwid1 = 2000.0
!< Pwid2 = 2000.0
!< Air_gap = 30.0
!< Width = 50.0
!< Gap = 23.0
!< END PARAMS
# GHZ S MA R 51.80000
8.98000000 0.061122 30.267 0.998115 -90.62 0.998115 -90.62 0.061096 -31.50
!< P1 F=8.98 Eeff=(6.44048327 -2.9689e-5) Z0=(50.406422 1.16291e-4) R=0.0 C=0.0 
!< P2 F=8.98 Eeff=(6.44048327 -2.9689e-5) Z0=(50.406422 1.16291e-4) R=0.0 C=0.0 
8.98010000 0.061135 30.317 0.998114 -90.62 0.998114 -90.62 0.061109 -31.56
8.98020000 0.061148 30.367 0.998113 -90.62 0.998113 -90.62 0.061122 -31.62
8.98030000 0.061161 30.417 0.998112 -90.63 0.998112 -90.63 0.061135 -31.68
8.98040000 0.061174 30.467 0.998112 -90.63 0.998112 -90.63 0.061148 -31.74
8.98050000 0.061188 30.518 0.998111 -90.64 0.998111 -90.64 0.061161 -31.79
8.98060000 0.061201 30.568 0.998110 -90.64 0.998110 -90.64 0.061174 -31.85
8.98070000 0.061215 30.619 0.998109 -90.65 0.998109 -90.65 0.061188 -31.91
8.98080000 0.061228 30.670 0.998108 -90.65 0.998108 -90.65 0.061201 -31.97
8.98090000 0.061242 30.720 0.998107 -90.66 0.998107 -90.66 0.061215 -32.03
8.98100000 0.061256 30.771 0.998106 -90.66 0.998106 -90.66 0.061229 -32.09
8.98110000 0.061269 30.822 0.998106 -90.67 0.998106 -90.67 0.061242 -32.15
8.98120000 0.061283 30.873 0.998105 -90.67 0.998105 -90.67 0.061256 -32.21
8.98130000 0.061297 30.925 0.998104 -90.67 0.998104 -90.67 0.061270 -32.27
8.98140000 0.061311 30.976 0.998103 -90.68 0.998103 -90.68 0.061284 -32.34
8.98150000 0.061326 31.027 0.998102 -90.68 0.998102 -90.68 0.061298 -32.40
8.98160000 0.061340 31.079 0.998101 -90.69 0.998101 -90.69 0.061312 -32.46
8.98170000 0.061354 31.131 0.998100 -90.69 0.998100 -90.69 0.061327 -32.52
8.98180000 0.061369 31.182 0.998099 -90.70 0.998099 -90.70 0.061341 -32.58
8.98190000 0.061383 31.234 0.998098 -90.70 0.998098 -90.70 0.061356 -32.64
8.98200000 0.061398 31.286 0.998097 -90.71 0.998097 -90.71 0.061370 -32.70
8.98210000 0.061413 31.338 0.998096 -90.71 0.998096 -90.71 0.061385 -32.76
8.98220000 0.061427 31.391 0.998095 -90.72 0.998095 -90.72 0.061400 -32.82
8.98230000 0.061442 31.443 0.998094 -90.72 0.998094 -90.72 0.061414 -32.89
8.98240000 0.061457 31.495 0.998094 -90.73 0.998094 -90.73 0.061429 -32.95
8.98250000 0.061472 31.548 0.998093 -90.73 0.998093 -90.73 0.061444 -33.01
8.98260000 0.061488 31.601 0.998092 -90.73 0.998092 -90.73 0.061460 -33.07
8.98270000 0.061503 31.653 0.998091 -90.74 0.998091 -90.74 0.061475 -33.13
8.98280000 0.061518 31.706 0.998090 -90.74 0.998090 -90.74 0.061490 -33.20
8.98290000 0.061534 31.759 0.998089 -90.75 0.998089 -90.75 0.061506 -33.26
8.98300000 0.061549 31.812 0.998088 -90.75 0.998088 -90.75 0.061521 -33.32
8.98310000 0.061565 31.866 0.998087 -90.76 0.998087 -90.76 0.061537 -33.39
8.98320000 0.061581 31.919 0.998086 -90.76 0.998086 -90.76 0.061553 -33.45
8.98330000 0.061597 31.972 0.998085 -90.77 0.998085 -90.77 0.061568 -33.51
8.98340000 0.061613 32.026 0.998084 -90.77 0.998084 -90.77 0.061584 -33.57
8.98350000 0.061629 32.080 0.998083 -90.78 0.998083 -90.78 0.061600 -33.64
8.98360000 0.061645 32.133 0.998082 -90.78 0.998082 -90.78 0.061617 -33.70
8.98370000 0.061662 32.187 0.998081 -90.79 0.998081 -90.79 0.061633 -33.76
8.98380000 0.061678 32.241 0.998079 -90.79 0.998079 -90.79 0.061649 -33.83
8.98390000 0.061694 32.296 0.998078 -90.80 0.998078 -90.80 0.061666 -33.89
8.98400000 0.061711 32.350 0.998077 -90.80 0.998077 -90.80 0.061682 -33.96
8.98410000 0.061728 32.404 0.998076 -90.81 0.998076 -90.81 0.061699 -34.02
8.98420000 0.061745 32.459 0.998075 -90.81 0.998075 -90.81 0.061716 -34.08
8.98430000 0.061762 32.513 0.998074 -90.82 0.998074 -90.82 0.061732 -34.15
8.98440000 0.061779 32.568 0.998073 -90.82 0.998073 -90.82 0.061749 -34.21
8.98450000 0.061796 32.623 0.998072 -90.83 0.998072 -90.83 0.061767 -34.28
8.98460000 0.061813 32.678 0.998071 -90.83 0.998071 -90.83 0.061784 -34.34
8.98470000 0.061831 32.733 0.998070 -90.84 0.998070 -90.84 0.061801 -34.41
8.98480000 0.061848 32.788 0.998069 -90.84 0.998069 -90.84 0.061819 -34.47
8.98490000 0.061866 32.843 0.998067 -90.85 0.998067 -90.85 0.061836 -34.54
8.98500000 0.061883 32.899 0.998066 -90.85 0.998066 -90.85 0.061854 -34.60
8.98510000 0.061901 32.954 0.998065 -90.86 0.998065 -90.86 0.061871 -34.67
8.98520000 0.061919 33.010 0.998064 -90.86 0.998064 -90.86 0.061889 -34.74
8.98530000 0.061937 33.066 0.998063 -90.87 0.998063 -90.87 0.061907 -34.80
8.98540000 0.061955 33.122 0.998062 -90.87 0.998062 -90.87 0.061925 -34.87
8.98550000 0.061974 33.178 0.998061 -90.88 0.998061 -90.88 0.061944 -34.93
8.98560000 0.061992 33.234 0.998059 -90.88 0.998059 -90.88 0.061962 -35.00
8.98570000 0.062011 33.290 0.998058 -90.89 0.998058 -90.89 0.061980 -35.07
8.98580000 0.062029 33.347 0.998057 -90.89 0.998057 -90.89 0.061999 -35.13
8.98590000 0.062048 33.403 0.998056 -90.90 0.998056 -90.90 0.062018 -35.20
8.98600000 0.062067 33.460 0.998055 -90.90 0.998055 -90.90 0.062036 -35.27
8.98610000 0.062086 33.516 0.998053 -90.91 0.998053 -90.91 0.062055 -35.33
8.98620000 0.062105 33.573 0.998052 -90.91 0.998052 -90.91 0.062074 -35.40
8.98630000 0.062124 33.630 0.998051 -90.92 0.998051 -90.92 0.062094 -35.47
8.98640000 0.062144 33.687 0.998050 -90.92 0.998050 -90.92 0.062113 -35.53
8.98650000 0.062163 33.745 0.998048 -90.93 0.998048 -90.93 0.062132 -35.60
8.98660000 0.062183 33.802 0.998047 -90.93 0.998047 -90.93 0.062152 -35.67
8.98670000 0.062202 33.859 0.998046 -90.94 0.998046 -90.94 0.062171 -35.74
8.98680000 0.062222 33.917 0.998045 -90.94 0.998045 -90.94 0.062191 -35.81
8.98690000 0.062242 33.975 0.998043 -90.95 0.998043 -90.95 0.062211 -35.87
8.98700000 0.062262 34.033 0.998042 -90.95 0.998042 -90.95 0.062231 -35.94
8.98710000 0.062282 34.091 0.998041 -90.96 0.998041 -90.96 0.062251 -36.01
8.98720000 0.062303 34.149 0.998039 -90.96 0.998039 -90.96 0.062272 -36.08
8.98730000 0.062323 34.207 0.998038 -90.97 0.998038 -90.97 0.062292 -36.15
8.98740000 0.062344 34.265 0.998037 -90.97 0.998037 -90.97 0.062313 -36.22
8.98750000 0.062365 34.324 0.998035 -90.98 0.998035 -90.98 0.062333 -36.28
8.98760000 0.062386 34.382 0.998034 -90.98 0.998034 -90.98 0.062354 -36.35
8.98770000 0.062407 34.441 0.998033 -90.99 0.998033 -90.99 0.062375 -36.42
8.98780000 0.062428 34.500 0.998031 -90.99 0.998031 -90.99 0.062396 -36.49
8.98790000 0.062449 34.559 0.998030 -91.00 0.998030 -91.00 0.062417 -36.56
8.98800000 0.062470 34.618 0.998029 -91.00 0.998029 -91.00 0.062438 -36.63
8.98810000 0.062492 34.677 0.998027 -91.01 0.998027 -91.01 0.062460 -36.70
8.98820000 0.062514 34.736 0.998026 -91.02 0.998026 -91.02 0.062482 -36.77
8.98830000 0.062535 34.796 0.998024 -91.02 0.998024 -91.02 0.062503 -36.84
8.98840000 0.062557 34.855 0.998023 -91.03 0.998023 -91.03 0.062525 -36.91
8.98850000 0.062579 34.915 0.998022 -91.03 0.998022 -91.03 0.062547 -36.98
8.98860000 0.062602 34.975 0.998020 -91.04 0.998020 -91.04 0.062569 -37.05
8.98870000 0.062624 35.035 0.998019 -91.04 0.998019 -91.04 0.062592 -37.12
8.98880000 0.062646 35.095 0.998017 -91.05 0.998017 -91.05 0.062614 -37.19
8.98890000 0.062669 35.155 0.998016 -91.05 0.998016 -91.05 0.062637 -37.27
8.98900000 0.062692 35.215 0.998014 -91.06 0.998014 -91.06 0.062659 -37.34
8.98910000 0.062715 35.276 0.998013 -91.06 0.998013 -91.06 0.062682 -37.41
8.98920000 0.062738 35.336 0.998011 -91.07 0.998011 -91.07 0.062705 -37.48
8.98930000 0.062761 35.397 0.998010 -91.07 0.998010 -91.07 0.062728 -37.55
8.98940000 0.062784 35.458 0.998008 -91.08 0.998008 -91.08 0.062751 -37.62
8.98950000 0.062808 35.519 0.998007 -91.09 0.998007 -91.09 0.062775 -37.70
8.98960000 0.062832 35.580 0.998005 -91.09 0.998005 -91.09 0.062798 -37.77
8.98970000 0.062855 35.641 0.998004 -91.10 0.998004 -91.10 0.062822 -37.84
8.98980000 0.062879 35.703 0.998002 -91.10 0.998002 -91.10 0.062846 -37.91
8.98990000 0.062903 35.764 0.998001 -91.11 0.998001 -91.11 0.062870 -37.98
8.99000000 0.062928 35.826 0.997999 -91.11 0.997999 -91.11 0.062894 -38.06
8.99010000 0.062952 35.888 0.997997 -91.12 0.997997 -91.12 0.062919 -38.13
8.99020000 0.062977 35.949 0.997996 -91.12 0.997996 -91.12 0.062943 -38.20
8.99030000 0.063001 36.011 0.997994 -91.13 0.997994 -91.13 0.062968 -38.28
8.99040000 0.063026 36.074 0.997993 -91.14 0.997993 -91.14 0.062992 -38.35
8.99050000 0.063051 36.136 0.997991 -91.14 0.997991 -91.14 0.063017 -38.42
8.99060000 0.063076 36.198 0.997989 -91.15 0.997989 -91.15 0.063042 -38.50
8.99070000 0.063102 36.261 0.997988 -91.15 0.997988 -91.15 0.063068 -38.57
8.99080000 0.063127 36.323 0.997986 -91.16 0.997986 -91.16 0.063093 -38.64
8.99090000 0.063153 36.386 0.997984 -91.16 0.997984 -91.16 0.063119 -38.72
8.99100000 0.063179 36.449 0.997983 -91.17 0.997983 -91.17 0.063144 -38.79
8.99110000 0.063205 36.512 0.997981 -91.17 0.997981 -91.17 0.063170 -38.87
8.99120000 0.063231 36.575 0.997979 -91.18 0.997979 -91.18 0.063196 -38.94
8.99130000 0.063257 36.639 0.997978 -91.19 0.997978 -91.19 0.063223 -39.02
8.99140000 0.063284 36.702 0.997976 -91.19 0.997976 -91.19 0.063249 -39.09
8.99150000 0.063310 36.766 0.997974 -91.20 0.997974 -91.20 0.063276 -39.17
8.99160000 0.063337 36.829 0.997972 -91.20 0.997972 -91.20 0.063302 -39.24
8.99170000 0.063364 36.893 0.997971 -91.21 0.997971 -91.21 0.063329 -39.32
8.99180000 0.063391 36.957 0.997969 -91.21 0.997969 -91.21 0.063356 -39.39
8.99190000 0.063418 37.021 0.997967 -91.22 0.997967 -91.22 0.063383 -39.47
8.99200000 0.063446 37.086 0.997965 -91.23 0.997965 -91.23 0.063411 -39.54
8.99210000 0.063473 37.150 0.997964 -91.23 0.997964 -91.23 0.063438 -39.62
8.99220000 0.063501 37.214 0.997962 -91.24 0.997962 -91.24 0.063466 -39.70
8.99230000 0.063529 37.279 0.997960 -91.24 0.997960 -91.24 0.063494 -39.77
8.99240000 0.063557 37.344 0.997958 -91.25 0.997958 -91.25 0.063522 -39.85
8.99250000 0.063586 37.409 0.997956 -91.26 0.997956 -91.26 0.063550 -39.93
8.99260000 0.063614 37.474 0.997954 -91.26 0.997954 -91.26 0.063579 -40.00
8.99270000 0.063643 37.539 0.997952 -91.27 0.997952 -91.27 0.063607 -40.08
8.99280000 0.063672 37.604 0.997951 -91.27 0.997951 -91.27 0.063636 -40.16
8.99290000 0.063701 37.670 0.997949 -91.28 0.997949 -91.28 0.063665 -40.24
8.99300000 0.063730 37.735 0.997947 -91.28 0.997947 -91.28 0.063694 -40.31
8.99310000 0.063760 37.801 0.997945 -91.29 0.997945 -91.29 0.063724 -40.39
8.99320000 0.063789 37.867 0.997943 -91.30 0.997943 -91.30 0.063753 -40.47
8.99330000 0.063819 37.933 0.997941 -91.30 0.997941 -91.30 0.063783 -40.55
8.99340000 0.063849 37.999 0.997939 -91.31 0.997939 -91.31 0.063813 -40.62
8.99350000 0.063879 38.065 0.997937 -91.31 0.997937 -91.31 0.063843 -40.70
8.99360000 0.063909 38.132 0.997935 -91.32 0.997935 -91.32 0.063873 -40.78
8.99370000 0.063940 38.198 0.997933 -91.33 0.997933 -91.33 0.063903 -40.86
8.99380000 0.063971 38.265 0.997931 -91.33 0.997931 -91.33 0.063934 -40.94
8.99390000 0.064002 38.332 0.997929 -91.34 0.997929 -91.34 0.063965 -41.02
8.99400000 0.064033 38.398 0.997927 -91.35 0.997927 -91.35 0.063996 -41.10
8.99410000 0.064064 38.466 0.997925 -91.35 0.997925 -91.35 0.064027 -41.18
8.99420000 0.064096 38.533 0.997923 -91.36 0.997923 -91.36 0.064059 -41.26
8.99430000 0.064127 38.600 0.997921 -91.36 0.997921 -91.36 0.064090 -41.34
8.99440000 0.064159 38.668 0.997919 -91.37 0.997919 -91.37 0.064122 -41.42
8.99450000 0.064191 38.735 0.997916 -91.38 0.997916 -91.38 0.064154 -41.50
8.99460000 0.064224 38.803 0.997914 -91.38 0.997914 -91.38 0.064186 -41.58
8.99470000 0.064256 38.871 0.997912 -91.39 0.997912 -91.39 0.064219 -41.66
8.99480000 0.064289 38.939 0.997910 -91.39 0.997910 -91.39 0.064251 -41.74
8.99490000 0.064322 39.007 0.997908 -91.40 0.997908 -91.40 0.064284 -41.82
8.99500000 0.064355 39.075 0.997906 -91.41 0.997906 -91.41 0.064317 -41.90
8.99510000 0.064388 39.144 0.997903 -91.41 0.997903 -91.41 0.064350 -41.98
8.99520000 0.064422 39.212 0.997901 -91.42 0.997901 -91.42 0.064384 -42.06
8.99530000 0.064455 39.281 0.997899 -91.43 0.997899 -91.43 0.064417 -42.14
8.99540000 0.064489 39.350 0.997897 -91.43 0.997897 -91.43 0.064451 -42.22
8.99550000 0.064523 39.419 0.997894 -91.44 0.997894 -91.44 0.064485 -42.31
8.99560000 0.064558 39.488 0.997892 -91.44 0.997892 -91.44 0.064519 -42.39
8.99570000 0.064592 39.558 0.997890 -91.45 0.997890 -91.45 0.064554 -42.47
8.99580000 0.064627 39.627 0.997888 -91.46 0.997888 -91.46 0.064589 -42.55
8.99590000 0.064662 39.697 0.997885 -91.46 0.997885 -91.46 0.064624 -42.63
8.99600000 0.064697 39.766 0.997883 -91.47 0.997883 -91.47 0.064659 -42.72
8.99610000 0.064733 39.836 0.997881 -91.48 0.997881 -91.48 0.064694 -42.80
8.99620000 0.064769 39.906 0.997878 -91.48 0.997878 -91.48 0.064730 -42.88
8.99630000 0.064804 39.976 0.997876 -91.49 0.997876 -91.49 0.064765 -42.97
8.99640000 0.064841 40.046 0.997873 -91.50 0.997873 -91.50 0.064801 -43.05
8.99650000 0.064877 40.117 0.997871 -91.50 0.997871 -91.50 0.064838 -43.13
8.99660000 0.064914 40.187 0.997869 -91.51 0.997869 -91.51 0.064874 -43.22
8.99670000 0.064950 40.258 0.997866 -91.52 0.997866 -91.52 0.064911 -43.30
8.99680000 0.064987 40.329 0.997864 -91.52 0.997864 -91.52 0.064948 -43.38
8.99690000 0.065025 40.400 0.997861 -91.53 0.997861 -91.53 0.064985 -43.47
8.99700000 0.065062 40.471 0.997859 -91.54 0.997859 -91.54 0.065022 -43.55
8.99710000 0.065100 40.542 0.997856 -91.54 0.997856 -91.54 0.065060 -43.64
8.99720000 0.065138 40.614 0.997854 -91.55 0.997854 -91.55 0.065098 -43.72
8.99730000 0.065176 40.685 0.997851 -91.56 0.997851 -91.56 0.065136 -43.81
8.99740000 0.065214 40.757 0.997848 -91.56 0.997848 -91.56 0.065174 -43.89
8.99750000 0.065253 40.829 0.997846 -91.57 0.997846 -91.57 0.065213 -43.98
8.99760000 0.065292 40.901 0.997843 -91.57 0.997843 -91.57 0.065252 -44.06
8.99770000 0.065331 40.973 0.997841 -91.58 0.997841 -91.58 0.065291 -44.15
8.99780000 0.065371 41.045 0.997838 -91.59 0.997838 -91.59 0.065330 -44.23
8.99790000 0.065410 41.117 0.997835 -91.60 0.997835 -91.60 0.065370 -44.32
8.99800000 0.065450 41.190 0.997833 -91.60 0.997833 -91.60 0.065409 -44.41
8.99810000 0.065490 41.263 0.997830 -91.61 0.997830 -91.61 0.065450 -44.49
8.99820000 0.065531 41.335 0.997827 -91.62 0.997827 -91.62 0.065490 -44.58
8.99830000 0.065571 41.408 0.997824 -91.62 0.997824 -91.62 0.065530 -44.66
8.99840000 0.065612 41.481 0.997822 -91.63 0.997822 -91.63 0.065571 -44.75
8.99850000 0.065654 41.555 0.997819 -91.64 0.997819 -91.64 0.065612 -44.84
8.99860000 0.065695 41.628 0.997816 -91.64 0.997816 -91.64 0.065654 -44.93
8.99870000 0.065737 41.702 0.997813 -91.65 0.997813 -91.65 0.065695 -45.01
8.99880000 0.065779 41.775 0.997811 -91.66 0.997811 -91.66 0.065737 -45.10
8.99890000 0.065821 41.849 0.997808 -91.66 0.997808 -91.66 0.065779 -45.19
8.99900000 0.065863 41.923 0.997805 -91.67 0.997805 -91.67 0.065821 -45.28
8.99910000 0.065906 41.997 0.997802 -91.68 0.997802 -91.68 0.065864 -45.36
8.99920000 0.065949 42.071 0.997799 -91.68 0.997799 -91.68 0.065907 -45.45
8.99930000 0.065992 42.146 0.997796 -91.69 0.997796 -91.69 0.065950 -45.54
8.99940000 0.066036 42.220 0.997793 -91.70 0.997793 -91.70 0.065994 -45.63
8.99950000 0.066080 42.295 0.997790 -91.71 0.997790 -91.71 0.066037 -45.72
8.99960000 0.066124 42.370 0.997787 -91.71 0.997787 -91.71 0.066081 -45.81
8.99970000 0.066168 42.445 0.997784 -91.72 0.997784 -91.72 0.066126 -45.90
8.99980000 0.066213 42.520 0.997781 -91.73 0.997781 -91.73 0.066170 -45.99
8.99990000 0.066258 42.595 0.997778 -91.73 0.997778 -91.73 0.066215 -46.08
9.00000000 0.066303 42.670 0.997775 -91.74 0.997775 -91.74 0.066260 -46.17
9.00010000 0.066349 42.746 0.997772 -91.75 0.997772 -91.75 0.066305 -46.26
9.00020000 0.066394 42.822 0.997769 -91.76 0.997769 -91.76 0.066351 -46.35
9.00030000 0.066440 42.897 0.997766 -91.76 0.997766 -91.76 0.066397 -46.44
9.00040000 0.066487 42.973 0.997763 -91.77 0.997763 -91.77 0.066443 -46.53
9.00050000 0.066533 43.050 0.997759 -91.78 0.997759 -91.78 0.066490 -46.62
9.00060000 0.066580 43.126 0.997756 -91.78 0.997756 -91.78 0.066537 -46.71
9.00070000 0.066628 43.202 0.997753 -91.79 0.997753 -91.79 0.066584 -46.80
9.00080000 0.066675 43.279 0.997750 -91.80 0.997750 -91.80 0.066631 -46.89
9.00090000 0.066723 43.355 0.997746 -91.81 0.997746 -91.81 0.066679 -46.98
9.00100000 0.066771 43.432 0.997743 -91.81 0.997743 -91.81 0.066727 -47.07
9.00110000 0.066820 43.509 0.997740 -91.82 0.997740 -91.82 0.066775 -47.17
9.00120000 0.066868 43.586 0.997736 -91.83 0.997736 -91.83 0.066824 -47.26
9.00130000 0.066917 43.664 0.997733 -91.84 0.997733 -91.84 0.066873 -47.35
9.00140000 0.066967 43.741 0.997730 -91.84 0.997730 -91.84 0.066922 -47.44
9.00150000 0.067016 43.818 0.997726 -91.85 0.997726 -91.85 0.066972 -47.53
9.00160000 0.067066 43.896 0.997723 -91.86 0.997723 -91.86 0.067022 -47.63
9.00170000 0.067117 43.974 0.997719 -91.87 0.997719 -91.87 0.067072 -47.72
9.00180000 0.067167 44.052 0.997716 -91.87 0.997716 -91.87 0.067122 -47.81
9.00190000 0.067218 44.130 0.997712 -91.88 0.997712 -91.88 0.067173 -47.91
9.00200000 0.067269 44.208 0.997709 -91.89 0.997709 -91.89 0.067224 -48.00
9.00210000 0.067321 44.287 0.997705 -91.90 0.997705 -91.90 0.067276 -48.09
9.00220000 0.067373 44.365 0.997702 -91.90 0.997702 -91.90 0.067327 -48.19
9.00230000 0.067425 44.444 0.997698 -91.91 0.997698 -91.91 0.067379 -48.28
9.00240000 0.067478 44.523 0.997695 -91.92 0.997695 -91.92 0.067432 -48.38
9.00250000 0.067530 44.602 0.997691 -91.93 0.997691 -91.93 0.067485 -48.47
9.00260000 0.067584 44.681 0.997687 -91.93 0.997687 -91.93 0.067538 -48.57
9.00270000 0.067637 44.760 0.997683 -91.94 0.997683 -91.94 0.067591 -48.66
9.00280000 0.067691 44.840 0.997680 -91.95 0.997680 -91.95 0.067645 -48.75
9.00290000 0.067745 44.919 0.997676 -91.96 0.997676 -91.96 0.067699 -48.85
9.00300000 0.067800 44.999 0.997672 -91.96 0.997672 -91.96 0.067754 -48.95
9.00310000 0.067855 45.079 0.997668 -91.97 0.997668 -91.97 0.067808 -49.04
9.00320000 0.067910 45.159 0.997665 -91.98 0.997665 -91.98 0.067863 -49.14
9.00330000 0.067966 45.239 0.997661 -91.99 0.997661 -91.99 0.067919 -49.23
9.00340000 0.068022 45.319 0.997657 -92.00 0.997657 -92.00 0.067975 -49.33
9.00350000 0.068078 45.400 0.997653 -92.00 0.997653 -92.00 0.068031 -49.43
9.00360000 0.068135 45.480 0.997649 -92.01 0.997649 -92.01 0.068087 -49.52
9.00370000 0.068192 45.561 0.997645 -92.02 0.997645 -92.02 0.068144 -49.62
9.00380000 0.068249 45.642 0.997641 -92.03 0.997641 -92.03 0.068202 -49.72
9.00390000 0.068307 45.723 0.997637 -92.04 0.997637 -92.04 0.068259 -49.81
9.00400000 0.068365 45.804 0.997633 -92.04 0.997633 -92.04 0.068317 -49.91
9.00410000 0.068423 45.885 0.997629 -92.05 0.997629 -92.05 0.068376 -50.01
9.00420000 0.068482 45.967 0.997625 -92.06 0.997625 -92.06 0.068434 -50.11
9.00430000 0.068541 46.048 0.997620 -92.07 0.997620 -92.07 0.068493 -50.20
9.00440000 0.068601 46.130 0.997616 -92.08 0.997616 -92.08 0.068553 -50.30
9.00450000 0.068661 46.212 0.997612 -92.08 0.997612 -92.08 0.068613 -50.40
9.00460000 0.068721 46.294 0.997608 -92.09 0.997608 -92.09 0.068673 -50.50
9.00470000 0.068782 46.376 0.997604 -92.10 0.997604 -92.10 0.068734 -50.60
9.00480000 0.068843 46.458 0.997599 -92.11 0.997599 -92.11 0.068795 -50.70
9.00490000 0.068905 46.540 0.997595 -92.12 0.997595 -92.12 0.068856 -50.79
9.00500000 0.068967 46.623 0.997591 -92.13 0.997591 -92.13 0.068918 -50.89
9.00510000 0.069029 46.706 0.997586 -92.13 0.997586 -92.13 0.068980 -50.99
9.00520000 0.069092 46.789 0.997582 -92.14 0.997582 -92.14 0.069042 -51.09
9.00530000 0.069155 46.871 0.997577 -92.15 0.997577 -92.15 0.069105 -51.19
9.00540000 0.069218 46.955 0.997573 -92.16 0.997573 -92.16 0.069169 -51.29
9.00550000 0.069282 47.038 0.997568 -92.17 0.997568 -92.17 0.069233 -51.39
9.00560000 0.069346 47.121 0.997564 -92.18 0.997564 -92.18 0.069297 -51.49
9.00570000 0.069411 47.205 0.997559 -92.18 0.997559 -92.18 0.069361 -51.59
9.00580000 0.069476 47.289 0.997554 -92.19 0.997554 -92.19 0.069426 -51.69
9.00590000 0.069542 47.372 0.997550 -92.20 0.997550 -92.20 0.069492 -51.80
9.00600000 0.069608 47.456 0.997545 -92.21 0.997545 -92.21 0.069558 -51.90
9.00610000 0.069674 47.540 0.997540 -92.22 0.997540 -92.22 0.069624 -52.00
9.00620000 0.069741 47.625 0.997536 -92.23 0.997536 -92.23 0.069690 -52.10
9.00630000 0.069808 47.709 0.997531 -92.24 0.997531 -92.24 0.069757 -52.20
9.00640000 0.069876 47.794 0.997526 -92.24 0.997526 -92.24 0.069825 -52.30
9.00650000 0.069944 47.878 0.997521 -92.25 0.997521 -92.25 0.069893 -52.41
9.00660000 0.070012 47.963 0.997516 -92.26 0.997516 -92.26 0.069961 -52.51
9.00670000 0.070081 48.048 0.997511 -92.27 0.997511 -92.27 0.070030 -52.61
9.00680000 0.070151 48.133 0.997506 -92.28 0.997506 -92.28 0.070099 -52.71
9.00690000 0.070221 48.218 0.997501 -92.29 0.997501 -92.29 0.070169 -52.82
9.00700000 0.070291 48.304 0.997496 -92.30 0.997496 -92.30 0.070239 -52.92
!< P1 F=9.007 Eeff=(6.44048385 -2.9688e-5) Z0=(50.4063137 1.16292e-4) R=0.0 C=0.0 
!< P2 F=9.007 Eeff=(6.44048385 -2.9688e-5) Z0=(50.4063137 1.16292e-4) R=0.0 C=0.0 
9.00710000 0.070362 48.389 0.997491 -92.31 0.997491 -92.31 0.070310 -53.02
9.00720000 0.070433 48.475 0.997486 -92.31 0.997486 -92.31 0.070381 -53.13
9.00730000 0.070504 48.561 0.997481 -92.32 0.997481 -92.32 0.070452 -53.23
9.00740000 0.070576 48.646 0.997476 -92.33 0.997476 -92.33 0.070524 -53.33
9.00750000 0.070649 48.732 0.997470 -92.34 0.997470 -92.34 0.070597 -53.44
9.00760000 0.070722 48.819 0.997465 -92.35 0.997465 -92.35 0.070670 -53.54
9.00770000 0.070795 48.905 0.997460 -92.36 0.997460 -92.36 0.070743 -53.65
9.00780000 0.070869 48.991 0.997454 -92.37 0.997454 -92.37 0.070817 -53.75
9.00790000 0.070944 49.078 0.997449 -92.38 0.997449 -92.38 0.070891 -53.86
9.00800000 0.071019 49.165 0.997444 -92.39 0.997444 -92.39 0.070966 -53.96
9.00810000 0.071094 49.252 0.997438 -92.40 0.997438 -92.40 0.071041 -54.07
9.00820000 0.071170 49.339 0.997433 -92.41 0.997433 -92.41 0.071117 -54.17
9.00830000 0.071246 49.426 0.997427 -92.41 0.997427 -92.41 0.071193 -54.28
9.00840000 0.071323 49.513 0.997421 -92.42 0.997421 -92.42 0.071270 -54.38
9.00850000 0.071401 49.600 0.997416 -92.43 0.997416 -92.43 0.071347 -54.49
9.00860000 0.071478 49.688 0.997410 -92.44 0.997410 -92.44 0.071424 -54.60
9.00870000 0.071557 49.776 0.997404 -92.45 0.997404 -92.45 0.071503 -54.70
9.00880000 0.071636 49.863 0.997399 -92.46 0.997399 -92.46 0.071581 -54.81
9.00890000 0.071715 49.951 0.997393 -92.47 0.997393 -92.47 0.071661 -54.92
9.00900000 0.071795 50.039 0.997387 -92.48 0.997387 -92.48 0.071740 -55.02
9.00910000 0.071875 50.128 0.997381 -92.49 0.997381 -92.49 0.071820 -55.13
9.00920000 0.071956 50.216 0.997375 -92.50 0.997375 -92.50 0.071901 -55.24
9.00930000 0.072037 50.304 0.997369 -92.51 0.997369 -92.51 0.071982 -55.35
9.00940000 0.072119 50.393 0.997363 -92.52 0.997363 -92.52 0.072064 -55.45
9.00950000 0.072202 50.482 0.997357 -92.53 0.997357 -92.53 0.072147 -55.56
9.00960000 0.072285 50.571 0.997351 -92.54 0.997351 -92.54 0.072229 -55.67
9.00970000 0.072368 50.660 0.997345 -92.55 0.997345 -92.55 0.072313 -55.78
9.00980000 0.072452 50.749 0.997339 -92.56 0.997339 -92.56 0.072397 -55.89
9.00990000 0.072537 50.838 0.997332 -92.57 0.997332 -92.57 0.072481 -56.00
9.01000000 0.072622 50.927 0.997326 -92.58 0.997326 -92.58 0.072566 -56.11
9.01010000 0.072708 51.017 0.997320 -92.59 0.997320 -92.59 0.072652 -56.22
9.01020000 0.072794 51.106 0.997313 -92.60 0.997313 -92.60 0.072738 -56.33
9.01030000 0.072881 51.196 0.997307 -92.61 0.997307 -92.61 0.072824 -56.43
9.01040000 0.072968 51.286 0.997300 -92.62 0.997300 -92.62 0.072912 -56.54
9.01050000 0.073056 51.376 0.997294 -92.63 0.997294 -92.63 0.072999 -56.65
9.01060000 0.073145 51.466 0.997287 -92.64 0.997287 -92.64 0.073088 -56.77
9.01070000 0.073234 51.556 0.997280 -92.65 0.997280 -92.65 0.073177 -56.88
9.01080000 0.073324 51.647 0.997274 -92.66 0.997274 -92.66 0.073266 -56.99
9.01090000 0.073414 51.737 0.997267 -92.67 0.997267 -92.67 0.073356 -57.10
9.01100000 0.073505 51.828 0.997260 -92.68 0.997260 -92.68 0.073447 -57.21
9.01110000 0.073596 51.919 0.997253 -92.69 0.997253 -92.69 0.073538 -57.32
9.01120000 0.073688 52.010 0.997246 -92.70 0.997246 -92.70 0.073630 -57.43
9.01130000 0.073781 52.101 0.997239 -92.71 0.997239 -92.71 0.073723 -57.54
9.01140000 0.073874 52.192 0.997232 -92.72 0.997232 -92.72 0.073816 -57.65
9.01150000 0.073968 52.283 0.997225 -92.73 0.997225 -92.73 0.073909 -57.77
9.01160000 0.074062 52.374 0.997218 -92.74 0.997218 -92.74 0.074004 -57.88
9.01170000 0.074157 52.466 0.997211 -92.75 0.997211 -92.75 0.074099 -57.99
9.01180000 0.074253 52.557 0.997204 -92.76 0.997204 -92.76 0.074194 -58.10
9.01190000 0.074349 52.649 0.997196 -92.77 0.997196 -92.77 0.074290 -58.22
9.01200000 0.074446 52.741 0.997189 -92.78 0.997189 -92.78 0.074387 -58.33
9.01210000 0.074544 52.833 0.997181 -92.79 0.997181 -92.79 0.074484 -58.44
9.01220000 0.074642 52.925 0.997174 -92.80 0.997174 -92.80 0.074582 -58.56
9.01230000 0.074741 53.017 0.997166 -92.81 0.997166 -92.81 0.074681 -58.67
9.01240000 0.074840 53.110 0.997159 -92.82 0.997159 -92.82 0.074780 -58.78
9.01250000 0.074940 53.202 0.997151 -92.83 0.997151 -92.83 0.074880 -58.90
9.01260000 0.075041 53.295 0.997144 -92.84 0.997144 -92.84 0.074981 -59.01
9.01270000 0.075143 53.387 0.997136 -92.85 0.997136 -92.85 0.075082 -59.13
9.01280000 0.075245 53.480 0.997128 -92.87 0.997128 -92.87 0.075184 -59.24
9.01290000 0.075347 53.573 0.997120 -92.88 0.997120 -92.88 0.075287 -59.36
9.01300000 0.075451 53.666 0.997112 -92.89 0.997112 -92.89 0.075390 -59.47
9.01310000 0.075555 53.759 0.997104 -92.90 0.997104 -92.90 0.075494 -59.59
9.01320000 0.075660 53.853 0.997096 -92.91 0.997096 -92.91 0.075599 -59.70
9.01330000 0.075765 53.946 0.997088 -92.92 0.997088 -92.92 0.075704 -59.82
9.01340000 0.075872 54.039 0.997080 -92.93 0.997080 -92.93 0.075810 -59.93
9.01350000 0.075978 54.133 0.997071 -92.94 0.997071 -92.94 0.075917 -60.05
9.01360000 0.076086 54.227 0.997063 -92.95 0.997063 -92.95 0.076024 -60.17
9.01370000 0.076194 54.320 0.997054 -92.96 0.997054 -92.96 0.076132 -60.28
9.01380000 0.076303 54.414 0.997046 -92.98 0.997046 -92.98 0.076241 -60.40
9.01390000 0.076413 54.508 0.997037 -92.99 0.997037 -92.99 0.076351 -60.52
9.01400000 0.076524 54.603 0.997029 -93.00 0.997029 -93.00 0.076461 -60.63
9.01410000 0.076635 54.697 0.997020 -93.01 0.997020 -93.01 0.076572 -60.75
9.01420000 0.076747 54.791 0.997011 -93.02 0.997011 -93.02 0.076684 -60.87
9.01430000 0.076859 54.886 0.997003 -93.03 0.997003 -93.03 0.076796 -60.99
9.01440000 0.076973 54.980 0.996994 -93.04 0.996994 -93.04 0.076910 -61.10
9.01450000 0.077087 55.075 0.996985 -93.06 0.996985 -93.06 0.077024 -61.22
9.01460000 0.077202 55.170 0.996976 -93.07 0.996976 -93.07 0.077138 -61.34
9.01470000 0.077318 55.264 0.996966 -93.08 0.996966 -93.08 0.077254 -61.46
9.01480000 0.077434 55.359 0.996957 -93.09 0.996957 -93.09 0.077370 -61.58
9.01490000 0.077551 55.455 0.996948 -93.10 0.996948 -93.10 0.077487 -61.69
9.01500000 0.077669 55.550 0.996939 -93.11 0.996939 -93.11 0.077605 -61.81
9.01510000 0.077788 55.645 0.996929 -93.13 0.996929 -93.13 0.077724 -61.93
9.01520000 0.077908 55.740 0.996920 -93.14 0.996920 -93.14 0.077843 -62.05
9.01530000 0.078028 55.836 0.996910 -93.15 0.996910 -93.15 0.077963 -62.17
9.01540000 0.078149 55.931 0.996900 -93.16 0.996900 -93.16 0.078084 -62.29
9.01550000 0.078271 56.027 0.996891 -93.17 0.996891 -93.17 0.078206 -62.41
9.01560000 0.078394 56.123 0.996881 -93.19 0.996881 -93.19 0.078329 -62.53
9.01570000 0.078518 56.219 0.996871 -93.20 0.996871 -93.20 0.078452 -62.65
9.01580000 0.078642 56.315 0.996861 -93.21 0.996861 -93.21 0.078576 -62.77
9.01590000 0.078767 56.411 0.996851 -93.22 0.996851 -93.22 0.078701 -62.89
9.01600000 0.078893 56.507 0.996841 -93.24 0.996841 -93.24 0.078827 -63.01
9.01610000 0.079020 56.603 0.996831 -93.25 0.996831 -93.25 0.078954 -63.14
9.01620000 0.079148 56.699 0.996820 -93.26 0.996820 -93.26 0.079082 -63.26
9.01630000 0.079277 56.796 0.996810 -93.27 0.996810 -93.27 0.079210 -63.38
9.01640000 0.079406 56.892 0.996799 -93.29 0.996799 -93.29 0.079340 -63.50
9.01650000 0.079537 56.989 0.996789 -93.30 0.996789 -93.30 0.079470 -63.62
9.01660000 0.079668 57.086 0.996778 -93.31 0.996778 -93.31 0.079601 -63.74
9.01670000 0.079800 57.182 0.996767 -93.32 0.996767 -93.32 0.079733 -63.87
9.01680000 0.079933 57.279 0.996757 -93.34 0.996757 -93.34 0.079866 -63.99
9.01690000 0.080067 57.376 0.996746 -93.35 0.996746 -93.35 0.079999 -64.11
9.01700000 0.080202 57.473 0.996735 -93.36 0.996735 -93.36 0.080134 -64.23
9.01710000 0.080338 57.570 0.996724 -93.37 0.996724 -93.37 0.080270 -64.36
9.01720000 0.080474 57.668 0.996712 -93.39 0.996712 -93.39 0.080406 -64.48
9.01730000 0.080612 57.765 0.996701 -93.40 0.996701 -93.40 0.080543 -64.60
9.01740000 0.080751 57.862 0.996690 -93.41 0.996690 -93.41 0.080682 -64.73
9.01750000 0.080890 57.960 0.996678 -93.43 0.996678 -93.43 0.080821 -64.85
9.01760000 0.081030 58.057 0.996667 -93.44 0.996667 -93.44 0.080961 -64.98
9.01770000 0.081172 58.155 0.996655 -93.45 0.996655 -93.45 0.081102 -65.10
9.01780000 0.081314 58.252 0.996643 -93.47 0.996643 -93.47 0.081244 -65.22
9.01790000 0.081457 58.350 0.996631 -93.48 0.996631 -93.48 0.081387 -65.35
9.01800000 0.081601 58.448 0.996619 -93.49 0.996619 -93.49 0.081531 -65.47
9.01810000 0.081747 58.546 0.996607 -93.51 0.996607 -93.51 0.081676 -65.60
9.01820000 0.081893 58.644 0.996595 -93.52 0.996595 -93.52 0.081822 -65.72
9.01830000 0.082040 58.742 0.996583 -93.53 0.996583 -93.53 0.081969 -65.85
9.01840000 0.082188 58.840 0.996570 -93.55 0.996570 -93.55 0.082117 -65.97
9.01850000 0.082337 58.938 0.996558 -93.56 0.996558 -93.56 0.082266 -66.10
9.01860000 0.082488 59.036 0.996545 -93.57 0.996545 -93.57 0.082416 -66.23
9.01870000 0.082639 59.135 0.996532 -93.59 0.996532 -93.59 0.082567 -66.35
9.01880000 0.082791 59.233 0.996519 -93.60 0.996519 -93.60 0.082720 -66.48
9.01890000 0.082944 59.331 0.996506 -93.62 0.996506 -93.62 0.082873 -66.61
9.01900000 0.083099 59.430 0.996493 -93.63 0.996493 -93.63 0.083027 -66.73