! Sonnet Data File
! From: emgraph Version : 16.52
! From Project: Resonator2_extremeCap
! Data is De-embedded 
! Data File Written: 10/11/2017 17:55:29
!< HDATE 10/10/2017 20:37:37
!< MDATE 10/10/2017 20:37:37
!< PARAMS
!< Pwid1 = 2000.0
!< Pwid2 = 2000.0
!< Air_gap = 24.0
!< Width = 40.0
!< Gap = 60.0
!< END PARAMS
# GHZ S MA R 50.70000
8.95000000 0.109023 2.1780 0.994034 -88.13 0.994034 -88.13 0.109019 1.5619
!< P1 F=8.95 Eeff=(6.44311072 -2.9701e-5) Z0=(50.4816225 1.16464e-4) R=0.0 C=0.0 
!< P2 F=8.95 Eeff=(6.44311072 -2.9701e-5) Z0=(50.4816225 1.16464e-4) R=0.0 C=0.0 
8.95020000 0.109034 2.1845 0.994032 -88.13 0.994032 -88.13 0.109030 1.5488
8.95040000 0.109046 2.1911 0.994031 -88.14 0.994031 -88.14 0.109042 1.5358
8.95060000 0.109057 2.1977 0.994030 -88.14 0.994030 -88.14 0.109053 1.5228
8.95080000 0.109068 2.2043 0.994029 -88.14 0.994029 -88.14 0.109064 1.5097
8.95100000 0.109080 2.2110 0.994027 -88.15 0.994027 -88.15 0.109076 1.4965
8.95120000 0.109091 2.2176 0.994026 -88.15 0.994026 -88.15 0.109087 1.4834
8.95140000 0.109103 2.2243 0.994025 -88.15 0.994025 -88.15 0.109099 1.4702
8.95160000 0.109114 2.2311 0.994024 -88.16 0.994024 -88.16 0.109110 1.4569
8.95180000 0.109126 2.2378 0.994022 -88.16 0.994022 -88.16 0.109122 1.4437
8.95200000 0.109137 2.2446 0.994021 -88.16 0.994021 -88.16 0.109133 1.4304
8.95220000 0.109149 2.2514 0.994020 -88.17 0.994020 -88.17 0.109145 1.4170
8.95240000 0.109161 2.2582 0.994018 -88.17 0.994018 -88.17 0.109157 1.4037
8.95260000 0.109172 2.2651 0.994017 -88.17 0.994017 -88.17 0.109168 1.3903
8.95280000 0.109184 2.2720 0.994016 -88.18 0.994016 -88.18 0.109180 1.3768
8.95300000 0.109196 2.2789 0.994015 -88.18 0.994015 -88.18 0.109192 1.3634
8.95320000 0.109208 2.2858 0.994013 -88.18 0.994013 -88.18 0.109203 1.3499
8.95340000 0.109219 2.2928 0.994012 -88.19 0.994012 -88.19 0.109215 1.3363
8.95360000 0.109231 2.2998 0.994011 -88.19 0.994011 -88.19 0.109227 1.3227
8.95380000 0.109243 2.3068 0.994009 -88.19 0.994009 -88.19 0.109239 1.3091
8.95400000 0.109255 2.3139 0.994008 -88.20 0.994008 -88.20 0.109251 1.2955
8.95420000 0.109267 2.3209 0.994007 -88.20 0.994007 -88.20 0.109263 1.2818
8.95440000 0.109279 2.3280 0.994005 -88.20 0.994005 -88.20 0.109275 1.2681
8.95460000 0.109291 2.3352 0.994004 -88.21 0.994004 -88.21 0.109286 1.2543
8.95480000 0.109303 2.3423 0.994003 -88.21 0.994003 -88.21 0.109298 1.2405
8.95500000 0.109315 2.3495 0.994001 -88.21 0.994001 -88.21 0.109310 1.2267
8.95520000 0.109327 2.3567 0.994000 -88.22 0.994000 -88.22 0.109322 1.2128
8.95540000 0.109339 2.3640 0.993999 -88.22 0.993999 -88.22 0.109335 1.1989
8.95560000 0.109351 2.3713 0.993997 -88.22 0.993997 -88.22 0.109347 1.1850
8.95580000 0.109363 2.3786 0.993996 -88.23 0.993996 -88.23 0.109359 1.1710
8.95600000 0.109375 2.3859 0.993995 -88.23 0.993995 -88.23 0.109371 1.1570
8.95620000 0.109387 2.3933 0.993993 -88.23 0.993993 -88.23 0.109383 1.1429
8.95640000 0.109400 2.4007 0.993992 -88.24 0.993992 -88.24 0.109395 1.1288
8.95660000 0.109412 2.4081 0.993991 -88.24 0.993991 -88.24 0.109408 1.1147
8.95680000 0.109424 2.4155 0.993989 -88.24 0.993989 -88.24 0.109420 1.1005
8.95700000 0.109437 2.4230 0.993988 -88.25 0.993988 -88.25 0.109432 1.0863
8.95720000 0.109449 2.4305 0.993987 -88.25 0.993987 -88.25 0.109445 1.0721
8.95740000 0.109461 2.4381 0.993985 -88.25 0.993985 -88.25 0.109457 1.0578
8.95760000 0.109474 2.4456 0.993984 -88.26 0.993984 -88.26 0.109469 1.0435
8.95780000 0.109486 2.4532 0.993982 -88.26 0.993982 -88.26 0.109482 1.0291
8.95800000 0.109499 2.4609 0.993981 -88.26 0.993981 -88.26 0.109494 1.0147
8.95820000 0.109511 2.4685 0.993980 -88.27 0.993980 -88.27 0.109507 1.0003
8.95840000 0.109524 2.4762 0.993978 -88.27 0.993978 -88.27 0.109519 0.9858
8.95860000 0.109536 2.4839 0.993977 -88.27 0.993977 -88.27 0.109532 0.9713
8.95880000 0.109549 2.4917 0.993976 -88.28 0.993976 -88.28 0.109544 0.9567
8.95900000 0.109562 2.4995 0.993974 -88.28 0.993974 -88.28 0.109557 0.9421
8.95920000 0.109574 2.5073 0.993973 -88.28 0.993973 -88.28 0.109570 0.9275
8.95940000 0.109587 2.5151 0.993971 -88.29 0.993971 -88.29 0.109582 0.9128
8.95960000 0.109600 2.5230 0.993970 -88.29 0.993970 -88.29 0.109595 0.8981
8.95980000 0.109612 2.5309 0.993968 -88.29 0.993968 -88.29 0.109608 0.8833
8.96000000 0.109625 2.5389 0.993967 -88.30 0.993967 -88.30 0.109621 0.8685
8.96020000 0.109638 2.5469 0.993966 -88.30 0.993966 -88.30 0.109634 0.8537
8.96040000 0.109651 2.5549 0.993964 -88.30 0.993964 -88.30 0.109646 0.8388
8.96060000 0.109664 2.5629 0.993963 -88.31 0.993963 -88.31 0.109659 0.8239
8.96080000 0.109677 2.5710 0.993961 -88.31 0.993961 -88.31 0.109672 0.8089
8.96100000 0.109690 2.5791 0.993960 -88.31 0.993960 -88.31 0.109685 0.7939
8.96120000 0.109703 2.5872 0.993958 -88.32 0.993958 -88.32 0.109698 0.7788
8.96140000 0.109716 2.5954 0.993957 -88.32 0.993957 -88.32 0.109711 0.7638
8.96160000 0.109729 2.6036 0.993956 -88.32 0.993956 -88.32 0.109724 0.7486
8.96180000 0.109742 2.6118 0.993954 -88.33 0.993954 -88.33 0.109738 0.7334
8.96200000 0.109755 2.6201 0.993953 -88.33 0.993953 -88.33 0.109751 0.7182
8.96220000 0.109769 2.6284 0.993951 -88.33 0.993951 -88.33 0.109764 0.7029
8.96240000 0.109782 2.6367 0.993950 -88.34 0.993950 -88.34 0.109777 0.6876
8.96260000 0.109795 2.6451 0.993948 -88.34 0.993948 -88.34 0.109790 0.6723
8.96280000 0.109809 2.6535 0.993947 -88.35 0.993947 -88.35 0.109804 0.6569
8.96300000 0.109822 2.6619 0.993945 -88.35 0.993945 -88.35 0.109817 0.6414
8.96320000 0.109835 2.6704 0.993944 -88.35 0.993944 -88.35 0.109830 0.6260
8.96340000 0.109849 2.6789 0.993942 -88.36 0.993942 -88.36 0.109844 0.6104
8.96360000 0.109862 2.6874 0.993941 -88.36 0.993941 -88.36 0.109857 0.5948
8.96380000 0.109876 2.6960 0.993939 -88.36 0.993939 -88.36 0.109871 0.5792
8.96400000 0.109889 2.7046 0.993938 -88.37 0.993938 -88.37 0.109884 0.5636
8.96420000 0.109903 2.7133 0.993936 -88.37 0.993936 -88.37 0.109898 0.5478
8.96440000 0.109916 2.7220 0.993935 -88.37 0.993935 -88.37 0.109912 0.5321
8.96460000 0.109930 2.7307 0.993933 -88.38 0.993933 -88.38 0.109925 0.5163
8.96480000 0.109944 2.7394 0.993932 -88.38 0.993932 -88.38 0.109939 0.5004
8.96500000 0.109958 2.7482 0.993930 -88.38 0.993930 -88.38 0.109953 0.4845
8.96520000 0.109971 2.7570 0.993929 -88.39 0.993929 -88.39 0.109966 0.4686
8.96540000 0.109985 2.7659 0.993927 -88.39 0.993927 -88.39 0.109980 0.4526
8.96560000 0.109999 2.7748 0.993926 -88.39 0.993926 -88.39 0.109994 0.4366
8.96580000 0.110013 2.7837 0.993924 -88.40 0.993924 -88.40 0.110008 0.4205
8.96600000 0.110027 2.7927 0.993922 -88.40 0.993922 -88.40 0.110022 0.4044
8.96620000 0.110041 2.8017 0.993921 -88.41 0.993921 -88.41 0.110036 0.3882
8.96640000 0.110055 2.8108 0.993919 -88.41 0.993919 -88.41 0.110050 0.3719
8.96660000 0.110069 2.8198 0.993918 -88.41 0.993918 -88.41 0.110064 0.3557
8.96680000 0.110083 2.8290 0.993916 -88.42 0.993916 -88.42 0.110078 0.3394
8.96700000 0.110097 2.8381 0.993915 -88.42 0.993915 -88.42 0.110092 0.3230
8.96720000 0.110111 2.8473 0.993913 -88.42 0.993913 -88.42 0.110106 0.3066
8.96740000 0.110126 2.8565 0.993911 -88.43 0.993911 -88.43 0.110120 0.2901
8.96760000 0.110140 2.8658 0.993910 -88.43 0.993910 -88.43 0.110135 0.2736
8.96780000 0.110154 2.8751 0.993908 -88.43 0.993908 -88.43 0.110149 0.2570
8.96800000 0.110169 2.8845 0.993907 -88.44 0.993907 -88.44 0.110163 0.2404
8.96820000 0.110183 2.8938 0.993905 -88.44 0.993905 -88.44 0.110178 0.2237
8.96840000 0.110198 2.9033 0.993903 -88.45 0.993903 -88.45 0.110192 0.2070
8.96860000 0.110212 2.9127 0.993902 -88.45 0.993902 -88.45 0.110207 0.1902
8.96880000 0.110227 2.9222 0.993900 -88.45 0.993900 -88.45 0.110221 0.1734
8.96900000 0.110241 2.9318 0.993899 -88.46 0.993899 -88.46 0.110236 0.1565
8.96920000 0.110256 2.9414 0.993897 -88.46 0.993897 -88.46 0.110250 0.1396
8.96940000 0.110271 2.9510 0.993895 -88.46 0.993895 -88.46 0.110265 0.1226
8.96960000 0.110285 2.9607 0.993894 -88.47 0.993894 -88.47 0.110280 0.1056
8.96980000 0.110300 2.9704 0.993892 -88.47 0.993892 -88.47 0.110295 0.0885
8.97000000 0.110315 2.9801 0.993890 -88.47 0.993890 -88.47 0.110309 0.0714
8.97020000 0.110330 2.9899 0.993889 -88.48 0.993889 -88.48 0.110324 0.0542
8.97040000 0.110345 2.9997 0.993887 -88.48 0.993887 -88.48 0.110339 0.0369
8.97060000 0.110360 3.0096 0.993885 -88.49 0.993885 -88.49 0.110354 0.0196
8.97080000 0.110375 3.0195 0.993884 -88.49 0.993884 -88.49 0.110369 0.0023
8.97100000 0.110390 3.0294 0.993882 -88.49 0.993882 -88.49 0.110384 -0.015
8.97120000 0.110405 3.0394 0.993880 -88.50 0.993880 -88.50 0.110399 -0.033
8.97140000 0.110420 3.0495 0.993879 -88.50 0.993879 -88.50 0.110414 -0.050
8.97160000 0.110435 3.0595 0.993877 -88.50 0.993877 -88.50 0.110429 -0.068
8.97180000 0.110450 3.0697 0.993875 -88.51 0.993875 -88.51 0.110445 -0.085
8.97200000 0.110466 3.0798 0.993873 -88.51 0.993873 -88.51 0.110460 -0.103
8.97220000 0.110481 3.0900 0.993872 -88.52 0.993872 -88.52 0.110475 -0.121
8.97240000 0.110496 3.1003 0.993870 -88.52 0.993870 -88.52 0.110491 -0.138
8.97260000 0.110512 3.1106 0.993868 -88.52 0.993868 -88.52 0.110506 -0.156
8.97280000 0.110527 3.1209 0.993867 -88.53 0.993867 -88.53 0.110521 -0.174
8.97300000 0.110543 3.1313 0.993865 -88.53 0.993865 -88.53 0.110537 -0.192
8.97320000 0.110558 3.1417 0.993863 -88.53 0.993863 -88.53 0.110553 -0.210
8.97340000 0.110574 3.1522 0.993861 -88.54 0.993861 -88.54 0.110568 -0.228
8.97360000 0.110590 3.1627 0.993860 -88.54 0.993860 -88.54 0.110584 -0.246
8.97380000 0.110605 3.1732 0.993858 -88.55 0.993858 -88.55 0.110600 -0.265
8.97400000 0.110621 3.1838 0.993856 -88.55 0.993856 -88.55 0.110615 -0.283
8.97420000 0.110637 3.1945 0.993854 -88.55 0.993854 -88.55 0.110631 -0.301
8.97440000 0.110653 3.2052 0.993852 -88.56 0.993852 -88.56 0.110647 -0.319
8.97460000 0.110669 3.2159 0.993851 -88.56 0.993851 -88.56 0.110663 -0.338
8.97480000 0.110685 3.2267 0.993849 -88.57 0.993849 -88.57 0.110679 -0.356
8.97500000 0.110701 3.2375 0.993847 -88.57 0.993847 -88.57 0.110695 -0.375
8.97520000 0.110717 3.2484 0.993845 -88.57 0.993845 -88.57 0.110711 -0.394
8.97540000 0.110733 3.2593 0.993843 -88.58 0.993843 -88.58 0.110727 -0.412
8.97560000 0.110750 3.2703 0.993842 -88.58 0.993842 -88.58 0.110743 -0.431
8.97580000 0.110766 3.2813 0.993840 -88.58 0.993840 -88.58 0.110760 -0.450
8.97600000 0.110782 3.2924 0.993838 -88.59 0.993838 -88.59 0.110776 -0.469
8.97620000 0.110799 3.3035 0.993836 -88.59 0.993836 -88.59 0.110792 -0.487
8.97640000 0.110815 3.3146 0.993834 -88.60 0.993834 -88.60 0.110809 -0.506
8.97660000 0.110831 3.3258 0.993832 -88.60 0.993832 -88.60 0.110825 -0.525
8.97680000 0.110848 3.3371 0.993831 -88.60 0.993831 -88.60 0.110842 -0.545
8.97700000 0.110865 3.3484 0.993829 -88.61 0.993829 -88.61 0.110858 -0.564
8.97720000 0.110881 3.3598 0.993827 -88.61 0.993827 -88.61 0.110875 -0.583
8.97740000 0.110898 3.3712 0.993825 -88.62 0.993825 -88.62 0.110892 -0.602
8.97760000 0.110915 3.3826 0.993823 -88.62 0.993823 -88.62 0.110909 -0.622
8.97780000 0.110932 3.3941 0.993821 -88.62 0.993821 -88.62 0.110925 -0.641
8.97800000 0.110949 3.4057 0.993819 -88.63 0.993819 -88.63 0.110942 -0.661
8.97820000 0.110966 3.4173 0.993817 -88.63 0.993817 -88.63 0.110959 -0.680
8.97840000 0.110983 3.4289 0.993815 -88.64 0.993815 -88.64 0.110976 -0.700
8.97860000 0.111000 3.4406 0.993814 -88.64 0.993814 -88.64 0.110993 -0.719
8.97880000 0.111017 3.4524 0.993812 -88.64 0.993812 -88.64 0.111010 -0.739
8.97900000 0.111034 3.4642 0.993810 -88.65 0.993810 -88.65 0.111028 -0.759
8.97920000 0.111051 3.4761 0.993808 -88.65 0.993808 -88.65 0.111045 -0.779
8.97940000 0.111069 3.4880 0.993806 -88.66 0.993806 -88.66 0.111062 -0.799
8.97960000 0.111086 3.4999 0.993804 -88.66 0.993804 -88.66 0.111080 -0.819
8.97980000 0.111104 3.5120 0.993802 -88.66 0.993802 -88.66 0.111097 -0.839
8.98000000 0.111121 3.5240 0.993800 -88.67 0.993800 -88.67 0.111114 -0.859
8.98020000 0.111139 3.5361 0.993798 -88.67 0.993798 -88.67 0.111132 -0.879
8.98040000 0.111156 3.5483 0.993796 -88.68 0.993796 -88.68 0.111150 -0.900
8.98060000 0.111174 3.5605 0.993794 -88.68 0.993794 -88.68 0.111167 -0.920
8.98080000 0.111192 3.5728 0.993792 -88.68 0.993792 -88.68 0.111185 -0.940
8.98100000 0.111210 3.5852 0.993790 -88.69 0.993790 -88.69 0.111203 -0.961
8.98120000 0.111228 3.5976 0.993788 -88.69 0.993788 -88.69 0.111221 -0.981
8.98140000 0.111246 3.6100 0.993786 -88.70 0.993786 -88.70 0.111239 -1.002
!< P1 F=8.9814 Eeff=(6.44310562 -2.9701e-5) Z0=(50.481513 1.16464e-4) R=0.0 C=0.0 
!< P2 F=8.9814 Eeff=(6.44310562 -2.9701e-5) Z0=(50.481513 1.16464e-4) R=0.0 C=0.0 
8.98160000 0.111264 3.6225 0.993784 -88.70 0.993784 -88.70 0.111257 -1.023
8.98180000 0.111282 3.6351 0.993782 -88.70 0.993782 -88.70 0.111275 -1.044
8.98200000 0.111300 3.6477 0.993780 -88.71 0.993780 -88.71 0.111293 -1.064
8.98220000 0.111318 3.6604 0.993778 -88.71 0.993778 -88.71 0.111311 -1.085
8.98240000 0.111337 3.6731 0.993776 -88.72 0.993776 -88.72 0.111330 -1.106
8.98260000 0.111355 3.6859 0.993774 -88.72 0.993774 -88.72 0.111348 -1.128
8.98280000 0.111373 3.6987 0.993771 -88.73 0.993771 -88.73 0.111366 -1.149
8.98300000 0.111392 3.7116 0.993769 -88.73 0.993769 -88.73 0.111385 -1.170
8.98320000 0.111411 3.7246 0.993767 -88.73 0.993767 -88.73 0.111403 -1.191
8.98340000 0.111429 3.7376 0.993765 -88.74 0.993765 -88.74 0.111422 -1.213
8.98360000 0.111448 3.7506 0.993763 -88.74 0.993763 -88.74 0.111441 -1.234
8.98380000 0.111467 3.7638 0.993761 -88.75 0.993761 -88.75 0.111460 -1.256
8.98400000 0.111486 3.7770 0.993759 -88.75 0.993759 -88.75 0.111478 -1.277
8.98420000 0.111505 3.7902 0.993757 -88.75 0.993757 -88.75 0.111497 -1.299
8.98440000 0.111524 3.8035 0.993754 -88.76 0.993754 -88.76 0.111516 -1.321
8.98460000 0.111543 3.8169 0.993752 -88.76 0.993752 -88.76 0.111536 -1.343
8.98480000 0.111562 3.8303 0.993750 -88.77 0.993750 -88.77 0.111555 -1.365
8.98500000 0.111581 3.8438 0.993748 -88.77 0.993748 -88.77 0.111574 -1.387
8.98520000 0.111601 3.8574 0.993746 -88.78 0.993746 -88.78 0.111593 -1.409
8.98540000 0.111620 3.8710 0.993744 -88.78 0.993744 -88.78 0.111613 -1.431
8.98560000 0.111640 3.8847 0.993741 -88.78 0.993741 -88.78 0.111632 -1.453
8.98580000 0.111659 3.8984 0.993739 -88.79 0.993739 -88.79 0.111652 -1.475
8.98600000 0.111679 3.9122 0.993737 -88.79 0.993737 -88.79 0.111671 -1.498
8.98620000 0.111698 3.9261 0.993735 -88.80 0.993735 -88.80 0.111691 -1.520
8.98640000 0.111718 3.9400 0.993732 -88.80 0.993732 -88.80 0.111711 -1.543
8.98660000 0.111738 3.9540 0.993730 -88.81 0.993730 -88.81 0.111731 -1.566
8.98680000 0.111758 3.9681 0.993728 -88.81 0.993728 -88.81 0.111750 -1.588
8.98700000 0.111778 3.9822 0.993726 -88.81 0.993726 -88.81 0.111770 -1.611
8.98720000 0.111798 3.9964 0.993723 -88.82 0.993723 -88.82 0.111791 -1.634
8.98740000 0.111819 4.0106 0.993721 -88.82 0.993721 -88.82 0.111811 -1.657
8.98760000 0.111839 4.0249 0.993719 -88.83 0.993719 -88.83 0.111831 -1.680
8.98780000 0.111859 4.0393 0.993716 -88.83 0.993716 -88.83 0.111851 -1.703
8.98800000 0.111880 4.0538 0.993714 -88.84 0.993714 -88.84 0.111872 -1.727
8.98820000 0.111900 4.0683 0.993712 -88.84 0.993712 -88.84 0.111892 -1.750
8.98840000 0.111921 4.0829 0.993709 -88.85 0.993709 -88.85 0.111913 -1.773
8.98860000 0.111942 4.0975 0.993707 -88.85 0.993707 -88.85 0.111934 -1.797
8.98880000 0.111962 4.1122 0.993705 -88.85 0.993705 -88.85 0.111954 -1.821
8.98900000 0.111983 4.1270 0.993702 -88.86 0.993702 -88.86 0.111975 -1.844
8.98920000 0.112004 4.1419 0.993700 -88.86 0.993700 -88.86 0.111996 -1.868
8.98940000 0.112025 4.1568 0.993698 -88.87 0.993698 -88.87 0.112017 -1.892
8.98960000 0.112046 4.1718 0.993695 -88.87 0.993695 -88.87 0.112038 -1.916
8.98980000 0.112068 4.1869 0.993693 -88.88 0.993693 -88.88 0.112060 -1.940
8.99000000 0.112089 4.2020 0.993690 -88.88 0.993690 -88.88 0.112081 -1.964
8.99020000 0.112111 4.2172 0.993688 -88.89 0.993688 -88.89 0.112102 -1.988
8.99040000 0.112132 4.2325 0.993686 -88.89 0.993686 -88.89 0.112124 -2.013
8.99060000 0.112154 4.2479 0.993683 -88.89 0.993683 -88.89 0.112145 -2.037
8.99080000 0.112175 4.2633 0.993681 -88.90 0.993681 -88.90 0.112167 -2.062
8.99100000 0.112197 4.2788 0.993678 -88.90 0.993678 -88.90 0.112189 -2.086
8.99120000 0.112219 4.2944 0.993676 -88.91 0.993676 -88.91 0.112211 -2.111
8.99140000 0.112241 4.3100 0.993673 -88.91 0.993673 -88.91 0.112233 -2.136
8.99160000 0.112263 4.3257 0.993671 -88.92 0.993671 -88.92 0.112255 -2.161
8.99180000 0.112285 4.3415 0.993668 -88.92 0.993668 -88.92 0.112277 -2.186
8.99200000 0.112308 4.3574 0.993666 -88.93 0.993666 -88.93 0.112299 -2.211
8.99220000 0.112330 4.3733 0.993663 -88.93 0.993663 -88.93 0.112321 -2.236
8.99240000 0.112353 4.3893 0.993660 -88.94 0.993660 -88.94 0.112344 -2.262
8.99260000 0.112375 4.4054 0.993658 -88.94 0.993658 -88.94 0.112366 -2.287
8.99280000 0.112398 4.4216 0.993655 -88.95 0.993655 -88.95 0.112389 -2.313
8.99300000 0.112421 4.4379 0.993653 -88.95 0.993653 -88.95 0.112412 -2.338
8.99320000 0.112443 4.4542 0.993650 -88.95 0.993650 -88.95 0.112435 -2.364
8.99340000 0.112466 4.4706 0.993647 -88.96 0.993647 -88.96 0.112458 -2.390
8.99360000 0.112490 4.4871 0.993645 -88.96 0.993645 -88.96 0.112481 -2.416
8.99380000 0.112513 4.5037 0.993642 -88.97 0.993642 -88.97 0.112504 -2.442
8.99400000 0.112536 4.5203 0.993639 -88.97 0.993639 -88.97 0.112527 -2.468
8.99420000 0.112559 4.5370 0.993637 -88.98 0.993637 -88.98 0.112550 -2.494
8.99440000 0.112583 4.5538 0.993634 -88.98 0.993634 -88.98 0.112574 -2.521
8.99460000 0.112607 4.5707 0.993631 -88.99 0.993631 -88.99 0.112598 -2.547
8.99480000 0.112630 4.5877 0.993629 -88.99 0.993629 -88.99 0.112621 -2.574
8.99500000 0.112654 4.6048 0.993626 -89.00 0.993626 -89.00 0.112645 -2.600
8.99520000 0.112678 4.6219 0.993623 -89.00 0.993623 -89.00 0.112669 -2.627
8.99540000 0.112702 4.6391 0.993620 -89.01 0.993620 -89.01 0.112693 -2.654
8.99560000 0.112726 4.6564 0.993618 -89.01 0.993618 -89.01 0.112717 -2.681
8.99580000 0.112751 4.6738 0.993615 -89.02 0.993615 -89.02 0.112741 -2.708
8.99600000 0.112775 4.6913 0.993612 -89.02 0.993612 -89.02 0.112766 -2.735
8.99620000 0.112800 4.7088 0.993609 -89.03 0.993609 -89.03 0.112790 -2.763
8.99640000 0.112824 4.7265 0.993607 -89.03 0.993607 -89.03 0.112815 -2.790
8.99660000 0.112849 4.7442 0.993604 -89.04 0.993604 -89.04 0.112840 -2.818
8.99680000 0.112874 4.7620 0.993601 -89.04 0.993601 -89.04 0.112864 -2.845
8.99700000 0.112899 4.7799 0.993598 -89.05 0.993598 -89.05 0.112889 -2.873
8.99720000 0.112924 4.7979 0.993595 -89.05 0.993595 -89.05 0.112914 -2.901
8.99740000 0.112949 4.8160 0.993592 -89.06 0.993592 -89.06 0.112940 -2.929
8.99760000 0.112975 4.8342 0.993589 -89.06 0.993589 -89.06 0.112965 -2.957
8.99780000 0.113000 4.8525 0.993586 -89.07 0.993586 -89.07 0.112990 -2.986
8.99800000 0.113026 4.8708 0.993583 -89.07 0.993583 -89.07 0.113016 -3.014
8.99820000 0.113052 4.8893 0.993580 -89.08 0.993580 -89.08 0.113042 -3.043
8.99840000 0.113077 4.9078 0.993578 -89.08 0.993578 -89.08 0.113067 -3.071
8.99860000 0.113103 4.9264 0.993575 -89.09 0.993575 -89.09 0.113093 -3.100
8.99880000 0.113130 4.9452 0.993572 -89.09 0.993572 -89.09 0.113119 -3.129
8.99900000 0.113156 4.9640 0.993569 -89.10 0.993569 -89.10 0.113146 -3.158
8.99920000 0.113182 4.9829 0.993565 -89.10 0.993565 -89.10 0.113172 -3.187
8.99940000 0.113209 5.0019 0.993562 -89.11 0.993562 -89.11 0.113198 -3.216
8.99960000 0.113235 5.0210 0.993559 -89.11 0.993559 -89.11 0.113225 -3.246
8.99980000 0.113262 5.0402 0.993556 -89.12 0.993556 -89.12 0.113252 -3.275
9.00000000 0.113289 5.0595 0.993553 -89.12 0.993553 -89.12 0.113279 -3.305
9.00020000 0.113316 5.0789 0.993550 -89.13 0.993550 -89.13 0.113306 -3.335
9.00040000 0.113343 5.0984 0.993547 -89.13 0.993547 -89.13 0.113333 -3.365
9.00060000 0.113371 5.1180 0.993544 -89.14 0.993544 -89.14 0.113360 -3.395
9.00080000 0.113398 5.1377 0.993541 -89.14 0.993541 -89.14 0.113388 -3.425
9.00100000 0.113426 5.1575 0.993537 -89.15 0.993537 -89.15 0.113415 -3.455
9.00120000 0.113453 5.1774 0.993534 -89.15 0.993534 -89.15 0.113443 -3.485
9.00140000 0.113481 5.1974 0.993531 -89.16 0.993531 -89.16 0.113471 -3.516
9.00160000 0.113509 5.2175 0.993528 -89.16 0.993528 -89.16 0.113499 -3.547
9.00180000 0.113538 5.2377 0.993525 -89.17 0.993525 -89.17 0.113527 -3.578
9.00200000 0.113566 5.2580 0.993521 -89.17 0.993521 -89.17 0.113555 -3.609
9.00220000 0.113594 5.2784 0.993518 -89.18 0.993518 -89.18 0.113584 -3.640
9.00240000 0.113623 5.2989 0.993515 -89.19 0.993515 -89.19 0.113612 -3.671
9.00260000 0.113652 5.3196 0.993511 -89.19 0.993511 -89.19 0.113641 -3.702
9.00280000 0.113681 5.3403 0.993508 -89.20 0.993508 -89.20 0.113670 -3.734
9.00300000 0.113710 5.3611 0.993505 -89.20 0.993505 -89.20 0.113699 -3.766
9.00320000 0.113739 5.3821 0.993501 -89.21 0.993501 -89.21 0.113728 -3.797
9.00340000 0.113769 5.4031 0.993498 -89.21 0.993498 -89.21 0.113757 -3.829
9.00360000 0.113798 5.4243 0.993495 -89.22 0.993495 -89.22 0.113787 -3.862
9.00380000 0.113828 5.4456 0.993491 -89.22 0.993491 -89.22 0.113816 -3.894
9.00400000 0.113858 5.4670 0.993488 -89.23 0.993488 -89.23 0.113846 -3.926
9.00420000 0.113888 5.4885 0.993484 -89.23 0.993484 -89.23 0.113876 -3.959
9.00440000 0.113918 5.5101 0.993481 -89.24 0.993481 -89.24 0.113906 -3.991
9.00460000 0.113948 5.5318 0.993477 -89.25 0.993477 -89.25 0.113937 -4.024
9.00480000 0.113979 5.5536 0.993474 -89.25 0.993474 -89.25 0.113967 -4.057
9.00500000 0.114010 5.5756 0.993470 -89.26 0.993470 -89.26 0.113998 -4.090
9.00520000 0.114041 5.5977 0.993466 -89.26 0.993466 -89.26 0.114029 -4.124
9.00540000 0.114072 5.6199 0.993463 -89.27 0.993463 -89.27 0.114060 -4.157
9.00560000 0.114103 5.6422 0.993459 -89.27 0.993459 -89.27 0.114091 -4.191
9.00580000 0.114134 5.6646 0.993456 -89.28 0.993456 -89.28 0.114122 -4.225
9.00600000 0.114166 5.6871 0.993452 -89.29 0.993452 -89.29 0.114154 -4.259
9.00620000 0.114198 5.7098 0.993448 -89.29 0.993448 -89.29 0.114186 -4.293
9.00640000 0.114230 5.7326 0.993445 -89.30 0.993445 -89.30 0.114217 -4.327
9.00660000 0.114262 5.7555 0.993441 -89.30 0.993441 -89.30 0.114249 -4.361
9.00680000 0.114294 5.7785 0.993437 -89.31 0.993437 -89.31 0.114282 -4.396
9.00700000 0.114327 5.8017 0.993433 -89.31 0.993433 -89.31 0.114314 -4.431
9.00720000 0.114359 5.8250 0.993430 -89.32 0.993430 -89.32 0.114347 -4.466
9.00740000 0.114392 5.8484 0.993426 -89.33 0.993426 -89.33 0.114380 -4.501
9.00760000 0.114425 5.8719 0.993422 -89.33 0.993422 -89.33 0.114413 -4.536
9.00780000 0.114458 5.8956 0.993418 -89.34 0.993418 -89.34 0.114446 -4.572
9.00800000 0.114492 5.9194 0.993414 -89.34 0.993414 -89.34 0.114479 -4.607
9.00820000 0.114526 5.9433 0.993410 -89.35 0.993410 -89.35 0.114513 -4.643
9.00840000 0.114559 5.9673 0.993406 -89.36 0.993406 -89.36 0.114547 -4.679
9.00860000 0.114593 5.9915 0.993402 -89.36 0.993402 -89.36 0.114580 -4.715
9.00880000 0.114628 6.0158 0.993398 -89.37 0.993398 -89.37 0.114615 -4.751
9.00900000 0.114662 6.0403 0.993394 -89.37 0.993394 -89.37 0.114649 -4.788
9.00920000 0.114697 6.0649 0.993390 -89.38 0.993390 -89.38 0.114684 -4.825
9.00940000 0.114732 6.0896 0.993386 -89.39 0.993386 -89.39 0.114718 -4.861
9.00960000 0.114767 6.1144 0.993382 -89.39 0.993382 -89.39 0.114753 -4.898
9.00980000 0.114802 6.1394 0.993378 -89.40 0.993378 -89.40 0.114789 -4.936
9.01000000 0.114838 6.1645 0.993374 -89.40 0.993374 -89.40 0.114824 -4.973
9.01020000 0.114873 6.1898 0.993370 -89.41 0.993370 -89.41 0.114860 -5.011
9.01040000 0.114909 6.2152 0.993365 -89.42 0.993365 -89.42 0.114896 -5.048
9.01060000 0.114945 6.2408 0.993361 -89.42 0.993361 -89.42 0.114932 -5.086
9.01080000 0.114982 6.2665 0.993357 -89.43 0.993357 -89.43 0.114968 -5.124
9.01100000 0.115018 6.2923 0.993353 -89.43 0.993353 -89.43 0.115004 -5.163
9.01120000 0.115055 6.3183 0.993348 -89.44 0.993348 -89.44 0.115041 -5.201
9.01140000 0.115092 6.3444 0.993344 -89.45 0.993344 -89.45 0.115078 -5.240
9.01160000 0.115129 6.3707 0.993340 -89.45 0.993340 -89.45 0.115115 -5.279
9.01180000 0.115167 6.3971 0.993335 -89.46 0.993335 -89.46 0.115153 -5.318
9.01200000 0.115205 6.4237 0.993331 -89.47 0.993331 -89.47 0.115191 -5.357
9.01220000 0.115243 6.4504 0.993326 -89.47 0.993326 -89.47 0.115228 -5.397
9.01240000 0.115281 6.4773 0.993322 -89.48 0.993322 -89.48 0.115267 -5.437
9.01260000 0.115319 6.5043 0.993317 -89.49 0.993317 -89.49 0.115305 -5.477
9.01280000 0.115358 6.5315 0.993313 -89.49 0.993313 -89.49 0.115344 -5.517
9.01300000 0.115397 6.5588 0.993308 -89.50 0.993308 -89.50 0.115383 -5.557
9.01320000 0.115436 6.5863 0.993304 -89.50 0.993304 -89.50 0.115422 -5.598
9.01340000 0.115476 6.6139 0.993299 -89.51 0.993299 -89.51 0.115461 -5.639
9.01360000 0.115516 6.6417 0.993294 -89.52 0.993294 -89.52 0.115501 -5.680
9.01380000 0.115556 6.6697 0.993290 -89.52 0.993290 -89.52 0.115541 -5.721
9.01400000 0.115596 6.6978 0.993285 -89.53 0.993285 -89.53 0.115581 -5.762
9.01420000 0.115636 6.7261 0.993280 -89.54 0.993280 -89.54 0.115621 -5.804
9.01440000 0.115677 6.7546 0.993275 -89.54 0.993275 -89.54 0.115662 -5.846
9.01460000 0.115718 6.7832 0.993271 -89.55 0.993271 -89.55 0.115703 -5.888
9.01480000 0.115760 6.8120 0.993266 -89.56 0.993266 -89.56 0.115744 -5.930
9.01500000 0.115801 6.8409 0.993261 -89.56 0.993261 -89.56 0.115786 -5.973
9.01520000 0.115843 6.8701 0.993256 -89.57 0.993256 -89.57 0.115827 -6.015
9.01540000 0.115885 6.8993 0.993251 -89.58 0.993251 -89.58 0.115870 -6.058
9.01560000 0.115928 6.9288 0.993246 -89.59 0.993246 -89.59 0.115912 -6.102
9.01580000 0.115970 6.9584 0.993241 -89.59 0.993241 -89.59 0.115955 -6.145
9.01600000 0.116014 6.9883 0.993236 -89.60 0.993236 -89.60 0.115998 -6.189
9.01620000 0.116057 7.0182 0.993231 -89.61 0.993231 -89.61 0.116041 -6.233
9.01640000 0.116100 7.0484 0.993226 -89.61 0.993226 -89.61 0.116084 -6.277
9.01660000 0.116144 7.0787 0.993220 -89.62 0.993220 -89.62 0.116128 -6.321
9.01680000 0.116189 7.1093 0.993215 -89.63 0.993215 -89.63 0.116172 -6.366
9.01700000 0.116233 7.1400 0.993210 -89.63 0.993210 -89.63 0.116217 -6.411
9.01720000 0.116278 7.1709 0.993205 -89.64 0.993205 -89.64 0.116261 -6.456
9.01740000 0.116323 7.2019 0.993199 -89.65 0.993199 -89.65 0.116306 -6.501
9.01760000 0.116369 7.2332 0.993194 -89.66 0.993194 -89.66 0.116352 -6.547
9.01780000 0.116414 7.2646 0.993188 -89.66 0.993188 -89.66 0.116398 -6.593
9.01800000 0.116461 7.2963 0.993183 -89.67 0.993183 -89.67 0.116444 -6.639
9.01820000 0.116507 7.3281 0.993178 -89.68 0.993178 -89.68 0.116490 -6.685
9.01840000 0.116554 7.3601 0.993172 -89.68 0.993172 -89.68 0.116537 -6.732
9.01860000 0.116601 7.3923 0.993166 -89.69 0.993166 -89.69 0.116584 -6.779
9.01880000 0.116648 7.4247 0.993161 -89.70 0.993161 -89.70 0.116631 -6.826
9.01900000 0.116696 7.4573 0.993155 -89.71 0.993155 -89.71 0.116679 -6.874
9.01920000 0.116744 7.4902 0.993149 -89.71 0.993149 -89.71 0.116727 -6.921
9.01940000 0.116793 7.5232 0.993144 -89.72 0.993144 -89.72 0.116775 -6.969
9.01960000 0.116842 7.5564 0.993138 -89.73 0.993138 -89.73 0.116824 -7.018
9.01980000 0.116891 7.5898 0.993132 -89.74 0.993132 -89.74 0.116873 -7.066
9.02000000 0.116940 7.6234 0.993126 -89.74 0.993126 -89.74 0.116922 -7.115
9.02020000 0.116990 7.6572 0.993120 -89.75 0.993120 -89.75 0.116972 -7.164
9.02040000 0.117041 7.6912 0.993114 -89.76 0.993114 -89.76 0.117022 -7.214
9.02060000 0.117091 7.7255 0.993108 -89.77 0.993108 -89.77 0.117073 -7.263
9.02080000 0.117142 7.7599 0.993102 -89.78 0.993102 -89.78 0.117124 -7.313
9.02100000 0.117194 7.7946 0.993096 -89.78 0.993096 -89.78 0.117175 -7.364
9.02120000 0.117246 7.8295 0.993090 -89.79 0.993090 -89.79 0.117227 -7.414
9.02140000 0.117298 7.8646 0.993083 -89.80 0.993083 -89.80 0.117279 -7.465
9.02160000 0.117351 7.8999 0.993077 -89.81 0.993077 -89.81 0.117331 -7.516
9.02180000 0.117404 7.9355 0.993071 -89.81 0.993071 -89.81 0.117384 -7.568
9.02200000 0.117457 7.9713 0.993064 -89.82 0.993064 -89.82 0.117438 -7.620
9.02220000 0.117511 8.0073 0.993058 -89.83 0.993058 -89.83 0.117491 -7.672
9.02240000 0.117565 8.0435 0.993051 -89.84 0.993051 -89.84 0.117546 -7.724
9.02260000 0.117620 8.0799 0.993045 -89.85 0.993045 -89.85 0.117600 -7.777
9.02280000 0.117675 8.1166 0.993038 -89.85 0.993038 -89.85 0.117655 -7.830
9.02300000 0.117731 8.1535 0.993032 -89.86 0.993032 -89.86 0.117711 -7.883
9.02320000 0.117786 8.1907 0.993025 -89.87 0.993025 -89.87 0.117766 -7.937
9.02340000 0.117843 8.2281 0.993018 -89.88 0.993018 -89.88 0.117823 -7.991
9.02360000 0.117900 8.2657 0.993011 -89.89 0.993011 -89.89 0.117879 -8.045
9.02380000 0.117957 8.3036 0.993005 -89.90 0.993005 -89.90 0.117937 -8.100
9.02400000 0.118015 8.3417 0.992998 -89.90 0.992998 -89.90 0.117994 -8.155
9.02420000 0.118073 8.3801 0.992991 -89.91 0.992991 -89.91 0.118052 -8.210
9.02440000 0.118132 8.4187 0.992984 -89.92 0.992984 -89.92 0.118111 -8.266
9.02460000 0.118191 8.4576 0.992976 -89.93 0.992976 -89.93 0.118170 -8.322
9.02480000 0.118251 8.4967 0.992969 -89.94 0.992969 -89.94 0.118230 -8.378
9.02500000 0.118311 8.5361 0.992962 -89.95 0.992962 -89.95 0.118290 -8.435
9.02520000 0.118372 8.5757 0.992955 -89.96 0.992955 -89.96 0.118350 -8.492
9.02540000 0.118433 8.6156 0.992947 -89.96 0.992947 -89.96 0.118411 -8.550
9.02560000 0.118495 8.6557 0.992940 -89.97 0.992940 -89.97 0.118473 -8.607
9.02580000 0.118557 8.6961 0.992932 -89.98 0.992932 -89.98 0.118535 -8.665
9.02600000 0.118619 8.7368 0.992925 -89.99 0.992925 -89.99 0.118597 -8.724
9.02620000 0.118683 8.7778 0.992917 -90.00 0.992917 -90.00 0.118660 -8.783
9.02640000 0.118747 8.8190 0.992909 -90.01 0.992909 -90.01 0.118724 -8.842
9.02660000 0.118811 8.8605 0.992902 -90.02 0.992902 -90.02 0.118788 -8.902
9.02680000 0.118876 8.9023 0.992894 -90.03 0.992894 -90.03 0.118853 -8.962
9.02700000 0.118941 8.9444 0.992886 -90.04 0.992886 -90.04 0.118918 -9.022
9.02720000 0.119007 8.9867 0.992878 -90.05 0.992878 -90.05 0.118984 -9.083
9.02740000 0.119074 9.0293 0.992870 -90.06 0.992870 -90.06 0.119050 -9.144
9.02760000 0.119141 9.0722 0.992862 -90.06 0.992862 -90.06 0.119117 -9.206
9.02780000 0.119209 9.1154 0.992853 -90.07 0.992853 -90.07 0.119185 -9.268
9.02800000 0.119277 9.1589 0.992845 -90.08 0.992845 -90.08 0.119253 -9.330