! Sonnet Data File
! From: emgraph Version : 16.52
! From Project: Resonator2_cp_cp
! Data is De-embedded 
! Data File Written: 10/06/2017 09:20:31
!< HDATE 10/05/2017 21:11:40
!< MDATE 10/05/2017 21:11:40
!< PARAMS
!< gap = 66.0
!< Length = 400.0
!< Pwid1 = 2000.0
!< Pwid2 = 2000.0
!< END PARAMS
# GHZ S MA R 51.80000
8.80000000 3.792e-5 -14.25 0.999997 -80.50 0.999997 -80.50 3.997e-5 39.225
!< P1 F=8.8 Eeff=(6.44679989 -2.9721e-5) Z0=(51.7992624 1.19519e-4) R=0.0 C=0.0 
!< P2 F=8.8 Eeff=(6.44679989 -2.9721e-5) Z0=(51.7992624 1.19519e-4) R=0.0 C=0.0 
8.80020000 3.794e-5 -14.26 0.999997 -80.50 0.999997 -80.50 3.999e-5 39.237
8.80040000 3.796e-5 -14.28 0.999997 -80.50 0.999997 -80.50 4.001e-5 39.248
8.80060000 3.797e-5 -14.30 0.999997 -80.50 0.999997 -80.50 4.002e-5 39.260
8.80080000 3.799e-5 -14.32 0.999997 -80.50 0.999997 -80.50 4.004e-5 39.271
8.80100000 3.801e-5 -14.34 0.999997 -80.51 0.999997 -80.51 4.006e-5 39.283
8.80120000 3.802e-5 -14.36 0.999997 -80.51 0.999997 -80.51 4.008e-5 39.294
8.80140000 3.804e-5 -14.37 0.999997 -80.51 0.999997 -80.51 4.009e-5 39.305
8.80160000 3.806e-5 -14.39 0.999997 -80.51 0.999997 -80.51 4.011e-5 39.317
8.80180000 3.808e-5 -14.41 0.999997 -80.51 0.999997 -80.51 4.013e-5 39.328
8.80200000 3.810e-5 -14.43 0.999997 -80.51 0.999997 -80.51 4.015e-5 39.339
8.80220000 3.811e-5 -14.45 0.999997 -80.52 0.999997 -80.52 4.017e-5 39.350
8.80240000 3.813e-5 -14.47 0.999997 -80.52 0.999997 -80.52 4.019e-5 39.361
8.80260000 3.815e-5 -14.48 0.999997 -80.52 0.999997 -80.52 4.020e-5 39.372
8.80280000 3.817e-5 -14.50 0.999997 -80.52 0.999997 -80.52 4.022e-5 39.383
8.80300000 3.819e-5 -14.52 0.999997 -80.52 0.999997 -80.52 4.024e-5 39.394
8.80320000 3.821e-5 -14.54 0.999997 -80.53 0.999997 -80.53 4.026e-5 39.405
8.80340000 3.823e-5 -14.56 0.999997 -80.53 0.999997 -80.53 4.028e-5 39.416
8.80360000 3.824e-5 -14.57 0.999997 -80.53 0.999997 -80.53 4.030e-5 39.426
8.80380000 3.826e-5 -14.59 0.999997 -80.53 0.999997 -80.53 4.032e-5 39.437
8.80400000 3.828e-5 -14.61 0.999997 -80.53 0.999997 -80.53 4.034e-5 39.448
8.80420000 3.830e-5 -14.63 0.999997 -80.53 0.999997 -80.53 4.036e-5 39.458
8.80440000 3.832e-5 -14.65 0.999997 -80.54 0.999997 -80.54 4.038e-5 39.469
8.80460000 3.834e-5 -14.66 0.999997 -80.54 0.999997 -80.54 4.040e-5 39.479
8.80480000 3.836e-5 -14.68 0.999997 -80.54 0.999997 -80.54 4.042e-5 39.490
8.80500000 3.838e-5 -14.70 0.999997 -80.54 0.999997 -80.54 4.045e-5 39.500
8.80520000 3.840e-5 -14.72 0.999997 -80.54 0.999997 -80.54 4.047e-5 39.510
8.80540000 3.843e-5 -14.73 0.999997 -80.55 0.999997 -80.55 4.049e-5 39.521
8.80560000 3.845e-5 -14.75 0.999997 -80.55 0.999997 -80.55 4.051e-5 39.531
8.80580000 3.847e-5 -14.77 0.999997 -80.55 0.999997 -80.55 4.053e-5 39.541
8.80600000 3.849e-5 -14.79 0.999997 -80.55 0.999997 -80.55 4.055e-5 39.551
8.80620000 3.851e-5 -14.80 0.999997 -80.55 0.999997 -80.55 4.057e-5 39.561
8.80640000 3.853e-5 -14.82 0.999997 -80.55 0.999997 -80.55 4.060e-5 39.571
8.80660000 3.855e-5 -14.84 0.999997 -80.56 0.999997 -80.56 4.062e-5 39.581
8.80680000 3.858e-5 -14.86 0.999997 -80.56 0.999997 -80.56 4.064e-5 39.591
8.80700000 3.860e-5 -14.87 0.999997 -80.56 0.999997 -80.56 4.066e-5 39.600
8.80720000 3.862e-5 -14.89 0.999997 -80.56 0.999997 -80.56 4.069e-5 39.610
8.80740000 3.864e-5 -14.91 0.999997 -80.56 0.999997 -80.56 4.071e-5 39.620
8.80760000 3.867e-5 -14.93 0.999997 -80.57 0.999997 -80.57 4.073e-5 39.629
8.80780000 3.869e-5 -14.94 0.999997 -80.57 0.999997 -80.57 4.076e-5 39.639
8.80800000 3.871e-5 -14.96 0.999997 -80.57 0.999997 -80.57 4.078e-5 39.649
8.80820000 3.874e-5 -14.98 0.999997 -80.57 0.999997 -80.57 4.080e-5 39.658
8.80840000 3.876e-5 -14.99 0.999997 -80.57 0.999997 -80.57 4.083e-5 39.667
8.80860000 3.878e-5 -15.01 0.999997 -80.57 0.999997 -80.57 4.085e-5 39.677
8.80880000 3.881e-5 -15.03 0.999997 -80.58 0.999997 -80.58 4.088e-5 39.686
8.80900000 3.883e-5 -15.04 0.999997 -80.58 0.999997 -80.58 4.090e-5 39.695
8.80920000 3.885e-5 -15.06 0.999997 -80.58 0.999997 -80.58 4.093e-5 39.704
8.80940000 3.888e-5 -15.08 0.999997 -80.58 0.999997 -80.58 4.095e-5 39.713
8.80960000 3.890e-5 -15.10 0.999997 -80.58 0.999997 -80.58 4.098e-5 39.722
8.80980000 3.893e-5 -15.11 0.999997 -80.59 0.999997 -80.59 4.100e-5 39.731
8.81000000 3.895e-5 -15.13 0.999997 -80.59 0.999997 -80.59 4.103e-5 39.740
8.81020000 3.898e-5 -15.15 0.999997 -80.59 0.999997 -80.59 4.105e-5 39.749
8.81040000 3.900e-5 -15.16 0.999997 -80.59 0.999997 -80.59 4.108e-5 39.758
8.81060000 3.903e-5 -15.18 0.999997 -80.59 0.999997 -80.59 4.110e-5 39.767
8.81080000 3.906e-5 -15.20 0.999997 -80.59 0.999997 -80.59 4.113e-5 39.775
8.81100000 3.908e-5 -15.21 0.999997 -80.60 0.999997 -80.60 4.116e-5 39.784
8.81120000 3.911e-5 -15.23 0.999997 -80.60 0.999997 -80.60 4.118e-5 39.792
8.81140000 3.913e-5 -15.25 0.999997 -80.60 0.999997 -80.60 4.121e-5 39.801
8.81160000 3.916e-5 -15.26 0.999997 -80.60 0.999997 -80.60 4.124e-5 39.809
8.81180000 3.919e-5 -15.28 0.999997 -80.60 0.999997 -80.60 4.126e-5 39.818
8.81200000 3.921e-5 -15.29 0.999997 -80.61 0.999997 -80.61 4.129e-5 39.826
8.81220000 3.924e-5 -15.31 0.999997 -80.61 0.999997 -80.61 4.132e-5 39.834
8.81240000 3.927e-5 -15.33 0.999997 -80.61 0.999997 -80.61 4.135e-5 39.842
8.81260000 3.930e-5 -15.34 0.999997 -80.61 0.999997 -80.61 4.138e-5 39.851
8.81280000 3.932e-5 -15.36 0.999997 -80.61 0.999997 -80.61 4.140e-5 39.859
8.81300000 3.935e-5 -15.38 0.999997 -80.61 0.999997 -80.61 4.143e-5 39.867
8.81320000 3.938e-5 -15.39 0.999997 -80.62 0.999997 -80.62 4.146e-5 39.875
8.81340000 3.941e-5 -15.41 0.999997 -80.62 0.999997 -80.62 4.149e-5 39.882
8.81360000 3.944e-5 -15.42 0.999997 -80.62 0.999997 -80.62 4.152e-5 39.890
8.81380000 3.947e-5 -15.44 0.999997 -80.62 0.999997 -80.62 4.155e-5 39.898
8.81400000 3.950e-5 -15.46 0.999997 -80.62 0.999997 -80.62 4.158e-5 39.906
8.81420000 3.952e-5 -15.47 0.999997 -80.63 0.999997 -80.63 4.161e-5 39.913
8.81440000 3.955e-5 -15.49 0.999997 -80.63 0.999997 -80.63 4.164e-5 39.921
8.81460000 3.958e-5 -15.50 0.999997 -80.63 0.999997 -80.63 4.167e-5 39.928
8.81480000 3.961e-5 -15.52 0.999997 -80.63 0.999997 -80.63 4.170e-5 39.936
8.81500000 3.964e-5 -15.54 0.999997 -80.63 0.999997 -80.63 4.173e-5 39.943
8.81520000 3.967e-5 -15.55 0.999997 -80.64 0.999997 -80.64 4.176e-5 39.951
8.81540000 3.970e-5 -15.57 0.999997 -80.64 0.999997 -80.64 4.179e-5 39.958
8.81560000 3.974e-5 -15.58 0.999997 -80.64 0.999997 -80.64 4.182e-5 39.965
8.81580000 3.977e-5 -15.60 0.999997 -80.64 0.999997 -80.64 4.185e-5 39.972
8.81600000 3.980e-5 -15.61 0.999997 -80.64 0.999997 -80.64 4.188e-5 39.979
8.81620000 3.983e-5 -15.63 0.999997 -80.64 0.999997 -80.64 4.191e-5 39.986
8.81640000 3.986e-5 -15.64 0.999997 -80.65 0.999997 -80.65 4.195e-5 39.993
8.81660000 3.989e-5 -15.66 0.999997 -80.65 0.999997 -80.65 4.198e-5 40.000
8.81680000 3.992e-5 -15.68 0.999997 -80.65 0.999997 -80.65 4.201e-5 40.007
8.81700000 3.996e-5 -15.69 0.999997 -80.65 0.999997 -80.65 4.204e-5 40.014
8.81720000 3.999e-5 -15.71 0.999997 -80.65 0.999997 -80.65 4.208e-5 40.020
8.81740000 4.002e-5 -15.72 0.999997 -80.66 0.999997 -80.66 4.211e-5 40.027
8.81760000 4.005e-5 -15.74 0.999997 -80.66 0.999997 -80.66 4.214e-5 40.033
8.81780000 4.009e-5 -15.75 0.999997 -80.66 0.999997 -80.66 4.218e-5 40.040
8.81800000 4.012e-5 -15.77 0.999997 -80.66 0.999997 -80.66 4.221e-5 40.046
8.81820000 4.015e-5 -15.78 0.999997 -80.66 0.999997 -80.66 4.224e-5 40.053
8.81840000 4.019e-5 -15.80 0.999997 -80.66 0.999997 -80.66 4.228e-5 40.059
8.81860000 4.022e-5 -15.81 0.999997 -80.67 0.999997 -80.67 4.231e-5 40.065
8.81880000 4.026e-5 -15.83 0.999997 -80.67 0.999997 -80.67 4.235e-5 40.071
8.81900000 4.029e-5 -15.84 0.999997 -80.67 0.999997 -80.67 4.238e-5 40.077
8.81920000 4.033e-5 -15.86 0.999997 -80.67 0.999997 -80.67 4.242e-5 40.083
8.81940000 4.036e-5 -15.87 0.999997 -80.67 0.999997 -80.67 4.245e-5 40.089
8.81960000 4.040e-5 -15.89 0.999997 -80.68 0.999997 -80.68 4.249e-5 40.095
8.81980000 4.043e-5 -15.90 0.999997 -80.68 0.999997 -80.68 4.252e-5 40.101
8.82000000 4.047e-5 -15.92 0.999997 -80.68 0.999997 -80.68 4.256e-5 40.107
8.82020000 4.050e-5 -15.93 0.999997 -80.68 0.999997 -80.68 4.260e-5 40.113
8.82040000 4.054e-5 -15.94 0.999997 -80.68 0.999997 -80.68 4.263e-5 40.118
8.82060000 4.058e-5 -15.96 0.999997 -80.68 0.999997 -80.68 4.267e-5 40.124
8.82080000 4.061e-5 -15.97 0.999997 -80.69 0.999997 -80.69 4.271e-5 40.129
8.82100000 4.065e-5 -15.99 0.999997 -80.69 0.999997 -80.69 4.274e-5 40.135
8.82120000 4.069e-5 -16.00 0.999997 -80.69 0.999997 -80.69 4.278e-5 40.140
8.82140000 4.072e-5 -16.02 0.999997 -80.69 0.999997 -80.69 4.282e-5 40.145
8.82160000 4.076e-5 -16.03 0.999997 -80.69 0.999997 -80.69 4.286e-5 40.151
8.82180000 4.080e-5 -16.05 0.999997 -80.70 0.999997 -80.70 4.290e-5 40.156
8.82200000 4.084e-5 -16.06 0.999997 -80.70 0.999997 -80.70 4.293e-5 40.161
8.82220000 4.088e-5 -16.07 0.999997 -80.70 0.999997 -80.70 4.297e-5 40.166
8.82240000 4.092e-5 -16.09 0.999997 -80.70 0.999997 -80.70 4.301e-5 40.171
8.82260000 4.095e-5 -16.10 0.999997 -80.70 0.999997 -80.70 4.305e-5 40.176
8.82280000 4.099e-5 -16.12 0.999997 -80.70 0.999997 -80.70 4.309e-5 40.181
8.82300000 4.103e-5 -16.13 0.999997 -80.71 0.999997 -80.71 4.313e-5 40.185
8.82320000 4.107e-5 -16.14 0.999997 -80.71 0.999997 -80.71 4.317e-5 40.190
8.82340000 4.111e-5 -16.16 0.999997 -80.71 0.999997 -80.71 4.321e-5 40.195
8.82360000 4.115e-5 -16.17 0.999997 -80.71 0.999997 -80.71 4.325e-5 40.199
8.82380000 4.119e-5 -16.19 0.999997 -80.71 0.999997 -80.71 4.329e-5 40.204
8.82400000 4.123e-5 -16.20 0.999997 -80.72 0.999997 -80.72 4.333e-5 40.208
8.82420000 4.128e-5 -16.21 0.999997 -80.72 0.999997 -80.72 4.337e-5 40.213
8.82440000 4.132e-5 -16.23 0.999997 -80.72 0.999997 -80.72 4.342e-5 40.217
8.82460000 4.136e-5 -16.24 0.999997 -80.72 0.999997 -80.72 4.346e-5 40.221
8.82480000 4.140e-5 -16.25 0.999997 -80.72 0.999997 -80.72 4.350e-5 40.225
8.82500000 4.144e-5 -16.27 0.999997 -80.72 0.999997 -80.72 4.354e-5 40.229
8.82520000 4.149e-5 -16.28 0.999997 -80.73 0.999997 -80.73 4.359e-5 40.233
8.82540000 4.153e-5 -16.29 0.999997 -80.73 0.999997 -80.73 4.363e-5 40.237
8.82560000 4.157e-5 -16.31 0.999997 -80.73 0.999997 -80.73 4.367e-5 40.241
8.82580000 4.161e-5 -16.32 0.999997 -80.73 0.999997 -80.73 4.372e-5 40.245
8.82600000 4.166e-5 -16.33 0.999997 -80.73 0.999997 -80.73 4.376e-5 40.249
8.82620000 4.170e-5 -16.35 0.999997 -80.74 0.999997 -80.74 4.380e-5 40.252
8.82640000 4.175e-5 -16.36 0.999997 -80.74 0.999997 -80.74 4.385e-5 40.256
8.82660000 4.179e-5 -16.37 0.999997 -80.74 0.999997 -80.74 4.389e-5 40.260
8.82680000 4.183e-5 -16.39 0.999997 -80.74 0.999997 -80.74 4.394e-5 40.263
8.82700000 4.188e-5 -16.40 0.999997 -80.74 0.999997 -80.74 4.398e-5 40.266
8.82720000 4.193e-5 -16.41 0.999997 -80.74 0.999997 -80.74 4.403e-5 40.270
8.82740000 4.197e-5 -16.43 0.999997 -80.75 0.999997 -80.75 4.407e-5 40.273
8.82760000 4.202e-5 -16.44 0.999997 -80.75 0.999997 -80.75 4.412e-5 40.276
8.82780000 4.206e-5 -16.45 0.999997 -80.75 0.999997 -80.75 4.417e-5 40.279
8.82800000 4.211e-5 -16.46 0.999997 -80.75 0.999997 -80.75 4.421e-5 40.282
8.82820000 4.216e-5 -16.48 0.999997 -80.75 0.999997 -80.75 4.426e-5 40.285
8.82840000 4.220e-5 -16.49 0.999997 -80.76 0.999997 -80.76 4.431e-5 40.288
8.82860000 4.225e-5 -16.50 0.999997 -80.76 0.999997 -80.76 4.436e-5 40.291
8.82880000 4.230e-5 -16.52 0.999997 -80.76 0.999997 -80.76 4.440e-5 40.294
8.82900000 4.235e-5 -16.53 0.999997 -80.76 0.999997 -80.76 4.445e-5 40.296
8.82920000 4.239e-5 -16.54 0.999997 -80.76 0.999997 -80.76 4.450e-5 40.299
8.82940000 4.244e-5 -16.55 0.999997 -80.77 0.999997 -80.77 4.455e-5 40.302
8.82960000 4.249e-5 -16.57 0.999997 -80.77 0.999997 -80.77 4.460e-5 40.304
8.82980000 4.254e-5 -16.58 0.999997 -80.77 0.999997 -80.77 4.465e-5 40.307
8.83000000 4.259e-5 -16.59 0.999997 -80.77 0.999997 -80.77 4.470e-5 40.309
8.83020000 4.264e-5 -16.60 0.999997 -80.77 0.999997 -80.77 4.475e-5 40.311
8.83040000 4.269e-5 -16.61 0.999997 -80.77 0.999997 -80.77 4.480e-5 40.313
8.83060000 4.274e-5 -16.63 0.999997 -80.78 0.999997 -80.78 4.485e-5 40.315
8.83080000 4.279e-5 -16.64 0.999997 -80.78 0.999997 -80.78 4.490e-5 40.318
8.83100000 4.284e-5 -16.65 0.999997 -80.78 0.999997 -80.78 4.495e-5 40.319
8.83120000 4.289e-5 -16.66 0.999997 -80.78 0.999997 -80.78 4.500e-5 40.321
8.83140000 4.295e-5 -16.67 0.999997 -80.78 0.999997 -80.78 4.505e-5 40.323
8.83160000 4.300e-5 -16.69 0.999997 -80.79 0.999997 -80.79 4.511e-5 40.325
8.83180000 4.305e-5 -16.70 0.999997 -80.79 0.999997 -80.79 4.516e-5 40.327
8.83200000 4.310e-5 -16.71 0.999997 -80.79 0.999997 -80.79 4.521e-5 40.328
8.83220000 4.316e-5 -16.72 0.999997 -80.79 0.999997 -80.79 4.527e-5 40.330
8.83240000 4.321e-5 -16.73 0.999997 -80.79 0.999997 -80.79 4.532e-5 40.331
8.83260000 4.326e-5 -16.75 0.999997 -80.79 0.999997 -80.79 4.537e-5 40.333
8.83280000 4.332e-5 -16.76 0.999997 -80.80 0.999997 -80.80 4.543e-5 40.334
8.83300000 4.337e-5 -16.77 0.999997 -80.80 0.999997 -80.80 4.548e-5 40.335
8.83320000 4.343e-5 -16.78 0.999997 -80.80 0.999997 -80.80 4.554e-5 40.337
8.83340000 4.348e-5 -16.79 0.999997 -80.80 0.999997 -80.80 4.559e-5 40.338
8.83360000 4.354e-5 -16.80 0.999997 -80.80 0.999997 -80.80 4.565e-5 40.339
8.83380000 4.359e-5 -16.81 0.999997 -80.81 0.999997 -80.81 4.570e-5 40.340
8.83400000 4.365e-5 -16.83 0.999997 -80.81 0.999997 -80.81 4.576e-5 40.341
8.83420000 4.371e-5 -16.84 0.999997 -80.81 0.999997 -80.81 4.582e-5 40.341
8.83440000 4.376e-5 -16.85 0.999997 -80.81 0.999997 -80.81 4.587e-5 40.342
8.83460000 4.382e-5 -16.86 0.999997 -80.81 0.999997 -80.81 4.593e-5 40.343
8.83480000 4.388e-5 -16.87 0.999997 -80.81 0.999997 -80.81 4.599e-5 40.343
8.83500000 4.394e-5 -16.88 0.999997 -80.82 0.999997 -80.82 4.605e-5 40.344
8.83520000 4.399e-5 -16.89 0.999997 -80.82 0.999997 -80.82 4.611e-5 40.344
8.83540000 4.405e-5 -16.90 0.999997 -80.82 0.999997 -80.82 4.616e-5 40.345
8.83560000 4.411e-5 -16.91 0.999997 -80.82 0.999997 -80.82 4.622e-5 40.345
8.83580000 4.417e-5 -16.93 0.999997 -80.82 0.999997 -80.82 4.628e-5 40.345
8.83600000 4.423e-5 -16.94 0.999997 -80.83 0.999997 -80.83 4.634e-5 40.345
8.83620000 4.429e-5 -16.95 0.999997 -80.83 0.999997 -80.83 4.640e-5 40.346
8.83640000 4.435e-5 -16.96 0.999997 -80.83 0.999997 -80.83 4.646e-5 40.346
8.83660000 4.441e-5 -16.97 0.999997 -80.83 0.999997 -80.83 4.653e-5 40.346
8.83680000 4.447e-5 -16.98 0.999997 -80.83 0.999997 -80.83 4.659e-5 40.345
8.83700000 4.454e-5 -16.99 0.999997 -80.83 0.999997 -80.83 4.665e-5 40.345
8.83720000 4.460e-5 -17.00 0.999997 -80.84 0.999997 -80.84 4.671e-5 40.345
8.83740000 4.466e-5 -17.01 0.999997 -80.84 0.999997 -80.84 4.677e-5 40.345
8.83760000 4.472e-5 -17.02 0.999997 -80.84 0.999997 -80.84 4.684e-5 40.344
8.83780000 4.479e-5 -17.03 0.999997 -80.84 0.999997 -80.84 4.690e-5 40.344
8.83800000 4.485e-5 -17.04 0.999997 -80.84 0.999997 -80.84 4.696e-5 40.343
8.83820000 4.492e-5 -17.05 0.999997 -80.85 0.999997 -80.85 4.703e-5 40.342
8.83840000 4.498e-5 -17.06 0.999997 -80.85 0.999997 -80.85 4.709e-5 40.342
8.83860000 4.504e-5 -17.07 0.999997 -80.85 0.999997 -80.85 4.716e-5 40.341
8.83880000 4.511e-5 -17.08 0.999997 -80.85 0.999997 -80.85 4.722e-5 40.340
8.83900000 4.518e-5 -17.09 0.999997 -80.85 0.999997 -80.85 4.729e-5 40.339
8.83920000 4.524e-5 -17.10 0.999997 -80.85 0.999997 -80.85 4.736e-5 40.338
8.83940000 4.531e-5 -17.11 0.999997 -80.86 0.999997 -80.86 4.742e-5 40.337
8.83960000 4.538e-5 -17.12 0.999997 -80.86 0.999997 -80.86 4.749e-5 40.336
8.83980000 4.544e-5 -17.13 0.999997 -80.86 0.999997 -80.86 4.756e-5 40.335
8.84000000 4.551e-5 -17.14 0.999997 -80.86 0.999997 -80.86 4.763e-5 40.333
8.84020000 4.558e-5 -17.15 0.999997 -80.86 0.999997 -80.86 4.769e-5 40.332
8.84040000 4.565e-5 -17.16 0.999997 -80.87 0.999997 -80.87 4.776e-5 40.330
8.84060000 4.572e-5 -17.17 0.999997 -80.87 0.999997 -80.87 4.783e-5 40.329
8.84080000 4.579e-5 -17.18 0.999997 -80.87 0.999997 -80.87 4.790e-5 40.327
8.84100000 4.586e-5 -17.19 0.999997 -80.87 0.999997 -80.87 4.797e-5 40.326
8.84120000 4.593e-5 -17.20 0.999997 -80.87 0.999997 -80.87 4.804e-5 40.324
8.84140000 4.600e-5 -17.21 0.999997 -80.88 0.999997 -80.88 4.811e-5 40.322
8.84160000 4.607e-5 -17.22 0.999997 -80.88 0.999997 -80.88 4.818e-5 40.320
8.84180000 4.614e-5 -17.23 0.999997 -80.88 0.999997 -80.88 4.826e-5 40.318
8.84200000 4.621e-5 -17.24 0.999997 -80.88 0.999997 -80.88 4.833e-5 40.316
8.84220000 4.629e-5 -17.25 0.999997 -80.88 0.999997 -80.88 4.840e-5 40.314
8.84240000 4.636e-5 -17.25 0.999997 -80.88 0.999997 -80.88 4.848e-5 40.312
8.84260000 4.643e-5 -17.26 0.999997 -80.89 0.999997 -80.89 4.855e-5 40.309
8.84280000 4.651e-5 -17.27 0.999997 -80.89 0.999997 -80.89 4.862e-5 40.307
8.84300000 4.658e-5 -17.28 0.999997 -80.89 0.999997 -80.89 4.870e-5 40.305
8.84320000 4.666e-5 -17.29 0.999997 -80.89 0.999997 -80.89 4.877e-5 40.302
8.84340000 4.673e-5 -17.30 0.999997 -80.89 0.999997 -80.89 4.885e-5 40.299
8.84360000 4.681e-5 -17.31 0.999997 -80.90 0.999997 -80.90 4.893e-5 40.297
8.84380000 4.689e-5 -17.32 0.999997 -80.90 0.999997 -80.90 4.900e-5 40.294
8.84400000 4.696e-5 -17.33 0.999997 -80.90 0.999997 -80.90 4.908e-5 40.291
8.84420000 4.704e-5 -17.33 0.999997 -80.90 0.999997 -80.90 4.916e-5 40.288
8.84440000 4.712e-5 -17.34 0.999997 -80.90 0.999997 -80.90 4.923e-5 40.285
8.84460000 4.720e-5 -17.35 0.999997 -80.90 0.999997 -80.90 4.931e-5 40.282
8.84480000 4.728e-5 -17.36 0.999997 -80.91 0.999997 -80.91 4.939e-5 40.279
8.84500000 4.736e-5 -17.37 0.999997 -80.91 0.999997 -80.91 4.947e-5 40.276
8.84520000 4.744e-5 -17.38 0.999997 -80.91 0.999997 -80.91 4.955e-5 40.273
8.84540000 4.752e-5 -17.38 0.999997 -80.91 0.999997 -80.91 4.963e-5 40.269
8.84560000 4.760e-5 -17.39 0.999997 -80.91 0.999997 -80.91 4.971e-5 40.266
8.84580000 4.768e-5 -17.40 0.999997 -80.92 0.999997 -80.92 4.980e-5 40.262
8.84600000 4.776e-5 -17.41 0.999997 -80.92 0.999997 -80.92 4.988e-5 40.259
8.84620000 4.784e-5 -17.42 0.999997 -80.92 0.999997 -80.92 4.996e-5 40.255
8.84640000 4.793e-5 -17.43 0.999997 -80.92 0.999997 -80.92 5.004e-5 40.251
8.84660000 4.801e-5 -17.43 0.999997 -80.92 0.999997 -80.92 5.013e-5 40.248
8.84680000 4.810e-5 -17.44 0.999997 -80.92 0.999997 -80.92 5.021e-5 40.244
8.84700000 4.818e-5 -17.45 0.999997 -80.93 0.999997 -80.93 5.030e-5 40.240
8.84720000 4.827e-5 -17.46 0.999997 -80.93 0.999997 -80.93 5.038e-5 40.236
8.84740000 4.835e-5 -17.47 0.999997 -80.93 0.999997 -80.93 5.047e-5 40.232
8.84760000 4.844e-5 -17.47 0.999997 -80.93 0.999997 -80.93 5.055e-5 40.227
8.84780000 4.853e-5 -17.48 0.999997 -80.93 0.999997 -80.93 5.064e-5 40.223
8.84800000 4.861e-5 -17.49 0.999997 -80.94 0.999997 -80.94 5.073e-5 40.219
8.84820000 4.870e-5 -17.50 0.999997 -80.94 0.999997 -80.94 5.082e-5 40.214
8.84840000 4.879e-5 -17.50 0.999997 -80.94 0.999997 -80.94 5.091e-5 40.210
8.84860000 4.888e-5 -17.51 0.999997 -80.94 0.999997 -80.94 5.100e-5 40.205
8.84880000 4.897e-5 -17.52 0.999997 -80.94 0.999997 -80.94 5.109e-5 40.201
8.84900000 4.906e-5 -17.53 0.999997 -80.94 0.999997 -80.94 5.118e-5 40.196
8.84920000 4.915e-5 -17.53 0.999997 -80.95 0.999997 -80.95 5.127e-5 40.191
8.84940000 4.924e-5 -17.54 0.999997 -80.95 0.999997 -80.95 5.136e-5 40.186
8.84960000 4.934e-5 -17.55 0.999997 -80.95 0.999997 -80.95 5.145e-5 40.181
8.84980000 4.943e-5 -17.55 0.999997 -80.95 0.999997 -80.95 5.154e-5 40.176
8.85000000 4.952e-5 -17.56 0.999997 -80.95 0.999997 -80.95 5.164e-5 40.171
8.85020000 4.962e-5 -17.57 0.999997 -80.96 0.999997 -80.96 5.173e-5 40.166
8.85040000 4.971e-5 -17.58 0.999997 -80.96 0.999997 -80.96 5.183e-5 40.161
8.85060000 4.981e-5 -17.58 0.999997 -80.96 0.999997 -80.96 5.192e-5 40.156
8.85080000 4.990e-5 -17.59 0.999997 -80.96 0.999997 -80.96 5.202e-5 40.150
8.85100000 5.000e-5 -17.60 0.999997 -80.96 0.999997 -80.96 5.211e-5 40.145
8.85120000 5.010e-5 -17.60 0.999997 -80.96 0.999997 -80.96 5.221e-5 40.139
8.85140000 5.020e-5 -17.61 0.999997 -80.97 0.999997 -80.97 5.231e-5 40.133
8.85160000 5.029e-5 -17.62 0.999997 -80.97 0.999997 -80.97 5.241e-5 40.128
8.85180000 5.039e-5 -17.62 0.999997 -80.97 0.999997 -80.97 5.251e-5 40.122
8.85200000 5.049e-5 -17.63 0.999997 -80.97 0.999997 -80.97 5.261e-5 40.116
8.85220000 5.059e-5 -17.64 0.999997 -80.97 0.999997 -80.97 5.271e-5 40.110
8.85240000 5.070e-5 -17.64 0.999997 -80.98 0.999997 -80.98 5.281e-5 40.104
8.85260000 5.080e-5 -17.65 0.999997 -80.98 0.999997 -80.98 5.291e-5 40.098
8.85280000 5.090e-5 -17.66 0.999997 -80.98 0.999997 -80.98 5.301e-5 40.092
8.85300000 5.100e-5 -17.66 0.999997 -80.98 0.999997 -80.98 5.312e-5 40.086
8.85320000 5.111e-5 -17.67 0.999997 -80.98 0.999997 -80.98 5.322e-5 40.079
8.85340000 5.121e-5 -17.67 0.999997 -80.99 0.999997 -80.99 5.333e-5 40.073
8.85360000 5.132e-5 -17.68 0.999997 -80.99 0.999997 -80.99 5.343e-5 40.066
8.85380000 5.142e-5 -17.69 0.999997 -80.99 0.999997 -80.99 5.354e-5 40.060
8.85400000 5.153e-5 -17.69 0.999997 -80.99 0.999997 -80.99 5.364e-5 40.053
8.85420000 5.164e-5 -17.70 0.999997 -80.99 0.999997 -80.99 5.375e-5 40.047
8.85440000 5.175e-5 -17.70 0.999997 -80.99 0.999997 -80.99 5.386e-5 40.040
8.85460000 5.186e-5 -17.71 0.999997 -81.00 0.999997 -81.00 5.397e-5 40.033
8.85480000 5.197e-5 -17.72 0.999997 -81.00 0.999997 -81.00 5.408e-5 40.026
8.85500000 5.208e-5 -17.72 0.999997 -81.00 0.999997 -81.00 5.419e-5 40.019
8.85520000 5.219e-5 -17.73 0.999997 -81.00 0.999997 -81.00 5.430e-5 40.012
8.85540000 5.230e-5 -17.73 0.999997 -81.00 0.999997 -81.00 5.441e-5 40.005
8.85560000 5.241e-5 -17.74 0.999997 -81.01 0.999997 -81.01 5.452e-5 39.998
8.85580000 5.253e-5 -17.74 0.999997 -81.01 0.999997 -81.01 5.464e-5 39.990
8.85600000 5.264e-5 -17.75 0.999997 -81.01 0.999997 -81.01 5.475e-5 39.983
8.85620000 5.276e-5 -17.75 0.999997 -81.01 0.999997 -81.01 5.487e-5 39.975
8.85640000 5.287e-5 -17.76 0.999997 -81.01 0.999997 -81.01 5.498e-5 39.968
8.85660000 5.299e-5 -17.77 0.999997 -81.01 0.999997 -81.01 5.510e-5 39.960
8.85680000 5.311e-5 -17.77 0.999997 -81.02 0.999997 -81.02 5.522e-5 39.953
8.85700000 5.322e-5 -17.78 0.999997 -81.02 0.999997 -81.02 5.534e-5 39.945
8.85720000 5.334e-5 -17.78 0.999997 -81.02 0.999997 -81.02 5.545e-5 39.937
8.85740000 5.346e-5 -17.79 0.999997 -81.02 0.999997 -81.02 5.557e-5 39.929
8.85760000 5.358e-5 -17.79 0.999997 -81.02 0.999997 -81.02 5.570e-5 39.921
8.85780000 5.371e-5 -17.80 0.999997 -81.03 0.999997 -81.03 5.582e-5 39.913
8.85800000 5.383e-5 -17.80 0.999997 -81.03 0.999997 -81.03 5.594e-5 39.905
8.85820000 5.395e-5 -17.81 0.999997 -81.03 0.999997 -81.03 5.606e-5 39.896
8.85840000 5.408e-5 -17.81 0.999997 -81.03 0.999997 -81.03 5.619e-5 39.888
8.85860000 5.420e-5 -17.82 0.999997 -81.03 0.999997 -81.03 5.631e-5 39.880
8.85880000 5.433e-5 -17.82 0.999997 -81.03 0.999997 -81.03 5.644e-5 39.871
8.85900000 5.446e-5 -17.82 0.999997 -81.04 0.999997 -81.04 5.656e-5 39.863
8.85920000 5.458e-5 -17.83 0.999997 -81.04 0.999997 -81.04 5.669e-5 39.854
8.85940000 5.471e-5 -17.83 0.999997 -81.04 0.999997 -81.04 5.682e-5 39.846
8.85960000 5.484e-5 -17.84 0.999997 -81.04 0.999997 -81.04 5.695e-5 39.837
8.85980000 5.497e-5 -17.84 0.999997 -81.04 0.999997 -81.04 5.708e-5 39.828
8.86000000 5.510e-5 -17.85 0.999997 -81.05 0.999997 -81.05 5.721e-5 39.819
8.86020000 5.524e-5 -17.85 0.999997 -81.05 0.999997 -81.05 5.734e-5 39.810
8.86040000 5.537e-5 -17.86 0.999997 -81.05 0.999997 -81.05 5.748e-5 39.801
8.86060000 5.550e-5 -17.86 0.999997 -81.05 0.999997 -81.05 5.761e-5 39.792
8.86080000 5.564e-5 -17.86 0.999997 -81.05 0.999997 -81.05 5.775e-5 39.783
8.86100000 5.578e-5 -17.87 0.999997 -81.05 0.999997 -81.05 5.788e-5 39.773
8.86120000 5.591e-5 -17.87 0.999997 -81.06 0.999997 -81.06 5.802e-5 39.764
8.86140000 5.605e-5 -17.88 0.999997 -81.06 0.999997 -81.06 5.816e-5 39.754
8.86160000 5.619e-5 -17.88 0.999997 -81.06 0.999997 -81.06 5.830e-5 39.745
8.86180000 5.633e-5 -17.88 0.999997 -81.06 0.999997 -81.06 5.844e-5 39.735
8.86200000 5.647e-5 -17.89 0.999997 -81.06 0.999997 -81.06 5.858e-5 39.726
8.86220000 5.661e-5 -17.89 0.999997 -81.07 0.999997 -81.07 5.872e-5 39.716
8.86240000 5.676e-5 -17.90 0.999997 -81.07 0.999997 -81.07 5.886e-5 39.706
8.86260000 5.690e-5 -17.90 0.999997 -81.07 0.999997 -81.07 5.901e-5 39.696
8.86280000 5.705e-5 -17.90 0.999997 -81.07 0.999997 -81.07 5.915e-5 39.686
8.86300000 5.720e-5 -17.91 0.999997 -81.07 0.999997 -81.07 5.930e-5 39.676
8.86320000 5.734e-5 -17.91 0.999997 -81.08 0.999997 -81.08 5.945e-5 39.666
8.86340000 5.749e-5 -17.91 0.999997 -81.08 0.999997 -81.08 5.960e-5 39.656
8.86360000 5.764e-5 -17.92 0.999997 -81.08 0.999997 -81.08 5.975e-5 39.646
8.86380000 5.779e-5 -17.92 0.999997 -81.08 0.999997 -81.08 5.990e-5 39.635
8.86400000 5.794e-5 -17.92 0.999997 -81.08 0.999997 -81.08 6.005e-5 39.625
8.86420000 5.810e-5 -17.93 0.999997 -81.08 0.999997 -81.08 6.020e-5 39.614
8.86440000 5.825e-5 -17.93 0.999997 -81.09 0.999997 -81.09 6.036e-5 39.604
8.86460000 5.841e-5 -17.93 0.999997 -81.09 0.999997 -81.09 6.051e-5 39.593
8.86480000 5.856e-5 -17.94 0.999997 -81.09 0.999997 -81.09 6.067e-5 39.582
8.86500000 5.872e-5 -17.94 0.999997 -81.09 0.999997 -81.09 6.083e-5 39.571
8.86520000 5.888e-5 -17.94 0.999997 -81.09 0.999997 -81.09 6.098e-5 39.561
8.86540000 5.904e-5 -17.95 0.999997 -81.10 0.999997 -81.10 6.114e-5 39.550
8.86560000 5.920e-5 -17.95 0.999997 -81.10 0.999997 -81.10 6.131e-5 39.539
8.86580000 5.937e-5 -17.95 0.999997 -81.10 0.999997 -81.10 6.147e-5 39.527
8.86600000 5.953e-5 -17.95 0.999997 -81.10 0.999997 -81.10 6.163e-5 39.516
8.86620000 5.970e-5 -17.96 0.999997 -81.10 0.999997 -81.10 6.180e-5 39.505
8.86640000 5.986e-5 -17.96 0.999997 -81.10 0.999997 -81.10 6.196e-5 39.494
8.86660000 6.003e-5 -17.96 0.999997 -81.11 0.999997 -81.11 6.213e-5 39.482
8.86680000 6.020e-5 -17.96 0.999997 -81.11 0.999997 -81.11 6.230e-5 39.471
8.86700000 6.037e-5 -17.97 0.999997 -81.11 0.999997 -81.11 6.247e-5 39.459
8.86720000 6.054e-5 -17.97 0.999997 -81.11 0.999997 -81.11 6.264e-5 39.448
8.86740000 6.072e-5 -17.97 0.999997 -81.11 0.999997 -81.11 6.281e-5 39.436
8.86760000 6.089e-5 -17.97 0.999997 -81.12 0.999997 -81.12 6.299e-5 39.424
8.86780000 6.107e-5 -17.98 0.999997 -81.12 0.999997 -81.12 6.316e-5 39.412
8.86800000 6.124e-5 -17.98 0.999997 -81.12 0.999997 -81.12 6.334e-5 39.400
8.86820000 6.142e-5 -17.98 0.999997 -81.12 0.999997 -81.12 6.352e-5 39.388
8.86840000 6.160e-5 -17.98 0.999997 -81.12 0.999997 -81.12 6.370e-5 39.376
8.86860000 6.178e-5 -17.99 0.999997 -81.12 0.999997 -81.12 6.388e-5 39.364
8.86880000 6.197e-5 -17.99 0.999997 -81.13 0.999997 -81.13 6.406e-5 39.352
8.86900000 6.215e-5 -17.99 0.999997 -81.13 0.999997 -81.13 6.425e-5 39.340
8.86920000 6.234e-5 -17.99 0.999997 -81.13 0.999997 -81.13 6.443e-5 39.327
8.86940000 6.252e-5 -17.99 0.999997 -81.13 0.999997 -81.13 6.462e-5 39.315
8.86960000 6.271e-5 -18.00 0.999997 -81.13 0.999997 -81.13 6.481e-5 39.302
8.86980000 6.290e-5 -18.00 0.999997 -81.14 0.999997 -81.14 6.500e-5 39.290
8.87000000 6.309e-5 -18.00 0.999997 -81.14 0.999997 -81.14 6.519e-5 39.277
8.87020000 6.329e-5 -18.00 0.999997 -81.14 0.999997 -81.14 6.538e-5 39.264
8.87040000 6.348e-5 -18.00 0.999997 -81.14 0.999997 -81.14 6.558e-5 39.251
8.87060000 6.368e-5 -18.00 0.999997 -81.14 0.999997 -81.14 6.577e-5 39.238
8.87080000 6.388e-5 -18.01 0.999997 -81.14 0.999997 -81.14 6.597e-5 39.225
8.87100000 6.408e-5 -18.01 0.999997 -81.15 0.999997 -81.15 6.617e-5 39.212
8.87120000 6.428e-5 -18.01 0.999997 -81.15 0.999997 -81.15 6.637e-5 39.199
8.87140000 6.448e-5 -18.01 0.999997 -81.15 0.999997 -81.15 6.658e-5 39.186
8.87160000 6.469e-5 -18.01 0.999997 -81.15 0.999997 -81.15 6.678e-5 39.173
8.87180000 6.489e-5 -18.01 0.999997 -81.15 0.999997 -81.15 6.699e-5 39.159
8.87200000 6.510e-5 -18.01 0.999997 -81.16 0.999997 -81.16 6.719e-5 39.146
8.87220000 6.531e-5 -18.02 0.999997 -81.16 0.999997 -81.16 6.740e-5 39.133
8.87240000 6.552e-5 -18.02 0.999997 -81.16 0.999997 -81.16 6.761e-5 39.119
8.87260000 6.574e-5 -18.02 0.999997 -81.16 0.999997 -81.16 6.783e-5 39.105
8.87280000 6.595e-5 -18.02 0.999997 -81.16 0.999997 -81.16 6.804e-5 39.092
8.87300000 6.617e-5 -18.02 0.999997 -81.17 0.999997 -81.17 6.826e-5 39.078
8.87320000 6.639e-5 -18.02 0.999997 -81.17 0.999997 -81.17 6.848e-5 39.064
8.87340000 6.661e-5 -18.02 0.999997 -81.17 0.999997 -81.17 6.870e-5 39.050
8.87360000 6.683e-5 -18.02 0.999997 -81.17 0.999997 -81.17 6.892e-5 39.036
8.87380000 6.706e-5 -18.02 0.999997 -81.17 0.999997 -81.17 6.915e-5 39.022
8.87400000 6.728e-5 -18.02 0.999997 -81.17 0.999997 -81.17 6.937e-5 39.008
8.87420000 6.751e-5 -18.03 0.999997 -81.18 0.999997 -81.18 6.960e-5 38.994
8.87440000 6.774e-5 -18.03 0.999997 -81.18 0.999997 -81.18 6.983e-5 38.979
8.87460000 6.797e-5 -18.03 0.999997 -81.18 0.999997 -81.18 7.006e-5 38.965
8.87480000 6.821e-5 -18.03 0.999997 -81.18 0.999997 -81.18 7.030e-5 38.951
8.87500000 6.845e-5 -18.03 0.999997 -81.18 0.999997 -81.18 7.053e-5 38.936
8.87520000 6.868e-5 -18.03 0.999997 -81.19 0.999997 -81.19 7.077e-5 38.922
8.87540000 6.893e-5 -18.03 0.999997 -81.19 0.999997 -81.19 7.101e-5 38.907
8.87560000 6.917e-5 -18.03 0.999997 -81.19 0.999997 -81.19 7.125e-5 38.892
8.87580000 6.941e-5 -18.03 0.999997 -81.19 0.999997 -81.19 7.150e-5 38.877
8.87600000 6.966e-5 -18.03 0.999997 -81.19 0.999997 -81.19 7.175e-5 38.862
8.87620000 6.991e-5 -18.03 0.999997 -81.19 0.999997 -81.19 7.199e-5 38.848
8.87640000 7.016e-5 -18.03 0.999997 -81.20 0.999997 -81.20 7.225e-5 38.833
8.87660000 7.042e-5 -18.03 0.999997 -81.20 0.999997 -81.20 7.250e-5 38.817
8.87680000 7.067e-5 -18.03 0.999997 -81.20 0.999997 -81.20 7.276e-5 38.802
8.87700000 7.093e-5 -18.03 0.999997 -81.20 0.999997 -81.20 7.301e-5 38.787
8.87720000 7.119e-5 -18.03 0.999997 -81.20 0.999997 -81.20 7.327e-5 38.772
8.87740000 7.146e-5 -18.03 0.999997 -81.21 0.999997 -81.21 7.354e-5 38.756
8.87760000 7.172e-5 -18.03 0.999997 -81.21 0.999997 -81.21 7.380e-5 38.741
8.87780000 7.199e-5 -18.03 0.999997 -81.21 0.999997 -81.21 7.407e-5 38.725
8.87800000 7.226e-5 -18.03 0.999997 -81.21 0.999997 -81.21 7.434e-5 38.710
8.87820000 7.253e-5 -18.03 0.999997 -81.21 0.999997 -81.21 7.461e-5 38.694
8.87840000 7.281e-5 -18.03 0.999997 -81.21 0.999997 -81.21 7.489e-5 38.679