! Sonnet Data File
! From: emgraph Version : 16.52
! From Project: Resonator2_cp_varyW
! Data is De-embedded 
! Data File Written: 10/07/2017 09:25:24
!< HDATE 10/06/2017 17:18:21
!< MDATE 10/06/2017 17:18:21
!< PARAMS
!< gap = 26.0
!< Length = 400.0
!< Pwid1 = 2000.0
!< Pwid2 = 2000.0
!< Air_gap = 12.0
!< Width = 20.0
!< END PARAMS
# GHZ S MA R 51.80000
8.80000000 0.015546 -169.3 0.999876 -80.58 0.999876 -80.58 0.015546 -171.9
!< P1 F=8.8 Eeff=(6.44629866 -2.9719e-5) Z0=(50.907433 1.17455e-4) R=0.0 C=0.0 
!< P2 F=8.8 Eeff=(6.44629866 -2.9719e-5) Z0=(50.907433 1.17455e-4) R=0.0 C=0.0 
8.80020000 0.015545 -169.3 0.999876 -80.59 0.999876 -80.59 0.015545 -171.9
8.80040000 0.015544 -169.3 0.999876 -80.59 0.999876 -80.59 0.015544 -171.9
8.80060000 0.015543 -169.3 0.999876 -80.59 0.999876 -80.59 0.015543 -171.9
8.80080000 0.015542 -169.3 0.999876 -80.59 0.999876 -80.59 0.015542 -171.9
8.80100000 0.015541 -169.3 0.999876 -80.59 0.999876 -80.59 0.015541 -171.9
8.80120000 0.015540 -169.3 0.999876 -80.60 0.999876 -80.60 0.015540 -171.9
8.80140000 0.015539 -169.3 0.999876 -80.60 0.999876 -80.60 0.015539 -171.9
8.80160000 0.015538 -169.3 0.999876 -80.60 0.999876 -80.60 0.015538 -171.9
8.80180000 0.015537 -169.3 0.999876 -80.60 0.999876 -80.60 0.015537 -171.9
8.80200000 0.015536 -169.3 0.999876 -80.60 0.999876 -80.60 0.015536 -171.9
8.80220000 0.015535 -169.3 0.999876 -80.61 0.999876 -80.61 0.015535 -171.9
8.80240000 0.015534 -169.3 0.999876 -80.61 0.999876 -80.61 0.015534 -171.9
8.80260000 0.015533 -169.3 0.999876 -80.61 0.999876 -80.61 0.015533 -171.9
8.80280000 0.015531 -169.3 0.999876 -80.61 0.999876 -80.61 0.015532 -171.9
8.80300000 0.015530 -169.3 0.999876 -80.61 0.999876 -80.61 0.015530 -171.9
8.80320000 0.015529 -169.3 0.999876 -80.61 0.999876 -80.61 0.015529 -171.9
8.80340000 0.015528 -169.3 0.999876 -80.62 0.999876 -80.62 0.015528 -171.9
8.80360000 0.015527 -169.3 0.999876 -80.62 0.999876 -80.62 0.015527 -171.9
8.80380000 0.015526 -169.3 0.999876 -80.62 0.999876 -80.62 0.015526 -171.9
8.80400000 0.015525 -169.3 0.999876 -80.62 0.999876 -80.62 0.015525 -171.9
8.80420000 0.015524 -169.3 0.999876 -80.62 0.999876 -80.62 0.015524 -171.9
8.80440000 0.015523 -169.3 0.999876 -80.63 0.999876 -80.63 0.015523 -171.9
8.80460000 0.015522 -169.3 0.999876 -80.63 0.999876 -80.63 0.015522 -171.9
8.80480000 0.015521 -169.3 0.999876 -80.63 0.999876 -80.63 0.015521 -171.9
8.80500000 0.015519 -169.3 0.999876 -80.63 0.999876 -80.63 0.015519 -172.0
8.80520000 0.015518 -169.3 0.999876 -80.63 0.999876 -80.63 0.015518 -172.0
8.80540000 0.015517 -169.3 0.999876 -80.64 0.999876 -80.64 0.015517 -172.0
8.80560000 0.015516 -169.3 0.999876 -80.64 0.999876 -80.64 0.015516 -172.0
8.80580000 0.015515 -169.3 0.999876 -80.64 0.999876 -80.64 0.015515 -172.0
8.80600000 0.015514 -169.3 0.999876 -80.64 0.999876 -80.64 0.015514 -172.0
8.80620000 0.015513 -169.3 0.999876 -80.64 0.999876 -80.64 0.015513 -172.0
8.80640000 0.015511 -169.3 0.999876 -80.64 0.999876 -80.64 0.015511 -172.0
8.80660000 0.015510 -169.3 0.999876 -80.65 0.999876 -80.65 0.015510 -172.0
8.80680000 0.015509 -169.3 0.999876 -80.65 0.999876 -80.65 0.015509 -172.0
8.80700000 0.015508 -169.3 0.999876 -80.65 0.999876 -80.65 0.015508 -172.0
8.80720000 0.015507 -169.3 0.999876 -80.65 0.999876 -80.65 0.015507 -172.0
8.80740000 0.015506 -169.3 0.999876 -80.65 0.999876 -80.65 0.015506 -172.0
8.80760000 0.015504 -169.3 0.999876 -80.66 0.999876 -80.66 0.015504 -172.0
8.80780000 0.015503 -169.3 0.999876 -80.66 0.999876 -80.66 0.015503 -172.0
8.80800000 0.015502 -169.3 0.999876 -80.66 0.999876 -80.66 0.015502 -172.0
8.80820000 0.015501 -169.3 0.999876 -80.66 0.999876 -80.66 0.015501 -172.0
8.80840000 0.015500 -169.3 0.999876 -80.66 0.999876 -80.66 0.015500 -172.0
8.80860000 0.015498 -169.3 0.999876 -80.67 0.999876 -80.67 0.015498 -172.0
8.80880000 0.015497 -169.3 0.999876 -80.67 0.999876 -80.67 0.015497 -172.0
8.80900000 0.015496 -169.3 0.999876 -80.67 0.999876 -80.67 0.015496 -172.0
8.80920000 0.015495 -169.3 0.999876 -80.67 0.999876 -80.67 0.015495 -172.0
8.80940000 0.015493 -169.3 0.999877 -80.67 0.999877 -80.67 0.015493 -172.0
8.80960000 0.015492 -169.3 0.999877 -80.68 0.999877 -80.68 0.015492 -172.0
8.80980000 0.015491 -169.3 0.999877 -80.68 0.999877 -80.68 0.015491 -172.0
8.81000000 0.015490 -169.3 0.999877 -80.68 0.999877 -80.68 0.015490 -172.0
8.81020000 0.015488 -169.3 0.999877 -80.68 0.999877 -80.68 0.015488 -172.0
8.81040000 0.015487 -169.3 0.999877 -80.68 0.999877 -80.68 0.015487 -172.0
8.81060000 0.015486 -169.3 0.999877 -80.68 0.999877 -80.68 0.015486 -172.1
8.81080000 0.015485 -169.3 0.999877 -80.69 0.999877 -80.69 0.015485 -172.1
8.81100000 0.015483 -169.3 0.999877 -80.69 0.999877 -80.69 0.015483 -172.1
8.81120000 0.015482 -169.3 0.999877 -80.69 0.999877 -80.69 0.015482 -172.1
8.81140000 0.015481 -169.3 0.999877 -80.69 0.999877 -80.69 0.015481 -172.1
8.81160000 0.015479 -169.3 0.999877 -80.69 0.999877 -80.69 0.015479 -172.1
8.81180000 0.015478 -169.3 0.999877 -80.70 0.999877 -80.70 0.015478 -172.1
8.81200000 0.015477 -169.3 0.999877 -80.70 0.999877 -80.70 0.015477 -172.1
8.81220000 0.015475 -169.3 0.999877 -80.70 0.999877 -80.70 0.015475 -172.1
8.81240000 0.015474 -169.3 0.999877 -80.70 0.999877 -80.70 0.015474 -172.1
8.81260000 0.015473 -169.3 0.999877 -80.70 0.999877 -80.70 0.015473 -172.1
8.81280000 0.015471 -169.3 0.999877 -80.71 0.999877 -80.71 0.015472 -172.1
8.81300000 0.015470 -169.3 0.999877 -80.71 0.999877 -80.71 0.015470 -172.1
8.81320000 0.015469 -169.3 0.999877 -80.71 0.999877 -80.71 0.015469 -172.1
8.81340000 0.015467 -169.3 0.999877 -80.71 0.999877 -80.71 0.015467 -172.1
8.81360000 0.015466 -169.3 0.999877 -80.71 0.999877 -80.71 0.015466 -172.1
8.81380000 0.015465 -169.3 0.999877 -80.72 0.999877 -80.72 0.015465 -172.1
8.81400000 0.015463 -169.3 0.999877 -80.72 0.999877 -80.72 0.015463 -172.1
8.81420000 0.015462 -169.3 0.999877 -80.72 0.999877 -80.72 0.015462 -172.1
8.81440000 0.015461 -169.3 0.999877 -80.72 0.999877 -80.72 0.015461 -172.1
8.81460000 0.015459 -169.3 0.999877 -80.72 0.999877 -80.72 0.015459 -172.1
8.81480000 0.015458 -169.3 0.999877 -80.73 0.999877 -80.73 0.015458 -172.1
8.81500000 0.015456 -169.3 0.999877 -80.73 0.999877 -80.73 0.015456 -172.1
8.81520000 0.015455 -169.3 0.999877 -80.73 0.999877 -80.73 0.015455 -172.1
8.81540000 0.015454 -169.3 0.999877 -80.73 0.999877 -80.73 0.015454 -172.1
8.81560000 0.015452 -169.3 0.999877 -80.73 0.999877 -80.73 0.015452 -172.1
8.81580000 0.015451 -169.3 0.999877 -80.73 0.999877 -80.73 0.015451 -172.1
8.81600000 0.015449 -169.3 0.999877 -80.74 0.999877 -80.74 0.015449 -172.2
8.81620000 0.015448 -169.3 0.999877 -80.74 0.999877 -80.74 0.015448 -172.2
8.81640000 0.015446 -169.3 0.999877 -80.74 0.999877 -80.74 0.015446 -172.2
8.81660000 0.015445 -169.3 0.999877 -80.74 0.999877 -80.74 0.015445 -172.2
8.81680000 0.015443 -169.3 0.999877 -80.74 0.999877 -80.74 0.015443 -172.2
8.81700000 0.015442 -169.3 0.999877 -80.75 0.999877 -80.75 0.015442 -172.2
8.81720000 0.015440 -169.3 0.999877 -80.75 0.999877 -80.75 0.015441 -172.2
8.81740000 0.015439 -169.3 0.999877 -80.75 0.999877 -80.75 0.015439 -172.2
8.81760000 0.015438 -169.3 0.999877 -80.75 0.999877 -80.75 0.015438 -172.2
8.81780000 0.015436 -169.3 0.999877 -80.75 0.999877 -80.75 0.015436 -172.2
8.81800000 0.015435 -169.3 0.999877 -80.76 0.999877 -80.76 0.015435 -172.2
8.81820000 0.015433 -169.3 0.999877 -80.76 0.999877 -80.76 0.015433 -172.2
8.81840000 0.015431 -169.3 0.999877 -80.76 0.999877 -80.76 0.015431 -172.2
8.81860000 0.015430 -169.3 0.999877 -80.76 0.999877 -80.76 0.015430 -172.2
8.81880000 0.015428 -169.3 0.999877 -80.76 0.999877 -80.76 0.015428 -172.2
8.81900000 0.015427 -169.3 0.999877 -80.77 0.999877 -80.77 0.015427 -172.2
8.81920000 0.015425 -169.3 0.999877 -80.77 0.999877 -80.77 0.015425 -172.2
8.81940000 0.015424 -169.3 0.999878 -80.77 0.999878 -80.77 0.015424 -172.2
8.81960000 0.015422 -169.3 0.999878 -80.77 0.999878 -80.77 0.015422 -172.2
8.81980000 0.015421 -169.3 0.999878 -80.77 0.999878 -80.77 0.015421 -172.2
8.82000000 0.015419 -169.3 0.999878 -80.78 0.999878 -80.78 0.015419 -172.2
8.82020000 0.015417 -169.3 0.999878 -80.78 0.999878 -80.78 0.015417 -172.2
8.82040000 0.015416 -169.3 0.999878 -80.78 0.999878 -80.78 0.015416 -172.2
8.82060000 0.015414 -169.3 0.999878 -80.78 0.999878 -80.78 0.015414 -172.2
8.82080000 0.015413 -169.3 0.999878 -80.78 0.999878 -80.78 0.015413 -172.2
8.82100000 0.015411 -169.3 0.999878 -80.78 0.999878 -80.78 0.015411 -172.3
8.82120000 0.015409 -169.3 0.999878 -80.79 0.999878 -80.79 0.015409 -172.3
8.82140000 0.015408 -169.3 0.999878 -80.79 0.999878 -80.79 0.015408 -172.3
8.82160000 0.015406 -169.3 0.999878 -80.79 0.999878 -80.79 0.015406 -172.3
8.82180000 0.015404 -169.3 0.999878 -80.79 0.999878 -80.79 0.015404 -172.3
8.82200000 0.015403 -169.3 0.999878 -80.79 0.999878 -80.79 0.015403 -172.3
8.82220000 0.015401 -169.3 0.999878 -80.80 0.999878 -80.80 0.015401 -172.3
8.82240000 0.015399 -169.3 0.999878 -80.80 0.999878 -80.80 0.015399 -172.3
8.82260000 0.015398 -169.3 0.999878 -80.80 0.999878 -80.80 0.015398 -172.3
8.82280000 0.015396 -169.3 0.999878 -80.80 0.999878 -80.80 0.015396 -172.3
8.82300000 0.015394 -169.3 0.999878 -80.80 0.999878 -80.80 0.015394 -172.3
8.82320000 0.015393 -169.3 0.999878 -80.81 0.999878 -80.81 0.015393 -172.3
8.82340000 0.015391 -169.3 0.999878 -80.81 0.999878 -80.81 0.015391 -172.3
8.82360000 0.015389 -169.3 0.999878 -80.81 0.999878 -80.81 0.015389 -172.3
8.82380000 0.015387 -169.3 0.999878 -80.81 0.999878 -80.81 0.015387 -172.3
8.82400000 0.015386 -169.3 0.999878 -80.81 0.999878 -80.81 0.015386 -172.3
8.82420000 0.015384 -169.3 0.999878 -80.82 0.999878 -80.82 0.015384 -172.3
8.82440000 0.015382 -169.3 0.999878 -80.82 0.999878 -80.82 0.015382 -172.3
8.82460000 0.015380 -169.3 0.999878 -80.82 0.999878 -80.82 0.015380 -172.3
8.82480000 0.015379 -169.3 0.999878 -80.82 0.999878 -80.82 0.015379 -172.3
8.82500000 0.015377 -169.3 0.999878 -80.82 0.999878 -80.82 0.015377 -172.3
8.82520000 0.015375 -169.3 0.999878 -80.83 0.999878 -80.83 0.015375 -172.3
8.82540000 0.015373 -169.3 0.999878 -80.83 0.999878 -80.83 0.015373 -172.3
8.82560000 0.015371 -169.3 0.999878 -80.83 0.999878 -80.83 0.015371 -172.4
8.82580000 0.015369 -169.3 0.999878 -80.83 0.999878 -80.83 0.015369 -172.4
8.82600000 0.015368 -169.3 0.999878 -80.83 0.999878 -80.83 0.015368 -172.4
8.82620000 0.015366 -169.3 0.999878 -80.84 0.999878 -80.84 0.015366 -172.4
8.82640000 0.015364 -169.3 0.999878 -80.84 0.999878 -80.84 0.015364 -172.4
8.82660000 0.015362 -169.3 0.999878 -80.84 0.999878 -80.84 0.015362 -172.4
8.82680000 0.015360 -169.3 0.999878 -80.84 0.999878 -80.84 0.015360 -172.4
8.82700000 0.015358 -169.3 0.999878 -80.84 0.999878 -80.84 0.015358 -172.4
8.82720000 0.015356 -169.3 0.999878 -80.84 0.999878 -80.84 0.015356 -172.4
8.82740000 0.015354 -169.3 0.999879 -80.85 0.999879 -80.85 0.015354 -172.4
8.82760000 0.015352 -169.3 0.999879 -80.85 0.999879 -80.85 0.015352 -172.4
8.82780000 0.015351 -169.3 0.999879 -80.85 0.999879 -80.85 0.015351 -172.4
8.82800000 0.015349 -169.3 0.999879 -80.85 0.999879 -80.85 0.015349 -172.4
8.82820000 0.015347 -169.3 0.999879 -80.85 0.999879 -80.85 0.015347 -172.4
8.82840000 0.015345 -169.3 0.999879 -80.86 0.999879 -80.86 0.015345 -172.4
8.82860000 0.015343 -169.3 0.999879 -80.86 0.999879 -80.86 0.015343 -172.4
8.82880000 0.015341 -169.3 0.999879 -80.86 0.999879 -80.86 0.015341 -172.4
8.82900000 0.015339 -169.3 0.999879 -80.86 0.999879 -80.86 0.015339 -172.4
8.82920000 0.015337 -169.3 0.999879 -80.86 0.999879 -80.86 0.015337 -172.4
8.82940000 0.015335 -169.3 0.999879 -80.87 0.999879 -80.87 0.015335 -172.4
8.82960000 0.015333 -169.3 0.999879 -80.87 0.999879 -80.87 0.015333 -172.4
8.82980000 0.015331 -169.3 0.999879 -80.87 0.999879 -80.87 0.015331 -172.4
8.83000000 0.015329 -169.3 0.999879 -80.87 0.999879 -80.87 0.015329 -172.5
8.83020000 0.015326 -169.3 0.999879 -80.87 0.999879 -80.87 0.015326 -172.5
8.83040000 0.015324 -169.3 0.999879 -80.88 0.999879 -80.88 0.015324 -172.5
8.83060000 0.015322 -169.3 0.999879 -80.88 0.999879 -80.88 0.015322 -172.5
8.83080000 0.015320 -169.3 0.999879 -80.88 0.999879 -80.88 0.015320 -172.5
8.83100000 0.015318 -169.3 0.999879 -80.88 0.999879 -80.88 0.015318 -172.5
8.83120000 0.015316 -169.3 0.999879 -80.88 0.999879 -80.88 0.015316 -172.5
8.83140000 0.015314 -169.3 0.999879 -80.89 0.999879 -80.89 0.015314 -172.5
8.83160000 0.015312 -169.3 0.999879 -80.89 0.999879 -80.89 0.015312 -172.5
8.83180000 0.015310 -169.3 0.999879 -80.89 0.999879 -80.89 0.015310 -172.5
8.83200000 0.015307 -169.3 0.999879 -80.89 0.999879 -80.89 0.015307 -172.5
8.83220000 0.015305 -169.3 0.999879 -80.89 0.999879 -80.89 0.015305 -172.5
8.83240000 0.015303 -169.3 0.999879 -80.90 0.999879 -80.90 0.015303 -172.5
8.83260000 0.015301 -169.3 0.999879 -80.90 0.999879 -80.90 0.015301 -172.5
8.83280000 0.015299 -169.3 0.999879 -80.90 0.999879 -80.90 0.015299 -172.5
8.83300000 0.015296 -169.3 0.999879 -80.90 0.999879 -80.90 0.015296 -172.5
8.83320000 0.015294 -169.3 0.999879 -80.90 0.999879 -80.90 0.015294 -172.5
8.83340000 0.015292 -169.3 0.999879 -80.91 0.999879 -80.91 0.015292 -172.5
8.83360000 0.015290 -169.3 0.999879 -80.91 0.999879 -80.91 0.015290 -172.5
8.83380000 0.015287 -169.3 0.999879 -80.91 0.999879 -80.91 0.015287 -172.5
8.83400000 0.015285 -169.3 0.999880 -80.91 0.999880 -80.91 0.015285 -172.5
8.83420000 0.015283 -169.3 0.999880 -80.91 0.999880 -80.91 0.015283 -172.6
8.83440000 0.015280 -169.3 0.999880 -80.92 0.999880 -80.92 0.015280 -172.6
8.83460000 0.015278 -169.3 0.999880 -80.92 0.999880 -80.92 0.015278 -172.6
8.83480000 0.015276 -169.3 0.999880 -80.92 0.999880 -80.92 0.015276 -172.6
8.83500000 0.015273 -169.3 0.999880 -80.92 0.999880 -80.92 0.015273 -172.6
8.83520000 0.015271 -169.3 0.999880 -80.92 0.999880 -80.92 0.015271 -172.6
8.83540000 0.015268 -169.3 0.999880 -80.93 0.999880 -80.93 0.015268 -172.6
8.83560000 0.015266 -169.3 0.999880 -80.93 0.999880 -80.93 0.015266 -172.6
8.83580000 0.015264 -169.3 0.999880 -80.93 0.999880 -80.93 0.015264 -172.6
8.83600000 0.015261 -169.3 0.999880 -80.93 0.999880 -80.93 0.015261 -172.6
8.83620000 0.015259 -169.3 0.999880 -80.93 0.999880 -80.93 0.015259 -172.6
8.83640000 0.015256 -169.3 0.999880 -80.94 0.999880 -80.94 0.015256 -172.6
8.83660000 0.015254 -169.3 0.999880 -80.94 0.999880 -80.94 0.015254 -172.6
8.83680000 0.015251 -169.3 0.999880 -80.94 0.999880 -80.94 0.015251 -172.6
8.83700000 0.015249 -169.3 0.999880 -80.94 0.999880 -80.94 0.015249 -172.6
8.83720000 0.015246 -169.3 0.999880 -80.94 0.999880 -80.94 0.015246 -172.6
8.83740000 0.015244 -169.3 0.999880 -80.95 0.999880 -80.95 0.015244 -172.6
8.83760000 0.015241 -169.3 0.999880 -80.95 0.999880 -80.95 0.015241 -172.6
8.83780000 0.015239 -169.3 0.999880 -80.95 0.999880 -80.95 0.015239 -172.6
8.83800000 0.015236 -169.3 0.999880 -80.95 0.999880 -80.95 0.015236 -172.7
8.83820000 0.015233 -169.3 0.999880 -80.95 0.999880 -80.95 0.015233 -172.7
8.83840000 0.015231 -169.3 0.999880 -80.96 0.999880 -80.96 0.015231 -172.7
8.83860000 0.015228 -169.3 0.999880 -80.96 0.999880 -80.96 0.015228 -172.7
8.83880000 0.015225 -169.3 0.999880 -80.96 0.999880 -80.96 0.015225 -172.7
8.83900000 0.015223 -169.3 0.999880 -80.96 0.999880 -80.96 0.015223 -172.7
8.83920000 0.015220 -169.3 0.999880 -80.96 0.999880 -80.96 0.015220 -172.7
8.83940000 0.015217 -169.3 0.999880 -80.97 0.999880 -80.97 0.015217 -172.7
8.83960000 0.015215 -169.3 0.999881 -80.97 0.999881 -80.97 0.015215 -172.7
8.83980000 0.015212 -169.2 0.999881 -80.97 0.999881 -80.97 0.015212 -172.7
8.84000000 0.015209 -169.2 0.999881 -80.97 0.999881 -80.97 0.015209 -172.7
8.84020000 0.015206 -169.2 0.999881 -80.97 0.999881 -80.97 0.015206 -172.7
8.84040000 0.015204 -169.2 0.999881 -80.98 0.999881 -80.98 0.015204 -172.7
8.84060000 0.015201 -169.2 0.999881 -80.98 0.999881 -80.98 0.015201 -172.7
8.84080000 0.015198 -169.2 0.999881 -80.98 0.999881 -80.98 0.015198 -172.7
8.84100000 0.015195 -169.2 0.999881 -80.98 0.999881 -80.98 0.015195 -172.7
8.84120000 0.015192 -169.2 0.999881 -80.98 0.999881 -80.98 0.015192 -172.7
8.84140000 0.015189 -169.2 0.999881 -80.99 0.999881 -80.99 0.015189 -172.8
8.84160000 0.015186 -169.2 0.999881 -80.99 0.999881 -80.99 0.015186 -172.8
8.84180000 0.015184 -169.2 0.999881 -80.99 0.999881 -80.99 0.015183 -172.8
8.84200000 0.015181 -169.2 0.999881 -80.99 0.999881 -80.99 0.015181 -172.8
8.84220000 0.015178 -169.2 0.999881 -80.99 0.999881 -80.99 0.015178 -172.8
8.84240000 0.015175 -169.2 0.999881 -81.00 0.999881 -81.00 0.015175 -172.8
8.84260000 0.015172 -169.2 0.999881 -81.00 0.999881 -81.00 0.015172 -172.8
8.84280000 0.015169 -169.2 0.999881 -81.00 0.999881 -81.00 0.015169 -172.8
8.84300000 0.015166 -169.2 0.999881 -81.00 0.999881 -81.00 0.015166 -172.8
8.84320000 0.015163 -169.2 0.999881 -81.00 0.999881 -81.00 0.015162 -172.8
8.84340000 0.015159 -169.2 0.999881 -81.01 0.999881 -81.01 0.015159 -172.8
8.84360000 0.015156 -169.2 0.999881 -81.01 0.999881 -81.01 0.015156 -172.8
8.84380000 0.015153 -169.2 0.999881 -81.01 0.999881 -81.01 0.015153 -172.8
8.84400000 0.015150 -169.2 0.999881 -81.01 0.999881 -81.01 0.015150 -172.8
8.84420000 0.015147 -169.2 0.999882 -81.01 0.999882 -81.01 0.015147 -172.8
8.84440000 0.015144 -169.2 0.999882 -81.02 0.999882 -81.02 0.015144 -172.8
8.84460000 0.015141 -169.2 0.999882 -81.02 0.999882 -81.02 0.015140 -172.9
8.84480000 0.015137 -169.2 0.999882 -81.02 0.999882 -81.02 0.015137 -172.9
8.84500000 0.015134 -169.2 0.999882 -81.02 0.999882 -81.02 0.015134 -172.9
8.84520000 0.015131 -169.2 0.999882 -81.02 0.999882 -81.02 0.015131 -172.9
8.84540000 0.015128 -169.2 0.999882 -81.03 0.999882 -81.03 0.015127 -172.9
8.84560000 0.015124 -169.2 0.999882 -81.03 0.999882 -81.03 0.015124 -172.9
8.84580000 0.015121 -169.2 0.999882 -81.03 0.999882 -81.03 0.015121 -172.9
8.84600000 0.015117 -169.2 0.999882 -81.03 0.999882 -81.03 0.015117 -172.9
8.84620000 0.015114 -169.2 0.999882 -81.03 0.999882 -81.03 0.015114 -172.9
8.84640000 0.015111 -169.2 0.999882 -81.04 0.999882 -81.04 0.015111 -172.9
8.84660000 0.015107 -169.2 0.999882 -81.04 0.999882 -81.04 0.015107 -172.9
8.84680000 0.015104 -169.2 0.999882 -81.04 0.999882 -81.04 0.015104 -172.9
8.84700000 0.015100 -169.2 0.999882 -81.04 0.999882 -81.04 0.015100 -172.9
8.84720000 0.015097 -169.2 0.999882 -81.04 0.999882 -81.04 0.015097 -172.9
8.84740000 0.015093 -169.2 0.999882 -81.05 0.999882 -81.05 0.015093 -172.9
8.84760000 0.015090 -169.2 0.999882 -81.05 0.999882 -81.05 0.015090 -173.0
8.84780000 0.015086 -169.2 0.999882 -81.05 0.999882 -81.05 0.015086 -173.0
8.84800000 0.015083 -169.2 0.999882 -81.05 0.999882 -81.05 0.015082 -173.0
8.84820000 0.015079 -169.2 0.999882 -81.05 0.999882 -81.05 0.015079 -173.0
8.84840000 0.015075 -169.1 0.999883 -81.06 0.999883 -81.06 0.015075 -173.0
8.84860000 0.015072 -169.1 0.999883 -81.06 0.999883 -81.06 0.015071 -173.0
8.84880000 0.015068 -169.1 0.999883 -81.06 0.999883 -81.06 0.015068 -173.0
8.84900000 0.015064 -169.1 0.999883 -81.06 0.999883 -81.06 0.015064 -173.0
8.84920000 0.015060 -169.1 0.999883 -81.06 0.999883 -81.06 0.015060 -173.0
8.84940000 0.015057 -169.1 0.999883 -81.07 0.999883 -81.07 0.015056 -173.0
8.84960000 0.015053 -169.1 0.999883 -81.07 0.999883 -81.07 0.015053 -173.0
8.84980000 0.015049 -169.1 0.999883 -81.07 0.999883 -81.07 0.015049 -173.0
8.85000000 0.015045 -169.1 0.999883 -81.07 0.999883 -81.07 0.015045 -173.0
8.85020000 0.015041 -169.1 0.999883 -81.07 0.999883 -81.07 0.015041 -173.0
8.85040000 0.015037 -169.1 0.999883 -81.08 0.999883 -81.08 0.015037 -173.1
8.85060000 0.015033 -169.1 0.999883 -81.08 0.999883 -81.08 0.015033 -173.1
8.85080000 0.015029 -169.1 0.999883 -81.08 0.999883 -81.08 0.015029 -173.1
8.85100000 0.015025 -169.1 0.999883 -81.08 0.999883 -81.08 0.015025 -173.1
8.85120000 0.015021 -169.1 0.999883 -81.09 0.999883 -81.09 0.015021 -173.1
8.85140000 0.015017 -169.1 0.999883 -81.09 0.999883 -81.09 0.015017 -173.1
8.85160000 0.015013 -169.1 0.999883 -81.09 0.999883 -81.09 0.015013 -173.1
8.85180000 0.015009 -169.1 0.999883 -81.09 0.999883 -81.09 0.015009 -173.1
8.85200000 0.015005 -169.1 0.999884 -81.09 0.999884 -81.09 0.015004 -173.1
8.85220000 0.015000 -169.1 0.999884 -81.10 0.999884 -81.10 0.015000 -173.1
8.85240000 0.014996 -169.1 0.999884 -81.10 0.999884 -81.10 0.014996 -173.1
8.85260000 0.014992 -169.1 0.999884 -81.10 0.999884 -81.10 0.014992 -173.1
8.85280000 0.014988 -169.1 0.999884 -81.10 0.999884 -81.10 0.014987 -173.1
8.85300000 0.014983 -169.1 0.999884 -81.10 0.999884 -81.10 0.014983 -173.2
8.85320000 0.014979 -169.1 0.999884 -81.11 0.999884 -81.11 0.014979 -173.2
8.85340000 0.014974 -169.1 0.999884 -81.11 0.999884 -81.11 0.014974 -173.2
8.85360000 0.014970 -169.1 0.999884 -81.11 0.999884 -81.11 0.014970 -173.2
8.85380000 0.014966 -169.1 0.999884 -81.11 0.999884 -81.11 0.014965 -173.2
8.85400000 0.014961 -169.0 0.999884 -81.11 0.999884 -81.11 0.014961 -173.2
8.85420000 0.014956 -169.0 0.999884 -81.12 0.999884 -81.12 0.014956 -173.2
8.85440000 0.014952 -169.0 0.999884 -81.12 0.999884 -81.12 0.014952 -173.2
8.85460000 0.014947 -169.0 0.999884 -81.12 0.999884 -81.12 0.014947 -173.2
8.85480000 0.014943 -169.0 0.999884 -81.12 0.999884 -81.12 0.014942 -173.2
8.85500000 0.014938 -169.0 0.999884 -81.13 0.999884 -81.13 0.014938 -173.2
8.85520000 0.014933 -169.0 0.999885 -81.13 0.999885 -81.13 0.014933 -173.2
8.85540000 0.014928 -169.0 0.999885 -81.13 0.999885 -81.13 0.014928 -173.3
8.85560000 0.014923 -169.0 0.999885 -81.13 0.999885 -81.13 0.014923 -173.3
8.85580000 0.014919 -169.0 0.999885 -81.13 0.999885 -81.13 0.014918 -173.3
8.85600000 0.014914 -169.0 0.999885 -81.14 0.999885 -81.14 0.014914 -173.3
8.85620000 0.014909 -169.0 0.999885 -81.14 0.999885 -81.14 0.014909 -173.3
8.85640000 0.014904 -169.0 0.999885 -81.14 0.999885 -81.14 0.014904 -173.3
8.85660000 0.014899 -169.0 0.999885 -81.14 0.999885 -81.14 0.014899 -173.3
8.85680000 0.014894 -169.0 0.999885 -81.14 0.999885 -81.14 0.014894 -173.3
8.85700000 0.014889 -169.0 0.999885 -81.15 0.999885 -81.15 0.014888 -173.3
8.85720000 0.014883 -169.0 0.999885 -81.15 0.999885 -81.15 0.014883 -173.3
8.85740000 0.014878 -169.0 0.999885 -81.15 0.999885 -81.15 0.014878 -173.3
8.85760000 0.014873 -169.0 0.999885 -81.15 0.999885 -81.15 0.014873 -173.4
8.85780000 0.014868 -169.0 0.999885 -81.16 0.999885 -81.16 0.014868 -173.4
8.85800000 0.014862 -169.0 0.999886 -81.16 0.999886 -81.16 0.014862 -173.4
8.85820000 0.014857 -168.9 0.999886 -81.16 0.999886 -81.16 0.014857 -173.4
8.85840000 0.014852 -168.9 0.999886 -81.16 0.999886 -81.16 0.014851 -173.4
8.85860000 0.014846 -168.9 0.999886 -81.16 0.999886 -81.16 0.014846 -173.4
8.85880000 0.014841 -168.9 0.999886 -81.17 0.999886 -81.17 0.014840 -173.4
8.85900000 0.014835 -168.9 0.999886 -81.17 0.999886 -81.17 0.014835 -173.4
8.85920000 0.014829 -168.9 0.999886 -81.17 0.999886 -81.17 0.014829 -173.4
8.85940000 0.014824 -168.9 0.999886 -81.17 0.999886 -81.17 0.014824 -173.4
8.85960000 0.014818 -168.9 0.999886 -81.17 0.999886 -81.17 0.014818 -173.5
8.85980000 0.014812 -168.9 0.999886 -81.18 0.999886 -81.18 0.014812 -173.5
8.86000000 0.014806 -168.9 0.999886 -81.18 0.999886 -81.18 0.014806 -173.5
8.86020000 0.014801 -168.9 0.999886 -81.18 0.999886 -81.18 0.014800 -173.5
8.86040000 0.014795 -168.9 0.999886 -81.18 0.999886 -81.18 0.014794 -173.5
8.86060000 0.014789 -168.9 0.999887 -81.19 0.999887 -81.19 0.014788 -173.5
8.86080000 0.014783 -168.9 0.999887 -81.19 0.999887 -81.19 0.014782 -173.5
8.86100000 0.014777 -168.9 0.999887 -81.19 0.999887 -81.19 0.014776 -173.5
8.86120000 0.014770 -168.9 0.999887 -81.19 0.999887 -81.19 0.014770 -173.5
8.86140000 0.014764 -168.9 0.999887 -81.19 0.999887 -81.19 0.014764 -173.6
8.86160000 0.014758 -168.8 0.999887 -81.20 0.999887 -81.20 0.014758 -173.6
8.86180000 0.014752 -168.8 0.999887 -81.20 0.999887 -81.20 0.014751 -173.6
8.86200000 0.014745 -168.8 0.999887 -81.20 0.999887 -81.20 0.014745 -173.6
8.86220000 0.014739 -168.8 0.999887 -81.20 0.999887 -81.20 0.014739 -173.6
8.86240000 0.014732 -168.8 0.999887 -81.21 0.999887 -81.21 0.014732 -173.6
8.86260000 0.014726 -168.8 0.999887 -81.21 0.999887 -81.21 0.014725 -173.6
8.86280000 0.014719 -168.8 0.999888 -81.21 0.999888 -81.21 0.014719 -173.6
8.86300000 0.014712 -168.8 0.999888 -81.21 0.999888 -81.21 0.014712 -173.6
8.86320000 0.014706 -168.8 0.999888 -81.21 0.999888 -81.21 0.014705 -173.7
8.86340000 0.014699 -168.8 0.999888 -81.22 0.999888 -81.22 0.014699 -173.7
8.86360000 0.014692 -168.8 0.999888 -81.22 0.999888 -81.22 0.014692 -173.7
8.86380000 0.014685 -168.8 0.999888 -81.22 0.999888 -81.22 0.014685 -173.7
8.86400000 0.014678 -168.8 0.999888 -81.22 0.999888 -81.22 0.014678 -173.7
8.86420000 0.014671 -168.7 0.999888 -81.23 0.999888 -81.23 0.014671 -173.7
8.86440000 0.014664 -168.7 0.999888 -81.23 0.999888 -81.23 0.014663 -173.7
8.86460000 0.014657 -168.7 0.999888 -81.23 0.999888 -81.23 0.014656 -173.7
8.86480000 0.014649 -168.7 0.999888 -81.23 0.999888 -81.23 0.014649 -173.8
8.86500000 0.014642 -168.7 0.999889 -81.24 0.999889 -81.24 0.014641 -173.8
8.86520000 0.014634 -168.7 0.999889 -81.24 0.999889 -81.24 0.014634 -173.8
8.86540000 0.014627 -168.7 0.999889 -81.24 0.999889 -81.24 0.014626 -173.8
8.86560000 0.014619 -168.7 0.999889 -81.24 0.999889 -81.24 0.014619 -173.8
8.86580000 0.014612 -168.7 0.999889 -81.24 0.999889 -81.24 0.014611 -173.8
8.86600000 0.014604 -168.7 0.999889 -81.25 0.999889 -81.25 0.014603 -173.8
8.86620000 0.014596 -168.7 0.999889 -81.25 0.999889 -81.25 0.014596 -173.8
8.86640000 0.014588 -168.7 0.999889 -81.25 0.999889 -81.25 0.014588 -173.9
8.86660000 0.014580 -168.6 0.999889 -81.25 0.999889 -81.25 0.014580 -173.9
8.86680000 0.014572 -168.6 0.999890 -81.26 0.999890 -81.26 0.014572 -173.9
8.86700000 0.014564 -168.6 0.999890 -81.26 0.999890 -81.26 0.014563 -173.9
8.86720000 0.014556 -168.6 0.999890 -81.26 0.999890 -81.26 0.014555 -173.9
8.86740000 0.014547 -168.6 0.999890 -81.26 0.999890 -81.26 0.014547 -173.9
8.86760000 0.014539 -168.6 0.999890 -81.27 0.999890 -81.27 0.014538 -173.9
8.86780000 0.014530 -168.6 0.999890 -81.27 0.999890 -81.27 0.014530 -174.0
8.86800000 0.014522 -168.6 0.999890 -81.27 0.999890 -81.27 0.014521 -174.0
8.86820000 0.014513 -168.6 0.999890 -81.27 0.999890 -81.27 0.014512 -174.0
8.86840000 0.014504 -168.6 0.999890 -81.27 0.999890 -81.27 0.014504 -174.0
8.86860000 0.014495 -168.5 0.999891 -81.28 0.999891 -81.28 0.014495 -174.0
8.86880000 0.014486 -168.5 0.999891 -81.28 0.999891 -81.28 0.014486 -174.0
8.86900000 0.014477 -168.5 0.999891 -81.28 0.999891 -81.28 0.014476 -174.1
8.86920000 0.014468 -168.5 0.999891 -81.28 0.999891 -81.28 0.014467 -174.1
8.86940000 0.014458 -168.5 0.999891 -81.29 0.999891 -81.29 0.014458 -174.1
8.86960000 0.014449 -168.5 0.999891 -81.29 0.999891 -81.29 0.014448 -174.1
8.86980000 0.014439 -168.5 0.999891 -81.29 0.999891 -81.29 0.014439 -174.1
8.87000000 0.014430 -168.5 0.999891 -81.29 0.999891 -81.29 0.014429 -174.1
8.87020000 0.014420 -168.5 0.999892 -81.30 0.999892 -81.30 0.014420 -174.2
8.87040000 0.014410 -168.4 0.999892 -81.30 0.999892 -81.30 0.014410 -174.2
8.87060000 0.014400 -168.4 0.999892 -81.30 0.999892 -81.30 0.014400 -174.2
8.87080000 0.014390 -168.4 0.999892 -81.30 0.999892 -81.30 0.014390 -174.2
8.87100000 0.014380 -168.4 0.999892 -81.31 0.999892 -81.31 0.014379 -174.2
8.87120000 0.014370 -168.4 0.999892 -81.31 0.999892 -81.31 0.014369 -174.2
8.87140000 0.014359 -168.4 0.999892 -81.31 0.999892 -81.31 0.014358 -174.3
8.87160000 0.014348 -168.4 0.999892 -81.31 0.999892 -81.31 0.014348 -174.3
8.87180000 0.014338 -168.3 0.999893 -81.32 0.999893 -81.32 0.014337 -174.3
8.87200000 0.014327 -168.3 0.999893 -81.32 0.999893 -81.32 0.014326 -174.3
8.87220000 0.014316 -168.3 0.999893 -81.32 0.999893 -81.32 0.014315 -174.3
8.87240000 0.014305 -168.3 0.999893 -81.32 0.999893 -81.32 0.014304 -174.4
8.87260000 0.014294 -168.3 0.999893 -81.33 0.999893 -81.33 0.014293 -174.4
8.87280000 0.014282 -168.3 0.999893 -81.33 0.999893 -81.33 0.014282 -174.4
8.87300000 0.014271 -168.3 0.999894 -81.33 0.999894 -81.33 0.014270 -174.4
8.87320000 0.014259 -168.2 0.999894 -81.33 0.999894 -81.33 0.014258 -174.4
8.87340000 0.014247 -168.2 0.999894 -81.34 0.999894 -81.34 0.014246 -174.5
8.87360000 0.014235 -168.2 0.999894 -81.34 0.999894 -81.34 0.014234 -174.5
8.87380000 0.014223 -168.2 0.999894 -81.34 0.999894 -81.34 0.014222 -174.5
8.87400000 0.014211 -168.2 0.999894 -81.34 0.999894 -81.34 0.014210 -174.5
8.87420000 0.014198 -168.2 0.999894 -81.35 0.999894 -81.35 0.014198 -174.5
8.87440000 0.014186 -168.2 0.999895 -81.35 0.999895 -81.35 0.014185 -174.6
8.87460000 0.014173 -168.1 0.999895 -81.35 0.999895 -81.35 0.014172 -174.6
8.87480000 0.014160 -168.1 0.999895 -81.35 0.999895 -81.35 0.014159 -174.6
8.87490185 0.014153 -168.1 0.999895 -81.36 0.999895 -81.36 0.014152 -174.6
8.87500000 0.014147 -168.1 0.999895 -81.36 0.999895 -81.36 0.014146 -174.6
8.87520000 0.014133 -168.1 0.999895 -81.36 0.999895 -81.36 0.014133 -174.6
8.87540000 0.014120 -168.1 0.999895 -81.36 0.999895 -81.36 0.014119 -174.7
8.87558761 0.014107 -168.0 0.999896 -81.36 0.999896 -81.36 0.014106 -174.7
8.87560000 0.014106 -168.0 0.999896 -81.37 0.999896 -81.37 0.014105 -174.7
8.87580000 0.014092 -168.0 0.999896 -81.37 0.999896 -81.37 0.014092 -174.7
8.87600000 0.014078 -168.0 0.999896 -81.37 0.999896 -81.37 0.014078 -174.7
8.87620000 0.014064 -168.0 0.999896 -81.37 0.999896 -81.37 0.014063 -174.8
8.87625767 0.014060 -168.0 0.999896 -81.37 0.999896 -81.37 0.014059 -174.8
8.87640000 0.014050 -168.0 0.999896 -81.38 0.999896 -81.38 0.014049 -174.8
8.87660000 0.014035 -167.9 0.999897 -81.38 0.999897 -81.38 0.014034 -174.8
8.87680000 0.014020 -167.9 0.999897 -81.38 0.999897 -81.38 0.014019 -174.8
8.87691236 0.014012 -167.9 0.999897 -81.38 0.999897 -81.38 0.014011 -174.9
8.87700000 0.014005 -167.9 0.999897 -81.38 0.999897 -81.38 0.014004 -174.9
8.87720000 0.013990 -167.9 0.999897 -81.39 0.999897 -81.39 0.013989 -174.9
8.87740000 0.013974 -167.9 0.999897 -81.39 0.999897 -81.39 0.013973 -174.9
8.87755206 0.013962 -167.8 0.999897 -81.39 0.999897 -81.39 0.013961 -174.9