! Sonnet Data File
! From: emgraph Version : 16.52
! From Project: Resonator2_extremeCap
! Data is De-embedded 
! Data File Written: 10/10/2017 20:29:22
!< HDATE 10/09/2017 23:04:37
!< MDATE 10/09/2017 23:04:37
!< PARAMS
!< Pwid1 = 2000.0
!< Pwid2 = 2000.0
!< Air_gap = 30.0
!< Width = 50.0
!< Gap = 13.0
!< END PARAMS
# GHZ S MA R 51.80000
8.98000000 0.077828 85.921 0.996921 -94.47 0.996921 -94.47 0.077775 -94.93
!< P1 F=8.98 Eeff=(6.44048327 -2.9689e-5) Z0=(50.406422 1.16291e-4) R=0.0 C=0.0 
!< P2 F=8.98 Eeff=(6.44048327 -2.9689e-5) Z0=(50.406422 1.16291e-4) R=0.0 C=0.0 
8.98010000 0.078004 85.993 0.996907 -94.49 0.996907 -94.49 0.077951 -95.02
8.98020000 0.078180 86.066 0.996893 -94.50 0.996893 -94.50 0.078127 -95.12
8.98030000 0.078358 86.137 0.996879 -94.51 0.996879 -94.51 0.078305 -95.22
8.98040000 0.078536 86.209 0.996865 -94.53 0.996865 -94.53 0.078483 -95.32
8.98050000 0.078715 86.281 0.996851 -94.54 0.996851 -94.54 0.078662 -95.42
8.98060000 0.078895 86.353 0.996836 -94.55 0.996836 -94.55 0.078842 -95.52
8.98070000 0.079076 86.424 0.996822 -94.57 0.996822 -94.57 0.079023 -95.62
8.98080000 0.079258 86.495 0.996807 -94.58 0.996807 -94.58 0.079204 -95.71
8.98090000 0.079440 86.567 0.996792 -94.60 0.996792 -94.60 0.079387 -95.81
8.98100000 0.079624 86.638 0.996778 -94.61 0.996778 -94.61 0.079570 -95.91
8.98110000 0.079808 86.709 0.996763 -94.62 0.996763 -94.62 0.079754 -96.01
8.98120000 0.079993 86.780 0.996748 -94.64 0.996748 -94.64 0.079939 -96.11
8.98130000 0.080179 86.851 0.996733 -94.65 0.996733 -94.65 0.080125 -96.21
8.98140000 0.080366 86.921 0.996717 -94.66 0.996717 -94.66 0.080312 -96.31
8.98150000 0.080554 86.992 0.996702 -94.68 0.996702 -94.68 0.080500 -96.40
8.98160000 0.080743 87.062 0.996687 -94.69 0.996687 -94.69 0.080689 -96.50
8.98170000 0.080932 87.133 0.996671 -94.71 0.996671 -94.71 0.080878 -96.60
8.98180000 0.081123 87.203 0.996655 -94.72 0.996655 -94.72 0.081069 -96.70
8.98190000 0.081314 87.273 0.996640 -94.73 0.996640 -94.73 0.081260 -96.80
8.98200000 0.081507 87.343 0.996624 -94.75 0.996624 -94.75 0.081453 -96.90
8.98210000 0.081700 87.413 0.996608 -94.76 0.996608 -94.76 0.081646 -96.99
8.98220000 0.081895 87.483 0.996592 -94.78 0.996592 -94.78 0.081840 -97.09
8.98230000 0.082090 87.553 0.996575 -94.79 0.996575 -94.79 0.082035 -97.19
8.98240000 0.082286 87.622 0.996559 -94.80 0.996559 -94.80 0.082231 -97.29
8.98250000 0.082483 87.691 0.996542 -94.82 0.996542 -94.82 0.082428 -97.39
8.98260000 0.082681 87.761 0.996526 -94.83 0.996526 -94.83 0.082626 -97.49
8.98270000 0.082880 87.830 0.996509 -94.85 0.996509 -94.85 0.082825 -97.58
8.98280000 0.083080 87.899 0.996492 -94.86 0.996492 -94.86 0.083025 -97.68
8.98290000 0.083281 87.968 0.996475 -94.88 0.996475 -94.88 0.083226 -97.78
8.98300000 0.083483 88.037 0.996458 -94.89 0.996458 -94.89 0.083428 -97.88
8.98310000 0.083686 88.106 0.996441 -94.91 0.996441 -94.91 0.083631 -97.98
8.98320000 0.083890 88.174 0.996424 -94.92 0.996424 -94.92 0.083835 -98.08
8.98330000 0.084095 88.243 0.996406 -94.94 0.996406 -94.94 0.084039 -98.17
8.98340000 0.084301 88.311 0.996389 -94.95 0.996389 -94.95 0.084245 -98.27
8.98350000 0.084507 88.379 0.996371 -94.97 0.996371 -94.97 0.084452 -98.37
8.98360000 0.084715 88.447 0.996353 -94.98 0.996353 -94.98 0.084660 -98.47
8.98370000 0.084924 88.515 0.996335 -95.00 0.996335 -95.00 0.084869 -98.57
8.98380000 0.085134 88.583 0.996317 -95.01 0.996317 -95.01 0.085078 -98.66
8.98390000 0.085345 88.651 0.996299 -95.03 0.996299 -95.03 0.085289 -98.76
8.98400000 0.085557 88.718 0.996280 -95.04 0.996280 -95.04 0.085501 -98.86
8.98410000 0.085770 88.786 0.996262 -95.06 0.996262 -95.06 0.085714 -98.96
8.98420000 0.085984 88.853 0.996243 -95.07 0.996243 -95.07 0.085928 -99.06
8.98430000 0.086199 88.920 0.996224 -95.09 0.996224 -95.09 0.086143 -99.15
8.98440000 0.086415 88.987 0.996205 -95.10 0.996205 -95.10 0.086359 -99.25
8.98450000 0.086633 89.054 0.996186 -95.12 0.996186 -95.12 0.086576 -99.35
8.98460000 0.086851 89.121 0.996167 -95.13 0.996167 -95.13 0.086795 -99.45
8.98470000 0.087070 89.188 0.996148 -95.15 0.996148 -95.15 0.087014 -99.55
8.98480000 0.087291 89.254 0.996128 -95.17 0.996128 -95.17 0.087234 -99.65
8.98490000 0.087512 89.321 0.996109 -95.18 0.996109 -95.18 0.087456 -99.74
8.98500000 0.087735 89.387 0.996089 -95.20 0.996089 -95.20 0.087678 -99.84
8.98510000 0.087959 89.453 0.996069 -95.21 0.996069 -95.21 0.087902 -99.94
8.98520000 0.088184 89.519 0.996049 -95.23 0.996049 -95.23 0.088127 -100.0
8.98530000 0.088410 89.585 0.996029 -95.24 0.996029 -95.24 0.088353 -100.1
8.98540000 0.088637 89.651 0.996008 -95.26 0.996008 -95.26 0.088580 -100.2
8.98550000 0.088865 89.716 0.995988 -95.28 0.995988 -95.28 0.088808 -100.3
8.98560000 0.089094 89.782 0.995967 -95.29 0.995967 -95.29 0.089037 -100.4
8.98570000 0.089325 89.847 0.995946 -95.31 0.995946 -95.31 0.089268 -100.5
8.98580000 0.089556 89.912 0.995925 -95.33 0.995925 -95.33 0.089499 -100.6
8.98590000 0.089789 89.977 0.995904 -95.34 0.995904 -95.34 0.089732 -100.7
8.98600000 0.090023 90.042 0.995883 -95.36 0.995883 -95.36 0.089966 -100.8
8.98610000 0.090258 90.107 0.995861 -95.37 0.995861 -95.37 0.090201 -100.9
8.98620000 0.090495 90.172 0.995839 -95.39 0.995839 -95.39 0.090437 -101.0
8.98630000 0.090732 90.236 0.995817 -95.41 0.995817 -95.41 0.090674 -101.1
8.98640000 0.090971 90.300 0.995795 -95.42 0.995795 -95.42 0.090913 -101.2
8.98650000 0.091211 90.364 0.995773 -95.44 0.995773 -95.44 0.091153 -101.3
8.98660000 0.091452 90.429 0.995751 -95.46 0.995751 -95.46 0.091394 -101.4
8.98670000 0.091694 90.492 0.995728 -95.47 0.995728 -95.47 0.091636 -101.5
8.98680000 0.091938 90.556 0.995706 -95.49 0.995706 -95.49 0.091879 -101.6
8.98690000 0.092182 90.620 0.995683 -95.51 0.995683 -95.51 0.092124 -101.7
8.98700000 0.092428 90.683 0.995660 -95.53 0.995660 -95.53 0.092370 -101.8
8.98710000 0.092676 90.747 0.995637 -95.54 0.995637 -95.54 0.092617 -101.9
8.98720000 0.092924 90.810 0.995613 -95.56 0.995613 -95.56 0.092865 -102.0
8.98730000 0.093174 90.873 0.995590 -95.58 0.995590 -95.58 0.093115 -102.1
8.98740000 0.093425 90.936 0.995566 -95.59 0.995566 -95.59 0.093366 -102.2
8.98750000 0.093677 90.998 0.995542 -95.61 0.995542 -95.61 0.093618 -102.3
8.98760000 0.093931 91.061 0.995518 -95.63 0.995518 -95.63 0.093872 -102.4
8.98770000 0.094185 91.123 0.995493 -95.65 0.995493 -95.65 0.094126 -102.5
8.98780000 0.094442 91.186 0.995469 -95.67 0.995469 -95.67 0.094382 -102.6
8.98790000 0.094699 91.248 0.995444 -95.68 0.995444 -95.68 0.094640 -102.7
8.98800000 0.094958 91.310 0.995419 -95.70 0.995419 -95.70 0.094898 -102.8
8.98810000 0.095218 91.371 0.995394 -95.72 0.995394 -95.72 0.095158 -102.9
8.98820000 0.095479 91.433 0.995369 -95.74 0.995369 -95.74 0.095420 -103.0
8.98830000 0.095742 91.495 0.995343 -95.75 0.995343 -95.75 0.095682 -103.1
8.98840000 0.096006 91.556 0.995318 -95.77 0.995318 -95.77 0.095947 -103.2
8.98850000 0.096272 91.617 0.995292 -95.79 0.995292 -95.79 0.096212 -103.3
8.98860000 0.096539 91.678 0.995266 -95.81 0.995266 -95.81 0.096479 -103.4
8.98870000 0.096807 91.739 0.995239 -95.83 0.995239 -95.83 0.096747 -103.5
8.98880000 0.097076 91.800 0.995213 -95.85 0.995213 -95.85 0.097016 -103.6
8.98890000 0.097347 91.860 0.995186 -95.86 0.995186 -95.86 0.097287 -103.7
8.98900000 0.097620 91.921 0.995159 -95.88 0.995159 -95.88 0.097559 -103.8
8.98910000 0.097894 91.981 0.995132 -95.90 0.995132 -95.90 0.097833 -103.9
8.98920000 0.098169 92.041 0.995104 -95.92 0.995104 -95.92 0.098108 -103.9
8.98930000 0.098445 92.101 0.995077 -95.94 0.995077 -95.94 0.098385 -104.0
8.98940000 0.098724 92.161 0.995049 -95.96 0.995049 -95.96 0.098663 -104.1
8.98950000 0.099003 92.220 0.995021 -95.98 0.995021 -95.98 0.098942 -104.2
8.98960000 0.099284 92.279 0.994993 -96.00 0.994993 -96.00 0.099223 -104.3
8.98970000 0.099567 92.339 0.994964 -96.02 0.994964 -96.02 0.099506 -104.4
8.98980000 0.099850 92.398 0.994935 -96.03 0.994935 -96.03 0.099789 -104.5
8.98990000 0.100136 92.457 0.994906 -96.05 0.994906 -96.05 0.100075 -104.6
8.99000000 0.100423 92.515 0.994877 -96.07 0.994877 -96.07 0.100362 -104.7
8.99010000 0.100711 92.574 0.994848 -96.09 0.994848 -96.09 0.100650 -104.8
8.99020000 0.101001 92.632 0.994818 -96.11 0.994818 -96.11 0.100940 -104.9
8.99030000 0.101293 92.691 0.994788 -96.13 0.994788 -96.13 0.101231 -105.0
8.99040000 0.101586 92.749 0.994758 -96.15 0.994758 -96.15 0.101524 -105.1
8.99050000 0.101880 92.807 0.994728 -96.17 0.994728 -96.17 0.101818 -105.2
8.99060000 0.102176 92.864 0.994697 -96.19 0.994697 -96.19 0.102114 -105.3
8.99070000 0.102474 92.922 0.994666 -96.21 0.994666 -96.21 0.102412 -105.4
8.99080000 0.102773 92.979 0.994635 -96.23 0.994635 -96.23 0.102711 -105.5
8.99090000 0.103074 93.037 0.994603 -96.25 0.994603 -96.25 0.103012 -105.6
8.99100000 0.103377 93.094 0.994572 -96.27 0.994572 -96.27 0.103314 -105.7
8.99110000 0.103681 93.150 0.994540 -96.29 0.994540 -96.29 0.103618 -105.8
8.99120000 0.103986 93.207 0.994507 -96.31 0.994507 -96.31 0.103924 -105.9
8.99130000 0.104294 93.264 0.994475 -96.33 0.994475 -96.33 0.104231 -106.0
8.99140000 0.104603 93.320 0.994442 -96.35 0.994442 -96.35 0.104540 -106.1
8.99150000 0.104913 93.376 0.994409 -96.37 0.994409 -96.37 0.104850 -106.2
8.99160000 0.105226 93.432 0.994376 -96.40 0.994376 -96.40 0.105163 -106.3
8.99170000 0.105540 93.488 0.994342 -96.42 0.994342 -96.42 0.105476 -106.4
8.99180000 0.105855 93.543 0.994308 -96.44 0.994308 -96.44 0.105792 -106.5
8.99190000 0.106173 93.599 0.994274 -96.46 0.994274 -96.46 0.106109 -106.6
8.99200000 0.106492 93.654 0.994240 -96.48 0.994240 -96.48 0.106428 -106.7
8.99210000 0.106812 93.709 0.994205 -96.50 0.994205 -96.50 0.106749 -106.8
8.99220000 0.107135 93.764 0.994170 -96.52 0.994170 -96.52 0.107071 -106.9
8.99230000 0.107459 93.819 0.994134 -96.54 0.994134 -96.54 0.107396 -107.0
8.99240000 0.107785 93.873 0.994099 -96.57 0.994099 -96.57 0.107721 -107.1
8.99250000 0.108113 93.927 0.994063 -96.59 0.994063 -96.59 0.108049 -107.2
8.99260000 0.108443 93.982 0.994027 -96.61 0.994027 -96.61 0.108379 -107.3
8.99270000 0.108774 94.035 0.993990 -96.63 0.993990 -96.63 0.108710 -107.4
8.99280000 0.109107 94.089 0.993953 -96.65 0.993953 -96.65 0.109043 -107.5
8.99290000 0.109442 94.143 0.993916 -96.67 0.993916 -96.67 0.109378 -107.6
8.99300000 0.109779 94.196 0.993878 -96.70 0.993878 -96.70 0.109715 -107.7
8.99310000 0.110118 94.249 0.993841 -96.72 0.993841 -96.72 0.110053 -107.8
8.99320000 0.110459 94.302 0.993802 -96.74 0.993802 -96.74 0.110394 -107.9
8.99330000 0.110801 94.355 0.993764 -96.76 0.993764 -96.76 0.110736 -108.0
8.99340000 0.111145 94.408 0.993725 -96.79 0.993725 -96.79 0.111080 -108.1
8.99350000 0.111492 94.460 0.993686 -96.81 0.993686 -96.81 0.111427 -108.2
8.99360000 0.111840 94.512 0.993646 -96.83 0.993646 -96.83 0.111775 -108.3
8.99370000 0.112190 94.564 0.993607 -96.86 0.993607 -96.86 0.112125 -108.4
8.99380000 0.112542 94.616 0.993566 -96.88 0.993566 -96.88 0.112477 -108.4
8.99390000 0.112896 94.668 0.993526 -96.90 0.993526 -96.90 0.112831 -108.5
8.99400000 0.113252 94.719 0.993485 -96.93 0.993485 -96.93 0.113186 -108.6
8.99410000 0.113610 94.770 0.993444 -96.95 0.993444 -96.95 0.113544 -108.7
8.99420000 0.113970 94.821 0.993402 -96.97 0.993402 -96.97 0.113904 -108.8
8.99430000 0.114332 94.872 0.993360 -97.00 0.993360 -97.00 0.114266 -108.9
8.99440000 0.114696 94.922 0.993318 -97.02 0.993318 -97.02 0.114630 -109.0
8.99450000 0.115062 94.973 0.993275 -97.04 0.993275 -97.04 0.114996 -109.1
8.99460000 0.115430 95.023 0.993232 -97.07 0.993232 -97.07 0.115364 -109.2
8.99470000 0.115801 95.073 0.993188 -97.09 0.993188 -97.09 0.115734 -109.3
8.99480000 0.116173 95.123 0.993144 -97.12 0.993144 -97.12 0.116106 -109.4
8.99490000 0.116547 95.172 0.993100 -97.14 0.993100 -97.14 0.116481 -109.5
8.99500000 0.116924 95.222 0.993055 -97.16 0.993055 -97.16 0.116857 -109.6
8.99510000 0.117303 95.271 0.993010 -97.19 0.993010 -97.19 0.117236 -109.7
8.99520000 0.117684 95.320 0.992965 -97.21 0.992965 -97.21 0.117616 -109.8
8.99530000 0.118067 95.368 0.992919 -97.24 0.992919 -97.24 0.117999 -109.9
8.99540000 0.118452 95.417 0.992873 -97.26 0.992873 -97.26 0.118384 -110.0
8.99550000 0.118839 95.465 0.992826 -97.29 0.992826 -97.29 0.118772 -110.1
8.99560000 0.119229 95.513 0.992779 -97.31 0.992779 -97.31 0.119161 -110.2
8.99570000 0.119621 95.561 0.992731 -97.34 0.992731 -97.34 0.119553 -110.3
8.99580000 0.120015 95.608 0.992683 -97.36 0.992683 -97.36 0.119947 -110.4
8.99590000 0.120411 95.656 0.992635 -97.39 0.992635 -97.39 0.120343 -110.5
8.99600000 0.120810 95.703 0.992586 -97.42 0.992586 -97.42 0.120742 -110.6
8.99610000 0.121211 95.750 0.992536 -97.44 0.992536 -97.44 0.121143 -110.7
8.99620000 0.121615 95.797 0.992486 -97.47 0.992486 -97.47 0.121546 -110.8
8.99630000 0.122020 95.843 0.992436 -97.49 0.992436 -97.49 0.121952 -110.9
8.99640000 0.122428 95.889 0.992385 -97.52 0.992385 -97.52 0.122360 -111.0
8.99650000 0.122839 95.936 0.992334 -97.55 0.992334 -97.55 0.122770 -111.1
8.99660000 0.123252 95.981 0.992283 -97.57 0.992283 -97.57 0.123183 -111.2
8.99670000 0.123667 96.027 0.992230 -97.60 0.992230 -97.60 0.123598 -111.3
8.99680000 0.124085 96.072 0.992178 -97.63 0.992178 -97.63 0.124015 -111.4
8.99690000 0.124505 96.117 0.992125 -97.65 0.992125 -97.65 0.124435 -111.5
8.99700000 0.124928 96.162 0.992071 -97.68 0.992071 -97.68 0.124858 -111.6
8.99710000 0.125353 96.207 0.992017 -97.71 0.992017 -97.71 0.125283 -111.7
8.99720000 0.125780 96.251 0.991962 -97.74 0.991962 -97.74 0.125711 -111.8
8.99730000 0.126211 96.296 0.991907 -97.76 0.991907 -97.76 0.126141 -111.9
8.99740000 0.126643 96.339 0.991851 -97.79 0.991851 -97.79 0.126573 -112.0
8.99750000 0.127079 96.383 0.991795 -97.82 0.991795 -97.82 0.127008 -112.1
8.99760000 0.127517 96.427 0.991738 -97.85 0.991738 -97.85 0.127446 -112.2
8.99770000 0.127957 96.470 0.991681 -97.87 0.991681 -97.87 0.127887 -112.3
8.99780000 0.128400 96.513 0.991623 -97.90 0.991623 -97.90 0.128330 -112.4
8.99790000 0.128846 96.556 0.991565 -97.93 0.991565 -97.93 0.128775 -112.5
8.99800000 0.129295 96.598 0.991506 -97.96 0.991506 -97.96 0.129224 -112.6
8.99810000 0.129746 96.640 0.991447 -97.99 0.991447 -97.99 0.129675 -112.7
8.99820000 0.130200 96.682 0.991387 -98.02 0.991387 -98.02 0.130129 -112.8
8.99830000 0.130657 96.724 0.991326 -98.05 0.991326 -98.05 0.130585 -112.9
8.99840000 0.131116 96.766 0.991265 -98.08 0.991265 -98.08 0.131045 -113.0
8.99850000 0.131579 96.807 0.991203 -98.11 0.991203 -98.11 0.131507 -113.1
8.99860000 0.132044 96.848 0.991140 -98.14 0.991140 -98.14 0.131972 -113.2
8.99870000 0.132512 96.888 0.991077 -98.16 0.991077 -98.16 0.132440 -113.3
8.99880000 0.132982 96.929 0.991014 -98.19 0.991014 -98.19 0.132910 -113.4
8.99890000 0.133456 96.969 0.990949 -98.22 0.990949 -98.22 0.133384 -113.5
8.99900000 0.133933 97.009 0.990885 -98.26 0.990885 -98.26 0.133860 -113.6
8.99910000 0.134412 97.049 0.990819 -98.29 0.990819 -98.29 0.134340 -113.7
8.99920000 0.134895 97.088 0.990753 -98.32 0.990753 -98.32 0.134822 -113.8
8.99930000 0.135380 97.127 0.990686 -98.35 0.990686 -98.35 0.135307 -113.9
8.99940000 0.135869 97.166 0.990619 -98.38 0.990619 -98.38 0.135796 -114.0
8.99950000 0.136360 97.205 0.990550 -98.41 0.990550 -98.41 0.136287 -114.1
8.99960000 0.136855 97.243 0.990482 -98.44 0.990482 -98.44 0.136781 -114.2
8.99970000 0.137353 97.281 0.990412 -98.47 0.990412 -98.47 0.137279 -114.3
8.99980000 0.137853 97.319 0.990342 -98.50 0.990342 -98.50 0.137780 -114.4
8.99990000 0.138357 97.357 0.990271 -98.53 0.990271 -98.53 0.138283 -114.5
9.00000000 0.138864 97.394 0.990199 -98.57 0.990199 -98.57 0.138790 -114.6
9.00010000 0.139375 97.431 0.990127 -98.60 0.990127 -98.60 0.139301 -114.7
9.00020000 0.139888 97.468 0.990054 -98.63 0.990054 -98.63 0.139814 -114.8
9.00030000 0.140405 97.504 0.989980 -98.66 0.989980 -98.66 0.140330 -114.9
9.00040000 0.140925 97.540 0.989905 -98.70 0.989905 -98.70 0.140850 -115.0
9.00050000 0.141448 97.576 0.989830 -98.73 0.989830 -98.73 0.141374 -115.1
9.00060000 0.141975 97.612 0.989754 -98.76 0.989754 -98.76 0.141900 -115.2
9.00070000 0.142505 97.647 0.989677 -98.80 0.989677 -98.80 0.142430 -115.3
9.00080000 0.143039 97.682 0.989600 -98.83 0.989600 -98.83 0.142963 -115.4
9.00090000 0.143576 97.717 0.989521 -98.86 0.989521 -98.86 0.143500 -115.5
9.00100000 0.144116 97.751 0.989442 -98.90 0.989442 -98.90 0.144040 -115.6
9.00110000 0.144660 97.785 0.989362 -98.93 0.989362 -98.93 0.144584 -115.7
9.00120000 0.145207 97.819 0.989281 -98.97 0.989281 -98.97 0.145131 -115.8
9.00130000 0.145758 97.853 0.989199 -99.00 0.989199 -99.00 0.145682 -115.9
9.00140000 0.146312 97.886 0.989117 -99.03 0.989117 -99.03 0.146236 -116.0
9.00150000 0.146870 97.919 0.989033 -99.07 0.989033 -99.07 0.146794 -116.2
9.00160000 0.147432 97.952 0.988949 -99.10 0.988949 -99.10 0.147355 -116.3
9.00170000 0.147997 97.984 0.988864 -99.14 0.988864 -99.14 0.147920 -116.4
9.00180000 0.148566 98.016 0.988777 -99.18 0.988777 -99.18 0.148489 -116.5
9.00190000 0.149139 98.048 0.988690 -99.21 0.988690 -99.21 0.149062 -116.6
9.00200000 0.149716 98.079 0.988603 -99.25 0.988603 -99.25 0.149638 -116.7
9.00210000 0.150296 98.110 0.988514 -99.28 0.988514 -99.28 0.150219 -116.8
9.00220000 0.150880 98.141 0.988424 -99.32 0.988424 -99.32 0.150803 -116.9
9.00230000 0.151469 98.171 0.988333 -99.36 0.988333 -99.36 0.151391 -117.0
9.00240000 0.152061 98.202 0.988241 -99.39 0.988241 -99.39 0.151982 -117.1
9.00250000 0.152657 98.231 0.988149 -99.43 0.988149 -99.43 0.152578 -117.2
9.00260000 0.153257 98.261 0.988055 -99.47 0.988055 -99.47 0.153178 -117.3
9.00270000 0.153861 98.290 0.987960 -99.51 0.987960 -99.51 0.153782 -117.4
9.00280000 0.154469 98.319 0.987865 -99.54 0.987865 -99.54 0.154390 -117.5
9.00290000 0.155081 98.347 0.987768 -99.58 0.987768 -99.58 0.155002 -117.6
9.00300000 0.155697 98.375 0.987670 -99.62 0.987670 -99.62 0.155618 -117.7
9.00310000 0.156317 98.403 0.987571 -99.66 0.987571 -99.66 0.156238 -117.8
9.00320000 0.156942 98.431 0.987471 -99.70 0.987471 -99.70 0.156862 -117.9
9.00330000 0.157571 98.458 0.987370 -99.74 0.987370 -99.74 0.157491 -118.0
9.00340000 0.158204 98.485 0.987268 -99.78 0.987268 -99.78 0.158124 -118.1
9.00350000 0.158842 98.511 0.987165 -99.82 0.987165 -99.82 0.158761 -118.2
9.00360000 0.159484 98.537 0.987060 -99.85 0.987060 -99.85 0.159403 -118.3
9.00370000 0.160130 98.563 0.986955 -99.89 0.986955 -99.89 0.160049 -118.5
9.00380000 0.160781 98.588 0.986848 -99.94 0.986848 -99.94 0.160700 -118.6
9.00390000 0.161436 98.613 0.986740 -99.98 0.986740 -99.98 0.161355 -118.7
9.00400000 0.162096 98.638 0.986631 -100.0 0.986631 -100.0 0.162015 -118.8
9.00410000 0.162760 98.662 0.986521 -100.1 0.986521 -100.1 0.162679 -118.9
9.00420000 0.163430 98.686 0.986409 -100.1 0.986409 -100.1 0.163348 -119.0
9.00430000 0.164103 98.710 0.986296 -100.1 0.986296 -100.1 0.164021 -119.1
9.00440000 0.164782 98.733 0.986182 -100.2 0.986182 -100.2 0.164700 -119.2
9.00450000 0.165465 98.756 0.986067 -100.2 0.986067 -100.2 0.165383 -119.3
9.00460000 0.166153 98.779 0.985950 -100.3 0.985950 -100.3 0.166070 -119.4
9.00470000 0.166846 98.801 0.985832 -100.3 0.985832 -100.3 0.166763 -119.5
9.00480000 0.167544 98.822 0.985713 -100.4 0.985713 -100.4 0.167461 -119.6
9.00490000 0.168247 98.844 0.985592 -100.4 0.985592 -100.4 0.168163 -119.7
9.00500000 0.168954 98.865 0.985470 -100.4 0.985470 -100.4 0.168871 -119.8
9.00510000 0.169667 98.885 0.985346 -100.5 0.985346 -100.5 0.169583 -120.0
9.00520000 0.170385 98.905 0.985221 -100.5 0.985221 -100.5 0.170301 -120.1
9.00530000 0.171108 98.925 0.985095 -100.6 0.985095 -100.6 0.171024 -120.2
9.00540000 0.171837 98.945 0.984967 -100.6 0.984967 -100.6 0.171752 -120.3
9.00550000 0.172570 98.964 0.984838 -100.7 0.984838 -100.7 0.172486 -120.4
9.00560000 0.173309 98.982 0.984707 -100.7 0.984707 -100.7 0.173224 -120.5
9.00570000 0.174053 99.000 0.984574 -100.8 0.984574 -100.8 0.173968 -120.6
9.00580000 0.174803 99.018 0.984441 -100.8 0.984441 -100.8 0.174718 -120.7
9.00590000 0.175558 99.035 0.984305 -100.8 0.984305 -100.8 0.175473 -120.8
9.00600000 0.176319 99.052 0.984168 -100.9 0.984168 -100.9 0.176233 -120.9
9.00610000 0.177085 99.069 0.984029 -100.9 0.984029 -100.9 0.176999 -121.1
9.00620000 0.177857 99.085 0.983889 -101.0 0.983889 -101.0 0.177771 -121.2
9.00630000 0.178635 99.101 0.983747 -101.0 0.983747 -101.0 0.178548 -121.3
9.00640000 0.179418 99.116 0.983603 -101.1 0.983603 -101.1 0.179332 -121.4
9.00650000 0.180208 99.130 0.983457 -101.1 0.983457 -101.1 0.180121 -121.5
9.00660000 0.181003 99.145 0.983310 -101.2 0.983310 -101.2 0.180916 -121.6
9.00670000 0.181804 99.159 0.983161 -101.2 0.983161 -101.2 0.181716 -121.7
9.00680000 0.182611 99.172 0.983010 -101.3 0.983010 -101.3 0.182523 -121.8
9.00690000 0.183424 99.185 0.982857 -101.3 0.982857 -101.3 0.183336 -122.0
9.00700000 0.184244 99.198 0.982703 -101.4 0.982703 -101.4 0.184155 -122.1
9.00710000 0.185069 99.210 0.982546 -101.4 0.982546 -101.4 0.184981 -122.2
9.00720000 0.185901 99.221 0.982388 -101.5 0.982388 -101.5 0.185812 -122.3
9.00730000 0.186739 99.233 0.982228 -101.5 0.982228 -101.5 0.186650 -122.4
9.00740000 0.187583 99.243 0.982066 -101.6 0.982066 -101.6 0.187494 -122.5
9.00750000 0.188435 99.253 0.981901 -101.6 0.981901 -101.6 0.188345 -122.6
9.00760000 0.189292 99.263 0.981735 -101.7 0.981735 -101.7 0.189202 -122.8
9.00770000 0.190156 99.272 0.981566 -101.7 0.981566 -101.7 0.190066 -122.9
9.00780000 0.191027 99.281 0.981396 -101.8 0.981396 -101.8 0.190937 -123.0
9.00790000 0.191905 99.289 0.981223 -101.8 0.981223 -101.8 0.191814 -123.1
9.00800000 0.192789 99.297 0.981048 -101.9 0.981048 -101.9 0.192698 -123.2
9.00810000 0.193680 99.304 0.980871 -102.0 0.980871 -102.0 0.193589 -123.3
9.00820000 0.194579 99.311 0.980692 -102.0 0.980692 -102.0 0.194487 -123.5
9.00830000 0.195484 99.317 0.980511 -102.1 0.980511 -102.1 0.195392 -123.6
9.00840000 0.196397 99.323 0.980327 -102.1 0.980327 -102.1 0.196305 -123.7
9.00850000 0.197316 99.328 0.980140 -102.2 0.980140 -102.2 0.197224 -123.8
9.00860000 0.198243 99.333 0.979952 -102.2 0.979952 -102.2 0.198151 -123.9
9.00870000 0.199178 99.337 0.979761 -102.3 0.979761 -102.3 0.199085 -124.0
9.00880000 0.200120 99.341 0.979567 -102.4 0.979567 -102.4 0.200026 -124.2
9.00890000 0.201069 99.344 0.979371 -102.4 0.979371 -102.4 0.200976 -124.3
9.00900000 0.202026 99.346 0.979173 -102.5 0.979173 -102.5 0.201932 -124.4
9.00910000 0.202991 99.348 0.978971 -102.5 0.978971 -102.5 0.202897 -124.5
9.00920000 0.203963 99.350 0.978768 -102.6 0.978768 -102.6 0.203869 -124.6
9.00930000 0.204943 99.350 0.978561 -102.6 0.978561 -102.6 0.204849 -124.8
9.00940000 0.205932 99.351 0.978352 -102.7 0.978352 -102.7 0.205837 -124.9
9.00950000 0.206928 99.350 0.978140 -102.8 0.978140 -102.8 0.206833 -125.0
9.00960000 0.207933 99.350 0.977925 -102.8 0.977925 -102.8 0.207837 -125.1
9.00970000 0.208946 99.348 0.977708 -102.9 0.977708 -102.9 0.208850 -125.3
9.00980000 0.209967 99.346 0.977487 -103.0 0.977487 -103.0 0.209871 -125.4
9.00990000 0.210996 99.343 0.977263 -103.0 0.977263 -103.0 0.210900 -125.5
9.01000000 0.212035 99.340 0.977037 -103.1 0.977037 -103.1 0.211938 -125.6
9.01010000 0.213081 99.336 0.976807 -103.1 0.976807 -103.1 0.212984 -125.7
9.01020000 0.214137 99.332 0.976574 -103.2 0.976574 -103.2 0.214040 -125.9
9.01030000 0.215201 99.327 0.976339 -103.3 0.976339 -103.3 0.215104 -126.0
9.01040000 0.216275 99.321 0.976099 -103.3 0.976099 -103.3 0.216177 -126.1
9.01050000 0.217357 99.315 0.975857 -103.4 0.975857 -103.4 0.217259 -126.2
9.01060000 0.218449 99.308 0.975611 -103.5 0.975611 -103.5 0.218350 -126.4
9.01070000 0.219549 99.300 0.975362 -103.5 0.975362 -103.5 0.219451 -126.5
9.01080000 0.220660 99.292 0.975110 -103.6 0.975110 -103.6 0.220560 -126.6
9.01090000 0.221779 99.283 0.974853 -103.7 0.974853 -103.7 0.221680 -126.8
9.01100000 0.222909 99.273 0.974594 -103.7 0.974594 -103.7 0.222809 -126.9
9.01110000 0.224048 99.263 0.974330 -103.8 0.974330 -103.8 0.223947 -127.0
9.01120000 0.225197 99.252 0.974063 -103.9 0.974063 -103.9 0.225096 -127.1
9.01130000 0.226355 99.240 0.973793 -104.0 0.973793 -104.0 0.226254 -127.3
9.01140000 0.227524 99.228 0.973518 -104.0 0.973518 -104.0 0.227423 -127.4
9.01150000 0.228703 99.215 0.973239 -104.1 0.973239 -104.1 0.228602 -127.5
9.01160000 0.229893 99.201 0.972957 -104.2 0.972957 -104.2 0.229791 -127.7
9.01170000 0.231093 99.186 0.972670 -104.2 0.972670 -104.2 0.230990 -127.8
9.01180000 0.232303 99.171 0.972380 -104.3 0.972380 -104.3 0.232200 -127.9
9.01190000 0.233524 99.155 0.972085 -104.4 0.972085 -104.4 0.233421 -128.1
9.01200000 0.234756 99.138 0.971786 -104.5 0.971786 -104.5 0.234653 -128.2
9.01210000 0.235999 99.121 0.971482 -104.5 0.971482 -104.5 0.235895 -128.3
9.01220000 0.237253 99.102 0.971174 -104.6 0.971174 -104.6 0.237149 -128.5
9.01230000 0.238519 99.083 0.970862 -104.7 0.970862 -104.7 0.238414 -128.6
9.01240000 0.239795 99.063 0.970545 -104.8 0.970545 -104.8 0.239690 -128.7
9.01250000 0.241084 99.043 0.970223 -104.8 0.970223 -104.8 0.240978 -128.9
9.01260000 0.242384 99.021 0.969896 -104.9 0.969896 -104.9 0.242278 -129.0
9.01270000 0.243696 98.999 0.969565 -105.0 0.969565 -105.0 0.243589 -129.1
9.01280000 0.245019 98.976 0.969229 -105.1 0.969229 -105.1 0.244913 -129.3
9.01290000 0.246355 98.952 0.968887 -105.2 0.968887 -105.2 0.246248 -129.4
9.01300000 0.247704 98.927 0.968541 -105.3 0.968541 -105.3 0.247596 -129.6
9.01310000 0.249064 98.902 0.968189 -105.3 0.968189 -105.3 0.248956 -129.7
9.01320000 0.250437 98.875 0.967832 -105.4 0.967832 -105.4 0.250329 -129.8
9.01330000 0.251824 98.848 0.967469 -105.5 0.967469 -105.5 0.251715 -130.0
9.01340000 0.253223 98.819 0.967101 -105.6 0.967101 -105.6 0.253113 -130.1
9.01350000 0.254635 98.790 0.966728 -105.7 0.966728 -105.7 0.254525 -130.3
9.01360000 0.256060 98.760 0.966348 -105.8 0.966348 -105.8 0.255950 -130.4
9.01370000 0.257499 98.729 0.965963 -105.8 0.965963 -105.8 0.257389 -130.6
9.01380000 0.258951 98.697 0.965571 -105.9 0.965571 -105.9 0.258841 -130.7
9.01390000 0.260418 98.665 0.965174 -106.0 0.965174 -106.0 0.260306 -130.9
9.01400000 0.261898 98.631 0.964770 -106.1 0.964770 -106.1 0.261786 -131.0
9.01410000 0.263392 98.596 0.964360 -106.2 0.964360 -106.2 0.263280 -131.2
9.01420000 0.264901 98.560 0.963943 -106.3 0.963943 -106.3 0.264789 -131.3
9.01430000 0.266425 98.524 0.963520 -106.4 0.963520 -106.4 0.266312 -131.5
9.01440000 0.267963 98.486 0.963090 -106.5 0.963090 -106.5 0.267849 -131.6
9.01450000 0.269516 98.447 0.962653 -106.6 0.962653 -106.6 0.269402 -131.8
9.01460000 0.271084 98.407 0.962209 -106.7 0.962209 -106.7 0.270970 -131.9
9.01470000 0.272668 98.367 0.961758 -106.8 0.961758 -106.8 0.272553 -132.1
9.01480000 0.274267 98.325 0.961300 -106.9 0.961300 -106.9 0.274151 -132.2
9.01490000 0.275882 98.282 0.960834 -107.0 0.960834 -107.0 0.275766 -132.4
9.01500000 0.277513 98.238 0.960361 -107.1 0.960361 -107.1 0.277396 -132.5
9.01510000 0.279160 98.193 0.959880 -107.2 0.959880 -107.2 0.279043 -132.7
9.01520000 0.280823 98.146 0.959390 -107.3 0.959390 -107.3 0.280706 -132.8
9.01530000 0.282504 98.099 0.958893 -107.4 0.958893 -107.4 0.282386 -133.0
9.01540000 0.284201 98.050 0.958388 -107.5 0.958388 -107.5 0.284082 -133.2
9.01550000 0.285915 98.001 0.957874 -107.6 0.957874 -107.6 0.285796 -133.3
9.01560000 0.287647 97.950 0.957351 -107.7 0.957351 -107.7 0.287527 -133.5
9.01570000 0.289396 97.898 0.956820 -107.8 0.956820 -107.8 0.289276 -133.6
9.01580000 0.291163 97.844 0.956280 -107.9 0.956280 -107.9 0.291042 -133.8
9.01590000 0.292948 97.790 0.955730 -108.0 0.955730 -108.0 0.292827 -134.0
9.01600000 0.294751 97.734 0.955171 -108.1 0.955171 -108.1 0.294630 -134.1
9.01610000 0.296574 97.677 0.954603 -108.2 0.954603 -108.2 0.296452 -134.3
9.01620000 0.298415 97.619 0.954024 -108.3 0.954024 -108.3 0.298292 -134.5
9.01630000 0.300275 97.559 0.953436 -108.5 0.953436 -108.5 0.300152 -134.6
9.01640000 0.302154 97.498 0.952837 -108.6 0.952837 -108.6 0.302031 -134.8
9.01650000 0.304053 97.436 0.952229 -108.7 0.952229 -108.7 0.303929 -135.0
9.01660000 0.305973 97.372 0.951609 -108.8 0.951609 -108.8 0.305848 -135.2
9.01670000 0.307912 97.307 0.950978 -108.9 0.950978 -108.9 0.307787 -135.3
9.01680000 0.309872 97.241 0.950337 -109.0 0.950337 -109.0 0.309746 -135.5
9.01690000 0.311853 97.173 0.949684 -109.2 0.949684 -109.2 0.311726 -135.7
9.01700000 0.313855 97.104 0.949019 -109.3 0.949019 -109.3 0.313728 -135.9
9.01710000 0.315878 97.033 0.948342 -109.4 0.948342 -109.4 0.315751 -136.0
9.01720000 0.317924 96.961 0.947653 -109.5 0.947653 -109.5 0.317795 -136.2
9.01730000 0.319991 96.887 0.946952 -109.7 0.946952 -109.7 0.319862 -136.4
9.01740000 0.322081 96.811 0.946238 -109.8 0.946238 -109.8 0.321951 -136.6
9.01750000 0.324193 96.735 0.945511 -109.9 0.945511 -109.9 0.324063 -136.8
9.01760000 0.326329 96.656 0.944770 -110.1 0.944770 -110.1 0.326198 -137.0
9.01770000 0.328487 96.576 0.944016 -110.2 0.944016 -110.2 0.328356 -137.1
9.01780000 0.330670 96.494 0.943248 -110.3 0.943248 -110.3 0.330538 -137.3
9.01790000 0.332877 96.411 0.942466 -110.5 0.942466 -110.5 0.332744 -137.5
9.01800000 0.335108 96.326 0.941669 -110.6 0.941669 -110.6 0.334974 -137.7
9.01810000 0.337364 96.239 0.940857 -110.7 0.940857 -110.7 0.337230 -137.9
9.01820000 0.339645 96.151 0.940030 -110.9 0.940030 -110.9 0.339510 -138.1
9.01830000 0.341952 96.060 0.939187 -111.0 0.939187 -111.0 0.341816 -138.3
9.01833028 0.342655 96.033 0.938929 -111.1 0.938929 -111.1 0.342519 -138.4
9.01840000 0.344284 95.968 0.938328 -111.2 0.938328 -111.2 0.344148 -138.5
9.01850000 0.346643 95.875 0.937453 -111.3 0.937453 -111.3 0.346506 -138.7
9.01860000 0.349029 95.779 0.936561 -111.5 0.936561 -111.5 0.348891 -138.9
9.01865299 0.350304 95.727 0.936081 -111.5 0.936081 -111.5 0.350166 -139.0
9.01870000 0.351441 95.681 0.935651 -111.6 0.935651 -111.6 0.351303 -139.1
9.01880000 0.353882 95.582 0.934724 -111.8 0.934724 -111.8 0.353743 -139.3
9.01890000 0.356350 95.480 0.933779 -111.9 0.933779 -111.9 0.356210 -139.5
9.01896831 0.358052 95.410 0.933123 -112.0 0.933123 -112.0 0.357912 -139.7