! Sonnet Data File
! From: emgraph Version : 16.52
! From Project: Resonator2_cp_cp
! Data is De-embedded 
! Data File Written: 10/06/2017 09:20:31
!< HDATE 10/05/2017 21:11:40
!< MDATE 10/05/2017 21:11:40
!< PARAMS
!< gap = 56.0
!< Length = 400.0
!< Pwid1 = 2000.0
!< Pwid2 = 2000.0
!< END PARAMS
# GHZ S MA R 51.80000
8.80000000 7.843e-5 -8.152 0.999997 -80.50 0.999997 -80.50 7.993e-5 30.254
!< P1 F=8.8 Eeff=(6.44679989 -2.9721e-5) Z0=(51.7992624 1.19519e-4) R=0.0 C=0.0 
!< P2 F=8.8 Eeff=(6.44679989 -2.9721e-5) Z0=(51.7992624 1.19519e-4) R=0.0 C=0.0 
8.80020000 7.851e-5 -8.158 0.999997 -80.50 0.999997 -80.50 8.001e-5 30.254
8.80040000 7.860e-5 -8.164 0.999997 -80.50 0.999997 -80.50 8.009e-5 30.253
8.80060000 7.868e-5 -8.170 0.999997 -80.50 0.999997 -80.50 8.017e-5 30.252
8.80080000 7.876e-5 -8.176 0.999997 -80.51 0.999997 -80.51 8.025e-5 30.252
8.80100000 7.884e-5 -8.182 0.999997 -80.51 0.999997 -80.51 8.033e-5 30.251
8.80120000 7.892e-5 -8.188 0.999997 -80.51 0.999997 -80.51 8.041e-5 30.250
8.80140000 7.900e-5 -8.194 0.999997 -80.51 0.999997 -80.51 8.050e-5 30.250
8.80160000 7.909e-5 -8.200 0.999997 -80.51 0.999997 -80.51 8.058e-5 30.249
8.80180000 7.917e-5 -8.206 0.999997 -80.52 0.999997 -80.52 8.066e-5 30.248
8.80200000 7.925e-5 -8.212 0.999997 -80.52 0.999997 -80.52 8.075e-5 30.248
8.80220000 7.934e-5 -8.219 0.999997 -80.52 0.999997 -80.52 8.083e-5 30.247
8.80240000 7.942e-5 -8.225 0.999997 -80.52 0.999997 -80.52 8.091e-5 30.247
8.80260000 7.950e-5 -8.231 0.999997 -80.52 0.999997 -80.52 8.100e-5 30.246
8.80280000 7.959e-5 -8.237 0.999997 -80.52 0.999997 -80.52 8.108e-5 30.246
8.80300000 7.967e-5 -8.244 0.999997 -80.53 0.999997 -80.53 8.116e-5 30.245
8.80320000 7.976e-5 -8.250 0.999997 -80.53 0.999997 -80.53 8.125e-5 30.245
8.80340000 7.984e-5 -8.256 0.999997 -80.53 0.999997 -80.53 8.133e-5 30.244
8.80360000 7.992e-5 -8.263 0.999997 -80.53 0.999997 -80.53 8.142e-5 30.244
8.80380000 8.001e-5 -8.269 0.999997 -80.53 0.999997 -80.53 8.150e-5 30.243
8.80400000 8.010e-5 -8.275 0.999997 -80.54 0.999997 -80.54 8.159e-5 30.243
8.80420000 8.018e-5 -8.282 0.999997 -80.54 0.999997 -80.54 8.168e-5 30.242
8.80440000 8.027e-5 -8.288 0.999997 -80.54 0.999997 -80.54 8.176e-5 30.242
8.80460000 8.035e-5 -8.295 0.999997 -80.54 0.999997 -80.54 8.185e-5 30.242
8.80480000 8.044e-5 -8.301 0.999997 -80.54 0.999997 -80.54 8.194e-5 30.241
8.80500000 8.053e-5 -8.308 0.999997 -80.54 0.999997 -80.54 8.202e-5 30.241
8.80520000 8.061e-5 -8.314 0.999997 -80.55 0.999997 -80.55 8.211e-5 30.241
8.80540000 8.070e-5 -8.321 0.999997 -80.55 0.999997 -80.55 8.220e-5 30.241
8.80560000 8.079e-5 -8.327 0.999997 -80.55 0.999997 -80.55 8.228e-5 30.240
8.80580000 8.088e-5 -8.334 0.999997 -80.55 0.999997 -80.55 8.237e-5 30.240
8.80600000 8.096e-5 -8.341 0.999997 -80.55 0.999997 -80.55 8.246e-5 30.240
8.80620000 8.105e-5 -8.347 0.999997 -80.56 0.999997 -80.56 8.255e-5 30.240
8.80640000 8.114e-5 -8.354 0.999997 -80.56 0.999997 -80.56 8.264e-5 30.240
8.80660000 8.123e-5 -8.361 0.999997 -80.56 0.999997 -80.56 8.273e-5 30.239
8.80680000 8.132e-5 -8.368 0.999997 -80.56 0.999997 -80.56 8.282e-5 30.239
8.80700000 8.141e-5 -8.374 0.999997 -80.56 0.999997 -80.56 8.291e-5 30.239
8.80720000 8.150e-5 -8.381 0.999997 -80.56 0.999997 -80.56 8.300e-5 30.239
8.80740000 8.159e-5 -8.388 0.999997 -80.57 0.999997 -80.57 8.309e-5 30.239
8.80760000 8.168e-5 -8.395 0.999997 -80.57 0.999997 -80.57 8.318e-5 30.239
8.80780000 8.177e-5 -8.402 0.999997 -80.57 0.999997 -80.57 8.327e-5 30.239
8.80800000 8.186e-5 -8.409 0.999997 -80.57 0.999997 -80.57 8.336e-5 30.239
8.80820000 8.195e-5 -8.415 0.999997 -80.57 0.999997 -80.57 8.345e-5 30.239
8.80840000 8.204e-5 -8.422 0.999997 -80.58 0.999997 -80.58 8.354e-5 30.239
8.80860000 8.214e-5 -8.429 0.999997 -80.58 0.999997 -80.58 8.364e-5 30.239
8.80880000 8.223e-5 -8.436 0.999997 -80.58 0.999997 -80.58 8.373e-5 30.239
8.80900000 8.232e-5 -8.443 0.999997 -80.58 0.999997 -80.58 8.382e-5 30.239
8.80920000 8.241e-5 -8.450 0.999997 -80.58 0.999997 -80.58 8.391e-5 30.239
8.80940000 8.251e-5 -8.457 0.999997 -80.59 0.999997 -80.59 8.401e-5 30.239
8.80960000 8.260e-5 -8.465 0.999997 -80.59 0.999997 -80.59 8.410e-5 30.239
8.80980000 8.269e-5 -8.472 0.999997 -80.59 0.999997 -80.59 8.419e-5 30.240
8.81000000 8.279e-5 -8.479 0.999997 -80.59 0.999997 -80.59 8.429e-5 30.240
8.81020000 8.288e-5 -8.486 0.999997 -80.59 0.999997 -80.59 8.438e-5 30.240
8.81040000 8.298e-5 -8.493 0.999997 -80.59 0.999997 -80.59 8.448e-5 30.240
8.81060000 8.307e-5 -8.500 0.999997 -80.60 0.999997 -80.60 8.457e-5 30.240
8.81080000 8.317e-5 -8.508 0.999997 -80.60 0.999997 -80.60 8.467e-5 30.241
8.81100000 8.326e-5 -8.515 0.999997 -80.60 0.999997 -80.60 8.477e-5 30.241
8.81120000 8.336e-5 -8.522 0.999997 -80.60 0.999997 -80.60 8.486e-5 30.241
8.81140000 8.345e-5 -8.529 0.999997 -80.60 0.999997 -80.60 8.496e-5 30.242
8.81160000 8.355e-5 -8.537 0.999997 -80.61 0.999997 -80.61 8.506e-5 30.242
8.81180000 8.365e-5 -8.544 0.999997 -80.61 0.999997 -80.61 8.515e-5 30.242
8.81200000 8.375e-5 -8.552 0.999997 -80.61 0.999997 -80.61 8.525e-5 30.243
8.81220000 8.384e-5 -8.559 0.999997 -80.61 0.999997 -80.61 8.535e-5 30.243
8.81240000 8.394e-5 -8.566 0.999997 -80.61 0.999997 -80.61 8.545e-5 30.243
8.81260000 8.404e-5 -8.574 0.999997 -80.61 0.999997 -80.61 8.555e-5 30.244
8.81280000 8.414e-5 -8.581 0.999997 -80.62 0.999997 -80.62 8.564e-5 30.244
8.81300000 8.424e-5 -8.589 0.999997 -80.62 0.999997 -80.62 8.574e-5 30.245
8.81320000 8.434e-5 -8.596 0.999997 -80.62 0.999997 -80.62 8.584e-5 30.245
8.81340000 8.444e-5 -8.604 0.999997 -80.62 0.999997 -80.62 8.594e-5 30.246
8.81360000 8.454e-5 -8.612 0.999997 -80.62 0.999997 -80.62 8.604e-5 30.246
8.81380000 8.464e-5 -8.619 0.999997 -80.63 0.999997 -80.63 8.614e-5 30.247
8.81400000 8.474e-5 -8.627 0.999997 -80.63 0.999997 -80.63 8.625e-5 30.247
8.81420000 8.484e-5 -8.634 0.999997 -80.63 0.999997 -80.63 8.635e-5 30.248
8.81440000 8.494e-5 -8.642 0.999997 -80.63 0.999997 -80.63 8.645e-5 30.249
8.81460000 8.504e-5 -8.650 0.999997 -80.63 0.999997 -80.63 8.655e-5 30.249
8.81480000 8.515e-5 -8.658 0.999997 -80.63 0.999997 -80.63 8.665e-5 30.250
8.81500000 8.525e-5 -8.665 0.999997 -80.64 0.999997 -80.64 8.676e-5 30.250
8.81520000 8.535e-5 -8.673 0.999997 -80.64 0.999997 -80.64 8.686e-5 30.251
8.81540000 8.546e-5 -8.681 0.999997 -80.64 0.999997 -80.64 8.697e-5 30.252
8.81560000 8.556e-5 -8.689 0.999997 -80.64 0.999997 -80.64 8.707e-5 30.252
8.81580000 8.566e-5 -8.697 0.999997 -80.64 0.999997 -80.64 8.717e-5 30.253
8.81600000 8.577e-5 -8.704 0.999997 -80.65 0.999997 -80.65 8.728e-5 30.254
8.81620000 8.587e-5 -8.712 0.999997 -80.65 0.999997 -80.65 8.738e-5 30.255
8.81640000 8.598e-5 -8.720 0.999997 -80.65 0.999997 -80.65 8.749e-5 30.255
8.81660000 8.609e-5 -8.728 0.999997 -80.65 0.999997 -80.65 8.760e-5 30.256
8.81680000 8.619e-5 -8.736 0.999997 -80.65 0.999997 -80.65 8.770e-5 30.257
8.81700000 8.630e-5 -8.744 0.999997 -80.65 0.999997 -80.65 8.781e-5 30.258
8.81720000 8.641e-5 -8.752 0.999997 -80.66 0.999997 -80.66 8.792e-5 30.259
8.81740000 8.651e-5 -8.760 0.999997 -80.66 0.999997 -80.66 8.803e-5 30.260
8.81760000 8.662e-5 -8.768 0.999997 -80.66 0.999997 -80.66 8.813e-5 30.260
8.81780000 8.673e-5 -8.776 0.999997 -80.66 0.999997 -80.66 8.824e-5 30.261
8.81800000 8.684e-5 -8.784 0.999997 -80.66 0.999997 -80.66 8.835e-5 30.262
8.81820000 8.695e-5 -8.793 0.999997 -80.67 0.999997 -80.67 8.846e-5 30.263
8.81840000 8.706e-5 -8.801 0.999997 -80.67 0.999997 -80.67 8.857e-5 30.264
8.81860000 8.717e-5 -8.809 0.999997 -80.67 0.999997 -80.67 8.868e-5 30.265
8.81880000 8.728e-5 -8.817 0.999997 -80.67 0.999997 -80.67 8.879e-5 30.266
8.81900000 8.739e-5 -8.825 0.999997 -80.67 0.999997 -80.67 8.891e-5 30.267
8.81920000 8.750e-5 -8.834 0.999997 -80.67 0.999997 -80.67 8.902e-5 30.268
8.81940000 8.761e-5 -8.842 0.999997 -80.68 0.999997 -80.68 8.913e-5 30.269
8.81960000 8.773e-5 -8.850 0.999997 -80.68 0.999997 -80.68 8.924e-5 30.270
8.81980000 8.784e-5 -8.859 0.999997 -80.68 0.999997 -80.68 8.936e-5 30.271
8.82000000 8.795e-5 -8.867 0.999997 -80.68 0.999997 -80.68 8.947e-5 30.272
8.82020000 8.807e-5 -8.875 0.999997 -80.68 0.999997 -80.68 8.958e-5 30.273
8.82040000 8.818e-5 -8.884 0.999997 -80.69 0.999997 -80.69 8.970e-5 30.275
8.82060000 8.830e-5 -8.892 0.999997 -80.69 0.999997 -80.69 8.981e-5 30.276
8.82080000 8.841e-5 -8.901 0.999997 -80.69 0.999997 -80.69 8.993e-5 30.277
8.82100000 8.853e-5 -8.909 0.999997 -80.69 0.999997 -80.69 9.005e-5 30.278
8.82120000 8.864e-5 -8.918 0.999997 -80.69 0.999997 -80.69 9.016e-5 30.279
8.82140000 8.876e-5 -8.926 0.999997 -80.70 0.999997 -80.70 9.028e-5 30.280
8.82160000 8.888e-5 -8.935 0.999997 -80.70 0.999997 -80.70 9.040e-5 30.282
8.82180000 8.900e-5 -8.943 0.999997 -80.70 0.999997 -80.70 9.051e-5 30.283
8.82200000 8.911e-5 -8.952 0.999997 -80.70 0.999997 -80.70 9.063e-5 30.284
8.82220000 8.923e-5 -8.960 0.999997 -80.70 0.999997 -80.70 9.075e-5 30.285
8.82240000 8.935e-5 -8.969 0.999997 -80.70 0.999997 -80.70 9.087e-5 30.287
8.82260000 8.947e-5 -8.978 0.999997 -80.71 0.999997 -80.71 9.099e-5 30.288
8.82280000 8.959e-5 -8.986 0.999997 -80.71 0.999997 -80.71 9.111e-5 30.289
8.82300000 8.971e-5 -8.995 0.999997 -80.71 0.999997 -80.71 9.123e-5 30.291
8.82320000 8.983e-5 -9.004 0.999997 -80.71 0.999997 -80.71 9.136e-5 30.292
8.82340000 8.996e-5 -9.013 0.999997 -80.71 0.999997 -80.71 9.148e-5 30.293
8.82360000 9.008e-5 -9.021 0.999997 -80.72 0.999997 -80.72 9.160e-5 30.295
8.82380000 9.020e-5 -9.030 0.999997 -80.72 0.999997 -80.72 9.172e-5 30.296
8.82400000 9.032e-5 -9.039 0.999997 -80.72 0.999997 -80.72 9.185e-5 30.298
8.82420000 9.045e-5 -9.048 0.999997 -80.72 0.999997 -80.72 9.197e-5 30.299
8.82440000 9.057e-5 -9.057 0.999997 -80.72 0.999997 -80.72 9.210e-5 30.301
8.82460000 9.070e-5 -9.066 0.999997 -80.72 0.999997 -80.72 9.222e-5 30.302
8.82480000 9.082e-5 -9.075 0.999997 -80.73 0.999997 -80.73 9.235e-5 30.303
8.82500000 9.095e-5 -9.084 0.999997 -80.73 0.999997 -80.73 9.248e-5 30.305
8.82520000 9.108e-5 -9.093 0.999997 -80.73 0.999997 -80.73 9.260e-5 30.307
8.82540000 9.120e-5 -9.102 0.999997 -80.73 0.999997 -80.73 9.273e-5 30.308
8.82560000 9.133e-5 -9.111 0.999997 -80.73 0.999997 -80.73 9.286e-5 30.310
8.82580000 9.146e-5 -9.120 0.999997 -80.74 0.999997 -80.74 9.299e-5 30.311
8.82600000 9.159e-5 -9.129 0.999997 -80.74 0.999997 -80.74 9.312e-5 30.313
8.82620000 9.172e-5 -9.138 0.999997 -80.74 0.999997 -80.74 9.325e-5 30.314
8.82640000 9.185e-5 -9.147 0.999997 -80.74 0.999997 -80.74 9.338e-5 30.316
8.82660000 9.198e-5 -9.156 0.999997 -80.74 0.999997 -80.74 9.351e-5 30.318
8.82680000 9.211e-5 -9.165 0.999997 -80.74 0.999997 -80.74 9.364e-5 30.319
8.82700000 9.224e-5 -9.175 0.999997 -80.75 0.999997 -80.75 9.377e-5 30.321
8.82720000 9.238e-5 -9.184 0.999997 -80.75 0.999997 -80.75 9.391e-5 30.323
8.82740000 9.251e-5 -9.193 0.999997 -80.75 0.999997 -80.75 9.404e-5 30.324
8.82760000 9.264e-5 -9.202 0.999997 -80.75 0.999997 -80.75 9.417e-5 30.326
8.82780000 9.278e-5 -9.212 0.999997 -80.75 0.999997 -80.75 9.431e-5 30.328
8.82800000 9.291e-5 -9.221 0.999997 -80.76 0.999997 -80.76 9.444e-5 30.329
8.82820000 9.305e-5 -9.230 0.999997 -80.76 0.999997 -80.76 9.458e-5 30.331
8.82840000 9.319e-5 -9.240 0.999997 -80.76 0.999997 -80.76 9.472e-5 30.333
8.82860000 9.332e-5 -9.249 0.999997 -80.76 0.999997 -80.76 9.486e-5 30.335
8.82880000 9.346e-5 -9.258 0.999997 -80.76 0.999997 -80.76 9.499e-5 30.337
8.82900000 9.360e-5 -9.268 0.999997 -80.76 0.999997 -80.76 9.513e-5 30.338
8.82920000 9.374e-5 -9.277 0.999997 -80.77 0.999997 -80.77 9.527e-5 30.340
8.82940000 9.388e-5 -9.287 0.999997 -80.77 0.999997 -80.77 9.541e-5 30.342
8.82960000 9.402e-5 -9.296 0.999997 -80.77 0.999997 -80.77 9.555e-5 30.344
8.82980000 9.416e-5 -9.306 0.999997 -80.77 0.999997 -80.77 9.570e-5 30.346
8.83000000 9.430e-5 -9.315 0.999997 -80.77 0.999997 -80.77 9.584e-5 30.348
8.83020000 9.444e-5 -9.325 0.999997 -80.78 0.999997 -80.78 9.598e-5 30.350
8.83040000 9.459e-5 -9.335 0.999997 -80.78 0.999997 -80.78 9.612e-5 30.352
8.83060000 9.473e-5 -9.344 0.999997 -80.78 0.999997 -80.78 9.627e-5 30.354
8.83080000 9.488e-5 -9.354 0.999997 -80.78 0.999997 -80.78 9.641e-5 30.355
8.83100000 9.502e-5 -9.364 0.999997 -80.78 0.999997 -80.78 9.656e-5 30.357
8.83120000 9.517e-5 -9.373 0.999997 -80.79 0.999997 -80.79 9.671e-5 30.359
8.83140000 9.531e-5 -9.383 0.999997 -80.79 0.999997 -80.79 9.685e-5 30.361
8.83160000 9.546e-5 -9.393 0.999997 -80.79 0.999997 -80.79 9.700e-5 30.363
8.83180000 9.561e-5 -9.402 0.999997 -80.79 0.999997 -80.79 9.715e-5 30.365
8.83200000 9.576e-5 -9.412 0.999997 -80.79 0.999997 -80.79 9.730e-5 30.368
8.83220000 9.591e-5 -9.422 0.999997 -80.79 0.999997 -80.79 9.745e-5 30.370
8.83240000 9.606e-5 -9.432 0.999997 -80.80 0.999997 -80.80 9.760e-5 30.372
8.83260000 9.621e-5 -9.442 0.999997 -80.80 0.999997 -80.80 9.775e-5 30.374
8.83280000 9.636e-5 -9.452 0.999997 -80.80 0.999997 -80.80 9.791e-5 30.376
8.83300000 9.652e-5 -9.462 0.999997 -80.80 0.999997 -80.80 9.806e-5 30.378
8.83320000 9.667e-5 -9.472 0.999997 -80.80 0.999997 -80.80 9.821e-5 30.380
8.83340000 9.683e-5 -9.481 0.999997 -80.81 0.999997 -80.81 9.837e-5 30.382
8.83360000 9.698e-5 -9.491 0.999997 -80.81 0.999997 -80.81 9.852e-5 30.384
8.83380000 9.714e-5 -9.501 0.999997 -80.81 0.999997 -80.81 9.868e-5 30.387
8.83400000 9.729e-5 -9.512 0.999997 -80.81 0.999997 -80.81 9.884e-5 30.389
8.83420000 9.745e-5 -9.522 0.999997 -80.81 0.999997 -80.81 9.900e-5 30.391
8.83440000 9.761e-5 -9.532 0.999997 -80.81 0.999997 -80.81 9.916e-5 30.393
8.83460000 9.777e-5 -9.542 0.999997 -80.82 0.999997 -80.82 9.931e-5 30.395
8.83480000 9.793e-5 -9.552 0.999997 -80.82 0.999997 -80.82 9.948e-5 30.398
8.83500000 9.809e-5 -9.562 0.999997 -80.82 0.999997 -80.82 9.964e-5 30.400
8.83520000 9.825e-5 -9.572 0.999997 -80.82 0.999997 -80.82 9.980e-5 30.402
8.83540000 9.842e-5 -9.582 0.999997 -80.82 0.999997 -80.82 9.996e-5 30.404
8.83560000 9.858e-5 -9.593 0.999997 -80.83 0.999997 -80.83 1.001e-4 30.407
8.83580000 9.874e-5 -9.603 0.999997 -80.83 0.999997 -80.83 1.003e-4 30.409
8.83600000 9.891e-5 -9.613 0.999997 -80.83 0.999997 -80.83 1.005e-4 30.411
8.83620000 9.908e-5 -9.623 0.999997 -80.83 0.999997 -80.83 1.006e-4 30.414
8.83640000 9.924e-5 -9.634 0.999997 -80.83 0.999997 -80.83 1.008e-4 30.416
8.83660000 9.941e-5 -9.644 0.999997 -80.83 0.999997 -80.83 1.010e-4 30.418
8.83680000 9.958e-5 -9.654 0.999997 -80.84 0.999997 -80.84 1.011e-4 30.421
8.83700000 9.975e-5 -9.665 0.999997 -80.84 0.999997 -80.84 1.013e-4 30.423
8.83720000 9.992e-5 -9.675 0.999997 -80.84 0.999997 -80.84 1.015e-4 30.426
8.83740000 1.001e-4 -9.686 0.999997 -80.84 0.999997 -80.84 1.016e-4 30.428
8.83760000 1.003e-4 -9.696 0.999997 -80.84 0.999997 -80.84 1.018e-4 30.430
8.83780000 1.004e-4 -9.706 0.999997 -80.85 0.999997 -80.85 1.020e-4 30.433
8.83800000 1.006e-4 -9.717 0.999997 -80.85 0.999997 -80.85 1.022e-4 30.435
8.83820000 1.008e-4 -9.727 0.999997 -80.85 0.999997 -80.85 1.023e-4 30.438
8.83840000 1.010e-4 -9.738 0.999997 -80.85 0.999997 -80.85 1.025e-4 30.440
8.83860000 1.011e-4 -9.749 0.999997 -80.85 0.999997 -80.85 1.027e-4 30.443
8.83880000 1.013e-4 -9.759 0.999997 -80.85 0.999997 -80.85 1.029e-4 30.445
8.83900000 1.015e-4 -9.770 0.999997 -80.86 0.999997 -80.86 1.031e-4 30.448
8.83920000 1.017e-4 -9.780 0.999997 -80.86 0.999997 -80.86 1.032e-4 30.450
8.83940000 1.019e-4 -9.791 0.999997 -80.86 0.999997 -80.86 1.034e-4 30.453
8.83960000 1.021e-4 -9.802 0.999997 -80.86 0.999997 -80.86 1.036e-4 30.455
8.83980000 1.022e-4 -9.812 0.999997 -80.86 0.999997 -80.86 1.038e-4 30.458
8.84000000 1.024e-4 -9.823 0.999997 -80.87 0.999997 -80.87 1.040e-4 30.461
8.84020000 1.026e-4 -9.834 0.999997 -80.87 0.999997 -80.87 1.042e-4 30.463
8.84040000 1.028e-4 -9.845 0.999997 -80.87 0.999997 -80.87 1.044e-4 30.466
8.84060000 1.030e-4 -9.855 0.999997 -80.87 0.999997 -80.87 1.045e-4 30.468
8.84080000 1.032e-4 -9.866 0.999997 -80.87 0.999997 -80.87 1.047e-4 30.471
8.84100000 1.034e-4 -9.877 0.999997 -80.88 0.999997 -80.88 1.049e-4 30.474
8.84120000 1.036e-4 -9.888 0.999997 -80.88 0.999997 -80.88 1.051e-4 30.476
8.84140000 1.037e-4 -9.899 0.999997 -80.88 0.999997 -80.88 1.053e-4 30.479
8.84160000 1.039e-4 -9.910 0.999997 -80.88 0.999997 -80.88 1.055e-4 30.482
8.84180000 1.041e-4 -9.921 0.999997 -80.88 0.999997 -80.88 1.057e-4 30.484
8.84200000 1.043e-4 -9.932 0.999997 -80.88 0.999997 -80.88 1.059e-4 30.487
8.84220000 1.045e-4 -9.943 0.999997 -80.89 0.999997 -80.89 1.061e-4 30.490
8.84240000 1.047e-4 -9.954 0.999997 -80.89 0.999997 -80.89 1.063e-4 30.492
8.84260000 1.049e-4 -9.965 0.999997 -80.89 0.999997 -80.89 1.065e-4 30.495
8.84280000 1.051e-4 -9.976 0.999997 -80.89 0.999997 -80.89 1.067e-4 30.498
8.84300000 1.053e-4 -9.987 0.999997 -80.89 0.999997 -80.89 1.069e-4 30.501
8.84320000 1.055e-4 -9.998 0.999997 -80.90 0.999997 -80.90 1.071e-4 30.503
8.84340000 1.057e-4 -10.01 0.999997 -80.90 0.999997 -80.90 1.073e-4 30.506
8.84360000 1.060e-4 -10.02 0.999997 -80.90 0.999997 -80.90 1.075e-4 30.509
8.84380000 1.062e-4 -10.03 0.999997 -80.90 0.999997 -80.90 1.077e-4 30.512
8.84400000 1.064e-4 -10.04 0.999997 -80.90 0.999997 -80.90 1.079e-4 30.515
8.84420000 1.066e-4 -10.05 0.999997 -80.90 0.999997 -80.90 1.081e-4 30.517
8.84440000 1.068e-4 -10.06 0.999997 -80.91 0.999997 -80.91 1.084e-4 30.520
8.84460000 1.070e-4 -10.08 0.999997 -80.91 0.999997 -80.91 1.086e-4 30.523
8.84480000 1.072e-4 -10.09 0.999997 -80.91 0.999997 -80.91 1.088e-4 30.526
8.84500000 1.074e-4 -10.10 0.999997 -80.91 0.999997 -80.91 1.090e-4 30.529
8.84520000 1.076e-4 -10.11 0.999997 -80.91 0.999997 -80.91 1.092e-4 30.532
8.84540000 1.079e-4 -10.12 0.999997 -80.92 0.999997 -80.92 1.094e-4 30.535
8.84560000 1.081e-4 -10.13 0.999997 -80.92 0.999997 -80.92 1.097e-4 30.537
8.84580000 1.083e-4 -10.14 0.999997 -80.92 0.999997 -80.92 1.099e-4 30.540
8.84600000 1.085e-4 -10.16 0.999997 -80.92 0.999997 -80.92 1.101e-4 30.543
8.84620000 1.088e-4 -10.17 0.999997 -80.92 0.999997 -80.92 1.103e-4 30.546
8.84640000 1.090e-4 -10.18 0.999997 -80.92 0.999997 -80.92 1.106e-4 30.549
8.84660000 1.092e-4 -10.19 0.999997 -80.93 0.999997 -80.93 1.108e-4 30.552
8.84680000 1.094e-4 -10.20 0.999997 -80.93 0.999997 -80.93 1.110e-4 30.555
8.84700000 1.097e-4 -10.21 0.999997 -80.93 0.999997 -80.93 1.112e-4 30.558
8.84720000 1.099e-4 -10.22 0.999997 -80.93 0.999997 -80.93 1.115e-4 30.561
8.84740000 1.101e-4 -10.24 0.999997 -80.93 0.999997 -80.93 1.117e-4 30.564
8.84760000 1.104e-4 -10.25 0.999997 -80.94 0.999997 -80.94 1.119e-4 30.567
8.84780000 1.106e-4 -10.26 0.999997 -80.94 0.999997 -80.94 1.122e-4 30.570
8.84800000 1.108e-4 -10.27 0.999997 -80.94 0.999997 -80.94 1.124e-4 30.573
8.84820000 1.111e-4 -10.28 0.999997 -80.94 0.999997 -80.94 1.127e-4 30.576
8.84840000 1.113e-4 -10.29 0.999997 -80.94 0.999997 -80.94 1.129e-4 30.579
8.84860000 1.116e-4 -10.31 0.999997 -80.95 0.999997 -80.95 1.131e-4 30.582
8.84880000 1.118e-4 -10.32 0.999997 -80.95 0.999997 -80.95 1.134e-4 30.585
8.84900000 1.121e-4 -10.33 0.999997 -80.95 0.999997 -80.95 1.136e-4 30.588
8.84920000 1.123e-4 -10.34 0.999997 -80.95 0.999997 -80.95 1.139e-4 30.591
8.84940000 1.125e-4 -10.35 0.999997 -80.95 0.999997 -80.95 1.141e-4 30.594
8.84960000 1.128e-4 -10.36 0.999997 -80.95 0.999997 -80.95 1.144e-4 30.597
8.84980000 1.131e-4 -10.38 0.999997 -80.96 0.999997 -80.96 1.146e-4 30.600
8.85000000 1.133e-4 -10.39 0.999997 -80.96 0.999997 -80.96 1.149e-4 30.603
8.85020000 1.136e-4 -10.40 0.999997 -80.96 0.999997 -80.96 1.151e-4 30.607
8.85040000 1.138e-4 -10.41 0.999997 -80.96 0.999997 -80.96 1.154e-4 30.610
8.85060000 1.141e-4 -10.42 0.999997 -80.96 0.999997 -80.96 1.157e-4 30.613
8.85080000 1.143e-4 -10.44 0.999997 -80.97 0.999997 -80.97 1.159e-4 30.616
8.85100000 1.146e-4 -10.45 0.999997 -80.97 0.999997 -80.97 1.162e-4 30.619
8.85120000 1.149e-4 -10.46 0.999997 -80.97 0.999997 -80.97 1.165e-4 30.622
8.85140000 1.151e-4 -10.47 0.999997 -80.97 0.999997 -80.97 1.167e-4 30.625
8.85160000 1.154e-4 -10.48 0.999997 -80.97 0.999997 -80.97 1.170e-4 30.628
8.85180000 1.157e-4 -10.50 0.999997 -80.97 0.999997 -80.97 1.173e-4 30.632
8.85200000 1.160e-4 -10.51 0.999997 -80.98 0.999997 -80.98 1.175e-4 30.635
8.85220000 1.162e-4 -10.52 0.999997 -80.98 0.999997 -80.98 1.178e-4 30.638
8.85240000 1.165e-4 -10.53 0.999997 -80.98 0.999997 -80.98 1.181e-4 30.641
8.85260000 1.168e-4 -10.54 0.999997 -80.98 0.999997 -80.98 1.184e-4 30.644
8.85280000 1.171e-4 -10.56 0.999997 -80.98 0.999997 -80.98 1.187e-4 30.648
8.85300000 1.173e-4 -10.57 0.999997 -80.99 0.999997 -80.99 1.189e-4 30.651
8.85320000 1.176e-4 -10.58 0.999997 -80.99 0.999997 -80.99 1.192e-4 30.654
8.85340000 1.179e-4 -10.59 0.999997 -80.99 0.999997 -80.99 1.195e-4 30.657
8.85360000 1.182e-4 -10.60 0.999997 -80.99 0.999997 -80.99 1.198e-4 30.660
8.85380000 1.185e-4 -10.62 0.999997 -80.99 0.999997 -80.99 1.201e-4 30.664
8.85400000 1.188e-4 -10.63 0.999997 -81.00 0.999997 -81.00 1.204e-4 30.667
8.85420000 1.191e-4 -10.64 0.999997 -81.00 0.999997 -81.00 1.207e-4 30.670
8.85440000 1.194e-4 -10.65 0.999997 -81.00 0.999997 -81.00 1.210e-4 30.673
8.85460000 1.197e-4 -10.67 0.999997 -81.00 0.999997 -81.00 1.213e-4 30.677
8.85480000 1.200e-4 -10.68 0.999997 -81.00 0.999997 -81.00 1.216e-4 30.680
8.85500000 1.203e-4 -10.69 0.999997 -81.00 0.999997 -81.00 1.219e-4 30.683
8.85520000 1.206e-4 -10.70 0.999997 -81.01 0.999997 -81.01 1.222e-4 30.686
8.85540000 1.209e-4 -10.72 0.999997 -81.01 0.999997 -81.01 1.225e-4 30.690
8.85560000 1.212e-4 -10.73 0.999997 -81.01 0.999997 -81.01 1.228e-4 30.693
8.85580000 1.215e-4 -10.74 0.999997 -81.01 0.999997 -81.01 1.231e-4 30.696
8.85600000 1.219e-4 -10.75 0.999997 -81.01 0.999997 -81.01 1.235e-4 30.700
8.85620000 1.222e-4 -10.77 0.999997 -81.02 0.999997 -81.02 1.238e-4 30.703
8.85640000 1.225e-4 -10.78 0.999997 -81.02 0.999997 -81.02 1.241e-4 30.706
8.85660000 1.228e-4 -10.79 0.999997 -81.02 0.999997 -81.02 1.244e-4 30.710
8.85680000 1.232e-4 -10.80 0.999997 -81.02 0.999997 -81.02 1.248e-4 30.713
8.85700000 1.235e-4 -10.82 0.999997 -81.02 0.999997 -81.02 1.251e-4 30.716
8.85720000 1.238e-4 -10.83 0.999997 -81.02 0.999997 -81.02 1.254e-4 30.719
8.85740000 1.242e-4 -10.84 0.999997 -81.03 0.999997 -81.03 1.258e-4 30.723
8.85760000 1.245e-4 -10.85 0.999997 -81.03 0.999997 -81.03 1.261e-4 30.726
8.85780000 1.248e-4 -10.87 0.999997 -81.03 0.999997 -81.03 1.264e-4 30.729
8.85800000 1.252e-4 -10.88 0.999997 -81.03 0.999997 -81.03 1.268e-4 30.733
8.85820000 1.255e-4 -10.89 0.999997 -81.03 0.999997 -81.03 1.271e-4 30.736
8.85840000 1.259e-4 -10.90 0.999997 -81.04 0.999997 -81.04 1.275e-4 30.740
8.85860000 1.262e-4 -10.92 0.999997 -81.04 0.999997 -81.04 1.278e-4 30.743
8.85880000 1.266e-4 -10.93 0.999997 -81.04 0.999997 -81.04 1.282e-4 30.746
8.85900000 1.269e-4 -10.94 0.999997 -81.04 0.999997 -81.04 1.285e-4 30.750
8.85920000 1.273e-4 -10.96 0.999997 -81.04 0.999997 -81.04 1.289e-4 30.753
8.85940000 1.277e-4 -10.97 0.999997 -81.04 0.999997 -81.04 1.293e-4 30.756
8.85960000 1.280e-4 -10.98 0.999997 -81.05 0.999997 -81.05 1.296e-4 30.760
8.85980000 1.284e-4 -10.99 0.999997 -81.05 0.999997 -81.05 1.300e-4 30.763
8.86000000 1.288e-4 -11.01 0.999997 -81.05 0.999997 -81.05 1.304e-4 30.766
8.86020000 1.292e-4 -11.02 0.999997 -81.05 0.999997 -81.05 1.308e-4 30.770
8.86040000 1.295e-4 -11.03 0.999997 -81.05 0.999997 -81.05 1.311e-4 30.773
8.86060000 1.299e-4 -11.05 0.999997 -81.06 0.999997 -81.06 1.315e-4 30.777
8.86080000 1.303e-4 -11.06 0.999997 -81.06 0.999997 -81.06 1.319e-4 30.780
8.86100000 1.307e-4 -11.07 0.999997 -81.06 0.999997 -81.06 1.323e-4 30.783
8.86120000 1.311e-4 -11.08 0.999997 -81.06 0.999997 -81.06 1.327e-4 30.787
8.86140000 1.315e-4 -11.10 0.999997 -81.06 0.999997 -81.06 1.331e-4 30.790
8.86160000 1.319e-4 -11.11 0.999997 -81.07 0.999997 -81.07 1.335e-4 30.794
8.86180000 1.323e-4 -11.12 0.999997 -81.07 0.999997 -81.07 1.339e-4 30.797
8.86200000 1.327e-4 -11.14 0.999997 -81.07 0.999997 -81.07 1.343e-4 30.800
8.86220000 1.331e-4 -11.15 0.999997 -81.07 0.999997 -81.07 1.347e-4 30.804
8.86240000 1.335e-4 -11.16 0.999997 -81.07 0.999997 -81.07 1.351e-4 30.807
8.86260000 1.339e-4 -11.18 0.999997 -81.07 0.999997 -81.07 1.356e-4 30.811
8.86280000 1.344e-4 -11.19 0.999997 -81.08 0.999997 -81.08 1.360e-4 30.814
8.86300000 1.348e-4 -11.20 0.999997 -81.08 0.999997 -81.08 1.364e-4 30.817
8.86320000 1.352e-4 -11.21 0.999997 -81.08 0.999997 -81.08 1.368e-4 30.821
8.86340000 1.356e-4 -11.23 0.999997 -81.08 0.999997 -81.08 1.373e-4 30.824
8.86360000 1.361e-4 -11.24 0.999997 -81.08 0.999997 -81.08 1.377e-4 30.828
8.86380000 1.365e-4 -11.25 0.999997 -81.09 0.999997 -81.09 1.381e-4 30.831
8.86400000 1.370e-4 -11.27 0.999997 -81.09 0.999997 -81.09 1.386e-4 30.834
8.86420000 1.374e-4 -11.28 0.999997 -81.09 0.999997 -81.09 1.390e-4 30.838
8.86440000 1.379e-4 -11.29 0.999997 -81.09 0.999997 -81.09 1.395e-4 30.841
8.86460000 1.383e-4 -11.31 0.999997 -81.09 0.999997 -81.09 1.400e-4 30.845
8.86480000 1.388e-4 -11.32 0.999997 -81.09 0.999997 -81.09 1.404e-4 30.848
8.86500000 1.393e-4 -11.33 0.999997 -81.10 0.999997 -81.10 1.409e-4 30.851
8.86520000 1.397e-4 -11.35 0.999997 -81.10 0.999997 -81.10 1.414e-4 30.855
8.86540000 1.402e-4 -11.36 0.999997 -81.10 0.999997 -81.10 1.418e-4 30.858
8.86560000 1.407e-4 -11.37 0.999997 -81.10 0.999997 -81.10 1.423e-4 30.862
8.86580000 1.412e-4 -11.39 0.999997 -81.10 0.999997 -81.10 1.428e-4 30.865
8.86600000 1.417e-4 -11.40 0.999997 -81.11 0.999997 -81.11 1.433e-4 30.868
8.86620000 1.422e-4 -11.41 0.999997 -81.11 0.999997 -81.11 1.438e-4 30.872
8.86640000 1.427e-4 -11.43 0.999997 -81.11 0.999997 -81.11 1.443e-4 30.875
8.86660000 1.432e-4 -11.44 0.999997 -81.11 0.999997 -81.11 1.448e-4 30.879
8.86680000 1.437e-4 -11.45 0.999997 -81.11 0.999997 -81.11 1.453e-4 30.882
8.86700000 1.442e-4 -11.47 0.999997 -81.12 0.999997 -81.12 1.458e-4 30.885
8.86720000 1.447e-4 -11.48 0.999997 -81.12 0.999997 -81.12 1.463e-4 30.889
8.86740000 1.452e-4 -11.50 0.999997 -81.12 0.999997 -81.12 1.469e-4 30.892
8.86760000 1.458e-4 -11.51 0.999997 -81.12 0.999997 -81.12 1.474e-4 30.895
8.86780000 1.463e-4 -11.52 0.999997 -81.12 0.999997 -81.12 1.479e-4 30.899
8.86800000 1.468e-4 -11.54 0.999997 -81.12 0.999997 -81.12 1.485e-4 30.902
8.86820000 1.474e-4 -11.55 0.999997 -81.13 0.999997 -81.13 1.490e-4 30.906
8.86840000 1.479e-4 -11.56 0.999997 -81.13 0.999997 -81.13 1.496e-4 30.909
8.86860000 1.485e-4 -11.58 0.999997 -81.13 0.999997 -81.13 1.501e-4 30.912
8.86880000 1.491e-4 -11.59 0.999997 -81.13 0.999997 -81.13 1.507e-4 30.916
8.86900000 1.496e-4 -11.60 0.999997 -81.13 0.999997 -81.13 1.513e-4 30.919
8.86920000 1.502e-4 -11.62 0.999997 -81.14 0.999997 -81.14 1.518e-4 30.922
8.86940000 1.508e-4 -11.63 0.999997 -81.14 0.999997 -81.14 1.524e-4 30.926
8.86960000 1.514e-4 -11.65 0.999997 -81.14 0.999997 -81.14 1.530e-4 30.929
8.86980000 1.520e-4 -11.66 0.999997 -81.14 0.999997 -81.14 1.536e-4 30.932
8.87000000 1.526e-4 -11.67 0.999997 -81.14 0.999997 -81.14 1.542e-4 30.936
8.87020000 1.532e-4 -11.69 0.999997 -81.15 0.999997 -81.15 1.548e-4 30.939
8.87040000 1.538e-4 -11.70 0.999997 -81.15 0.999997 -81.15 1.554e-4 30.942
8.87060000 1.544e-4 -11.71 0.999997 -81.15 0.999997 -81.15 1.560e-4 30.946
8.87080000 1.550e-4 -11.73 0.999997 -81.15 0.999997 -81.15 1.567e-4 30.949
8.87100000 1.557e-4 -11.74 0.999997 -81.15 0.999997 -81.15 1.573e-4 30.952
8.87120000 1.563e-4 -11.76 0.999997 -81.15 0.999997 -81.15 1.579e-4 30.956
8.87140000 1.569e-4 -11.77 0.999997 -81.16 0.999997 -81.16 1.586e-4 30.959
8.87160000 1.576e-4 -11.78 0.999997 -81.16 0.999997 -81.16 1.593e-4 30.962
8.87180000 1.583e-4 -11.80 0.999997 -81.16 0.999997 -81.16 1.599e-4 30.965
8.87200000 1.589e-4 -11.81 0.999997 -81.16 0.999997 -81.16 1.606e-4 30.969
8.87220000 1.596e-4 -11.83 0.999997 -81.16 0.999997 -81.16 1.613e-4 30.972
8.87240000 1.603e-4 -11.84 0.999997 -81.17 0.999997 -81.17 1.620e-4 30.975
8.87260000 1.610e-4 -11.85 0.999997 -81.17 0.999997 -81.17 1.626e-4 30.978
8.87280000 1.617e-4 -11.87 0.999997 -81.17 0.999997 -81.17 1.633e-4 30.982
8.87300000 1.624e-4 -11.88 0.999997 -81.17 0.999997 -81.17 1.641e-4 30.985
8.87320000 1.631e-4 -11.90 0.999997 -81.17 0.999997 -81.17 1.648e-4 30.988
8.87340000 1.638e-4 -11.91 0.999997 -81.18 0.999997 -81.18 1.655e-4 30.991
8.87360000 1.646e-4 -11.92 0.999997 -81.18 0.999997 -81.18 1.662e-4 30.995
8.87380000 1.653e-4 -11.94 0.999997 -81.18 0.999997 -81.18 1.670e-4 30.998
8.87400000 1.661e-4 -11.95 0.999997 -81.18 0.999997 -81.18 1.677e-4 31.001
8.87420000 1.668e-4 -11.97 0.999997 -81.18 0.999997 -81.18 1.685e-4 31.004
8.87440000 1.676e-4 -11.98 0.999997 -81.18 0.999997 -81.18 1.693e-4 31.007
8.87460000 1.684e-4 -11.99 0.999997 -81.19 0.999997 -81.19 1.700e-4 31.010
8.87480000 1.692e-4 -12.01 0.999997 -81.19 0.999997 -81.19 1.708e-4 31.014
8.87500000 1.700e-4 -12.02 0.999997 -81.19 0.999997 -81.19 1.716e-4 31.017
8.87520000 1.708e-4 -12.04 0.999997 -81.19 0.999997 -81.19 1.724e-4 31.020
8.87540000 1.716e-4 -12.05 0.999997 -81.19 0.999997 -81.19 1.733e-4 31.023
8.87560000 1.724e-4 -12.06 0.999997 -81.20 0.999997 -81.20 1.741e-4 31.026
8.87580000 1.733e-4 -12.08 0.999997 -81.20 0.999997 -81.20 1.749e-4 31.029
8.87600000 1.741e-4 -12.09 0.999997 -81.20 0.999997 -81.20 1.758e-4 31.032
8.87620000 1.750e-4 -12.11 0.999997 -81.20 0.999997 -81.20 1.766e-4 31.035
8.87640000 1.759e-4 -12.12 0.999997 -81.20 0.999997 -81.20 1.775e-4 31.038
8.87660000 1.767e-4 -12.14 0.999997 -81.21 0.999997 -81.21 1.784e-4 31.041
8.87680000 1.776e-4 -12.15 0.999997 -81.21 0.999997 -81.21 1.793e-4 31.044
8.87700000 1.785e-4 -12.16 0.999997 -81.21 0.999997 -81.21 1.802e-4 31.047
8.87720000 1.795e-4 -12.18 0.999997 -81.21 0.999997 -81.21 1.811e-4 31.050
8.87740000 1.804e-4 -12.19 0.999997 -81.21 0.999997 -81.21 1.821e-4 31.053
8.87760000 1.813e-4 -12.21 0.999997 -81.21 0.999997 -81.21 1.830e-4 31.056
8.87780000 1.823e-4 -12.22 0.999997 -81.22 0.999997 -81.22 1.840e-4 31.059
8.87800000 1.833e-4 -12.24 0.999997 -81.22 0.999997 -81.22 1.849e-4 31.062
8.87820000 1.842e-4 -12.25 0.999997 -81.22 0.999997 -81.22 1.859e-4 31.065
8.87840000 1.852e-4 -12.26 0.999997 -81.22 0.999997 -81.22 1.869e-4 31.068