! Sonnet Data File
! From: emgraph Version : 16.52
! From Project: Resonator2_cp_varyW
! Data is De-embedded 
! Data File Written: 10/07/2017 23:12:07
!< HDATE 10/07/2017 13:09:30
!< MDATE 10/07/2017 13:09:30
!< PARAMS
!< gap = 6.0
!< Length = 400.0
!< Pwid1 = 2000.0
!< Pwid2 = 2000.0
!< Air_gap = 24.0
!< Width = 40.0
!< END PARAMS
# GHZ S MA R 51.80000
8.80000000 0.020791 -170.4 0.999780 -80.99 0.999780 -80.99 0.020792 -171.6
!< P1 F=8.8 Eeff=(6.44313487 -2.9703e-5) Z0=(50.4821399 1.16465e-4) R=0.0 C=0.0 
!< P2 F=8.8 Eeff=(6.44313487 -2.9703e-5) Z0=(50.4821399 1.16465e-4) R=0.0 C=0.0 
8.80020000 0.020794 -170.4 0.999780 -80.99 0.999780 -80.99 0.020794 -171.6
8.80040000 0.020797 -170.4 0.999780 -80.99 0.999780 -80.99 0.020797 -171.6
8.80060000 0.020800 -170.4 0.999780 -81.00 0.999780 -81.00 0.020800 -171.6
8.80080000 0.020803 -170.4 0.999780 -81.00 0.999780 -81.00 0.020803 -171.6
8.80100000 0.020805 -170.4 0.999780 -81.00 0.999780 -81.00 0.020806 -171.6
8.80120000 0.020808 -170.4 0.999780 -81.00 0.999780 -81.00 0.020808 -171.6
8.80140000 0.020811 -170.4 0.999780 -81.00 0.999780 -81.00 0.020811 -171.6
8.80160000 0.020814 -170.5 0.999780 -81.01 0.999780 -81.01 0.020814 -171.6
8.80180000 0.020816 -170.5 0.999780 -81.01 0.999780 -81.01 0.020817 -171.6
8.80200000 0.020819 -170.5 0.999780 -81.01 0.999780 -81.01 0.020820 -171.6
8.80220000 0.020822 -170.5 0.999780 -81.01 0.999780 -81.01 0.020822 -171.6
8.80240000 0.020825 -170.5 0.999780 -81.01 0.999780 -81.01 0.020825 -171.6
8.80260000 0.020828 -170.5 0.999779 -81.02 0.999779 -81.02 0.020828 -171.6
8.80280000 0.020831 -170.5 0.999779 -81.02 0.999779 -81.02 0.020831 -171.6
8.80300000 0.020833 -170.5 0.999779 -81.02 0.999779 -81.02 0.020834 -171.6
8.80320000 0.020836 -170.5 0.999779 -81.02 0.999779 -81.02 0.020837 -171.6
8.80340000 0.020839 -170.5 0.999779 -81.02 0.999779 -81.02 0.020839 -171.6
8.80360000 0.020842 -170.5 0.999779 -81.03 0.999779 -81.03 0.020842 -171.6
8.80380000 0.020845 -170.5 0.999779 -81.03 0.999779 -81.03 0.020845 -171.6
8.80400000 0.020848 -170.5 0.999779 -81.03 0.999779 -81.03 0.020848 -171.6
8.80420000 0.020851 -170.5 0.999779 -81.03 0.999779 -81.03 0.020851 -171.6
8.80440000 0.020854 -170.5 0.999779 -81.03 0.999779 -81.03 0.020854 -171.6
8.80460000 0.020857 -170.5 0.999779 -81.04 0.999779 -81.04 0.020857 -171.6
8.80480000 0.020859 -170.5 0.999779 -81.04 0.999779 -81.04 0.020860 -171.6
8.80500000 0.020862 -170.5 0.999779 -81.04 0.999779 -81.04 0.020863 -171.6
8.80520000 0.020865 -170.5 0.999779 -81.04 0.999779 -81.04 0.020866 -171.6
8.80540000 0.020868 -170.5 0.999779 -81.04 0.999779 -81.04 0.020868 -171.6
8.80560000 0.020871 -170.6 0.999779 -81.05 0.999779 -81.05 0.020871 -171.6
8.80580000 0.020874 -170.6 0.999779 -81.05 0.999779 -81.05 0.020874 -171.6
8.80600000 0.020877 -170.6 0.999778 -81.05 0.999778 -81.05 0.020877 -171.6
8.80620000 0.020880 -170.6 0.999778 -81.05 0.999778 -81.05 0.020880 -171.6
8.80640000 0.020883 -170.6 0.999778 -81.05 0.999778 -81.05 0.020883 -171.5
8.80660000 0.020886 -170.6 0.999778 -81.06 0.999778 -81.06 0.020886 -171.5
8.80680000 0.020889 -170.6 0.999778 -81.06 0.999778 -81.06 0.020889 -171.5
8.80700000 0.020892 -170.6 0.999778 -81.06 0.999778 -81.06 0.020892 -171.5
8.80720000 0.020895 -170.6 0.999778 -81.06 0.999778 -81.06 0.020895 -171.5
8.80740000 0.020898 -170.6 0.999778 -81.06 0.999778 -81.06 0.020898 -171.5
8.80760000 0.020901 -170.6 0.999778 -81.07 0.999778 -81.07 0.020901 -171.5
8.80780000 0.020904 -170.6 0.999778 -81.07 0.999778 -81.07 0.020904 -171.5
8.80800000 0.020907 -170.6 0.999778 -81.07 0.999778 -81.07 0.020907 -171.5
8.80820000 0.020910 -170.6 0.999778 -81.07 0.999778 -81.07 0.020910 -171.5
8.80840000 0.020913 -170.6 0.999778 -81.07 0.999778 -81.07 0.020913 -171.5
8.80860000 0.020916 -170.6 0.999778 -81.08 0.999778 -81.08 0.020917 -171.5
8.80880000 0.020919 -170.6 0.999778 -81.08 0.999778 -81.08 0.020920 -171.5
8.80900000 0.020922 -170.6 0.999777 -81.08 0.999777 -81.08 0.020923 -171.5
8.80920000 0.020925 -170.6 0.999777 -81.08 0.999777 -81.08 0.020926 -171.5
8.80940000 0.020929 -170.6 0.999777 -81.08 0.999777 -81.08 0.020929 -171.5
8.80960000 0.020932 -170.7 0.999777 -81.09 0.999777 -81.09 0.020932 -171.5
8.80980000 0.020935 -170.7 0.999777 -81.09 0.999777 -81.09 0.020935 -171.5
8.81000000 0.020938 -170.7 0.999777 -81.09 0.999777 -81.09 0.020938 -171.5
8.81020000 0.020941 -170.7 0.999777 -81.09 0.999777 -81.09 0.020941 -171.5
8.81040000 0.020944 -170.7 0.999777 -81.09 0.999777 -81.09 0.020944 -171.5
8.81060000 0.020947 -170.7 0.999777 -81.10 0.999777 -81.10 0.020948 -171.5
8.81080000 0.020950 -170.7 0.999777 -81.10 0.999777 -81.10 0.020951 -171.5
8.81100000 0.020954 -170.7 0.999777 -81.10 0.999777 -81.10 0.020954 -171.5
8.81120000 0.020957 -170.7 0.999777 -81.10 0.999777 -81.10 0.020957 -171.5
8.81140000 0.020960 -170.7 0.999777 -81.10 0.999777 -81.10 0.020960 -171.5
8.81160000 0.020963 -170.7 0.999777 -81.11 0.999777 -81.11 0.020963 -171.5
8.81180000 0.020966 -170.7 0.999777 -81.11 0.999777 -81.11 0.020967 -171.5
8.81200000 0.020970 -170.7 0.999776 -81.11 0.999776 -81.11 0.020970 -171.5
8.81220000 0.020973 -170.7 0.999776 -81.11 0.999776 -81.11 0.020973 -171.5
8.81240000 0.020976 -170.7 0.999776 -81.11 0.999776 -81.11 0.020976 -171.5
8.81260000 0.020979 -170.7 0.999776 -81.12 0.999776 -81.12 0.020979 -171.5
8.81280000 0.020982 -170.7 0.999776 -81.12 0.999776 -81.12 0.020983 -171.5
8.81300000 0.020986 -170.7 0.999776 -81.12 0.999776 -81.12 0.020986 -171.5
8.81320000 0.020989 -170.7 0.999776 -81.12 0.999776 -81.12 0.020989 -171.5
8.81340000 0.020992 -170.8 0.999776 -81.12 0.999776 -81.12 0.020992 -171.5
8.81360000 0.020995 -170.8 0.999776 -81.13 0.999776 -81.13 0.020996 -171.5
8.81380000 0.020999 -170.8 0.999776 -81.13 0.999776 -81.13 0.020999 -171.5
8.81400000 0.021002 -170.8 0.999776 -81.13 0.999776 -81.13 0.021002 -171.5
8.81420000 0.021005 -170.8 0.999776 -81.13 0.999776 -81.13 0.021006 -171.5
8.81440000 0.021009 -170.8 0.999776 -81.14 0.999776 -81.14 0.021009 -171.5
8.81460000 0.021012 -170.8 0.999776 -81.14 0.999776 -81.14 0.021012 -171.5
8.81480000 0.021015 -170.8 0.999776 -81.14 0.999776 -81.14 0.021015 -171.5
8.81500000 0.021019 -170.8 0.999775 -81.14 0.999775 -81.14 0.021019 -171.5
8.81520000 0.021022 -170.8 0.999775 -81.14 0.999775 -81.14 0.021022 -171.5
8.81540000 0.021025 -170.8 0.999775 -81.15 0.999775 -81.15 0.021026 -171.5
8.81560000 0.021029 -170.8 0.999775 -81.15 0.999775 -81.15 0.021029 -171.5
8.81580000 0.021032 -170.8 0.999775 -81.15 0.999775 -81.15 0.021032 -171.5
8.81600000 0.021035 -170.8 0.999775 -81.15 0.999775 -81.15 0.021036 -171.5
8.81620000 0.021039 -170.8 0.999775 -81.15 0.999775 -81.15 0.021039 -171.5
8.81640000 0.021042 -170.8 0.999775 -81.16 0.999775 -81.16 0.021042 -171.5
8.81660000 0.021046 -170.8 0.999775 -81.16 0.999775 -81.16 0.021046 -171.5
8.81680000 0.021049 -170.8 0.999775 -81.16 0.999775 -81.16 0.021049 -171.5
8.81700000 0.021052 -170.8 0.999775 -81.16 0.999775 -81.16 0.021053 -171.5
8.81720000 0.021056 -170.9 0.999775 -81.16 0.999775 -81.16 0.021056 -171.5
8.81740000 0.021059 -170.9 0.999775 -81.17 0.999775 -81.17 0.021060 -171.5
8.81760000 0.021063 -170.9 0.999774 -81.17 0.999774 -81.17 0.021063 -171.5
8.81780000 0.021066 -170.9 0.999774 -81.17 0.999774 -81.17 0.021066 -171.5
8.81800000 0.021070 -170.9 0.999774 -81.17 0.999774 -81.17 0.021070 -171.5
8.81820000 0.021073 -170.9 0.999774 -81.17 0.999774 -81.17 0.021073 -171.5
8.81840000 0.021077 -170.9 0.999774 -81.18 0.999774 -81.18 0.021077 -171.5
8.81860000 0.021080 -170.9 0.999774 -81.18 0.999774 -81.18 0.021080 -171.5
8.81880000 0.021084 -170.9 0.999774 -81.18 0.999774 -81.18 0.021084 -171.5
8.81900000 0.021087 -170.9 0.999774 -81.18 0.999774 -81.18 0.021087 -171.5
8.81920000 0.021091 -170.9 0.999774 -81.18 0.999774 -81.18 0.021091 -171.5
8.81940000 0.021094 -170.9 0.999774 -81.19 0.999774 -81.19 0.021094 -171.5
8.81960000 0.021098 -170.9 0.999774 -81.19 0.999774 -81.19 0.021098 -171.5
8.81980000 0.021101 -170.9 0.999774 -81.19 0.999774 -81.19 0.021102 -171.5
8.82000000 0.021105 -170.9 0.999774 -81.19 0.999774 -81.19 0.021105 -171.5
8.82020000 0.021108 -170.9 0.999774 -81.19 0.999774 -81.19 0.021109 -171.5
8.82040000 0.021112 -170.9 0.999773 -81.20 0.999773 -81.20 0.021112 -171.5
8.82060000 0.021116 -170.9 0.999773 -81.20 0.999773 -81.20 0.021116 -171.5
8.82080000 0.021119 -171.0 0.999773 -81.20 0.999773 -81.20 0.021120 -171.5
8.82100000 0.021123 -171.0 0.999773 -81.20 0.999773 -81.20 0.021123 -171.5
8.82120000 0.021127 -171.0 0.999773 -81.20 0.999773 -81.20 0.021127 -171.5
8.82140000 0.021130 -171.0 0.999773 -81.21 0.999773 -81.21 0.021130 -171.5
8.82160000 0.021134 -171.0 0.999773 -81.21 0.999773 -81.21 0.021134 -171.5
8.82180000 0.021137 -171.0 0.999773 -81.21 0.999773 -81.21 0.021138 -171.5
8.82200000 0.021141 -171.0 0.999773 -81.21 0.999773 -81.21 0.021141 -171.5
8.82220000 0.021145 -171.0 0.999773 -81.22 0.999773 -81.22 0.021145 -171.5
8.82240000 0.021149 -171.0 0.999773 -81.22 0.999773 -81.22 0.021149 -171.5
8.82260000 0.021152 -171.0 0.999773 -81.22 0.999773 -81.22 0.021152 -171.5
8.82280000 0.021156 -171.0 0.999772 -81.22 0.999772 -81.22 0.021156 -171.4
8.82300000 0.021160 -171.0 0.999772 -81.22 0.999772 -81.22 0.021160 -171.4
8.82320000 0.021163 -171.0 0.999772 -81.23 0.999772 -81.23 0.021164 -171.4
8.82340000 0.021167 -171.0 0.999772 -81.23 0.999772 -81.23 0.021167 -171.4
8.82360000 0.021171 -171.0 0.999772 -81.23 0.999772 -81.23 0.021171 -171.4
8.82380000 0.021175 -171.0 0.999772 -81.23 0.999772 -81.23 0.021175 -171.4
8.82400000 0.021178 -171.0 0.999772 -81.23 0.999772 -81.23 0.021179 -171.4
8.82420000 0.021182 -171.0 0.999772 -81.24 0.999772 -81.24 0.021182 -171.4
8.82440000 0.021186 -171.1 0.999772 -81.24 0.999772 -81.24 0.021186 -171.4
8.82460000 0.021190 -171.1 0.999772 -81.24 0.999772 -81.24 0.021190 -171.4
8.82480000 0.021194 -171.1 0.999772 -81.24 0.999772 -81.24 0.021194 -171.4
8.82500000 0.021197 -171.1 0.999772 -81.24 0.999772 -81.24 0.021198 -171.4
8.82520000 0.021201 -171.1 0.999772 -81.25 0.999772 -81.25 0.021202 -171.4
8.82540000 0.021205 -171.1 0.999771 -81.25 0.999771 -81.25 0.021205 -171.4
8.82560000 0.021209 -171.1 0.999771 -81.25 0.999771 -81.25 0.021209 -171.4
8.82580000 0.021213 -171.1 0.999771 -81.25 0.999771 -81.25 0.021213 -171.4
8.82600000 0.021217 -171.1 0.999771 -81.25 0.999771 -81.25 0.021217 -171.4
8.82620000 0.021221 -171.1 0.999771 -81.26 0.999771 -81.26 0.021221 -171.4
8.82640000 0.021225 -171.1 0.999771 -81.26 0.999771 -81.26 0.021225 -171.4
8.82660000 0.021229 -171.1 0.999771 -81.26 0.999771 -81.26 0.021229 -171.4
8.82680000 0.021232 -171.1 0.999771 -81.26 0.999771 -81.26 0.021233 -171.4
8.82700000 0.021236 -171.1 0.999771 -81.26 0.999771 -81.26 0.021237 -171.4
8.82720000 0.021240 -171.1 0.999771 -81.27 0.999771 -81.27 0.021241 -171.4
8.82740000 0.021244 -171.1 0.999771 -81.27 0.999771 -81.27 0.021245 -171.4
8.82760000 0.021248 -171.1 0.999770 -81.27 0.999770 -81.27 0.021249 -171.4
8.82780000 0.021252 -171.2 0.999770 -81.27 0.999770 -81.27 0.021253 -171.4
8.82800000 0.021256 -171.2 0.999770 -81.28 0.999770 -81.28 0.021257 -171.4
8.82820000 0.021260 -171.2 0.999770 -81.28 0.999770 -81.28 0.021261 -171.4
8.82840000 0.021264 -171.2 0.999770 -81.28 0.999770 -81.28 0.021265 -171.4
8.82860000 0.021268 -171.2 0.999770 -81.28 0.999770 -81.28 0.021269 -171.4
8.82880000 0.021272 -171.2 0.999770 -81.28 0.999770 -81.28 0.021273 -171.4
8.82900000 0.021277 -171.2 0.999770 -81.29 0.999770 -81.29 0.021277 -171.4
8.82920000 0.021281 -171.2 0.999770 -81.29 0.999770 -81.29 0.021281 -171.4
8.82940000 0.021285 -171.2 0.999770 -81.29 0.999770 -81.29 0.021285 -171.4
8.82960000 0.021289 -171.2 0.999770 -81.29 0.999770 -81.29 0.021289 -171.4
8.82980000 0.021293 -171.2 0.999770 -81.29 0.999770 -81.29 0.021293 -171.4
8.83000000 0.021297 -171.2 0.999769 -81.30 0.999769 -81.30 0.021297 -171.4
8.83020000 0.021301 -171.2 0.999769 -81.30 0.999769 -81.30 0.021301 -171.4
8.83040000 0.021305 -171.2 0.999769 -81.30 0.999769 -81.30 0.021306 -171.4
8.83060000 0.021310 -171.2 0.999769 -81.30 0.999769 -81.30 0.021310 -171.4
8.83080000 0.021314 -171.2 0.999769 -81.30 0.999769 -81.30 0.021314 -171.4
8.83100000 0.021318 -171.3 0.999769 -81.31 0.999769 -81.31 0.021318 -171.4
8.83120000 0.021322 -171.3 0.999769 -81.31 0.999769 -81.31 0.021322 -171.4
8.83140000 0.021326 -171.3 0.999769 -81.31 0.999769 -81.31 0.021327 -171.4
8.83160000 0.021331 -171.3 0.999769 -81.31 0.999769 -81.31 0.021331 -171.4
8.83180000 0.021335 -171.3 0.999769 -81.32 0.999769 -81.32 0.021335 -171.4
8.83200000 0.021339 -171.3 0.999769 -81.32 0.999769 -81.32 0.021339 -171.4
8.83220000 0.021343 -171.3 0.999768 -81.32 0.999768 -81.32 0.021344 -171.4
8.83240000 0.021348 -171.3 0.999768 -81.32 0.999768 -81.32 0.021348 -171.4
8.83260000 0.021352 -171.3 0.999768 -81.32 0.999768 -81.32 0.021352 -171.4
8.83280000 0.021356 -171.3 0.999768 -81.33 0.999768 -81.33 0.021356 -171.4
8.83300000 0.021360 -171.3 0.999768 -81.33 0.999768 -81.33 0.021361 -171.4
8.83320000 0.021365 -171.3 0.999768 -81.33 0.999768 -81.33 0.021365 -171.4
8.83340000 0.021369 -171.3 0.999768 -81.33 0.999768 -81.33 0.021369 -171.4
8.83360000 0.021374 -171.3 0.999768 -81.33 0.999768 -81.33 0.021374 -171.4
8.83380000 0.021378 -171.3 0.999768 -81.34 0.999768 -81.34 0.021378 -171.3
8.83400000 0.021382 -171.3 0.999768 -81.34 0.999768 -81.34 0.021383 -171.3
8.83420000 0.021387 -171.4 0.999767 -81.34 0.999767 -81.34 0.021387 -171.3
8.83440000 0.021391 -171.4 0.999767 -81.34 0.999767 -81.34 0.021391 -171.3
8.83460000 0.021396 -171.4 0.999767 -81.34 0.999767 -81.34 0.021396 -171.3
8.83480000 0.021400 -171.4 0.999767 -81.35 0.999767 -81.35 0.021400 -171.3
8.83500000 0.021404 -171.4 0.999767 -81.35 0.999767 -81.35 0.021405 -171.3
8.83520000 0.021409 -171.4 0.999767 -81.35 0.999767 -81.35 0.021409 -171.3
8.83540000 0.021413 -171.4 0.999767 -81.35 0.999767 -81.35 0.021414 -171.3
8.83560000 0.021418 -171.4 0.999767 -81.36 0.999767 -81.36 0.021418 -171.3
8.83580000 0.021422 -171.4 0.999767 -81.36 0.999767 -81.36 0.021423 -171.3
8.83600000 0.021427 -171.4 0.999767 -81.36 0.999767 -81.36 0.021427 -171.3
8.83620000 0.021431 -171.4 0.999767 -81.36 0.999767 -81.36 0.021432 -171.3
8.83640000 0.021436 -171.4 0.999766 -81.36 0.999766 -81.36 0.021436 -171.3
8.83660000 0.021441 -171.4 0.999766 -81.37 0.999766 -81.37 0.021441 -171.3
8.83680000 0.021445 -171.4 0.999766 -81.37 0.999766 -81.37 0.021445 -171.3
8.83700000 0.021450 -171.4 0.999766 -81.37 0.999766 -81.37 0.021450 -171.3
8.83720000 0.021454 -171.4 0.999766 -81.37 0.999766 -81.37 0.021455 -171.3
8.83740000 0.021459 -171.5 0.999766 -81.37 0.999766 -81.37 0.021459 -171.3
8.83760000 0.021464 -171.5 0.999766 -81.38 0.999766 -81.38 0.021464 -171.3
8.83780000 0.021468 -171.5 0.999766 -81.38 0.999766 -81.38 0.021469 -171.3
8.83800000 0.021473 -171.5 0.999766 -81.38 0.999766 -81.38 0.021473 -171.3
8.83820000 0.021478 -171.5 0.999766 -81.38 0.999766 -81.38 0.021478 -171.3
8.83840000 0.021482 -171.5 0.999765 -81.38 0.999765 -81.38 0.021483 -171.3
8.83860000 0.021487 -171.5 0.999765 -81.39 0.999765 -81.39 0.021487 -171.3
8.83880000 0.021492 -171.5 0.999765 -81.39 0.999765 -81.39 0.021492 -171.3
8.83900000 0.021497 -171.5 0.999765 -81.39 0.999765 -81.39 0.021497 -171.3
8.83920000 0.021501 -171.5 0.999765 -81.39 0.999765 -81.39 0.021502 -171.3
8.83940000 0.021506 -171.5 0.999765 -81.40 0.999765 -81.40 0.021506 -171.3
8.83960000 0.021511 -171.5 0.999765 -81.40 0.999765 -81.40 0.021511 -171.3
8.83980000 0.021516 -171.5 0.999765 -81.40 0.999765 -81.40 0.021516 -171.3
8.84000000 0.021520 -171.5 0.999765 -81.40 0.999765 -81.40 0.021521 -171.3
8.84020000 0.021525 -171.5 0.999764 -81.40 0.999764 -81.40 0.021526 -171.3
8.84040000 0.021530 -171.6 0.999764 -81.41 0.999764 -81.41 0.021530 -171.3
8.84060000 0.021535 -171.6 0.999764 -81.41 0.999764 -81.41 0.021535 -171.3
8.84080000 0.021540 -171.6 0.999764 -81.41 0.999764 -81.41 0.021540 -171.3
8.84100000 0.021545 -171.6 0.999764 -81.41 0.999764 -81.41 0.021545 -171.3
8.84120000 0.021550 -171.6 0.999764 -81.41 0.999764 -81.41 0.021550 -171.3
8.84140000 0.021555 -171.6 0.999764 -81.42 0.999764 -81.42 0.021555 -171.3
8.84160000 0.021560 -171.6 0.999764 -81.42 0.999764 -81.42 0.021560 -171.3
8.84180000 0.021565 -171.6 0.999764 -81.42 0.999764 -81.42 0.021565 -171.3
8.84200000 0.021570 -171.6 0.999763 -81.42 0.999763 -81.42 0.021570 -171.3
8.84220000 0.021575 -171.6 0.999763 -81.43 0.999763 -81.43 0.021575 -171.3
8.84240000 0.021580 -171.6 0.999763 -81.43 0.999763 -81.43 0.021580 -171.2
8.84260000 0.021585 -171.6 0.999763 -81.43 0.999763 -81.43 0.021585 -171.2
8.84280000 0.021590 -171.6 0.999763 -81.43 0.999763 -81.43 0.021590 -171.2
8.84300000 0.021595 -171.6 0.999763 -81.43 0.999763 -81.43 0.021595 -171.2
8.84320000 0.021600 -171.6 0.999763 -81.44 0.999763 -81.44 0.021600 -171.2
8.84340000 0.021605 -171.7 0.999763 -81.44 0.999763 -81.44 0.021605 -171.2
8.84360000 0.021610 -171.7 0.999763 -81.44 0.999763 -81.44 0.021610 -171.2
8.84380000 0.021615 -171.7 0.999762 -81.44 0.999762 -81.44 0.021616 -171.2
8.84400000 0.021620 -171.7 0.999762 -81.44 0.999762 -81.44 0.021621 -171.2
8.84420000 0.021626 -171.7 0.999762 -81.45 0.999762 -81.45 0.021626 -171.2
8.84440000 0.021631 -171.7 0.999762 -81.45 0.999762 -81.45 0.021631 -171.2
8.84460000 0.021636 -171.7 0.999762 -81.45 0.999762 -81.45 0.021636 -171.2
8.84480000 0.021641 -171.7 0.999762 -81.45 0.999762 -81.45 0.021641 -171.2
8.84500000 0.021646 -171.7 0.999762 -81.46 0.999762 -81.46 0.021647 -171.2
8.84520000 0.021652 -171.7 0.999762 -81.46 0.999762 -81.46 0.021652 -171.2
8.84540000 0.021657 -171.7 0.999762 -81.46 0.999762 -81.46 0.021657 -171.2
8.84560000 0.021662 -171.7 0.999761 -81.46 0.999761 -81.46 0.021663 -171.2
8.84580000 0.021668 -171.7 0.999761 -81.46 0.999761 -81.46 0.021668 -171.2
8.84600000 0.021673 -171.7 0.999761 -81.47 0.999761 -81.47 0.021673 -171.2
8.84620000 0.021678 -171.8 0.999761 -81.47 0.999761 -81.47 0.021679 -171.2
8.84640000 0.021684 -171.8 0.999761 -81.47 0.999761 -81.47 0.021684 -171.2
8.84660000 0.021689 -171.8 0.999761 -81.47 0.999761 -81.47 0.021689 -171.2
8.84680000 0.021694 -171.8 0.999761 -81.48 0.999761 -81.48 0.021695 -171.2
8.84700000 0.021700 -171.8 0.999761 -81.48 0.999761 -81.48 0.021700 -171.2
8.84720000 0.021705 -171.8 0.999761 -81.48 0.999761 -81.48 0.021706 -171.2
8.84740000 0.021711 -171.8 0.999760 -81.48 0.999760 -81.48 0.021711 -171.2
8.84760000 0.021716 -171.8 0.999760 -81.48 0.999760 -81.48 0.021717 -171.2
8.84780000 0.021722 -171.8 0.999760 -81.49 0.999760 -81.49 0.021722 -171.2
8.84800000 0.021727 -171.8 0.999760 -81.49 0.999760 -81.49 0.021728 -171.2
8.84820000 0.021733 -171.8 0.999760 -81.49 0.999760 -81.49 0.021733 -171.2
8.84840000 0.021738 -171.8 0.999760 -81.49 0.999760 -81.49 0.021739 -171.2
8.84860000 0.021744 -171.8 0.999760 -81.49 0.999760 -81.49 0.021744 -171.2
8.84880000 0.021749 -171.8 0.999760 -81.50 0.999760 -81.50 0.021750 -171.2
8.84900000 0.021755 -171.9 0.999759 -81.50 0.999759 -81.50 0.021755 -171.2
8.84920000 0.021761 -171.9 0.999759 -81.50 0.999759 -81.50 0.021761 -171.2
8.84940000 0.021766 -171.9 0.999759 -81.50 0.999759 -81.50 0.021767 -171.1
8.84960000 0.021772 -171.9 0.999759 -81.51 0.999759 -81.51 0.021772 -171.1
8.84980000 0.021778 -171.9 0.999759 -81.51 0.999759 -81.51 0.021778 -171.1
8.85000000 0.021783 -171.9 0.999759 -81.51 0.999759 -81.51 0.021784 -171.1
8.85020000 0.021789 -171.9 0.999759 -81.51 0.999759 -81.51 0.021790 -171.1
8.85040000 0.021795 -171.9 0.999759 -81.51 0.999759 -81.51 0.021795 -171.1
8.85060000 0.021801 -171.9 0.999758 -81.52 0.999758 -81.52 0.021801 -171.1
8.85080000 0.021807 -171.9 0.999758 -81.52 0.999758 -81.52 0.021807 -171.1
8.85100000 0.021812 -171.9 0.999758 -81.52 0.999758 -81.52 0.021813 -171.1
8.85120000 0.021818 -171.9 0.999758 -81.52 0.999758 -81.52 0.021819 -171.1
8.85140000 0.021824 -171.9 0.999758 -81.53 0.999758 -81.53 0.021824 -171.1
8.85160000 0.021830 -172.0 0.999758 -81.53 0.999758 -81.53 0.021830 -171.1
8.85180000 0.021836 -172.0 0.999758 -81.53 0.999758 -81.53 0.021836 -171.1
8.85200000 0.021842 -172.0 0.999757 -81.53 0.999757 -81.53 0.021842 -171.1
8.85220000 0.021848 -172.0 0.999757 -81.53 0.999757 -81.53 0.021848 -171.1
8.85240000 0.021854 -172.0 0.999757 -81.54 0.999757 -81.54 0.021854 -171.1
8.85260000 0.021860 -172.0 0.999757 -81.54 0.999757 -81.54 0.021860 -171.1
8.85280000 0.021866 -172.0 0.999757 -81.54 0.999757 -81.54 0.021866 -171.1
8.85300000 0.021872 -172.0 0.999757 -81.54 0.999757 -81.54 0.021872 -171.1
8.85320000 0.021878 -172.0 0.999757 -81.55 0.999757 -81.55 0.021878 -171.1
8.85340000 0.021884 -172.0 0.999757 -81.55 0.999757 -81.55 0.021884 -171.1
8.85360000 0.021890 -172.0 0.999756 -81.55 0.999756 -81.55 0.021890 -171.1
8.85380000 0.021896 -172.0 0.999756 -81.55 0.999756 -81.55 0.021896 -171.1
8.85400000 0.021902 -172.0 0.999756 -81.55 0.999756 -81.55 0.021903 -171.1
8.85420000 0.021908 -172.1 0.999756 -81.56 0.999756 -81.56 0.021909 -171.1
8.85440000 0.021915 -172.1 0.999756 -81.56 0.999756 -81.56 0.021915 -171.1
8.85460000 0.021921 -172.1 0.999756 -81.56 0.999756 -81.56 0.021921 -171.1
8.85480000 0.021927 -172.1 0.999756 -81.56 0.999756 -81.56 0.021927 -171.1
8.85500000 0.021933 -172.1 0.999755 -81.57 0.999755 -81.57 0.021934 -171.1
8.85520000 0.021940 -172.1 0.999755 -81.57 0.999755 -81.57 0.021940 -171.1
8.85540000 0.021946 -172.1 0.999755 -81.57 0.999755 -81.57 0.021946 -171.1
8.85560000 0.021952 -172.1 0.999755 -81.57 0.999755 -81.57 0.021952 -171.0
8.85580000 0.021958 -172.1 0.999755 -81.57 0.999755 -81.57 0.021959 -171.0
8.85600000 0.021965 -172.1 0.999755 -81.58 0.999755 -81.58 0.021965 -171.0
8.85620000 0.021971 -172.1 0.999755 -81.58 0.999755 -81.58 0.021972 -171.0
8.85640000 0.021978 -172.1 0.999754 -81.58 0.999754 -81.58 0.021978 -171.0
8.85660000 0.021984 -172.2 0.999754 -81.58 0.999754 -81.58 0.021984 -171.0
8.85680000 0.021991 -172.2 0.999754 -81.59 0.999754 -81.59 0.021991 -171.0
8.85700000 0.021997 -172.2 0.999754 -81.59 0.999754 -81.59 0.021997 -171.0
8.85720000 0.022004 -172.2 0.999754 -81.59 0.999754 -81.59 0.022004 -171.0
8.85740000 0.022010 -172.2 0.999754 -81.59 0.999754 -81.59 0.022011 -171.0
8.85760000 0.022017 -172.2 0.999754 -81.59 0.999754 -81.59 0.022017 -171.0
8.85780000 0.022023 -172.2 0.999753 -81.60 0.999753 -81.60 0.022024 -171.0
8.85800000 0.022030 -172.2 0.999753 -81.60 0.999753 -81.60 0.022030 -171.0
8.85820000 0.022037 -172.2 0.999753 -81.60 0.999753 -81.60 0.022037 -171.0
8.85840000 0.022043 -172.2 0.999753 -81.60 0.999753 -81.60 0.022044 -171.0
8.85860000 0.022050 -172.2 0.999753 -81.61 0.999753 -81.61 0.022050 -171.0
8.85880000 0.022057 -172.2 0.999753 -81.61 0.999753 -81.61 0.022057 -171.0
8.85900000 0.022063 -172.3 0.999753 -81.61 0.999753 -81.61 0.022064 -171.0
8.85920000 0.022070 -172.3 0.999752 -81.61 0.999752 -81.61 0.022071 -171.0
8.85940000 0.022077 -172.3 0.999752 -81.61 0.999752 -81.61 0.022077 -171.0
8.85960000 0.022084 -172.3 0.999752 -81.62 0.999752 -81.62 0.022084 -171.0
8.85980000 0.022091 -172.3 0.999752 -81.62 0.999752 -81.62 0.022091 -171.0
8.86000000 0.022097 -172.3 0.999752 -81.62 0.999752 -81.62 0.022098 -171.0
8.86020000 0.022104 -172.3 0.999752 -81.62 0.999752 -81.62 0.022105 -171.0
8.86040000 0.022111 -172.3 0.999751 -81.63 0.999751 -81.63 0.022112 -171.0
8.86060000 0.022118 -172.3 0.999751 -81.63 0.999751 -81.63 0.022119 -171.0
8.86080000 0.022125 -172.3 0.999751 -81.63 0.999751 -81.63 0.022126 -170.9
8.86100000 0.022132 -172.3 0.999751 -81.63 0.999751 -81.63 0.022133 -170.9
8.86120000 0.022139 -172.3 0.999751 -81.63 0.999751 -81.63 0.022140 -170.9
8.86140000 0.022146 -172.4 0.999751 -81.64 0.999751 -81.64 0.022147 -170.9
8.86160000 0.022153 -172.4 0.999750 -81.64 0.999750 -81.64 0.022154 -170.9
8.86180000 0.022161 -172.4 0.999750 -81.64 0.999750 -81.64 0.022161 -170.9
8.86200000 0.022168 -172.4 0.999750 -81.64 0.999750 -81.64 0.022168 -170.9
8.86220000 0.022175 -172.4 0.999750 -81.65 0.999750 -81.65 0.022175 -170.9
8.86240000 0.022182 -172.4 0.999750 -81.65 0.999750 -81.65 0.022182 -170.9
8.86260000 0.022189 -172.4 0.999750 -81.65 0.999750 -81.65 0.022190 -170.9
8.86280000 0.022197 -172.4 0.999750 -81.65 0.999750 -81.65 0.022197 -170.9
8.86300000 0.022204 -172.4 0.999749 -81.66 0.999749 -81.66 0.022204 -170.9
8.86320000 0.022211 -172.4 0.999749 -81.66 0.999749 -81.66 0.022212 -170.9
8.86340000 0.022219 -172.4 0.999749 -81.66 0.999749 -81.66 0.022219 -170.9
8.86360000 0.022226 -172.4 0.999749 -81.66 0.999749 -81.66 0.022226 -170.9
8.86380000 0.022233 -172.5 0.999749 -81.66 0.999749 -81.66 0.022234 -170.9
8.86400000 0.022241 -172.5 0.999749 -81.67 0.999749 -81.67 0.022241 -170.9
8.86420000 0.022248 -172.5 0.999748 -81.67 0.999748 -81.67 0.022249 -170.9
8.86440000 0.022256 -172.5 0.999748 -81.67 0.999748 -81.67 0.022256 -170.9
8.86460000 0.022263 -172.5 0.999748 -81.67 0.999748 -81.67 0.022264 -170.9
8.86480000 0.022271 -172.5 0.999748 -81.68 0.999748 -81.68 0.022271 -170.9
8.86500000 0.022278 -172.5 0.999748 -81.68 0.999748 -81.68 0.022279 -170.9
8.86520000 0.022286 -172.5 0.999747 -81.68 0.999747 -81.68 0.022286 -170.9
8.86540000 0.022294 -172.5 0.999747 -81.68 0.999747 -81.68 0.022294 -170.9
8.86560000 0.022301 -172.5 0.999747 -81.69 0.999747 -81.69 0.022302 -170.8
8.86580000 0.022309 -172.5 0.999747 -81.69 0.999747 -81.69 0.022310 -170.8
8.86600000 0.022317 -172.6 0.999747 -81.69 0.999747 -81.69 0.022317 -170.8
8.86620000 0.022325 -172.6 0.999747 -81.69 0.999747 -81.69 0.022325 -170.8
8.86640000 0.022332 -172.6 0.999746 -81.69 0.999746 -81.69 0.022333 -170.8
8.86660000 0.022340 -172.6 0.999746 -81.70 0.999746 -81.70 0.022341 -170.8
8.86680000 0.022348 -172.6 0.999746 -81.70 0.999746 -81.70 0.022349 -170.8
8.86700000 0.022356 -172.6 0.999746 -81.70 0.999746 -81.70 0.022357 -170.8
8.86720000 0.022364 -172.6 0.999746 -81.70 0.999746 -81.70 0.022364 -170.8
8.86740000 0.022372 -172.6 0.999746 -81.71 0.999746 -81.71 0.022372 -170.8
8.86760000 0.022380 -172.6 0.999745 -81.71 0.999745 -81.71 0.022380 -170.8
8.86780000 0.022388 -172.6 0.999745 -81.71 0.999745 -81.71 0.022388 -170.8
8.86800000 0.022396 -172.7 0.999745 -81.71 0.999745 -81.71 0.022397 -170.8
8.86820000 0.022404 -172.7 0.999745 -81.72 0.999745 -81.72 0.022405 -170.8
8.86840000 0.022412 -172.7 0.999745 -81.72 0.999745 -81.72 0.022413 -170.8
8.86860000 0.022421 -172.7 0.999744 -81.72 0.999744 -81.72 0.022421 -170.8
8.86880000 0.022429 -172.7 0.999744 -81.72 0.999744 -81.72 0.022429 -170.8
8.86900000 0.022437 -172.7 0.999744 -81.72 0.999744 -81.72 0.022437 -170.8
8.86920000 0.022445 -172.7 0.999744 -81.73 0.999744 -81.73 0.022446 -170.8
8.86940000 0.022454 -172.7 0.999744 -81.73 0.999744 -81.73 0.022454 -170.8
8.86960000 0.022462 -172.7 0.999743 -81.73 0.999743 -81.73 0.022462 -170.8
8.86980000 0.022470 -172.7 0.999743 -81.73 0.999743 -81.73 0.022471 -170.7
8.87000000 0.022479 -172.7 0.999743 -81.74 0.999743 -81.74 0.022479 -170.7
8.87020000 0.022487 -172.8 0.999743 -81.74 0.999743 -81.74 0.022488 -170.7
8.87040000 0.022496 -172.8 0.999743 -81.74 0.999743 -81.74 0.022496 -170.7
8.87060000 0.022504 -172.8 0.999742 -81.74 0.999742 -81.74 0.022505 -170.7
8.87080000 0.022513 -172.8 0.999742 -81.75 0.999742 -81.75 0.022513 -170.7
8.87100000 0.022521 -172.8 0.999742 -81.75 0.999742 -81.75 0.022522 -170.7
8.87120000 0.022530 -172.8 0.999742 -81.75 0.999742 -81.75 0.022531 -170.7
8.87140000 0.022539 -172.8 0.999742 -81.75 0.999742 -81.75 0.022539 -170.7
8.87160000 0.022547 -172.8 0.999741 -81.76 0.999741 -81.76 0.022548 -170.7
8.87180000 0.022556 -172.8 0.999741 -81.76 0.999741 -81.76 0.022557 -170.7
8.87200000 0.022565 -172.8 0.999741 -81.76 0.999741 -81.76 0.022566 -170.7
8.87220000 0.022574 -172.9 0.999741 -81.76 0.999741 -81.76 0.022574 -170.7
8.87240000 0.022583 -172.9 0.999741 -81.76 0.999741 -81.76 0.022583 -170.7
8.87260000 0.022592 -172.9 0.999740 -81.77 0.999740 -81.77 0.022592 -170.7
8.87280000 0.022601 -172.9 0.999740 -81.77 0.999740 -81.77 0.022601 -170.7
8.87300000 0.022610 -172.9 0.999740 -81.77 0.999740 -81.77 0.022610 -170.7
8.87320000 0.022619 -172.9 0.999740 -81.77 0.999740 -81.77 0.022619 -170.7
8.87340000 0.022628 -172.9 0.999740 -81.78 0.999740 -81.78 0.022628 -170.7
8.87360000 0.022637 -172.9 0.999739 -81.78 0.999739 -81.78 0.022637 -170.6
8.87380000 0.022646 -172.9 0.999739 -81.78 0.999739 -81.78 0.022646 -170.6
8.87400000 0.022655 -172.9 0.999739 -81.78 0.999739 -81.78 0.022656 -170.6
8.87420000 0.022664 -173.0 0.999739 -81.79 0.999739 -81.79 0.022665 -170.6
8.87440000 0.022674 -173.0 0.999739 -81.79 0.999739 -81.79 0.022674 -170.6
8.87460000 0.022683 -173.0 0.999738 -81.79 0.999738 -81.79 0.022683 -170.6
8.87480000 0.022692 -173.0 0.999738 -81.79 0.999738 -81.79 0.022693 -170.6
8.87500000 0.022702 -173.0 0.999738 -81.80 0.999738 -81.80 0.022702 -170.6
8.87520000 0.022711 -173.0 0.999738 -81.80 0.999738 -81.80 0.022712 -170.6
8.87540000 0.022721 -173.0 0.999737 -81.80 0.999737 -81.80 0.022721 -170.6
8.87560000 0.022730 -173.0 0.999737 -81.80 0.999737 -81.80 0.022731 -170.6
8.87580000 0.022740 -173.0 0.999737 -81.81 0.999737 -81.81 0.022740 -170.6
8.87600000 0.022749 -173.1 0.999737 -81.81 0.999737 -81.81 0.022750 -170.6
8.87620000 0.022759 -173.1 0.999737 -81.81 0.999737 -81.81 0.022760 -170.6
8.87640000 0.022769 -173.1 0.999736 -81.81 0.999736 -81.81 0.022769 -170.6
8.87660000 0.022778 -173.1 0.999736 -81.82 0.999736 -81.82 0.022779 -170.6
8.87680000 0.022788 -173.1 0.999736 -81.82 0.999736 -81.82 0.022789 -170.6
8.87700000 0.022798 -173.1 0.999736 -81.82 0.999736 -81.82 0.022799 -170.6
8.87720000 0.022808 -173.1 0.999735 -81.82 0.999735 -81.82 0.022809 -170.5
8.87740000 0.022818 -173.1 0.999735 -81.83 0.999735 -81.83 0.022818 -170.5
8.87760000 0.022828 -173.1 0.999735 -81.83 0.999735 -81.83 0.022828 -170.5
8.87780000 0.022838 -173.1 0.999735 -81.83 0.999735 -81.83 0.022838 -170.5
8.87800000 0.022848 -173.2 0.999735 -81.83 0.999735 -81.83 0.022849 -170.5
8.87820000 0.022858 -173.2 0.999734 -81.83 0.999734 -81.83 0.022859 -170.5
8.87840000 0.022868 -173.2 0.999734 -81.84 0.999734 -81.84 0.022869 -170.5