! Sonnet Data File
! From: emgraph Version : 16.52
! From Project: Resonator2_cp
! Data is De-embedded 
! Data File Written: 10/09/2017 00:47:19
!< HDATE 10/08/2017 10:09:33
!< MDATE 10/08/2017 10:09:33
!< PARAMS
!< Length = 400.0
!< Pwid1 = 2000.0
!< Pwid2 = 2000.0
!< Air_gap = 30.0
!< Width = 50.0
!< gap = 16.0
!< END PARAMS
# GHZ S MA R 51.00000
8.90000000 0.010190 -174.1 0.999944 -81.78 0.999944 -81.78 0.010191 -169.5
!< P1 F=8.9 Eeff=(6.44048165 -2.9687e-5) Z0=(50.4067405 1.16285e-4) R=0.0 C=0.0 
!< P2 F=8.9 Eeff=(6.44048165 -2.9687e-5) Z0=(50.4067405 1.16285e-4) R=0.0 C=0.0 
8.90010000 0.010195 -174.1 0.999944 -81.78 0.999944 -81.78 0.010196 -169.5
8.90020000 0.010200 -174.1 0.999944 -81.78 0.999944 -81.78 0.010200 -169.5
8.90030000 0.010205 -174.1 0.999944 -81.78 0.999944 -81.78 0.010205 -169.5
8.90040000 0.010209 -174.1 0.999944 -81.78 0.999944 -81.78 0.010210 -169.5
8.90050000 0.010214 -174.1 0.999943 -81.78 0.999943 -81.78 0.010215 -169.5
8.90060000 0.010219 -174.1 0.999943 -81.79 0.999943 -81.79 0.010220 -169.5
8.90070000 0.010224 -174.1 0.999943 -81.79 0.999943 -81.79 0.010224 -169.5
8.90080000 0.010229 -174.1 0.999943 -81.79 0.999943 -81.79 0.010229 -169.5
8.90090000 0.010234 -174.2 0.999943 -81.79 0.999943 -81.79 0.010234 -169.5
8.90100000 0.010239 -174.2 0.999943 -81.79 0.999943 -81.79 0.010239 -169.5
8.90110000 0.010244 -174.2 0.999943 -81.79 0.999943 -81.79 0.010244 -169.4
8.90120000 0.010249 -174.2 0.999943 -81.79 0.999943 -81.79 0.010249 -169.4
8.90130000 0.010253 -174.2 0.999943 -81.79 0.999943 -81.79 0.010254 -169.4
8.90140000 0.010258 -174.2 0.999943 -81.80 0.999943 -81.80 0.010259 -169.4
8.90150000 0.010263 -174.2 0.999943 -81.80 0.999943 -81.80 0.010264 -169.4
8.90160000 0.010268 -174.2 0.999943 -81.80 0.999943 -81.80 0.010269 -169.4
8.90170000 0.010273 -174.2 0.999943 -81.80 0.999943 -81.80 0.010274 -169.4
8.90180000 0.010279 -174.2 0.999943 -81.80 0.999943 -81.80 0.010279 -169.4
8.90190000 0.010284 -174.3 0.999943 -81.80 0.999943 -81.80 0.010284 -169.4
8.90200000 0.010289 -174.3 0.999943 -81.80 0.999943 -81.80 0.010289 -169.4
8.90210000 0.010294 -174.3 0.999943 -81.80 0.999943 -81.80 0.010294 -169.4
8.90220000 0.010299 -174.3 0.999943 -81.81 0.999943 -81.81 0.010299 -169.4
8.90230000 0.010304 -174.3 0.999943 -81.81 0.999943 -81.81 0.010305 -169.4
8.90240000 0.010309 -174.3 0.999942 -81.81 0.999942 -81.81 0.010310 -169.3
8.90250000 0.010314 -174.3 0.999942 -81.81 0.999942 -81.81 0.010315 -169.3
8.90260000 0.010320 -174.3 0.999942 -81.81 0.999942 -81.81 0.010320 -169.3
8.90270000 0.010325 -174.3 0.999942 -81.81 0.999942 -81.81 0.010325 -169.3
8.90280000 0.010330 -174.4 0.999942 -81.81 0.999942 -81.81 0.010330 -169.3
8.90290000 0.010335 -174.4 0.999942 -81.81 0.999942 -81.81 0.010336 -169.3
8.90300000 0.010340 -174.4 0.999942 -81.82 0.999942 -81.82 0.010341 -169.3
8.90310000 0.010346 -174.4 0.999942 -81.82 0.999942 -81.82 0.010346 -169.3
8.90320000 0.010351 -174.4 0.999942 -81.82 0.999942 -81.82 0.010352 -169.3
8.90330000 0.010356 -174.4 0.999942 -81.82 0.999942 -81.82 0.010357 -169.3
8.90340000 0.010362 -174.4 0.999942 -81.82 0.999942 -81.82 0.010362 -169.3
8.90350000 0.010367 -174.4 0.999942 -81.82 0.999942 -81.82 0.010368 -169.3
8.90360000 0.010372 -174.4 0.999942 -81.82 0.999942 -81.82 0.010373 -169.2
8.90370000 0.010378 -174.5 0.999942 -81.82 0.999942 -81.82 0.010378 -169.2
8.90380000 0.010383 -174.5 0.999942 -81.83 0.999942 -81.83 0.010384 -169.2
8.90390000 0.010389 -174.5 0.999942 -81.83 0.999942 -81.83 0.010389 -169.2
8.90400000 0.010394 -174.5 0.999942 -81.83 0.999942 -81.83 0.010395 -169.2
8.90410000 0.010400 -174.5 0.999941 -81.83 0.999941 -81.83 0.010400 -169.2
8.90420000 0.010405 -174.5 0.999941 -81.83 0.999941 -81.83 0.010406 -169.2
8.90430000 0.010411 -174.5 0.999941 -81.83 0.999941 -81.83 0.010411 -169.2
8.90440000 0.010416 -174.5 0.999941 -81.83 0.999941 -81.83 0.010417 -169.2
8.90450000 0.010422 -174.5 0.999941 -81.83 0.999941 -81.83 0.010422 -169.2
8.90460000 0.010427 -174.6 0.999941 -81.84 0.999941 -81.84 0.010428 -169.2
8.90470000 0.010433 -174.6 0.999941 -81.84 0.999941 -81.84 0.010433 -169.1
8.90480000 0.010438 -174.6 0.999941 -81.84 0.999941 -81.84 0.010439 -169.1
8.90490000 0.010444 -174.6 0.999941 -81.84 0.999941 -81.84 0.010445 -169.1
8.90500000 0.010450 -174.6 0.999941 -81.84 0.999941 -81.84 0.010450 -169.1
8.90510000 0.010455 -174.6 0.999941 -81.84 0.999941 -81.84 0.010456 -169.1
8.90520000 0.010461 -174.6 0.999941 -81.84 0.999941 -81.84 0.010462 -169.1
8.90530000 0.010467 -174.6 0.999941 -81.84 0.999941 -81.84 0.010467 -169.1
8.90540000 0.010473 -174.6 0.999941 -81.85 0.999941 -81.85 0.010473 -169.1
8.90550000 0.010478 -174.7 0.999941 -81.85 0.999941 -81.85 0.010479 -169.1
8.90560000 0.010484 -174.7 0.999940 -81.85 0.999940 -81.85 0.010485 -169.1
8.90570000 0.010490 -174.7 0.999940 -81.85 0.999940 -81.85 0.010491 -169.1
8.90580000 0.010496 -174.7 0.999940 -81.85 0.999940 -81.85 0.010496 -169.1
8.90590000 0.010502 -174.7 0.999940 -81.85 0.999940 -81.85 0.010502 -169.0
8.90600000 0.010508 -174.7 0.999940 -81.85 0.999940 -81.85 0.010508 -169.0
8.90610000 0.010513 -174.7 0.999940 -81.85 0.999940 -81.85 0.010514 -169.0
8.90620000 0.010519 -174.7 0.999940 -81.86 0.999940 -81.86 0.010520 -169.0
8.90630000 0.010525 -174.7 0.999940 -81.86 0.999940 -81.86 0.010526 -169.0
8.90640000 0.010531 -174.8 0.999940 -81.86 0.999940 -81.86 0.010532 -169.0
8.90650000 0.010537 -174.8 0.999940 -81.86 0.999940 -81.86 0.010538 -169.0
8.90660000 0.010543 -174.8 0.999940 -81.86 0.999940 -81.86 0.010544 -169.0
8.90670000 0.010549 -174.8 0.999940 -81.86 0.999940 -81.86 0.010550 -169.0
8.90680000 0.010555 -174.8 0.999940 -81.86 0.999940 -81.86 0.010556 -169.0
8.90690000 0.010561 -174.8 0.999940 -81.86 0.999940 -81.86 0.010562 -169.0
8.90700000 0.010567 -174.8 0.999940 -81.87 0.999940 -81.87 0.010568 -168.9
8.90710000 0.010574 -174.8 0.999939 -81.87 0.999939 -81.87 0.010574 -168.9
8.90720000 0.010580 -174.9 0.999939 -81.87 0.999939 -81.87 0.010580 -168.9
8.90730000 0.010586 -174.9 0.999939 -81.87 0.999939 -81.87 0.010586 -168.9
8.90740000 0.010592 -174.9 0.999939 -81.87 0.999939 -81.87 0.010593 -168.9
8.90750000 0.010598 -174.9 0.999939 -81.87 0.999939 -81.87 0.010599 -168.9
8.90760000 0.010605 -174.9 0.999939 -81.87 0.999939 -81.87 0.010605 -168.9
8.90770000 0.010611 -174.9 0.999939 -81.87 0.999939 -81.87 0.010611 -168.9
8.90780000 0.010617 -174.9 0.999939 -81.88 0.999939 -81.88 0.010618 -168.9
8.90790000 0.010623 -174.9 0.999939 -81.88 0.999939 -81.88 0.010624 -168.9
8.90800000 0.010630 -175.0 0.999939 -81.88 0.999939 -81.88 0.010630 -168.8
8.90810000 0.010636 -175.0 0.999939 -81.88 0.999939 -81.88 0.010637 -168.8
8.90820000 0.010642 -175.0 0.999939 -81.88 0.999939 -81.88 0.010643 -168.8
8.90830000 0.010649 -175.0 0.999939 -81.88 0.999939 -81.88 0.010649 -168.8
8.90840000 0.010655 -175.0 0.999939 -81.88 0.999939 -81.88 0.010656 -168.8
8.90850000 0.010662 -175.0 0.999938 -81.89 0.999938 -81.89 0.010662 -168.8
8.90860000 0.010668 -175.0 0.999938 -81.89 0.999938 -81.89 0.010669 -168.8
8.90870000 0.010675 -175.0 0.999938 -81.89 0.999938 -81.89 0.010675 -168.8
8.90880000 0.010681 -175.0 0.999938 -81.89 0.999938 -81.89 0.010682 -168.8
8.90890000 0.010688 -175.1 0.999938 -81.89 0.999938 -81.89 0.010688 -168.8
8.90900000 0.010694 -175.1 0.999938 -81.89 0.999938 -81.89 0.010695 -168.7
8.90910000 0.010701 -175.1 0.999938 -81.89 0.999938 -81.89 0.010702 -168.7
8.90920000 0.010708 -175.1 0.999938 -81.89 0.999938 -81.89 0.010708 -168.7
8.90930000 0.010714 -175.1 0.999938 -81.90 0.999938 -81.90 0.010715 -168.7
8.90940000 0.010721 -175.1 0.999938 -81.90 0.999938 -81.90 0.010722 -168.7
8.90950000 0.010728 -175.1 0.999938 -81.90 0.999938 -81.90 0.010728 -168.7
8.90960000 0.010735 -175.1 0.999938 -81.90 0.999938 -81.90 0.010735 -168.7
8.90970000 0.010741 -175.2 0.999938 -81.90 0.999938 -81.90 0.010742 -168.7
8.90980000 0.010748 -175.2 0.999937 -81.90 0.999937 -81.90 0.010749 -168.7
8.90990000 0.010755 -175.2 0.999937 -81.90 0.999937 -81.90 0.010756 -168.7
8.91000000 0.010762 -175.2 0.999937 -81.91 0.999937 -81.91 0.010762 -168.6
8.91010000 0.010769 -175.2 0.999937 -81.91 0.999937 -81.91 0.010769 -168.6
8.91020000 0.010776 -175.2 0.999937 -81.91 0.999937 -81.91 0.010776 -168.6
8.91030000 0.010783 -175.2 0.999937 -81.91 0.999937 -81.91 0.010783 -168.6
8.91040000 0.010790 -175.3 0.999937 -81.91 0.999937 -81.91 0.010790 -168.6
8.91050000 0.010797 -175.3 0.999937 -81.91 0.999937 -81.91 0.010797 -168.6
8.91060000 0.010804 -175.3 0.999937 -81.91 0.999937 -81.91 0.010804 -168.6
8.91070000 0.010811 -175.3 0.999937 -81.91 0.999937 -81.91 0.010811 -168.6
8.91080000 0.010818 -175.3 0.999937 -81.92 0.999937 -81.92 0.010818 -168.6
8.91090000 0.010825 -175.3 0.999937 -81.92 0.999937 -81.92 0.010825 -168.6
8.91100000 0.010832 -175.3 0.999936 -81.92 0.999936 -81.92 0.010833 -168.5
8.91110000 0.010839 -175.3 0.999936 -81.92 0.999936 -81.92 0.010840 -168.5
8.91120000 0.010846 -175.4 0.999936 -81.92 0.999936 -81.92 0.010847 -168.5
8.91130000 0.010854 -175.4 0.999936 -81.92 0.999936 -81.92 0.010854 -168.5
8.91140000 0.010861 -175.4 0.999936 -81.92 0.999936 -81.92 0.010862 -168.5
8.91150000 0.010868 -175.4 0.999936 -81.93 0.999936 -81.93 0.010869 -168.5
8.91160000 0.010875 -175.4 0.999936 -81.93 0.999936 -81.93 0.010876 -168.5
8.91170000 0.010883 -175.4 0.999936 -81.93 0.999936 -81.93 0.010884 -168.5
8.91180000 0.010890 -175.4 0.999936 -81.93 0.999936 -81.93 0.010891 -168.5
8.91190000 0.010898 -175.5 0.999936 -81.93 0.999936 -81.93 0.010898 -168.5
8.91200000 0.010905 -175.5 0.999936 -81.93 0.999936 -81.93 0.010906 -168.4
8.91210000 0.010913 -175.5 0.999936 -81.93 0.999936 -81.93 0.010913 -168.4
8.91220000 0.010920 -175.5 0.999935 -81.93 0.999935 -81.93 0.010921 -168.4
8.91230000 0.010928 -175.5 0.999935 -81.94 0.999935 -81.94 0.010928 -168.4
8.91240000 0.010935 -175.5 0.999935 -81.94 0.999935 -81.94 0.010936 -168.4
8.91250000 0.010943 -175.5 0.999935 -81.94 0.999935 -81.94 0.010944 -168.4
8.91260000 0.010950 -175.5 0.999935 -81.94 0.999935 -81.94 0.010951 -168.4
8.91270000 0.010958 -175.6 0.999935 -81.94 0.999935 -81.94 0.010959 -168.4
8.91280000 0.010966 -175.6 0.999935 -81.94 0.999935 -81.94 0.010967 -168.4
8.91290000 0.010974 -175.6 0.999935 -81.94 0.999935 -81.94 0.010974 -168.3
8.91300000 0.010981 -175.6 0.999935 -81.95 0.999935 -81.95 0.010982 -168.3
8.91310000 0.010989 -175.6 0.999935 -81.95 0.999935 -81.95 0.010990 -168.3
8.91320000 0.010997 -175.6 0.999935 -81.95 0.999935 -81.95 0.010998 -168.3
8.91330000 0.011005 -175.6 0.999934 -81.95 0.999934 -81.95 0.011006 -168.3
8.91340000 0.011013 -175.7 0.999934 -81.95 0.999934 -81.95 0.011013 -168.3
8.91350000 0.011021 -175.7 0.999934 -81.95 0.999934 -81.95 0.011021 -168.3
8.91360000 0.011029 -175.7 0.999934 -81.95 0.999934 -81.95 0.011029 -168.3
8.91370000 0.011037 -175.7 0.999934 -81.96 0.999934 -81.96 0.011037 -168.3
8.91380000 0.011045 -175.7 0.999934 -81.96 0.999934 -81.96 0.011045 -168.2
8.91390000 0.011053 -175.7 0.999934 -81.96 0.999934 -81.96 0.011054 -168.2
8.91400000 0.011061 -175.7 0.999934 -81.96 0.999934 -81.96 0.011062 -168.2
8.91410000 0.011069 -175.8 0.999934 -81.96 0.999934 -81.96 0.011070 -168.2
8.91420000 0.011077 -175.8 0.999934 -81.96 0.999934 -81.96 0.011078 -168.2
8.91430000 0.011086 -175.8 0.999933 -81.96 0.999933 -81.96 0.011086 -168.2
8.91440000 0.011094 -175.8 0.999933 -81.97 0.999933 -81.97 0.011095 -168.2
8.91450000 0.011102 -175.8 0.999933 -81.97 0.999933 -81.97 0.011103 -168.2
8.91460000 0.011110 -175.8 0.999933 -81.97 0.999933 -81.97 0.011111 -168.1
8.91470000 0.011119 -175.8 0.999933 -81.97 0.999933 -81.97 0.011120 -168.1
8.91480000 0.011127 -175.9 0.999933 -81.97 0.999933 -81.97 0.011128 -168.1
8.91490000 0.011136 -175.9 0.999933 -81.97 0.999933 -81.97 0.011136 -168.1
8.91500000 0.011144 -175.9 0.999933 -81.97 0.999933 -81.97 0.011145 -168.1
8.91510000 0.011153 -175.9 0.999933 -81.98 0.999933 -81.98 0.011153 -168.1
8.91520000 0.011161 -175.9 0.999933 -81.98 0.999933 -81.98 0.011162 -168.1
8.91530000 0.011170 -175.9 0.999932 -81.98 0.999932 -81.98 0.011171 -168.1
8.91540000 0.011179 -175.9 0.999932 -81.98 0.999932 -81.98 0.011179 -168.1
8.91550000 0.011187 -176.0 0.999932 -81.98 0.999932 -81.98 0.011188 -168.0
8.91560000 0.011196 -176.0 0.999932 -81.98 0.999932 -81.98 0.011197 -168.0
8.91570000 0.011205 -176.0 0.999932 -81.98 0.999932 -81.98 0.011205 -168.0
8.91580000 0.011213 -176.0 0.999932 -81.99 0.999932 -81.99 0.011214 -168.0
8.91590000 0.011222 -176.0 0.999932 -81.99 0.999932 -81.99 0.011223 -168.0
8.91600000 0.011231 -176.0 0.999932 -81.99 0.999932 -81.99 0.011232 -168.0
8.91610000 0.011240 -176.1 0.999932 -81.99 0.999932 -81.99 0.011241 -168.0
8.91620000 0.011249 -176.1 0.999931 -81.99 0.999931 -81.99 0.011250 -168.0
8.91630000 0.011258 -176.1 0.999931 -81.99 0.999931 -81.99 0.011259 -167.9
8.91640000 0.011267 -176.1 0.999931 -81.99 0.999931 -81.99 0.011268 -167.9
8.91650000 0.011276 -176.1 0.999931 -82.00 0.999931 -82.00 0.011277 -167.9
8.91660000 0.011285 -176.1 0.999931 -82.00 0.999931 -82.00 0.011286 -167.9
8.91670000 0.011295 -176.1 0.999931 -82.00 0.999931 -82.00 0.011295 -167.9
8.91680000 0.011304 -176.2 0.999931 -82.00 0.999931 -82.00 0.011305 -167.9
8.91690000 0.011313 -176.2 0.999931 -82.00 0.999931 -82.00 0.011314 -167.9
8.91700000 0.011322 -176.2 0.999931 -82.00 0.999931 -82.00 0.011323 -167.9
8.91710000 0.011332 -176.2 0.999930 -82.00 0.999930 -82.00 0.011332 -167.8
8.91720000 0.011341 -176.2 0.999930 -82.01 0.999930 -82.01 0.011342 -167.8
8.91730000 0.011350 -176.2 0.999930 -82.01 0.999930 -82.01 0.011351 -167.8
8.91740000 0.011360 -176.3 0.999930 -82.01 0.999930 -82.01 0.011361 -167.8
8.91750000 0.011369 -176.3 0.999930 -82.01 0.999930 -82.01 0.011370 -167.8
8.91760000 0.011379 -176.3 0.999930 -82.01 0.999930 -82.01 0.011380 -167.8
8.91770000 0.011389 -176.3 0.999930 -82.01 0.999930 -82.01 0.011389 -167.8
8.91780000 0.011398 -176.3 0.999930 -82.01 0.999930 -82.01 0.011399 -167.8
8.91790000 0.011408 -176.3 0.999930 -82.02 0.999930 -82.02 0.011409 -167.7
8.91800000 0.011418 -176.3 0.999929 -82.02 0.999929 -82.02 0.011419 -167.7
8.91810000 0.011428 -176.4 0.999929 -82.02 0.999929 -82.02 0.011428 -167.7
8.91820000 0.011437 -176.4 0.999929 -82.02 0.999929 -82.02 0.011438 -167.7
8.91830000 0.011447 -176.4 0.999929 -82.02 0.999929 -82.02 0.011448 -167.7
8.91840000 0.011457 -176.4 0.999929 -82.02 0.999929 -82.02 0.011458 -167.7
8.91850000 0.011467 -176.4 0.999929 -82.03 0.999929 -82.03 0.011468 -167.7
8.91860000 0.011477 -176.4 0.999929 -82.03 0.999929 -82.03 0.011478 -167.7
8.91870000 0.011487 -176.5 0.999929 -82.03 0.999929 -82.03 0.011488 -167.6
8.91880000 0.011498 -176.5 0.999928 -82.03 0.999928 -82.03 0.011498 -167.6
8.91890000 0.011508 -176.5 0.999928 -82.03 0.999928 -82.03 0.011509 -167.6
8.91900000 0.011518 -176.5 0.999928 -82.03 0.999928 -82.03 0.011519 -167.6
8.91910000 0.011528 -176.5 0.999928 -82.03 0.999928 -82.03 0.011529 -167.6
8.91920000 0.011539 -176.5 0.999928 -82.04 0.999928 -82.04 0.011540 -167.6
8.91930000 0.011549 -176.6 0.999928 -82.04 0.999928 -82.04 0.011550 -167.6
8.91940000 0.011559 -176.6 0.999928 -82.04 0.999928 -82.04 0.011560 -167.5
8.91950000 0.011570 -176.6 0.999927 -82.04 0.999927 -82.04 0.011571 -167.5
8.91960000 0.011581 -176.6 0.999927 -82.04 0.999927 -82.04 0.011581 -167.5
8.91970000 0.011591 -176.6 0.999927 -82.04 0.999927 -82.04 0.011592 -167.5
8.91980000 0.011602 -176.6 0.999927 -82.05 0.999927 -82.05 0.011603 -167.5
8.91990000 0.011612 -176.7 0.999927 -82.05 0.999927 -82.05 0.011613 -167.5
8.92000000 0.011623 -176.7 0.999927 -82.05 0.999927 -82.05 0.011624 -167.5
8.92010000 0.011634 -176.7 0.999927 -82.05 0.999927 -82.05 0.011635 -167.4
8.92020000 0.011645 -176.7 0.999927 -82.05 0.999927 -82.05 0.011646 -167.4
8.92030000 0.011656 -176.7 0.999926 -82.05 0.999926 -82.05 0.011657 -167.4
8.92040000 0.011667 -176.7 0.999926 -82.05 0.999926 -82.05 0.011668 -167.4
8.92050000 0.011678 -176.8 0.999926 -82.06 0.999926 -82.06 0.011679 -167.4
8.92060000 0.011689 -176.8 0.999926 -82.06 0.999926 -82.06 0.011690 -167.4
8.92070000 0.011700 -176.8 0.999926 -82.06 0.999926 -82.06 0.011701 -167.4
8.92080000 0.011711 -176.8 0.999926 -82.06 0.999926 -82.06 0.011712 -167.4
8.92090000 0.011723 -176.8 0.999926 -82.06 0.999926 -82.06 0.011724 -167.3
8.92100000 0.011734 -176.9 0.999925 -82.06 0.999925 -82.06 0.011735 -167.3
8.92110000 0.011745 -176.9 0.999925 -82.07 0.999925 -82.07 0.011746 -167.3
8.92120000 0.011757 -176.9 0.999925 -82.07 0.999925 -82.07 0.011758 -167.3
8.92130000 0.011768 -176.9 0.999925 -82.07 0.999925 -82.07 0.011769 -167.3
8.92140000 0.011780 -176.9 0.999925 -82.07 0.999925 -82.07 0.011781 -167.3
8.92150000 0.011792 -176.9 0.999925 -82.07 0.999925 -82.07 0.011792 -167.2
8.92160000 0.011803 -177.0 0.999925 -82.07 0.999925 -82.07 0.011804 -167.2
8.92170000 0.011815 -177.0 0.999924 -82.08 0.999924 -82.08 0.011816 -167.2
8.92180000 0.011827 -177.0 0.999924 -82.08 0.999924 -82.08 0.011828 -167.2
8.92190000 0.011839 -177.0 0.999924 -82.08 0.999924 -82.08 0.011840 -167.2
8.92200000 0.011851 -177.0 0.999924 -82.08 0.999924 -82.08 0.011852 -167.2
8.92210000 0.011863 -177.0 0.999924 -82.08 0.999924 -82.08 0.011864 -167.2
8.92220000 0.011875 -177.1 0.999924 -82.08 0.999924 -82.08 0.011876 -167.1
8.92230000 0.011887 -177.1 0.999923 -82.09 0.999923 -82.09 0.011888 -167.1
8.92240000 0.011899 -177.1 0.999923 -82.09 0.999923 -82.09 0.011900 -167.1
8.92250000 0.011911 -177.1 0.999923 -82.09 0.999923 -82.09 0.011912 -167.1
8.92260000 0.011924 -177.1 0.999923 -82.09 0.999923 -82.09 0.011925 -167.1
8.92270000 0.011936 -177.2 0.999923 -82.09 0.999923 -82.09 0.011937 -167.1
8.92280000 0.011948 -177.2 0.999923 -82.09 0.999923 -82.09 0.011949 -167.1
8.92290000 0.011961 -177.2 0.999922 -82.10 0.999922 -82.10 0.011962 -167.0
8.92300000 0.011974 -177.2 0.999922 -82.10 0.999922 -82.10 0.011975 -167.0
8.92310000 0.011986 -177.2 0.999922 -82.10 0.999922 -82.10 0.011987 -167.0
8.92320000 0.011999 -177.3 0.999922 -82.10 0.999922 -82.10 0.012000 -167.0
8.92330000 0.012012 -177.3 0.999922 -82.10 0.999922 -82.10 0.012013 -167.0
8.92340000 0.012025 -177.3 0.999922 -82.10 0.999922 -82.10 0.012026 -167.0
8.92350000 0.012038 -177.3 0.999921 -82.11 0.999921 -82.11 0.012039 -166.9
8.92360000 0.012051 -177.3 0.999921 -82.11 0.999921 -82.11 0.012052 -166.9
8.92370000 0.012064 -177.3 0.999921 -82.11 0.999921 -82.11 0.012065 -166.9
8.92380000 0.012077 -177.4 0.999921 -82.11 0.999921 -82.11 0.012078 -166.9
8.92390000 0.012090 -177.4 0.999921 -82.11 0.999921 -82.11 0.012091 -166.9
8.92400000 0.012103 -177.4 0.999921 -82.11 0.999921 -82.11 0.012104 -166.9
8.92410000 0.012117 -177.4 0.999920 -82.12 0.999920 -82.12 0.012118 -166.9
8.92420000 0.012130 -177.4 0.999920 -82.12 0.999920 -82.12 0.012131 -166.8
8.92430000 0.012144 -177.5 0.999920 -82.12 0.999920 -82.12 0.012145 -166.8
8.92440000 0.012157 -177.5 0.999920 -82.12 0.999920 -82.12 0.012159 -166.8
8.92450000 0.012171 -177.5 0.999920 -82.12 0.999920 -82.12 0.012172 -166.8
8.92460000 0.012185 -177.5 0.999919 -82.12 0.999919 -82.12 0.012186 -166.8
8.92470000 0.012199 -177.5 0.999919 -82.13 0.999919 -82.13 0.012200 -166.8
8.92480000 0.012213 -177.6 0.999919 -82.13 0.999919 -82.13 0.012214 -166.7
8.92490000 0.012227 -177.6 0.999919 -82.13 0.999919 -82.13 0.012228 -166.7
8.92500000 0.012241 -177.6 0.999919 -82.13 0.999919 -82.13 0.012242 -166.7
8.92510000 0.012255 -177.6 0.999919 -82.13 0.999919 -82.13 0.012256 -166.7
8.92520000 0.012269 -177.6 0.999918 -82.13 0.999918 -82.13 0.012270 -166.7
8.92530000 0.012283 -177.7 0.999918 -82.14 0.999918 -82.14 0.012285 -166.7
8.92540000 0.012298 -177.7 0.999918 -82.14 0.999918 -82.14 0.012299 -166.6
8.92550000 0.012312 -177.7 0.999918 -82.14 0.999918 -82.14 0.012314 -166.6
8.92560000 0.012327 -177.7 0.999918 -82.14 0.999918 -82.14 0.012328 -166.6
8.92570000 0.012342 -177.7 0.999917 -82.14 0.999917 -82.14 0.012343 -166.6
8.92580000 0.012356 -177.8 0.999917 -82.15 0.999917 -82.15 0.012358 -166.6
8.92590000 0.012371 -177.8 0.999917 -82.15 0.999917 -82.15 0.012372 -166.6
8.92600000 0.012386 -177.8 0.999917 -82.15 0.999917 -82.15 0.012387 -166.5
8.92610000 0.012401 -177.8 0.999917 -82.15 0.999917 -82.15 0.012402 -166.5
8.92620000 0.012416 -177.8 0.999916 -82.15 0.999916 -82.15 0.012418 -166.5
8.92630000 0.012432 -177.9 0.999916 -82.15 0.999916 -82.15 0.012433 -166.5
8.92640000 0.012447 -177.9 0.999916 -82.16 0.999916 -82.16 0.012448 -166.5
8.92650000 0.012462 -177.9 0.999916 -82.16 0.999916 -82.16 0.012463 -166.5
8.92660000 0.012478 -177.9 0.999916 -82.16 0.999916 -82.16 0.012479 -166.4
8.92670000 0.012493 -177.9 0.999915 -82.16 0.999915 -82.16 0.012495 -166.4
8.92680000 0.012509 -178.0 0.999915 -82.16 0.999915 -82.16 0.012510 -166.4
8.92690000 0.012525 -178.0 0.999915 -82.17 0.999915 -82.17 0.012526 -166.4
8.92700000 0.012541 -178.0 0.999915 -82.17 0.999915 -82.17 0.012542 -166.4
8.92710000 0.012557 -178.0 0.999914 -82.17 0.999914 -82.17 0.012558 -166.4
8.92720000 0.012573 -178.1 0.999914 -82.17 0.999914 -82.17 0.012574 -166.3
8.92730000 0.012589 -178.1 0.999914 -82.17 0.999914 -82.17 0.012590 -166.3
8.92740000 0.012605 -178.1 0.999914 -82.17 0.999914 -82.17 0.012606 -166.3
8.92750000 0.012621 -178.1 0.999914 -82.18 0.999914 -82.18 0.012623 -166.3
8.92760000 0.012638 -178.1 0.999913 -82.18 0.999913 -82.18 0.012639 -166.3
8.92770000 0.012654 -178.2 0.999913 -82.18 0.999913 -82.18 0.012656 -166.2
8.92780000 0.012671 -178.2 0.999913 -82.18 0.999913 -82.18 0.012672 -166.2
8.92790000 0.012688 -178.2 0.999913 -82.18 0.999913 -82.18 0.012689 -166.2
8.92800000 0.012705 -178.2 0.999912 -82.19 0.999912 -82.19 0.012706 -166.2
8.92810000 0.012722 -178.3 0.999912 -82.19 0.999912 -82.19 0.012723 -166.2
8.92820000 0.012739 -178.3 0.999912 -82.19 0.999912 -82.19 0.012740 -166.2
8.92830000 0.012756 -178.3 0.999912 -82.19 0.999912 -82.19 0.012757 -166.1
8.92840000 0.012773 -178.3 0.999911 -82.19 0.999911 -82.19 0.012775 -166.1
8.92850000 0.012791 -178.3 0.999911 -82.20 0.999911 -82.20 0.012792 -166.1
8.92860000 0.012808 -178.4 0.999911 -82.20 0.999911 -82.20 0.012810 -166.1
8.92870000 0.012826 -178.4 0.999911 -82.20 0.999911 -82.20 0.012827 -166.1
8.92880000 0.012844 -178.4 0.999910 -82.20 0.999910 -82.20 0.012845 -166.0
8.92890000 0.012861 -178.4 0.999910 -82.20 0.999910 -82.20 0.012863 -166.0
8.92900000 0.012879 -178.5 0.999910 -82.21 0.999910 -82.21 0.012881 -166.0
8.92910000 0.012898 -178.5 0.999910 -82.21 0.999910 -82.21 0.012899 -166.0
8.92920000 0.012916 -178.5 0.999909 -82.21 0.999909 -82.21 0.012917 -166.0
8.92930000 0.012934 -178.5 0.999909 -82.21 0.999909 -82.21 0.012936 -166.0
8.92940000 0.012953 -178.5 0.999909 -82.21 0.999909 -82.21 0.012954 -165.9
8.92950000 0.012971 -178.6 0.999909 -82.22 0.999909 -82.22 0.012973 -165.9
8.92960000 0.012990 -178.6 0.999908 -82.22 0.999908 -82.22 0.012991 -165.9
8.92970000 0.013009 -178.6 0.999908 -82.22 0.999908 -82.22 0.013010 -165.9
8.92980000 0.013028 -178.6 0.999908 -82.22 0.999908 -82.22 0.013029 -165.9
8.92990000 0.013047 -178.7 0.999907 -82.22 0.999907 -82.22 0.013048 -165.8
8.93000000 0.013066 -178.7 0.999907 -82.23 0.999907 -82.23 0.013067 -165.8
8.93010000 0.013085 -178.7 0.999907 -82.23 0.999907 -82.23 0.013087 -165.8
8.93020000 0.013105 -178.7 0.999907 -82.23 0.999907 -82.23 0.013106 -165.8
8.93030000 0.013124 -178.8 0.999906 -82.23 0.999906 -82.23 0.013126 -165.8
8.93040000 0.013144 -178.8 0.999906 -82.23 0.999906 -82.23 0.013146 -165.7
8.93050000 0.013164 -178.8 0.999906 -82.24 0.999906 -82.24 0.013165 -165.7
8.93060000 0.013184 -178.8 0.999905 -82.24 0.999905 -82.24 0.013185 -165.7
8.93070000 0.013204 -178.9 0.999905 -82.24 0.999905 -82.24 0.013206 -165.7
8.93080000 0.013224 -178.9 0.999905 -82.24 0.999905 -82.24 0.013226 -165.7
8.93090000 0.013245 -178.9 0.999905 -82.24 0.999905 -82.24 0.013246 -165.6
8.93100000 0.013265 -178.9 0.999904 -82.25 0.999904 -82.25 0.013267 -165.6
8.93110000 0.013286 -179.0 0.999904 -82.25 0.999904 -82.25 0.013288 -165.6
8.93120000 0.013307 -179.0 0.999904 -82.25 0.999904 -82.25 0.013308 -165.6
8.93130000 0.013328 -179.0 0.999903 -82.25 0.999903 -82.25 0.013329 -165.6
8.93140000 0.013349 -179.0 0.999903 -82.26 0.999903 -82.26 0.013351 -165.5
8.93150000 0.013370 -179.1 0.999903 -82.26 0.999903 -82.26 0.013372 -165.5
8.93160000 0.013392 -179.1 0.999902 -82.26 0.999902 -82.26 0.013393 -165.5
8.93170000 0.013413 -179.1 0.999902 -82.26 0.999902 -82.26 0.013415 -165.5
8.93180000 0.013435 -179.1 0.999902 -82.26 0.999902 -82.26 0.013437 -165.5
8.93190000 0.013457 -179.2 0.999901 -82.27 0.999901 -82.27 0.013459 -165.4
8.93200000 0.013479 -179.2 0.999901 -82.27 0.999901 -82.27 0.013481 -165.4
8.93210000 0.013501 -179.2 0.999901 -82.27 0.999901 -82.27 0.013503 -165.4
8.93220000 0.013524 -179.2 0.999900 -82.27 0.999900 -82.27 0.013525 -165.4
8.93230000 0.013546 -179.3 0.999900 -82.28 0.999900 -82.28 0.013548 -165.4
8.93240000 0.013569 -179.3 0.999900 -82.28 0.999900 -82.28 0.013571 -165.3
8.93250000 0.013592 -179.3 0.999899 -82.28 0.999899 -82.28 0.013593 -165.3
8.93260000 0.013615 -179.3 0.999899 -82.28 0.999899 -82.28 0.013616 -165.3
8.93270000 0.013638 -179.4 0.999899 -82.28 0.999899 -82.28 0.013640 -165.3
8.93280000 0.013661 -179.4 0.999898 -82.29 0.999898 -82.29 0.013663 -165.2
8.93290000 0.013685 -179.4 0.999898 -82.29 0.999898 -82.29 0.013687 -165.2
8.93300000 0.013709 -179.4 0.999898 -82.29 0.999898 -82.29 0.013710 -165.2
8.93310000 0.013732 -179.5 0.999897 -82.29 0.999897 -82.29 0.013734 -165.2
8.93320000 0.013757 -179.5 0.999897 -82.30 0.999897 -82.30 0.013758 -165.2
8.93330000 0.013781 -179.5 0.999897 -82.30 0.999897 -82.30 0.013783 -165.1
8.93340000 0.013805 -179.6 0.999896 -82.30 0.999896 -82.30 0.013807 -165.1
8.93350000 0.013830 -179.6 0.999896 -82.30 0.999896 -82.30 0.013832 -165.1
8.93360000 0.013855 -179.6 0.999895 -82.31 0.999895 -82.31 0.013857 -165.1
8.93370000 0.013880 -179.6 0.999895 -82.31 0.999895 -82.31 0.013882 -165.0
8.93380000 0.013905 -179.7 0.999895 -82.31 0.999895 -82.31 0.013907 -165.0
8.93390000 0.013930 -179.7 0.999894 -82.31 0.999894 -82.31 0.013932 -165.0
8.93400000 0.013956 -179.7 0.999894 -82.32 0.999894 -82.32 0.013958 -165.0
8.93410000 0.013982 -179.7 0.999893 -82.32 0.999893 -82.32 0.013984 -165.0
8.93420000 0.014008 -179.8 0.999893 -82.32 0.999893 -82.32 0.014010 -164.9
8.93430000 0.014034 -179.8 0.999893 -82.32 0.999893 -82.32 0.014036 -164.9
8.93440000 0.014060 -179.8 0.999892 -82.33 0.999892 -82.33 0.014062 -164.9
8.93450000 0.014087 -179.9 0.999892 -82.33 0.999892 -82.33 0.014089 -164.9
8.93460000 0.014114 -179.9 0.999891 -82.33 0.999891 -82.33 0.014116 -164.8
8.93470000 0.014141 -179.9 0.999891 -82.33 0.999891 -82.33 0.014143 -164.8
8.93480000 0.014168 -179.9 0.999891 -82.34 0.999891 -82.34 0.014170 -164.8
8.93490000 0.014195 -180.0 0.999890 -82.34 0.999890 -82.34 0.014197 -164.8
8.93500000 0.014223 -180.0 0.999890 -82.34 0.999890 -82.34 0.014225 -164.7
8.93510000 0.014251 179.97 0.999889 -82.34 0.999889 -82.34 0.014253 -164.7
8.93520000 0.014279 179.94 0.999889 -82.35 0.999889 -82.35 0.014281 -164.7
8.93530000 0.014308 179.91 0.999888 -82.35 0.999888 -82.35 0.014310 -164.7
8.93540000 0.014336 179.89 0.999888 -82.35 0.999888 -82.35 0.014338 -164.7
8.93550000 0.014365 179.86 0.999887 -82.35 0.999887 -82.35 0.014367 -164.6
8.93560000 0.014394 179.83 0.999887 -82.36 0.999887 -82.36 0.014396 -164.6
8.93570000 0.014423 179.80 0.999886 -82.36 0.999886 -82.36 0.014425 -164.6
8.93580000 0.014453 179.77 0.999886 -82.36 0.999886 -82.36 0.014455 -164.6
8.93590000 0.014483 179.74 0.999885 -82.36 0.999885 -82.36 0.014485 -164.5
8.93600000 0.014513 179.71 0.999885 -82.37 0.999885 -82.37 0.014515 -164.5
8.93610000 0.014543 179.68 0.999884 -82.37 0.999884 -82.37 0.014545 -164.5
8.93620000 0.014573 179.65 0.999884 -82.37 0.999884 -82.37 0.014576 -164.5
8.93630000 0.014604 179.62 0.999883 -82.37 0.999883 -82.37 0.014607 -164.4
8.93640000 0.014635 179.59 0.999883 -82.38 0.999883 -82.38 0.014638 -164.4
8.93650000 0.014667 179.55 0.999882 -82.38 0.999882 -82.38 0.014669 -164.4
8.93660000 0.014698 179.52 0.999882 -82.38 0.999882 -82.38 0.014701 -164.4
8.93670000 0.014730 179.49 0.999881 -82.39 0.999881 -82.39 0.014732 -164.3
8.93680000 0.014762 179.46 0.999881 -82.39 0.999881 -82.39 0.014765 -164.3
8.93690000 0.014795 179.43 0.999880 -82.39 0.999880 -82.39 0.014797 -164.3
8.93700000 0.014827 179.40 0.999880 -82.39 0.999880 -82.39 0.014830 -164.3
8.93710000 0.014860 179.37 0.999879 -82.40 0.999879 -82.40 0.014863 -164.2
8.93720000 0.014894 179.34 0.999879 -82.40 0.999879 -82.40 0.014896 -164.2
8.93730000 0.014927 179.30 0.999878 -82.40 0.999878 -82.40 0.014930 -164.2
8.93740000 0.014961 179.27 0.999878 -82.41 0.999878 -82.41 0.014963 -164.2
8.93750000 0.014995 179.24 0.999877 -82.41 0.999877 -82.41 0.014998 -164.1
8.93760000 0.015030 179.21 0.999876 -82.41 0.999876 -82.41 0.015032 -164.1
8.93770000 0.015064 179.18 0.999876 -82.41 0.999876 -82.41 0.015067 -164.1
8.93780000 0.015100 179.14 0.999875 -82.42 0.999875 -82.42 0.015102 -164.1
8.93790000 0.015135 179.11 0.999875 -82.42 0.999875 -82.42 0.015137 -164.0
8.93800000 0.015171 179.08 0.999874 -82.42 0.999874 -82.42 0.015173 -164.0
8.93810000 0.015207 179.04 0.999873 -82.43 0.999873 -82.43 0.015209 -164.0
8.93820000 0.015243 179.01 0.999873 -82.43 0.999873 -82.43 0.015246 -163.9
8.93830000 0.015280 178.98 0.999872 -82.43 0.999872 -82.43 0.015282 -163.9
8.93840000 0.015317 178.95 0.999871 -82.44 0.999871 -82.44 0.015320 -163.9
8.93850000 0.015354 178.91 0.999871 -82.44 0.999871 -82.44 0.015357 -163.9
8.93860000 0.015392 178.88 0.999870 -82.44 0.999870 -82.44 0.015395 -163.8
8.93870000 0.015430 178.84 0.999870 -82.45 0.999870 -82.45 0.015433 -163.8
8.93880000 0.015469 178.81 0.999869 -82.45 0.999869 -82.45 0.015471 -163.8
8.93890000 0.015507 178.78 0.999868 -82.45 0.999868 -82.45 0.015510 -163.8
8.93900000 0.015547 178.74 0.999867 -82.45 0.999867 -82.45 0.015549 -163.7
8.93910000 0.015586 178.71 0.999867 -82.46 0.999867 -82.46 0.015589 -163.7
8.93920000 0.015626 178.67 0.999866 -82.46 0.999866 -82.46 0.015629 -163.7