! Sonnet Data File
! From: emgraph Version : 16.52
! From Project: Resonator2_cp_cp
! Data is De-embedded 
! Data File Written: 10/06/2017 09:20:31
!< HDATE 10/05/2017 21:11:40
!< MDATE 10/05/2017 21:11:40
!< PARAMS
!< gap = 76.0
!< Length = 400.0
!< Pwid1 = 2000.0
!< Pwid2 = 2000.0
!< END PARAMS
# GHZ S MA R 51.80000
8.80000000 1.101e-5 -39.22 0.999997 -80.49 0.999997 -80.49 1.474e-5 69.969
!< P1 F=8.8 Eeff=(6.44679989 -2.9721e-5) Z0=(51.7992624 1.19519e-4) R=0.0 C=0.0 
!< P2 F=8.8 Eeff=(6.44679989 -2.9721e-5) Z0=(51.7992624 1.19519e-4) R=0.0 C=0.0 
8.80020000 1.103e-5 -39.17 0.999997 -80.50 0.999997 -80.50 1.476e-5 69.905
8.80040000 1.106e-5 -39.11 0.999997 -80.50 0.999997 -80.50 1.478e-5 69.838
8.80060000 1.108e-5 -39.05 0.999997 -80.50 0.999997 -80.50 1.481e-5 69.771
8.80080000 1.111e-5 -38.99 0.999997 -80.50 0.999997 -80.50 1.483e-5 69.705
8.80100000 1.114e-5 -38.93 0.999997 -80.50 0.999997 -80.50 1.485e-5 69.639
8.80120000 1.116e-5 -38.88 0.999997 -80.51 0.999997 -80.51 1.488e-5 69.573
8.80140000 1.119e-5 -38.82 0.999997 -80.51 0.999997 -80.51 1.490e-5 69.507
8.80160000 1.122e-5 -38.76 0.999997 -80.51 0.999997 -80.51 1.492e-5 69.442
8.80180000 1.124e-5 -38.71 0.999997 -80.51 0.999997 -80.51 1.495e-5 69.376
8.80200000 1.127e-5 -38.65 0.999997 -80.51 0.999997 -80.51 1.497e-5 69.311
8.80220000 1.130e-5 -38.60 0.999997 -80.51 0.999997 -80.51 1.499e-5 69.246
8.80240000 1.132e-5 -38.54 0.999997 -80.52 0.999997 -80.52 1.502e-5 69.181
8.80260000 1.135e-5 -38.49 0.999997 -80.52 0.999997 -80.52 1.504e-5 69.117
8.80280000 1.138e-5 -38.43 0.999997 -80.52 0.999997 -80.52 1.507e-5 69.053
8.80300000 1.140e-5 -38.38 0.999997 -80.52 0.999997 -80.52 1.509e-5 68.988
8.80320000 1.143e-5 -38.32 0.999997 -80.52 0.999997 -80.52 1.511e-5 68.925
8.80340000 1.146e-5 -38.27 0.999997 -80.53 0.999997 -80.53 1.514e-5 68.861
8.80360000 1.148e-5 -38.22 0.999997 -80.53 0.999997 -80.53 1.516e-5 68.797
8.80380000 1.151e-5 -38.16 0.999997 -80.53 0.999997 -80.53 1.519e-5 68.734
8.80400000 1.154e-5 -38.11 0.999997 -80.53 0.999997 -80.53 1.521e-5 68.671
8.80420000 1.156e-5 -38.06 0.999997 -80.53 0.999997 -80.53 1.524e-5 68.608
8.80440000 1.159e-5 -38.01 0.999997 -80.53 0.999997 -80.53 1.526e-5 68.545
8.80460000 1.162e-5 -37.95 0.999997 -80.54 0.999997 -80.54 1.528e-5 68.483
8.80480000 1.165e-5 -37.90 0.999997 -80.54 0.999997 -80.54 1.531e-5 68.420
8.80500000 1.167e-5 -37.85 0.999997 -80.54 0.999997 -80.54 1.533e-5 68.358
8.80520000 1.170e-5 -37.80 0.999997 -80.54 0.999997 -80.54 1.536e-5 68.296
8.80540000 1.173e-5 -37.75 0.999997 -80.54 0.999997 -80.54 1.538e-5 68.234
8.80560000 1.176e-5 -37.70 0.999997 -80.55 0.999997 -80.55 1.541e-5 68.173
8.80580000 1.178e-5 -37.65 0.999997 -80.55 0.999997 -80.55 1.543e-5 68.111
8.80600000 1.181e-5 -37.60 0.999997 -80.55 0.999997 -80.55 1.546e-5 68.050
8.80620000 1.184e-5 -37.55 0.999997 -80.55 0.999997 -80.55 1.548e-5 67.989
8.80640000 1.187e-5 -37.50 0.999997 -80.55 0.999997 -80.55 1.551e-5 67.928
8.80660000 1.189e-5 -37.45 0.999997 -80.55 0.999997 -80.55 1.553e-5 67.867
8.80680000 1.192e-5 -37.40 0.999997 -80.56 0.999997 -80.56 1.556e-5 67.807
8.80700000 1.195e-5 -37.35 0.999997 -80.56 0.999997 -80.56 1.558e-5 67.746
8.80720000 1.198e-5 -37.31 0.999997 -80.56 0.999997 -80.56 1.561e-5 67.686
8.80740000 1.201e-5 -37.26 0.999997 -80.56 0.999997 -80.56 1.564e-5 67.626
8.80760000 1.203e-5 -37.21 0.999997 -80.56 0.999997 -80.56 1.566e-5 67.566
8.80780000 1.206e-5 -37.16 0.999997 -80.57 0.999997 -80.57 1.569e-5 67.507
8.80800000 1.209e-5 -37.12 0.999997 -80.57 0.999997 -80.57 1.571e-5 67.447
8.80820000 1.212e-5 -37.07 0.999997 -80.57 0.999997 -80.57 1.574e-5 67.388
8.80840000 1.215e-5 -37.02 0.999997 -80.57 0.999997 -80.57 1.576e-5 67.329
8.80860000 1.218e-5 -36.98 0.999997 -80.57 0.999997 -80.57 1.579e-5 67.270
8.80880000 1.220e-5 -36.93 0.999997 -80.57 0.999997 -80.57 1.582e-5 67.211
8.80900000 1.223e-5 -36.89 0.999997 -80.58 0.999997 -80.58 1.584e-5 67.152
8.80920000 1.226e-5 -36.84 0.999997 -80.58 0.999997 -80.58 1.587e-5 67.094
8.80940000 1.229e-5 -36.79 0.999997 -80.58 0.999997 -80.58 1.589e-5 67.036
8.80960000 1.232e-5 -36.75 0.999997 -80.58 0.999997 -80.58 1.592e-5 66.978
8.80980000 1.235e-5 -36.70 0.999997 -80.58 0.999997 -80.58 1.595e-5 66.920
8.81000000 1.238e-5 -36.66 0.999997 -80.59 0.999997 -80.59 1.597e-5 66.862
8.81020000 1.241e-5 -36.62 0.999997 -80.59 0.999997 -80.59 1.600e-5 66.804
8.81040000 1.244e-5 -36.57 0.999997 -80.59 0.999997 -80.59 1.603e-5 66.747
8.81060000 1.247e-5 -36.53 0.999997 -80.59 0.999997 -80.59 1.605e-5 66.689
8.81080000 1.249e-5 -36.48 0.999997 -80.59 0.999997 -80.59 1.608e-5 66.632
8.81100000 1.252e-5 -36.44 0.999997 -80.60 0.999997 -80.60 1.611e-5 66.575
8.81120000 1.255e-5 -36.40 0.999997 -80.60 0.999997 -80.60 1.613e-5 66.518
8.81140000 1.258e-5 -36.35 0.999997 -80.60 0.999997 -80.60 1.616e-5 66.462
8.81160000 1.261e-5 -36.31 0.999997 -80.60 0.999997 -80.60 1.619e-5 66.405
8.81180000 1.264e-5 -36.27 0.999997 -80.60 0.999997 -80.60 1.622e-5 66.349
8.81200000 1.267e-5 -36.23 0.999997 -80.60 0.999997 -80.60 1.624e-5 66.293
8.81220000 1.270e-5 -36.19 0.999997 -80.61 0.999997 -80.61 1.627e-5 66.237
8.81240000 1.273e-5 -36.14 0.999997 -80.61 0.999997 -80.61 1.630e-5 66.181
8.81260000 1.276e-5 -36.10 0.999997 -80.61 0.999997 -80.61 1.633e-5 66.125
8.81280000 1.279e-5 -36.06 0.999997 -80.61 0.999997 -80.61 1.635e-5 66.069
8.81300000 1.282e-5 -36.02 0.999997 -80.61 0.999997 -80.61 1.638e-5 66.014
8.81320000 1.285e-5 -35.98 0.999997 -80.62 0.999997 -80.62 1.641e-5 65.958
8.81340000 1.288e-5 -35.94 0.999997 -80.62 0.999997 -80.62 1.644e-5 65.903
8.81360000 1.291e-5 -35.90 0.999997 -80.62 0.999997 -80.62 1.646e-5 65.848
8.81380000 1.294e-5 -35.86 0.999997 -80.62 0.999997 -80.62 1.649e-5 65.793
8.81400000 1.297e-5 -35.82 0.999997 -80.62 0.999997 -80.62 1.652e-5 65.738
8.81420000 1.300e-5 -35.78 0.999997 -80.62 0.999997 -80.62 1.655e-5 65.684
8.81440000 1.304e-5 -35.74 0.999997 -80.63 0.999997 -80.63 1.658e-5 65.629
8.81460000 1.307e-5 -35.70 0.999997 -80.63 0.999997 -80.63 1.661e-5 65.575
8.81480000 1.310e-5 -35.66 0.999997 -80.63 0.999997 -80.63 1.663e-5 65.521
8.81500000 1.313e-5 -35.62 0.999997 -80.63 0.999997 -80.63 1.666e-5 65.467
8.81520000 1.316e-5 -35.58 0.999997 -80.63 0.999997 -80.63 1.669e-5 65.413
8.81540000 1.319e-5 -35.54 0.999997 -80.64 0.999997 -80.64 1.672e-5 65.359
8.81560000 1.322e-5 -35.51 0.999997 -80.64 0.999997 -80.64 1.675e-5 65.305
8.81580000 1.325e-5 -35.47 0.999997 -80.64 0.999997 -80.64 1.678e-5 65.252
8.81600000 1.328e-5 -35.43 0.999997 -80.64 0.999997 -80.64 1.681e-5 65.198
8.81620000 1.332e-5 -35.39 0.999997 -80.64 0.999997 -80.64 1.684e-5 65.145
8.81640000 1.335e-5 -35.35 0.999997 -80.64 0.999997 -80.64 1.687e-5 65.092
8.81660000 1.338e-5 -35.32 0.999997 -80.65 0.999997 -80.65 1.689e-5 65.039
8.81680000 1.341e-5 -35.28 0.999997 -80.65 0.999997 -80.65 1.692e-5 64.986
8.81700000 1.344e-5 -35.24 0.999997 -80.65 0.999997 -80.65 1.695e-5 64.933
8.81720000 1.347e-5 -35.21 0.999997 -80.65 0.999997 -80.65 1.698e-5 64.881
8.81740000 1.351e-5 -35.17 0.999997 -80.65 0.999997 -80.65 1.701e-5 64.828
8.81760000 1.354e-5 -35.13 0.999997 -80.66 0.999997 -80.66 1.704e-5 64.776
8.81780000 1.357e-5 -35.10 0.999997 -80.66 0.999997 -80.66 1.707e-5 64.724
8.81800000 1.360e-5 -35.06 0.999997 -80.66 0.999997 -80.66 1.710e-5 64.671
8.81820000 1.364e-5 -35.02 0.999997 -80.66 0.999997 -80.66 1.713e-5 64.619
8.81840000 1.367e-5 -34.99 0.999997 -80.66 0.999997 -80.66 1.716e-5 64.567
8.81860000 1.370e-5 -34.95 0.999997 -80.66 0.999997 -80.66 1.719e-5 64.516
8.81880000 1.373e-5 -34.92 0.999997 -80.67 0.999997 -80.67 1.722e-5 64.464
8.81900000 1.377e-5 -34.88 0.999997 -80.67 0.999997 -80.67 1.725e-5 64.412
8.81920000 1.380e-5 -34.85 0.999997 -80.67 0.999997 -80.67 1.729e-5 64.361
8.81940000 1.383e-5 -34.81 0.999997 -80.67 0.999997 -80.67 1.732e-5 64.310
8.81960000 1.387e-5 -34.78 0.999997 -80.67 0.999997 -80.67 1.735e-5 64.259
8.81980000 1.390e-5 -34.74 0.999997 -80.68 0.999997 -80.68 1.738e-5 64.207
8.82000000 1.393e-5 -34.71 0.999997 -80.68 0.999997 -80.68 1.741e-5 64.156
8.82020000 1.397e-5 -34.67 0.999997 -80.68 0.999997 -80.68 1.744e-5 64.106
8.82040000 1.400e-5 -34.64 0.999997 -80.68 0.999997 -80.68 1.747e-5 64.055
8.82060000 1.403e-5 -34.61 0.999997 -80.68 0.999997 -80.68 1.750e-5 64.004
8.82080000 1.407e-5 -34.57 0.999997 -80.68 0.999997 -80.68 1.753e-5 63.954
8.82100000 1.410e-5 -34.54 0.999997 -80.69 0.999997 -80.69 1.757e-5 63.903
8.82120000 1.413e-5 -34.51 0.999997 -80.69 0.999997 -80.69 1.760e-5 63.853
8.82140000 1.417e-5 -34.47 0.999997 -80.69 0.999997 -80.69 1.763e-5 63.803
8.82160000 1.420e-5 -34.44 0.999997 -80.69 0.999997 -80.69 1.766e-5 63.753
8.82180000 1.424e-5 -34.41 0.999997 -80.69 0.999997 -80.69 1.769e-5 63.703
8.82200000 1.427e-5 -34.37 0.999997 -80.70 0.999997 -80.70 1.773e-5 63.653
8.82220000 1.430e-5 -34.34 0.999997 -80.70 0.999997 -80.70 1.776e-5 63.603
8.82240000 1.434e-5 -34.31 0.999997 -80.70 0.999997 -80.70 1.779e-5 63.553
8.82260000 1.437e-5 -34.28 0.999997 -80.70 0.999997 -80.70 1.782e-5 63.504
8.82280000 1.441e-5 -34.24 0.999997 -80.70 0.999997 -80.70 1.786e-5 63.454
8.82300000 1.444e-5 -34.21 0.999997 -80.70 0.999997 -80.70 1.789e-5 63.405
8.82320000 1.448e-5 -34.18 0.999997 -80.71 0.999997 -80.71 1.792e-5 63.355
8.82340000 1.451e-5 -34.15 0.999997 -80.71 0.999997 -80.71 1.795e-5 63.306
8.82360000 1.455e-5 -34.12 0.999997 -80.71 0.999997 -80.71 1.799e-5 63.257
8.82380000 1.458e-5 -34.08 0.999997 -80.71 0.999997 -80.71 1.802e-5 63.208
8.82400000 1.462e-5 -34.05 0.999997 -80.71 0.999997 -80.71 1.805e-5 63.159
8.82420000 1.466e-5 -34.02 0.999997 -80.72 0.999997 -80.72 1.809e-5 63.110
8.82440000 1.469e-5 -33.99 0.999997 -80.72 0.999997 -80.72 1.812e-5 63.062
8.82460000 1.473e-5 -33.96 0.999997 -80.72 0.999997 -80.72 1.815e-5 63.013
8.82480000 1.476e-5 -33.93 0.999997 -80.72 0.999997 -80.72 1.819e-5 62.964
8.82500000 1.480e-5 -33.90 0.999997 -80.72 0.999997 -80.72 1.822e-5 62.916
8.82520000 1.484e-5 -33.87 0.999997 -80.72 0.999997 -80.72 1.826e-5 62.867
8.82540000 1.487e-5 -33.84 0.999997 -80.73 0.999997 -80.73 1.829e-5 62.819
8.82560000 1.491e-5 -33.81 0.999997 -80.73 0.999997 -80.73 1.832e-5 62.771
8.82580000 1.494e-5 -33.78 0.999997 -80.73 0.999997 -80.73 1.836e-5 62.723
8.82600000 1.498e-5 -33.75 0.999997 -80.73 0.999997 -80.73 1.839e-5 62.675
8.82620000 1.502e-5 -33.72 0.999997 -80.73 0.999997 -80.73 1.843e-5 62.627
8.82640000 1.506e-5 -33.69 0.999997 -80.74 0.999997 -80.74 1.846e-5 62.579
8.82660000 1.509e-5 -33.66 0.999997 -80.74 0.999997 -80.74 1.850e-5 62.531
8.82680000 1.513e-5 -33.63 0.999997 -80.74 0.999997 -80.74 1.853e-5 62.483
8.82700000 1.517e-5 -33.60 0.999997 -80.74 0.999997 -80.74 1.857e-5 62.436
8.82720000 1.520e-5 -33.57 0.999997 -80.74 0.999997 -80.74 1.860e-5 62.388
8.82740000 1.524e-5 -33.54 0.999997 -80.75 0.999997 -80.75 1.864e-5 62.341
8.82760000 1.528e-5 -33.51 0.999997 -80.75 0.999997 -80.75 1.868e-5 62.293
8.82780000 1.532e-5 -33.48 0.999997 -80.75 0.999997 -80.75 1.871e-5 62.246
8.82800000 1.536e-5 -33.46 0.999997 -80.75 0.999997 -80.75 1.875e-5 62.199
8.82820000 1.539e-5 -33.43 0.999997 -80.75 0.999997 -80.75 1.878e-5 62.152
8.82840000 1.543e-5 -33.40 0.999997 -80.75 0.999997 -80.75 1.882e-5 62.104
8.82860000 1.547e-5 -33.37 0.999997 -80.76 0.999997 -80.76 1.886e-5 62.057
8.82880000 1.551e-5 -33.34 0.999997 -80.76 0.999997 -80.76 1.889e-5 62.010
8.82900000 1.555e-5 -33.31 0.999997 -80.76 0.999997 -80.76 1.893e-5 61.963
8.82920000 1.559e-5 -33.28 0.999997 -80.76 0.999997 -80.76 1.897e-5 61.917
8.82940000 1.563e-5 -33.26 0.999997 -80.76 0.999997 -80.76 1.900e-5 61.870
8.82960000 1.566e-5 -33.23 0.999997 -80.77 0.999997 -80.77 1.904e-5 61.823
8.82980000 1.570e-5 -33.20 0.999997 -80.77 0.999997 -80.77 1.908e-5 61.777
8.83000000 1.574e-5 -33.17 0.999997 -80.77 0.999997 -80.77 1.911e-5 61.730
8.83020000 1.578e-5 -33.15 0.999997 -80.77 0.999997 -80.77 1.915e-5 61.684
8.83040000 1.582e-5 -33.12 0.999997 -80.77 0.999997 -80.77 1.919e-5 61.637
8.83060000 1.586e-5 -33.09 0.999997 -80.77 0.999997 -80.77 1.923e-5 61.591
8.83080000 1.590e-5 -33.06 0.999997 -80.78 0.999997 -80.78 1.927e-5 61.544
8.83100000 1.594e-5 -33.04 0.999997 -80.78 0.999997 -80.78 1.930e-5 61.498
8.83120000 1.598e-5 -33.01 0.999997 -80.78 0.999997 -80.78 1.934e-5 61.452
8.83140000 1.602e-5 -32.98 0.999997 -80.78 0.999997 -80.78 1.938e-5 61.406
8.83160000 1.606e-5 -32.96 0.999997 -80.78 0.999997 -80.78 1.942e-5 61.360
8.83180000 1.611e-5 -32.93 0.999997 -80.79 0.999997 -80.79 1.946e-5 61.314
8.83200000 1.615e-5 -32.90 0.999997 -80.79 0.999997 -80.79 1.950e-5 61.268
8.83220000 1.619e-5 -32.88 0.999997 -80.79 0.999997 -80.79 1.954e-5 61.222
8.83240000 1.623e-5 -32.85 0.999997 -80.79 0.999997 -80.79 1.958e-5 61.176
8.83260000 1.627e-5 -32.82 0.999997 -80.79 0.999997 -80.79 1.962e-5 61.130
8.83280000 1.631e-5 -32.80 0.999997 -80.79 0.999997 -80.79 1.966e-5 61.085
8.83300000 1.635e-5 -32.77 0.999997 -80.80 0.999997 -80.80 1.969e-5 61.039
8.83320000 1.640e-5 -32.75 0.999997 -80.80 0.999997 -80.80 1.973e-5 60.993
8.83340000 1.644e-5 -32.72 0.999997 -80.80 0.999997 -80.80 1.978e-5 60.948
8.83360000 1.648e-5 -32.69 0.999997 -80.80 0.999997 -80.80 1.982e-5 60.902
8.83380000 1.652e-5 -32.67 0.999997 -80.80 0.999997 -80.80 1.986e-5 60.857
8.83400000 1.657e-5 -32.64 0.999997 -80.81 0.999997 -80.81 1.990e-5 60.811
8.83420000 1.661e-5 -32.62 0.999997 -80.81 0.999997 -80.81 1.994e-5 60.766
8.83440000 1.665e-5 -32.59 0.999997 -80.81 0.999997 -80.81 1.998e-5 60.721
8.83460000 1.669e-5 -32.56 0.999997 -80.81 0.999997 -80.81 2.002e-5 60.675
8.83480000 1.674e-5 -32.54 0.999997 -80.81 0.999997 -80.81 2.006e-5 60.630
8.83500000 1.678e-5 -32.51 0.999997 -80.81 0.999997 -80.81 2.010e-5 60.585
8.83520000 1.683e-5 -32.49 0.999997 -80.82 0.999997 -80.82 2.014e-5 60.540
8.83540000 1.687e-5 -32.46 0.999997 -80.82 0.999997 -80.82 2.019e-5 60.495
8.83560000 1.691e-5 -32.44 0.999997 -80.82 0.999997 -80.82 2.023e-5 60.449
8.83580000 1.696e-5 -32.41 0.999997 -80.82 0.999997 -80.82 2.027e-5 60.404
8.83600000 1.700e-5 -32.39 0.999997 -80.82 0.999997 -80.82 2.031e-5 60.359
8.83620000 1.705e-5 -32.36 0.999997 -80.83 0.999997 -80.83 2.036e-5 60.314
8.83640000 1.709e-5 -32.34 0.999997 -80.83 0.999997 -80.83 2.040e-5 60.270
8.83660000 1.714e-5 -32.31 0.999997 -80.83 0.999997 -80.83 2.044e-5 60.225
8.83680000 1.718e-5 -32.29 0.999997 -80.83 0.999997 -80.83 2.049e-5 60.180
8.83700000 1.723e-5 -32.27 0.999997 -80.83 0.999997 -80.83 2.053e-5 60.135
8.83720000 1.727e-5 -32.24 0.999997 -80.83 0.999997 -80.83 2.057e-5 60.090
8.83740000 1.732e-5 -32.22 0.999997 -80.84 0.999997 -80.84 2.062e-5 60.046
8.83760000 1.737e-5 -32.19 0.999997 -80.84 0.999997 -80.84 2.066e-5 60.001
8.83780000 1.741e-5 -32.17 0.999997 -80.84 0.999997 -80.84 2.071e-5 59.956
8.83800000 1.746e-5 -32.14 0.999997 -80.84 0.999997 -80.84 2.075e-5 59.912
8.83820000 1.750e-5 -32.12 0.999997 -80.84 0.999997 -80.84 2.079e-5 59.867
8.83840000 1.755e-5 -32.09 0.999997 -80.85 0.999997 -80.85 2.084e-5 59.822
8.83860000 1.760e-5 -32.07 0.999997 -80.85 0.999997 -80.85 2.088e-5 59.778
8.83880000 1.765e-5 -32.05 0.999997 -80.85 0.999997 -80.85 2.093e-5 59.733
8.83900000 1.769e-5 -32.02 0.999997 -80.85 0.999997 -80.85 2.098e-5 59.689
8.83920000 1.774e-5 -32.00 0.999997 -80.85 0.999997 -80.85 2.102e-5 59.644
8.83940000 1.779e-5 -31.98 0.999997 -80.85 0.999997 -80.85 2.107e-5 59.600
8.83960000 1.784e-5 -31.95 0.999997 -80.86 0.999997 -80.86 2.111e-5 59.555
8.83980000 1.789e-5 -31.93 0.999997 -80.86 0.999997 -80.86 2.116e-5 59.511
8.84000000 1.793e-5 -31.90 0.999997 -80.86 0.999997 -80.86 2.121e-5 59.467
8.84020000 1.798e-5 -31.88 0.999997 -80.86 0.999997 -80.86 2.125e-5 59.422
8.84040000 1.803e-5 -31.86 0.999997 -80.86 0.999997 -80.86 2.130e-5 59.378
8.84060000 1.808e-5 -31.83 0.999997 -80.87 0.999997 -80.87 2.135e-5 59.334
8.84080000 1.813e-5 -31.81 0.999997 -80.87 0.999997 -80.87 2.140e-5 59.289
8.84100000 1.818e-5 -31.79 0.999997 -80.87 0.999997 -80.87 2.144e-5 59.245
8.84120000 1.823e-5 -31.76 0.999997 -80.87 0.999997 -80.87 2.149e-5 59.201
8.84140000 1.828e-5 -31.74 0.999997 -80.87 0.999997 -80.87 2.154e-5 59.156
8.84160000 1.833e-5 -31.72 0.999997 -80.88 0.999997 -80.88 2.159e-5 59.112
8.84180000 1.838e-5 -31.69 0.999997 -80.88 0.999997 -80.88 2.164e-5 59.068
8.84200000 1.843e-5 -31.67 0.999997 -80.88 0.999997 -80.88 2.169e-5 59.024
8.84220000 1.848e-5 -31.65 0.999997 -80.88 0.999997 -80.88 2.174e-5 58.980
8.84240000 1.854e-5 -31.62 0.999997 -80.88 0.999997 -80.88 2.179e-5 58.936
8.84260000 1.859e-5 -31.60 0.999997 -80.88 0.999997 -80.88 2.183e-5 58.891
8.84280000 1.864e-5 -31.58 0.999997 -80.89 0.999997 -80.89 2.188e-5 58.847
8.84300000 1.869e-5 -31.56 0.999997 -80.89 0.999997 -80.89 2.194e-5 58.803
8.84320000 1.874e-5 -31.53 0.999997 -80.89 0.999997 -80.89 2.199e-5 58.759
8.84340000 1.880e-5 -31.51 0.999997 -80.89 0.999997 -80.89 2.204e-5 58.715
8.84360000 1.885e-5 -31.49 0.999997 -80.89 0.999997 -80.89 2.209e-5 58.671
8.84380000 1.890e-5 -31.46 0.999997 -80.90 0.999997 -80.90 2.214e-5 58.627
8.84400000 1.896e-5 -31.44 0.999997 -80.90 0.999997 -80.90 2.219e-5 58.583
8.84420000 1.901e-5 -31.42 0.999997 -80.90 0.999997 -80.90 2.224e-5 58.538
8.84440000 1.906e-5 -31.40 0.999997 -80.90 0.999997 -80.90 2.229e-5 58.494
8.84460000 1.912e-5 -31.37 0.999997 -80.90 0.999997 -80.90 2.235e-5 58.450
8.84480000 1.917e-5 -31.35 0.999997 -80.90 0.999997 -80.90 2.240e-5 58.406
8.84500000 1.923e-5 -31.33 0.999997 -80.91 0.999997 -80.91 2.245e-5 58.362
8.84520000 1.928e-5 -31.31 0.999997 -80.91 0.999997 -80.91 2.251e-5 58.318
8.84540000 1.934e-5 -31.28 0.999997 -80.91 0.999997 -80.91 2.256e-5 58.274
8.84560000 1.939e-5 -31.26 0.999997 -80.91 0.999997 -80.91 2.261e-5 58.230
8.84580000 1.945e-5 -31.24 0.999997 -80.91 0.999997 -80.91 2.267e-5 58.186
8.84600000 1.951e-5 -31.22 0.999997 -80.92 0.999997 -80.92 2.272e-5 58.142
8.84620000 1.956e-5 -31.19 0.999997 -80.92 0.999997 -80.92 2.278e-5 58.098
8.84640000 1.962e-5 -31.17 0.999997 -80.92 0.999997 -80.92 2.283e-5 58.054
8.84660000 1.968e-5 -31.15 0.999997 -80.92 0.999997 -80.92 2.289e-5 58.010
8.84680000 1.973e-5 -31.13 0.999997 -80.92 0.999997 -80.92 2.294e-5 57.965
8.84700000 1.979e-5 -31.11 0.999997 -80.92 0.999997 -80.92 2.300e-5 57.921
8.84720000 1.985e-5 -31.08 0.999997 -80.93 0.999997 -80.93 2.305e-5 57.877
8.84740000 1.991e-5 -31.06 0.999997 -80.93 0.999997 -80.93 2.311e-5 57.833
8.84760000 1.997e-5 -31.04 0.999997 -80.93 0.999997 -80.93 2.317e-5 57.789
8.84780000 2.003e-5 -31.02 0.999997 -80.93 0.999997 -80.93 2.322e-5 57.745
8.84800000 2.009e-5 -30.99 0.999997 -80.93 0.999997 -80.93 2.328e-5 57.701
8.84820000 2.014e-5 -30.97 0.999997 -80.94 0.999997 -80.94 2.334e-5 57.657
8.84840000 2.020e-5 -30.95 0.999997 -80.94 0.999997 -80.94 2.340e-5 57.613
8.84860000 2.026e-5 -30.93 0.999997 -80.94 0.999997 -80.94 2.345e-5 57.568
8.84880000 2.033e-5 -30.91 0.999997 -80.94 0.999997 -80.94 2.351e-5 57.524
8.84900000 2.039e-5 -30.88 0.999997 -80.94 0.999997 -80.94 2.357e-5 57.480
8.84920000 2.045e-5 -30.86 0.999997 -80.94 0.999997 -80.94 2.363e-5 57.436
8.84940000 2.051e-5 -30.84 0.999997 -80.95 0.999997 -80.95 2.369e-5 57.392
8.84960000 2.057e-5 -30.82 0.999997 -80.95 0.999997 -80.95 2.375e-5 57.347
8.84980000 2.063e-5 -30.80 0.999997 -80.95 0.999997 -80.95 2.381e-5 57.303
8.85000000 2.070e-5 -30.77 0.999997 -80.95 0.999997 -80.95 2.387e-5 57.259
8.85020000 2.076e-5 -30.75 0.999997 -80.95 0.999997 -80.95 2.393e-5 57.215
8.85040000 2.082e-5 -30.73 0.999997 -80.96 0.999997 -80.96 2.399e-5 57.170
8.85060000 2.089e-5 -30.71 0.999997 -80.96 0.999997 -80.96 2.406e-5 57.126
8.85080000 2.095e-5 -30.69 0.999997 -80.96 0.999997 -80.96 2.412e-5 57.082
8.85100000 2.101e-5 -30.66 0.999997 -80.96 0.999997 -80.96 2.418e-5 57.037
8.85120000 2.108e-5 -30.64 0.999997 -80.96 0.999997 -80.96 2.424e-5 56.993
8.85140000 2.114e-5 -30.62 0.999997 -80.96 0.999997 -80.96 2.431e-5 56.948
8.85160000 2.121e-5 -30.60 0.999997 -80.97 0.999997 -80.97 2.437e-5 56.904
8.85180000 2.127e-5 -30.58 0.999997 -80.97 0.999997 -80.97 2.443e-5 56.860
8.85200000 2.134e-5 -30.56 0.999997 -80.97 0.999997 -80.97 2.450e-5 56.815
8.85220000 2.141e-5 -30.53 0.999997 -80.97 0.999997 -80.97 2.456e-5 56.771
8.85240000 2.147e-5 -30.51 0.999997 -80.97 0.999997 -80.97 2.463e-5 56.726
8.85260000 2.154e-5 -30.49 0.999997 -80.98 0.999997 -80.98 2.469e-5 56.682
8.85280000 2.161e-5 -30.47 0.999997 -80.98 0.999997 -80.98 2.476e-5 56.637
8.85300000 2.168e-5 -30.45 0.999997 -80.98 0.999997 -80.98 2.482e-5 56.592
8.85320000 2.175e-5 -30.42 0.999997 -80.98 0.999997 -80.98 2.489e-5 56.548
8.85340000 2.182e-5 -30.40 0.999997 -80.98 0.999997 -80.98 2.496e-5 56.503
8.85360000 2.188e-5 -30.38 0.999997 -80.99 0.999997 -80.99 2.503e-5 56.458
8.85380000 2.195e-5 -30.36 0.999997 -80.99 0.999997 -80.99 2.509e-5 56.414
8.85400000 2.202e-5 -30.34 0.999997 -80.99 0.999997 -80.99 2.516e-5 56.369
8.85420000 2.210e-5 -30.32 0.999997 -80.99 0.999997 -80.99 2.523e-5 56.324
8.85440000 2.217e-5 -30.29 0.999997 -80.99 0.999997 -80.99 2.530e-5 56.279
8.85460000 2.224e-5 -30.27 0.999997 -80.99 0.999997 -80.99 2.537e-5 56.234
8.85480000 2.231e-5 -30.25 0.999997 -81.00 0.999997 -81.00 2.544e-5 56.190
8.85500000 2.238e-5 -30.23 0.999997 -81.00 0.999997 -81.00 2.551e-5 56.145
8.85520000 2.245e-5 -30.21 0.999997 -81.00 0.999997 -81.00 2.558e-5 56.100
8.85540000 2.253e-5 -30.18 0.999997 -81.00 0.999997 -81.00 2.565e-5 56.055
8.85560000 2.260e-5 -30.16 0.999997 -81.00 0.999997 -81.00 2.572e-5 56.010
8.85580000 2.268e-5 -30.14 0.999997 -81.01 0.999997 -81.01 2.579e-5 55.965
8.85600000 2.275e-5 -30.12 0.999997 -81.01 0.999997 -81.01 2.587e-5 55.920
8.85620000 2.282e-5 -30.10 0.999997 -81.01 0.999997 -81.01 2.594e-5 55.874
8.85640000 2.290e-5 -30.08 0.999997 -81.01 0.999997 -81.01 2.601e-5 55.829
8.85660000 2.298e-5 -30.05 0.999997 -81.01 0.999997 -81.01 2.609e-5 55.784
8.85680000 2.305e-5 -30.03 0.999997 -81.01 0.999997 -81.01 2.616e-5 55.739
8.85700000 2.313e-5 -30.01 0.999997 -81.02 0.999997 -81.02 2.624e-5 55.693
8.85720000 2.321e-5 -29.99 0.999997 -81.02 0.999997 -81.02 2.631e-5 55.648
8.85740000 2.328e-5 -29.97 0.999997 -81.02 0.999997 -81.02 2.639e-5 55.603
8.85760000 2.336e-5 -29.94 0.999997 -81.02 0.999997 -81.02 2.646e-5 55.557
8.85780000 2.344e-5 -29.92 0.999997 -81.02 0.999997 -81.02 2.654e-5 55.512
8.85800000 2.352e-5 -29.90 0.999997 -81.03 0.999997 -81.03 2.662e-5 55.466
8.85820000 2.360e-5 -29.88 0.999997 -81.03 0.999997 -81.03 2.670e-5 55.421
8.85840000 2.368e-5 -29.86 0.999997 -81.03 0.999997 -81.03 2.677e-5 55.375
8.85860000 2.376e-5 -29.83 0.999997 -81.03 0.999997 -81.03 2.685e-5 55.329
8.85880000 2.384e-5 -29.81 0.999997 -81.03 0.999997 -81.03 2.693e-5 55.284
8.85900000 2.393e-5 -29.79 0.999997 -81.03 0.999997 -81.03 2.701e-5 55.238
8.85920000 2.401e-5 -29.77 0.999997 -81.04 0.999997 -81.04 2.709e-5 55.192
8.85940000 2.409e-5 -29.75 0.999997 -81.04 0.999997 -81.04 2.717e-5 55.146
8.85960000 2.418e-5 -29.72 0.999997 -81.04 0.999997 -81.04 2.726e-5 55.100
8.85980000 2.426e-5 -29.70 0.999997 -81.04 0.999997 -81.04 2.734e-5 55.054
8.86000000 2.434e-5 -29.68 0.999997 -81.04 0.999997 -81.04 2.742e-5 55.008
8.86020000 2.443e-5 -29.66 0.999997 -81.05 0.999997 -81.05 2.750e-5 54.962
8.86040000 2.451e-5 -29.63 0.999997 -81.05 0.999997 -81.05 2.759e-5 54.916
8.86060000 2.460e-5 -29.61 0.999997 -81.05 0.999997 -81.05 2.767e-5 54.870
8.86080000 2.469e-5 -29.59 0.999997 -81.05 0.999997 -81.05 2.776e-5 54.824
8.86100000 2.478e-5 -29.57 0.999997 -81.05 0.999997 -81.05 2.784e-5 54.777
8.86120000 2.486e-5 -29.55 0.999997 -81.05 0.999997 -81.05 2.793e-5 54.731
8.86140000 2.495e-5 -29.52 0.999997 -81.06 0.999997 -81.06 2.801e-5 54.685
8.86160000 2.504e-5 -29.50 0.999997 -81.06 0.999997 -81.06 2.810e-5 54.638
8.86180000 2.513e-5 -29.48 0.999997 -81.06 0.999997 -81.06 2.819e-5 54.592
8.86200000 2.522e-5 -29.46 0.999997 -81.06 0.999997 -81.06 2.828e-5 54.545
8.86220000 2.531e-5 -29.43 0.999997 -81.06 0.999997 -81.06 2.837e-5 54.498
8.86240000 2.541e-5 -29.41 0.999997 -81.07 0.999997 -81.07 2.846e-5 54.452
8.86260000 2.550e-5 -29.39 0.999997 -81.07 0.999997 -81.07 2.855e-5 54.405
8.86280000 2.559e-5 -29.37 0.999997 -81.07 0.999997 -81.07 2.864e-5 54.358
8.86300000 2.568e-5 -29.34 0.999997 -81.07 0.999997 -81.07 2.873e-5 54.311
8.86320000 2.578e-5 -29.32 0.999997 -81.07 0.999997 -81.07 2.882e-5 54.264
8.86340000 2.587e-5 -29.30 0.999997 -81.07 0.999997 -81.07 2.892e-5 54.217
8.86360000 2.597e-5 -29.28 0.999997 -81.08 0.999997 -81.08 2.901e-5 54.170
8.86380000 2.607e-5 -29.25 0.999997 -81.08 0.999997 -81.08 2.910e-5 54.123
8.86400000 2.616e-5 -29.23 0.999997 -81.08 0.999997 -81.08 2.920e-5 54.076
8.86420000 2.626e-5 -29.21 0.999997 -81.08 0.999997 -81.08 2.929e-5 54.029
8.86440000 2.636e-5 -29.18 0.999997 -81.08 0.999997 -81.08 2.939e-5 53.981
8.86460000 2.646e-5 -29.16 0.999997 -81.09 0.999997 -81.09 2.949e-5 53.934
8.86480000 2.656e-5 -29.14 0.999997 -81.09 0.999997 -81.09 2.958e-5 53.887
8.86500000 2.666e-5 -29.12 0.999997 -81.09 0.999997 -81.09 2.968e-5 53.839
8.86520000 2.676e-5 -29.09 0.999997 -81.09 0.999997 -81.09 2.978e-5 53.792
8.86540000 2.686e-5 -29.07 0.999997 -81.09 0.999997 -81.09 2.988e-5 53.744
8.86560000 2.697e-5 -29.05 0.999997 -81.10 0.999997 -81.10 2.998e-5 53.696
8.86580000 2.707e-5 -29.02 0.999997 -81.10 0.999997 -81.10 3.008e-5 53.648
8.86600000 2.717e-5 -29.00 0.999997 -81.10 0.999997 -81.10 3.019e-5 53.600
8.86620000 2.728e-5 -28.98 0.999997 -81.10 0.999997 -81.10 3.029e-5 53.553
8.86640000 2.739e-5 -28.95 0.999997 -81.10 0.999997 -81.10 3.039e-5 53.505
8.86660000 2.749e-5 -28.93 0.999997 -81.10 0.999997 -81.10 3.050e-5 53.456
8.86680000 2.760e-5 -28.91 0.999997 -81.11 0.999997 -81.11 3.060e-5 53.408
8.86700000 2.771e-5 -28.88 0.999997 -81.11 0.999997 -81.11 3.071e-5 53.360
8.86720000 2.782e-5 -28.86 0.999997 -81.11 0.999997 -81.11 3.082e-5 53.312
8.86740000 2.793e-5 -28.84 0.999997 -81.11 0.999997 -81.11 3.092e-5 53.263
8.86760000 2.804e-5 -28.81 0.999997 -81.11 0.999997 -81.11 3.103e-5 53.215
8.86780000 2.815e-5 -28.79 0.999997 -81.12 0.999997 -81.12 3.114e-5 53.166
8.86800000 2.826e-5 -28.77 0.999997 -81.12 0.999997 -81.12 3.125e-5 53.118
8.86820000 2.838e-5 -28.74 0.999997 -81.12 0.999997 -81.12 3.136e-5 53.069
8.86840000 2.849e-5 -28.72 0.999997 -81.12 0.999997 -81.12 3.148e-5 53.020
8.86860000 2.860e-5 -28.70 0.999997 -81.12 0.999997 -81.12 3.159e-5 52.972
8.86880000 2.872e-5 -28.67 0.999997 -81.12 0.999997 -81.12 3.170e-5 52.923
8.86900000 2.884e-5 -28.65 0.999997 -81.13 0.999997 -81.13 3.182e-5 52.874
8.86920000 2.896e-5 -28.62 0.999997 -81.13 0.999997 -81.13 3.193e-5 52.825
8.86940000 2.907e-5 -28.60 0.999997 -81.13 0.999997 -81.13 3.205e-5 52.776
8.86960000 2.919e-5 -28.58 0.999997 -81.13 0.999997 -81.13 3.217e-5 52.726
8.86980000 2.931e-5 -28.55 0.999997 -81.13 0.999997 -81.13 3.229e-5 52.677
8.87000000 2.944e-5 -28.53 0.999997 -81.14 0.999997 -81.14 3.240e-5 52.628
8.87020000 2.956e-5 -28.50 0.999997 -81.14 0.999997 -81.14 3.252e-5 52.578
8.87040000 2.968e-5 -28.48 0.999997 -81.14 0.999997 -81.14 3.265e-5 52.529
8.87060000 2.981e-5 -28.46 0.999997 -81.14 0.999997 -81.14 3.277e-5 52.479
8.87080000 2.993e-5 -28.43 0.999997 -81.14 0.999997 -81.14 3.289e-5 52.429
8.87100000 3.006e-5 -28.41 0.999997 -81.14 0.999997 -81.14 3.302e-5 52.380
8.87120000 3.019e-5 -28.38 0.999997 -81.15 0.999997 -81.15 3.314e-5 52.330
8.87140000 3.032e-5 -28.36 0.999997 -81.15 0.999997 -81.15 3.327e-5 52.280
8.87160000 3.044e-5 -28.33 0.999997 -81.15 0.999997 -81.15 3.339e-5 52.230
8.87180000 3.058e-5 -28.31 0.999997 -81.15 0.999997 -81.15 3.352e-5 52.180
8.87200000 3.071e-5 -28.29 0.999997 -81.15 0.999997 -81.15 3.365e-5 52.129
8.87220000 3.084e-5 -28.26 0.999997 -81.16 0.999997 -81.16 3.378e-5 52.079
8.87240000 3.097e-5 -28.24 0.999997 -81.16 0.999997 -81.16 3.392e-5 52.029
8.87260000 3.111e-5 -28.21 0.999997 -81.16 0.999997 -81.16 3.405e-5 51.978
8.87280000 3.125e-5 -28.19 0.999997 -81.16 0.999997 -81.16 3.418e-5 51.928
8.87300000 3.138e-5 -28.16 0.999997 -81.16 0.999997 -81.16 3.432e-5 51.877
8.87320000 3.152e-5 -28.14 0.999997 -81.16 0.999997 -81.16 3.445e-5 51.826
8.87340000 3.166e-5 -28.11 0.999997 -81.17 0.999997 -81.17 3.459e-5 51.775
8.87360000 3.180e-5 -28.09 0.999997 -81.17 0.999997 -81.17 3.473e-5 51.724
8.87380000 3.194e-5 -28.06 0.999997 -81.17 0.999997 -81.17 3.487e-5 51.673
8.87400000 3.209e-5 -28.04 0.999997 -81.17 0.999997 -81.17 3.501e-5 51.622
8.87420000 3.223e-5 -28.01 0.999997 -81.17 0.999997 -81.17 3.515e-5 51.571
8.87440000 3.238e-5 -27.99 0.999997 -81.18 0.999997 -81.18 3.530e-5 51.520
8.87460000 3.253e-5 -27.96 0.999997 -81.18 0.999997 -81.18 3.544e-5 51.469
8.87480000 3.267e-5 -27.94 0.999997 -81.18 0.999997 -81.18 3.559e-5 51.417
8.87500000 3.282e-5 -27.91 0.999997 -81.18 0.999997 -81.18 3.573e-5 51.366
8.87520000 3.298e-5 -27.88 0.999997 -81.18 0.999997 -81.18 3.588e-5 51.314
8.87540000 3.313e-5 -27.86 0.999997 -81.19 0.999997 -81.19 3.603e-5 51.262
8.87560000 3.328e-5 -27.83 0.999997 -81.19 0.999997 -81.19 3.618e-5 51.210
8.87580000 3.344e-5 -27.81 0.999997 -81.19 0.999997 -81.19 3.634e-5 51.158
8.87600000 3.359e-5 -27.78 0.999997 -81.19 0.999997 -81.19 3.649e-5 51.106
8.87620000 3.375e-5 -27.76 0.999997 -81.19 0.999997 -81.19 3.665e-5 51.054
8.87640000 3.391e-5 -27.73 0.999997 -81.19 0.999997 -81.19 3.680e-5 51.002
8.87660000 3.407e-5 -27.70 0.999997 -81.20 0.999997 -81.20 3.696e-5 50.950
8.87680000 3.423e-5 -27.68 0.999997 -81.20 0.999997 -81.20 3.712e-5 50.897
8.87700000 3.440e-5 -27.65 0.999997 -81.20 0.999997 -81.20 3.728e-5 50.845
8.87720000 3.456e-5 -27.63 0.999997 -81.20 0.999997 -81.20 3.745e-5 50.792
8.87740000 3.473e-5 -27.60 0.999997 -81.20 0.999997 -81.20 3.761e-5 50.740
8.87760000 3.490e-5 -27.57 0.999997 -81.21 0.999997 -81.21 3.778e-5 50.687
8.87780000 3.507e-5 -27.55 0.999997 -81.21 0.999997 -81.21 3.794e-5 50.634
8.87800000 3.524e-5 -27.52 0.999997 -81.21 0.999997 -81.21 3.811e-5 50.581
8.87820000 3.541e-5 -27.49 0.999997 -81.21 0.999997 -81.21 3.828e-5 50.528
8.87840000 3.559e-5 -27.47 0.999997 -81.21 0.999997 -81.21 3.845e-5 50.475