! Sonnet Data File
! From: emgraph Version : 16.52
! From Project: Resonator2_cp
! Data is De-embedded 
! Data File Written: 10/09/2017 00:47:19
!< HDATE 10/08/2017 10:09:33
!< MDATE 10/08/2017 10:09:33
!< PARAMS
!< Length = 400.0
!< Pwid1 = 2000.0
!< Pwid2 = 2000.0
!< Air_gap = 18.0
!< Width = 30.0
!< gap = 16.0
!< END PARAMS
# GHZ S MA R 51.00000
8.90000000 0.007103 -175.2 0.999971 -81.71 0.999971 -81.71 0.007103 -168.2
!< P1 F=8.9 Eeff=(6.44504261 -2.9711e-5) Z0=(50.6185376 1.16782e-4) R=0.0 C=0.0 
!< P2 F=8.9 Eeff=(6.44504261 -2.9711e-5) Z0=(50.6185376 1.16782e-4) R=0.0 C=0.0 
8.90010000 0.007107 -175.2 0.999971 -81.71 0.999971 -81.71 0.007107 -168.2
8.90020000 0.007112 -175.2 0.999971 -81.71 0.999971 -81.71 0.007112 -168.2
8.90030000 0.007116 -175.2 0.999970 -81.71 0.999970 -81.71 0.007116 -168.2
8.90040000 0.007120 -175.3 0.999970 -81.71 0.999970 -81.71 0.007120 -168.2
8.90050000 0.007124 -175.3 0.999970 -81.71 0.999970 -81.71 0.007125 -168.2
8.90060000 0.007129 -175.3 0.999970 -81.71 0.999970 -81.71 0.007129 -168.2
8.90070000 0.007133 -175.3 0.999970 -81.71 0.999970 -81.71 0.007133 -168.2
8.90080000 0.007138 -175.3 0.999970 -81.71 0.999970 -81.71 0.007138 -168.2
8.90090000 0.007142 -175.3 0.999970 -81.72 0.999970 -81.72 0.007142 -168.2
8.90100000 0.007146 -175.3 0.999970 -81.72 0.999970 -81.72 0.007147 -168.2
8.90110000 0.007151 -175.3 0.999970 -81.72 0.999970 -81.72 0.007151 -168.2
8.90120000 0.007155 -175.3 0.999970 -81.72 0.999970 -81.72 0.007155 -168.1
8.90130000 0.007160 -175.4 0.999970 -81.72 0.999970 -81.72 0.007160 -168.1
8.90140000 0.007164 -175.4 0.999970 -81.72 0.999970 -81.72 0.007164 -168.1
8.90150000 0.007169 -175.4 0.999970 -81.72 0.999970 -81.72 0.007169 -168.1
8.90160000 0.007173 -175.4 0.999970 -81.72 0.999970 -81.72 0.007173 -168.1
8.90170000 0.007178 -175.4 0.999970 -81.73 0.999970 -81.73 0.007178 -168.1
8.90180000 0.007182 -175.4 0.999970 -81.73 0.999970 -81.73 0.007182 -168.1
8.90190000 0.007187 -175.4 0.999970 -81.73 0.999970 -81.73 0.007187 -168.1
8.90200000 0.007191 -175.4 0.999970 -81.73 0.999970 -81.73 0.007192 -168.1
8.90210000 0.007196 -175.4 0.999970 -81.73 0.999970 -81.73 0.007196 -168.1
8.90220000 0.007201 -175.5 0.999970 -81.73 0.999970 -81.73 0.007201 -168.1
8.90230000 0.007205 -175.5 0.999970 -81.73 0.999970 -81.73 0.007205 -168.1
8.90240000 0.007210 -175.5 0.999970 -81.73 0.999970 -81.73 0.007210 -168.0
8.90250000 0.007214 -175.5 0.999970 -81.73 0.999970 -81.73 0.007215 -168.0
8.90260000 0.007219 -175.5 0.999970 -81.74 0.999970 -81.74 0.007219 -168.0
8.90270000 0.007224 -175.5 0.999970 -81.74 0.999970 -81.74 0.007224 -168.0
8.90280000 0.007229 -175.5 0.999970 -81.74 0.999970 -81.74 0.007229 -168.0
8.90290000 0.007233 -175.5 0.999970 -81.74 0.999970 -81.74 0.007233 -168.0
8.90300000 0.007238 -175.5 0.999970 -81.74 0.999970 -81.74 0.007238 -168.0
8.90310000 0.007243 -175.6 0.999969 -81.74 0.999969 -81.74 0.007243 -168.0
8.90320000 0.007247 -175.6 0.999969 -81.74 0.999969 -81.74 0.007248 -168.0
8.90330000 0.007252 -175.6 0.999969 -81.74 0.999969 -81.74 0.007252 -168.0
8.90340000 0.007257 -175.6 0.999969 -81.75 0.999969 -81.75 0.007257 -168.0
8.90350000 0.007262 -175.6 0.999969 -81.75 0.999969 -81.75 0.007262 -167.9
8.90360000 0.007267 -175.6 0.999969 -81.75 0.999969 -81.75 0.007267 -167.9
8.90370000 0.007272 -175.6 0.999969 -81.75 0.999969 -81.75 0.007272 -167.9
8.90380000 0.007276 -175.6 0.999969 -81.75 0.999969 -81.75 0.007277 -167.9
8.90390000 0.007281 -175.6 0.999969 -81.75 0.999969 -81.75 0.007282 -167.9
8.90400000 0.007286 -175.7 0.999969 -81.75 0.999969 -81.75 0.007286 -167.9
8.90410000 0.007291 -175.7 0.999969 -81.75 0.999969 -81.75 0.007291 -167.9
8.90420000 0.007296 -175.7 0.999969 -81.76 0.999969 -81.76 0.007296 -167.9
8.90430000 0.007301 -175.7 0.999969 -81.76 0.999969 -81.76 0.007301 -167.9
8.90440000 0.007306 -175.7 0.999969 -81.76 0.999969 -81.76 0.007306 -167.9
8.90450000 0.007311 -175.7 0.999969 -81.76 0.999969 -81.76 0.007311 -167.9
8.90460000 0.007316 -175.7 0.999969 -81.76 0.999969 -81.76 0.007316 -167.8
8.90470000 0.007321 -175.7 0.999969 -81.76 0.999969 -81.76 0.007321 -167.8
8.90480000 0.007326 -175.8 0.999969 -81.76 0.999969 -81.76 0.007326 -167.8
8.90490000 0.007331 -175.8 0.999969 -81.76 0.999969 -81.76 0.007331 -167.8
8.90500000 0.007336 -175.8 0.999969 -81.76 0.999969 -81.76 0.007337 -167.8
8.90510000 0.007341 -175.8 0.999969 -81.77 0.999969 -81.77 0.007342 -167.8
8.90520000 0.007347 -175.8 0.999969 -81.77 0.999969 -81.77 0.007347 -167.8
8.90530000 0.007352 -175.8 0.999969 -81.77 0.999969 -81.77 0.007352 -167.8
8.90540000 0.007357 -175.8 0.999969 -81.77 0.999969 -81.77 0.007357 -167.8
8.90550000 0.007362 -175.8 0.999969 -81.77 0.999969 -81.77 0.007362 -167.8
8.90560000 0.007367 -175.8 0.999968 -81.77 0.999968 -81.77 0.007368 -167.8
8.90570000 0.007373 -175.9 0.999968 -81.77 0.999968 -81.77 0.007373 -167.7
8.90580000 0.007378 -175.9 0.999968 -81.77 0.999968 -81.77 0.007378 -167.7
8.90590000 0.007383 -175.9 0.999968 -81.78 0.999968 -81.78 0.007383 -167.7
8.90600000 0.007388 -175.9 0.999968 -81.78 0.999968 -81.78 0.007389 -167.7
8.90610000 0.007394 -175.9 0.999968 -81.78 0.999968 -81.78 0.007394 -167.7
8.90620000 0.007399 -175.9 0.999968 -81.78 0.999968 -81.78 0.007399 -167.7
8.90630000 0.007404 -175.9 0.999968 -81.78 0.999968 -81.78 0.007405 -167.7
8.90640000 0.007410 -175.9 0.999968 -81.78 0.999968 -81.78 0.007410 -167.7
8.90650000 0.007415 -176.0 0.999968 -81.78 0.999968 -81.78 0.007415 -167.7
8.90660000 0.007420 -176.0 0.999968 -81.78 0.999968 -81.78 0.007421 -167.7
8.90670000 0.007426 -176.0 0.999968 -81.79 0.999968 -81.79 0.007426 -167.6
8.90680000 0.007431 -176.0 0.999968 -81.79 0.999968 -81.79 0.007432 -167.6
8.90690000 0.007437 -176.0 0.999968 -81.79 0.999968 -81.79 0.007437 -167.6
8.90700000 0.007442 -176.0 0.999968 -81.79 0.999968 -81.79 0.007443 -167.6
8.90710000 0.007448 -176.0 0.999968 -81.79 0.999968 -81.79 0.007448 -167.6
8.90720000 0.007453 -176.0 0.999968 -81.79 0.999968 -81.79 0.007454 -167.6
8.90730000 0.007459 -176.1 0.999968 -81.79 0.999968 -81.79 0.007459 -167.6
8.90740000 0.007465 -176.1 0.999968 -81.79 0.999968 -81.79 0.007465 -167.6
8.90750000 0.007470 -176.1 0.999968 -81.80 0.999968 -81.80 0.007470 -167.6
8.90760000 0.007476 -176.1 0.999968 -81.80 0.999968 -81.80 0.007476 -167.6
8.90770000 0.007481 -176.1 0.999968 -81.80 0.999968 -81.80 0.007482 -167.5
8.90780000 0.007487 -176.1 0.999967 -81.80 0.999967 -81.80 0.007487 -167.5
8.90790000 0.007493 -176.1 0.999967 -81.80 0.999967 -81.80 0.007493 -167.5
8.90800000 0.007498 -176.1 0.999967 -81.80 0.999967 -81.80 0.007499 -167.5
8.90810000 0.007504 -176.2 0.999967 -81.80 0.999967 -81.80 0.007504 -167.5
8.90820000 0.007510 -176.2 0.999967 -81.80 0.999967 -81.80 0.007510 -167.5
8.90830000 0.007516 -176.2 0.999967 -81.81 0.999967 -81.81 0.007516 -167.5
8.90840000 0.007522 -176.2 0.999967 -81.81 0.999967 -81.81 0.007522 -167.5
8.90850000 0.007527 -176.2 0.999967 -81.81 0.999967 -81.81 0.007528 -167.5
8.90860000 0.007533 -176.2 0.999967 -81.81 0.999967 -81.81 0.007533 -167.5
8.90870000 0.007539 -176.2 0.999967 -81.81 0.999967 -81.81 0.007539 -167.4
8.90880000 0.007545 -176.2 0.999967 -81.81 0.999967 -81.81 0.007545 -167.4
8.90890000 0.007551 -176.3 0.999967 -81.81 0.999967 -81.81 0.007551 -167.4
8.90900000 0.007557 -176.3 0.999967 -81.81 0.999967 -81.81 0.007557 -167.4
8.90910000 0.007563 -176.3 0.999967 -81.82 0.999967 -81.82 0.007563 -167.4
8.90920000 0.007569 -176.3 0.999967 -81.82 0.999967 -81.82 0.007569 -167.4
8.90930000 0.007575 -176.3 0.999967 -81.82 0.999967 -81.82 0.007575 -167.4
8.90940000 0.007581 -176.3 0.999967 -81.82 0.999967 -81.82 0.007581 -167.4
8.90950000 0.007587 -176.3 0.999967 -81.82 0.999967 -81.82 0.007587 -167.4
8.90960000 0.007593 -176.3 0.999967 -81.82 0.999967 -81.82 0.007593 -167.4
8.90970000 0.007599 -176.4 0.999967 -81.82 0.999967 -81.82 0.007599 -167.3
8.90980000 0.007605 -176.4 0.999966 -81.82 0.999966 -81.82 0.007606 -167.3
8.90990000 0.007611 -176.4 0.999966 -81.83 0.999966 -81.83 0.007612 -167.3
8.91000000 0.007618 -176.4 0.999966 -81.83 0.999966 -81.83 0.007618 -167.3
8.91010000 0.007624 -176.4 0.999966 -81.83 0.999966 -81.83 0.007624 -167.3
8.91020000 0.007630 -176.4 0.999966 -81.83 0.999966 -81.83 0.007630 -167.3
8.91030000 0.007636 -176.4 0.999966 -81.83 0.999966 -81.83 0.007637 -167.3
8.91040000 0.007643 -176.5 0.999966 -81.83 0.999966 -81.83 0.007643 -167.3
8.91050000 0.007649 -176.5 0.999966 -81.83 0.999966 -81.83 0.007649 -167.3
8.91060000 0.007655 -176.5 0.999966 -81.84 0.999966 -81.84 0.007656 -167.2
8.91070000 0.007662 -176.5 0.999966 -81.84 0.999966 -81.84 0.007662 -167.2
8.91080000 0.007668 -176.5 0.999966 -81.84 0.999966 -81.84 0.007668 -167.2
8.91090000 0.007674 -176.5 0.999966 -81.84 0.999966 -81.84 0.007675 -167.2
8.91100000 0.007681 -176.5 0.999966 -81.84 0.999966 -81.84 0.007681 -167.2
8.91110000 0.007687 -176.5 0.999966 -81.84 0.999966 -81.84 0.007688 -167.2
8.91120000 0.007694 -176.6 0.999966 -81.84 0.999966 -81.84 0.007694 -167.2
8.91130000 0.007700 -176.6 0.999966 -81.84 0.999966 -81.84 0.007701 -167.2
8.91140000 0.007707 -176.6 0.999966 -81.85 0.999966 -81.85 0.007707 -167.2
8.91150000 0.007714 -176.6 0.999966 -81.85 0.999966 -81.85 0.007714 -167.1
8.91160000 0.007720 -176.6 0.999966 -81.85 0.999966 -81.85 0.007720 -167.1
8.91170000 0.007727 -176.6 0.999965 -81.85 0.999965 -81.85 0.007727 -167.1
8.91180000 0.007733 -176.6 0.999965 -81.85 0.999965 -81.85 0.007734 -167.1
8.91190000 0.007740 -176.7 0.999965 -81.85 0.999965 -81.85 0.007740 -167.1
8.91200000 0.007747 -176.7 0.999965 -81.85 0.999965 -81.85 0.007747 -167.1
8.91210000 0.007754 -176.7 0.999965 -81.85 0.999965 -81.85 0.007754 -167.1
8.91220000 0.007760 -176.7 0.999965 -81.86 0.999965 -81.86 0.007761 -167.1
8.91230000 0.007767 -176.7 0.999965 -81.86 0.999965 -81.86 0.007768 -167.1
8.91240000 0.007774 -176.7 0.999965 -81.86 0.999965 -81.86 0.007774 -167.0
8.91250000 0.007781 -176.7 0.999965 -81.86 0.999965 -81.86 0.007781 -167.0
8.91260000 0.007788 -176.8 0.999965 -81.86 0.999965 -81.86 0.007788 -167.0
8.91270000 0.007795 -176.8 0.999965 -81.86 0.999965 -81.86 0.007795 -167.0
8.91280000 0.007802 -176.8 0.999965 -81.86 0.999965 -81.86 0.007802 -167.0
8.91290000 0.007809 -176.8 0.999965 -81.87 0.999965 -81.87 0.007809 -167.0
8.91300000 0.007816 -176.8 0.999965 -81.87 0.999965 -81.87 0.007816 -167.0
8.91310000 0.007823 -176.8 0.999965 -81.87 0.999965 -81.87 0.007823 -167.0
8.91320000 0.007830 -176.8 0.999965 -81.87 0.999965 -81.87 0.007830 -167.0
8.91330000 0.007837 -176.9 0.999964 -81.87 0.999964 -81.87 0.007837 -166.9
8.91340000 0.007844 -176.9 0.999964 -81.87 0.999964 -81.87 0.007844 -166.9
8.91350000 0.007851 -176.9 0.999964 -81.87 0.999964 -81.87 0.007852 -166.9
8.91360000 0.007858 -176.9 0.999964 -81.87 0.999964 -81.87 0.007859 -166.9
8.91370000 0.007866 -176.9 0.999964 -81.88 0.999964 -81.88 0.007866 -166.9
8.91380000 0.007873 -176.9 0.999964 -81.88 0.999964 -81.88 0.007873 -166.9
8.91390000 0.007880 -176.9 0.999964 -81.88 0.999964 -81.88 0.007881 -166.9
8.91400000 0.007888 -177.0 0.999964 -81.88 0.999964 -81.88 0.007888 -166.9
8.91410000 0.007895 -177.0 0.999964 -81.88 0.999964 -81.88 0.007895 -166.9
8.91420000 0.007902 -177.0 0.999964 -81.88 0.999964 -81.88 0.007903 -166.8
8.91430000 0.007910 -177.0 0.999964 -81.88 0.999964 -81.88 0.007910 -166.8
8.91440000 0.007917 -177.0 0.999964 -81.89 0.999964 -81.89 0.007918 -166.8
8.91450000 0.007925 -177.0 0.999964 -81.89 0.999964 -81.89 0.007925 -166.8
8.91460000 0.007932 -177.0 0.999964 -81.89 0.999964 -81.89 0.007933 -166.8
8.91470000 0.007940 -177.1 0.999964 -81.89 0.999964 -81.89 0.007940 -166.8
8.91480000 0.007947 -177.1 0.999964 -81.89 0.999964 -81.89 0.007948 -166.8
8.91490000 0.007955 -177.1 0.999963 -81.89 0.999963 -81.89 0.007955 -166.8
8.91500000 0.007963 -177.1 0.999963 -81.89 0.999963 -81.89 0.007963 -166.7
8.91510000 0.007971 -177.1 0.999963 -81.90 0.999963 -81.90 0.007971 -166.7
8.91520000 0.007978 -177.1 0.999963 -81.90 0.999963 -81.90 0.007979 -166.7
8.91530000 0.007986 -177.1 0.999963 -81.90 0.999963 -81.90 0.007986 -166.7
8.91540000 0.007994 -177.2 0.999963 -81.90 0.999963 -81.90 0.007994 -166.7
8.91550000 0.008002 -177.2 0.999963 -81.90 0.999963 -81.90 0.008002 -166.7
8.91560000 0.008010 -177.2 0.999963 -81.90 0.999963 -81.90 0.008010 -166.7
8.91570000 0.008017 -177.2 0.999963 -81.90 0.999963 -81.90 0.008018 -166.7
8.91580000 0.008025 -177.2 0.999963 -81.90 0.999963 -81.90 0.008026 -166.6
8.91590000 0.008033 -177.2 0.999963 -81.91 0.999963 -81.91 0.008034 -166.6
8.91600000 0.008041 -177.2 0.999963 -81.91 0.999963 -81.91 0.008042 -166.6
8.91610000 0.008050 -177.3 0.999963 -81.91 0.999963 -81.91 0.008050 -166.6
8.91620000 0.008058 -177.3 0.999963 -81.91 0.999963 -81.91 0.008058 -166.6
8.91630000 0.008066 -177.3 0.999962 -81.91 0.999962 -81.91 0.008066 -166.6
8.91640000 0.008074 -177.3 0.999962 -81.91 0.999962 -81.91 0.008074 -166.6
8.91650000 0.008082 -177.3 0.999962 -81.91 0.999962 -81.91 0.008083 -166.6
8.91660000 0.008090 -177.3 0.999962 -81.92 0.999962 -81.92 0.008091 -166.5
8.91670000 0.008099 -177.4 0.999962 -81.92 0.999962 -81.92 0.008099 -166.5
8.91680000 0.008107 -177.4 0.999962 -81.92 0.999962 -81.92 0.008108 -166.5
8.91690000 0.008115 -177.4 0.999962 -81.92 0.999962 -81.92 0.008116 -166.5
8.91700000 0.008124 -177.4 0.999962 -81.92 0.999962 -81.92 0.008124 -166.5
8.91710000 0.008132 -177.4 0.999962 -81.92 0.999962 -81.92 0.008133 -166.5
8.91720000 0.008141 -177.4 0.999962 -81.92 0.999962 -81.92 0.008141 -166.5
8.91730000 0.008149 -177.5 0.999962 -81.93 0.999962 -81.93 0.008150 -166.5
8.91740000 0.008158 -177.5 0.999962 -81.93 0.999962 -81.93 0.008158 -166.4
8.91750000 0.008167 -177.5 0.999962 -81.93 0.999962 -81.93 0.008167 -166.4
8.91760000 0.008175 -177.5 0.999961 -81.93 0.999961 -81.93 0.008176 -166.4
8.91770000 0.008184 -177.5 0.999961 -81.93 0.999961 -81.93 0.008184 -166.4
8.91780000 0.008193 -177.5 0.999961 -81.93 0.999961 -81.93 0.008193 -166.4
8.91790000 0.008202 -177.5 0.999961 -81.93 0.999961 -81.93 0.008202 -166.4
8.91800000 0.008210 -177.6 0.999961 -81.94 0.999961 -81.94 0.008211 -166.4
8.91810000 0.008219 -177.6 0.999961 -81.94 0.999961 -81.94 0.008220 -166.4
8.91820000 0.008228 -177.6 0.999961 -81.94 0.999961 -81.94 0.008229 -166.3
8.91830000 0.008237 -177.6 0.999961 -81.94 0.999961 -81.94 0.008238 -166.3
8.91840000 0.008246 -177.6 0.999961 -81.94 0.999961 -81.94 0.008247 -166.3
8.91850000 0.008255 -177.6 0.999961 -81.94 0.999961 -81.94 0.008256 -166.3
8.91860000 0.008264 -177.7 0.999961 -81.94 0.999961 -81.94 0.008265 -166.3
8.91870000 0.008273 -177.7 0.999961 -81.95 0.999961 -81.95 0.008274 -166.3
8.91880000 0.008283 -177.7 0.999960 -81.95 0.999960 -81.95 0.008283 -166.3
8.91890000 0.008292 -177.7 0.999960 -81.95 0.999960 -81.95 0.008292 -166.2
8.91900000 0.008301 -177.7 0.999960 -81.95 0.999960 -81.95 0.008302 -166.2
8.91910000 0.008310 -177.7 0.999960 -81.95 0.999960 -81.95 0.008311 -166.2
8.91920000 0.008320 -177.8 0.999960 -81.95 0.999960 -81.95 0.008320 -166.2
8.91930000 0.008329 -177.8 0.999960 -81.95 0.999960 -81.95 0.008330 -166.2
8.91940000 0.008339 -177.8 0.999960 -81.96 0.999960 -81.96 0.008339 -166.2
8.91950000 0.008348 -177.8 0.999960 -81.96 0.999960 -81.96 0.008349 -166.2
8.91960000 0.008358 -177.8 0.999960 -81.96 0.999960 -81.96 0.008358 -166.2
8.91970000 0.008367 -177.8 0.999960 -81.96 0.999960 -81.96 0.008368 -166.1
8.91980000 0.008377 -177.9 0.999960 -81.96 0.999960 -81.96 0.008377 -166.1
8.91990000 0.008387 -177.9 0.999959 -81.96 0.999959 -81.96 0.008387 -166.1
8.92000000 0.008396 -177.9 0.999959 -81.97 0.999959 -81.97 0.008397 -166.1
8.92010000 0.008406 -177.9 0.999959 -81.97 0.999959 -81.97 0.008407 -166.1
8.92020000 0.008416 -177.9 0.999959 -81.97 0.999959 -81.97 0.008417 -166.1
8.92030000 0.008426 -177.9 0.999959 -81.97 0.999959 -81.97 0.008427 -166.1
8.92040000 0.008436 -178.0 0.999959 -81.97 0.999959 -81.97 0.008436 -166.0
8.92050000 0.008446 -178.0 0.999959 -81.97 0.999959 -81.97 0.008447 -166.0
8.92060000 0.008456 -178.0 0.999959 -81.97 0.999959 -81.97 0.008457 -166.0
8.92070000 0.008466 -178.0 0.999959 -81.98 0.999959 -81.98 0.008467 -166.0
8.92080000 0.008476 -178.0 0.999959 -81.98 0.999959 -81.98 0.008477 -166.0
8.92090000 0.008487 -178.0 0.999959 -81.98 0.999959 -81.98 0.008487 -166.0
8.92100000 0.008497 -178.1 0.999958 -81.98 0.999958 -81.98 0.008497 -166.0
8.92110000 0.008507 -178.1 0.999958 -81.98 0.999958 -81.98 0.008508 -165.9
8.92120000 0.008518 -178.1 0.999958 -81.98 0.999958 -81.98 0.008518 -165.9
8.92130000 0.008528 -178.1 0.999958 -81.98 0.999958 -81.98 0.008529 -165.9
8.92140000 0.008539 -178.1 0.999958 -81.99 0.999958 -81.99 0.008539 -165.9
8.92150000 0.008549 -178.2 0.999958 -81.99 0.999958 -81.99 0.008550 -165.9
8.92160000 0.008560 -178.2 0.999958 -81.99 0.999958 -81.99 0.008560 -165.9
8.92170000 0.008570 -178.2 0.999958 -81.99 0.999958 -81.99 0.008571 -165.9
8.92180000 0.008581 -178.2 0.999958 -81.99 0.999958 -81.99 0.008582 -165.8
8.92190000 0.008592 -178.2 0.999958 -81.99 0.999958 -81.99 0.008592 -165.8
8.92200000 0.008603 -178.2 0.999957 -82.00 0.999957 -82.00 0.008603 -165.8
8.92210000 0.008614 -178.3 0.999957 -82.00 0.999957 -82.00 0.008614 -165.8
8.92220000 0.008625 -178.3 0.999957 -82.00 0.999957 -82.00 0.008625 -165.8
8.92230000 0.008636 -178.3 0.999957 -82.00 0.999957 -82.00 0.008636 -165.8
8.92240000 0.008647 -178.3 0.999957 -82.00 0.999957 -82.00 0.008647 -165.8
8.92250000 0.008658 -178.3 0.999957 -82.00 0.999957 -82.00 0.008658 -165.7
8.92260000 0.008669 -178.3 0.999957 -82.01 0.999957 -82.01 0.008669 -165.7
8.92270000 0.008680 -178.4 0.999957 -82.01 0.999957 -82.01 0.008681 -165.7
8.92280000 0.008692 -178.4 0.999957 -82.01 0.999957 -82.01 0.008692 -165.7
8.92290000 0.008703 -178.4 0.999956 -82.01 0.999956 -82.01 0.008703 -165.7
8.92300000 0.008714 -178.4 0.999956 -82.01 0.999956 -82.01 0.008715 -165.7
8.92310000 0.008726 -178.4 0.999956 -82.01 0.999956 -82.01 0.008726 -165.6
8.92320000 0.008737 -178.5 0.999956 -82.01 0.999956 -82.01 0.008738 -165.6
8.92330000 0.008749 -178.5 0.999956 -82.02 0.999956 -82.02 0.008750 -165.6
8.92340000 0.008761 -178.5 0.999956 -82.02 0.999956 -82.02 0.008761 -165.6
8.92350000 0.008773 -178.5 0.999956 -82.02 0.999956 -82.02 0.008773 -165.6
8.92360000 0.008784 -178.5 0.999956 -82.02 0.999956 -82.02 0.008785 -165.6
8.92370000 0.008796 -178.6 0.999956 -82.02 0.999956 -82.02 0.008797 -165.6
8.92380000 0.008808 -178.6 0.999955 -82.02 0.999955 -82.02 0.008809 -165.5
8.92390000 0.008820 -178.6 0.999955 -82.03 0.999955 -82.03 0.008821 -165.5
8.92400000 0.008832 -178.6 0.999955 -82.03 0.999955 -82.03 0.008833 -165.5
8.92410000 0.008844 -178.6 0.999955 -82.03 0.999955 -82.03 0.008845 -165.5
8.92420000 0.008857 -178.6 0.999955 -82.03 0.999955 -82.03 0.008857 -165.5
8.92430000 0.008869 -178.7 0.999955 -82.03 0.999955 -82.03 0.008870 -165.5
8.92440000 0.008881 -178.7 0.999955 -82.03 0.999955 -82.03 0.008882 -165.4
8.92450000 0.008894 -178.7 0.999955 -82.04 0.999955 -82.04 0.008894 -165.4
8.92460000 0.008906 -178.7 0.999954 -82.04 0.999954 -82.04 0.008907 -165.4
8.92470000 0.008919 -178.7 0.999954 -82.04 0.999954 -82.04 0.008920 -165.4
8.92480000 0.008932 -178.8 0.999954 -82.04 0.999954 -82.04 0.008932 -165.4
8.92490000 0.008944 -178.8 0.999954 -82.04 0.999954 -82.04 0.008945 -165.4
8.92500000 0.008957 -178.8 0.999954 -82.04 0.999954 -82.04 0.008958 -165.4
8.92510000 0.008970 -178.8 0.999954 -82.05 0.999954 -82.05 0.008971 -165.3
8.92520000 0.008983 -178.8 0.999954 -82.05 0.999954 -82.05 0.008984 -165.3
8.92530000 0.008996 -178.9 0.999953 -82.05 0.999953 -82.05 0.008997 -165.3
8.92540000 0.009009 -178.9 0.999953 -82.05 0.999953 -82.05 0.009010 -165.3
8.92550000 0.009022 -178.9 0.999953 -82.05 0.999953 -82.05 0.009023 -165.3
8.92560000 0.009036 -178.9 0.999953 -82.05 0.999953 -82.05 0.009036 -165.3
8.92570000 0.009049 -178.9 0.999953 -82.06 0.999953 -82.06 0.009050 -165.2
8.92580000 0.009063 -179.0 0.999953 -82.06 0.999953 -82.06 0.009063 -165.2
8.92590000 0.009076 -179.0 0.999953 -82.06 0.999953 -82.06 0.009077 -165.2
8.92600000 0.009090 -179.0 0.999953 -82.06 0.999953 -82.06 0.009090 -165.2
8.92610000 0.009103 -179.0 0.999952 -82.06 0.999952 -82.06 0.009104 -165.2
8.92620000 0.009117 -179.0 0.999952 -82.06 0.999952 -82.06 0.009118 -165.2
8.92630000 0.009131 -179.1 0.999952 -82.07 0.999952 -82.07 0.009132 -165.1
8.92640000 0.009145 -179.1 0.999952 -82.07 0.999952 -82.07 0.009146 -165.1
8.92650000 0.009159 -179.1 0.999952 -82.07 0.999952 -82.07 0.009160 -165.1
8.92660000 0.009173 -179.1 0.999952 -82.07 0.999952 -82.07 0.009174 -165.1
8.92670000 0.009187 -179.1 0.999952 -82.07 0.999952 -82.07 0.009188 -165.1
8.92680000 0.009201 -179.2 0.999951 -82.07 0.999951 -82.07 0.009202 -165.1
8.92690000 0.009216 -179.2 0.999951 -82.08 0.999951 -82.08 0.009216 -165.0
8.92700000 0.009230 -179.2 0.999951 -82.08 0.999951 -82.08 0.009231 -165.0
8.92710000 0.009245 -179.2 0.999951 -82.08 0.999951 -82.08 0.009245 -165.0
8.92720000 0.009259 -179.2 0.999951 -82.08 0.999951 -82.08 0.009260 -165.0
8.92730000 0.009274 -179.3 0.999951 -82.08 0.999951 -82.08 0.009275 -165.0
8.92740000 0.009289 -179.3 0.999950 -82.09 0.999950 -82.09 0.009290 -165.0
8.92750000 0.009304 -179.3 0.999950 -82.09 0.999950 -82.09 0.009305 -164.9
8.92760000 0.009319 -179.3 0.999950 -82.09 0.999950 -82.09 0.009320 -164.9
8.92770000 0.009334 -179.3 0.999950 -82.09 0.999950 -82.09 0.009335 -164.9
8.92780000 0.009349 -179.4 0.999950 -82.09 0.999950 -82.09 0.009350 -164.9
8.92790000 0.009364 -179.4 0.999950 -82.09 0.999950 -82.09 0.009365 -164.9
8.92800000 0.009380 -179.4 0.999949 -82.10 0.999949 -82.10 0.009381 -164.9
8.92810000 0.009395 -179.4 0.999949 -82.10 0.999949 -82.10 0.009396 -164.8
8.92820000 0.009411 -179.5 0.999949 -82.10 0.999949 -82.10 0.009412 -164.8
8.92830000 0.009427 -179.5 0.999949 -82.10 0.999949 -82.10 0.009427 -164.8
8.92840000 0.009442 -179.5 0.999949 -82.10 0.999949 -82.10 0.009443 -164.8
8.92850000 0.009458 -179.5 0.999949 -82.11 0.999949 -82.11 0.009459 -164.8
8.92860000 0.009474 -179.5 0.999948 -82.11 0.999948 -82.11 0.009475 -164.7
8.92870000 0.009490 -179.6 0.999948 -82.11 0.999948 -82.11 0.009491 -164.7
8.92880000 0.009507 -179.6 0.999948 -82.11 0.999948 -82.11 0.009507 -164.7
8.92890000 0.009523 -179.6 0.999948 -82.11 0.999948 -82.11 0.009524 -164.7
8.92900000 0.009539 -179.6 0.999948 -82.11 0.999948 -82.11 0.009540 -164.7
8.92910000 0.009556 -179.6 0.999948 -82.12 0.999948 -82.12 0.009557 -164.7
8.92920000 0.009573 -179.7 0.999947 -82.12 0.999947 -82.12 0.009573 -164.6
8.92930000 0.009589 -179.7 0.999947 -82.12 0.999947 -82.12 0.009590 -164.6
8.92940000 0.009606 -179.7 0.999947 -82.12 0.999947 -82.12 0.009607 -164.6
8.92950000 0.009623 -179.7 0.999947 -82.12 0.999947 -82.12 0.009624 -164.6
8.92960000 0.009640 -179.8 0.999947 -82.13 0.999947 -82.13 0.009641 -164.6
8.92970000 0.009657 -179.8 0.999946 -82.13 0.999946 -82.13 0.009658 -164.5
8.92980000 0.009675 -179.8 0.999946 -82.13 0.999946 -82.13 0.009676 -164.5
8.92990000 0.009692 -179.8 0.999946 -82.13 0.999946 -82.13 0.009693 -164.5
8.93000000 0.009710 -179.8 0.999946 -82.13 0.999946 -82.13 0.009711 -164.5
8.93010000 0.009727 -179.9 0.999946 -82.14 0.999946 -82.14 0.009728 -164.5
8.93020000 0.009745 -179.9 0.999945 -82.14 0.999945 -82.14 0.009746 -164.5
8.93030000 0.009763 -179.9 0.999945 -82.14 0.999945 -82.14 0.009764 -164.4
8.93040000 0.009781 -179.9 0.999945 -82.14 0.999945 -82.14 0.009782 -164.4
8.93050000 0.009799 -180.0 0.999945 -82.14 0.999945 -82.14 0.009800 -164.4
8.93060000 0.009818 -180.0 0.999945 -82.15 0.999945 -82.15 0.009819 -164.4
8.93070000 0.009836 179.99 0.999944 -82.15 0.999944 -82.15 0.009837 -164.4
8.93080000 0.009855 179.97 0.999944 -82.15 0.999944 -82.15 0.009856 -164.3
8.93090000 0.009873 179.95 0.999944 -82.15 0.999944 -82.15 0.009874 -164.3
8.93100000 0.009892 179.92 0.999944 -82.15 0.999944 -82.15 0.009893 -164.3
8.93110000 0.009911 179.90 0.999944 -82.16 0.999944 -82.16 0.009912 -164.3
8.93120000 0.009930 179.88 0.999943 -82.16 0.999943 -82.16 0.009931 -164.3
8.93130000 0.009949 179.85 0.999943 -82.16 0.999943 -82.16 0.009950 -164.2
8.93140000 0.009969 179.83 0.999943 -82.16 0.999943 -82.16 0.009970 -164.2
8.93150000 0.009988 179.81 0.999943 -82.16 0.999943 -82.16 0.009989 -164.2
8.93160000 0.010008 179.78 0.999942 -82.17 0.999942 -82.17 0.010009 -164.2
8.93170000 0.010028 179.76 0.999942 -82.17 0.999942 -82.17 0.010029 -164.2
8.93180000 0.010048 179.73 0.999942 -82.17 0.999942 -82.17 0.010049 -164.1
8.93190000 0.010068 179.71 0.999942 -82.17 0.999942 -82.17 0.010069 -164.1
8.93200000 0.010088 179.69 0.999942 -82.17 0.999942 -82.17 0.010089 -164.1
8.93210000 0.010108 179.66 0.999941 -82.18 0.999941 -82.18 0.010109 -164.1
8.93220000 0.010129 179.64 0.999941 -82.18 0.999941 -82.18 0.010130 -164.1
8.93230000 0.010150 179.61 0.999941 -82.18 0.999941 -82.18 0.010150 -164.0
8.93240000 0.010170 179.59 0.999941 -82.18 0.999941 -82.18 0.010171 -164.0
8.93250000 0.010191 179.56 0.999940 -82.18 0.999940 -82.18 0.010192 -164.0
8.93260000 0.010212 179.54 0.999940 -82.19 0.999940 -82.19 0.010213 -164.0
8.93270000 0.010234 179.52 0.999940 -82.19 0.999940 -82.19 0.010235 -164.0
8.93280000 0.010255 179.49 0.999940 -82.19 0.999940 -82.19 0.010256 -163.9
8.93290000 0.010277 179.47 0.999939 -82.19 0.999939 -82.19 0.010278 -163.9
8.93300000 0.010299 179.44 0.999939 -82.20 0.999939 -82.20 0.010300 -163.9
8.93310000 0.010321 179.42 0.999939 -82.20 0.999939 -82.20 0.010322 -163.9
8.93320000 0.010343 179.39 0.999939 -82.20 0.999939 -82.20 0.010344 -163.9
8.93330000 0.010365 179.37 0.999938 -82.20 0.999938 -82.20 0.010366 -163.8
8.93340000 0.010387 179.34 0.999938 -82.20 0.999938 -82.20 0.010388 -163.8
8.93350000 0.010410 179.31 0.999938 -82.21 0.999938 -82.21 0.010411 -163.8
8.93360000 0.010433 179.29 0.999937 -82.21 0.999937 -82.21 0.010434 -163.8
8.93370000 0.010456 179.26 0.999937 -82.21 0.999937 -82.21 0.010457 -163.8
8.93380000 0.010479 179.24 0.999937 -82.21 0.999937 -82.21 0.010480 -163.7
8.93390000 0.010502 179.21 0.999937 -82.22 0.999937 -82.22 0.010503 -163.7
8.93400000 0.010526 179.19 0.999936 -82.22 0.999936 -82.22 0.010527 -163.7
8.93410000 0.010549 179.16 0.999936 -82.22 0.999936 -82.22 0.010551 -163.7
8.93420000 0.010573 179.13 0.999936 -82.22 0.999936 -82.22 0.010574 -163.7
8.93430000 0.010597 179.11 0.999935 -82.23 0.999935 -82.23 0.010599 -163.6
8.93440000 0.010622 179.08 0.999935 -82.23 0.999935 -82.23 0.010623 -163.6
8.93450000 0.010646 179.06 0.999935 -82.23 0.999935 -82.23 0.010647 -163.6
8.93460000 0.010671 179.03 0.999935 -82.23 0.999935 -82.23 0.010672 -163.6
8.93470000 0.010696 179.00 0.999934 -82.23 0.999934 -82.23 0.010697 -163.6
8.93480000 0.010721 178.98 0.999934 -82.24 0.999934 -82.24 0.010722 -163.5
8.93490000 0.010746 178.95 0.999934 -82.24 0.999934 -82.24 0.010747 -163.5
8.93500000 0.010772 178.92 0.999933 -82.24 0.999933 -82.24 0.010773 -163.5
8.93510000 0.010797 178.90 0.999933 -82.24 0.999933 -82.24 0.010798 -163.5
8.93520000 0.010823 178.87 0.999933 -82.25 0.999933 -82.25 0.010824 -163.4
8.93530000 0.010849 178.84 0.999932 -82.25 0.999932 -82.25 0.010851 -163.4
8.93540000 0.010876 178.82 0.999932 -82.25 0.999932 -82.25 0.010877 -163.4
8.93550000 0.010902 178.79 0.999932 -82.25 0.999932 -82.25 0.010903 -163.4
8.93560000 0.010929 178.76 0.999931 -82.26 0.999931 -82.26 0.010930 -163.4
8.93570000 0.010956 178.73 0.999931 -82.26 0.999931 -82.26 0.010957 -163.3
8.93580000 0.010983 178.71 0.999931 -82.26 0.999931 -82.26 0.010985 -163.3
8.93590000 0.011011 178.68 0.999930 -82.26 0.999930 -82.26 0.011012 -163.3
8.93600000 0.011038 178.65 0.999930 -82.27 0.999930 -82.27 0.011040 -163.3
8.93610000 0.011066 178.62 0.999930 -82.27 0.999930 -82.27 0.011068 -163.2
8.93620000 0.011095 178.60 0.999929 -82.27 0.999929 -82.27 0.011096 -163.2
8.93630000 0.011123 178.57 0.999929 -82.27 0.999929 -82.27 0.011124 -163.2
8.93640000 0.011152 178.54 0.999928 -82.28 0.999928 -82.28 0.011153 -163.2
8.93650000 0.011181 178.51 0.999928 -82.28 0.999928 -82.28 0.011182 -163.2
8.93660000 0.011210 178.48 0.999928 -82.28 0.999928 -82.28 0.011211 -163.1
8.93670000 0.011239 178.45 0.999927 -82.28 0.999927 -82.28 0.011241 -163.1
8.93680000 0.011269 178.43 0.999927 -82.29 0.999927 -82.29 0.011270 -163.1
8.93690000 0.011299 178.40 0.999927 -82.29 0.999927 -82.29 0.011300 -163.1
8.93700000 0.011329 178.37 0.999926 -82.29 0.999926 -82.29 0.011330 -163.0
8.93710000 0.011360 178.34 0.999926 -82.30 0.999926 -82.30 0.011361 -163.0
8.93720000 0.011390 178.31 0.999925 -82.30 0.999925 -82.30 0.011392 -163.0
8.93730000 0.011421 178.28 0.999925 -82.30 0.999925 -82.30 0.011423 -163.0
8.93740000 0.011453 178.25 0.999925 -82.30 0.999925 -82.30 0.011454 -162.9
8.93750000 0.011484 178.22 0.999924 -82.31 0.999924 -82.31 0.011486 -162.9
8.93760000 0.011516 178.19 0.999924 -82.31 0.999924 -82.31 0.011518 -162.9
8.93770000 0.011548 178.16 0.999923 -82.31 0.999923 -82.31 0.011550 -162.9
8.93780000 0.011581 178.13 0.999923 -82.31 0.999923 -82.31 0.011582 -162.9
8.93790000 0.011614 178.10 0.999922 -82.32 0.999922 -82.32 0.011615 -162.8
8.93800000 0.011647 178.07 0.999922 -82.32 0.999922 -82.32 0.011648 -162.8
8.93810000 0.011680 178.05 0.999921 -82.32 0.999921 -82.32 0.011682 -162.8
8.93820000 0.011714 178.01 0.999921 -82.33 0.999921 -82.33 0.011715 -162.8
8.93830000 0.011748 177.98 0.999921 -82.33 0.999921 -82.33 0.011749 -162.7
8.93840000 0.011782 177.95 0.999920 -82.33 0.999920 -82.33 0.011784 -162.7
8.93850000 0.011817 177.92 0.999920 -82.33 0.999920 -82.33 0.011819 -162.7
8.93860000 0.011852 177.89 0.999919 -82.34 0.999919 -82.34 0.011854 -162.7
8.93870000 0.011887 177.86 0.999919 -82.34 0.999919 -82.34 0.011889 -162.6
8.93880000 0.011923 177.83 0.999918 -82.34 0.999918 -82.34 0.011925 -162.6
8.93890000 0.011959 177.80 0.999918 -82.35 0.999918 -82.35 0.011961 -162.6
8.93900000 0.011996 177.77 0.999917 -82.35 0.999917 -82.35 0.011997 -162.6
8.93910000 0.012032 177.74 0.999917 -82.35 0.999917 -82.35 0.012034 -162.5
8.93920000 0.012069 177.71 0.999916 -82.36 0.999916 -82.36 0.012071 -162.5