! Sonnet Data File
! From: emgraph Version : 16.52
! From Project: Resonator2_extremeCap
! Data is De-embedded 
! Data File Written: 10/11/2017 17:55:29
!< HDATE 10/10/2017 20:37:37
!< MDATE 10/10/2017 20:37:37
!< PARAMS
!< Pwid1 = 2000.0
!< Pwid2 = 2000.0
!< Air_gap = 12.0
!< Width = 20.0
!< Gap = 80.0
!< END PARAMS
# GHZ S MA R 50.70000
8.95000000 0.126436 0.7743 0.991969 -87.91 0.991969 -87.91 0.126434 3.4075
!< P1 F=8.95 Eeff=(6.44622481 -2.9718e-5) Z0=(50.9069921 1.17455e-4) R=0.0 C=0.0 
!< P2 F=8.95 Eeff=(6.44622481 -2.9718e-5) Z0=(50.9069921 1.17455e-4) R=0.0 C=0.0 
8.95020000 0.126454 0.7769 0.991967 -87.91 0.991967 -87.91 0.126451 3.3988
8.95040000 0.126471 0.7795 0.991965 -87.92 0.991965 -87.92 0.126468 3.3899
8.95060000 0.126488 0.7821 0.991963 -87.92 0.991963 -87.92 0.126486 3.3811
8.95080000 0.126505 0.7847 0.991960 -87.92 0.991960 -87.92 0.126503 3.3722
8.95100000 0.126523 0.7874 0.991958 -87.92 0.991958 -87.92 0.126520 3.3634
8.95120000 0.126540 0.7900 0.991956 -87.93 0.991956 -87.93 0.126538 3.3544
8.95140000 0.126558 0.7927 0.991954 -87.93 0.991954 -87.93 0.126555 3.3455
8.95160000 0.126575 0.7954 0.991952 -87.93 0.991952 -87.93 0.126573 3.3366
8.95180000 0.126593 0.7981 0.991949 -87.94 0.991949 -87.94 0.126590 3.3276
8.95200000 0.126610 0.8009 0.991947 -87.94 0.991947 -87.94 0.126608 3.3186
8.95220000 0.126628 0.8036 0.991945 -87.94 0.991945 -87.94 0.126626 3.3096
8.95240000 0.126646 0.8064 0.991942 -87.95 0.991942 -87.95 0.126643 3.3005
8.95260000 0.126664 0.8092 0.991940 -87.95 0.991940 -87.95 0.126661 3.2914
8.95280000 0.126681 0.8120 0.991938 -87.95 0.991938 -87.95 0.126679 3.2823
8.95300000 0.126699 0.8148 0.991936 -87.96 0.991936 -87.96 0.126697 3.2732
8.95320000 0.126717 0.8176 0.991933 -87.96 0.991933 -87.96 0.126715 3.2641
8.95340000 0.126735 0.8204 0.991931 -87.96 0.991931 -87.96 0.126733 3.2549
8.95360000 0.126753 0.8233 0.991929 -87.97 0.991929 -87.97 0.126751 3.2457
8.95380000 0.126771 0.8262 0.991926 -87.97 0.991926 -87.97 0.126769 3.2365
8.95400000 0.126789 0.8291 0.991924 -87.97 0.991924 -87.97 0.126787 3.2273
8.95420000 0.126808 0.8320 0.991922 -87.98 0.991922 -87.98 0.126805 3.2180
8.95440000 0.126826 0.8349 0.991919 -87.98 0.991919 -87.98 0.126823 3.2087
8.95460000 0.126844 0.8378 0.991917 -87.98 0.991917 -87.98 0.126841 3.1994
8.95480000 0.126862 0.8408 0.991915 -87.98 0.991915 -87.98 0.126860 3.1901
8.95500000 0.126881 0.8438 0.991912 -87.99 0.991912 -87.99 0.126878 3.1807
8.95520000 0.126899 0.8468 0.991910 -87.99 0.991910 -87.99 0.126896 3.1713
8.95540000 0.126918 0.8498 0.991908 -87.99 0.991908 -87.99 0.126915 3.1619
8.95560000 0.126936 0.8528 0.991905 -88.00 0.991905 -88.00 0.126934 3.1524
8.95580000 0.126955 0.8558 0.991903 -88.00 0.991903 -88.00 0.126952 3.1430
8.95600000 0.126974 0.8589 0.991900 -88.00 0.991900 -88.00 0.126971 3.1335
8.95620000 0.126992 0.8620 0.991898 -88.01 0.991898 -88.01 0.126989 3.1239
8.95640000 0.127011 0.8651 0.991896 -88.01 0.991896 -88.01 0.127008 3.1144
8.95660000 0.127030 0.8682 0.991893 -88.01 0.991893 -88.01 0.127027 3.1048
8.95680000 0.127049 0.8713 0.991891 -88.02 0.991891 -88.02 0.127046 3.0952
8.95700000 0.127068 0.8745 0.991888 -88.02 0.991888 -88.02 0.127065 3.0856
8.95720000 0.127087 0.8776 0.991886 -88.02 0.991886 -88.02 0.127084 3.0759
8.95740000 0.127106 0.8808 0.991883 -88.03 0.991883 -88.03 0.127103 3.0663
8.95760000 0.127125 0.8840 0.991881 -88.03 0.991881 -88.03 0.127122 3.0565
8.95780000 0.127144 0.8872 0.991879 -88.03 0.991879 -88.03 0.127141 3.0468
8.95800000 0.127163 0.8905 0.991876 -88.04 0.991876 -88.04 0.127160 3.0370
8.95820000 0.127183 0.8937 0.991874 -88.04 0.991874 -88.04 0.127180 3.0273
8.95840000 0.127202 0.8970 0.991871 -88.04 0.991871 -88.04 0.127199 3.0174
8.95860000 0.127221 0.9003 0.991869 -88.05 0.991869 -88.05 0.127218 3.0076
8.95880000 0.127241 0.9036 0.991866 -88.05 0.991866 -88.05 0.127238 2.9977
8.95900000 0.127260 0.9069 0.991864 -88.05 0.991864 -88.05 0.127257 2.9878
8.95920000 0.127280 0.9103 0.991861 -88.06 0.991861 -88.06 0.127277 2.9779
8.95940000 0.127300 0.9137 0.991859 -88.06 0.991859 -88.06 0.127297 2.9679
8.95960000 0.127319 0.9171 0.991856 -88.06 0.991856 -88.06 0.127316 2.9579
8.95980000 0.127339 0.9205 0.991853 -88.07 0.991853 -88.07 0.127336 2.9479
8.96000000 0.127359 0.9239 0.991851 -88.07 0.991851 -88.07 0.127356 2.9379
8.96020000 0.127379 0.9273 0.991848 -88.07 0.991848 -88.07 0.127376 2.9278
8.96040000 0.127399 0.9308 0.991846 -88.08 0.991846 -88.08 0.127396 2.9177
8.96060000 0.127419 0.9343 0.991843 -88.08 0.991843 -88.08 0.127416 2.9076
8.96080000 0.127439 0.9378 0.991841 -88.08 0.991841 -88.08 0.127436 2.8974
8.96100000 0.127459 0.9413 0.991838 -88.09 0.991838 -88.09 0.127456 2.8872
8.96120000 0.127479 0.9449 0.991835 -88.09 0.991835 -88.09 0.127476 2.8770
8.96140000 0.127500 0.9484 0.991833 -88.09 0.991833 -88.09 0.127496 2.8668
8.96160000 0.127520 0.9520 0.991830 -88.10 0.991830 -88.10 0.127517 2.8565
8.96180000 0.127540 0.9556 0.991828 -88.10 0.991828 -88.10 0.127537 2.8462
8.96200000 0.127561 0.9592 0.991825 -88.10 0.991825 -88.10 0.127558 2.8358
8.96220000 0.127581 0.9629 0.991822 -88.11 0.991822 -88.11 0.127578 2.8254
8.96240000 0.127602 0.9665 0.991820 -88.11 0.991820 -88.11 0.127599 2.8150
8.96260000 0.127623 0.9702 0.991817 -88.11 0.991817 -88.11 0.127619 2.8046
8.96280000 0.127643 0.9739 0.991814 -88.12 0.991814 -88.12 0.127640 2.7941
8.96300000 0.127664 0.9777 0.991812 -88.12 0.991812 -88.12 0.127661 2.7837
8.96320000 0.127685 0.9814 0.991809 -88.12 0.991809 -88.12 0.127682 2.7731
8.96340000 0.127706 0.9852 0.991806 -88.13 0.991806 -88.13 0.127703 2.7626
8.96360000 0.127727 0.9890 0.991803 -88.13 0.991803 -88.13 0.127724 2.7520
8.96380000 0.127748 0.9928 0.991801 -88.13 0.991801 -88.13 0.127745 2.7414
8.96400000 0.127769 0.9966 0.991798 -88.14 0.991798 -88.14 0.127766 2.7307
8.96420000 0.127790 1.0005 0.991795 -88.14 0.991795 -88.14 0.127787 2.7200
8.96440000 0.127812 1.0043 0.991792 -88.14 0.991792 -88.14 0.127808 2.7093
8.96460000 0.127833 1.0082 0.991790 -88.15 0.991790 -88.15 0.127830 2.6985
8.96480000 0.127854 1.0121 0.991787 -88.15 0.991787 -88.15 0.127851 2.6878
8.96500000 0.127876 1.0161 0.991784 -88.15 0.991784 -88.15 0.127873 2.6769
8.96520000 0.127898 1.0200 0.991781 -88.16 0.991781 -88.16 0.127894 2.6661
8.96540000 0.127919 1.0240 0.991779 -88.16 0.991779 -88.16 0.127916 2.6552
8.96560000 0.127941 1.0280 0.991776 -88.16 0.991776 -88.16 0.127937 2.6443
8.96580000 0.127963 1.0321 0.991773 -88.17 0.991773 -88.17 0.127959 2.6333
8.96600000 0.127985 1.0361 0.991770 -88.17 0.991770 -88.17 0.127981 2.6223
8.96620000 0.128006 1.0402 0.991767 -88.17 0.991767 -88.17 0.128003 2.6113
8.96640000 0.128029 1.0443 0.991764 -88.18 0.991764 -88.18 0.128025 2.6003
8.96660000 0.128051 1.0484 0.991762 -88.18 0.991762 -88.18 0.128047 2.5892
8.96680000 0.128073 1.0525 0.991759 -88.18 0.991759 -88.18 0.128069 2.5781
8.96700000 0.128095 1.0567 0.991756 -88.19 0.991756 -88.19 0.128092 2.5669
8.96720000 0.128117 1.0609 0.991753 -88.19 0.991753 -88.19 0.128114 2.5557
8.96740000 0.128140 1.0651 0.991750 -88.20 0.991750 -88.20 0.128136 2.5445
8.96760000 0.128162 1.0693 0.991747 -88.20 0.991747 -88.20 0.128159 2.5332
8.96780000 0.128185 1.0736 0.991744 -88.20 0.991744 -88.20 0.128181 2.5219
8.96800000 0.128207 1.0779 0.991741 -88.21 0.991741 -88.21 0.128204 2.5106
8.96820000 0.128230 1.0822 0.991738 -88.21 0.991738 -88.21 0.128227 2.4992
8.96840000 0.128253 1.0865 0.991735 -88.21 0.991735 -88.21 0.128249 2.4878
8.96860000 0.128276 1.0909 0.991732 -88.22 0.991732 -88.22 0.128272 2.4763
8.96880000 0.128299 1.0953 0.991729 -88.22 0.991729 -88.22 0.128295 2.4649
8.96900000 0.128322 1.0997 0.991726 -88.22 0.991726 -88.22 0.128318 2.4533
8.96920000 0.128345 1.1041 0.991723 -88.23 0.991723 -88.23 0.128341 2.4418
8.96940000 0.128368 1.1085 0.991720 -88.23 0.991720 -88.23 0.128364 2.4302
8.96960000 0.128391 1.1130 0.991717 -88.23 0.991717 -88.23 0.128388 2.4186
8.96980000 0.128415 1.1175 0.991714 -88.24 0.991714 -88.24 0.128411 2.4069
8.97000000 0.128438 1.1220 0.991711 -88.24 0.991711 -88.24 0.128434 2.3952
8.97020000 0.128462 1.1266 0.991708 -88.24 0.991708 -88.24 0.128458 2.3834
8.97040000 0.128485 1.1312 0.991705 -88.25 0.991705 -88.25 0.128482 2.3716
8.97060000 0.128509 1.1358 0.991702 -88.25 0.991702 -88.25 0.128505 2.3598
8.97080000 0.128533 1.1404 0.991699 -88.26 0.991699 -88.26 0.128529 2.3480
8.97100000 0.128557 1.1451 0.991696 -88.26 0.991696 -88.26 0.128553 2.3361
8.97120000 0.128581 1.1497 0.991693 -88.26 0.991693 -88.26 0.128577 2.3241
8.97140000 0.128605 1.1545 0.991690 -88.27 0.991690 -88.27 0.128601 2.3121
8.97160000 0.128629 1.1592 0.991686 -88.27 0.991686 -88.27 0.128625 2.3001
8.97180000 0.128653 1.1640 0.991683 -88.27 0.991683 -88.27 0.128649 2.2881
8.97200000 0.128677 1.1687 0.991680 -88.28 0.991680 -88.28 0.128673 2.2760
8.97220000 0.128702 1.1736 0.991677 -88.28 0.991677 -88.28 0.128698 2.2638
8.97240000 0.128726 1.1784 0.991674 -88.28 0.991674 -88.28 0.128722 2.2516
8.97260000 0.128751 1.1833 0.991671 -88.29 0.991671 -88.29 0.128747 2.2394
8.97280000 0.128775 1.1882 0.991667 -88.29 0.991667 -88.29 0.128771 2.2271
8.97300000 0.128800 1.1931 0.991664 -88.30 0.991664 -88.30 0.128796 2.2148
8.97320000 0.128825 1.1980 0.991661 -88.30 0.991661 -88.30 0.128821 2.2025
8.97340000 0.128850 1.2030 0.991658 -88.30 0.991658 -88.30 0.128846 2.1901
8.97360000 0.128875 1.2080 0.991654 -88.31 0.991654 -88.31 0.128871 2.1777
8.97380000 0.128900 1.2130 0.991651 -88.31 0.991651 -88.31 0.128896 2.1652
8.97400000 0.128925 1.2181 0.991648 -88.31 0.991648 -88.31 0.128921 2.1527
8.97420000 0.128951 1.2232 0.991644 -88.32 0.991644 -88.32 0.128947 2.1401
8.97440000 0.128976 1.2283 0.991641 -88.32 0.991641 -88.32 0.128972 2.1275
8.97460000 0.129002 1.2335 0.991638 -88.33 0.991638 -88.33 0.128998 2.1148
8.97480000 0.129027 1.2386 0.991634 -88.33 0.991634 -88.33 0.129023 2.1022
8.97500000 0.129053 1.2438 0.991631 -88.33 0.991631 -88.33 0.129049 2.0894
8.97520000 0.129079 1.2491 0.991628 -88.34 0.991628 -88.34 0.129075 2.0766
8.97540000 0.129105 1.2543 0.991624 -88.34 0.991624 -88.34 0.129101 2.0638
!< P1 F=8.9754 Eeff=(6.44621218 -2.9718e-5) Z0=(50.9069165 1.17456e-4) R=0.0 C=0.0 
!< P2 F=8.9754 Eeff=(6.44621218 -2.9718e-5) Z0=(50.9069165 1.17456e-4) R=0.0 C=0.0 
8.97560000 0.129131 1.2596 0.991621 -88.34 0.991621 -88.34 0.129127 2.0509
8.97580000 0.129157 1.2649 0.991618 -88.35 0.991618 -88.35 0.129153 2.0380
8.97600000 0.129183 1.2703 0.991614 -88.35 0.991614 -88.35 0.129179 2.0251
8.97620000 0.129210 1.2757 0.991611 -88.36 0.991611 -88.36 0.129205 2.0120
8.97640000 0.129236 1.2811 0.991607 -88.36 0.991607 -88.36 0.129232 1.9990
8.97660000 0.129263 1.2865 0.991604 -88.36 0.991604 -88.36 0.129258 1.9859
8.97680000 0.129289 1.2920 0.991600 -88.37 0.991600 -88.37 0.129285 1.9727
8.97700000 0.129316 1.2975 0.991597 -88.37 0.991597 -88.37 0.129312 1.9595
8.97720000 0.129343 1.3030 0.991593 -88.38 0.991593 -88.38 0.129338 1.9463
8.97740000 0.129370 1.3086 0.991590 -88.38 0.991590 -88.38 0.129365 1.9330
8.97760000 0.129397 1.3142 0.991586 -88.38 0.991586 -88.38 0.129392 1.9197
8.97780000 0.129424 1.3198 0.991583 -88.39 0.991583 -88.39 0.129420 1.9063
8.97800000 0.129451 1.3255 0.991579 -88.39 0.991579 -88.39 0.129447 1.8929
8.97820000 0.129479 1.3312 0.991575 -88.39 0.991575 -88.39 0.129474 1.8794
8.97840000 0.129506 1.3369 0.991572 -88.40 0.991572 -88.40 0.129502 1.8658
8.97860000 0.129534 1.3427 0.991568 -88.40 0.991568 -88.40 0.129529 1.8523
8.97880000 0.129562 1.3485 0.991565 -88.41 0.991565 -88.41 0.129557 1.8386
8.97900000 0.129589 1.3543 0.991561 -88.41 0.991561 -88.41 0.129585 1.8249
8.97920000 0.129617 1.3602 0.991557 -88.41 0.991557 -88.41 0.129613 1.8112
8.97940000 0.129645 1.3660 0.991554 -88.42 0.991554 -88.42 0.129641 1.7974
8.97960000 0.129674 1.3720 0.991550 -88.42 0.991550 -88.42 0.129669 1.7836
8.97980000 0.129702 1.3779 0.991546 -88.43 0.991546 -88.43 0.129697 1.7697
8.98000000 0.129730 1.3839 0.991542 -88.43 0.991542 -88.43 0.129726 1.7558
8.98020000 0.129759 1.3899 0.991539 -88.43 0.991539 -88.43 0.129754 1.7418
8.98040000 0.129788 1.3960 0.991535 -88.44 0.991535 -88.44 0.129783 1.7277
8.98060000 0.129816 1.4021 0.991531 -88.44 0.991531 -88.44 0.129812 1.7136
8.98080000 0.129845 1.4082 0.991527 -88.45 0.991527 -88.45 0.129840 1.6995
8.98100000 0.129874 1.4144 0.991523 -88.45 0.991523 -88.45 0.129869 1.6853
8.98120000 0.129903 1.4206 0.991520 -88.45 0.991520 -88.45 0.129899 1.6710
8.98140000 0.129933 1.4268 0.991516 -88.46 0.991516 -88.46 0.129928 1.6567
8.98160000 0.129962 1.4331 0.991512 -88.46 0.991512 -88.46 0.129957 1.6424
8.98180000 0.129992 1.4394 0.991508 -88.47 0.991508 -88.47 0.129987 1.6279
8.98200000 0.130021 1.4457 0.991504 -88.47 0.991504 -88.47 0.130016 1.6135
8.98220000 0.130051 1.4521 0.991500 -88.47 0.991500 -88.47 0.130046 1.5989
8.98240000 0.130081 1.4585 0.991496 -88.48 0.991496 -88.48 0.130076 1.5844
8.98260000 0.130111 1.4649 0.991492 -88.48 0.991492 -88.48 0.130106 1.5697
8.98280000 0.130141 1.4714 0.991488 -88.49 0.991488 -88.49 0.130136 1.5550
8.98300000 0.130171 1.4780 0.991484 -88.49 0.991484 -88.49 0.130166 1.5403
8.98320000 0.130202 1.4845 0.991480 -88.49 0.991480 -88.49 0.130197 1.5254
8.98340000 0.130232 1.4911 0.991476 -88.50 0.991476 -88.50 0.130227 1.5106
8.98360000 0.130263 1.4977 0.991472 -88.50 0.991472 -88.50 0.130258 1.4956
8.98380000 0.130294 1.5044 0.991468 -88.51 0.991468 -88.51 0.130289 1.4807
8.98400000 0.130325 1.5111 0.991464 -88.51 0.991464 -88.51 0.130320 1.4656
8.98420000 0.130356 1.5179 0.991460 -88.52 0.991460 -88.52 0.130351 1.4505
8.98440000 0.130387 1.5247 0.991456 -88.52 0.991456 -88.52 0.130382 1.4353
8.98460000 0.130418 1.5315 0.991452 -88.52 0.991452 -88.52 0.130413 1.4201
8.98480000 0.130450 1.5384 0.991448 -88.53 0.991448 -88.53 0.130445 1.4048
8.98500000 0.130482 1.5453 0.991443 -88.53 0.991443 -88.53 0.130476 1.3895
8.98520000 0.130513 1.5522 0.991439 -88.54 0.991439 -88.54 0.130508 1.3741
8.98540000 0.130545 1.5592 0.991435 -88.54 0.991435 -88.54 0.130540 1.3586
8.98560000 0.130577 1.5662 0.991431 -88.54 0.991431 -88.54 0.130572 1.3430
8.98580000 0.130610 1.5733 0.991426 -88.55 0.991426 -88.55 0.130604 1.3275
8.98600000 0.130642 1.5804 0.991422 -88.55 0.991422 -88.55 0.130637 1.3118
8.98620000 0.130675 1.5876 0.991418 -88.56 0.991418 -88.56 0.130669 1.2961
8.98640000 0.130707 1.5948 0.991414 -88.56 0.991414 -88.56 0.130702 1.2803
8.98660000 0.130740 1.6020 0.991409 -88.57 0.991409 -88.57 0.130735 1.2644
8.98680000 0.130773 1.6093 0.991405 -88.57 0.991405 -88.57 0.130767 1.2485
8.98700000 0.130806 1.6166 0.991400 -88.57 0.991400 -88.57 0.130801 1.2325
8.98720000 0.130839 1.6239 0.991396 -88.58 0.991396 -88.58 0.130834 1.2165
8.98740000 0.130873 1.6313 0.991392 -88.58 0.991392 -88.58 0.130867 1.2004
8.98760000 0.130906 1.6388 0.991387 -88.59 0.991387 -88.59 0.130901 1.1842
8.98780000 0.130940 1.6463 0.991383 -88.59 0.991383 -88.59 0.130934 1.1679
8.98800000 0.130974 1.6538 0.991378 -88.60 0.991378 -88.60 0.130968 1.1516
8.98820000 0.131008 1.6614 0.991374 -88.60 0.991374 -88.60 0.131002 1.1352
8.98840000 0.131042 1.6690 0.991369 -88.61 0.991369 -88.61 0.131037 1.1188
8.98860000 0.131077 1.6767 0.991365 -88.61 0.991365 -88.61 0.131071 1.1022
8.98880000 0.131111 1.6844 0.991360 -88.61 0.991360 -88.61 0.131105 1.0856
8.98900000 0.131146 1.6921 0.991355 -88.62 0.991355 -88.62 0.131140 1.0690
8.98920000 0.131181 1.6999 0.991351 -88.62 0.991351 -88.62 0.131175 1.0522
8.98940000 0.131216 1.7078 0.991346 -88.63 0.991346 -88.63 0.131210 1.0354
8.98960000 0.131251 1.7157 0.991341 -88.63 0.991341 -88.63 0.131245 1.0186
8.98980000 0.131286 1.7236 0.991337 -88.64 0.991337 -88.64 0.131281 1.0016
8.99000000 0.131322 1.7316 0.991332 -88.64 0.991332 -88.64 0.131316 0.9846
8.99020000 0.131358 1.7397 0.991327 -88.65 0.991327 -88.65 0.131352 0.9675
8.99040000 0.131394 1.7477 0.991322 -88.65 0.991322 -88.65 0.131388 0.9503
8.99060000 0.131430 1.7559 0.991318 -88.65 0.991318 -88.65 0.131424 0.9331
8.99080000 0.131466 1.7640 0.991313 -88.66 0.991313 -88.66 0.131460 0.9157
8.99100000 0.131502 1.7723 0.991308 -88.66 0.991308 -88.66 0.131496 0.8983
8.99120000 0.131539 1.7805 0.991303 -88.67 0.991303 -88.67 0.131533 0.8809
8.99140000 0.131576 1.7889 0.991298 -88.67 0.991298 -88.67 0.131570 0.8633
8.99160000 0.131613 1.7972 0.991293 -88.68 0.991293 -88.68 0.131607 0.8457
8.99180000 0.131650 1.8057 0.991288 -88.68 0.991288 -88.68 0.131644 0.8280
8.99200000 0.131687 1.8141 0.991283 -88.69 0.991283 -88.69 0.131681 0.8102
8.99220000 0.131725 1.8227 0.991278 -88.69 0.991278 -88.69 0.131719 0.7923
8.99240000 0.131763 1.8312 0.991273 -88.70 0.991273 -88.70 0.131756 0.7744
8.99260000 0.131801 1.8399 0.991268 -88.70 0.991268 -88.70 0.131794 0.7564
8.99280000 0.131839 1.8485 0.991263 -88.71 0.991263 -88.71 0.131832 0.7383
8.99300000 0.131877 1.8573 0.991258 -88.71 0.991258 -88.71 0.131870 0.7201
8.99320000 0.131915 1.8661 0.991253 -88.72 0.991253 -88.72 0.131909 0.7018
8.99340000 0.131954 1.8749 0.991248 -88.72 0.991248 -88.72 0.131948 0.6835
8.99360000 0.131993 1.8838 0.991242 -88.72 0.991242 -88.72 0.131986 0.6651
8.99380000 0.132032 1.8927 0.991237 -88.73 0.991237 -88.73 0.132025 0.6465
8.99400000 0.132071 1.9017 0.991232 -88.73 0.991232 -88.73 0.132065 0.6279
8.99420000 0.132111 1.9108 0.991227 -88.74 0.991227 -88.74 0.132104 0.6093
8.99440000 0.132151 1.9199 0.991221 -88.74 0.991221 -88.74 0.132144 0.5905
8.99460000 0.132191 1.9290 0.991216 -88.75 0.991216 -88.75 0.132184 0.5716
8.99480000 0.132231 1.9383 0.991211 -88.75 0.991211 -88.75 0.132224 0.5527
8.99500000 0.132271 1.9475 0.991205 -88.76 0.991205 -88.76 0.132264 0.5336
8.99520000 0.132312 1.9569 0.991200 -88.76 0.991200 -88.76 0.132305 0.5145
8.99540000 0.132352 1.9662 0.991194 -88.77 0.991194 -88.77 0.132345 0.4953
8.99560000 0.132393 1.9757 0.991189 -88.77 0.991189 -88.77 0.132386 0.4760
8.99580000 0.132434 1.9852 0.991183 -88.78 0.991183 -88.78 0.132427 0.4566
8.99600000 0.132476 1.9948 0.991178 -88.78 0.991178 -88.78 0.132469 0.4371
8.99620000 0.132518 2.0044 0.991172 -88.79 0.991172 -88.79 0.132510 0.4176
8.99640000 0.132559 2.0140 0.991166 -88.79 0.991166 -88.79 0.132552 0.3979
8.99660000 0.132602 2.0238 0.991161 -88.80 0.991161 -88.80 0.132594 0.3781
8.99680000 0.132644 2.0336 0.991155 -88.80 0.991155 -88.80 0.132637 0.3583
8.99700000 0.132686 2.0434 0.991149 -88.81 0.991149 -88.81 0.132679 0.3383
8.99720000 0.132729 2.0533 0.991144 -88.81 0.991144 -88.81 0.132722 0.3183
8.99740000 0.132772 2.0633 0.991138 -88.82 0.991138 -88.82 0.132765 0.2982
8.99760000 0.132815 2.0734 0.991132 -88.82 0.991132 -88.82 0.132808 0.2779
8.99780000 0.132859 2.0835 0.991126 -88.83 0.991126 -88.83 0.132852 0.2576
8.99800000 0.132903 2.0936 0.991120 -88.83 0.991120 -88.83 0.132895 0.2371
8.99820000 0.132947 2.1038 0.991114 -88.84 0.991114 -88.84 0.132939 0.2166
8.99840000 0.132991 2.1141 0.991108 -88.84 0.991108 -88.84 0.132983 0.1960
8.99860000 0.133035 2.1245 0.991102 -88.85 0.991102 -88.85 0.133028 0.1752
8.99880000 0.133080 2.1349 0.991096 -88.85 0.991096 -88.85 0.133073 0.1544
8.99900000 0.133125 2.1454 0.991090 -88.86 0.991090 -88.86 0.133117 0.1335
8.99920000 0.133170 2.1559 0.991084 -88.86 0.991084 -88.86 0.133163 0.1124
8.99940000 0.133216 2.1666 0.991078 -88.87 0.991078 -88.87 0.133208 0.0913
8.99960000 0.133262 2.1772 0.991072 -88.88 0.991072 -88.88 0.133254 0.0700
8.99980000 0.133308 2.1880 0.991066 -88.88 0.991066 -88.88 0.133300 0.0486
9.00000000 0.133354 2.1988 0.991059 -88.89 0.991059 -88.89 0.133346 0.0272
9.00020000 0.133400 2.2097 0.991053 -88.89 0.991053 -88.89 0.133393 0.0056
9.00040000 0.133447 2.2206 0.991047 -88.90 0.991047 -88.90 0.133439 -0.016
9.00060000 0.133494 2.2317 0.991040 -88.90 0.991040 -88.90 0.133486 -0.038
9.00080000 0.133542 2.2427 0.991034 -88.91 0.991034 -88.91 0.133534 -0.060
9.00100000 0.133589 2.2539 0.991027 -88.91 0.991027 -88.91 0.133581 -0.082
9.00120000 0.133637 2.2651 0.991021 -88.92 0.991021 -88.92 0.133629 -0.104
9.00140000 0.133686 2.2764 0.991014 -88.92 0.991014 -88.92 0.133677 -0.126
9.00160000 0.133734 2.2878 0.991008 -88.93 0.991008 -88.93 0.133726 -0.149
9.00180000 0.133783 2.2993 0.991001 -88.93 0.991001 -88.93 0.133774 -0.171
9.00200000 0.133832 2.3108 0.990994 -88.94 0.990994 -88.94 0.133823 -0.194
9.00220000 0.133881 2.3224 0.990988 -88.95 0.990988 -88.95 0.133873 -0.216
9.00240000 0.133931 2.3341 0.990981 -88.95 0.990981 -88.95 0.133922 -0.239
9.00260000 0.133981 2.3458 0.990974 -88.96 0.990974 -88.96 0.133972 -0.262
9.00280000 0.134031 2.3576 0.990967 -88.96 0.990967 -88.96 0.134023 -0.285
9.00300000 0.134082 2.3695 0.990961 -88.97 0.990961 -88.97 0.134073 -0.308
9.00320000 0.134133 2.3815 0.990954 -88.97 0.990954 -88.97 0.134124 -0.332
9.00340000 0.134184 2.3935 0.990947 -88.98 0.990947 -88.98 0.134175 -0.355
9.00360000 0.134235 2.4057 0.990940 -88.99 0.990940 -88.99 0.134226 -0.379
9.00380000 0.134287 2.4179 0.990933 -88.99 0.990933 -88.99 0.134278 -0.402
9.00400000 0.134339 2.4301 0.990925 -89.00 0.990925 -89.00 0.134330 -0.426
9.00420000 0.134392 2.4425 0.990918 -89.00 0.990918 -89.00 0.134383 -0.450
9.00440000 0.134444 2.4550 0.990911 -89.01 0.990911 -89.01 0.134435 -0.474
9.00460000 0.134498 2.4675 0.990904 -89.01 0.990904 -89.01 0.134489 -0.498
9.00480000 0.134551 2.4801 0.990897 -89.02 0.990897 -89.02 0.134542 -0.523
9.00500000 0.134605 2.4928 0.990889 -89.03 0.990889 -89.03 0.134596 -0.547
9.00520000 0.134659 2.5056 0.990882 -89.03 0.990882 -89.03 0.134650 -0.572
9.00540000 0.134713 2.5184 0.990874 -89.04 0.990874 -89.04 0.134704 -0.596
9.00560000 0.134768 2.5314 0.990867 -89.04 0.990867 -89.04 0.134759 -0.621
9.00580000 0.134823 2.5444 0.990859 -89.05 0.990859 -89.05 0.134814 -0.646
9.00600000 0.134879 2.5575 0.990852 -89.06 0.990852 -89.06 0.134869 -0.672
9.00620000 0.134935 2.5707 0.990844 -89.06 0.990844 -89.06 0.134925 -0.697
9.00640000 0.134991 2.5840 0.990836 -89.07 0.990836 -89.07 0.134982 -0.722
9.00660000 0.135048 2.5974 0.990829 -89.07 0.990829 -89.07 0.135038 -0.748
9.00680000 0.135105 2.6108 0.990821 -89.08 0.990821 -89.08 0.135095 -0.774
9.00700000 0.135162 2.6244 0.990813 -89.09 0.990813 -89.09 0.135152 -0.799
9.00720000 0.135220 2.6380 0.990805 -89.09 0.990805 -89.09 0.135210 -0.825
9.00740000 0.135278 2.6518 0.990797 -89.10 0.990797 -89.10 0.135268 -0.852
9.00760000 0.135337 2.6656 0.990789 -89.10 0.990789 -89.10 0.135326 -0.878
9.00780000 0.135395 2.6795 0.990781 -89.11 0.990781 -89.11 0.135385 -0.904
9.00800000 0.135455 2.6935 0.990773 -89.12 0.990773 -89.12 0.135445 -0.931
9.00820000 0.135514 2.7076 0.990764 -89.12 0.990764 -89.12 0.135504 -0.958
9.00840000 0.135574 2.7218 0.990756 -89.13 0.990756 -89.13 0.135564 -0.985
9.00860000 0.135635 2.7361 0.990748 -89.14 0.990748 -89.14 0.135625 -1.012
9.00880000 0.135696 2.7505 0.990739 -89.14 0.990739 -89.14 0.135685 -1.039
9.00900000 0.135757 2.7650 0.990731 -89.15 0.990731 -89.15 0.135747 -1.066
9.00920000 0.135819 2.7796 0.990723 -89.16 0.990723 -89.16 0.135808 -1.094
9.00940000 0.135881 2.7943 0.990714 -89.16 0.990714 -89.16 0.135871 -1.121
9.00960000 0.135944 2.8091 0.990705 -89.17 0.990705 -89.17 0.135933 -1.149
9.00980000 0.136007 2.8240 0.990697 -89.17 0.990697 -89.17 0.135996 -1.177
9.01000000 0.136070 2.8390 0.990688 -89.18 0.990688 -89.18 0.136059 -1.206
9.01020000 0.136134 2.8541 0.990679 -89.19 0.990679 -89.19 0.136123 -1.234
9.01040000 0.136199 2.8693 0.990670 -89.19 0.990670 -89.19 0.136188 -1.262
9.01060000 0.136263 2.8846 0.990661 -89.20 0.990661 -89.20 0.136252 -1.291
9.01080000 0.136329 2.9000 0.990652 -89.21 0.990652 -89.21 0.136318 -1.320
9.01100000 0.136394 2.9156 0.990643 -89.21 0.990643 -89.21 0.136383 -1.349
9.01120000 0.136461 2.9312 0.990634 -89.22 0.990634 -89.22 0.136449 -1.378
9.01140000 0.136527 2.9469 0.990625 -89.23 0.990625 -89.23 0.136516 -1.408
9.01160000 0.136595 2.9628 0.990615 -89.24 0.990615 -89.24 0.136583 -1.437
9.01180000 0.136662 2.9787 0.990606 -89.24 0.990606 -89.24 0.136651 -1.467
9.01200000 0.136730 2.9948 0.990596 -89.25 0.990596 -89.25 0.136719 -1.497
9.01220000 0.136799 3.0110 0.990587 -89.26 0.990587 -89.26 0.136787 -1.527
9.01240000 0.136868 3.0273 0.990577 -89.26 0.990577 -89.26 0.136856 -1.558
9.01260000 0.136938 3.0437 0.990568 -89.27 0.990568 -89.27 0.136926 -1.588
9.01280000 0.137008 3.0602 0.990558 -89.28 0.990558 -89.28 0.136996 -1.619
9.01300000 0.137079 3.0769 0.990548 -89.28 0.990548 -89.28 0.137067 -1.650
9.01320000 0.137150 3.0936 0.990538 -89.29 0.990538 -89.29 0.137138 -1.681
9.01340000 0.137222 3.1105 0.990528 -89.30 0.990528 -89.30 0.137209 -1.712
9.01360000 0.137294 3.1275 0.990518 -89.31 0.990518 -89.31 0.137282 -1.744
9.01380000 0.137367 3.1446 0.990508 -89.31 0.990508 -89.31 0.137354 -1.775
9.01400000 0.137440 3.1619 0.990497 -89.32 0.990497 -89.32 0.137428 -1.807
9.01420000 0.137514 3.1793 0.990487 -89.33 0.990487 -89.33 0.137502 -1.839
9.01440000 0.137589 3.1968 0.990477 -89.34 0.990477 -89.34 0.137576 -1.872
9.01460000 0.137664 3.2144 0.990466 -89.34 0.990466 -89.34 0.137651 -1.904
9.01480000 0.137739 3.2321 0.990456 -89.35 0.990456 -89.35 0.137726 -1.937
9.01500000 0.137816 3.2500 0.990445 -89.36 0.990445 -89.36 0.137803 -1.970
9.01520000 0.137892 3.2680 0.990434 -89.37 0.990434 -89.37 0.137879 -2.003
9.01540000 0.137970 3.2861 0.990423 -89.37 0.990423 -89.37 0.137957 -2.037
9.01560000 0.138048 3.3044 0.990412 -89.38 0.990412 -89.38 0.138035 -2.070
9.01580000 0.138127 3.3228 0.990401 -89.39 0.990401 -89.39 0.138113 -2.104
9.01600000 0.138206 3.3414 0.990390 -89.40 0.990390 -89.40 0.138192 -2.138
9.01620000 0.138286 3.3600 0.990379 -89.40 0.990379 -89.40 0.138272 -2.172
9.01640000 0.138366 3.3788 0.990368 -89.41 0.990368 -89.41 0.138353 -2.207
9.01660000 0.138448 3.3978 0.990356 -89.42 0.990356 -89.42 0.138434 -2.242
9.01680000 0.138529 3.4169 0.990345 -89.43 0.990345 -89.43 0.138516 -2.277
9.01700000 0.138612 3.4361 0.990333 -89.44 0.990333 -89.44 0.138598 -2.312
9.01720000 0.138695 3.4555 0.990321 -89.44 0.990321 -89.44 0.138681 -2.347
9.01740000 0.138779 3.4750 0.990310 -89.45 0.990310 -89.45 0.138765 -2.383
9.01760000 0.138864 3.4947 0.990298 -89.46 0.990298 -89.46 0.138849 -2.419
9.01780000 0.138949 3.5145 0.990286 -89.47 0.990286 -89.47 0.138934 -2.455
9.01800000 0.139035 3.5345 0.990273 -89.48 0.990273 -89.48 0.139020 -2.492
9.01820000 0.139121 3.5546 0.990261 -89.48 0.990261 -89.48 0.139107 -2.528
9.01840000 0.139209 3.5748 0.990249 -89.49 0.990249 -89.49 0.139194 -2.565
9.01860000 0.139297 3.5952 0.990236 -89.50 0.990236 -89.50 0.139282 -2.602
9.01880000 0.139386 3.6158 0.990224 -89.51 0.990224 -89.51 0.139371 -2.640
9.01900000 0.139476 3.6365 0.990211 -89.52 0.990211 -89.52 0.139460 -2.678
9.01920000 0.139566 3.6574 0.990198 -89.53 0.990198 -89.53 0.139551 -2.716
9.01940000 0.139657 3.6785 0.990185 -89.53 0.990185 -89.53 0.139642 -2.754
9.01960000 0.139749 3.6997 0.990172 -89.54 0.990172 -89.54 0.139734 -2.793
9.01980000 0.139842 3.7210 0.990159 -89.55 0.990159 -89.55 0.139826 -2.831
9.02000000 0.139935 3.7426 0.990146 -89.56 0.990146 -89.56 0.139920 -2.870
9.02020000 0.140030 3.7643 0.990132 -89.57 0.990132 -89.57 0.140014 -2.910
9.02040000 0.140125 3.7861 0.990119 -89.58 0.990119 -89.58 0.140109 -2.950
9.02060000 0.140221 3.8082 0.990105 -89.59 0.990105 -89.59 0.140205 -2.990
9.02080000 0.140318 3.8304 0.990091 -89.60 0.990091 -89.60 0.140302 -3.030
9.02100000 0.140416 3.8528 0.990077 -89.61 0.990077 -89.61 0.140399 -3.070
9.02120000 0.140514 3.8753 0.990063 -89.61 0.990063 -89.61 0.140498 -3.111
9.02140000 0.140614 3.8980 0.990049 -89.62 0.990049 -89.62 0.140597 -3.152
9.02160000 0.140714 3.9210 0.990034 -89.63 0.990034 -89.63 0.140697 -3.194
9.02180000 0.140815 3.9440 0.990020 -89.64 0.990020 -89.64 0.140799 -3.236
9.02200000 0.140918 3.9673 0.990005 -89.65 0.990005 -89.65 0.140901 -3.278
9.02220000 0.141021 3.9908 0.989990 -89.66 0.989990 -89.66 0.141004 -3.320
9.02240000 0.141125 4.0144 0.989975 -89.67 0.989975 -89.67 0.141108 -3.363
9.02260000 0.141230 4.0382 0.989960 -89.68 0.989960 -89.68 0.141213 -3.406
9.02280000 0.141336 4.0623 0.989945 -89.69 0.989945 -89.69 0.141319 -3.449
9.02300000 0.141443 4.0865 0.989930 -89.70 0.989930 -89.70 0.141425 -3.493
9.02320000 0.141551 4.1109 0.989914 -89.71 0.989914 -89.71 0.141533 -3.537
9.02340000 0.141660 4.1355 0.989898 -89.72 0.989898 -89.72 0.141642 -3.582
9.02360000 0.141771 4.1603 0.989883 -89.73 0.989883 -89.73 0.141752 -3.626
9.02380000 0.141882 4.1853 0.989866 -89.74 0.989866 -89.74 0.141863 -3.672
9.02400000 0.141994 4.2105 0.989850 -89.75 0.989850 -89.75 0.141975 -3.717
9.02420000 0.142107 4.2359 0.989834 -89.76 0.989834 -89.76 0.142088 -3.763
9.02440000 0.142222 4.2615 0.989817 -89.77 0.989817 -89.77 0.142203 -3.809
9.02460000 0.142337 4.2874 0.989801 -89.78 0.989801 -89.78 0.142318 -3.856
9.02480000 0.142454 4.3134 0.989784 -89.79 0.989784 -89.79 0.142435 -3.903
9.02500000 0.142572 4.3397 0.989767 -89.80 0.989767 -89.80 0.142552 -3.950
9.02520000 0.142691 4.3661 0.989749 -89.81 0.989749 -89.81 0.142671 -3.998
9.02540000 0.142811 4.3928 0.989732 -89.82 0.989732 -89.82 0.142791 -4.046
9.02560000 0.142932 4.4197 0.989714 -89.83 0.989714 -89.83 0.142912 -4.094
9.02580000 0.143055 4.4469 0.989696 -89.84 0.989696 -89.84 0.143035 -4.143
9.02600000 0.143179 4.4742 0.989678 -89.85 0.989678 -89.85 0.143158 -4.192
9.02620000 0.143304 4.5018 0.989660 -89.87 0.989660 -89.87 0.143283 -4.242
9.02640000 0.143430 4.5296 0.989642 -89.88 0.989642 -89.88 0.143409 -4.292
9.02660000 0.143558 4.5577 0.989623 -89.89 0.989623 -89.89 0.143537 -4.343
9.02680000 0.143687 4.5860 0.989604 -89.90 0.989604 -89.90 0.143666 -4.393
9.02700000 0.143817 4.6145 0.989585 -89.91 0.989585 -89.91 0.143796 -4.445
9.02720000 0.143949 4.6433 0.989566 -89.92 0.989566 -89.92 0.143927 -4.497
9.02740000 0.144082 4.6723 0.989546 -89.93 0.989546 -89.93 0.144060 -4.549
9.02760000 0.144216 4.7016 0.989526 -89.95 0.989526 -89.95 0.144194 -4.602
9.02780000 0.144352 4.7311 0.989506 -89.96 0.989506 -89.96 0.144330 -4.655
9.02800000 0.144489 4.7609 0.989486 -89.97 0.989486 -89.97 0.144467 -4.708