! Sonnet Data File
! From: emgraph Version : 16.52
! From Project: Resonator2_cp_varyW
! Data is De-embedded 
! Data File Written: 10/07/2017 09:25:24
!< HDATE 10/06/2017 17:18:21
!< MDATE 10/06/2017 17:18:21
!< PARAMS
!< gap = 26.0
!< Length = 400.0
!< Pwid1 = 2000.0
!< Pwid2 = 2000.0
!< Air_gap = 24.0
!< Width = 40.0
!< END PARAMS
# GHZ S MA R 51.80000
8.80000000 0.022307 -168.8 0.999748 -80.66 0.999748 -80.66 0.022307 -172.5
!< P1 F=8.8 Eeff=(6.44313487 -2.9703e-5) Z0=(50.4821399 1.16465e-4) R=0.0 C=0.0 
!< P2 F=8.8 Eeff=(6.44313487 -2.9703e-5) Z0=(50.4821399 1.16465e-4) R=0.0 C=0.0 
8.80020000 0.022305 -168.8 0.999748 -80.66 0.999748 -80.66 0.022305 -172.5
8.80040000 0.022303 -168.8 0.999748 -80.66 0.999748 -80.66 0.022303 -172.5
8.80060000 0.022302 -168.8 0.999748 -80.66 0.999748 -80.66 0.022302 -172.5
8.80080000 0.022300 -168.8 0.999748 -80.66 0.999748 -80.66 0.022300 -172.5
8.80100000 0.022298 -168.8 0.999748 -80.67 0.999748 -80.67 0.022298 -172.5
8.80120000 0.022297 -168.8 0.999748 -80.67 0.999748 -80.67 0.022297 -172.5
8.80140000 0.022295 -168.8 0.999748 -80.67 0.999748 -80.67 0.022295 -172.5
8.80160000 0.022294 -168.8 0.999748 -80.67 0.999748 -80.67 0.022294 -172.5
8.80180000 0.022292 -168.8 0.999748 -80.67 0.999748 -80.67 0.022292 -172.5
8.80200000 0.022290 -168.8 0.999748 -80.68 0.999748 -80.68 0.022290 -172.5
8.80220000 0.022289 -168.8 0.999748 -80.68 0.999748 -80.68 0.022289 -172.5
8.80240000 0.022287 -168.8 0.999748 -80.68 0.999748 -80.68 0.022287 -172.5
8.80260000 0.022285 -168.8 0.999748 -80.68 0.999748 -80.68 0.022285 -172.5
8.80280000 0.022284 -168.8 0.999748 -80.68 0.999748 -80.68 0.022284 -172.5
8.80300000 0.022282 -168.8 0.999748 -80.68 0.999748 -80.68 0.022282 -172.5
8.80320000 0.022280 -168.8 0.999748 -80.69 0.999748 -80.69 0.022280 -172.6
8.80340000 0.022278 -168.8 0.999748 -80.69 0.999748 -80.69 0.022278 -172.6
8.80360000 0.022277 -168.8 0.999748 -80.69 0.999748 -80.69 0.022277 -172.6
8.80380000 0.022275 -168.8 0.999748 -80.69 0.999748 -80.69 0.022275 -172.6
8.80400000 0.022273 -168.8 0.999748 -80.69 0.999748 -80.69 0.022273 -172.6
8.80420000 0.022271 -168.8 0.999749 -80.70 0.999749 -80.70 0.022271 -172.6
8.80440000 0.022270 -168.8 0.999749 -80.70 0.999749 -80.70 0.022270 -172.6
8.80460000 0.022268 -168.8 0.999749 -80.70 0.999749 -80.70 0.022268 -172.6
8.80480000 0.022266 -168.8 0.999749 -80.70 0.999749 -80.70 0.022266 -172.6
8.80500000 0.022264 -168.8 0.999749 -80.70 0.999749 -80.70 0.022264 -172.6
8.80520000 0.022263 -168.8 0.999749 -80.71 0.999749 -80.71 0.022263 -172.6
8.80540000 0.022261 -168.8 0.999749 -80.71 0.999749 -80.71 0.022261 -172.6
8.80560000 0.022259 -168.8 0.999749 -80.71 0.999749 -80.71 0.022259 -172.6
8.80580000 0.022257 -168.8 0.999749 -80.71 0.999749 -80.71 0.022257 -172.6
8.80600000 0.022255 -168.8 0.999749 -80.71 0.999749 -80.71 0.022255 -172.6
8.80620000 0.022254 -168.8 0.999749 -80.72 0.999749 -80.72 0.022254 -172.6
8.80640000 0.022252 -168.8 0.999749 -80.72 0.999749 -80.72 0.022252 -172.6
8.80660000 0.022250 -168.8 0.999749 -80.72 0.999749 -80.72 0.022250 -172.6
8.80680000 0.022248 -168.8 0.999749 -80.72 0.999749 -80.72 0.022248 -172.6
8.80700000 0.022246 -168.8 0.999749 -80.72 0.999749 -80.72 0.022246 -172.6
8.80720000 0.022244 -168.8 0.999749 -80.73 0.999749 -80.73 0.022244 -172.6
8.80740000 0.022243 -168.8 0.999749 -80.73 0.999749 -80.73 0.022243 -172.6
8.80760000 0.022241 -168.8 0.999749 -80.73 0.999749 -80.73 0.022241 -172.6
8.80780000 0.022239 -168.8 0.999749 -80.73 0.999749 -80.73 0.022239 -172.6
8.80800000 0.022237 -168.8 0.999749 -80.73 0.999749 -80.73 0.022237 -172.6
8.80820000 0.022235 -168.8 0.999749 -80.74 0.999749 -80.74 0.022235 -172.7
8.80840000 0.022233 -168.8 0.999749 -80.74 0.999749 -80.74 0.022233 -172.7
8.80860000 0.022231 -168.8 0.999749 -80.74 0.999749 -80.74 0.022231 -172.7
8.80880000 0.022229 -168.8 0.999749 -80.74 0.999749 -80.74 0.022229 -172.7
8.80900000 0.022227 -168.8 0.999749 -80.74 0.999749 -80.74 0.022227 -172.7
8.80920000 0.022225 -168.8 0.999750 -80.75 0.999750 -80.75 0.022225 -172.7
8.80940000 0.022224 -168.8 0.999750 -80.75 0.999750 -80.75 0.022224 -172.7
8.80960000 0.022222 -168.8 0.999750 -80.75 0.999750 -80.75 0.022222 -172.7
8.80980000 0.022220 -168.8 0.999750 -80.75 0.999750 -80.75 0.022220 -172.7
8.81000000 0.022218 -168.8 0.999750 -80.75 0.999750 -80.75 0.022218 -172.7
8.81020000 0.022216 -168.8 0.999750 -80.76 0.999750 -80.76 0.022216 -172.7
8.81040000 0.022214 -168.8 0.999750 -80.76 0.999750 -80.76 0.022214 -172.7
8.81060000 0.022212 -168.8 0.999750 -80.76 0.999750 -80.76 0.022212 -172.7
8.81080000 0.022210 -168.8 0.999750 -80.76 0.999750 -80.76 0.022210 -172.7
8.81100000 0.022208 -168.8 0.999750 -80.76 0.999750 -80.76 0.022208 -172.7
8.81120000 0.022206 -168.8 0.999750 -80.77 0.999750 -80.77 0.022206 -172.7
8.81140000 0.022204 -168.8 0.999750 -80.77 0.999750 -80.77 0.022204 -172.7
8.81160000 0.022202 -168.8 0.999750 -80.77 0.999750 -80.77 0.022202 -172.7
8.81180000 0.022200 -168.8 0.999750 -80.77 0.999750 -80.77 0.022199 -172.7
8.81200000 0.022197 -168.8 0.999750 -80.77 0.999750 -80.77 0.022197 -172.7
8.81220000 0.022195 -168.8 0.999750 -80.77 0.999750 -80.77 0.022195 -172.7
8.81240000 0.022193 -168.8 0.999750 -80.78 0.999750 -80.78 0.022193 -172.7
8.81260000 0.022191 -168.8 0.999750 -80.78 0.999750 -80.78 0.022191 -172.7
8.81280000 0.022189 -168.8 0.999750 -80.78 0.999750 -80.78 0.022189 -172.8
8.81300000 0.022187 -168.8 0.999750 -80.78 0.999750 -80.78 0.022187 -172.8
8.81320000 0.022185 -168.8 0.999750 -80.78 0.999750 -80.78 0.022185 -172.8
8.81340000 0.022183 -168.8 0.999750 -80.79 0.999750 -80.79 0.022183 -172.8
8.81360000 0.022181 -168.8 0.999750 -80.79 0.999750 -80.79 0.022181 -172.8
8.81380000 0.022179 -168.8 0.999751 -80.79 0.999751 -80.79 0.022178 -172.8
8.81400000 0.022176 -168.8 0.999751 -80.79 0.999751 -80.79 0.022176 -172.8
8.81420000 0.022174 -168.8 0.999751 -80.79 0.999751 -80.79 0.022174 -172.8
8.81440000 0.022172 -168.8 0.999751 -80.80 0.999751 -80.80 0.022172 -172.8
8.81460000 0.022170 -168.8 0.999751 -80.80 0.999751 -80.80 0.022170 -172.8
8.81480000 0.022168 -168.8 0.999751 -80.80 0.999751 -80.80 0.022168 -172.8
8.81500000 0.022165 -168.8 0.999751 -80.80 0.999751 -80.80 0.022165 -172.8
8.81520000 0.022163 -168.8 0.999751 -80.80 0.999751 -80.80 0.022163 -172.8
8.81540000 0.022161 -168.8 0.999751 -80.81 0.999751 -80.81 0.022161 -172.8
8.81560000 0.022159 -168.8 0.999751 -80.81 0.999751 -80.81 0.022159 -172.8
8.81580000 0.022156 -168.8 0.999751 -80.81 0.999751 -80.81 0.022156 -172.8
8.81600000 0.022154 -168.8 0.999751 -80.81 0.999751 -80.81 0.022154 -172.8
8.81620000 0.022152 -168.8 0.999751 -80.81 0.999751 -80.81 0.022152 -172.8
8.81640000 0.022150 -168.8 0.999751 -80.82 0.999751 -80.82 0.022150 -172.8
8.81660000 0.022147 -168.8 0.999751 -80.82 0.999751 -80.82 0.022147 -172.8
8.81680000 0.022145 -168.8 0.999751 -80.82 0.999751 -80.82 0.022145 -172.8
8.81700000 0.022143 -168.8 0.999751 -80.82 0.999751 -80.82 0.022143 -172.8
8.81720000 0.022140 -168.8 0.999751 -80.82 0.999751 -80.82 0.022140 -172.9
8.81740000 0.022138 -168.8 0.999751 -80.83 0.999751 -80.83 0.022138 -172.9
8.81760000 0.022136 -168.8 0.999751 -80.83 0.999751 -80.83 0.022136 -172.9
8.81780000 0.022133 -168.8 0.999752 -80.83 0.999752 -80.83 0.022133 -172.9
8.81800000 0.022131 -168.8 0.999752 -80.83 0.999752 -80.83 0.022131 -172.9
8.81820000 0.022129 -168.8 0.999752 -80.83 0.999752 -80.83 0.022129 -172.9
8.81840000 0.022126 -168.8 0.999752 -80.84 0.999752 -80.84 0.022126 -172.9
8.81860000 0.022124 -168.8 0.999752 -80.84 0.999752 -80.84 0.022124 -172.9
8.81880000 0.022121 -168.8 0.999752 -80.84 0.999752 -80.84 0.022121 -172.9
8.81900000 0.022119 -168.8 0.999752 -80.84 0.999752 -80.84 0.022119 -172.9
8.81920000 0.022117 -168.8 0.999752 -80.84 0.999752 -80.84 0.022117 -172.9
8.81940000 0.022114 -168.8 0.999752 -80.85 0.999752 -80.85 0.022114 -172.9
8.81960000 0.022112 -168.8 0.999752 -80.85 0.999752 -80.85 0.022112 -172.9
8.81980000 0.022109 -168.8 0.999752 -80.85 0.999752 -80.85 0.022109 -172.9
8.82000000 0.022107 -168.8 0.999752 -80.85 0.999752 -80.85 0.022107 -172.9
8.82020000 0.022104 -168.8 0.999752 -80.85 0.999752 -80.85 0.022104 -172.9
8.82040000 0.022102 -168.8 0.999752 -80.86 0.999752 -80.86 0.022102 -172.9
8.82060000 0.022099 -168.8 0.999752 -80.86 0.999752 -80.86 0.022099 -172.9
8.82080000 0.022097 -168.8 0.999752 -80.86 0.999752 -80.86 0.022097 -172.9
8.82100000 0.022094 -168.8 0.999752 -80.86 0.999752 -80.86 0.022094 -172.9
8.82120000 0.022092 -168.8 0.999752 -80.86 0.999752 -80.86 0.022092 -172.9
8.82140000 0.022089 -168.8 0.999752 -80.87 0.999752 -80.87 0.022089 -173.0
8.82160000 0.022086 -168.8 0.999753 -80.87 0.999753 -80.87 0.022086 -173.0
8.82180000 0.022084 -168.8 0.999753 -80.87 0.999753 -80.87 0.022084 -173.0
8.82200000 0.022081 -168.8 0.999753 -80.87 0.999753 -80.87 0.022081 -173.0
8.82220000 0.022079 -168.8 0.999753 -80.87 0.999753 -80.87 0.022079 -173.0
8.82240000 0.022076 -168.8 0.999753 -80.88 0.999753 -80.88 0.022076 -173.0
8.82260000 0.022073 -168.8 0.999753 -80.88 0.999753 -80.88 0.022073 -173.0
8.82280000 0.022071 -168.8 0.999753 -80.88 0.999753 -80.88 0.022071 -173.0
8.82300000 0.022068 -168.8 0.999753 -80.88 0.999753 -80.88 0.022068 -173.0
8.82320000 0.022065 -168.8 0.999753 -80.88 0.999753 -80.88 0.022065 -173.0
8.82340000 0.022063 -168.8 0.999753 -80.89 0.999753 -80.89 0.022063 -173.0
8.82360000 0.022060 -168.8 0.999753 -80.89 0.999753 -80.89 0.022060 -173.0
8.82380000 0.022057 -168.8 0.999753 -80.89 0.999753 -80.89 0.022057 -173.0
8.82400000 0.022054 -168.8 0.999753 -80.89 0.999753 -80.89 0.022054 -173.0
8.82420000 0.022052 -168.8 0.999753 -80.89 0.999753 -80.89 0.022052 -173.0
8.82440000 0.022049 -168.8 0.999753 -80.90 0.999753 -80.90 0.022049 -173.0
8.82460000 0.022046 -168.8 0.999753 -80.90 0.999753 -80.90 0.022046 -173.0
8.82480000 0.022043 -168.8 0.999753 -80.90 0.999753 -80.90 0.022043 -173.0
8.82500000 0.022040 -168.8 0.999754 -80.90 0.999754 -80.90 0.022040 -173.0
8.82520000 0.022038 -168.8 0.999754 -80.90 0.999754 -80.90 0.022038 -173.0
8.82540000 0.022035 -168.8 0.999754 -80.91 0.999754 -80.91 0.022035 -173.1
8.82560000 0.022032 -168.8 0.999754 -80.91 0.999754 -80.91 0.022032 -173.1
8.82580000 0.022029 -168.8 0.999754 -80.91 0.999754 -80.91 0.022029 -173.1
8.82600000 0.022026 -168.8 0.999754 -80.91 0.999754 -80.91 0.022026 -173.1
8.82620000 0.022023 -168.8 0.999754 -80.91 0.999754 -80.91 0.022023 -173.1
8.82640000 0.022020 -168.8 0.999754 -80.92 0.999754 -80.92 0.022020 -173.1
8.82660000 0.022017 -168.8 0.999754 -80.92 0.999754 -80.92 0.022017 -173.1
8.82680000 0.022014 -168.8 0.999754 -80.92 0.999754 -80.92 0.022014 -173.1
8.82700000 0.022012 -168.8 0.999754 -80.92 0.999754 -80.92 0.022011 -173.1
8.82720000 0.022009 -168.8 0.999754 -80.92 0.999754 -80.92 0.022008 -173.1
8.82740000 0.022006 -168.8 0.999754 -80.93 0.999754 -80.93 0.022005 -173.1
8.82760000 0.022003 -168.8 0.999754 -80.93 0.999754 -80.93 0.022002 -173.1
8.82780000 0.022000 -168.8 0.999754 -80.93 0.999754 -80.93 0.021999 -173.1
8.82800000 0.021996 -168.8 0.999754 -80.93 0.999754 -80.93 0.021996 -173.1
8.82820000 0.021993 -168.8 0.999755 -80.93 0.999755 -80.93 0.021993 -173.1
8.82840000 0.021990 -168.7 0.999755 -80.94 0.999755 -80.94 0.021990 -173.1
8.82860000 0.021987 -168.7 0.999755 -80.94 0.999755 -80.94 0.021987 -173.1
8.82880000 0.021984 -168.7 0.999755 -80.94 0.999755 -80.94 0.021984 -173.1
8.82900000 0.021981 -168.7 0.999755 -80.94 0.999755 -80.94 0.021981 -173.2
8.82920000 0.021978 -168.7 0.999755 -80.94 0.999755 -80.94 0.021978 -173.2
8.82940000 0.021975 -168.7 0.999755 -80.95 0.999755 -80.95 0.021975 -173.2
8.82960000 0.021971 -168.7 0.999755 -80.95 0.999755 -80.95 0.021971 -173.2
8.82980000 0.021968 -168.7 0.999755 -80.95 0.999755 -80.95 0.021968 -173.2
8.83000000 0.021965 -168.7 0.999755 -80.95 0.999755 -80.95 0.021965 -173.2
8.83020000 0.021962 -168.7 0.999755 -80.95 0.999755 -80.95 0.021962 -173.2
8.83040000 0.021959 -168.7 0.999755 -80.96 0.999755 -80.96 0.021958 -173.2
8.83060000 0.021955 -168.7 0.999755 -80.96 0.999755 -80.96 0.021955 -173.2
8.83080000 0.021952 -168.7 0.999755 -80.96 0.999755 -80.96 0.021952 -173.2
8.83100000 0.021949 -168.7 0.999755 -80.96 0.999755 -80.96 0.021949 -173.2
8.83120000 0.021945 -168.7 0.999756 -80.96 0.999756 -80.96 0.021945 -173.2
8.83140000 0.021942 -168.7 0.999756 -80.97 0.999756 -80.97 0.021942 -173.2
8.83160000 0.021939 -168.7 0.999756 -80.97 0.999756 -80.97 0.021939 -173.2
8.83180000 0.021935 -168.7 0.999756 -80.97 0.999756 -80.97 0.021935 -173.2
8.83200000 0.021932 -168.7 0.999756 -80.97 0.999756 -80.97 0.021932 -173.2
8.83220000 0.021929 -168.7 0.999756 -80.98 0.999756 -80.98 0.021928 -173.2
8.83240000 0.021925 -168.7 0.999756 -80.98 0.999756 -80.98 0.021925 -173.2
8.83260000 0.021922 -168.7 0.999756 -80.98 0.999756 -80.98 0.021921 -173.3
8.83280000 0.021918 -168.7 0.999756 -80.98 0.999756 -80.98 0.021918 -173.3
8.83300000 0.021915 -168.7 0.999756 -80.98 0.999756 -80.98 0.021915 -173.3
8.83320000 0.021911 -168.7 0.999756 -80.99 0.999756 -80.99 0.021911 -173.3
8.83340000 0.021908 -168.7 0.999756 -80.99 0.999756 -80.99 0.021907 -173.3
8.83360000 0.021904 -168.7 0.999756 -80.99 0.999756 -80.99 0.021904 -173.3
8.83380000 0.021900 -168.7 0.999757 -80.99 0.999757 -80.99 0.021900 -173.3
8.83400000 0.021897 -168.7 0.999757 -80.99 0.999757 -80.99 0.021897 -173.3
8.83420000 0.021893 -168.7 0.999757 -81.00 0.999757 -81.00 0.021893 -173.3
8.83440000 0.021890 -168.7 0.999757 -81.00 0.999757 -81.00 0.021889 -173.3
8.83460000 0.021886 -168.7 0.999757 -81.00 0.999757 -81.00 0.021886 -173.3
8.83480000 0.021882 -168.7 0.999757 -81.00 0.999757 -81.00 0.021882 -173.3
8.83500000 0.021879 -168.7 0.999757 -81.00 0.999757 -81.00 0.021878 -173.3
8.83520000 0.021875 -168.7 0.999757 -81.01 0.999757 -81.01 0.021875 -173.3
8.83540000 0.021871 -168.7 0.999757 -81.01 0.999757 -81.01 0.021871 -173.3
8.83560000 0.021867 -168.7 0.999757 -81.01 0.999757 -81.01 0.021867 -173.3
8.83580000 0.021864 -168.7 0.999757 -81.01 0.999757 -81.01 0.021863 -173.4
8.83600000 0.021860 -168.7 0.999757 -81.01 0.999757 -81.01 0.021860 -173.4
8.83620000 0.021856 -168.7 0.999757 -81.02 0.999757 -81.02 0.021856 -173.4
8.83640000 0.021852 -168.7 0.999758 -81.02 0.999758 -81.02 0.021852 -173.4
8.83660000 0.021848 -168.7 0.999758 -81.02 0.999758 -81.02 0.021848 -173.4
8.83680000 0.021844 -168.7 0.999758 -81.02 0.999758 -81.02 0.021844 -173.4
8.83700000 0.021840 -168.7 0.999758 -81.02 0.999758 -81.02 0.021840 -173.4
8.83720000 0.021836 -168.7 0.999758 -81.03 0.999758 -81.03 0.021836 -173.4
8.83740000 0.021832 -168.7 0.999758 -81.03 0.999758 -81.03 0.021832 -173.4
8.83760000 0.021828 -168.7 0.999758 -81.03 0.999758 -81.03 0.021828 -173.4
8.83780000 0.021824 -168.7 0.999758 -81.03 0.999758 -81.03 0.021824 -173.4
8.83800000 0.021820 -168.7 0.999758 -81.04 0.999758 -81.04 0.021820 -173.4
8.83820000 0.021816 -168.6 0.999758 -81.04 0.999758 -81.04 0.021816 -173.4
8.83840000 0.021812 -168.6 0.999758 -81.04 0.999758 -81.04 0.021812 -173.4
8.83860000 0.021808 -168.6 0.999758 -81.04 0.999758 -81.04 0.021808 -173.4
8.83880000 0.021804 -168.6 0.999759 -81.04 0.999759 -81.04 0.021804 -173.5
8.83900000 0.021800 -168.6 0.999759 -81.05 0.999759 -81.05 0.021800 -173.5
8.83920000 0.021796 -168.6 0.999759 -81.05 0.999759 -81.05 0.021795 -173.5
8.83940000 0.021791 -168.6 0.999759 -81.05 0.999759 -81.05 0.021791 -173.5
8.83960000 0.021787 -168.6 0.999759 -81.05 0.999759 -81.05 0.021787 -173.5
8.83980000 0.021783 -168.6 0.999759 -81.05 0.999759 -81.05 0.021783 -173.5
8.84000000 0.021778 -168.6 0.999759 -81.06 0.999759 -81.06 0.021778 -173.5
8.84020000 0.021774 -168.6 0.999759 -81.06 0.999759 -81.06 0.021774 -173.5
8.84040000 0.021770 -168.6 0.999759 -81.06 0.999759 -81.06 0.021770 -173.5
8.84060000 0.021765 -168.6 0.999759 -81.06 0.999759 -81.06 0.021765 -173.5
8.84080000 0.021761 -168.6 0.999759 -81.06 0.999759 -81.06 0.021761 -173.5
8.84100000 0.021757 -168.6 0.999760 -81.07 0.999760 -81.07 0.021756 -173.5
8.84120000 0.021752 -168.6 0.999760 -81.07 0.999760 -81.07 0.021752 -173.5
8.84140000 0.021748 -168.6 0.999760 -81.07 0.999760 -81.07 0.021747 -173.5
8.84160000 0.021743 -168.6 0.999760 -81.07 0.999760 -81.07 0.021743 -173.6
8.84180000 0.021738 -168.6 0.999760 -81.08 0.999760 -81.08 0.021738 -173.6
8.84200000 0.021734 -168.6 0.999760 -81.08 0.999760 -81.08 0.021734 -173.6
8.84220000 0.021729 -168.6 0.999760 -81.08 0.999760 -81.08 0.021729 -173.6
8.84240000 0.021725 -168.6 0.999760 -81.08 0.999760 -81.08 0.021724 -173.6
8.84260000 0.021720 -168.6 0.999760 -81.08 0.999760 -81.08 0.021720 -173.6
8.84280000 0.021715 -168.6 0.999760 -81.09 0.999760 -81.09 0.021715 -173.6
8.84300000 0.021710 -168.6 0.999761 -81.09 0.999761 -81.09 0.021710 -173.6
8.84320000 0.021706 -168.6 0.999761 -81.09 0.999761 -81.09 0.021705 -173.6
8.84340000 0.021701 -168.6 0.999761 -81.09 0.999761 -81.09 0.021701 -173.6
8.84360000 0.021696 -168.6 0.999761 -81.09 0.999761 -81.09 0.021696 -173.6
8.84380000 0.021691 -168.6 0.999761 -81.10 0.999761 -81.10 0.021691 -173.6
8.84400000 0.021686 -168.6 0.999761 -81.10 0.999761 -81.10 0.021686 -173.6
8.84420000 0.021681 -168.6 0.999761 -81.10 0.999761 -81.10 0.021681 -173.7
8.84440000 0.021676 -168.6 0.999761 -81.10 0.999761 -81.10 0.021676 -173.7
8.84460000 0.021671 -168.5 0.999761 -81.11 0.999761 -81.11 0.021671 -173.7
8.84480000 0.021666 -168.5 0.999761 -81.11 0.999761 -81.11 0.021666 -173.7
8.84500000 0.021661 -168.5 0.999762 -81.11 0.999762 -81.11 0.021661 -173.7
8.84520000 0.021656 -168.5 0.999762 -81.11 0.999762 -81.11 0.021656 -173.7
8.84540000 0.021651 -168.5 0.999762 -81.11 0.999762 -81.11 0.021651 -173.7
8.84560000 0.021646 -168.5 0.999762 -81.12 0.999762 -81.12 0.021646 -173.7
8.84580000 0.021641 -168.5 0.999762 -81.12 0.999762 -81.12 0.021640 -173.7
8.84600000 0.021635 -168.5 0.999762 -81.12 0.999762 -81.12 0.021635 -173.7
8.84620000 0.021630 -168.5 0.999762 -81.12 0.999762 -81.12 0.021630 -173.7
8.84640000 0.021625 -168.5 0.999762 -81.12 0.999762 -81.12 0.021625 -173.7
8.84660000 0.021620 -168.5 0.999762 -81.13 0.999762 -81.13 0.021619 -173.8
8.84680000 0.021614 -168.5 0.999763 -81.13 0.999763 -81.13 0.021614 -173.8
8.84700000 0.021609 -168.5 0.999763 -81.13 0.999763 -81.13 0.021608 -173.8
8.84720000 0.021603 -168.5 0.999763 -81.13 0.999763 -81.13 0.021603 -173.8
8.84740000 0.021598 -168.5 0.999763 -81.14 0.999763 -81.14 0.021597 -173.8
8.84760000 0.021592 -168.5 0.999763 -81.14 0.999763 -81.14 0.021592 -173.8
8.84780000 0.021587 -168.5 0.999763 -81.14 0.999763 -81.14 0.021586 -173.8
8.84800000 0.021581 -168.5 0.999763 -81.14 0.999763 -81.14 0.021581 -173.8
8.84820000 0.021575 -168.5 0.999763 -81.14 0.999763 -81.14 0.021575 -173.8
8.84840000 0.021570 -168.5 0.999763 -81.15 0.999763 -81.15 0.021569 -173.8
8.84860000 0.021564 -168.5 0.999764 -81.15 0.999764 -81.15 0.021564 -173.8
8.84880000 0.021558 -168.5 0.999764 -81.15 0.999764 -81.15 0.021558 -173.8
8.84900000 0.021552 -168.5 0.999764 -81.15 0.999764 -81.15 0.021552 -173.9
8.84920000 0.021546 -168.5 0.999764 -81.16 0.999764 -81.16 0.021546 -173.9
8.84940000 0.021540 -168.4 0.999764 -81.16 0.999764 -81.16 0.021540 -173.9
8.84960000 0.021535 -168.4 0.999764 -81.16 0.999764 -81.16 0.021534 -173.9
8.84980000 0.021529 -168.4 0.999764 -81.16 0.999764 -81.16 0.021528 -173.9
8.85000000 0.021522 -168.4 0.999764 -81.16 0.999764 -81.16 0.021522 -173.9
8.85020000 0.021516 -168.4 0.999765 -81.17 0.999765 -81.17 0.021516 -173.9
8.85040000 0.021510 -168.4 0.999765 -81.17 0.999765 -81.17 0.021510 -173.9
8.85060000 0.021504 -168.4 0.999765 -81.17 0.999765 -81.17 0.021504 -173.9
8.85080000 0.021498 -168.4 0.999765 -81.17 0.999765 -81.17 0.021497 -173.9
8.85100000 0.021492 -168.4 0.999765 -81.18 0.999765 -81.18 0.021491 -174.0
8.85120000 0.021485 -168.4 0.999765 -81.18 0.999765 -81.18 0.021485 -174.0
8.85140000 0.021479 -168.4 0.999765 -81.18 0.999765 -81.18 0.021479 -174.0
8.85160000 0.021472 -168.4 0.999765 -81.18 0.999765 -81.18 0.021472 -174.0
8.85180000 0.021466 -168.4 0.999766 -81.18 0.999766 -81.18 0.021466 -174.0
8.85200000 0.021460 -168.4 0.999766 -81.19 0.999766 -81.19 0.021459 -174.0
8.85220000 0.021453 -168.4 0.999766 -81.19 0.999766 -81.19 0.021453 -174.0
8.85240000 0.021446 -168.4 0.999766 -81.19 0.999766 -81.19 0.021446 -174.0
8.85260000 0.021440 -168.4 0.999766 -81.19 0.999766 -81.19 0.021439 -174.0
8.85280000 0.021433 -168.4 0.999766 -81.20 0.999766 -81.20 0.021433 -174.0
8.85300000 0.021426 -168.4 0.999766 -81.20 0.999766 -81.20 0.021426 -174.1
8.85320000 0.021419 -168.3 0.999767 -81.20 0.999767 -81.20 0.021419 -174.1
8.85340000 0.021412 -168.3 0.999767 -81.20 0.999767 -81.20 0.021412 -174.1
8.85360000 0.021406 -168.3 0.999767 -81.20 0.999767 -81.20 0.021405 -174.1
8.85380000 0.021399 -168.3 0.999767 -81.21 0.999767 -81.21 0.021398 -174.1
8.85400000 0.021392 -168.3 0.999767 -81.21 0.999767 -81.21 0.021391 -174.1
8.85420000 0.021384 -168.3 0.999767 -81.21 0.999767 -81.21 0.021384 -174.1
8.85440000 0.021377 -168.3 0.999767 -81.21 0.999767 -81.21 0.021377 -174.1
8.85460000 0.021370 -168.3 0.999768 -81.22 0.999768 -81.22 0.021370 -174.1
8.85480000 0.021363 -168.3 0.999768 -81.22 0.999768 -81.22 0.021362 -174.1
8.85500000 0.021355 -168.3 0.999768 -81.22 0.999768 -81.22 0.021355 -174.2
8.85520000 0.021348 -168.3 0.999768 -81.22 0.999768 -81.22 0.021348 -174.2
8.85540000 0.021341 -168.3 0.999768 -81.22 0.999768 -81.22 0.021340 -174.2
8.85560000 0.021333 -168.3 0.999768 -81.23 0.999768 -81.23 0.021333 -174.2
8.85580000 0.021326 -168.3 0.999769 -81.23 0.999769 -81.23 0.021325 -174.2
8.85600000 0.021318 -168.3 0.999769 -81.23 0.999769 -81.23 0.021317 -174.2
8.85620000 0.021310 -168.3 0.999769 -81.23 0.999769 -81.23 0.021310 -174.2
8.85640000 0.021303 -168.2 0.999769 -81.24 0.999769 -81.24 0.021302 -174.2
8.85660000 0.021295 -168.2 0.999769 -81.24 0.999769 -81.24 0.021294 -174.2
8.85680000 0.021287 -168.2 0.999769 -81.24 0.999769 -81.24 0.021286 -174.3
8.85700000 0.021279 -168.2 0.999769 -81.24 0.999769 -81.24 0.021278 -174.3
8.85720000 0.021271 -168.2 0.999770 -81.25 0.999770 -81.25 0.021270 -174.3
8.85740000 0.021263 -168.2 0.999770 -81.25 0.999770 -81.25 0.021262 -174.3
8.85760000 0.021255 -168.2 0.999770 -81.25 0.999770 -81.25 0.021254 -174.3
8.85780000 0.021246 -168.2 0.999770 -81.25 0.999770 -81.25 0.021246 -174.3
8.85800000 0.021238 -168.2 0.999770 -81.26 0.999770 -81.26 0.021238 -174.3
8.85820000 0.021230 -168.2 0.999770 -81.26 0.999770 -81.26 0.021229 -174.3
8.85840000 0.021221 -168.2 0.999771 -81.26 0.999771 -81.26 0.021221 -174.4
8.85860000 0.021213 -168.2 0.999771 -81.26 0.999771 -81.26 0.021212 -174.4
8.85880000 0.021204 -168.2 0.999771 -81.26 0.999771 -81.26 0.021204 -174.4
8.85900000 0.021195 -168.1 0.999771 -81.27 0.999771 -81.27 0.021195 -174.4
8.85920000 0.021187 -168.1 0.999771 -81.27 0.999771 -81.27 0.021186 -174.4
8.85940000 0.021178 -168.1 0.999771 -81.27 0.999771 -81.27 0.021177 -174.4
8.85960000 0.021169 -168.1 0.999772 -81.27 0.999772 -81.27 0.021168 -174.4
8.85980000 0.021160 -168.1 0.999772 -81.28 0.999772 -81.28 0.021159 -174.4
8.86000000 0.021151 -168.1 0.999772 -81.28 0.999772 -81.28 0.021150 -174.5
8.86020000 0.021142 -168.1 0.999772 -81.28 0.999772 -81.28 0.021141 -174.5
8.86040000 0.021133 -168.1 0.999772 -81.28 0.999772 -81.28 0.021132 -174.5
8.86060000 0.021123 -168.1 0.999773 -81.29 0.999773 -81.29 0.021123 -174.5
8.86080000 0.021114 -168.1 0.999773 -81.29 0.999773 -81.29 0.021113 -174.5
8.86100000 0.021104 -168.1 0.999773 -81.29 0.999773 -81.29 0.021104 -174.5
8.86120000 0.021095 -168.0 0.999773 -81.29 0.999773 -81.29 0.021094 -174.5
8.86140000 0.021085 -168.0 0.999773 -81.30 0.999773 -81.30 0.021085 -174.6
8.86160000 0.021076 -168.0 0.999774 -81.30 0.999774 -81.30 0.021075 -174.6
8.86180000 0.021066 -168.0 0.999774 -81.30 0.999774 -81.30 0.021065 -174.6
8.86200000 0.021056 -168.0 0.999774 -81.30 0.999774 -81.30 0.021055 -174.6
8.86220000 0.021046 -168.0 0.999774 -81.31 0.999774 -81.31 0.021045 -174.6
8.86240000 0.021036 -168.0 0.999774 -81.31 0.999774 -81.31 0.021035 -174.6
8.86260000 0.021025 -168.0 0.999775 -81.31 0.999775 -81.31 0.021025 -174.6
8.86280000 0.021015 -168.0 0.999775 -81.31 0.999775 -81.31 0.021014 -174.7
8.86300000 0.021005 -168.0 0.999775 -81.32 0.999775 -81.32 0.021004 -174.7
8.86320000 0.020994 -168.0 0.999775 -81.32 0.999775 -81.32 0.020994 -174.7
8.86340000 0.020984 -167.9 0.999775 -81.32 0.999775 -81.32 0.020983 -174.7
8.86360000 0.020973 -167.9 0.999776 -81.32 0.999776 -81.32 0.020972 -174.7
8.86380000 0.020962 -167.9 0.999776 -81.33 0.999776 -81.33 0.020961 -174.7
8.86400000 0.020951 -167.9 0.999776 -81.33 0.999776 -81.33 0.020950 -174.8
8.86420000 0.020940 -167.9 0.999776 -81.33 0.999776 -81.33 0.020939 -174.8
8.86440000 0.020929 -167.9 0.999776 -81.33 0.999776 -81.33 0.020928 -174.8
8.86460000 0.020918 -167.9 0.999777 -81.34 0.999777 -81.34 0.020917 -174.8
8.86480000 0.020906 -167.9 0.999777 -81.34 0.999777 -81.34 0.020906 -174.8
8.86500000 0.020895 -167.8 0.999777 -81.34 0.999777 -81.34 0.020894 -174.8
8.86520000 0.020883 -167.8 0.999777 -81.34 0.999777 -81.34 0.020883 -174.9
8.86540000 0.020872 -167.8 0.999778 -81.35 0.999778 -81.35 0.020871 -174.9
8.86560000 0.020860 -167.8 0.999778 -81.35 0.999778 -81.35 0.020859 -174.9
8.86580000 0.020848 -167.8 0.999778 -81.35 0.999778 -81.35 0.020847 -174.9
8.86600000 0.020836 -167.8 0.999778 -81.35 0.999778 -81.35 0.020835 -174.9
8.86620000 0.020824 -167.8 0.999779 -81.36 0.999779 -81.36 0.020823 -174.9
8.86640000 0.020811 -167.8 0.999779 -81.36 0.999779 -81.36 0.020811 -175.0
8.86660000 0.020799 -167.8 0.999779 -81.36 0.999779 -81.36 0.020798 -175.0
8.86680000 0.020786 -167.7 0.999779 -81.36 0.999779 -81.36 0.020785 -175.0
8.86700000 0.020774 -167.7 0.999780 -81.37 0.999780 -81.37 0.020773 -175.0
8.86720000 0.020761 -167.7 0.999780 -81.37 0.999780 -81.37 0.020760 -175.0
8.86740000 0.020748 -167.7 0.999780 -81.37 0.999780 -81.37 0.020747 -175.1
8.86760000 0.020735 -167.7 0.999780 -81.38 0.999780 -81.38 0.020734 -175.1
8.86780000 0.020721 -167.7 0.999781 -81.38 0.999781 -81.38 0.020721 -175.1
8.86800000 0.020708 -167.7 0.999781 -81.38 0.999781 -81.38 0.020707 -175.1
8.86820000 0.020695 -167.6 0.999781 -81.38 0.999781 -81.38 0.020694 -175.1
8.86840000 0.020681 -167.6 0.999781 -81.39 0.999781 -81.39 0.020680 -175.2
8.86860000 0.020667 -167.6 0.999782 -81.39 0.999782 -81.39 0.020666 -175.2
8.86880000 0.020653 -167.6 0.999782 -81.39 0.999782 -81.39 0.020652 -175.2
8.86900000 0.020639 -167.6 0.999782 -81.39 0.999782 -81.39 0.020638 -175.2
8.86920000 0.020624 -167.6 0.999782 -81.40 0.999782 -81.40 0.020623 -175.2
8.86940000 0.020610 -167.5 0.999783 -81.40 0.999783 -81.40 0.020609 -175.3
8.86960000 0.020595 -167.5 0.999783 -81.40 0.999783 -81.40 0.020594 -175.3
8.86980000 0.020581 -167.5 0.999783 -81.40 0.999783 -81.40 0.020579 -175.3
8.87000000 0.020566 -167.5 0.999784 -81.41 0.999784 -81.41 0.020564 -175.3
8.87020000 0.020550 -167.5 0.999784 -81.41 0.999784 -81.41 0.020549 -175.3
8.87040000 0.020535 -167.5 0.999784 -81.41 0.999784 -81.41 0.020534 -175.4
8.87060000 0.020520 -167.4 0.999784 -81.42 0.999784 -81.42 0.020518 -175.4
8.87080000 0.020504 -167.4 0.999785 -81.42 0.999785 -81.42 0.020503 -175.4
8.87100000 0.020488 -167.4 0.999785 -81.42 0.999785 -81.42 0.020487 -175.4
8.87120000 0.020472 -167.4 0.999785 -81.42 0.999785 -81.42 0.020471 -175.5
8.87140000 0.020456 -167.4 0.999786 -81.43 0.999786 -81.43 0.020454 -175.5
8.87160000 0.020439 -167.4 0.999786 -81.43 0.999786 -81.43 0.020438 -175.5
8.87180000 0.020423 -167.3 0.999786 -81.43 0.999786 -81.43 0.020421 -175.5
8.87200000 0.020406 -167.3 0.999787 -81.44 0.999787 -81.44 0.020404 -175.6
8.87220000 0.020389 -167.3 0.999787 -81.44 0.999787 -81.44 0.020387 -175.6
8.87240000 0.020371 -167.3 0.999787 -81.44 0.999787 -81.44 0.020370 -175.6
8.87260000 0.020354 -167.3 0.999788 -81.44 0.999788 -81.44 0.020353 -175.6
8.87280000 0.020336 -167.2 0.999788 -81.45 0.999788 -81.45 0.020335 -175.7
8.87300000 0.020318 -167.2 0.999788 -81.45 0.999788 -81.45 0.020317 -175.7
8.87320000 0.020300 -167.2 0.999789 -81.45 0.999789 -81.45 0.020299 -175.7
8.87340000 0.020282 -167.2 0.999789 -81.46 0.999789 -81.46 0.020280 -175.7
8.87360000 0.020263 -167.2 0.999789 -81.46 0.999789 -81.46 0.020262 -175.8
8.87380000 0.020244 -167.1 0.999790 -81.46 0.999790 -81.46 0.020243 -175.8
8.87400000 0.020225 -167.1 0.999790 -81.47 0.999790 -81.47 0.020224 -175.8
8.87420000 0.020206 -167.1 0.999790 -81.47 0.999790 -81.47 0.020205 -175.9
8.87440000 0.020187 -167.1 0.999791 -81.47 0.999791 -81.47 0.020185 -175.9
8.87460000 0.020167 -167.0 0.999791 -81.48 0.999791 -81.48 0.020165 -175.9
8.87470349 0.020156 -167.0 0.999791 -81.48 0.999791 -81.48 0.020155 -175.9
8.87480000 0.020147 -167.0 0.999792 -81.48 0.999792 -81.48 0.020145 -175.9
8.87500000 0.020126 -167.0 0.999792 -81.48 0.999792 -81.48 0.020125 -176.0
8.87520000 0.020106 -167.0 0.999792 -81.48 0.999792 -81.48 0.020104 -176.0
8.87539086 0.020086 -166.9 0.999793 -81.49 0.999793 -81.49 0.020084 -176.0
8.87540000 0.020085 -166.9 0.999793 -81.49 0.999793 -81.49 0.020083 -176.0
8.87560000 0.020063 -166.9 0.999793 -81.49 0.999793 -81.49 0.020062 -176.1
8.87580000 0.020042 -166.9 0.999793 -81.49 0.999793 -81.49 0.020040 -176.1
8.87600000 0.020020 -166.9 0.999794 -81.50 0.999794 -81.50 0.020018 -176.1
8.87606248 0.020013 -166.9 0.999794 -81.50 0.999794 -81.50 0.020012 -176.1
8.87620000 0.019998 -166.8 0.999794 -81.50 0.999794 -81.50 0.019996 -176.2
8.87640000 0.019976 -166.8 0.999795 -81.50 0.999795 -81.50 0.019974 -176.2
8.87660000 0.019953 -166.8 0.999795 -81.51 0.999795 -81.51 0.019951 -176.2
8.87671870 0.019939 -166.8 0.999795 -81.51 0.999795 -81.51 0.019937 -176.3
8.87680000 0.019930 -166.8 0.999796 -81.51 0.999796 -81.51 0.019928 -176.3
8.87700000 0.019907 -166.7 0.999796 -81.51 0.999796 -81.51 0.019905 -176.3
8.87720000 0.019883 -166.7 0.999796 -81.52 0.999796 -81.52 0.019881 -176.3
8.87735990 0.019864 -166.7 0.999797 -81.52 0.999797 -81.52 0.019862 -176.4
8.87740000 0.019859 -166.7 0.999797 -81.52 0.999797 -81.52 0.019857 -176.4