! Sonnet Data File
! From: emgraph Version : 16.52
! From Project: Resonator2_cp_varyW
! Data is De-embedded 
! Data File Written: 10/07/2017 09:25:24
!< HDATE 10/06/2017 17:18:21
!< MDATE 10/06/2017 17:18:21
!< PARAMS
!< gap = 16.0
!< Length = 400.0
!< Pwid1 = 2000.0
!< Pwid2 = 2000.0
!< Air_gap = 24.0
!< Width = 40.0
!< END PARAMS
# GHZ S MA R 51.80000
8.80000000 0.020025 -167.3 0.999796 -80.79 0.999796 -80.79 0.020025 -174.3
!< P1 F=8.8 Eeff=(6.44313487 -2.9703e-5) Z0=(50.4821399 1.16465e-4) R=0.0 C=0.0 
!< P2 F=8.8 Eeff=(6.44313487 -2.9703e-5) Z0=(50.4821399 1.16465e-4) R=0.0 C=0.0 
8.80020000 0.020021 -167.3 0.999796 -80.79 0.999796 -80.79 0.020021 -174.3
8.80040000 0.020018 -167.3 0.999796 -80.79 0.999796 -80.79 0.020018 -174.3
8.80060000 0.020014 -167.3 0.999796 -80.80 0.999796 -80.80 0.020014 -174.3
8.80080000 0.020010 -167.3 0.999796 -80.80 0.999796 -80.80 0.020010 -174.3
8.80100000 0.020006 -167.3 0.999796 -80.80 0.999796 -80.80 0.020006 -174.3
8.80120000 0.020002 -167.3 0.999796 -80.80 0.999796 -80.80 0.020002 -174.3
8.80140000 0.019998 -167.3 0.999796 -80.80 0.999796 -80.80 0.019998 -174.3
8.80160000 0.019994 -167.3 0.999796 -80.81 0.999796 -80.81 0.019994 -174.3
8.80180000 0.019990 -167.3 0.999796 -80.81 0.999796 -80.81 0.019990 -174.3
8.80200000 0.019986 -167.3 0.999797 -80.81 0.999797 -80.81 0.019986 -174.3
8.80220000 0.019982 -167.3 0.999797 -80.81 0.999797 -80.81 0.019982 -174.4
8.80240000 0.019978 -167.3 0.999797 -80.81 0.999797 -80.81 0.019978 -174.4
8.80260000 0.019974 -167.3 0.999797 -80.82 0.999797 -80.82 0.019974 -174.4
8.80280000 0.019970 -167.3 0.999797 -80.82 0.999797 -80.82 0.019970 -174.4
8.80300000 0.019966 -167.3 0.999797 -80.82 0.999797 -80.82 0.019966 -174.4
8.80320000 0.019962 -167.3 0.999797 -80.82 0.999797 -80.82 0.019962 -174.4
8.80340000 0.019958 -167.3 0.999797 -80.82 0.999797 -80.82 0.019958 -174.4
8.80360000 0.019954 -167.3 0.999797 -80.83 0.999797 -80.83 0.019954 -174.4
8.80380000 0.019949 -167.3 0.999797 -80.83 0.999797 -80.83 0.019949 -174.4
8.80400000 0.019945 -167.3 0.999797 -80.83 0.999797 -80.83 0.019945 -174.4
8.80420000 0.019941 -167.3 0.999797 -80.83 0.999797 -80.83 0.019941 -174.4
8.80440000 0.019937 -167.3 0.999798 -80.84 0.999798 -80.84 0.019937 -174.4
8.80460000 0.019933 -167.2 0.999798 -80.84 0.999798 -80.84 0.019933 -174.4
8.80480000 0.019928 -167.2 0.999798 -80.84 0.999798 -80.84 0.019928 -174.4
8.80500000 0.019924 -167.2 0.999798 -80.84 0.999798 -80.84 0.019924 -174.5
8.80520000 0.019920 -167.2 0.999798 -80.84 0.999798 -80.84 0.019920 -174.5
8.80540000 0.019916 -167.2 0.999798 -80.85 0.999798 -80.85 0.019916 -174.5
8.80560000 0.019911 -167.2 0.999798 -80.85 0.999798 -80.85 0.019911 -174.5
8.80580000 0.019907 -167.2 0.999798 -80.85 0.999798 -80.85 0.019907 -174.5
8.80600000 0.019903 -167.2 0.999798 -80.85 0.999798 -80.85 0.019903 -174.5
8.80620000 0.019898 -167.2 0.999798 -80.85 0.999798 -80.85 0.019898 -174.5
8.80640000 0.019894 -167.2 0.999798 -80.86 0.999798 -80.86 0.019894 -174.5
8.80660000 0.019890 -167.2 0.999798 -80.86 0.999798 -80.86 0.019889 -174.5
8.80680000 0.019885 -167.2 0.999799 -80.86 0.999799 -80.86 0.019885 -174.5
8.80700000 0.019881 -167.2 0.999799 -80.86 0.999799 -80.86 0.019881 -174.5
8.80720000 0.019876 -167.2 0.999799 -80.86 0.999799 -80.86 0.019876 -174.5
8.80740000 0.019872 -167.2 0.999799 -80.87 0.999799 -80.87 0.019872 -174.5
8.80760000 0.019867 -167.2 0.999799 -80.87 0.999799 -80.87 0.019867 -174.5
8.80780000 0.019863 -167.2 0.999799 -80.87 0.999799 -80.87 0.019863 -174.6
8.80800000 0.019858 -167.2 0.999799 -80.87 0.999799 -80.87 0.019858 -174.6
8.80820000 0.019854 -167.2 0.999799 -80.88 0.999799 -80.88 0.019854 -174.6
8.80840000 0.019849 -167.2 0.999799 -80.88 0.999799 -80.88 0.019849 -174.6
8.80860000 0.019844 -167.2 0.999799 -80.88 0.999799 -80.88 0.019844 -174.6
8.80880000 0.019840 -167.2 0.999799 -80.88 0.999799 -80.88 0.019840 -174.6
8.80900000 0.019835 -167.2 0.999799 -80.88 0.999799 -80.88 0.019835 -174.6
8.80920000 0.019831 -167.2 0.999800 -80.89 0.999800 -80.89 0.019830 -174.6
8.80940000 0.019826 -167.2 0.999800 -80.89 0.999800 -80.89 0.019826 -174.6
8.80960000 0.019821 -167.2 0.999800 -80.89 0.999800 -80.89 0.019821 -174.6
8.80980000 0.019816 -167.2 0.999800 -80.89 0.999800 -80.89 0.019816 -174.6
8.81000000 0.019812 -167.2 0.999800 -80.89 0.999800 -80.89 0.019812 -174.6
8.81020000 0.019807 -167.2 0.999800 -80.90 0.999800 -80.90 0.019807 -174.6
8.81040000 0.019802 -167.2 0.999800 -80.90 0.999800 -80.90 0.019802 -174.6
8.81060000 0.019797 -167.2 0.999800 -80.90 0.999800 -80.90 0.019797 -174.7
8.81080000 0.019793 -167.2 0.999800 -80.90 0.999800 -80.90 0.019792 -174.7
8.81100000 0.019788 -167.1 0.999800 -80.90 0.999800 -80.90 0.019788 -174.7
8.81120000 0.019783 -167.1 0.999801 -80.91 0.999801 -80.91 0.019783 -174.7
8.81140000 0.019778 -167.1 0.999801 -80.91 0.999801 -80.91 0.019778 -174.7
8.81160000 0.019773 -167.1 0.999801 -80.91 0.999801 -80.91 0.019773 -174.7
8.81180000 0.019768 -167.1 0.999801 -80.91 0.999801 -80.91 0.019768 -174.7
8.81200000 0.019763 -167.1 0.999801 -80.92 0.999801 -80.92 0.019763 -174.7
8.81220000 0.019758 -167.1 0.999801 -80.92 0.999801 -80.92 0.019758 -174.7
8.81240000 0.019753 -167.1 0.999801 -80.92 0.999801 -80.92 0.019753 -174.7
8.81260000 0.019748 -167.1 0.999801 -80.92 0.999801 -80.92 0.019748 -174.7
8.81280000 0.019743 -167.1 0.999801 -80.92 0.999801 -80.92 0.019743 -174.7
8.81300000 0.019738 -167.1 0.999801 -80.93 0.999801 -80.93 0.019738 -174.8
8.81320000 0.019733 -167.1 0.999801 -80.93 0.999801 -80.93 0.019733 -174.8
8.81340000 0.019728 -167.1 0.999802 -80.93 0.999802 -80.93 0.019728 -174.8
8.81360000 0.019723 -167.1 0.999802 -80.93 0.999802 -80.93 0.019723 -174.8
8.81380000 0.019718 -167.1 0.999802 -80.93 0.999802 -80.93 0.019717 -174.8
8.81400000 0.019712 -167.1 0.999802 -80.94 0.999802 -80.94 0.019712 -174.8
8.81420000 0.019707 -167.1 0.999802 -80.94 0.999802 -80.94 0.019707 -174.8
8.81440000 0.019702 -167.1 0.999802 -80.94 0.999802 -80.94 0.019702 -174.8
8.81460000 0.019697 -167.1 0.999802 -80.94 0.999802 -80.94 0.019697 -174.8
8.81480000 0.019691 -167.1 0.999802 -80.95 0.999802 -80.95 0.019691 -174.8
8.81500000 0.019686 -167.1 0.999802 -80.95 0.999802 -80.95 0.019686 -174.8
8.81520000 0.019681 -167.1 0.999802 -80.95 0.999802 -80.95 0.019681 -174.8
8.81540000 0.019675 -167.1 0.999803 -80.95 0.999803 -80.95 0.019675 -174.9
8.81560000 0.019670 -167.1 0.999803 -80.95 0.999803 -80.95 0.019670 -174.9
8.81580000 0.019665 -167.1 0.999803 -80.96 0.999803 -80.96 0.019664 -174.9
8.81600000 0.019659 -167.0 0.999803 -80.96 0.999803 -80.96 0.019659 -174.9
8.81620000 0.019654 -167.0 0.999803 -80.96 0.999803 -80.96 0.019654 -174.9
8.81640000 0.019648 -167.0 0.999803 -80.96 0.999803 -80.96 0.019648 -174.9
8.81660000 0.019643 -167.0 0.999803 -80.97 0.999803 -80.97 0.019643 -174.9
8.81680000 0.019637 -167.0 0.999803 -80.97 0.999803 -80.97 0.019637 -174.9
8.81700000 0.019632 -167.0 0.999803 -80.97 0.999803 -80.97 0.019631 -174.9
8.81720000 0.019626 -167.0 0.999804 -80.97 0.999804 -80.97 0.019626 -174.9
8.81740000 0.019620 -167.0 0.999804 -80.97 0.999804 -80.97 0.019620 -174.9
8.81760000 0.019615 -167.0 0.999804 -80.98 0.999804 -80.98 0.019615 -174.9
8.81780000 0.019609 -167.0 0.999804 -80.98 0.999804 -80.98 0.019609 -175.0
8.81800000 0.019603 -167.0 0.999804 -80.98 0.999804 -80.98 0.019603 -175.0
8.81820000 0.019598 -167.0 0.999804 -80.98 0.999804 -80.98 0.019597 -175.0
8.81840000 0.019592 -167.0 0.999804 -80.98 0.999804 -80.98 0.019592 -175.0
8.81860000 0.019586 -167.0 0.999804 -80.99 0.999804 -80.99 0.019586 -175.0
8.81880000 0.019580 -167.0 0.999804 -80.99 0.999804 -80.99 0.019580 -175.0
8.81900000 0.019574 -167.0 0.999804 -80.99 0.999804 -80.99 0.019574 -175.0
8.81920000 0.019568 -167.0 0.999805 -80.99 0.999805 -80.99 0.019568 -175.0
8.81940000 0.019563 -167.0 0.999805 -81.00 0.999805 -81.00 0.019562 -175.0
8.81960000 0.019557 -167.0 0.999805 -81.00 0.999805 -81.00 0.019556 -175.0
8.81980000 0.019551 -167.0 0.999805 -81.00 0.999805 -81.00 0.019551 -175.0
8.82000000 0.019545 -167.0 0.999805 -81.00 0.999805 -81.00 0.019545 -175.1
8.82020000 0.019539 -167.0 0.999805 -81.00 0.999805 -81.00 0.019538 -175.1
8.82040000 0.019533 -166.9 0.999805 -81.01 0.999805 -81.01 0.019532 -175.1
8.82060000 0.019527 -166.9 0.999805 -81.01 0.999805 -81.01 0.019526 -175.1
8.82080000 0.019520 -166.9 0.999806 -81.01 0.999806 -81.01 0.019520 -175.1
8.82100000 0.019514 -166.9 0.999806 -81.01 0.999806 -81.01 0.019514 -175.1
8.82120000 0.019508 -166.9 0.999806 -81.02 0.999806 -81.02 0.019508 -175.1
8.82140000 0.019502 -166.9 0.999806 -81.02 0.999806 -81.02 0.019502 -175.1
8.82160000 0.019496 -166.9 0.999806 -81.02 0.999806 -81.02 0.019495 -175.1
8.82180000 0.019489 -166.9 0.999806 -81.02 0.999806 -81.02 0.019489 -175.1
8.82200000 0.019483 -166.9 0.999806 -81.02 0.999806 -81.02 0.019483 -175.2
8.82220000 0.019477 -166.9 0.999806 -81.03 0.999806 -81.03 0.019477 -175.2
8.82240000 0.019470 -166.9 0.999806 -81.03 0.999806 -81.03 0.019470 -175.2
8.82260000 0.019464 -166.9 0.999807 -81.03 0.999807 -81.03 0.019464 -175.2
8.82280000 0.019458 -166.9 0.999807 -81.03 0.999807 -81.03 0.019457 -175.2
8.82300000 0.019451 -166.9 0.999807 -81.04 0.999807 -81.04 0.019451 -175.2
8.82320000 0.019445 -166.9 0.999807 -81.04 0.999807 -81.04 0.019444 -175.2
8.82340000 0.019438 -166.9 0.999807 -81.04 0.999807 -81.04 0.019438 -175.2
8.82360000 0.019431 -166.9 0.999807 -81.04 0.999807 -81.04 0.019431 -175.2
8.82380000 0.019425 -166.9 0.999807 -81.04 0.999807 -81.04 0.019425 -175.2
8.82400000 0.019418 -166.8 0.999807 -81.05 0.999807 -81.05 0.019418 -175.3
8.82420000 0.019412 -166.8 0.999808 -81.05 0.999808 -81.05 0.019411 -175.3
8.82440000 0.019405 -166.8 0.999808 -81.05 0.999808 -81.05 0.019405 -175.3
8.82460000 0.019398 -166.8 0.999808 -81.05 0.999808 -81.05 0.019398 -175.3
8.82480000 0.019391 -166.8 0.999808 -81.06 0.999808 -81.06 0.019391 -175.3
8.82500000 0.019385 -166.8 0.999808 -81.06 0.999808 -81.06 0.019384 -175.3
8.82520000 0.019378 -166.8 0.999808 -81.06 0.999808 -81.06 0.019377 -175.3
8.82540000 0.019371 -166.8 0.999808 -81.06 0.999808 -81.06 0.019371 -175.3
8.82560000 0.019364 -166.8 0.999808 -81.07 0.999808 -81.07 0.019364 -175.3
8.82580000 0.019357 -166.8 0.999809 -81.07 0.999809 -81.07 0.019357 -175.3
8.82600000 0.019350 -166.8 0.999809 -81.07 0.999809 -81.07 0.019350 -175.4
8.82620000 0.019343 -166.8 0.999809 -81.07 0.999809 -81.07 0.019343 -175.4
8.82640000 0.019336 -166.8 0.999809 -81.07 0.999809 -81.07 0.019336 -175.4
8.82660000 0.019329 -166.8 0.999809 -81.08 0.999809 -81.08 0.019328 -175.4
8.82680000 0.019322 -166.8 0.999809 -81.08 0.999809 -81.08 0.019321 -175.4
8.82700000 0.019314 -166.8 0.999809 -81.08 0.999809 -81.08 0.019314 -175.4
8.82720000 0.019307 -166.8 0.999810 -81.08 0.999810 -81.08 0.019307 -175.4
8.82740000 0.019300 -166.7 0.999810 -81.09 0.999810 -81.09 0.019300 -175.4
8.82760000 0.019293 -166.7 0.999810 -81.09 0.999810 -81.09 0.019292 -175.4
8.82780000 0.019285 -166.7 0.999810 -81.09 0.999810 -81.09 0.019285 -175.5
8.82800000 0.019278 -166.7 0.999810 -81.09 0.999810 -81.09 0.019278 -175.5
8.82820000 0.019270 -166.7 0.999810 -81.09 0.999810 -81.09 0.019270 -175.5
8.82840000 0.019263 -166.7 0.999810 -81.10 0.999810 -81.10 0.019263 -175.5
8.82860000 0.019255 -166.7 0.999810 -81.10 0.999810 -81.10 0.019255 -175.5
8.82880000 0.019248 -166.7 0.999811 -81.10 0.999811 -81.10 0.019248 -175.5
8.82900000 0.019240 -166.7 0.999811 -81.10 0.999811 -81.10 0.019240 -175.5
8.82920000 0.019233 -166.7 0.999811 -81.11 0.999811 -81.11 0.019232 -175.5
8.82940000 0.019225 -166.7 0.999811 -81.11 0.999811 -81.11 0.019225 -175.6
8.82960000 0.019217 -166.7 0.999811 -81.11 0.999811 -81.11 0.019217 -175.6
8.82980000 0.019209 -166.7 0.999811 -81.11 0.999811 -81.11 0.019209 -175.6
8.83000000 0.019202 -166.7 0.999811 -81.12 0.999811 -81.12 0.019201 -175.6
8.83020000 0.019194 -166.6 0.999812 -81.12 0.999812 -81.12 0.019193 -175.6
8.83040000 0.019186 -166.6 0.999812 -81.12 0.999812 -81.12 0.019186 -175.6
8.83060000 0.019178 -166.6 0.999812 -81.12 0.999812 -81.12 0.019178 -175.6
8.83080000 0.019170 -166.6 0.999812 -81.12 0.999812 -81.12 0.019170 -175.6
8.83100000 0.019162 -166.6 0.999812 -81.13 0.999812 -81.13 0.019162 -175.6
8.83120000 0.019154 -166.6 0.999812 -81.13 0.999812 -81.13 0.019153 -175.7
8.83140000 0.019146 -166.6 0.999813 -81.13 0.999813 -81.13 0.019145 -175.7
8.83160000 0.019137 -166.6 0.999813 -81.13 0.999813 -81.13 0.019137 -175.7
8.83180000 0.019129 -166.6 0.999813 -81.14 0.999813 -81.14 0.019129 -175.7
8.83200000 0.019121 -166.6 0.999813 -81.14 0.999813 -81.14 0.019121 -175.7
8.83220000 0.019113 -166.6 0.999813 -81.14 0.999813 -81.14 0.019112 -175.7
8.83240000 0.019104 -166.6 0.999813 -81.14 0.999813 -81.14 0.019104 -175.7
8.83260000 0.019096 -166.6 0.999813 -81.15 0.999813 -81.15 0.019096 -175.7
8.83280000 0.019087 -166.5 0.999814 -81.15 0.999814 -81.15 0.019087 -175.8
8.83300000 0.019079 -166.5 0.999814 -81.15 0.999814 -81.15 0.019079 -175.8
8.83320000 0.019070 -166.5 0.999814 -81.15 0.999814 -81.15 0.019070 -175.8
8.83340000 0.019062 -166.5 0.999814 -81.16 0.999814 -81.16 0.019061 -175.8
8.83360000 0.019053 -166.5 0.999814 -81.16 0.999814 -81.16 0.019053 -175.8
8.83380000 0.019044 -166.5 0.999814 -81.16 0.999814 -81.16 0.019044 -175.8
8.83400000 0.019036 -166.5 0.999815 -81.16 0.999815 -81.16 0.019035 -175.8
8.83420000 0.019027 -166.5 0.999815 -81.17 0.999815 -81.17 0.019026 -175.9
8.83440000 0.019018 -166.5 0.999815 -81.17 0.999815 -81.17 0.019017 -175.9
8.83460000 0.019009 -166.5 0.999815 -81.17 0.999815 -81.17 0.019008 -175.9
8.83480000 0.019000 -166.5 0.999815 -81.17 0.999815 -81.17 0.018999 -175.9
8.83500000 0.018991 -166.4 0.999815 -81.17 0.999815 -81.17 0.018990 -175.9
8.83520000 0.018982 -166.4 0.999816 -81.18 0.999816 -81.18 0.018981 -175.9
8.83540000 0.018973 -166.4 0.999816 -81.18 0.999816 -81.18 0.018972 -175.9
8.83560000 0.018963 -166.4 0.999816 -81.18 0.999816 -81.18 0.018963 -176.0
8.83580000 0.018954 -166.4 0.999816 -81.18 0.999816 -81.18 0.018954 -176.0
8.83600000 0.018945 -166.4 0.999816 -81.19 0.999816 -81.19 0.018944 -176.0
8.83620000 0.018935 -166.4 0.999816 -81.19 0.999816 -81.19 0.018935 -176.0
8.83640000 0.018926 -166.4 0.999817 -81.19 0.999817 -81.19 0.018926 -176.0
8.83660000 0.018916 -166.4 0.999817 -81.19 0.999817 -81.19 0.018916 -176.0
8.83680000 0.018907 -166.4 0.999817 -81.20 0.999817 -81.20 0.018906 -176.0
8.83700000 0.018897 -166.4 0.999817 -81.20 0.999817 -81.20 0.018897 -176.1
8.83720000 0.018888 -166.3 0.999817 -81.20 0.999817 -81.20 0.018887 -176.1
8.83740000 0.018878 -166.3 0.999817 -81.20 0.999817 -81.20 0.018877 -176.1
8.83760000 0.018868 -166.3 0.999818 -81.21 0.999818 -81.21 0.018868 -176.1
8.83780000 0.018858 -166.3 0.999818 -81.21 0.999818 -81.21 0.018858 -176.1
8.83800000 0.018848 -166.3 0.999818 -81.21 0.999818 -81.21 0.018848 -176.1
8.83820000 0.018838 -166.3 0.999818 -81.21 0.999818 -81.21 0.018838 -176.1
8.83840000 0.018828 -166.3 0.999818 -81.22 0.999818 -81.22 0.018828 -176.2
8.83860000 0.018818 -166.3 0.999819 -81.22 0.999819 -81.22 0.018818 -176.2
8.83880000 0.018808 -166.3 0.999819 -81.22 0.999819 -81.22 0.018807 -176.2
8.83900000 0.018798 -166.2 0.999819 -81.22 0.999819 -81.22 0.018797 -176.2
8.83920000 0.018787 -166.2 0.999819 -81.23 0.999819 -81.23 0.018787 -176.2
8.83940000 0.018777 -166.2 0.999819 -81.23 0.999819 -81.23 0.018776 -176.2
8.83960000 0.018766 -166.2 0.999819 -81.23 0.999819 -81.23 0.018766 -176.3
8.83980000 0.018756 -166.2 0.999820 -81.23 0.999820 -81.23 0.018755 -176.3
8.84000000 0.018745 -166.2 0.999820 -81.24 0.999820 -81.24 0.018745 -176.3
8.84020000 0.018735 -166.2 0.999820 -81.24 0.999820 -81.24 0.018734 -176.3
8.84040000 0.018724 -166.2 0.999820 -81.24 0.999820 -81.24 0.018723 -176.3
8.84060000 0.018713 -166.2 0.999820 -81.24 0.999820 -81.24 0.018713 -176.3
8.84080000 0.018702 -166.1 0.999821 -81.25 0.999821 -81.25 0.018702 -176.4
8.84100000 0.018691 -166.1 0.999821 -81.25 0.999821 -81.25 0.018691 -176.4
8.84120000 0.018680 -166.1 0.999821 -81.25 0.999821 -81.25 0.018680 -176.4
8.84140000 0.018669 -166.1 0.999821 -81.25 0.999821 -81.25 0.018669 -176.4
8.84160000 0.018658 -166.1 0.999821 -81.26 0.999821 -81.26 0.018657 -176.4
8.84180000 0.018647 -166.1 0.999822 -81.26 0.999822 -81.26 0.018646 -176.4
8.84200000 0.018635 -166.1 0.999822 -81.26 0.999822 -81.26 0.018635 -176.5
8.84220000 0.018624 -166.1 0.999822 -81.26 0.999822 -81.26 0.018623 -176.5
8.84240000 0.018613 -166.1 0.999822 -81.27 0.999822 -81.27 0.018612 -176.5
8.84260000 0.018601 -166.0 0.999822 -81.27 0.999822 -81.27 0.018600 -176.5
8.84280000 0.018589 -166.0 0.999823 -81.27 0.999823 -81.27 0.018589 -176.5
8.84300000 0.018578 -166.0 0.999823 -81.27 0.999823 -81.27 0.018577 -176.5
8.84320000 0.018566 -166.0 0.999823 -81.28 0.999823 -81.28 0.018565 -176.6
8.84340000 0.018554 -166.0 0.999823 -81.28 0.999823 -81.28 0.018553 -176.6
8.84360000 0.018542 -166.0 0.999823 -81.28 0.999823 -81.28 0.018541 -176.6
8.84380000 0.018530 -166.0 0.999824 -81.28 0.999824 -81.28 0.018529 -176.6
8.84400000 0.018518 -165.9 0.999824 -81.29 0.999824 -81.29 0.018517 -176.6
8.84420000 0.018506 -165.9 0.999824 -81.29 0.999824 -81.29 0.018505 -176.7
8.84440000 0.018493 -165.9 0.999824 -81.29 0.999824 -81.29 0.018493 -176.7
8.84460000 0.018481 -165.9 0.999825 -81.29 0.999825 -81.29 0.018480 -176.7
8.84480000 0.018468 -165.9 0.999825 -81.30 0.999825 -81.30 0.018468 -176.7
8.84500000 0.018456 -165.9 0.999825 -81.30 0.999825 -81.30 0.018455 -176.7
8.84520000 0.018443 -165.9 0.999825 -81.30 0.999825 -81.30 0.018443 -176.7
8.84540000 0.018431 -165.8 0.999825 -81.31 0.999825 -81.31 0.018430 -176.8
8.84560000 0.018418 -165.8 0.999826 -81.31 0.999826 -81.31 0.018417 -176.8
8.84580000 0.018405 -165.8 0.999826 -81.31 0.999826 -81.31 0.018404 -176.8
8.84600000 0.018392 -165.8 0.999826 -81.31 0.999826 -81.31 0.018391 -176.8
8.84620000 0.018379 -165.8 0.999826 -81.32 0.999826 -81.32 0.018378 -176.9
8.84640000 0.018365 -165.8 0.999827 -81.32 0.999827 -81.32 0.018365 -176.9
8.84660000 0.018352 -165.8 0.999827 -81.32 0.999827 -81.32 0.018351 -176.9
8.84680000 0.018339 -165.7 0.999827 -81.32 0.999827 -81.32 0.018338 -176.9
8.84700000 0.018325 -165.7 0.999827 -81.33 0.999827 -81.33 0.018324 -176.9
8.84720000 0.018312 -165.7 0.999828 -81.33 0.999828 -81.33 0.018311 -177.0
8.84740000 0.018298 -165.7 0.999828 -81.33 0.999828 -81.33 0.018297 -177.0
8.84760000 0.018284 -165.7 0.999828 -81.33 0.999828 -81.33 0.018283 -177.0
8.84780000 0.018270 -165.7 0.999828 -81.34 0.999828 -81.34 0.018269 -177.0
8.84800000 0.018256 -165.6 0.999829 -81.34 0.999829 -81.34 0.018255 -177.0
8.84820000 0.018242 -165.6 0.999829 -81.34 0.999829 -81.34 0.018241 -177.1
8.84840000 0.018228 -165.6 0.999829 -81.35 0.999829 -81.35 0.018227 -177.1
8.84860000 0.018213 -165.6 0.999829 -81.35 0.999829 -81.35 0.018212 -177.1
8.84880000 0.018199 -165.6 0.999829 -81.35 0.999829 -81.35 0.018198 -177.1
8.84900000 0.018184 -165.6 0.999830 -81.35 0.999830 -81.35 0.018183 -177.2
8.84920000 0.018170 -165.5 0.999830 -81.36 0.999830 -81.36 0.018169 -177.2
8.84940000 0.018155 -165.5 0.999830 -81.36 0.999830 -81.36 0.018154 -177.2
8.84960000 0.018140 -165.5 0.999831 -81.36 0.999831 -81.36 0.018139 -177.2
8.84980000 0.018125 -165.5 0.999831 -81.36 0.999831 -81.36 0.018124 -177.2
8.85000000 0.018110 -165.5 0.999831 -81.37 0.999831 -81.37 0.018109 -177.3
8.85020000 0.018094 -165.4 0.999831 -81.37 0.999831 -81.37 0.018094 -177.3
8.85040000 0.018079 -165.4 0.999832 -81.37 0.999832 -81.37 0.018078 -177.3
8.85060000 0.018064 -165.4 0.999832 -81.38 0.999832 -81.38 0.018063 -177.3
8.85080000 0.018048 -165.4 0.999832 -81.38 0.999832 -81.38 0.018047 -177.4
8.85100000 0.018032 -165.4 0.999832 -81.38 0.999832 -81.38 0.018031 -177.4
8.85120000 0.018016 -165.4 0.999833 -81.38 0.999833 -81.38 0.018015 -177.4
8.85140000 0.018000 -165.3 0.999833 -81.39 0.999833 -81.39 0.017999 -177.4
8.85160000 0.017984 -165.3 0.999833 -81.39 0.999833 -81.39 0.017983 -177.5
8.85180000 0.017968 -165.3 0.999833 -81.39 0.999833 -81.39 0.017967 -177.5
8.85200000 0.017952 -165.3 0.999834 -81.40 0.999834 -81.40 0.017950 -177.5
8.85220000 0.017935 -165.3 0.999834 -81.40 0.999834 -81.40 0.017934 -177.5
8.85240000 0.017918 -165.2 0.999834 -81.40 0.999834 -81.40 0.017917 -177.6
8.85260000 0.017901 -165.2 0.999835 -81.40 0.999835 -81.40 0.017900 -177.6
8.85280000 0.017885 -165.2 0.999835 -81.41 0.999835 -81.41 0.017883 -177.6
8.85300000 0.017867 -165.2 0.999835 -81.41 0.999835 -81.41 0.017866 -177.7
8.85320000 0.017850 -165.1 0.999835 -81.41 0.999835 -81.41 0.017849 -177.7
8.85340000 0.017833 -165.1 0.999836 -81.42 0.999836 -81.42 0.017832 -177.7
8.85360000 0.017815 -165.1 0.999836 -81.42 0.999836 -81.42 0.017814 -177.7
8.85380000 0.017798 -165.1 0.999836 -81.42 0.999836 -81.42 0.017797 -177.8
8.85400000 0.017780 -165.1 0.999837 -81.42 0.999837 -81.42 0.017779 -177.8
8.85420000 0.017762 -165.0 0.999837 -81.43 0.999837 -81.43 0.017761 -177.8
8.85440000 0.017744 -165.0 0.999837 -81.43 0.999837 -81.43 0.017743 -177.9
8.85460000 0.017726 -165.0 0.999838 -81.43 0.999838 -81.43 0.017724 -177.9
8.85480000 0.017707 -165.0 0.999838 -81.44 0.999838 -81.44 0.017706 -177.9
8.85500000 0.017688 -164.9 0.999838 -81.44 0.999838 -81.44 0.017687 -177.9
8.85520000 0.017670 -164.9 0.999838 -81.44 0.999838 -81.44 0.017669 -178.0
8.85540000 0.017651 -164.9 0.999839 -81.45 0.999839 -81.45 0.017650 -178.0
8.85560000 0.017632 -164.9 0.999839 -81.45 0.999839 -81.45 0.017630 -178.0
8.85580000 0.017612 -164.8 0.999839 -81.45 0.999839 -81.45 0.017611 -178.1
8.85600000 0.017593 -164.8 0.999840 -81.45 0.999840 -81.45 0.017592 -178.1
8.85620000 0.017573 -164.8 0.999840 -81.46 0.999840 -81.46 0.017572 -178.1
8.85640000 0.017554 -164.8 0.999840 -81.46 0.999840 -81.46 0.017552 -178.2
8.85660000 0.017534 -164.7 0.999841 -81.46 0.999841 -81.46 0.017532 -178.2
8.85680000 0.017514 -164.7 0.999841 -81.47 0.999841 -81.47 0.017512 -178.2
8.85700000 0.017493 -164.7 0.999841 -81.47 0.999841 -81.47 0.017492 -178.3
8.85720000 0.017473 -164.6 0.999842 -81.47 0.999842 -81.47 0.017471 -178.3
8.85740000 0.017452 -164.6 0.999842 -81.48 0.999842 -81.48 0.017451 -178.3
8.85760000 0.017431 -164.6 0.999842 -81.48 0.999842 -81.48 0.017430 -178.4
8.85780000 0.017410 -164.6 0.999843 -81.48 0.999843 -81.48 0.017409 -178.4
8.85800000 0.017389 -164.5 0.999843 -81.49 0.999843 -81.49 0.017388 -178.4
8.85820000 0.017368 -164.5 0.999843 -81.49 0.999843 -81.49 0.017366 -178.5
8.85840000 0.017346 -164.5 0.999844 -81.49 0.999844 -81.49 0.017344 -178.5
8.85860000 0.017324 -164.4 0.999844 -81.50 0.999844 -81.50 0.017323 -178.5
8.85880000 0.017302 -164.4 0.999845 -81.50 0.999845 -81.50 0.017300 -178.6
8.85900000 0.017280 -164.4 0.999845 -81.50 0.999845 -81.50 0.017278 -178.6
8.85920000 0.017257 -164.4 0.999845 -81.51 0.999845 -81.51 0.017256 -178.7
8.85940000 0.017235 -164.3 0.999846 -81.51 0.999846 -81.51 0.017233 -178.7
8.85960000 0.017212 -164.3 0.999846 -81.51 0.999846 -81.51 0.017210 -178.7
8.85980000 0.017188 -164.3 0.999846 -81.52 0.999846 -81.52 0.017187 -178.8
8.86000000 0.017165 -164.2 0.999847 -81.52 0.999847 -81.52 0.017163 -178.8
8.86020000 0.017142 -164.2 0.999847 -81.52 0.999847 -81.52 0.017140 -178.9
8.86040000 0.017118 -164.2 0.999848 -81.53 0.999848 -81.53 0.017116 -178.9
8.86060000 0.017094 -164.1 0.999848 -81.53 0.999848 -81.53 0.017092 -178.9
8.86080000 0.017069 -164.1 0.999848 -81.53 0.999848 -81.53 0.017068 -179.0
8.86100000 0.017045 -164.0 0.999849 -81.54 0.999849 -81.54 0.017043 -179.0
8.86120000 0.017020 -164.0 0.999849 -81.54 0.999849 -81.54 0.017018 -179.1
8.86140000 0.016995 -164.0 0.999849 -81.54 0.999849 -81.54 0.016993 -179.1
8.86160000 0.016970 -163.9 0.999850 -81.55 0.999850 -81.55 0.016968 -179.2
8.86180000 0.016944 -163.9 0.999850 -81.55 0.999850 -81.55 0.016943 -179.2
8.86200000 0.016919 -163.9 0.999851 -81.55 0.999851 -81.55 0.016917 -179.2
8.86220000 0.016893 -163.8 0.999851 -81.56 0.999851 -81.56 0.016891 -179.3
8.86240000 0.016866 -163.8 0.999851 -81.56 0.999851 -81.56 0.016864 -179.3
8.86260000 0.016840 -163.7 0.999852 -81.56 0.999852 -81.56 0.016838 -179.4
8.86280000 0.016813 -163.7 0.999852 -81.57 0.999852 -81.57 0.016811 -179.4
8.86300000 0.016786 -163.7 0.999853 -81.57 0.999853 -81.57 0.016784 -179.5
8.86320000 0.016758 -163.6 0.999853 -81.57 0.999853 -81.57 0.016756 -179.5
8.86340000 0.016731 -163.6 0.999854 -81.58 0.999854 -81.58 0.016729 -179.6
8.86360000 0.016703 -163.5 0.999854 -81.58 0.999854 -81.58 0.016701 -179.6
8.86380000 0.016674 -163.5 0.999854 -81.58 0.999854 -81.58 0.016672 -179.7
8.86400000 0.016646 -163.4 0.999855 -81.59 0.999855 -81.59 0.016644 -179.7
8.86420000 0.016617 -163.4 0.999855 -81.59 0.999855 -81.59 0.016615 -179.8
8.86440000 0.016588 -163.4 0.999856 -81.60 0.999856 -81.60 0.016585 -179.8
8.86460000 0.016558 -163.3 0.999856 -81.60 0.999856 -81.60 0.016556 -179.9
8.86480000 0.016528 -163.3 0.999857 -81.60 0.999857 -81.60 0.016526 -179.9
8.86500000 0.016498 -163.2 0.999857 -81.61 0.999857 -81.61 0.016496 -180.0
8.86520000 0.016468 -163.2 0.999858 -81.61 0.999858 -81.61 0.016465 179.95
8.86540000 0.016437 -163.1 0.999858 -81.61 0.999858 -81.61 0.016434 179.89
8.86560000 0.016406 -163.1 0.999859 -81.62 0.999859 -81.62 0.016403 179.84
8.86580000 0.016374 -163.0 0.999859 -81.62 0.999859 -81.62 0.016372 179.78
8.86600000 0.016342 -163.0 0.999860 -81.63 0.999860 -81.63 0.016340 179.72
8.86620000 0.016310 -162.9 0.999860 -81.63 0.999860 -81.63 0.016307 179.66
8.86640000 0.016277 -162.9 0.999860 -81.63 0.999860 -81.63 0.016275 179.60
8.86660000 0.016245 -162.8 0.999861 -81.64 0.999861 -81.64 0.016242 179.53
8.86680000 0.016211 -162.7 0.999861 -81.64 0.999861 -81.64 0.016208 179.47
8.86700000 0.016177 -162.7 0.999862 -81.65 0.999862 -81.65 0.016175 179.41
8.86720000 0.016143 -162.6 0.999862 -81.65 0.999862 -81.65 0.016140 179.34
8.86740000 0.016109 -162.6 0.999863 -81.65 0.999863 -81.65 0.016106 179.28
8.86760000 0.016074 -162.5 0.999864 -81.66 0.999864 -81.66 0.016071 179.21
8.86780000 0.016039 -162.5 0.999864 -81.66 0.999864 -81.66 0.016036 179.14
8.86800000 0.016003 -162.4 0.999865 -81.67 0.999865 -81.67 0.016000 179.07
8.86820000 0.015967 -162.3 0.999865 -81.67 0.999865 -81.67 0.015964 179.00
8.86840000 0.015930 -162.3 0.999866 -81.67 0.999866 -81.67 0.015927 178.93
8.86860000 0.015893 -162.2 0.999866 -81.68 0.999866 -81.68 0.015890 178.86
8.86880000 0.015855 -162.1 0.999867 -81.68 0.999867 -81.68 0.015852 178.78
8.86900000 0.015818 -162.1 0.999867 -81.69 0.999867 -81.69 0.015814 178.71
8.86920000 0.015779 -162.0 0.999868 -81.69 0.999868 -81.69 0.015776 178.63
8.86940000 0.015740 -161.9 0.999868 -81.70 0.999868 -81.70 0.015737 178.55
8.86960000 0.015701 -161.9 0.999869 -81.70 0.999869 -81.70 0.015697 178.47
8.86980000 0.015661 -161.8 0.999869 -81.70 0.999869 -81.70 0.015657 178.39
8.87000000 0.015621 -161.7 0.999870 -81.71 0.999870 -81.71 0.015617 178.31
8.87020000 0.015580 -161.6 0.999871 -81.71 0.999871 -81.71 0.015576 178.23
8.87030310 0.015558 -161.6 0.999871 -81.72 0.999871 -81.72 0.015555 178.18
8.87040000 0.015538 -161.6 0.999871 -81.72 0.999871 -81.72 0.015535 178.14
8.87060000 0.015496 -161.5 0.999872 -81.72 0.999872 -81.72 0.015493 178.06
8.87080000 0.015454 -161.4 0.999872 -81.73 0.999872 -81.73 0.015450 177.97
8.87099010 0.015413 -161.3 0.999873 -81.73 0.999873 -81.73 0.015409 177.88
8.87100000 0.015411 -161.3 0.999873 -81.73 0.999873 -81.73 0.015407 177.88
8.87120000 0.015367 -161.2 0.999874 -81.74 0.999874 -81.74 0.015363 177.79
8.87140000 0.015323 -161.2 0.999874 -81.74 0.999874 -81.74 0.015319 177.69
8.87160000 0.015279 -161.1 0.999875 -81.75 0.999875 -81.75 0.015274 177.60
8.87166135 0.015265 -161.0 0.999875 -81.75 0.999875 -81.75 0.015261 177.57
8.87180000 0.015233 -161.0 0.999875 -81.75 0.999875 -81.75 0.015229 177.50
8.87200000 0.015187 -160.9 0.999876 -81.76 0.999876 -81.76 0.015183 177.40
8.87220000 0.015141 -160.8 0.999877 -81.76 0.999877 -81.76 0.015137 177.30
8.87231722 0.015113 -160.7 0.999877 -81.76 0.999877 -81.76 0.015109 177.24
8.87240000 0.015094 -160.7 0.999877 -81.77 0.999877 -81.77 0.015089 177.20
8.87260000 0.015046 -160.6 0.999878 -81.77 0.999878 -81.77 0.015041 177.09
8.87280000 0.014998 -160.5 0.999879 -81.78 0.999879 -81.78 0.014993 176.99
8.87295806 0.014959 -160.4 0.999879 -81.78 0.999879 -81.78 0.014954 176.90
8.87300000 0.014949 -160.4 0.999879 -81.78 0.999879 -81.78 0.014944 176.88
8.87320000 0.014899 -160.3 0.999880 -81.79 0.999880 -81.79 0.014894 176.77
8.87340000 0.014848 -160.2 0.999881 -81.79 0.999881 -81.79 0.014843 176.65
8.87358422 0.014801 -160.1 0.999881 -81.80 0.999881 -81.80 0.014796 176.54
8.87360000 0.014797 -160.1 0.999881 -81.80 0.999881 -81.80 0.014792 176.54
8.87380000 0.014745 -160.0 0.999882 -81.80 0.999882 -81.80 0.014740 176.42
8.87400000 0.014693 -159.9 0.999883 -81.81 0.999883 -81.81 0.014688 176.29
8.87419602 0.014641 -159.8 0.999883 -81.81 0.999883 -81.81 0.014635 176.17
8.87420000 0.014639 -159.8 0.999883 -81.81 0.999883 -81.81 0.014634 176.17
8.87440000 0.014585 -159.7 0.999884 -81.82 0.999884 -81.82 0.014580 176.04
8.87460000 0.014530 -159.5 0.999885 -81.82 0.999885 -81.82 0.014525 175.91
8.87479382 0.014477 -159.4 0.999885 -81.83 0.999885 -81.83 0.014471 175.78
8.87480000 0.014475 -159.4 0.999885 -81.83 0.999885 -81.83 0.014469 175.78
8.87500000 0.014418 -159.3 0.999886 -81.83 0.999886 -81.83 0.014413 175.64
8.87520000 0.014361 -159.2 0.999887 -81.84 0.999887 -81.84 0.014355 175.51
8.87537791 0.014309 -159.0 0.999887 -81.84 0.999887 -81.84 0.014303 175.38
8.87540000 0.014303 -159.0 0.999887 -81.85 0.999887 -81.85 0.014297 175.36
8.87560000 0.014244 -158.9 0.999888 -81.85 0.999888 -81.85 0.014238 175.22
8.87580000 0.014184 -158.7 0.999889 -81.86 0.999889 -81.86 0.014178 175.07
8.87594862 0.014139 -158.6 0.999890 -81.86 0.999890 -81.86 0.014133 174.95
8.87600000 0.014123 -158.6 0.999890 -81.86 0.999890 -81.86 0.014117 174.91
8.87620000 0.014062 -158.5 0.999890 -81.87 0.999890 -81.87 0.014055 174.76
8.87640000 0.013999 -158.3 0.999891 -81.87 0.999891 -81.87 0.013992 174.60