! Sonnet Data File
! From: emgraph Version : 16.52
! From Project: Resonator2_cp
! Data is De-embedded 
! Data File Written: 10/09/2017 00:47:19
!< HDATE 10/08/2017 10:09:33
!< MDATE 10/08/2017 10:09:33
!< PARAMS
!< Length = 400.0
!< Pwid1 = 2000.0
!< Pwid2 = 2000.0
!< Air_gap = 18.0
!< Width = 30.0
!< gap = 26.0
!< END PARAMS
# GHZ S MA R 51.00000
8.90000000 0.007010 -173.0 0.999972 -81.57 0.999972 -81.57 0.007010 -170.2
!< P1 F=8.9 Eeff=(6.44504261 -2.9711e-5) Z0=(50.6185376 1.16782e-4) R=0.0 C=0.0 
!< P2 F=8.9 Eeff=(6.44504261 -2.9711e-5) Z0=(50.6185376 1.16782e-4) R=0.0 C=0.0 
8.90010000 0.007012 -173.0 0.999972 -81.57 0.999972 -81.57 0.007012 -170.2
8.90020000 0.007014 -173.0 0.999972 -81.57 0.999972 -81.57 0.007014 -170.2
8.90030000 0.007016 -173.0 0.999972 -81.58 0.999972 -81.58 0.007017 -170.2
8.90040000 0.007019 -173.0 0.999972 -81.58 0.999972 -81.58 0.007019 -170.2
8.90050000 0.007021 -173.1 0.999972 -81.58 0.999972 -81.58 0.007021 -170.1
8.90060000 0.007023 -173.1 0.999972 -81.58 0.999972 -81.58 0.007023 -170.1
8.90070000 0.007026 -173.1 0.999972 -81.58 0.999972 -81.58 0.007026 -170.1
8.90080000 0.007028 -173.1 0.999972 -81.58 0.999972 -81.58 0.007028 -170.1
8.90090000 0.007030 -173.1 0.999972 -81.58 0.999972 -81.58 0.007030 -170.1
8.90100000 0.007032 -173.1 0.999971 -81.58 0.999971 -81.58 0.007033 -170.1
8.90110000 0.007035 -173.1 0.999971 -81.58 0.999971 -81.58 0.007035 -170.1
8.90120000 0.007037 -173.1 0.999971 -81.59 0.999971 -81.59 0.007037 -170.1
8.90130000 0.007039 -173.1 0.999971 -81.59 0.999971 -81.59 0.007040 -170.1
8.90140000 0.007042 -173.1 0.999971 -81.59 0.999971 -81.59 0.007042 -170.1
8.90150000 0.007044 -173.1 0.999971 -81.59 0.999971 -81.59 0.007044 -170.1
8.90160000 0.007046 -173.1 0.999971 -81.59 0.999971 -81.59 0.007047 -170.1
8.90170000 0.007049 -173.1 0.999971 -81.59 0.999971 -81.59 0.007049 -170.1
8.90180000 0.007051 -173.1 0.999971 -81.59 0.999971 -81.59 0.007051 -170.1
8.90190000 0.007054 -173.2 0.999971 -81.59 0.999971 -81.59 0.007054 -170.1
8.90200000 0.007056 -173.2 0.999971 -81.59 0.999971 -81.59 0.007056 -170.1
8.90210000 0.007058 -173.2 0.999971 -81.59 0.999971 -81.59 0.007059 -170.1
8.90220000 0.007061 -173.2 0.999971 -81.60 0.999971 -81.60 0.007061 -170.1
8.90230000 0.007063 -173.2 0.999971 -81.60 0.999971 -81.60 0.007063 -170.1
8.90240000 0.007066 -173.2 0.999971 -81.60 0.999971 -81.60 0.007066 -170.1
8.90250000 0.007068 -173.2 0.999971 -81.60 0.999971 -81.60 0.007068 -170.0
8.90260000 0.007070 -173.2 0.999971 -81.60 0.999971 -81.60 0.007071 -170.0
8.90270000 0.007073 -173.2 0.999971 -81.60 0.999971 -81.60 0.007073 -170.0
8.90280000 0.007075 -173.2 0.999971 -81.60 0.999971 -81.60 0.007076 -170.0
8.90290000 0.007078 -173.2 0.999971 -81.60 0.999971 -81.60 0.007078 -170.0
8.90300000 0.007080 -173.2 0.999971 -81.60 0.999971 -81.60 0.007080 -170.0
8.90310000 0.007083 -173.2 0.999971 -81.61 0.999971 -81.61 0.007083 -170.0
8.90320000 0.007085 -173.2 0.999971 -81.61 0.999971 -81.61 0.007085 -170.0
8.90330000 0.007088 -173.3 0.999971 -81.61 0.999971 -81.61 0.007088 -170.0
8.90340000 0.007090 -173.3 0.999971 -81.61 0.999971 -81.61 0.007090 -170.0
8.90350000 0.007093 -173.3 0.999971 -81.61 0.999971 -81.61 0.007093 -170.0
8.90360000 0.007095 -173.3 0.999971 -81.61 0.999971 -81.61 0.007095 -170.0
8.90370000 0.007098 -173.3 0.999971 -81.61 0.999971 -81.61 0.007098 -170.0
8.90380000 0.007100 -173.3 0.999971 -81.61 0.999971 -81.61 0.007101 -170.0
8.90390000 0.007103 -173.3 0.999971 -81.61 0.999971 -81.61 0.007103 -170.0
8.90400000 0.007105 -173.3 0.999971 -81.62 0.999971 -81.62 0.007106 -170.0
8.90410000 0.007108 -173.3 0.999971 -81.62 0.999971 -81.62 0.007108 -170.0
8.90420000 0.007111 -173.3 0.999971 -81.62 0.999971 -81.62 0.007111 -170.0
8.90430000 0.007113 -173.3 0.999971 -81.62 0.999971 -81.62 0.007113 -169.9
8.90440000 0.007116 -173.3 0.999971 -81.62 0.999971 -81.62 0.007116 -169.9
8.90450000 0.007118 -173.3 0.999971 -81.62 0.999971 -81.62 0.007119 -169.9
8.90460000 0.007121 -173.4 0.999971 -81.62 0.999971 -81.62 0.007121 -169.9
8.90470000 0.007124 -173.4 0.999971 -81.62 0.999971 -81.62 0.007124 -169.9
8.90480000 0.007126 -173.4 0.999971 -81.62 0.999971 -81.62 0.007127 -169.9
8.90490000 0.007129 -173.4 0.999971 -81.62 0.999971 -81.62 0.007129 -169.9
8.90500000 0.007132 -173.4 0.999971 -81.63 0.999971 -81.63 0.007132 -169.9
8.90510000 0.007134 -173.4 0.999971 -81.63 0.999971 -81.63 0.007135 -169.9
8.90520000 0.007137 -173.4 0.999971 -81.63 0.999971 -81.63 0.007137 -169.9
8.90530000 0.007140 -173.4 0.999971 -81.63 0.999971 -81.63 0.007140 -169.9
8.90540000 0.007142 -173.4 0.999971 -81.63 0.999971 -81.63 0.007143 -169.9
8.90550000 0.007145 -173.4 0.999971 -81.63 0.999971 -81.63 0.007145 -169.9
8.90560000 0.007148 -173.4 0.999971 -81.63 0.999971 -81.63 0.007148 -169.9
8.90570000 0.007151 -173.4 0.999971 -81.63 0.999971 -81.63 0.007151 -169.9
8.90580000 0.007153 -173.5 0.999971 -81.63 0.999971 -81.63 0.007153 -169.9
8.90590000 0.007156 -173.5 0.999971 -81.64 0.999971 -81.64 0.007156 -169.9
8.90600000 0.007159 -173.5 0.999970 -81.64 0.999970 -81.64 0.007159 -169.9
8.90610000 0.007162 -173.5 0.999970 -81.64 0.999970 -81.64 0.007162 -169.8
8.90620000 0.007164 -173.5 0.999970 -81.64 0.999970 -81.64 0.007165 -169.8
8.90630000 0.007167 -173.5 0.999970 -81.64 0.999970 -81.64 0.007167 -169.8
8.90640000 0.007170 -173.5 0.999970 -81.64 0.999970 -81.64 0.007170 -169.8
8.90650000 0.007173 -173.5 0.999970 -81.64 0.999970 -81.64 0.007173 -169.8
8.90660000 0.007176 -173.5 0.999970 -81.64 0.999970 -81.64 0.007176 -169.8
8.90670000 0.007178 -173.5 0.999970 -81.64 0.999970 -81.64 0.007179 -169.8
8.90680000 0.007181 -173.5 0.999970 -81.65 0.999970 -81.65 0.007181 -169.8
8.90690000 0.007184 -173.5 0.999970 -81.65 0.999970 -81.65 0.007184 -169.8
8.90700000 0.007187 -173.6 0.999970 -81.65 0.999970 -81.65 0.007187 -169.8
8.90710000 0.007190 -173.6 0.999970 -81.65 0.999970 -81.65 0.007190 -169.8
8.90720000 0.007193 -173.6 0.999970 -81.65 0.999970 -81.65 0.007193 -169.8
8.90730000 0.007196 -173.6 0.999970 -81.65 0.999970 -81.65 0.007196 -169.8
8.90740000 0.007199 -173.6 0.999970 -81.65 0.999970 -81.65 0.007199 -169.8
8.90750000 0.007201 -173.6 0.999970 -81.65 0.999970 -81.65 0.007202 -169.8
8.90760000 0.007204 -173.6 0.999970 -81.65 0.999970 -81.65 0.007205 -169.8
8.90770000 0.007207 -173.6 0.999970 -81.66 0.999970 -81.66 0.007208 -169.7
8.90780000 0.007210 -173.6 0.999970 -81.66 0.999970 -81.66 0.007211 -169.7
8.90790000 0.007213 -173.6 0.999970 -81.66 0.999970 -81.66 0.007214 -169.7
8.90800000 0.007216 -173.6 0.999970 -81.66 0.999970 -81.66 0.007217 -169.7
8.90810000 0.007219 -173.6 0.999970 -81.66 0.999970 -81.66 0.007220 -169.7
8.90820000 0.007222 -173.7 0.999970 -81.66 0.999970 -81.66 0.007223 -169.7
8.90830000 0.007225 -173.7 0.999970 -81.66 0.999970 -81.66 0.007226 -169.7
8.90840000 0.007228 -173.7 0.999970 -81.66 0.999970 -81.66 0.007229 -169.7
8.90850000 0.007231 -173.7 0.999970 -81.66 0.999970 -81.66 0.007232 -169.7
8.90860000 0.007234 -173.7 0.999970 -81.66 0.999970 -81.66 0.007235 -169.7
8.90870000 0.007237 -173.7 0.999970 -81.67 0.999970 -81.67 0.007238 -169.7
8.90880000 0.007241 -173.7 0.999970 -81.67 0.999970 -81.67 0.007241 -169.7
8.90890000 0.007244 -173.7 0.999970 -81.67 0.999970 -81.67 0.007244 -169.7
8.90900000 0.007247 -173.7 0.999970 -81.67 0.999970 -81.67 0.007247 -169.7
8.90910000 0.007250 -173.7 0.999970 -81.67 0.999970 -81.67 0.007250 -169.7
8.90920000 0.007253 -173.7 0.999970 -81.67 0.999970 -81.67 0.007253 -169.6
8.90930000 0.007256 -173.7 0.999970 -81.67 0.999970 -81.67 0.007256 -169.6
8.90940000 0.007259 -173.8 0.999970 -81.67 0.999970 -81.67 0.007260 -169.6
8.90950000 0.007262 -173.8 0.999970 -81.67 0.999970 -81.67 0.007263 -169.6
8.90960000 0.007266 -173.8 0.999970 -81.68 0.999970 -81.68 0.007266 -169.6
8.90970000 0.007269 -173.8 0.999970 -81.68 0.999970 -81.68 0.007269 -169.6
8.90980000 0.007272 -173.8 0.999970 -81.68 0.999970 -81.68 0.007272 -169.6
8.90990000 0.007275 -173.8 0.999970 -81.68 0.999970 -81.68 0.007276 -169.6
8.91000000 0.007279 -173.8 0.999970 -81.68 0.999970 -81.68 0.007279 -169.6
8.91010000 0.007282 -173.8 0.999969 -81.68 0.999969 -81.68 0.007282 -169.6
8.91020000 0.007285 -173.8 0.999969 -81.68 0.999969 -81.68 0.007285 -169.6
8.91030000 0.007288 -173.8 0.999969 -81.68 0.999969 -81.68 0.007289 -169.6
8.91040000 0.007292 -173.8 0.999969 -81.68 0.999969 -81.68 0.007292 -169.6
8.91050000 0.007295 -173.9 0.999969 -81.69 0.999969 -81.69 0.007295 -169.6
8.91060000 0.007298 -173.9 0.999969 -81.69 0.999969 -81.69 0.007298 -169.6
8.91070000 0.007302 -173.9 0.999969 -81.69 0.999969 -81.69 0.007302 -169.5
8.91080000 0.007305 -173.9 0.999969 -81.69 0.999969 -81.69 0.007305 -169.5
8.91090000 0.007308 -173.9 0.999969 -81.69 0.999969 -81.69 0.007309 -169.5
8.91100000 0.007312 -173.9 0.999969 -81.69 0.999969 -81.69 0.007312 -169.5
8.91110000 0.007315 -173.9 0.999969 -81.69 0.999969 -81.69 0.007315 -169.5
8.91120000 0.007318 -173.9 0.999969 -81.69 0.999969 -81.69 0.007319 -169.5
8.91130000 0.007322 -173.9 0.999969 -81.69 0.999969 -81.69 0.007322 -169.5
8.91140000 0.007325 -173.9 0.999969 -81.70 0.999969 -81.70 0.007326 -169.5
8.91150000 0.007329 -174.0 0.999969 -81.70 0.999969 -81.70 0.007329 -169.5
8.91160000 0.007332 -174.0 0.999969 -81.70 0.999969 -81.70 0.007332 -169.5
8.91170000 0.007336 -174.0 0.999969 -81.70 0.999969 -81.70 0.007336 -169.5
8.91180000 0.007339 -174.0 0.999969 -81.70 0.999969 -81.70 0.007339 -169.5
8.91190000 0.007343 -174.0 0.999969 -81.70 0.999969 -81.70 0.007343 -169.5
8.91200000 0.007346 -174.0 0.999969 -81.70 0.999969 -81.70 0.007346 -169.5
8.91210000 0.007350 -174.0 0.999969 -81.70 0.999969 -81.70 0.007350 -169.4
8.91220000 0.007353 -174.0 0.999969 -81.71 0.999969 -81.71 0.007353 -169.4
8.91230000 0.007357 -174.0 0.999969 -81.71 0.999969 -81.71 0.007357 -169.4
8.91240000 0.007360 -174.0 0.999969 -81.71 0.999969 -81.71 0.007361 -169.4
8.91250000 0.007364 -174.0 0.999969 -81.71 0.999969 -81.71 0.007364 -169.4
8.91260000 0.007368 -174.1 0.999969 -81.71 0.999969 -81.71 0.007368 -169.4
8.91270000 0.007371 -174.1 0.999969 -81.71 0.999969 -81.71 0.007371 -169.4
8.91280000 0.007375 -174.1 0.999969 -81.71 0.999969 -81.71 0.007375 -169.4
8.91290000 0.007378 -174.1 0.999969 -81.71 0.999969 -81.71 0.007379 -169.4
8.91300000 0.007382 -174.1 0.999969 -81.71 0.999969 -81.71 0.007382 -169.4
8.91310000 0.007386 -174.1 0.999969 -81.72 0.999969 -81.72 0.007386 -169.4
8.91320000 0.007390 -174.1 0.999969 -81.72 0.999969 -81.72 0.007390 -169.4
8.91330000 0.007393 -174.1 0.999969 -81.72 0.999969 -81.72 0.007394 -169.4
8.91340000 0.007397 -174.1 0.999969 -81.72 0.999969 -81.72 0.007397 -169.3
8.91350000 0.007401 -174.1 0.999969 -81.72 0.999969 -81.72 0.007401 -169.3
8.91360000 0.007404 -174.2 0.999968 -81.72 0.999968 -81.72 0.007405 -169.3
8.91370000 0.007408 -174.2 0.999968 -81.72 0.999968 -81.72 0.007409 -169.3
8.91380000 0.007412 -174.2 0.999968 -81.72 0.999968 -81.72 0.007412 -169.3
8.91390000 0.007416 -174.2 0.999968 -81.72 0.999968 -81.72 0.007416 -169.3
8.91400000 0.007420 -174.2 0.999968 -81.73 0.999968 -81.73 0.007420 -169.3
8.91410000 0.007424 -174.2 0.999968 -81.73 0.999968 -81.73 0.007424 -169.3
8.91420000 0.007427 -174.2 0.999968 -81.73 0.999968 -81.73 0.007428 -169.3
8.91430000 0.007431 -174.2 0.999968 -81.73 0.999968 -81.73 0.007432 -169.3
8.91440000 0.007435 -174.2 0.999968 -81.73 0.999968 -81.73 0.007436 -169.3
8.91450000 0.007439 -174.2 0.999968 -81.73 0.999968 -81.73 0.007440 -169.3
8.91460000 0.007443 -174.3 0.999968 -81.73 0.999968 -81.73 0.007443 -169.3
8.91470000 0.007447 -174.3 0.999968 -81.73 0.999968 -81.73 0.007447 -169.2
8.91480000 0.007451 -174.3 0.999968 -81.73 0.999968 -81.73 0.007451 -169.2
8.91490000 0.007455 -174.3 0.999968 -81.74 0.999968 -81.74 0.007455 -169.2
8.91500000 0.007459 -174.3 0.999968 -81.74 0.999968 -81.74 0.007459 -169.2
8.91510000 0.007463 -174.3 0.999968 -81.74 0.999968 -81.74 0.007463 -169.2
8.91520000 0.007467 -174.3 0.999968 -81.74 0.999968 -81.74 0.007468 -169.2
8.91530000 0.007471 -174.3 0.999968 -81.74 0.999968 -81.74 0.007472 -169.2
8.91540000 0.007475 -174.3 0.999968 -81.74 0.999968 -81.74 0.007476 -169.2
8.91550000 0.007479 -174.4 0.999968 -81.74 0.999968 -81.74 0.007480 -169.2
8.91560000 0.007484 -174.4 0.999968 -81.74 0.999968 -81.74 0.007484 -169.2
8.91570000 0.007488 -174.4 0.999968 -81.75 0.999968 -81.75 0.007488 -169.2
8.91580000 0.007492 -174.4 0.999968 -81.75 0.999968 -81.75 0.007492 -169.2
8.91590000 0.007496 -174.4 0.999968 -81.75 0.999968 -81.75 0.007496 -169.1
8.91600000 0.007500 -174.4 0.999968 -81.75 0.999968 -81.75 0.007501 -169.1
8.91610000 0.007505 -174.4 0.999968 -81.75 0.999968 -81.75 0.007505 -169.1
8.91620000 0.007509 -174.4 0.999968 -81.75 0.999968 -81.75 0.007509 -169.1
8.91630000 0.007513 -174.4 0.999968 -81.75 0.999968 -81.75 0.007513 -169.1
8.91640000 0.007517 -174.5 0.999968 -81.75 0.999968 -81.75 0.007518 -169.1
8.91650000 0.007522 -174.5 0.999967 -81.75 0.999967 -81.75 0.007522 -169.1
8.91660000 0.007526 -174.5 0.999967 -81.76 0.999967 -81.76 0.007526 -169.1
8.91670000 0.007530 -174.5 0.999967 -81.76 0.999967 -81.76 0.007531 -169.1
8.91680000 0.007535 -174.5 0.999967 -81.76 0.999967 -81.76 0.007535 -169.1
8.91690000 0.007539 -174.5 0.999967 -81.76 0.999967 -81.76 0.007539 -169.1
8.91700000 0.007543 -174.5 0.999967 -81.76 0.999967 -81.76 0.007544 -169.0
8.91710000 0.007548 -174.5 0.999967 -81.76 0.999967 -81.76 0.007548 -169.0
8.91720000 0.007552 -174.5 0.999967 -81.76 0.999967 -81.76 0.007553 -169.0
8.91730000 0.007557 -174.6 0.999967 -81.76 0.999967 -81.76 0.007557 -169.0
8.91740000 0.007561 -174.6 0.999967 -81.77 0.999967 -81.77 0.007562 -169.0
8.91750000 0.007566 -174.6 0.999967 -81.77 0.999967 -81.77 0.007566 -169.0
8.91760000 0.007570 -174.6 0.999967 -81.77 0.999967 -81.77 0.007571 -169.0
8.91770000 0.007575 -174.6 0.999967 -81.77 0.999967 -81.77 0.007575 -169.0
8.91780000 0.007580 -174.6 0.999967 -81.77 0.999967 -81.77 0.007580 -169.0
8.91790000 0.007584 -174.6 0.999967 -81.77 0.999967 -81.77 0.007585 -169.0
8.91800000 0.007589 -174.6 0.999967 -81.77 0.999967 -81.77 0.007589 -169.0
8.91810000 0.007593 -174.6 0.999967 -81.77 0.999967 -81.77 0.007594 -168.9
8.91820000 0.007598 -174.7 0.999967 -81.77 0.999967 -81.77 0.007599 -168.9
8.91830000 0.007603 -174.7 0.999967 -81.78 0.999967 -81.78 0.007603 -168.9
8.91840000 0.007608 -174.7 0.999967 -81.78 0.999967 -81.78 0.007608 -168.9
8.91850000 0.007612 -174.7 0.999967 -81.78 0.999967 -81.78 0.007613 -168.9
8.91860000 0.007617 -174.7 0.999967 -81.78 0.999967 -81.78 0.007617 -168.9
8.91870000 0.007622 -174.7 0.999967 -81.78 0.999967 -81.78 0.007622 -168.9
8.91880000 0.007627 -174.7 0.999967 -81.78 0.999967 -81.78 0.007627 -168.9
8.91890000 0.007632 -174.7 0.999967 -81.78 0.999967 -81.78 0.007632 -168.9
8.91900000 0.007636 -174.8 0.999966 -81.78 0.999966 -81.78 0.007637 -168.9
8.91910000 0.007641 -174.8 0.999966 -81.79 0.999966 -81.79 0.007642 -168.9
8.91920000 0.007646 -174.8 0.999966 -81.79 0.999966 -81.79 0.007647 -168.8
8.91930000 0.007651 -174.8 0.999966 -81.79 0.999966 -81.79 0.007652 -168.8
8.91940000 0.007656 -174.8 0.999966 -81.79 0.999966 -81.79 0.007657 -168.8
8.91950000 0.007661 -174.8 0.999966 -81.79 0.999966 -81.79 0.007662 -168.8
8.91960000 0.007666 -174.8 0.999966 -81.79 0.999966 -81.79 0.007667 -168.8
8.91970000 0.007671 -174.8 0.999966 -81.79 0.999966 -81.79 0.007672 -168.8
8.91980000 0.007676 -174.9 0.999966 -81.79 0.999966 -81.79 0.007677 -168.8
8.91990000 0.007681 -174.9 0.999966 -81.80 0.999966 -81.80 0.007682 -168.8
8.92000000 0.007686 -174.9 0.999966 -81.80 0.999966 -81.80 0.007687 -168.8
8.92010000 0.007692 -174.9 0.999966 -81.80 0.999966 -81.80 0.007692 -168.8
8.92020000 0.007697 -174.9 0.999966 -81.80 0.999966 -81.80 0.007697 -168.7
8.92030000 0.007702 -174.9 0.999966 -81.80 0.999966 -81.80 0.007702 -168.7
8.92040000 0.007707 -174.9 0.999966 -81.80 0.999966 -81.80 0.007708 -168.7
8.92050000 0.007713 -174.9 0.999966 -81.80 0.999966 -81.80 0.007713 -168.7
8.92060000 0.007718 -175.0 0.999966 -81.80 0.999966 -81.80 0.007718 -168.7
8.92070000 0.007723 -175.0 0.999966 -81.80 0.999966 -81.80 0.007724 -168.7
8.92080000 0.007728 -175.0 0.999966 -81.81 0.999966 -81.81 0.007729 -168.7
8.92090000 0.007734 -175.0 0.999966 -81.81 0.999966 -81.81 0.007734 -168.7
8.92100000 0.007739 -175.0 0.999966 -81.81 0.999966 -81.81 0.007740 -168.7
8.92110000 0.007745 -175.0 0.999966 -81.81 0.999966 -81.81 0.007745 -168.7
8.92120000 0.007750 -175.0 0.999965 -81.81 0.999965 -81.81 0.007751 -168.6
8.92130000 0.007756 -175.0 0.999965 -81.81 0.999965 -81.81 0.007756 -168.6
8.92140000 0.007761 -175.1 0.999965 -81.81 0.999965 -81.81 0.007762 -168.6
8.92150000 0.007767 -175.1 0.999965 -81.81 0.999965 -81.81 0.007767 -168.6
8.92160000 0.007772 -175.1 0.999965 -81.82 0.999965 -81.82 0.007773 -168.6
8.92170000 0.007778 -175.1 0.999965 -81.82 0.999965 -81.82 0.007778 -168.6
8.92180000 0.007783 -175.1 0.999965 -81.82 0.999965 -81.82 0.007784 -168.6
8.92190000 0.007789 -175.1 0.999965 -81.82 0.999965 -81.82 0.007790 -168.6
8.92200000 0.007795 -175.1 0.999965 -81.82 0.999965 -81.82 0.007795 -168.6
8.92210000 0.007801 -175.2 0.999965 -81.82 0.999965 -81.82 0.007801 -168.5
8.92220000 0.007806 -175.2 0.999965 -81.82 0.999965 -81.82 0.007807 -168.5
8.92230000 0.007812 -175.2 0.999965 -81.82 0.999965 -81.82 0.007813 -168.5
8.92240000 0.007818 -175.2 0.999965 -81.83 0.999965 -81.83 0.007818 -168.5
8.92250000 0.007824 -175.2 0.999965 -81.83 0.999965 -81.83 0.007824 -168.5
8.92260000 0.007830 -175.2 0.999965 -81.83 0.999965 -81.83 0.007830 -168.5
8.92270000 0.007836 -175.2 0.999965 -81.83 0.999965 -81.83 0.007836 -168.5
8.92280000 0.007842 -175.2 0.999965 -81.83 0.999965 -81.83 0.007842 -168.5
8.92290000 0.007848 -175.3 0.999965 -81.83 0.999965 -81.83 0.007848 -168.5
8.92300000 0.007854 -175.3 0.999965 -81.83 0.999965 -81.83 0.007854 -168.4
8.92310000 0.007860 -175.3 0.999965 -81.84 0.999965 -81.84 0.007860 -168.4
8.92320000 0.007866 -175.3 0.999964 -81.84 0.999964 -81.84 0.007866 -168.4
8.92330000 0.007872 -175.3 0.999964 -81.84 0.999964 -81.84 0.007872 -168.4
8.92340000 0.007878 -175.3 0.999964 -81.84 0.999964 -81.84 0.007879 -168.4
8.92350000 0.007884 -175.3 0.999964 -81.84 0.999964 -81.84 0.007885 -168.4
8.92360000 0.007890 -175.4 0.999964 -81.84 0.999964 -81.84 0.007891 -168.4
8.92370000 0.007897 -175.4 0.999964 -81.84 0.999964 -81.84 0.007897 -168.4
8.92380000 0.007903 -175.4 0.999964 -81.84 0.999964 -81.84 0.007904 -168.3
8.92390000 0.007909 -175.4 0.999964 -81.85 0.999964 -81.85 0.007910 -168.3
8.92400000 0.007916 -175.4 0.999964 -81.85 0.999964 -81.85 0.007916 -168.3
8.92410000 0.007922 -175.4 0.999964 -81.85 0.999964 -81.85 0.007923 -168.3
8.92420000 0.007929 -175.4 0.999964 -81.85 0.999964 -81.85 0.007929 -168.3
8.92430000 0.007935 -175.5 0.999964 -81.85 0.999964 -81.85 0.007936 -168.3
8.92440000 0.007942 -175.5 0.999964 -81.85 0.999964 -81.85 0.007942 -168.3
8.92450000 0.007948 -175.5 0.999964 -81.85 0.999964 -81.85 0.007949 -168.3
8.92460000 0.007955 -175.5 0.999964 -81.85 0.999964 -81.85 0.007955 -168.3
8.92470000 0.007961 -175.5 0.999964 -81.86 0.999964 -81.86 0.007962 -168.2
8.92480000 0.007968 -175.5 0.999964 -81.86 0.999964 -81.86 0.007969 -168.2
8.92490000 0.007975 -175.6 0.999963 -81.86 0.999963 -81.86 0.007975 -168.2
8.92500000 0.007982 -175.6 0.999963 -81.86 0.999963 -81.86 0.007982 -168.2
8.92510000 0.007988 -175.6 0.999963 -81.86 0.999963 -81.86 0.007989 -168.2
8.92520000 0.007995 -175.6 0.999963 -81.86 0.999963 -81.86 0.007996 -168.2
8.92530000 0.008002 -175.6 0.999963 -81.86 0.999963 -81.86 0.008003 -168.2
8.92540000 0.008009 -175.6 0.999963 -81.87 0.999963 -81.87 0.008010 -168.2
8.92550000 0.008016 -175.6 0.999963 -81.87 0.999963 -81.87 0.008017 -168.1
8.92560000 0.008023 -175.7 0.999963 -81.87 0.999963 -81.87 0.008024 -168.1
8.92570000 0.008030 -175.7 0.999963 -81.87 0.999963 -81.87 0.008031 -168.1
8.92580000 0.008037 -175.7 0.999963 -81.87 0.999963 -81.87 0.008038 -168.1
8.92590000 0.008044 -175.7 0.999963 -81.87 0.999963 -81.87 0.008045 -168.1
8.92600000 0.008051 -175.7 0.999963 -81.87 0.999963 -81.87 0.008052 -168.1
8.92610000 0.008059 -175.7 0.999963 -81.87 0.999963 -81.87 0.008059 -168.1
8.92620000 0.008066 -175.8 0.999963 -81.88 0.999963 -81.88 0.008067 -168.1
8.92630000 0.008073 -175.8 0.999963 -81.88 0.999963 -81.88 0.008074 -168.0
8.92640000 0.008081 -175.8 0.999962 -81.88 0.999962 -81.88 0.008081 -168.0
8.92650000 0.008088 -175.8 0.999962 -81.88 0.999962 -81.88 0.008089 -168.0
8.92660000 0.008096 -175.8 0.999962 -81.88 0.999962 -81.88 0.008096 -168.0
8.92670000 0.008103 -175.8 0.999962 -81.88 0.999962 -81.88 0.008104 -168.0
8.92680000 0.008111 -175.9 0.999962 -81.88 0.999962 -81.88 0.008111 -168.0
8.92690000 0.008118 -175.9 0.999962 -81.89 0.999962 -81.89 0.008119 -168.0
8.92700000 0.008126 -175.9 0.999962 -81.89 0.999962 -81.89 0.008126 -167.9
8.92710000 0.008133 -175.9 0.999962 -81.89 0.999962 -81.89 0.008134 -167.9
8.92720000 0.008141 -175.9 0.999962 -81.89 0.999962 -81.89 0.008142 -167.9
8.92730000 0.008149 -175.9 0.999962 -81.89 0.999962 -81.89 0.008150 -167.9
8.92740000 0.008157 -176.0 0.999962 -81.89 0.999962 -81.89 0.008157 -167.9
8.92750000 0.008165 -176.0 0.999962 -81.89 0.999962 -81.89 0.008165 -167.9
8.92760000 0.008173 -176.0 0.999962 -81.89 0.999962 -81.89 0.008173 -167.9
8.92770000 0.008181 -176.0 0.999962 -81.90 0.999962 -81.90 0.008181 -167.8
8.92780000 0.008189 -176.0 0.999961 -81.90 0.999961 -81.90 0.008189 -167.8
8.92790000 0.008197 -176.0 0.999961 -81.90 0.999961 -81.90 0.008197 -167.8
8.92800000 0.008205 -176.1 0.999961 -81.90 0.999961 -81.90 0.008206 -167.8
8.92810000 0.008213 -176.1 0.999961 -81.90 0.999961 -81.90 0.008214 -167.8
8.92820000 0.008221 -176.1 0.999961 -81.90 0.999961 -81.90 0.008222 -167.8
8.92830000 0.008230 -176.1 0.999961 -81.90 0.999961 -81.90 0.008230 -167.8
8.92840000 0.008238 -176.1 0.999961 -81.91 0.999961 -81.91 0.008239 -167.7
8.92850000 0.008247 -176.1 0.999961 -81.91 0.999961 -81.91 0.008247 -167.7
8.92860000 0.008255 -176.2 0.999961 -81.91 0.999961 -81.91 0.008256 -167.7
8.92870000 0.008264 -176.2 0.999961 -81.91 0.999961 -81.91 0.008264 -167.7
8.92880000 0.008272 -176.2 0.999961 -81.91 0.999961 -81.91 0.008273 -167.7
8.92890000 0.008281 -176.2 0.999961 -81.91 0.999961 -81.91 0.008281 -167.7
8.92900000 0.008289 -176.2 0.999960 -81.91 0.999960 -81.91 0.008290 -167.7
8.92910000 0.008298 -176.2 0.999960 -81.92 0.999960 -81.92 0.008299 -167.6
8.92920000 0.008307 -176.3 0.999960 -81.92 0.999960 -81.92 0.008308 -167.6
8.92930000 0.008316 -176.3 0.999960 -81.92 0.999960 -81.92 0.008317 -167.6
8.92940000 0.008325 -176.3 0.999960 -81.92 0.999960 -81.92 0.008326 -167.6
8.92950000 0.008334 -176.3 0.999960 -81.92 0.999960 -81.92 0.008335 -167.6
8.92960000 0.008343 -176.3 0.999960 -81.92 0.999960 -81.92 0.008344 -167.6
8.92970000 0.008352 -176.4 0.999960 -81.92 0.999960 -81.92 0.008353 -167.6
8.92980000 0.008361 -176.4 0.999960 -81.93 0.999960 -81.93 0.008362 -167.5
8.92990000 0.008371 -176.4 0.999960 -81.93 0.999960 -81.93 0.008371 -167.5
8.93000000 0.008380 -176.4 0.999960 -81.93 0.999960 -81.93 0.008381 -167.5
8.93010000 0.008389 -176.4 0.999959 -81.93 0.999959 -81.93 0.008390 -167.5
8.93020000 0.008399 -176.5 0.999959 -81.93 0.999959 -81.93 0.008399 -167.5
8.93030000 0.008408 -176.5 0.999959 -81.93 0.999959 -81.93 0.008409 -167.5
8.93040000 0.008418 -176.5 0.999959 -81.94 0.999959 -81.94 0.008419 -167.4
8.93050000 0.008428 -176.5 0.999959 -81.94 0.999959 -81.94 0.008428 -167.4
8.93060000 0.008437 -176.5 0.999959 -81.94 0.999959 -81.94 0.008438 -167.4
8.93070000 0.008447 -176.5 0.999959 -81.94 0.999959 -81.94 0.008448 -167.4
8.93080000 0.008457 -176.6 0.999959 -81.94 0.999959 -81.94 0.008458 -167.4
8.93090000 0.008467 -176.6 0.999959 -81.94 0.999959 -81.94 0.008468 -167.4
8.93100000 0.008477 -176.6 0.999959 -81.94 0.999959 -81.94 0.008478 -167.3
8.93110000 0.008487 -176.6 0.999959 -81.95 0.999959 -81.95 0.008488 -167.3
8.93120000 0.008497 -176.6 0.999958 -81.95 0.999958 -81.95 0.008498 -167.3
8.93130000 0.008507 -176.7 0.999958 -81.95 0.999958 -81.95 0.008508 -167.3
8.93140000 0.008518 -176.7 0.999958 -81.95 0.999958 -81.95 0.008518 -167.3
8.93150000 0.008528 -176.7 0.999958 -81.95 0.999958 -81.95 0.008529 -167.3
8.93160000 0.008538 -176.7 0.999958 -81.95 0.999958 -81.95 0.008539 -167.2
8.93170000 0.008549 -176.7 0.999958 -81.95 0.999958 -81.95 0.008550 -167.2
8.93180000 0.008560 -176.8 0.999958 -81.96 0.999958 -81.96 0.008560 -167.2
8.93190000 0.008570 -176.8 0.999958 -81.96 0.999958 -81.96 0.008571 -167.2
8.93200000 0.008581 -176.8 0.999958 -81.96 0.999958 -81.96 0.008582 -167.2
8.93210000 0.008592 -176.8 0.999957 -81.96 0.999957 -81.96 0.008593 -167.2
8.93220000 0.008603 -176.8 0.999957 -81.96 0.999957 -81.96 0.008604 -167.1
8.93230000 0.008614 -176.9 0.999957 -81.96 0.999957 -81.96 0.008615 -167.1
8.93240000 0.008625 -176.9 0.999957 -81.97 0.999957 -81.97 0.008626 -167.1
8.93250000 0.008636 -176.9 0.999957 -81.97 0.999957 -81.97 0.008637 -167.1
8.93260000 0.008647 -176.9 0.999957 -81.97 0.999957 -81.97 0.008648 -167.1
8.93270000 0.008659 -177.0 0.999957 -81.97 0.999957 -81.97 0.008660 -167.0
8.93280000 0.008670 -177.0 0.999957 -81.97 0.999957 -81.97 0.008671 -167.0
8.93290000 0.008682 -177.0 0.999957 -81.97 0.999957 -81.97 0.008683 -167.0
8.93300000 0.008693 -177.0 0.999956 -81.98 0.999956 -81.98 0.008694 -167.0
8.93310000 0.008705 -177.0 0.999956 -81.98 0.999956 -81.98 0.008706 -167.0
8.93320000 0.008717 -177.1 0.999956 -81.98 0.999956 -81.98 0.008718 -167.0
8.93330000 0.008729 -177.1 0.999956 -81.98 0.999956 -81.98 0.008730 -166.9
8.93340000 0.008741 -177.1 0.999956 -81.98 0.999956 -81.98 0.008742 -166.9
8.93350000 0.008753 -177.1 0.999956 -81.98 0.999956 -81.98 0.008754 -166.9
8.93360000 0.008765 -177.1 0.999956 -81.99 0.999956 -81.99 0.008766 -166.9
8.93370000 0.008777 -177.2 0.999956 -81.99 0.999956 -81.99 0.008778 -166.9
8.93380000 0.008790 -177.2 0.999955 -81.99 0.999955 -81.99 0.008791 -166.8
8.93390000 0.008802 -177.2 0.999955 -81.99 0.999955 -81.99 0.008803 -166.8
8.93400000 0.008815 -177.2 0.999955 -81.99 0.999955 -81.99 0.008816 -166.8
8.93410000 0.008828 -177.3 0.999955 -81.99 0.999955 -81.99 0.008829 -166.8
8.93420000 0.008840 -177.3 0.999955 -81.99 0.999955 -81.99 0.008841 -166.8
8.93430000 0.008853 -177.3 0.999955 -82.00 0.999955 -82.00 0.008854 -166.7
8.93440000 0.008866 -177.3 0.999955 -82.00 0.999955 -82.00 0.008867 -166.7
8.93450000 0.008879 -177.4 0.999954 -82.00 0.999954 -82.00 0.008880 -166.7
8.93460000 0.008893 -177.4 0.999954 -82.00 0.999954 -82.00 0.008894 -166.7
8.93470000 0.008906 -177.4 0.999954 -82.00 0.999954 -82.00 0.008907 -166.7
8.93480000 0.008919 -177.4 0.999954 -82.01 0.999954 -82.01 0.008920 -166.6
8.93490000 0.008933 -177.4 0.999954 -82.01 0.999954 -82.01 0.008934 -166.6
8.93500000 0.008947 -177.5 0.999954 -82.01 0.999954 -82.01 0.008948 -166.6
8.93510000 0.008960 -177.5 0.999954 -82.01 0.999954 -82.01 0.008962 -166.6
8.93520000 0.008974 -177.5 0.999953 -82.01 0.999953 -82.01 0.008975 -166.6
8.93530000 0.008988 -177.5 0.999953 -82.01 0.999953 -82.01 0.008989 -166.5
8.93540000 0.009003 -177.6 0.999953 -82.02 0.999953 -82.02 0.009004 -166.5
8.93550000 0.009017 -177.6 0.999953 -82.02 0.999953 -82.02 0.009018 -166.5
8.93560000 0.009031 -177.6 0.999953 -82.02 0.999953 -82.02 0.009032 -166.5
8.93570000 0.009046 -177.6 0.999953 -82.02 0.999953 -82.02 0.009047 -166.5
8.93580000 0.009060 -177.7 0.999953 -82.02 0.999953 -82.02 0.009061 -166.4
8.93590000 0.009075 -177.7 0.999952 -82.02 0.999952 -82.02 0.009076 -166.4
8.93600000 0.009090 -177.7 0.999952 -82.03 0.999952 -82.03 0.009091 -166.4
8.93610000 0.009105 -177.7 0.999952 -82.03 0.999952 -82.03 0.009106 -166.4
8.93620000 0.009120 -177.8 0.999952 -82.03 0.999952 -82.03 0.009121 -166.4
8.93630000 0.009136 -177.8 0.999952 -82.03 0.999952 -82.03 0.009137 -166.3
8.93640000 0.009151 -177.8 0.999952 -82.03 0.999952 -82.03 0.009152 -166.3
8.93650000 0.009167 -177.8 0.999951 -82.04 0.999951 -82.04 0.009168 -166.3
8.93660000 0.009182 -177.9 0.999951 -82.04 0.999951 -82.04 0.009183 -166.3
8.93670000 0.009198 -177.9 0.999951 -82.04 0.999951 -82.04 0.009199 -166.2
8.93680000 0.009214 -177.9 0.999951 -82.04 0.999951 -82.04 0.009215 -166.2
8.93690000 0.009230 -178.0 0.999951 -82.04 0.999951 -82.04 0.009232 -166.2
8.93700000 0.009247 -178.0 0.999950 -82.04 0.999950 -82.04 0.009248 -166.2
8.93710000 0.009263 -178.0 0.999950 -82.05 0.999950 -82.05 0.009264 -166.2
8.93720000 0.009280 -178.0 0.999950 -82.05 0.999950 -82.05 0.009281 -166.1
8.93730000 0.009296 -178.1 0.999950 -82.05 0.999950 -82.05 0.009298 -166.1
8.93740000 0.009313 -178.1 0.999950 -82.05 0.999950 -82.05 0.009315 -166.1
8.93750000 0.009330 -178.1 0.999950 -82.05 0.999950 -82.05 0.009332 -166.1
8.93760000 0.009348 -178.1 0.999949 -82.06 0.999949 -82.06 0.009349 -166.0
8.93770000 0.009365 -178.2 0.999949 -82.06 0.999949 -82.06 0.009366 -166.0
8.93780000 0.009383 -178.2 0.999949 -82.06 0.999949 -82.06 0.009384 -166.0
8.93790000 0.009400 -178.2 0.999949 -82.06 0.999949 -82.06 0.009402 -166.0
8.93800000 0.009418 -178.3 0.999949 -82.06 0.999949 -82.06 0.009420 -165.9
8.93810000 0.009436 -178.3 0.999948 -82.07 0.999948 -82.07 0.009438 -165.9
8.93820000 0.009455 -178.3 0.999948 -82.07 0.999948 -82.07 0.009456 -165.9
8.93830000 0.009473 -178.3 0.999948 -82.07 0.999948 -82.07 0.009474 -165.9
8.93840000 0.009492 -178.4 0.999948 -82.07 0.999948 -82.07 0.009493 -165.8
8.93850000 0.009511 -178.4 0.999947 -82.07 0.999947 -82.07 0.009512 -165.8
8.93860000 0.009530 -178.4 0.999947 -82.08 0.999947 -82.08 0.009531 -165.8
8.93870000 0.009549 -178.5 0.999947 -82.08 0.999947 -82.08 0.009550 -165.8
8.93880000 0.009568 -178.5 0.999947 -82.08 0.999947 -82.08 0.009570 -165.7
8.93890000 0.009588 -178.5 0.999947 -82.08 0.999947 -82.08 0.009589 -165.7
8.93900000 0.009607 -178.5 0.999946 -82.08 0.999946 -82.08 0.009609 -165.7
8.93910000 0.009627 -178.6 0.999946 -82.09 0.999946 -82.09 0.009629 -165.7
8.93920000 0.009648 -178.6 0.999946 -82.09 0.999946 -82.09 0.009649 -165.6