! Sonnet Data File
! From: emgraph Version : 16.52
! From Project: Resonator2_extremeCap
! Data is De-embedded 
! Data File Written: 10/11/2017 17:55:30
!< HDATE 10/10/2017 20:37:37
!< MDATE 10/10/2017 20:37:37
!< PARAMS
!< Pwid1 = 2000.0
!< Pwid2 = 2000.0
!< Air_gap = 30.0
!< Width = 50.0
!< Gap = 80.0
!< END PARAMS
# GHZ S MA R 50.70000
8.95000000 0.109479 1.1463 0.993984 -88.06 0.993984 -88.06 0.109476 2.7437
!< P1 F=8.95 Eeff=(6.44048267 -2.9687e-5) Z0=(50.4065418 1.16289e-4) R=0.0 C=0.0 
!< P2 F=8.95 Eeff=(6.44048267 -2.9687e-5) Z0=(50.4065418 1.16289e-4) R=0.0 C=0.0 
8.95020000 0.109492 1.1511 0.993982 -88.06 0.993982 -88.06 0.109489 2.7328
8.95040000 0.109505 1.1558 0.993981 -88.06 0.993981 -88.06 0.109502 2.7219
8.95060000 0.109518 1.1606 0.993979 -88.06 0.993979 -88.06 0.109515 2.7109
8.95080000 0.109531 1.1654 0.993978 -88.07 0.993978 -88.07 0.109528 2.7000
8.95100000 0.109544 1.1702 0.993977 -88.07 0.993977 -88.07 0.109541 2.6890
8.95120000 0.109557 1.1750 0.993975 -88.07 0.993975 -88.07 0.109554 2.6780
8.95140000 0.109570 1.1799 0.993974 -88.08 0.993974 -88.08 0.109567 2.6670
8.95160000 0.109583 1.1848 0.993972 -88.08 0.993972 -88.08 0.109580 2.6559
8.95180000 0.109596 1.1897 0.993971 -88.08 0.993971 -88.08 0.109593 2.6448
8.95200000 0.109609 1.1946 0.993969 -88.09 0.993969 -88.09 0.109606 2.6337
8.95220000 0.109623 1.1995 0.993968 -88.09 0.993968 -88.09 0.109619 2.6226
8.95240000 0.109636 1.2045 0.993966 -88.09 0.993966 -88.09 0.109633 2.6114
8.95260000 0.109649 1.2094 0.993965 -88.10 0.993965 -88.10 0.109646 2.6002
8.95280000 0.109662 1.2144 0.993963 -88.10 0.993963 -88.10 0.109659 2.5890
8.95300000 0.109676 1.2194 0.993962 -88.10 0.993962 -88.10 0.109672 2.5777
8.95320000 0.109689 1.2245 0.993961 -88.11 0.993961 -88.11 0.109686 2.5665
8.95340000 0.109702 1.2295 0.993959 -88.11 0.993959 -88.11 0.109699 2.5551
8.95360000 0.109716 1.2346 0.993958 -88.11 0.993958 -88.11 0.109712 2.5438
8.95380000 0.109729 1.2397 0.993956 -88.11 0.993956 -88.11 0.109726 2.5325
8.95400000 0.109742 1.2448 0.993955 -88.12 0.993955 -88.12 0.109739 2.5211
8.95420000 0.109756 1.2499 0.993953 -88.12 0.993953 -88.12 0.109753 2.5097
8.95440000 0.109769 1.2551 0.993952 -88.12 0.993952 -88.12 0.109766 2.4982
8.95460000 0.109783 1.2603 0.993950 -88.13 0.993950 -88.13 0.109780 2.4867
8.95480000 0.109797 1.2655 0.993949 -88.13 0.993949 -88.13 0.109793 2.4752
8.95500000 0.109810 1.2707 0.993947 -88.13 0.993947 -88.13 0.109807 2.4637
8.95520000 0.109824 1.2759 0.993946 -88.14 0.993946 -88.14 0.109821 2.4522
8.95540000 0.109838 1.2812 0.993944 -88.14 0.993944 -88.14 0.109834 2.4406
8.95560000 0.109851 1.2865 0.993943 -88.14 0.993943 -88.14 0.109848 2.4290
8.95580000 0.109865 1.2918 0.993941 -88.15 0.993941 -88.15 0.109862 2.4173
8.95600000 0.109879 1.2971 0.993939 -88.15 0.993939 -88.15 0.109875 2.4057
8.95620000 0.109893 1.3025 0.993938 -88.15 0.993938 -88.15 0.109889 2.3940
8.95640000 0.109906 1.3079 0.993936 -88.16 0.993936 -88.16 0.109903 2.3822
8.95660000 0.109920 1.3133 0.993935 -88.16 0.993935 -88.16 0.109917 2.3705
8.95680000 0.109934 1.3187 0.993933 -88.16 0.993933 -88.16 0.109931 2.3587
8.95700000 0.109948 1.3241 0.993932 -88.16 0.993932 -88.16 0.109945 2.3469
8.95720000 0.109962 1.3296 0.993930 -88.17 0.993930 -88.17 0.109959 2.3350
8.95740000 0.109976 1.3351 0.993929 -88.17 0.993929 -88.17 0.109973 2.3232
8.95760000 0.109990 1.3406 0.993927 -88.17 0.993927 -88.17 0.109987 2.3112
8.95780000 0.110004 1.3461 0.993926 -88.18 0.993926 -88.18 0.110001 2.2993
8.95800000 0.110018 1.3517 0.993924 -88.18 0.993924 -88.18 0.110015 2.2873
8.95820000 0.110033 1.3573 0.993922 -88.18 0.993922 -88.18 0.110029 2.2753
8.95840000 0.110047 1.3629 0.993921 -88.19 0.993921 -88.19 0.110043 2.2633
8.95860000 0.110061 1.3685 0.993919 -88.19 0.993919 -88.19 0.110058 2.2513
8.95880000 0.110075 1.3741 0.993918 -88.19 0.993918 -88.19 0.110072 2.2392
8.95900000 0.110090 1.3798 0.993916 -88.20 0.993916 -88.20 0.110086 2.2270
8.95920000 0.110104 1.3855 0.993914 -88.20 0.993914 -88.20 0.110100 2.2149
8.95940000 0.110118 1.3912 0.993913 -88.20 0.993913 -88.20 0.110115 2.2027
8.95960000 0.110133 1.3970 0.993911 -88.21 0.993911 -88.21 0.110129 2.1905
8.95980000 0.110147 1.4027 0.993910 -88.21 0.993910 -88.21 0.110144 2.1783
8.96000000 0.110162 1.4085 0.993908 -88.21 0.993908 -88.21 0.110158 2.1660
8.96020000 0.110176 1.4143 0.993906 -88.22 0.993906 -88.22 0.110173 2.1537
8.96040000 0.110191 1.4202 0.993905 -88.22 0.993905 -88.22 0.110187 2.1413
8.96060000 0.110205 1.4260 0.993903 -88.22 0.993903 -88.22 0.110202 2.1290
8.96080000 0.110220 1.4319 0.993902 -88.23 0.993902 -88.23 0.110216 2.1165
8.96100000 0.110235 1.4378 0.993900 -88.23 0.993900 -88.23 0.110231 2.1041
8.96120000 0.110249 1.4438 0.993898 -88.23 0.993898 -88.23 0.110246 2.0916
8.96140000 0.110264 1.4497 0.993897 -88.24 0.993897 -88.24 0.110261 2.0791
8.96160000 0.110279 1.4557 0.993895 -88.24 0.993895 -88.24 0.110275 2.0666
8.96180000 0.110294 1.4617 0.993893 -88.24 0.993893 -88.24 0.110290 2.0540
8.96200000 0.110309 1.4678 0.993892 -88.25 0.993892 -88.25 0.110305 2.0414
8.96220000 0.110324 1.4738 0.993890 -88.25 0.993890 -88.25 0.110320 2.0288
8.96240000 0.110338 1.4799 0.993888 -88.25 0.993888 -88.25 0.110335 2.0161
8.96260000 0.110353 1.4860 0.993887 -88.26 0.993887 -88.26 0.110350 2.0034
8.96280000 0.110368 1.4922 0.993885 -88.26 0.993885 -88.26 0.110365 1.9907
8.96300000 0.110384 1.4983 0.993883 -88.26 0.993883 -88.26 0.110380 1.9779
8.96320000 0.110399 1.5045 0.993882 -88.27 0.993882 -88.27 0.110395 1.9651
8.96340000 0.110414 1.5107 0.993880 -88.27 0.993880 -88.27 0.110410 1.9523
8.96360000 0.110429 1.5170 0.993878 -88.27 0.993878 -88.27 0.110425 1.9394
8.96380000 0.110444 1.5232 0.993877 -88.28 0.993877 -88.28 0.110440 1.9265
8.96400000 0.110459 1.5295 0.993875 -88.28 0.993875 -88.28 0.110456 1.9135
8.96420000 0.110475 1.5358 0.993873 -88.28 0.993873 -88.28 0.110471 1.9006
8.96440000 0.110490 1.5422 0.993871 -88.29 0.993871 -88.29 0.110486 1.8875
8.96460000 0.110506 1.5485 0.993870 -88.29 0.993870 -88.29 0.110502 1.8745
!< P1 F=8.9646 Eeff=(6.44048299 -2.969e-5) Z0=(50.4064834 1.16292e-4) R=0.0 C=0.0 
!< P2 F=8.9646 Eeff=(6.44048299 -2.969e-5) Z0=(50.4064834 1.16292e-4) R=0.0 C=0.0 
8.96480000 0.110521 1.5550 0.993868 -88.29 0.993868 -88.29 0.110517 1.8614
8.96500000 0.110536 1.5614 0.993866 -88.30 0.993866 -88.30 0.110533 1.8483
8.96520000 0.110552 1.5678 0.993865 -88.30 0.993865 -88.30 0.110548 1.8351
8.96540000 0.110568 1.5743 0.993863 -88.30 0.993863 -88.30 0.110564 1.8220
8.96560000 0.110583 1.5808 0.993861 -88.31 0.993861 -88.31 0.110579 1.8087
8.96580000 0.110599 1.5874 0.993859 -88.31 0.993859 -88.31 0.110595 1.7955
8.96600000 0.110614 1.5939 0.993858 -88.31 0.993858 -88.31 0.110610 1.7822
8.96620000 0.110630 1.6005 0.993856 -88.32 0.993856 -88.32 0.110626 1.7688
8.96640000 0.110646 1.6071 0.993854 -88.32 0.993854 -88.32 0.110642 1.7555
8.96660000 0.110662 1.6138 0.993852 -88.32 0.993852 -88.32 0.110658 1.7420
8.96680000 0.110678 1.6204 0.993850 -88.33 0.993850 -88.33 0.110674 1.7286
8.96700000 0.110694 1.6271 0.993849 -88.33 0.993849 -88.33 0.110690 1.7151
8.96720000 0.110710 1.6339 0.993847 -88.33 0.993847 -88.33 0.110705 1.7016
8.96740000 0.110726 1.6406 0.993845 -88.34 0.993845 -88.34 0.110721 1.6880
8.96760000 0.110742 1.6474 0.993843 -88.34 0.993843 -88.34 0.110737 1.6744
8.96780000 0.110758 1.6542 0.993842 -88.34 0.993842 -88.34 0.110754 1.6608
8.96800000 0.110774 1.6611 0.993840 -88.35 0.993840 -88.35 0.110770 1.6471
8.96820000 0.110790 1.6679 0.993838 -88.35 0.993838 -88.35 0.110786 1.6334
8.96840000 0.110806 1.6748 0.993836 -88.35 0.993836 -88.35 0.110802 1.6196
8.96860000 0.110822 1.6818 0.993834 -88.36 0.993834 -88.36 0.110818 1.6059
8.96880000 0.110839 1.6887 0.993832 -88.36 0.993832 -88.36 0.110835 1.5920
8.96900000 0.110855 1.6957 0.993831 -88.36 0.993831 -88.36 0.110851 1.5782
8.96920000 0.110872 1.7027 0.993829 -88.37 0.993829 -88.37 0.110867 1.5643
8.96940000 0.110888 1.7098 0.993827 -88.37 0.993827 -88.37 0.110884 1.5503
8.96960000 0.110905 1.7169 0.993825 -88.37 0.993825 -88.37 0.110900 1.5363
8.96980000 0.110921 1.7240 0.993823 -88.38 0.993823 -88.38 0.110917 1.5223
8.97000000 0.110938 1.7311 0.993821 -88.38 0.993821 -88.38 0.110933 1.5082
8.97020000 0.110954 1.7383 0.993819 -88.38 0.993819 -88.38 0.110950 1.4941
8.97040000 0.110971 1.7455 0.993818 -88.39 0.993818 -88.39 0.110967 1.4800
8.97060000 0.110988 1.7527 0.993816 -88.39 0.993816 -88.39 0.110984 1.4658
8.97080000 0.111005 1.7600 0.993814 -88.39 0.993814 -88.39 0.111000 1.4515
8.97100000 0.111021 1.7673 0.993812 -88.40 0.993812 -88.40 0.111017 1.4373
8.97120000 0.111038 1.7746 0.993810 -88.40 0.993810 -88.40 0.111034 1.4230
8.97140000 0.111055 1.7819 0.993808 -88.41 0.993808 -88.41 0.111051 1.4086
8.97160000 0.111072 1.7893 0.993806 -88.41 0.993806 -88.41 0.111068 1.3942
8.97180000 0.111089 1.7967 0.993804 -88.41 0.993804 -88.41 0.111085 1.3798
8.97200000 0.111107 1.8042 0.993802 -88.42 0.993802 -88.42 0.111102 1.3653
8.97220000 0.111124 1.8117 0.993800 -88.42 0.993800 -88.42 0.111119 1.3508
8.97240000 0.111141 1.8192 0.993799 -88.42 0.993799 -88.42 0.111136 1.3362
8.97260000 0.111158 1.8267 0.993797 -88.43 0.993797 -88.43 0.111154 1.3216
8.97280000 0.111175 1.8343 0.993795 -88.43 0.993795 -88.43 0.111171 1.3069
8.97300000 0.111193 1.8419 0.993793 -88.43 0.993793 -88.43 0.111188 1.2922
8.97320000 0.111210 1.8496 0.993791 -88.44 0.993791 -88.44 0.111206 1.2775
8.97340000 0.111228 1.8572 0.993789 -88.44 0.993789 -88.44 0.111223 1.2627
8.97360000 0.111245 1.8649 0.993787 -88.44 0.993787 -88.44 0.111241 1.2479
8.97380000 0.111263 1.8727 0.993785 -88.45 0.993785 -88.45 0.111258 1.2330
8.97400000 0.111280 1.8805 0.993783 -88.45 0.993783 -88.45 0.111276 1.2181
8.97420000 0.111298 1.8883 0.993781 -88.45 0.993781 -88.45 0.111294 1.2031
8.97440000 0.111316 1.8961 0.993779 -88.46 0.993779 -88.46 0.111311 1.1881
8.97460000 0.111334 1.9040 0.993777 -88.46 0.993777 -88.46 0.111329 1.1731
8.97480000 0.111352 1.9119 0.993775 -88.47 0.993775 -88.47 0.111347 1.1580
8.97500000 0.111369 1.9198 0.993773 -88.47 0.993773 -88.47 0.111365 1.1429
8.97520000 0.111387 1.9278 0.993771 -88.47 0.993771 -88.47 0.111383 1.1277
8.97540000 0.111405 1.9358 0.993769 -88.48 0.993769 -88.48 0.111401 1.1124
8.97560000 0.111424 1.9439 0.993767 -88.48 0.993767 -88.48 0.111419 1.0972
8.97580000 0.111442 1.9520 0.993765 -88.48 0.993765 -88.48 0.111437 1.0818
8.97600000 0.111460 1.9601 0.993763 -88.49 0.993763 -88.49 0.111455 1.0665
8.97620000 0.111478 1.9682 0.993761 -88.49 0.993761 -88.49 0.111473 1.0510
8.97640000 0.111496 1.9764 0.993759 -88.49 0.993759 -88.49 0.111492 1.0356
8.97660000 0.111515 1.9846 0.993756 -88.50 0.993756 -88.50 0.111510 1.0200
8.97680000 0.111533 1.9929 0.993754 -88.50 0.993754 -88.50 0.111528 1.0045
8.97700000 0.111552 2.0012 0.993752 -88.51 0.993752 -88.51 0.111547 0.9889
8.97720000 0.111570 2.0095 0.993750 -88.51 0.993750 -88.51 0.111565 0.9732
8.97740000 0.111589 2.0179 0.993748 -88.51 0.993748 -88.51 0.111584 0.9575
8.97760000 0.111608 2.0263 0.993746 -88.52 0.993746 -88.52 0.111603 0.9418
8.97780000 0.111626 2.0348 0.993744 -88.52 0.993744 -88.52 0.111621 0.9259
8.97800000 0.111645 2.0432 0.993742 -88.52 0.993742 -88.52 0.111640 0.9101
8.97820000 0.111664 2.0517 0.993740 -88.53 0.993740 -88.53 0.111659 0.8942
8.97840000 0.111683 2.0603 0.993737 -88.53 0.993737 -88.53 0.111678 0.8782
8.97860000 0.111702 2.0689 0.993735 -88.53 0.993735 -88.53 0.111697 0.8622
8.97880000 0.111721 2.0775 0.993733 -88.54 0.993733 -88.54 0.111716 0.8462
8.97900000 0.111740 2.0862 0.993731 -88.54 0.993731 -88.54 0.111735 0.8301
8.97920000 0.111759 2.0949 0.993729 -88.55 0.993729 -88.55 0.111754 0.8139
8.97940000 0.111778 2.1036 0.993727 -88.55 0.993727 -88.55 0.111773 0.7977
8.97960000 0.111798 2.1124 0.993724 -88.55 0.993724 -88.55 0.111793 0.7814
8.97980000 0.111817 2.1212 0.993722 -88.56 0.993722 -88.56 0.111812 0.7651
8.98000000 0.111836 2.1301 0.993720 -88.56 0.993720 -88.56 0.111831 0.7488
8.98020000 0.111856 2.1390 0.993718 -88.56 0.993718 -88.56 0.111851 0.7324
8.98040000 0.111875 2.1479 0.993716 -88.57 0.993716 -88.57 0.111870 0.7159
8.98060000 0.111895 2.1569 0.993713 -88.57 0.993713 -88.57 0.111890 0.6994
8.98080000 0.111915 2.1659 0.993711 -88.58 0.993711 -88.58 0.111910 0.6828
8.98100000 0.111935 2.1750 0.993709 -88.58 0.993709 -88.58 0.111929 0.6662
8.98120000 0.111954 2.1841 0.993707 -88.58 0.993707 -88.58 0.111949 0.6495
8.98140000 0.111974 2.1932 0.993705 -88.59 0.993705 -88.59 0.111969 0.6328
8.98160000 0.111994 2.2024 0.993702 -88.59 0.993702 -88.59 0.111989 0.6160
8.98180000 0.112014 2.2116 0.993700 -88.59 0.993700 -88.59 0.112009 0.5991
8.98200000 0.112034 2.2209 0.993698 -88.60 0.993698 -88.60 0.112029 0.5822
8.98220000 0.112055 2.2302 0.993695 -88.60 0.993695 -88.60 0.112049 0.5653
8.98240000 0.112075 2.2395 0.993693 -88.61 0.993693 -88.61 0.112069 0.5483
8.98260000 0.112095 2.2489 0.993691 -88.61 0.993691 -88.61 0.112090 0.5312
8.98280000 0.112115 2.2583 0.993689 -88.61 0.993689 -88.61 0.112110 0.5141
8.98300000 0.112136 2.2678 0.993686 -88.62 0.993686 -88.62 0.112130 0.4969
8.98320000 0.112156 2.2773 0.993684 -88.62 0.993684 -88.62 0.112151 0.4797
8.98340000 0.112177 2.2868 0.993682 -88.63 0.993682 -88.63 0.112172 0.4624
8.98360000 0.112198 2.2964 0.993679 -88.63 0.993679 -88.63 0.112192 0.4450
8.98380000 0.112218 2.3061 0.993677 -88.63 0.993677 -88.63 0.112213 0.4276
8.98400000 0.112239 2.3158 0.993674 -88.64 0.993674 -88.64 0.112234 0.4101
8.98420000 0.112260 2.3255 0.993672 -88.64 0.993672 -88.64 0.112255 0.3926
8.98440000 0.112281 2.3353 0.993670 -88.64 0.993670 -88.64 0.112275 0.3750
8.98460000 0.112302 2.3451 0.993667 -88.65 0.993667 -88.65 0.112296 0.3574
8.98480000 0.112323 2.3549 0.993665 -88.65 0.993665 -88.65 0.112318 0.3397
8.98500000 0.112344 2.3648 0.993663 -88.66 0.993663 -88.66 0.112339 0.3219
8.98520000 0.112366 2.3748 0.993660 -88.66 0.993660 -88.66 0.112360 0.3041
8.98540000 0.112387 2.3848 0.993658 -88.66 0.993658 -88.66 0.112381 0.2862
8.98560000 0.112408 2.3948 0.993655 -88.67 0.993655 -88.67 0.112403 0.2683
8.98580000 0.112430 2.4049 0.993653 -88.67 0.993653 -88.67 0.112424 0.2503
8.98600000 0.112452 2.4150 0.993650 -88.68 0.993650 -88.68 0.112446 0.2322
8.98620000 0.112473 2.4252 0.993648 -88.68 0.993648 -88.68 0.112467 0.2141
8.98640000 0.112495 2.4354 0.993645 -88.68 0.993645 -88.68 0.112489 0.1959
8.98660000 0.112517 2.4457 0.993643 -88.69 0.993643 -88.69 0.112511 0.1776
8.98680000 0.112539 2.4560 0.993640 -88.69 0.993640 -88.69 0.112533 0.1593
8.98700000 0.112561 2.4663 0.993638 -88.70 0.993638 -88.70 0.112555 0.1410
8.98720000 0.112583 2.4767 0.993635 -88.70 0.993635 -88.70 0.112577 0.1225
8.98740000 0.112605 2.4872 0.993633 -88.70 0.993633 -88.70 0.112599 0.1040
8.98760000 0.112627 2.4977 0.993630 -88.71 0.993630 -88.71 0.112621 0.0854
8.98780000 0.112649 2.5083 0.993628 -88.71 0.993628 -88.71 0.112643 0.0668
8.98800000 0.112672 2.5189 0.993625 -88.72 0.993625 -88.72 0.112666 0.0481
8.98820000 0.112694 2.5295 0.993623 -88.72 0.993623 -88.72 0.112688 0.0293
8.98840000 0.112717 2.5402 0.993620 -88.72 0.993620 -88.72 0.112711 0.0105
8.98860000 0.112740 2.5509 0.993618 -88.73 0.993618 -88.73 0.112733 0.0000
8.98880000 0.112762 2.5617 0.993615 -88.73 0.993615 -88.73 0.112756 -0.027
8.98900000 0.112785 2.5726 0.993612 -88.74 0.993612 -88.74 0.112779 -0.046
8.98920000 0.112808 2.5835 0.993610 -88.74 0.993610 -88.74 0.112802 -0.065
8.98940000 0.112831 2.5944 0.993607 -88.75 0.993607 -88.75 0.112825 -0.085
8.98960000 0.112854 2.6054 0.993604 -88.75 0.993604 -88.75 0.112848 -0.104
8.98980000 0.112877 2.6165 0.993602 -88.75 0.993602 -88.75 0.112871 -0.123
8.99000000 0.112901 2.6276 0.993599 -88.76 0.993599 -88.76 0.112894 -0.143
8.99020000 0.112924 2.6387 0.993596 -88.76 0.993596 -88.76 0.112918 -0.162
8.99040000 0.112947 2.6499 0.993594 -88.77 0.993594 -88.77 0.112941 -0.181
8.99060000 0.112971 2.6612 0.993591 -88.77 0.993591 -88.77 0.112965 -0.201
8.99080000 0.112995 2.6725 0.993588 -88.77 0.993588 -88.77 0.112988 -0.221
8.99100000 0.113018 2.6838 0.993586 -88.78 0.993586 -88.78 0.113012 -0.240
8.99120000 0.113042 2.6952 0.993583 -88.78 0.993583 -88.78 0.113036 -0.260
8.99140000 0.113066 2.7067 0.993580 -88.79 0.993580 -88.79 0.113060 -0.280
8.99160000 0.113090 2.7182 0.993577 -88.79 0.993577 -88.79 0.113084 -0.300
8.99180000 0.113114 2.7298 0.993575 -88.80 0.993575 -88.80 0.113108 -0.320
8.99200000 0.113138 2.7414 0.993572 -88.80 0.993572 -88.80 0.113132 -0.340
8.99220000 0.113163 2.7531 0.993569 -88.80 0.993569 -88.80 0.113156 -0.360
8.99240000 0.113187 2.7648 0.993566 -88.81 0.993566 -88.81 0.113180 -0.381
8.99260000 0.113212 2.7766 0.993564 -88.81 0.993564 -88.81 0.113205 -0.401
8.99280000 0.113236 2.7885 0.993561 -88.82 0.993561 -88.82 0.113230 -0.421
8.99300000 0.113261 2.8004 0.993558 -88.82 0.993558 -88.82 0.113254 -0.442
8.99320000 0.113286 2.8123 0.993555 -88.82 0.993555 -88.82 0.113279 -0.462
8.99340000 0.113311 2.8244 0.993552 -88.83 0.993552 -88.83 0.113304 -0.483
8.99360000 0.113336 2.8364 0.993549 -88.83 0.993549 -88.83 0.113329 -0.504
8.99380000 0.113361 2.8486 0.993546 -88.84 0.993546 -88.84 0.113354 -0.524
8.99400000 0.113386 2.8608 0.993544 -88.84 0.993544 -88.84 0.113379 -0.545
8.99420000 0.113411 2.8730 0.993541 -88.85 0.993541 -88.85 0.113404 -0.566
8.99440000 0.113437 2.8853 0.993538 -88.85 0.993538 -88.85 0.113430 -0.587
8.99460000 0.113462 2.8977 0.993535 -88.86 0.993535 -88.86 0.113455 -0.608
8.99480000 0.113488 2.9101 0.993532 -88.86 0.993532 -88.86 0.113481 -0.629
8.99500000 0.113514 2.9226 0.993529 -88.86 0.993529 -88.86 0.113507 -0.651
8.99520000 0.113540 2.9351 0.993526 -88.87 0.993526 -88.87 0.113532 -0.672
8.99540000 0.113565 2.9477 0.993523 -88.87 0.993523 -88.87 0.113558 -0.693
8.99560000 0.113592 2.9604 0.993520 -88.88 0.993520 -88.88 0.113584 -0.715
8.99580000 0.113618 2.9731 0.993517 -88.88 0.993517 -88.88 0.113611 -0.736
8.99600000 0.113644 2.9859 0.993514 -88.89 0.993514 -88.89 0.113637 -0.758
8.99620000 0.113670 2.9987 0.993511 -88.89 0.993511 -88.89 0.113663 -0.780
8.99640000 0.113697 3.0116 0.993508 -88.89 0.993508 -88.89 0.113690 -0.801
8.99660000 0.113724 3.0246 0.993505 -88.90 0.993505 -88.90 0.113716 -0.823
8.99680000 0.113750 3.0376 0.993502 -88.90 0.993502 -88.90 0.113743 -0.845
8.99700000 0.113777 3.0507 0.993499 -88.91 0.993499 -88.91 0.113770 -0.867
8.99720000 0.113804 3.0639 0.993495 -88.91 0.993495 -88.91 0.113797 -0.890
8.99740000 0.113831 3.0771 0.993492 -88.92 0.993492 -88.92 0.113824 -0.912
8.99760000 0.113859 3.0904 0.993489 -88.92 0.993489 -88.92 0.113851 -0.934
8.99780000 0.113886 3.1037 0.993486 -88.93 0.993486 -88.93 0.113878 -0.957
8.99800000 0.113913 3.1171 0.993483 -88.93 0.993483 -88.93 0.113906 -0.979
8.99820000 0.113941 3.1306 0.993480 -88.94 0.993480 -88.94 0.113933 -1.002
8.99840000 0.113969 3.1442 0.993476 -88.94 0.993476 -88.94 0.113961 -1.024
8.99860000 0.113996 3.1578 0.993473 -88.94 0.993473 -88.94 0.113989 -1.047
8.99880000 0.114024 3.1714 0.993470 -88.95 0.993470 -88.95 0.114017 -1.070
8.99900000 0.114053 3.1852 0.993467 -88.95 0.993467 -88.95 0.114045 -1.093
8.99920000 0.114081 3.1990 0.993464 -88.96 0.993464 -88.96 0.114073 -1.116
8.99940000 0.114109 3.2129 0.993460 -88.96 0.993460 -88.96 0.114101 -1.139
8.99960000 0.114138 3.2268 0.993457 -88.97 0.993457 -88.97 0.114130 -1.162
8.99980000 0.114166 3.2409 0.993454 -88.97 0.993454 -88.97 0.114158 -1.186
9.00000000 0.114195 3.2549 0.993450 -88.98 0.993450 -88.98 0.114187 -1.209
9.00020000 0.114224 3.2691 0.993447 -88.98 0.993447 -88.98 0.114216 -1.233
9.00040000 0.114253 3.2833 0.993444 -88.99 0.993444 -88.99 0.114245 -1.256
9.00060000 0.114282 3.2976 0.993440 -88.99 0.993440 -88.99 0.114274 -1.280
9.00080000 0.114311 3.3120 0.993437 -89.00 0.993437 -89.00 0.114303 -1.304
9.00100000 0.114340 3.3264 0.993433 -89.00 0.993433 -89.00 0.114332 -1.328
9.00120000 0.114370 3.3409 0.993430 -89.00 0.993430 -89.00 0.114362 -1.352
9.00140000 0.114400 3.3555 0.993427 -89.01 0.993427 -89.01 0.114391 -1.376
9.00160000 0.114429 3.3702 0.993423 -89.01 0.993423 -89.01 0.114421 -1.400
9.00180000 0.114459 3.3849 0.993420 -89.02 0.993420 -89.02 0.114451 -1.424
9.00200000 0.114489 3.3997 0.993416 -89.02 0.993416 -89.02 0.114481 -1.449
9.00220000 0.114520 3.4146 0.993413 -89.03 0.993413 -89.03 0.114511 -1.473
9.00240000 0.114550 3.4295 0.993409 -89.03 0.993409 -89.03 0.114542 -1.498
9.00260000 0.114580 3.4446 0.993406 -89.04 0.993406 -89.04 0.114572 -1.522
9.00280000 0.114611 3.4597 0.993402 -89.04 0.993402 -89.04 0.114603 -1.547
9.00300000 0.114642 3.4749 0.993399 -89.05 0.993399 -89.05 0.114633 -1.572
9.00320000 0.114673 3.4901 0.993395 -89.05 0.993395 -89.05 0.114664 -1.597
9.00340000 0.114704 3.5054 0.993391 -89.06 0.993391 -89.06 0.114695 -1.622
9.00360000 0.114735 3.5209 0.993388 -89.06 0.993388 -89.06 0.114727 -1.647
9.00380000 0.114767 3.5364 0.993384 -89.07 0.993384 -89.07 0.114758 -1.673
9.00400000 0.114798 3.5519 0.993380 -89.07 0.993380 -89.07 0.114789 -1.698
9.00420000 0.114830 3.5676 0.993377 -89.08 0.993377 -89.08 0.114821 -1.724
9.00440000 0.114862 3.5833 0.993373 -89.08 0.993373 -89.08 0.114853 -1.749
9.00460000 0.114894 3.5991 0.993369 -89.09 0.993369 -89.09 0.114885 -1.775
9.00480000 0.114926 3.6150 0.993365 -89.09 0.993365 -89.09 0.114917 -1.801
9.00500000 0.114958 3.6310 0.993362 -89.10 0.993362 -89.10 0.114949 -1.827
9.00520000 0.114991 3.6470 0.993358 -89.10 0.993358 -89.10 0.114982 -1.853
9.00540000 0.115023 3.6631 0.993354 -89.11 0.993354 -89.11 0.115014 -1.879
9.00560000 0.115056 3.6794 0.993350 -89.11 0.993350 -89.11 0.115047 -1.906
9.00580000 0.115089 3.6957 0.993346 -89.12 0.993346 -89.12 0.115080 -1.932
9.00600000 0.115122 3.7121 0.993343 -89.12 0.993343 -89.12 0.115113 -1.959
9.00620000 0.115156 3.7285 0.993339 -89.13 0.993339 -89.13 0.115146 -1.985
9.00640000 0.115189 3.7451 0.993335 -89.13 0.993335 -89.13 0.115180 -2.012
9.00660000 0.115223 3.7617 0.993331 -89.14 0.993331 -89.14 0.115213 -2.039
9.00680000 0.115256 3.7784 0.993327 -89.14 0.993327 -89.14 0.115247 -2.066
9.00700000 0.115290 3.7953 0.993323 -89.15 0.993323 -89.15 0.115281 -2.093
9.00720000 0.115325 3.8122 0.993319 -89.15 0.993319 -89.15 0.115315 -2.121
9.00740000 0.115359 3.8292 0.993315 -89.16 0.993315 -89.16 0.115349 -2.148
9.00760000 0.115393 3.8462 0.993311 -89.16 0.993311 -89.16 0.115384 -2.175
9.00780000 0.115428 3.8634 0.993307 -89.17 0.993307 -89.17 0.115419 -2.203
9.00800000 0.115463 3.8807 0.993303 -89.17 0.993303 -89.17 0.115453 -2.231
9.00820000 0.115498 3.8980 0.993299 -89.18 0.993299 -89.18 0.115488 -2.259
9.00840000 0.115533 3.9154 0.993295 -89.18 0.993295 -89.18 0.115524 -2.287
9.00860000 0.115569 3.9330 0.993290 -89.19 0.993290 -89.19 0.115559 -2.315
9.00880000 0.115604 3.9506 0.993286 -89.20 0.993286 -89.20 0.115595 -2.343
9.00900000 0.115640 3.9683 0.993282 -89.20 0.993282 -89.20 0.115630 -2.371
9.00920000 0.115676 3.9861 0.993278 -89.21 0.993278 -89.21 0.115666 -2.400
9.00940000 0.115712 4.0040 0.993274 -89.21 0.993274 -89.21 0.115702 -2.429
9.00960000 0.115749 4.0220 0.993269 -89.22 0.993269 -89.22 0.115739 -2.457
9.00980000 0.115785 4.0401 0.993265 -89.22 0.993265 -89.22 0.115775 -2.486
9.01000000 0.115822 4.0583 0.993261 -89.23 0.993261 -89.23 0.115812 -2.515
9.01020000 0.115859 4.0766 0.993256 -89.23 0.993256 -89.23 0.115849 -2.545
9.01040000 0.115896 4.0950 0.993252 -89.24 0.993252 -89.24 0.115886 -2.574
9.01060000 0.115934 4.1135 0.993248 -89.24 0.993248 -89.24 0.115923 -2.603
9.01080000 0.115971 4.1321 0.993243 -89.25 0.993243 -89.25 0.115961 -2.633
9.01100000 0.116009 4.1508 0.993239 -89.26 0.993239 -89.26 0.115998 -2.663
9.01120000 0.116047 4.1696 0.993234 -89.26 0.993234 -89.26 0.116036 -2.693
9.01140000 0.116085 4.1885 0.993230 -89.27 0.993230 -89.27 0.116074 -2.723
9.01160000 0.116123 4.2075 0.993225 -89.27 0.993225 -89.27 0.116113 -2.753
9.01180000 0.116162 4.2266 0.993221 -89.28 0.993221 -89.28 0.116151 -2.783
9.01200000 0.116201 4.2458 0.993216 -89.28 0.993216 -89.28 0.116190 -2.813
9.01220000 0.116240 4.2651 0.993212 -89.29 0.993212 -89.29 0.116229 -2.844
9.01240000 0.116279 4.2845 0.993207 -89.29 0.993207 -89.29 0.116268 -2.875
9.01260000 0.116319 4.3040 0.993202 -89.30 0.993202 -89.30 0.116308 -2.906
9.01280000 0.116358 4.3236 0.993198 -89.31 0.993198 -89.31 0.116347 -2.937
9.01300000 0.116398 4.3433 0.993193 -89.31 0.993193 -89.31 0.116387 -2.968
9.01320000 0.116438 4.3632 0.993188 -89.32 0.993188 -89.32 0.116427 -2.999
9.01340000 0.116479 4.3831 0.993183 -89.32 0.993183 -89.32 0.116468 -3.031
9.01360000 0.116519 4.4032 0.993179 -89.33 0.993179 -89.33 0.116508 -3.062
9.01380000 0.116560 4.4233 0.993174 -89.33 0.993174 -89.33 0.116549 -3.094
9.01400000 0.116601 4.4436 0.993169 -89.34 0.993169 -89.34 0.116590 -3.126
9.01420000 0.116643 4.4640 0.993164 -89.35 0.993164 -89.35 0.116631 -3.158
9.01440000 0.116684 4.4845 0.993159 -89.35 0.993159 -89.35 0.116673 -3.190
9.01460000 0.116726 4.5051 0.993154 -89.36 0.993154 -89.36 0.116715 -3.223
9.01480000 0.116768 4.5259 0.993149 -89.36 0.993149 -89.36 0.116757 -3.255
9.01500000 0.116810 4.5467 0.993144 -89.37 0.993144 -89.37 0.116799 -3.288
9.01520000 0.116853 4.5677 0.993139 -89.38 0.993139 -89.38 0.116841 -3.321
9.01540000 0.116896 4.5887 0.993134 -89.38 0.993134 -89.38 0.116884 -3.354
9.01560000 0.116939 4.6099 0.993129 -89.39 0.993129 -89.39 0.116927 -3.387
9.01580000 0.116982 4.6313 0.993124 -89.39 0.993124 -89.39 0.116970 -3.420
9.01600000 0.117026 4.6527 0.993119 -89.40 0.993119 -89.40 0.117014 -3.454
9.01620000 0.117070 4.6743 0.993113 -89.41 0.993113 -89.41 0.117057 -3.488
9.01640000 0.117114 4.6960 0.993108 -89.41 0.993108 -89.41 0.117102 -3.521
9.01660000 0.117158 4.7178 0.993103 -89.42 0.993103 -89.42 0.117146 -3.555
9.01680000 0.117203 4.7397 0.993098 -89.42 0.993098 -89.42 0.117190 -3.590
9.01700000 0.117248 4.7617 0.993092 -89.43 0.993092 -89.43 0.117235 -3.624
9.01720000 0.117293 4.7839 0.993087 -89.44 0.993087 -89.44 0.117280 -3.659
9.01740000 0.117338 4.8062 0.993081 -89.44 0.993081 -89.44 0.117326 -3.693
9.01760000 0.117384 4.8287 0.993076 -89.45 0.993076 -89.45 0.117371 -3.728
9.01780000 0.117430 4.8512 0.993070 -89.45 0.993070 -89.45 0.117417 -3.763
9.01800000 0.117476 4.8739 0.993065 -89.46 0.993065 -89.46 0.117464 -3.799
9.01820000 0.117523 4.8967 0.993059 -89.47 0.993059 -89.47 0.117510 -3.834
9.01840000 0.117570 4.9197 0.993054 -89.47 0.993054 -89.47 0.117557 -3.870
9.01860000 0.117617 4.9428 0.993048 -89.48 0.993048 -89.48 0.117604 -3.906
9.01880000 0.117664 4.9660 0.993043 -89.49 0.993043 -89.49 0.117651 -3.942
9.01900000 0.117712 4.9893 0.993037 -89.49 0.993037 -89.49 0.117699 -3.978
9.01920000 0.117760 5.0128 0.993031 -89.50 0.993031 -89.50 0.117747 -4.014
9.01940000 0.117809 5.0365 0.993025 -89.51 0.993025 -89.51 0.117795 -4.051
9.01960000 0.117857 5.0602 0.993019 -89.51 0.993019 -89.51 0.117844 -4.088
9.01980000 0.117906 5.0841 0.993014 -89.52 0.993014 -89.52 0.117893 -4.125
9.02000000 0.117956 5.1082 0.993008 -89.53 0.993008 -89.53 0.117942 -4.162
9.02020000 0.118005 5.1324 0.993002 -89.53 0.993002 -89.53 0.117992 -4.199
9.02040000 0.118055 5.1567 0.992996 -89.54 0.992996 -89.54 0.118042 -4.237
9.02060000 0.118106 5.1812 0.992990 -89.55 0.992990 -89.55 0.118092 -4.275
9.02080000 0.118156 5.2058 0.992984 -89.55 0.992984 -89.55 0.118142 -4.313
9.02100000 0.118207 5.2305 0.992978 -89.56 0.992978 -89.56 0.118193 -4.351
9.02120000 0.118258 5.2554 0.992971 -89.57 0.992971 -89.57 0.118244 -4.389
9.02140000 0.118310 5.2805 0.992965 -89.57 0.992965 -89.57 0.118296 -4.428
9.02160000 0.118362 5.3057 0.992959 -89.58 0.992959 -89.58 0.118348 -4.467
9.02180000 0.118414 5.3311 0.992953 -89.59 0.992953 -89.59 0.118400 -4.506
9.02200000 0.118467 5.3566 0.992946 -89.59 0.992946 -89.59 0.118453 -4.545
9.02220000 0.118520 5.3822 0.992940 -89.60 0.992940 -89.60 0.118506 -4.584
9.02240000 0.118573 5.4080 0.992934 -89.61 0.992934 -89.61 0.118559 -4.624
9.02260000 0.118627 5.4340 0.992927 -89.61 0.992927 -89.61 0.118613 -4.664
9.02280000 0.118681 5.4601 0.992921 -89.62 0.992921 -89.62 0.118667 -4.704
9.02300000 0.118736 5.4864 0.992914 -89.63 0.992914 -89.63 0.118721 -4.744
9.02320000 0.118791 5.5129 0.992907 -89.63 0.992907 -89.63 0.118776 -4.785
9.02340000 0.118846 5.5395 0.992901 -89.64 0.992901 -89.64 0.118831 -4.826
9.02360000 0.118901 5.5662 0.992894 -89.65 0.992894 -89.65 0.118886 -4.867
9.02380000 0.118957 5.5932 0.992887 -89.66 0.992887 -89.66 0.118942 -4.908
9.02400000 0.119014 5.6203 0.992880 -89.66 0.992880 -89.66 0.118999 -4.949
9.02420000 0.119071 5.6475 0.992874 -89.67 0.992874 -89.67 0.119055 -4.991
9.02440000 0.119128 5.6749 0.992867 -89.68 0.992867 -89.68 0.119112 -5.033
9.02460000 0.119185 5.7025 0.992860 -89.68 0.992860 -89.68 0.119170 -5.075
9.02480000 0.119243 5.7303 0.992853 -89.69 0.992853 -89.69 0.119228 -5.118
9.02500000 0.119302 5.7582 0.992846 -89.70 0.992846 -89.70 0.119286 -5.160
9.02520000 0.119361 5.7863 0.992838 -89.71 0.992838 -89.71 0.119345 -5.203
9.02540000 0.119420 5.8146 0.992831 -89.71 0.992831 -89.71 0.119404 -5.246
9.02560000 0.119479 5.8431 0.992824 -89.72 0.992824 -89.72 0.119463 -5.290
9.02580000 0.119540 5.8717 0.992817 -89.73 0.992817 -89.73 0.119523 -5.334
9.02600000 0.119600 5.9005 0.992809 -89.74 0.992809 -89.74 0.119584 -5.378
9.02620000 0.119661 5.9295 0.992802 -89.74 0.992802 -89.74 0.119645 -5.422
9.02640000 0.119722 5.9587 0.992794 -89.75 0.992794 -89.75 0.119706 -5.466
9.02660000 0.119784 5.9881 0.992787 -89.76 0.992787 -89.76 0.119768 -5.511
9.02680000 0.119847 6.0176 0.992779 -89.77 0.992779 -89.77 0.119830 -5.556
9.02700000 0.119909 6.0474 0.992772 -89.77 0.992772 -89.77 0.119893 -5.601
9.02720000 0.119973 6.0773 0.992764 -89.78 0.992764 -89.78 0.119956 -5.647
9.02740000 0.120036 6.1074 0.992756 -89.79 0.992756 -89.79 0.120019 -5.692
9.02760000 0.120101 6.1377 0.992748 -89.80 0.992748 -89.80 0.120084 -5.738
9.02780000 0.120165 6.1682 0.992740 -89.81 0.992740 -89.81 0.120148 -5.785
9.02800000 0.120231 6.1989 0.992733 -89.81 0.992733 -89.81 0.120213 -5.831