! Sonnet Data File
! From: emgraph Version : 16.52
! From Emgraph Data: Resonator3
! Data File Written: 10/04/2017 13:30:13
!< HDATE 10/04/2017 12:29:46
!< MDATE 10/04/2017 12:29:46
# GHZ S MA R 51.80000
8.80000000 0.004753 39.262 0.999987 -40.50 0.999987 -40.50 0.004754 59.758
!< P1 F=8.8 Eeff=(6.44889005 -2.9739e-5) Z0=(51.8067783 1.19496e-4) R=0.0 C=0.0 
!< P2 F=8.8 Eeff=(6.44889005 -2.9739e-5) Z0=(51.8067781 1.19496e-4) R=0.0 C=0.0 
8.80200000 0.004781 39.242 0.999987 -40.52 0.999987 -40.52 0.004781 59.756
8.80400000 0.004809 39.222 0.999987 -40.53 0.999987 -40.53 0.004810 59.754
8.80600000 0.004838 39.202 0.999986 -40.54 0.999986 -40.54 0.004838 59.752
8.80800000 0.004867 39.182 0.999986 -40.55 0.999986 -40.55 0.004868 59.749
8.81000000 0.004898 39.162 0.999986 -40.56 0.999986 -40.56 0.004898 59.747
8.81200000 0.004929 39.142 0.999986 -40.57 0.999986 -40.57 0.004929 59.745
8.81400000 0.004960 39.122 0.999986 -40.58 0.999986 -40.58 0.004961 59.743
8.81600000 0.004993 39.101 0.999986 -40.59 0.999986 -40.59 0.004993 59.741
8.81800000 0.005026 39.081 0.999985 -40.60 0.999985 -40.60 0.005027 59.739
8.82000000 0.005060 39.060 0.999985 -40.61 0.999985 -40.61 0.005061 59.737
8.82200000 0.005095 39.039 0.999985 -40.62 0.999985 -40.62 0.005096 59.735
8.82400000 0.005131 39.018 0.999985 -40.64 0.999985 -40.64 0.005132 59.733
8.82600000 0.005168 38.997 0.999985 -40.65 0.999985 -40.65 0.005169 59.732
8.82800000 0.005206 38.975 0.999984 -40.66 0.999984 -40.66 0.005206 59.730
8.83000000 0.005245 38.954 0.999984 -40.67 0.999984 -40.67 0.005245 59.728
8.83200000 0.005285 38.932 0.999984 -40.68 0.999984 -40.68 0.005285 59.726
8.83400000 0.005326 38.910 0.999984 -40.69 0.999984 -40.69 0.005326 59.725
8.83600000 0.005368 38.888 0.999983 -40.70 0.999983 -40.70 0.005368 59.723
8.83800000 0.005411 38.866 0.999983 -40.72 0.999983 -40.72 0.005412 59.721
8.84000000 0.005455 38.843 0.999983 -40.73 0.999983 -40.73 0.005456 59.720
8.84200000 0.005501 38.821 0.999983 -40.74 0.999983 -40.74 0.005502 59.718
8.84400000 0.005549 38.798 0.999982 -40.75 0.999982 -40.75 0.005549 59.717
8.84600000 0.005597 38.775 0.999982 -40.76 0.999982 -40.76 0.005598 59.715
8.84800000 0.005647 38.752 0.999982 -40.78 0.999982 -40.78 0.005648 59.714
8.85000000 0.005699 38.728 0.999981 -40.79 0.999981 -40.79 0.005700 59.712
8.85200000 0.005752 38.705 0.999981 -40.80 0.999981 -40.80 0.005753 59.711
8.85400000 0.005807 38.681 0.999981 -40.81 0.999981 -40.81 0.005808 59.709
8.85600000 0.005864 38.657 0.999980 -40.82 0.999980 -40.82 0.005865 59.708
8.85800000 0.005923 38.633 0.999980 -40.84 0.999980 -40.84 0.005923 59.706
8.86000000 0.005983 38.608 0.999980 -40.85 0.999980 -40.85 0.005984 59.705
8.86200000 0.006046 38.583 0.999979 -40.86 0.999979 -40.86 0.006047 59.704
8.86400000 0.006111 38.558 0.999979 -40.87 0.999979 -40.87 0.006112 59.702
8.86600000 0.006179 38.533 0.999978 -40.89 0.999978 -40.89 0.006179 59.701
8.86800000 0.006248 38.507 0.999978 -40.90 0.999978 -40.90 0.006249 59.700
8.87000000 0.006321 38.481 0.999977 -40.91 0.999977 -40.91 0.006321 59.698
8.87200000 0.006396 38.455 0.999977 -40.93 0.999977 -40.93 0.006396 59.697
8.87400000 0.006474 38.428 0.999976 -40.94 0.999976 -40.94 0.006474 59.695
8.87600000 0.006555 38.401 0.999976 -40.96 0.999976 -40.96 0.006555 59.694
8.87800000 0.006639 38.374 0.999975 -40.97 0.999975 -40.97 0.006639 59.692
8.88000000 0.006726 38.346 0.999974 -40.98 0.999974 -40.98 0.006727 59.691
8.88200000 0.006818 38.318 0.999974 -41.00 0.999974 -41.00 0.006818 59.689
8.88400000 0.006913 38.290 0.999973 -41.01 0.999973 -41.01 0.006914 59.687
8.88600000 0.007012 38.261 0.999972 -41.03 0.999972 -41.03 0.007013 59.685
8.88800000 0.007116 38.231 0.999971 -41.04 0.999971 -41.04 0.007117 59.683
8.89000000 0.007225 38.201 0.999971 -41.06 0.999971 -41.06 0.007225 59.681
8.89200000 0.007338 38.171 0.999970 -41.07 0.999970 -41.07 0.007339 59.679
8.89400000 0.007457 38.140 0.999969 -41.09 0.999969 -41.09 0.007458 59.677
8.89600000 0.007582 38.109 0.999968 -41.11 0.999968 -41.11 0.007583 59.675
8.89800000 0.007713 38.077 0.999967 -41.12 0.999967 -41.12 0.007714 59.672
8.90000000 0.007851 38.044 0.999965 -41.14 0.999965 -41.14 0.007852 59.669
8.90200000 0.007996 38.011 0.999964 -41.16 0.999964 -41.16 0.007997 59.666
8.90400000 0.008149 37.977 0.999963 -41.17 0.999963 -41.17 0.008150 59.663
8.90600000 0.008311 37.943 0.999961 -41.19 0.999961 -41.19 0.008312 59.659
8.90800000 0.008482 37.907 0.999960 -41.21 0.999960 -41.21 0.008483 59.655
8.91000000 0.008663 37.871 0.999958 -41.23 0.999958 -41.23 0.008664 59.651
8.91200000 0.008855 37.834 0.999956 -41.25 0.999956 -41.25 0.008856 59.646
8.91400000 0.009060 37.796 0.999954 -41.27 0.999954 -41.27 0.009060 59.640
8.91600000 0.009277 37.757 0.999952 -41.29 0.999952 -41.29 0.009278 59.634
8.91740377 0.009439 37.728 0.999950 -41.31 0.999950 -41.31 0.009439 59.630
8.91800000 0.009510 37.716 0.999950 -41.32 0.999950 -41.32 0.009510 59.628
8.91877538 0.009604 37.700 0.999949 -41.33 0.999949 -41.33 0.009605 59.625
8.92000000 0.009758 37.675 0.999947 -41.34 0.999947 -41.34 0.009759 59.621
8.92011556 0.009773 37.672 0.999947 -41.34 0.999947 -41.34 0.009774 59.620
8.92142503 0.009946 37.644 0.999945 -41.36 0.999945 -41.36 0.009947 59.615
8.92200000 0.010025 37.632 0.999944 -41.36 0.999944 -41.36 0.010025 59.613
8.92270450 0.010123 37.616 0.999943 -41.37 0.999943 -41.37 0.010124 59.610
8.92395465 0.010304 37.588 0.999941 -41.39 0.999941 -41.39 0.010305 59.604
8.92400000 0.010311 37.587 0.999941 -41.39 0.999941 -41.39 0.010312 59.604
8.92517615 0.010490 37.561 0.999939 -41.41 0.999939 -41.41 0.010490 59.598
8.92600000 0.010620 37.541 0.999938 -41.42 0.999938 -41.42 0.010620 59.593
8.92636966 0.010680 37.533 0.999937 -41.42 0.999937 -41.42 0.010680 59.591
8.92753583 0.010874 37.505 0.999935 -41.44 0.999935 -41.44 0.010874 59.585
8.92800000 0.010954 37.494 0.999934 -41.44 0.999934 -41.44 0.010954 59.582
8.92867527 0.011072 37.477 0.999932 -41.45 0.999932 -41.45 0.011073 59.578
8.92978861 0.011276 37.449 0.999930 -41.47 0.999930 -41.47 0.011277 59.571
8.93000000 0.011316 37.444 0.999929 -41.47 0.999929 -41.47 0.011316 59.569
8.93087643 0.011484 37.421 0.999927 -41.49 0.999927 -41.49 0.011485 59.563
8.93193933 0.011697 37.393 0.999924 -41.51 0.999924 -41.51 0.011698 59.556
8.93200000 0.011710 37.392 0.999924 -41.51 0.999924 -41.51 0.011710 59.555
8.93297788 0.011915 37.365 0.999922 -41.52 0.999922 -41.52 0.011916 59.547
8.93399262 0.012138 37.337 0.999919 -41.54 0.999919 -41.54 0.012139 59.539
8.93400000 0.012140 37.337 0.999919 -41.54 0.999919 -41.54 0.012141 59.539
8.93498412 0.012367 37.309 0.999916 -41.56 0.999916 -41.56 0.012367 59.530
8.93595289 0.012600 37.281 0.999912 -41.58 0.999912 -41.58 0.012601 59.521
8.93600000 0.012612 37.280 0.999912 -41.58 0.999912 -41.58 0.012613 59.520
8.93689947 0.012839 37.253 0.999909 -41.59 0.999909 -41.59 0.012840 59.511
8.93782436 0.013084 37.225 0.999906 -41.61 0.999906 -41.61 0.013085 59.501
8.93800000 0.013132 37.219 0.999905 -41.62 0.999905 -41.62 0.013133 59.499
8.93872806 0.013335 37.196 0.999902 -41.63 0.999902 -41.63 0.013336 59.491
8.93961104 0.013591 37.168 0.999898 -41.65 0.999898 -41.65 0.013592 59.480
8.94000000 0.013708 37.155 0.999896 -41.66 0.999896 -41.66 0.013709 59.475
8.94047380 0.013854 37.139 0.999894 -41.67 0.999894 -41.67 0.013854 59.469
8.94131679 0.014122 37.110 0.999890 -41.69 0.999890 -41.69 0.014123 59.458
8.94200000 0.014349 37.086 0.999887 -41.70 0.999887 -41.70 0.014350 59.448
8.94214046 0.014397 37.081 0.999886 -41.71 0.999886 -41.71 0.014398 59.446
8.94294525 0.014678 37.052 0.999881 -41.73 0.999881 -41.73 0.014679 59.433
8.94373161 0.014966 37.023 0.999877 -41.75 0.999877 -41.75 0.014967 59.420
8.94400000 0.015068 37.013 0.999875 -41.75 0.999875 -41.75 0.015068 59.416
8.94449995 0.015261 36.993 0.999872 -41.77 0.999872 -41.77 0.015262 59.407
8.94525068 0.015562 36.964 0.999867 -41.79 0.999867 -41.79 0.015563 59.393
8.94598421 0.015871 36.934 0.999861 -41.81 0.999861 -41.81 0.015872 59.379
8.94600000 0.015878 36.933 0.999861 -41.81 0.999861 -41.81 0.015879 59.379
8.94670093 0.016187 36.904 0.999856 -41.83 0.999856 -41.83 0.016188 59.364
8.94740123 0.016510 36.873 0.999850 -41.85 0.999850 -41.85 0.016511 59.349
8.94800000 0.016799 36.847 0.999845 -41.87 0.999845 -41.87 0.016800 59.335
8.94808548 0.016841 36.843 0.999844 -41.87 0.999844 -41.87 0.016842 59.333
8.94875406 0.017180 36.812 0.999838 -41.90 0.999838 -41.90 0.017180 59.317
8.94940731 0.017526 36.781 0.999831 -41.92 0.999831 -41.92 0.017527 59.300
8.95000000 0.017855 36.752 0.999825 -41.94 0.999825 -41.94 0.017856 59.284
8.95004560 0.017881 36.749 0.999824 -41.94 0.999824 -41.94 0.017882 59.283
8.95066926 0.018244 36.718 0.999817 -41.97 0.999817 -41.97 0.018245 59.265
8.95127863 0.018615 36.686 0.999809 -41.99 0.999809 -41.99 0.018616 59.247
8.95187404 0.018996 36.653 0.999802 -42.01 0.999802 -42.01 0.018996 59.228
8.95200000 0.019078 36.646 0.999800 -42.02 0.999800 -42.02 0.019079 59.223
8.95245580 0.019385 36.620 0.999793 -42.04 0.999793 -42.04 0.019386 59.208
8.95302423 0.019783 36.587 0.999785 -42.07 0.999785 -42.07 0.019784 59.188
8.95357964 0.020191 36.554 0.999776 -42.09 0.999776 -42.09 0.020192 59.167
8.95400000 0.020512 36.528 0.999769 -42.11 0.999769 -42.11 0.020513 59.150
8.95412233 0.020608 36.520 0.999767 -42.12 0.999767 -42.12 0.020609 59.145
8.95465257 0.021035 36.486 0.999757 -42.14 0.999757 -42.14 0.021036 59.123
8.95517067 0.021472 36.451 0.999747 -42.17 0.999747 -42.17 0.021473 59.100
8.95567690 0.021919 36.416 0.999736 -42.20 0.999736 -42.20 0.021920 59.077
8.95600000 0.022216 36.392 0.999729 -42.22 0.999729 -42.22 0.022217 59.061
8.95617152 0.022377 36.380 0.999725 -42.23 0.999725 -42.23 0.022378 59.053
8.95665481 0.022846 36.344 0.999713 -42.26 0.999713 -42.26 0.022847 59.028
8.95712703 0.023325 36.307 0.999701 -42.29 0.999701 -42.29 0.023326 59.003
8.95758843 0.023816 36.270 0.999688 -42.32 0.999688 -42.32 0.023817 58.976
8.95800000 0.024274 36.235 0.999676 -42.35 0.999676 -42.35 0.024275 58.952
8.95803926 0.024318 36.232 0.999675 -42.35 0.999675 -42.35 0.024319 58.949
8.95847975 0.024832 36.194 0.999661 -42.38 0.999661 -42.38 0.024833 58.922
8.95891015 0.025359 36.155 0.999647 -42.41 0.999647 -42.41 0.025360 58.893
8.95933069 0.025897 36.115 0.999632 -42.44 0.999632 -42.44 0.025898 58.864
8.95974160 0.026448 36.075 0.999616 -42.48 0.999616 -42.48 0.026449 58.833
8.96000000 0.026808 36.049 0.999605 -42.50 0.999605 -42.50 0.026809 58.814
8.96014309 0.027013 36.035 0.999599 -42.51 0.999599 -42.51 0.027013 58.802
8.96053537 0.027590 35.993 0.999582 -42.55 0.999582 -42.55 0.027591 58.771
8.96091867 0.028181 35.951 0.999564 -42.58 0.999564 -42.58 0.028182 58.738
8.96129319 0.028786 35.908 0.999545 -42.62 0.999545 -42.62 0.028787 58.704
8.96165913 0.029405 35.865 0.999525 -42.66 0.999525 -42.66 0.029406 58.670
8.96200000 0.030008 35.823 0.999506 -42.69 0.999506 -42.69 0.030009 58.636
8.96201668 0.030038 35.820 0.999505 -42.69 0.999505 -42.69 0.030039 58.635
8.96236604 0.030687 35.775 0.999483 -42.73 0.999483 -42.73 0.030687 58.598
8.96270739 0.031350 35.730 0.999460 -42.77 0.999460 -42.77 0.031351 58.561
8.96304092 0.032029 35.683 0.999437 -42.81 0.999437 -42.81 0.032030 58.523
8.96336681 0.032725 35.636 0.999412 -42.85 0.999412 -42.85 0.032725 58.483
8.96368523 0.033436 35.587 0.999386 -42.90 0.999386 -42.90 0.033437 58.443
8.96399635 0.034164 35.538 0.999359 -42.94 0.999359 -42.94 0.034165 58.402
8.96400000 0.034173 35.537 0.999359 -42.94 0.999359 -42.94 0.034174 58.401
8.96430035 0.034909 35.488 0.999331 -42.98 0.999331 -42.98 0.034910 58.359
8.96459738 0.035672 35.437 0.999301 -43.03 0.999301 -43.03 0.035673 58.316
8.96488760 0.036453 35.385 0.999270 -43.08 0.999270 -43.08 0.036454 58.271
8.96517118 0.037252 35.332 0.999238 -43.12 0.999238 -43.12 0.037253 58.225
8.96544825 0.038070 35.278 0.999204 -43.17 0.999204 -43.17 0.038071 58.178
8.96571898 0.038907 35.222 0.999169 -43.22 0.999169 -43.22 0.038908 58.130
8.96598351 0.039763 35.166 0.999132 -43.27 0.999132 -43.27 0.039764 58.080
8.96600000 0.039818 35.163 0.999129 -43.27 0.999129 -43.27 0.039819 58.077
8.96624197 0.040640 35.109 0.999093 -43.32 0.999093 -43.32 0.040641 58.030
8.96649451 0.041537 35.050 0.999053 -43.37 0.999053 -43.37 0.041538 57.978
8.96674126 0.042455 34.991 0.999010 -43.43 0.999010 -43.43 0.042456 57.925
8.96698236 0.043395 34.930 0.998966 -43.48 0.998966 -43.48 0.043396 57.870
8.96721794 0.044357 34.868 0.998920 -43.54 0.998920 -43.54 0.044358 57.814
8.96744811 0.045341 34.804 0.998871 -43.60 0.998871 -43.60 0.045343 57.757
8.96767302 0.046349 34.740 0.998820 -43.66 0.998820 -43.66 0.046350 57.698
8.96789277 0.047380 34.674 0.998767 -43.72 0.998767 -43.72 0.047381 57.638
8.96800000 0.047901 34.640 0.998740 -43.75 0.998740 -43.75 0.047902 57.607
8.96810748 0.048435 34.606 0.998712 -43.78 0.998712 -43.78 0.048437 57.576
8.96831727 0.049515 34.538 0.998654 -43.84 0.998654 -43.84 0.049517 57.513
8.96852226 0.050621 34.467 0.998593 -43.90 0.998593 -43.90 0.050622 57.448
8.96872255 0.051752 34.396 0.998529 -43.97 0.998529 -43.97 0.051753 57.381
8.96891825 0.052910 34.322 0.998462 -44.04 0.998462 -44.04 0.052911 57.313
8.96910947 0.054095 34.248 0.998393 -44.11 0.998393 -44.11 0.054096 57.244
8.96929630 0.055307 34.171 0.998320 -44.18 0.998320 -44.18 0.055308 57.172
8.96947886 0.056548 34.093 0.998243 -44.25 0.998243 -44.25 0.056549 57.099
8.96965723 0.057818 34.013 0.998164 -44.32 0.998164 -44.32 0.057820 57.024
8.96983151 0.059118 33.932 0.998080 -44.40 0.998080 -44.40 0.059119 56.947
8.97000000 0.060434 33.850 0.997994 -44.47 0.997994 -44.47 0.060435 56.869
8.97000180 0.060448 33.849 0.997993 -44.47 0.997993 -44.47 0.060449 56.869
8.97016819 0.061809 33.764 0.997901 -44.55 0.997901 -44.55 0.061811 56.788
8.97033077 0.063202 33.677 0.997805 -44.63 0.997805 -44.63 0.063204 56.706
8.97048962 0.064628 33.588 0.997705 -44.72 0.997705 -44.72 0.064629 56.621
8.97064483 0.066087 33.497 0.997600 -44.80 0.997600 -44.80 0.066088 56.534
8.97079648 0.067580 33.404 0.997490 -44.89 0.997490 -44.89 0.067581 56.446
8.97094466 0.069108 33.310 0.997375 -44.98 0.997375 -44.98 0.069109 56.355
8.97108945 0.070671 33.213 0.997255 -45.07 0.997255 -45.07 0.070673 56.262
8.97123091 0.072271 33.114 0.997129 -45.16 0.997129 -45.16 0.072272 56.167
8.97136914 0.073908 33.012 0.996997 -45.25 0.996997 -45.25 0.073910 56.069
8.97150419 0.075583 32.909 0.996859 -45.35 0.996859 -45.35 0.075585 55.969
8.97163616 0.077298 32.803 0.996715 -45.45 0.996715 -45.45 0.077299 55.867
8.97176510 0.079052 32.695 0.996564 -45.55 0.996564 -45.55 0.079053 55.763
8.97189108 0.080847 32.584 0.996406 -45.66 0.996406 -45.66 0.080848 55.655
8.97200000 0.082468 32.484 0.996260 -45.75 0.996260 -45.75 0.082469 55.559
8.97201418 0.082683 32.471 0.996240 -45.76 0.996240 -45.76 0.082685 55.546
8.97213446 0.084563 32.355 0.996067 -45.87 0.996067 -45.87 0.084564 55.433
8.97225198 0.086486 32.237 0.995886 -45.98 0.995886 -45.98 0.086487 55.318
8.97236680 0.088453 32.116 0.995696 -46.09 0.995696 -46.09 0.088455 55.201
8.97247900 0.090466 31.993 0.995498 -46.21 0.995498 -46.21 0.090468 55.080
8.97258863 0.092526 31.866 0.995290 -46.33 0.995290 -46.33 0.092527 54.957
8.97269574 0.094633 31.737 0.995072 -46.45 0.995072 -46.45 0.094634 54.830
8.97280040 0.096789 31.605 0.994845 -46.58 0.994845 -46.58 0.096790 54.701
8.97290266 0.098994 31.470 0.994606 -46.70 0.994606 -46.70 0.098996 54.569
8.97300258 0.101251 31.331 0.994357 -46.83 0.994357 -46.83 0.101252 54.433
8.97310021 0.103559 31.190 0.994096 -46.97 0.994096 -46.97 0.103561 54.294
8.97319560 0.105920 31.045 0.993822 -47.10 0.993822 -47.10 0.105922 54.152
8.97328881 0.108336 30.897 0.993537 -47.24 0.993537 -47.24 0.108338 54.007
8.97337988 0.110807 30.746 0.993237 -47.39 0.993237 -47.39 0.110809 53.858
8.97346886 0.113334 30.591 0.992924 -47.53 0.992924 -47.53 0.113336 53.706
8.97355581 0.115920 30.433 0.992596 -47.68 0.992596 -47.68 0.115922 53.550
8.97364076 0.118564 30.272 0.992253 -47.84 0.992253 -47.84 0.118566 53.391
8.97372377 0.121268 30.106 0.991894 -47.99 0.991894 -47.99 0.121270 53.228
8.97380487 0.124034 29.937 0.991519 -48.15 0.991519 -48.15 0.124036 53.061
8.97388412 0.126863 29.764 0.991126 -48.32 0.991126 -48.32 0.126865 52.890
8.97396155 0.129756 29.587 0.990714 -48.48 0.990714 -48.48 0.129758 52.715
8.97400000 0.131243 29.496 0.990499 -48.57 0.990499 -48.57 0.131245 52.626
8.97403720 0.132714 29.406 0.990284 -48.65 0.990284 -48.65 0.132716 52.537
8.97411112 0.135739 29.221 0.989833 -48.83 0.989833 -48.83 0.135741 52.354
8.97418335 0.138832 29.032 0.989362 -49.01 0.989362 -49.01 0.138834 52.166
8.97425393 0.141995 28.838 0.988869 -49.19 0.988869 -49.19 0.141997 51.975
8.97432288 0.145228 28.640 0.988354 -49.38 0.988354 -49.38 0.145230 51.779
8.97439026 0.148533 28.438 0.987814 -49.57 0.987814 -49.57 0.148536 51.578
8.97445609 0.151912 28.231 0.987250 -49.77 0.987250 -49.77 0.151915 51.373
8.97452041 0.155366 28.019 0.986659 -49.97 0.986659 -49.97 0.155369 51.163
8.97458326 0.158897 27.803 0.986041 -50.17 0.986041 -50.17 0.158899 50.949
8.97464467 0.162505 27.582 0.985395 -50.38 0.985395 -50.38 0.162507 50.729
8.97470468 0.166192 27.355 0.984720 -50.60 0.984720 -50.60 0.166195 50.505
8.97476330 0.169960 27.124 0.984013 -50.82 0.984013 -50.82 0.169963 50.275
8.97482059 0.173811 26.888 0.983274 -51.04 0.983274 -51.04 0.173813 50.040
8.97487656 0.177744 26.646 0.982502 -51.27 0.982502 -51.27 0.177747 49.800
8.97493125 0.181763 26.399 0.981694 -51.50 0.981694 -51.50 0.181766 49.555
8.97498468 0.185869 26.147 0.980850 -51.74 0.980850 -51.74 0.185871 49.304
8.97503690 0.190062 25.889 0.979967 -51.99 0.979967 -51.99 0.190065 49.047
8.97508791 0.194344 25.625 0.979044 -52.24 0.979044 -52.24 0.194347 48.785
8.97513776 0.198718 25.355 0.978079 -52.49 0.978079 -52.49 0.198721 48.517
8.97518646 0.203183 25.080 0.977071 -52.76 0.977071 -52.76 0.203186 48.243
8.97523405 0.207742 24.798 0.976018 -53.02 0.976018 -53.02 0.207745 47.962
8.97528055 0.212396 24.510 0.974917 -53.30 0.974917 -53.30 0.212399 47.676
8.97532598 0.217146 24.216 0.973767 -53.57 0.973767 -53.57 0.217149 47.383
8.97537037 0.221993 23.916 0.972566 -53.86 0.972566 -53.86 0.221996 47.084
8.97541375 0.226939 23.609 0.971312 -54.15 0.971312 -54.15 0.226942 46.779
8.97545613 0.231986 23.296 0.970002 -54.45 0.970002 -54.45 0.231989 46.467
8.97549753 0.237133 22.976 0.968634 -54.75 0.968634 -54.75 0.237136 46.148
8.97553799 0.242383 22.649 0.967206 -55.06 0.967206 -55.06 0.242386 45.822
8.97557753 0.247736 22.315 0.965715 -55.38 0.965715 -55.38 0.247739 45.489
8.97561616 0.253193 21.975 0.964159 -55.70 0.964159 -55.70 0.253197 45.150
8.97565390 0.258756 21.627 0.962536 -56.03 0.962536 -56.03 0.258760 44.803
8.97569077 0.264426 21.272 0.960842 -56.37 0.960842 -56.37 0.264429 44.449
8.97572681 0.270202 20.909 0.959076 -56.71 0.959076 -56.71 0.270205 44.087
8.97576201 0.276086 20.539 0.957233 -57.06 0.957233 -57.06 0.276090 43.719
8.97579641 0.282079 20.162 0.955313 -57.42 0.955313 -57.42 0.282082 43.342
8.97583003 0.288180 19.777 0.953310 -57.78 0.953310 -57.78 0.288184 42.958
8.97586287 0.294391 19.384 0.951224 -58.16 0.951224 -58.16 0.294395 42.566
8.97589496 0.300712 18.983 0.949050 -58.53 0.949050 -58.53 0.300716 42.167
8.97592631 0.307143 18.575 0.946785 -58.92 0.946785 -58.92 0.307147 41.759
8.97595695 0.313683 18.159 0.944427 -59.32 0.944427 -59.32 0.313687 41.343
8.97598688 0.320334 17.734 0.941972 -59.72 0.941972 -59.72 0.320338 40.920
8.97600000 0.323334 17.542 0.940846 -59.90 0.940846 -59.90 0.323338 40.728
8.97601613 0.327094 17.301 0.939417 -60.13 0.939417 -60.13 0.327098 40.488
8.97604470 0.333964 16.861 0.936759 -60.54 0.936759 -60.54 0.333968 40.048
8.97607263 0.340942 16.411 0.933994 -60.97 0.933994 -60.97 0.340946 39.600
8.97609991 0.348028 15.954 0.931119 -61.40 0.931119 -61.40 0.348033 39.143
8.97612657 0.355222 15.488 0.928131 -61.84 0.928131 -61.84 0.355226 38.678
8.97615261 0.362521 15.014 0.925026 -62.29 0.925026 -62.29 0.362526 38.205
8.97617806 0.369925 14.532 0.921801 -62.74 0.921801 -62.74 0.369930 37.723
8.97620293 0.377433 14.041 0.918452 -63.21 0.918452 -63.21 0.377437 37.232
8.97622723 0.385042 13.541 0.914977 -63.68 0.914977 -63.68 0.385046 36.734
8.97625097 0.392750 13.033 0.911371 -64.16 0.911371 -64.16 0.392755 36.226
8.97627416 0.400556 12.517 0.907632 -64.65 0.907632 -64.65 0.400561 35.710
8.97629683 0.408456 11.992 0.903757 -65.14 0.903757 -65.14 0.408461 35.186
8.97631897 0.416449 11.458 0.899742 -65.64 0.899742 -65.64 0.416454 34.653
8.97634061 0.424532 10.916 0.895583 -66.15 0.895583 -66.15 0.424537 34.112
8.97636175 0.432700 10.366 0.891279 -66.67 0.891279 -66.67 0.432706 33.563
8.97638241 0.440951 9.8077 0.886827 -67.20 0.886827 -67.20 0.440957 33.005
8.97640260 0.449282 9.2410 0.882222 -67.73 0.882222 -67.73 0.449287 32.439
8.97642232 0.457687 8.6661 0.877464 -68.27 0.877464 -68.27 0.457693 31.864
8.97644159 0.466164 8.0832 0.872549 -68.81 0.872549 -68.81 0.466169 31.282
8.97646042 0.474707 7.4923 0.867476 -69.37 0.867476 -69.37 0.474712 30.692
8.97647881 0.483311 6.8937 0.862241 -69.93 0.862241 -69.93 0.483317 30.094
8.97649679 0.491973 6.2873 0.856844 -70.50 0.856844 -70.50 0.491979 29.488
8.97651435 0.500685 5.6735 0.851283 -71.07 0.851283 -71.07 0.500691 28.874
8.97653151 0.509444 5.0523 0.845556 -71.65 0.845556 -71.65 0.509450 28.254
8.97654828 0.518243 4.4239 0.839663 -72.24 0.839663 -72.24 0.518250 27.626
8.97656467 0.527077 3.7886 0.833602 -72.83 0.833602 -72.83 0.527083 26.991
8.97658067 0.535938 3.1465 0.827373 -73.43 0.827373 -73.43 0.535945 26.349
8.97659631 0.544822 2.4979 0.820975 -74.03 0.820975 -74.03 0.544828 25.701
8.97661160 0.553721 1.8431 0.814410 -74.64 0.814410 -74.64 0.553727 25.047
8.97662653 0.562628 1.1822 0.807677 -75.25 0.807677 -75.25 0.562635 24.386
8.97664112 0.571537 0.5156 0.800777 -75.87 0.800777 -75.87 0.571544 23.720
8.97665538 0.580440 -0.156 0.793712 -76.50 0.793712 -76.50 0.580447 23.048
8.97666931 0.589332 -0.834 0.786483 -77.12 0.786483 -77.12 0.589339 22.372
8.97668292 0.598203 -1.516 0.779091 -77.75 0.779091 -77.75 0.598210 21.690
8.97669622 0.607048 -2.202 0.771540 -78.38 0.771540 -78.38 0.607055 21.004
8.97670921 0.615859 -2.893 0.763833 -79.02 0.763833 -79.02 0.615866 20.313
8.97672191 0.624628 -3.588 0.755971 -79.66 0.755971 -79.66 0.624635 19.619
8.97673431 0.633348 -4.285 0.747959 -80.30 0.747959 -80.30 0.633356 18.922
8.97674643 0.642013 -4.987 0.739801 -80.94 0.739801 -80.94 0.642020 18.221
8.97675828 0.650614 -5.690 0.731501 -81.58 0.731501 -81.58 0.650622 17.518
8.97676985 0.659145 -6.396 0.723064 -82.23 0.723064 -82.23 0.659153 16.812
8.97678115 0.667599 -7.104 0.714494 -82.87 0.714494 -82.87 0.667607 16.104
8.97679220 0.675969 -7.814 0.705797 -83.51 0.705797 -83.51 0.675977 15.395
8.97680300 0.684248 -8.524 0.696979 -84.15 0.696979 -84.15 0.684256 14.685
8.97681354 0.692431 -9.236 0.688046 -84.80 0.688046 -84.80 0.692439 13.974
8.97682385 0.700510 -9.947 0.679005 -85.44 0.679005 -85.44 0.700518 13.262
8.97683392 0.708479 -10.66 0.669861 -86.07 0.669861 -86.07 0.708488 12.551
8.97684376 0.716334 -11.37 0.660621 -86.71 0.660621 -86.71 0.716343 11.840
8.97685337 0.724069 -12.08 0.651293 -87.34 0.651293 -87.34 0.724078 11.131
8.97686276 0.731678 -12.79 0.641885 -87.97 0.641885 -87.97 0.731687 10.422
8.97687194 0.739158 -13.50 0.632403 -88.60 0.632403 -88.60 0.739166 9.7154
8.97688091 0.746502 -14.20 0.622854 -89.22 0.622854 -89.22 0.746511 9.0108
8.97688967 0.753709 -14.90 0.613248 -89.83 0.613248 -89.83 0.753717 8.3087
8.97689823 0.760772 -15.60 0.603591 -90.45 0.603591 -90.45 0.760781 7.6095
8.97690660 0.767691 -16.30 0.593892 -91.05 0.593892 -91.05 0.767699 6.9136
8.97691477 0.774460 -16.99 0.584158 -91.65 0.584158 -91.65 0.774469 6.2213
8.97692276 0.781078 -17.68 0.574398 -92.24 0.574398 -92.24 0.781087 5.5331
8.97693056 0.787543 -18.36 0.564619 -92.83 0.564619 -92.83 0.787552 4.8492
8.97693818 0.793853 -19.04 0.554829 -93.40 0.554829 -93.40 0.793862 4.1699
8.97694563 0.800005 -19.72 0.545035 -93.97 0.545035 -93.97 0.800015 3.4957
8.97695291 0.806000 -20.39 0.535246 -94.54 0.535246 -94.54 0.806009 2.8268
8.97696002 0.811836 -21.05 0.525469 -95.09 0.525469 -95.09 0.811845 2.1635
8.97696697 0.817513 -21.71 0.515711 -95.63 0.515711 -95.63 0.817522 1.5060
8.97697376 0.823030 -22.36 0.505980 -96.17 0.505980 -96.17 0.823040 0.8548
8.97698040 0.828389 -23.00 0.496282 -96.69 0.496282 -96.69 0.828398 0.2099
8.97698688 0.833589 -23.64 0.486624 -97.21 0.486624 -97.21 0.833598 -0.428
8.97699321 0.838631 -24.27 0.477013 -97.71 0.477013 -97.71 0.838640 -1.060
8.97699940 0.843516 -24.90 0.467456 -98.20 0.467456 -98.20 0.843526 -1.684
8.97700545 0.848246 -25.52 0.457957 -98.68 0.457957 -98.68 0.848256 -2.301
8.97701136 0.852823 -26.13 0.448524 -99.15 0.448524 -99.15 0.852833 -2.911
8.97701713 0.857247 -26.73 0.439161 -99.61 0.439161 -99.61 0.857257 -3.512
8.97702277 0.861522 -27.32 0.429874 -100.1 0.429874 -100.1 0.861532 -4.107
8.97702828 0.865649 -27.91 0.420668 -100.5 0.420668 -100.5 0.865659 -4.693
8.97703367 0.869631 -28.49 0.411548 -100.9 0.411548 -100.9 0.869641 -5.271
8.97703893 0.873471 -29.06 0.402518 -101.3 0.402518 -101.3 0.873481 -5.842
8.97704407 0.877171 -29.62 0.393581 -101.7 0.393581 -101.7 0.877181 -6.404
8.97704909 0.880733 -30.17 0.384743 -102.1 0.384743 -102.1 0.880743 -6.957
8.97705400 0.884161 -30.72 0.376006 -102.5 0.376006 -102.5 0.884172 -7.503
8.97705880 0.887459 -31.26 0.367374 -102.8 0.367374 -102.8 0.887469 -8.040
8.97706348 0.890628 -31.78 0.358850 -103.2 0.358850 -103.2 0.890638 -8.568
8.97706806 0.893673 -32.31 0.350437 -103.5 0.350437 -103.5 0.893683 -9.088
8.97707253 0.896596 -32.82 0.342137 -103.8 0.342137 -103.8 0.896606 -9.600
8.97707691 0.899401 -33.32 0.333953 -104.1 0.333953 -104.1 0.899411 -10.10
8.97708118 0.902091 -33.81 0.325886 -104.4 0.325886 -104.4 0.902101 -10.60
8.97708535 0.904669 -34.30 0.317938 -104.7 0.317938 -104.7 0.904679 -11.08
8.97708943 0.907139 -34.78 0.310111 -104.9 0.310111 -104.9 0.907149 -11.56
8.97709341 0.909504 -35.25 0.302406 -105.1 0.302406 -105.1 0.909514 -12.03
8.97709730 0.911767 -35.71 0.294824 -105.4 0.294824 -105.4 0.911777 -12.49
8.97710111 0.913932 -36.16 0.287366 -105.6 0.287366 -105.6 0.913942 -12.94
8.97710482 0.916002 -36.61 0.280034 -105.7 0.280034 -105.7 0.916012 -13.39
8.97710845 0.917980 -37.04 0.272826 -105.9 0.272826 -105.9 0.917990 -13.82
8.97711200 0.919869 -37.47 0.265745 -106.1 0.265745 -106.1 0.919879 -14.25
8.97711547 0.921672 -37.89 0.258790 -106.2 0.258790 -106.2 0.921683 -14.67
8.97711886 0.923393 -38.30 0.251961 -106.3 0.251961 -106.3 0.923404 -15.08
8.97712217 0.925034 -38.71 0.245258 -106.4 0.245258 -106.4 0.925045 -15.49
8.97712540 0.926599 -39.10 0.238681 -106.5 0.238681 -106.5 0.926610 -15.88
8.97712856 0.928090 -39.49 0.232230 -106.5 0.232230 -106.5 0.928101 -16.27
8.97713165 0.929511 -39.87 0.225903 -106.6 0.225903 -106.6 0.929521 -16.65
8.97713466 0.930863 -40.24 0.219702 -106.6 0.219702 -106.6 0.930873 -17.02
8.97713761 0.932149 -40.61 0.213625 -106.6 0.213625 -106.6 0.932160 -17.39
8.97714049 0.933373 -40.97 0.207671 -106.6 0.207671 -106.6 0.933384 -17.75
8.97714330 0.934537 -41.32 0.201841 -106.5 0.201841 -106.5 0.934548 -18.10
8.97714605 0.935643 -41.66 0.196132 -106.5 0.196132 -106.5 0.935653 -18.44
8.97714874 0.936693 -42.00 0.190544 -106.4 0.190544 -106.4 0.936704 -18.78
8.97715137 0.937691 -42.33 0.185076 -106.3 0.185076 -106.3 0.937701 -19.11
8.97715393 0.938637 -42.65 0.179728 -106.2 0.179728 -106.2 0.938648 -19.43
8.97715644 0.939535 -42.96 0.174497 -106.0 0.174497 -106.0 0.939546 -19.75
8.97715888 0.940387 -43.27 0.169384 -105.8 0.169384 -105.8 0.940397 -20.05
8.97716128 0.941193 -43.58 0.164387 -105.6 0.164387 -105.6 0.941204 -20.36
8.97716361 0.941958 -43.87 0.159506 -105.4 0.159506 -105.4 0.941968 -20.65
8.97716590 0.942681 -44.16 0.154738 -105.1 0.154738 -105.1 0.942692 -20.94
8.97716813 0.943366 -44.45 0.150083 -104.8 0.150083 -104.8 0.943377 -21.23
8.97717031 0.944014 -44.72 0.145541 -104.5 0.145541 -104.5 0.944024 -21.50
8.97717244 0.944626 -44.99 0.141109 -104.2 0.141109 -104.2 0.944637 -21.78
8.97717452 0.945204 -45.26 0.136787 -103.8 0.136787 -103.8 0.945215 -22.04
8.97717656 0.945751 -45.52 0.132574 -103.4 0.132574 -103.4 0.945761 -22.30
8.97717855 0.946266 -45.77 0.128469 -102.9 0.128469 -102.9 0.946277 -22.55
8.97718049 0.946752 -46.02 0.124471 -102.4 0.124471 -102.4 0.946763 -22.80
8.97718238 0.947211 -46.27 0.120579 -101.9 0.120579 -101.9 0.947221 -23.05
8.97718424 0.947642 -46.50 0.116793 -101.4 0.116793 -101.4 0.947653 -23.28
8.97718605 0.948049 -46.74 0.113111 -100.8 0.113111 -100.8 0.948059 -23.52
8.97718782 0.948431 -46.96 0.109532 -100.2 0.109532 -100.2 0.948442 -23.74
8.97718955 0.948791 -47.19 0.106057 -99.48 0.106057 -99.48 0.948801 -23.97
8.97719124 0.949128 -47.40 0.102684 -98.76 0.102684 -98.76 0.949139 -24.18
8.97719289 0.949445 -47.62 0.099412 -98.00 0.099412 -98.00 0.949456 -24.40
8.97719450 0.949742 -47.83 0.096242 -97.19 0.096242 -97.19 0.949753 -24.60
8.97719608 0.950021 -48.03 0.093173 -96.33 0.093173 -96.33 0.950031 -24.81
8.97719762 0.950282 -48.23 0.090205 -95.42 0.090205 -95.42 0.950292 -25.01
8.97719912 0.950525 -48.42 0.087336 -94.45 0.087336 -94.45 0.950536 -25.20
8.97720000 0.950631 -48.53 0.085752 -93.86 0.085752 -93.86 0.950641 -25.31
!< P1 F=8.9772 Eeff=(6.44885241 -2.9739e-5) Z0=(51.8065898 1.19498e-4) R=0.0 C=0.0 
!< P2 F=8.9772 Eeff=(6.44885241 -2.9739e-5) Z0=(51.8065896 1.19498e-4) R=0.0 C=0.0 
8.97720060 0.950753 -48.61 0.084568 -93.44 0.084568 -93.44 0.950764 -25.39
8.97720203 0.950957 -48.80 0.081910 -92.37 0.081910 -92.37 0.950968 -25.58
8.97720344 0.951147 -48.98 0.079351 -91.24 0.079351 -91.24 0.951158 -25.76
8.97720483 0.951327 -49.16 0.076851 -90.03 0.076851 -90.03 0.951338 -25.94
8.97720626 0.951501 -49.34 0.074341 -88.69 0.074341 -88.69 0.951512 -26.12
8.97720772 0.951669 -49.53 0.071828 -87.22 0.071828 -87.22 0.951680 -26.31