! Sonnet Data File
! From: emgraph Version : 16.52
! From Project: Resonator2
! Data is De-embedded 
! Data File Written: 10/04/2017 18:31:03
!< HDATE 10/04/2017 15:54:54
!< MDATE 10/04/2017 15:55:28
!< PARAMS
!< gap = 26.0
!< Length = 400.0
!< END PARAMS
# GHZ S MA R 50.00000
8.80000000 0.023469 49.395 0.999723 -40.30 0.999723 -40.30 0.023469 50.009
!< P1 F=8.8 Eeff=(6.44890994 -2.9739e-5) Z0=(51.8068348 1.19496e-4) R=0.0 C=0.0 
!< P2 F=8.8 Eeff=(6.44890994 -2.9739e-5) Z0=(51.8068348 1.19496e-4) R=0.0 C=0.0 
8.80025000 0.023470 49.393 0.999723 -40.30 0.999723 -40.30 0.023470 50.008
8.80050000 0.023471 49.392 0.999723 -40.30 0.999723 -40.30 0.023471 50.007
8.80075000 0.023472 49.390 0.999723 -40.31 0.999723 -40.31 0.023472 50.006
8.80100000 0.023473 49.389 0.999723 -40.31 0.999723 -40.31 0.023473 50.005
8.80125000 0.023474 49.387 0.999723 -40.31 0.999723 -40.31 0.023474 50.004
8.80150000 0.023475 49.386 0.999723 -40.31 0.999723 -40.31 0.023475 50.004
8.80175000 0.023476 49.384 0.999723 -40.31 0.999723 -40.31 0.023476 50.003
8.80200000 0.023477 49.383 0.999723 -40.31 0.999723 -40.31 0.023477 50.002
8.80225000 0.023478 49.381 0.999723 -40.31 0.999723 -40.31 0.023478 50.001
8.80250000 0.023479 49.380 0.999723 -40.31 0.999723 -40.31 0.023479 50.000
8.80275000 0.023480 49.378 0.999723 -40.31 0.999723 -40.31 0.023480 49.999
8.80300000 0.023481 49.377 0.999723 -40.32 0.999723 -40.32 0.023481 49.998
8.80325000 0.023482 49.375 0.999723 -40.32 0.999723 -40.32 0.023482 49.998
8.80350000 0.023483 49.374 0.999723 -40.32 0.999723 -40.32 0.023483 49.997
8.80375000 0.023484 49.372 0.999723 -40.32 0.999723 -40.32 0.023484 49.996
8.80400000 0.023485 49.371 0.999723 -40.32 0.999723 -40.32 0.023485 49.995
8.80425000 0.023486 49.369 0.999723 -40.32 0.999723 -40.32 0.023486 49.994
8.80450000 0.023487 49.368 0.999723 -40.32 0.999723 -40.32 0.023487 49.993
8.80475000 0.023488 49.366 0.999722 -40.32 0.999722 -40.32 0.023488 49.992
8.80500000 0.023489 49.365 0.999722 -40.33 0.999722 -40.33 0.023489 49.992
8.80525000 0.023490 49.363 0.999722 -40.33 0.999722 -40.33 0.023490 49.991
8.80550000 0.023491 49.362 0.999722 -40.33 0.999722 -40.33 0.023491 49.990
8.80575000 0.023492 49.360 0.999722 -40.33 0.999722 -40.33 0.023492 49.989
8.80600000 0.023493 49.359 0.999722 -40.33 0.999722 -40.33 0.023493 49.988
8.80625000 0.023494 49.357 0.999722 -40.33 0.999722 -40.33 0.023494 49.987
8.80650000 0.023495 49.356 0.999722 -40.33 0.999722 -40.33 0.023495 49.987
8.80675000 0.023496 49.354 0.999722 -40.33 0.999722 -40.33 0.023496 49.986
8.80700000 0.023497 49.353 0.999722 -40.33 0.999722 -40.33 0.023497 49.985
8.80725000 0.023498 49.351 0.999722 -40.34 0.999722 -40.34 0.023498 49.984
8.80750000 0.023499 49.350 0.999722 -40.34 0.999722 -40.34 0.023499 49.983
8.80775000 0.023501 49.348 0.999722 -40.34 0.999722 -40.34 0.023501 49.982
8.80800000 0.023502 49.347 0.999722 -40.34 0.999722 -40.34 0.023502 49.981
8.80825000 0.023503 49.345 0.999722 -40.34 0.999722 -40.34 0.023503 49.981
8.80850000 0.023504 49.344 0.999722 -40.34 0.999722 -40.34 0.023504 49.980
8.80875000 0.023505 49.342 0.999722 -40.34 0.999722 -40.34 0.023505 49.979
8.80900000 0.023506 49.341 0.999722 -40.34 0.999722 -40.34 0.023506 49.978
8.80925000 0.023507 49.339 0.999722 -40.35 0.999722 -40.35 0.023507 49.977
8.80950000 0.023508 49.338 0.999722 -40.35 0.999722 -40.35 0.023508 49.977
8.80975000 0.023509 49.336 0.999722 -40.35 0.999722 -40.35 0.023509 49.976
8.81000000 0.023510 49.335 0.999722 -40.35 0.999722 -40.35 0.023510 49.975
8.81025000 0.023511 49.333 0.999722 -40.35 0.999722 -40.35 0.023511 49.974
8.81050000 0.023512 49.332 0.999722 -40.35 0.999722 -40.35 0.023512 49.973
8.81075000 0.023513 49.330 0.999722 -40.35 0.999722 -40.35 0.023513 49.972
8.81100000 0.023515 49.329 0.999722 -40.35 0.999722 -40.35 0.023515 49.972
8.81125000 0.023516 49.327 0.999722 -40.35 0.999722 -40.35 0.023516 49.971
8.81150000 0.023517 49.325 0.999722 -40.36 0.999722 -40.36 0.023517 49.970
8.81175000 0.023518 49.324 0.999722 -40.36 0.999722 -40.36 0.023518 49.969
8.81200000 0.023519 49.322 0.999722 -40.36 0.999722 -40.36 0.023519 49.968
8.81225000 0.023520 49.321 0.999722 -40.36 0.999722 -40.36 0.023520 49.968
8.81250000 0.023521 49.319 0.999722 -40.36 0.999722 -40.36 0.023521 49.967
8.81275000 0.023522 49.318 0.999722 -40.36 0.999722 -40.36 0.023522 49.966
8.81300000 0.023523 49.316 0.999722 -40.36 0.999722 -40.36 0.023523 49.965
8.81325000 0.023524 49.315 0.999722 -40.36 0.999722 -40.36 0.023525 49.964
8.81350000 0.023526 49.313 0.999722 -40.37 0.999722 -40.37 0.023526 49.963
8.81375000 0.023527 49.312 0.999722 -40.37 0.999722 -40.37 0.023527 49.963
8.81400000 0.023528 49.310 0.999722 -40.37 0.999722 -40.37 0.023528 49.962
8.81425000 0.023529 49.308 0.999722 -40.37 0.999722 -40.37 0.023529 49.961
8.81450000 0.023530 49.307 0.999721 -40.37 0.999721 -40.37 0.023530 49.960
8.81475000 0.023531 49.305 0.999721 -40.37 0.999721 -40.37 0.023531 49.959
8.81500000 0.023532 49.304 0.999721 -40.37 0.999721 -40.37 0.023532 49.959
8.81525000 0.023533 49.302 0.999721 -40.37 0.999721 -40.37 0.023534 49.958
8.81550000 0.023535 49.301 0.999721 -40.37 0.999721 -40.37 0.023535 49.957
8.81575000 0.023536 49.299 0.999721 -40.38 0.999721 -40.38 0.023536 49.956
8.81600000 0.023537 49.297 0.999721 -40.38 0.999721 -40.38 0.023537 49.956
8.81625000 0.023538 49.296 0.999721 -40.38 0.999721 -40.38 0.023538 49.955
8.81650000 0.023539 49.294 0.999721 -40.38 0.999721 -40.38 0.023539 49.954
8.81675000 0.023540 49.293 0.999721 -40.38 0.999721 -40.38 0.023540 49.953
8.81700000 0.023541 49.291 0.999721 -40.38 0.999721 -40.38 0.023542 49.952
8.81725000 0.023543 49.290 0.999721 -40.38 0.999721 -40.38 0.023543 49.952
8.81750000 0.023544 49.288 0.999721 -40.38 0.999721 -40.38 0.023544 49.951
8.81775000 0.023545 49.286 0.999721 -40.39 0.999721 -40.39 0.023545 49.950
8.81800000 0.023546 49.285 0.999721 -40.39 0.999721 -40.39 0.023546 49.949
8.81825000 0.023547 49.283 0.999721 -40.39 0.999721 -40.39 0.023547 49.948
8.81850000 0.023548 49.282 0.999721 -40.39 0.999721 -40.39 0.023549 49.948
8.81875000 0.023550 49.280 0.999721 -40.39 0.999721 -40.39 0.023550 49.947
8.81900000 0.023551 49.278 0.999721 -40.39 0.999721 -40.39 0.023551 49.946
8.81925000 0.023552 49.277 0.999721 -40.39 0.999721 -40.39 0.023552 49.945
8.81950000 0.023553 49.275 0.999721 -40.39 0.999721 -40.39 0.023553 49.945
8.81975000 0.023554 49.274 0.999721 -40.39 0.999721 -40.39 0.023554 49.944
8.82000000 0.023556 49.272 0.999721 -40.40 0.999721 -40.40 0.023556 49.943
8.82025000 0.023557 49.270 0.999721 -40.40 0.999721 -40.40 0.023557 49.942
8.82050000 0.023558 49.269 0.999721 -40.40 0.999721 -40.40 0.023558 49.942
8.82075000 0.023559 49.267 0.999721 -40.40 0.999721 -40.40 0.023559 49.941
8.82100000 0.023560 49.266 0.999721 -40.40 0.999721 -40.40 0.023560 49.940
8.82125000 0.023562 49.264 0.999721 -40.40 0.999721 -40.40 0.023562 49.939
8.82150000 0.023563 49.262 0.999721 -40.40 0.999721 -40.40 0.023563 49.939
8.82175000 0.023564 49.261 0.999721 -40.40 0.999721 -40.40 0.023564 49.938
8.82200000 0.023565 49.259 0.999721 -40.41 0.999721 -40.41 0.023565 49.937
8.82225000 0.023566 49.257 0.999721 -40.41 0.999721 -40.41 0.023566 49.936
8.82250000 0.023568 49.256 0.999721 -40.41 0.999721 -40.41 0.023568 49.936
8.82275000 0.023569 49.254 0.999721 -40.41 0.999721 -40.41 0.023569 49.935
8.82300000 0.023570 49.253 0.999721 -40.41 0.999721 -40.41 0.023570 49.934
8.82325000 0.023571 49.251 0.999720 -40.41 0.999720 -40.41 0.023571 49.933
8.82350000 0.023573 49.249 0.999720 -40.41 0.999720 -40.41 0.023573 49.933
8.82375000 0.023574 49.248 0.999720 -40.41 0.999720 -40.41 0.023574 49.932
8.82400000 0.023575 49.246 0.999720 -40.41 0.999720 -40.41 0.023575 49.931
8.82425000 0.023576 49.244 0.999720 -40.42 0.999720 -40.42 0.023576 49.930
8.82450000 0.023578 49.243 0.999720 -40.42 0.999720 -40.42 0.023578 49.930
8.82475000 0.023579 49.241 0.999720 -40.42 0.999720 -40.42 0.023579 49.929
8.82500000 0.023580 49.239 0.999720 -40.42 0.999720 -40.42 0.023580 49.928
8.82525000 0.023581 49.238 0.999720 -40.42 0.999720 -40.42 0.023581 49.928
8.82550000 0.023583 49.236 0.999720 -40.42 0.999720 -40.42 0.023583 49.927
8.82575000 0.023584 49.234 0.999720 -40.42 0.999720 -40.42 0.023584 49.926
8.82600000 0.023585 49.233 0.999720 -40.42 0.999720 -40.42 0.023585 49.925
8.82625000 0.023586 49.231 0.999720 -40.43 0.999720 -40.43 0.023586 49.925
8.82650000 0.023588 49.230 0.999720 -40.43 0.999720 -40.43 0.023588 49.924
8.82675000 0.023589 49.228 0.999720 -40.43 0.999720 -40.43 0.023589 49.923
8.82700000 0.023590 49.226 0.999720 -40.43 0.999720 -40.43 0.023590 49.923
8.82725000 0.023592 49.225 0.999720 -40.43 0.999720 -40.43 0.023592 49.922
8.82750000 0.023593 49.223 0.999720 -40.43 0.999720 -40.43 0.023593 49.921
8.82775000 0.023594 49.221 0.999720 -40.43 0.999720 -40.43 0.023594 49.920
8.82800000 0.023595 49.219 0.999720 -40.43 0.999720 -40.43 0.023595 49.920
8.82825000 0.023597 49.218 0.999720 -40.43 0.999720 -40.43 0.023597 49.919
8.82850000 0.023598 49.216 0.999720 -40.44 0.999720 -40.44 0.023598 49.918
8.82875000 0.023599 49.214 0.999720 -40.44 0.999720 -40.44 0.023599 49.918
8.82900000 0.023601 49.213 0.999720 -40.44 0.999720 -40.44 0.023601 49.917
8.82925000 0.023602 49.211 0.999720 -40.44 0.999720 -40.44 0.023602 49.916
8.82950000 0.023603 49.209 0.999720 -40.44 0.999720 -40.44 0.023603 49.916
8.82975000 0.023605 49.208 0.999720 -40.44 0.999720 -40.44 0.023605 49.915
8.83000000 0.023606 49.206 0.999720 -40.44 0.999720 -40.44 0.023606 49.914
8.83025000 0.023607 49.204 0.999720 -40.44 0.999720 -40.44 0.023607 49.914
8.83050000 0.023609 49.203 0.999720 -40.45 0.999720 -40.45 0.023609 49.913
8.83075000 0.023610 49.201 0.999720 -40.45 0.999720 -40.45 0.023610 49.912
8.83100000 0.023611 49.199 0.999720 -40.45 0.999720 -40.45 0.023611 49.912
8.83125000 0.023613 49.197 0.999719 -40.45 0.999719 -40.45 0.023613 49.911
8.83150000 0.023614 49.196 0.999719 -40.45 0.999719 -40.45 0.023614 49.910
8.83175000 0.023615 49.194 0.999719 -40.45 0.999719 -40.45 0.023615 49.910
8.83200000 0.023617 49.192 0.999719 -40.45 0.999719 -40.45 0.023617 49.909
8.83225000 0.023618 49.190 0.999719 -40.45 0.999719 -40.45 0.023618 49.908
8.83250000 0.023620 49.189 0.999719 -40.46 0.999719 -40.46 0.023620 49.908
8.83275000 0.023621 49.187 0.999719 -40.46 0.999719 -40.46 0.023621 49.907
8.83300000 0.023622 49.185 0.999719 -40.46 0.999719 -40.46 0.023622 49.906
8.83325000 0.023624 49.184 0.999719 -40.46 0.999719 -40.46 0.023624 49.906
8.83350000 0.023625 49.182 0.999719 -40.46 0.999719 -40.46 0.023625 49.905
8.83375000 0.023626 49.180 0.999719 -40.46 0.999719 -40.46 0.023627 49.904
8.83400000 0.023628 49.178 0.999719 -40.46 0.999719 -40.46 0.023628 49.904
8.83425000 0.023629 49.177 0.999719 -40.46 0.999719 -40.46 0.023629 49.903
8.83450000 0.023631 49.175 0.999719 -40.46 0.999719 -40.46 0.023631 49.902
8.83475000 0.023632 49.173 0.999719 -40.47 0.999719 -40.47 0.023632 49.902
8.83500000 0.023634 49.171 0.999719 -40.47 0.999719 -40.47 0.023634 49.901
8.83525000 0.023635 49.170 0.999719 -40.47 0.999719 -40.47 0.023635 49.900
8.83550000 0.023636 49.168 0.999719 -40.47 0.999719 -40.47 0.023636 49.900
8.83575000 0.023638 49.166 0.999719 -40.47 0.999719 -40.47 0.023638 49.899
8.83600000 0.023639 49.164 0.999719 -40.47 0.999719 -40.47 0.023639 49.899
8.83625000 0.023641 49.162 0.999719 -40.47 0.999719 -40.47 0.023641 49.898
8.83650000 0.023642 49.161 0.999719 -40.47 0.999719 -40.47 0.023642 49.897
8.83675000 0.023644 49.159 0.999719 -40.48 0.999719 -40.48 0.023644 49.897
8.83700000 0.023645 49.157 0.999719 -40.48 0.999719 -40.48 0.023645 49.896
8.83725000 0.023647 49.155 0.999719 -40.48 0.999719 -40.48 0.023647 49.896
8.83750000 0.023648 49.153 0.999719 -40.48 0.999719 -40.48 0.023648 49.895
8.83775000 0.023649 49.152 0.999719 -40.48 0.999719 -40.48 0.023650 49.894
8.83800000 0.023651 49.150 0.999719 -40.48 0.999719 -40.48 0.023651 49.894
8.83825000 0.023652 49.148 0.999719 -40.48 0.999719 -40.48 0.023653 49.893
8.83850000 0.023654 49.146 0.999719 -40.48 0.999719 -40.48 0.023654 49.893
8.83875000 0.023655 49.144 0.999718 -40.49 0.999718 -40.49 0.023656 49.892
8.83900000 0.023657 49.143 0.999718 -40.49 0.999718 -40.49 0.023657 49.891
8.83925000 0.023658 49.141 0.999718 -40.49 0.999718 -40.49 0.023659 49.891
8.83950000 0.023660 49.139 0.999718 -40.49 0.999718 -40.49 0.023660 49.890
8.83975000 0.023661 49.137 0.999718 -40.49 0.999718 -40.49 0.023662 49.890
8.84000000 0.023663 49.135 0.999718 -40.49 0.999718 -40.49 0.023663 49.889
8.84025000 0.023665 49.133 0.999718 -40.49 0.999718 -40.49 0.023665 49.889
8.84050000 0.023666 49.132 0.999718 -40.49 0.999718 -40.49 0.023666 49.888
8.84075000 0.023668 49.130 0.999718 -40.49 0.999718 -40.49 0.023668 49.887
8.84100000 0.023669 49.128 0.999718 -40.50 0.999718 -40.50 0.023669 49.887
8.84125000 0.023671 49.126 0.999718 -40.50 0.999718 -40.50 0.023671 49.886
8.84150000 0.023672 49.124 0.999718 -40.50 0.999718 -40.50 0.023672 49.886
8.84175000 0.023674 49.122 0.999718 -40.50 0.999718 -40.50 0.023674 49.885
8.84200000 0.023675 49.120 0.999718 -40.50 0.999718 -40.50 0.023676 49.885
8.84225000 0.023677 49.119 0.999718 -40.50 0.999718 -40.50 0.023677 49.884
8.84250000 0.023679 49.117 0.999718 -40.50 0.999718 -40.50 0.023679 49.884
8.84275000 0.023680 49.115 0.999718 -40.50 0.999718 -40.50 0.023680 49.883
8.84300000 0.023682 49.113 0.999718 -40.51 0.999718 -40.51 0.023682 49.882
8.84325000 0.023683 49.111 0.999718 -40.51 0.999718 -40.51 0.023683 49.882
8.84350000 0.023685 49.109 0.999718 -40.51 0.999718 -40.51 0.023685 49.881
8.84375000 0.023687 49.107 0.999718 -40.51 0.999718 -40.51 0.023687 49.881
8.84400000 0.023688 49.105 0.999718 -40.51 0.999718 -40.51 0.023688 49.880
8.84425000 0.023690 49.103 0.999718 -40.51 0.999718 -40.51 0.023690 49.880
8.84450000 0.023692 49.102 0.999718 -40.51 0.999718 -40.51 0.023692 49.879
8.84475000 0.023693 49.100 0.999718 -40.51 0.999718 -40.51 0.023693 49.879
8.84500000 0.023695 49.098 0.999718 -40.52 0.999718 -40.52 0.023695 49.878
8.84525000 0.023696 49.096 0.999717 -40.52 0.999717 -40.52 0.023697 49.878
8.84550000 0.023698 49.094 0.999717 -40.52 0.999717 -40.52 0.023698 49.877
8.84575000 0.023700 49.092 0.999717 -40.52 0.999717 -40.52 0.023700 49.877
8.84600000 0.023701 49.090 0.999717 -40.52 0.999717 -40.52 0.023702 49.876
8.84625000 0.023703 49.088 0.999717 -40.52 0.999717 -40.52 0.023703 49.876
8.84650000 0.023705 49.086 0.999717 -40.52 0.999717 -40.52 0.023705 49.875
8.84675000 0.023707 49.084 0.999717 -40.52 0.999717 -40.52 0.023707 49.875
8.84700000 0.023708 49.082 0.999717 -40.52 0.999717 -40.52 0.023708 49.874
8.84725000 0.023710 49.080 0.999717 -40.53 0.999717 -40.53 0.023710 49.874
8.84750000 0.023712 49.078 0.999717 -40.53 0.999717 -40.53 0.023712 49.874
8.84775000 0.023713 49.076 0.999717 -40.53 0.999717 -40.53 0.023714 49.873
8.84800000 0.023715 49.074 0.999717 -40.53 0.999717 -40.53 0.023715 49.873
8.84825000 0.023717 49.072 0.999717 -40.53 0.999717 -40.53 0.023717 49.872
8.84850000 0.023719 49.070 0.999717 -40.53 0.999717 -40.53 0.023719 49.872
8.84875000 0.023720 49.068 0.999717 -40.53 0.999717 -40.53 0.023721 49.871
8.84900000 0.023722 49.066 0.999717 -40.53 0.999717 -40.53 0.023722 49.871
8.84925000 0.023724 49.064 0.999717 -40.54 0.999717 -40.54 0.023724 49.870
8.84950000 0.023726 49.062 0.999717 -40.54 0.999717 -40.54 0.023726 49.870
8.84975000 0.023728 49.060 0.999717 -40.54 0.999717 -40.54 0.023728 49.870
8.85000000 0.023729 49.058 0.999717 -40.54 0.999717 -40.54 0.023729 49.869
8.85025000 0.023731 49.056 0.999717 -40.54 0.999717 -40.54 0.023731 49.869
8.85050000 0.023733 49.054 0.999717 -40.54 0.999717 -40.54 0.023733 49.868
8.85075000 0.023735 49.052 0.999717 -40.54 0.999717 -40.54 0.023735 49.868
8.85100000 0.023737 49.050 0.999717 -40.54 0.999717 -40.54 0.023737 49.868
8.85125000 0.023739 49.048 0.999716 -40.55 0.999716 -40.55 0.023739 49.867
8.85150000 0.023740 49.046 0.999716 -40.55 0.999716 -40.55 0.023740 49.867
8.85175000 0.023742 49.044 0.999716 -40.55 0.999716 -40.55 0.023742 49.866
8.85200000 0.023744 49.042 0.999716 -40.55 0.999716 -40.55 0.023744 49.866
8.85225000 0.023746 49.040 0.999716 -40.55 0.999716 -40.55 0.023746 49.866
8.85250000 0.023748 49.038 0.999716 -40.55 0.999716 -40.55 0.023748 49.865
8.85275000 0.023750 49.036 0.999716 -40.55 0.999716 -40.55 0.023750 49.865
8.85300000 0.023752 49.034 0.999716 -40.55 0.999716 -40.55 0.023752 49.865
8.85325000 0.023754 49.031 0.999716 -40.56 0.999716 -40.56 0.023754 49.864
8.85350000 0.023756 49.029 0.999716 -40.56 0.999716 -40.56 0.023756 49.864
8.85375000 0.023757 49.027 0.999716 -40.56 0.999716 -40.56 0.023758 49.863
8.85400000 0.023759 49.025 0.999716 -40.56 0.999716 -40.56 0.023759 49.863
8.85425000 0.023761 49.023 0.999716 -40.56 0.999716 -40.56 0.023761 49.863
8.85450000 0.023763 49.021 0.999716 -40.56 0.999716 -40.56 0.023763 49.862
8.85475000 0.023765 49.019 0.999716 -40.56 0.999716 -40.56 0.023765 49.862
8.85500000 0.023767 49.017 0.999716 -40.56 0.999716 -40.56 0.023767 49.862
8.85525000 0.023769 49.014 0.999716 -40.57 0.999716 -40.57 0.023769 49.862
8.85550000 0.023771 49.012 0.999716 -40.57 0.999716 -40.57 0.023771 49.861
8.85575000 0.023773 49.010 0.999716 -40.57 0.999716 -40.57 0.023773 49.861
8.85600000 0.023775 49.008 0.999716 -40.57 0.999716 -40.57 0.023775 49.861
8.85625000 0.023777 49.006 0.999716 -40.57 0.999716 -40.57 0.023777 49.860
8.85650000 0.023779 49.004 0.999715 -40.57 0.999715 -40.57 0.023779 49.860
8.85675000 0.023781 49.001 0.999715 -40.57 0.999715 -40.57 0.023782 49.860
8.85700000 0.023784 48.999 0.999715 -40.57 0.999715 -40.57 0.023784 49.860
8.85725000 0.023786 48.997 0.999715 -40.58 0.999715 -40.58 0.023786 49.859
8.85750000 0.023788 48.995 0.999715 -40.58 0.999715 -40.58 0.023788 49.859
8.85775000 0.023790 48.992 0.999715 -40.58 0.999715 -40.58 0.023790 49.859
8.85800000 0.023792 48.990 0.999715 -40.58 0.999715 -40.58 0.023792 49.858
8.85825000 0.023794 48.988 0.999715 -40.58 0.999715 -40.58 0.023794 49.858
8.85850000 0.023796 48.986 0.999715 -40.58 0.999715 -40.58 0.023796 49.858
8.85875000 0.023798 48.983 0.999715 -40.58 0.999715 -40.58 0.023798 49.858
8.85900000 0.023800 48.981 0.999715 -40.58 0.999715 -40.58 0.023801 49.858
8.85925000 0.023803 48.979 0.999715 -40.58 0.999715 -40.58 0.023803 49.857
8.85950000 0.023805 48.977 0.999715 -40.59 0.999715 -40.59 0.023805 49.857
8.85975000 0.023807 48.974 0.999715 -40.59 0.999715 -40.59 0.023807 49.857
8.86000000 0.023809 48.972 0.999715 -40.59 0.999715 -40.59 0.023809 49.857
8.86025000 0.023811 48.970 0.999715 -40.59 0.999715 -40.59 0.023812 49.857
8.86050000 0.023814 48.967 0.999715 -40.59 0.999715 -40.59 0.023814 49.856
8.86075000 0.023816 48.965 0.999715 -40.59 0.999715 -40.59 0.023816 49.856
8.86100000 0.023818 48.963 0.999715 -40.59 0.999715 -40.59 0.023818 49.856
8.86125000 0.023820 48.960 0.999714 -40.59 0.999714 -40.59 0.023821 49.856
8.86150000 0.023823 48.958 0.999714 -40.60 0.999714 -40.60 0.023823 49.856
8.86175000 0.023825 48.956 0.999714 -40.60 0.999714 -40.60 0.023825 49.856
8.86200000 0.023827 48.953 0.999714 -40.60 0.999714 -40.60 0.023827 49.856
8.86225000 0.023830 48.951 0.999714 -40.60 0.999714 -40.60 0.023830 49.855
8.86250000 0.023832 48.949 0.999714 -40.60 0.999714 -40.60 0.023832 49.855
8.86275000 0.023834 48.946 0.999714 -40.60 0.999714 -40.60 0.023835 49.855
8.86300000 0.023837 48.944 0.999714 -40.60 0.999714 -40.60 0.023837 49.855
8.86325000 0.023839 48.941 0.999714 -40.60 0.999714 -40.60 0.023839 49.855
8.86350000 0.023842 48.939 0.999714 -40.61 0.999714 -40.61 0.023842 49.855
8.86375000 0.023844 48.937 0.999714 -40.61 0.999714 -40.61 0.023844 49.855
8.86400000 0.023846 48.934 0.999714 -40.61 0.999714 -40.61 0.023847 49.855
8.86425000 0.023849 48.932 0.999714 -40.61 0.999714 -40.61 0.023849 49.855
8.86450000 0.023851 48.929 0.999714 -40.61 0.999714 -40.61 0.023851 49.855
8.86475000 0.023854 48.927 0.999714 -40.61 0.999714 -40.61 0.023854 49.855
8.86500000 0.023856 48.924 0.999714 -40.61 0.999714 -40.61 0.023856 49.855
8.86525000 0.023859 48.922 0.999714 -40.61 0.999714 -40.61 0.023859 49.854
8.86550000 0.023861 48.919 0.999713 -40.62 0.999713 -40.62 0.023861 49.854
8.86575000 0.023864 48.917 0.999713 -40.62 0.999713 -40.62 0.023864 49.854
8.86592414 0.023866 48.915 0.999713 -40.62 0.999713 -40.62 0.023866 49.854
8.86600000 0.023866 48.914 0.999713 -40.62 0.999713 -40.62 0.023867 49.854
8.86625000 0.023869 48.912 0.999713 -40.62 0.999713 -40.62 0.023869 49.854
8.86650000 0.023872 48.909 0.999713 -40.62 0.999713 -40.62 0.023872 49.854
8.86675000 0.023874 48.906 0.999713 -40.62 0.999713 -40.62 0.023874 49.855
8.86700000 0.023877 48.904 0.999713 -40.62 0.999713 -40.62 0.023877 49.855
8.86725000 0.023879 48.901 0.999713 -40.63 0.999713 -40.63 0.023880 49.855
8.86731565 0.023880 48.901 0.999713 -40.63 0.999713 -40.63 0.023880 49.855
8.86750000 0.023882 48.899 0.999713 -40.63 0.999713 -40.63 0.023882 49.855
8.86775000 0.023885 48.896 0.999713 -40.63 0.999713 -40.63 0.023885 49.855
8.86800000 0.023887 48.893 0.999713 -40.63 0.999713 -40.63 0.023888 49.855
8.86825000 0.023890 48.891 0.999713 -40.63 0.999713 -40.63 0.023890 49.855
8.86850000 0.023893 48.888 0.999713 -40.63 0.999713 -40.63 0.023893 49.855
8.86867528 0.023895 48.886 0.999713 -40.63 0.999713 -40.63 0.023895 49.855
8.86875000 0.023896 48.885 0.999713 -40.63 0.999713 -40.63 0.023896 49.855
8.86900000 0.023898 48.883 0.999713 -40.63 0.999713 -40.63 0.023899 49.855
8.86925000 0.023901 48.880 0.999713 -40.64 0.999713 -40.64 0.023901 49.855
8.86950000 0.023904 48.877 0.999712 -40.64 0.999712 -40.64 0.023904 49.855
8.86975000 0.023907 48.875 0.999712 -40.64 0.999712 -40.64 0.023907 49.856
8.87000000 0.023910 48.872 0.999712 -40.64 0.999712 -40.64 0.023910 49.856
8.87000375 0.023910 48.872 0.999712 -40.64 0.999712 -40.64 0.023910 49.856
8.87025000 0.023913 48.869 0.999712 -40.64 0.999712 -40.64 0.023913 49.856
8.87050000 0.023915 48.866 0.999712 -40.64 0.999712 -40.64 0.023916 49.856
8.87075000 0.023918 48.864 0.999712 -40.64 0.999712 -40.64 0.023919 49.856
8.87100000 0.023921 48.861 0.999712 -40.64 0.999712 -40.64 0.023921 49.857
8.87125000 0.023924 48.858 0.999712 -40.65 0.999712 -40.65 0.023924 49.857
8.87130178 0.023925 48.858 0.999712 -40.65 0.999712 -40.65 0.023925 49.857
8.87150000 0.023927 48.855 0.999712 -40.65 0.999712 -40.65 0.023927 49.857
8.87175000 0.023930 48.852 0.999712 -40.65 0.999712 -40.65 0.023930 49.857
8.87200000 0.023933 48.850 0.999712 -40.65 0.999712 -40.65 0.023933 49.858
8.87225000 0.023936 48.847 0.999712 -40.65 0.999712 -40.65 0.023936 49.858
8.87250000 0.023939 48.844 0.999712 -40.65 0.999712 -40.65 0.023940 49.858
8.87257006 0.023940 48.843 0.999712 -40.65 0.999712 -40.65 0.023940 49.858
8.87275000 0.023942 48.841 0.999712 -40.65 0.999712 -40.65 0.023943 49.858
8.87300000 0.023946 48.838 0.999711 -40.65 0.999711 -40.65 0.023946 49.859
8.87325000 0.023949 48.835 0.999711 -40.66 0.999711 -40.66 0.023949 49.859
8.87350000 0.023952 48.832 0.999711 -40.66 0.999711 -40.66 0.023952 49.859
8.87375000 0.023955 48.829 0.999711 -40.66 0.999711 -40.66 0.023955 49.860
8.87380929 0.023956 48.829 0.999711 -40.66 0.999711 -40.66 0.023956 49.860
8.87400000 0.023958 48.826 0.999711 -40.66 0.999711 -40.66 0.023958 49.860
8.87425000 0.023962 48.823 0.999711 -40.66 0.999711 -40.66 0.023962 49.860
8.87450000 0.023965 48.820 0.999711 -40.66 0.999711 -40.66 0.023965 49.861
8.87475000 0.023968 48.817 0.999711 -40.66 0.999711 -40.66 0.023968 49.861
8.87500000 0.023971 48.814 0.999711 -40.67 0.999711 -40.67 0.023972 49.862
8.87502012 0.023972 48.814 0.999711 -40.67 0.999711 -40.67 0.023972 49.862
8.87525000 0.023975 48.811 0.999711 -40.67 0.999711 -40.67 0.023975 49.862
8.87550000 0.023978 48.808 0.999711 -40.67 0.999711 -40.67 0.023978 49.862
8.87575000 0.023982 48.805 0.999711 -40.67 0.999711 -40.67 0.023982 49.863
8.87600000 0.023985 48.802 0.999710 -40.67 0.999710 -40.67 0.023985 49.863
8.87620320 0.023988 48.799 0.999710 -40.67 0.999710 -40.67 0.023988 49.864
8.87625000 0.023988 48.799 0.999710 -40.67 0.999710 -40.67 0.023989 49.864
8.87650000 0.023992 48.796 0.999710 -40.67 0.999710 -40.67 0.023992 49.864
8.87675000 0.023995 48.792 0.999710 -40.67 0.999710 -40.67 0.023996 49.865
8.87700000 0.023999 48.789 0.999710 -40.68 0.999710 -40.68 0.023999 49.865
8.87725000 0.024003 48.786 0.999710 -40.68 0.999710 -40.68 0.024003 49.866
8.87735918 0.024004 48.785 0.999710 -40.68 0.999710 -40.68 0.024004 49.866
8.87750000 0.024006 48.783 0.999710 -40.68 0.999710 -40.68 0.024006 49.867
8.87775000 0.024010 48.779 0.999710 -40.68 0.999710 -40.68 0.024010 49.867
8.87800000 0.024013 48.776 0.999710 -40.68 0.999710 -40.68 0.024014 49.868
8.87825000 0.024017 48.773 0.999710 -40.68 0.999710 -40.68 0.024017 49.868
8.87848867 0.024021 48.770 0.999710 -40.68 0.999710 -40.68 0.024021 49.869
8.87850000 0.024021 48.770 0.999710 -40.68 0.999710 -40.68 0.024021 49.869
8.87875000 0.024025 48.766 0.999709 -40.68 0.999709 -40.68 0.024025 49.870
8.87900000 0.024029 48.763 0.999709 -40.69 0.999709 -40.69 0.024029 49.870
8.87925000 0.024032 48.759 0.999709 -40.69 0.999709 -40.69 0.024033 49.871
8.87950000 0.024036 48.756 0.999709 -40.69 0.999709 -40.69 0.024036 49.872
8.87959228 0.024038 48.755 0.999709 -40.69 0.999709 -40.69 0.024038 49.872
8.87975000 0.024040 48.753 0.999709 -40.69 0.999709 -40.69 0.024040 49.873
8.88000000 0.024044 48.749 0.999709 -40.69 0.999709 -40.69 0.024044 49.873
8.88025000 0.024048 48.746 0.999709 -40.69 0.999709 -40.69 0.024048 49.874
8.88050000 0.024052 48.742 0.999709 -40.69 0.999709 -40.69 0.024052 49.875
8.88067060 0.024055 48.740 0.999709 -40.70 0.999709 -40.70 0.024055 49.875
8.88075000 0.024056 48.739 0.999709 -40.70 0.999709 -40.70 0.024056 49.876
8.88100000 0.024060 48.735 0.999709 -40.70 0.999709 -40.70 0.024060 49.877
8.88125000 0.024064 48.731 0.999708 -40.70 0.999708 -40.70 0.024065 49.877
8.88150000 0.024069 48.728 0.999708 -40.70 0.999708 -40.70 0.024069 49.878
8.88172421 0.024072 48.725 0.999708 -40.70 0.999708 -40.70 0.024073 49.879
8.88175000 0.024073 48.724 0.999708 -40.70 0.999708 -40.70 0.024073 49.879
8.88200000 0.024077 48.721 0.999708 -40.70 0.999708 -40.70 0.024077 49.880
8.88225000 0.024081 48.717 0.999708 -40.70 0.999708 -40.70 0.024082 49.881
8.88250000 0.024086 48.713 0.999708 -40.71 0.999708 -40.71 0.024086 49.882
8.88275000 0.024090 48.709 0.999708 -40.71 0.999708 -40.71 0.024090 49.883
8.88275368 0.024090 48.709 0.999708 -40.71 0.999708 -40.71 0.024090 49.883
8.88300000 0.024095 48.706 0.999708 -40.71 0.999708 -40.71 0.024095 49.884
8.88325000 0.024099 48.702 0.999708 -40.71 0.999708 -40.71 0.024099 49.885
8.88350000 0.024104 48.698 0.999708 -40.71 0.999708 -40.71 0.024104 49.886
8.88375000 0.024108 48.694 0.999707 -40.71 0.999707 -40.71 0.024108 49.887
8.88375956 0.024108 48.694 0.999707 -40.71 0.999707 -40.71 0.024108 49.887
8.88400000 0.024113 48.690 0.999707 -40.71 0.999707 -40.71 0.024113 49.888
8.88425000 0.024117 48.686 0.999707 -40.71 0.999707 -40.71 0.024118 49.889
8.88450000 0.024122 48.682 0.999707 -40.72 0.999707 -40.72 0.024122 49.891
8.88474239 0.024127 48.678 0.999707 -40.72 0.999707 -40.72 0.024127 49.892
8.88475000 0.024127 48.678 0.999707 -40.72 0.999707 -40.72 0.024127 49.892
8.88500000 0.024132 48.674 0.999707 -40.72 0.999707 -40.72 0.024132 49.893
8.88525000 0.024137 48.670 0.999707 -40.72 0.999707 -40.72 0.024137 49.894
8.88550000 0.024141 48.666 0.999707 -40.72 0.999707 -40.72 0.024142 49.896
8.88570271 0.024145 48.663 0.999706 -40.72 0.999706 -40.72 0.024146 49.897
8.88575000 0.024146 48.662 0.999706 -40.72 0.999706 -40.72 0.024147 49.897
8.88600000 0.024151 48.658 0.999706 -40.72 0.999706 -40.72 0.024152 49.898
8.88625000 0.024157 48.653 0.999706 -40.73 0.999706 -40.73 0.024157 49.900
8.88650000 0.024162 48.649 0.999706 -40.73 0.999706 -40.73 0.024162 49.901
8.88664101 0.024165 48.647 0.999706 -40.73 0.999706 -40.73 0.024165 49.902
8.88675000 0.024167 48.645 0.999706 -40.73 0.999706 -40.73 0.024167 49.902
8.88700000 0.024172 48.641 0.999706 -40.73 0.999706 -40.73 0.024172 49.904
8.88725000 0.024177 48.636 0.999706 -40.73 0.999706 -40.73 0.024178 49.905
8.88750000 0.024183 48.632 0.999706 -40.73 0.999706 -40.73 0.024183 49.907
8.88755782 0.024184 48.631 0.999706 -40.73 0.999706 -40.73 0.024184 49.907
8.88775000 0.024188 48.627 0.999705 -40.73 0.999705 -40.73 0.024188 49.908
8.88800000 0.024194 48.623 0.999705 -40.74 0.999705 -40.74 0.024194 49.910
8.88825000 0.024199 48.618 0.999705 -40.74 0.999705 -40.74 0.024200 49.912
8.88845362 0.024204 48.615 0.999705 -40.74 0.999705 -40.74 0.024204 49.913
8.88850000 0.024205 48.614 0.999705 -40.74 0.999705 -40.74 0.024205 49.913
8.88875000 0.024211 48.609 0.999705 -40.74 0.999705 -40.74 0.024211 49.915
8.88900000 0.024216 48.605 0.999705 -40.74 0.999705 -40.74 0.024217 49.917
8.88925000 0.024222 48.600 0.999705 -40.74 0.999705 -40.74 0.024223 49.918
8.88932889 0.024224 48.598 0.999704 -40.74 0.999704 -40.74 0.024224 49.919
8.88950000 0.024228 48.595 0.999704 -40.74 0.999704 -40.74 0.024228 49.920
8.88975000 0.024234 48.590 0.999704 -40.75 0.999704 -40.75 0.024234 49.922
8.89000000 0.024240 48.585 0.999704 -40.75 0.999704 -40.75 0.024240 49.924
8.89018411 0.024245 48.582 0.999704 -40.75 0.999704 -40.75 0.024245 49.925
8.89025000 0.024246 48.581 0.999704 -40.75 0.999704 -40.75 0.024247 49.926
8.89050000 0.024253 48.576 0.999704 -40.75 0.999704 -40.75 0.024253 49.928
8.89075000 0.024259 48.571 0.999704 -40.75 0.999704 -40.75 0.024259 49.930
8.89100000 0.024265 48.566 0.999703 -40.75 0.999703 -40.75 0.024266 49.932
8.89101973 0.024266 48.565 0.999703 -40.75 0.999703 -40.75 0.024266 49.932
8.89125000 0.024272 48.560 0.999703 -40.76 0.999703 -40.76 0.024272 49.934
8.89150000 0.024278 48.555 0.999703 -40.76 0.999703 -40.76 0.024279 49.936
8.89175000 0.024285 48.550 0.999703 -40.76 0.999703 -40.76 0.024285 49.938
8.89183621 0.024287 48.548 0.999703 -40.76 0.999703 -40.76 0.024287 49.939
8.89200000 0.024292 48.545 0.999703 -40.76 0.999703 -40.76 0.024292 49.940