! Sonnet Data File
! From: emgraph Version : 16.52
! From Project: Resonator2
! Data is De-embedded 
! Data File Written: 10/04/2017 18:31:03
!< HDATE 10/04/2017 15:54:54
!< MDATE 10/04/2017 15:55:28
!< PARAMS
!< gap = 36.0
!< Length = 400.0
!< END PARAMS
# GHZ S MA R 50.00000
8.80000000 0.023186 49.555 0.999730 -40.29 0.999730 -40.29 0.023186 49.881
!< P1 F=8.8 Eeff=(6.44890994 -2.9739e-5) Z0=(51.8068348 1.19496e-4) R=0.0 C=0.0 
!< P2 F=8.8 Eeff=(6.44890994 -2.9739e-5) Z0=(51.8068348 1.19496e-4) R=0.0 C=0.0 
8.80025000 0.023187 49.554 0.999730 -40.29 0.999730 -40.29 0.023187 49.880
8.80050000 0.023187 49.553 0.999730 -40.29 0.999730 -40.29 0.023187 49.879
8.80075000 0.023188 49.551 0.999730 -40.29 0.999730 -40.29 0.023188 49.878
8.80100000 0.023189 49.550 0.999730 -40.29 0.999730 -40.29 0.023189 49.877
8.80125000 0.023190 49.549 0.999729 -40.29 0.999729 -40.29 0.023190 49.876
8.80150000 0.023190 49.547 0.999729 -40.29 0.999729 -40.29 0.023190 49.875
8.80175000 0.023191 49.546 0.999729 -40.29 0.999729 -40.29 0.023191 49.874
8.80200000 0.023192 49.545 0.999729 -40.29 0.999729 -40.29 0.023192 49.873
8.80225000 0.023192 49.543 0.999729 -40.30 0.999729 -40.30 0.023193 49.872
8.80250000 0.023193 49.542 0.999729 -40.30 0.999729 -40.30 0.023193 49.871
8.80275000 0.023194 49.541 0.999729 -40.30 0.999729 -40.30 0.023194 49.870
8.80300000 0.023195 49.539 0.999729 -40.30 0.999729 -40.30 0.023195 49.869
8.80325000 0.023195 49.538 0.999729 -40.30 0.999729 -40.30 0.023196 49.868
8.80350000 0.023196 49.537 0.999729 -40.30 0.999729 -40.30 0.023196 49.867
8.80375000 0.023197 49.536 0.999729 -40.30 0.999729 -40.30 0.023197 49.866
8.80400000 0.023198 49.534 0.999729 -40.30 0.999729 -40.30 0.023198 49.865
8.80425000 0.023198 49.533 0.999729 -40.30 0.999729 -40.30 0.023199 49.864
8.80450000 0.023199 49.532 0.999729 -40.31 0.999729 -40.31 0.023199 49.863
8.80475000 0.023200 49.530 0.999729 -40.31 0.999729 -40.31 0.023200 49.862
8.80500000 0.023201 49.529 0.999729 -40.31 0.999729 -40.31 0.023201 49.861
8.80525000 0.023202 49.528 0.999729 -40.31 0.999729 -40.31 0.023202 49.860
8.80550000 0.023202 49.526 0.999729 -40.31 0.999729 -40.31 0.023202 49.859
8.80575000 0.023203 49.525 0.999729 -40.31 0.999729 -40.31 0.023203 49.858
8.80600000 0.023204 49.524 0.999729 -40.31 0.999729 -40.31 0.023204 49.857
8.80625000 0.023205 49.522 0.999729 -40.31 0.999729 -40.31 0.023205 49.857
8.80650000 0.023205 49.521 0.999729 -40.32 0.999729 -40.32 0.023205 49.856
8.80675000 0.023206 49.520 0.999729 -40.32 0.999729 -40.32 0.023206 49.855
8.80700000 0.023207 49.518 0.999729 -40.32 0.999729 -40.32 0.023207 49.854
8.80725000 0.023208 49.517 0.999729 -40.32 0.999729 -40.32 0.023208 49.853
8.80750000 0.023208 49.516 0.999729 -40.32 0.999729 -40.32 0.023208 49.852
8.80775000 0.023209 49.514 0.999729 -40.32 0.999729 -40.32 0.023209 49.851
8.80800000 0.023210 49.513 0.999729 -40.32 0.999729 -40.32 0.023210 49.850
8.80825000 0.023211 49.512 0.999729 -40.32 0.999729 -40.32 0.023211 49.849
8.80850000 0.023211 49.510 0.999729 -40.32 0.999729 -40.32 0.023211 49.848
8.80875000 0.023212 49.509 0.999729 -40.33 0.999729 -40.33 0.023212 49.847
8.80900000 0.023213 49.508 0.999729 -40.33 0.999729 -40.33 0.023213 49.846
8.80925000 0.023214 49.506 0.999729 -40.33 0.999729 -40.33 0.023214 49.845
8.80950000 0.023215 49.505 0.999729 -40.33 0.999729 -40.33 0.023215 49.844
8.80975000 0.023215 49.504 0.999729 -40.33 0.999729 -40.33 0.023215 49.843
8.81000000 0.023216 49.502 0.999729 -40.33 0.999729 -40.33 0.023216 49.842
8.81025000 0.023217 49.501 0.999729 -40.33 0.999729 -40.33 0.023217 49.841
8.81050000 0.023218 49.499 0.999729 -40.33 0.999729 -40.33 0.023218 49.840
8.81075000 0.023218 49.498 0.999729 -40.33 0.999729 -40.33 0.023218 49.839
8.81100000 0.023219 49.497 0.999729 -40.34 0.999729 -40.34 0.023219 49.838
8.81125000 0.023220 49.495 0.999729 -40.34 0.999729 -40.34 0.023220 49.837
8.81150000 0.023221 49.494 0.999729 -40.34 0.999729 -40.34 0.023221 49.836
8.81175000 0.023222 49.493 0.999729 -40.34 0.999729 -40.34 0.023222 49.835
8.81200000 0.023222 49.491 0.999729 -40.34 0.999729 -40.34 0.023222 49.834
8.81225000 0.023223 49.490 0.999729 -40.34 0.999729 -40.34 0.023223 49.833
8.81250000 0.023224 49.489 0.999729 -40.34 0.999729 -40.34 0.023224 49.832
8.81275000 0.023225 49.487 0.999729 -40.34 0.999729 -40.34 0.023225 49.831
8.81300000 0.023225 49.486 0.999729 -40.35 0.999729 -40.35 0.023225 49.830
8.81325000 0.023226 49.485 0.999729 -40.35 0.999729 -40.35 0.023226 49.829
8.81350000 0.023227 49.483 0.999729 -40.35 0.999729 -40.35 0.023227 49.828
8.81375000 0.023228 49.482 0.999729 -40.35 0.999729 -40.35 0.023228 49.827
8.81400000 0.023229 49.481 0.999729 -40.35 0.999729 -40.35 0.023229 49.826
8.81425000 0.023229 49.479 0.999729 -40.35 0.999729 -40.35 0.023229 49.825
8.81450000 0.023230 49.478 0.999729 -40.35 0.999729 -40.35 0.023230 49.824
8.81475000 0.023231 49.476 0.999728 -40.35 0.999728 -40.35 0.023231 49.823
8.81500000 0.023232 49.475 0.999728 -40.35 0.999728 -40.35 0.023232 49.823
8.81525000 0.023233 49.474 0.999728 -40.36 0.999728 -40.36 0.023233 49.822
8.81550000 0.023233 49.472 0.999728 -40.36 0.999728 -40.36 0.023233 49.821
8.81575000 0.023234 49.471 0.999728 -40.36 0.999728 -40.36 0.023234 49.820
8.81600000 0.023235 49.470 0.999728 -40.36 0.999728 -40.36 0.023235 49.819
8.81625000 0.023236 49.468 0.999728 -40.36 0.999728 -40.36 0.023236 49.818
8.81650000 0.023237 49.467 0.999728 -40.36 0.999728 -40.36 0.023237 49.817
8.81675000 0.023237 49.466 0.999728 -40.36 0.999728 -40.36 0.023237 49.816
8.81700000 0.023238 49.464 0.999728 -40.36 0.999728 -40.36 0.023238 49.815
8.81725000 0.023239 49.463 0.999728 -40.37 0.999728 -40.37 0.023239 49.814
8.81750000 0.023240 49.461 0.999728 -40.37 0.999728 -40.37 0.023240 49.813
8.81775000 0.023241 49.460 0.999728 -40.37 0.999728 -40.37 0.023241 49.812
8.81800000 0.023241 49.459 0.999728 -40.37 0.999728 -40.37 0.023241 49.811
8.81825000 0.023242 49.457 0.999728 -40.37 0.999728 -40.37 0.023242 49.810
8.81850000 0.023243 49.456 0.999728 -40.37 0.999728 -40.37 0.023243 49.809
8.81875000 0.023244 49.455 0.999728 -40.37 0.999728 -40.37 0.023244 49.808
8.81900000 0.023245 49.453 0.999728 -40.37 0.999728 -40.37 0.023245 49.807
8.81925000 0.023246 49.452 0.999728 -40.37 0.999728 -40.37 0.023246 49.806
8.81950000 0.023246 49.450 0.999728 -40.38 0.999728 -40.38 0.023246 49.805
8.81975000 0.023247 49.449 0.999728 -40.38 0.999728 -40.38 0.023247 49.804
8.82000000 0.023248 49.448 0.999728 -40.38 0.999728 -40.38 0.023248 49.804
8.82025000 0.023249 49.446 0.999728 -40.38 0.999728 -40.38 0.023249 49.803
8.82050000 0.023250 49.445 0.999728 -40.38 0.999728 -40.38 0.023250 49.802
8.82075000 0.023250 49.444 0.999728 -40.38 0.999728 -40.38 0.023250 49.801
8.82100000 0.023251 49.442 0.999728 -40.38 0.999728 -40.38 0.023251 49.800
8.82125000 0.023252 49.441 0.999728 -40.38 0.999728 -40.38 0.023252 49.799
8.82150000 0.023253 49.439 0.999728 -40.38 0.999728 -40.38 0.023253 49.798
8.82175000 0.023254 49.438 0.999728 -40.39 0.999728 -40.39 0.023254 49.797
8.82200000 0.023255 49.437 0.999728 -40.39 0.999728 -40.39 0.023255 49.796
8.82225000 0.023255 49.435 0.999728 -40.39 0.999728 -40.39 0.023255 49.795
8.82250000 0.023256 49.434 0.999728 -40.39 0.999728 -40.39 0.023256 49.794
8.82275000 0.023257 49.432 0.999728 -40.39 0.999728 -40.39 0.023257 49.793
8.82300000 0.023258 49.431 0.999728 -40.39 0.999728 -40.39 0.023258 49.792
8.82325000 0.023259 49.430 0.999728 -40.39 0.999728 -40.39 0.023259 49.791
8.82350000 0.023260 49.428 0.999728 -40.39 0.999728 -40.39 0.023260 49.790
8.82375000 0.023260 49.427 0.999728 -40.40 0.999728 -40.40 0.023261 49.790
8.82400000 0.023261 49.425 0.999728 -40.40 0.999728 -40.40 0.023261 49.789
8.82425000 0.023262 49.424 0.999728 -40.40 0.999728 -40.40 0.023262 49.788
8.82450000 0.023263 49.423 0.999728 -40.40 0.999728 -40.40 0.023263 49.787
8.82475000 0.023264 49.421 0.999728 -40.40 0.999728 -40.40 0.023264 49.786
8.82500000 0.023265 49.420 0.999728 -40.40 0.999728 -40.40 0.023265 49.785
8.82525000 0.023266 49.418 0.999728 -40.40 0.999728 -40.40 0.023266 49.784
8.82550000 0.023266 49.417 0.999728 -40.40 0.999728 -40.40 0.023266 49.783
8.82575000 0.023267 49.416 0.999728 -40.40 0.999728 -40.40 0.023267 49.782
8.82600000 0.023268 49.414 0.999728 -40.41 0.999728 -40.41 0.023268 49.781
8.82625000 0.023269 49.413 0.999728 -40.41 0.999728 -40.41 0.023269 49.780
8.82650000 0.023270 49.411 0.999728 -40.41 0.999728 -40.41 0.023270 49.779
8.82675000 0.023271 49.410 0.999728 -40.41 0.999728 -40.41 0.023271 49.778
8.82700000 0.023272 49.409 0.999728 -40.41 0.999728 -40.41 0.023272 49.778
8.82725000 0.023272 49.407 0.999728 -40.41 0.999728 -40.41 0.023272 49.777
8.82750000 0.023273 49.406 0.999727 -40.41 0.999727 -40.41 0.023273 49.776
8.82775000 0.023274 49.404 0.999727 -40.41 0.999727 -40.41 0.023274 49.775
8.82800000 0.023275 49.403 0.999727 -40.42 0.999727 -40.42 0.023275 49.774
8.82825000 0.023276 49.401 0.999727 -40.42 0.999727 -40.42 0.023276 49.773
8.82850000 0.023277 49.400 0.999727 -40.42 0.999727 -40.42 0.023277 49.772
8.82875000 0.023278 49.399 0.999727 -40.42 0.999727 -40.42 0.023278 49.771
8.82900000 0.023279 49.397 0.999727 -40.42 0.999727 -40.42 0.023279 49.770
8.82925000 0.023279 49.396 0.999727 -40.42 0.999727 -40.42 0.023279 49.769
8.82950000 0.023280 49.394 0.999727 -40.42 0.999727 -40.42 0.023280 49.768
8.82975000 0.023281 49.393 0.999727 -40.42 0.999727 -40.42 0.023281 49.768
8.83000000 0.023282 49.392 0.999727 -40.42 0.999727 -40.42 0.023282 49.767
8.83025000 0.023283 49.390 0.999727 -40.43 0.999727 -40.43 0.023283 49.766
8.83050000 0.023284 49.389 0.999727 -40.43 0.999727 -40.43 0.023284 49.765
8.83075000 0.023285 49.387 0.999727 -40.43 0.999727 -40.43 0.023285 49.764
8.83100000 0.023286 49.386 0.999727 -40.43 0.999727 -40.43 0.023286 49.763
8.83125000 0.023287 49.384 0.999727 -40.43 0.999727 -40.43 0.023287 49.762
8.83150000 0.023287 49.383 0.999727 -40.43 0.999727 -40.43 0.023287 49.761
8.83175000 0.023288 49.381 0.999727 -40.43 0.999727 -40.43 0.023288 49.760
8.83200000 0.023289 49.380 0.999727 -40.43 0.999727 -40.43 0.023289 49.760
8.83225000 0.023290 49.379 0.999727 -40.43 0.999727 -40.43 0.023290 49.759
8.83250000 0.023291 49.377 0.999727 -40.44 0.999727 -40.44 0.023291 49.758
8.83275000 0.023292 49.376 0.999727 -40.44 0.999727 -40.44 0.023292 49.757
8.83300000 0.023293 49.374 0.999727 -40.44 0.999727 -40.44 0.023293 49.756
8.83325000 0.023294 49.373 0.999727 -40.44 0.999727 -40.44 0.023294 49.755
8.83350000 0.023295 49.371 0.999727 -40.44 0.999727 -40.44 0.023295 49.754
8.83375000 0.023296 49.370 0.999727 -40.44 0.999727 -40.44 0.023296 49.753
8.83400000 0.023296 49.368 0.999727 -40.44 0.999727 -40.44 0.023296 49.752
8.83425000 0.023297 49.367 0.999727 -40.44 0.999727 -40.44 0.023297 49.752
8.83450000 0.023298 49.366 0.999727 -40.45 0.999727 -40.45 0.023298 49.751
8.83475000 0.023299 49.364 0.999727 -40.45 0.999727 -40.45 0.023299 49.750
8.83500000 0.023300 49.363 0.999727 -40.45 0.999727 -40.45 0.023300 49.749
8.83525000 0.023301 49.361 0.999727 -40.45 0.999727 -40.45 0.023301 49.748
8.83550000 0.023302 49.360 0.999727 -40.45 0.999727 -40.45 0.023302 49.747
8.83575000 0.023303 49.358 0.999727 -40.45 0.999727 -40.45 0.023303 49.746
8.83600000 0.023304 49.357 0.999727 -40.45 0.999727 -40.45 0.023304 49.745
8.83625000 0.023305 49.355 0.999727 -40.45 0.999727 -40.45 0.023305 49.745
8.83650000 0.023306 49.354 0.999727 -40.45 0.999727 -40.45 0.023306 49.744
8.83675000 0.023307 49.352 0.999727 -40.46 0.999727 -40.46 0.023307 49.743
8.83700000 0.023308 49.351 0.999727 -40.46 0.999727 -40.46 0.023308 49.742
8.83725000 0.023309 49.349 0.999727 -40.46 0.999727 -40.46 0.023309 49.741
8.83750000 0.023309 49.348 0.999727 -40.46 0.999727 -40.46 0.023309 49.740
8.83775000 0.023310 49.346 0.999727 -40.46 0.999727 -40.46 0.023310 49.739
8.83800000 0.023311 49.345 0.999727 -40.46 0.999727 -40.46 0.023311 49.739
8.83825000 0.023312 49.343 0.999727 -40.46 0.999727 -40.46 0.023312 49.738
8.83850000 0.023313 49.342 0.999727 -40.46 0.999727 -40.46 0.023313 49.737
8.83875000 0.023314 49.340 0.999727 -40.47 0.999727 -40.47 0.023314 49.736
8.83900000 0.023315 49.339 0.999727 -40.47 0.999727 -40.47 0.023315 49.735
8.83925000 0.023316 49.337 0.999726 -40.47 0.999726 -40.47 0.023316 49.734
8.83950000 0.023317 49.336 0.999726 -40.47 0.999726 -40.47 0.023317 49.734
8.83975000 0.023318 49.334 0.999726 -40.47 0.999726 -40.47 0.023318 49.733
8.84000000 0.023319 49.333 0.999726 -40.47 0.999726 -40.47 0.023319 49.732
8.84025000 0.023320 49.331 0.999726 -40.47 0.999726 -40.47 0.023320 49.731
8.84050000 0.023321 49.330 0.999726 -40.47 0.999726 -40.47 0.023321 49.730
8.84075000 0.023322 49.328 0.999726 -40.47 0.999726 -40.47 0.023322 49.729
8.84100000 0.023323 49.327 0.999726 -40.48 0.999726 -40.48 0.023323 49.728
8.84125000 0.023324 49.325 0.999726 -40.48 0.999726 -40.48 0.023324 49.728
8.84150000 0.023325 49.324 0.999726 -40.48 0.999726 -40.48 0.023325 49.727
8.84175000 0.023326 49.322 0.999726 -40.48 0.999726 -40.48 0.023326 49.726
8.84200000 0.023327 49.321 0.999726 -40.48 0.999726 -40.48 0.023327 49.725
8.84225000 0.023328 49.319 0.999726 -40.48 0.999726 -40.48 0.023328 49.724
8.84250000 0.023329 49.318 0.999726 -40.48 0.999726 -40.48 0.023329 49.724
8.84275000 0.023330 49.316 0.999726 -40.48 0.999726 -40.48 0.023330 49.723
8.84300000 0.023331 49.315 0.999726 -40.49 0.999726 -40.49 0.023331 49.722
8.84325000 0.023332 49.313 0.999726 -40.49 0.999726 -40.49 0.023332 49.721
8.84350000 0.023333 49.312 0.999726 -40.49 0.999726 -40.49 0.023333 49.720
8.84375000 0.023334 49.310 0.999726 -40.49 0.999726 -40.49 0.023334 49.719
8.84400000 0.023335 49.309 0.999726 -40.49 0.999726 -40.49 0.023335 49.719
8.84425000 0.023336 49.307 0.999726 -40.49 0.999726 -40.49 0.023336 49.718
8.84450000 0.023337 49.306 0.999726 -40.49 0.999726 -40.49 0.023337 49.717
8.84475000 0.023338 49.304 0.999726 -40.49 0.999726 -40.49 0.023338 49.716
8.84500000 0.023339 49.303 0.999726 -40.49 0.999726 -40.49 0.023339 49.715
8.84525000 0.023340 49.301 0.999726 -40.50 0.999726 -40.50 0.023340 49.715
8.84550000 0.023341 49.300 0.999726 -40.50 0.999726 -40.50 0.023341 49.714
8.84575000 0.023342 49.298 0.999726 -40.50 0.999726 -40.50 0.023342 49.713
8.84600000 0.023343 49.296 0.999726 -40.50 0.999726 -40.50 0.023343 49.712
8.84625000 0.023344 49.295 0.999726 -40.50 0.999726 -40.50 0.023344 49.711
8.84650000 0.023345 49.293 0.999726 -40.50 0.999726 -40.50 0.023345 49.711
8.84675000 0.023346 49.292 0.999726 -40.50 0.999726 -40.50 0.023346 49.710
8.84700000 0.023347 49.290 0.999726 -40.50 0.999726 -40.50 0.023347 49.709
8.84725000 0.023348 49.289 0.999726 -40.51 0.999726 -40.51 0.023348 49.708
8.84750000 0.023349 49.287 0.999726 -40.51 0.999726 -40.51 0.023349 49.707
8.84775000 0.023350 49.285 0.999726 -40.51 0.999726 -40.51 0.023350 49.707
8.84800000 0.023351 49.284 0.999726 -40.51 0.999726 -40.51 0.023351 49.706
8.84825000 0.023352 49.282 0.999726 -40.51 0.999726 -40.51 0.023352 49.705
8.84850000 0.023353 49.281 0.999726 -40.51 0.999726 -40.51 0.023354 49.704
8.84875000 0.023355 49.279 0.999726 -40.51 0.999726 -40.51 0.023355 49.704
8.84900000 0.023356 49.278 0.999726 -40.51 0.999726 -40.51 0.023356 49.703
8.84925000 0.023357 49.276 0.999726 -40.51 0.999726 -40.51 0.023357 49.702
8.84950000 0.023358 49.274 0.999725 -40.52 0.999725 -40.52 0.023358 49.701
8.84975000 0.023359 49.273 0.999725 -40.52 0.999725 -40.52 0.023359 49.700
8.85000000 0.023360 49.271 0.999725 -40.52 0.999725 -40.52 0.023360 49.700
8.85025000 0.023361 49.270 0.999725 -40.52 0.999725 -40.52 0.023361 49.699
8.85050000 0.023362 49.268 0.999725 -40.52 0.999725 -40.52 0.023362 49.698
8.85075000 0.023363 49.266 0.999725 -40.52 0.999725 -40.52 0.023363 49.697
8.85100000 0.023364 49.265 0.999725 -40.52 0.999725 -40.52 0.023364 49.697
8.85125000 0.023365 49.263 0.999725 -40.52 0.999725 -40.52 0.023365 49.696
8.85150000 0.023367 49.262 0.999725 -40.52 0.999725 -40.52 0.023367 49.695
8.85175000 0.023368 49.260 0.999725 -40.53 0.999725 -40.53 0.023368 49.694
8.85200000 0.023369 49.258 0.999725 -40.53 0.999725 -40.53 0.023369 49.694
8.85225000 0.023370 49.257 0.999725 -40.53 0.999725 -40.53 0.023370 49.693
8.85250000 0.023371 49.255 0.999725 -40.53 0.999725 -40.53 0.023371 49.692
8.85275000 0.023372 49.254 0.999725 -40.53 0.999725 -40.53 0.023372 49.691
8.85300000 0.023373 49.252 0.999725 -40.53 0.999725 -40.53 0.023373 49.691
8.85325000 0.023374 49.250 0.999725 -40.53 0.999725 -40.53 0.023374 49.690
8.85350000 0.023376 49.249 0.999725 -40.53 0.999725 -40.53 0.023376 49.689
8.85375000 0.023377 49.247 0.999725 -40.54 0.999725 -40.54 0.023377 49.689
8.85400000 0.023378 49.245 0.999725 -40.54 0.999725 -40.54 0.023378 49.688
8.85425000 0.023379 49.244 0.999725 -40.54 0.999725 -40.54 0.023379 49.687
8.85450000 0.023380 49.242 0.999725 -40.54 0.999725 -40.54 0.023380 49.686
8.85475000 0.023381 49.240 0.999725 -40.54 0.999725 -40.54 0.023381 49.686
8.85500000 0.023382 49.239 0.999725 -40.54 0.999725 -40.54 0.023382 49.685
8.85525000 0.023384 49.237 0.999725 -40.54 0.999725 -40.54 0.023384 49.684
8.85550000 0.023385 49.235 0.999725 -40.54 0.999725 -40.54 0.023385 49.684
8.85575000 0.023386 49.234 0.999725 -40.55 0.999725 -40.55 0.023386 49.683
8.85600000 0.023387 49.232 0.999725 -40.55 0.999725 -40.55 0.023387 49.682
8.85625000 0.023388 49.230 0.999725 -40.55 0.999725 -40.55 0.023388 49.682
8.85650000 0.023389 49.229 0.999725 -40.55 0.999725 -40.55 0.023390 49.681
8.85675000 0.023391 49.227 0.999725 -40.55 0.999725 -40.55 0.023391 49.680
8.85700000 0.023392 49.225 0.999725 -40.55 0.999725 -40.55 0.023392 49.679
8.85725000 0.023393 49.224 0.999725 -40.55 0.999725 -40.55 0.023393 49.679
8.85750000 0.023394 49.222 0.999725 -40.55 0.999725 -40.55 0.023394 49.678
8.85775000 0.023395 49.220 0.999725 -40.55 0.999725 -40.55 0.023396 49.677
8.85800000 0.023397 49.219 0.999725 -40.56 0.999725 -40.56 0.023397 49.677
8.85825000 0.023398 49.217 0.999725 -40.56 0.999725 -40.56 0.023398 49.676
8.85850000 0.023399 49.215 0.999725 -40.56 0.999725 -40.56 0.023399 49.675
8.85875000 0.023400 49.214 0.999724 -40.56 0.999724 -40.56 0.023400 49.675
8.85900000 0.023402 49.212 0.999724 -40.56 0.999724 -40.56 0.023402 49.674
8.85925000 0.023403 49.210 0.999724 -40.56 0.999724 -40.56 0.023403 49.673
8.85950000 0.023404 49.208 0.999724 -40.56 0.999724 -40.56 0.023404 49.673
8.85975000 0.023405 49.207 0.999724 -40.56 0.999724 -40.56 0.023405 49.672
8.86000000 0.023407 49.205 0.999724 -40.57 0.999724 -40.57 0.023407 49.671
8.86025000 0.023408 49.203 0.999724 -40.57 0.999724 -40.57 0.023408 49.671
8.86050000 0.023409 49.201 0.999724 -40.57 0.999724 -40.57 0.023409 49.670
8.86075000 0.023410 49.200 0.999724 -40.57 0.999724 -40.57 0.023410 49.670
8.86100000 0.023412 49.198 0.999724 -40.57 0.999724 -40.57 0.023412 49.669
8.86125000 0.023413 49.196 0.999724 -40.57 0.999724 -40.57 0.023413 49.668
8.86150000 0.023414 49.194 0.999724 -40.57 0.999724 -40.57 0.023414 49.668
8.86175000 0.023416 49.193 0.999724 -40.57 0.999724 -40.57 0.023416 49.667
8.86200000 0.023417 49.191 0.999724 -40.57 0.999724 -40.57 0.023417 49.666
8.86225000 0.023418 49.189 0.999724 -40.58 0.999724 -40.58 0.023418 49.666
8.86250000 0.023419 49.187 0.999724 -40.58 0.999724 -40.58 0.023420 49.665
8.86275000 0.023421 49.186 0.999724 -40.58 0.999724 -40.58 0.023421 49.665
8.86300000 0.023422 49.184 0.999724 -40.58 0.999724 -40.58 0.023422 49.664
8.86325000 0.023423 49.182 0.999724 -40.58 0.999724 -40.58 0.023424 49.663
8.86350000 0.023425 49.180 0.999724 -40.58 0.999724 -40.58 0.023425 49.663
8.86375000 0.023426 49.178 0.999724 -40.58 0.999724 -40.58 0.023426 49.662
8.86400000 0.023427 49.177 0.999724 -40.58 0.999724 -40.58 0.023428 49.662
8.86425000 0.023429 49.175 0.999724 -40.59 0.999724 -40.59 0.023429 49.661
8.86450000 0.023430 49.173 0.999724 -40.59 0.999724 -40.59 0.023430 49.661
8.86475000 0.023432 49.171 0.999724 -40.59 0.999724 -40.59 0.023432 49.660
8.86500000 0.023433 49.169 0.999724 -40.59 0.999724 -40.59 0.023433 49.659
8.86525000 0.023434 49.167 0.999724 -40.59 0.999724 -40.59 0.023434 49.659
8.86550000 0.023436 49.166 0.999724 -40.59 0.999724 -40.59 0.023436 49.658
8.86575000 0.023437 49.164 0.999724 -40.59 0.999724 -40.59 0.023437 49.658
8.86600000 0.023439 49.162 0.999724 -40.59 0.999724 -40.59 0.023439 49.657
8.86625000 0.023440 49.160 0.999724 -40.59 0.999724 -40.59 0.023440 49.657
8.86650000 0.023441 49.158 0.999724 -40.60 0.999724 -40.60 0.023441 49.656
8.86675000 0.023443 49.156 0.999723 -40.60 0.999723 -40.60 0.023443 49.656
8.86700000 0.023444 49.155 0.999723 -40.60 0.999723 -40.60 0.023444 49.655
8.86725000 0.023446 49.153 0.999723 -40.60 0.999723 -40.60 0.023446 49.655
8.86750000 0.023447 49.151 0.999723 -40.60 0.999723 -40.60 0.023447 49.654
8.86775000 0.023449 49.149 0.999723 -40.60 0.999723 -40.60 0.023449 49.654
8.86800000 0.023450 49.147 0.999723 -40.60 0.999723 -40.60 0.023450 49.653
8.86825000 0.023451 49.145 0.999723 -40.60 0.999723 -40.60 0.023452 49.653
8.86850000 0.023453 49.143 0.999723 -40.61 0.999723 -40.61 0.023453 49.652
8.86875000 0.023454 49.141 0.999723 -40.61 0.999723 -40.61 0.023455 49.652
8.86900000 0.023456 49.139 0.999723 -40.61 0.999723 -40.61 0.023456 49.651
8.86925000 0.023457 49.137 0.999723 -40.61 0.999723 -40.61 0.023458 49.651
8.86950000 0.023459 49.135 0.999723 -40.61 0.999723 -40.61 0.023459 49.650
8.86975000 0.023460 49.134 0.999723 -40.61 0.999723 -40.61 0.023461 49.650
8.86987192 0.023461 49.133 0.999723 -40.61 0.999723 -40.61 0.023461 49.649
8.87000000 0.023462 49.132 0.999723 -40.61 0.999723 -40.61 0.023462 49.649
8.87025000 0.023464 49.130 0.999723 -40.61 0.999723 -40.61 0.023464 49.649
8.87050000 0.023465 49.128 0.999723 -40.62 0.999723 -40.62 0.023465 49.648
8.87075000 0.023467 49.126 0.999723 -40.62 0.999723 -40.62 0.023467 49.648
8.87100000 0.023468 49.124 0.999723 -40.62 0.999723 -40.62 0.023468 49.647
8.87121240 0.023469 49.122 0.999723 -40.62 0.999723 -40.62 0.023470 49.647
8.87125000 0.023470 49.122 0.999723 -40.62 0.999723 -40.62 0.023470 49.647
8.87150000 0.023471 49.120 0.999723 -40.62 0.999723 -40.62 0.023471 49.647
8.87175000 0.023473 49.118 0.999723 -40.62 0.999723 -40.62 0.023473 49.646
8.87200000 0.023474 49.116 0.999723 -40.62 0.999723 -40.62 0.023475 49.646
8.87225000 0.023476 49.114 0.999723 -40.62 0.999723 -40.62 0.023476 49.645
8.87250000 0.023478 49.112 0.999723 -40.63 0.999723 -40.63 0.023478 49.645
8.87252216 0.023478 49.112 0.999723 -40.63 0.999723 -40.63 0.023478 49.645
8.87275000 0.023479 49.110 0.999723 -40.63 0.999723 -40.63 0.023479 49.644
8.87300000 0.023481 49.108 0.999723 -40.63 0.999723 -40.63 0.023481 49.644
8.87325000 0.023483 49.106 0.999723 -40.63 0.999723 -40.63 0.023483 49.644
8.87350000 0.023484 49.104 0.999722 -40.63 0.999722 -40.63 0.023484 49.643
8.87375000 0.023486 49.102 0.999722 -40.63 0.999722 -40.63 0.023486 49.643
8.87380192 0.023486 49.101 0.999722 -40.63 0.999722 -40.63 0.023486 49.643
8.87400000 0.023488 49.099 0.999722 -40.63 0.999722 -40.63 0.023488 49.643
8.87425000 0.023489 49.097 0.999722 -40.63 0.999722 -40.63 0.023489 49.642
8.87450000 0.023491 49.095 0.999722 -40.63 0.999722 -40.63 0.023491 49.642
8.87475000 0.023493 49.093 0.999722 -40.64 0.999722 -40.64 0.023493 49.642
8.87500000 0.023494 49.091 0.999722 -40.64 0.999722 -40.64 0.023495 49.641
8.87505235 0.023495 49.091 0.999722 -40.64 0.999722 -40.64 0.023495 49.641
8.87525000 0.023496 49.089 0.999722 -40.64 0.999722 -40.64 0.023496 49.641
8.87550000 0.023498 49.087 0.999722 -40.64 0.999722 -40.64 0.023498 49.641
8.87575000 0.023500 49.085 0.999722 -40.64 0.999722 -40.64 0.023500 49.640
8.87600000 0.023501 49.083 0.999722 -40.64 0.999722 -40.64 0.023502 49.640
8.87625000 0.023503 49.080 0.999722 -40.64 0.999722 -40.64 0.023503 49.640
8.87627413 0.023503 49.080 0.999722 -40.64 0.999722 -40.64 0.023503 49.640
8.87650000 0.023505 49.078 0.999722 -40.64 0.999722 -40.64 0.023505 49.639
8.87675000 0.023507 49.076 0.999722 -40.65 0.999722 -40.65 0.023507 49.639
8.87700000 0.023509 49.074 0.999722 -40.65 0.999722 -40.65 0.023509 49.639
8.87725000 0.023510 49.072 0.999722 -40.65 0.999722 -40.65 0.023511 49.639
8.87746791 0.023512 49.070 0.999722 -40.65 0.999722 -40.65 0.023512 49.638
8.87750000 0.023512 49.070 0.999722 -40.65 0.999722 -40.65 0.023512 49.638
8.87775000 0.023514 49.067 0.999722 -40.65 0.999722 -40.65 0.023514 49.638
8.87800000 0.023516 49.065 0.999722 -40.65 0.999722 -40.65 0.023516 49.638
8.87825000 0.023518 49.063 0.999722 -40.65 0.999722 -40.65 0.023518 49.638
8.87850000 0.023520 49.061 0.999722 -40.65 0.999722 -40.65 0.023520 49.637
8.87863434 0.023521 49.059 0.999722 -40.65 0.999722 -40.65 0.023521 49.637
8.87875000 0.023522 49.058 0.999722 -40.66 0.999722 -40.66 0.023522 49.637
8.87900000 0.023524 49.056 0.999722 -40.66 0.999722 -40.66 0.023524 49.637
8.87925000 0.023526 49.054 0.999722 -40.66 0.999722 -40.66 0.023526 49.637
8.87950000 0.023527 49.052 0.999721 -40.66 0.999721 -40.66 0.023528 49.637
8.87975000 0.023529 49.049 0.999721 -40.66 0.999721 -40.66 0.023530 49.637
8.87977404 0.023530 49.049 0.999721 -40.66 0.999721 -40.66 0.023530 49.636
8.88000000 0.023531 49.047 0.999721 -40.66 0.999721 -40.66 0.023532 49.636
8.88025000 0.023533 49.045 0.999721 -40.66 0.999721 -40.66 0.023534 49.636
8.88050000 0.023535 49.042 0.999721 -40.66 0.999721 -40.66 0.023536 49.636
8.88075000 0.023537 49.040 0.999721 -40.67 0.999721 -40.67 0.023538 49.636
8.88088763 0.023539 49.039 0.999721 -40.67 0.999721 -40.67 0.023539 49.636
8.88100000 0.023539 49.038 0.999721 -40.67 0.999721 -40.67 0.023540 49.636
8.88125000 0.023542 49.035 0.999721 -40.67 0.999721 -40.67 0.023542 49.636
8.88150000 0.023544 49.033 0.999721 -40.67 0.999721 -40.67 0.023544 49.636
8.88175000 0.023546 49.030 0.999721 -40.67 0.999721 -40.67 0.023546 49.636
8.88197570 0.023548 49.028 0.999721 -40.67 0.999721 -40.67 0.023548 49.635
8.88200000 0.023548 49.028 0.999721 -40.67 0.999721 -40.67 0.023548 49.635
8.88225000 0.023550 49.026 0.999721 -40.67 0.999721 -40.67 0.023550 49.635
8.88250000 0.023552 49.023 0.999721 -40.67 0.999721 -40.67 0.023552 49.635
8.88275000 0.023554 49.021 0.999721 -40.68 0.999721 -40.68 0.023554 49.635
8.88300000 0.023556 49.018 0.999721 -40.68 0.999721 -40.68 0.023556 49.635
8.88303883 0.023557 49.018 0.999721 -40.68 0.999721 -40.68 0.023557 49.635
8.88325000 0.023559 49.016 0.999721 -40.68 0.999721 -40.68 0.023559 49.635
8.88350000 0.023561 49.013 0.999721 -40.68 0.999721 -40.68 0.023561 49.635
8.88375000 0.023563 49.011 0.999721 -40.68 0.999721 -40.68 0.023563 49.635
8.88400000 0.023565 49.008 0.999721 -40.68 0.999721 -40.68 0.023565 49.635
8.88407761 0.023566 49.008 0.999721 -40.68 0.999721 -40.68 0.023566 49.635
8.88425000 0.023568 49.006 0.999720 -40.68 0.999720 -40.68 0.023568 49.635
8.88450000 0.023570 49.003 0.999720 -40.68 0.999720 -40.68 0.023570 49.635
8.88475000 0.023572 49.001 0.999720 -40.69 0.999720 -40.69 0.023572 49.635
8.88500000 0.023574 48.998 0.999720 -40.69 0.999720 -40.69 0.023575 49.636
8.88509259 0.023575 48.997 0.999720 -40.69 0.999720 -40.69 0.023575 49.636
8.88525000 0.023577 48.995 0.999720 -40.69 0.999720 -40.69 0.023577 49.636
8.88550000 0.023579 48.993 0.999720 -40.69 0.999720 -40.69 0.023579 49.636
8.88575000 0.023582 48.990 0.999720 -40.69 0.999720 -40.69 0.023582 49.636
8.88600000 0.023584 48.988 0.999720 -40.69 0.999720 -40.69 0.023584 49.636
8.88608430 0.023585 48.987 0.999720 -40.69 0.999720 -40.69 0.023585 49.636
8.88625000 0.023586 48.985 0.999720 -40.69 0.999720 -40.69 0.023587 49.636
8.88650000 0.023589 48.982 0.999720 -40.69 0.999720 -40.69 0.023589 49.636
8.88675000 0.023591 48.979 0.999720 -40.70 0.999720 -40.70 0.023591 49.636
8.88700000 0.023594 48.977 0.999720 -40.70 0.999720 -40.70 0.023594 49.637
8.88705330 0.023594 48.976 0.999720 -40.70 0.999720 -40.70 0.023595 49.637
8.88725000 0.023596 48.974 0.999720 -40.70 0.999720 -40.70 0.023597 49.637
8.88750000 0.023599 48.971 0.999720 -40.70 0.999720 -40.70 0.023599 49.637
8.88775000 0.023602 48.968 0.999720 -40.70 0.999720 -40.70 0.023602 49.637
8.88800000 0.023604 48.966 0.999720 -40.70 0.999720 -40.70 0.023604 49.638
8.88800009 0.023604 48.966 0.999720 -40.70 0.999720 -40.70 0.023604 49.638
8.88825000 0.023607 48.963 0.999720 -40.70 0.999720 -40.70 0.023607 49.638
8.88850000 0.023609 48.960 0.999719 -40.70 0.999719 -40.70 0.023610 49.638
8.88875000 0.023612 48.957 0.999719 -40.71 0.999719 -40.71 0.023612 49.638
8.88892519 0.023614 48.955 0.999719 -40.71 0.999719 -40.71 0.023614 49.639
8.88900000 0.023615 48.954 0.999719 -40.71 0.999719 -40.71 0.023615 49.639
8.88925000 0.023618 48.951 0.999719 -40.71 0.999719 -40.71 0.023618 49.639
8.88950000 0.023620 48.948 0.999719 -40.71 0.999719 -40.71 0.023620 49.640
8.88975000 0.023623 48.945 0.999719 -40.71 0.999719 -40.71 0.023623 49.640
8.88982909 0.023624 48.944 0.999719 -40.71 0.999719 -40.71 0.023624 49.640
8.89000000 0.023626 48.942 0.999719 -40.71 0.999719 -40.71 0.023626 49.640
8.89025000 0.023629 48.939 0.999719 -40.71 0.999719 -40.71 0.023629 49.641
8.89050000 0.023632 48.936 0.999719 -40.71 0.999719 -40.71 0.023632 49.641
8.89071227 0.023634 48.934 0.999719 -40.72 0.999719 -40.72 0.023634 49.642
8.89075000 0.023635 48.933 0.999719 -40.72 0.999719 -40.72 0.023635 49.642
8.89100000 0.023638 48.930 0.999719 -40.72 0.999719 -40.72 0.023638 49.642
8.89125000 0.023641 48.927 0.999719 -40.72 0.999719 -40.72 0.023641 49.643
8.89150000 0.023644 48.924 0.999719 -40.72 0.999719 -40.72 0.023644 49.643
8.89157522 0.023644 48.923 0.999719 -40.72 0.999719 -40.72 0.023645 49.643
8.89175000 0.023647 48.921 0.999719 -40.72 0.999719 -40.72 0.023647 49.644
8.89200000 0.023650 48.918 0.999718 -40.72 0.999718 -40.72 0.023650 49.644
8.89225000 0.023653 48.914 0.999718 -40.72 0.999718 -40.72 0.023653 49.645
8.89241840 0.023655 48.912 0.999718 -40.72 0.999718 -40.72 0.023655 49.645
8.89250000 0.023656 48.911 0.999718 -40.72 0.999718 -40.72 0.023656 49.646
8.89275000 0.023659 48.908 0.999718 -40.73 0.999718 -40.73 0.023659 49.646