! Sonnet Data File
! From: emgraph Version : 16.52
! From Project: Resonator2_cp_varyW
! Data is De-embedded 
! Data File Written: 10/07/2017 23:12:07
!< HDATE 10/07/2017 13:09:30
!< MDATE 10/07/2017 13:09:30
!< PARAMS
!< gap = 6.0
!< Length = 400.0
!< Pwid1 = 2000.0
!< Pwid2 = 2000.0
!< Air_gap = 30.0
!< Width = 50.0
!< END PARAMS
# GHZ S MA R 51.80000
8.80000000 0.021457 -170.2 0.999766 -81.01 0.999766 -81.01 0.021458 -171.9
!< P1 F=8.8 Eeff=(6.4404796 -2.969e-5) Z0=(50.4071347 1.16291e-4) R=0.0 C=0.0 
!< P2 F=8.8 Eeff=(6.4404796 -2.969e-5) Z0=(50.4071347 1.16291e-4) R=0.0 C=0.0 
8.80020000 0.021460 -170.2 0.999766 -81.02 0.999766 -81.02 0.021460 -171.9
8.80040000 0.021463 -170.2 0.999766 -81.02 0.999766 -81.02 0.021463 -171.9
8.80060000 0.021465 -170.2 0.999766 -81.02 0.999766 -81.02 0.021465 -171.9
8.80080000 0.021468 -170.2 0.999766 -81.02 0.999766 -81.02 0.021468 -171.9
8.80100000 0.021470 -170.2 0.999766 -81.02 0.999766 -81.02 0.021471 -171.9
8.80120000 0.021473 -170.2 0.999766 -81.03 0.999766 -81.03 0.021473 -171.9
8.80140000 0.021476 -170.2 0.999766 -81.03 0.999766 -81.03 0.021476 -171.9
8.80160000 0.021479 -170.2 0.999766 -81.03 0.999766 -81.03 0.021479 -171.9
8.80180000 0.021481 -170.2 0.999766 -81.03 0.999766 -81.03 0.021481 -171.9
8.80200000 0.021484 -170.2 0.999766 -81.03 0.999766 -81.03 0.021484 -171.9
8.80220000 0.021487 -170.2 0.999766 -81.04 0.999766 -81.04 0.021487 -171.9
8.80240000 0.021489 -170.2 0.999766 -81.04 0.999766 -81.04 0.021490 -171.9
8.80260000 0.021492 -170.2 0.999765 -81.04 0.999765 -81.04 0.021492 -171.9
8.80280000 0.021495 -170.2 0.999765 -81.04 0.999765 -81.04 0.021495 -171.9
8.80300000 0.021497 -170.2 0.999765 -81.04 0.999765 -81.04 0.021498 -171.9
8.80320000 0.021500 -170.2 0.999765 -81.05 0.999765 -81.05 0.021500 -171.9
8.80340000 0.021503 -170.2 0.999765 -81.05 0.999765 -81.05 0.021503 -171.9
8.80360000 0.021506 -170.2 0.999765 -81.05 0.999765 -81.05 0.021506 -171.9
8.80380000 0.021508 -170.2 0.999765 -81.05 0.999765 -81.05 0.021509 -171.9
8.80400000 0.021511 -170.3 0.999765 -81.05 0.999765 -81.05 0.021511 -171.9
8.80420000 0.021514 -170.3 0.999765 -81.06 0.999765 -81.06 0.021514 -171.9
8.80440000 0.021517 -170.3 0.999765 -81.06 0.999765 -81.06 0.021517 -171.9
8.80460000 0.021519 -170.3 0.999765 -81.06 0.999765 -81.06 0.021520 -171.9
8.80480000 0.021522 -170.3 0.999765 -81.06 0.999765 -81.06 0.021523 -171.9
8.80500000 0.021525 -170.3 0.999765 -81.06 0.999765 -81.06 0.021525 -171.9
8.80520000 0.021528 -170.3 0.999765 -81.07 0.999765 -81.07 0.021528 -171.9
8.80540000 0.021531 -170.3 0.999765 -81.07 0.999765 -81.07 0.021531 -171.9
8.80560000 0.021533 -170.3 0.999765 -81.07 0.999765 -81.07 0.021534 -171.9
8.80580000 0.021536 -170.3 0.999764 -81.07 0.999764 -81.07 0.021537 -171.9
8.80600000 0.021539 -170.3 0.999764 -81.07 0.999764 -81.07 0.021539 -171.9
8.80620000 0.021542 -170.3 0.999764 -81.08 0.999764 -81.08 0.021542 -171.9
8.80640000 0.021545 -170.3 0.999764 -81.08 0.999764 -81.08 0.021545 -171.9
8.80660000 0.021548 -170.3 0.999764 -81.08 0.999764 -81.08 0.021548 -171.9
8.80680000 0.021551 -170.3 0.999764 -81.08 0.999764 -81.08 0.021551 -171.9
8.80700000 0.021553 -170.3 0.999764 -81.08 0.999764 -81.08 0.021554 -171.9
8.80720000 0.021556 -170.3 0.999764 -81.09 0.999764 -81.09 0.021557 -171.9
8.80740000 0.021559 -170.3 0.999764 -81.09 0.999764 -81.09 0.021559 -171.9
8.80760000 0.021562 -170.3 0.999764 -81.09 0.999764 -81.09 0.021562 -171.9
8.80780000 0.021565 -170.3 0.999764 -81.09 0.999764 -81.09 0.021565 -171.9
8.80800000 0.021568 -170.4 0.999764 -81.09 0.999764 -81.09 0.021568 -171.8
8.80820000 0.021571 -170.4 0.999764 -81.10 0.999764 -81.10 0.021571 -171.8
8.80840000 0.021574 -170.4 0.999764 -81.10 0.999764 -81.10 0.021574 -171.8
8.80860000 0.021577 -170.4 0.999764 -81.10 0.999764 -81.10 0.021577 -171.8
8.80880000 0.021580 -170.4 0.999764 -81.10 0.999764 -81.10 0.021580 -171.8
8.80900000 0.021582 -170.4 0.999763 -81.10 0.999763 -81.10 0.021583 -171.8
8.80920000 0.021585 -170.4 0.999763 -81.11 0.999763 -81.11 0.021586 -171.8
8.80940000 0.021588 -170.4 0.999763 -81.11 0.999763 -81.11 0.021589 -171.8
8.80960000 0.021591 -170.4 0.999763 -81.11 0.999763 -81.11 0.021592 -171.8
8.80980000 0.021594 -170.4 0.999763 -81.11 0.999763 -81.11 0.021595 -171.8
8.81000000 0.021597 -170.4 0.999763 -81.11 0.999763 -81.11 0.021598 -171.8
8.81020000 0.021600 -170.4 0.999763 -81.12 0.999763 -81.12 0.021601 -171.8
8.81040000 0.021603 -170.4 0.999763 -81.12 0.999763 -81.12 0.021604 -171.8
8.81060000 0.021606 -170.4 0.999763 -81.12 0.999763 -81.12 0.021607 -171.8
8.81080000 0.021609 -170.4 0.999763 -81.12 0.999763 -81.12 0.021610 -171.8
8.81100000 0.021612 -170.4 0.999763 -81.12 0.999763 -81.12 0.021613 -171.8
8.81120000 0.021615 -170.4 0.999763 -81.13 0.999763 -81.13 0.021616 -171.8
8.81140000 0.021618 -170.4 0.999763 -81.13 0.999763 -81.13 0.021619 -171.8
8.81160000 0.021621 -170.4 0.999763 -81.13 0.999763 -81.13 0.021622 -171.8
8.81180000 0.021624 -170.4 0.999763 -81.13 0.999763 -81.13 0.021625 -171.8
8.81200000 0.021628 -170.5 0.999762 -81.13 0.999762 -81.13 0.021628 -171.8
8.81220000 0.021631 -170.5 0.999762 -81.14 0.999762 -81.14 0.021631 -171.8
8.81240000 0.021634 -170.5 0.999762 -81.14 0.999762 -81.14 0.021634 -171.8
8.81260000 0.021637 -170.5 0.999762 -81.14 0.999762 -81.14 0.021637 -171.8
8.81280000 0.021640 -170.5 0.999762 -81.14 0.999762 -81.14 0.021640 -171.8
8.81300000 0.021643 -170.5 0.999762 -81.14 0.999762 -81.14 0.021643 -171.8
8.81320000 0.021646 -170.5 0.999762 -81.15 0.999762 -81.15 0.021646 -171.8
8.81340000 0.021649 -170.5 0.999762 -81.15 0.999762 -81.15 0.021649 -171.8
8.81360000 0.021652 -170.5 0.999762 -81.15 0.999762 -81.15 0.021653 -171.8
8.81380000 0.021655 -170.5 0.999762 -81.15 0.999762 -81.15 0.021656 -171.8
8.81400000 0.021659 -170.5 0.999762 -81.15 0.999762 -81.15 0.021659 -171.8
8.81420000 0.021662 -170.5 0.999762 -81.16 0.999762 -81.16 0.021662 -171.8
8.81440000 0.021665 -170.5 0.999762 -81.16 0.999762 -81.16 0.021665 -171.8
8.81460000 0.021668 -170.5 0.999762 -81.16 0.999762 -81.16 0.021668 -171.8
8.81480000 0.021671 -170.5 0.999762 -81.16 0.999762 -81.16 0.021671 -171.8
8.81500000 0.021674 -170.5 0.999761 -81.17 0.999761 -81.17 0.021675 -171.8
8.81520000 0.021678 -170.5 0.999761 -81.17 0.999761 -81.17 0.021678 -171.8
8.81540000 0.021681 -170.5 0.999761 -81.17 0.999761 -81.17 0.021681 -171.8
8.81560000 0.021684 -170.5 0.999761 -81.17 0.999761 -81.17 0.021684 -171.8
8.81580000 0.021687 -170.6 0.999761 -81.17 0.999761 -81.17 0.021688 -171.8
8.81600000 0.021690 -170.6 0.999761 -81.18 0.999761 -81.18 0.021691 -171.8
8.81620000 0.021694 -170.6 0.999761 -81.18 0.999761 -81.18 0.021694 -171.8
8.81640000 0.021697 -170.6 0.999761 -81.18 0.999761 -81.18 0.021697 -171.8
8.81660000 0.021700 -170.6 0.999761 -81.18 0.999761 -81.18 0.021700 -171.8
8.81680000 0.021703 -170.6 0.999761 -81.18 0.999761 -81.18 0.021704 -171.8
8.81700000 0.021707 -170.6 0.999761 -81.19 0.999761 -81.19 0.021707 -171.8
8.81720000 0.021710 -170.6 0.999761 -81.19 0.999761 -81.19 0.021710 -171.8
8.81740000 0.021713 -170.6 0.999761 -81.19 0.999761 -81.19 0.021714 -171.8
8.81760000 0.021717 -170.6 0.999761 -81.19 0.999761 -81.19 0.021717 -171.8
8.81780000 0.021720 -170.6 0.999760 -81.19 0.999760 -81.19 0.021720 -171.8
8.81800000 0.021723 -170.6 0.999760 -81.20 0.999760 -81.20 0.021723 -171.8
8.81820000 0.021727 -170.6 0.999760 -81.20 0.999760 -81.20 0.021727 -171.8
8.81840000 0.021730 -170.6 0.999760 -81.20 0.999760 -81.20 0.021730 -171.8
8.81860000 0.021733 -170.6 0.999760 -81.20 0.999760 -81.20 0.021734 -171.8
8.81880000 0.021737 -170.6 0.999760 -81.20 0.999760 -81.20 0.021737 -171.8
8.81900000 0.021740 -170.6 0.999760 -81.21 0.999760 -81.21 0.021740 -171.8
8.81920000 0.021743 -170.6 0.999760 -81.21 0.999760 -81.21 0.021744 -171.8
8.81940000 0.021747 -170.7 0.999760 -81.21 0.999760 -81.21 0.021747 -171.8
8.81960000 0.021750 -170.7 0.999760 -81.21 0.999760 -81.21 0.021750 -171.8
8.81980000 0.021753 -170.7 0.999760 -81.21 0.999760 -81.21 0.021754 -171.8
8.82000000 0.021757 -170.7 0.999760 -81.22 0.999760 -81.22 0.021757 -171.8
8.82020000 0.021760 -170.7 0.999760 -81.22 0.999760 -81.22 0.021761 -171.8
8.82040000 0.021764 -170.7 0.999759 -81.22 0.999759 -81.22 0.021764 -171.8
8.82060000 0.021767 -170.7 0.999759 -81.22 0.999759 -81.22 0.021767 -171.8
8.82080000 0.021771 -170.7 0.999759 -81.22 0.999759 -81.22 0.021771 -171.8
8.82100000 0.021774 -170.7 0.999759 -81.23 0.999759 -81.23 0.021774 -171.8
8.82120000 0.021778 -170.7 0.999759 -81.23 0.999759 -81.23 0.021778 -171.8
8.82140000 0.021781 -170.7 0.999759 -81.23 0.999759 -81.23 0.021781 -171.8
8.82160000 0.021785 -170.7 0.999759 -81.23 0.999759 -81.23 0.021785 -171.8
8.82180000 0.021788 -170.7 0.999759 -81.23 0.999759 -81.23 0.021788 -171.8
8.82200000 0.021792 -170.7 0.999759 -81.24 0.999759 -81.24 0.021792 -171.8
8.82220000 0.021795 -170.7 0.999759 -81.24 0.999759 -81.24 0.021795 -171.8
8.82240000 0.021799 -170.7 0.999759 -81.24 0.999759 -81.24 0.021799 -171.8
8.82260000 0.021802 -170.7 0.999759 -81.24 0.999759 -81.24 0.021802 -171.8
8.82280000 0.021806 -170.7 0.999759 -81.25 0.999759 -81.25 0.021806 -171.8
8.82300000 0.021809 -170.8 0.999758 -81.25 0.999758 -81.25 0.021810 -171.8
8.82320000 0.021813 -170.8 0.999758 -81.25 0.999758 -81.25 0.021813 -171.8
8.82340000 0.021816 -170.8 0.999758 -81.25 0.999758 -81.25 0.021817 -171.8
8.82360000 0.021820 -170.8 0.999758 -81.25 0.999758 -81.25 0.021820 -171.8
8.82380000 0.021824 -170.8 0.999758 -81.26 0.999758 -81.26 0.021824 -171.8
8.82400000 0.021827 -170.8 0.999758 -81.26 0.999758 -81.26 0.021827 -171.7
8.82420000 0.021831 -170.8 0.999758 -81.26 0.999758 -81.26 0.021831 -171.7
8.82440000 0.021834 -170.8 0.999758 -81.26 0.999758 -81.26 0.021835 -171.7
8.82460000 0.021838 -170.8 0.999758 -81.26 0.999758 -81.26 0.021838 -171.7
8.82480000 0.021842 -170.8 0.999758 -81.27 0.999758 -81.27 0.021842 -171.7
8.82500000 0.021845 -170.8 0.999758 -81.27 0.999758 -81.27 0.021846 -171.7
8.82520000 0.021849 -170.8 0.999758 -81.27 0.999758 -81.27 0.021849 -171.7
8.82540000 0.021853 -170.8 0.999758 -81.27 0.999758 -81.27 0.021853 -171.7
8.82560000 0.021856 -170.8 0.999757 -81.27 0.999757 -81.27 0.021857 -171.7
8.82580000 0.021860 -170.8 0.999757 -81.28 0.999757 -81.28 0.021860 -171.7
8.82600000 0.021864 -170.8 0.999757 -81.28 0.999757 -81.28 0.021864 -171.7
8.82620000 0.021868 -170.8 0.999757 -81.28 0.999757 -81.28 0.021868 -171.7
8.82640000 0.021871 -170.8 0.999757 -81.28 0.999757 -81.28 0.021872 -171.7
8.82660000 0.021875 -170.9 0.999757 -81.28 0.999757 -81.28 0.021875 -171.7
8.82680000 0.021879 -170.9 0.999757 -81.29 0.999757 -81.29 0.021879 -171.7
8.82700000 0.021883 -170.9 0.999757 -81.29 0.999757 -81.29 0.021883 -171.7
8.82720000 0.021886 -170.9 0.999757 -81.29 0.999757 -81.29 0.021887 -171.7
8.82740000 0.021890 -170.9 0.999757 -81.29 0.999757 -81.29 0.021890 -171.7
8.82760000 0.021894 -170.9 0.999757 -81.29 0.999757 -81.29 0.021894 -171.7
8.82780000 0.021898 -170.9 0.999757 -81.30 0.999757 -81.30 0.021898 -171.7
8.82800000 0.021902 -170.9 0.999756 -81.30 0.999756 -81.30 0.021902 -171.7
8.82820000 0.021905 -170.9 0.999756 -81.30 0.999756 -81.30 0.021906 -171.7
8.82840000 0.021909 -170.9 0.999756 -81.30 0.999756 -81.30 0.021910 -171.7
8.82860000 0.021913 -170.9 0.999756 -81.31 0.999756 -81.31 0.021913 -171.7
8.82880000 0.021917 -170.9 0.999756 -81.31 0.999756 -81.31 0.021917 -171.7
8.82900000 0.021921 -170.9 0.999756 -81.31 0.999756 -81.31 0.021921 -171.7
8.82920000 0.021925 -170.9 0.999756 -81.31 0.999756 -81.31 0.021925 -171.7
8.82940000 0.021929 -170.9 0.999756 -81.31 0.999756 -81.31 0.021929 -171.7
8.82960000 0.021933 -170.9 0.999756 -81.32 0.999756 -81.32 0.021933 -171.7
8.82980000 0.021937 -171.0 0.999756 -81.32 0.999756 -81.32 0.021937 -171.7
8.83000000 0.021941 -171.0 0.999756 -81.32 0.999756 -81.32 0.021941 -171.7
8.83020000 0.021944 -171.0 0.999755 -81.32 0.999755 -81.32 0.021945 -171.7
8.83040000 0.021948 -171.0 0.999755 -81.32 0.999755 -81.32 0.021949 -171.7
8.83060000 0.021952 -171.0 0.999755 -81.33 0.999755 -81.33 0.021953 -171.7
8.83080000 0.021956 -171.0 0.999755 -81.33 0.999755 -81.33 0.021957 -171.7
8.83100000 0.021960 -171.0 0.999755 -81.33 0.999755 -81.33 0.021961 -171.7
8.83120000 0.021964 -171.0 0.999755 -81.33 0.999755 -81.33 0.021965 -171.7
8.83140000 0.021968 -171.0 0.999755 -81.33 0.999755 -81.33 0.021969 -171.7
8.83160000 0.021972 -171.0 0.999755 -81.34 0.999755 -81.34 0.021973 -171.7
8.83180000 0.021977 -171.0 0.999755 -81.34 0.999755 -81.34 0.021977 -171.7
8.83200000 0.021981 -171.0 0.999755 -81.34 0.999755 -81.34 0.021981 -171.7
8.83220000 0.021985 -171.0 0.999755 -81.34 0.999755 -81.34 0.021985 -171.7
8.83240000 0.021989 -171.0 0.999754 -81.34 0.999754 -81.34 0.021989 -171.7
8.83260000 0.021993 -171.0 0.999754 -81.35 0.999754 -81.35 0.021993 -171.7
8.83280000 0.021997 -171.0 0.999754 -81.35 0.999754 -81.35 0.021997 -171.7
8.83300000 0.022001 -171.0 0.999754 -81.35 0.999754 -81.35 0.022001 -171.7
8.83320000 0.022005 -171.1 0.999754 -81.35 0.999754 -81.35 0.022006 -171.7
8.83340000 0.022009 -171.1 0.999754 -81.36 0.999754 -81.36 0.022010 -171.7
8.83360000 0.022014 -171.1 0.999754 -81.36 0.999754 -81.36 0.022014 -171.7
8.83380000 0.022018 -171.1 0.999754 -81.36 0.999754 -81.36 0.022018 -171.7
8.83400000 0.022022 -171.1 0.999754 -81.36 0.999754 -81.36 0.022022 -171.7
8.83420000 0.022026 -171.1 0.999754 -81.36 0.999754 -81.36 0.022026 -171.7
8.83440000 0.022030 -171.1 0.999754 -81.37 0.999754 -81.37 0.022031 -171.7
8.83460000 0.022035 -171.1 0.999753 -81.37 0.999753 -81.37 0.022035 -171.7
8.83480000 0.022039 -171.1 0.999753 -81.37 0.999753 -81.37 0.022039 -171.6
8.83500000 0.022043 -171.1 0.999753 -81.37 0.999753 -81.37 0.022043 -171.6
8.83520000 0.022047 -171.1 0.999753 -81.37 0.999753 -81.37 0.022048 -171.6
8.83540000 0.022052 -171.1 0.999753 -81.38 0.999753 -81.38 0.022052 -171.6
8.83560000 0.022056 -171.1 0.999753 -81.38 0.999753 -81.38 0.022056 -171.6
8.83580000 0.022060 -171.1 0.999753 -81.38 0.999753 -81.38 0.022061 -171.6
8.83600000 0.022065 -171.1 0.999753 -81.38 0.999753 -81.38 0.022065 -171.6
8.83620000 0.022069 -171.2 0.999753 -81.38 0.999753 -81.38 0.022069 -171.6
8.83640000 0.022073 -171.2 0.999753 -81.39 0.999753 -81.39 0.022074 -171.6
8.83660000 0.022078 -171.2 0.999752 -81.39 0.999752 -81.39 0.022078 -171.6
8.83680000 0.022082 -171.2 0.999752 -81.39 0.999752 -81.39 0.022082 -171.6
8.83700000 0.022086 -171.2 0.999752 -81.39 0.999752 -81.39 0.022087 -171.6
8.83720000 0.022091 -171.2 0.999752 -81.40 0.999752 -81.40 0.022091 -171.6
8.83740000 0.022095 -171.2 0.999752 -81.40 0.999752 -81.40 0.022095 -171.6
8.83760000 0.022100 -171.2 0.999752 -81.40 0.999752 -81.40 0.022100 -171.6
8.83780000 0.022104 -171.2 0.999752 -81.40 0.999752 -81.40 0.022104 -171.6
8.83800000 0.022109 -171.2 0.999752 -81.40 0.999752 -81.40 0.022109 -171.6
8.83820000 0.022113 -171.2 0.999752 -81.41 0.999752 -81.41 0.022113 -171.6
8.83840000 0.022117 -171.2 0.999752 -81.41 0.999752 -81.41 0.022118 -171.6
8.83860000 0.022122 -171.2 0.999752 -81.41 0.999752 -81.41 0.022122 -171.6
8.83880000 0.022126 -171.2 0.999751 -81.41 0.999751 -81.41 0.022127 -171.6
8.83900000 0.022131 -171.2 0.999751 -81.41 0.999751 -81.41 0.022131 -171.6
8.83920000 0.022136 -171.2 0.999751 -81.42 0.999751 -81.42 0.022136 -171.6
8.83940000 0.022140 -171.3 0.999751 -81.42 0.999751 -81.42 0.022140 -171.6
8.83960000 0.022145 -171.3 0.999751 -81.42 0.999751 -81.42 0.022145 -171.6
8.83980000 0.022149 -171.3 0.999751 -81.42 0.999751 -81.42 0.022150 -171.6
8.84000000 0.022154 -171.3 0.999751 -81.42 0.999751 -81.42 0.022154 -171.6
8.84020000 0.022159 -171.3 0.999751 -81.43 0.999751 -81.43 0.022159 -171.6
8.84040000 0.022163 -171.3 0.999751 -81.43 0.999751 -81.43 0.022164 -171.6
8.84060000 0.022168 -171.3 0.999750 -81.43 0.999750 -81.43 0.022168 -171.6
8.84080000 0.022172 -171.3 0.999750 -81.43 0.999750 -81.43 0.022173 -171.6
8.84100000 0.022177 -171.3 0.999750 -81.44 0.999750 -81.44 0.022178 -171.6
8.84120000 0.022182 -171.3 0.999750 -81.44 0.999750 -81.44 0.022182 -171.6
8.84140000 0.022187 -171.3 0.999750 -81.44 0.999750 -81.44 0.022187 -171.6
8.84160000 0.022191 -171.3 0.999750 -81.44 0.999750 -81.44 0.022192 -171.6
8.84180000 0.022196 -171.3 0.999750 -81.44 0.999750 -81.44 0.022196 -171.6
8.84200000 0.022201 -171.3 0.999750 -81.45 0.999750 -81.45 0.022201 -171.6
8.84220000 0.022206 -171.3 0.999750 -81.45 0.999750 -81.45 0.022206 -171.6
8.84240000 0.022210 -171.4 0.999750 -81.45 0.999750 -81.45 0.022211 -171.6
8.84260000 0.022215 -171.4 0.999749 -81.45 0.999749 -81.45 0.022216 -171.6
8.84280000 0.022220 -171.4 0.999749 -81.45 0.999749 -81.45 0.022220 -171.6
8.84300000 0.022225 -171.4 0.999749 -81.46 0.999749 -81.46 0.022225 -171.6
8.84320000 0.022230 -171.4 0.999749 -81.46 0.999749 -81.46 0.022230 -171.5
8.84340000 0.022235 -171.4 0.999749 -81.46 0.999749 -81.46 0.022235 -171.5
8.84360000 0.022239 -171.4 0.999749 -81.46 0.999749 -81.46 0.022240 -171.5
8.84380000 0.022244 -171.4 0.999749 -81.47 0.999749 -81.47 0.022245 -171.5
8.84400000 0.022249 -171.4 0.999749 -81.47 0.999749 -81.47 0.022250 -171.5
8.84420000 0.022254 -171.4 0.999749 -81.47 0.999749 -81.47 0.022255 -171.5
8.84440000 0.022259 -171.4 0.999748 -81.47 0.999748 -81.47 0.022260 -171.5
8.84460000 0.022264 -171.4 0.999748 -81.47 0.999748 -81.47 0.022264 -171.5
8.84480000 0.022269 -171.4 0.999748 -81.48 0.999748 -81.48 0.022269 -171.5
8.84500000 0.022274 -171.4 0.999748 -81.48 0.999748 -81.48 0.022274 -171.5
8.84520000 0.022279 -171.5 0.999748 -81.48 0.999748 -81.48 0.022280 -171.5
8.84540000 0.022284 -171.5 0.999748 -81.48 0.999748 -81.48 0.022285 -171.5
8.84560000 0.022289 -171.5 0.999748 -81.48 0.999748 -81.48 0.022290 -171.5
8.84580000 0.022294 -171.5 0.999748 -81.49 0.999748 -81.49 0.022295 -171.5
8.84600000 0.022299 -171.5 0.999747 -81.49 0.999747 -81.49 0.022300 -171.5
8.84620000 0.022304 -171.5 0.999747 -81.49 0.999747 -81.49 0.022305 -171.5
8.84640000 0.022310 -171.5 0.999747 -81.49 0.999747 -81.49 0.022310 -171.5
8.84660000 0.022315 -171.5 0.999747 -81.50 0.999747 -81.50 0.022315 -171.5
8.84680000 0.022320 -171.5 0.999747 -81.50 0.999747 -81.50 0.022320 -171.5
8.84700000 0.022325 -171.5 0.999747 -81.50 0.999747 -81.50 0.022325 -171.5
8.84720000 0.022330 -171.5 0.999747 -81.50 0.999747 -81.50 0.022331 -171.5
8.84740000 0.022335 -171.5 0.999747 -81.50 0.999747 -81.50 0.022336 -171.5
8.84760000 0.022341 -171.5 0.999747 -81.51 0.999747 -81.51 0.022341 -171.5
8.84780000 0.022346 -171.5 0.999746 -81.51 0.999746 -81.51 0.022346 -171.5
8.84800000 0.022351 -171.6 0.999746 -81.51 0.999746 -81.51 0.022352 -171.5
8.84820000 0.022357 -171.6 0.999746 -81.51 0.999746 -81.51 0.022357 -171.5
8.84840000 0.022362 -171.6 0.999746 -81.52 0.999746 -81.52 0.022362 -171.5
8.84860000 0.022367 -171.6 0.999746 -81.52 0.999746 -81.52 0.022368 -171.5
8.84880000 0.022372 -171.6 0.999746 -81.52 0.999746 -81.52 0.022373 -171.5
8.84900000 0.022378 -171.6 0.999746 -81.52 0.999746 -81.52 0.022378 -171.5
8.84920000 0.022383 -171.6 0.999746 -81.52 0.999746 -81.52 0.022384 -171.5
8.84940000 0.022389 -171.6 0.999745 -81.53 0.999745 -81.53 0.022389 -171.5
8.84960000 0.022394 -171.6 0.999745 -81.53 0.999745 -81.53 0.022394 -171.5
8.84980000 0.022399 -171.6 0.999745 -81.53 0.999745 -81.53 0.022400 -171.5
8.85000000 0.022405 -171.6 0.999745 -81.53 0.999745 -81.53 0.022405 -171.5
8.85020000 0.022410 -171.6 0.999745 -81.53 0.999745 -81.53 0.022411 -171.4
8.85040000 0.022416 -171.6 0.999745 -81.54 0.999745 -81.54 0.022416 -171.4
8.85060000 0.022421 -171.7 0.999745 -81.54 0.999745 -81.54 0.022422 -171.4
8.85080000 0.022427 -171.7 0.999745 -81.54 0.999745 -81.54 0.022427 -171.4
8.85100000 0.022432 -171.7 0.999744 -81.54 0.999744 -81.54 0.022433 -171.4
8.85120000 0.022438 -171.7 0.999744 -81.55 0.999744 -81.55 0.022438 -171.4
8.85140000 0.022444 -171.7 0.999744 -81.55 0.999744 -81.55 0.022444 -171.4
8.85160000 0.022449 -171.7 0.999744 -81.55 0.999744 -81.55 0.022450 -171.4
8.85180000 0.022455 -171.7 0.999744 -81.55 0.999744 -81.55 0.022455 -171.4
8.85200000 0.022461 -171.7 0.999744 -81.55 0.999744 -81.55 0.022461 -171.4
8.85220000 0.022466 -171.7 0.999744 -81.56 0.999744 -81.56 0.022467 -171.4
8.85240000 0.022472 -171.7 0.999744 -81.56 0.999744 -81.56 0.022472 -171.4
8.85260000 0.022478 -171.7 0.999743 -81.56 0.999743 -81.56 0.022478 -171.4
8.85280000 0.022483 -171.7 0.999743 -81.56 0.999743 -81.56 0.022484 -171.4
8.85300000 0.022489 -171.7 0.999743 -81.57 0.999743 -81.57 0.022489 -171.4
8.85320000 0.022495 -171.7 0.999743 -81.57 0.999743 -81.57 0.022495 -171.4
8.85340000 0.022501 -171.8 0.999743 -81.57 0.999743 -81.57 0.022501 -171.4
8.85360000 0.022506 -171.8 0.999743 -81.57 0.999743 -81.57 0.022507 -171.4
8.85380000 0.022512 -171.8 0.999743 -81.57 0.999743 -81.57 0.022513 -171.4
8.85400000 0.022518 -171.8 0.999742 -81.58 0.999742 -81.58 0.022519 -171.4
8.85420000 0.022524 -171.8 0.999742 -81.58 0.999742 -81.58 0.022524 -171.4
8.85440000 0.022530 -171.8 0.999742 -81.58 0.999742 -81.58 0.022530 -171.4
8.85460000 0.022536 -171.8 0.999742 -81.58 0.999742 -81.58 0.022536 -171.4
8.85480000 0.022542 -171.8 0.999742 -81.59 0.999742 -81.59 0.022542 -171.4
8.85500000 0.022548 -171.8 0.999742 -81.59 0.999742 -81.59 0.022548 -171.4
8.85520000 0.022554 -171.8 0.999742 -81.59 0.999742 -81.59 0.022554 -171.4
8.85540000 0.022560 -171.8 0.999742 -81.59 0.999742 -81.59 0.022560 -171.4
8.85560000 0.022566 -171.8 0.999741 -81.59 0.999741 -81.59 0.022566 -171.4
8.85580000 0.022572 -171.9 0.999741 -81.60 0.999741 -81.60 0.022572 -171.4
8.85600000 0.022578 -171.9 0.999741 -81.60 0.999741 -81.60 0.022578 -171.4
8.85620000 0.022584 -171.9 0.999741 -81.60 0.999741 -81.60 0.022584 -171.3
8.85640000 0.022590 -171.9 0.999741 -81.60 0.999741 -81.60 0.022591 -171.3
8.85660000 0.022596 -171.9 0.999741 -81.61 0.999741 -81.61 0.022597 -171.3
8.85680000 0.022602 -171.9 0.999741 -81.61 0.999741 -81.61 0.022603 -171.3
8.85700000 0.022609 -171.9 0.999740 -81.61 0.999740 -81.61 0.022609 -171.3
8.85720000 0.022615 -171.9 0.999740 -81.61 0.999740 -81.61 0.022615 -171.3
8.85740000 0.022621 -171.9 0.999740 -81.61 0.999740 -81.61 0.022621 -171.3
8.85760000 0.022627 -171.9 0.999740 -81.62 0.999740 -81.62 0.022628 -171.3
8.85780000 0.022634 -171.9 0.999740 -81.62 0.999740 -81.62 0.022634 -171.3
8.85800000 0.022640 -171.9 0.999740 -81.62 0.999740 -81.62 0.022640 -171.3
8.85820000 0.022646 -171.9 0.999740 -81.62 0.999740 -81.62 0.022647 -171.3
8.85840000 0.022653 -172.0 0.999739 -81.63 0.999739 -81.63 0.022653 -171.3
8.85860000 0.022659 -172.0 0.999739 -81.63 0.999739 -81.63 0.022659 -171.3
8.85880000 0.022665 -172.0 0.999739 -81.63 0.999739 -81.63 0.022666 -171.3
8.85900000 0.022672 -172.0 0.999739 -81.63 0.999739 -81.63 0.022672 -171.3
8.85920000 0.022678 -172.0 0.999739 -81.63 0.999739 -81.63 0.022679 -171.3
8.85940000 0.022685 -172.0 0.999739 -81.64 0.999739 -81.64 0.022685 -171.3
8.85960000 0.022691 -172.0 0.999739 -81.64 0.999739 -81.64 0.022692 -171.3
8.85980000 0.022698 -172.0 0.999738 -81.64 0.999738 -81.64 0.022698 -171.3
8.86000000 0.022704 -172.0 0.999738 -81.64 0.999738 -81.64 0.022705 -171.3
8.86020000 0.022711 -172.0 0.999738 -81.65 0.999738 -81.65 0.022711 -171.3
8.86040000 0.022718 -172.0 0.999738 -81.65 0.999738 -81.65 0.022718 -171.3
8.86060000 0.022724 -172.0 0.999738 -81.65 0.999738 -81.65 0.022725 -171.3
8.86080000 0.022731 -172.1 0.999738 -81.65 0.999738 -81.65 0.022731 -171.3
8.86100000 0.022737 -172.1 0.999737 -81.65 0.999737 -81.65 0.022738 -171.3
8.86120000 0.022744 -172.1 0.999737 -81.66 0.999737 -81.66 0.022745 -171.3
8.86140000 0.022751 -172.1 0.999737 -81.66 0.999737 -81.66 0.022751 -171.2
8.86160000 0.022758 -172.1 0.999737 -81.66 0.999737 -81.66 0.022758 -171.2
8.86180000 0.022764 -172.1 0.999737 -81.66 0.999737 -81.66 0.022765 -171.2
8.86200000 0.022771 -172.1 0.999737 -81.67 0.999737 -81.67 0.022772 -171.2
8.86220000 0.022778 -172.1 0.999736 -81.67 0.999736 -81.67 0.022779 -171.2
8.86240000 0.022785 -172.1 0.999736 -81.67 0.999736 -81.67 0.022785 -171.2
8.86260000 0.022792 -172.1 0.999736 -81.67 0.999736 -81.67 0.022792 -171.2
8.86280000 0.022799 -172.1 0.999736 -81.67 0.999736 -81.67 0.022799 -171.2
8.86300000 0.022806 -172.2 0.999736 -81.68 0.999736 -81.68 0.022806 -171.2
8.86320000 0.022813 -172.2 0.999736 -81.68 0.999736 -81.68 0.022813 -171.2
8.86340000 0.022820 -172.2 0.999736 -81.68 0.999736 -81.68 0.022820 -171.2
8.86360000 0.022827 -172.2 0.999735 -81.68 0.999735 -81.68 0.022827 -171.2
8.86380000 0.022834 -172.2 0.999735 -81.69 0.999735 -81.69 0.022834 -171.2
8.86400000 0.022841 -172.2 0.999735 -81.69 0.999735 -81.69 0.022841 -171.2
8.86420000 0.022848 -172.2 0.999735 -81.69 0.999735 -81.69 0.022848 -171.2
8.86440000 0.022855 -172.2 0.999735 -81.69 0.999735 -81.69 0.022856 -171.2
8.86460000 0.022862 -172.2 0.999735 -81.70 0.999735 -81.70 0.022863 -171.2
8.86480000 0.022870 -172.2 0.999734 -81.70 0.999734 -81.70 0.022870 -171.2
8.86500000 0.022877 -172.2 0.999734 -81.70 0.999734 -81.70 0.022877 -171.2
8.86520000 0.022884 -172.3 0.999734 -81.70 0.999734 -81.70 0.022884 -171.2
8.86540000 0.022891 -172.3 0.999734 -81.70 0.999734 -81.70 0.022892 -171.2
8.86560000 0.022899 -172.3 0.999734 -81.71 0.999734 -81.71 0.022899 -171.2
8.86580000 0.022906 -172.3 0.999734 -81.71 0.999734 -81.71 0.022906 -171.2
8.86600000 0.022913 -172.3 0.999733 -81.71 0.999733 -81.71 0.022914 -171.2
8.86620000 0.022921 -172.3 0.999733 -81.71 0.999733 -81.71 0.022921 -171.1
8.86640000 0.022928 -172.3 0.999733 -81.72 0.999733 -81.72 0.022929 -171.1
8.86660000 0.022936 -172.3 0.999733 -81.72 0.999733 -81.72 0.022936 -171.1
8.86680000 0.022943 -172.3 0.999733 -81.72 0.999733 -81.72 0.022944 -171.1
8.86700000 0.022951 -172.3 0.999732 -81.72 0.999732 -81.72 0.022951 -171.1
8.86720000 0.022958 -172.3 0.999732 -81.72 0.999732 -81.72 0.022959 -171.1
8.86740000 0.022966 -172.4 0.999732 -81.73 0.999732 -81.73 0.022966 -171.1
8.86760000 0.022973 -172.4 0.999732 -81.73 0.999732 -81.73 0.022974 -171.1
8.86780000 0.022981 -172.4 0.999732 -81.73 0.999732 -81.73 0.022982 -171.1
8.86800000 0.022989 -172.4 0.999732 -81.73 0.999732 -81.73 0.022989 -171.1
8.86820000 0.022997 -172.4 0.999731 -81.74 0.999731 -81.74 0.022997 -171.1
8.86840000 0.023004 -172.4 0.999731 -81.74 0.999731 -81.74 0.023005 -171.1
8.86860000 0.023012 -172.4 0.999731 -81.74 0.999731 -81.74 0.023013 -171.1
8.86880000 0.023020 -172.4 0.999731 -81.74 0.999731 -81.74 0.023020 -171.1
8.86900000 0.023028 -172.4 0.999731 -81.75 0.999731 -81.75 0.023028 -171.1
8.86920000 0.023036 -172.4 0.999730 -81.75 0.999730 -81.75 0.023036 -171.1
8.86940000 0.023044 -172.4 0.999730 -81.75 0.999730 -81.75 0.023044 -171.1
8.86960000 0.023051 -172.5 0.999730 -81.75 0.999730 -81.75 0.023052 -171.1
8.86980000 0.023059 -172.5 0.999730 -81.76 0.999730 -81.76 0.023060 -171.1
8.87000000 0.023067 -172.5 0.999730 -81.76 0.999730 -81.76 0.023068 -171.1
8.87020000 0.023076 -172.5 0.999730 -81.76 0.999730 -81.76 0.023076 -171.0
8.87040000 0.023084 -172.5 0.999729 -81.76 0.999729 -81.76 0.023084 -171.0
8.87060000 0.023092 -172.5 0.999729 -81.76 0.999729 -81.76 0.023092 -171.0
8.87080000 0.023100 -172.5 0.999729 -81.77 0.999729 -81.77 0.023100 -171.0
8.87100000 0.023108 -172.5 0.999729 -81.77 0.999729 -81.77 0.023109 -171.0
8.87120000 0.023116 -172.5 0.999729 -81.77 0.999729 -81.77 0.023117 -171.0
8.87140000 0.023125 -172.5 0.999728 -81.77 0.999728 -81.77 0.023125 -171.0
8.87160000 0.023133 -172.6 0.999728 -81.78 0.999728 -81.78 0.023133 -171.0
8.87180000 0.023141 -172.6 0.999728 -81.78 0.999728 -81.78 0.023142 -171.0
8.87200000 0.023150 -172.6 0.999728 -81.78 0.999728 -81.78 0.023150 -171.0
8.87220000 0.023158 -172.6 0.999728 -81.78 0.999728 -81.78 0.023159 -171.0
8.87240000 0.023166 -172.6 0.999727 -81.79 0.999727 -81.79 0.023167 -171.0
8.87260000 0.023175 -172.6 0.999727 -81.79 0.999727 -81.79 0.023175 -171.0
8.87280000 0.023183 -172.6 0.999727 -81.79 0.999727 -81.79 0.023184 -171.0
8.87300000 0.023192 -172.6 0.999727 -81.79 0.999727 -81.79 0.023193 -171.0
8.87320000 0.023201 -172.6 0.999727 -81.80 0.999727 -81.80 0.023201 -171.0
8.87340000 0.023209 -172.6 0.999726 -81.80 0.999726 -81.80 0.023210 -171.0
8.87360000 0.023218 -172.7 0.999726 -81.80 0.999726 -81.80 0.023218 -171.0
8.87380000 0.023227 -172.7 0.999726 -81.80 0.999726 -81.80 0.023227 -171.0
8.87400000 0.023235 -172.7 0.999726 -81.80 0.999726 -81.80 0.023236 -170.9
8.87420000 0.023244 -172.7 0.999726 -81.81 0.999726 -81.81 0.023245 -170.9
8.87440000 0.023253 -172.7 0.999725 -81.81 0.999725 -81.81 0.023253 -170.9
8.87460000 0.023262 -172.7 0.999725 -81.81 0.999725 -81.81 0.023262 -170.9
8.87480000 0.023271 -172.7 0.999725 -81.81 0.999725 -81.81 0.023271 -170.9
8.87500000 0.023280 -172.7 0.999725 -81.82 0.999725 -81.82 0.023280 -170.9
8.87520000 0.023289 -172.7 0.999724 -81.82 0.999724 -81.82 0.023289 -170.9
8.87540000 0.023298 -172.7 0.999724 -81.82 0.999724 -81.82 0.023298 -170.9
8.87560000 0.023307 -172.8 0.999724 -81.82 0.999724 -81.82 0.023307 -170.9
8.87580000 0.023316 -172.8 0.999724 -81.83 0.999724 -81.83 0.023316 -170.9
8.87600000 0.023325 -172.8 0.999724 -81.83 0.999724 -81.83 0.023326 -170.9
8.87620000 0.023334 -172.8 0.999723 -81.83 0.999723 -81.83 0.023335 -170.9
8.87640000 0.023343 -172.8 0.999723 -81.83 0.999723 -81.83 0.023344 -170.9
8.87660000 0.023353 -172.8 0.999723 -81.84 0.999723 -81.84 0.023353 -170.9
8.87680000 0.023362 -172.8 0.999723 -81.84 0.999723 -81.84 0.023363 -170.9
8.87700000 0.023371 -172.8 0.999723 -81.84 0.999723 -81.84 0.023372 -170.9
8.87720000 0.023381 -172.8 0.999722 -81.84 0.999722 -81.84 0.023381 -170.9
8.87740000 0.023390 -172.9 0.999722 -81.85 0.999722 -81.85 0.023391 -170.9
8.87760000 0.023400 -172.9 0.999722 -81.85 0.999722 -81.85 0.023400 -170.8
8.87780000 0.023409 -172.9 0.999722 -81.85 0.999722 -81.85 0.023410 -170.8
8.87800000 0.023419 -172.9 0.999721 -81.85 0.999721 -81.85 0.023419 -170.8
8.87820000 0.023428 -172.9 0.999721 -81.86 0.999721 -81.86 0.023429 -170.8
8.87840000 0.023438 -172.9 0.999721 -81.86 0.999721 -81.86 0.023439 -170.8