! Sonnet Data File
! From: emgraph Version : 16.52
! From Project: Resonator2_cp_varyW
! Data is De-embedded 
! Data File Written: 10/07/2017 09:25:23
!< HDATE 10/06/2017 17:18:21
!< MDATE 10/06/2017 17:18:21
!< PARAMS
!< gap = 6.0
!< Length = 400.0
!< Pwid1 = 2000.0
!< Pwid2 = 2000.0
!< Air_gap = 12.0
!< Width = 20.0
!< END PARAMS
# GHZ S MA R 51.80000
8.80000000 0.006146 -149.2 0.999976 -81.14 0.999976 -81.14 0.006145 166.92
!< P1 F=8.8 Eeff=(6.44629866 -2.9719e-5) Z0=(50.907433 1.17455e-4) R=0.0 C=0.0 
!< P2 F=8.8 Eeff=(6.44629866 -2.9719e-5) Z0=(50.907433 1.17455e-4) R=0.0 C=0.0 
8.80020000 0.006131 -149.1 0.999976 -81.14 0.999976 -81.14 0.006131 166.83
8.80040000 0.006117 -149.0 0.999976 -81.15 0.999976 -81.15 0.006116 166.73
8.80060000 0.006102 -148.9 0.999976 -81.15 0.999976 -81.15 0.006102 166.63
8.80080000 0.006087 -148.8 0.999976 -81.15 0.999976 -81.15 0.006087 166.53
8.80100000 0.006073 -148.8 0.999976 -81.16 0.999976 -81.16 0.006072 166.43
8.80120000 0.006058 -148.7 0.999977 -81.16 0.999977 -81.16 0.006057 166.33
8.80140000 0.006043 -148.6 0.999977 -81.16 0.999977 -81.16 0.006042 166.23
8.80160000 0.006028 -148.5 0.999977 -81.16 0.999977 -81.16 0.006028 166.12
8.80180000 0.006013 -148.4 0.999977 -81.17 0.999977 -81.17 0.006013 166.02
8.80200000 0.005998 -148.3 0.999977 -81.17 0.999977 -81.17 0.005998 165.92
8.80220000 0.005983 -148.2 0.999977 -81.17 0.999977 -81.17 0.005982 165.81
8.80240000 0.005968 -148.1 0.999977 -81.18 0.999977 -81.18 0.005967 165.70
8.80260000 0.005953 -148.0 0.999977 -81.18 0.999977 -81.18 0.005952 165.59
8.80280000 0.005937 -147.9 0.999977 -81.18 0.999977 -81.18 0.005937 165.49
8.80300000 0.005922 -147.8 0.999977 -81.18 0.999977 -81.18 0.005922 165.38
8.80320000 0.005907 -147.6 0.999977 -81.19 0.999977 -81.19 0.005906 165.26
8.80340000 0.005891 -147.5 0.999977 -81.19 0.999977 -81.19 0.005891 165.15
8.80360000 0.005876 -147.4 0.999978 -81.19 0.999978 -81.19 0.005875 165.04
8.80380000 0.005860 -147.3 0.999978 -81.20 0.999978 -81.20 0.005860 164.92
8.80400000 0.005845 -147.2 0.999978 -81.20 0.999978 -81.20 0.005844 164.81
8.80420000 0.005829 -147.1 0.999978 -81.20 0.999978 -81.20 0.005829 164.69
8.80440000 0.005813 -147.0 0.999978 -81.21 0.999978 -81.21 0.005813 164.57
8.80460000 0.005798 -146.9 0.999978 -81.21 0.999978 -81.21 0.005797 164.45
8.80480000 0.005782 -146.8 0.999978 -81.21 0.999978 -81.21 0.005781 164.33
8.80500000 0.005766 -146.6 0.999978 -81.21 0.999978 -81.21 0.005765 164.21
8.80520000 0.005750 -146.5 0.999978 -81.22 0.999978 -81.22 0.005749 164.09
8.80540000 0.005734 -146.4 0.999978 -81.22 0.999978 -81.22 0.005733 163.96
8.80560000 0.005718 -146.3 0.999978 -81.22 0.999978 -81.22 0.005717 163.83
8.80580000 0.005702 -146.2 0.999978 -81.23 0.999978 -81.23 0.005701 163.71
8.80600000 0.005686 -146.0 0.999978 -81.23 0.999978 -81.23 0.005685 163.58
8.80620000 0.005670 -145.9 0.999979 -81.23 0.999979 -81.23 0.005669 163.45
8.80640000 0.005653 -145.8 0.999979 -81.24 0.999979 -81.24 0.005653 163.32
8.80660000 0.005637 -145.7 0.999979 -81.24 0.999979 -81.24 0.005636 163.18
8.80680000 0.005621 -145.5 0.999979 -81.24 0.999979 -81.24 0.005620 163.05
8.80700000 0.005604 -145.4 0.999979 -81.24 0.999979 -81.24 0.005603 162.91
8.80720000 0.005588 -145.3 0.999979 -81.25 0.999979 -81.25 0.005587 162.78
8.80740000 0.005571 -145.1 0.999979 -81.25 0.999979 -81.25 0.005570 162.64
8.80760000 0.005555 -145.0 0.999979 -81.25 0.999979 -81.25 0.005554 162.50
8.80780000 0.005538 -144.9 0.999979 -81.26 0.999979 -81.26 0.005537 162.36
8.80800000 0.005521 -144.7 0.999979 -81.26 0.999979 -81.26 0.005520 162.21
8.80820000 0.005504 -144.6 0.999979 -81.26 0.999979 -81.26 0.005504 162.07
8.80840000 0.005488 -144.5 0.999979 -81.27 0.999979 -81.27 0.005487 161.92
8.80860000 0.005471 -144.3 0.999980 -81.27 0.999980 -81.27 0.005470 161.77
8.80880000 0.005454 -144.2 0.999980 -81.27 0.999980 -81.27 0.005453 161.62
8.80900000 0.005437 -144.0 0.999980 -81.28 0.999980 -81.28 0.005436 161.47
8.80920000 0.005420 -143.9 0.999980 -81.28 0.999980 -81.28 0.005419 161.31
8.80940000 0.005403 -143.7 0.999980 -81.28 0.999980 -81.28 0.005402 161.16
8.80960000 0.005385 -143.6 0.999980 -81.28 0.999980 -81.28 0.005384 161.00
8.80980000 0.005368 -143.4 0.999980 -81.29 0.999980 -81.29 0.005367 160.84
8.81000000 0.005351 -143.3 0.999980 -81.29 0.999980 -81.29 0.005350 160.68
8.81020000 0.005333 -143.1 0.999980 -81.29 0.999980 -81.29 0.005333 160.52
8.81040000 0.005316 -143.0 0.999980 -81.30 0.999980 -81.30 0.005315 160.35
8.81060000 0.005299 -142.8 0.999980 -81.30 0.999980 -81.30 0.005298 160.19
8.81080000 0.005281 -142.6 0.999980 -81.30 0.999980 -81.30 0.005280 160.02
8.81100000 0.005264 -142.5 0.999980 -81.31 0.999980 -81.31 0.005263 159.85
8.81120000 0.005246 -142.3 0.999981 -81.31 0.999981 -81.31 0.005245 159.67
8.81140000 0.005228 -142.1 0.999981 -81.31 0.999981 -81.31 0.005227 159.50
8.81160000 0.005211 -142.0 0.999981 -81.32 0.999981 -81.32 0.005210 159.32
8.81180000 0.005193 -141.8 0.999981 -81.32 0.999981 -81.32 0.005192 159.14
8.81200000 0.005175 -141.6 0.999981 -81.32 0.999981 -81.32 0.005174 158.96
8.81220000 0.005157 -141.4 0.999981 -81.33 0.999981 -81.33 0.005156 158.78
8.81240000 0.005139 -141.3 0.999981 -81.33 0.999981 -81.33 0.005138 158.59
8.81260000 0.005121 -141.1 0.999981 -81.33 0.999981 -81.33 0.005120 158.40
8.81280000 0.005103 -140.9 0.999981 -81.34 0.999981 -81.34 0.005102 158.21
8.81300000 0.005085 -140.7 0.999981 -81.34 0.999981 -81.34 0.005084 158.02
8.81320000 0.005067 -140.5 0.999981 -81.34 0.999981 -81.34 0.005066 157.82
8.81340000 0.005049 -140.3 0.999981 -81.35 0.999981 -81.35 0.005048 157.62
8.81360000 0.005031 -140.1 0.999982 -81.35 0.999982 -81.35 0.005030 157.42
8.81380000 0.005013 -139.9 0.999982 -81.35 0.999982 -81.35 0.005011 157.22
8.81400000 0.004994 -139.7 0.999982 -81.36 0.999982 -81.36 0.004993 157.01
8.81420000 0.004976 -139.5 0.999982 -81.36 0.999982 -81.36 0.004975 156.80
8.81440000 0.004958 -139.3 0.999982 -81.36 0.999982 -81.36 0.004956 156.59
8.81460000 0.004939 -139.1 0.999982 -81.36 0.999982 -81.36 0.004938 156.37
8.81480000 0.004921 -138.9 0.999982 -81.37 0.999982 -81.37 0.004919 156.16
8.81500000 0.004902 -138.7 0.999982 -81.37 0.999982 -81.37 0.004901 155.94
8.81520000 0.004884 -138.5 0.999982 -81.37 0.999982 -81.37 0.004882 155.71
8.81540000 0.004865 -138.2 0.999982 -81.38 0.999982 -81.38 0.004864 155.49
8.81560000 0.004847 -138.0 0.999982 -81.38 0.999982 -81.38 0.004845 155.26
8.81580000 0.004828 -137.8 0.999982 -81.39 0.999982 -81.39 0.004826 155.02
8.81600000 0.004809 -137.6 0.999982 -81.39 0.999982 -81.39 0.004808 154.79
8.81620000 0.004791 -137.3 0.999982 -81.39 0.999982 -81.39 0.004789 154.55
8.81640000 0.004772 -137.1 0.999983 -81.40 0.999983 -81.40 0.004770 154.31
8.81660000 0.004753 -136.9 0.999983 -81.40 0.999983 -81.40 0.004751 154.06
8.81680000 0.004734 -136.6 0.999983 -81.40 0.999983 -81.40 0.004733 153.81
8.81700000 0.004715 -136.4 0.999983 -81.41 0.999983 -81.41 0.004714 153.56
8.81720000 0.004697 -136.1 0.999983 -81.41 0.999983 -81.41 0.004695 153.30
8.81740000 0.004678 -135.9 0.999983 -81.41 0.999983 -81.41 0.004676 153.04
8.81760000 0.004659 -135.6 0.999983 -81.42 0.999983 -81.42 0.004657 152.78
8.81780000 0.004640 -135.4 0.999983 -81.42 0.999983 -81.42 0.004638 152.51
8.81800000 0.004621 -135.1 0.999983 -81.42 0.999983 -81.42 0.004619 152.24
8.81820000 0.004602 -134.8 0.999983 -81.43 0.999983 -81.43 0.004600 151.97
8.81840000 0.004583 -134.5 0.999983 -81.43 0.999983 -81.43 0.004581 151.69
8.81860000 0.004564 -134.3 0.999983 -81.43 0.999983 -81.43 0.004562 151.41
8.81880000 0.004545 -134.0 0.999983 -81.44 0.999983 -81.44 0.004543 151.12
8.81900000 0.004526 -133.7 0.999983 -81.44 0.999983 -81.44 0.004524 150.83
8.81920000 0.004507 -133.4 0.999984 -81.44 0.999984 -81.44 0.004505 150.53
8.81940000 0.004488 -133.1 0.999984 -81.45 0.999984 -81.45 0.004486 150.23
8.81960000 0.004469 -132.8 0.999984 -81.45 0.999984 -81.45 0.004467 149.93
8.81980000 0.004450 -132.5 0.999984 -81.45 0.999984 -81.45 0.004448 149.62
8.82000000 0.004431 -132.2 0.999984 -81.46 0.999984 -81.46 0.004429 149.31
8.82020000 0.004412 -131.9 0.999984 -81.46 0.999984 -81.46 0.004410 148.99
8.82040000 0.004393 -131.6 0.999984 -81.47 0.999984 -81.47 0.004391 148.67
8.82060000 0.004374 -131.3 0.999984 -81.47 0.999984 -81.47 0.004372 148.34
8.82080000 0.004355 -130.9 0.999984 -81.47 0.999984 -81.47 0.004353 148.01
8.82100000 0.004336 -130.6 0.999984 -81.48 0.999984 -81.48 0.004334 147.67
8.82120000 0.004318 -130.3 0.999984 -81.48 0.999984 -81.48 0.004315 147.32
8.82140000 0.004299 -129.9 0.999984 -81.48 0.999984 -81.48 0.004296 146.98
8.82160000 0.004280 -129.6 0.999984 -81.49 0.999984 -81.49 0.004278 146.62
8.82180000 0.004261 -129.2 0.999984 -81.49 0.999984 -81.49 0.004259 146.26
8.82200000 0.004242 -128.9 0.999984 -81.49 0.999984 -81.49 0.004240 145.90
8.82220000 0.004224 -128.5 0.999984 -81.50 0.999984 -81.50 0.004221 145.53
8.82240000 0.004205 -128.2 0.999985 -81.50 0.999985 -81.50 0.004203 145.15
8.82260000 0.004187 -127.8 0.999985 -81.51 0.999985 -81.51 0.004184 144.77
8.82280000 0.004168 -127.4 0.999985 -81.51 0.999985 -81.51 0.004165 144.38
8.82300000 0.004150 -127.0 0.999985 -81.51 0.999985 -81.51 0.004147 143.99
8.82320000 0.004131 -126.6 0.999985 -81.52 0.999985 -81.52 0.004129 143.59
8.82340000 0.004113 -126.2 0.999985 -81.52 0.999985 -81.52 0.004110 143.18
8.82360000 0.004095 -125.8 0.999985 -81.52 0.999985 -81.52 0.004092 142.77
8.82380000 0.004077 -125.4 0.999985 -81.53 0.999985 -81.53 0.004074 142.35
8.82400000 0.004059 -125.0 0.999985 -81.53 0.999985 -81.53 0.004056 141.93
8.82420000 0.004041 -124.6 0.999985 -81.54 0.999985 -81.54 0.004038 141.50
8.82440000 0.004023 -124.1 0.999985 -81.54 0.999985 -81.54 0.004020 141.06
8.82460000 0.004005 -123.7 0.999985 -81.54 0.999985 -81.54 0.004002 140.61
8.82480000 0.003987 -123.2 0.999985 -81.55 0.999985 -81.55 0.003984 140.16
8.82500000 0.003970 -122.8 0.999985 -81.55 0.999985 -81.55 0.003967 139.70
8.82520000 0.003953 -122.3 0.999985 -81.56 0.999985 -81.56 0.003950 139.23
8.82540000 0.003935 -121.9 0.999985 -81.56 0.999985 -81.56 0.003932 138.75
8.82560000 0.003918 -121.4 0.999985 -81.56 0.999985 -81.56 0.003915 138.27
8.82580000 0.003902 -120.9 0.999985 -81.57 0.999985 -81.57 0.003898 137.78
8.82600000 0.003885 -120.4 0.999985 -81.57 0.999985 -81.57 0.003881 137.28
8.82620000 0.003868 -119.9 0.999985 -81.58 0.999985 -81.58 0.003865 136.78
8.82640000 0.003852 -119.4 0.999985 -81.58 0.999985 -81.58 0.003848 136.27
8.82660000 0.003836 -118.9 0.999985 -81.58 0.999985 -81.58 0.003832 135.74
8.82680000 0.003820 -118.4 0.999985 -81.59 0.999985 -81.59 0.003816 135.21
8.82700000 0.003804 -117.9 0.999986 -81.59 0.999986 -81.59 0.003800 134.68
8.82720000 0.003788 -117.3 0.999986 -81.60 0.999986 -81.60 0.003785 134.13
8.82740000 0.003773 -116.8 0.999986 -81.60 0.999986 -81.60 0.003769 133.58
8.82760000 0.003758 -116.2 0.999986 -81.60 0.999986 -81.60 0.003754 133.01
8.82780000 0.003743 -115.7 0.999986 -81.61 0.999986 -81.61 0.003739 132.44
8.82800000 0.003729 -115.1 0.999986 -81.61 0.999986 -81.61 0.003725 131.86
8.82820000 0.003714 -114.5 0.999986 -81.62 0.999986 -81.62 0.003711 131.27
8.82840000 0.003701 -113.9 0.999986 -81.62 0.999986 -81.62 0.003696 130.67
8.82860000 0.003687 -113.3 0.999986 -81.62 0.999986 -81.62 0.003683 130.07
8.82880000 0.003673 -112.7 0.999986 -81.63 0.999986 -81.63 0.003669 129.45
8.82900000 0.003660 -112.1 0.999986 -81.63 0.999986 -81.63 0.003656 128.82
8.82920000 0.003648 -111.5 0.999986 -81.64 0.999986 -81.64 0.003643 128.19
8.82940000 0.003635 -110.8 0.999986 -81.64 0.999986 -81.64 0.003631 127.55
8.82960000 0.003623 -110.2 0.999986 -81.65 0.999986 -81.65 0.003619 126.89
8.82980000 0.003612 -109.5 0.999986 -81.65 0.999986 -81.65 0.003607 126.23
8.83000000 0.003601 -108.9 0.999986 -81.65 0.999986 -81.65 0.003596 125.56
8.83020000 0.003590 -108.2 0.999986 -81.66 0.999986 -81.66 0.003585 124.88
8.83040000 0.003579 -107.5 0.999986 -81.66 0.999986 -81.66 0.003575 124.19
8.83060000 0.003570 -106.8 0.999986 -81.67 0.999986 -81.67 0.003565 123.49
8.83080000 0.003560 -106.1 0.999986 -81.67 0.999986 -81.67 0.003555 122.78
8.83100000 0.003551 -105.4 0.999986 -81.68 0.999986 -81.68 0.003546 122.06
8.83120000 0.003543 -104.7 0.999986 -81.68 0.999986 -81.68 0.003538 121.34
8.83140000 0.003535 -104.0 0.999986 -81.69 0.999986 -81.69 0.003530 120.60
8.83160000 0.003527 -103.2 0.999986 -81.69 0.999986 -81.69 0.003522 119.86
8.83180000 0.003520 -102.5 0.999986 -81.69 0.999986 -81.69 0.003515 119.10
8.83200000 0.003514 -101.7 0.999986 -81.70 0.999986 -81.70 0.003509 118.34
8.83220000 0.003508 -101.0 0.999986 -81.70 0.999986 -81.70 0.003503 117.57
8.83240000 0.003503 -100.2 0.999986 -81.71 0.999986 -81.71 0.003497 116.79
8.83260000 0.003498 -99.43 0.999986 -81.71 0.999986 -81.71 0.003493 116.00
8.83280000 0.003494 -98.64 0.999986 -81.72 0.999986 -81.72 0.003489 115.20
8.83300000 0.003491 -97.85 0.999986 -81.72 0.999986 -81.72 0.003485 114.39
8.83320000 0.003488 -97.05 0.999986 -81.73 0.999986 -81.73 0.003482 113.58
8.83340000 0.003486 -96.24 0.999986 -81.73 0.999986 -81.73 0.003480 112.76
8.83360000 0.003485 -95.42 0.999986 -81.74 0.999986 -81.74 0.003479 111.93
8.83380000 0.003484 -94.59 0.999985 -81.74 0.999985 -81.74 0.003478 111.10
8.83400000 0.003484 -93.76 0.999985 -81.75 0.999985 -81.75 0.003478 110.25
8.83420000 0.003485 -92.92 0.999985 -81.75 0.999985 -81.75 0.003479 109.40
8.83440000 0.003487 -92.08 0.999985 -81.76 0.999985 -81.76 0.003481 108.55
8.83460000 0.003489 -91.23 0.999985 -81.76 0.999985 -81.76 0.003483 107.68
8.83480000 0.003493 -90.37 0.999985 -81.76 0.999985 -81.76 0.003486 106.81
8.83500000 0.003497 -89.51 0.999985 -81.77 0.999985 -81.77 0.003490 105.94
8.83520000 0.003502 -88.64 0.999985 -81.77 0.999985 -81.77 0.003495 105.06
8.83540000 0.003507 -87.77 0.999985 -81.78 0.999985 -81.78 0.003501 104.18
8.83560000 0.003514 -86.89 0.999985 -81.78 0.999985 -81.78 0.003508 103.29
8.83580000 0.003522 -86.01 0.999985 -81.79 0.999985 -81.79 0.003515 102.40
8.83600000 0.003530 -85.12 0.999985 -81.79 0.999985 -81.79 0.003523 101.50
8.83620000 0.003540 -84.24 0.999985 -81.80 0.999985 -81.80 0.003533 100.60
8.83640000 0.003550 -83.35 0.999985 -81.80 0.999985 -81.80 0.003543 99.700
8.83660000 0.003561 -82.45 0.999985 -81.81 0.999985 -81.81 0.003554 98.795
8.83680000 0.003574 -81.56 0.999984 -81.81 0.999984 -81.81 0.003567 97.889
8.83700000 0.003587 -80.66 0.999984 -81.82 0.999984 -81.82 0.003580 96.981
8.83720000 0.003601 -79.77 0.999984 -81.82 0.999984 -81.82 0.003594 96.072
8.83740000 0.003617 -78.87 0.999984 -81.83 0.999984 -81.83 0.003609 95.162
8.83760000 0.003633 -77.97 0.999984 -81.84 0.999984 -81.84 0.003626 94.252
8.83780000 0.003650 -77.08 0.999984 -81.84 0.999984 -81.84 0.003643 93.343
8.83800000 0.003669 -76.18 0.999984 -81.85 0.999984 -81.85 0.003662 92.434
8.83820000 0.003688 -75.28 0.999984 -81.85 0.999984 -81.85 0.003681 91.526
8.83840000 0.003709 -74.39 0.999984 -81.86 0.999984 -81.86 0.003702 90.620
8.83860000 0.003731 -73.50 0.999983 -81.86 0.999983 -81.86 0.003723 89.716
8.83880000 0.003754 -72.61 0.999983 -81.87 0.999983 -81.87 0.003746 88.814
8.83900000 0.003778 -71.73 0.999983 -81.87 0.999983 -81.87 0.003770 87.916
8.83920000 0.003803 -70.84 0.999983 -81.88 0.999983 -81.88 0.003795 87.021
8.83940000 0.003829 -69.97 0.999983 -81.88 0.999983 -81.88 0.003822 86.129
8.83960000 0.003857 -69.09 0.999983 -81.89 0.999983 -81.89 0.003849 85.242
8.83980000 0.003885 -68.22 0.999982 -81.90 0.999982 -81.90 0.003878 84.359
8.84000000 0.003915 -67.36 0.999982 -81.90 0.999982 -81.90 0.003907 83.481
8.84020000 0.003946 -66.50 0.999982 -81.91 0.999982 -81.91 0.003938 82.608
8.84040000 0.003978 -65.64 0.999982 -81.91 0.999982 -81.91 0.003970 81.741
8.84060000 0.004012 -64.80 0.999982 -81.92 0.999982 -81.92 0.004004 80.880
8.84080000 0.004046 -63.95 0.999981 -81.92 0.999981 -81.92 0.004038 80.025
8.84100000 0.004082 -63.12 0.999981 -81.93 0.999981 -81.93 0.004074 79.176
8.84120000 0.004119 -62.29 0.999981 -81.94 0.999981 -81.94 0.004111 78.334
8.84140000 0.004157 -61.47 0.999981 -81.94 0.999981 -81.94 0.004149 77.500
8.84160000 0.004197 -60.66 0.999981 -81.95 0.999981 -81.95 0.004189 76.673
8.84180000 0.004238 -59.85 0.999980 -81.95 0.999980 -81.95 0.004230 75.853
8.84200000 0.004280 -59.05 0.999980 -81.96 0.999980 -81.96 0.004272 75.041
8.84220000 0.004323 -58.26 0.999980 -81.97 0.999980 -81.97 0.004315 74.237
8.84240000 0.004367 -57.48 0.999980 -81.97 0.999980 -81.97 0.004359 73.441
8.84260000 0.004413 -56.71 0.999979 -81.98 0.999979 -81.98 0.004405 72.654
8.84280000 0.004460 -55.94 0.999979 -81.98 0.999979 -81.98 0.004452 71.875
8.84300000 0.004509 -55.19 0.999979 -81.99 0.999979 -81.99 0.004500 71.105
8.84320000 0.004558 -54.44 0.999978 -82.00 0.999978 -82.00 0.004550 70.343
8.84340000 0.004609 -53.70 0.999978 -82.00 0.999978 -82.00 0.004601 69.591
8.84360000 0.004661 -52.97 0.999978 -82.01 0.999978 -82.01 0.004653 68.847
8.84380000 0.004715 -52.25 0.999977 -82.02 0.999977 -82.02 0.004707 68.112
8.84400000 0.004770 -51.54 0.999977 -82.02 0.999977 -82.02 0.004762 67.387
8.84420000 0.004826 -50.84 0.999977 -82.03 0.999977 -82.03 0.004818 66.670
8.84440000 0.004883 -50.14 0.999976 -82.03 0.999976 -82.03 0.004875 65.963
8.84460000 0.004942 -49.46 0.999976 -82.04 0.999976 -82.04 0.004934 65.265
8.84480000 0.005002 -48.79 0.999976 -82.05 0.999976 -82.05 0.004994 64.576
8.84500000 0.005064 -48.12 0.999975 -82.05 0.999975 -82.05 0.005056 63.896
8.84520000 0.005127 -47.47 0.999975 -82.06 0.999975 -82.06 0.005119 63.226
8.84540000 0.005191 -46.82 0.999974 -82.07 0.999974 -82.07 0.005183 62.564
8.84560000 0.005257 -46.18 0.999974 -82.08 0.999974 -82.08 0.005248 61.912
8.84580000 0.005324 -45.55 0.999973 -82.08 0.999973 -82.08 0.005315 61.269
8.84600000 0.005392 -44.93 0.999973 -82.09 0.999973 -82.09 0.005384 60.635
8.84620000 0.005462 -44.33 0.999972 -82.10 0.999972 -82.10 0.005453 60.011
8.84640000 0.005533 -43.72 0.999972 -82.10 0.999972 -82.10 0.005525 59.395
8.84660000 0.005605 -43.13 0.999971 -82.11 0.999971 -82.11 0.005597 58.788
8.84680000 0.005679 -42.55 0.999971 -82.12 0.999971 -82.12 0.005671 58.190
8.84700000 0.005755 -41.98 0.999970 -82.13 0.999970 -82.13 0.005747 57.600
8.84720000 0.005832 -41.41 0.999970 -82.13 0.999970 -82.13 0.005823 57.020
8.84740000 0.005910 -40.85 0.999969 -82.14 0.999969 -82.14 0.005902 56.448
8.84760000 0.005990 -40.31 0.999969 -82.15 0.999969 -82.15 0.005982 55.884
8.84780000 0.006071 -39.77 0.999968 -82.15 0.999968 -82.15 0.006063 55.329
8.84800000 0.006154 -39.24 0.999967 -82.16 0.999967 -82.16 0.006146 54.782
8.84820000 0.006238 -38.71 0.999967 -82.17 0.999967 -82.17 0.006230 54.244
8.84840000 0.006324 -38.20 0.999966 -82.18 0.999966 -82.18 0.006316 53.713
8.84860000 0.006412 -37.69 0.999965 -82.19 0.999965 -82.19 0.006403 53.191
8.84880000 0.006500 -37.20 0.999965 -82.19 0.999965 -82.19 0.006492 52.676
8.84900000 0.006591 -36.71 0.999964 -82.20 0.999964 -82.20 0.006583 52.170
8.84920000 0.006683 -36.22 0.999963 -82.21 0.999963 -82.21 0.006675 51.671
8.84940000 0.006777 -35.75 0.999963 -82.22 0.999963 -82.22 0.006768 51.179
8.84960000 0.006872 -35.28 0.999962 -82.23 0.999962 -82.23 0.006864 50.695
8.84980000 0.006969 -34.82 0.999961 -82.23 0.999961 -82.23 0.006961 50.219
8.85000000 0.007068 -34.37 0.999960 -82.24 0.999960 -82.24 0.007059 49.749
8.85020000 0.007168 -33.93 0.999959 -82.25 0.999959 -82.25 0.007159 49.287
8.85040000 0.007270 -33.49 0.999958 -82.26 0.999958 -82.26 0.007261 48.832
8.85060000 0.007374 -33.06 0.999957 -82.27 0.999957 -82.27 0.007365 48.384
8.85080000 0.007479 -32.64 0.999957 -82.28 0.999957 -82.28 0.007471 47.942
8.85100000 0.007586 -32.22 0.999956 -82.29 0.999956 -82.29 0.007578 47.507
8.85120000 0.007695 -31.81 0.999955 -82.29 0.999955 -82.29 0.007687 47.079
8.85140000 0.007806 -31.41 0.999954 -82.30 0.999954 -82.30 0.007798 46.657
8.85160000 0.007919 -31.01 0.999952 -82.31 0.999952 -82.31 0.007910 46.242
8.85180000 0.008033 -30.62 0.999951 -82.32 0.999951 -82.32 0.008025 45.833
8.85200000 0.008150 -30.23 0.999950 -82.33 0.999950 -82.33 0.008141 45.429
8.85220000 0.008268 -29.86 0.999949 -82.34 0.999949 -82.34 0.008260 45.032
8.85230399 0.008330 -29.66 0.999949 -82.34 0.999949 -82.34 0.008322 44.828
8.85240000 0.008389 -29.48 0.999948 -82.35 0.999948 -82.35 0.008380 44.641
8.85260000 0.008511 -29.12 0.999947 -82.36 0.999947 -82.36 0.008502 44.256
8.85280000 0.008635 -28.76 0.999945 -82.37 0.999945 -82.37 0.008627 43.876
8.85299185 0.008756 -28.42 0.999944 -82.38 0.999944 -82.38 0.008748 43.517
8.85300000 0.008762 -28.40 0.999944 -82.38 0.999944 -82.38 0.008753 43.502
8.85320000 0.008890 -28.06 0.999943 -82.39 0.999943 -82.39 0.008882 43.133
8.85340000 0.009021 -27.71 0.999941 -82.40 0.999941 -82.40 0.009012 42.769
8.85360000 0.009154 -27.38 0.999940 -82.41 0.999940 -82.41 0.009145 42.411
8.85366395 0.009196 -27.27 0.999940 -82.41 0.999940 -82.41 0.009188 42.298
8.85380000 0.009289 -27.04 0.999939 -82.42 0.999939 -82.42 0.009280 42.058
8.85400000 0.009426 -26.72 0.999937 -82.43 0.999937 -82.43 0.009417 41.711
8.85420000 0.009565 -26.40 0.999936 -82.44 0.999936 -82.44 0.009557 41.368
8.85432065 0.009651 -26.20 0.999935 -82.45 0.999935 -82.45 0.009642 41.163
8.85440000 0.009707 -26.08 0.999934 -82.45 0.999934 -82.45 0.009698 41.030
8.85460000 0.009851 -25.77 0.999932 -82.46 0.999932 -82.46 0.009843 40.696
8.85480000 0.009998 -25.46 0.999931 -82.47 0.999931 -82.47 0.009989 40.368
8.85496230 0.010119 -25.22 0.999929 -82.48 0.999929 -82.48 0.010110 40.105
8.85500000 0.010147 -25.16 0.999929 -82.48 0.999929 -82.48 0.010138 40.044
8.85520000 0.010298 -24.86 0.999927 -82.49 0.999927 -82.49 0.010290 39.725
8.85540000 0.010453 -24.57 0.999925 -82.50 0.999925 -82.50 0.010444 39.410
8.85558924 0.010601 -24.30 0.999923 -82.52 0.999923 -82.52 0.010592 39.115
8.85560000 0.010609 -24.28 0.999923 -82.52 0.999923 -82.52 0.010600 39.099
8.85580000 0.010769 -24.00 0.999921 -82.53 0.999921 -82.53 0.010760 38.792
8.85600000 0.010931 -23.72 0.999919 -82.54 0.999919 -82.54 0.010922 38.490
8.85620000 0.011095 -23.45 0.999917 -82.55 0.999917 -82.55 0.011087 38.192
8.85620182 0.011097 -23.45 0.999917 -82.55 0.999917 -82.55 0.011088 38.189
8.85640000 0.011263 -23.18 0.999915 -82.56 0.999915 -82.56 0.011254 37.898
8.85660000 0.011434 -22.91 0.999913 -82.57 0.999913 -82.57 0.011425 37.608
8.85680000 0.011607 -22.65 0.999911 -82.59 0.999911 -82.59 0.011598 37.321
8.85680037 0.011607 -22.65 0.999911 -82.59 0.999911 -82.59 0.011598 37.321
8.85700000 0.011784 -22.39 0.999908 -82.60 0.999908 -82.60 0.011775 37.038
8.85720000 0.011963 -22.14 0.999906 -82.61 0.999906 -82.61 0.011954 36.760
8.85738520 0.012132 -21.91 0.999904 -82.62 0.999904 -82.62 0.012123 36.504
8.85740000 0.012146 -21.89 0.999903 -82.62 0.999903 -82.62 0.012137 36.484
8.85760000 0.012332 -21.65 0.999901 -82.64 0.999901 -82.64 0.012323 36.212
8.85780000 0.012521 -21.41 0.999898 -82.65 0.999898 -82.65 0.012512 35.944
8.85795663 0.012671 -21.22 0.999896 -82.66 0.999896 -82.66 0.012662 35.736
8.85800000 0.012713 -21.17 0.999895 -82.66 0.999895 -82.66 0.012704 35.679
8.85820000 0.012909 -20.93 0.999892 -82.68 0.999892 -82.68 0.012900 35.417
8.85840000 0.013109 -20.70 0.999889 -82.69 0.999889 -82.69 0.013100 35.159
8.85851497 0.013225 -20.57 0.999888 -82.70 0.999888 -82.70 0.013216 35.012
8.85860000 0.013312 -20.48 0.999886 -82.71 0.999886 -82.71 0.013303 34.904
8.85880000 0.013519 -20.25 0.999883 -82.72 0.999883 -82.72 0.013510 34.652
8.85900000 0.013729 -20.03 0.999880 -82.73 0.999880 -82.73 0.013720 34.402
8.85906051 0.013794 -19.97 0.999879 -82.74 0.999879 -82.74 0.013785 34.328
8.85920000 0.013944 -19.82 0.999877 -82.75 0.999877 -82.75 0.013934 34.156
8.85940000 0.014162 -19.60 0.999873 -82.76 0.999873 -82.76 0.014153 33.913
8.85959355 0.014377 -19.40 0.999870 -82.78 0.999870 -82.78 0.014368 33.681
8.85960000 0.014385 -19.40 0.999870 -82.78 0.999870 -82.78 0.014375 33.673
8.85980000 0.014611 -19.19 0.999866 -82.79 0.999866 -82.79 0.014602 33.435
8.86000000 0.014842 -18.99 0.999862 -82.81 0.999862 -82.81 0.014833 33.201
8.86011438 0.014976 -18.87 0.999860 -82.82 0.999860 -82.82 0.014967 33.068
8.86020000 0.015078 -18.79 0.999858 -82.82 0.999858 -82.82 0.015068 32.969
8.86040000 0.015318 -18.59 0.999854 -82.84 0.999854 -82.84 0.015308 32.739
8.86060000 0.015562 -18.40 0.999850 -82.86 0.999850 -82.86 0.015553 32.512
8.86062327 0.015591 -18.37 0.999849 -82.86 0.999849 -82.86 0.015581 32.486
8.86080000 0.015811 -18.21 0.999845 -82.87 0.999845 -82.87 0.015802 32.288
8.86100000 0.016066 -18.02 0.999841 -82.89 0.999841 -82.89 0.016056 32.066
8.86112051 0.016221 -17.91 0.999838 -82.90 0.999838 -82.90 0.016211 31.933
8.86120000 0.016325 -17.83 0.999836 -82.91 0.999836 -82.91 0.016315 31.846
8.86140000 0.016589 -17.65 0.999831 -82.92 0.999831 -82.92 0.016579 31.629
8.86160000 0.016859 -17.47 0.999826 -82.94 0.999826 -82.94 0.016849 31.414
8.86160634 0.016867 -17.47 0.999826 -82.94 0.999826 -82.94 0.016858 31.407
8.86180000 0.017134 -17.30 0.999821 -82.96 0.999821 -82.96 0.017124 31.201
8.86200000 0.017415 -17.12 0.999816 -82.98 0.999816 -82.98 0.017405 30.991
8.86208105 0.017530 -17.05 0.999813 -82.99 0.999813 -82.99 0.017520 30.906
8.86220000 0.017701 -16.95 0.999810 -83.00 0.999810 -83.00 0.017691 30.782
8.86240000 0.017994 -16.79 0.999804 -83.02 0.999804 -83.02 0.017983 30.576
8.86254488 0.018209 -16.67 0.999800 -83.03 0.999800 -83.03 0.018199 30.427
8.86260000 0.018292 -16.62 0.999798 -83.03 0.999798 -83.03 0.018282 30.371
8.86280000 0.018597 -16.46 0.999792 -83.05 0.999792 -83.05 0.018587 30.169
8.86299808 0.018905 -16.30 0.999785 -83.07 0.999785 -83.07 0.018895 29.970
8.86300000 0.018908 -16.30 0.999785 -83.07 0.999785 -83.07 0.018898 29.968
8.86320000 0.019227 -16.14 0.999779 -83.09 0.999779 -83.09 0.019216 29.769
8.86340000 0.019552 -15.99 0.999771 -83.12 0.999771 -83.12 0.019541 29.572
8.86344090 0.019619 -15.96 0.999770 -83.12 0.999770 -83.12 0.019609 29.532
8.86360000 0.019884 -15.84 0.999764 -83.14 0.999764 -83.14 0.019873 29.377
8.86380000 0.020223 -15.69 0.999757 -83.16 0.999757 -83.16 0.020213 29.184
8.86387357 0.020350 -15.63 0.999754 -83.17 0.999754 -83.17 0.020340 29.113
8.86400000 0.020571 -15.54 0.999749 -83.18 0.999749 -83.18 0.020560 28.992
8.86420000 0.020926 -15.40 0.999741 -83.20 0.999741 -83.20 0.020915 28.802
8.86429633 0.021099 -15.33 0.999737 -83.21 0.999737 -83.21 0.021089 28.711
8.86440000 0.021289 -15.26 0.999732 -83.23 0.999732 -83.23 0.021278 28.613
8.86460000 0.021660 -15.12 0.999723 -83.25 0.999723 -83.25 0.021649 28.426
8.86470940 0.021867 -15.04 0.999718 -83.26 0.999718 -83.26 0.021856 28.324
8.86480000 0.022040 -14.98 0.999714 -83.27 0.999714 -83.27 0.022029 28.240
8.86500000 0.022429 -14.85 0.999704 -83.30 0.999704 -83.30 0.022418 28.056
8.86511300 0.022653 -14.77 0.999699 -83.31 0.999699 -83.31 0.022642 27.952
8.86520000 0.022828 -14.71 0.999694 -83.32 0.999694 -83.32 0.022817 27.873
8.86540000 0.023236 -14.58 0.999684 -83.35 0.999684 -83.35 0.023225 27.691
8.86550736 0.023459 -14.52 0.999678 -83.36 0.999678 -83.36 0.023448 27.594
8.86560000 0.023654 -14.46 0.999673 -83.37 0.999673 -83.37 0.023643 27.511
8.86580000 0.024082 -14.33 0.999662 -83.40 0.999662 -83.40 0.024071 27.332
8.86589268 0.024284 -14.28 0.999657 -83.41 0.999657 -83.41 0.024273 27.249
8.86600000 0.024521 -14.21 0.999650 -83.43 0.999650 -83.43 0.024509 27.153
8.86620000 0.024971 -14.09 0.999638 -83.46 0.999638 -83.46 0.024959 26.976
8.86626917 0.025129 -14.05 0.999634 -83.47 0.999634 -83.47 0.025118 26.915
8.86640000 0.025432 -13.97 0.999625 -83.48 0.999625 -83.48 0.025421 26.800
8.86660000 0.025906 -13.86 0.999612 -83.51 0.999612 -83.51 0.025894 26.625
8.86663703 0.025995 -13.84 0.999609 -83.52 0.999609 -83.52 0.025983 26.593
8.86680000 0.026392 -13.75 0.999598 -83.54 0.999598 -83.54 0.026380 26.451
8.86699647 0.026881 -13.64 0.999583 -83.57 0.999583 -83.57 0.026869 26.281
8.86700000 0.026890 -13.64 0.999583 -83.57 0.999583 -83.57 0.026878 26.278
8.86720000 0.027402 -13.53 0.999568 -83.61 0.999568 -83.61 0.027390 26.106
8.86734767 0.027789 -13.45 0.999556 -83.63 0.999556 -83.63 0.027777 25.979
8.86740000 0.027928 -13.42 0.999552 -83.64 0.999552 -83.64 0.027916 25.934
8.86760000 0.028468 -13.32 0.999535 -83.67 0.999535 -83.67 0.028456 25.763
8.86769082 0.028719 -13.28 0.999527 -83.69 0.999527 -83.69 0.028706 25.686
8.86780000 0.029024 -13.22 0.999518 -83.70 0.999518 -83.70 0.029012 25.593
8.86800000 0.029595 -13.12 0.999499 -83.74 0.999499 -83.74 0.029583 25.423
8.86802611 0.029671 -13.11 0.999497 -83.74 0.999497 -83.74 0.029658 25.401
8.86820000 0.030183 -13.03 0.999480 -83.77 0.999480 -83.77 0.030170 25.254
8.86835371 0.030646 -12.96 0.999464 -83.80 0.999464 -83.80 0.030633 25.125
8.86840000 0.030787 -12.93 0.999460 -83.81 0.999460 -83.81 0.030774 25.086
8.86860000 0.031409 -12.84 0.999438 -83.85 0.999438 -83.85 0.031396 24.917
8.86867381 0.031644 -12.81 0.999430 -83.86 0.999430 -83.86 0.031631 24.855
8.86880000 0.032050 -12.76 0.999416 -83.89 0.999416 -83.89 0.032037 24.749
8.86898658 0.032666 -12.68 0.999394 -83.93 0.999394 -83.93 0.032653 24.593
8.86900000 0.032711 -12.67 0.999393 -83.93 0.999393 -83.93 0.032697 24.581
8.86920000 0.033391 -12.59 0.999368 -83.97 0.999368 -83.97 0.033378 24.414
8.86929218 0.033712 -12.55 0.999356 -83.99 0.999356 -83.99 0.033699 24.337
8.86940000 0.034093 -12.51 0.999342 -84.01 0.999342 -84.01 0.034080 24.246
8.86959077 0.034784 -12.43 0.999316 -84.05 0.999316 -84.05 0.034770 24.087
8.86960000 0.034817 -12.43 0.999315 -84.05 0.999315 -84.05 0.034804 24.079
8.86980000 0.035565 -12.35 0.999286 -84.10 0.999286 -84.10 0.035551 23.911
8.86988253 0.035880 -12.32 0.999274 -84.12 0.999274 -84.12 0.035866 23.842
8.87000000 0.036337 -12.28 0.999256 -84.15 0.999256 -84.15 0.036323 23.744
8.87016759 0.037003 -12.22 0.999229 -84.19 0.999229 -84.19 0.036989 23.603
8.87020000 0.037134 -12.21 0.999224 -84.19 0.999224 -84.19 0.037120 23.576
8.87040000 0.037959 -12.15 0.999190 -84.24 0.999190 -84.24 0.037944 23.407