! Sonnet Data File
! From: emgraph Version : 16.52
! From Project: Resonator2_extremeCap
! Data is De-embedded 
! Data File Written: 10/09/2017 23:02:46
!< HDATE 10/09/2017 15:24:44
!< MDATE 10/09/2017 17:18:05
!< PARAMS
!< Pwid1 = 2000.0
!< Pwid2 = 2000.0
!< Air_gap = 19.8
!< Width = 33.0
!< Gap = 12.0
!< END PARAMS
# GHZ S MA R 51.80000
8.98000000 0.074925 63.220 0.997150 -93.45 0.997150 -93.45 0.074859 -70.14
!< P1 F=8.98 Eeff=(6.44458572 -2.971e-5) Z0=(51.1711705 1.1806e-4) R=0.0 C=0.0 
!< P2 F=8.98 Eeff=(6.44458572 -2.971e-5) Z0=(51.1711705 1.1806e-4) R=0.0 C=0.0 
8.98010000 0.075028 63.322 0.997142 -93.46 0.997142 -93.46 0.074962 -70.27
8.98020000 0.075131 63.424 0.997134 -93.47 0.997134 -93.47 0.075065 -70.39
8.98030000 0.075235 63.526 0.997126 -93.48 0.997126 -93.48 0.075169 -70.52
8.98040000 0.075340 63.628 0.997118 -93.49 0.997118 -93.49 0.075274 -70.64
8.98050000 0.075446 63.731 0.997110 -93.50 0.997110 -93.50 0.075379 -70.77
8.98060000 0.075552 63.833 0.997102 -93.51 0.997102 -93.51 0.075485 -70.89
8.98070000 0.075659 63.936 0.997094 -93.53 0.997094 -93.53 0.075592 -71.02
8.98080000 0.075766 64.038 0.997086 -93.54 0.997086 -93.54 0.075700 -71.15
8.98090000 0.075875 64.141 0.997077 -93.55 0.997077 -93.55 0.075808 -71.27
8.98100000 0.075984 64.243 0.997069 -93.56 0.997069 -93.56 0.075917 -71.40
8.98110000 0.076094 64.346 0.997060 -93.57 0.997060 -93.57 0.076026 -71.53
8.98120000 0.076204 64.449 0.997052 -93.59 0.997052 -93.59 0.076137 -71.65
8.98130000 0.076315 64.552 0.997043 -93.60 0.997043 -93.60 0.076248 -71.78
8.98140000 0.076427 64.655 0.997034 -93.61 0.997034 -93.61 0.076359 -71.91
8.98150000 0.076540 64.758 0.997025 -93.62 0.997025 -93.62 0.076472 -72.03
8.98160000 0.076653 64.861 0.997017 -93.63 0.997017 -93.63 0.076585 -72.16
8.98170000 0.076767 64.964 0.997008 -93.65 0.997008 -93.65 0.076699 -72.29
8.98180000 0.076882 65.067 0.996999 -93.66 0.996999 -93.66 0.076814 -72.42
8.98190000 0.076998 65.170 0.996990 -93.67 0.996990 -93.67 0.076929 -72.54
8.98200000 0.077114 65.273 0.996980 -93.68 0.996980 -93.68 0.077045 -72.67
8.98210000 0.077231 65.377 0.996971 -93.69 0.996971 -93.69 0.077162 -72.80
8.98220000 0.077349 65.480 0.996962 -93.71 0.996962 -93.71 0.077280 -72.93
8.98230000 0.077468 65.584 0.996953 -93.72 0.996953 -93.72 0.077399 -73.06
8.98240000 0.077587 65.687 0.996943 -93.73 0.996943 -93.73 0.077518 -73.18
8.98250000 0.077708 65.791 0.996934 -93.74 0.996934 -93.74 0.077638 -73.31
8.98260000 0.077829 65.894 0.996924 -93.76 0.996924 -93.76 0.077759 -73.44
8.98270000 0.077950 65.998 0.996914 -93.77 0.996914 -93.77 0.077881 -73.57
8.98280000 0.078073 66.102 0.996905 -93.78 0.996905 -93.78 0.078003 -73.70
8.98290000 0.078196 66.205 0.996895 -93.79 0.996895 -93.79 0.078126 -73.83
8.98300000 0.078321 66.309 0.996885 -93.81 0.996885 -93.81 0.078250 -73.96
8.98310000 0.078446 66.413 0.996875 -93.82 0.996875 -93.82 0.078375 -74.09
8.98320000 0.078571 66.517 0.996865 -93.83 0.996865 -93.83 0.078501 -74.22
8.98330000 0.078698 66.621 0.996855 -93.84 0.996855 -93.84 0.078627 -74.35
8.98340000 0.078825 66.725 0.996844 -93.86 0.996844 -93.86 0.078755 -74.48
8.98350000 0.078954 66.829 0.996834 -93.87 0.996834 -93.87 0.078883 -74.61
8.98360000 0.079083 66.933 0.996824 -93.88 0.996824 -93.88 0.079012 -74.74
8.98370000 0.079213 67.037 0.996813 -93.90 0.996813 -93.90 0.079142 -74.87
8.98380000 0.079344 67.141 0.996803 -93.91 0.996803 -93.91 0.079272 -75.00
8.98390000 0.079475 67.245 0.996792 -93.92 0.996792 -93.92 0.079404 -75.13
8.98400000 0.079608 67.350 0.996781 -93.94 0.996781 -93.94 0.079536 -75.26
8.98410000 0.079741 67.454 0.996770 -93.95 0.996770 -93.95 0.079669 -75.39
8.98420000 0.079876 67.558 0.996759 -93.96 0.996759 -93.96 0.079803 -75.52
8.98430000 0.080011 67.662 0.996748 -93.98 0.996748 -93.98 0.079938 -75.65
8.98440000 0.080147 67.767 0.996737 -93.99 0.996737 -93.99 0.080074 -75.78
8.98450000 0.080284 67.871 0.996726 -94.00 0.996726 -94.00 0.080211 -75.92
8.98460000 0.080422 67.976 0.996715 -94.02 0.996715 -94.02 0.080349 -76.05
8.98470000 0.080560 68.080 0.996703 -94.03 0.996703 -94.03 0.080487 -76.18
8.98480000 0.080700 68.184 0.996692 -94.04 0.996692 -94.04 0.080627 -76.31
8.98490000 0.080840 68.289 0.996680 -94.06 0.996680 -94.06 0.080767 -76.44
8.98500000 0.080982 68.393 0.996669 -94.07 0.996669 -94.07 0.080908 -76.57
8.98510000 0.081124 68.498 0.996657 -94.08 0.996657 -94.08 0.081051 -76.71
8.98520000 0.081267 68.603 0.996645 -94.10 0.996645 -94.10 0.081194 -76.84
8.98530000 0.081412 68.707 0.996633 -94.11 0.996633 -94.11 0.081338 -76.97
8.98540000 0.081557 68.812 0.996621 -94.13 0.996621 -94.13 0.081483 -77.10
8.98550000 0.081703 68.916 0.996609 -94.14 0.996609 -94.14 0.081629 -77.24
8.98560000 0.081850 69.021 0.996597 -94.15 0.996597 -94.15 0.081775 -77.37
8.98570000 0.081998 69.126 0.996584 -94.17 0.996584 -94.17 0.081923 -77.50
8.98580000 0.082147 69.230 0.996572 -94.18 0.996572 -94.18 0.082072 -77.63
8.98590000 0.082297 69.335 0.996559 -94.20 0.996559 -94.20 0.082222 -77.77
8.98600000 0.082448 69.440 0.996547 -94.21 0.996547 -94.21 0.082373 -77.90
8.98610000 0.082600 69.544 0.996534 -94.22 0.996534 -94.22 0.082524 -78.03
8.98620000 0.082753 69.649 0.996521 -94.24 0.996521 -94.24 0.082677 -78.17
8.98630000 0.082906 69.754 0.996508 -94.25 0.996508 -94.25 0.082831 -78.30
8.98640000 0.083061 69.858 0.996495 -94.27 0.996495 -94.27 0.082986 -78.44
8.98650000 0.083217 69.963 0.996482 -94.28 0.996482 -94.28 0.083141 -78.57
8.98660000 0.083374 70.068 0.996468 -94.30 0.996468 -94.30 0.083298 -78.70
8.98670000 0.083532 70.173 0.996455 -94.31 0.996455 -94.31 0.083456 -78.84
8.98680000 0.083691 70.277 0.996442 -94.32 0.996442 -94.32 0.083615 -78.97
8.98690000 0.083851 70.382 0.996428 -94.34 0.996428 -94.34 0.083774 -79.11
8.98700000 0.084012 70.487 0.996414 -94.35 0.996414 -94.35 0.083935 -79.24
8.98710000 0.084174 70.592 0.996400 -94.37 0.996400 -94.37 0.084097 -79.37
8.98720000 0.084337 70.696 0.996386 -94.38 0.996386 -94.38 0.084260 -79.51
8.98730000 0.084502 70.801 0.996372 -94.40 0.996372 -94.40 0.084424 -79.64
8.98740000 0.084667 70.906 0.996358 -94.41 0.996358 -94.41 0.084589 -79.78
8.98750000 0.084833 71.010 0.996343 -94.43 0.996343 -94.43 0.084756 -79.91
8.98760000 0.085001 71.115 0.996329 -94.44 0.996329 -94.44 0.084923 -80.05
8.98770000 0.085169 71.220 0.996314 -94.46 0.996314 -94.46 0.085091 -80.18
8.98780000 0.085339 71.324 0.996300 -94.47 0.996300 -94.47 0.085261 -80.32
8.98790000 0.085510 71.429 0.996285 -94.49 0.996285 -94.49 0.085431 -80.46
8.98800000 0.085681 71.534 0.996270 -94.50 0.996270 -94.50 0.085603 -80.59
8.98810000 0.085854 71.638 0.996255 -94.52 0.996255 -94.52 0.085776 -80.73
8.98820000 0.086029 71.743 0.996239 -94.54 0.996239 -94.54 0.085950 -80.86
8.98830000 0.086204 71.847 0.996224 -94.55 0.996224 -94.55 0.086125 -81.00
8.98840000 0.086380 71.952 0.996209 -94.57 0.996209 -94.57 0.086301 -81.13
8.98850000 0.086558 72.056 0.996193 -94.58 0.996193 -94.58 0.086478 -81.27
8.98860000 0.086736 72.161 0.996177 -94.60 0.996177 -94.60 0.086657 -81.41
8.98870000 0.086916 72.265 0.996161 -94.61 0.996161 -94.61 0.086836 -81.54
8.98880000 0.087097 72.370 0.996145 -94.63 0.996145 -94.63 0.087017 -81.68
8.98890000 0.087280 72.474 0.996129 -94.65 0.996129 -94.65 0.087199 -81.82
8.98900000 0.087463 72.579 0.996113 -94.66 0.996113 -94.66 0.087383 -81.95
8.98910000 0.087648 72.683 0.996096 -94.68 0.996096 -94.68 0.087567 -82.09
8.98920000 0.087834 72.787 0.996080 -94.69 0.996080 -94.69 0.087753 -82.23
8.98930000 0.088021 72.892 0.996063 -94.71 0.996063 -94.71 0.087940 -82.36
8.98940000 0.088209 72.996 0.996046 -94.73 0.996046 -94.73 0.088128 -82.50
8.98950000 0.088398 73.100 0.996029 -94.74 0.996029 -94.74 0.088317 -82.64
8.98960000 0.088589 73.204 0.996012 -94.76 0.996012 -94.76 0.088508 -82.77
8.98970000 0.088781 73.308 0.995995 -94.78 0.995995 -94.78 0.088699 -82.91
8.98980000 0.088974 73.412 0.995977 -94.79 0.995977 -94.79 0.088892 -83.05
8.98990000 0.089169 73.516 0.995959 -94.81 0.995959 -94.81 0.089087 -83.19
8.99000000 0.089365 73.620 0.995942 -94.83 0.995942 -94.83 0.089282 -83.32
8.99010000 0.089562 73.724 0.995924 -94.84 0.995924 -94.84 0.089479 -83.46
8.99020000 0.089760 73.828 0.995906 -94.86 0.995906 -94.86 0.089678 -83.60
8.99030000 0.089960 73.932 0.995887 -94.88 0.995887 -94.88 0.089877 -83.74
8.99040000 0.090161 74.036 0.995869 -94.89 0.995869 -94.89 0.090078 -83.88
8.99050000 0.090363 74.140 0.995850 -94.91 0.995850 -94.91 0.090280 -84.01
8.99060000 0.090567 74.243 0.995831 -94.93 0.995831 -94.93 0.090483 -84.15
8.99070000 0.090772 74.347 0.995813 -94.94 0.995813 -94.94 0.090688 -84.29
8.99080000 0.090978 74.451 0.995793 -94.96 0.995793 -94.96 0.090894 -84.43
8.99090000 0.091186 74.554 0.995774 -94.98 0.995774 -94.98 0.091102 -84.57
8.99100000 0.091395 74.657 0.995755 -95.00 0.995755 -95.00 0.091311 -84.70
8.99110000 0.091605 74.761 0.995735 -95.01 0.995735 -95.01 0.091521 -84.84
8.99120000 0.091817 74.864 0.995715 -95.03 0.995715 -95.03 0.091733 -84.98
8.99130000 0.092030 74.967 0.995695 -95.05 0.995695 -95.05 0.091946 -85.12
8.99140000 0.092245 75.071 0.995675 -95.07 0.995675 -95.07 0.092160 -85.26
8.99150000 0.092461 75.174 0.995655 -95.08 0.995655 -95.08 0.092376 -85.40
8.99160000 0.092678 75.277 0.995635 -95.10 0.995635 -95.10 0.092593 -85.54
8.99170000 0.092897 75.380 0.995614 -95.12 0.995614 -95.12 0.092812 -85.68
8.99180000 0.093118 75.483 0.995593 -95.14 0.995593 -95.14 0.093032 -85.82
8.99190000 0.093339 75.585 0.995572 -95.16 0.995572 -95.16 0.093254 -85.96
8.99200000 0.093563 75.688 0.995551 -95.17 0.995551 -95.17 0.093477 -86.09
8.99210000 0.093787 75.791 0.995529 -95.19 0.995529 -95.19 0.093701 -86.23
8.99220000 0.094014 75.893 0.995508 -95.21 0.995508 -95.21 0.093927 -86.37
8.99230000 0.094241 75.996 0.995486 -95.23 0.995486 -95.23 0.094155 -86.51
8.99240000 0.094471 76.098 0.995464 -95.25 0.995464 -95.25 0.094384 -86.65
8.99250000 0.094701 76.201 0.995442 -95.27 0.995442 -95.27 0.094614 -86.79
8.99260000 0.094934 76.303 0.995419 -95.29 0.995419 -95.29 0.094846 -86.93
8.99270000 0.095168 76.405 0.995397 -95.30 0.995397 -95.30 0.095080 -87.07
8.99280000 0.095403 76.507 0.995374 -95.32 0.995374 -95.32 0.095315 -87.21
8.99290000 0.095640 76.609 0.995351 -95.34 0.995351 -95.34 0.095552 -87.35
8.99300000 0.095878 76.711 0.995327 -95.36 0.995327 -95.36 0.095790 -87.49
8.99310000 0.096118 76.813 0.995304 -95.38 0.995304 -95.38 0.096030 -87.63
8.99320000 0.096360 76.914 0.995280 -95.40 0.995280 -95.40 0.096272 -87.77
8.99330000 0.096604 77.016 0.995256 -95.42 0.995256 -95.42 0.096515 -87.91
8.99340000 0.096848 77.117 0.995232 -95.44 0.995232 -95.44 0.096760 -88.06
8.99350000 0.097095 77.219 0.995208 -95.46 0.995208 -95.46 0.097006 -88.20
8.99360000 0.097343 77.320 0.995183 -95.48 0.995183 -95.48 0.097254 -88.34
8.99370000 0.097593 77.421 0.995159 -95.50 0.995159 -95.50 0.097504 -88.48
8.99380000 0.097845 77.522 0.995134 -95.52 0.995134 -95.52 0.097755 -88.62
8.99390000 0.098098 77.623 0.995108 -95.54 0.995108 -95.54 0.098008 -88.76
8.99400000 0.098353 77.724 0.995083 -95.56 0.995083 -95.56 0.098263 -88.90
8.99410000 0.098609 77.825 0.995057 -95.58 0.995057 -95.58 0.098519 -89.04
8.99420000 0.098868 77.925 0.995031 -95.60 0.995031 -95.60 0.098777 -89.18
8.99430000 0.099128 78.026 0.995005 -95.62 0.995005 -95.62 0.099037 -89.32
8.99440000 0.099390 78.126 0.994978 -95.64 0.994978 -95.64 0.099299 -89.46
8.99450000 0.099653 78.226 0.994952 -95.66 0.994952 -95.66 0.099562 -89.61
8.99460000 0.099919 78.326 0.994925 -95.68 0.994925 -95.68 0.099827 -89.75
8.99470000 0.100186 78.426 0.994898 -95.70 0.994898 -95.70 0.100094 -89.89
8.99480000 0.100455 78.526 0.994870 -95.72 0.994870 -95.72 0.100363 -90.03
8.99490000 0.100725 78.626 0.994842 -95.74 0.994842 -95.74 0.100633 -90.17
8.99500000 0.100998 78.725 0.994814 -95.76 0.994814 -95.76 0.100906 -90.31
8.99510000 0.101272 78.825 0.994786 -95.78 0.994786 -95.78 0.101180 -90.46
8.99520000 0.101549 78.924 0.994758 -95.80 0.994758 -95.80 0.101456 -90.60
8.99530000 0.101827 79.023 0.994729 -95.83 0.994729 -95.83 0.101734 -90.74
8.99540000 0.102107 79.122 0.994700 -95.85 0.994700 -95.85 0.102014 -90.88
8.99550000 0.102389 79.221 0.994670 -95.87 0.994670 -95.87 0.102295 -91.02
8.99560000 0.102672 79.320 0.994641 -95.89 0.994641 -95.89 0.102579 -91.17
8.99570000 0.102958 79.419 0.994611 -95.91 0.994611 -95.91 0.102865 -91.31
8.99580000 0.103246 79.517 0.994581 -95.93 0.994581 -95.93 0.103152 -91.45
8.99590000 0.103536 79.616 0.994550 -95.96 0.994550 -95.96 0.103441 -91.59
8.99600000 0.103827 79.714 0.994519 -95.98 0.994519 -95.98 0.103733 -91.74
8.99610000 0.104121 79.812 0.994488 -96.00 0.994488 -96.00 0.104026 -91.88
8.99620000 0.104416 79.910 0.994457 -96.02 0.994457 -96.02 0.104321 -92.02
8.99630000 0.104714 80.007 0.994425 -96.04 0.994425 -96.04 0.104619 -92.16
8.99640000 0.105013 80.105 0.994393 -96.07 0.994393 -96.07 0.104918 -92.31
8.99650000 0.105315 80.202 0.994361 -96.09 0.994361 -96.09 0.105220 -92.45
8.99660000 0.105619 80.300 0.994328 -96.11 0.994328 -96.11 0.105523 -92.59
8.99670000 0.105925 80.397 0.994296 -96.13 0.994296 -96.13 0.105829 -92.74
8.99680000 0.106233 80.494 0.994262 -96.16 0.994262 -96.16 0.106136 -92.88
8.99690000 0.106543 80.590 0.994229 -96.18 0.994229 -96.18 0.106446 -93.02
8.99700000 0.106855 80.687 0.994195 -96.20 0.994195 -96.20 0.106758 -93.16
8.99710000 0.107169 80.783 0.994161 -96.23 0.994161 -96.23 0.107072 -93.31
8.99720000 0.107485 80.879 0.994126 -96.25 0.994126 -96.25 0.107388 -93.45
8.99730000 0.107804 80.976 0.994091 -96.27 0.994091 -96.27 0.107707 -93.59
8.99740000 0.108125 81.071 0.994056 -96.30 0.994056 -96.30 0.108027 -93.74
8.99750000 0.108448 81.167 0.994020 -96.32 0.994020 -96.32 0.108350 -93.88
8.99760000 0.108773 81.263 0.993984 -96.35 0.993984 -96.35 0.108675 -94.03
8.99770000 0.109101 81.358 0.993948 -96.37 0.993948 -96.37 0.109002 -94.17
8.99780000 0.109430 81.453 0.993911 -96.39 0.993911 -96.39 0.109332 -94.31
8.99790000 0.109762 81.548 0.993874 -96.42 0.993874 -96.42 0.109664 -94.46
8.99800000 0.110097 81.643 0.993837 -96.44 0.993837 -96.44 0.109998 -94.60
8.99810000 0.110433 81.738 0.993799 -96.47 0.993799 -96.47 0.110334 -94.74
8.99820000 0.110772 81.832 0.993761 -96.49 0.993761 -96.49 0.110673 -94.89
8.99830000 0.111114 81.926 0.993722 -96.52 0.993722 -96.52 0.111014 -95.03
8.99840000 0.111458 82.020 0.993683 -96.54 0.993683 -96.54 0.111358 -95.18
8.99850000 0.111804 82.114 0.993644 -96.57 0.993644 -96.57 0.111703 -95.32
8.99860000 0.112152 82.208 0.993604 -96.59 0.993604 -96.59 0.112052 -95.46
8.99870000 0.112503 82.301 0.993564 -96.62 0.993564 -96.62 0.112402 -95.61
8.99880000 0.112857 82.394 0.993523 -96.64 0.993523 -96.64 0.112756 -95.75
8.99890000 0.113213 82.487 0.993482 -96.67 0.993482 -96.67 0.113111 -95.90
8.99900000 0.113571 82.580 0.993441 -96.69 0.993441 -96.69 0.113470 -96.04
8.99910000 0.113932 82.672 0.993399 -96.72 0.993399 -96.72 0.113830 -96.19
8.99920000 0.114295 82.765 0.993357 -96.75 0.993357 -96.75 0.114193 -96.33
8.99930000 0.114661 82.857 0.993314 -96.77 0.993314 -96.77 0.114559 -96.48
8.99940000 0.115030 82.949 0.993271 -96.80 0.993271 -96.80 0.114928 -96.62
8.99950000 0.115401 83.041 0.993228 -96.82 0.993228 -96.82 0.115299 -96.77
8.99960000 0.115775 83.132 0.993184 -96.85 0.993184 -96.85 0.115672 -96.91
8.99970000 0.116152 83.223 0.993139 -96.88 0.993139 -96.88 0.116048 -97.06
8.99980000 0.116531 83.314 0.993094 -96.90 0.993094 -96.90 0.116427 -97.20
8.99990000 0.116913 83.405 0.993049 -96.93 0.993049 -96.93 0.116809 -97.35
9.00000000 0.117297 83.496 0.993003 -96.96 0.993003 -96.96 0.117193 -97.49
9.00010000 0.117684 83.586 0.992957 -96.99 0.992957 -96.99 0.117580 -97.64
9.00020000 0.118074 83.676 0.992910 -97.01 0.992910 -97.01 0.117970 -97.78
9.00030000 0.118467 83.766 0.992862 -97.04 0.992862 -97.04 0.118362 -97.93
9.00040000 0.118863 83.855 0.992815 -97.07 0.992815 -97.07 0.118758 -98.07
9.00050000 0.119261 83.945 0.992766 -97.10 0.992766 -97.10 0.119156 -98.22
9.00060000 0.119663 84.034 0.992717 -97.13 0.992717 -97.13 0.119557 -98.37
9.00070000 0.120067 84.123 0.992668 -97.15 0.992668 -97.15 0.119961 -98.51
9.00080000 0.120474 84.211 0.992618 -97.18 0.992618 -97.18 0.120368 -98.66
9.00090000 0.120884 84.300 0.992568 -97.21 0.992568 -97.21 0.120778 -98.80
9.00100000 0.121297 84.388 0.992517 -97.24 0.992517 -97.24 0.121190 -98.95
9.00110000 0.121713 84.476 0.992465 -97.27 0.992465 -97.27 0.121606 -99.10
9.00120000 0.122132 84.563 0.992413 -97.30 0.992413 -97.30 0.122025 -99.24
9.00130000 0.122554 84.651 0.992361 -97.33 0.992361 -97.33 0.122446 -99.39
9.00140000 0.122979 84.738 0.992307 -97.36 0.992307 -97.36 0.122871 -99.53
9.00150000 0.123407 84.825 0.992254 -97.39 0.992254 -97.39 0.123299 -99.68
9.00160000 0.123838 84.911 0.992199 -97.42 0.992199 -97.42 0.123730 -99.83
9.00170000 0.124273 84.997 0.992144 -97.45 0.992144 -97.45 0.124164 -99.97
9.00180000 0.124710 85.083 0.992089 -97.48 0.992089 -97.48 0.124602 -100.1
9.00190000 0.125151 85.169 0.992033 -97.51 0.992033 -97.51 0.125042 -100.3
9.00200000 0.125595 85.254 0.991976 -97.54 0.991976 -97.54 0.125486 -100.4
9.00210000 0.126042 85.340 0.991919 -97.57 0.991919 -97.57 0.125933 -100.6
9.00220000 0.126493 85.424 0.991861 -97.60 0.991861 -97.60 0.126383 -100.7
9.00230000 0.126947 85.509 0.991802 -97.63 0.991802 -97.63 0.126837 -100.9
9.00240000 0.127404 85.593 0.991743 -97.66 0.991743 -97.66 0.127293 -101.0
9.00250000 0.127865 85.677 0.991683 -97.69 0.991683 -97.69 0.127754 -101.2
9.00260000 0.128329 85.761 0.991622 -97.72 0.991622 -97.72 0.128217 -101.3
9.00270000 0.128796 85.844 0.991561 -97.76 0.991561 -97.76 0.128685 -101.4
9.00280000 0.129267 85.927 0.991499 -97.79 0.991499 -97.79 0.129155 -101.6
9.00290000 0.129741 86.010 0.991436 -97.82 0.991436 -97.82 0.129629 -101.7
9.00300000 0.130219 86.093 0.991373 -97.85 0.991373 -97.85 0.130107 -101.9
9.00310000 0.130701 86.175 0.991309 -97.89 0.991309 -97.89 0.130588 -102.0
9.00320000 0.131186 86.257 0.991244 -97.92 0.991244 -97.92 0.131073 -102.2
9.00330000 0.131674 86.338 0.991179 -97.95 0.991179 -97.95 0.131561 -102.3
9.00340000 0.132167 86.420 0.991112 -97.99 0.991112 -97.99 0.132053 -102.5
9.00350000 0.132663 86.501 0.991045 -98.02 0.991045 -98.02 0.132549 -102.6
9.00360000 0.133163 86.581 0.990977 -98.05 0.990977 -98.05 0.133048 -102.8
9.00370000 0.133666 86.661 0.990909 -98.09 0.990909 -98.09 0.133552 -102.9
9.00380000 0.134174 86.741 0.990840 -98.12 0.990840 -98.12 0.134059 -103.1
9.00390000 0.134685 86.821 0.990770 -98.16 0.990770 -98.16 0.134570 -103.2
9.00400000 0.135200 86.900 0.990699 -98.19 0.990699 -98.19 0.135084 -103.4
9.00410000 0.135719 86.979 0.990627 -98.22 0.990627 -98.22 0.135603 -103.5
9.00420000 0.136242 87.058 0.990554 -98.26 0.990554 -98.26 0.136126 -103.7
9.00430000 0.136769 87.136 0.990481 -98.30 0.990481 -98.30 0.136652 -103.8
9.00440000 0.137300 87.214 0.990407 -98.33 0.990407 -98.33 0.137183 -104.0
9.00450000 0.137835 87.291 0.990332 -98.37 0.990332 -98.37 0.137718 -104.1
9.00460000 0.138374 87.369 0.990256 -98.40 0.990256 -98.40 0.138256 -104.3
9.00470000 0.138917 87.446 0.990179 -98.44 0.990179 -98.44 0.138799 -104.4
9.00480000 0.139464 87.522 0.990101 -98.47 0.990101 -98.47 0.139346 -104.6
9.00490000 0.140016 87.598 0.990022 -98.51 0.990022 -98.51 0.139898 -104.7
9.00500000 0.140572 87.674 0.989943 -98.55 0.989943 -98.55 0.140453 -104.9
9.00510000 0.141132 87.749 0.989862 -98.59 0.989862 -98.59 0.141013 -105.0
9.00520000 0.141697 87.824 0.989780 -98.62 0.989780 -98.62 0.141578 -105.2
9.00530000 0.142266 87.899 0.989698 -98.66 0.989698 -98.66 0.142146 -105.3
9.00540000 0.142839 87.973 0.989615 -98.70 0.989615 -98.70 0.142719 -105.5
9.00550000 0.143417 88.047 0.989530 -98.74 0.989530 -98.74 0.143297 -105.6
9.00560000 0.144000 88.121 0.989445 -98.78 0.989445 -98.78 0.143879 -105.8
9.00570000 0.144587 88.194 0.989358 -98.81 0.989358 -98.81 0.144466 -105.9
9.00580000 0.145178 88.267 0.989270 -98.85 0.989270 -98.85 0.145057 -106.1
9.00590000 0.145774 88.339 0.989182 -98.89 0.989182 -98.89 0.145653 -106.2
9.00600000 0.146375 88.411 0.989092 -98.93 0.989092 -98.93 0.146253 -106.4
9.00610000 0.146981 88.483 0.989001 -98.97 0.989001 -98.97 0.146859 -106.5
9.00620000 0.147592 88.554 0.988910 -99.01 0.988910 -99.01 0.147469 -106.7
9.00630000 0.148207 88.624 0.988817 -99.05 0.988817 -99.05 0.148084 -106.8
9.00640000 0.148827 88.695 0.988722 -99.09 0.988722 -99.09 0.148704 -107.0
9.00650000 0.149453 88.765 0.988627 -99.13 0.988627 -99.13 0.149329 -107.1
9.00660000 0.150083 88.834 0.988531 -99.17 0.988531 -99.17 0.149959 -107.3
9.00670000 0.150718 88.903 0.988433 -99.22 0.988433 -99.22 0.150594 -107.4
9.00680000 0.151358 88.972 0.988334 -99.26 0.988334 -99.26 0.151234 -107.6
9.00690000 0.152004 89.040 0.988234 -99.30 0.988234 -99.30 0.151879 -107.7
9.00700000 0.152655 89.108 0.988133 -99.34 0.988133 -99.34 0.152529 -107.9
9.00710000 0.153311 89.175 0.988030 -99.39 0.988030 -99.39 0.153185 -108.1
9.00720000 0.153972 89.242 0.987926 -99.43 0.987926 -99.43 0.153846 -108.2
9.00730000 0.154639 89.309 0.987821 -99.47 0.987821 -99.47 0.154512 -108.4
9.00740000 0.155311 89.375 0.987714 -99.52 0.987714 -99.52 0.155184 -108.5
9.00750000 0.155989 89.440 0.987606 -99.56 0.987606 -99.56 0.155861 -108.7
9.00760000 0.156672 89.505 0.987497 -99.60 0.987497 -99.60 0.156544 -108.8
9.00770000 0.157361 89.570 0.987386 -99.65 0.987386 -99.65 0.157233 -109.0
9.00780000 0.158056 89.634 0.987274 -99.69 0.987274 -99.69 0.157927 -109.1
9.00790000 0.158756 89.698 0.987161 -99.74 0.987161 -99.74 0.158627 -109.3
9.00800000 0.159462 89.761 0.987046 -99.78 0.987046 -99.78 0.159332 -109.4
9.00810000 0.160174 89.824 0.986929 -99.83 0.986929 -99.83 0.160044 -109.6
9.00820000 0.160892 89.886 0.986811 -99.88 0.986811 -99.88 0.160761 -109.7
9.00830000 0.161616 89.948 0.986692 -99.92 0.986692 -99.92 0.161485 -109.9
9.00840000 0.162345 90.009 0.986571 -99.97 0.986571 -99.97 0.162214 -110.1
9.00850000 0.163081 90.070 0.986448 -100.0 0.986448 -100.0 0.162950 -110.2
9.00860000 0.163824 90.130 0.986324 -100.1 0.986324 -100.1 0.163692 -110.4
9.00870000 0.164572 90.190 0.986198 -100.1 0.986198 -100.1 0.164440 -110.5
9.00880000 0.165327 90.249 0.986071 -100.2 0.986071 -100.2 0.165194 -110.7
9.00890000 0.166088 90.308 0.985941 -100.2 0.985941 -100.2 0.165955 -110.8
9.00900000 0.166856 90.366 0.985811 -100.3 0.985811 -100.3 0.166722 -111.0
9.00910000 0.167630 90.424 0.985678 -100.3 0.985678 -100.3 0.167496 -111.2
9.00920000 0.168411 90.481 0.985543 -100.4 0.985543 -100.4 0.168276 -111.3
9.00930000 0.169198 90.538 0.985407 -100.4 0.985407 -100.4 0.169063 -111.5
9.00940000 0.169992 90.594 0.985269 -100.5 0.985269 -100.5 0.169857 -111.6
9.00950000 0.170793 90.649 0.985129 -100.5 0.985129 -100.5 0.170658 -111.8
9.00960000 0.171601 90.704 0.984987 -100.6 0.984987 -100.6 0.171465 -111.9
9.00970000 0.172416 90.759 0.984844 -100.6 0.984844 -100.6 0.172280 -112.1
9.00980000 0.173238 90.813 0.984698 -100.7 0.984698 -100.7 0.173101 -112.3
9.00990000 0.174068 90.866 0.984550 -100.7 0.984550 -100.7 0.173930 -112.4
9.01000000 0.174904 90.919 0.984401 -100.8 0.984401 -100.8 0.174766 -112.6
9.01010000 0.175748 90.971 0.984249 -100.8 0.984249 -100.8 0.175609 -112.7
9.01020000 0.176599 91.023 0.984095 -100.9 0.984095 -100.9 0.176460 -112.9
9.01030000 0.177458 91.074 0.983939 -100.9 0.983939 -100.9 0.177318 -113.1
9.01040000 0.178324 91.124 0.983781 -101.0 0.983781 -101.0 0.178184 -113.2
9.01050000 0.179198 91.174 0.983620 -101.0 0.983620 -101.0 0.179057 -113.4
9.01060000 0.180079 91.223 0.983458 -101.1 0.983458 -101.1 0.179939 -113.5
9.01070000 0.180969 91.272 0.983293 -101.2 0.983293 -101.2 0.180828 -113.7
9.01080000 0.181867 91.320 0.983126 -101.2 0.983126 -101.2 0.181725 -113.9
9.01090000 0.182772 91.367 0.982956 -101.3 0.982956 -101.3 0.182630 -114.0
9.01100000 0.183686 91.414 0.982784 -101.3 0.982784 -101.3 0.183543 -114.2
9.01110000 0.184608 91.460 0.982610 -101.4 0.982610 -101.4 0.184464 -114.4
9.01120000 0.185538 91.505 0.982433 -101.4 0.982433 -101.4 0.185394 -114.5
9.01130000 0.186477 91.550 0.982253 -101.5 0.982253 -101.5 0.186332 -114.7
9.01140000 0.187424 91.594 0.982071 -101.6 0.982071 -101.6 0.187279 -114.8
9.01150000 0.188380 91.638 0.981886 -101.6 0.981886 -101.6 0.188235 -115.0
9.01160000 0.189344 91.680 0.981699 -101.7 0.981699 -101.7 0.189199 -115.2
9.01170000 0.190318 91.723 0.981509 -101.7 0.981509 -101.7 0.190172 -115.3
9.01180000 0.191300 91.764 0.981316 -101.8 0.981316 -101.8 0.191154 -115.5
9.01190000 0.192292 91.805 0.981120 -101.9 0.981120 -101.9 0.192145 -115.7
9.01200000 0.193293 91.845 0.980922 -101.9 0.980922 -101.9 0.193145 -115.8
9.01210000 0.194303 91.884 0.980720 -102.0 0.980720 -102.0 0.194154 -116.0
9.01220000 0.195322 91.923 0.980516 -102.1 0.980516 -102.1 0.195173 -116.2
9.01230000 0.196351 91.961 0.980308 -102.1 0.980308 -102.1 0.196202 -116.3
9.01240000 0.197390 91.998 0.980098 -102.2 0.980098 -102.2 0.197240 -116.5
9.01250000 0.198438 92.034 0.979884 -102.3 0.979884 -102.3 0.198288 -116.7
9.01260000 0.199497 92.070 0.979667 -102.3 0.979667 -102.3 0.199346 -116.8
9.01270000 0.200565 92.105 0.979447 -102.4 0.979447 -102.4 0.200414 -117.0
9.01280000 0.201644 92.139 0.979223 -102.5 0.979223 -102.5 0.201492 -117.2
9.01290000 0.202733 92.172 0.978996 -102.5 0.978996 -102.5 0.202580 -117.4
9.01300000 0.203832 92.205 0.978766 -102.6 0.978766 -102.6 0.203679 -117.5
9.01310000 0.204942 92.237 0.978532 -102.7 0.978532 -102.7 0.204788 -117.7
9.01320000 0.206062 92.268 0.978294 -102.7 0.978294 -102.7 0.205908 -117.9
9.01330000 0.207194 92.298 0.978053 -102.8 0.978053 -102.8 0.207039 -118.0
9.01340000 0.208336 92.328 0.977808 -102.9 0.977808 -102.9 0.208180 -118.2
9.01350000 0.209490 92.356 0.977559 -102.9 0.977559 -102.9 0.209333 -118.4
9.01360000 0.210655 92.384 0.977306 -103.0 0.977306 -103.0 0.210498 -118.6
9.01370000 0.211831 92.411 0.977050 -103.1 0.977050 -103.1 0.211673 -118.7
9.01380000 0.213019 92.437 0.976789 -103.2 0.976789 -103.2 0.212860 -118.9
9.01390000 0.214218 92.462 0.976524 -103.2 0.976524 -103.2 0.214059 -119.1
9.01400000 0.215430 92.486 0.976255 -103.3 0.976255 -103.3 0.215270 -119.3
9.01410000 0.216653 92.510 0.975982 -103.4 0.975982 -103.4 0.216493 -119.4
9.01420000 0.217889 92.532 0.975704 -103.5 0.975704 -103.5 0.217728 -119.6
9.01430000 0.219137 92.554 0.975422 -103.5 0.975422 -103.5 0.218975 -119.8
9.01440000 0.220397 92.575 0.975135 -103.6 0.975135 -103.6 0.220235 -120.0
9.01450000 0.221671 92.595 0.974844 -103.7 0.974844 -103.7 0.221508 -120.1
9.01460000 0.222957 92.613 0.974548 -103.8 0.974548 -103.8 0.222794 -120.3
9.01470000 0.224256 92.631 0.974247 -103.9 0.974247 -103.9 0.224092 -120.5
9.01480000 0.225569 92.648 0.973941 -103.9 0.973941 -103.9 0.225404 -120.7
9.01490000 0.226895 92.664 0.973630 -104.0 0.973630 -104.0 0.226729 -120.9
9.01500000 0.228234 92.679 0.973314 -104.1 0.973314 -104.1 0.228068 -121.0
9.01510000 0.229588 92.693 0.972993 -104.2 0.972993 -104.2 0.229421 -121.2
9.01520000 0.230955 92.706 0.972666 -104.3 0.972666 -104.3 0.230788 -121.4
9.01530000 0.232337 92.718 0.972334 -104.4 0.972334 -104.4 0.232168 -121.6
9.01540000 0.233733 92.729 0.971996 -104.4 0.971996 -104.4 0.233564 -121.8
9.01550000 0.235143 92.739 0.971653 -104.5 0.971653 -104.5 0.234974 -122.0
9.01560000 0.236569 92.748 0.971304 -104.6 0.971304 -104.6 0.236398 -122.2
9.01570000 0.238009 92.755 0.970949 -104.7 0.970949 -104.7 0.237838 -122.3
9.01580000 0.239465 92.762 0.970587 -104.8 0.970587 -104.8 0.239293 -122.5
9.01590000 0.240936 92.768 0.970220 -104.9 0.970220 -104.9 0.240763 -122.7
9.01600000 0.242423 92.772 0.969846 -105.0 0.969846 -105.0 0.242249 -122.9
9.01610000 0.243925 92.775 0.969466 -105.1 0.969466 -105.1 0.243751 -123.1
9.01620000 0.245444 92.777 0.969079 -105.2 0.969079 -105.2 0.245269 -123.3
9.01630000 0.246980 92.778 0.968685 -105.3 0.968685 -105.3 0.246804 -123.5
9.01640000 0.248531 92.778 0.968285 -105.4 0.968285 -105.4 0.248355 -123.7
9.01650000 0.250100 92.777 0.967877 -105.5 0.967877 -105.5 0.249923 -123.9
9.01660000 0.251686 92.774 0.967462 -105.6 0.967462 -105.6 0.251508 -124.1
9.01670000 0.253289 92.770 0.967040 -105.7 0.967040 -105.7 0.253110 -124.2
9.01680000 0.254910 92.765 0.966610 -105.8 0.966610 -105.8 0.254730 -124.4
9.01690000 0.256549 92.759 0.966172 -105.9 0.966172 -105.9 0.256368 -124.6
9.01700000 0.258206 92.751 0.965727 -106.0 0.965727 -106.0 0.258024 -124.8
9.01710000 0.259881 92.742 0.965273 -106.1 0.965273 -106.1 0.259699 -125.0
9.01720000 0.261575 92.732 0.964812 -106.2 0.964812 -106.2 0.261392 -125.2
9.01730000 0.263288 92.720 0.964341 -106.3 0.964341 -106.3 0.263104 -125.4
9.01740000 0.265021 92.707 0.963863 -106.4 0.963863 -106.4 0.264836 -125.6
9.01750000 0.266772 92.693 0.963375 -106.5 0.963375 -106.5 0.266587 -125.8
9.01760000 0.268544 92.677 0.962878 -106.6 0.962878 -106.6 0.268358 -126.0
9.01770000 0.270336 92.660 0.962372 -106.7 0.962372 -106.7 0.270149 -126.3
9.01780000 0.272149 92.641 0.961857 -106.8 0.961857 -106.8 0.271960 -126.5
9.01790000 0.273982 92.621 0.961331 -106.9 0.961331 -106.9 0.273793 -126.7
9.01800000 0.275836 92.599 0.960796 -107.1 0.960796 -107.1 0.275646 -126.9
9.01810000 0.277712 92.576 0.960251 -107.2 0.960251 -107.2 0.277521 -127.1
9.01820000 0.279610 92.552 0.959695 -107.3 0.959695 -107.3 0.279418 -127.3
9.01830000 0.281530 92.525 0.959129 -107.4 0.959129 -107.4 0.281337 -127.5
9.01840000 0.283472 92.498 0.958551 -107.5 0.958551 -107.5 0.283278 -127.7
9.01850000 0.285438 92.468 0.957963 -107.6 0.957963 -107.6 0.285243 -127.9
9.01860000 0.287426 92.437 0.957363 -107.8 0.957363 -107.8 0.287230 -128.2
9.01870000 0.289438 92.405 0.956751 -107.9 0.956751 -107.9 0.289241 -128.4
9.01880000 0.291474 92.370 0.956128 -108.0 0.956128 -108.0 0.291276 -128.6
9.01890000 0.293534 92.334 0.955492 -108.1 0.955492 -108.1 0.293336 -128.8
9.01893482 0.294258 92.321 0.955267 -108.2 0.955267 -108.2 0.294058 -128.9
9.01900000 0.295620 92.296 0.954843 -108.3 0.954843 -108.3 0.295420 -129.0
9.01910000 0.297730 92.257 0.954181 -108.4 0.954181 -108.4 0.297529 -129.3