! Sonnet Data File
! From: emgraph Version : 16.52
! From Project: Resonator2_extremeCap
! Data is De-embedded 
! Data File Written: 10/10/2017 20:29:21
!< HDATE 10/09/2017 23:04:37
!< MDATE 10/09/2017 23:04:37
!< PARAMS
!< Pwid1 = 2000.0
!< Pwid2 = 2000.0
!< Air_gap = 18.0
!< Width = 30.0
!< Gap = 13.0
!< END PARAMS
# GHZ S MA R 51.80000
8.98000000 0.071608 67.213 0.997394 -93.31 0.997394 -93.31 0.071546 -73.87
!< P1 F=8.98 Eeff=(6.44501582 -2.9712e-5) Z0=(50.6182877 1.16785e-4) R=0.0 C=0.0 
!< P2 F=8.98 Eeff=(6.44501582 -2.9712e-5) Z0=(50.6182877 1.16785e-4) R=0.0 C=0.0 
8.98010000 0.071722 67.312 0.997386 -93.32 0.997386 -93.32 0.071660 -73.99
8.98020000 0.071837 67.411 0.997377 -93.33 0.997377 -93.33 0.071775 -74.11
8.98030000 0.071952 67.511 0.997369 -93.34 0.997369 -93.34 0.071890 -74.24
8.98040000 0.072068 67.610 0.997360 -93.36 0.997360 -93.36 0.072006 -74.36
8.98050000 0.072185 67.709 0.997352 -93.37 0.997352 -93.37 0.072123 -74.48
8.98060000 0.072303 67.809 0.997343 -93.38 0.997343 -93.38 0.072240 -74.61
8.98070000 0.072421 67.908 0.997334 -93.39 0.997334 -93.39 0.072358 -74.73
8.98080000 0.072540 68.008 0.997325 -93.40 0.997325 -93.40 0.072477 -74.85
8.98090000 0.072660 68.108 0.997317 -93.41 0.997317 -93.41 0.072597 -74.97
8.98100000 0.072780 68.207 0.997308 -93.43 0.997308 -93.43 0.072717 -75.10
8.98110000 0.072901 68.307 0.997299 -93.44 0.997299 -93.44 0.072838 -75.22
8.98120000 0.073023 68.406 0.997290 -93.45 0.997290 -93.45 0.072960 -75.34
8.98130000 0.073146 68.506 0.997280 -93.46 0.997280 -93.46 0.073083 -75.47
8.98140000 0.073270 68.606 0.997271 -93.47 0.997271 -93.47 0.073206 -75.59
8.98150000 0.073394 68.705 0.997262 -93.49 0.997262 -93.49 0.073330 -75.72
8.98160000 0.073519 68.805 0.997253 -93.50 0.997253 -93.50 0.073455 -75.84
8.98170000 0.073644 68.905 0.997243 -93.51 0.997243 -93.51 0.073581 -75.96
8.98180000 0.073771 69.005 0.997234 -93.52 0.997234 -93.52 0.073707 -76.09
8.98190000 0.073898 69.104 0.997224 -93.53 0.997224 -93.53 0.073834 -76.21
8.98200000 0.074026 69.204 0.997214 -93.55 0.997214 -93.55 0.073962 -76.34
8.98210000 0.074155 69.304 0.997205 -93.56 0.997205 -93.56 0.074091 -76.46
8.98220000 0.074285 69.404 0.997195 -93.57 0.997195 -93.57 0.074220 -76.59
8.98230000 0.074415 69.504 0.997185 -93.58 0.997185 -93.58 0.074351 -76.71
8.98240000 0.074547 69.603 0.997175 -93.59 0.997175 -93.59 0.074482 -76.83
8.98250000 0.074679 69.703 0.997165 -93.61 0.997165 -93.61 0.074614 -76.96
8.98260000 0.074811 69.803 0.997155 -93.62 0.997155 -93.62 0.074746 -77.08
8.98270000 0.074945 69.903 0.997145 -93.63 0.997145 -93.63 0.074880 -77.21
8.98280000 0.075080 70.003 0.997135 -93.64 0.997135 -93.64 0.075014 -77.33
8.98290000 0.075215 70.103 0.997124 -93.66 0.997124 -93.66 0.075149 -77.46
8.98300000 0.075351 70.203 0.997114 -93.67 0.997114 -93.67 0.075285 -77.58
8.98310000 0.075488 70.302 0.997103 -93.68 0.997103 -93.68 0.075422 -77.71
8.98320000 0.075626 70.402 0.997093 -93.70 0.997093 -93.70 0.075560 -77.84
8.98330000 0.075765 70.502 0.997082 -93.71 0.997082 -93.71 0.075698 -77.96
8.98340000 0.075904 70.602 0.997071 -93.72 0.997071 -93.72 0.075838 -78.09
8.98350000 0.076045 70.702 0.997060 -93.73 0.997060 -93.73 0.075978 -78.21
8.98360000 0.076186 70.802 0.997049 -93.75 0.997049 -93.75 0.076119 -78.34
8.98370000 0.076328 70.902 0.997038 -93.76 0.997038 -93.76 0.076261 -78.46
8.98380000 0.076471 71.002 0.997027 -93.77 0.997027 -93.77 0.076404 -78.59
8.98390000 0.076615 71.101 0.997016 -93.79 0.997016 -93.79 0.076548 -78.72
8.98400000 0.076759 71.201 0.997005 -93.80 0.997005 -93.80 0.076692 -78.84
8.98410000 0.076905 71.301 0.996993 -93.81 0.996993 -93.81 0.076838 -78.97
8.98420000 0.077052 71.401 0.996982 -93.83 0.996982 -93.83 0.076984 -79.10
8.98430000 0.077199 71.501 0.996970 -93.84 0.996970 -93.84 0.077132 -79.22
8.98440000 0.077347 71.601 0.996958 -93.85 0.996958 -93.85 0.077280 -79.35
8.98450000 0.077497 71.700 0.996947 -93.87 0.996947 -93.87 0.077429 -79.48
8.98460000 0.077647 71.800 0.996935 -93.88 0.996935 -93.88 0.077579 -79.60
8.98470000 0.077798 71.900 0.996923 -93.89 0.996923 -93.89 0.077730 -79.73
8.98480000 0.077950 72.000 0.996911 -93.91 0.996911 -93.91 0.077882 -79.86
8.98490000 0.078103 72.099 0.996899 -93.92 0.996899 -93.92 0.078035 -79.98
8.98500000 0.078257 72.199 0.996886 -93.93 0.996886 -93.93 0.078188 -80.11
8.98510000 0.078412 72.299 0.996874 -93.95 0.996874 -93.95 0.078343 -80.24
8.98520000 0.078568 72.398 0.996862 -93.96 0.996862 -93.96 0.078499 -80.37
8.98530000 0.078724 72.498 0.996849 -93.97 0.996849 -93.97 0.078655 -80.49
8.98540000 0.078882 72.598 0.996836 -93.99 0.996836 -93.99 0.078813 -80.62
8.98550000 0.079041 72.697 0.996824 -94.00 0.996824 -94.00 0.078972 -80.75
8.98560000 0.079201 72.797 0.996811 -94.02 0.996811 -94.02 0.079131 -80.88
8.98570000 0.079361 72.896 0.996798 -94.03 0.996798 -94.03 0.079292 -81.00
8.98580000 0.079523 72.996 0.996785 -94.04 0.996785 -94.04 0.079453 -81.13
8.98590000 0.079686 73.095 0.996772 -94.06 0.996772 -94.06 0.079616 -81.26
8.98600000 0.079849 73.195 0.996758 -94.07 0.996758 -94.07 0.079779 -81.39
8.98610000 0.080014 73.294 0.996745 -94.09 0.996745 -94.09 0.079944 -81.51
8.98620000 0.080180 73.394 0.996731 -94.10 0.996731 -94.10 0.080109 -81.64
8.98630000 0.080346 73.493 0.996718 -94.11 0.996718 -94.11 0.080276 -81.77
8.98640000 0.080514 73.592 0.996704 -94.13 0.996704 -94.13 0.080444 -81.90
8.98650000 0.080683 73.692 0.996690 -94.14 0.996690 -94.14 0.080612 -82.03
8.98660000 0.080853 73.791 0.996676 -94.16 0.996676 -94.16 0.080782 -82.16
8.98670000 0.081024 73.890 0.996662 -94.17 0.996662 -94.17 0.080953 -82.29
8.98680000 0.081196 73.989 0.996648 -94.19 0.996648 -94.19 0.081124 -82.41
8.98690000 0.081369 74.088 0.996634 -94.20 0.996634 -94.20 0.081297 -82.54
8.98700000 0.081543 74.187 0.996619 -94.22 0.996619 -94.22 0.081471 -82.67
8.98710000 0.081718 74.287 0.996605 -94.23 0.996605 -94.23 0.081646 -82.80
8.98720000 0.081894 74.385 0.996590 -94.25 0.996590 -94.25 0.081822 -82.93
8.98730000 0.082072 74.484 0.996575 -94.26 0.996575 -94.26 0.082000 -83.06
8.98740000 0.082250 74.583 0.996560 -94.28 0.996560 -94.28 0.082178 -83.19
8.98750000 0.082430 74.682 0.996545 -94.29 0.996545 -94.29 0.082357 -83.32
8.98760000 0.082611 74.781 0.996530 -94.31 0.996530 -94.31 0.082538 -83.45
8.98770000 0.082792 74.880 0.996515 -94.32 0.996515 -94.32 0.082720 -83.57
8.98780000 0.082975 74.978 0.996499 -94.34 0.996499 -94.34 0.082902 -83.70
8.98790000 0.083159 75.077 0.996484 -94.35 0.996484 -94.35 0.083086 -83.83
8.98800000 0.083345 75.176 0.996468 -94.37 0.996468 -94.37 0.083271 -83.96
8.98810000 0.083531 75.274 0.996452 -94.38 0.996452 -94.38 0.083458 -84.09
8.98820000 0.083719 75.372 0.996436 -94.40 0.996436 -94.40 0.083645 -84.22
8.98830000 0.083907 75.471 0.996420 -94.41 0.996420 -94.41 0.083834 -84.35
8.98840000 0.084097 75.569 0.996404 -94.43 0.996404 -94.43 0.084023 -84.48
8.98850000 0.084288 75.667 0.996388 -94.45 0.996388 -94.45 0.084214 -84.61
8.98860000 0.084481 75.766 0.996371 -94.46 0.996371 -94.46 0.084406 -84.74
8.98870000 0.084674 75.864 0.996354 -94.48 0.996354 -94.48 0.084600 -84.87
8.98880000 0.084869 75.962 0.996338 -94.49 0.996338 -94.49 0.084794 -85.00
8.98890000 0.085065 76.060 0.996321 -94.51 0.996321 -94.51 0.084990 -85.13
8.98900000 0.085262 76.158 0.996304 -94.52 0.996304 -94.52 0.085187 -85.26
8.98910000 0.085460 76.256 0.996286 -94.54 0.996286 -94.54 0.085385 -85.39
8.98920000 0.085660 76.353 0.996269 -94.56 0.996269 -94.56 0.085585 -85.52
8.98930000 0.085861 76.451 0.996251 -94.57 0.996251 -94.57 0.085785 -85.65
8.98940000 0.086063 76.549 0.996234 -94.59 0.996234 -94.59 0.085987 -85.78
8.98950000 0.086266 76.646 0.996216 -94.61 0.996216 -94.61 0.086190 -85.91
8.98960000 0.086471 76.744 0.996198 -94.62 0.996198 -94.62 0.086395 -86.04
8.98970000 0.086677 76.841 0.996180 -94.64 0.996180 -94.64 0.086601 -86.17
8.98980000 0.086884 76.938 0.996161 -94.66 0.996161 -94.66 0.086808 -86.31
8.98990000 0.087092 77.036 0.996143 -94.67 0.996143 -94.67 0.087016 -86.44
8.99000000 0.087302 77.133 0.996124 -94.69 0.996124 -94.69 0.087226 -86.57
8.99010000 0.087513 77.230 0.996106 -94.71 0.996106 -94.71 0.087437 -86.70
8.99020000 0.087726 77.327 0.996087 -94.72 0.996087 -94.72 0.087649 -86.83
8.99030000 0.087940 77.424 0.996068 -94.74 0.996068 -94.74 0.087863 -86.96
8.99040000 0.088155 77.520 0.996048 -94.76 0.996048 -94.76 0.088078 -87.09
8.99050000 0.088372 77.617 0.996029 -94.77 0.996029 -94.77 0.088294 -87.22
8.99060000 0.088590 77.714 0.996009 -94.79 0.996009 -94.79 0.088512 -87.35
8.99070000 0.088809 77.810 0.995989 -94.81 0.995989 -94.81 0.088731 -87.48
8.99080000 0.089030 77.907 0.995969 -94.82 0.995969 -94.82 0.088952 -87.62
8.99090000 0.089252 78.003 0.995949 -94.84 0.995949 -94.84 0.089174 -87.75
8.99100000 0.089475 78.099 0.995929 -94.86 0.995929 -94.86 0.089397 -87.88
8.99110000 0.089700 78.195 0.995908 -94.88 0.995908 -94.88 0.089622 -88.01
8.99120000 0.089926 78.291 0.995888 -94.89 0.995888 -94.89 0.089848 -88.14
8.99130000 0.090154 78.387 0.995867 -94.91 0.995867 -94.91 0.090075 -88.27
8.99140000 0.090383 78.483 0.995846 -94.93 0.995846 -94.93 0.090305 -88.40
8.99150000 0.090614 78.579 0.995825 -94.95 0.995825 -94.95 0.090535 -88.54
8.99160000 0.090846 78.674 0.995803 -94.97 0.995803 -94.97 0.090767 -88.67
8.99170000 0.091080 78.770 0.995782 -94.98 0.995782 -94.98 0.091000 -88.80
8.99180000 0.091315 78.865 0.995760 -95.00 0.995760 -95.00 0.091235 -88.93
8.99190000 0.091552 78.960 0.995738 -95.02 0.995738 -95.02 0.091472 -89.06
8.99200000 0.091790 79.055 0.995715 -95.04 0.995715 -95.04 0.091710 -89.20
8.99210000 0.092029 79.150 0.995693 -95.06 0.995693 -95.06 0.091949 -89.33
8.99220000 0.092271 79.245 0.995670 -95.08 0.995670 -95.08 0.092190 -89.46
8.99230000 0.092513 79.340 0.995648 -95.09 0.995648 -95.09 0.092433 -89.59
8.99240000 0.092758 79.435 0.995625 -95.11 0.995625 -95.11 0.092677 -89.72
8.99250000 0.093003 79.529 0.995601 -95.13 0.995601 -95.13 0.092923 -89.86
8.99260000 0.093251 79.624 0.995578 -95.15 0.995578 -95.15 0.093170 -89.99
8.99270000 0.093500 79.718 0.995554 -95.17 0.995554 -95.17 0.093419 -90.12
8.99280000 0.093751 79.812 0.995530 -95.19 0.995530 -95.19 0.093669 -90.25
8.99290000 0.094003 79.906 0.995506 -95.21 0.995506 -95.21 0.093921 -90.39
8.99300000 0.094257 80.000 0.995482 -95.23 0.995482 -95.23 0.094175 -90.52
8.99310000 0.094512 80.094 0.995457 -95.25 0.995457 -95.25 0.094430 -90.65
8.99320000 0.094769 80.188 0.995433 -95.27 0.995433 -95.27 0.094687 -90.78
8.99330000 0.095028 80.281 0.995408 -95.28 0.995408 -95.28 0.094946 -90.92
8.99340000 0.095289 80.375 0.995382 -95.30 0.995382 -95.30 0.095206 -91.05
8.99350000 0.095551 80.468 0.995357 -95.32 0.995357 -95.32 0.095468 -91.18
8.99360000 0.095815 80.561 0.995331 -95.34 0.995331 -95.34 0.095732 -91.31
8.99370000 0.096080 80.654 0.995305 -95.36 0.995305 -95.36 0.095997 -91.45
8.99380000 0.096347 80.747 0.995279 -95.38 0.995279 -95.38 0.096264 -91.58
8.99390000 0.096616 80.840 0.995253 -95.40 0.995253 -95.40 0.096533 -91.71
8.99400000 0.096887 80.932 0.995226 -95.42 0.995226 -95.42 0.096804 -91.85
8.99410000 0.097160 81.024 0.995199 -95.44 0.995199 -95.44 0.097076 -91.98
8.99420000 0.097434 81.117 0.995172 -95.46 0.995172 -95.46 0.097350 -92.11
8.99430000 0.097710 81.209 0.995145 -95.48 0.995145 -95.48 0.097626 -92.25
8.99440000 0.097988 81.301 0.995117 -95.51 0.995117 -95.51 0.097904 -92.38
8.99450000 0.098268 81.393 0.995089 -95.53 0.995089 -95.53 0.098183 -92.51
8.99460000 0.098549 81.484 0.995061 -95.55 0.995061 -95.55 0.098465 -92.65
8.99470000 0.098833 81.576 0.995032 -95.57 0.995032 -95.57 0.098748 -92.78
8.99480000 0.099118 81.667 0.995004 -95.59 0.995004 -95.59 0.099033 -92.91
8.99490000 0.099405 81.758 0.994975 -95.61 0.994975 -95.61 0.099320 -93.05
8.99500000 0.099694 81.849 0.994945 -95.63 0.994945 -95.63 0.099609 -93.18
8.99510000 0.099985 81.940 0.994916 -95.65 0.994916 -95.65 0.099899 -93.31
8.99520000 0.100278 82.031 0.994886 -95.67 0.994886 -95.67 0.100192 -93.45
8.99530000 0.100573 82.121 0.994856 -95.69 0.994856 -95.69 0.100486 -93.58
8.99540000 0.100869 82.212 0.994825 -95.72 0.994825 -95.72 0.100783 -93.71
8.99550000 0.101168 82.302 0.994795 -95.74 0.994795 -95.74 0.101081 -93.85
8.99560000 0.101469 82.392 0.994764 -95.76 0.994764 -95.76 0.101382 -93.98
8.99570000 0.101771 82.482 0.994732 -95.78 0.994732 -95.78 0.101684 -94.12
8.99580000 0.102076 82.571 0.994701 -95.80 0.994701 -95.80 0.101989 -94.25
8.99590000 0.102382 82.661 0.994669 -95.83 0.994669 -95.83 0.102295 -94.38
8.99600000 0.102691 82.750 0.994637 -95.85 0.994637 -95.85 0.102604 -94.52
8.99610000 0.103002 82.839 0.994604 -95.87 0.994604 -95.87 0.102914 -94.65
8.99620000 0.103315 82.928 0.994571 -95.89 0.994571 -95.89 0.103227 -94.79
8.99630000 0.103630 83.017 0.994538 -95.92 0.994538 -95.92 0.103541 -94.92
8.99640000 0.103947 83.106 0.994505 -95.94 0.994505 -95.94 0.103858 -95.05
8.99650000 0.104266 83.194 0.994471 -95.96 0.994471 -95.96 0.104177 -95.19
8.99660000 0.104587 83.282 0.994437 -95.98 0.994437 -95.98 0.104498 -95.32
8.99670000 0.104910 83.370 0.994402 -96.01 0.994402 -96.01 0.104821 -95.46
8.99680000 0.105236 83.458 0.994367 -96.03 0.994367 -96.03 0.105147 -95.59
8.99690000 0.105564 83.546 0.994332 -96.05 0.994332 -96.05 0.105474 -95.73
8.99700000 0.105894 83.633 0.994297 -96.08 0.994297 -96.08 0.105804 -95.86
8.99710000 0.106226 83.721 0.994261 -96.10 0.994261 -96.10 0.106136 -96.00
8.99720000 0.106560 83.808 0.994225 -96.12 0.994225 -96.12 0.106470 -96.13
8.99730000 0.106897 83.894 0.994188 -96.15 0.994188 -96.15 0.106807 -96.27
8.99740000 0.107236 83.981 0.994151 -96.17 0.994151 -96.17 0.107146 -96.40
8.99750000 0.107577 84.068 0.994114 -96.20 0.994114 -96.20 0.107487 -96.54
8.99760000 0.107921 84.154 0.994076 -96.22 0.994076 -96.22 0.107830 -96.67
8.99770000 0.108267 84.240 0.994038 -96.24 0.994038 -96.24 0.108176 -96.81
8.99780000 0.108615 84.326 0.994000 -96.27 0.994000 -96.27 0.108524 -96.94
8.99790000 0.108966 84.411 0.993961 -96.29 0.993961 -96.29 0.108874 -97.08
8.99800000 0.109319 84.497 0.993921 -96.32 0.993921 -96.32 0.109227 -97.21
8.99810000 0.109674 84.582 0.993882 -96.34 0.993882 -96.34 0.109582 -97.35
8.99820000 0.110032 84.667 0.993842 -96.37 0.993842 -96.37 0.109940 -97.48
8.99830000 0.110393 84.751 0.993801 -96.39 0.993801 -96.39 0.110300 -97.62
8.99840000 0.110755 84.836 0.993760 -96.42 0.993760 -96.42 0.110663 -97.75
8.99850000 0.111121 84.920 0.993719 -96.44 0.993719 -96.44 0.111028 -97.89
8.99860000 0.111489 85.004 0.993678 -96.47 0.993678 -96.47 0.111395 -98.02
8.99870000 0.111859 85.088 0.993635 -96.49 0.993635 -96.49 0.111766 -98.16
8.99880000 0.112232 85.172 0.993593 -96.52 0.993593 -96.52 0.112138 -98.29
8.99890000 0.112607 85.255 0.993550 -96.55 0.993550 -96.55 0.112514 -98.43
8.99900000 0.112986 85.338 0.993506 -96.57 0.993506 -96.57 0.112892 -98.56
8.99910000 0.113366 85.421 0.993463 -96.60 0.993463 -96.60 0.113272 -98.70
8.99920000 0.113750 85.504 0.993418 -96.63 0.993418 -96.63 0.113655 -98.84
8.99930000 0.114136 85.586 0.993373 -96.65 0.993373 -96.65 0.114041 -98.97
8.99940000 0.114524 85.669 0.993328 -96.68 0.993328 -96.68 0.114430 -99.11
8.99950000 0.114916 85.751 0.993282 -96.71 0.993282 -96.71 0.114821 -99.24
8.99960000 0.115310 85.832 0.993236 -96.73 0.993236 -96.73 0.115215 -99.38
8.99970000 0.115707 85.914 0.993189 -96.76 0.993189 -96.76 0.115611 -99.52
8.99980000 0.116107 85.995 0.993142 -96.79 0.993142 -96.79 0.116011 -99.65
8.99990000 0.116509 86.076 0.993095 -96.81 0.993095 -96.81 0.116413 -99.79
9.00000000 0.116915 86.157 0.993046 -96.84 0.993046 -96.84 0.116818 -99.93
9.00010000 0.117323 86.237 0.992998 -96.87 0.992998 -96.87 0.117226 -100.1
9.00020000 0.117734 86.317 0.992948 -96.90 0.992948 -96.90 0.117637 -100.2
9.00030000 0.118148 86.397 0.992899 -96.93 0.992899 -96.93 0.118051 -100.3
9.00040000 0.118565 86.477 0.992848 -96.95 0.992848 -96.95 0.118468 -100.5
9.00050000 0.118985 86.556 0.992798 -96.98 0.992798 -96.98 0.118888 -100.6
9.00060000 0.119408 86.636 0.992746 -97.01 0.992746 -97.01 0.119310 -100.7
9.00070000 0.119834 86.714 0.992694 -97.04 0.992694 -97.04 0.119736 -100.9
9.00080000 0.120263 86.793 0.992642 -97.07 0.992642 -97.07 0.120165 -101.0
9.00090000 0.120695 86.871 0.992589 -97.10 0.992589 -97.10 0.120596 -101.2
9.00100000 0.121130 86.949 0.992535 -97.13 0.992535 -97.13 0.121031 -101.3
9.00110000 0.121569 87.027 0.992481 -97.16 0.992481 -97.16 0.121469 -101.4
9.00120000 0.122010 87.105 0.992426 -97.19 0.992426 -97.19 0.121911 -101.6
9.00130000 0.122455 87.182 0.992371 -97.22 0.992371 -97.22 0.122355 -101.7
9.00140000 0.122902 87.259 0.992315 -97.25 0.992315 -97.25 0.122802 -101.8
9.00150000 0.123353 87.336 0.992258 -97.28 0.992258 -97.28 0.123253 -102.0
9.00160000 0.123808 87.412 0.992201 -97.31 0.992201 -97.31 0.123707 -102.1
9.00170000 0.124265 87.488 0.992143 -97.34 0.992143 -97.34 0.124165 -102.3
9.00180000 0.124726 87.564 0.992085 -97.37 0.992085 -97.37 0.124625 -102.4
9.00190000 0.125191 87.639 0.992025 -97.40 0.992025 -97.40 0.125089 -102.5
9.00200000 0.125658 87.714 0.991966 -97.43 0.991966 -97.43 0.125557 -102.7
9.00210000 0.126130 87.789 0.991905 -97.46 0.991905 -97.46 0.126028 -102.8
9.00220000 0.126604 87.864 0.991844 -97.50 0.991844 -97.50 0.126502 -102.9
9.00230000 0.127082 87.938 0.991782 -97.53 0.991782 -97.53 0.126980 -103.1
9.00240000 0.127564 88.012 0.991720 -97.56 0.991720 -97.56 0.127461 -103.2
9.00250000 0.128049 88.086 0.991656 -97.59 0.991656 -97.59 0.127946 -103.4
9.00260000 0.128538 88.159 0.991592 -97.62 0.991592 -97.62 0.128435 -103.5
9.00270000 0.129030 88.232 0.991528 -97.66 0.991528 -97.66 0.128927 -103.6
9.00280000 0.129526 88.305 0.991462 -97.69 0.991462 -97.69 0.129422 -103.8
9.00290000 0.130026 88.377 0.991396 -97.72 0.991396 -97.72 0.129922 -103.9
9.00300000 0.130529 88.449 0.991329 -97.76 0.991329 -97.76 0.130425 -104.1
9.00310000 0.131036 88.521 0.991262 -97.79 0.991262 -97.79 0.130932 -104.2
9.00320000 0.131547 88.592 0.991193 -97.82 0.991193 -97.82 0.131443 -104.3
9.00330000 0.132062 88.664 0.991124 -97.86 0.991124 -97.86 0.131957 -104.5
9.00340000 0.132581 88.734 0.991054 -97.89 0.991054 -97.89 0.132475 -104.6
9.00350000 0.133103 88.805 0.990983 -97.93 0.990983 -97.93 0.132998 -104.8
9.00360000 0.133630 88.875 0.990912 -97.96 0.990912 -97.96 0.133524 -104.9
9.00370000 0.134160 88.944 0.990839 -97.99 0.990839 -97.99 0.134054 -105.0
9.00380000 0.134695 89.014 0.990766 -98.03 0.990766 -98.03 0.134589 -105.2
9.00390000 0.135234 89.083 0.990692 -98.06 0.990692 -98.06 0.135127 -105.3
9.00400000 0.135776 89.151 0.990617 -98.10 0.990617 -98.10 0.135669 -105.4
9.00410000 0.136323 89.220 0.990541 -98.14 0.990541 -98.14 0.136216 -105.6
9.00420000 0.136874 89.288 0.990464 -98.17 0.990464 -98.17 0.136767 -105.7
9.00430000 0.137430 89.355 0.990386 -98.21 0.990386 -98.21 0.137322 -105.9
9.00440000 0.137989 89.423 0.990307 -98.24 0.990307 -98.24 0.137881 -106.0
9.00450000 0.138553 89.489 0.990228 -98.28 0.990228 -98.28 0.138444 -106.2
9.00460000 0.139121 89.556 0.990147 -98.32 0.990147 -98.32 0.139012 -106.3
9.00470000 0.139694 89.622 0.990066 -98.36 0.990066 -98.36 0.139584 -106.4
9.00480000 0.140271 89.688 0.989983 -98.39 0.989983 -98.39 0.140161 -106.6
9.00490000 0.140852 89.753 0.989900 -98.43 0.989900 -98.43 0.140742 -106.7
9.00500000 0.141438 89.818 0.989815 -98.47 0.989815 -98.47 0.141328 -106.9
9.00510000 0.142029 89.883 0.989730 -98.51 0.989730 -98.51 0.141918 -107.0
9.00520000 0.142624 89.947 0.989643 -98.55 0.989643 -98.55 0.142513 -107.1
9.00530000 0.143224 90.011 0.989556 -98.58 0.989556 -98.58 0.143113 -107.3
9.00540000 0.143829 90.074 0.989467 -98.62 0.989467 -98.62 0.143717 -107.4
9.00550000 0.144438 90.137 0.989377 -98.66 0.989377 -98.66 0.144326 -107.6
9.00560000 0.145053 90.200 0.989286 -98.70 0.989286 -98.70 0.144940 -107.7
9.00570000 0.145672 90.262 0.989195 -98.74 0.989195 -98.74 0.145559 -107.9
9.00580000 0.146296 90.324 0.989101 -98.78 0.989101 -98.78 0.146183 -108.0
9.00590000 0.146925 90.385 0.989007 -98.82 0.989007 -98.82 0.146812 -108.1
9.00600000 0.147559 90.446 0.988912 -98.86 0.988912 -98.86 0.147445 -108.3
9.00610000 0.148198 90.507 0.988815 -98.90 0.988815 -98.90 0.148084 -108.4
9.00620000 0.148842 90.567 0.988717 -98.95 0.988717 -98.95 0.148728 -108.6
9.00630000 0.149492 90.627 0.988618 -98.99 0.988618 -98.99 0.149377 -108.7
9.00640000 0.150146 90.686 0.988518 -99.03 0.988518 -99.03 0.150032 -108.9
9.00650000 0.150806 90.745 0.988417 -99.07 0.988417 -99.07 0.150691 -109.0
9.00660000 0.151472 90.803 0.988314 -99.11 0.988314 -99.11 0.151356 -109.1
9.00670000 0.152142 90.861 0.988210 -99.16 0.988210 -99.16 0.152027 -109.3
9.00680000 0.152819 90.919 0.988104 -99.20 0.988104 -99.20 0.152702 -109.4
9.00690000 0.153500 90.976 0.987997 -99.24 0.987997 -99.24 0.153384 -109.6
9.00700000 0.154188 91.032 0.987889 -99.29 0.987889 -99.29 0.154071 -109.7
9.00710000 0.154881 91.089 0.987780 -99.33 0.987780 -99.33 0.154763 -109.9
9.00720000 0.155579 91.144 0.987669 -99.38 0.987669 -99.38 0.155462 -110.0
9.00730000 0.156284 91.200 0.987556 -99.42 0.987556 -99.42 0.156166 -110.2
9.00740000 0.156994 91.254 0.987442 -99.47 0.987442 -99.47 0.156876 -110.3
9.00750000 0.157711 91.309 0.987327 -99.51 0.987327 -99.51 0.157592 -110.4
9.00760000 0.158433 91.362 0.987210 -99.56 0.987210 -99.56 0.158314 -110.6
9.00770000 0.159161 91.416 0.987092 -99.60 0.987092 -99.60 0.159042 -110.7
9.00780000 0.159895 91.469 0.986972 -99.65 0.986972 -99.65 0.159776 -110.9
9.00790000 0.160636 91.521 0.986850 -99.70 0.986850 -99.70 0.160516 -111.0
9.00800000 0.161383 91.573 0.986727 -99.75 0.986727 -99.75 0.161262 -111.2
9.00810000 0.162136 91.624 0.986603 -99.79 0.986603 -99.79 0.162015 -111.3
9.00820000 0.162895 91.675 0.986476 -99.84 0.986476 -99.84 0.162774 -111.5
9.00830000 0.163661 91.725 0.986348 -99.89 0.986348 -99.89 0.163540 -111.6
9.00840000 0.164434 91.775 0.986218 -99.94 0.986218 -99.94 0.164312 -111.8
9.00850000 0.165213 91.824 0.986087 -99.99 0.986087 -99.99 0.165090 -111.9
9.00860000 0.165999 91.873 0.985953 -100.0 0.985953 -100.0 0.165876 -112.1
9.00870000 0.166791 91.921 0.985818 -100.1 0.985818 -100.1 0.166668 -112.2
9.00880000 0.167591 91.969 0.985681 -100.1 0.985681 -100.1 0.167467 -112.4
9.00890000 0.168397 92.016 0.985542 -100.2 0.985542 -100.2 0.168273 -112.5
9.00900000 0.169210 92.063 0.985402 -100.2 0.985402 -100.2 0.169086 -112.7
9.00910000 0.170031 92.109 0.985259 -100.3 0.985259 -100.3 0.169906 -112.8
9.00920000 0.170858 92.154 0.985114 -100.3 0.985114 -100.3 0.170733 -113.0
9.00930000 0.171693 92.199 0.984968 -100.4 0.984968 -100.4 0.171567 -113.1
9.00940000 0.172535 92.244 0.984819 -100.4 0.984819 -100.4 0.172409 -113.3
9.00950000 0.173385 92.288 0.984668 -100.5 0.984668 -100.5 0.173258 -113.4
9.00960000 0.174242 92.331 0.984515 -100.6 0.984515 -100.6 0.174115 -113.6
9.00970000 0.175106 92.373 0.984360 -100.6 0.984360 -100.6 0.174979 -113.7
9.00980000 0.175979 92.415 0.984203 -100.7 0.984203 -100.7 0.175851 -113.9
9.00990000 0.176859 92.457 0.984044 -100.7 0.984044 -100.7 0.176731 -114.0
9.01000000 0.177747 92.498 0.983882 -100.8 0.983882 -100.8 0.177618 -114.2
9.01010000 0.178643 92.538 0.983718 -100.8 0.983718 -100.8 0.178514 -114.3
9.01020000 0.179547 92.578 0.983552 -100.9 0.983552 -100.9 0.179418 -114.5
9.01030000 0.180460 92.617 0.983383 -100.9 0.983383 -100.9 0.180329 -114.6
9.01040000 0.181380 92.655 0.983212 -101.0 0.983212 -101.0 0.181249 -114.8
9.01050000 0.182309 92.693 0.983039 -101.1 0.983039 -101.1 0.182178 -114.9
9.01060000 0.183247 92.730 0.982863 -101.1 0.982863 -101.1 0.183115 -115.1
9.01070000 0.184193 92.766 0.982684 -101.2 0.982684 -101.2 0.184061 -115.2
9.01080000 0.185147 92.802 0.982503 -101.2 0.982503 -101.2 0.185015 -115.4
9.01090000 0.186111 92.837 0.982319 -101.3 0.982319 -101.3 0.185978 -115.6
9.01100000 0.187083 92.872 0.982132 -101.4 0.982132 -101.4 0.186950 -115.7
9.01110000 0.188065 92.905 0.981943 -101.4 0.981943 -101.4 0.187931 -115.9
9.01120000 0.189055 92.939 0.981751 -101.5 0.981751 -101.5 0.188921 -116.0
9.01130000 0.190055 92.971 0.981556 -101.5 0.981556 -101.5 0.189920 -116.2
9.01140000 0.191065 93.003 0.981358 -101.6 0.981358 -101.6 0.190929 -116.3
9.01150000 0.192083 93.034 0.981157 -101.7 0.981157 -101.7 0.191947 -116.5
9.01160000 0.193112 93.064 0.980953 -101.7 0.980953 -101.7 0.192975 -116.7
9.01170000 0.194150 93.094 0.980746 -101.8 0.980746 -101.8 0.194013 -116.8
9.01180000 0.195198 93.122 0.980536 -101.9 0.980536 -101.9 0.195060 -117.0
9.01190000 0.196256 93.150 0.980323 -101.9 0.980323 -101.9 0.196118 -117.1
9.01200000 0.197324 93.178 0.980106 -102.0 0.980106 -102.0 0.197186 -117.3
9.01210000 0.198402 93.204 0.979886 -102.1 0.979886 -102.1 0.198263 -117.5
9.01220000 0.199491 93.230 0.979663 -102.1 0.979663 -102.1 0.199352 -117.6
9.01230000 0.200591 93.255 0.979436 -102.2 0.979436 -102.2 0.200451 -117.8
9.01240000 0.201701 93.280 0.979206 -102.3 0.979206 -102.3 0.201560 -117.9
9.01250000 0.202822 93.303 0.978972 -102.3 0.978972 -102.3 0.202680 -118.1
9.01260000 0.203953 93.326 0.978735 -102.4 0.978735 -102.4 0.203812 -118.3
9.01270000 0.205096 93.348 0.978494 -102.5 0.978494 -102.5 0.204954 -118.4
9.01280000 0.206251 93.369 0.978249 -102.5 0.978249 -102.5 0.206108 -118.6
9.01290000 0.207416 93.389 0.978000 -102.6 0.978000 -102.6 0.207273 -118.8
9.01300000 0.208593 93.408 0.977747 -102.7 0.977747 -102.7 0.208449 -118.9
9.01310000 0.209782 93.427 0.977490 -102.8 0.977490 -102.8 0.209638 -119.1
9.01320000 0.210983 93.445 0.977229 -102.8 0.977229 -102.8 0.210838 -119.3
9.01330000 0.212196 93.462 0.976964 -102.9 0.976964 -102.9 0.212050 -119.4
9.01340000 0.213421 93.478 0.976694 -103.0 0.976694 -103.0 0.213275 -119.6
9.01350000 0.214659 93.493 0.976420 -103.1 0.976420 -103.1 0.214512 -119.8
9.01360000 0.215909 93.507 0.976142 -103.1 0.976142 -103.1 0.215761 -119.9
9.01370000 0.217172 93.520 0.975859 -103.2 0.975859 -103.2 0.217023 -120.1
9.01380000 0.218447 93.532 0.975572 -103.3 0.975572 -103.3 0.218299 -120.3
9.01390000 0.219736 93.544 0.975279 -103.4 0.975279 -103.4 0.219587 -120.4
9.01400000 0.221038 93.554 0.974982 -103.5 0.974982 -103.5 0.220888 -120.6
9.01410000 0.222354 93.564 0.974680 -103.5 0.974680 -103.5 0.222203 -120.8
9.01420000 0.223683 93.572 0.974373 -103.6 0.974373 -103.6 0.223532 -121.0
9.01430000 0.225026 93.580 0.974061 -103.7 0.974061 -103.7 0.224874 -121.1
9.01440000 0.226383 93.586 0.973743 -103.8 0.973743 -103.8 0.226231 -121.3
9.01450000 0.227755 93.592 0.973420 -103.9 0.973420 -103.9 0.227602 -121.5
9.01460000 0.229141 93.596 0.973092 -104.0 0.973092 -104.0 0.228987 -121.7
9.01470000 0.230541 93.600 0.972758 -104.0 0.972758 -104.0 0.230387 -121.8
9.01480000 0.231957 93.602 0.972418 -104.1 0.972418 -104.1 0.231802 -122.0
9.01490000 0.233388 93.603 0.972073 -104.2 0.972073 -104.2 0.233232 -122.2
9.01500000 0.234834 93.604 0.971721 -104.3 0.971721 -104.3 0.234677 -122.4
9.01510000 0.236295 93.603 0.971363 -104.4 0.971363 -104.4 0.236138 -122.5
9.01520000 0.237773 93.601 0.970999 -104.5 0.970999 -104.5 0.237615 -122.7
9.01530000 0.239266 93.598 0.970629 -104.6 0.970629 -104.6 0.239107 -122.9
9.01540000 0.240776 93.594 0.970252 -104.7 0.970252 -104.7 0.240616 -123.1
9.01550000 0.242302 93.588 0.969868 -104.8 0.969868 -104.8 0.242142 -123.3
9.01560000 0.243845 93.582 0.969478 -104.9 0.969478 -104.9 0.243684 -123.5
9.01570000 0.245405 93.574 0.969081 -105.0 0.969081 -105.0 0.245243 -123.6
9.01580000 0.246982 93.565 0.968676 -105.0 0.968676 -105.0 0.246820 -123.8
9.01590000 0.248577 93.555 0.968264 -105.1 0.968264 -105.1 0.248414 -124.0
9.01600000 0.250189 93.543 0.967845 -105.2 0.967845 -105.2 0.250025 -124.2
9.01610000 0.251820 93.531 0.967418 -105.3 0.967418 -105.3 0.251655 -124.4
9.01620000 0.253469 93.517 0.966983 -105.4 0.966983 -105.4 0.253304 -124.6
9.01630000 0.255137 93.502 0.966540 -105.6 0.966540 -105.6 0.254971 -124.8
9.01640000 0.256823 93.485 0.966089 -105.7 0.966089 -105.7 0.256656 -125.0
9.01650000 0.258529 93.467 0.965630 -105.8 0.965630 -105.8 0.258361 -125.2
9.01660000 0.260255 93.448 0.965162 -105.9 0.965162 -105.9 0.260086 -125.3
9.01670000 0.262000 93.427 0.964686 -106.0 0.964686 -106.0 0.261830 -125.5
9.01680000 0.263765 93.405 0.964200 -106.1 0.964200 -106.1 0.263595 -125.7
9.01690000 0.265551 93.382 0.963705 -106.2 0.963705 -106.2 0.265380 -125.9
9.01700000 0.267358 93.357 0.963201 -106.3 0.963201 -106.3 0.267186 -126.1
9.01710000 0.269186 93.331 0.962687 -106.4 0.962687 -106.4 0.269013 -126.3
9.01720000 0.271035 93.303 0.962163 -106.5 0.962163 -106.5 0.270861 -126.5
9.01730000 0.272906 93.273 0.961629 -106.6 0.961629 -106.6 0.272732 -126.7
9.01740000 0.274799 93.243 0.961085 -106.8 0.961085 -106.8 0.274624 -126.9
9.01750000 0.276715 93.210 0.960530 -106.9 0.960530 -106.9 0.276539 -127.1
9.01760000 0.278654 93.176 0.959964 -107.0 0.959964 -107.0 0.278477 -127.3
9.01770000 0.280616 93.141 0.959387 -107.1 0.959387 -107.1 0.280438 -127.6
9.01780000 0.282602 93.103 0.958799 -107.2 0.958799 -107.2 0.282423 -127.8
9.01783648 0.283332 93.089 0.958581 -107.3 0.958581 -107.3 0.283153 -127.8
9.01790000 0.284611 93.064 0.958199 -107.4 0.958199 -107.4 0.284431 -128.0
9.01800000 0.286646 93.024 0.957587 -107.5 0.957587 -107.5 0.286465 -128.2
9.01810000 0.288704 92.982 0.956962 -107.6 0.956962 -107.6 0.288523 -128.4
9.01816525 0.290062 92.953 0.956548 -107.7 0.956548 -107.7 0.289879 -128.5
9.01820000 0.290789 92.938 0.956325 -107.7 0.956325 -107.7 0.290606 -128.6
9.01830000 0.292899 92.892 0.955675 -107.9 0.955675 -107.9 0.292715 -128.8
9.01840000 0.295035 92.844 0.955012 -108.0 0.955012 -108.0 0.294850 -129.0
9.01848649 0.296904 92.801 0.954427 -108.1 0.954427 -108.1 0.296718 -129.2
9.01850000 0.297197 92.795 0.954335 -108.1 0.954335 -108.1 0.297011 -129.3
9.01860000 0.299387 92.743 0.953644 -108.3 0.953644 -108.3 0.299200 -129.5
9.01870000 0.301604 92.690 0.952939 -108.4 0.952939 -108.4 0.301416 -129.7
9.01880000 0.303849 92.635 0.952219 -108.5 0.952219 -108.5 0.303660 -129.9
9.01880037 0.303857 92.635 0.952217 -108.5 0.952217 -108.5 0.303668 -129.9