! Sonnet Data File
! From: emgraph Version : 16.52
! From Project: Resonator2_extremeCap
! Data is De-embedded 
! Data File Written: 10/11/2017 17:55:28
!< HDATE 10/10/2017 20:37:37
!< MDATE 10/10/2017 20:37:37
!< PARAMS
!< Pwid1 = 2000.0
!< Pwid2 = 2000.0
!< Air_gap = 6.0
!< Width = 10.0
!< Gap = 80.0
!< END PARAMS
# GHZ S MA R 50.70000
8.95000000 0.141829 0.6260 0.989886 -87.53 0.989886 -87.53 0.141828 4.3241
!< P1 F=8.95 Eeff=(6.4467035 -2.972e-5) Z0=(51.7988068 1.1952e-4) R=0.0 C=0.0 
!< P2 F=8.95 Eeff=(6.4467035 -2.972e-5) Z0=(51.7988068 1.1952e-4) R=0.0 C=0.0 
8.95020000 0.141845 0.6265 0.989884 -87.53 0.989884 -87.53 0.141843 4.3179
8.95040000 0.141860 0.6269 0.989882 -87.53 0.989882 -87.53 0.141858 4.3118
8.95060000 0.141875 0.6274 0.989879 -87.53 0.989879 -87.53 0.141874 4.3056
8.95080000 0.141891 0.6279 0.989877 -87.54 0.989877 -87.54 0.141889 4.2994
8.95100000 0.141907 0.6284 0.989875 -87.54 0.989875 -87.54 0.141905 4.2932
8.95120000 0.141922 0.6289 0.989873 -87.54 0.989873 -87.54 0.141921 4.2870
8.95140000 0.141938 0.6294 0.989871 -87.55 0.989871 -87.55 0.141936 4.2807
8.95160000 0.141953 0.6299 0.989868 -87.55 0.989868 -87.55 0.141952 4.2745
8.95180000 0.141969 0.6305 0.989866 -87.55 0.989866 -87.55 0.141968 4.2682
8.95200000 0.141985 0.6310 0.989864 -87.55 0.989864 -87.55 0.141983 4.2619
8.95220000 0.142001 0.6316 0.989861 -87.56 0.989861 -87.56 0.141999 4.2556
8.95240000 0.142017 0.6321 0.989859 -87.56 0.989859 -87.56 0.142015 4.2493
8.95260000 0.142032 0.6327 0.989857 -87.56 0.989857 -87.56 0.142031 4.2430
8.95280000 0.142048 0.6332 0.989855 -87.57 0.989855 -87.57 0.142047 4.2367
8.95300000 0.142064 0.6338 0.989852 -87.57 0.989852 -87.57 0.142063 4.2303
8.95320000 0.142080 0.6344 0.989850 -87.57 0.989850 -87.57 0.142079 4.2239
8.95340000 0.142096 0.6350 0.989848 -87.57 0.989848 -87.57 0.142095 4.2175
8.95360000 0.142113 0.6356 0.989845 -87.58 0.989845 -87.58 0.142111 4.2111
8.95380000 0.142129 0.6363 0.989843 -87.58 0.989843 -87.58 0.142127 4.2047
8.95400000 0.142145 0.6369 0.989841 -87.58 0.989841 -87.58 0.142143 4.1983
8.95420000 0.142161 0.6375 0.989838 -87.59 0.989838 -87.59 0.142159 4.1919
8.95440000 0.142177 0.6382 0.989836 -87.59 0.989836 -87.59 0.142176 4.1854
8.95460000 0.142194 0.6388 0.989834 -87.59 0.989834 -87.59 0.142192 4.1789
8.95480000 0.142210 0.6395 0.989831 -87.59 0.989831 -87.59 0.142208 4.1724
8.95500000 0.142227 0.6401 0.989829 -87.60 0.989829 -87.60 0.142225 4.1659
8.95520000 0.142243 0.6408 0.989827 -87.60 0.989827 -87.60 0.142241 4.1594
8.95540000 0.142260 0.6415 0.989824 -87.60 0.989824 -87.60 0.142258 4.1529
8.95560000 0.142276 0.6422 0.989822 -87.61 0.989822 -87.61 0.142274 4.1463
8.95580000 0.142293 0.6429 0.989819 -87.61 0.989819 -87.61 0.142291 4.1397
8.95600000 0.142309 0.6437 0.989817 -87.61 0.989817 -87.61 0.142308 4.1331
8.95620000 0.142326 0.6444 0.989815 -87.61 0.989815 -87.61 0.142324 4.1265
8.95640000 0.142343 0.6451 0.989812 -87.62 0.989812 -87.62 0.142341 4.1199
8.95660000 0.142360 0.6459 0.989810 -87.62 0.989810 -87.62 0.142358 4.1133
8.95680000 0.142377 0.6466 0.989807 -87.62 0.989807 -87.62 0.142375 4.1066
8.95700000 0.142393 0.6474 0.989805 -87.63 0.989805 -87.63 0.142392 4.1000
8.95720000 0.142410 0.6482 0.989803 -87.63 0.989803 -87.63 0.142409 4.0933
8.95740000 0.142427 0.6490 0.989800 -87.63 0.989800 -87.63 0.142426 4.0866
8.95760000 0.142444 0.6498 0.989798 -87.64 0.989798 -87.64 0.142443 4.0798
8.95780000 0.142462 0.6506 0.989795 -87.64 0.989795 -87.64 0.142460 4.0731
8.95800000 0.142479 0.6514 0.989793 -87.64 0.989793 -87.64 0.142477 4.0663
8.95820000 0.142496 0.6522 0.989790 -87.64 0.989790 -87.64 0.142494 4.0596
8.95840000 0.142513 0.6531 0.989788 -87.65 0.989788 -87.65 0.142511 4.0528
8.95860000 0.142530 0.6539 0.989785 -87.65 0.989785 -87.65 0.142529 4.0460
8.95880000 0.142548 0.6548 0.989783 -87.65 0.989783 -87.65 0.142546 4.0392
8.95900000 0.142565 0.6556 0.989780 -87.66 0.989780 -87.66 0.142563 4.0323
8.95920000 0.142583 0.6565 0.989778 -87.66 0.989778 -87.66 0.142581 4.0255
8.95940000 0.142600 0.6574 0.989775 -87.66 0.989775 -87.66 0.142598 4.0186
8.95960000 0.142618 0.6583 0.989773 -87.67 0.989773 -87.67 0.142616 4.0117
8.95980000 0.142635 0.6592 0.989770 -87.67 0.989770 -87.67 0.142633 4.0048
8.96000000 0.142653 0.6601 0.989768 -87.67 0.989768 -87.67 0.142651 3.9978
8.96020000 0.142671 0.6611 0.989765 -87.67 0.989765 -87.67 0.142669 3.9909
8.96040000 0.142688 0.6620 0.989762 -87.68 0.989762 -87.68 0.142687 3.9839
8.96060000 0.142706 0.6629 0.989760 -87.68 0.989760 -87.68 0.142704 3.9769
8.96080000 0.142724 0.6639 0.989757 -87.68 0.989757 -87.68 0.142722 3.9699
8.96100000 0.142742 0.6649 0.989755 -87.69 0.989755 -87.69 0.142740 3.9629
8.96120000 0.142760 0.6659 0.989752 -87.69 0.989752 -87.69 0.142758 3.9559
8.96140000 0.142778 0.6669 0.989749 -87.69 0.989749 -87.69 0.142776 3.9488
8.96160000 0.142796 0.6679 0.989747 -87.70 0.989747 -87.70 0.142794 3.9417
8.96180000 0.142814 0.6689 0.989744 -87.70 0.989744 -87.70 0.142812 3.9346
8.96200000 0.142833 0.6699 0.989742 -87.70 0.989742 -87.70 0.142831 3.9275
8.96220000 0.142851 0.6710 0.989739 -87.70 0.989739 -87.70 0.142849 3.9204
8.96240000 0.142869 0.6720 0.989736 -87.71 0.989736 -87.71 0.142867 3.9132
8.96260000 0.142888 0.6731 0.989734 -87.71 0.989734 -87.71 0.142885 3.9061
8.96280000 0.142906 0.6741 0.989731 -87.71 0.989731 -87.71 0.142904 3.8989
8.96300000 0.142924 0.6752 0.989728 -87.72 0.989728 -87.72 0.142922 3.8916
8.96320000 0.142943 0.6763 0.989726 -87.72 0.989726 -87.72 0.142941 3.8844
8.96340000 0.142962 0.6774 0.989723 -87.72 0.989723 -87.72 0.142960 3.8772
8.96360000 0.142980 0.6785 0.989720 -87.73 0.989720 -87.73 0.142978 3.8699
8.96380000 0.142999 0.6797 0.989717 -87.73 0.989717 -87.73 0.142997 3.8626
8.96400000 0.143018 0.6808 0.989715 -87.73 0.989715 -87.73 0.143016 3.8553
8.96420000 0.143037 0.6820 0.989712 -87.74 0.989712 -87.74 0.143035 3.8480
8.96440000 0.143056 0.6831 0.989709 -87.74 0.989709 -87.74 0.143053 3.8406
8.96460000 0.143074 0.6843 0.989707 -87.74 0.989707 -87.74 0.143072 3.8332
8.96480000 0.143094 0.6855 0.989704 -87.74 0.989704 -87.74 0.143091 3.8258
8.96500000 0.143113 0.6867 0.989701 -87.75 0.989701 -87.75 0.143110 3.8184
8.96520000 0.143132 0.6879 0.989698 -87.75 0.989698 -87.75 0.143130 3.8110
8.96540000 0.143151 0.6891 0.989695 -87.75 0.989695 -87.75 0.143149 3.8035
8.96560000 0.143170 0.6904 0.989693 -87.76 0.989693 -87.76 0.143168 3.7961
8.96580000 0.143190 0.6916 0.989690 -87.76 0.989690 -87.76 0.143187 3.7886
8.96600000 0.143209 0.6929 0.989687 -87.76 0.989687 -87.76 0.143207 3.7810
8.96620000 0.143228 0.6942 0.989684 -87.77 0.989684 -87.77 0.143226 3.7735
8.96640000 0.143248 0.6955 0.989681 -87.77 0.989681 -87.77 0.143246 3.7659
8.96660000 0.143268 0.6968 0.989679 -87.77 0.989679 -87.77 0.143265 3.7583
8.96680000 0.143287 0.6981 0.989676 -87.78 0.989676 -87.78 0.143285 3.7507
8.96700000 0.143307 0.6994 0.989673 -87.78 0.989673 -87.78 0.143305 3.7431
8.96720000 0.143327 0.7007 0.989670 -87.78 0.989670 -87.78 0.143324 3.7355
8.96740000 0.143347 0.7021 0.989667 -87.79 0.989667 -87.79 0.143344 3.7278
8.96760000 0.143366 0.7035 0.989664 -87.79 0.989664 -87.79 0.143364 3.7201
8.96780000 0.143386 0.7048 0.989661 -87.79 0.989661 -87.79 0.143384 3.7124
8.96800000 0.143406 0.7062 0.989658 -87.79 0.989658 -87.79 0.143404 3.7046
8.96820000 0.143427 0.7076 0.989655 -87.80 0.989655 -87.80 0.143424 3.6969
8.96840000 0.143447 0.7090 0.989653 -87.80 0.989653 -87.80 0.143444 3.6891
8.96860000 0.143467 0.7105 0.989650 -87.80 0.989650 -87.80 0.143465 3.6813
8.96880000 0.143487 0.7119 0.989647 -87.81 0.989647 -87.81 0.143485 3.6735
8.96900000 0.143508 0.7134 0.989644 -87.81 0.989644 -87.81 0.143505 3.6656
8.96920000 0.143528 0.7148 0.989641 -87.81 0.989641 -87.81 0.143526 3.6577
8.96940000 0.143549 0.7163 0.989638 -87.82 0.989638 -87.82 0.143546 3.6498
8.96960000 0.143569 0.7178 0.989635 -87.82 0.989635 -87.82 0.143567 3.6419
8.96980000 0.143590 0.7193 0.989632 -87.82 0.989632 -87.82 0.143588 3.6340
8.97000000 0.143611 0.7209 0.989629 -87.83 0.989629 -87.83 0.143608 3.6260
8.97020000 0.143632 0.7224 0.989626 -87.83 0.989626 -87.83 0.143629 3.6180
8.97040000 0.143652 0.7239 0.989623 -87.83 0.989623 -87.83 0.143650 3.6100
8.97060000 0.143673 0.7255 0.989620 -87.84 0.989620 -87.84 0.143671 3.6019
8.97080000 0.143694 0.7271 0.989616 -87.84 0.989616 -87.84 0.143692 3.5939
8.97100000 0.143715 0.7287 0.989613 -87.84 0.989613 -87.84 0.143713 3.5858
8.97120000 0.143737 0.7303 0.989610 -87.85 0.989610 -87.85 0.143734 3.5777
8.97140000 0.143758 0.7319 0.989607 -87.85 0.989607 -87.85 0.143755 3.5695
8.97160000 0.143779 0.7336 0.989604 -87.85 0.989604 -87.85 0.143777 3.5614
8.97180000 0.143801 0.7352 0.989601 -87.86 0.989601 -87.86 0.143798 3.5532
8.97200000 0.143822 0.7369 0.989598 -87.86 0.989598 -87.86 0.143820 3.5450
8.97220000 0.143844 0.7386 0.989595 -87.86 0.989595 -87.86 0.143841 3.5367
8.97240000 0.143865 0.7403 0.989592 -87.87 0.989592 -87.87 0.143863 3.5284
8.97260000 0.143887 0.7420 0.989588 -87.87 0.989588 -87.87 0.143884 3.5202
8.97280000 0.143909 0.7437 0.989585 -87.87 0.989585 -87.87 0.143906 3.5118
8.97300000 0.143931 0.7454 0.989582 -87.88 0.989582 -87.88 0.143928 3.5035
8.97320000 0.143953 0.7472 0.989579 -87.88 0.989579 -87.88 0.143950 3.4951
8.97340000 0.143975 0.7490 0.989576 -87.88 0.989576 -87.88 0.143972 3.4867
8.97360000 0.143997 0.7507 0.989572 -87.89 0.989572 -87.89 0.143994 3.4783
8.97380000 0.144019 0.7525 0.989569 -87.89 0.989569 -87.89 0.144016 3.4698
8.97400000 0.144041 0.7544 0.989566 -87.89 0.989566 -87.89 0.144039 3.4614
8.97420000 0.144063 0.7562 0.989563 -87.90 0.989563 -87.90 0.144061 3.4529
8.97440000 0.144086 0.7580 0.989559 -87.90 0.989559 -87.90 0.144083 3.4443
8.97460000 0.144108 0.7599 0.989556 -87.90 0.989556 -87.90 0.144106 3.4358
8.97480000 0.144131 0.7618 0.989553 -87.91 0.989553 -87.91 0.144128 3.4272
8.97500000 0.144154 0.7637 0.989550 -87.91 0.989550 -87.91 0.144151 3.4186
8.97520000 0.144176 0.7656 0.989546 -87.91 0.989546 -87.91 0.144174 3.4099
8.97540000 0.144199 0.7675 0.989543 -87.92 0.989543 -87.92 0.144197 3.4012
8.97560000 0.144222 0.7695 0.989539 -87.92 0.989539 -87.92 0.144219 3.3925
8.97580000 0.144245 0.7714 0.989536 -87.92 0.989536 -87.92 0.144242 3.3838
8.97600000 0.144268 0.7734 0.989533 -87.93 0.989533 -87.93 0.144266 3.3751
8.97620000 0.144291 0.7754 0.989529 -87.93 0.989529 -87.93 0.144289 3.3663
8.97640000 0.144315 0.7774 0.989526 -87.93 0.989526 -87.93 0.144312 3.3575
8.97660000 0.144338 0.7795 0.989523 -87.94 0.989523 -87.94 0.144335 3.3486
8.97680000 0.144362 0.7815 0.989519 -87.94 0.989519 -87.94 0.144359 3.3397
8.97700000 0.144385 0.7836 0.989516 -87.94 0.989516 -87.94 0.144382 3.3308
8.97720000 0.144409 0.7856 0.989512 -87.95 0.989512 -87.95 0.144406 3.3219
8.97740000 0.144432 0.7877 0.989509 -87.95 0.989509 -87.95 0.144430 3.3129
8.97760000 0.144456 0.7899 0.989505 -87.95 0.989505 -87.95 0.144453 3.3040
8.97780000 0.144480 0.7920 0.989502 -87.96 0.989502 -87.96 0.144477 3.2949
8.97800000 0.144504 0.7941 0.989498 -87.96 0.989498 -87.96 0.144501 3.2859
8.97820000 0.144528 0.7963 0.989495 -87.96 0.989495 -87.96 0.144525 3.2768
8.97840000 0.144552 0.7985 0.989491 -87.97 0.989491 -87.97 0.144549 3.2677
8.97860000 0.144577 0.8007 0.989488 -87.97 0.989488 -87.97 0.144574 3.2585
8.97880000 0.144601 0.8029 0.989484 -87.97 0.989484 -87.97 0.144598 3.2494
8.97900000 0.144625 0.8051 0.989480 -87.98 0.989480 -87.98 0.144623 3.2402
8.97920000 0.144650 0.8074 0.989477 -87.98 0.989477 -87.98 0.144647 3.2309
8.97940000 0.144675 0.8097 0.989473 -87.98 0.989473 -87.98 0.144672 3.2216
8.97960000 0.144699 0.8120 0.989470 -87.99 0.989470 -87.99 0.144696 3.2123
8.97980000 0.144724 0.8143 0.989466 -87.99 0.989466 -87.99 0.144721 3.2030
8.98000000 0.144749 0.8166 0.989462 -87.99 0.989462 -87.99 0.144746 3.1936
8.98020000 0.144774 0.8189 0.989459 -88.00 0.989459 -88.00 0.144771 3.1842
8.98040000 0.144799 0.8213 0.989455 -88.00 0.989455 -88.00 0.144796 3.1748
8.98060000 0.144825 0.8237 0.989451 -88.01 0.989451 -88.01 0.144822 3.1653
8.98080000 0.144850 0.8261 0.989447 -88.01 0.989447 -88.01 0.144847 3.1558
8.98100000 0.144876 0.8285 0.989444 -88.01 0.989444 -88.01 0.144872 3.1463
8.98120000 0.144901 0.8310 0.989440 -88.02 0.989440 -88.02 0.144898 3.1367
8.98140000 0.144927 0.8334 0.989436 -88.02 0.989436 -88.02 0.144924 3.1271
8.98160000 0.144952 0.8359 0.989432 -88.02 0.989432 -88.02 0.144949 3.1175
8.98180000 0.144978 0.8384 0.989429 -88.03 0.989429 -88.03 0.144975 3.1078
8.98200000 0.145004 0.8409 0.989425 -88.03 0.989425 -88.03 0.145001 3.0981
8.98220000 0.145030 0.8435 0.989421 -88.03 0.989421 -88.03 0.145027 3.0884
8.98240000 0.145057 0.8460 0.989417 -88.04 0.989417 -88.04 0.145053 3.0786
8.98260000 0.145083 0.8486 0.989413 -88.04 0.989413 -88.04 0.145080 3.0688
8.98280000 0.145109 0.8512 0.989409 -88.04 0.989409 -88.04 0.145106 3.0589
8.98300000 0.145136 0.8539 0.989405 -88.05 0.989405 -88.05 0.145133 3.0491
8.98320000 0.145162 0.8565 0.989402 -88.05 0.989402 -88.05 0.145159 3.0391
8.98340000 0.145189 0.8592 0.989398 -88.06 0.989398 -88.06 0.145186 3.0292
8.98360000 0.145216 0.8619 0.989394 -88.06 0.989394 -88.06 0.145213 3.0192
8.98380000 0.145243 0.8646 0.989390 -88.06 0.989390 -88.06 0.145240 3.0092
8.98400000 0.145270 0.8673 0.989386 -88.07 0.989386 -88.07 0.145267 2.9991
8.98420000 0.145297 0.8700 0.989382 -88.07 0.989382 -88.07 0.145294 2.9890
8.98440000 0.145325 0.8728 0.989378 -88.07 0.989378 -88.07 0.145321 2.9788
8.98460000 0.145352 0.8756 0.989374 -88.08 0.989374 -88.08 0.145349 2.9687
8.98480000 0.145380 0.8784 0.989370 -88.08 0.989370 -88.08 0.145376 2.9584
8.98500000 0.145407 0.8812 0.989365 -88.09 0.989365 -88.09 0.145404 2.9482
8.98520000 0.145435 0.8841 0.989361 -88.09 0.989361 -88.09 0.145432 2.9379
8.98540000 0.145463 0.8870 0.989357 -88.09 0.989357 -88.09 0.145460 2.9276
8.98560000 0.145491 0.8899 0.989353 -88.10 0.989353 -88.10 0.145488 2.9172
8.98580000 0.145519 0.8928 0.989349 -88.10 0.989349 -88.10 0.145516 2.9068
8.98600000 0.145547 0.8958 0.989345 -88.10 0.989345 -88.10 0.145544 2.8963
8.98620000 0.145576 0.8987 0.989341 -88.11 0.989341 -88.11 0.145572 2.8858
8.98640000 0.145604 0.9017 0.989336 -88.11 0.989336 -88.11 0.145601 2.8753
8.98660000 0.145633 0.9047 0.989332 -88.12 0.989332 -88.12 0.145629 2.8647
8.98680000 0.145662 0.9078 0.989328 -88.12 0.989328 -88.12 0.145658 2.8541
8.98700000 0.145691 0.9108 0.989324 -88.12 0.989324 -88.12 0.145687 2.8435
8.98720000 0.145720 0.9139 0.989319 -88.13 0.989319 -88.13 0.145716 2.8328
8.98740000 0.145749 0.9170 0.989315 -88.13 0.989315 -88.13 0.145745 2.8220
8.98760000 0.145778 0.9202 0.989311 -88.13 0.989311 -88.13 0.145775 2.8112
8.98780000 0.145808 0.9233 0.989306 -88.14 0.989306 -88.14 0.145804 2.8004
8.98800000 0.145837 0.9265 0.989302 -88.14 0.989302 -88.14 0.145833 2.7895
8.98820000 0.145867 0.9297 0.989298 -88.15 0.989298 -88.15 0.145863 2.7786
8.98840000 0.145897 0.9330 0.989293 -88.15 0.989293 -88.15 0.145893 2.7677
8.98860000 0.145927 0.9362 0.989289 -88.15 0.989289 -88.15 0.145923 2.7567
8.98880000 0.145957 0.9395 0.989284 -88.16 0.989284 -88.16 0.145953 2.7456
8.98900000 0.145987 0.9428 0.989280 -88.16 0.989280 -88.16 0.145983 2.7346
8.98920000 0.146017 0.9461 0.989275 -88.16 0.989275 -88.16 0.146013 2.7234
8.98940000 0.146048 0.9495 0.989271 -88.17 0.989271 -88.17 0.146044 2.7123
8.98960000 0.146078 0.9529 0.989266 -88.17 0.989266 -88.17 0.146075 2.7010
8.98980000 0.146109 0.9563 0.989262 -88.18 0.989262 -88.18 0.146105 2.6898
8.99000000 0.146140 0.9597 0.989257 -88.18 0.989257 -88.18 0.146136 2.6785
8.99020000 0.146171 0.9632 0.989252 -88.18 0.989252 -88.18 0.146167 2.6671
8.99040000 0.146202 0.9667 0.989248 -88.19 0.989248 -88.19 0.146199 2.6557
8.99060000 0.146234 0.9702 0.989243 -88.19 0.989243 -88.19 0.146230 2.6442
8.99080000 0.146265 0.9737 0.989238 -88.20 0.989238 -88.20 0.146261 2.6327
8.99100000 0.146297 0.9773 0.989234 -88.20 0.989234 -88.20 0.146293 2.6212
8.99120000 0.146329 0.9809 0.989229 -88.20 0.989229 -88.20 0.146325 2.6096
8.99140000 0.146361 0.9845 0.989224 -88.21 0.989224 -88.21 0.146357 2.5980
8.99160000 0.146393 0.9881 0.989220 -88.21 0.989220 -88.21 0.146389 2.5863
8.99180000 0.146425 0.9918 0.989215 -88.22 0.989215 -88.22 0.146421 2.5745
8.99200000 0.146458 0.9955 0.989210 -88.22 0.989210 -88.22 0.146454 2.5627
8.99220000 0.146490 0.9992 0.989205 -88.22 0.989205 -88.22 0.146486 2.5509
8.99240000 0.146523 1.0030 0.989200 -88.23 0.989200 -88.23 0.146519 2.5390
8.99260000 0.146556 1.0068 0.989195 -88.23 0.989195 -88.23 0.146552 2.5271
8.99280000 0.146589 1.0106 0.989190 -88.24 0.989190 -88.24 0.146585 2.5151
8.99300000 0.146622 1.0145 0.989185 -88.24 0.989185 -88.24 0.146618 2.5030
8.99320000 0.146656 1.0183 0.989180 -88.24 0.989180 -88.24 0.146651 2.4909
8.99340000 0.146689 1.0222 0.989175 -88.25 0.989175 -88.25 0.146685 2.4788
8.99360000 0.146723 1.0262 0.989170 -88.25 0.989170 -88.25 0.146719 2.4666
8.99380000 0.146757 1.0301 0.989165 -88.26 0.989165 -88.26 0.146752 2.4543
8.99400000 0.146791 1.0341 0.989160 -88.26 0.989160 -88.26 0.146786 2.4420
8.99420000 0.146825 1.0381 0.989155 -88.27 0.989155 -88.27 0.146821 2.4297
8.99440000 0.146859 1.0422 0.989150 -88.27 0.989150 -88.27 0.146855 2.4173
8.99460000 0.146894 1.0463 0.989145 -88.27 0.989145 -88.27 0.146890 2.4048
8.99480000 0.146929 1.0504 0.989140 -88.28 0.989140 -88.28 0.146924 2.3923
8.99500000 0.146964 1.0545 0.989135 -88.28 0.989135 -88.28 0.146959 2.3797
8.99520000 0.146999 1.0587 0.989129 -88.29 0.989129 -88.29 0.146994 2.3670
8.99540000 0.147034 1.0629 0.989124 -88.29 0.989124 -88.29 0.147030 2.3544
8.99560000 0.147070 1.0672 0.989119 -88.30 0.989119 -88.30 0.147065 2.3416
8.99580000 0.147105 1.0714 0.989113 -88.30 0.989113 -88.30 0.147101 2.3288
8.99600000 0.147141 1.0757 0.989108 -88.30 0.989108 -88.30 0.147136 2.3159
8.99620000 0.147177 1.0801 0.989103 -88.31 0.989103 -88.31 0.147172 2.3030
8.99640000 0.147213 1.0845 0.989097 -88.31 0.989097 -88.31 0.147209 2.2900
8.99660000 0.147250 1.0889 0.989092 -88.32 0.989092 -88.32 0.147245 2.2770
8.99680000 0.147286 1.0933 0.989086 -88.32 0.989086 -88.32 0.147281 2.2639
8.99700000 0.147323 1.0978 0.989081 -88.33 0.989081 -88.33 0.147318 2.2507
8.99720000 0.147360 1.1023 0.989075 -88.33 0.989075 -88.33 0.147355 2.2375
8.99740000 0.147397 1.1068 0.989070 -88.33 0.989070 -88.33 0.147392 2.2242
8.99760000 0.147434 1.1114 0.989064 -88.34 0.989064 -88.34 0.147430 2.2109
8.99780000 0.147472 1.1160 0.989059 -88.34 0.989059 -88.34 0.147467 2.1975
8.99800000 0.147510 1.1206 0.989053 -88.35 0.989053 -88.35 0.147505 2.1840
8.99820000 0.147548 1.1253 0.989047 -88.35 0.989047 -88.35 0.147543 2.1705
8.99840000 0.147586 1.1300 0.989042 -88.36 0.989042 -88.36 0.147581 2.1569
8.99860000 0.147624 1.1348 0.989036 -88.36 0.989036 -88.36 0.147619 2.1432
8.99880000 0.147663 1.1395 0.989030 -88.36 0.989030 -88.36 0.147658 2.1295
8.99900000 0.147701 1.1444 0.989024 -88.37 0.989024 -88.37 0.147696 2.1157
8.99920000 0.147740 1.1492 0.989018 -88.37 0.989018 -88.37 0.147735 2.1018
8.99940000 0.147780 1.1541 0.989012 -88.38 0.989012 -88.38 0.147775 2.0879
8.99960000 0.147819 1.1590 0.989007 -88.38 0.989007 -88.38 0.147814 2.0739
8.99980000 0.147859 1.1640 0.989001 -88.39 0.989001 -88.39 0.147854 2.0599
9.00000000 0.147899 1.1690 0.988995 -88.39 0.988995 -88.39 0.147893 2.0458
9.00020000 0.147939 1.1741 0.988989 -88.40 0.988989 -88.40 0.147933 2.0316
9.00040000 0.147979 1.1791 0.988983 -88.40 0.988983 -88.40 0.147974 2.0173
9.00060000 0.148019 1.1843 0.988976 -88.41 0.988976 -88.41 0.148014 2.0030
9.00080000 0.148060 1.1894 0.988970 -88.41 0.988970 -88.41 0.148055 1.9886
9.00100000 0.148101 1.1946 0.988964 -88.41 0.988964 -88.41 0.148096 1.9741
9.00120000 0.148142 1.1999 0.988958 -88.42 0.988958 -88.42 0.148137 1.9595
9.00140000 0.148184 1.2051 0.988952 -88.42 0.988952 -88.42 0.148178 1.9449
9.00160000 0.148225 1.2104 0.988945 -88.43 0.988945 -88.43 0.148220 1.9302
9.00180000 0.148267 1.2158 0.988939 -88.43 0.988939 -88.43 0.148262 1.9155
9.00200000 0.148309 1.2212 0.988933 -88.44 0.988933 -88.44 0.148304 1.9006
9.00220000 0.148352 1.2266 0.988926 -88.44 0.988926 -88.44 0.148346 1.8857
9.00240000 0.148394 1.2321 0.988920 -88.45 0.988920 -88.45 0.148389 1.8707
9.00260000 0.148437 1.2376 0.988914 -88.45 0.988914 -88.45 0.148432 1.8557
9.00280000 0.148481 1.2432 0.988907 -88.46 0.988907 -88.46 0.148475 1.8405
9.00300000 0.148524 1.2488 0.988900 -88.46 0.988900 -88.46 0.148518 1.8253
9.00320000 0.148568 1.2545 0.988894 -88.47 0.988894 -88.47 0.148562 1.8100
9.00340000 0.148611 1.2602 0.988887 -88.47 0.988887 -88.47 0.148606 1.7947
9.00360000 0.148656 1.2659 0.988881 -88.48 0.988881 -88.48 0.148650 1.7792
9.00380000 0.148700 1.2717 0.988874 -88.48 0.988874 -88.48 0.148694 1.7637
9.00400000 0.148745 1.2775 0.988867 -88.49 0.988867 -88.49 0.148739 1.7481
9.00420000 0.148790 1.2834 0.988860 -88.49 0.988860 -88.49 0.148784 1.7324
9.00440000 0.148835 1.2893 0.988853 -88.50 0.988853 -88.50 0.148829 1.7166
9.00460000 0.148880 1.2952 0.988847 -88.50 0.988847 -88.50 0.148874 1.7007
!< P1 F=9.0046 Eeff=(6.44666795 -2.972e-5) Z0=(51.7986389 1.1952e-4) R=0.0 C=0.0 
!< P2 F=9.0046 Eeff=(6.44666795 -2.972e-5) Z0=(51.7986389 1.1952e-4) R=0.0 C=0.0 
9.00480000 0.148926 1.3013 0.988840 -88.51 0.988840 -88.51 0.148920 1.6848
9.00500000 0.148972 1.3073 0.988833 -88.51 0.988833 -88.51 0.148966 1.6688
9.00520000 0.149018 1.3134 0.988826 -88.52 0.988826 -88.52 0.149012 1.6526
9.00540000 0.149065 1.3195 0.988819 -88.52 0.988819 -88.52 0.149059 1.6364
9.00560000 0.149112 1.3257 0.988812 -88.53 0.988812 -88.53 0.149106 1.6201
9.00580000 0.149159 1.3320 0.988804 -88.53 0.988804 -88.53 0.149153 1.6038
9.00600000 0.149207 1.3383 0.988797 -88.54 0.988797 -88.54 0.149200 1.5873
9.00620000 0.149254 1.3446 0.988790 -88.54 0.988790 -88.54 0.149248 1.5708
9.00640000 0.149302 1.3510 0.988783 -88.55 0.988783 -88.55 0.149296 1.5541
9.00660000 0.149351 1.3574 0.988775 -88.55 0.988775 -88.55 0.149344 1.5374
9.00680000 0.149399 1.3639 0.988768 -88.56 0.988768 -88.56 0.149393 1.5206
9.00700000 0.149448 1.3704 0.988761 -88.56 0.988761 -88.56 0.149442 1.5036
9.00720000 0.149498 1.3770 0.988753 -88.57 0.988753 -88.57 0.149491 1.4866
9.00740000 0.149547 1.3837 0.988745 -88.57 0.988745 -88.57 0.149541 1.4695
9.00760000 0.149597 1.3904 0.988738 -88.58 0.988738 -88.58 0.149591 1.4523
9.00780000 0.149647 1.3971 0.988730 -88.58 0.988730 -88.58 0.149641 1.4350
9.00800000 0.149698 1.4039 0.988723 -88.59 0.988723 -88.59 0.149691 1.4176
9.00820000 0.149749 1.4107 0.988715 -88.59 0.988715 -88.59 0.149742 1.4001
9.00840000 0.149800 1.4176 0.988707 -88.60 0.988707 -88.60 0.149793 1.3826
9.00860000 0.149851 1.4246 0.988699 -88.60 0.988699 -88.60 0.149845 1.3649
9.00880000 0.149903 1.4316 0.988691 -88.61 0.988691 -88.61 0.149896 1.3471
9.00900000 0.149955 1.4387 0.988683 -88.61 0.988683 -88.61 0.149949 1.3292
9.00920000 0.150008 1.4458 0.988675 -88.62 0.988675 -88.62 0.150001 1.3112
9.00940000 0.150061 1.4530 0.988667 -88.63 0.988667 -88.63 0.150054 1.2931
9.00960000 0.150114 1.4602 0.988659 -88.63 0.988659 -88.63 0.150107 1.2749
9.00980000 0.150168 1.4675 0.988651 -88.64 0.988651 -88.64 0.150161 1.2566
9.01000000 0.150222 1.4748 0.988643 -88.64 0.988643 -88.64 0.150215 1.2382
9.01020000 0.150276 1.4822 0.988634 -88.65 0.988634 -88.65 0.150269 1.2196
9.01040000 0.150331 1.4897 0.988626 -88.65 0.988626 -88.65 0.150324 1.2010
9.01060000 0.150386 1.4972 0.988618 -88.66 0.988618 -88.66 0.150379 1.1823
9.01080000 0.150441 1.5048 0.988609 -88.66 0.988609 -88.66 0.150434 1.1634
9.01100000 0.150497 1.5124 0.988601 -88.67 0.988601 -88.67 0.150490 1.1444
9.01120000 0.150553 1.5201 0.988592 -88.68 0.988592 -88.68 0.150546 1.1254
9.01140000 0.150610 1.5279 0.988583 -88.68 0.988583 -88.68 0.150602 1.1062
9.01160000 0.150667 1.5357 0.988575 -88.69 0.988575 -88.69 0.150659 1.0869
9.01180000 0.150724 1.5436 0.988566 -88.69 0.988566 -88.69 0.150717 1.0674
9.01200000 0.150782 1.5516 0.988557 -88.70 0.988557 -88.70 0.150774 1.0479
9.01220000 0.150840 1.5596 0.988548 -88.70 0.988548 -88.70 0.150832 1.0282
9.01240000 0.150899 1.5677 0.988539 -88.71 0.988539 -88.71 0.150891 1.0085
9.01260000 0.150957 1.5758 0.988530 -88.72 0.988530 -88.72 0.150950 0.9886
9.01280000 0.151017 1.5840 0.988521 -88.72 0.988521 -88.72 0.151009 0.9685
9.01300000 0.151077 1.5923 0.988512 -88.73 0.988512 -88.73 0.151069 0.9484
9.01320000 0.151137 1.6006 0.988502 -88.73 0.988502 -88.73 0.151129 0.9281
9.01340000 0.151198 1.6090 0.988493 -88.74 0.988493 -88.74 0.151190 0.9077
9.01360000 0.151259 1.6175 0.988484 -88.75 0.988484 -88.75 0.151251 0.8872
9.01380000 0.151320 1.6260 0.988474 -88.75 0.988474 -88.75 0.151312 0.8665
9.01400000 0.151382 1.6347 0.988465 -88.76 0.988465 -88.76 0.151374 0.8457
9.01420000 0.151445 1.6433 0.988455 -88.76 0.988455 -88.76 0.151437 0.8248
9.01440000 0.151508 1.6521 0.988445 -88.77 0.988445 -88.77 0.151499 0.8037
9.01460000 0.151571 1.6609 0.988436 -88.78 0.988436 -88.78 0.151563 0.7825
9.01480000 0.151635 1.6698 0.988426 -88.78 0.988426 -88.78 0.151626 0.7612
9.01500000 0.151699 1.6788 0.988416 -88.79 0.988416 -88.79 0.151691 0.7398
9.01520000 0.151764 1.6878 0.988406 -88.80 0.988406 -88.80 0.151755 0.7182
9.01540000 0.151829 1.6969 0.988396 -88.80 0.988396 -88.80 0.151821 0.6964
9.01560000 0.151895 1.7061 0.988386 -88.81 0.988386 -88.81 0.151886 0.6745
9.01580000 0.151961 1.7154 0.988375 -88.81 0.988375 -88.81 0.151953 0.6525
9.01600000 0.152028 1.7248 0.988365 -88.82 0.988365 -88.82 0.152019 0.6303
9.01620000 0.152095 1.7342 0.988355 -88.83 0.988355 -88.83 0.152086 0.6080
9.01640000 0.152163 1.7437 0.988344 -88.83 0.988344 -88.83 0.152154 0.5855
9.01660000 0.152231 1.7532 0.988334 -88.84 0.988334 -88.84 0.152222 0.5629
9.01680000 0.152300 1.7629 0.988323 -88.85 0.988323 -88.85 0.152291 0.5401
9.01700000 0.152370 1.7726 0.988312 -88.85 0.988312 -88.85 0.152360 0.5172
9.01720000 0.152439 1.7825 0.988301 -88.86 0.988301 -88.86 0.152430 0.4941
9.01740000 0.152510 1.7924 0.988290 -88.87 0.988290 -88.87 0.152501 0.4709
9.01760000 0.152581 1.8023 0.988279 -88.87 0.988279 -88.87 0.152572 0.4475
9.01780000 0.152653 1.8124 0.988268 -88.88 0.988268 -88.88 0.152643 0.4240
9.01800000 0.152725 1.8226 0.988257 -88.89 0.988257 -88.89 0.152715 0.4002
9.01820000 0.152797 1.8328 0.988246 -88.89 0.988246 -88.89 0.152788 0.3764
9.01840000 0.152871 1.8431 0.988234 -88.90 0.988234 -88.90 0.152861 0.3523
9.01860000 0.152945 1.8535 0.988223 -88.91 0.988223 -88.91 0.152935 0.3281
9.01880000 0.153019 1.8640 0.988211 -88.91 0.988211 -88.91 0.153009 0.3037
9.01900000 0.153094 1.8746 0.988200 -88.92 0.988200 -88.92 0.153084 0.2792
9.01920000 0.153170 1.8853 0.988188 -88.93 0.988188 -88.93 0.153160 0.2544
9.01940000 0.153246 1.8961 0.988176 -88.93 0.988176 -88.93 0.153236 0.2295
9.01960000 0.153323 1.9069 0.988164 -88.94 0.988164 -88.94 0.153313 0.2045
9.01980000 0.153401 1.9179 0.988152 -88.95 0.988152 -88.95 0.153390 0.1792
9.02000000 0.153479 1.9289 0.988139 -88.96 0.988139 -88.96 0.153469 0.1538
9.02020000 0.153558 1.9400 0.988127 -88.96 0.988127 -88.96 0.153547 0.1281
9.02040000 0.153637 1.9513 0.988115 -88.97 0.988115 -88.97 0.153627 0.1023
9.02060000 0.153717 1.9626 0.988102 -88.98 0.988102 -88.98 0.153707 0.0763
9.02080000 0.153798 1.9740 0.988089 -88.99 0.988089 -88.99 0.153788 0.0501
9.02100000 0.153880 1.9856 0.988077 -88.99 0.988077 -88.99 0.153869 0.0237
9.02120000 0.153962 1.9972 0.988064 -89.00 0.988064 -89.00 0.153951 0.0000
9.02140000 0.154045 2.0089 0.988051 -89.01 0.988051 -89.01 0.154034 -0.030
9.02160000 0.154129 2.0208 0.988038 -89.02 0.988038 -89.02 0.154118 -0.057
9.02180000 0.154213 2.0327 0.988024 -89.02 0.988024 -89.02 0.154202 -0.084
9.02200000 0.154298 2.0447 0.988011 -89.03 0.988011 -89.03 0.154287 -0.111
9.02220000 0.154384 2.0569 0.987998 -89.04 0.987998 -89.04 0.154373 -0.139
9.02240000 0.154471 2.0691 0.987984 -89.05 0.987984 -89.05 0.154460 -0.167
9.02260000 0.154558 2.0815 0.987970 -89.05 0.987970 -89.05 0.154547 -0.195
9.02280000 0.154647 2.0939 0.987956 -89.06 0.987956 -89.06 0.154635 -0.223
9.02300000 0.154736 2.1065 0.987942 -89.07 0.987942 -89.07 0.154724 -0.251
9.02320000 0.154825 2.1192 0.987928 -89.08 0.987928 -89.08 0.154814 -0.280
9.02340000 0.154916 2.1320 0.987914 -89.09 0.987914 -89.09 0.154904 -0.309
9.02360000 0.155007 2.1449 0.987899 -89.09 0.987899 -89.09 0.154995 -0.338
9.02380000 0.155100 2.1580 0.987885 -89.10 0.987885 -89.10 0.155088 -0.367
9.02400000 0.155193 2.1711 0.987870 -89.11 0.987870 -89.11 0.155181 -0.397
9.02420000 0.155287 2.1844 0.987855 -89.12 0.987855 -89.12 0.155274 -0.427
9.02440000 0.155382 2.1978 0.987840 -89.13 0.987840 -89.13 0.155369 -0.457
9.02460000 0.155477 2.2113 0.987825 -89.13 0.987825 -89.13 0.155465 -0.487
9.02480000 0.155574 2.2249 0.987810 -89.14 0.987810 -89.14 0.155561 -0.517
9.02500000 0.155671 2.2386 0.987794 -89.15 0.987794 -89.15 0.155659 -0.548
9.02520000 0.155770 2.2525 0.987779 -89.16 0.987779 -89.16 0.155757 -0.579
9.02540000 0.155869 2.2665 0.987763 -89.17 0.987763 -89.17 0.155856 -0.610
9.02560000 0.155970 2.2806 0.987747 -89.18 0.987747 -89.18 0.155956 -0.642
9.02580000 0.156071 2.2949 0.987731 -89.19 0.987731 -89.19 0.156058 -0.674
9.02600000 0.156173 2.3093 0.987714 -89.20 0.987714 -89.20 0.156160 -0.706
9.02620000 0.156276 2.3238 0.987698 -89.20 0.987698 -89.20 0.156263 -0.738
9.02640000 0.156381 2.3385 0.987681 -89.21 0.987681 -89.21 0.156367 -0.771
9.02660000 0.156486 2.3533 0.987665 -89.22 0.987665 -89.22 0.156472 -0.804
9.02680000 0.156592 2.3682 0.987648 -89.23 0.987648 -89.23 0.156578 -0.837
9.02700000 0.156700 2.3832 0.987631 -89.24 0.987631 -89.24 0.156686 -0.870
9.02720000 0.156808 2.3985 0.987613 -89.25 0.987613 -89.25 0.156794 -0.904
9.02740000 0.156917 2.4138 0.987596 -89.26 0.987596 -89.26 0.156903 -0.938
9.02760000 0.157028 2.4293 0.987578 -89.27 0.987578 -89.27 0.157014 -0.972
9.02780000 0.157140 2.4449 0.987560 -89.28 0.987560 -89.28 0.157125 -1.007
9.02800000 0.157253 2.4607 0.987542 -89.29 0.987542 -89.29 0.157238 -1.042