! Sonnet Data File
! From: emgraph Version : 16.52
! From Project: Resonator2_extremeCap
! Data is De-embedded 
! Data File Written: 10/09/2017 23:02:46
!< HDATE 10/09/2017 15:24:44
!< MDATE 10/09/2017 17:18:05
!< PARAMS
!< Pwid1 = 2000.0
!< Pwid2 = 2000.0
!< Air_gap = 13.8
!< Width = 23.0
!< Gap = 12.0
!< END PARAMS
# GHZ S MA R 51.80000
8.98000000 0.080161 47.438 0.996748 -92.58 0.996748 -92.58 0.080095 -52.61
!< P1 F=8.98 Eeff=(6.44596789 -2.9717e-5) Z0=(51.6719783 1.1922e-4) R=0.0 C=0.0 
!< P2 F=8.98 Eeff=(6.44596789 -2.9717e-5) Z0=(51.6719783 1.1922e-4) R=0.0 C=0.0 
8.98010000 0.080216 47.534 0.996743 -92.59 0.996743 -92.59 0.080150 -52.73
8.98020000 0.080272 47.631 0.996738 -92.60 0.996738 -92.60 0.080206 -52.85
8.98030000 0.080328 47.729 0.996734 -92.61 0.996734 -92.61 0.080262 -52.96
8.98040000 0.080384 47.826 0.996729 -92.62 0.996729 -92.62 0.080318 -53.08
8.98050000 0.080442 47.924 0.996724 -92.63 0.996724 -92.63 0.080375 -53.20
8.98060000 0.080499 48.022 0.996719 -92.64 0.996719 -92.64 0.080433 -53.32
8.98070000 0.080557 48.120 0.996715 -92.65 0.996715 -92.65 0.080491 -53.44
8.98080000 0.080616 48.218 0.996710 -92.66 0.996710 -92.66 0.080549 -53.56
8.98090000 0.080675 48.317 0.996705 -92.67 0.996705 -92.67 0.080608 -53.68
8.98100000 0.080735 48.416 0.996700 -92.68 0.996700 -92.68 0.080668 -53.80
8.98110000 0.080795 48.515 0.996695 -92.69 0.996695 -92.69 0.080728 -53.92
8.98120000 0.080856 48.614 0.996690 -92.70 0.996690 -92.70 0.080788 -54.04
8.98130000 0.080917 48.714 0.996685 -92.72 0.996685 -92.72 0.080849 -54.16
8.98140000 0.080979 48.814 0.996680 -92.73 0.996680 -92.73 0.080911 -54.28
8.98150000 0.081041 48.914 0.996674 -92.74 0.996674 -92.74 0.080973 -54.40
8.98160000 0.081104 49.014 0.996669 -92.75 0.996669 -92.75 0.081036 -54.53
8.98170000 0.081168 49.114 0.996664 -92.76 0.996664 -92.76 0.081099 -54.65
8.98180000 0.081232 49.215 0.996658 -92.77 0.996658 -92.77 0.081163 -54.77
8.98190000 0.081296 49.316 0.996653 -92.78 0.996653 -92.78 0.081227 -54.89
8.98200000 0.081361 49.417 0.996648 -92.79 0.996648 -92.79 0.081292 -55.02
8.98210000 0.081427 49.518 0.996642 -92.80 0.996642 -92.80 0.081357 -55.14
8.98220000 0.081493 49.620 0.996637 -92.81 0.996637 -92.81 0.081423 -55.26
8.98230000 0.081560 49.721 0.996631 -92.82 0.996631 -92.82 0.081490 -55.39
8.98240000 0.081627 49.823 0.996625 -92.84 0.996625 -92.84 0.081557 -55.51
8.98250000 0.081695 49.925 0.996620 -92.85 0.996620 -92.85 0.081625 -55.64
8.98260000 0.081764 50.028 0.996614 -92.86 0.996614 -92.86 0.081693 -55.76
8.98270000 0.081833 50.131 0.996608 -92.87 0.996608 -92.87 0.081762 -55.89
8.98280000 0.081903 50.233 0.996602 -92.88 0.996602 -92.88 0.081831 -56.01
8.98290000 0.081973 50.336 0.996596 -92.89 0.996596 -92.89 0.081901 -56.14
8.98300000 0.082044 50.440 0.996590 -92.90 0.996590 -92.90 0.081972 -56.26
8.98310000 0.082115 50.543 0.996584 -92.91 0.996584 -92.91 0.082043 -56.39
8.98320000 0.082187 50.647 0.996578 -92.93 0.996578 -92.93 0.082115 -56.52
8.98330000 0.082260 50.751 0.996572 -92.94 0.996572 -92.94 0.082188 -56.64
8.98340000 0.082333 50.855 0.996566 -92.95 0.996566 -92.95 0.082261 -56.77
8.98350000 0.082407 50.960 0.996560 -92.96 0.996560 -92.96 0.082335 -56.90
8.98360000 0.082482 51.064 0.996553 -92.97 0.996553 -92.97 0.082409 -57.03
8.98370000 0.082557 51.169 0.996547 -92.98 0.996547 -92.98 0.082484 -57.15
8.98380000 0.082633 51.274 0.996540 -92.99 0.996540 -92.99 0.082560 -57.28
8.98390000 0.082710 51.379 0.996534 -93.01 0.996534 -93.01 0.082636 -57.41
8.98400000 0.082787 51.485 0.996527 -93.02 0.996527 -93.02 0.082713 -57.54
8.98410000 0.082865 51.590 0.996521 -93.03 0.996521 -93.03 0.082790 -57.67
8.98420000 0.082943 51.696 0.996514 -93.04 0.996514 -93.04 0.082869 -57.80
8.98430000 0.083022 51.803 0.996507 -93.05 0.996507 -93.05 0.082948 -57.93
8.98440000 0.083102 51.909 0.996501 -93.07 0.996501 -93.07 0.083027 -58.06
8.98450000 0.083183 52.015 0.996494 -93.08 0.996494 -93.08 0.083108 -58.19
8.98460000 0.083264 52.122 0.996487 -93.09 0.996487 -93.09 0.083189 -58.32
8.98470000 0.083346 52.229 0.996480 -93.10 0.996480 -93.10 0.083270 -58.45
8.98480000 0.083428 52.336 0.996473 -93.11 0.996473 -93.11 0.083353 -58.59
8.98490000 0.083512 52.444 0.996466 -93.13 0.996466 -93.13 0.083436 -58.72
8.98500000 0.083596 52.551 0.996458 -93.14 0.996458 -93.14 0.083519 -58.85
8.98510000 0.083680 52.659 0.996451 -93.15 0.996451 -93.15 0.083604 -58.98
8.98520000 0.083766 52.767 0.996444 -93.16 0.996444 -93.16 0.083689 -59.12
8.98530000 0.083852 52.876 0.996436 -93.17 0.996436 -93.17 0.083775 -59.25
8.98540000 0.083939 52.984 0.996429 -93.19 0.996429 -93.19 0.083861 -59.38
8.98550000 0.084026 53.093 0.996421 -93.20 0.996421 -93.20 0.083949 -59.52
8.98560000 0.084115 53.202 0.996414 -93.21 0.996414 -93.21 0.084037 -59.65
8.98570000 0.084204 53.311 0.996406 -93.22 0.996406 -93.22 0.084126 -59.78
8.98580000 0.084293 53.420 0.996398 -93.24 0.996398 -93.24 0.084215 -59.92
8.98590000 0.084384 53.530 0.996390 -93.25 0.996390 -93.25 0.084306 -60.05
8.98600000 0.084475 53.639 0.996382 -93.26 0.996382 -93.26 0.084397 -60.19
8.98610000 0.084567 53.749 0.996375 -93.28 0.996375 -93.28 0.084489 -60.32
8.98620000 0.084660 53.860 0.996366 -93.29 0.996366 -93.29 0.084581 -60.46
8.98630000 0.084754 53.970 0.996358 -93.30 0.996358 -93.30 0.084675 -60.60
8.98640000 0.084848 54.080 0.996350 -93.31 0.996350 -93.31 0.084769 -60.73
8.98650000 0.084944 54.191 0.996342 -93.33 0.996342 -93.33 0.084864 -60.87
8.98660000 0.085040 54.302 0.996333 -93.34 0.996333 -93.34 0.084960 -61.01
8.98670000 0.085137 54.413 0.996325 -93.35 0.996325 -93.35 0.085056 -61.14
8.98680000 0.085234 54.525 0.996316 -93.37 0.996316 -93.37 0.085154 -61.28
8.98690000 0.085333 54.636 0.996308 -93.38 0.996308 -93.38 0.085252 -61.42
8.98700000 0.085432 54.748 0.996299 -93.39 0.996299 -93.39 0.085351 -61.56
8.98710000 0.085532 54.860 0.996290 -93.41 0.996290 -93.41 0.085451 -61.70
8.98720000 0.085633 54.972 0.996282 -93.42 0.996282 -93.42 0.085551 -61.84
8.98730000 0.085735 55.085 0.996273 -93.43 0.996273 -93.43 0.085653 -61.98
8.98740000 0.085837 55.197 0.996264 -93.45 0.996264 -93.45 0.085755 -62.12
8.98750000 0.085941 55.310 0.996254 -93.46 0.996254 -93.46 0.085859 -62.26
8.98760000 0.086045 55.423 0.996245 -93.47 0.996245 -93.47 0.085963 -62.40
8.98770000 0.086151 55.536 0.996236 -93.49 0.996236 -93.49 0.086068 -62.54
8.98780000 0.086257 55.649 0.996227 -93.50 0.996227 -93.50 0.086174 -62.68
8.98790000 0.086364 55.763 0.996217 -93.51 0.996217 -93.51 0.086280 -62.82
8.98800000 0.086472 55.877 0.996208 -93.53 0.996208 -93.53 0.086388 -62.96
8.98810000 0.086580 55.990 0.996198 -93.54 0.996198 -93.54 0.086496 -63.10
8.98820000 0.086690 56.105 0.996188 -93.55 0.996188 -93.55 0.086606 -63.24
8.98830000 0.086801 56.219 0.996178 -93.57 0.996178 -93.57 0.086716 -63.39
8.98840000 0.086912 56.333 0.996168 -93.58 0.996168 -93.58 0.086828 -63.53
8.98850000 0.087025 56.448 0.996158 -93.60 0.996158 -93.60 0.086940 -63.67
8.98860000 0.087138 56.563 0.996148 -93.61 0.996148 -93.61 0.087053 -63.81
8.98870000 0.087253 56.678 0.996138 -93.62 0.996138 -93.62 0.087167 -63.96
8.98880000 0.087368 56.793 0.996128 -93.64 0.996128 -93.64 0.087282 -64.10
8.98890000 0.087484 56.909 0.996117 -93.65 0.996117 -93.65 0.087398 -64.25
8.98900000 0.087601 57.024 0.996107 -93.67 0.996107 -93.67 0.087515 -64.39
8.98910000 0.087720 57.140 0.996096 -93.68 0.996096 -93.68 0.087633 -64.53
8.98920000 0.087839 57.256 0.996086 -93.70 0.996086 -93.70 0.087752 -64.68
8.98930000 0.087959 57.372 0.996075 -93.71 0.996075 -93.71 0.087872 -64.83
8.98940000 0.088080 57.488 0.996064 -93.73 0.996064 -93.73 0.087993 -64.97
8.98950000 0.088202 57.605 0.996053 -93.74 0.996053 -93.74 0.088115 -65.12
8.98960000 0.088326 57.722 0.996042 -93.75 0.996042 -93.75 0.088238 -65.26
8.98970000 0.088450 57.838 0.996030 -93.77 0.996030 -93.77 0.088362 -65.41
8.98980000 0.088575 57.955 0.996019 -93.78 0.996019 -93.78 0.088487 -65.56
8.98990000 0.088701 58.073 0.996008 -93.80 0.996008 -93.80 0.088613 -65.70
8.99000000 0.088829 58.190 0.995996 -93.81 0.995996 -93.81 0.088740 -65.85
8.99010000 0.088957 58.307 0.995984 -93.83 0.995984 -93.83 0.088868 -66.00
8.99020000 0.089087 58.425 0.995973 -93.84 0.995973 -93.84 0.088997 -66.15
8.99030000 0.089217 58.543 0.995961 -93.86 0.995961 -93.86 0.089127 -66.30
8.99040000 0.089349 58.661 0.995949 -93.87 0.995949 -93.87 0.089259 -66.44
8.99050000 0.089481 58.779 0.995937 -93.89 0.995937 -93.89 0.089391 -66.59
8.99060000 0.089615 58.898 0.995924 -93.90 0.995924 -93.90 0.089524 -66.74
8.99070000 0.089750 59.016 0.995912 -93.92 0.995912 -93.92 0.089659 -66.89
8.99080000 0.089886 59.135 0.995899 -93.94 0.995899 -93.94 0.089795 -67.04
8.99090000 0.090023 59.254 0.995887 -93.95 0.995887 -93.95 0.089932 -67.19
8.99100000 0.090162 59.373 0.995874 -93.97 0.995874 -93.97 0.090070 -67.34
8.99110000 0.090301 59.492 0.995861 -93.98 0.995861 -93.98 0.090209 -67.49
8.99120000 0.090442 59.611 0.995848 -94.00 0.995848 -94.00 0.090349 -67.64
8.99130000 0.090584 59.731 0.995835 -94.01 0.995835 -94.01 0.090491 -67.79
8.99140000 0.090726 59.850 0.995822 -94.03 0.995822 -94.03 0.090633 -67.95
8.99150000 0.090871 59.970 0.995808 -94.05 0.995808 -94.05 0.090777 -68.10
8.99160000 0.091016 60.090 0.995795 -94.06 0.995795 -94.06 0.090922 -68.25
8.99170000 0.091162 60.210 0.995781 -94.08 0.995781 -94.08 0.091068 -68.40
8.99180000 0.091310 60.330 0.995767 -94.09 0.995767 -94.09 0.091216 -68.56
8.99190000 0.091459 60.450 0.995754 -94.11 0.995754 -94.11 0.091365 -68.71
8.99200000 0.091609 60.571 0.995739 -94.13 0.995739 -94.13 0.091515 -68.86
8.99210000 0.091761 60.692 0.995725 -94.14 0.995725 -94.14 0.091666 -69.02
8.99220000 0.091913 60.812 0.995711 -94.16 0.995711 -94.16 0.091818 -69.17
8.99230000 0.092067 60.933 0.995696 -94.18 0.995696 -94.18 0.091972 -69.32
8.99240000 0.092223 61.054 0.995682 -94.19 0.995682 -94.19 0.092127 -69.48
8.99250000 0.092379 61.176 0.995667 -94.21 0.995667 -94.21 0.092283 -69.63
8.99260000 0.092537 61.297 0.995652 -94.23 0.995652 -94.23 0.092440 -69.79
8.99270000 0.092696 61.418 0.995637 -94.24 0.995637 -94.24 0.092599 -69.94
8.99280000 0.092856 61.540 0.995622 -94.26 0.995622 -94.26 0.092759 -70.10
8.99290000 0.093018 61.662 0.995607 -94.28 0.995607 -94.28 0.092921 -70.26
8.99300000 0.093181 61.783 0.995591 -94.29 0.995591 -94.29 0.093083 -70.41
8.99310000 0.093346 61.905 0.995575 -94.31 0.995575 -94.31 0.093248 -70.57
8.99320000 0.093512 62.027 0.995559 -94.33 0.995559 -94.33 0.093413 -70.73
8.99330000 0.093679 62.150 0.995543 -94.35 0.995543 -94.35 0.093580 -70.88
8.99340000 0.093847 62.272 0.995527 -94.36 0.995527 -94.36 0.093748 -71.04
8.99350000 0.094017 62.394 0.995511 -94.38 0.995511 -94.38 0.093918 -71.20
8.99360000 0.094189 62.517 0.995495 -94.40 0.995495 -94.40 0.094089 -71.36
8.99370000 0.094361 62.640 0.995478 -94.42 0.995478 -94.42 0.094261 -71.51
8.99380000 0.094536 62.762 0.995461 -94.43 0.995461 -94.43 0.094435 -71.67
8.99390000 0.094711 62.885 0.995444 -94.45 0.995444 -94.45 0.094611 -71.83
8.99400000 0.094888 63.008 0.995427 -94.47 0.995427 -94.47 0.094787 -71.99
8.99410000 0.095067 63.131 0.995410 -94.49 0.995410 -94.49 0.094966 -72.15
8.99420000 0.095247 63.255 0.995392 -94.50 0.995392 -94.50 0.095145 -72.31
8.99430000 0.095429 63.378 0.995374 -94.52 0.995374 -94.52 0.095327 -72.47
8.99440000 0.095612 63.501 0.995357 -94.54 0.995357 -94.54 0.095509 -72.63
8.99450000 0.095796 63.625 0.995338 -94.56 0.995338 -94.56 0.095694 -72.79
8.99460000 0.095982 63.748 0.995320 -94.58 0.995320 -94.58 0.095879 -72.95
8.99470000 0.096170 63.872 0.995302 -94.60 0.995302 -94.60 0.096067 -73.11
8.99480000 0.096359 63.996 0.995283 -94.61 0.995283 -94.61 0.096256 -73.27
8.99490000 0.096550 64.120 0.995264 -94.63 0.995264 -94.63 0.096446 -73.43
8.99500000 0.096742 64.244 0.995245 -94.65 0.995245 -94.65 0.096638 -73.60
8.99510000 0.096936 64.368 0.995226 -94.67 0.995226 -94.67 0.096832 -73.76
8.99520000 0.097132 64.492 0.995207 -94.69 0.995207 -94.69 0.097027 -73.92
8.99530000 0.097329 64.616 0.995187 -94.71 0.995187 -94.71 0.097224 -74.08
8.99540000 0.097528 64.740 0.995167 -94.73 0.995167 -94.73 0.097422 -74.25
8.99550000 0.097728 64.865 0.995148 -94.75 0.995148 -94.75 0.097622 -74.41
8.99560000 0.097930 64.989 0.995127 -94.77 0.995127 -94.77 0.097824 -74.57
8.99570000 0.098134 65.114 0.995107 -94.79 0.995107 -94.79 0.098028 -74.74
8.99580000 0.098340 65.238 0.995086 -94.81 0.995086 -94.81 0.098233 -74.90
8.99590000 0.098547 65.363 0.995065 -94.83 0.995065 -94.83 0.098440 -75.06
8.99600000 0.098756 65.488 0.995044 -94.85 0.995044 -94.85 0.098648 -75.23
8.99610000 0.098966 65.612 0.995023 -94.87 0.995023 -94.87 0.098859 -75.39
8.99620000 0.099179 65.737 0.995002 -94.88 0.995002 -94.88 0.099071 -75.56
8.99630000 0.099393 65.862 0.994980 -94.90 0.994980 -94.90 0.099284 -75.72
8.99640000 0.099609 65.987 0.994958 -94.93 0.994958 -94.93 0.099500 -75.89
8.99650000 0.099827 66.112 0.994936 -94.95 0.994936 -94.95 0.099717 -76.06
8.99660000 0.100046 66.237 0.994913 -94.97 0.994913 -94.97 0.099937 -76.22
8.99670000 0.100268 66.362 0.994891 -94.99 0.994891 -94.99 0.100158 -76.39
8.99680000 0.100491 66.487 0.994868 -95.01 0.994868 -95.01 0.100381 -76.55
8.99690000 0.100716 66.612 0.994845 -95.03 0.994845 -95.03 0.100605 -76.72
8.99700000 0.100943 66.738 0.994821 -95.05 0.994821 -95.05 0.100832 -76.89
8.99710000 0.101172 66.863 0.994798 -95.07 0.994798 -95.07 0.101061 -77.06
8.99720000 0.101403 66.988 0.994774 -95.09 0.994774 -95.09 0.101291 -77.22
8.99730000 0.101635 67.114 0.994750 -95.11 0.994750 -95.11 0.101523 -77.39
8.99740000 0.101870 67.239 0.994725 -95.13 0.994725 -95.13 0.101758 -77.56
8.99750000 0.102107 67.364 0.994701 -95.15 0.994701 -95.15 0.101994 -77.73
8.99760000 0.102345 67.490 0.994676 -95.18 0.994676 -95.18 0.102232 -77.90
8.99770000 0.102586 67.615 0.994651 -95.20 0.994651 -95.20 0.102472 -78.06
8.99780000 0.102828 67.741 0.994625 -95.22 0.994625 -95.22 0.102715 -78.23
8.99790000 0.103073 67.866 0.994599 -95.24 0.994599 -95.24 0.102959 -78.40
8.99800000 0.103320 67.991 0.994573 -95.26 0.994573 -95.26 0.103205 -78.57
8.99810000 0.103568 68.117 0.994547 -95.28 0.994547 -95.28 0.103453 -78.74
8.99820000 0.103819 68.242 0.994521 -95.31 0.994521 -95.31 0.103704 -78.91
8.99830000 0.104072 68.368 0.994494 -95.33 0.994494 -95.33 0.103956 -79.08
8.99840000 0.104327 68.493 0.994467 -95.35 0.994467 -95.35 0.104211 -79.25
8.99850000 0.104584 68.619 0.994439 -95.37 0.994439 -95.37 0.104468 -79.42
8.99860000 0.104844 68.744 0.994412 -95.40 0.994412 -95.40 0.104727 -79.60
8.99870000 0.105105 68.870 0.994383 -95.42 0.994383 -95.42 0.104988 -79.77
8.99880000 0.105369 68.995 0.994355 -95.44 0.994355 -95.44 0.105251 -79.94
8.99890000 0.105635 69.121 0.994327 -95.46 0.994327 -95.46 0.105517 -80.11
8.99900000 0.105903 69.246 0.994298 -95.49 0.994298 -95.49 0.105785 -80.28
8.99910000 0.106173 69.372 0.994268 -95.51 0.994268 -95.51 0.106055 -80.45
8.99920000 0.106446 69.497 0.994239 -95.53 0.994239 -95.53 0.106327 -80.63
8.99930000 0.106721 69.623 0.994209 -95.56 0.994209 -95.56 0.106602 -80.80
8.99940000 0.106998 69.748 0.994178 -95.58 0.994178 -95.58 0.106879 -80.97
8.99950000 0.107278 69.873 0.994148 -95.61 0.994148 -95.61 0.107158 -81.15
8.99960000 0.107560 69.999 0.994117 -95.63 0.994117 -95.63 0.107440 -81.32
8.99970000 0.107844 70.124 0.994086 -95.65 0.994086 -95.65 0.107724 -81.49
8.99980000 0.108131 70.249 0.994054 -95.68 0.994054 -95.68 0.108010 -81.67
8.99990000 0.108420 70.374 0.994022 -95.70 0.994022 -95.70 0.108299 -81.84
9.00000000 0.108712 70.499 0.993990 -95.73 0.993990 -95.73 0.108590 -82.02
9.00010000 0.109006 70.624 0.993957 -95.75 0.993957 -95.75 0.108884 -82.19
9.00020000 0.109303 70.750 0.993924 -95.78 0.993924 -95.78 0.109180 -82.37
9.00030000 0.109602 70.874 0.993891 -95.80 0.993891 -95.80 0.109479 -82.54
9.00040000 0.109904 70.999 0.993857 -95.83 0.993857 -95.83 0.109780 -82.72
9.00050000 0.110208 71.124 0.993823 -95.85 0.993823 -95.85 0.110084 -82.89
9.00060000 0.110515 71.249 0.993788 -95.88 0.993788 -95.88 0.110390 -83.07
9.00070000 0.110824 71.374 0.993753 -95.90 0.993753 -95.90 0.110699 -83.24
9.00080000 0.111136 71.498 0.993718 -95.93 0.993718 -95.93 0.111011 -83.42
9.00090000 0.111451 71.623 0.993682 -95.95 0.993682 -95.95 0.111325 -83.60
9.00100000 0.111769 71.747 0.993646 -95.98 0.993646 -95.98 0.111642 -83.77
9.00110000 0.112089 71.872 0.993609 -96.00 0.993609 -96.00 0.111962 -83.95
9.00120000 0.112412 71.996 0.993572 -96.03 0.993572 -96.03 0.112285 -84.13
9.00130000 0.112737 72.120 0.993535 -96.06 0.993535 -96.06 0.112610 -84.31
9.00140000 0.113066 72.245 0.993497 -96.08 0.993497 -96.08 0.112938 -84.48
9.00150000 0.113397 72.369 0.993459 -96.11 0.993459 -96.11 0.113269 -84.66
9.00160000 0.113731 72.493 0.993420 -96.14 0.993420 -96.14 0.113602 -84.84
9.00170000 0.114068 72.616 0.993381 -96.16 0.993381 -96.16 0.113939 -85.02
9.00180000 0.114408 72.740 0.993341 -96.19 0.993341 -96.19 0.114278 -85.20
9.00190000 0.114750 72.864 0.993301 -96.22 0.993301 -96.22 0.114621 -85.37
9.00200000 0.115096 72.987 0.993260 -96.25 0.993260 -96.25 0.114966 -85.55
9.00210000 0.115445 73.111 0.993219 -96.27 0.993219 -96.27 0.115314 -85.73
9.00220000 0.115796 73.234 0.993178 -96.30 0.993178 -96.30 0.115665 -85.91
9.00230000 0.116151 73.357 0.993136 -96.33 0.993136 -96.33 0.116020 -86.09
9.00240000 0.116509 73.480 0.993093 -96.36 0.993093 -96.36 0.116377 -86.27
9.00250000 0.116870 73.603 0.993050 -96.39 0.993050 -96.39 0.116737 -86.45
9.00260000 0.117234 73.726 0.993007 -96.42 0.993007 -96.42 0.117101 -86.63
9.00270000 0.117601 73.848 0.992963 -96.44 0.992963 -96.44 0.117467 -86.81
9.00280000 0.117971 73.971 0.992918 -96.47 0.992918 -96.47 0.117837 -86.99
9.00290000 0.118344 74.093 0.992873 -96.50 0.992873 -96.50 0.118210 -87.17
9.00300000 0.118721 74.215 0.992828 -96.53 0.992828 -96.53 0.118587 -87.35
9.00310000 0.119101 74.337 0.992781 -96.56 0.992781 -96.56 0.118966 -87.54
9.00320000 0.119485 74.459 0.992735 -96.59 0.992735 -96.59 0.119349 -87.72
9.00330000 0.119871 74.581 0.992688 -96.62 0.992688 -96.62 0.119735 -87.90
9.00340000 0.120261 74.702 0.992640 -96.65 0.992640 -96.65 0.120125 -88.08
9.00350000 0.120655 74.824 0.992591 -96.68 0.992591 -96.68 0.120518 -88.26
9.00360000 0.121052 74.945 0.992542 -96.71 0.992542 -96.71 0.120914 -88.45
9.00370000 0.121452 75.066 0.992493 -96.74 0.992493 -96.74 0.121314 -88.63
9.00380000 0.121856 75.187 0.992443 -96.77 0.992443 -96.77 0.121718 -88.81
9.00390000 0.122263 75.307 0.992392 -96.80 0.992392 -96.80 0.122125 -88.99
9.00400000 0.122674 75.428 0.992340 -96.83 0.992340 -96.83 0.122535 -89.18
9.00410000 0.123089 75.548 0.992288 -96.87 0.992288 -96.87 0.122949 -89.36
9.00420000 0.123507 75.668 0.992236 -96.90 0.992236 -96.90 0.123367 -89.55
9.00430000 0.123929 75.788 0.992182 -96.93 0.992182 -96.93 0.123789 -89.73
9.00440000 0.124355 75.907 0.992128 -96.96 0.992128 -96.96 0.124214 -89.91
9.00450000 0.124784 76.027 0.992074 -96.99 0.992074 -96.99 0.124643 -90.10
9.00460000 0.125217 76.146 0.992018 -97.03 0.992018 -97.03 0.125075 -90.28
9.00470000 0.125654 76.265 0.991962 -97.06 0.991962 -97.06 0.125512 -90.47
9.00480000 0.126095 76.383 0.991906 -97.09 0.991906 -97.09 0.125952 -90.65
9.00490000 0.126540 76.502 0.991848 -97.12 0.991848 -97.12 0.126397 -90.84
9.00500000 0.126989 76.620 0.991790 -97.16 0.991790 -97.16 0.126845 -91.02
9.00510000 0.127442 76.738 0.991731 -97.19 0.991731 -97.19 0.127297 -91.21
9.00520000 0.127898 76.856 0.991672 -97.23 0.991672 -97.23 0.127754 -91.39
9.00530000 0.128359 76.973 0.991611 -97.26 0.991611 -97.26 0.128214 -91.58
9.00540000 0.128824 77.091 0.991550 -97.29 0.991550 -97.29 0.128679 -91.77
9.00550000 0.129294 77.208 0.991488 -97.33 0.991488 -97.33 0.129147 -91.95
9.00560000 0.129767 77.324 0.991426 -97.36 0.991426 -97.36 0.129620 -92.14
9.00570000 0.130245 77.441 0.991362 -97.40 0.991362 -97.40 0.130097 -92.33
9.00580000 0.130727 77.557 0.991298 -97.43 0.991298 -97.43 0.130579 -92.51
9.00590000 0.131213 77.673 0.991233 -97.47 0.991233 -97.47 0.131065 -92.70
9.00600000 0.131704 77.789 0.991167 -97.50 0.991167 -97.50 0.131555 -92.89
9.00610000 0.132199 77.904 0.991100 -97.54 0.991100 -97.54 0.132050 -93.08
9.00620000 0.132698 78.019 0.991033 -97.58 0.991033 -97.58 0.132549 -93.26
9.00630000 0.133202 78.134 0.990964 -97.61 0.990964 -97.61 0.133052 -93.45
9.00640000 0.133711 78.248 0.990895 -97.65 0.990895 -97.65 0.133560 -93.64
9.00650000 0.134225 78.363 0.990824 -97.69 0.990824 -97.69 0.134073 -93.83
9.00660000 0.134743 78.476 0.990753 -97.72 0.990753 -97.72 0.134591 -94.02
9.00670000 0.135265 78.590 0.990681 -97.76 0.990681 -97.76 0.135113 -94.21
9.00680000 0.135793 78.703 0.990608 -97.80 0.990608 -97.80 0.135640 -94.40
9.00690000 0.136325 78.816 0.990534 -97.84 0.990534 -97.84 0.136172 -94.59
9.00700000 0.136862 78.929 0.990459 -97.88 0.990459 -97.88 0.136708 -94.78
9.00710000 0.137405 79.041 0.990383 -97.91 0.990383 -97.91 0.137250 -94.97
9.00720000 0.137952 79.153 0.990306 -97.95 0.990306 -97.95 0.137797 -95.16
9.00730000 0.138504 79.264 0.990228 -97.99 0.990228 -97.99 0.138348 -95.35
9.00740000 0.139061 79.375 0.990149 -98.03 0.990149 -98.03 0.138905 -95.54
9.00750000 0.139624 79.486 0.990068 -98.07 0.990068 -98.07 0.139467 -95.73
9.00760000 0.140191 79.597 0.989987 -98.11 0.989987 -98.11 0.140034 -95.92
9.00770000 0.140764 79.707 0.989905 -98.15 0.989905 -98.15 0.140606 -96.11
9.00780000 0.141342 79.816 0.989821 -98.19 0.989821 -98.19 0.141184 -96.30
9.00790000 0.141926 79.926 0.989737 -98.23 0.989737 -98.23 0.141767 -96.50
9.00800000 0.142515 80.035 0.989651 -98.28 0.989651 -98.28 0.142356 -96.69
9.00810000 0.143110 80.143 0.989564 -98.32 0.989564 -98.32 0.142950 -96.88
9.00820000 0.143710 80.251 0.989476 -98.36 0.989476 -98.36 0.143549 -97.07
9.00830000 0.144316 80.359 0.989387 -98.40 0.989387 -98.40 0.144155 -97.27
9.00840000 0.144927 80.467 0.989296 -98.44 0.989296 -98.44 0.144766 -97.46
9.00850000 0.145545 80.573 0.989205 -98.49 0.989205 -98.49 0.145382 -97.65
9.00860000 0.146168 80.680 0.989112 -98.53 0.989112 -98.53 0.146005 -97.85
9.00870000 0.146797 80.786 0.989017 -98.57 0.989017 -98.57 0.146633 -98.04
9.00880000 0.147432 80.892 0.988922 -98.62 0.988922 -98.62 0.147268 -98.23
9.00890000 0.148073 80.997 0.988825 -98.66 0.988825 -98.66 0.147908 -98.43
9.00900000 0.148720 81.102 0.988726 -98.71 0.988726 -98.71 0.148555 -98.62
9.00910000 0.149373 81.206 0.988627 -98.75 0.988627 -98.75 0.149207 -98.82
9.00920000 0.150033 81.310 0.988526 -98.80 0.988526 -98.80 0.149866 -99.01
9.00930000 0.150699 81.413 0.988423 -98.84 0.988423 -98.84 0.150531 -99.21
9.00940000 0.151371 81.516 0.988319 -98.89 0.988319 -98.89 0.151203 -99.40
9.00950000 0.152050 81.619 0.988214 -98.94 0.988214 -98.94 0.151881 -99.60
9.00960000 0.152735 81.721 0.988107 -98.98 0.988107 -98.98 0.152566 -99.80
9.00970000 0.153427 81.822 0.987998 -99.03 0.987998 -99.03 0.153257 -99.99
9.00980000 0.154125 81.923 0.987888 -99.08 0.987888 -99.08 0.153955 -100.2
9.00990000 0.154831 82.024 0.987777 -99.13 0.987777 -99.13 0.154660 -100.4
9.01000000 0.155543 82.124 0.987663 -99.17 0.987663 -99.17 0.155372 -100.6
9.01010000 0.156262 82.223 0.987548 -99.22 0.987548 -99.22 0.156090 -100.8
9.01020000 0.156989 82.322 0.987432 -99.27 0.987432 -99.27 0.156816 -101.0
9.01030000 0.157722 82.420 0.987314 -99.32 0.987314 -99.32 0.157548 -101.2
9.01040000 0.158462 82.518 0.987194 -99.37 0.987194 -99.37 0.158288 -101.4
9.01050000 0.159210 82.616 0.987072 -99.42 0.987072 -99.42 0.159036 -101.6
9.01060000 0.159966 82.712 0.986948 -99.47 0.986948 -99.47 0.159790 -101.8
9.01070000 0.160728 82.809 0.986823 -99.52 0.986823 -99.52 0.160552 -102.0
9.01080000 0.161499 82.904 0.986696 -99.58 0.986696 -99.58 0.161322 -102.2
9.01090000 0.162277 82.999 0.986566 -99.63 0.986566 -99.63 0.162099 -102.4
9.01100000 0.163062 83.094 0.986435 -99.68 0.986435 -99.68 0.162884 -102.6
9.01110000 0.163856 83.188 0.986302 -99.73 0.986302 -99.73 0.163677 -102.8
9.01120000 0.164657 83.281 0.986167 -99.79 0.986167 -99.79 0.164478 -103.0
9.01130000 0.165467 83.374 0.986030 -99.84 0.986030 -99.84 0.165287 -103.2
9.01140000 0.166285 83.466 0.985891 -99.90 0.985891 -99.90 0.166104 -103.4
9.01150000 0.167111 83.557 0.985750 -99.95 0.985750 -99.95 0.166929 -103.6
9.01160000 0.167945 83.648 0.985606 -100.0 0.985606 -100.0 0.167763 -103.8
9.01170000 0.168788 83.739 0.985460 -100.1 0.985460 -100.1 0.168605 -104.0
9.01180000 0.169639 83.828 0.985312 -100.1 0.985312 -100.1 0.169456 -104.2
9.01190000 0.170500 83.917 0.985162 -100.2 0.985162 -100.2 0.170315 -104.4
9.01200000 0.171368 84.005 0.985010 -100.2 0.985010 -100.2 0.171183 -104.6
9.01210000 0.172246 84.093 0.984855 -100.3 0.984855 -100.3 0.172060 -104.8
9.01220000 0.173133 84.180 0.984698 -100.3 0.984698 -100.3 0.172946 -105.0
9.01230000 0.174029 84.266 0.984538 -100.4 0.984538 -100.4 0.173842 -105.2
9.01240000 0.174935 84.352 0.984375 -100.5 0.984375 -100.5 0.174746 -105.4
9.01250000 0.175849 84.436 0.984211 -100.5 0.984211 -100.5 0.175660 -105.6
9.01260000 0.176773 84.521 0.984043 -100.6 0.984043 -100.6 0.176584 -105.8
9.01270000 0.177707 84.604 0.983873 -100.6 0.983873 -100.6 0.177517 -106.0
9.01280000 0.178651 84.687 0.983700 -100.7 0.983700 -100.7 0.178460 -106.2
9.01290000 0.179605 84.769 0.983524 -100.8 0.983524 -100.8 0.179412 -106.4
9.01300000 0.180568 84.850 0.983346 -100.8 0.983346 -100.8 0.180375 -106.7
9.01310000 0.181542 84.930 0.983165 -100.9 0.983165 -100.9 0.181348 -106.9
9.01320000 0.182526 85.010 0.982980 -101.0 0.982980 -101.0 0.182332 -107.1
9.01330000 0.183521 85.089 0.982793 -101.0 0.982793 -101.0 0.183325 -107.3
9.01340000 0.184526 85.167 0.982603 -101.1 0.982603 -101.1 0.184330 -107.5
9.01350000 0.185542 85.244 0.982409 -101.2 0.982409 -101.2 0.185345 -107.7
9.01360000 0.186569 85.320 0.982212 -101.2 0.982212 -101.2 0.186371 -107.9
9.01370000 0.187607 85.396 0.982013 -101.3 0.982013 -101.3 0.187408 -108.1
9.01380000 0.188656 85.471 0.981809 -101.4 0.981809 -101.4 0.188456 -108.3
9.01390000 0.189716 85.545 0.981603 -101.4 0.981603 -101.4 0.189516 -108.5
9.01400000 0.190788 85.618 0.981392 -101.5 0.981392 -101.5 0.190587 -108.8
9.01410000 0.191872 85.690 0.981179 -101.6 0.981179 -101.6 0.191670 -109.0
9.01420000 0.192967 85.761 0.980962 -101.6 0.980962 -101.6 0.192764 -109.2
9.01430000 0.194075 85.832 0.980741 -101.7 0.980741 -101.7 0.193871 -109.4
9.01440000 0.195194 85.901 0.980516 -101.8 0.980516 -101.8 0.194990 -109.6
9.01450000 0.196327 85.970 0.980287 -101.9 0.980287 -101.9 0.196121 -109.8
9.01460000 0.197471 86.038 0.980055 -101.9 0.980055 -101.9 0.197265 -110.0
9.01470000 0.198629 86.104 0.979818 -102.0 0.979818 -102.0 0.198421 -110.3
9.01480000 0.199799 86.170 0.979578 -102.1 0.979578 -102.1 0.199590 -110.5
9.01490000 0.200982 86.235 0.979333 -102.2 0.979333 -102.2 0.200773 -110.7
9.01500000 0.202179 86.299 0.979084 -102.2 0.979084 -102.2 0.201969 -110.9
9.01510000 0.203389 86.362 0.978831 -102.3 0.978831 -102.3 0.203178 -111.1
9.01520000 0.204613 86.423 0.978573 -102.4 0.978573 -102.4 0.204401 -111.3
9.01530000 0.205850 86.484 0.978310 -102.5 0.978310 -102.5 0.205637 -111.6
9.01540000 0.207102 86.544 0.978043 -102.5 0.978043 -102.5 0.206888 -111.8
9.01550000 0.208368 86.603 0.977771 -102.6 0.977771 -102.6 0.208153 -112.0
9.01560000 0.209649 86.660 0.977494 -102.7 0.977494 -102.7 0.209433 -112.2
9.01570000 0.210944 86.717 0.977213 -102.8 0.977213 -102.8 0.210727 -112.5
9.01580000 0.212255 86.772 0.976926 -102.9 0.976926 -102.9 0.212037 -112.7
9.01590000 0.213580 86.827 0.976634 -103.0 0.976634 -103.0 0.213361 -112.9
9.01600000 0.214921 86.880 0.976336 -103.0 0.976336 -103.0 0.214701 -113.1
9.01610000 0.216278 86.932 0.976033 -103.1 0.976033 -103.1 0.216057 -113.3
9.01620000 0.217650 86.983 0.975725 -103.2 0.975725 -103.2 0.217428 -113.6
9.01630000 0.219039 87.033 0.975411 -103.3 0.975411 -103.3 0.218816 -113.8
9.01640000 0.220444 87.081 0.975091 -103.4 0.975091 -103.4 0.220220 -114.0
9.01650000 0.221866 87.129 0.974765 -103.5 0.974765 -103.5 0.221641 -114.3
9.01660000 0.223305 87.175 0.974433 -103.6 0.974433 -103.6 0.223078 -114.5
9.01670000 0.224761 87.220 0.974094 -103.7 0.974094 -103.7 0.224533 -114.7
9.01680000 0.226234 87.263 0.973750 -103.8 0.973750 -103.8 0.226005 -114.9
9.01690000 0.227725 87.306 0.973398 -103.9 0.973398 -103.9 0.227495 -115.2
9.01700000 0.229234 87.347 0.973040 -103.9 0.973040 -103.9 0.229003 -115.4
9.01710000 0.230762 87.386 0.972675 -104.0 0.972675 -104.0 0.230529 -115.6
9.01720000 0.232308 87.425 0.972303 -104.1 0.972303 -104.1 0.232074 -115.9
9.01730000 0.233873 87.462 0.971924 -104.2 0.971924 -104.2 0.233638 -116.1
9.01740000 0.235457 87.497 0.971538 -104.3 0.971538 -104.3 0.235221 -116.4
9.01750000 0.237060 87.532 0.971143 -104.4 0.971143 -104.4 0.236824 -116.6
9.01760000 0.238684 87.564 0.970742 -104.5 0.970742 -104.5 0.238446 -116.8
9.01770000 0.240328 87.596 0.970332 -104.6 0.970332 -104.6 0.240088 -117.1
9.01780000 0.241992 87.626 0.969914 -104.8 0.969914 -104.8 0.241751 -117.3
9.01790000 0.243677 87.654 0.969487 -104.9 0.969487 -104.9 0.243435 -117.5
9.01800000 0.245383 87.681 0.969052 -105.0 0.969052 -105.0 0.245140 -117.8
9.01810000 0.247111 87.706 0.968608 -105.1 0.968608 -105.1 0.246867 -118.0
9.01820000 0.248861 87.730 0.968156 -105.2 0.968156 -105.2 0.248616 -118.3
9.01830000 0.250633 87.752 0.967694 -105.3 0.967694 -105.3 0.250386 -118.5
9.01834025 0.251353 87.760 0.967505 -105.3 0.967505 -105.3 0.251105 -118.6
9.01840000 0.252428 87.773 0.967222 -105.4 0.967222 -105.4 0.252180 -118.8
9.01850000 0.254246 87.791 0.966741 -105.5 0.966741 -105.5 0.253996 -119.0
9.01860000 0.256087 87.809 0.966250 -105.6 0.966250 -105.6 0.255836 -119.3
9.01867270 0.257441 87.820 0.965886 -105.7 0.965886 -105.7 0.257189 -119.4
9.01870000 0.257952 87.824 0.965749 -105.8 0.965749 -105.8 0.257700 -119.5
9.01880000 0.259842 87.838 0.965237 -105.9 0.965237 -105.9 0.259588 -119.8
9.01890000 0.261756 87.850 0.964714 -106.0 0.964714 -106.0 0.261501 -120.0
9.01899753 0.263647 87.860 0.964194 -106.1 0.964194 -106.1 0.263391 -120.3