! Sonnet Data File
! From: emgraph Version : 16.52
! From Project: Resonator2_extremeCap
! Data is De-embedded 
! Data File Written: 10/09/2017 23:02:46
!< HDATE 10/09/2017 15:24:44
!< MDATE 10/09/2017 17:18:05
!< PARAMS
!< Pwid1 = 2000.0
!< Pwid2 = 2000.0
!< Air_gap = 7.8
!< Width = 13.0
!< Gap = 12.0
!< END PARAMS
# GHZ S MA R 51.80000
8.98000000 0.104147 26.443 0.994535 -91.11 0.994535 -91.11 0.104094 -28.66
!< P1 F=8.98 Eeff=(6.44663086 -2.972e-5) Z0=(52.9985279 1.22286e-4) R=0.0 C=0.0 
!< P2 F=8.98 Eeff=(6.44663086 -2.972e-5) Z0=(52.9985279 1.22286e-4) R=0.0 C=0.0 
8.98010000 0.104150 26.502 0.994535 -91.12 0.994535 -91.12 0.104097 -28.74
8.98020000 0.104154 26.562 0.994534 -91.13 0.994534 -91.13 0.104101 -28.81
8.98030000 0.104158 26.622 0.994534 -91.13 0.994534 -91.13 0.104105 -28.89
8.98040000 0.104163 26.682 0.994533 -91.14 0.994533 -91.14 0.104109 -28.97
8.98050000 0.104167 26.742 0.994533 -91.15 0.994533 -91.15 0.104113 -29.04
8.98060000 0.104172 26.803 0.994532 -91.16 0.994532 -91.16 0.104118 -29.12
8.98070000 0.104176 26.864 0.994532 -91.17 0.994532 -91.17 0.104122 -29.20
8.98080000 0.104181 26.925 0.994531 -91.18 0.994531 -91.18 0.104127 -29.28
8.98090000 0.104186 26.986 0.994530 -91.18 0.994530 -91.18 0.104132 -29.35
8.98100000 0.104191 27.048 0.994530 -91.19 0.994530 -91.19 0.104137 -29.43
8.98110000 0.104197 27.110 0.994529 -91.20 0.994529 -91.20 0.104142 -29.51
8.98120000 0.104202 27.171 0.994528 -91.21 0.994528 -91.21 0.104147 -29.59
8.98130000 0.104208 27.234 0.994528 -91.22 0.994528 -91.22 0.104153 -29.67
8.98140000 0.104214 27.296 0.994527 -91.23 0.994527 -91.23 0.104158 -29.75
8.98150000 0.104220 27.359 0.994526 -91.23 0.994526 -91.23 0.104164 -29.83
8.98160000 0.104226 27.422 0.994526 -91.24 0.994526 -91.24 0.104170 -29.91
8.98170000 0.104233 27.485 0.994525 -91.25 0.994525 -91.25 0.104176 -29.99
8.98180000 0.104239 27.548 0.994524 -91.26 0.994524 -91.26 0.104183 -30.07
8.98190000 0.104246 27.612 0.994523 -91.27 0.994523 -91.27 0.104189 -30.15
8.98200000 0.104253 27.676 0.994522 -91.28 0.994522 -91.28 0.104196 -30.23
8.98210000 0.104260 27.740 0.994521 -91.29 0.994521 -91.29 0.104203 -30.31
8.98220000 0.104268 27.805 0.994521 -91.30 0.994521 -91.30 0.104210 -30.39
8.98230000 0.104275 27.869 0.994520 -91.30 0.994520 -91.30 0.104218 -30.48
8.98240000 0.104283 27.934 0.994519 -91.31 0.994519 -91.31 0.104225 -30.56
8.98250000 0.104291 27.999 0.994518 -91.32 0.994518 -91.32 0.104233 -30.64
8.98260000 0.104299 28.065 0.994517 -91.33 0.994517 -91.33 0.104241 -30.72
8.98270000 0.104307 28.130 0.994516 -91.34 0.994516 -91.34 0.104249 -30.81
8.98280000 0.104316 28.196 0.994515 -91.35 0.994515 -91.35 0.104257 -30.89
8.98290000 0.104325 28.263 0.994514 -91.36 0.994514 -91.36 0.104266 -30.98
8.98300000 0.104334 28.329 0.994513 -91.37 0.994513 -91.37 0.104274 -31.06
8.98310000 0.104343 28.396 0.994512 -91.37 0.994512 -91.37 0.104283 -31.14
8.98320000 0.104352 28.463 0.994511 -91.38 0.994511 -91.38 0.104292 -31.23
8.98330000 0.104362 28.530 0.994510 -91.39 0.994510 -91.39 0.104302 -31.32
8.98340000 0.104372 28.597 0.994508 -91.40 0.994508 -91.40 0.104311 -31.40
8.98350000 0.104382 28.665 0.994507 -91.41 0.994507 -91.41 0.104321 -31.49
8.98360000 0.104392 28.733 0.994506 -91.42 0.994506 -91.42 0.104331 -31.57
8.98370000 0.104402 28.801 0.994505 -91.43 0.994505 -91.43 0.104341 -31.66
8.98380000 0.104413 28.870 0.994504 -91.44 0.994504 -91.44 0.104352 -31.75
8.98390000 0.104424 28.939 0.994502 -91.45 0.994502 -91.45 0.104363 -31.83
8.98400000 0.104435 29.008 0.994501 -91.46 0.994501 -91.46 0.104374 -31.92
8.98410000 0.104447 29.077 0.994500 -91.47 0.994500 -91.47 0.104385 -32.01
8.98420000 0.104458 29.147 0.994498 -91.48 0.994498 -91.48 0.104396 -32.10
8.98430000 0.104470 29.217 0.994497 -91.48 0.994497 -91.48 0.104408 -32.19
8.98440000 0.104482 29.287 0.994496 -91.49 0.994496 -91.49 0.104420 -32.28
8.98450000 0.104495 29.357 0.994494 -91.50 0.994494 -91.50 0.104432 -32.37
8.98460000 0.104507 29.428 0.994493 -91.51 0.994493 -91.51 0.104444 -32.46
8.98470000 0.104520 29.499 0.994491 -91.52 0.994491 -91.52 0.104457 -32.55
8.98480000 0.104533 29.570 0.994490 -91.53 0.994490 -91.53 0.104470 -32.64
8.98490000 0.104547 29.642 0.994488 -91.54 0.994488 -91.54 0.104483 -32.73
8.98500000 0.104560 29.713 0.994487 -91.55 0.994487 -91.55 0.104496 -32.82
8.98510000 0.104574 29.786 0.994485 -91.56 0.994485 -91.56 0.104510 -32.91
8.98520000 0.104588 29.858 0.994484 -91.57 0.994484 -91.57 0.104524 -33.00
8.98530000 0.104603 29.931 0.994482 -91.58 0.994482 -91.58 0.104538 -33.09
8.98540000 0.104617 30.004 0.994480 -91.59 0.994480 -91.59 0.104552 -33.19
8.98550000 0.104632 30.077 0.994479 -91.60 0.994479 -91.60 0.104567 -33.28
8.98560000 0.104648 30.150 0.994477 -91.61 0.994477 -91.61 0.104582 -33.37
8.98570000 0.104663 30.224 0.994475 -91.62 0.994475 -91.62 0.104597 -33.47
8.98580000 0.104679 30.298 0.994473 -91.63 0.994473 -91.63 0.104613 -33.56
8.98590000 0.104695 30.373 0.994472 -91.64 0.994472 -91.64 0.104629 -33.65
8.98600000 0.104711 30.447 0.994470 -91.65 0.994470 -91.65 0.104645 -33.75
8.98610000 0.104728 30.522 0.994468 -91.66 0.994468 -91.66 0.104661 -33.84
8.98620000 0.104745 30.598 0.994466 -91.67 0.994466 -91.67 0.104678 -33.94
8.98630000 0.104762 30.673 0.994464 -91.68 0.994464 -91.68 0.104695 -34.03
8.98640000 0.104780 30.749 0.994462 -91.69 0.994462 -91.69 0.104712 -34.13
8.98650000 0.104798 30.826 0.994460 -91.70 0.994460 -91.70 0.104730 -34.23
8.98660000 0.104816 30.902 0.994458 -91.71 0.994458 -91.71 0.104748 -34.32
8.98670000 0.104834 30.979 0.994456 -91.72 0.994456 -91.72 0.104766 -34.42
8.98680000 0.104853 31.056 0.994454 -91.73 0.994454 -91.73 0.104784 -34.52
8.98690000 0.104872 31.133 0.994452 -91.74 0.994452 -91.74 0.104803 -34.62
8.98700000 0.104892 31.211 0.994449 -91.75 0.994449 -91.75 0.104822 -34.72
8.98710000 0.104912 31.289 0.994447 -91.76 0.994447 -91.76 0.104842 -34.82
8.98720000 0.104932 31.368 0.994445 -91.77 0.994445 -91.77 0.104862 -34.92
8.98730000 0.104952 31.446 0.994443 -91.78 0.994443 -91.78 0.104882 -35.01
8.98740000 0.104973 31.525 0.994440 -91.79 0.994440 -91.79 0.104902 -35.11
8.98750000 0.104994 31.605 0.994438 -91.80 0.994438 -91.80 0.104923 -35.22
8.98760000 0.105016 31.684 0.994436 -91.81 0.994436 -91.81 0.104944 -35.32
8.98770000 0.105037 31.764 0.994433 -91.83 0.994433 -91.83 0.104966 -35.42
8.98780000 0.105059 31.844 0.994431 -91.84 0.994431 -91.84 0.104988 -35.52
8.98790000 0.105082 31.925 0.994428 -91.85 0.994428 -91.85 0.105010 -35.62
8.98800000 0.105105 32.006 0.994426 -91.86 0.994426 -91.86 0.105032 -35.72
8.98810000 0.105128 32.087 0.994423 -91.87 0.994423 -91.87 0.105055 -35.83
8.98820000 0.105152 32.169 0.994420 -91.88 0.994420 -91.88 0.105079 -35.93
8.98830000 0.105176 32.251 0.994418 -91.89 0.994418 -91.89 0.105102 -36.03
8.98840000 0.105200 32.333 0.994415 -91.90 0.994415 -91.90 0.105126 -36.14
8.98850000 0.105225 32.415 0.994412 -91.91 0.994412 -91.91 0.105151 -36.24
8.98860000 0.105250 32.498 0.994409 -91.92 0.994409 -91.92 0.105176 -36.35
8.98870000 0.105275 32.581 0.994407 -91.93 0.994407 -91.93 0.105201 -36.45
8.98880000 0.105301 32.665 0.994404 -91.95 0.994404 -91.95 0.105226 -36.56
8.98890000 0.105328 32.749 0.994401 -91.96 0.994401 -91.96 0.105252 -36.67
8.98900000 0.105354 32.833 0.994398 -91.97 0.994398 -91.97 0.105279 -36.77
8.98910000 0.105381 32.918 0.994395 -91.98 0.994395 -91.98 0.105306 -36.88
8.98920000 0.105409 33.003 0.994392 -91.99 0.994392 -91.99 0.105333 -36.99
8.98930000 0.105437 33.088 0.994389 -92.00 0.994389 -92.00 0.105360 -37.10
8.98940000 0.105465 33.173 0.994385 -92.01 0.994385 -92.01 0.105388 -37.20
8.98950000 0.105494 33.259 0.994382 -92.02 0.994382 -92.02 0.105417 -37.31
8.98960000 0.105523 33.346 0.994379 -92.04 0.994379 -92.04 0.105446 -37.42
8.98970000 0.105553 33.432 0.994376 -92.05 0.994376 -92.05 0.105475 -37.53
8.98980000 0.105583 33.519 0.994372 -92.06 0.994372 -92.06 0.105505 -37.64
8.98990000 0.105613 33.606 0.994369 -92.07 0.994369 -92.07 0.105535 -37.75
8.99000000 0.105644 33.694 0.994365 -92.08 0.994365 -92.08 0.105566 -37.87
8.99010000 0.105676 33.782 0.994362 -92.09 0.994362 -92.09 0.105597 -37.98
8.99020000 0.105708 33.871 0.994358 -92.11 0.994358 -92.11 0.105628 -38.09
8.99030000 0.105740 33.959 0.994355 -92.12 0.994355 -92.12 0.105660 -38.20
8.99040000 0.105773 34.048 0.994351 -92.13 0.994351 -92.13 0.105693 -38.31
8.99050000 0.105806 34.138 0.994347 -92.14 0.994347 -92.14 0.105726 -38.43
8.99060000 0.105840 34.228 0.994344 -92.15 0.994344 -92.15 0.105759 -38.54
8.99070000 0.105874 34.318 0.994340 -92.17 0.994340 -92.17 0.105793 -38.66
8.99080000 0.105909 34.408 0.994336 -92.18 0.994336 -92.18 0.105827 -38.77
8.99090000 0.105944 34.499 0.994332 -92.19 0.994332 -92.19 0.105862 -38.89
8.99100000 0.105980 34.591 0.994328 -92.20 0.994328 -92.20 0.105898 -39.00
8.99110000 0.106016 34.682 0.994324 -92.22 0.994324 -92.22 0.105934 -39.12
8.99120000 0.106053 34.774 0.994320 -92.23 0.994320 -92.23 0.105970 -39.24
!< P1 F=8.9912 Eeff=(6.44662407 -2.972e-5) Z0=(52.9984929 1.22286e-4) R=0.0 C=0.0 
!< P2 F=8.9912 Eeff=(6.44662407 -2.972e-5) Z0=(52.9984929 1.22286e-4) R=0.0 C=0.0 
8.99130000 0.106090 34.867 0.994316 -92.24 0.994316 -92.24 0.106007 -39.35
8.99140000 0.106128 34.960 0.994312 -92.25 0.994312 -92.25 0.106044 -39.47
8.99150000 0.106167 35.053 0.994307 -92.26 0.994307 -92.26 0.106082 -39.59
8.99160000 0.106205 35.146 0.994303 -92.28 0.994303 -92.28 0.106121 -39.71
8.99170000 0.106245 35.240 0.994299 -92.29 0.994299 -92.29 0.106160 -39.83
8.99180000 0.106285 35.334 0.994294 -92.30 0.994294 -92.30 0.106200 -39.95
8.99190000 0.106325 35.429 0.994290 -92.32 0.994290 -92.32 0.106240 -40.07
8.99200000 0.106366 35.524 0.994285 -92.33 0.994285 -92.33 0.106280 -40.19
8.99210000 0.106408 35.620 0.994280 -92.34 0.994280 -92.34 0.106322 -40.31
8.99220000 0.106450 35.715 0.994276 -92.35 0.994276 -92.35 0.106364 -40.43
8.99230000 0.106493 35.812 0.994271 -92.37 0.994271 -92.37 0.106406 -40.55
8.99240000 0.106537 35.908 0.994266 -92.38 0.994266 -92.38 0.106449 -40.68
8.99250000 0.106581 36.005 0.994261 -92.39 0.994261 -92.39 0.106493 -40.80
8.99260000 0.106625 36.102 0.994256 -92.41 0.994256 -92.41 0.106537 -40.92
8.99270000 0.106670 36.200 0.994251 -92.42 0.994251 -92.42 0.106582 -41.05
8.99280000 0.106716 36.298 0.994246 -92.43 0.994246 -92.43 0.106627 -41.17
8.99290000 0.106763 36.397 0.994241 -92.45 0.994241 -92.45 0.106673 -41.30
8.99300000 0.106810 36.496 0.994235 -92.46 0.994235 -92.46 0.106720 -41.42
8.99310000 0.106857 36.595 0.994230 -92.47 0.994230 -92.47 0.106767 -41.55
8.99320000 0.106906 36.695 0.994225 -92.49 0.994225 -92.49 0.106815 -41.68
8.99330000 0.106955 36.795 0.994219 -92.50 0.994219 -92.50 0.106864 -41.80
8.99340000 0.107005 36.896 0.994214 -92.51 0.994214 -92.51 0.106913 -41.93
8.99350000 0.107055 36.997 0.994208 -92.53 0.994208 -92.53 0.106963 -42.06
8.99360000 0.107106 37.098 0.994202 -92.54 0.994202 -92.54 0.107014 -42.19
8.99370000 0.107158 37.200 0.994197 -92.55 0.994197 -92.55 0.107065 -42.32
8.99380000 0.107210 37.302 0.994191 -92.57 0.994191 -92.57 0.107117 -42.45
8.99390000 0.107263 37.405 0.994185 -92.58 0.994185 -92.58 0.107169 -42.58
8.99400000 0.107317 37.508 0.994179 -92.60 0.994179 -92.60 0.107223 -42.71
8.99410000 0.107371 37.611 0.994173 -92.61 0.994173 -92.61 0.107277 -42.84
8.99420000 0.107427 37.715 0.994166 -92.62 0.994166 -92.62 0.107332 -42.97
8.99430000 0.107483 37.819 0.994160 -92.64 0.994160 -92.64 0.107387 -43.11
8.99440000 0.107539 37.924 0.994154 -92.65 0.994154 -92.65 0.107443 -43.24
8.99450000 0.107597 38.029 0.994147 -92.67 0.994147 -92.67 0.107500 -43.37
8.99460000 0.107655 38.135 0.994141 -92.68 0.994141 -92.68 0.107558 -43.51
8.99470000 0.107714 38.241 0.994134 -92.70 0.994134 -92.70 0.107617 -43.64
8.99480000 0.107774 38.347 0.994128 -92.71 0.994128 -92.71 0.107676 -43.78
8.99490000 0.107834 38.454 0.994121 -92.73 0.994121 -92.73 0.107736 -43.92
8.99500000 0.107895 38.561 0.994114 -92.74 0.994114 -92.74 0.107797 -44.05
8.99510000 0.107957 38.669 0.994107 -92.75 0.994107 -92.75 0.107859 -44.19
8.99520000 0.108020 38.777 0.994100 -92.77 0.994100 -92.77 0.107921 -44.33
8.99530000 0.108084 38.885 0.994093 -92.78 0.994093 -92.78 0.107984 -44.47
8.99540000 0.108149 38.994 0.994085 -92.80 0.994085 -92.80 0.108048 -44.61
8.99550000 0.108214 39.104 0.994078 -92.81 0.994078 -92.81 0.108113 -44.74
8.99560000 0.108280 39.213 0.994071 -92.83 0.994071 -92.83 0.108179 -44.89
8.99570000 0.108347 39.324 0.994063 -92.84 0.994063 -92.84 0.108246 -45.03
8.99580000 0.108415 39.434 0.994055 -92.86 0.994055 -92.86 0.108313 -45.17
8.99590000 0.108484 39.545 0.994048 -92.88 0.994048 -92.88 0.108382 -45.31
8.99600000 0.108554 39.657 0.994040 -92.89 0.994040 -92.89 0.108451 -45.45
8.99610000 0.108625 39.769 0.994032 -92.91 0.994032 -92.91 0.108521 -45.60
8.99620000 0.108696 39.881 0.994024 -92.92 0.994024 -92.92 0.108592 -45.74
8.99630000 0.108769 39.994 0.994015 -92.94 0.994015 -92.94 0.108664 -45.88
8.99640000 0.108842 40.108 0.994007 -92.95 0.994007 -92.95 0.108737 -46.03
8.99650000 0.108916 40.221 0.993999 -92.97 0.993999 -92.97 0.108811 -46.17
8.99660000 0.108992 40.336 0.993990 -92.98 0.993990 -92.98 0.108886 -46.32
8.99670000 0.109068 40.450 0.993982 -93.00 0.993982 -93.00 0.108961 -46.47
8.99680000 0.109145 40.566 0.993973 -93.02 0.993973 -93.02 0.109038 -46.61
8.99690000 0.109223 40.681 0.993964 -93.03 0.993964 -93.03 0.109116 -46.76
8.99700000 0.109303 40.797 0.993955 -93.05 0.993955 -93.05 0.109195 -46.91
8.99710000 0.109383 40.914 0.993946 -93.07 0.993946 -93.07 0.109274 -47.06
8.99720000 0.109464 41.031 0.993937 -93.08 0.993937 -93.08 0.109355 -47.21
8.99730000 0.109546 41.148 0.993927 -93.10 0.993927 -93.10 0.109437 -47.36
8.99740000 0.109630 41.266 0.993918 -93.11 0.993918 -93.11 0.109520 -47.51
8.99750000 0.109714 41.384 0.993908 -93.13 0.993908 -93.13 0.109603 -47.66
8.99760000 0.109800 41.503 0.993899 -93.15 0.993899 -93.15 0.109688 -47.82
8.99770000 0.109886 41.622 0.993889 -93.17 0.993889 -93.17 0.109774 -47.97
8.99780000 0.109974 41.742 0.993879 -93.18 0.993879 -93.18 0.109862 -48.12
8.99790000 0.110063 41.862 0.993869 -93.20 0.993869 -93.20 0.109950 -48.28
8.99800000 0.110152 41.983 0.993858 -93.22 0.993858 -93.22 0.110039 -48.43
8.99810000 0.110243 42.104 0.993848 -93.23 0.993848 -93.23 0.110130 -48.59
8.99820000 0.110336 42.226 0.993837 -93.25 0.993837 -93.25 0.110221 -48.75
8.99830000 0.110429 42.348 0.993827 -93.27 0.993827 -93.27 0.110314 -48.90
8.99840000 0.110523 42.470 0.993816 -93.29 0.993816 -93.29 0.110408 -49.06
8.99850000 0.110619 42.593 0.993805 -93.30 0.993805 -93.30 0.110503 -49.22
8.99860000 0.110716 42.717 0.993794 -93.32 0.993794 -93.32 0.110599 -49.38
8.99870000 0.110814 42.841 0.993783 -93.34 0.993783 -93.34 0.110697 -49.54
8.99880000 0.110913 42.965 0.993771 -93.36 0.993771 -93.36 0.110796 -49.70
8.99890000 0.111014 43.090 0.993760 -93.37 0.993760 -93.37 0.110896 -49.86
8.99900000 0.111116 43.215 0.993748 -93.39 0.993748 -93.39 0.110997 -50.02
8.99910000 0.111219 43.341 0.993736 -93.41 0.993736 -93.41 0.111100 -50.18
8.99920000 0.111323 43.467 0.993724 -93.43 0.993724 -93.43 0.111203 -50.35
8.99930000 0.111429 43.594 0.993712 -93.45 0.993712 -93.45 0.111309 -50.51
8.99940000 0.111536 43.721 0.993699 -93.47 0.993699 -93.47 0.111415 -50.67
8.99950000 0.111645 43.849 0.993687 -93.48 0.993687 -93.48 0.111523 -50.84
8.99960000 0.111755 43.977 0.993674 -93.50 0.993674 -93.50 0.111632 -51.00
8.99970000 0.111866 44.106 0.993661 -93.52 0.993661 -93.52 0.111743 -51.17
8.99980000 0.111978 44.235 0.993648 -93.54 0.993648 -93.54 0.111855 -51.34
8.99990000 0.112092 44.365 0.993635 -93.56 0.993635 -93.56 0.111968 -51.51
9.00000000 0.112208 44.495 0.993622 -93.58 0.993622 -93.58 0.112083 -51.67
9.00010000 0.112324 44.625 0.993608 -93.60 0.993608 -93.60 0.112199 -51.84
9.00020000 0.112443 44.756 0.993595 -93.62 0.993595 -93.62 0.112317 -52.01
9.00030000 0.112562 44.888 0.993581 -93.64 0.993581 -93.64 0.112436 -52.18
9.00040000 0.112684 45.020 0.993567 -93.66 0.993567 -93.66 0.112556 -52.36
9.00050000 0.112806 45.152 0.993552 -93.68 0.993552 -93.68 0.112678 -52.53
9.00060000 0.112931 45.285 0.993538 -93.69 0.993538 -93.69 0.112802 -52.70
9.00070000 0.113056 45.419 0.993523 -93.71 0.993523 -93.71 0.112927 -52.87
9.00080000 0.113184 45.553 0.993508 -93.73 0.993508 -93.73 0.113054 -53.05
9.00090000 0.113313 45.687 0.993493 -93.75 0.993493 -93.75 0.113182 -53.22
9.00100000 0.113443 45.822 0.993478 -93.77 0.993478 -93.77 0.113312 -53.40
9.00110000 0.113576 45.958 0.993462 -93.80 0.993462 -93.80 0.113444 -53.58
9.00120000 0.113710 46.094 0.993447 -93.82 0.993447 -93.82 0.113577 -53.75
9.00130000 0.113845 46.230 0.993431 -93.84 0.993431 -93.84 0.113712 -53.93
9.00140000 0.113982 46.367 0.993414 -93.86 0.993414 -93.86 0.113849 -54.11
9.00150000 0.114121 46.504 0.993398 -93.88 0.993398 -93.88 0.113987 -54.29
9.00160000 0.114262 46.642 0.993382 -93.90 0.993382 -93.90 0.114127 -54.47
9.00170000 0.114404 46.780 0.993365 -93.92 0.993365 -93.92 0.114269 -54.65
9.00180000 0.114549 46.919 0.993348 -93.94 0.993348 -93.94 0.114412 -54.83
9.00190000 0.114695 47.058 0.993330 -93.96 0.993330 -93.96 0.114557 -55.01
9.00200000 0.114842 47.198 0.993313 -93.98 0.993313 -93.98 0.114705 -55.20
9.00210000 0.114992 47.338 0.993295 -94.01 0.993295 -94.01 0.114854 -55.38
9.00220000 0.115144 47.479 0.993277 -94.03 0.993277 -94.03 0.115004 -55.56
9.00230000 0.115297 47.620 0.993259 -94.05 0.993259 -94.05 0.115157 -55.75
9.00240000 0.115452 47.762 0.993241 -94.07 0.993241 -94.07 0.115312 -55.93
9.00250000 0.115609 47.904 0.993222 -94.09 0.993222 -94.09 0.115468 -56.12
9.00260000 0.115769 48.047 0.993203 -94.11 0.993203 -94.11 0.115627 -56.31
9.00270000 0.115930 48.190 0.993184 -94.14 0.993184 -94.14 0.115787 -56.50
9.00280000 0.116093 48.334 0.993164 -94.16 0.993164 -94.16 0.115949 -56.69
9.00290000 0.116258 48.478 0.993144 -94.18 0.993144 -94.18 0.116114 -56.88
9.00300000 0.116425 48.622 0.993124 -94.21 0.993124 -94.21 0.116280 -57.07
9.00310000 0.116595 48.767 0.993104 -94.23 0.993104 -94.23 0.116449 -57.26
9.00320000 0.116766 48.913 0.993083 -94.25 0.993083 -94.25 0.116620 -57.45
9.00330000 0.116940 49.059 0.993062 -94.27 0.993062 -94.27 0.116793 -57.64
9.00340000 0.117116 49.205 0.993041 -94.30 0.993041 -94.30 0.116968 -57.84
9.00350000 0.117293 49.352 0.993020 -94.32 0.993020 -94.32 0.117145 -58.03
9.00360000 0.117474 49.500 0.992998 -94.35 0.992998 -94.35 0.117324 -58.23
9.00370000 0.117656 49.647 0.992976 -94.37 0.992976 -94.37 0.117506 -58.42
9.00380000 0.117841 49.796 0.992953 -94.39 0.992953 -94.39 0.117690 -58.62
9.00390000 0.118028 49.945 0.992931 -94.42 0.992931 -94.42 0.117876 -58.82
9.00400000 0.118217 50.094 0.992908 -94.44 0.992908 -94.44 0.118064 -59.01
9.00410000 0.118408 50.244 0.992884 -94.47 0.992884 -94.47 0.118255 -59.21
9.00420000 0.118602 50.394 0.992861 -94.49 0.992861 -94.49 0.118448 -59.41
9.00430000 0.118799 50.545 0.992837 -94.52 0.992837 -94.52 0.118644 -59.61
9.00440000 0.118998 50.696 0.992812 -94.54 0.992812 -94.54 0.118842 -59.82
9.00450000 0.119199 50.847 0.992787 -94.57 0.992787 -94.57 0.119043 -60.02
9.00460000 0.119403 50.999 0.992762 -94.59 0.992762 -94.59 0.119246 -60.22
9.00470000 0.119609 51.152 0.992737 -94.62 0.992737 -94.62 0.119451 -60.42
9.00480000 0.119818 51.305 0.992711 -94.64 0.992711 -94.64 0.119659 -60.63
9.00490000 0.120030 51.458 0.992685 -94.67 0.992685 -94.67 0.119870 -60.83
9.00500000 0.120244 51.612 0.992659 -94.69 0.992659 -94.69 0.120083 -61.04
9.00510000 0.120461 51.766 0.992632 -94.72 0.992632 -94.72 0.120300 -61.25
9.00520000 0.120681 51.921 0.992604 -94.75 0.992604 -94.75 0.120518 -61.46
9.00530000 0.120903 52.076 0.992577 -94.77 0.992577 -94.77 0.120740 -61.66
9.00540000 0.121128 52.232 0.992549 -94.80 0.992549 -94.80 0.120964 -61.87
9.00550000 0.121356 52.388 0.992520 -94.83 0.992520 -94.83 0.121191 -62.08
9.00560000 0.121587 52.544 0.992491 -94.85 0.992491 -94.85 0.121421 -62.30
9.00570000 0.121820 52.701 0.992462 -94.88 0.992462 -94.88 0.121654 -62.51
9.00580000 0.122057 52.859 0.992433 -94.91 0.992433 -94.91 0.121890 -62.72
9.00590000 0.122297 53.016 0.992402 -94.94 0.992402 -94.94 0.122128 -62.93
9.00600000 0.122539 53.175 0.992372 -94.96 0.992372 -94.96 0.122370 -63.15
9.00610000 0.122785 53.333 0.992341 -94.99 0.992341 -94.99 0.122615 -63.36
9.00620000 0.123033 53.492 0.992309 -95.02 0.992309 -95.02 0.122862 -63.58
9.00630000 0.123285 53.652 0.992277 -95.05 0.992277 -95.05 0.123113 -63.80
9.00640000 0.123540 53.812 0.992245 -95.08 0.992245 -95.08 0.123367 -64.01
9.00650000 0.123798 53.972 0.992212 -95.10 0.992212 -95.10 0.123625 -64.23
9.00660000 0.124060 54.133 0.992179 -95.13 0.992179 -95.13 0.123885 -64.45
9.00670000 0.124324 54.294 0.992145 -95.16 0.992145 -95.16 0.124149 -64.67
9.00680000 0.124592 54.455 0.992111 -95.19 0.992111 -95.19 0.124416 -64.89
9.00690000 0.124864 54.617 0.992076 -95.22 0.992076 -95.22 0.124686 -65.11
9.00700000 0.125139 54.779 0.992041 -95.25 0.992041 -95.25 0.124960 -65.34
9.00710000 0.125417 54.942 0.992005 -95.28 0.992005 -95.28 0.125238 -65.56
9.00720000 0.125699 55.105 0.991968 -95.31 0.991968 -95.31 0.125518 -65.78
9.00730000 0.125984 55.268 0.991931 -95.34 0.991931 -95.34 0.125803 -66.01
9.00740000 0.126273 55.432 0.991894 -95.37 0.991894 -95.37 0.126091 -66.23
9.00750000 0.126565 55.596 0.991856 -95.40 0.991856 -95.40 0.126382 -66.46
9.00760000 0.126862 55.761 0.991817 -95.44 0.991817 -95.44 0.126678 -66.69
9.00770000 0.127162 55.926 0.991778 -95.47 0.991778 -95.47 0.126977 -66.92
9.00780000 0.127465 56.091 0.991738 -95.50 0.991738 -95.50 0.127279 -67.15
9.00790000 0.127773 56.257 0.991698 -95.53 0.991698 -95.53 0.127586 -67.38
9.00800000 0.128085 56.422 0.991657 -95.56 0.991657 -95.56 0.127897 -67.61
9.00810000 0.128400 56.589 0.991615 -95.60 0.991615 -95.60 0.128211 -67.84
9.00820000 0.128720 56.755 0.991573 -95.63 0.991573 -95.63 0.128529 -68.07
9.00830000 0.129043 56.922 0.991530 -95.66 0.991530 -95.66 0.128852 -68.30
9.00840000 0.129371 57.090 0.991487 -95.69 0.991487 -95.69 0.129179 -68.54
9.00850000 0.129703 57.257 0.991443 -95.73 0.991443 -95.73 0.129509 -68.77
9.00860000 0.130039 57.425 0.991398 -95.76 0.991398 -95.76 0.129844 -69.01
9.00870000 0.130379 57.593 0.991352 -95.79 0.991352 -95.79 0.130184 -69.25
9.00880000 0.130723 57.762 0.991306 -95.83 0.991306 -95.83 0.130527 -69.48
9.00890000 0.131073 57.931 0.991259 -95.86 0.991259 -95.86 0.130875 -69.72
9.00900000 0.131426 58.100 0.991211 -95.90 0.991211 -95.90 0.131228 -69.96
9.00910000 0.131784 58.269 0.991163 -95.93 0.991163 -95.93 0.131584 -70.20
9.00920000 0.132147 58.439 0.991114 -95.97 0.991114 -95.97 0.131946 -70.44
9.00930000 0.132514 58.609 0.991064 -96.00 0.991064 -96.00 0.132312 -70.68
9.00940000 0.132886 58.779 0.991013 -96.04 0.991013 -96.04 0.132683 -70.93
9.00950000 0.133262 58.949 0.990961 -96.08 0.990961 -96.08 0.133058 -71.17
9.00960000 0.133644 59.120 0.990909 -96.11 0.990909 -96.11 0.133439 -71.41
9.00970000 0.134030 59.291 0.990856 -96.15 0.990856 -96.15 0.133824 -71.66
9.00980000 0.134422 59.462 0.990802 -96.19 0.990802 -96.19 0.134214 -71.90
9.00990000 0.134818 59.633 0.990747 -96.22 0.990747 -96.22 0.134610 -72.15
9.01000000 0.135220 59.805 0.990691 -96.26 0.990691 -96.26 0.135010 -72.40
9.01010000 0.135626 59.977 0.990635 -96.30 0.990635 -96.30 0.135416 -72.65
9.01020000 0.136038 60.149 0.990577 -96.34 0.990577 -96.34 0.135826 -72.90
9.01030000 0.136455 60.321 0.990519 -96.38 0.990519 -96.38 0.136242 -73.15
9.01040000 0.136878 60.494 0.990459 -96.41 0.990459 -96.41 0.136664 -73.40
9.01050000 0.137306 60.666 0.990399 -96.45 0.990399 -96.45 0.137091 -73.65
9.01060000 0.137740 60.839 0.990338 -96.49 0.990338 -96.49 0.137523 -73.90
9.01070000 0.138179 61.012 0.990275 -96.53 0.990275 -96.53 0.137961 -74.16
9.01080000 0.138624 61.185 0.990212 -96.57 0.990212 -96.57 0.138405 -74.41
9.01090000 0.139075 61.359 0.990148 -96.61 0.990148 -96.61 0.138855 -74.67
9.01100000 0.139532 61.532 0.990082 -96.66 0.990082 -96.66 0.139310 -74.92
9.01110000 0.139994 61.706 0.990016 -96.70 0.990016 -96.70 0.139772 -75.18
9.01120000 0.140463 61.879 0.989948 -96.74 0.989948 -96.74 0.140239 -75.44
9.01130000 0.140938 62.053 0.989879 -96.78 0.989879 -96.78 0.140713 -75.70
9.01140000 0.141419 62.227 0.989810 -96.82 0.989810 -96.82 0.141192 -75.96
9.01150000 0.141906 62.401 0.989739 -96.87 0.989739 -96.87 0.141678 -76.22
9.01160000 0.142399 62.575 0.989666 -96.91 0.989666 -96.91 0.142171 -76.48
9.01170000 0.142900 62.749 0.989593 -96.95 0.989593 -96.95 0.142670 -76.74
9.01180000 0.143406 62.924 0.989519 -97.00 0.989519 -97.00 0.143175 -77.00
9.01190000 0.143920 63.098 0.989443 -97.04 0.989443 -97.04 0.143687 -77.27
9.01200000 0.144440 63.272 0.989366 -97.09 0.989366 -97.09 0.144206 -77.53
9.01210000 0.144967 63.447 0.989287 -97.13 0.989287 -97.13 0.144732 -77.80
9.01220000 0.145501 63.621 0.989207 -97.18 0.989207 -97.18 0.145264 -78.06
9.01230000 0.146042 63.795 0.989126 -97.22 0.989126 -97.22 0.145804 -78.33
9.01240000 0.146590 63.970 0.989044 -97.27 0.989044 -97.27 0.146351 -78.60
9.01250000 0.147146 64.144 0.988960 -97.31 0.988960 -97.31 0.146905 -78.87
9.01260000 0.147709 64.319 0.988875 -97.36 0.988875 -97.36 0.147467 -79.14
9.01270000 0.148279 64.493 0.988788 -97.41 0.988788 -97.41 0.148036 -79.41
9.01280000 0.148857 64.667 0.988699 -97.46 0.988699 -97.46 0.148612 -79.68
9.01290000 0.149443 64.841 0.988609 -97.51 0.988609 -97.51 0.149197 -79.95
9.01300000 0.150036 65.016 0.988518 -97.56 0.988518 -97.56 0.149789 -80.22
9.01310000 0.150638 65.190 0.988425 -97.60 0.988425 -97.60 0.150389 -80.50
9.01320000 0.151247 65.364 0.988330 -97.65 0.988330 -97.65 0.150997 -80.77
9.01330000 0.151865 65.538 0.988234 -97.71 0.988234 -97.71 0.151613 -81.05
9.01340000 0.152491 65.711 0.988136 -97.76 0.988136 -97.76 0.152238 -81.32
9.01350000 0.153126 65.885 0.988036 -97.81 0.988036 -97.81 0.152871 -81.60
9.01360000 0.153769 66.058 0.987935 -97.86 0.987935 -97.86 0.153513 -81.88
9.01370000 0.154420 66.232 0.987831 -97.91 0.987831 -97.91 0.154163 -82.16
9.01380000 0.155081 66.405 0.987726 -97.96 0.987726 -97.96 0.154822 -82.44
9.01390000 0.155751 66.578 0.987619 -98.02 0.987619 -98.02 0.155490 -82.72
9.01400000 0.156429 66.751 0.987510 -98.07 0.987510 -98.07 0.156168 -83.00
9.01410000 0.157117 66.923 0.987399 -98.13 0.987399 -98.13 0.156854 -83.28
9.01420000 0.157815 67.095 0.987286 -98.18 0.987286 -98.18 0.157550 -83.57
9.01430000 0.158522 67.267 0.987171 -98.24 0.987171 -98.24 0.158255 -83.85
9.01440000 0.159238 67.439 0.987054 -98.29 0.987054 -98.29 0.158970 -84.14
9.01450000 0.159965 67.611 0.986934 -98.35 0.986934 -98.35 0.159695 -84.42
9.01460000 0.160701 67.782 0.986813 -98.41 0.986813 -98.41 0.160430 -84.71
9.01470000 0.161448 67.953 0.986689 -98.47 0.986689 -98.47 0.161175 -85.00
9.01480000 0.162205 68.123 0.986563 -98.52 0.986563 -98.52 0.161930 -85.29
9.01490000 0.162972 68.294 0.986434 -98.58 0.986434 -98.58 0.162696 -85.58
9.01500000 0.163750 68.464 0.986303 -98.64 0.986303 -98.64 0.163473 -85.87
9.01510000 0.164539 68.633 0.986170 -98.70 0.986170 -98.70 0.164260 -86.16
9.01520000 0.165339 68.802 0.986034 -98.77 0.986034 -98.77 0.165058 -86.45
9.01530000 0.166150 68.971 0.985895 -98.83 0.985895 -98.83 0.165867 -86.74
9.01540000 0.166972 69.139 0.985754 -98.89 0.985754 -98.89 0.166688 -87.04
9.01550000 0.167806 69.307 0.985611 -98.95 0.985611 -98.95 0.167520 -87.33
9.01560000 0.168652 69.474 0.985464 -99.02 0.985464 -99.02 0.168364 -87.63
9.01570000 0.169509 69.641 0.985314 -99.08 0.985314 -99.08 0.169220 -87.93
9.01580000 0.170379 69.808 0.985162 -99.15 0.985162 -99.15 0.170088 -88.22
9.01590000 0.171261 69.973 0.985007 -99.21 0.985007 -99.21 0.170968 -88.52
9.01600000 0.172155 70.139 0.984848 -99.28 0.984848 -99.28 0.171861 -88.82
9.01610000 0.173062 70.304 0.984687 -99.35 0.984687 -99.35 0.172766 -89.12
9.01620000 0.173983 70.468 0.984522 -99.41 0.984522 -99.41 0.173685 -89.43
9.01630000 0.174916 70.631 0.984354 -99.48 0.984354 -99.48 0.174616 -89.73
9.01640000 0.175863 70.794 0.984183 -99.55 0.984183 -99.55 0.175561 -90.03
9.01650000 0.176823 70.957 0.984008 -99.62 0.984008 -99.62 0.176520 -90.34
9.01660000 0.177797 71.118 0.983830 -99.69 0.983830 -99.69 0.177492 -90.64
9.01670000 0.178785 71.279 0.983648 -99.77 0.983648 -99.77 0.178478 -90.95
9.01680000 0.179788 71.439 0.983463 -99.84 0.983463 -99.84 0.179479 -91.25
9.01690000 0.180805 71.599 0.983273 -99.91 0.983273 -99.91 0.180494 -91.56
9.01700000 0.181836 71.758 0.983080 -99.99 0.983080 -99.99 0.181524 -91.87
9.01710000 0.182883 71.916 0.982883 -100.1 0.982883 -100.1 0.182569 -92.18
9.01720000 0.183946 72.073 0.982682 -100.1 0.982682 -100.1 0.183629 -92.49
9.01730000 0.185023 72.229 0.982477 -100.2 0.982477 -100.2 0.184705 -92.81
9.01740000 0.186117 72.385 0.982267 -100.3 0.982267 -100.3 0.185797 -93.12
9.01750000 0.187227 72.540 0.982053 -100.4 0.982053 -100.4 0.186905 -93.43
9.01760000 0.188353 72.693 0.981834 -100.5 0.981834 -100.5 0.188029 -93.75
9.01770000 0.189496 72.846 0.981611 -100.5 0.981611 -100.5 0.189170 -94.06
9.01780000 0.190656 72.998 0.981383 -100.6 0.981383 -100.6 0.190328 -94.38
9.01790000 0.191834 73.149 0.981150 -100.7 0.981150 -100.7 0.191503 -94.70
9.01800000 0.193029 73.299 0.980912 -100.8 0.980912 -100.8 0.192696 -95.02
9.01810000 0.194242 73.448 0.980669 -100.9 0.980669 -100.9 0.193907 -95.34
9.01820000 0.195473 73.596 0.980421 -101.0 0.980421 -101.0 0.195136 -95.66
9.01830000 0.196723 73.743 0.980167 -101.0 0.980167 -101.0 0.196384 -95.99
9.01834450 0.197285 73.808 0.980053 -101.1 0.980053 -101.1 0.196945 -96.13
9.01840000 0.197992 73.888 0.979908 -101.1 0.979908 -101.1 0.197651 -96.31
9.01850000 0.199280 74.033 0.979643 -101.2 0.979643 -101.2 0.198937 -96.64
9.01860000 0.200588 74.176 0.979372 -101.3 0.979372 -101.3 0.200242 -96.96
9.01868110 0.201664 74.292 0.979148 -101.4 0.979148 -101.4 0.201316 -97.23
9.01870000 0.201916 74.318 0.979095 -101.4 0.979095 -101.4 0.201568 -97.29
9.01880000 0.203265 74.459 0.978812 -101.5 0.978812 -101.5 0.202914 -97.62