! Sonnet Data File
! From: emgraph Version : 16.52
! From Project: Resonator2_extremeCap
! Data is De-embedded 
! Data File Written: 10/11/2017 17:55:30
!< HDATE 10/10/2017 20:37:37
!< MDATE 10/10/2017 20:37:37
!< PARAMS
!< Pwid1 = 2000.0
!< Pwid2 = 2000.0
!< Air_gap = 24.0
!< Width = 40.0
!< Gap = 80.0
!< END PARAMS
# GHZ S MA R 50.70000
8.95000000 0.113106 0.8337 0.993578 -88.01 0.993578 -88.01 0.113104 3.1406
!< P1 F=8.95 Eeff=(6.44311072 -2.9701e-5) Z0=(50.4816225 1.16464e-4) R=0.0 C=0.0 
!< P2 F=8.95 Eeff=(6.44311072 -2.9701e-5) Z0=(50.4816225 1.16464e-4) R=0.0 C=0.0 
8.95020000 0.113119 0.8374 0.993576 -88.02 0.993576 -88.02 0.113117 3.1309
8.95040000 0.113132 0.8412 0.993575 -88.02 0.993575 -88.02 0.113130 3.1212
8.95060000 0.113145 0.8449 0.993573 -88.02 0.993573 -88.02 0.113143 3.1115
8.95080000 0.113158 0.8487 0.993572 -88.03 0.993572 -88.03 0.113156 3.1017
8.95100000 0.113171 0.8524 0.993570 -88.03 0.993570 -88.03 0.113169 3.0920
8.95120000 0.113184 0.8562 0.993569 -88.03 0.993569 -88.03 0.113182 3.0822
8.95140000 0.113197 0.8600 0.993567 -88.03 0.993567 -88.03 0.113195 3.0724
8.95160000 0.113211 0.8639 0.993566 -88.04 0.993566 -88.04 0.113208 3.0625
8.95180000 0.113224 0.8677 0.993564 -88.04 0.993564 -88.04 0.113221 3.0527
8.95200000 0.113237 0.8716 0.993563 -88.04 0.993563 -88.04 0.113234 3.0428
8.95220000 0.113250 0.8754 0.993561 -88.05 0.993561 -88.05 0.113247 3.0329
8.95240000 0.113263 0.8793 0.993560 -88.05 0.993560 -88.05 0.113261 3.0230
8.95260000 0.113277 0.8832 0.993558 -88.05 0.993558 -88.05 0.113274 3.0130
8.95280000 0.113290 0.8872 0.993557 -88.06 0.993557 -88.06 0.113287 3.0030
8.95300000 0.113303 0.8911 0.993555 -88.06 0.993555 -88.06 0.113300 2.9930
8.95320000 0.113317 0.8951 0.993554 -88.06 0.993554 -88.06 0.113314 2.9830
8.95340000 0.113330 0.8991 0.993552 -88.06 0.993552 -88.06 0.113327 2.9730
8.95360000 0.113343 0.9030 0.993551 -88.07 0.993551 -88.07 0.113341 2.9629
8.95380000 0.113357 0.9071 0.993549 -88.07 0.993549 -88.07 0.113354 2.9528
8.95400000 0.113370 0.9111 0.993547 -88.07 0.993547 -88.07 0.113367 2.9427
8.95420000 0.113384 0.9151 0.993546 -88.08 0.993546 -88.08 0.113381 2.9326
8.95440000 0.113397 0.9192 0.993544 -88.08 0.993544 -88.08 0.113395 2.9224
8.95460000 0.113411 0.9233 0.993543 -88.08 0.993543 -88.08 0.113408 2.9122
8.95480000 0.113425 0.9274 0.993541 -88.09 0.993541 -88.09 0.113422 2.9020
8.95500000 0.113438 0.9315 0.993540 -88.09 0.993540 -88.09 0.113435 2.8918
8.95520000 0.113452 0.9357 0.993538 -88.09 0.993538 -88.09 0.113449 2.8815
8.95540000 0.113466 0.9398 0.993537 -88.09 0.993537 -88.09 0.113463 2.8712
8.95560000 0.113479 0.9440 0.993535 -88.10 0.993535 -88.10 0.113476 2.8609
8.95580000 0.113493 0.9482 0.993533 -88.10 0.993533 -88.10 0.113490 2.8506
8.95600000 0.113507 0.9524 0.993532 -88.10 0.993532 -88.10 0.113504 2.8402
8.95620000 0.113521 0.9567 0.993530 -88.11 0.993530 -88.11 0.113518 2.8298
8.95640000 0.113535 0.9609 0.993529 -88.11 0.993529 -88.11 0.113532 2.8194
8.95660000 0.113549 0.9652 0.993527 -88.11 0.993527 -88.11 0.113546 2.8090
8.95680000 0.113562 0.9695 0.993525 -88.12 0.993525 -88.12 0.113559 2.7985
8.95700000 0.113576 0.9738 0.993524 -88.12 0.993524 -88.12 0.113573 2.7880
8.95720000 0.113590 0.9781 0.993522 -88.12 0.993522 -88.12 0.113587 2.7775
8.95740000 0.113604 0.9825 0.993521 -88.13 0.993521 -88.13 0.113601 2.7670
8.95760000 0.113619 0.9868 0.993519 -88.13 0.993519 -88.13 0.113616 2.7564
8.95780000 0.113633 0.9912 0.993517 -88.13 0.993517 -88.13 0.113630 2.7458
8.95800000 0.113647 0.9956 0.993516 -88.14 0.993516 -88.14 0.113644 2.7352
8.95820000 0.113661 1.0000 0.993514 -88.14 0.993514 -88.14 0.113658 2.7245
8.95840000 0.113675 1.0045 0.993513 -88.14 0.993513 -88.14 0.113672 2.7139
8.95860000 0.113689 1.0089 0.993511 -88.14 0.993511 -88.14 0.113686 2.7032
8.95880000 0.113704 1.0134 0.993509 -88.15 0.993509 -88.15 0.113701 2.6924
8.95900000 0.113718 1.0179 0.993508 -88.15 0.993508 -88.15 0.113715 2.6817
8.95920000 0.113732 1.0225 0.993506 -88.15 0.993506 -88.15 0.113729 2.6709
8.95940000 0.113747 1.0270 0.993504 -88.16 0.993504 -88.16 0.113744 2.6601
8.95960000 0.113761 1.0316 0.993503 -88.16 0.993503 -88.16 0.113758 2.6493
8.95980000 0.113776 1.0362 0.993501 -88.16 0.993501 -88.16 0.113772 2.6384
8.96000000 0.113790 1.0408 0.993499 -88.17 0.993499 -88.17 0.113787 2.6275
8.96020000 0.113805 1.0454 0.993498 -88.17 0.993498 -88.17 0.113801 2.6166
8.96040000 0.113819 1.0500 0.993496 -88.17 0.993496 -88.17 0.113816 2.6057
8.96060000 0.113834 1.0547 0.993494 -88.18 0.993494 -88.18 0.113831 2.5947
8.96080000 0.113848 1.0594 0.993493 -88.18 0.993493 -88.18 0.113845 2.5837
8.96100000 0.113863 1.0641 0.993491 -88.18 0.993491 -88.18 0.113860 2.5727
8.96120000 0.113878 1.0688 0.993489 -88.19 0.993489 -88.19 0.113875 2.5616
8.96140000 0.113893 1.0736 0.993488 -88.19 0.993488 -88.19 0.113889 2.5505
8.96160000 0.113907 1.0783 0.993486 -88.19 0.993486 -88.19 0.113904 2.5394
8.96180000 0.113922 1.0831 0.993484 -88.19 0.993484 -88.19 0.113919 2.5283
8.96200000 0.113937 1.0879 0.993482 -88.20 0.993482 -88.20 0.113934 2.5171
8.96220000 0.113952 1.0928 0.993481 -88.20 0.993481 -88.20 0.113949 2.5059
8.96240000 0.113967 1.0976 0.993479 -88.20 0.993479 -88.20 0.113964 2.4947
8.96260000 0.113982 1.1025 0.993477 -88.21 0.993477 -88.21 0.113979 2.4834
8.96280000 0.113997 1.1074 0.993476 -88.21 0.993476 -88.21 0.113994 2.4722
8.96300000 0.114012 1.1123 0.993474 -88.21 0.993474 -88.21 0.114009 2.4609
8.96320000 0.114027 1.1173 0.993472 -88.22 0.993472 -88.22 0.114024 2.4495
8.96340000 0.114042 1.1222 0.993470 -88.22 0.993470 -88.22 0.114039 2.4381
8.96360000 0.114057 1.1272 0.993469 -88.22 0.993469 -88.22 0.114054 2.4267
8.96380000 0.114073 1.1322 0.993467 -88.23 0.993467 -88.23 0.114069 2.4153
8.96400000 0.114088 1.1373 0.993465 -88.23 0.993465 -88.23 0.114085 2.4038
8.96420000 0.114103 1.1423 0.993463 -88.23 0.993463 -88.23 0.114100 2.3923
8.96440000 0.114119 1.1474 0.993462 -88.24 0.993462 -88.24 0.114115 2.3808
8.96460000 0.114134 1.1525 0.993460 -88.24 0.993460 -88.24 0.114130 2.3693
8.96480000 0.114149 1.1576 0.993458 -88.24 0.993458 -88.24 0.114146 2.3577
8.96500000 0.114165 1.1627 0.993456 -88.25 0.993456 -88.25 0.114161 2.3461
8.96520000 0.114180 1.1679 0.993454 -88.25 0.993454 -88.25 0.114177 2.3344
8.96540000 0.114196 1.1731 0.993453 -88.25 0.993453 -88.25 0.114192 2.3227
8.96560000 0.114211 1.1783 0.993451 -88.26 0.993451 -88.26 0.114208 2.3110
8.96580000 0.114227 1.1835 0.993449 -88.26 0.993449 -88.26 0.114224 2.2993
8.96600000 0.114243 1.1888 0.993447 -88.26 0.993447 -88.26 0.114239 2.2875
8.96620000 0.114258 1.1941 0.993445 -88.27 0.993445 -88.27 0.114255 2.2757
8.96640000 0.114274 1.1994 0.993444 -88.27 0.993444 -88.27 0.114271 2.2639
8.96660000 0.114290 1.2047 0.993442 -88.27 0.993442 -88.27 0.114286 2.2520
8.96680000 0.114306 1.2101 0.993440 -88.28 0.993440 -88.28 0.114302 2.2401
8.96700000 0.114322 1.2154 0.993438 -88.28 0.993438 -88.28 0.114318 2.2282
8.96720000 0.114338 1.2208 0.993436 -88.28 0.993436 -88.28 0.114334 2.2162
8.96740000 0.114354 1.2263 0.993434 -88.29 0.993434 -88.29 0.114350 2.2042
8.96760000 0.114370 1.2317 0.993433 -88.29 0.993433 -88.29 0.114366 2.1922
8.96780000 0.114386 1.2372 0.993431 -88.29 0.993431 -88.29 0.114382 2.1801
8.96800000 0.114402 1.2427 0.993429 -88.29 0.993429 -88.29 0.114398 2.1680
8.96820000 0.114418 1.2482 0.993427 -88.30 0.993427 -88.30 0.114414 2.1559
8.96840000 0.114434 1.2538 0.993425 -88.30 0.993425 -88.30 0.114430 2.1438
8.96860000 0.114450 1.2593 0.993423 -88.30 0.993423 -88.30 0.114447 2.1316
8.96880000 0.114467 1.2649 0.993421 -88.31 0.993421 -88.31 0.114463 2.1193
8.96900000 0.114483 1.2705 0.993419 -88.31 0.993419 -88.31 0.114479 2.1071
8.96920000 0.114499 1.2762 0.993418 -88.31 0.993418 -88.31 0.114496 2.0948
8.96940000 0.114516 1.2819 0.993416 -88.32 0.993416 -88.32 0.114512 2.0824
8.96960000 0.114532 1.2876 0.993414 -88.32 0.993414 -88.32 0.114529 2.0701
8.96980000 0.114549 1.2933 0.993412 -88.32 0.993412 -88.32 0.114545 2.0577
8.97000000 0.114565 1.2990 0.993410 -88.33 0.993410 -88.33 0.114562 2.0452
8.97020000 0.114582 1.3048 0.993408 -88.33 0.993408 -88.33 0.114578 2.0328
8.97040000 0.114599 1.3106 0.993406 -88.33 0.993406 -88.33 0.114595 2.0203
8.97060000 0.114615 1.3164 0.993404 -88.34 0.993404 -88.34 0.114612 2.0077
8.97080000 0.114632 1.3223 0.993402 -88.34 0.993402 -88.34 0.114628 1.9952
8.97100000 0.114649 1.3282 0.993400 -88.34 0.993400 -88.34 0.114645 1.9825
8.97120000 0.114666 1.3341 0.993398 -88.35 0.993398 -88.35 0.114662 1.9699
8.97140000 0.114683 1.3400 0.993396 -88.35 0.993396 -88.35 0.114679 1.9572
8.97160000 0.114700 1.3460 0.993394 -88.36 0.993394 -88.36 0.114696 1.9445
8.97180000 0.114717 1.3519 0.993392 -88.36 0.993392 -88.36 0.114713 1.9317
8.97200000 0.114734 1.3579 0.993390 -88.36 0.993390 -88.36 0.114730 1.9189
8.97220000 0.114751 1.3640 0.993388 -88.37 0.993388 -88.37 0.114747 1.9061
8.97240000 0.114768 1.3701 0.993386 -88.37 0.993386 -88.37 0.114764 1.8932
8.97260000 0.114785 1.3761 0.993384 -88.37 0.993384 -88.37 0.114781 1.8803
8.97280000 0.114802 1.3823 0.993382 -88.38 0.993382 -88.38 0.114798 1.8674
8.97300000 0.114820 1.3884 0.993380 -88.38 0.993380 -88.38 0.114816 1.8544
8.97320000 0.114837 1.3946 0.993378 -88.38 0.993378 -88.38 0.114833 1.8414
8.97340000 0.114854 1.4008 0.993376 -88.39 0.993376 -88.39 0.114850 1.8284
8.97360000 0.114872 1.4070 0.993374 -88.39 0.993374 -88.39 0.114868 1.8153
8.97380000 0.114889 1.4133 0.993372 -88.39 0.993372 -88.39 0.114885 1.8021
8.97400000 0.114907 1.4196 0.993370 -88.40 0.993370 -88.40 0.114903 1.7890
8.97420000 0.114925 1.4259 0.993368 -88.40 0.993368 -88.40 0.114921 1.7758
8.97440000 0.114942 1.4322 0.993366 -88.40 0.993366 -88.40 0.114938 1.7625
8.97460000 0.114960 1.4386 0.993364 -88.41 0.993364 -88.41 0.114956 1.7492
8.97480000 0.114978 1.4450 0.993362 -88.41 0.993362 -88.41 0.114974 1.7359
8.97500000 0.114996 1.4514 0.993360 -88.41 0.993360 -88.41 0.114992 1.7225
8.97520000 0.115014 1.4579 0.993358 -88.42 0.993358 -88.42 0.115009 1.7091
8.97540000 0.115031 1.4644 0.993356 -88.42 0.993356 -88.42 0.115027 1.6957
8.97560000 0.115049 1.4709 0.993354 -88.42 0.993354 -88.42 0.115045 1.6822
8.97580000 0.115068 1.4775 0.993352 -88.43 0.993352 -88.43 0.115063 1.6687
8.97600000 0.115086 1.4840 0.993349 -88.43 0.993349 -88.43 0.115081 1.6551
8.97620000 0.115104 1.4906 0.993347 -88.43 0.993347 -88.43 0.115100 1.6415
8.97640000 0.115122 1.4973 0.993345 -88.44 0.993345 -88.44 0.115118 1.6279
8.97660000 0.115140 1.5040 0.993343 -88.44 0.993343 -88.44 0.115136 1.6142
8.97680000 0.115159 1.5107 0.993341 -88.44 0.993341 -88.44 0.115154 1.6005
8.97700000 0.115177 1.5174 0.993339 -88.45 0.993339 -88.45 0.115173 1.5867
8.97720000 0.115196 1.5241 0.993337 -88.45 0.993337 -88.45 0.115191 1.5729
8.97740000 0.115214 1.5309 0.993335 -88.46 0.993335 -88.46 0.115210 1.5590
8.97760000 0.115233 1.5378 0.993332 -88.46 0.993332 -88.46 0.115228 1.5451
8.97780000 0.115251 1.5446 0.993330 -88.46 0.993330 -88.46 0.115247 1.5312
8.97800000 0.115270 1.5515 0.993328 -88.47 0.993328 -88.47 0.115266 1.5172
8.97820000 0.115289 1.5584 0.993326 -88.47 0.993326 -88.47 0.115284 1.5032
8.97840000 0.115307 1.5654 0.993324 -88.47 0.993324 -88.47 0.115303 1.4891
8.97860000 0.115326 1.5723 0.993321 -88.48 0.993321 -88.48 0.115322 1.4750
8.97880000 0.115345 1.5794 0.993319 -88.48 0.993319 -88.48 0.115341 1.4609
8.97900000 0.115364 1.5864 0.993317 -88.48 0.993317 -88.48 0.115360 1.4467
8.97920000 0.115383 1.5935 0.993315 -88.49 0.993315 -88.49 0.115379 1.4324
8.97940000 0.115402 1.6006 0.993313 -88.49 0.993313 -88.49 0.115398 1.4182
8.97960000 0.115422 1.6077 0.993310 -88.49 0.993310 -88.49 0.115417 1.4038
8.97980000 0.115441 1.6149 0.993308 -88.50 0.993308 -88.50 0.115436 1.3894
8.98000000 0.115460 1.6221 0.993306 -88.50 0.993306 -88.50 0.115456 1.3750
8.98020000 0.115480 1.6293 0.993304 -88.51 0.993304 -88.51 0.115475 1.3606
8.98040000 0.115499 1.6366 0.993301 -88.51 0.993301 -88.51 0.115494 1.3461
8.98060000 0.115518 1.6439 0.993299 -88.51 0.993299 -88.51 0.115514 1.3315
8.98080000 0.115538 1.6513 0.993297 -88.52 0.993297 -88.52 0.115533 1.3169
8.98100000 0.115558 1.6586 0.993294 -88.52 0.993294 -88.52 0.115553 1.3022
8.98120000 0.115577 1.6660 0.993292 -88.52 0.993292 -88.52 0.115573 1.2875
!< P1 F=8.9812 Eeff=(6.44310566 -2.9702e-5) Z0=(50.4815136 1.16464e-4) R=0.0 C=0.0 
!< P2 F=8.9812 Eeff=(6.44310566 -2.9702e-5) Z0=(50.4815136 1.16464e-4) R=0.0 C=0.0 
8.98140000 0.115597 1.6735 0.993290 -88.53 0.993290 -88.53 0.115592 1.2728
8.98160000 0.115617 1.6810 0.993288 -88.53 0.993288 -88.53 0.115612 1.2580
8.98180000 0.115637 1.6885 0.993285 -88.53 0.993285 -88.53 0.115632 1.2432
8.98200000 0.115657 1.6960 0.993283 -88.54 0.993283 -88.54 0.115652 1.2283
8.98220000 0.115677 1.7036 0.993281 -88.54 0.993281 -88.54 0.115672 1.2134
8.98240000 0.115697 1.7112 0.993278 -88.55 0.993278 -88.55 0.115692 1.1984
8.98260000 0.115717 1.7189 0.993276 -88.55 0.993276 -88.55 0.115712 1.1834
8.98280000 0.115737 1.7266 0.993273 -88.55 0.993273 -88.55 0.115732 1.1683
8.98300000 0.115758 1.7343 0.993271 -88.56 0.993271 -88.56 0.115753 1.1532
8.98320000 0.115778 1.7420 0.993269 -88.56 0.993269 -88.56 0.115773 1.1380
8.98340000 0.115798 1.7498 0.993266 -88.56 0.993266 -88.56 0.115794 1.1228
8.98360000 0.115819 1.7577 0.993264 -88.57 0.993264 -88.57 0.115814 1.1075
8.98380000 0.115839 1.7655 0.993261 -88.57 0.993261 -88.57 0.115835 1.0922
8.98400000 0.115860 1.7734 0.993259 -88.57 0.993259 -88.57 0.115855 1.0768
8.98420000 0.115881 1.7814 0.993257 -88.58 0.993257 -88.58 0.115876 1.0614
8.98440000 0.115902 1.7894 0.993254 -88.58 0.993254 -88.58 0.115897 1.0459
8.98460000 0.115922 1.7974 0.993252 -88.59 0.993252 -88.59 0.115918 1.0304
8.98480000 0.115943 1.8054 0.993249 -88.59 0.993249 -88.59 0.115938 1.0148
8.98500000 0.115964 1.8135 0.993247 -88.59 0.993247 -88.59 0.115959 0.9992
8.98520000 0.115986 1.8216 0.993244 -88.60 0.993244 -88.60 0.115980 0.9835
8.98540000 0.116007 1.8298 0.993242 -88.60 0.993242 -88.60 0.116002 0.9678
8.98560000 0.116028 1.8380 0.993239 -88.61 0.993239 -88.61 0.116023 0.9520
8.98580000 0.116049 1.8463 0.993237 -88.61 0.993237 -88.61 0.116044 0.9361
8.98600000 0.116071 1.8545 0.993234 -88.61 0.993234 -88.61 0.116066 0.9203
8.98620000 0.116092 1.8629 0.993232 -88.62 0.993232 -88.62 0.116087 0.9043
8.98640000 0.116114 1.8712 0.993229 -88.62 0.993229 -88.62 0.116108 0.8883
8.98660000 0.116135 1.8796 0.993227 -88.62 0.993227 -88.62 0.116130 0.8723
8.98680000 0.116157 1.8881 0.993224 -88.63 0.993224 -88.63 0.116152 0.8562
8.98700000 0.116179 1.8966 0.993222 -88.63 0.993222 -88.63 0.116173 0.8400
8.98720000 0.116201 1.9051 0.993219 -88.64 0.993219 -88.64 0.116195 0.8238
8.98740000 0.116223 1.9136 0.993216 -88.64 0.993216 -88.64 0.116217 0.8075
8.98760000 0.116245 1.9222 0.993214 -88.64 0.993214 -88.64 0.116239 0.7912
8.98780000 0.116267 1.9309 0.993211 -88.65 0.993211 -88.65 0.116261 0.7748
8.98800000 0.116289 1.9396 0.993209 -88.65 0.993209 -88.65 0.116283 0.7584
8.98820000 0.116311 1.9483 0.993206 -88.65 0.993206 -88.65 0.116306 0.7419
8.98840000 0.116333 1.9571 0.993203 -88.66 0.993203 -88.66 0.116328 0.7253
8.98860000 0.116356 1.9659 0.993201 -88.66 0.993201 -88.66 0.116350 0.7087
8.98880000 0.116378 1.9747 0.993198 -88.67 0.993198 -88.67 0.116373 0.6920
8.98900000 0.116401 1.9836 0.993195 -88.67 0.993195 -88.67 0.116395 0.6753
8.98920000 0.116424 1.9925 0.993193 -88.67 0.993193 -88.67 0.116418 0.6585
8.98940000 0.116446 2.0015 0.993190 -88.68 0.993190 -88.68 0.116441 0.6417
8.98960000 0.116469 2.0105 0.993187 -88.68 0.993187 -88.68 0.116464 0.6248
8.98980000 0.116492 2.0196 0.993185 -88.69 0.993185 -88.69 0.116487 0.6078
8.99000000 0.116515 2.0287 0.993182 -88.69 0.993182 -88.69 0.116510 0.5908
8.99020000 0.116538 2.0379 0.993179 -88.69 0.993179 -88.69 0.116533 0.5737
8.99040000 0.116561 2.0470 0.993177 -88.70 0.993177 -88.70 0.116556 0.5566
8.99060000 0.116585 2.0563 0.993174 -88.70 0.993174 -88.70 0.116579 0.5394
8.99080000 0.116608 2.0656 0.993171 -88.71 0.993171 -88.71 0.116602 0.5221
8.99100000 0.116632 2.0749 0.993168 -88.71 0.993168 -88.71 0.116626 0.5048
8.99120000 0.116655 2.0843 0.993166 -88.71 0.993166 -88.71 0.116649 0.4874
8.99140000 0.116679 2.0937 0.993163 -88.72 0.993163 -88.72 0.116673 0.4700
8.99160000 0.116703 2.1031 0.993160 -88.72 0.993160 -88.72 0.116697 0.4525
8.99180000 0.116726 2.1127 0.993157 -88.73 0.993157 -88.73 0.116721 0.4349
8.99200000 0.116750 2.1222 0.993154 -88.73 0.993154 -88.73 0.116744 0.4172
8.99220000 0.116774 2.1318 0.993151 -88.73 0.993151 -88.73 0.116768 0.3995
8.99240000 0.116798 2.1415 0.993149 -88.74 0.993149 -88.74 0.116793 0.3818
8.99260000 0.116823 2.1512 0.993146 -88.74 0.993146 -88.74 0.116817 0.3639
8.99280000 0.116847 2.1609 0.993143 -88.75 0.993143 -88.75 0.116841 0.3461
8.99300000 0.116871 2.1707 0.993140 -88.75 0.993140 -88.75 0.116865 0.3281
8.99320000 0.116896 2.1805 0.993137 -88.75 0.993137 -88.75 0.116890 0.3101
8.99340000 0.116920 2.1904 0.993134 -88.76 0.993134 -88.76 0.116914 0.2920
8.99360000 0.116945 2.2003 0.993131 -88.76 0.993131 -88.76 0.116939 0.2738
8.99380000 0.116970 2.2103 0.993128 -88.77 0.993128 -88.77 0.116964 0.2556
8.99400000 0.116995 2.2203 0.993125 -88.77 0.993125 -88.77 0.116989 0.2373
8.99420000 0.117020 2.2304 0.993122 -88.78 0.993122 -88.78 0.117014 0.2189
8.99440000 0.117045 2.2406 0.993119 -88.78 0.993119 -88.78 0.117039 0.2005
8.99460000 0.117070 2.2507 0.993116 -88.78 0.993116 -88.78 0.117064 0.1820
8.99480000 0.117095 2.2610 0.993113 -88.79 0.993113 -88.79 0.117089 0.1635
8.99500000 0.117121 2.2712 0.993110 -88.79 0.993110 -88.79 0.117114 0.1448
8.99520000 0.117146 2.2816 0.993107 -88.80 0.993107 -88.80 0.117140 0.1261
8.99540000 0.117172 2.2919 0.993104 -88.80 0.993104 -88.80 0.117166 0.1073
8.99560000 0.117198 2.3024 0.993101 -88.80 0.993101 -88.80 0.117191 0.0885
8.99580000 0.117223 2.3129 0.993098 -88.81 0.993098 -88.81 0.117217 0.0696
8.99600000 0.117249 2.3234 0.993095 -88.81 0.993095 -88.81 0.117243 0.0506
8.99620000 0.117275 2.3340 0.993092 -88.82 0.993092 -88.82 0.117269 0.0315
8.99640000 0.117301 2.3446 0.993089 -88.82 0.993089 -88.82 0.117295 0.0124
8.99660000 0.117328 2.3553 0.993086 -88.83 0.993086 -88.83 0.117321 0.0000
8.99680000 0.117354 2.3661 0.993083 -88.83 0.993083 -88.83 0.117348 -0.026
8.99700000 0.117381 2.3769 0.993080 -88.83 0.993080 -88.83 0.117374 -0.045
8.99720000 0.117407 2.3877 0.993076 -88.84 0.993076 -88.84 0.117401 -0.065
8.99740000 0.117434 2.3986 0.993073 -88.84 0.993073 -88.84 0.117427 -0.084
8.99760000 0.117461 2.4096 0.993070 -88.85 0.993070 -88.85 0.117454 -0.104
8.99780000 0.117488 2.4206 0.993067 -88.85 0.993067 -88.85 0.117481 -0.124
8.99800000 0.117515 2.4317 0.993064 -88.86 0.993064 -88.86 0.117508 -0.143
8.99820000 0.117542 2.4428 0.993060 -88.86 0.993060 -88.86 0.117535 -0.163
8.99840000 0.117569 2.4540 0.993057 -88.86 0.993057 -88.86 0.117562 -0.183
8.99860000 0.117596 2.4652 0.993054 -88.87 0.993054 -88.87 0.117590 -0.203
8.99880000 0.117624 2.4765 0.993051 -88.87 0.993051 -88.87 0.117617 -0.223
8.99900000 0.117652 2.4879 0.993047 -88.88 0.993047 -88.88 0.117645 -0.243
8.99920000 0.117679 2.4993 0.993044 -88.88 0.993044 -88.88 0.117672 -0.263
8.99940000 0.117707 2.5107 0.993041 -88.89 0.993041 -88.89 0.117700 -0.284
8.99960000 0.117735 2.5223 0.993037 -88.89 0.993037 -88.89 0.117728 -0.304
8.99980000 0.117763 2.5338 0.993034 -88.89 0.993034 -88.89 0.117756 -0.324
9.00000000 0.117792 2.5455 0.993031 -88.90 0.993031 -88.90 0.117785 -0.345
9.00020000 0.117820 2.5572 0.993027 -88.90 0.993027 -88.90 0.117813 -0.366
9.00040000 0.117848 2.5690 0.993024 -88.91 0.993024 -88.91 0.117841 -0.386
9.00060000 0.117877 2.5808 0.993020 -88.91 0.993020 -88.91 0.117870 -0.407
9.00080000 0.117906 2.5927 0.993017 -88.92 0.993017 -88.92 0.117899 -0.428
9.00100000 0.117935 2.6046 0.993014 -88.92 0.993014 -88.92 0.117927 -0.449
9.00120000 0.117964 2.6166 0.993010 -88.93 0.993010 -88.93 0.117956 -0.470
9.00140000 0.117993 2.6287 0.993007 -88.93 0.993007 -88.93 0.117986 -0.491
9.00160000 0.118022 2.6408 0.993003 -88.94 0.993003 -88.94 0.118015 -0.512
9.00180000 0.118051 2.6530 0.993000 -88.94 0.993000 -88.94 0.118044 -0.533
9.00200000 0.118081 2.6652 0.992996 -88.94 0.992996 -88.94 0.118074 -0.555
9.00220000 0.118111 2.6775 0.992993 -88.95 0.992993 -88.95 0.118103 -0.576
9.00240000 0.118140 2.6899 0.992989 -88.95 0.992989 -88.95 0.118133 -0.598
9.00260000 0.118170 2.7024 0.992985 -88.96 0.992985 -88.96 0.118163 -0.619
9.00280000 0.118200 2.7149 0.992982 -88.96 0.992982 -88.96 0.118193 -0.641
9.00300000 0.118231 2.7274 0.992978 -88.97 0.992978 -88.97 0.118223 -0.663
9.00320000 0.118261 2.7401 0.992975 -88.97 0.992975 -88.97 0.118254 -0.685
9.00340000 0.118292 2.7528 0.992971 -88.98 0.992971 -88.98 0.118284 -0.707
9.00360000 0.118322 2.7655 0.992967 -88.98 0.992967 -88.98 0.118315 -0.729
9.00380000 0.118353 2.7784 0.992963 -88.99 0.992963 -88.99 0.118345 -0.751
9.00400000 0.118384 2.7913 0.992960 -88.99 0.992960 -88.99 0.118376 -0.773
9.00420000 0.118415 2.8042 0.992956 -89.00 0.992956 -89.00 0.118407 -0.796
9.00440000 0.118446 2.8173 0.992952 -89.00 0.992952 -89.00 0.118438 -0.818
9.00460000 0.118478 2.8304 0.992949 -89.00 0.992949 -89.00 0.118470 -0.841
9.00480000 0.118509 2.8435 0.992945 -89.01 0.992945 -89.01 0.118501 -0.863
9.00500000 0.118541 2.8568 0.992941 -89.01 0.992941 -89.01 0.118533 -0.886
9.00520000 0.118573 2.8701 0.992937 -89.02 0.992937 -89.02 0.118565 -0.909
9.00540000 0.118605 2.8835 0.992933 -89.02 0.992933 -89.02 0.118597 -0.932
9.00560000 0.118637 2.8969 0.992929 -89.03 0.992929 -89.03 0.118629 -0.955
9.00580000 0.118669 2.9104 0.992926 -89.03 0.992926 -89.03 0.118661 -0.978
9.00600000 0.118702 2.9240 0.992922 -89.04 0.992922 -89.04 0.118693 -1.001
9.00620000 0.118734 2.9377 0.992918 -89.04 0.992918 -89.04 0.118726 -1.025
9.00640000 0.118767 2.9514 0.992914 -89.05 0.992914 -89.05 0.118759 -1.048
9.00660000 0.118800 2.9652 0.992910 -89.05 0.992910 -89.05 0.118792 -1.072
9.00680000 0.118833 2.9791 0.992906 -89.06 0.992906 -89.06 0.118825 -1.095
9.00700000 0.118866 2.9931 0.992902 -89.06 0.992902 -89.06 0.118858 -1.119
9.00720000 0.118900 3.0071 0.992898 -89.07 0.992898 -89.07 0.118891 -1.143
9.00740000 0.118933 3.0212 0.992894 -89.07 0.992894 -89.07 0.118925 -1.167
9.00760000 0.118967 3.0354 0.992890 -89.08 0.992890 -89.08 0.118959 -1.191
9.00780000 0.119001 3.0497 0.992886 -89.08 0.992886 -89.08 0.118992 -1.215
9.00800000 0.119035 3.0640 0.992881 -89.09 0.992881 -89.09 0.119027 -1.239
9.00820000 0.119069 3.0784 0.992877 -89.09 0.992877 -89.09 0.119061 -1.264
9.00840000 0.119104 3.0929 0.992873 -89.10 0.992873 -89.10 0.119095 -1.288
9.00860000 0.119138 3.1075 0.992869 -89.10 0.992869 -89.10 0.119130 -1.313
9.00880000 0.119173 3.1221 0.992865 -89.11 0.992865 -89.11 0.119164 -1.337
9.00900000 0.119208 3.1368 0.992861 -89.11 0.992861 -89.11 0.119199 -1.362
9.00920000 0.119243 3.1516 0.992856 -89.12 0.992856 -89.12 0.119235 -1.387
9.00940000 0.119279 3.1665 0.992852 -89.12 0.992852 -89.12 0.119270 -1.412
9.00960000 0.119314 3.1815 0.992848 -89.13 0.992848 -89.13 0.119305 -1.437
9.00980000 0.119350 3.1965 0.992843 -89.13 0.992843 -89.13 0.119341 -1.463
9.01000000 0.119386 3.2117 0.992839 -89.14 0.992839 -89.14 0.119377 -1.488
9.01020000 0.119422 3.2269 0.992835 -89.14 0.992835 -89.14 0.119413 -1.514
9.01040000 0.119458 3.2422 0.992830 -89.15 0.992830 -89.15 0.119449 -1.539
9.01060000 0.119495 3.2575 0.992826 -89.15 0.992826 -89.15 0.119485 -1.565
9.01080000 0.119531 3.2730 0.992821 -89.16 0.992821 -89.16 0.119522 -1.591
9.01100000 0.119568 3.2886 0.992817 -89.16 0.992817 -89.16 0.119559 -1.617
9.01120000 0.119605 3.3042 0.992813 -89.17 0.992813 -89.17 0.119596 -1.643
9.01140000 0.119642 3.3199 0.992808 -89.17 0.992808 -89.17 0.119633 -1.669
9.01160000 0.119680 3.3357 0.992803 -89.18 0.992803 -89.18 0.119670 -1.695
9.01180000 0.119717 3.3516 0.992799 -89.18 0.992799 -89.18 0.119708 -1.722
9.01200000 0.119755 3.3676 0.992794 -89.19 0.992794 -89.19 0.119746 -1.748
9.01220000 0.119793 3.3837 0.992790 -89.19 0.992790 -89.19 0.119784 -1.775
9.01240000 0.119832 3.3998 0.992785 -89.20 0.992785 -89.20 0.119822 -1.802
9.01260000 0.119870 3.4161 0.992780 -89.21 0.992780 -89.21 0.119860 -1.829
9.01280000 0.119909 3.4324 0.992776 -89.21 0.992776 -89.21 0.119899 -1.856
9.01300000 0.119948 3.4488 0.992771 -89.22 0.992771 -89.22 0.119938 -1.883
9.01320000 0.119987 3.4654 0.992766 -89.22 0.992766 -89.22 0.119977 -1.911
9.01340000 0.120026 3.4820 0.992761 -89.23 0.992761 -89.23 0.120016 -1.938
9.01360000 0.120066 3.4987 0.992757 -89.23 0.992757 -89.23 0.120056 -1.966
9.01380000 0.120105 3.5155 0.992752 -89.24 0.992752 -89.24 0.120095 -1.993
9.01400000 0.120145 3.5324 0.992747 -89.24 0.992747 -89.24 0.120135 -2.021
9.01420000 0.120185 3.5494 0.992742 -89.25 0.992742 -89.25 0.120175 -2.049
9.01440000 0.120226 3.5665 0.992737 -89.25 0.992737 -89.25 0.120216 -2.078
9.01460000 0.120267 3.5837 0.992732 -89.26 0.992732 -89.26 0.120256 -2.106
9.01480000 0.120307 3.6009 0.992727 -89.27 0.992727 -89.27 0.120297 -2.134
9.01500000 0.120349 3.6183 0.992722 -89.27 0.992722 -89.27 0.120338 -2.163
9.01520000 0.120390 3.6358 0.992717 -89.28 0.992717 -89.28 0.120380 -2.192
9.01540000 0.120432 3.6534 0.992712 -89.28 0.992712 -89.28 0.120421 -2.220
9.01560000 0.120473 3.6711 0.992707 -89.29 0.992707 -89.29 0.120463 -2.249
9.01580000 0.120515 3.6889 0.992702 -89.29 0.992702 -89.29 0.120505 -2.278
9.01600000 0.120558 3.7067 0.992697 -89.30 0.992697 -89.30 0.120547 -2.308
9.01620000 0.120600 3.7247 0.992691 -89.31 0.992691 -89.31 0.120590 -2.337
9.01640000 0.120643 3.7428 0.992686 -89.31 0.992686 -89.31 0.120632 -2.367
9.01660000 0.120686 3.7610 0.992681 -89.32 0.992681 -89.32 0.120675 -2.396
9.01680000 0.120730 3.7793 0.992675 -89.32 0.992675 -89.32 0.120719 -2.426
9.01700000 0.120773 3.7977 0.992670 -89.33 0.992670 -89.33 0.120762 -2.456
9.01720000 0.120817 3.8162 0.992665 -89.33 0.992665 -89.33 0.120806 -2.487
9.01740000 0.120861 3.8349 0.992659 -89.34 0.992659 -89.34 0.120850 -2.517
9.01760000 0.120905 3.8536 0.992654 -89.35 0.992654 -89.35 0.120894 -2.547
9.01780000 0.120950 3.8724 0.992648 -89.35 0.992648 -89.35 0.120939 -2.578
9.01800000 0.120995 3.8914 0.992643 -89.36 0.992643 -89.36 0.120984 -2.609
9.01820000 0.121040 3.9104 0.992637 -89.36 0.992637 -89.36 0.121029 -2.640
9.01840000 0.121085 3.9296 0.992632 -89.37 0.992632 -89.37 0.121074 -2.671
9.01860000 0.121131 3.9489 0.992626 -89.38 0.992626 -89.38 0.121120 -2.702
9.01880000 0.121177 3.9683 0.992621 -89.38 0.992621 -89.38 0.121166 -2.734
9.01900000 0.121223 3.9878 0.992615 -89.39 0.992615 -89.39 0.121212 -2.765
9.01920000 0.121270 4.0074 0.992609 -89.39 0.992609 -89.39 0.121258 -2.797
9.01940000 0.121317 4.0272 0.992603 -89.40 0.992603 -89.40 0.121305 -2.829
9.01960000 0.121364 4.0470 0.992598 -89.41 0.992598 -89.41 0.121352 -2.861
9.01980000 0.121411 4.0670 0.992592 -89.41 0.992592 -89.41 0.121400 -2.893
9.02000000 0.121459 4.0871 0.992586 -89.42 0.992586 -89.42 0.121447 -2.926
9.02020000 0.121507 4.1073 0.992580 -89.42 0.992580 -89.42 0.121495 -2.958
9.02040000 0.121555 4.1277 0.992574 -89.43 0.992574 -89.43 0.121543 -2.991
9.02060000 0.121604 4.1481 0.992568 -89.44 0.992568 -89.44 0.121592 -3.024
9.02080000 0.121653 4.1687 0.992562 -89.44 0.992562 -89.44 0.121641 -3.057
9.02100000 0.121702 4.1894 0.992556 -89.45 0.992556 -89.45 0.121690 -3.090
9.02120000 0.121752 4.2103 0.992550 -89.46 0.992550 -89.46 0.121740 -3.124
9.02140000 0.121802 4.2312 0.992544 -89.46 0.992544 -89.46 0.121789 -3.158
9.02160000 0.121852 4.2523 0.992537 -89.47 0.992537 -89.47 0.121839 -3.191
9.02180000 0.121902 4.2735 0.992531 -89.47 0.992531 -89.47 0.121890 -3.225
9.02200000 0.121953 4.2949 0.992525 -89.48 0.992525 -89.48 0.121941 -3.260
9.02220000 0.122004 4.3164 0.992518 -89.49 0.992518 -89.49 0.121992 -3.294
9.02240000 0.122056 4.3380 0.992512 -89.49 0.992512 -89.49 0.122043 -3.329
9.02260000 0.122108 4.3597 0.992506 -89.50 0.992506 -89.50 0.122095 -3.363
9.02280000 0.122160 4.3816 0.992499 -89.51 0.992499 -89.51 0.122147 -3.398
9.02300000 0.122213 4.4036 0.992493 -89.51 0.992493 -89.51 0.122200 -3.434
9.02320000 0.122265 4.4257 0.992486 -89.52 0.992486 -89.52 0.122252 -3.469
9.02340000 0.122319 4.4480 0.992480 -89.53 0.992480 -89.53 0.122306 -3.504
9.02360000 0.122372 4.4704 0.992473 -89.53 0.992473 -89.53 0.122359 -3.540
9.02380000 0.122426 4.4930 0.992466 -89.54 0.992466 -89.54 0.122413 -3.576
9.02400000 0.122481 4.5157 0.992459 -89.55 0.992459 -89.55 0.122467 -3.612
9.02420000 0.122535 4.5385 0.992453 -89.55 0.992453 -89.55 0.122522 -3.649
9.02440000 0.122590 4.5615 0.992446 -89.56 0.992446 -89.56 0.122577 -3.685
9.02460000 0.122646 4.5846 0.992439 -89.57 0.992439 -89.57 0.122632 -3.722
9.02480000 0.122702 4.6079 0.992432 -89.57 0.992432 -89.57 0.122688 -3.759
9.02500000 0.122758 4.6313 0.992425 -89.58 0.992425 -89.58 0.122744 -3.796
9.02520000 0.122814 4.6549 0.992418 -89.59 0.992418 -89.59 0.122801 -3.834
9.02540000 0.122871 4.6786 0.992411 -89.59 0.992411 -89.59 0.122857 -3.871
9.02560000 0.122929 4.7024 0.992404 -89.60 0.992404 -89.60 0.122915 -3.909
9.02580000 0.122987 4.7264 0.992396 -89.61 0.992396 -89.61 0.122972 -3.947
9.02600000 0.123045 4.7506 0.992389 -89.62 0.992389 -89.62 0.123030 -3.985
9.02620000 0.123103 4.7749 0.992382 -89.62 0.992382 -89.62 0.123089 -4.024
9.02640000 0.123162 4.7994 0.992374 -89.63 0.992374 -89.63 0.123148 -4.063
9.02660000 0.123222 4.8240 0.992367 -89.64 0.992367 -89.64 0.123207 -4.102
9.02680000 0.123282 4.8488 0.992359 -89.64 0.992359 -89.64 0.123267 -4.141
9.02700000 0.123342 4.8737 0.992352 -89.65 0.992352 -89.65 0.123327 -4.180
9.02720000 0.123403 4.8989 0.992344 -89.66 0.992344 -89.66 0.123388 -4.220
9.02740000 0.123464 4.9241 0.992337 -89.67 0.992337 -89.67 0.123449 -4.260
9.02760000 0.123526 4.9496 0.992329 -89.67 0.992329 -89.67 0.123510 -4.300
9.02780000 0.123588 4.9752 0.992321 -89.68 0.992321 -89.68 0.123572 -4.340
9.02800000 0.123650 5.0009 0.992313 -89.69 0.992313 -89.69 0.123635 -4.381