! Sonnet Data File
! From: emgraph Version : 16.52
! From Project: Resonator2
! Data is De-embedded 
! Data File Written: 10/04/2017 18:31:04
!< HDATE 10/04/2017 15:54:54
!< MDATE 10/04/2017 15:55:28
!< PARAMS
!< gap = 50.0
!< Length = 400.0
!< END PARAMS
# GHZ S MA R 50.00000
8.80000000 0.023009 49.633 0.999734 -40.28 0.999734 -40.28 0.023009 49.822
!< P1 F=8.8 Eeff=(6.44890994 -2.9739e-5) Z0=(51.8068348 1.19496e-4) R=0.0 C=0.0 
!< P2 F=8.8 Eeff=(6.44890994 -2.9739e-5) Z0=(51.8068348 1.19496e-4) R=0.0 C=0.0 
8.80025000 0.023010 49.632 0.999734 -40.28 0.999734 -40.28 0.023010 49.821
8.80050000 0.023010 49.631 0.999734 -40.28 0.999734 -40.28 0.023010 49.820
8.80075000 0.023011 49.630 0.999734 -40.28 0.999734 -40.28 0.023011 49.819
8.80100000 0.023011 49.628 0.999734 -40.28 0.999734 -40.28 0.023011 49.818
8.80125000 0.023012 49.627 0.999734 -40.28 0.999734 -40.28 0.023012 49.817
8.80150000 0.023013 49.626 0.999734 -40.28 0.999734 -40.28 0.023013 49.816
8.80175000 0.023013 49.625 0.999734 -40.28 0.999734 -40.28 0.023013 49.815
8.80200000 0.023014 49.623 0.999734 -40.28 0.999734 -40.28 0.023014 49.814
8.80225000 0.023014 49.622 0.999734 -40.29 0.999734 -40.29 0.023014 49.813
8.80250000 0.023015 49.621 0.999734 -40.29 0.999734 -40.29 0.023015 49.812
8.80275000 0.023016 49.620 0.999734 -40.29 0.999734 -40.29 0.023016 49.811
8.80300000 0.023016 49.619 0.999733 -40.29 0.999733 -40.29 0.023016 49.810
8.80325000 0.023017 49.617 0.999733 -40.29 0.999733 -40.29 0.023017 49.809
8.80350000 0.023018 49.616 0.999733 -40.29 0.999733 -40.29 0.023018 49.808
8.80375000 0.023018 49.615 0.999733 -40.29 0.999733 -40.29 0.023018 49.806
8.80400000 0.023019 49.614 0.999733 -40.29 0.999733 -40.29 0.023019 49.805
8.80425000 0.023019 49.612 0.999733 -40.30 0.999733 -40.30 0.023019 49.804
8.80450000 0.023020 49.611 0.999733 -40.30 0.999733 -40.30 0.023020 49.803
8.80475000 0.023021 49.610 0.999733 -40.30 0.999733 -40.30 0.023021 49.802
8.80500000 0.023021 49.609 0.999733 -40.30 0.999733 -40.30 0.023021 49.801
8.80525000 0.023022 49.607 0.999733 -40.30 0.999733 -40.30 0.023022 49.800
8.80550000 0.023023 49.606 0.999733 -40.30 0.999733 -40.30 0.023023 49.799
8.80575000 0.023023 49.605 0.999733 -40.30 0.999733 -40.30 0.023023 49.798
8.80600000 0.023024 49.604 0.999733 -40.30 0.999733 -40.30 0.023024 49.797
8.80625000 0.023024 49.602 0.999733 -40.30 0.999733 -40.30 0.023024 49.796
8.80650000 0.023025 49.601 0.999733 -40.31 0.999733 -40.31 0.023025 49.795
8.80675000 0.023026 49.600 0.999733 -40.31 0.999733 -40.31 0.023026 49.794
8.80700000 0.023026 49.599 0.999733 -40.31 0.999733 -40.31 0.023026 49.793
8.80725000 0.023027 49.597 0.999733 -40.31 0.999733 -40.31 0.023027 49.792
8.80750000 0.023028 49.596 0.999733 -40.31 0.999733 -40.31 0.023028 49.791
8.80775000 0.023028 49.595 0.999733 -40.31 0.999733 -40.31 0.023028 49.789
8.80800000 0.023029 49.594 0.999733 -40.31 0.999733 -40.31 0.023029 49.788
8.80825000 0.023030 49.593 0.999733 -40.31 0.999733 -40.31 0.023030 49.787
8.80850000 0.023030 49.591 0.999733 -40.31 0.999733 -40.31 0.023030 49.786
8.80875000 0.023031 49.590 0.999733 -40.32 0.999733 -40.32 0.023031 49.785
8.80900000 0.023031 49.589 0.999733 -40.32 0.999733 -40.32 0.023031 49.784
8.80925000 0.023032 49.588 0.999733 -40.32 0.999733 -40.32 0.023032 49.783
8.80950000 0.023033 49.586 0.999733 -40.32 0.999733 -40.32 0.023033 49.782
8.80975000 0.023033 49.585 0.999733 -40.32 0.999733 -40.32 0.023033 49.781
8.81000000 0.023034 49.584 0.999733 -40.32 0.999733 -40.32 0.023034 49.780
8.81025000 0.023035 49.583 0.999733 -40.32 0.999733 -40.32 0.023035 49.779
8.81050000 0.023035 49.581 0.999733 -40.32 0.999733 -40.32 0.023035 49.778
8.81075000 0.023036 49.580 0.999733 -40.33 0.999733 -40.33 0.023036 49.777
8.81100000 0.023037 49.579 0.999733 -40.33 0.999733 -40.33 0.023037 49.776
8.81125000 0.023037 49.578 0.999733 -40.33 0.999733 -40.33 0.023037 49.775
8.81150000 0.023038 49.576 0.999733 -40.33 0.999733 -40.33 0.023038 49.774
8.81175000 0.023038 49.575 0.999733 -40.33 0.999733 -40.33 0.023038 49.773
8.81200000 0.023039 49.574 0.999733 -40.33 0.999733 -40.33 0.023039 49.772
8.81225000 0.023040 49.573 0.999733 -40.33 0.999733 -40.33 0.023040 49.770
8.81250000 0.023040 49.571 0.999733 -40.33 0.999733 -40.33 0.023040 49.769
8.81275000 0.023041 49.570 0.999733 -40.33 0.999733 -40.33 0.023041 49.768
8.81300000 0.023042 49.569 0.999733 -40.34 0.999733 -40.34 0.023042 49.767
8.81325000 0.023042 49.568 0.999733 -40.34 0.999733 -40.34 0.023042 49.766
8.81350000 0.023043 49.566 0.999733 -40.34 0.999733 -40.34 0.023043 49.765
8.81375000 0.023044 49.565 0.999733 -40.34 0.999733 -40.34 0.023044 49.764
8.81400000 0.023044 49.564 0.999733 -40.34 0.999733 -40.34 0.023044 49.763
8.81425000 0.023045 49.563 0.999733 -40.34 0.999733 -40.34 0.023045 49.762
8.81450000 0.023045 49.561 0.999733 -40.34 0.999733 -40.34 0.023045 49.761
8.81475000 0.023046 49.560 0.999733 -40.34 0.999733 -40.34 0.023046 49.760
8.81500000 0.023047 49.559 0.999733 -40.34 0.999733 -40.34 0.023047 49.759
8.81525000 0.023047 49.558 0.999733 -40.35 0.999733 -40.35 0.023047 49.758
8.81550000 0.023048 49.556 0.999733 -40.35 0.999733 -40.35 0.023048 49.757
8.81575000 0.023049 49.555 0.999733 -40.35 0.999733 -40.35 0.023049 49.756
8.81600000 0.023049 49.554 0.999733 -40.35 0.999733 -40.35 0.023049 49.755
8.81625000 0.023050 49.553 0.999733 -40.35 0.999733 -40.35 0.023050 49.754
8.81650000 0.023051 49.551 0.999733 -40.35 0.999733 -40.35 0.023051 49.753
8.81675000 0.023051 49.550 0.999733 -40.35 0.999733 -40.35 0.023051 49.752
8.81700000 0.023052 49.549 0.999733 -40.35 0.999733 -40.35 0.023052 49.751
8.81725000 0.023053 49.547 0.999733 -40.35 0.999733 -40.35 0.023053 49.749
8.81750000 0.023053 49.546 0.999733 -40.36 0.999733 -40.36 0.023053 49.748
8.81775000 0.023054 49.545 0.999733 -40.36 0.999733 -40.36 0.023054 49.747
8.81800000 0.023054 49.544 0.999733 -40.36 0.999733 -40.36 0.023054 49.746
8.81825000 0.023055 49.542 0.999733 -40.36 0.999733 -40.36 0.023055 49.745
8.81850000 0.023056 49.541 0.999733 -40.36 0.999733 -40.36 0.023056 49.744
8.81875000 0.023056 49.540 0.999733 -40.36 0.999733 -40.36 0.023056 49.743
8.81900000 0.023057 49.539 0.999732 -40.36 0.999732 -40.36 0.023057 49.742
8.81925000 0.023058 49.537 0.999732 -40.36 0.999732 -40.36 0.023058 49.741
8.81950000 0.023058 49.536 0.999732 -40.37 0.999732 -40.37 0.023058 49.740
8.81975000 0.023059 49.535 0.999732 -40.37 0.999732 -40.37 0.023059 49.739
8.82000000 0.023060 49.534 0.999732 -40.37 0.999732 -40.37 0.023060 49.738
8.82025000 0.023060 49.532 0.999732 -40.37 0.999732 -40.37 0.023060 49.737
8.82050000 0.023061 49.531 0.999732 -40.37 0.999732 -40.37 0.023061 49.736
8.82075000 0.023062 49.530 0.999732 -40.37 0.999732 -40.37 0.023062 49.735
8.82100000 0.023062 49.529 0.999732 -40.37 0.999732 -40.37 0.023062 49.734
8.82125000 0.023063 49.527 0.999732 -40.37 0.999732 -40.37 0.023063 49.733
8.82150000 0.023064 49.526 0.999732 -40.37 0.999732 -40.37 0.023064 49.732
8.82175000 0.023064 49.525 0.999732 -40.38 0.999732 -40.38 0.023064 49.731
8.82200000 0.023065 49.523 0.999732 -40.38 0.999732 -40.38 0.023065 49.730
8.82225000 0.023066 49.522 0.999732 -40.38 0.999732 -40.38 0.023066 49.729
8.82250000 0.023066 49.521 0.999732 -40.38 0.999732 -40.38 0.023066 49.728
8.82275000 0.023067 49.520 0.999732 -40.38 0.999732 -40.38 0.023067 49.727
8.82300000 0.023068 49.518 0.999732 -40.38 0.999732 -40.38 0.023068 49.726
8.82325000 0.023068 49.517 0.999732 -40.38 0.999732 -40.38 0.023068 49.725
8.82350000 0.023069 49.516 0.999732 -40.38 0.999732 -40.38 0.023069 49.724
8.82375000 0.023070 49.515 0.999732 -40.38 0.999732 -40.38 0.023070 49.722
8.82400000 0.023070 49.513 0.999732 -40.39 0.999732 -40.39 0.023070 49.721
8.82425000 0.023071 49.512 0.999732 -40.39 0.999732 -40.39 0.023071 49.720
8.82450000 0.023072 49.511 0.999732 -40.39 0.999732 -40.39 0.023072 49.719
8.82475000 0.023072 49.510 0.999732 -40.39 0.999732 -40.39 0.023072 49.718
8.82500000 0.023073 49.508 0.999732 -40.39 0.999732 -40.39 0.023073 49.717
8.82525000 0.023074 49.507 0.999732 -40.39 0.999732 -40.39 0.023074 49.716
8.82550000 0.023074 49.506 0.999732 -40.39 0.999732 -40.39 0.023074 49.715
8.82575000 0.023075 49.504 0.999732 -40.39 0.999732 -40.39 0.023075 49.714
8.82600000 0.023076 49.503 0.999732 -40.40 0.999732 -40.40 0.023076 49.713
8.82625000 0.023076 49.502 0.999732 -40.40 0.999732 -40.40 0.023076 49.712
8.82650000 0.023077 49.501 0.999732 -40.40 0.999732 -40.40 0.023077 49.711
8.82675000 0.023078 49.499 0.999732 -40.40 0.999732 -40.40 0.023078 49.710
8.82700000 0.023078 49.498 0.999732 -40.40 0.999732 -40.40 0.023078 49.709
8.82725000 0.023079 49.497 0.999732 -40.40 0.999732 -40.40 0.023079 49.708
8.82750000 0.023080 49.495 0.999732 -40.40 0.999732 -40.40 0.023080 49.707
8.82775000 0.023080 49.494 0.999732 -40.40 0.999732 -40.40 0.023080 49.706
8.82800000 0.023081 49.493 0.999732 -40.40 0.999732 -40.40 0.023081 49.705
8.82825000 0.023082 49.492 0.999732 -40.41 0.999732 -40.41 0.023082 49.704
8.82850000 0.023082 49.490 0.999732 -40.41 0.999732 -40.41 0.023082 49.703
8.82875000 0.023083 49.489 0.999732 -40.41 0.999732 -40.41 0.023083 49.702
8.82900000 0.023084 49.488 0.999732 -40.41 0.999732 -40.41 0.023084 49.701
8.82925000 0.023084 49.486 0.999732 -40.41 0.999732 -40.41 0.023084 49.700
8.82950000 0.023085 49.485 0.999732 -40.41 0.999732 -40.41 0.023085 49.699
8.82975000 0.023086 49.484 0.999732 -40.41 0.999732 -40.41 0.023086 49.698
8.83000000 0.023086 49.483 0.999732 -40.41 0.999732 -40.41 0.023086 49.697
8.83025000 0.023087 49.481 0.999732 -40.41 0.999732 -40.41 0.023087 49.696
8.83050000 0.023088 49.480 0.999732 -40.42 0.999732 -40.42 0.023088 49.695
8.83075000 0.023088 49.479 0.999732 -40.42 0.999732 -40.42 0.023088 49.694
8.83100000 0.023089 49.477 0.999732 -40.42 0.999732 -40.42 0.023089 49.693
8.83125000 0.023090 49.476 0.999732 -40.42 0.999732 -40.42 0.023090 49.692
8.83150000 0.023090 49.475 0.999732 -40.42 0.999732 -40.42 0.023090 49.691
8.83175000 0.023091 49.474 0.999732 -40.42 0.999732 -40.42 0.023091 49.690
8.83200000 0.023092 49.472 0.999732 -40.42 0.999732 -40.42 0.023092 49.689
8.83225000 0.023092 49.471 0.999732 -40.42 0.999732 -40.42 0.023092 49.688
8.83250000 0.023093 49.470 0.999732 -40.43 0.999732 -40.43 0.023093 49.687
8.83275000 0.023094 49.468 0.999732 -40.43 0.999732 -40.43 0.023094 49.686
8.83300000 0.023094 49.467 0.999732 -40.43 0.999732 -40.43 0.023094 49.685
8.83325000 0.023095 49.466 0.999732 -40.43 0.999732 -40.43 0.023095 49.684
8.83350000 0.023096 49.465 0.999732 -40.43 0.999732 -40.43 0.023096 49.683
8.83375000 0.023097 49.463 0.999732 -40.43 0.999732 -40.43 0.023097 49.682
8.83400000 0.023097 49.462 0.999732 -40.43 0.999732 -40.43 0.023097 49.681
8.83425000 0.023098 49.461 0.999732 -40.43 0.999732 -40.43 0.023098 49.680
8.83450000 0.023099 49.459 0.999732 -40.43 0.999732 -40.43 0.023099 49.679
8.83475000 0.023099 49.458 0.999731 -40.44 0.999731 -40.44 0.023099 49.678
8.83500000 0.023100 49.457 0.999731 -40.44 0.999731 -40.44 0.023100 49.677
8.83525000 0.023101 49.455 0.999731 -40.44 0.999731 -40.44 0.023101 49.676
8.83550000 0.023101 49.454 0.999731 -40.44 0.999731 -40.44 0.023101 49.675
8.83575000 0.023102 49.453 0.999731 -40.44 0.999731 -40.44 0.023102 49.674
8.83600000 0.023103 49.451 0.999731 -40.44 0.999731 -40.44 0.023103 49.673
8.83625000 0.023103 49.450 0.999731 -40.44 0.999731 -40.44 0.023103 49.672
8.83650000 0.023104 49.449 0.999731 -40.44 0.999731 -40.44 0.023104 49.671
8.83675000 0.023105 49.448 0.999731 -40.44 0.999731 -40.44 0.023105 49.670
8.83700000 0.023106 49.446 0.999731 -40.45 0.999731 -40.45 0.023106 49.669
8.83725000 0.023106 49.445 0.999731 -40.45 0.999731 -40.45 0.023106 49.668
8.83750000 0.023107 49.444 0.999731 -40.45 0.999731 -40.45 0.023107 49.667
8.83775000 0.023108 49.442 0.999731 -40.45 0.999731 -40.45 0.023108 49.666
8.83800000 0.023108 49.441 0.999731 -40.45 0.999731 -40.45 0.023108 49.665
8.83825000 0.023109 49.440 0.999731 -40.45 0.999731 -40.45 0.023109 49.664
8.83850000 0.023110 49.438 0.999731 -40.45 0.999731 -40.45 0.023110 49.663
8.83875000 0.023110 49.437 0.999731 -40.45 0.999731 -40.45 0.023110 49.662
8.83900000 0.023111 49.436 0.999731 -40.46 0.999731 -40.46 0.023111 49.661
8.83925000 0.023112 49.434 0.999731 -40.46 0.999731 -40.46 0.023112 49.660
8.83950000 0.023113 49.433 0.999731 -40.46 0.999731 -40.46 0.023113 49.659
8.83975000 0.023113 49.432 0.999731 -40.46 0.999731 -40.46 0.023113 49.658
8.84000000 0.023114 49.430 0.999731 -40.46 0.999731 -40.46 0.023114 49.657
8.84025000 0.023115 49.429 0.999731 -40.46 0.999731 -40.46 0.023115 49.656
8.84050000 0.023115 49.428 0.999731 -40.46 0.999731 -40.46 0.023115 49.655
8.84075000 0.023116 49.427 0.999731 -40.46 0.999731 -40.46 0.023116 49.654
8.84100000 0.023117 49.425 0.999731 -40.46 0.999731 -40.46 0.023117 49.653
8.84125000 0.023118 49.424 0.999731 -40.47 0.999731 -40.47 0.023118 49.652
8.84150000 0.023118 49.423 0.999731 -40.47 0.999731 -40.47 0.023118 49.651
8.84175000 0.023119 49.421 0.999731 -40.47 0.999731 -40.47 0.023119 49.650
8.84200000 0.023120 49.420 0.999731 -40.47 0.999731 -40.47 0.023120 49.649
8.84225000 0.023120 49.419 0.999731 -40.47 0.999731 -40.47 0.023120 49.648
8.84250000 0.023121 49.417 0.999731 -40.47 0.999731 -40.47 0.023121 49.647
8.84275000 0.023122 49.416 0.999731 -40.47 0.999731 -40.47 0.023122 49.646
8.84300000 0.023123 49.415 0.999731 -40.47 0.999731 -40.47 0.023123 49.645
8.84325000 0.023123 49.413 0.999731 -40.47 0.999731 -40.47 0.023123 49.644
8.84350000 0.023124 49.412 0.999731 -40.48 0.999731 -40.48 0.023124 49.643
8.84375000 0.023125 49.411 0.999731 -40.48 0.999731 -40.48 0.023125 49.642
8.84400000 0.023126 49.409 0.999731 -40.48 0.999731 -40.48 0.023126 49.641
8.84425000 0.023126 49.408 0.999731 -40.48 0.999731 -40.48 0.023126 49.640
8.84450000 0.023127 49.407 0.999731 -40.48 0.999731 -40.48 0.023127 49.639
8.84475000 0.023128 49.405 0.999731 -40.48 0.999731 -40.48 0.023128 49.638
8.84500000 0.023128 49.404 0.999731 -40.48 0.999731 -40.48 0.023128 49.637
8.84525000 0.023129 49.403 0.999731 -40.48 0.999731 -40.48 0.023129 49.636
8.84550000 0.023130 49.401 0.999731 -40.49 0.999731 -40.49 0.023130 49.635
8.84575000 0.023131 49.400 0.999731 -40.49 0.999731 -40.49 0.023131 49.634
8.84600000 0.023131 49.398 0.999731 -40.49 0.999731 -40.49 0.023131 49.633
8.84625000 0.023132 49.397 0.999731 -40.49 0.999731 -40.49 0.023132 49.632
8.84650000 0.023133 49.396 0.999731 -40.49 0.999731 -40.49 0.023133 49.631
8.84675000 0.023134 49.394 0.999731 -40.49 0.999731 -40.49 0.023134 49.630
8.84700000 0.023134 49.393 0.999731 -40.49 0.999731 -40.49 0.023134 49.629
8.84725000 0.023135 49.392 0.999731 -40.49 0.999731 -40.49 0.023135 49.628
8.84750000 0.023136 49.390 0.999731 -40.49 0.999731 -40.49 0.023136 49.627
8.84775000 0.023137 49.389 0.999731 -40.50 0.999731 -40.50 0.023137 49.627
8.84800000 0.023137 49.388 0.999731 -40.50 0.999731 -40.50 0.023137 49.626
8.84825000 0.023138 49.386 0.999731 -40.50 0.999731 -40.50 0.023138 49.625
8.84850000 0.023139 49.385 0.999731 -40.50 0.999731 -40.50 0.023139 49.624
8.84875000 0.023140 49.384 0.999731 -40.50 0.999731 -40.50 0.023140 49.623
8.84900000 0.023140 49.382 0.999731 -40.50 0.999731 -40.50 0.023140 49.622
8.84925000 0.023141 49.381 0.999731 -40.50 0.999731 -40.50 0.023141 49.621
8.84950000 0.023142 49.380 0.999730 -40.50 0.999730 -40.50 0.023142 49.620
8.84975000 0.023143 49.378 0.999730 -40.50 0.999730 -40.50 0.023143 49.619
8.85000000 0.023143 49.377 0.999730 -40.51 0.999730 -40.51 0.023143 49.618
8.85025000 0.023144 49.375 0.999730 -40.51 0.999730 -40.51 0.023144 49.617
8.85050000 0.023145 49.374 0.999730 -40.51 0.999730 -40.51 0.023145 49.616
8.85075000 0.023146 49.373 0.999730 -40.51 0.999730 -40.51 0.023146 49.615
8.85100000 0.023146 49.371 0.999730 -40.51 0.999730 -40.51 0.023146 49.614
8.85125000 0.023147 49.370 0.999730 -40.51 0.999730 -40.51 0.023147 49.613
8.85150000 0.023148 49.369 0.999730 -40.51 0.999730 -40.51 0.023148 49.612
8.85175000 0.023149 49.367 0.999730 -40.51 0.999730 -40.51 0.023149 49.611
8.85200000 0.023149 49.366 0.999730 -40.52 0.999730 -40.52 0.023149 49.610
8.85225000 0.023150 49.364 0.999730 -40.52 0.999730 -40.52 0.023150 49.609
8.85250000 0.023151 49.363 0.999730 -40.52 0.999730 -40.52 0.023151 49.609
8.85275000 0.023152 49.362 0.999730 -40.52 0.999730 -40.52 0.023152 49.608
8.85300000 0.023153 49.360 0.999730 -40.52 0.999730 -40.52 0.023153 49.607
8.85325000 0.023153 49.359 0.999730 -40.52 0.999730 -40.52 0.023153 49.606
8.85350000 0.023154 49.358 0.999730 -40.52 0.999730 -40.52 0.023154 49.605
8.85375000 0.023155 49.356 0.999730 -40.52 0.999730 -40.52 0.023155 49.604
8.85400000 0.023156 49.355 0.999730 -40.52 0.999730 -40.52 0.023156 49.603
8.85425000 0.023156 49.353 0.999730 -40.53 0.999730 -40.53 0.023156 49.602
8.85450000 0.023157 49.352 0.999730 -40.53 0.999730 -40.53 0.023157 49.601
8.85475000 0.023158 49.351 0.999730 -40.53 0.999730 -40.53 0.023158 49.600
8.85500000 0.023159 49.349 0.999730 -40.53 0.999730 -40.53 0.023159 49.599
8.85525000 0.023160 49.348 0.999730 -40.53 0.999730 -40.53 0.023160 49.598
8.85550000 0.023160 49.346 0.999730 -40.53 0.999730 -40.53 0.023160 49.597
8.85575000 0.023161 49.345 0.999730 -40.53 0.999730 -40.53 0.023161 49.596
8.85600000 0.023162 49.344 0.999730 -40.53 0.999730 -40.53 0.023162 49.596
8.85625000 0.023163 49.342 0.999730 -40.53 0.999730 -40.53 0.023163 49.595
8.85650000 0.023164 49.341 0.999730 -40.54 0.999730 -40.54 0.023164 49.594
8.85675000 0.023164 49.339 0.999730 -40.54 0.999730 -40.54 0.023164 49.593
8.85700000 0.023165 49.338 0.999730 -40.54 0.999730 -40.54 0.023165 49.592
8.85725000 0.023166 49.336 0.999730 -40.54 0.999730 -40.54 0.023166 49.591
8.85750000 0.023167 49.335 0.999730 -40.54 0.999730 -40.54 0.023167 49.590
8.85775000 0.023168 49.334 0.999730 -40.54 0.999730 -40.54 0.023168 49.589
8.85800000 0.023168 49.332 0.999730 -40.54 0.999730 -40.54 0.023168 49.588
8.85825000 0.023169 49.331 0.999730 -40.54 0.999730 -40.54 0.023169 49.587
8.85850000 0.023170 49.329 0.999730 -40.55 0.999730 -40.55 0.023170 49.587
8.85875000 0.023171 49.328 0.999730 -40.55 0.999730 -40.55 0.023171 49.586
8.85900000 0.023172 49.327 0.999730 -40.55 0.999730 -40.55 0.023172 49.585
8.85925000 0.023173 49.325 0.999730 -40.55 0.999730 -40.55 0.023173 49.584
8.85950000 0.023173 49.324 0.999730 -40.55 0.999730 -40.55 0.023173 49.583
8.85975000 0.023174 49.322 0.999730 -40.55 0.999730 -40.55 0.023174 49.582
8.86000000 0.023175 49.321 0.999730 -40.55 0.999730 -40.55 0.023175 49.581
8.86025000 0.023176 49.319 0.999730 -40.55 0.999730 -40.55 0.023176 49.580
8.86050000 0.023177 49.318 0.999730 -40.55 0.999730 -40.55 0.023177 49.579
8.86075000 0.023178 49.317 0.999730 -40.56 0.999730 -40.56 0.023177 49.578
8.86100000 0.023178 49.315 0.999730 -40.56 0.999730 -40.56 0.023178 49.578
8.86125000 0.023179 49.314 0.999730 -40.56 0.999730 -40.56 0.023179 49.577
8.86150000 0.023180 49.312 0.999730 -40.56 0.999730 -40.56 0.023180 49.576
8.86175000 0.023181 49.311 0.999730 -40.56 0.999730 -40.56 0.023181 49.575
8.86200000 0.023182 49.309 0.999730 -40.56 0.999730 -40.56 0.023182 49.574
8.86225000 0.023183 49.308 0.999730 -40.56 0.999730 -40.56 0.023183 49.573
8.86250000 0.023183 49.306 0.999730 -40.56 0.999730 -40.56 0.023183 49.572
8.86275000 0.023184 49.305 0.999729 -40.57 0.999729 -40.57 0.023184 49.571
8.86300000 0.023185 49.303 0.999729 -40.57 0.999729 -40.57 0.023185 49.571
8.86325000 0.023186 49.302 0.999729 -40.57 0.999729 -40.57 0.023186 49.570
8.86350000 0.023187 49.301 0.999729 -40.57 0.999729 -40.57 0.023187 49.569
8.86375000 0.023188 49.299 0.999729 -40.57 0.999729 -40.57 0.023188 49.568
8.86400000 0.023189 49.298 0.999729 -40.57 0.999729 -40.57 0.023189 49.567
8.86425000 0.023189 49.296 0.999729 -40.57 0.999729 -40.57 0.023189 49.566
8.86450000 0.023190 49.295 0.999729 -40.57 0.999729 -40.57 0.023190 49.565
8.86475000 0.023191 49.293 0.999729 -40.57 0.999729 -40.57 0.023191 49.565
8.86500000 0.023192 49.292 0.999729 -40.58 0.999729 -40.58 0.023192 49.564
8.86525000 0.023193 49.290 0.999729 -40.58 0.999729 -40.58 0.023193 49.563
8.86550000 0.023194 49.289 0.999729 -40.58 0.999729 -40.58 0.023194 49.562
8.86575000 0.023195 49.287 0.999729 -40.58 0.999729 -40.58 0.023195 49.561
8.86600000 0.023196 49.286 0.999729 -40.58 0.999729 -40.58 0.023196 49.560
8.86625000 0.023196 49.284 0.999729 -40.58 0.999729 -40.58 0.023196 49.560
8.86650000 0.023197 49.283 0.999729 -40.58 0.999729 -40.58 0.023197 49.559
8.86675000 0.023198 49.281 0.999729 -40.58 0.999729 -40.58 0.023198 49.558
8.86700000 0.023199 49.280 0.999729 -40.58 0.999729 -40.58 0.023199 49.557
8.86725000 0.023200 49.278 0.999729 -40.59 0.999729 -40.59 0.023200 49.556
8.86750000 0.023201 49.277 0.999729 -40.59 0.999729 -40.59 0.023201 49.555
8.86775000 0.023202 49.275 0.999729 -40.59 0.999729 -40.59 0.023202 49.555
8.86800000 0.023203 49.274 0.999729 -40.59 0.999729 -40.59 0.023203 49.554
8.86825000 0.023204 49.272 0.999729 -40.59 0.999729 -40.59 0.023204 49.553
8.86850000 0.023205 49.271 0.999729 -40.59 0.999729 -40.59 0.023205 49.552
8.86875000 0.023206 49.269 0.999729 -40.59 0.999729 -40.59 0.023205 49.551
8.86900000 0.023206 49.268 0.999729 -40.59 0.999729 -40.59 0.023206 49.551
8.86925000 0.023207 49.266 0.999729 -40.60 0.999729 -40.60 0.023207 49.550
8.86950000 0.023208 49.265 0.999729 -40.60 0.999729 -40.60 0.023208 49.549
8.86975000 0.023209 49.263 0.999729 -40.60 0.999729 -40.60 0.023209 49.548
8.87000000 0.023210 49.261 0.999729 -40.60 0.999729 -40.60 0.023210 49.547
8.87025000 0.023211 49.260 0.999729 -40.60 0.999729 -40.60 0.023211 49.547
8.87050000 0.023212 49.258 0.999729 -40.60 0.999729 -40.60 0.023212 49.546
8.87075000 0.023213 49.257 0.999729 -40.60 0.999729 -40.60 0.023213 49.545
8.87100000 0.023214 49.255 0.999729 -40.60 0.999729 -40.60 0.023214 49.544
8.87125000 0.023215 49.254 0.999729 -40.60 0.999729 -40.60 0.023215 49.543
8.87150000 0.023216 49.252 0.999729 -40.61 0.999729 -40.61 0.023216 49.543
8.87175000 0.023217 49.251 0.999729 -40.61 0.999729 -40.61 0.023217 49.542
8.87200000 0.023218 49.249 0.999729 -40.61 0.999729 -40.61 0.023218 49.541
8.87225000 0.023219 49.247 0.999729 -40.61 0.999729 -40.61 0.023219 49.540
8.87250000 0.023220 49.246 0.999729 -40.61 0.999729 -40.61 0.023220 49.540
8.87275000 0.023221 49.244 0.999729 -40.61 0.999729 -40.61 0.023221 49.539
8.87300000 0.023222 49.243 0.999729 -40.61 0.999729 -40.61 0.023222 49.538
8.87325000 0.023223 49.241 0.999729 -40.61 0.999729 -40.61 0.023223 49.537
8.87350000 0.023224 49.240 0.999729 -40.62 0.999729 -40.62 0.023224 49.536
8.87375000 0.023225 49.238 0.999729 -40.62 0.999729 -40.62 0.023225 49.536
8.87400000 0.023226 49.236 0.999729 -40.62 0.999729 -40.62 0.023226 49.535
8.87425000 0.023227 49.235 0.999729 -40.62 0.999729 -40.62 0.023227 49.534
8.87450000 0.023228 49.233 0.999728 -40.62 0.999728 -40.62 0.023228 49.533
8.87475000 0.023229 49.232 0.999728 -40.62 0.999728 -40.62 0.023229 49.533
8.87500000 0.023230 49.230 0.999728 -40.62 0.999728 -40.62 0.023230 49.532
8.87525000 0.023231 49.228 0.999728 -40.62 0.999728 -40.62 0.023231 49.531
8.87550000 0.023232 49.227 0.999728 -40.62 0.999728 -40.62 0.023232 49.531
8.87575000 0.023233 49.225 0.999728 -40.63 0.999728 -40.63 0.023233 49.530
8.87600000 0.023234 49.223 0.999728 -40.63 0.999728 -40.63 0.023234 49.529
8.87625000 0.023235 49.222 0.999728 -40.63 0.999728 -40.63 0.023235 49.528
8.87650000 0.023236 49.220 0.999728 -40.63 0.999728 -40.63 0.023236 49.528
8.87675000 0.023237 49.219 0.999728 -40.63 0.999728 -40.63 0.023237 49.527
8.87700000 0.023238 49.217 0.999728 -40.63 0.999728 -40.63 0.023238 49.526
8.87722078 0.023239 49.215 0.999728 -40.63 0.999728 -40.63 0.023239 49.526
8.87725000 0.023239 49.215 0.999728 -40.63 0.999728 -40.63 0.023239 49.526
8.87750000 0.023240 49.214 0.999728 -40.63 0.999728 -40.63 0.023240 49.525
8.87775000 0.023241 49.212 0.999728 -40.64 0.999728 -40.64 0.023241 49.524
8.87800000 0.023242 49.210 0.999728 -40.64 0.999728 -40.64 0.023242 49.524
8.87825000 0.023243 49.209 0.999728 -40.64 0.999728 -40.64 0.023243 49.523
8.87841358 0.023244 49.207 0.999728 -40.64 0.999728 -40.64 0.023244 49.522
8.87850000 0.023244 49.207 0.999728 -40.64 0.999728 -40.64 0.023244 49.522
8.87875000 0.023245 49.205 0.999728 -40.64 0.999728 -40.64 0.023245 49.522
8.87900000 0.023246 49.203 0.999728 -40.64 0.999728 -40.64 0.023246 49.521
8.87925000 0.023248 49.202 0.999728 -40.64 0.999728 -40.64 0.023248 49.520
8.87950000 0.023249 49.200 0.999728 -40.64 0.999728 -40.64 0.023249 49.520
8.87957905 0.023249 49.200 0.999728 -40.64 0.999728 -40.64 0.023249 49.519
8.87975000 0.023250 49.198 0.999728 -40.64 0.999728 -40.64 0.023250 49.519
8.88000000 0.023251 49.197 0.999728 -40.65 0.999728 -40.65 0.023251 49.518
8.88025000 0.023252 49.195 0.999728 -40.65 0.999728 -40.65 0.023252 49.518
8.88050000 0.023253 49.193 0.999728 -40.65 0.999728 -40.65 0.023253 49.517
8.88071782 0.023254 49.192 0.999728 -40.65 0.999728 -40.65 0.023254 49.516
8.88075000 0.023254 49.191 0.999728 -40.65 0.999728 -40.65 0.023254 49.516
8.88100000 0.023255 49.190 0.999728 -40.65 0.999728 -40.65 0.023255 49.516
8.88125000 0.023257 49.188 0.999728 -40.65 0.999728 -40.65 0.023257 49.515
8.88150000 0.023258 49.186 0.999728 -40.65 0.999728 -40.65 0.023258 49.514
8.88175000 0.023259 49.184 0.999728 -40.65 0.999728 -40.65 0.023259 49.514
8.88183049 0.023259 49.184 0.999728 -40.65 0.999728 -40.65 0.023259 49.514
8.88200000 0.023260 49.183 0.999728 -40.66 0.999728 -40.66 0.023260 49.513
8.88225000 0.023261 49.181 0.999728 -40.66 0.999728 -40.66 0.023261 49.513
8.88250000 0.023262 49.179 0.999728 -40.66 0.999728 -40.66 0.023262 49.512
8.88275000 0.023264 49.177 0.999728 -40.66 0.999728 -40.66 0.023264 49.511
8.88291767 0.023264 49.176 0.999728 -40.66 0.999728 -40.66 0.023264 49.511
8.88300000 0.023265 49.176 0.999728 -40.66 0.999728 -40.66 0.023265 49.511
8.88325000 0.023266 49.174 0.999728 -40.66 0.999728 -40.66 0.023266 49.510
8.88350000 0.023267 49.172 0.999728 -40.66 0.999728 -40.66 0.023267 49.510
8.88375000 0.023268 49.170 0.999728 -40.66 0.999728 -40.66 0.023268 49.509
8.88397993 0.023270 49.169 0.999728 -40.66 0.999728 -40.66 0.023270 49.509
8.88400000 0.023270 49.168 0.999727 -40.66 0.999727 -40.66 0.023270 49.509
8.88425000 0.023271 49.167 0.999727 -40.67 0.999727 -40.67 0.023271 49.508
8.88450000 0.023272 49.165 0.999727 -40.67 0.999727 -40.67 0.023272 49.508
8.88475000 0.023273 49.163 0.999727 -40.67 0.999727 -40.67 0.023273 49.507
8.88500000 0.023275 49.161 0.999727 -40.67 0.999727 -40.67 0.023275 49.507
8.88501786 0.023275 49.161 0.999727 -40.67 0.999727 -40.67 0.023275 49.506
8.88525000 0.023276 49.159 0.999727 -40.67 0.999727 -40.67 0.023276 49.506
8.88550000 0.023277 49.157 0.999727 -40.67 0.999727 -40.67 0.023277 49.505
8.88575000 0.023278 49.155 0.999727 -40.67 0.999727 -40.67 0.023278 49.505
8.88600000 0.023280 49.154 0.999727 -40.67 0.999727 -40.67 0.023280 49.504
8.88603200 0.023280 49.153 0.999727 -40.67 0.999727 -40.67 0.023280 49.504
8.88625000 0.023281 49.152 0.999727 -40.68 0.999727 -40.68 0.023281 49.504
8.88650000 0.023282 49.150 0.999727 -40.68 0.999727 -40.68 0.023282 49.503
8.88675000 0.023284 49.148 0.999727 -40.68 0.999727 -40.68 0.023284 49.503
8.88700000 0.023285 49.146 0.999727 -40.68 0.999727 -40.68 0.023285 49.503
8.88702291 0.023285 49.146 0.999727 -40.68 0.999727 -40.68 0.023285 49.502
8.88725000 0.023286 49.144 0.999727 -40.68 0.999727 -40.68 0.023286 49.502
8.88750000 0.023288 49.142 0.999727 -40.68 0.999727 -40.68 0.023288 49.502
8.88775000 0.023289 49.140 0.999727 -40.68 0.999727 -40.68 0.023289 49.501
8.88799111 0.023290 49.138 0.999727 -40.68 0.999727 -40.68 0.023290 49.501
8.88800000 0.023290 49.138 0.999727 -40.68 0.999727 -40.68 0.023290 49.501
8.88825000 0.023292 49.136 0.999727 -40.69 0.999727 -40.69 0.023292 49.500
8.88850000 0.023293 49.134 0.999727 -40.69 0.999727 -40.69 0.023293 49.500
8.88875000 0.023294 49.132 0.999727 -40.69 0.999727 -40.69 0.023295 49.499
8.88893712 0.023296 49.131 0.999727 -40.69 0.999727 -40.69 0.023296 49.499
8.88900000 0.023296 49.130 0.999727 -40.69 0.999727 -40.69 0.023296 49.499
8.88925000 0.023297 49.128 0.999727 -40.69 0.999727 -40.69 0.023297 49.499
8.88950000 0.023299 49.126 0.999727 -40.69 0.999727 -40.69 0.023299 49.498
8.88975000 0.023300 49.124 0.999727 -40.69 0.999727 -40.69 0.023300 49.498
8.88986146 0.023301 49.123 0.999727 -40.69 0.999727 -40.69 0.023301 49.498
8.89000000 0.023302 49.122 0.999727 -40.69 0.999727 -40.69 0.023302 49.498
8.89025000 0.023303 49.120 0.999727 -40.69 0.999727 -40.69 0.023303 49.497
8.89050000 0.023305 49.118 0.999727 -40.70 0.999727 -40.70 0.023305 49.497
8.89075000 0.023306 49.116 0.999727 -40.70 0.999727 -40.70 0.023306 49.497
8.89076462 0.023306 49.116 0.999727 -40.70 0.999727 -40.70 0.023306 49.497
8.89100000 0.023308 49.114 0.999727 -40.70 0.999727 -40.70 0.023308 49.496
8.89125000 0.023309 49.112 0.999727 -40.70 0.999727 -40.70 0.023309 49.496
8.89150000 0.023311 49.110 0.999727 -40.70 0.999727 -40.70 0.023311 49.496
8.89164708 0.023311 49.108 0.999727 -40.70 0.999727 -40.70 0.023312 49.495
8.89175000 0.023312 49.108 0.999726 -40.70 0.999726 -40.70 0.023312 49.495
8.89200000 0.023314 49.105 0.999726 -40.70 0.999726 -40.70 0.023314 49.495
8.89225000 0.023315 49.103 0.999726 -40.70 0.999726 -40.70 0.023315 49.495
8.89250000 0.023317 49.101 0.999726 -40.71 0.999726 -40.71 0.023317 49.494
8.89250932 0.023317 49.101 0.999726 -40.71 0.999726 -40.71 0.023317 49.494
8.89275000 0.023318 49.099 0.999726 -40.71 0.999726 -40.71 0.023318 49.494
8.89300000 0.023320 49.097 0.999726 -40.71 0.999726 -40.71 0.023320 49.494
8.89325000 0.023322 49.095 0.999726 -40.71 0.999726 -40.71 0.023322 49.494
8.89335181 0.023322 49.094 0.999726 -40.71 0.999726 -40.71 0.023322 49.494
8.89350000 0.023323 49.092 0.999726 -40.71 0.999726 -40.71 0.023323 49.494
8.89375000 0.023325 49.090 0.999726 -40.71 0.999726 -40.71 0.023325 49.493
8.89400000 0.023327 49.088 0.999726 -40.71 0.999726 -40.71 0.023327 49.493