! Sonnet Data File
! From: emgraph Version : 16.52
! From Project: Resonator2_cp
! Data is De-embedded 
! Data File Written: 10/09/2017 00:47:18
!< HDATE 10/08/2017 10:09:33
!< MDATE 10/08/2017 10:09:33
!< PARAMS
!< Length = 400.0
!< Pwid1 = 2000.0
!< Pwid2 = 2000.0
!< Air_gap = 12.0
!< Width = 20.0
!< gap = 26.0
!< END PARAMS
# GHZ S MA R 51.00000
8.90000000 0.001718 -176.4 0.999995 -81.52 0.999995 -81.52 0.001718 -166.8
!< P1 F=8.9 Eeff=(6.44624956 -2.9718e-5) Z0=(50.9071399 1.17454e-4) R=0.0 C=0.0 
!< P2 F=8.9 Eeff=(6.44624956 -2.9718e-5) Z0=(50.9071399 1.17454e-4) R=0.0 C=0.0 
8.90010000 0.001720 -176.4 0.999995 -81.52 0.999995 -81.52 0.001720 -166.8
8.90020000 0.001722 -176.4 0.999995 -81.52 0.999995 -81.52 0.001721 -166.8
8.90030000 0.001723 -176.4 0.999995 -81.52 0.999995 -81.52 0.001723 -166.8
8.90040000 0.001725 -176.4 0.999995 -81.53 0.999995 -81.53 0.001725 -166.8
8.90050000 0.001727 -176.5 0.999995 -81.53 0.999995 -81.53 0.001726 -166.8
8.90060000 0.001728 -176.5 0.999995 -81.53 0.999995 -81.53 0.001728 -166.8
8.90070000 0.001730 -176.5 0.999995 -81.53 0.999995 -81.53 0.001730 -166.7
8.90080000 0.001732 -176.5 0.999995 -81.53 0.999995 -81.53 0.001732 -166.7
8.90090000 0.001733 -176.5 0.999995 -81.53 0.999995 -81.53 0.001733 -166.7
8.90100000 0.001735 -176.5 0.999995 -81.53 0.999995 -81.53 0.001735 -166.7
8.90110000 0.001737 -176.5 0.999995 -81.53 0.999995 -81.53 0.001737 -166.7
8.90120000 0.001739 -176.6 0.999995 -81.53 0.999995 -81.53 0.001738 -166.7
8.90130000 0.001740 -176.6 0.999995 -81.54 0.999995 -81.54 0.001740 -166.7
8.90140000 0.001742 -176.6 0.999995 -81.54 0.999995 -81.54 0.001742 -166.7
8.90150000 0.001744 -176.6 0.999995 -81.54 0.999995 -81.54 0.001744 -166.6
8.90160000 0.001746 -176.6 0.999995 -81.54 0.999995 -81.54 0.001746 -166.6
8.90170000 0.001748 -176.6 0.999995 -81.54 0.999995 -81.54 0.001747 -166.6
8.90180000 0.001749 -176.6 0.999995 -81.54 0.999995 -81.54 0.001749 -166.6
8.90190000 0.001751 -176.7 0.999995 -81.54 0.999995 -81.54 0.001751 -166.6
8.90200000 0.001753 -176.7 0.999995 -81.54 0.999995 -81.54 0.001753 -166.6
8.90210000 0.001755 -176.7 0.999995 -81.54 0.999995 -81.54 0.001754 -166.6
8.90220000 0.001756 -176.7 0.999995 -81.54 0.999995 -81.54 0.001756 -166.6
8.90230000 0.001758 -176.7 0.999995 -81.55 0.999995 -81.55 0.001758 -166.5
8.90240000 0.001760 -176.7 0.999995 -81.55 0.999995 -81.55 0.001760 -166.5
8.90250000 0.001762 -176.8 0.999995 -81.55 0.999995 -81.55 0.001762 -166.5
8.90260000 0.001764 -176.8 0.999995 -81.55 0.999995 -81.55 0.001764 -166.5
8.90270000 0.001766 -176.8 0.999995 -81.55 0.999995 -81.55 0.001765 -166.5
8.90280000 0.001767 -176.8 0.999995 -81.55 0.999995 -81.55 0.001767 -166.5
8.90290000 0.001769 -176.8 0.999995 -81.55 0.999995 -81.55 0.001769 -166.5
8.90300000 0.001771 -176.8 0.999995 -81.55 0.999995 -81.55 0.001771 -166.4
8.90310000 0.001773 -176.8 0.999995 -81.55 0.999995 -81.55 0.001773 -166.4
8.90320000 0.001775 -176.9 0.999995 -81.55 0.999995 -81.55 0.001775 -166.4
8.90330000 0.001777 -176.9 0.999995 -81.56 0.999995 -81.56 0.001777 -166.4
8.90340000 0.001779 -176.9 0.999995 -81.56 0.999995 -81.56 0.001778 -166.4
8.90350000 0.001781 -176.9 0.999995 -81.56 0.999995 -81.56 0.001780 -166.4
8.90360000 0.001783 -176.9 0.999995 -81.56 0.999995 -81.56 0.001782 -166.4
8.90370000 0.001784 -176.9 0.999995 -81.56 0.999995 -81.56 0.001784 -166.4
8.90380000 0.001786 -177.0 0.999995 -81.56 0.999995 -81.56 0.001786 -166.3
8.90390000 0.001788 -177.0 0.999995 -81.56 0.999995 -81.56 0.001788 -166.3
8.90400000 0.001790 -177.0 0.999995 -81.56 0.999995 -81.56 0.001790 -166.3
8.90410000 0.001792 -177.0 0.999995 -81.56 0.999995 -81.56 0.001792 -166.3
8.90420000 0.001794 -177.0 0.999995 -81.56 0.999995 -81.56 0.001794 -166.3
8.90430000 0.001796 -177.0 0.999995 -81.57 0.999995 -81.57 0.001796 -166.3
8.90440000 0.001798 -177.0 0.999995 -81.57 0.999995 -81.57 0.001798 -166.3
8.90450000 0.001800 -177.1 0.999995 -81.57 0.999995 -81.57 0.001800 -166.2
8.90460000 0.001802 -177.1 0.999995 -81.57 0.999995 -81.57 0.001802 -166.2
8.90470000 0.001804 -177.1 0.999995 -81.57 0.999995 -81.57 0.001804 -166.2
8.90480000 0.001806 -177.1 0.999995 -81.57 0.999995 -81.57 0.001806 -166.2
8.90490000 0.001808 -177.1 0.999995 -81.57 0.999995 -81.57 0.001808 -166.2
8.90500000 0.001810 -177.1 0.999995 -81.57 0.999995 -81.57 0.001810 -166.2
8.90510000 0.001812 -177.2 0.999995 -81.57 0.999995 -81.57 0.001812 -166.2
8.90520000 0.001814 -177.2 0.999995 -81.58 0.999995 -81.58 0.001814 -166.2
8.90530000 0.001816 -177.2 0.999995 -81.58 0.999995 -81.58 0.001816 -166.1
8.90540000 0.001818 -177.2 0.999995 -81.58 0.999995 -81.58 0.001818 -166.1
8.90550000 0.001820 -177.2 0.999995 -81.58 0.999995 -81.58 0.001820 -166.1
8.90560000 0.001822 -177.2 0.999995 -81.58 0.999995 -81.58 0.001822 -166.1
8.90570000 0.001824 -177.2 0.999995 -81.58 0.999995 -81.58 0.001824 -166.1
8.90580000 0.001826 -177.3 0.999995 -81.58 0.999995 -81.58 0.001826 -166.1
8.90590000 0.001828 -177.3 0.999995 -81.58 0.999995 -81.58 0.001828 -166.1
8.90600000 0.001830 -177.3 0.999995 -81.58 0.999995 -81.58 0.001830 -166.0
8.90610000 0.001832 -177.3 0.999995 -81.58 0.999995 -81.58 0.001832 -166.0
8.90620000 0.001835 -177.3 0.999995 -81.59 0.999995 -81.59 0.001834 -166.0
8.90630000 0.001837 -177.3 0.999995 -81.59 0.999995 -81.59 0.001836 -166.0
8.90640000 0.001839 -177.4 0.999995 -81.59 0.999995 -81.59 0.001839 -166.0
8.90650000 0.001841 -177.4 0.999995 -81.59 0.999995 -81.59 0.001841 -166.0
8.90660000 0.001843 -177.4 0.999995 -81.59 0.999995 -81.59 0.001843 -166.0
8.90670000 0.001845 -177.4 0.999995 -81.59 0.999995 -81.59 0.001845 -165.9
8.90680000 0.001847 -177.4 0.999995 -81.59 0.999995 -81.59 0.001847 -165.9
8.90690000 0.001850 -177.4 0.999995 -81.59 0.999995 -81.59 0.001849 -165.9
8.90700000 0.001852 -177.5 0.999995 -81.59 0.999995 -81.59 0.001851 -165.9
8.90710000 0.001854 -177.5 0.999995 -81.59 0.999995 -81.59 0.001854 -165.9
8.90720000 0.001856 -177.5 0.999995 -81.60 0.999995 -81.60 0.001856 -165.9
8.90730000 0.001858 -177.5 0.999995 -81.60 0.999995 -81.60 0.001858 -165.9
8.90740000 0.001860 -177.5 0.999995 -81.60 0.999995 -81.60 0.001860 -165.8
8.90750000 0.001863 -177.5 0.999995 -81.60 0.999995 -81.60 0.001862 -165.8
8.90760000 0.001865 -177.5 0.999995 -81.60 0.999995 -81.60 0.001865 -165.8
8.90770000 0.001867 -177.6 0.999995 -81.60 0.999995 -81.60 0.001867 -165.8
8.90780000 0.001869 -177.6 0.999995 -81.60 0.999995 -81.60 0.001869 -165.8
8.90790000 0.001872 -177.6 0.999994 -81.60 0.999994 -81.60 0.001871 -165.8
8.90800000 0.001874 -177.6 0.999994 -81.60 0.999994 -81.60 0.001874 -165.8
8.90810000 0.001876 -177.6 0.999994 -81.61 0.999994 -81.61 0.001876 -165.7
8.90820000 0.001878 -177.6 0.999994 -81.61 0.999994 -81.61 0.001878 -165.7
8.90830000 0.001881 -177.7 0.999994 -81.61 0.999994 -81.61 0.001880 -165.7
8.90840000 0.001883 -177.7 0.999994 -81.61 0.999994 -81.61 0.001883 -165.7
8.90850000 0.001885 -177.7 0.999994 -81.61 0.999994 -81.61 0.001885 -165.7
8.90860000 0.001888 -177.7 0.999994 -81.61 0.999994 -81.61 0.001887 -165.7
8.90870000 0.001890 -177.7 0.999994 -81.61 0.999994 -81.61 0.001890 -165.7
8.90880000 0.001892 -177.7 0.999994 -81.61 0.999994 -81.61 0.001892 -165.6
8.90890000 0.001895 -177.8 0.999994 -81.61 0.999994 -81.61 0.001894 -165.6
8.90900000 0.001897 -177.8 0.999994 -81.61 0.999994 -81.61 0.001897 -165.6
8.90910000 0.001899 -177.8 0.999994 -81.62 0.999994 -81.62 0.001899 -165.6
8.90920000 0.001902 -177.8 0.999994 -81.62 0.999994 -81.62 0.001901 -165.6
8.90930000 0.001904 -177.8 0.999994 -81.62 0.999994 -81.62 0.001904 -165.6
8.90940000 0.001906 -177.8 0.999994 -81.62 0.999994 -81.62 0.001906 -165.6
8.90950000 0.001909 -177.9 0.999994 -81.62 0.999994 -81.62 0.001908 -165.5
8.90960000 0.001911 -177.9 0.999994 -81.62 0.999994 -81.62 0.001911 -165.5
8.90970000 0.001914 -177.9 0.999994 -81.62 0.999994 -81.62 0.001913 -165.5
8.90980000 0.001916 -177.9 0.999994 -81.62 0.999994 -81.62 0.001916 -165.5
8.90990000 0.001918 -177.9 0.999994 -81.62 0.999994 -81.62 0.001918 -165.5
8.91000000 0.001921 -177.9 0.999994 -81.63 0.999994 -81.63 0.001921 -165.5
8.91010000 0.001923 -178.0 0.999994 -81.63 0.999994 -81.63 0.001923 -165.5
8.91020000 0.001926 -178.0 0.999994 -81.63 0.999994 -81.63 0.001925 -165.4
8.91030000 0.001928 -178.0 0.999994 -81.63 0.999994 -81.63 0.001928 -165.4
8.91040000 0.001931 -178.0 0.999994 -81.63 0.999994 -81.63 0.001930 -165.4
8.91050000 0.001933 -178.0 0.999994 -81.63 0.999994 -81.63 0.001933 -165.4
8.91060000 0.001936 -178.0 0.999994 -81.63 0.999994 -81.63 0.001935 -165.4
8.91070000 0.001938 -178.1 0.999994 -81.63 0.999994 -81.63 0.001938 -165.4
8.91080000 0.001941 -178.1 0.999994 -81.63 0.999994 -81.63 0.001940 -165.4
8.91090000 0.001943 -178.1 0.999994 -81.63 0.999994 -81.63 0.001943 -165.3
8.91100000 0.001946 -178.1 0.999994 -81.64 0.999994 -81.64 0.001946 -165.3
8.91110000 0.001948 -178.1 0.999994 -81.64 0.999994 -81.64 0.001948 -165.3
8.91120000 0.001951 -178.1 0.999994 -81.64 0.999994 -81.64 0.001951 -165.3
8.91130000 0.001954 -178.2 0.999994 -81.64 0.999994 -81.64 0.001953 -165.3
8.91140000 0.001956 -178.2 0.999994 -81.64 0.999994 -81.64 0.001956 -165.3
8.91150000 0.001959 -178.2 0.999994 -81.64 0.999994 -81.64 0.001958 -165.2
8.91160000 0.001961 -178.2 0.999994 -81.64 0.999994 -81.64 0.001961 -165.2
8.91170000 0.001964 -178.2 0.999994 -81.64 0.999994 -81.64 0.001964 -165.2
8.91180000 0.001967 -178.3 0.999994 -81.64 0.999994 -81.64 0.001966 -165.2
8.91190000 0.001969 -178.3 0.999994 -81.65 0.999994 -81.65 0.001969 -165.2
8.91200000 0.001972 -178.3 0.999994 -81.65 0.999994 -81.65 0.001972 -165.2
8.91210000 0.001975 -178.3 0.999994 -81.65 0.999994 -81.65 0.001974 -165.2
8.91220000 0.001977 -178.3 0.999994 -81.65 0.999994 -81.65 0.001977 -165.1
8.91230000 0.001980 -178.3 0.999994 -81.65 0.999994 -81.65 0.001980 -165.1
8.91240000 0.001983 -178.4 0.999994 -81.65 0.999994 -81.65 0.001982 -165.1
8.91250000 0.001985 -178.4 0.999994 -81.65 0.999994 -81.65 0.001985 -165.1
8.91260000 0.001988 -178.4 0.999994 -81.65 0.999994 -81.65 0.001988 -165.1
8.91270000 0.001991 -178.4 0.999994 -81.65 0.999994 -81.65 0.001991 -165.1
8.91280000 0.001994 -178.4 0.999994 -81.66 0.999994 -81.66 0.001993 -165.0
8.91290000 0.001996 -178.4 0.999994 -81.66 0.999994 -81.66 0.001996 -165.0
8.91300000 0.001999 -178.5 0.999994 -81.66 0.999994 -81.66 0.001999 -165.0
8.91310000 0.002002 -178.5 0.999994 -81.66 0.999994 -81.66 0.002002 -165.0
8.91320000 0.002005 -178.5 0.999994 -81.66 0.999994 -81.66 0.002005 -165.0
8.91330000 0.002008 -178.5 0.999994 -81.66 0.999994 -81.66 0.002007 -165.0
8.91340000 0.002010 -178.5 0.999994 -81.66 0.999994 -81.66 0.002010 -165.0
8.91350000 0.002013 -178.6 0.999994 -81.66 0.999994 -81.66 0.002013 -164.9
8.91360000 0.002016 -178.6 0.999994 -81.66 0.999994 -81.66 0.002016 -164.9
8.91370000 0.002019 -178.6 0.999994 -81.66 0.999994 -81.66 0.002019 -164.9
8.91380000 0.002022 -178.6 0.999994 -81.67 0.999994 -81.67 0.002022 -164.9
8.91390000 0.002025 -178.6 0.999994 -81.67 0.999994 -81.67 0.002025 -164.9
8.91400000 0.002028 -178.6 0.999994 -81.67 0.999994 -81.67 0.002027 -164.9
8.91410000 0.002031 -178.7 0.999994 -81.67 0.999994 -81.67 0.002030 -164.8
8.91420000 0.002034 -178.7 0.999994 -81.67 0.999994 -81.67 0.002033 -164.8
8.91430000 0.002037 -178.7 0.999994 -81.67 0.999994 -81.67 0.002036 -164.8
8.91440000 0.002039 -178.7 0.999994 -81.67 0.999994 -81.67 0.002039 -164.8
8.91450000 0.002042 -178.7 0.999994 -81.67 0.999994 -81.67 0.002042 -164.8
8.91460000 0.002045 -178.7 0.999994 -81.67 0.999994 -81.67 0.002045 -164.8
8.91470000 0.002048 -178.8 0.999994 -81.68 0.999994 -81.68 0.002048 -164.7
8.91480000 0.002051 -178.8 0.999994 -81.68 0.999994 -81.68 0.002051 -164.7
8.91490000 0.002054 -178.8 0.999994 -81.68 0.999994 -81.68 0.002054 -164.7
8.91500000 0.002058 -178.8 0.999994 -81.68 0.999994 -81.68 0.002057 -164.7
8.91510000 0.002061 -178.8 0.999994 -81.68 0.999994 -81.68 0.002060 -164.7
8.91520000 0.002064 -178.9 0.999994 -81.68 0.999994 -81.68 0.002063 -164.7
8.91530000 0.002067 -178.9 0.999994 -81.68 0.999994 -81.68 0.002066 -164.7
8.91540000 0.002070 -178.9 0.999994 -81.68 0.999994 -81.68 0.002070 -164.6
8.91550000 0.002073 -178.9 0.999994 -81.68 0.999994 -81.68 0.002073 -164.6
8.91560000 0.002076 -178.9 0.999994 -81.69 0.999994 -81.69 0.002076 -164.6
8.91570000 0.002079 -178.9 0.999994 -81.69 0.999994 -81.69 0.002079 -164.6
8.91580000 0.002082 -179.0 0.999994 -81.69 0.999994 -81.69 0.002082 -164.6
8.91590000 0.002086 -179.0 0.999994 -81.69 0.999994 -81.69 0.002085 -164.6
8.91600000 0.002089 -179.0 0.999994 -81.69 0.999994 -81.69 0.002088 -164.5
8.91610000 0.002092 -179.0 0.999994 -81.69 0.999994 -81.69 0.002092 -164.5
8.91620000 0.002095 -179.0 0.999994 -81.69 0.999994 -81.69 0.002095 -164.5
8.91630000 0.002098 -179.1 0.999994 -81.69 0.999994 -81.69 0.002098 -164.5
8.91640000 0.002102 -179.1 0.999994 -81.69 0.999994 -81.69 0.002101 -164.5
8.91650000 0.002105 -179.1 0.999994 -81.70 0.999994 -81.70 0.002105 -164.5
8.91660000 0.002108 -179.1 0.999994 -81.70 0.999994 -81.70 0.002108 -164.4
8.91670000 0.002111 -179.1 0.999994 -81.70 0.999994 -81.70 0.002111 -164.4
8.91680000 0.002115 -179.2 0.999994 -81.70 0.999994 -81.70 0.002114 -164.4
8.91690000 0.002118 -179.2 0.999994 -81.70 0.999994 -81.70 0.002118 -164.4
8.91700000 0.002121 -179.2 0.999994 -81.70 0.999994 -81.70 0.002121 -164.4
8.91710000 0.002125 -179.2 0.999994 -81.70 0.999994 -81.70 0.002125 -164.4
8.91720000 0.002128 -179.2 0.999994 -81.70 0.999994 -81.70 0.002128 -164.3
8.91730000 0.002132 -179.2 0.999994 -81.70 0.999994 -81.70 0.002131 -164.3
8.91740000 0.002135 -179.3 0.999994 -81.71 0.999994 -81.71 0.002135 -164.3
8.91750000 0.002138 -179.3 0.999994 -81.71 0.999994 -81.71 0.002138 -164.3
8.91760000 0.002142 -179.3 0.999994 -81.71 0.999994 -81.71 0.002142 -164.3
8.91770000 0.002145 -179.3 0.999994 -81.71 0.999994 -81.71 0.002145 -164.3
8.91780000 0.002149 -179.3 0.999994 -81.71 0.999994 -81.71 0.002149 -164.2
8.91790000 0.002152 -179.4 0.999994 -81.71 0.999994 -81.71 0.002152 -164.2
8.91800000 0.002156 -179.4 0.999994 -81.71 0.999994 -81.71 0.002156 -164.2
8.91810000 0.002159 -179.4 0.999994 -81.71 0.999994 -81.71 0.002159 -164.2
8.91820000 0.002163 -179.4 0.999994 -81.71 0.999994 -81.71 0.002163 -164.2
8.91830000 0.002166 -179.4 0.999994 -81.72 0.999994 -81.72 0.002166 -164.2
8.91840000 0.002170 -179.5 0.999994 -81.72 0.999994 -81.72 0.002170 -164.1
8.91850000 0.002174 -179.5 0.999994 -81.72 0.999994 -81.72 0.002173 -164.1
8.91860000 0.002177 -179.5 0.999994 -81.72 0.999994 -81.72 0.002177 -164.1
8.91870000 0.002181 -179.5 0.999994 -81.72 0.999994 -81.72 0.002181 -164.1
8.91880000 0.002185 -179.5 0.999994 -81.72 0.999994 -81.72 0.002184 -164.1
8.91890000 0.002188 -179.6 0.999994 -81.72 0.999994 -81.72 0.002188 -164.1
8.91900000 0.002192 -179.6 0.999994 -81.72 0.999994 -81.72 0.002192 -164.0
8.91910000 0.002196 -179.6 0.999994 -81.72 0.999994 -81.72 0.002195 -164.0
8.91920000 0.002199 -179.6 0.999994 -81.73 0.999994 -81.73 0.002199 -164.0
8.91930000 0.002203 -179.6 0.999993 -81.73 0.999993 -81.73 0.002203 -164.0
8.91940000 0.002207 -179.6 0.999993 -81.73 0.999993 -81.73 0.002207 -164.0
8.91950000 0.002211 -179.7 0.999993 -81.73 0.999993 -81.73 0.002210 -163.9
8.91960000 0.002215 -179.7 0.999993 -81.73 0.999993 -81.73 0.002214 -163.9
8.91970000 0.002218 -179.7 0.999993 -81.73 0.999993 -81.73 0.002218 -163.9
8.91980000 0.002222 -179.7 0.999993 -81.73 0.999993 -81.73 0.002222 -163.9
8.91990000 0.002226 -179.7 0.999993 -81.73 0.999993 -81.73 0.002226 -163.9
8.92000000 0.002230 -179.8 0.999993 -81.73 0.999993 -81.73 0.002230 -163.9
8.92010000 0.002234 -179.8 0.999993 -81.74 0.999993 -81.74 0.002234 -163.8
8.92020000 0.002238 -179.8 0.999993 -81.74 0.999993 -81.74 0.002237 -163.8
8.92030000 0.002242 -179.8 0.999993 -81.74 0.999993 -81.74 0.002241 -163.8
8.92040000 0.002246 -179.8 0.999993 -81.74 0.999993 -81.74 0.002245 -163.8
8.92050000 0.002250 -179.9 0.999993 -81.74 0.999993 -81.74 0.002249 -163.8
8.92060000 0.002254 -179.9 0.999993 -81.74 0.999993 -81.74 0.002253 -163.8
8.92070000 0.002258 -179.9 0.999993 -81.74 0.999993 -81.74 0.002257 -163.7
8.92080000 0.002262 -179.9 0.999993 -81.74 0.999993 -81.74 0.002261 -163.7
8.92090000 0.002266 -179.9 0.999993 -81.75 0.999993 -81.75 0.002266 -163.7
8.92100000 0.002270 -180.0 0.999993 -81.75 0.999993 -81.75 0.002270 -163.7
8.92110000 0.002274 -180.0 0.999993 -81.75 0.999993 -81.75 0.002274 -163.7
8.92120000 0.002278 180.00 0.999993 -81.75 0.999993 -81.75 0.002278 -163.7
8.92130000 0.002282 179.98 0.999993 -81.75 0.999993 -81.75 0.002282 -163.6
8.92140000 0.002287 179.96 0.999993 -81.75 0.999993 -81.75 0.002286 -163.6
8.92150000 0.002291 179.94 0.999993 -81.75 0.999993 -81.75 0.002290 -163.6
8.92160000 0.002295 179.92 0.999993 -81.75 0.999993 -81.75 0.002295 -163.6
8.92170000 0.002299 179.89 0.999993 -81.75 0.999993 -81.75 0.002299 -163.6
8.92180000 0.002304 179.87 0.999993 -81.76 0.999993 -81.76 0.002303 -163.5
8.92190000 0.002308 179.85 0.999993 -81.76 0.999993 -81.76 0.002308 -163.5
8.92200000 0.002312 179.83 0.999993 -81.76 0.999993 -81.76 0.002312 -163.5
8.92210000 0.002317 179.81 0.999993 -81.76 0.999993 -81.76 0.002316 -163.5
8.92220000 0.002321 179.79 0.999993 -81.76 0.999993 -81.76 0.002321 -163.5
8.92230000 0.002325 179.77 0.999993 -81.76 0.999993 -81.76 0.002325 -163.5
8.92240000 0.002330 179.75 0.999993 -81.76 0.999993 -81.76 0.002329 -163.4
8.92250000 0.002334 179.73 0.999993 -81.76 0.999993 -81.76 0.002334 -163.4
8.92260000 0.002339 179.71 0.999993 -81.77 0.999993 -81.77 0.002338 -163.4
8.92270000 0.002343 179.69 0.999993 -81.77 0.999993 -81.77 0.002343 -163.4
8.92280000 0.002348 179.67 0.999993 -81.77 0.999993 -81.77 0.002347 -163.4
8.92290000 0.002352 179.65 0.999993 -81.77 0.999993 -81.77 0.002352 -163.3
8.92300000 0.002357 179.63 0.999993 -81.77 0.999993 -81.77 0.002356 -163.3
8.92310000 0.002361 179.61 0.999993 -81.77 0.999993 -81.77 0.002361 -163.3
8.92320000 0.002366 179.59 0.999993 -81.77 0.999993 -81.77 0.002366 -163.3
8.92330000 0.002371 179.57 0.999993 -81.77 0.999993 -81.77 0.002370 -163.3
8.92340000 0.002375 179.55 0.999993 -81.77 0.999993 -81.77 0.002375 -163.3
8.92350000 0.002380 179.52 0.999993 -81.78 0.999993 -81.78 0.002380 -163.2
8.92360000 0.002385 179.50 0.999993 -81.78 0.999993 -81.78 0.002384 -163.2
8.92370000 0.002390 179.48 0.999993 -81.78 0.999993 -81.78 0.002389 -163.2
8.92380000 0.002394 179.46 0.999993 -81.78 0.999993 -81.78 0.002394 -163.2
8.92390000 0.002399 179.44 0.999993 -81.78 0.999993 -81.78 0.002399 -163.2
8.92400000 0.002404 179.42 0.999993 -81.78 0.999993 -81.78 0.002404 -163.1
8.92410000 0.002409 179.40 0.999993 -81.78 0.999993 -81.78 0.002409 -163.1
8.92420000 0.002414 179.38 0.999993 -81.78 0.999993 -81.78 0.002413 -163.1
8.92430000 0.002419 179.36 0.999993 -81.79 0.999993 -81.79 0.002418 -163.1
8.92440000 0.002424 179.33 0.999993 -81.79 0.999993 -81.79 0.002423 -163.1
8.92450000 0.002429 179.31 0.999993 -81.79 0.999993 -81.79 0.002428 -163.0
8.92460000 0.002434 179.29 0.999993 -81.79 0.999993 -81.79 0.002433 -163.0
8.92470000 0.002439 179.27 0.999993 -81.79 0.999993 -81.79 0.002438 -163.0
8.92480000 0.002444 179.25 0.999993 -81.79 0.999993 -81.79 0.002443 -163.0
8.92490000 0.002449 179.23 0.999993 -81.79 0.999993 -81.79 0.002449 -163.0
8.92500000 0.002454 179.21 0.999993 -81.79 0.999993 -81.79 0.002454 -162.9
8.92510000 0.002459 179.19 0.999993 -81.79 0.999993 -81.79 0.002459 -162.9
8.92520000 0.002464 179.16 0.999993 -81.80 0.999993 -81.80 0.002464 -162.9
8.92530000 0.002470 179.14 0.999993 -81.80 0.999993 -81.80 0.002469 -162.9
8.92540000 0.002475 179.12 0.999993 -81.80 0.999993 -81.80 0.002475 -162.9
8.92550000 0.002480 179.10 0.999993 -81.80 0.999993 -81.80 0.002480 -162.9
8.92560000 0.002486 179.08 0.999993 -81.80 0.999993 -81.80 0.002485 -162.8
8.92570000 0.002491 179.06 0.999992 -81.80 0.999992 -81.80 0.002491 -162.8
8.92580000 0.002496 179.03 0.999992 -81.80 0.999992 -81.80 0.002496 -162.8
8.92590000 0.002502 179.01 0.999992 -81.80 0.999992 -81.80 0.002501 -162.8
8.92600000 0.002507 178.99 0.999992 -81.81 0.999992 -81.81 0.002507 -162.8
8.92610000 0.002513 178.97 0.999992 -81.81 0.999992 -81.81 0.002512 -162.7
8.92620000 0.002518 178.95 0.999992 -81.81 0.999992 -81.81 0.002518 -162.7
8.92630000 0.002524 178.92 0.999992 -81.81 0.999992 -81.81 0.002523 -162.7
8.92640000 0.002529 178.90 0.999992 -81.81 0.999992 -81.81 0.002529 -162.7
8.92650000 0.002535 178.88 0.999992 -81.81 0.999992 -81.81 0.002535 -162.7
8.92660000 0.002541 178.86 0.999992 -81.81 0.999992 -81.81 0.002540 -162.6
8.92670000 0.002546 178.84 0.999992 -81.81 0.999992 -81.81 0.002546 -162.6
8.92680000 0.002552 178.81 0.999992 -81.82 0.999992 -81.82 0.002552 -162.6
8.92690000 0.002558 178.79 0.999992 -81.82 0.999992 -81.82 0.002558 -162.6
8.92700000 0.002564 178.77 0.999992 -81.82 0.999992 -81.82 0.002563 -162.6
8.92710000 0.002570 178.75 0.999992 -81.82 0.999992 -81.82 0.002569 -162.5
8.92720000 0.002575 178.73 0.999992 -81.82 0.999992 -81.82 0.002575 -162.5
8.92730000 0.002581 178.70 0.999992 -81.82 0.999992 -81.82 0.002581 -162.5
8.92740000 0.002587 178.68 0.999992 -81.82 0.999992 -81.82 0.002587 -162.5
8.92750000 0.002593 178.66 0.999992 -81.82 0.999992 -81.82 0.002593 -162.5
8.92760000 0.002599 178.64 0.999992 -81.83 0.999992 -81.83 0.002599 -162.4
8.92770000 0.002605 178.61 0.999992 -81.83 0.999992 -81.83 0.002605 -162.4
8.92780000 0.002612 178.59 0.999992 -81.83 0.999992 -81.83 0.002611 -162.4
8.92790000 0.002618 178.57 0.999992 -81.83 0.999992 -81.83 0.002617 -162.4
8.92800000 0.002624 178.55 0.999992 -81.83 0.999992 -81.83 0.002624 -162.4
8.92810000 0.002630 178.52 0.999992 -81.83 0.999992 -81.83 0.002630 -162.3
8.92820000 0.002636 178.50 0.999992 -81.83 0.999992 -81.83 0.002636 -162.3
8.92830000 0.002643 178.48 0.999992 -81.83 0.999992 -81.83 0.002642 -162.3
8.92840000 0.002649 178.46 0.999992 -81.84 0.999992 -81.84 0.002649 -162.3
8.92850000 0.002655 178.43 0.999992 -81.84 0.999992 -81.84 0.002655 -162.3
8.92860000 0.002662 178.41 0.999992 -81.84 0.999992 -81.84 0.002662 -162.2
8.92870000 0.002668 178.39 0.999992 -81.84 0.999992 -81.84 0.002668 -162.2
8.92880000 0.002675 178.36 0.999992 -81.84 0.999992 -81.84 0.002675 -162.2
8.92890000 0.002682 178.34 0.999992 -81.84 0.999992 -81.84 0.002681 -162.2
8.92900000 0.002688 178.32 0.999992 -81.84 0.999992 -81.84 0.002688 -162.2
8.92910000 0.002695 178.29 0.999992 -81.85 0.999992 -81.85 0.002694 -162.1
8.92920000 0.002702 178.27 0.999992 -81.85 0.999992 -81.85 0.002701 -162.1
8.92930000 0.002708 178.25 0.999992 -81.85 0.999992 -81.85 0.002708 -162.1
8.92940000 0.002715 178.23 0.999992 -81.85 0.999992 -81.85 0.002715 -162.1
8.92950000 0.002722 178.20 0.999992 -81.85 0.999992 -81.85 0.002722 -162.1
8.92960000 0.002729 178.18 0.999992 -81.85 0.999992 -81.85 0.002729 -162.0
8.92970000 0.002736 178.16 0.999992 -81.85 0.999992 -81.85 0.002735 -162.0
8.92980000 0.002743 178.13 0.999991 -81.85 0.999991 -81.85 0.002742 -162.0
8.92990000 0.002750 178.11 0.999991 -81.86 0.999991 -81.86 0.002750 -162.0
8.93000000 0.002757 178.09 0.999991 -81.86 0.999991 -81.86 0.002757 -162.0
8.93010000 0.002764 178.06 0.999991 -81.86 0.999991 -81.86 0.002764 -161.9
8.93020000 0.002771 178.04 0.999991 -81.86 0.999991 -81.86 0.002771 -161.9
8.93030000 0.002779 178.01 0.999991 -81.86 0.999991 -81.86 0.002778 -161.9
8.93040000 0.002786 177.99 0.999991 -81.86 0.999991 -81.86 0.002786 -161.9
8.93050000 0.002793 177.97 0.999991 -81.86 0.999991 -81.86 0.002793 -161.8
8.93060000 0.002801 177.94 0.999991 -81.87 0.999991 -81.87 0.002800 -161.8
8.93070000 0.002808 177.92 0.999991 -81.87 0.999991 -81.87 0.002808 -161.8
8.93080000 0.002816 177.90 0.999991 -81.87 0.999991 -81.87 0.002815 -161.8
8.93090000 0.002823 177.87 0.999991 -81.87 0.999991 -81.87 0.002823 -161.8
8.93100000 0.002831 177.85 0.999991 -81.87 0.999991 -81.87 0.002830 -161.7
8.93110000 0.002838 177.82 0.999991 -81.87 0.999991 -81.87 0.002838 -161.7
8.93120000 0.002846 177.80 0.999991 -81.87 0.999991 -81.87 0.002846 -161.7
8.93130000 0.002854 177.78 0.999991 -81.87 0.999991 -81.87 0.002854 -161.7
8.93140000 0.002862 177.75 0.999991 -81.88 0.999991 -81.88 0.002861 -161.7
8.93150000 0.002870 177.73 0.999991 -81.88 0.999991 -81.88 0.002869 -161.6
8.93160000 0.002878 177.70 0.999991 -81.88 0.999991 -81.88 0.002877 -161.6
8.93170000 0.002886 177.68 0.999991 -81.88 0.999991 -81.88 0.002885 -161.6
8.93180000 0.002894 177.66 0.999991 -81.88 0.999991 -81.88 0.002893 -161.6
8.93190000 0.002902 177.63 0.999991 -81.88 0.999991 -81.88 0.002902 -161.6
8.93200000 0.002910 177.61 0.999991 -81.88 0.999991 -81.88 0.002910 -161.5
8.93210000 0.002918 177.58 0.999991 -81.89 0.999991 -81.89 0.002918 -161.5
8.93220000 0.002927 177.56 0.999991 -81.89 0.999991 -81.89 0.002926 -161.5
8.93230000 0.002935 177.53 0.999991 -81.89 0.999991 -81.89 0.002935 -161.5
8.93240000 0.002944 177.51 0.999991 -81.89 0.999991 -81.89 0.002943 -161.4
8.93250000 0.002952 177.48 0.999991 -81.89 0.999991 -81.89 0.002952 -161.4
8.93260000 0.002961 177.46 0.999991 -81.89 0.999991 -81.89 0.002960 -161.4
8.93270000 0.002969 177.44 0.999990 -81.89 0.999990 -81.89 0.002969 -161.4
8.93280000 0.002978 177.41 0.999990 -81.90 0.999990 -81.90 0.002978 -161.4
8.93290000 0.002987 177.39 0.999990 -81.90 0.999990 -81.90 0.002986 -161.3
8.93300000 0.002996 177.36 0.999990 -81.90 0.999990 -81.90 0.002995 -161.3
8.93310000 0.003005 177.34 0.999990 -81.90 0.999990 -81.90 0.003004 -161.3
8.93320000 0.003014 177.31 0.999990 -81.90 0.999990 -81.90 0.003013 -161.3
8.93330000 0.003023 177.29 0.999990 -81.90 0.999990 -81.90 0.003022 -161.2
8.93340000 0.003032 177.26 0.999990 -81.90 0.999990 -81.90 0.003031 -161.2
8.93350000 0.003041 177.24 0.999990 -81.91 0.999990 -81.91 0.003041 -161.2
8.93360000 0.003050 177.21 0.999990 -81.91 0.999990 -81.91 0.003050 -161.2
8.93370000 0.003060 177.19 0.999990 -81.91 0.999990 -81.91 0.003059 -161.2
8.93380000 0.003069 177.16 0.999990 -81.91 0.999990 -81.91 0.003069 -161.1
8.93390000 0.003079 177.14 0.999990 -81.91 0.999990 -81.91 0.003078 -161.1
8.93400000 0.003088 177.11 0.999990 -81.91 0.999990 -81.91 0.003088 -161.1
8.93410000 0.003098 177.08 0.999990 -81.91 0.999990 -81.91 0.003097 -161.1
8.93420000 0.003108 177.06 0.999990 -81.92 0.999990 -81.92 0.003107 -161.0
8.93430000 0.003117 177.03 0.999990 -81.92 0.999990 -81.92 0.003117 -161.0
8.93440000 0.003127 177.01 0.999990 -81.92 0.999990 -81.92 0.003127 -161.0
8.93450000 0.003137 176.98 0.999990 -81.92 0.999990 -81.92 0.003137 -161.0
8.93460000 0.003147 176.96 0.999990 -81.92 0.999990 -81.92 0.003147 -161.0
8.93470000 0.003157 176.93 0.999990 -81.92 0.999990 -81.92 0.003157 -160.9
8.93480000 0.003168 176.91 0.999990 -81.92 0.999990 -81.92 0.003167 -160.9
8.93490000 0.003178 176.88 0.999990 -81.93 0.999990 -81.93 0.003178 -160.9
8.93500000 0.003188 176.85 0.999989 -81.93 0.999989 -81.93 0.003188 -160.9
8.93510000 0.003199 176.83 0.999989 -81.93 0.999989 -81.93 0.003199 -160.8
8.93520000 0.003210 176.80 0.999989 -81.93 0.999989 -81.93 0.003209 -160.8
8.93530000 0.003220 176.78 0.999989 -81.93 0.999989 -81.93 0.003220 -160.8
8.93540000 0.003231 176.75 0.999989 -81.93 0.999989 -81.93 0.003231 -160.8
8.93550000 0.003242 176.72 0.999989 -81.94 0.999989 -81.94 0.003242 -160.8
8.93560000 0.003253 176.70 0.999989 -81.94 0.999989 -81.94 0.003252 -160.7
8.93570000 0.003264 176.67 0.999989 -81.94 0.999989 -81.94 0.003264 -160.7
8.93580000 0.003275 176.65 0.999989 -81.94 0.999989 -81.94 0.003275 -160.7
8.93590000 0.003286 176.62 0.999989 -81.94 0.999989 -81.94 0.003286 -160.7
8.93600000 0.003298 176.59 0.999989 -81.94 0.999989 -81.94 0.003297 -160.6
8.93610000 0.003309 176.57 0.999989 -81.94 0.999989 -81.94 0.003309 -160.6
8.93620000 0.003321 176.54 0.999989 -81.95 0.999989 -81.95 0.003320 -160.6
8.93630000 0.003332 176.51 0.999989 -81.95 0.999989 -81.95 0.003332 -160.6
8.93640000 0.003344 176.49 0.999989 -81.95 0.999989 -81.95 0.003344 -160.5
8.93650000 0.003356 176.46 0.999989 -81.95 0.999989 -81.95 0.003356 -160.5
8.93660000 0.003368 176.43 0.999989 -81.95 0.999989 -81.95 0.003368 -160.5
8.93670000 0.003380 176.41 0.999988 -81.95 0.999988 -81.95 0.003380 -160.5
8.93680000 0.003392 176.38 0.999988 -81.96 0.999988 -81.96 0.003392 -160.5
8.93690000 0.003404 176.35 0.999988 -81.96 0.999988 -81.96 0.003404 -160.4
8.93700000 0.003417 176.33 0.999988 -81.96 0.999988 -81.96 0.003417 -160.4
8.93710000 0.003429 176.30 0.999988 -81.96 0.999988 -81.96 0.003429 -160.4
8.93720000 0.003442 176.27 0.999988 -81.96 0.999988 -81.96 0.003442 -160.4
8.93730000 0.003455 176.25 0.999988 -81.96 0.999988 -81.96 0.003455 -160.3
8.93740000 0.003468 176.22 0.999988 -81.97 0.999988 -81.97 0.003467 -160.3
8.93750000 0.003481 176.19 0.999988 -81.97 0.999988 -81.97 0.003480 -160.3
8.93760000 0.003494 176.16 0.999988 -81.97 0.999988 -81.97 0.003494 -160.3
8.93770000 0.003507 176.14 0.999988 -81.97 0.999988 -81.97 0.003507 -160.2
8.93780000 0.003520 176.11 0.999988 -81.97 0.999988 -81.97 0.003520 -160.2
8.93790000 0.003534 176.08 0.999988 -81.97 0.999988 -81.97 0.003534 -160.2
8.93800000 0.003548 176.05 0.999988 -81.98 0.999988 -81.98 0.003547 -160.2
8.93810000 0.003561 176.03 0.999987 -81.98 0.999987 -81.98 0.003561 -160.1
8.93820000 0.003575 176.00 0.999987 -81.98 0.999987 -81.98 0.003575 -160.1
8.93830000 0.003589 175.97 0.999987 -81.98 0.999987 -81.98 0.003589 -160.1
8.93840000 0.003604 175.94 0.999987 -81.98 0.999987 -81.98 0.003603 -160.1
8.93850000 0.003618 175.92 0.999987 -81.98 0.999987 -81.98 0.003618 -160.1
8.93860000 0.003632 175.89 0.999987 -81.99 0.999987 -81.99 0.003632 -160.0
8.93870000 0.003647 175.86 0.999987 -81.99 0.999987 -81.99 0.003647 -160.0
8.93880000 0.003662 175.83 0.999987 -81.99 0.999987 -81.99 0.003662 -160.0
8.93890000 0.003677 175.80 0.999987 -81.99 0.999987 -81.99 0.003676 -160.0
8.93900000 0.003692 175.78 0.999987 -81.99 0.999987 -81.99 0.003691 -159.9
8.93910000 0.003707 175.75 0.999987 -82.00 0.999987 -82.00 0.003707 -159.9
8.93920000 0.003722 175.72 0.999987 -82.00 0.999987 -82.00 0.003722 -159.9