! Sonnet Data File
! From: emgraph Version : 16.52
! From Project: Resonator2_cp_varyW
! Data is De-embedded 
! Data File Written: 10/07/2017 09:25:24
!< HDATE 10/06/2017 17:18:21
!< MDATE 10/06/2017 17:18:21
!< PARAMS
!< gap = 6.0
!< Length = 400.0
!< Pwid1 = 2000.0
!< Pwid2 = 2000.0
!< Air_gap = 30.0
!< Width = 50.0
!< END PARAMS
# GHZ S MA R 51.80000
8.80000000 0.012044 -154.8 0.999922 -81.34 0.999922 -81.34 0.012043 172.14
!< P1 F=8.8 Eeff=(6.4404796 -2.969e-5) Z0=(50.4071347 1.16291e-4) R=0.0 C=0.0 
!< P2 F=8.8 Eeff=(6.4404796 -2.969e-5) Z0=(50.4071347 1.16291e-4) R=0.0 C=0.0 
8.80020000 0.012027 -154.8 0.999922 -81.35 0.999922 -81.35 0.012026 172.09
8.80040000 0.012010 -154.7 0.999923 -81.35 0.999923 -81.35 0.012009 172.03
8.80060000 0.011992 -154.7 0.999923 -81.35 0.999923 -81.35 0.011991 171.98
8.80080000 0.011975 -154.6 0.999923 -81.36 0.999923 -81.36 0.011974 171.92
8.80100000 0.011957 -154.6 0.999923 -81.36 0.999923 -81.36 0.011956 171.87
8.80120000 0.011940 -154.5 0.999923 -81.36 0.999923 -81.36 0.011939 171.81
8.80140000 0.011922 -154.5 0.999924 -81.37 0.999924 -81.37 0.011921 171.75
8.80160000 0.011904 -154.4 0.999924 -81.37 0.999924 -81.37 0.011903 171.70
8.80180000 0.011886 -154.4 0.999924 -81.37 0.999924 -81.37 0.011885 171.64
8.80200000 0.011868 -154.3 0.999924 -81.37 0.999924 -81.37 0.011867 171.58
8.80220000 0.011850 -154.3 0.999924 -81.38 0.999924 -81.38 0.011849 171.52
8.80240000 0.011832 -154.2 0.999925 -81.38 0.999925 -81.38 0.011831 171.46
8.80260000 0.011814 -154.2 0.999925 -81.38 0.999925 -81.38 0.011813 171.40
8.80280000 0.011796 -154.1 0.999925 -81.39 0.999925 -81.39 0.011795 171.34
8.80300000 0.011777 -154.1 0.999925 -81.39 0.999925 -81.39 0.011776 171.28
8.80320000 0.011759 -154.0 0.999925 -81.39 0.999925 -81.39 0.011758 171.22
8.80340000 0.011740 -154.0 0.999926 -81.40 0.999926 -81.40 0.011739 171.16
8.80360000 0.011722 -153.9 0.999926 -81.40 0.999926 -81.40 0.011720 171.10
8.80380000 0.011703 -153.8 0.999926 -81.40 0.999926 -81.40 0.011702 171.04
8.80400000 0.011684 -153.8 0.999926 -81.41 0.999926 -81.41 0.011683 170.97
8.80420000 0.011665 -153.7 0.999926 -81.41 0.999926 -81.41 0.011664 170.91
8.80440000 0.011646 -153.7 0.999927 -81.41 0.999927 -81.41 0.011645 170.85
8.80460000 0.011627 -153.6 0.999927 -81.41 0.999927 -81.41 0.011626 170.78
8.80480000 0.011608 -153.6 0.999927 -81.42 0.999927 -81.42 0.011607 170.72
8.80500000 0.011589 -153.5 0.999927 -81.42 0.999927 -81.42 0.011588 170.65
8.80520000 0.011570 -153.4 0.999927 -81.42 0.999927 -81.42 0.011568 170.58
8.80540000 0.011550 -153.4 0.999928 -81.43 0.999928 -81.43 0.011549 170.52
8.80560000 0.011531 -153.3 0.999928 -81.43 0.999928 -81.43 0.011530 170.45
8.80580000 0.011511 -153.3 0.999928 -81.43 0.999928 -81.43 0.011510 170.38
8.80600000 0.011492 -153.2 0.999928 -81.44 0.999928 -81.44 0.011490 170.31
8.80620000 0.011472 -153.1 0.999929 -81.44 0.999929 -81.44 0.011471 170.25
8.80640000 0.011452 -153.1 0.999929 -81.44 0.999929 -81.44 0.011451 170.18
8.80660000 0.011432 -153.0 0.999929 -81.45 0.999929 -81.45 0.011431 170.11
8.80680000 0.011412 -152.9 0.999929 -81.45 0.999929 -81.45 0.011411 170.04
8.80700000 0.011392 -152.9 0.999929 -81.45 0.999929 -81.45 0.011391 169.96
8.80720000 0.011372 -152.8 0.999930 -81.46 0.999930 -81.46 0.011371 169.89
8.80740000 0.011352 -152.7 0.999930 -81.46 0.999930 -81.46 0.011350 169.82
8.80760000 0.011331 -152.7 0.999930 -81.46 0.999930 -81.46 0.011330 169.75
8.80780000 0.011311 -152.6 0.999930 -81.47 0.999930 -81.47 0.011309 169.67
8.80800000 0.011290 -152.5 0.999930 -81.47 0.999930 -81.47 0.011289 169.60
8.80820000 0.011269 -152.5 0.999931 -81.47 0.999931 -81.47 0.011268 169.52
8.80840000 0.011249 -152.4 0.999931 -81.48 0.999931 -81.48 0.011247 169.45
8.80860000 0.011228 -152.3 0.999931 -81.48 0.999931 -81.48 0.011226 169.37
8.80880000 0.011207 -152.3 0.999931 -81.48 0.999931 -81.48 0.011206 169.30
8.80900000 0.011186 -152.2 0.999932 -81.49 0.999932 -81.49 0.011184 169.22
8.80920000 0.011165 -152.1 0.999932 -81.49 0.999932 -81.49 0.011163 169.14
8.80940000 0.011144 -152.0 0.999932 -81.49 0.999932 -81.49 0.011142 169.06
8.80960000 0.011122 -152.0 0.999932 -81.50 0.999932 -81.50 0.011121 168.98
8.80980000 0.011101 -151.9 0.999932 -81.50 0.999932 -81.50 0.011099 168.90
8.81000000 0.011079 -151.8 0.999933 -81.50 0.999933 -81.50 0.011078 168.82
8.81020000 0.011058 -151.7 0.999933 -81.51 0.999933 -81.51 0.011056 168.74
8.81040000 0.011036 -151.7 0.999933 -81.51 0.999933 -81.51 0.011034 168.65
8.81060000 0.011014 -151.6 0.999933 -81.51 0.999933 -81.51 0.011013 168.57
8.81080000 0.010992 -151.5 0.999934 -81.52 0.999934 -81.52 0.010991 168.49
8.81100000 0.010970 -151.4 0.999934 -81.52 0.999934 -81.52 0.010969 168.40
8.81120000 0.010948 -151.4 0.999934 -81.52 0.999934 -81.52 0.010946 168.31
8.81140000 0.010926 -151.3 0.999934 -81.53 0.999934 -81.53 0.010924 168.23
8.81160000 0.010903 -151.2 0.999934 -81.53 0.999934 -81.53 0.010902 168.14
8.81180000 0.010881 -151.1 0.999935 -81.53 0.999935 -81.53 0.010879 168.05
8.81200000 0.010858 -151.0 0.999935 -81.54 0.999935 -81.54 0.010857 167.96
8.81220000 0.010836 -150.9 0.999935 -81.54 0.999935 -81.54 0.010834 167.87
8.81240000 0.010813 -150.9 0.999935 -81.54 0.999935 -81.54 0.010811 167.78
8.81260000 0.010790 -150.8 0.999936 -81.55 0.999936 -81.55 0.010788 167.69
8.81280000 0.010767 -150.7 0.999936 -81.55 0.999936 -81.55 0.010765 167.60
8.81300000 0.010744 -150.6 0.999936 -81.55 0.999936 -81.55 0.010742 167.50
8.81320000 0.010721 -150.5 0.999936 -81.56 0.999936 -81.56 0.010719 167.41
8.81340000 0.010698 -150.4 0.999937 -81.56 0.999937 -81.56 0.010696 167.31
8.81360000 0.010674 -150.3 0.999937 -81.56 0.999937 -81.56 0.010672 167.22
8.81380000 0.010651 -150.3 0.999937 -81.57 0.999937 -81.57 0.010649 167.12
8.81400000 0.010627 -150.2 0.999937 -81.57 0.999937 -81.57 0.010625 167.02
8.81420000 0.010603 -150.1 0.999937 -81.57 0.999937 -81.57 0.010601 166.92
8.81440000 0.010580 -150.0 0.999938 -81.58 0.999938 -81.58 0.010578 166.82
8.81460000 0.010556 -149.9 0.999938 -81.58 0.999938 -81.58 0.010554 166.72
8.81480000 0.010532 -149.8 0.999938 -81.59 0.999938 -81.59 0.010529 166.62
8.81500000 0.010507 -149.7 0.999938 -81.59 0.999938 -81.59 0.010505 166.51
8.81520000 0.010483 -149.6 0.999939 -81.59 0.999939 -81.59 0.010481 166.41
8.81540000 0.010459 -149.5 0.999939 -81.60 0.999939 -81.60 0.010457 166.30
8.81560000 0.010434 -149.4 0.999939 -81.60 0.999939 -81.60 0.010432 166.19
8.81580000 0.010409 -149.3 0.999939 -81.60 0.999939 -81.60 0.010407 166.09
8.81600000 0.010385 -149.2 0.999940 -81.61 0.999940 -81.61 0.010383 165.98
8.81620000 0.010360 -149.1 0.999940 -81.61 0.999940 -81.61 0.010358 165.87
8.81640000 0.010335 -149.0 0.999940 -81.61 0.999940 -81.61 0.010333 165.75
8.81660000 0.010310 -148.9 0.999940 -81.62 0.999940 -81.62 0.010308 165.64
8.81680000 0.010285 -148.8 0.999941 -81.62 0.999941 -81.62 0.010282 165.53
8.81700000 0.010259 -148.7 0.999941 -81.63 0.999941 -81.63 0.010257 165.41
8.81720000 0.010234 -148.5 0.999941 -81.63 0.999941 -81.63 0.010231 165.30
8.81740000 0.010208 -148.4 0.999941 -81.63 0.999941 -81.63 0.010206 165.18
8.81760000 0.010183 -148.3 0.999942 -81.64 0.999942 -81.64 0.010180 165.06
8.81780000 0.010157 -148.2 0.999942 -81.64 0.999942 -81.64 0.010154 164.94
8.81800000 0.010131 -148.1 0.999942 -81.64 0.999942 -81.64 0.010128 164.82
8.81820000 0.010105 -148.0 0.999942 -81.65 0.999942 -81.65 0.010102 164.69
8.81840000 0.010079 -147.9 0.999943 -81.65 0.999943 -81.65 0.010076 164.57
8.81860000 0.010052 -147.7 0.999943 -81.66 0.999943 -81.66 0.010050 164.44
8.81880000 0.010026 -147.6 0.999943 -81.66 0.999943 -81.66 0.010023 164.32
8.81900000 0.009999 -147.5 0.999943 -81.66 0.999943 -81.66 0.009997 164.19
8.81920000 0.009973 -147.4 0.999943 -81.67 0.999943 -81.67 0.009970 164.06
8.81940000 0.009946 -147.3 0.999944 -81.67 0.999944 -81.67 0.009943 163.93
8.81960000 0.009919 -147.1 0.999944 -81.67 0.999944 -81.67 0.009916 163.79
8.81980000 0.009892 -147.0 0.999944 -81.68 0.999944 -81.68 0.009889 163.66
8.82000000 0.009865 -146.9 0.999944 -81.68 0.999944 -81.68 0.009862 163.52
8.82020000 0.009838 -146.7 0.999945 -81.69 0.999945 -81.69 0.009835 163.38
8.82040000 0.009810 -146.6 0.999945 -81.69 0.999945 -81.69 0.009807 163.24
8.82060000 0.009783 -146.5 0.999945 -81.69 0.999945 -81.69 0.009780 163.10
8.82080000 0.009755 -146.3 0.999945 -81.70 0.999945 -81.70 0.009752 162.96
8.82100000 0.009727 -146.2 0.999946 -81.70 0.999946 -81.70 0.009724 162.81
8.82120000 0.009700 -146.1 0.999946 -81.71 0.999946 -81.71 0.009697 162.67
8.82140000 0.009672 -145.9 0.999946 -81.71 0.999946 -81.71 0.009669 162.52
8.82160000 0.009643 -145.8 0.999946 -81.71 0.999946 -81.71 0.009640 162.37
8.82180000 0.009615 -145.6 0.999947 -81.72 0.999947 -81.72 0.009612 162.22
8.82200000 0.009587 -145.5 0.999947 -81.72 0.999947 -81.72 0.009584 162.06
8.82220000 0.009558 -145.3 0.999947 -81.73 0.999947 -81.73 0.009555 161.91
8.82240000 0.009530 -145.2 0.999947 -81.73 0.999947 -81.73 0.009526 161.75
8.82260000 0.009501 -145.0 0.999948 -81.73 0.999948 -81.73 0.009498 161.59
8.82280000 0.009472 -144.9 0.999948 -81.74 0.999948 -81.74 0.009469 161.43
8.82300000 0.009443 -144.7 0.999948 -81.74 0.999948 -81.74 0.009440 161.26
8.82320000 0.009414 -144.6 0.999948 -81.75 0.999948 -81.75 0.009411 161.10
8.82340000 0.009385 -144.4 0.999949 -81.75 0.999949 -81.75 0.009381 160.93
8.82360000 0.009355 -144.3 0.999949 -81.75 0.999949 -81.75 0.009352 160.76
8.82380000 0.009326 -144.1 0.999949 -81.76 0.999949 -81.76 0.009322 160.59
8.82400000 0.009296 -143.9 0.999949 -81.76 0.999949 -81.76 0.009293 160.41
8.82420000 0.009266 -143.8 0.999950 -81.77 0.999950 -81.77 0.009263 160.24
8.82440000 0.009237 -143.6 0.999950 -81.77 0.999950 -81.77 0.009233 160.06
8.82460000 0.009207 -143.4 0.999950 -81.78 0.999950 -81.78 0.009203 159.87
8.82480000 0.009177 -143.2 0.999950 -81.78 0.999950 -81.78 0.009173 159.69
8.82500000 0.009146 -143.1 0.999951 -81.78 0.999951 -81.78 0.009143 159.50
8.82520000 0.009116 -142.9 0.999951 -81.79 0.999951 -81.79 0.009112 159.31
8.82540000 0.009086 -142.7 0.999951 -81.79 0.999951 -81.79 0.009082 159.12
8.82560000 0.009055 -142.5 0.999951 -81.80 0.999951 -81.80 0.009051 158.93
8.82580000 0.009024 -142.3 0.999952 -81.80 0.999952 -81.80 0.009020 158.73
8.82600000 0.008993 -142.1 0.999952 -81.81 0.999952 -81.81 0.008989 158.53
8.82620000 0.008963 -141.9 0.999952 -81.81 0.999952 -81.81 0.008958 158.33
8.82640000 0.008932 -141.7 0.999952 -81.81 0.999952 -81.81 0.008927 158.12
8.82660000 0.008900 -141.5 0.999953 -81.82 0.999953 -81.82 0.008896 157.91
8.82680000 0.008869 -141.3 0.999953 -81.82 0.999953 -81.82 0.008865 157.70
8.82700000 0.008838 -141.1 0.999953 -81.83 0.999953 -81.83 0.008833 157.49
8.82720000 0.008806 -140.9 0.999953 -81.83 0.999953 -81.83 0.008802 157.27
8.82740000 0.008775 -140.7 0.999954 -81.84 0.999954 -81.84 0.008770 157.05
8.82760000 0.008743 -140.5 0.999954 -81.84 0.999954 -81.84 0.008738 156.83
8.82780000 0.008711 -140.3 0.999954 -81.84 0.999954 -81.84 0.008707 156.60
8.82800000 0.008679 -140.1 0.999954 -81.85 0.999954 -81.85 0.008675 156.37
8.82820000 0.008647 -139.8 0.999955 -81.85 0.999955 -81.85 0.008643 156.13
8.82840000 0.008615 -139.6 0.999955 -81.86 0.999955 -81.86 0.008610 155.90
8.82860000 0.008583 -139.4 0.999955 -81.86 0.999955 -81.86 0.008578 155.66
8.82880000 0.008551 -139.1 0.999955 -81.87 0.999955 -81.87 0.008546 155.41
8.82900000 0.008518 -138.9 0.999955 -81.87 0.999955 -81.87 0.008513 155.16
8.82920000 0.008486 -138.6 0.999956 -81.88 0.999956 -81.88 0.008481 154.91
8.82940000 0.008453 -138.4 0.999956 -81.88 0.999956 -81.88 0.008448 154.66
8.82960000 0.008421 -138.2 0.999956 -81.89 0.999956 -81.89 0.008415 154.40
8.82980000 0.008388 -137.9 0.999956 -81.89 0.999956 -81.89 0.008383 154.13
8.83000000 0.008355 -137.6 0.999957 -81.90 0.999957 -81.90 0.008350 153.87
8.83020000 0.008322 -137.4 0.999957 -81.90 0.999957 -81.90 0.008317 153.59
8.83040000 0.008289 -137.1 0.999957 -81.91 0.999957 -81.91 0.008284 153.32
8.83060000 0.008256 -136.8 0.999957 -81.91 0.999957 -81.91 0.008251 153.04
8.83080000 0.008223 -136.6 0.999958 -81.91 0.999958 -81.91 0.008217 152.75
8.83100000 0.008190 -136.3 0.999958 -81.92 0.999958 -81.92 0.008184 152.46
8.83120000 0.008157 -136.0 0.999958 -81.92 0.999958 -81.92 0.008151 152.17
8.83140000 0.008123 -135.7 0.999958 -81.93 0.999958 -81.93 0.008118 151.87
8.83160000 0.008090 -135.4 0.999959 -81.93 0.999959 -81.93 0.008084 151.57
8.83180000 0.008057 -135.1 0.999959 -81.94 0.999959 -81.94 0.008051 151.26
8.83200000 0.008023 -134.8 0.999959 -81.94 0.999959 -81.94 0.008017 150.95
8.83220000 0.007990 -134.5 0.999959 -81.95 0.999959 -81.95 0.007984 150.63
8.83240000 0.007956 -134.2 0.999959 -81.95 0.999959 -81.95 0.007950 150.30
8.83260000 0.007923 -133.9 0.999960 -81.96 0.999960 -81.96 0.007917 149.97
8.83280000 0.007889 -133.5 0.999960 -81.96 0.999960 -81.96 0.007883 149.64
8.83300000 0.007856 -133.2 0.999960 -81.97 0.999960 -81.97 0.007849 149.30
8.83320000 0.007822 -132.9 0.999960 -81.97 0.999960 -81.97 0.007816 148.95
8.83340000 0.007789 -132.5 0.999960 -81.98 0.999960 -81.98 0.007782 148.60
8.83360000 0.007755 -132.2 0.999961 -81.99 0.999961 -81.99 0.007749 148.24
8.83380000 0.007722 -131.8 0.999961 -81.99 0.999961 -81.99 0.007715 147.88
8.83400000 0.007689 -131.5 0.999961 -82.00 0.999961 -82.00 0.007681 147.51
8.83420000 0.007655 -131.1 0.999961 -82.00 0.999961 -82.00 0.007648 147.14
8.83440000 0.007622 -130.7 0.999962 -82.01 0.999962 -82.01 0.007615 146.75
8.83460000 0.007589 -130.4 0.999962 -82.01 0.999962 -82.01 0.007581 146.36
8.83480000 0.007555 -130.0 0.999962 -82.02 0.999962 -82.02 0.007548 145.97
8.83500000 0.007522 -129.6 0.999962 -82.02 0.999962 -82.02 0.007514 145.56
8.83520000 0.007489 -129.2 0.999962 -82.03 0.999962 -82.03 0.007481 145.15
8.83540000 0.007456 -128.8 0.999962 -82.03 0.999962 -82.03 0.007448 144.74
8.83560000 0.007423 -128.4 0.999963 -82.04 0.999963 -82.04 0.007415 144.31
8.83580000 0.007390 -127.9 0.999963 -82.04 0.999963 -82.04 0.007382 143.88
8.83600000 0.007358 -127.5 0.999963 -82.05 0.999963 -82.05 0.007350 143.44
8.83620000 0.007325 -127.1 0.999963 -82.06 0.999963 -82.06 0.007317 142.99
8.83640000 0.007293 -126.6 0.999963 -82.06 0.999963 -82.06 0.007284 142.54
8.83660000 0.007261 -126.2 0.999964 -82.07 0.999964 -82.07 0.007252 142.08
8.83680000 0.007229 -125.7 0.999964 -82.07 0.999964 -82.07 0.007220 141.61
8.83700000 0.007197 -125.3 0.999964 -82.08 0.999964 -82.08 0.007188 141.13
8.83720000 0.007166 -124.8 0.999964 -82.08 0.999964 -82.08 0.007157 140.64
8.83740000 0.007134 -124.3 0.999964 -82.09 0.999964 -82.09 0.007125 140.14
8.83760000 0.007103 -123.8 0.999964 -82.10 0.999964 -82.10 0.007094 139.63
8.83780000 0.007072 -123.3 0.999965 -82.10 0.999965 -82.10 0.007063 139.12
8.83800000 0.007042 -122.8 0.999965 -82.11 0.999965 -82.11 0.007032 138.60
8.83820000 0.007012 -122.3 0.999965 -82.11 0.999965 -82.11 0.007002 138.06
8.83840000 0.006982 -121.7 0.999965 -82.12 0.999965 -82.12 0.006972 137.52
8.83860000 0.006952 -121.2 0.999965 -82.12 0.999965 -82.12 0.006942 136.97
8.83880000 0.006923 -120.6 0.999965 -82.13 0.999965 -82.13 0.006913 136.40
8.83900000 0.006894 -120.1 0.999965 -82.14 0.999965 -82.14 0.006884 135.83
8.83920000 0.006866 -119.5 0.999966 -82.14 0.999966 -82.14 0.006855 135.25
8.83940000 0.006838 -118.9 0.999966 -82.15 0.999966 -82.15 0.006827 134.66
8.83960000 0.006811 -118.3 0.999966 -82.16 0.999966 -82.16 0.006800 134.05
8.83980000 0.006784 -117.7 0.999966 -82.16 0.999966 -82.16 0.006773 133.44
8.84000000 0.006757 -117.1 0.999966 -82.17 0.999966 -82.17 0.006746 132.81
8.84020000 0.006731 -116.5 0.999966 -82.17 0.999966 -82.17 0.006720 132.18
8.84040000 0.006706 -115.9 0.999966 -82.18 0.999966 -82.18 0.006695 131.53
8.84060000 0.006682 -115.2 0.999966 -82.19 0.999966 -82.19 0.006670 130.87
8.84080000 0.006657 -114.6 0.999966 -82.19 0.999966 -82.19 0.006646 130.20
8.84100000 0.006634 -113.9 0.999966 -82.20 0.999966 -82.20 0.006622 129.52
8.84120000 0.006611 -113.2 0.999966 -82.21 0.999966 -82.21 0.006599 128.83
8.84140000 0.006590 -112.5 0.999967 -82.21 0.999967 -82.21 0.006577 128.13
8.84160000 0.006568 -111.8 0.999967 -82.22 0.999967 -82.22 0.006556 127.41
8.84180000 0.006548 -111.1 0.999967 -82.23 0.999967 -82.23 0.006535 126.68
8.84200000 0.006529 -110.4 0.999967 -82.23 0.999967 -82.23 0.006515 125.94
8.84220000 0.006510 -109.7 0.999967 -82.24 0.999967 -82.24 0.006497 125.19
8.84240000 0.006492 -108.9 0.999967 -82.25 0.999967 -82.25 0.006479 124.43
8.84260000 0.006476 -108.2 0.999967 -82.25 0.999967 -82.25 0.006462 123.65
8.84280000 0.006460 -107.4 0.999967 -82.26 0.999967 -82.26 0.006446 122.87
8.84300000 0.006445 -106.6 0.999967 -82.27 0.999967 -82.27 0.006431 122.07
8.84320000 0.006432 -105.8 0.999967 -82.27 0.999967 -82.27 0.006417 121.26
8.84340000 0.006419 -105.0 0.999967 -82.28 0.999967 -82.28 0.006405 120.44
8.84360000 0.006408 -104.2 0.999967 -82.29 0.999967 -82.29 0.006393 119.60
8.84380000 0.006398 -103.3 0.999967 -82.30 0.999967 -82.30 0.006383 118.76
8.84400000 0.006389 -102.5 0.999967 -82.30 0.999967 -82.30 0.006374 117.90
8.84420000 0.006382 -101.7 0.999967 -82.31 0.999967 -82.31 0.006367 117.03
8.84440000 0.006376 -100.8 0.999966 -82.32 0.999966 -82.32 0.006361 116.15
8.84460000 0.006372 -99.92 0.999966 -82.33 0.999966 -82.33 0.006356 115.26
8.84480000 0.006369 -99.03 0.999966 -82.33 0.999966 -82.33 0.006353 114.36
8.84500000 0.006367 -98.14 0.999966 -82.34 0.999966 -82.34 0.006351 113.45
8.84520000 0.006367 -97.23 0.999966 -82.35 0.999966 -82.35 0.006351 112.53
8.84540000 0.006369 -96.32 0.999966 -82.36 0.999966 -82.36 0.006352 111.59
8.84560000 0.006372 -95.40 0.999966 -82.36 0.999966 -82.36 0.006355 110.65
8.84580000 0.006377 -94.46 0.999966 -82.37 0.999966 -82.37 0.006360 109.70
8.84600000 0.006384 -93.52 0.999966 -82.38 0.999966 -82.38 0.006367 108.74
8.84620000 0.006393 -92.57 0.999965 -82.39 0.999965 -82.39 0.006376 107.77
8.84640000 0.006404 -91.61 0.999965 -82.40 0.999965 -82.40 0.006386 106.80
8.84660000 0.006417 -90.65 0.999965 -82.40 0.999965 -82.40 0.006399 105.81
8.84680000 0.006431 -89.68 0.999965 -82.41 0.999965 -82.41 0.006413 104.82
8.84700000 0.006448 -88.70 0.999964 -82.42 0.999964 -82.42 0.006430 103.82
8.84720000 0.006467 -87.71 0.999964 -82.43 0.999964 -82.43 0.006449 102.82
8.84740000 0.006488 -86.72 0.999964 -82.44 0.999964 -82.44 0.006470 101.81
8.84760000 0.006512 -85.73 0.999964 -82.45 0.999964 -82.45 0.006493 100.79
8.84780000 0.006537 -84.73 0.999963 -82.45 0.999963 -82.45 0.006518 99.774
8.84800000 0.006565 -83.73 0.999963 -82.46 0.999963 -82.46 0.006546 98.752
8.84820000 0.006596 -82.72 0.999963 -82.47 0.999963 -82.47 0.006576 97.726
8.84840000 0.006628 -81.72 0.999962 -82.48 0.999962 -82.48 0.006609 96.697
8.84860000 0.006664 -80.71 0.999962 -82.49 0.999962 -82.49 0.006644 95.667
8.84880000 0.006702 -79.70 0.999961 -82.50 0.999961 -82.50 0.006682 94.635
8.84900000 0.006742 -78.69 0.999961 -82.51 0.999961 -82.51 0.006722 93.603
8.84920000 0.006785 -77.68 0.999961 -82.52 0.999961 -82.52 0.006765 92.570
8.84940000 0.006831 -76.67 0.999960 -82.53 0.999960 -82.53 0.006811 91.539
8.84960000 0.006880 -75.66 0.999960 -82.53 0.999960 -82.53 0.006859 90.509
8.84980000 0.006931 -74.65 0.999959 -82.54 0.999959 -82.54 0.006910 89.480
8.85000000 0.006985 -73.65 0.999959 -82.55 0.999959 -82.55 0.006965 88.455
8.85020000 0.007042 -72.65 0.999958 -82.56 0.999958 -82.56 0.007021 87.432
8.85040000 0.007102 -71.65 0.999957 -82.57 0.999957 -82.57 0.007081 86.413
8.85060000 0.007165 -70.66 0.999957 -82.58 0.999957 -82.58 0.007144 85.399
8.85080000 0.007231 -69.68 0.999956 -82.59 0.999956 -82.59 0.007210 84.390
8.85100000 0.007300 -68.70 0.999955 -82.60 0.999955 -82.60 0.007279 83.387
8.85120000 0.007372 -67.72 0.999955 -82.61 0.999955 -82.61 0.007351 82.389
8.85140000 0.007448 -66.76 0.999954 -82.62 0.999954 -82.62 0.007426 81.398
8.85160000 0.007526 -65.80 0.999953 -82.63 0.999953 -82.63 0.007504 80.414
8.85170196 0.007567 -65.31 0.999953 -82.64 0.999953 -82.64 0.007546 79.916
8.85180000 0.007608 -64.84 0.999952 -82.64 0.999952 -82.64 0.007586 79.438
8.85200000 0.007693 -63.90 0.999951 -82.66 0.999951 -82.66 0.007671 78.470
8.85220000 0.007781 -62.97 0.999951 -82.67 0.999951 -82.67 0.007759 77.511
8.85238783 0.007867 -62.10 0.999950 -82.68 0.999950 -82.68 0.007845 76.617
8.85240000 0.007872 -62.04 0.999950 -82.68 0.999950 -82.68 0.007850 76.560
8.85260000 0.007967 -61.12 0.999949 -82.69 0.999949 -82.69 0.007945 75.618
8.85280000 0.008065 -60.22 0.999948 -82.70 0.999948 -82.70 0.008043 74.686
8.85300000 0.008167 -59.32 0.999947 -82.71 0.999947 -82.71 0.008145 73.764
8.85305799 0.008197 -59.06 0.999946 -82.71 0.999946 -82.71 0.008175 73.499
8.85320000 0.008272 -58.43 0.999945 -82.72 0.999945 -82.72 0.008250 72.852
8.85340000 0.008381 -57.56 0.999944 -82.73 0.999944 -82.73 0.008358 71.951
8.85360000 0.008493 -56.69 0.999943 -82.74 0.999943 -82.74 0.008471 71.060
8.85371279 0.008558 -56.21 0.999942 -82.75 0.999942 -82.75 0.008535 70.563
8.85380000 0.008609 -55.84 0.999942 -82.76 0.999942 -82.76 0.008586 70.180
8.85400000 0.008728 -55.00 0.999941 -82.77 0.999941 -82.77 0.008706 69.311
8.85420000 0.008851 -54.17 0.999939 -82.78 0.999939 -82.78 0.008829 68.454
8.85435258 0.008948 -53.54 0.999938 -82.79 0.999938 -82.79 0.008925 67.807
8.85440000 0.008978 -53.35 0.999938 -82.79 0.999938 -82.79 0.008956 67.607
8.85460000 0.009109 -52.54 0.999936 -82.80 0.999936 -82.80 0.009086 66.773
8.85480000 0.009243 -51.74 0.999935 -82.82 0.999935 -82.82 0.009220 65.949
8.85497772 0.009366 -51.04 0.999933 -82.83 0.999933 -82.83 0.009343 65.227
8.85500000 0.009381 -50.96 0.999933 -82.83 0.999933 -82.83 0.009359 65.138
8.85520000 0.009523 -50.19 0.999932 -82.84 0.999932 -82.84 0.009501 64.338
8.85540000 0.009670 -49.43 0.999930 -82.86 0.999930 -82.86 0.009647 63.549
8.85558853 0.009811 -48.72 0.999928 -82.87 0.999928 -82.87 0.009788 62.817
8.85560000 0.009820 -48.68 0.999928 -82.87 0.999928 -82.87 0.009797 62.772
8.85580000 0.009974 -47.94 0.999926 -82.88 0.999926 -82.88 0.009951 62.007
8.85600000 0.010132 -47.22 0.999924 -82.90 0.999924 -82.90 0.010109 61.254
8.85618535 0.010282 -46.56 0.999923 -82.91 0.999923 -82.91 0.010259 60.566
8.85620000 0.010294 -46.50 0.999922 -82.91 0.999922 -82.91 0.010272 60.512
8.85640000 0.010461 -45.80 0.999920 -82.92 0.999920 -82.92 0.010438 59.782
8.85660000 0.010632 -45.11 0.999918 -82.94 0.999918 -82.94 0.010609 59.063
8.85676849 0.010779 -44.54 0.999916 -82.95 0.999916 -82.95 0.010756 58.467
8.85680000 0.010807 -44.44 0.999916 -82.95 0.999916 -82.95 0.010784 58.356
8.85700000 0.010987 -43.77 0.999914 -82.97 0.999914 -82.97 0.010964 57.660
8.85720000 0.011171 -43.12 0.999911 -82.98 0.999911 -82.98 0.011148 56.975
8.85733827 0.011301 -42.67 0.999910 -82.99 0.999910 -82.99 0.011278 56.508
8.85740000 0.011359 -42.48 0.999909 -83.00 0.999909 -83.00 0.011336 56.301
8.85760000 0.011553 -41.84 0.999906 -83.01 0.999906 -83.01 0.011530 55.638
8.85780000 0.011751 -41.23 0.999903 -83.03 0.999903 -83.03 0.011728 54.986
8.85789499 0.011846 -40.93 0.999902 -83.03 0.999902 -83.03 0.011823 54.681
8.85800000 0.011953 -40.62 0.999901 -83.04 0.999901 -83.04 0.011930 54.345
8.85820000 0.012161 -40.02 0.999898 -83.06 0.999898 -83.06 0.012138 53.715
8.85840000 0.012374 -39.43 0.999895 -83.07 0.999895 -83.07 0.012351 53.094
8.85843896 0.012416 -39.32 0.999894 -83.08 0.999894 -83.08 0.012393 52.975
8.85860000 0.012591 -38.86 0.999891 -83.09 0.999891 -83.09 0.012568 52.484
8.85880000 0.012814 -38.29 0.999888 -83.11 0.999888 -83.11 0.012791 51.885
8.85897046 0.013008 -37.82 0.999885 -83.12 0.999885 -83.12 0.012985 51.381
8.85900000 0.013042 -37.74 0.999885 -83.12 0.999885 -83.12 0.013019 51.295
8.85920000 0.013276 -37.19 0.999881 -83.14 0.999881 -83.14 0.013253 50.714
8.85940000 0.013515 -36.66 0.999878 -83.16 0.999878 -83.16 0.013491 50.144
8.85948978 0.013624 -36.42 0.999876 -83.17 0.999876 -83.17 0.013600 49.891
8.85960000 0.013759 -36.13 0.999874 -83.18 0.999874 -83.18 0.013736 49.583
8.85980000 0.014009 -35.62 0.999870 -83.19 0.999870 -83.19 0.013986 49.031
8.85999721 0.014262 -35.12 0.999866 -83.21 0.999866 -83.21 0.014238 48.496
8.86000000 0.014265 -35.11 0.999865 -83.21 0.999865 -83.21 0.014242 48.489
8.86020000 0.014527 -34.62 0.999861 -83.23 0.999861 -83.23 0.014504 47.955
8.86040000 0.014795 -34.13 0.999857 -83.25 0.999857 -83.25 0.014772 47.430
8.86049301 0.014922 -33.91 0.999855 -83.26 0.999855 -83.26 0.014899 47.189
8.86060000 0.015070 -33.66 0.999852 -83.27 0.999852 -83.27 0.015046 46.914
8.86080000 0.015351 -33.19 0.999847 -83.29 0.999847 -83.29 0.015327 46.406
8.86097744 0.015605 -32.78 0.999843 -83.31 0.999843 -83.31 0.015582 45.962
8.86100000 0.015638 -32.73 0.999842 -83.31 0.999842 -83.31 0.015614 45.906
8.86120000 0.015932 -32.28 0.999837 -83.33 0.999837 -83.33 0.015908 45.415
8.86140000 0.016233 -31.84 0.999831 -83.35 0.999831 -83.35 0.016209 44.931
8.86145078 0.016310 -31.73 0.999830 -83.35 0.999830 -83.35 0.016287 44.810
8.86160000 0.016541 -31.40 0.999826 -83.37 0.999826 -83.37 0.016517 44.455
8.86180000 0.016856 -30.98 0.999820 -83.39 0.999820 -83.39 0.016832 43.987
8.86191327 0.017038 -30.74 0.999816 -83.40 0.999816 -83.40 0.017014 43.725
8.86200000 0.017179 -30.56 0.999813 -83.41 0.999813 -83.41 0.017155 43.526
8.86220000 0.017509 -30.16 0.999807 -83.44 0.999807 -83.44 0.017485 43.073
8.86236516 0.017788 -29.83 0.999801 -83.45 0.999801 -83.45 0.017764 42.703
8.86240000 0.017847 -29.76 0.999800 -83.46 0.999800 -83.46 0.017823 42.626
8.86260000 0.018193 -29.36 0.999793 -83.48 0.999793 -83.48 0.018169 42.186
8.86280000 0.018548 -28.98 0.999786 -83.50 0.999786 -83.50 0.018524 41.754
8.86280670 0.018560 -28.97 0.999786 -83.51 0.999786 -83.51 0.018536 41.739
8.86300000 0.018911 -28.60 0.999778 -83.53 0.999778 -83.53 0.018887 41.327
8.86320000 0.019283 -28.23 0.999770 -83.55 0.999770 -83.55 0.019258 40.908
8.86323812 0.019355 -28.16 0.999769 -83.56 0.999769 -83.56 0.019330 40.828
8.86340000 0.019664 -27.87 0.999762 -83.58 0.999762 -83.58 0.019639 40.494
8.86360000 0.020054 -27.51 0.999753 -83.60 0.999753 -83.60 0.020030 40.087
8.86365966 0.020172 -27.41 0.999751 -83.61 0.999751 -83.61 0.020148 39.966
8.86380000 0.020454 -27.17 0.999744 -83.63 0.999744 -83.63 0.020430 39.685
8.86400000 0.020864 -26.82 0.999735 -83.66 0.999735 -83.66 0.020839 39.289
8.86407153 0.021013 -26.70 0.999731 -83.67 0.999731 -83.67 0.020988 39.149
8.86420000 0.021284 -26.49 0.999725 -83.68 0.999725 -83.68 0.021260 38.899
8.86440000 0.021715 -26.16 0.999714 -83.71 0.999714 -83.71 0.021690 38.515
8.86447397 0.021877 -26.04 0.999710 -83.72 0.999710 -83.72 0.021852 38.374
8.86460000 0.022157 -25.84 0.999704 -83.74 0.999704 -83.74 0.022132 38.136
8.86480000 0.022610 -25.53 0.999692 -83.77 0.999692 -83.77 0.022585 37.762
8.86486719 0.022765 -25.42 0.999688 -83.78 0.999688 -83.78 0.022740 37.637
8.86500000 0.023075 -25.22 0.999681 -83.80 0.999681 -83.80 0.023050 37.393
8.86520000 0.023552 -24.92 0.999668 -83.83 0.999668 -83.83 0.023527 37.029
8.86525140 0.023677 -24.84 0.999665 -83.84 0.999665 -83.84 0.023651 36.936
8.86540000 0.024042 -24.62 0.999655 -83.86 0.999655 -83.86 0.024016 36.670
8.86560000 0.024544 -24.33 0.999642 -83.89 0.999642 -83.89 0.024518 36.315
8.86562680 0.024612 -24.29 0.999640 -83.89 0.999640 -83.89 0.024587 36.268
8.86580000 0.025060 -24.05 0.999628 -83.92 0.999628 -83.92 0.025034 35.965
8.86599360 0.025573 -23.78 0.999613 -83.96 0.999613 -83.96 0.025547 35.631
8.86600000 0.025590 -23.77 0.999613 -83.96 0.999613 -83.96 0.025564 35.620
8.86620000 0.026135 -23.50 0.999597 -83.99 0.999597 -83.99 0.026108 35.278
8.86635200 0.026558 -23.30 0.999585 -84.02 0.999585 -84.02 0.026532 35.022
8.86640000 0.026694 -23.23 0.999581 -84.03 0.999581 -84.03 0.026668 34.941
8.86660000 0.027269 -22.97 0.999564 -84.06 0.999564 -84.06 0.027243 34.608
8.86670218 0.027569 -22.84 0.999555 -84.08 0.999555 -84.08 0.027543 34.439
8.86680000 0.027861 -22.72 0.999546 -84.10 0.999546 -84.10 0.027834 34.278
8.86700000 0.028469 -22.47 0.999527 -84.14 0.999527 -84.14 0.028442 33.952
8.86704434 0.028606 -22.41 0.999523 -84.14 0.999523 -84.14 0.028580 33.880
8.86720000 0.029095 -22.23 0.999507 -84.17 0.999507 -84.17 0.029068 33.630
8.86737866 0.029670 -22.01 0.999488 -84.21 0.999488 -84.21 0.029643 33.345
8.86740000 0.029739 -21.99 0.999486 -84.21 0.999486 -84.21 0.029712 33.311
8.86760000 0.030403 -21.76 0.999464 -84.25 0.999464 -84.25 0.030375 32.995
8.86770532 0.030760 -21.64 0.999452 -84.28 0.999452 -84.28 0.030732 32.830
8.86780000 0.031086 -21.53 0.999441 -84.30 0.999441 -84.30 0.031058 32.682
8.86800000 0.031790 -21.31 0.999417 -84.34 0.999417 -84.34 0.031762 32.373
8.86802450 0.031878 -21.28 0.999414 -84.34 0.999414 -84.34 0.031850 32.335
8.86820000 0.032516 -21.09 0.999391 -84.38 0.999391 -84.38 0.032487 32.066
8.86833636 0.033023 -20.95 0.999373 -84.41 0.999373 -84.41 0.032995 31.858
8.86840000 0.033264 -20.88 0.999364 -84.43 0.999364 -84.43 0.033235 31.762
8.86860000 0.034036 -20.68 0.999336 -84.48 0.999336 -84.48 0.034007 31.460
8.86864107 0.034197 -20.63 0.999330 -84.49 0.999330 -84.49 0.034169 31.399
8.86880000 0.034832 -20.48 0.999306 -84.52 0.999306 -84.52 0.034803 31.161
8.86893881 0.035400 -20.34 0.999284 -84.56 0.999284 -84.56 0.035371 30.955
8.86900000 0.035655 -20.28 0.999274 -84.57 0.999274 -84.57 0.035626 30.864
8.86920000 0.036504 -20.09 0.999241 -84.63 0.999241 -84.63 0.036475 30.569
8.86922972 0.036633 -20.06 0.999236 -84.63 0.999236 -84.63 0.036604 30.526
8.86940000 0.037383 -19.91 0.999205 -84.68 0.999205 -84.68 0.037353 30.277
8.86951396 0.037896 -19.81 0.999184 -84.71 0.999184 -84.71 0.037866 30.111
8.86960000 0.038290 -19.73 0.999168 -84.73 0.999168 -84.73 0.038260 29.986
8.86979170 0.039190 -19.56 0.999130 -84.79 0.999130 -84.79 0.039160 29.708
8.86980000 0.039230 -19.56 0.999128 -84.79 0.999128 -84.79 0.039199 29.696
8.87000000 0.040202 -19.39 0.999086 -84.85 0.999086 -84.85 0.040171 29.408
8.87006306 0.040516 -19.34 0.999072 -84.87 0.999072 -84.87 0.040485 29.318