! Sonnet Data File
! From: emgraph Version : 16.52
! From Project: Resonator2_extremeCap
! Data is De-embedded 
! Data File Written: 10/10/2017 20:29:22
!< HDATE 10/09/2017 23:04:37
!< MDATE 10/09/2017 23:04:37
!< PARAMS
!< Pwid1 = 2000.0
!< Pwid2 = 2000.0
!< Air_gap = 24.0
!< Width = 40.0
!< Gap = 23.0
!< END PARAMS
# GHZ S MA R 51.80000
8.98000000 0.066558 25.632 0.997768 -90.37 0.997768 -90.37 0.066533 -26.37
!< P1 F=8.98 Eeff=(6.44310582 -2.9702e-5) Z0=(50.4815179 1.16466e-4) R=0.0 C=0.0 
!< P2 F=8.98 Eeff=(6.44310582 -2.9702e-5) Z0=(50.4815179 1.16466e-4) R=0.0 C=0.0 
8.98010000 0.066568 25.675 0.997767 -90.37 0.997767 -90.37 0.066543 -26.42
8.98020000 0.066577 25.718 0.997767 -90.38 0.997767 -90.38 0.066552 -26.47
8.98030000 0.066587 25.761 0.997766 -90.38 0.997766 -90.38 0.066562 -26.52
8.98040000 0.066597 25.804 0.997765 -90.39 0.997765 -90.39 0.066572 -26.58
8.98050000 0.066607 25.847 0.997765 -90.39 0.997765 -90.39 0.066582 -26.63
8.98060000 0.066617 25.891 0.997764 -90.39 0.997764 -90.39 0.066592 -26.68
8.98070000 0.066627 25.934 0.997763 -90.40 0.997763 -90.40 0.066602 -26.73
8.98080000 0.066637 25.978 0.997762 -90.40 0.997762 -90.40 0.066612 -26.78
8.98090000 0.066647 26.022 0.997762 -90.41 0.997762 -90.41 0.066622 -26.84
8.98100000 0.066658 26.065 0.997761 -90.41 0.997761 -90.41 0.066632 -26.89
8.98110000 0.066668 26.109 0.997760 -90.42 0.997760 -90.42 0.066643 -26.94
8.98120000 0.066678 26.153 0.997760 -90.42 0.997760 -90.42 0.066653 -26.99
8.98130000 0.066689 26.197 0.997759 -90.42 0.997759 -90.42 0.066663 -27.05
8.98140000 0.066699 26.242 0.997758 -90.43 0.997758 -90.43 0.066674 -27.10
8.98150000 0.066710 26.286 0.997757 -90.43 0.997757 -90.43 0.066684 -27.15
8.98160000 0.066721 26.330 0.997757 -90.44 0.997757 -90.44 0.066695 -27.21
8.98170000 0.066732 26.375 0.997756 -90.44 0.997756 -90.44 0.066706 -27.26
8.98180000 0.066742 26.419 0.997755 -90.45 0.997755 -90.45 0.066717 -27.31
8.98190000 0.066753 26.464 0.997754 -90.45 0.997754 -90.45 0.066727 -27.37
8.98200000 0.066764 26.509 0.997754 -90.46 0.997754 -90.46 0.066738 -27.42
8.98210000 0.066775 26.554 0.997753 -90.46 0.997753 -90.46 0.066749 -27.47
8.98220000 0.066787 26.599 0.997752 -90.46 0.997752 -90.46 0.066761 -27.53
8.98230000 0.066798 26.644 0.997751 -90.47 0.997751 -90.47 0.066772 -27.58
8.98240000 0.066809 26.689 0.997750 -90.47 0.997750 -90.47 0.066783 -27.64
8.98250000 0.066820 26.735 0.997750 -90.48 0.997750 -90.48 0.066794 -27.69
8.98260000 0.066832 26.780 0.997749 -90.48 0.997749 -90.48 0.066806 -27.74
8.98270000 0.066843 26.826 0.997748 -90.49 0.997748 -90.49 0.066817 -27.80
8.98280000 0.066855 26.871 0.997747 -90.49 0.997747 -90.49 0.066829 -27.85
8.98290000 0.066867 26.917 0.997746 -90.50 0.997746 -90.50 0.066840 -27.91
8.98300000 0.066878 26.963 0.997746 -90.50 0.997746 -90.50 0.066852 -27.96
8.98310000 0.066890 27.009 0.997745 -90.50 0.997745 -90.50 0.066864 -28.02
8.98320000 0.066902 27.055 0.997744 -90.51 0.997744 -90.51 0.066875 -28.07
8.98330000 0.066914 27.101 0.997743 -90.51 0.997743 -90.51 0.066887 -28.13
8.98340000 0.066926 27.148 0.997742 -90.52 0.997742 -90.52 0.066899 -28.18
8.98350000 0.066938 27.194 0.997741 -90.52 0.997741 -90.52 0.066912 -28.24
8.98360000 0.066951 27.241 0.997741 -90.53 0.997741 -90.53 0.066924 -28.30
8.98370000 0.066963 27.287 0.997740 -90.53 0.997740 -90.53 0.066936 -28.35
8.98380000 0.066975 27.334 0.997739 -90.54 0.997739 -90.54 0.066948 -28.41
8.98390000 0.066988 27.381 0.997738 -90.54 0.997738 -90.54 0.066961 -28.46
8.98400000 0.067000 27.428 0.997737 -90.55 0.997737 -90.55 0.066973 -28.52
8.98410000 0.067013 27.475 0.997736 -90.55 0.997736 -90.55 0.066986 -28.58
8.98420000 0.067026 27.522 0.997735 -90.55 0.997735 -90.55 0.066998 -28.63
8.98430000 0.067039 27.569 0.997734 -90.56 0.997734 -90.56 0.067011 -28.69
8.98440000 0.067051 27.617 0.997734 -90.56 0.997734 -90.56 0.067024 -28.75
8.98450000 0.067064 27.664 0.997733 -90.57 0.997733 -90.57 0.067037 -28.80
8.98460000 0.067078 27.712 0.997732 -90.57 0.997732 -90.57 0.067050 -28.86
8.98470000 0.067091 27.760 0.997731 -90.58 0.997731 -90.58 0.067063 -28.92
8.98480000 0.067104 27.807 0.997730 -90.58 0.997730 -90.58 0.067076 -28.97
8.98490000 0.067117 27.855 0.997729 -90.59 0.997729 -90.59 0.067089 -29.03
8.98500000 0.067131 27.903 0.997728 -90.59 0.997728 -90.59 0.067103 -29.09
8.98510000 0.067144 27.952 0.997727 -90.60 0.997727 -90.60 0.067116 -29.15
8.98520000 0.067158 28.000 0.997726 -90.60 0.997726 -90.60 0.067130 -29.20
8.98530000 0.067172 28.048 0.997725 -90.61 0.997725 -90.61 0.067143 -29.26
8.98540000 0.067185 28.097 0.997724 -90.61 0.997724 -90.61 0.067157 -29.32
8.98550000 0.067199 28.146 0.997723 -90.62 0.997723 -90.62 0.067171 -29.38
8.98560000 0.067213 28.194 0.997722 -90.62 0.997722 -90.62 0.067185 -29.44
8.98570000 0.067227 28.243 0.997721 -90.63 0.997721 -90.63 0.067199 -29.50
8.98580000 0.067241 28.292 0.997720 -90.63 0.997720 -90.63 0.067213 -29.55
8.98590000 0.067256 28.341 0.997719 -90.63 0.997719 -90.63 0.067227 -29.61
8.98600000 0.067270 28.390 0.997718 -90.64 0.997718 -90.64 0.067241 -29.67
8.98610000 0.067284 28.440 0.997717 -90.64 0.997717 -90.64 0.067256 -29.73
8.98620000 0.067299 28.489 0.997716 -90.65 0.997716 -90.65 0.067270 -29.79
8.98630000 0.067314 28.539 0.997715 -90.65 0.997715 -90.65 0.067285 -29.85
8.98640000 0.067328 28.589 0.997714 -90.66 0.997714 -90.66 0.067299 -29.91
8.98650000 0.067343 28.638 0.997713 -90.66 0.997713 -90.66 0.067314 -29.97
8.98660000 0.067358 28.688 0.997712 -90.67 0.997712 -90.67 0.067329 -30.03
8.98670000 0.067373 28.738 0.997711 -90.67 0.997711 -90.67 0.067344 -30.09
8.98680000 0.067388 28.788 0.997710 -90.68 0.997710 -90.68 0.067359 -30.15
8.98690000 0.067403 28.839 0.997709 -90.68 0.997709 -90.68 0.067374 -30.21
8.98700000 0.067419 28.889 0.997708 -90.69 0.997708 -90.69 0.067389 -30.27
8.98710000 0.067434 28.940 0.997707 -90.69 0.997707 -90.69 0.067405 -30.33
8.98720000 0.067450 28.990 0.997706 -90.70 0.997706 -90.70 0.067420 -30.39
8.98730000 0.067465 29.041 0.997705 -90.70 0.997705 -90.70 0.067436 -30.45
8.98740000 0.067481 29.092 0.997704 -90.71 0.997704 -90.71 0.067451 -30.51
8.98750000 0.067497 29.143 0.997702 -90.71 0.997702 -90.71 0.067467 -30.57
8.98760000 0.067513 29.194 0.997701 -90.72 0.997701 -90.72 0.067483 -30.63
8.98770000 0.067529 29.245 0.997700 -90.72 0.997700 -90.72 0.067499 -30.69
8.98780000 0.067545 29.297 0.997699 -90.73 0.997699 -90.73 0.067515 -30.75
8.98790000 0.067561 29.348 0.997698 -90.73 0.997698 -90.73 0.067531 -30.82
8.98800000 0.067578 29.400 0.997697 -90.74 0.997697 -90.74 0.067548 -30.88
8.98810000 0.067594 29.451 0.997696 -90.74 0.997696 -90.74 0.067564 -30.94
8.98820000 0.067611 29.503 0.997695 -90.75 0.997695 -90.75 0.067581 -31.00
8.98830000 0.067627 29.555 0.997693 -90.75 0.997693 -90.75 0.067597 -31.06
8.98840000 0.067644 29.607 0.997692 -90.76 0.997692 -90.76 0.067614 -31.13
8.98850000 0.067661 29.660 0.997691 -90.76 0.997691 -90.76 0.067631 -31.19
8.98860000 0.067678 29.712 0.997690 -90.77 0.997690 -90.77 0.067648 -31.25
8.98870000 0.067695 29.764 0.997689 -90.77 0.997689 -90.77 0.067665 -31.31
8.98880000 0.067712 29.817 0.997687 -90.78 0.997687 -90.78 0.067682 -31.38
8.98890000 0.067730 29.870 0.997686 -90.78 0.997686 -90.78 0.067699 -31.44
8.98900000 0.067747 29.922 0.997685 -90.79 0.997685 -90.79 0.067717 -31.50
8.98910000 0.067765 29.975 0.997684 -90.79 0.997684 -90.79 0.067734 -31.57
8.98920000 0.067783 30.029 0.997682 -90.80 0.997682 -90.80 0.067752 -31.63
8.98930000 0.067800 30.082 0.997681 -90.80 0.997681 -90.80 0.067769 -31.69
8.98940000 0.067818 30.135 0.997680 -90.81 0.997680 -90.81 0.067787 -31.76
8.98950000 0.067836 30.189 0.997679 -90.81 0.997679 -90.81 0.067805 -31.82
8.98960000 0.067855 30.242 0.997677 -90.82 0.997677 -90.82 0.067823 -31.88
8.98970000 0.067873 30.296 0.997676 -90.83 0.997676 -90.83 0.067842 -31.95
8.98980000 0.067891 30.350 0.997675 -90.83 0.997675 -90.83 0.067860 -32.01
8.98990000 0.067910 30.404 0.997674 -90.84 0.997674 -90.84 0.067878 -32.08
8.99000000 0.067929 30.458 0.997672 -90.84 0.997672 -90.84 0.067897 -32.14
8.99010000 0.067947 30.512 0.997671 -90.85 0.997671 -90.85 0.067916 -32.21
8.99020000 0.067966 30.566 0.997670 -90.85 0.997670 -90.85 0.067934 -32.27
8.99030000 0.067985 30.621 0.997668 -90.86 0.997668 -90.86 0.067953 -32.34
8.99040000 0.068004 30.676 0.997667 -90.86 0.997667 -90.86 0.067972 -32.40
8.99050000 0.068024 30.730 0.997666 -90.87 0.997666 -90.87 0.067992 -32.47
8.99060000 0.068043 30.785 0.997664 -90.87 0.997664 -90.87 0.068011 -32.53
8.99070000 0.068063 30.840 0.997663 -90.88 0.997663 -90.88 0.068030 -32.60
8.99080000 0.068082 30.895 0.997661 -90.88 0.997661 -90.88 0.068050 -32.67
8.99090000 0.068102 30.951 0.997660 -90.89 0.997660 -90.89 0.068070 -32.73
8.99100000 0.068122 31.006 0.997659 -90.89 0.997659 -90.89 0.068090 -32.80
8.99110000 0.068142 31.062 0.997657 -90.90 0.997657 -90.90 0.068109 -32.86
8.99120000 0.068162 31.117 0.997656 -90.90 0.997656 -90.90 0.068130 -32.93
8.99130000 0.068182 31.173 0.997654 -90.91 0.997654 -90.91 0.068150 -33.00
8.99140000 0.068203 31.229 0.997653 -90.92 0.997653 -90.92 0.068170 -33.06
8.99150000 0.068224 31.285 0.997651 -90.92 0.997651 -90.92 0.068191 -33.13
8.99160000 0.068244 31.341 0.997650 -90.93 0.997650 -90.93 0.068211 -33.20
8.99170000 0.068265 31.398 0.997649 -90.93 0.997649 -90.93 0.068232 -33.27
8.99180000 0.068286 31.454 0.997647 -90.94 0.997647 -90.94 0.068253 -33.33
8.99190000 0.068307 31.511 0.997646 -90.94 0.997646 -90.94 0.068274 -33.40
8.99200000 0.068328 31.567 0.997644 -90.95 0.997644 -90.95 0.068295 -33.47
8.99210000 0.068350 31.624 0.997643 -90.95 0.997643 -90.95 0.068316 -33.54
8.99220000 0.068371 31.681 0.997641 -90.96 0.997641 -90.96 0.068338 -33.60
8.99230000 0.068393 31.738 0.997639 -90.96 0.997639 -90.96 0.068360 -33.67
8.99240000 0.068415 31.796 0.997638 -90.97 0.997638 -90.97 0.068381 -33.74
8.99250000 0.068437 31.853 0.997636 -90.98 0.997636 -90.98 0.068403 -33.81
8.99260000 0.068459 31.911 0.997635 -90.98 0.997635 -90.98 0.068425 -33.88
8.99270000 0.068481 31.968 0.997633 -90.99 0.997633 -90.99 0.068447 -33.95
8.99280000 0.068504 32.026 0.997632 -90.99 0.997632 -90.99 0.068470 -34.02
8.99290000 0.068526 32.084 0.997630 -91.00 0.997630 -91.00 0.068492 -34.09
8.99300000 0.068549 32.142 0.997628 -91.00 0.997628 -91.00 0.068515 -34.16
8.99310000 0.068572 32.201 0.997627 -91.01 0.997627 -91.01 0.068538 -34.22
8.99320000 0.068595 32.259 0.997625 -91.02 0.997625 -91.02 0.068560 -34.29
8.99330000 0.068618 32.317 0.997624 -91.02 0.997624 -91.02 0.068584 -34.36
8.99340000 0.068641 32.376 0.997622 -91.03 0.997622 -91.03 0.068607 -34.43
8.99350000 0.068665 32.435 0.997620 -91.03 0.997620 -91.03 0.068630 -34.50
8.99360000 0.068688 32.494 0.997619 -91.04 0.997619 -91.04 0.068654 -34.58
8.99370000 0.068712 32.553 0.997617 -91.04 0.997617 -91.04 0.068677 -34.65
8.99380000 0.068736 32.612 0.997615 -91.05 0.997615 -91.05 0.068701 -34.72
8.99390000 0.068760 32.672 0.997613 -91.06 0.997613 -91.06 0.068725 -34.79
8.99400000 0.068784 32.731 0.997612 -91.06 0.997612 -91.06 0.068749 -34.86
8.99410000 0.068809 32.791 0.997610 -91.07 0.997610 -91.07 0.068774 -34.93
8.99420000 0.068833 32.850 0.997608 -91.07 0.997608 -91.07 0.068798 -35.00
8.99430000 0.068858 32.910 0.997607 -91.08 0.997607 -91.08 0.068823 -35.07
8.99440000 0.068883 32.970 0.997605 -91.08 0.997605 -91.08 0.068847 -35.14
8.99450000 0.068908 33.031 0.997603 -91.09 0.997603 -91.09 0.068872 -35.22
8.99460000 0.068933 33.091 0.997601 -91.10 0.997601 -91.10 0.068898 -35.29
8.99470000 0.068959 33.152 0.997599 -91.10 0.997599 -91.10 0.068923 -35.36
8.99480000 0.068984 33.212 0.997598 -91.11 0.997598 -91.11 0.068948 -35.43
8.99490000 0.069010 33.273 0.997596 -91.11 0.997596 -91.11 0.068974 -35.51
8.99500000 0.069036 33.334 0.997594 -91.12 0.997594 -91.12 0.069000 -35.58
8.99510000 0.069062 33.395 0.997592 -91.13 0.997592 -91.13 0.069026 -35.65
8.99520000 0.069088 33.456 0.997590 -91.13 0.997590 -91.13 0.069052 -35.73
8.99530000 0.069114 33.518 0.997588 -91.14 0.997588 -91.14 0.069078 -35.80
8.99540000 0.069141 33.579 0.997586 -91.14 0.997586 -91.14 0.069104 -35.87
8.99550000 0.069168 33.641 0.997585 -91.15 0.997585 -91.15 0.069131 -35.95
8.99560000 0.069195 33.703 0.997583 -91.16 0.997583 -91.16 0.069158 -36.02
8.99570000 0.069222 33.764 0.997581 -91.16 0.997581 -91.16 0.069185 -36.09
8.99580000 0.069249 33.827 0.997579 -91.17 0.997579 -91.17 0.069212 -36.17
8.99590000 0.069276 33.889 0.997577 -91.17 0.997577 -91.17 0.069239 -36.24
8.99600000 0.069304 33.951 0.997575 -91.18 0.997575 -91.18 0.069267 -36.32
8.99610000 0.069332 34.014 0.997573 -91.19 0.997573 -91.19 0.069295 -36.39
8.99620000 0.069360 34.076 0.997571 -91.19 0.997571 -91.19 0.069323 -36.47
8.99630000 0.069388 34.139 0.997569 -91.20 0.997569 -91.20 0.069351 -36.54
8.99640000 0.069416 34.202 0.997567 -91.20 0.997567 -91.20 0.069379 -36.62
8.99650000 0.069445 34.265 0.997565 -91.21 0.997565 -91.21 0.069407 -36.69
8.99660000 0.069474 34.329 0.997563 -91.22 0.997563 -91.22 0.069436 -36.77
8.99670000 0.069503 34.392 0.997561 -91.22 0.997561 -91.22 0.069465 -36.84
8.99680000 0.069532 34.456 0.997558 -91.23 0.997558 -91.23 0.069494 -36.92
8.99690000 0.069561 34.519 0.997556 -91.24 0.997556 -91.24 0.069523 -37.00
8.99700000 0.069591 34.583 0.997554 -91.24 0.997554 -91.24 0.069553 -37.07
8.99710000 0.069620 34.647 0.997552 -91.25 0.997552 -91.25 0.069582 -37.15
8.99720000 0.069650 34.712 0.997550 -91.25 0.997550 -91.25 0.069612 -37.23
8.99730000 0.069680 34.776 0.997548 -91.26 0.997548 -91.26 0.069642 -37.30
8.99740000 0.069711 34.840 0.997546 -91.27 0.997546 -91.27 0.069672 -37.38
8.99750000 0.069741 34.905 0.997543 -91.27 0.997543 -91.27 0.069702 -37.46
8.99760000 0.069772 34.970 0.997541 -91.28 0.997541 -91.28 0.069733 -37.54
8.99770000 0.069803 35.035 0.997539 -91.29 0.997539 -91.29 0.069764 -37.61
8.99780000 0.069834 35.100 0.997537 -91.29 0.997537 -91.29 0.069795 -37.69
8.99790000 0.069865 35.165 0.997535 -91.30 0.997535 -91.30 0.069826 -37.77
8.99800000 0.069897 35.231 0.997532 -91.30 0.997532 -91.30 0.069857 -37.85
8.99810000 0.069928 35.296 0.997530 -91.31 0.997530 -91.31 0.069889 -37.93
8.99820000 0.069960 35.362 0.997528 -91.32 0.997528 -91.32 0.069921 -38.01
!< P1 F=8.9982 Eeff=(6.4431029 -2.9701e-5) Z0=(50.4814541 1.16464e-4) R=0.0 C=0.0 
!< P2 F=8.9982 Eeff=(6.4431029 -2.9701e-5) Z0=(50.4814541 1.16464e-4) R=0.0 C=0.0 
8.99830000 0.069992 35.428 0.997525 -91.32 0.997525 -91.32 0.069953 -38.08
8.99840000 0.070025 35.494 0.997523 -91.33 0.997523 -91.33 0.069985 -38.16
8.99850000 0.070057 35.560 0.997521 -91.34 0.997521 -91.34 0.070018 -38.24
8.99860000 0.070090 35.626 0.997518 -91.34 0.997518 -91.34 0.070050 -38.32
8.99870000 0.070123 35.693 0.997516 -91.35 0.997516 -91.35 0.070083 -38.40
8.99880000 0.070156 35.759 0.997514 -91.36 0.997514 -91.36 0.070116 -38.48
8.99890000 0.070190 35.826 0.997511 -91.36 0.997511 -91.36 0.070150 -38.56
8.99900000 0.070223 35.893 0.997509 -91.37 0.997509 -91.37 0.070183 -38.64
8.99910000 0.070257 35.960 0.997506 -91.38 0.997506 -91.38 0.070217 -38.72
8.99920000 0.070291 36.028 0.997504 -91.38 0.997504 -91.38 0.070251 -38.80
8.99930000 0.070326 36.095 0.997501 -91.39 0.997501 -91.39 0.070285 -38.88
8.99940000 0.070360 36.163 0.997499 -91.40 0.997499 -91.40 0.070320 -38.96
8.99950000 0.070395 36.230 0.997496 -91.40 0.997496 -91.40 0.070354 -39.05
8.99960000 0.070430 36.298 0.997494 -91.41 0.997494 -91.41 0.070389 -39.13
8.99970000 0.070465 36.366 0.997491 -91.42 0.997491 -91.42 0.070424 -39.21
8.99980000 0.070501 36.435 0.997489 -91.42 0.997489 -91.42 0.070460 -39.29
8.99990000 0.070537 36.503 0.997486 -91.43 0.997486 -91.43 0.070495 -39.37
9.00000000 0.070572 36.572 0.997483 -91.44 0.997483 -91.44 0.070531 -39.45
9.00010000 0.070609 36.640 0.997481 -91.44 0.997481 -91.44 0.070567 -39.54
9.00020000 0.070645 36.709 0.997478 -91.45 0.997478 -91.45 0.070603 -39.62
9.00030000 0.070682 36.778 0.997476 -91.46 0.997476 -91.46 0.070640 -39.70
9.00040000 0.070719 36.847 0.997473 -91.46 0.997473 -91.46 0.070677 -39.79
9.00050000 0.070756 36.917 0.997470 -91.47 0.997470 -91.47 0.070714 -39.87
9.00060000 0.070793 36.986 0.997467 -91.48 0.997467 -91.48 0.070751 -39.95
9.00070000 0.070831 37.056 0.997465 -91.48 0.997465 -91.48 0.070789 -40.04
9.00080000 0.070869 37.126 0.997462 -91.49 0.997462 -91.49 0.070827 -40.12
9.00090000 0.070907 37.196 0.997459 -91.50 0.997459 -91.50 0.070865 -40.20
9.00100000 0.070945 37.266 0.997456 -91.51 0.997456 -91.51 0.070903 -40.29
9.00110000 0.070984 37.336 0.997454 -91.51 0.997454 -91.51 0.070941 -40.37
9.00120000 0.071023 37.407 0.997451 -91.52 0.997451 -91.52 0.070980 -40.46
9.00130000 0.071062 37.477 0.997448 -91.53 0.997448 -91.53 0.071019 -40.54
9.00140000 0.071102 37.548 0.997445 -91.53 0.997445 -91.53 0.071059 -40.63
9.00150000 0.071141 37.619 0.997442 -91.54 0.997442 -91.54 0.071098 -40.71
9.00160000 0.071181 37.690 0.997439 -91.55 0.997439 -91.55 0.071138 -40.80
9.00170000 0.071222 37.762 0.997436 -91.56 0.997436 -91.56 0.071178 -40.88
9.00180000 0.071262 37.833 0.997433 -91.56 0.997433 -91.56 0.071219 -40.97
9.00190000 0.071303 37.905 0.997430 -91.57 0.997430 -91.57 0.071259 -41.05
9.00200000 0.071344 37.977 0.997427 -91.58 0.997427 -91.58 0.071300 -41.14
9.00210000 0.071385 38.049 0.997424 -91.58 0.997424 -91.58 0.071341 -41.23
9.00220000 0.071427 38.121 0.997421 -91.59 0.997421 -91.59 0.071383 -41.31
9.00230000 0.071469 38.193 0.997418 -91.60 0.997418 -91.60 0.071425 -41.40
9.00240000 0.071511 38.266 0.997415 -91.61 0.997415 -91.61 0.071467 -41.49
9.00250000 0.071553 38.338 0.997412 -91.61 0.997412 -91.61 0.071509 -41.58
9.00260000 0.071596 38.411 0.997409 -91.62 0.997409 -91.62 0.071552 -41.66
9.00270000 0.071639 38.484 0.997406 -91.63 0.997406 -91.63 0.071595 -41.75
9.00280000 0.071683 38.557 0.997402 -91.63 0.997402 -91.63 0.071638 -41.84
9.00290000 0.071726 38.630 0.997399 -91.64 0.997399 -91.64 0.071681 -41.93
9.00300000 0.071770 38.704 0.997396 -91.65 0.997396 -91.65 0.071725 -42.02
9.00310000 0.071814 38.778 0.997393 -91.66 0.997393 -91.66 0.071769 -42.10
9.00320000 0.071859 38.851 0.997389 -91.66 0.997389 -91.66 0.071813 -42.19
9.00330000 0.071903 38.925 0.997386 -91.67 0.997386 -91.67 0.071858 -42.28
9.00340000 0.071949 38.999 0.997383 -91.68 0.997383 -91.68 0.071903 -42.37
9.00350000 0.071994 39.074 0.997379 -91.69 0.997379 -91.69 0.071948 -42.46
9.00360000 0.072040 39.148 0.997376 -91.69 0.997376 -91.69 0.071994 -42.55
9.00370000 0.072086 39.223 0.997373 -91.70 0.997373 -91.70 0.072040 -42.64
9.00380000 0.072132 39.298 0.997369 -91.71 0.997369 -91.71 0.072086 -42.73
9.00390000 0.072178 39.373 0.997366 -91.72 0.997366 -91.72 0.072132 -42.82
9.00400000 0.072225 39.448 0.997362 -91.73 0.997362 -91.73 0.072179 -42.91
9.00410000 0.072273 39.523 0.997359 -91.73 0.997359 -91.73 0.072226 -43.00
9.00420000 0.072320 39.599 0.997355 -91.74 0.997355 -91.74 0.072274 -43.09
9.00430000 0.072368 39.674 0.997352 -91.75 0.997352 -91.75 0.072321 -43.18
9.00440000 0.072416 39.750 0.997348 -91.76 0.997348 -91.76 0.072369 -43.28
9.00450000 0.072465 39.826 0.997344 -91.76 0.997344 -91.76 0.072418 -43.37
9.00460000 0.072514 39.903 0.997341 -91.77 0.997341 -91.77 0.072466 -43.46
9.00470000 0.072563 39.979 0.997337 -91.78 0.997337 -91.78 0.072515 -43.55
9.00480000 0.072612 40.055 0.997333 -91.79 0.997333 -91.79 0.072565 -43.64
9.00490000 0.072662 40.132 0.997330 -91.79 0.997330 -91.79 0.072615 -43.74
9.00500000 0.072712 40.209 0.997326 -91.80 0.997326 -91.80 0.072665 -43.83
9.00510000 0.072763 40.286 0.997322 -91.81 0.997322 -91.81 0.072715 -43.92
9.00520000 0.072814 40.363 0.997318 -91.82 0.997318 -91.82 0.072766 -44.01
9.00530000 0.072865 40.441 0.997315 -91.83 0.997315 -91.83 0.072817 -44.11
9.00540000 0.072917 40.518 0.997311 -91.83 0.997311 -91.83 0.072868 -44.20
9.00550000 0.072968 40.596 0.997307 -91.84 0.997307 -91.84 0.072920 -44.30
9.00560000 0.073021 40.674 0.997303 -91.85 0.997303 -91.85 0.072972 -44.39
9.00570000 0.073073 40.752 0.997299 -91.86 0.997299 -91.86 0.073024 -44.48
9.00580000 0.073126 40.830 0.997295 -91.87 0.997295 -91.87 0.073077 -44.58
9.00590000 0.073180 40.909 0.997291 -91.87 0.997291 -91.87 0.073130 -44.67
9.00600000 0.073233 40.987 0.997287 -91.88 0.997287 -91.88 0.073184 -44.77
9.00610000 0.073287 41.066 0.997283 -91.89 0.997283 -91.89 0.073238 -44.86
9.00620000 0.073342 41.145 0.997279 -91.90 0.997279 -91.90 0.073292 -44.96
9.00630000 0.073396 41.224 0.997275 -91.91 0.997275 -91.91 0.073347 -45.05
9.00640000 0.073452 41.303 0.997271 -91.92 0.997271 -91.92 0.073402 -45.15
9.00650000 0.073507 41.383 0.997266 -91.92 0.997266 -91.92 0.073457 -45.25
9.00660000 0.073563 41.463 0.997262 -91.93 0.997262 -91.93 0.073513 -45.34
9.00670000 0.073619 41.542 0.997258 -91.94 0.997258 -91.94 0.073569 -45.44
9.00680000 0.073676 41.622 0.997254 -91.95 0.997254 -91.95 0.073626 -45.54
9.00690000 0.073733 41.702 0.997249 -91.96 0.997249 -91.96 0.073682 -45.63
9.00700000 0.073791 41.783 0.997245 -91.97 0.997245 -91.97 0.073740 -45.73
9.00710000 0.073848 41.863 0.997241 -91.97 0.997241 -91.97 0.073797 -45.83
9.00720000 0.073907 41.944 0.997236 -91.98 0.997236 -91.98 0.073856 -45.93
9.00730000 0.073965 42.025 0.997232 -91.99 0.997232 -91.99 0.073914 -46.02
9.00740000 0.074024 42.106 0.997227 -92.00 0.997227 -92.00 0.073973 -46.12
9.00750000 0.074084 42.187 0.997223 -92.01 0.997223 -92.01 0.074032 -46.22
9.00760000 0.074143 42.269 0.997218 -92.02 0.997218 -92.02 0.074092 -46.32
9.00770000 0.074204 42.350 0.997214 -92.03 0.997214 -92.03 0.074152 -46.42
9.00780000 0.074264 42.432 0.997209 -92.03 0.997209 -92.03 0.074212 -46.52
9.00790000 0.074325 42.514 0.997204 -92.04 0.997204 -92.04 0.074273 -46.62
9.00800000 0.074387 42.596 0.997200 -92.05 0.997200 -92.05 0.074335 -46.72
9.00810000 0.074449 42.678 0.997195 -92.06 0.997195 -92.06 0.074396 -46.82
9.00820000 0.074511 42.761 0.997190 -92.07 0.997190 -92.07 0.074459 -46.92
9.00830000 0.074574 42.843 0.997185 -92.08 0.997185 -92.08 0.074521 -47.02
9.00840000 0.074637 42.926 0.997181 -92.09 0.997181 -92.09 0.074584 -47.12
9.00850000 0.074701 43.009 0.997176 -92.10 0.997176 -92.10 0.074648 -47.22
9.00860000 0.074765 43.092 0.997171 -92.10 0.997171 -92.10 0.074712 -47.32
9.00870000 0.074829 43.176 0.997166 -92.11 0.997166 -92.11 0.074776 -47.42
9.00880000 0.074894 43.259 0.997161 -92.12 0.997161 -92.12 0.074841 -47.52
9.00890000 0.074960 43.343 0.997156 -92.13 0.997156 -92.13 0.074906 -47.62
9.00900000 0.075025 43.427 0.997151 -92.14 0.997151 -92.14 0.074972 -47.73
9.00910000 0.075092 43.511 0.997146 -92.15 0.997146 -92.15 0.075038 -47.83
9.00920000 0.075158 43.595 0.997141 -92.16 0.997141 -92.16 0.075104 -47.93
9.00930000 0.075226 43.679 0.997135 -92.17 0.997135 -92.17 0.075171 -48.03
9.00940000 0.075293 43.764 0.997130 -92.18 0.997130 -92.18 0.075239 -48.14
9.00950000 0.075361 43.848 0.997125 -92.19 0.997125 -92.19 0.075307 -48.24
9.00960000 0.075430 43.933 0.997120 -92.19 0.997120 -92.19 0.075375 -48.34
9.00970000 0.075499 44.018 0.997114 -92.20 0.997114 -92.20 0.075444 -48.45
9.00980000 0.075569 44.104 0.997109 -92.21 0.997109 -92.21 0.075513 -48.55
9.00990000 0.075639 44.189 0.997104 -92.22 0.997104 -92.22 0.075583 -48.65
9.01000000 0.075709 44.275 0.997098 -92.23 0.997098 -92.23 0.075654 -48.76
9.01010000 0.075780 44.361 0.997093 -92.24 0.997093 -92.24 0.075724 -48.86
9.01020000 0.075852 44.447 0.997087 -92.25 0.997087 -92.25 0.075796 -48.97
9.01030000 0.075924 44.533 0.997081 -92.26 0.997081 -92.26 0.075868 -49.07
9.01040000 0.075996 44.619 0.997076 -92.27 0.997076 -92.27 0.075940 -49.18
9.01050000 0.076069 44.705 0.997070 -92.28 0.997070 -92.28 0.076013 -49.28
9.01060000 0.076143 44.792 0.997064 -92.29 0.997064 -92.29 0.076086 -49.39
9.01070000 0.076217 44.879 0.997059 -92.30 0.997059 -92.30 0.076160 -49.50
9.01080000 0.076291 44.966 0.997053 -92.31 0.997053 -92.31 0.076234 -49.60
9.01090000 0.076366 45.053 0.997047 -92.32 0.997047 -92.32 0.076309 -49.71
9.01100000 0.076442 45.141 0.997041 -92.33 0.997041 -92.33 0.076384 -49.82
9.01110000 0.076518 45.228 0.997035 -92.34 0.997035 -92.34 0.076460 -49.92
9.01120000 0.076594 45.316 0.997029 -92.35 0.997029 -92.35 0.076537 -50.03
9.01130000 0.076672 45.404 0.997023 -92.36 0.997023 -92.36 0.076614 -50.14
9.01140000 0.076749 45.492 0.997017 -92.37 0.997017 -92.37 0.076691 -50.25
9.01150000 0.076827 45.580 0.997011 -92.38 0.997011 -92.38 0.076769 -50.35
9.01160000 0.076906 45.668 0.997005 -92.39 0.997005 -92.39 0.076848 -50.46
9.01170000 0.076986 45.757 0.996998 -92.40 0.996998 -92.40 0.076927 -50.57
9.01180000 0.077065 45.846 0.996992 -92.41 0.996992 -92.41 0.077007 -50.68
9.01190000 0.077146 45.935 0.996986 -92.42 0.996986 -92.42 0.077087 -50.79
9.01200000 0.077227 46.024 0.996979 -92.43 0.996979 -92.43 0.077168 -50.90
9.01210000 0.077308 46.113 0.996973 -92.44 0.996973 -92.44 0.077249 -51.01
9.01220000 0.077391 46.203 0.996966 -92.45 0.996966 -92.45 0.077331 -51.12
9.01230000 0.077473 46.292 0.996960 -92.46 0.996960 -92.46 0.077414 -51.23
9.01240000 0.077557 46.382 0.996953 -92.47 0.996953 -92.47 0.077497 -51.34
9.01250000 0.077640 46.472 0.996946 -92.48 0.996946 -92.48 0.077580 -51.45
9.01260000 0.077725 46.562 0.996940 -92.49 0.996940 -92.49 0.077665 -51.56
9.01270000 0.077810 46.653 0.996933 -92.50 0.996933 -92.50 0.077750 -51.67
9.01280000 0.077896 46.743 0.996926 -92.51 0.996926 -92.51 0.077835 -51.78
9.01290000 0.077982 46.834 0.996919 -92.52 0.996919 -92.52 0.077921 -51.89
9.01300000 0.078069 46.925 0.996912 -92.53 0.996912 -92.53 0.078008 -52.01
9.01310000 0.078156 47.016 0.996905 -92.54 0.996905 -92.54 0.078095 -52.12
9.01320000 0.078244 47.107 0.996898 -92.55 0.996898 -92.55 0.078183 -52.23
9.01330000 0.078333 47.198 0.996891 -92.56 0.996891 -92.56 0.078271 -52.34
9.01340000 0.078422 47.290 0.996884 -92.57 0.996884 -92.57 0.078361 -52.46
9.01350000 0.078512 47.381 0.996877 -92.58 0.996877 -92.58 0.078450 -52.57
9.01360000 0.078603 47.473 0.996870 -92.59 0.996870 -92.59 0.078541 -52.68
9.01370000 0.078694 47.565 0.996862 -92.60 0.996862 -92.60 0.078632 -52.80
9.01380000 0.078786 47.658 0.996855 -92.61 0.996855 -92.61 0.078724 -52.91
9.01390000 0.078879 47.750 0.996847 -92.62 0.996847 -92.62 0.078816 -53.02
9.01400000 0.078972 47.842 0.996840 -92.63 0.996840 -92.63 0.078909 -53.14
9.01410000 0.079066 47.935 0.996832 -92.65 0.996832 -92.65 0.079002 -53.25
9.01420000 0.079160 48.028 0.996825 -92.66 0.996825 -92.66 0.079097 -53.37
9.01430000 0.079255 48.121 0.996817 -92.67 0.996817 -92.67 0.079192 -53.48
9.01440000 0.079351 48.214 0.996809 -92.68 0.996809 -92.68 0.079287 -53.60
9.01450000 0.079448 48.308 0.996801 -92.69 0.996801 -92.69 0.079384 -53.71
9.01460000 0.079545 48.401 0.996793 -92.70 0.996793 -92.70 0.079481 -53.83
9.01470000 0.079643 48.495 0.996785 -92.71 0.996785 -92.71 0.079579 -53.95
9.01480000 0.079741 48.589 0.996777 -92.72 0.996777 -92.72 0.079677 -54.06
9.01490000 0.079841 48.683 0.996769 -92.73 0.996769 -92.73 0.079776 -54.18
9.01500000 0.079941 48.777 0.996761 -92.75 0.996761 -92.75 0.079876 -54.30
9.01510000 0.080042 48.872 0.996753 -92.76 0.996753 -92.76 0.079976 -54.41
9.01520000 0.080143 48.966 0.996744 -92.77 0.996744 -92.77 0.080078 -54.53
9.01530000 0.080245 49.061 0.996736 -92.78 0.996736 -92.78 0.080180 -54.65
9.01540000 0.080348 49.156 0.996728 -92.79 0.996728 -92.79 0.080282 -54.77
9.01550000 0.080452 49.251 0.996719 -92.80 0.996719 -92.80 0.080386 -54.88
9.01560000 0.080556 49.346 0.996711 -92.81 0.996711 -92.81 0.080490 -55.00
9.01570000 0.080661 49.442 0.996702 -92.83 0.996702 -92.83 0.080595 -55.12
9.01580000 0.080767 49.537 0.996693 -92.84 0.996693 -92.84 0.080701 -55.24
9.01590000 0.080874 49.633 0.996684 -92.85 0.996684 -92.85 0.080807 -55.36
9.01600000 0.080981 49.729 0.996675 -92.86 0.996675 -92.86 0.080914 -55.48
9.01610000 0.081090 49.825 0.996666 -92.87 0.996666 -92.87 0.081022 -55.60
9.01620000 0.081199 49.921 0.996657 -92.88 0.996657 -92.88 0.081131 -55.72
9.01630000 0.081308 50.017 0.996648 -92.90 0.996648 -92.90 0.081241 -55.84
9.01640000 0.081419 50.114 0.996639 -92.91 0.996639 -92.91 0.081351 -55.96
9.01650000 0.081530 50.210 0.996630 -92.92 0.996630 -92.92 0.081462 -56.08
9.01660000 0.081642 50.307 0.996620 -92.93 0.996620 -92.93 0.081574 -56.20
9.01670000 0.081755 50.404 0.996611 -92.94 0.996611 -92.94 0.081687 -56.32
9.01680000 0.081869 50.501 0.996602 -92.96 0.996602 -92.96 0.081800 -56.45
9.01690000 0.081984 50.599 0.996592 -92.97 0.996592 -92.97 0.081915 -56.57
9.01700000 0.082099 50.696 0.996582 -92.98 0.996582 -92.98 0.082030 -56.69
9.01710000 0.082216 50.794 0.996572 -92.99 0.996572 -92.99 0.082146 -56.81
9.01720000 0.082333 50.892 0.996563 -93.01 0.996563 -93.01 0.082263 -56.94
9.01730000 0.082451 50.989 0.996553 -93.02 0.996553 -93.02 0.082381 -57.06
9.01740000 0.082569 51.088 0.996543 -93.03 0.996543 -93.03 0.082499 -57.18
9.01750000 0.082689 51.186 0.996533 -93.04 0.996533 -93.04 0.082619 -57.31
9.01760000 0.082810 51.284 0.996522 -93.06 0.996522 -93.06 0.082739 -57.43
9.01770000 0.082931 51.383 0.996512 -93.07 0.996512 -93.07 0.082860 -57.55
9.01780000 0.083053 51.481 0.996502 -93.08 0.996502 -93.08 0.082982 -57.68
9.01790000 0.083177 51.580 0.996491 -93.09 0.996491 -93.09 0.083105 -57.80
9.01800000 0.083301 51.679 0.996481 -93.11 0.996481 -93.11 0.083229 -57.93
9.01810000 0.083426 51.778 0.996470 -93.12 0.996470 -93.12 0.083354 -58.05
9.01820000 0.083552 51.878 0.996459 -93.13 0.996459 -93.13 0.083480 -58.18
9.01830000 0.083679 51.977 0.996448 -93.15 0.996448 -93.15 0.083606 -58.30
9.01840000 0.083806 52.077 0.996437 -93.16 0.996437 -93.16 0.083734 -58.43
9.01850000 0.083935 52.176 0.996426 -93.17 0.996426 -93.17 0.083862 -58.55
9.01860000 0.084065 52.276 0.996415 -93.18 0.996415 -93.18 0.083992 -58.68
9.01870000 0.084195 52.376 0.996404 -93.20 0.996404 -93.20 0.084122 -58.81
9.01880000 0.084327 52.476 0.996393 -93.21 0.996393 -93.21 0.084254 -58.93
9.01890000 0.084460 52.577 0.996381 -93.22 0.996381 -93.22 0.084386 -59.06
9.01900000 0.084593 52.677 0.996370 -93.24 0.996370 -93.24 0.084519 -59.19