! Sonnet Data File
! From: emgraph Version : 16.52
! From Project: Resonator2_extremeCap
! Data is De-embedded 
! Data File Written: 10/10/2017 20:29:21
!< HDATE 10/09/2017 23:04:37
!< MDATE 10/09/2017 23:04:37
!< PARAMS
!< Pwid1 = 2000.0
!< Pwid2 = 2000.0
!< Air_gap = 12.0
!< Width = 20.0
!< Gap = 23.0
!< END PARAMS
# GHZ S MA R 51.80000
8.98000000 0.084209 14.990 0.996436 -89.50 0.996436 -89.50 0.084191 -13.98
!< P1 F=8.98 Eeff=(6.44620984 -2.9718e-5) Z0=(50.9069029 1.17456e-4) R=0.0 C=0.0 
!< P2 F=8.98 Eeff=(6.44620984 -2.9718e-5) Z0=(50.9069029 1.17456e-4) R=0.0 C=0.0 
8.98010000 0.084214 15.015 0.996436 -89.50 0.996436 -89.50 0.084195 -14.01
8.98020000 0.084218 15.040 0.996436 -89.50 0.996436 -89.50 0.084200 -14.04
8.98030000 0.084222 15.064 0.996435 -89.51 0.996435 -89.51 0.084204 -14.07
8.98040000 0.084227 15.089 0.996435 -89.51 0.996435 -89.51 0.084208 -14.11
8.98050000 0.084231 15.114 0.996434 -89.51 0.996434 -89.51 0.084213 -14.14
8.98060000 0.084236 15.139 0.996434 -89.52 0.996434 -89.52 0.084217 -14.17
8.98070000 0.084240 15.164 0.996434 -89.52 0.996434 -89.52 0.084222 -14.20
8.98080000 0.084245 15.190 0.996433 -89.52 0.996433 -89.52 0.084226 -14.23
8.98090000 0.084249 15.215 0.996433 -89.53 0.996433 -89.53 0.084231 -14.27
8.98100000 0.084254 15.240 0.996432 -89.53 0.996432 -89.53 0.084235 -14.30
8.98110000 0.084258 15.265 0.996432 -89.53 0.996432 -89.53 0.084240 -14.33
8.98120000 0.084263 15.291 0.996432 -89.54 0.996432 -89.54 0.084244 -14.36
8.98130000 0.084268 15.316 0.996431 -89.54 0.996431 -89.54 0.084249 -14.40
8.98140000 0.084272 15.342 0.996431 -89.54 0.996431 -89.54 0.084254 -14.43
8.98150000 0.084277 15.368 0.996430 -89.55 0.996430 -89.55 0.084258 -14.46
8.98160000 0.084282 15.393 0.996430 -89.55 0.996430 -89.55 0.084263 -14.49
8.98170000 0.084287 15.419 0.996430 -89.55 0.996430 -89.55 0.084268 -14.53
8.98180000 0.084292 15.445 0.996429 -89.56 0.996429 -89.56 0.084272 -14.56
8.98190000 0.084296 15.471 0.996429 -89.56 0.996429 -89.56 0.084277 -14.59
8.98200000 0.084301 15.497 0.996428 -89.57 0.996428 -89.57 0.084282 -14.63
8.98210000 0.084306 15.523 0.996428 -89.57 0.996428 -89.57 0.084287 -14.66
8.98220000 0.084311 15.549 0.996427 -89.57 0.996427 -89.57 0.084292 -14.69
8.98230000 0.084316 15.575 0.996427 -89.58 0.996427 -89.58 0.084297 -14.73
8.98240000 0.084321 15.601 0.996426 -89.58 0.996426 -89.58 0.084302 -14.76
8.98250000 0.084326 15.627 0.996426 -89.58 0.996426 -89.58 0.084307 -14.79
8.98260000 0.084331 15.654 0.996426 -89.59 0.996426 -89.59 0.084312 -14.83
8.98270000 0.084336 15.680 0.996425 -89.59 0.996425 -89.59 0.084317 -14.86
8.98280000 0.084341 15.707 0.996425 -89.59 0.996425 -89.59 0.084322 -14.89
8.98290000 0.084347 15.733 0.996424 -89.60 0.996424 -89.60 0.084327 -14.93
8.98300000 0.084352 15.760 0.996424 -89.60 0.996424 -89.60 0.084332 -14.96
8.98310000 0.084357 15.787 0.996423 -89.60 0.996423 -89.60 0.084337 -14.99
8.98320000 0.084362 15.813 0.996423 -89.61 0.996423 -89.61 0.084342 -15.03
8.98330000 0.084368 15.840 0.996422 -89.61 0.996422 -89.61 0.084348 -15.06
8.98340000 0.084373 15.867 0.996422 -89.62 0.996422 -89.62 0.084353 -15.10
8.98350000 0.084378 15.894 0.996421 -89.62 0.996421 -89.62 0.084358 -15.13
8.98360000 0.084384 15.921 0.996421 -89.62 0.996421 -89.62 0.084364 -15.17
8.98370000 0.084389 15.948 0.996420 -89.63 0.996420 -89.63 0.084369 -15.20
8.98380000 0.084394 15.976 0.996420 -89.63 0.996420 -89.63 0.084374 -15.23
8.98390000 0.084400 16.003 0.996419 -89.63 0.996419 -89.63 0.084380 -15.27
8.98400000 0.084405 16.030 0.996419 -89.64 0.996419 -89.64 0.084385 -15.30
8.98410000 0.084411 16.058 0.996418 -89.64 0.996418 -89.64 0.084391 -15.34
8.98420000 0.084417 16.085 0.996418 -89.65 0.996418 -89.65 0.084396 -15.37
8.98430000 0.084422 16.113 0.996417 -89.65 0.996417 -89.65 0.084402 -15.41
8.98440000 0.084428 16.140 0.996417 -89.65 0.996417 -89.65 0.084408 -15.44
8.98450000 0.084434 16.168 0.996416 -89.66 0.996416 -89.66 0.084413 -15.48
8.98460000 0.084439 16.196 0.996416 -89.66 0.996416 -89.66 0.084419 -15.51
8.98470000 0.084445 16.224 0.996415 -89.66 0.996415 -89.66 0.084425 -15.55
8.98480000 0.084451 16.252 0.996415 -89.67 0.996415 -89.67 0.084430 -15.59
8.98490000 0.084457 16.280 0.996414 -89.67 0.996414 -89.67 0.084436 -15.62
8.98500000 0.084463 16.308 0.996414 -89.68 0.996414 -89.68 0.084442 -15.66
8.98510000 0.084469 16.336 0.996413 -89.68 0.996413 -89.68 0.084448 -15.69
8.98520000 0.084475 16.364 0.996413 -89.68 0.996413 -89.68 0.084454 -15.73
8.98530000 0.084481 16.392 0.996412 -89.69 0.996412 -89.69 0.084460 -15.76
8.98540000 0.084487 16.421 0.996412 -89.69 0.996412 -89.69 0.084466 -15.80
8.98550000 0.084493 16.449 0.996411 -89.69 0.996411 -89.69 0.084472 -15.84
8.98560000 0.084499 16.478 0.996411 -89.70 0.996411 -89.70 0.084478 -15.87
8.98570000 0.084505 16.506 0.996410 -89.70 0.996410 -89.70 0.084484 -15.91
8.98580000 0.084511 16.535 0.996410 -89.71 0.996410 -89.71 0.084490 -15.94
8.98590000 0.084517 16.564 0.996409 -89.71 0.996409 -89.71 0.084496 -15.98
8.98600000 0.084524 16.593 0.996408 -89.71 0.996408 -89.71 0.084502 -16.02
8.98610000 0.084530 16.622 0.996408 -89.72 0.996408 -89.72 0.084509 -16.05
8.98620000 0.084536 16.651 0.996407 -89.72 0.996407 -89.72 0.084515 -16.09
8.98630000 0.084543 16.680 0.996407 -89.72 0.996407 -89.72 0.084521 -16.13
8.98640000 0.084549 16.709 0.996406 -89.73 0.996406 -89.73 0.084528 -16.16
8.98650000 0.084556 16.738 0.996406 -89.73 0.996406 -89.73 0.084534 -16.20
8.98660000 0.084562 16.768 0.996405 -89.74 0.996405 -89.74 0.084541 -16.24
8.98670000 0.084569 16.797 0.996404 -89.74 0.996404 -89.74 0.084547 -16.28
8.98680000 0.084575 16.826 0.996404 -89.74 0.996404 -89.74 0.084554 -16.31
8.98690000 0.084582 16.856 0.996403 -89.75 0.996403 -89.75 0.084560 -16.35
8.98700000 0.084589 16.886 0.996403 -89.75 0.996403 -89.75 0.084567 -16.39
8.98710000 0.084596 16.915 0.996402 -89.76 0.996402 -89.76 0.084574 -16.43
8.98720000 0.084602 16.945 0.996401 -89.76 0.996401 -89.76 0.084580 -16.46
8.98730000 0.084609 16.975 0.996401 -89.76 0.996401 -89.76 0.084587 -16.50
8.98740000 0.084616 17.005 0.996400 -89.77 0.996400 -89.77 0.084594 -16.54
8.98750000 0.084623 17.035 0.996400 -89.77 0.996400 -89.77 0.084601 -16.58
8.98760000 0.084630 17.065 0.996399 -89.78 0.996399 -89.78 0.084608 -16.62
8.98770000 0.084637 17.095 0.996398 -89.78 0.996398 -89.78 0.084615 -16.65
8.98780000 0.084644 17.126 0.996398 -89.78 0.996398 -89.78 0.084622 -16.69
8.98790000 0.084651 17.156 0.996397 -89.79 0.996397 -89.79 0.084629 -16.73
8.98800000 0.084658 17.187 0.996396 -89.79 0.996396 -89.79 0.084636 -16.77
8.98810000 0.084665 17.217 0.996396 -89.80 0.996396 -89.80 0.084643 -16.81
8.98820000 0.084673 17.248 0.996395 -89.80 0.996395 -89.80 0.084650 -16.85
8.98830000 0.084680 17.278 0.996395 -89.80 0.996395 -89.80 0.084657 -16.88
8.98840000 0.084687 17.309 0.996394 -89.81 0.996394 -89.81 0.084664 -16.92
8.98850000 0.084694 17.340 0.996393 -89.81 0.996393 -89.81 0.084672 -16.96
8.98860000 0.084702 17.371 0.996393 -89.82 0.996393 -89.82 0.084679 -17.00
8.98870000 0.084709 17.402 0.996392 -89.82 0.996392 -89.82 0.084686 -17.04
8.98880000 0.084717 17.433 0.996391 -89.82 0.996391 -89.82 0.084694 -17.08
8.98890000 0.084724 17.465 0.996391 -89.83 0.996391 -89.83 0.084701 -17.12
8.98900000 0.084732 17.496 0.996390 -89.83 0.996390 -89.83 0.084709 -17.16
8.98910000 0.084740 17.527 0.996389 -89.84 0.996389 -89.84 0.084716 -17.20
8.98920000 0.084747 17.559 0.996389 -89.84 0.996389 -89.84 0.084724 -17.24
8.98930000 0.084755 17.590 0.996388 -89.84 0.996388 -89.84 0.084732 -17.28
8.98940000 0.084763 17.622 0.996387 -89.85 0.996387 -89.85 0.084740 -17.32
8.98950000 0.084771 17.654 0.996386 -89.85 0.996386 -89.85 0.084747 -17.36
8.98960000 0.084779 17.686 0.996386 -89.86 0.996386 -89.86 0.084755 -17.40
8.98970000 0.084787 17.718 0.996385 -89.86 0.996385 -89.86 0.084763 -17.44
8.98980000 0.084795 17.750 0.996384 -89.87 0.996384 -89.87 0.084771 -17.48
8.98990000 0.084803 17.782 0.996384 -89.87 0.996384 -89.87 0.084779 -17.52
8.99000000 0.084811 17.814 0.996383 -89.87 0.996383 -89.87 0.084787 -17.56
8.99010000 0.084819 17.846 0.996382 -89.88 0.996382 -89.88 0.084795 -17.60
8.99020000 0.084827 17.879 0.996381 -89.88 0.996381 -89.88 0.084803 -17.64
8.99030000 0.084836 17.911 0.996381 -89.89 0.996381 -89.89 0.084812 -17.68
8.99040000 0.084844 17.944 0.996380 -89.89 0.996380 -89.89 0.084820 -17.72
8.99050000 0.084852 17.976 0.996379 -89.89 0.996379 -89.89 0.084828 -17.76
8.99060000 0.084861 18.009 0.996378 -89.90 0.996378 -89.90 0.084837 -17.81
8.99070000 0.084869 18.042 0.996378 -89.90 0.996378 -89.90 0.084845 -17.85
8.99080000 0.084878 18.075 0.996377 -89.91 0.996377 -89.91 0.084853 -17.89
8.99090000 0.084886 18.108 0.996376 -89.91 0.996376 -89.91 0.084862 -17.93
8.99100000 0.084895 18.141 0.996375 -89.92 0.996375 -89.92 0.084871 -17.97
8.99110000 0.084904 18.174 0.996375 -89.92 0.996375 -89.92 0.084879 -18.01
8.99120000 0.084913 18.208 0.996374 -89.92 0.996374 -89.92 0.084888 -18.06
8.99130000 0.084921 18.241 0.996373 -89.93 0.996373 -89.93 0.084897 -18.10
8.99140000 0.084930 18.275 0.996372 -89.93 0.996372 -89.93 0.084906 -18.14
8.99150000 0.084939 18.308 0.996372 -89.94 0.996372 -89.94 0.084914 -18.18
8.99160000 0.084948 18.342 0.996371 -89.94 0.996371 -89.94 0.084923 -18.22
8.99170000 0.084957 18.376 0.996370 -89.95 0.996370 -89.95 0.084932 -18.27
8.99180000 0.084966 18.410 0.996369 -89.95 0.996369 -89.95 0.084941 -18.31
8.99190000 0.084976 18.444 0.996368 -89.95 0.996368 -89.95 0.084951 -18.35
8.99200000 0.084985 18.478 0.996367 -89.96 0.996367 -89.96 0.084960 -18.39
8.99210000 0.084994 18.512 0.996367 -89.96 0.996367 -89.96 0.084969 -18.44
8.99220000 0.085004 18.546 0.996366 -89.97 0.996366 -89.97 0.084978 -18.48
8.99230000 0.085013 18.581 0.996365 -89.97 0.996365 -89.97 0.084988 -18.52
8.99240000 0.085022 18.615 0.996364 -89.98 0.996364 -89.98 0.084997 -18.57
8.99250000 0.085032 18.650 0.996363 -89.98 0.996363 -89.98 0.085006 -18.61
8.99260000 0.085042 18.684 0.996362 -89.99 0.996362 -89.99 0.085016 -18.65
8.99270000 0.085051 18.719 0.996362 -89.99 0.996362 -89.99 0.085026 -18.70
8.99280000 0.085061 18.754 0.996361 -89.99 0.996361 -89.99 0.085035 -18.74
8.99290000 0.085071 18.789 0.996360 -90.00 0.996360 -90.00 0.085045 -18.79
8.99300000 0.085081 18.824 0.996359 -90.00 0.996359 -90.00 0.085055 -18.83
8.99310000 0.085091 18.859 0.996358 -90.01 0.996358 -90.01 0.085065 -18.87
8.99320000 0.085101 18.894 0.996357 -90.01 0.996357 -90.01 0.085075 -18.92
8.99330000 0.085111 18.930 0.996356 -90.02 0.996356 -90.02 0.085085 -18.96
8.99340000 0.085121 18.965 0.996355 -90.02 0.996355 -90.02 0.085095 -19.01
8.99350000 0.085131 19.001 0.996354 -90.03 0.996354 -90.03 0.085105 -19.05
8.99360000 0.085141 19.037 0.996354 -90.03 0.996354 -90.03 0.085115 -19.10
8.99370000 0.085152 19.072 0.996353 -90.03 0.996353 -90.03 0.085125 -19.14
8.99380000 0.085162 19.108 0.996352 -90.04 0.996352 -90.04 0.085136 -19.19
8.99390000 0.085173 19.144 0.996351 -90.04 0.996351 -90.04 0.085146 -19.23
8.99400000 0.085183 19.180 0.996350 -90.05 0.996350 -90.05 0.085157 -19.28
8.99410000 0.085194 19.217 0.996349 -90.05 0.996349 -90.05 0.085167 -19.32
8.99420000 0.085204 19.253 0.996348 -90.06 0.996348 -90.06 0.085178 -19.37
8.99430000 0.085215 19.289 0.996347 -90.06 0.996347 -90.06 0.085188 -19.41
8.99440000 0.085226 19.326 0.996346 -90.07 0.996346 -90.07 0.085199 -19.46
8.99450000 0.085237 19.362 0.996345 -90.07 0.996345 -90.07 0.085210 -19.51
8.99460000 0.085248 19.399 0.996344 -90.08 0.996344 -90.08 0.085221 -19.55
8.99470000 0.085259 19.436 0.996343 -90.08 0.996343 -90.08 0.085232 -19.60
8.99480000 0.085270 19.473 0.996342 -90.09 0.996342 -90.09 0.085243 -19.64
8.99490000 0.085281 19.510 0.996341 -90.09 0.996341 -90.09 0.085254 -19.69
8.99500000 0.085293 19.547 0.996340 -90.09 0.996340 -90.09 0.085265 -19.74
8.99510000 0.085304 19.585 0.996339 -90.10 0.996339 -90.10 0.085276 -19.78
8.99520000 0.085315 19.622 0.996338 -90.10 0.996338 -90.10 0.085288 -19.83
8.99530000 0.085327 19.659 0.996337 -90.11 0.996337 -90.11 0.085299 -19.88
8.99540000 0.085339 19.697 0.996336 -90.11 0.996336 -90.11 0.085311 -19.92
8.99550000 0.085350 19.735 0.996335 -90.12 0.996335 -90.12 0.085322 -19.97
8.99560000 0.085362 19.773 0.996334 -90.12 0.996334 -90.12 0.085334 -20.02
8.99570000 0.085374 19.811 0.996333 -90.13 0.996333 -90.13 0.085346 -20.07
8.99580000 0.085386 19.849 0.996332 -90.13 0.996332 -90.13 0.085358 -20.11
8.99590000 0.085398 19.887 0.996331 -90.14 0.996331 -90.14 0.085369 -20.16
8.99600000 0.085410 19.925 0.996330 -90.14 0.996330 -90.14 0.085381 -20.21
8.99610000 0.085422 19.964 0.996329 -90.15 0.996329 -90.15 0.085393 -20.26
8.99620000 0.085434 20.002 0.996328 -90.15 0.996328 -90.15 0.085406 -20.31
8.99630000 0.085446 20.041 0.996326 -90.16 0.996326 -90.16 0.085418 -20.35
8.99640000 0.085459 20.079 0.996325 -90.16 0.996325 -90.16 0.085430 -20.40
8.99650000 0.085471 20.118 0.996324 -90.17 0.996324 -90.17 0.085442 -20.45
8.99660000 0.085484 20.157 0.996323 -90.17 0.996323 -90.17 0.085455 -20.50
8.99670000 0.085496 20.196 0.996322 -90.18 0.996322 -90.18 0.085468 -20.55
8.99680000 0.085509 20.236 0.996321 -90.18 0.996321 -90.18 0.085480 -20.60
8.99690000 0.085522 20.275 0.996320 -90.19 0.996320 -90.19 0.085493 -20.65
8.99700000 0.085535 20.314 0.996319 -90.19 0.996319 -90.19 0.085506 -20.70
8.99710000 0.085548 20.354 0.996317 -90.20 0.996317 -90.20 0.085519 -20.75
8.99720000 0.085561 20.394 0.996316 -90.20 0.996316 -90.20 0.085532 -20.80
8.99730000 0.085574 20.433 0.996315 -90.21 0.996315 -90.21 0.085545 -20.85
8.99740000 0.085587 20.473 0.996314 -90.21 0.996314 -90.21 0.085558 -20.90
8.99750000 0.085601 20.513 0.996313 -90.22 0.996313 -90.22 0.085571 -20.95
8.99760000 0.085614 20.554 0.996311 -90.22 0.996311 -90.22 0.085584 -21.00
8.99770000 0.085628 20.594 0.996310 -90.23 0.996310 -90.23 0.085598 -21.05
8.99780000 0.085641 20.634 0.996309 -90.23 0.996309 -90.23 0.085611 -21.10
8.99790000 0.085655 20.675 0.996308 -90.24 0.996308 -90.24 0.085625 -21.15
8.99800000 0.085669 20.715 0.996307 -90.24 0.996307 -90.24 0.085639 -21.20
8.99810000 0.085683 20.756 0.996305 -90.25 0.996305 -90.25 0.085652 -21.25
8.99820000 0.085697 20.797 0.996304 -90.25 0.996304 -90.25 0.085666 -21.30
8.99830000 0.085711 20.838 0.996303 -90.26 0.996303 -90.26 0.085680 -21.35
8.99840000 0.085725 20.879 0.996302 -90.26 0.996302 -90.26 0.085694 -21.40
8.99850000 0.085739 20.921 0.996300 -90.27 0.996300 -90.27 0.085709 -21.45
8.99860000 0.085754 20.962 0.996299 -90.27 0.996299 -90.27 0.085723 -21.51
8.99870000 0.085768 21.004 0.996298 -90.28 0.996298 -90.28 0.085737 -21.56
8.99880000 0.085783 21.045 0.996296 -90.28 0.996296 -90.28 0.085752 -21.61
8.99890000 0.085797 21.087 0.996295 -90.29 0.996295 -90.29 0.085766 -21.66
8.99900000 0.085812 21.129 0.996294 -90.29 0.996294 -90.29 0.085781 -21.71
8.99910000 0.085827 21.171 0.996292 -90.30 0.996292 -90.30 0.085796 -21.77
8.99920000 0.085842 21.213 0.996291 -90.30 0.996291 -90.30 0.085811 -21.82
8.99930000 0.085857 21.255 0.996290 -90.31 0.996290 -90.31 0.085826 -21.87
8.99940000 0.085872 21.298 0.996288 -90.31 0.996288 -90.31 0.085841 -21.92
8.99950000 0.085888 21.340 0.996287 -90.32 0.996287 -90.32 0.085856 -21.98
8.99960000 0.085903 21.383 0.996286 -90.32 0.996286 -90.32 0.085871 -22.03
8.99970000 0.085918 21.426 0.996284 -90.33 0.996284 -90.33 0.085887 -22.08
8.99980000 0.085934 21.469 0.996283 -90.33 0.996283 -90.33 0.085902 -22.14
8.99990000 0.085950 21.512 0.996282 -90.34 0.996282 -90.34 0.085918 -22.19
9.00000000 0.085966 21.555 0.996280 -90.34 0.996280 -90.34 0.085934 -22.25
9.00010000 0.085982 21.598 0.996279 -90.35 0.996279 -90.35 0.085949 -22.30
9.00020000 0.085998 21.642 0.996277 -90.36 0.996277 -90.36 0.085965 -22.35
9.00030000 0.086014 21.685 0.996276 -90.36 0.996276 -90.36 0.085981 -22.41
9.00040000 0.086030 21.729 0.996274 -90.37 0.996274 -90.37 0.085998 -22.46
9.00050000 0.086046 21.773 0.996273 -90.37 0.996273 -90.37 0.086014 -22.52
9.00060000 0.086063 21.817 0.996271 -90.38 0.996271 -90.38 0.086030 -22.57
9.00070000 0.086080 21.861 0.996270 -90.38 0.996270 -90.38 0.086047 -22.63
9.00080000 0.086096 21.906 0.996268 -90.39 0.996268 -90.39 0.086063 -22.68
9.00090000 0.086113 21.950 0.996267 -90.39 0.996267 -90.39 0.086080 -22.74
9.00100000 0.086130 21.995 0.996265 -90.40 0.996265 -90.40 0.086097 -22.79
9.00110000 0.086147 22.039 0.996264 -90.40 0.996264 -90.40 0.086114 -22.85
9.00120000 0.086164 22.084 0.996262 -90.41 0.996262 -90.41 0.086131 -22.90
9.00130000 0.086182 22.129 0.996261 -90.41 0.996261 -90.41 0.086148 -22.96
9.00140000 0.086199 22.174 0.996259 -90.42 0.996259 -90.42 0.086166 -23.02
9.00150000 0.086217 22.219 0.996258 -90.43 0.996258 -90.43 0.086183 -23.07
9.00160000 0.086234 22.265 0.996256 -90.43 0.996256 -90.43 0.086201 -23.13
9.00170000 0.086252 22.310 0.996254 -90.44 0.996254 -90.44 0.086218 -23.19
9.00180000 0.086270 22.356 0.996253 -90.44 0.996253 -90.44 0.086236 -23.24
9.00190000 0.086288 22.402 0.996251 -90.45 0.996251 -90.45 0.086254 -23.30
9.00200000 0.086306 22.448 0.996250 -90.45 0.996250 -90.45 0.086272 -23.36
9.00210000 0.086325 22.494 0.996248 -90.46 0.996248 -90.46 0.086290 -23.42
9.00220000 0.086343 22.540 0.996246 -90.47 0.996246 -90.47 0.086309 -23.47
9.00230000 0.086362 22.587 0.996245 -90.47 0.996245 -90.47 0.086327 -23.53
9.00240000 0.086380 22.633 0.996243 -90.48 0.996243 -90.48 0.086346 -23.59
9.00250000 0.086399 22.680 0.996241 -90.48 0.996241 -90.48 0.086365 -23.65
9.00260000 0.086418 22.727 0.996240 -90.49 0.996240 -90.49 0.086383 -23.71
9.00270000 0.086437 22.774 0.996238 -90.49 0.996238 -90.49 0.086402 -23.76
!< P1 F=9.0027 Eeff=(6.4461986 -2.9717e-5) Z0=(50.906835 1.17454e-4) R=0.0 C=0.0 
!< P2 F=9.0027 Eeff=(6.4461986 -2.9717e-5) Z0=(50.906835 1.17454e-4) R=0.0 C=0.0 
9.00280000 0.086457 22.821 0.996236 -90.50 0.996236 -90.50 0.086422 -23.82
9.00290000 0.086476 22.868 0.996234 -90.51 0.996234 -90.51 0.086441 -23.88
9.00300000 0.086496 22.916 0.996233 -90.51 0.996233 -90.51 0.086460 -23.94
9.00310000 0.086515 22.963 0.996231 -90.52 0.996231 -90.52 0.086480 -24.00
9.00320000 0.086535 23.011 0.996229 -90.52 0.996229 -90.52 0.086499 -24.06
9.00330000 0.086555 23.059 0.996227 -90.53 0.996227 -90.53 0.086519 -24.12
9.00340000 0.086575 23.107 0.996226 -90.53 0.996226 -90.53 0.086539 -24.18
9.00350000 0.086595 23.155 0.996224 -90.54 0.996224 -90.54 0.086559 -24.24
9.00360000 0.086616 23.203 0.996222 -90.55 0.996222 -90.55 0.086580 -24.30
9.00370000 0.086636 23.252 0.996220 -90.55 0.996220 -90.55 0.086600 -24.36
9.00380000 0.086657 23.301 0.996218 -90.56 0.996218 -90.56 0.086621 -24.42
9.00390000 0.086678 23.349 0.996216 -90.56 0.996216 -90.56 0.086641 -24.48
9.00400000 0.086698 23.398 0.996214 -90.57 0.996214 -90.57 0.086662 -24.54
9.00410000 0.086720 23.448 0.996213 -90.58 0.996213 -90.58 0.086683 -24.60
9.00420000 0.086741 23.497 0.996211 -90.58 0.996211 -90.58 0.086704 -24.66
9.00430000 0.086762 23.546 0.996209 -90.59 0.996209 -90.59 0.086725 -24.73
9.00440000 0.086784 23.596 0.996207 -90.59 0.996207 -90.59 0.086747 -24.79
9.00450000 0.086805 23.646 0.996205 -90.60 0.996205 -90.60 0.086768 -24.85
9.00460000 0.086827 23.696 0.996203 -90.61 0.996203 -90.61 0.086790 -24.91
9.00470000 0.086849 23.746 0.996201 -90.61 0.996201 -90.61 0.086812 -24.97
9.00480000 0.086872 23.796 0.996199 -90.62 0.996199 -90.62 0.086834 -25.04
9.00490000 0.086894 23.846 0.996197 -90.62 0.996197 -90.62 0.086856 -25.10
9.00500000 0.086916 23.897 0.996195 -90.63 0.996195 -90.63 0.086879 -25.16
9.00510000 0.086939 23.948 0.996193 -90.64 0.996193 -90.64 0.086901 -25.22
9.00520000 0.086962 23.998 0.996191 -90.64 0.996191 -90.64 0.086924 -25.29
9.00530000 0.086985 24.049 0.996189 -90.65 0.996189 -90.65 0.086947 -25.35
9.00540000 0.087008 24.101 0.996187 -90.66 0.996187 -90.66 0.086970 -25.42
9.00550000 0.087031 24.152 0.996184 -90.66 0.996184 -90.66 0.086993 -25.48
9.00560000 0.087055 24.204 0.996182 -90.67 0.996182 -90.67 0.087016 -25.54
9.00570000 0.087079 24.255 0.996180 -90.67 0.996180 -90.67 0.087040 -25.61
9.00580000 0.087102 24.307 0.996178 -90.68 0.996178 -90.68 0.087064 -25.67
9.00590000 0.087126 24.359 0.996176 -90.69 0.996176 -90.69 0.087088 -25.74
9.00600000 0.087151 24.411 0.996174 -90.69 0.996174 -90.69 0.087112 -25.80
9.00610000 0.087175 24.464 0.996172 -90.70 0.996172 -90.70 0.087136 -25.87
9.00620000 0.087199 24.516 0.996169 -90.71 0.996169 -90.71 0.087160 -25.93
9.00630000 0.087224 24.569 0.996167 -90.71 0.996167 -90.71 0.087185 -26.00
9.00640000 0.087249 24.622 0.996165 -90.72 0.996165 -90.72 0.087210 -26.06
9.00650000 0.087274 24.675 0.996163 -90.73 0.996163 -90.73 0.087234 -26.13
9.00660000 0.087299 24.728 0.996160 -90.73 0.996160 -90.73 0.087260 -26.20
9.00670000 0.087325 24.782 0.996158 -90.74 0.996158 -90.74 0.087285 -26.26
9.00680000 0.087351 24.835 0.996156 -90.74 0.996156 -90.74 0.087310 -26.33
9.00690000 0.087376 24.889 0.996153 -90.75 0.996153 -90.75 0.087336 -26.40
9.00700000 0.087402 24.943 0.996151 -90.76 0.996151 -90.76 0.087362 -26.46
9.00710000 0.087429 24.997 0.996149 -90.76 0.996149 -90.76 0.087388 -26.53
9.00720000 0.087455 25.051 0.996146 -90.77 0.996146 -90.77 0.087414 -26.60
9.00730000 0.087482 25.106 0.996144 -90.78 0.996144 -90.78 0.087441 -26.67
9.00740000 0.087508 25.161 0.996141 -90.78 0.996141 -90.78 0.087467 -26.73
9.00750000 0.087535 25.215 0.996139 -90.79 0.996139 -90.79 0.087494 -26.80
9.00760000 0.087562 25.270 0.996137 -90.80 0.996137 -90.80 0.087521 -26.87
9.00770000 0.087590 25.326 0.996134 -90.80 0.996134 -90.80 0.087548 -26.94
9.00780000 0.087617 25.381 0.996132 -90.81 0.996132 -90.81 0.087576 -27.01
9.00790000 0.087645 25.437 0.996129 -90.82 0.996129 -90.82 0.087604 -27.08
9.00800000 0.087673 25.492 0.996126 -90.82 0.996126 -90.82 0.087631 -27.15
9.00810000 0.087701 25.548 0.996124 -90.83 0.996124 -90.83 0.087659 -27.22
9.00820000 0.087730 25.604 0.996121 -90.84 0.996121 -90.84 0.087688 -27.29
9.00830000 0.087758 25.661 0.996119 -90.84 0.996119 -90.84 0.087716 -27.36
9.00840000 0.087787 25.717 0.996116 -90.85 0.996116 -90.85 0.087745 -27.43
9.00850000 0.087816 25.774 0.996113 -90.86 0.996113 -90.86 0.087774 -27.50
9.00860000 0.087846 25.831 0.996111 -90.87 0.996111 -90.87 0.087803 -27.57
9.00870000 0.087875 25.888 0.996108 -90.87 0.996108 -90.87 0.087832 -27.64
9.00880000 0.087905 25.945 0.996105 -90.88 0.996105 -90.88 0.087862 -27.71
9.00890000 0.087935 26.002 0.996103 -90.89 0.996103 -90.89 0.087891 -27.78
9.00900000 0.087965 26.060 0.996100 -90.89 0.996100 -90.89 0.087921 -27.85
9.00910000 0.087995 26.118 0.996097 -90.90 0.996097 -90.90 0.087952 -27.92
9.00920000 0.088026 26.176 0.996094 -90.91 0.996094 -90.91 0.087982 -28.00
9.00930000 0.088057 26.234 0.996092 -90.91 0.996092 -90.91 0.088013 -28.07
9.00940000 0.088088 26.292 0.996089 -90.92 0.996089 -90.92 0.088044 -28.14
9.00950000 0.088119 26.351 0.996086 -90.93 0.996086 -90.93 0.088075 -28.21
9.00960000 0.088150 26.410 0.996083 -90.94 0.996083 -90.94 0.088106 -28.29
9.00970000 0.088182 26.468 0.996080 -90.94 0.996080 -90.94 0.088138 -28.36
9.00980000 0.088214 26.528 0.996077 -90.95 0.996077 -90.95 0.088170 -28.43
9.00990000 0.088246 26.587 0.996074 -90.96 0.996074 -90.96 0.088202 -28.51
9.01000000 0.088279 26.647 0.996071 -90.96 0.996071 -90.96 0.088234 -28.58
9.01010000 0.088312 26.706 0.996068 -90.97 0.996068 -90.97 0.088267 -28.66
9.01020000 0.088345 26.766 0.996065 -90.98 0.996065 -90.98 0.088299 -28.73
9.01030000 0.088378 26.826 0.996062 -90.99 0.996062 -90.99 0.088332 -28.81
9.01040000 0.088411 26.887 0.996059 -90.99 0.996059 -90.99 0.088366 -28.88
9.01050000 0.088445 26.947 0.996056 -91.00 0.996056 -91.00 0.088399 -28.96
9.01060000 0.088479 27.008 0.996053 -91.01 0.996053 -91.01 0.088433 -29.03
9.01070000 0.088513 27.069 0.996050 -91.02 0.996050 -91.02 0.088467 -29.11
9.01080000 0.088548 27.130 0.996047 -91.02 0.996047 -91.02 0.088502 -29.18
9.01090000 0.088583 27.191 0.996044 -91.03 0.996044 -91.03 0.088536 -29.26
9.01100000 0.088618 27.253 0.996040 -91.04 0.996040 -91.04 0.088571 -29.34
9.01110000 0.088653 27.315 0.996037 -91.05 0.996037 -91.05 0.088606 -29.41
9.01120000 0.088689 27.377 0.996034 -91.05 0.996034 -91.05 0.088642 -29.49
9.01130000 0.088724 27.439 0.996031 -91.06 0.996031 -91.06 0.088677 -29.57
9.01140000 0.088761 27.501 0.996027 -91.07 0.996027 -91.07 0.088713 -29.65
9.01150000 0.088797 27.564 0.996024 -91.08 0.996024 -91.08 0.088749 -29.72
9.01160000 0.088834 27.627 0.996021 -91.08 0.996021 -91.08 0.088786 -29.80
9.01170000 0.088871 27.690 0.996017 -91.09 0.996017 -91.09 0.088823 -29.88
9.01180000 0.088908 27.753 0.996014 -91.10 0.996014 -91.10 0.088860 -29.96
9.01190000 0.088945 27.817 0.996010 -91.11 0.996010 -91.11 0.088897 -30.04
9.01200000 0.088983 27.880 0.996007 -91.11 0.996007 -91.11 0.088935 -30.12
9.01210000 0.089021 27.944 0.996003 -91.12 0.996003 -91.12 0.088973 -30.20
9.01220000 0.089060 28.008 0.996000 -91.13 0.996000 -91.13 0.089011 -30.28
9.01230000 0.089098 28.073 0.995996 -91.14 0.995996 -91.14 0.089049 -30.36
9.01240000 0.089137 28.137 0.995993 -91.15 0.995993 -91.15 0.089088 -30.44
9.01250000 0.089177 28.202 0.995989 -91.15 0.995989 -91.15 0.089127 -30.52
9.01260000 0.089216 28.267 0.995986 -91.16 0.995986 -91.16 0.089167 -30.60
9.01270000 0.089256 28.332 0.995982 -91.17 0.995982 -91.17 0.089206 -30.68
9.01280000 0.089296 28.397 0.995978 -91.18 0.995978 -91.18 0.089246 -30.76
9.01290000 0.089337 28.463 0.995974 -91.19 0.995974 -91.19 0.089287 -30.84
9.01300000 0.089378 28.529 0.995971 -91.19 0.995971 -91.19 0.089327 -30.93
9.01310000 0.089419 28.595 0.995967 -91.20 0.995967 -91.20 0.089368 -31.01
9.01320000 0.089460 28.661 0.995963 -91.21 0.995963 -91.21 0.089410 -31.09
9.01330000 0.089502 28.728 0.995959 -91.22 0.995959 -91.22 0.089451 -31.17
9.01340000 0.089544 28.795 0.995955 -91.23 0.995955 -91.23 0.089493 -31.26
9.01350000 0.089587 28.862 0.995951 -91.23 0.995951 -91.23 0.089536 -31.34
9.01360000 0.089630 28.929 0.995947 -91.24 0.995947 -91.24 0.089578 -31.42
9.01370000 0.089673 28.996 0.995943 -91.25 0.995943 -91.25 0.089621 -31.51
9.01380000 0.089716 29.064 0.995939 -91.26 0.995939 -91.26 0.089664 -31.59
9.01390000 0.089760 29.132 0.995935 -91.27 0.995935 -91.27 0.089708 -31.68
9.01400000 0.089804 29.200 0.995931 -91.28 0.995931 -91.28 0.089752 -31.76
9.01410000 0.089849 29.268 0.995927 -91.28 0.995927 -91.28 0.089796 -31.85
9.01420000 0.089894 29.337 0.995923 -91.29 0.995923 -91.29 0.089841 -31.93
9.01430000 0.089939 29.406 0.995919 -91.30 0.995919 -91.30 0.089886 -32.02
9.01440000 0.089984 29.475 0.995915 -91.31 0.995915 -91.31 0.089931 -32.11
9.01450000 0.090030 29.544 0.995910 -91.32 0.995910 -91.32 0.089977 -32.19
9.01460000 0.090077 29.614 0.995906 -91.33 0.995906 -91.33 0.090023 -32.28
9.01470000 0.090123 29.683 0.995902 -91.34 0.995902 -91.34 0.090070 -32.37
9.01480000 0.090170 29.753 0.995897 -91.34 0.995897 -91.34 0.090116 -32.45
9.01490000 0.090218 29.824 0.995893 -91.35 0.995893 -91.35 0.090164 -32.54
9.01500000 0.090266 29.894 0.995888 -91.36 0.995888 -91.36 0.090211 -32.63
9.01510000 0.090314 29.965 0.995884 -91.37 0.995884 -91.37 0.090259 -32.72
9.01520000 0.090362 30.036 0.995879 -91.38 0.995879 -91.38 0.090308 -32.81
9.01530000 0.090411 30.107 0.995875 -91.39 0.995875 -91.39 0.090356 -32.89
9.01540000 0.090461 30.178 0.995870 -91.40 0.995870 -91.40 0.090405 -32.98
9.01550000 0.090510 30.250 0.995866 -91.41 0.995866 -91.41 0.090455 -33.07
9.01560000 0.090561 30.322 0.995861 -91.42 0.995861 -91.42 0.090505 -33.16
9.01570000 0.090611 30.394 0.995856 -91.42 0.995856 -91.42 0.090555 -33.25
9.01580000 0.090662 30.467 0.995851 -91.43 0.995851 -91.43 0.090606 -33.34
9.01590000 0.090713 30.539 0.995847 -91.44 0.995847 -91.44 0.090657 -33.43
9.01600000 0.090765 30.612 0.995842 -91.45 0.995842 -91.45 0.090709 -33.53
9.01610000 0.090817 30.686 0.995837 -91.46 0.995837 -91.46 0.090761 -33.62
9.01620000 0.090870 30.759 0.995832 -91.47 0.995832 -91.47 0.090813 -33.71
9.01630000 0.090923 30.833 0.995827 -91.48 0.995827 -91.48 0.090866 -33.80
9.01640000 0.090976 30.907 0.995822 -91.49 0.995822 -91.49 0.090919 -33.89
9.01650000 0.091030 30.981 0.995817 -91.50 0.995817 -91.50 0.090973 -33.99
9.01660000 0.091085 31.055 0.995812 -91.51 0.995812 -91.51 0.091027 -34.08
9.01670000 0.091139 31.130 0.995807 -91.52 0.995807 -91.52 0.091081 -34.17
9.01680000 0.091195 31.205 0.995802 -91.53 0.995802 -91.53 0.091136 -34.27
9.01690000 0.091250 31.280 0.995796 -91.53 0.995796 -91.53 0.091192 -34.36
9.01700000 0.091306 31.356 0.995791 -91.54 0.995791 -91.54 0.091247 -34.46
9.01710000 0.091363 31.431 0.995786 -91.55 0.995786 -91.55 0.091304 -34.55
9.01720000 0.091420 31.507 0.995780 -91.56 0.995780 -91.56 0.091361 -34.65
9.01730000 0.091478 31.584 0.995775 -91.57 0.995775 -91.57 0.091418 -34.74
9.01740000 0.091536 31.660 0.995769 -91.58 0.995769 -91.58 0.091476 -34.84
9.01750000 0.091594 31.737 0.995764 -91.59 0.995764 -91.59 0.091534 -34.93
9.01760000 0.091653 31.814 0.995758 -91.60 0.995758 -91.60 0.091593 -35.03
9.01770000 0.091712 31.891 0.995753 -91.61 0.995753 -91.61 0.091652 -35.13
9.01780000 0.091772 31.969 0.995747 -91.62 0.995747 -91.62 0.091711 -35.22
9.01790000 0.091833 32.047 0.995741 -91.63 0.995741 -91.63 0.091772 -35.32
9.01800000 0.091894 32.125 0.995736 -91.64 0.995736 -91.64 0.091832 -35.42
9.01810000 0.091955 32.203 0.995730 -91.65 0.995730 -91.65 0.091893 -35.52
9.01820000 0.092017 32.282 0.995724 -91.66 0.995724 -91.66 0.091955 -35.62
9.01830000 0.092079 32.361 0.995718 -91.67 0.995718 -91.67 0.092017 -35.72
9.01840000 0.092142 32.440 0.995712 -91.68 0.995712 -91.68 0.092080 -35.82
9.01850000 0.092206 32.519 0.995706 -91.69 0.995706 -91.69 0.092143 -35.92
9.01860000 0.092270 32.599 0.995700 -91.70 0.995700 -91.70 0.092207 -36.02
9.01870000 0.092334 32.679 0.995694 -91.71 0.995694 -91.71 0.092271 -36.12
9.01880000 0.092399 32.759 0.995688 -91.72 0.995688 -91.72 0.092336 -36.22
9.01890000 0.092465 32.840 0.995681 -91.73 0.995681 -91.73 0.092401 -36.32
9.01900000 0.092531 32.921 0.995675 -91.74 0.995675 -91.74 0.092467 -36.42