! Sonnet Data File
! From: emgraph Version : 16.52
! From Project: Resonator2_cp
! Data is De-embedded 
! Data File Written: 10/09/2017 00:47:18
!< HDATE 10/08/2017 10:09:33
!< MDATE 10/08/2017 10:09:33
!< PARAMS
!< Length = 400.0
!< Pwid1 = 2000.0
!< Pwid2 = 2000.0
!< Air_gap = 12.0
!< Width = 20.0
!< gap = 16.0
!< END PARAMS
# GHZ S MA R 51.00000
8.90000000 0.001980 176.76 0.999994 -81.63 0.999994 -81.63 0.001979 -160.2
!< P1 F=8.9 Eeff=(6.44624956 -2.9718e-5) Z0=(50.9071399 1.17454e-4) R=0.0 C=0.0 
!< P2 F=8.9 Eeff=(6.44624956 -2.9718e-5) Z0=(50.9071399 1.17454e-4) R=0.0 C=0.0 
8.90010000 0.001983 176.74 0.999994 -81.63 0.999994 -81.63 0.001983 -160.2
8.90020000 0.001987 176.73 0.999994 -81.63 0.999994 -81.63 0.001986 -160.2
8.90030000 0.001991 176.72 0.999994 -81.64 0.999994 -81.64 0.001990 -160.2
8.90040000 0.001994 176.71 0.999994 -81.64 0.999994 -81.64 0.001994 -160.2
8.90050000 0.001998 176.69 0.999994 -81.64 0.999994 -81.64 0.001997 -160.1
8.90060000 0.002002 176.68 0.999994 -81.64 0.999994 -81.64 0.002001 -160.1
8.90070000 0.002005 176.67 0.999994 -81.64 0.999994 -81.64 0.002005 -160.1
8.90080000 0.002009 176.66 0.999994 -81.64 0.999994 -81.64 0.002008 -160.1
8.90090000 0.002013 176.65 0.999994 -81.64 0.999994 -81.64 0.002012 -160.1
8.90100000 0.002016 176.63 0.999994 -81.64 0.999994 -81.64 0.002016 -160.1
8.90110000 0.002020 176.62 0.999994 -81.64 0.999994 -81.64 0.002019 -160.1
8.90120000 0.002024 176.61 0.999994 -81.65 0.999994 -81.65 0.002023 -160.1
8.90130000 0.002028 176.60 0.999994 -81.65 0.999994 -81.65 0.002027 -160.1
8.90140000 0.002032 176.58 0.999994 -81.65 0.999994 -81.65 0.002031 -160.0
8.90150000 0.002035 176.57 0.999994 -81.65 0.999994 -81.65 0.002035 -160.0
8.90160000 0.002039 176.56 0.999994 -81.65 0.999994 -81.65 0.002038 -160.0
8.90170000 0.002043 176.55 0.999994 -81.65 0.999994 -81.65 0.002042 -160.0
8.90180000 0.002047 176.53 0.999994 -81.65 0.999994 -81.65 0.002046 -160.0
8.90190000 0.002051 176.52 0.999994 -81.65 0.999994 -81.65 0.002050 -160.0
8.90200000 0.002055 176.51 0.999994 -81.65 0.999994 -81.65 0.002054 -160.0
8.90210000 0.002058 176.50 0.999994 -81.66 0.999994 -81.66 0.002058 -160.0
8.90220000 0.002062 176.49 0.999994 -81.66 0.999994 -81.66 0.002062 -160.0
8.90230000 0.002066 176.47 0.999994 -81.66 0.999994 -81.66 0.002065 -160.0
8.90240000 0.002070 176.46 0.999994 -81.66 0.999994 -81.66 0.002069 -159.9
8.90250000 0.002074 176.45 0.999994 -81.66 0.999994 -81.66 0.002073 -159.9
8.90260000 0.002078 176.44 0.999994 -81.66 0.999994 -81.66 0.002077 -159.9
8.90270000 0.002082 176.42 0.999994 -81.66 0.999994 -81.66 0.002081 -159.9
8.90280000 0.002086 176.41 0.999994 -81.66 0.999994 -81.66 0.002085 -159.9
8.90290000 0.002090 176.40 0.999994 -81.66 0.999994 -81.66 0.002089 -159.9
8.90300000 0.002094 176.39 0.999994 -81.67 0.999994 -81.67 0.002093 -159.9
8.90310000 0.002098 176.37 0.999994 -81.67 0.999994 -81.67 0.002097 -159.9
8.90320000 0.002102 176.36 0.999994 -81.67 0.999994 -81.67 0.002101 -159.9
8.90330000 0.002106 176.35 0.999994 -81.67 0.999994 -81.67 0.002105 -159.9
8.90340000 0.002110 176.34 0.999994 -81.67 0.999994 -81.67 0.002109 -159.8
8.90350000 0.002114 176.33 0.999994 -81.67 0.999994 -81.67 0.002113 -159.8
8.90360000 0.002118 176.31 0.999994 -81.67 0.999994 -81.67 0.002117 -159.8
8.90370000 0.002122 176.30 0.999994 -81.67 0.999994 -81.67 0.002122 -159.8
8.90380000 0.002126 176.29 0.999994 -81.68 0.999994 -81.68 0.002126 -159.8
8.90390000 0.002131 176.28 0.999994 -81.68 0.999994 -81.68 0.002130 -159.8
8.90400000 0.002135 176.26 0.999994 -81.68 0.999994 -81.68 0.002134 -159.8
8.90410000 0.002139 176.25 0.999994 -81.68 0.999994 -81.68 0.002138 -159.8
8.90420000 0.002143 176.24 0.999994 -81.68 0.999994 -81.68 0.002142 -159.8
8.90430000 0.002147 176.23 0.999994 -81.68 0.999994 -81.68 0.002146 -159.8
8.90440000 0.002151 176.22 0.999994 -81.68 0.999994 -81.68 0.002151 -159.7
8.90450000 0.002156 176.20 0.999994 -81.68 0.999994 -81.68 0.002155 -159.7
8.90460000 0.002160 176.19 0.999994 -81.68 0.999994 -81.68 0.002159 -159.7
8.90470000 0.002164 176.18 0.999993 -81.69 0.999993 -81.69 0.002163 -159.7
8.90480000 0.002168 176.17 0.999993 -81.69 0.999993 -81.69 0.002168 -159.7
8.90490000 0.002173 176.15 0.999993 -81.69 0.999993 -81.69 0.002172 -159.7
8.90500000 0.002177 176.14 0.999993 -81.69 0.999993 -81.69 0.002176 -159.7
8.90510000 0.002181 176.13 0.999993 -81.69 0.999993 -81.69 0.002181 -159.7
8.90520000 0.002186 176.12 0.999993 -81.69 0.999993 -81.69 0.002185 -159.7
8.90530000 0.002190 176.10 0.999993 -81.69 0.999993 -81.69 0.002189 -159.7
8.90540000 0.002194 176.09 0.999993 -81.69 0.999993 -81.69 0.002194 -159.6
8.90550000 0.002199 176.08 0.999993 -81.69 0.999993 -81.69 0.002198 -159.6
8.90560000 0.002203 176.07 0.999993 -81.70 0.999993 -81.70 0.002202 -159.6
8.90570000 0.002208 176.06 0.999993 -81.70 0.999993 -81.70 0.002207 -159.6
8.90580000 0.002212 176.04 0.999993 -81.70 0.999993 -81.70 0.002211 -159.6
8.90590000 0.002217 176.03 0.999993 -81.70 0.999993 -81.70 0.002216 -159.6
8.90600000 0.002221 176.02 0.999993 -81.70 0.999993 -81.70 0.002220 -159.6
8.90610000 0.002225 176.01 0.999993 -81.70 0.999993 -81.70 0.002225 -159.6
8.90620000 0.002230 175.99 0.999993 -81.70 0.999993 -81.70 0.002229 -159.6
8.90630000 0.002235 175.98 0.999993 -81.70 0.999993 -81.70 0.002234 -159.6
8.90640000 0.002239 175.97 0.999993 -81.71 0.999993 -81.71 0.002238 -159.5
8.90650000 0.002244 175.96 0.999993 -81.71 0.999993 -81.71 0.002243 -159.5
8.90660000 0.002248 175.95 0.999993 -81.71 0.999993 -81.71 0.002247 -159.5
8.90670000 0.002253 175.93 0.999993 -81.71 0.999993 -81.71 0.002252 -159.5
8.90680000 0.002257 175.92 0.999993 -81.71 0.999993 -81.71 0.002257 -159.5
8.90690000 0.002262 175.91 0.999993 -81.71 0.999993 -81.71 0.002261 -159.5
8.90700000 0.002267 175.90 0.999993 -81.71 0.999993 -81.71 0.002266 -159.5
8.90710000 0.002271 175.89 0.999993 -81.71 0.999993 -81.71 0.002271 -159.5
8.90720000 0.002276 175.87 0.999993 -81.71 0.999993 -81.71 0.002275 -159.5
8.90730000 0.002281 175.86 0.999993 -81.72 0.999993 -81.72 0.002280 -159.5
8.90740000 0.002285 175.85 0.999993 -81.72 0.999993 -81.72 0.002285 -159.4
8.90750000 0.002290 175.84 0.999993 -81.72 0.999993 -81.72 0.002289 -159.4
8.90760000 0.002295 175.82 0.999993 -81.72 0.999993 -81.72 0.002294 -159.4
8.90770000 0.002300 175.81 0.999993 -81.72 0.999993 -81.72 0.002299 -159.4
8.90780000 0.002304 175.80 0.999993 -81.72 0.999993 -81.72 0.002304 -159.4
8.90790000 0.002309 175.79 0.999993 -81.72 0.999993 -81.72 0.002308 -159.4
8.90800000 0.002314 175.78 0.999993 -81.72 0.999993 -81.72 0.002313 -159.4
8.90810000 0.002319 175.76 0.999993 -81.73 0.999993 -81.73 0.002318 -159.4
8.90820000 0.002324 175.75 0.999993 -81.73 0.999993 -81.73 0.002323 -159.4
8.90830000 0.002329 175.74 0.999993 -81.73 0.999993 -81.73 0.002328 -159.4
8.90840000 0.002334 175.73 0.999993 -81.73 0.999993 -81.73 0.002333 -159.3
8.90850000 0.002339 175.71 0.999993 -81.73 0.999993 -81.73 0.002338 -159.3
8.90860000 0.002343 175.70 0.999993 -81.73 0.999993 -81.73 0.002343 -159.3
8.90870000 0.002348 175.69 0.999993 -81.73 0.999993 -81.73 0.002348 -159.3
8.90880000 0.002353 175.68 0.999993 -81.73 0.999993 -81.73 0.002353 -159.3
8.90890000 0.002358 175.67 0.999993 -81.74 0.999993 -81.74 0.002358 -159.3
8.90900000 0.002363 175.65 0.999993 -81.74 0.999993 -81.74 0.002363 -159.3
8.90910000 0.002368 175.64 0.999993 -81.74 0.999993 -81.74 0.002368 -159.3
8.90920000 0.002374 175.63 0.999993 -81.74 0.999993 -81.74 0.002373 -159.3
8.90930000 0.002379 175.62 0.999993 -81.74 0.999993 -81.74 0.002378 -159.3
8.90940000 0.002384 175.60 0.999993 -81.74 0.999993 -81.74 0.002383 -159.2
8.90950000 0.002389 175.59 0.999993 -81.74 0.999993 -81.74 0.002388 -159.2
8.90960000 0.002394 175.58 0.999993 -81.74 0.999993 -81.74 0.002393 -159.2
8.90970000 0.002399 175.57 0.999993 -81.74 0.999993 -81.74 0.002398 -159.2
8.90980000 0.002404 175.56 0.999993 -81.75 0.999993 -81.75 0.002404 -159.2
8.90990000 0.002410 175.54 0.999993 -81.75 0.999993 -81.75 0.002409 -159.2
8.91000000 0.002415 175.53 0.999993 -81.75 0.999993 -81.75 0.002414 -159.2
8.91010000 0.002420 175.52 0.999993 -81.75 0.999993 -81.75 0.002419 -159.2
8.91020000 0.002425 175.51 0.999993 -81.75 0.999993 -81.75 0.002424 -159.2
8.91030000 0.002431 175.50 0.999993 -81.75 0.999993 -81.75 0.002430 -159.2
8.91040000 0.002436 175.48 0.999993 -81.75 0.999993 -81.75 0.002435 -159.1
8.91050000 0.002441 175.47 0.999993 -81.75 0.999993 -81.75 0.002440 -159.1
8.91060000 0.002447 175.46 0.999993 -81.76 0.999993 -81.76 0.002446 -159.1
8.91070000 0.002452 175.45 0.999993 -81.76 0.999993 -81.76 0.002451 -159.1
8.91080000 0.002457 175.43 0.999993 -81.76 0.999993 -81.76 0.002457 -159.1
8.91090000 0.002463 175.42 0.999993 -81.76 0.999993 -81.76 0.002462 -159.1
8.91100000 0.002468 175.41 0.999993 -81.76 0.999993 -81.76 0.002467 -159.1
8.91110000 0.002474 175.40 0.999993 -81.76 0.999993 -81.76 0.002473 -159.1
8.91120000 0.002479 175.39 0.999993 -81.76 0.999993 -81.76 0.002478 -159.1
8.91130000 0.002485 175.37 0.999992 -81.76 0.999992 -81.76 0.002484 -159.1
8.91140000 0.002490 175.36 0.999992 -81.77 0.999992 -81.77 0.002489 -159.0
8.91150000 0.002496 175.35 0.999992 -81.77 0.999992 -81.77 0.002495 -159.0
8.91160000 0.002501 175.34 0.999992 -81.77 0.999992 -81.77 0.002501 -159.0
8.91170000 0.002507 175.33 0.999992 -81.77 0.999992 -81.77 0.002506 -159.0
8.91180000 0.002513 175.31 0.999992 -81.77 0.999992 -81.77 0.002512 -159.0
8.91190000 0.002518 175.30 0.999992 -81.77 0.999992 -81.77 0.002518 -159.0
8.91200000 0.002524 175.29 0.999992 -81.77 0.999992 -81.77 0.002523 -159.0
8.91210000 0.002530 175.28 0.999992 -81.77 0.999992 -81.77 0.002529 -159.0
8.91220000 0.002535 175.26 0.999992 -81.78 0.999992 -81.78 0.002535 -159.0
8.91230000 0.002541 175.25 0.999992 -81.78 0.999992 -81.78 0.002540 -159.0
8.91240000 0.002547 175.24 0.999992 -81.78 0.999992 -81.78 0.002546 -159.0
8.91250000 0.002553 175.23 0.999992 -81.78 0.999992 -81.78 0.002552 -158.9
8.91260000 0.002559 175.22 0.999992 -81.78 0.999992 -81.78 0.002558 -158.9
8.91270000 0.002565 175.20 0.999992 -81.78 0.999992 -81.78 0.002564 -158.9
8.91280000 0.002570 175.19 0.999992 -81.78 0.999992 -81.78 0.002570 -158.9
8.91290000 0.002576 175.18 0.999992 -81.78 0.999992 -81.78 0.002576 -158.9
8.91300000 0.002582 175.17 0.999992 -81.79 0.999992 -81.79 0.002581 -158.9
8.91310000 0.002588 175.16 0.999992 -81.79 0.999992 -81.79 0.002587 -158.9
8.91320000 0.002594 175.14 0.999992 -81.79 0.999992 -81.79 0.002593 -158.9
8.91330000 0.002600 175.13 0.999992 -81.79 0.999992 -81.79 0.002599 -158.9
8.91340000 0.002606 175.12 0.999992 -81.79 0.999992 -81.79 0.002605 -158.9
8.91350000 0.002612 175.11 0.999992 -81.79 0.999992 -81.79 0.002612 -158.8
8.91360000 0.002618 175.09 0.999992 -81.79 0.999992 -81.79 0.002618 -158.8
8.91370000 0.002625 175.08 0.999992 -81.79 0.999992 -81.79 0.002624 -158.8
8.91380000 0.002631 175.07 0.999992 -81.80 0.999992 -81.80 0.002630 -158.8
8.91390000 0.002637 175.06 0.999992 -81.80 0.999992 -81.80 0.002636 -158.8
8.91400000 0.002643 175.05 0.999992 -81.80 0.999992 -81.80 0.002642 -158.8
8.91410000 0.002649 175.03 0.999992 -81.80 0.999992 -81.80 0.002648 -158.8
8.91420000 0.002656 175.02 0.999992 -81.80 0.999992 -81.80 0.002655 -158.8
8.91430000 0.002662 175.01 0.999992 -81.80 0.999992 -81.80 0.002661 -158.8
8.91440000 0.002668 175.00 0.999992 -81.80 0.999992 -81.80 0.002667 -158.8
8.91450000 0.002674 174.99 0.999992 -81.80 0.999992 -81.80 0.002674 -158.7
8.91460000 0.002681 174.97 0.999992 -81.81 0.999992 -81.81 0.002680 -158.7
8.91470000 0.002687 174.96 0.999992 -81.81 0.999992 -81.81 0.002686 -158.7
8.91480000 0.002694 174.95 0.999992 -81.81 0.999992 -81.81 0.002693 -158.7
8.91490000 0.002700 174.94 0.999992 -81.81 0.999992 -81.81 0.002699 -158.7
8.91500000 0.002707 174.93 0.999992 -81.81 0.999992 -81.81 0.002706 -158.7
8.91510000 0.002713 174.91 0.999992 -81.81 0.999992 -81.81 0.002712 -158.7
8.91520000 0.002720 174.90 0.999992 -81.81 0.999992 -81.81 0.002719 -158.7
8.91530000 0.002726 174.89 0.999992 -81.82 0.999992 -81.82 0.002725 -158.7
8.91540000 0.002733 174.88 0.999992 -81.82 0.999992 -81.82 0.002732 -158.7
8.91550000 0.002739 174.86 0.999992 -81.82 0.999992 -81.82 0.002739 -158.7
8.91560000 0.002746 174.85 0.999992 -81.82 0.999992 -81.82 0.002745 -158.6
8.91570000 0.002753 174.84 0.999992 -81.82 0.999992 -81.82 0.002752 -158.6
8.91580000 0.002760 174.83 0.999992 -81.82 0.999992 -81.82 0.002759 -158.6
8.91590000 0.002766 174.82 0.999991 -81.82 0.999991 -81.82 0.002766 -158.6
8.91600000 0.002773 174.80 0.999991 -81.82 0.999991 -81.82 0.002772 -158.6
8.91610000 0.002780 174.79 0.999991 -81.83 0.999991 -81.83 0.002779 -158.6
8.91620000 0.002787 174.78 0.999991 -81.83 0.999991 -81.83 0.002786 -158.6
8.91630000 0.002794 174.77 0.999991 -81.83 0.999991 -81.83 0.002793 -158.6
8.91640000 0.002801 174.76 0.999991 -81.83 0.999991 -81.83 0.002800 -158.6
8.91650000 0.002808 174.74 0.999991 -81.83 0.999991 -81.83 0.002807 -158.6
8.91660000 0.002815 174.73 0.999991 -81.83 0.999991 -81.83 0.002814 -158.5
8.91670000 0.002822 174.72 0.999991 -81.83 0.999991 -81.83 0.002821 -158.5
8.91680000 0.002829 174.71 0.999991 -81.83 0.999991 -81.83 0.002828 -158.5
8.91690000 0.002836 174.70 0.999991 -81.84 0.999991 -81.84 0.002835 -158.5
8.91700000 0.002843 174.68 0.999991 -81.84 0.999991 -81.84 0.002842 -158.5
8.91710000 0.002850 174.67 0.999991 -81.84 0.999991 -81.84 0.002849 -158.5
8.91720000 0.002857 174.66 0.999991 -81.84 0.999991 -81.84 0.002856 -158.5
8.91730000 0.002864 174.65 0.999991 -81.84 0.999991 -81.84 0.002864 -158.5
8.91740000 0.002872 174.63 0.999991 -81.84 0.999991 -81.84 0.002871 -158.5
8.91750000 0.002879 174.62 0.999991 -81.84 0.999991 -81.84 0.002878 -158.5
8.91760000 0.002886 174.61 0.999991 -81.85 0.999991 -81.85 0.002885 -158.4
8.91770000 0.002894 174.60 0.999991 -81.85 0.999991 -81.85 0.002893 -158.4
8.91780000 0.002901 174.59 0.999991 -81.85 0.999991 -81.85 0.002900 -158.4
8.91790000 0.002908 174.57 0.999991 -81.85 0.999991 -81.85 0.002908 -158.4
8.91800000 0.002916 174.56 0.999991 -81.85 0.999991 -81.85 0.002915 -158.4
8.91810000 0.002923 174.55 0.999991 -81.85 0.999991 -81.85 0.002923 -158.4
8.91820000 0.002931 174.54 0.999991 -81.85 0.999991 -81.85 0.002930 -158.4
8.91830000 0.002938 174.53 0.999991 -81.85 0.999991 -81.85 0.002938 -158.4
8.91840000 0.002946 174.51 0.999991 -81.86 0.999991 -81.86 0.002945 -158.4
8.91850000 0.002954 174.50 0.999991 -81.86 0.999991 -81.86 0.002953 -158.4
8.91860000 0.002961 174.49 0.999991 -81.86 0.999991 -81.86 0.002961 -158.4
8.91870000 0.002969 174.48 0.999991 -81.86 0.999991 -81.86 0.002968 -158.3
8.91880000 0.002977 174.47 0.999991 -81.86 0.999991 -81.86 0.002976 -158.3
8.91890000 0.002985 174.45 0.999991 -81.86 0.999991 -81.86 0.002984 -158.3
8.91900000 0.002993 174.44 0.999991 -81.86 0.999991 -81.86 0.002992 -158.3
8.91910000 0.003000 174.43 0.999991 -81.87 0.999991 -81.87 0.003000 -158.3
8.91920000 0.003008 174.42 0.999991 -81.87 0.999991 -81.87 0.003008 -158.3
8.91930000 0.003016 174.41 0.999991 -81.87 0.999991 -81.87 0.003016 -158.3
8.91940000 0.003024 174.39 0.999990 -81.87 0.999990 -81.87 0.003024 -158.3
8.91950000 0.003032 174.38 0.999990 -81.87 0.999990 -81.87 0.003032 -158.3
8.91960000 0.003040 174.37 0.999990 -81.87 0.999990 -81.87 0.003040 -158.3
8.91970000 0.003049 174.36 0.999990 -81.87 0.999990 -81.87 0.003048 -158.3
8.91980000 0.003057 174.34 0.999990 -81.88 0.999990 -81.88 0.003056 -158.2
8.91990000 0.003065 174.33 0.999990 -81.88 0.999990 -81.88 0.003064 -158.2
8.92000000 0.003073 174.32 0.999990 -81.88 0.999990 -81.88 0.003072 -158.2
8.92010000 0.003082 174.31 0.999990 -81.88 0.999990 -81.88 0.003081 -158.2
8.92020000 0.003090 174.30 0.999990 -81.88 0.999990 -81.88 0.003089 -158.2
8.92030000 0.003098 174.28 0.999990 -81.88 0.999990 -81.88 0.003097 -158.2
8.92040000 0.003107 174.27 0.999990 -81.88 0.999990 -81.88 0.003106 -158.2
8.92050000 0.003115 174.26 0.999990 -81.89 0.999990 -81.89 0.003114 -158.2
8.92060000 0.003124 174.25 0.999990 -81.89 0.999990 -81.89 0.003123 -158.2
8.92070000 0.003132 174.24 0.999990 -81.89 0.999990 -81.89 0.003131 -158.2
8.92080000 0.003141 174.22 0.999990 -81.89 0.999990 -81.89 0.003140 -158.1
8.92090000 0.003149 174.21 0.999990 -81.89 0.999990 -81.89 0.003149 -158.1
8.92100000 0.003158 174.20 0.999990 -81.89 0.999990 -81.89 0.003157 -158.1
8.92110000 0.003167 174.19 0.999990 -81.89 0.999990 -81.89 0.003166 -158.1
8.92120000 0.003176 174.18 0.999990 -81.90 0.999990 -81.90 0.003175 -158.1
8.92130000 0.003184 174.16 0.999990 -81.90 0.999990 -81.90 0.003184 -158.1
8.92140000 0.003193 174.15 0.999990 -81.90 0.999990 -81.90 0.003192 -158.1
8.92150000 0.003202 174.14 0.999990 -81.90 0.999990 -81.90 0.003201 -158.1
8.92160000 0.003211 174.13 0.999990 -81.90 0.999990 -81.90 0.003210 -158.1
8.92170000 0.003220 174.12 0.999990 -81.90 0.999990 -81.90 0.003219 -158.1
8.92180000 0.003229 174.10 0.999990 -81.90 0.999990 -81.90 0.003228 -158.1
8.92190000 0.003238 174.09 0.999990 -81.91 0.999990 -81.91 0.003238 -158.0
8.92200000 0.003248 174.08 0.999990 -81.91 0.999990 -81.91 0.003247 -158.0
8.92210000 0.003257 174.07 0.999989 -81.91 0.999989 -81.91 0.003256 -158.0
8.92220000 0.003266 174.05 0.999989 -81.91 0.999989 -81.91 0.003265 -158.0
8.92230000 0.003275 174.04 0.999989 -81.91 0.999989 -81.91 0.003274 -158.0
8.92240000 0.003285 174.03 0.999989 -81.91 0.999989 -81.91 0.003284 -158.0
8.92250000 0.003294 174.02 0.999989 -81.91 0.999989 -81.91 0.003293 -158.0
8.92260000 0.003304 174.01 0.999989 -81.92 0.999989 -81.92 0.003303 -158.0
8.92270000 0.003313 173.99 0.999989 -81.92 0.999989 -81.92 0.003312 -158.0
8.92280000 0.003323 173.98 0.999989 -81.92 0.999989 -81.92 0.003322 -158.0
8.92290000 0.003332 173.97 0.999989 -81.92 0.999989 -81.92 0.003331 -158.0
8.92300000 0.003342 173.96 0.999989 -81.92 0.999989 -81.92 0.003341 -157.9
8.92310000 0.003352 173.95 0.999989 -81.92 0.999989 -81.92 0.003351 -157.9
8.92320000 0.003361 173.93 0.999989 -81.92 0.999989 -81.92 0.003361 -157.9
8.92330000 0.003371 173.92 0.999989 -81.93 0.999989 -81.93 0.003370 -157.9
8.92340000 0.003381 173.91 0.999989 -81.93 0.999989 -81.93 0.003380 -157.9
8.92350000 0.003391 173.90 0.999989 -81.93 0.999989 -81.93 0.003390 -157.9
8.92360000 0.003401 173.89 0.999989 -81.93 0.999989 -81.93 0.003400 -157.9
8.92370000 0.003411 173.87 0.999989 -81.93 0.999989 -81.93 0.003410 -157.9
8.92380000 0.003421 173.86 0.999989 -81.93 0.999989 -81.93 0.003420 -157.9
8.92390000 0.003431 173.85 0.999989 -81.93 0.999989 -81.93 0.003431 -157.9
8.92400000 0.003442 173.84 0.999989 -81.94 0.999989 -81.94 0.003441 -157.9
8.92410000 0.003452 173.82 0.999989 -81.94 0.999989 -81.94 0.003451 -157.8
8.92420000 0.003462 173.81 0.999989 -81.94 0.999989 -81.94 0.003462 -157.8
8.92430000 0.003473 173.80 0.999989 -81.94 0.999989 -81.94 0.003472 -157.8
8.92440000 0.003483 173.79 0.999988 -81.94 0.999988 -81.94 0.003482 -157.8
8.92450000 0.003494 173.78 0.999988 -81.94 0.999988 -81.94 0.003493 -157.8
8.92460000 0.003504 173.76 0.999988 -81.95 0.999988 -81.95 0.003504 -157.8
8.92470000 0.003515 173.75 0.999988 -81.95 0.999988 -81.95 0.003514 -157.8
8.92480000 0.003526 173.74 0.999988 -81.95 0.999988 -81.95 0.003525 -157.8
8.92490000 0.003537 173.73 0.999988 -81.95 0.999988 -81.95 0.003536 -157.8
8.92500000 0.003547 173.72 0.999988 -81.95 0.999988 -81.95 0.003546 -157.8
8.92510000 0.003558 173.70 0.999988 -81.95 0.999988 -81.95 0.003557 -157.8
8.92520000 0.003569 173.69 0.999988 -81.95 0.999988 -81.95 0.003568 -157.7
8.92530000 0.003580 173.68 0.999988 -81.96 0.999988 -81.96 0.003579 -157.7
8.92540000 0.003591 173.67 0.999988 -81.96 0.999988 -81.96 0.003590 -157.7
8.92550000 0.003603 173.66 0.999988 -81.96 0.999988 -81.96 0.003602 -157.7
8.92560000 0.003614 173.64 0.999988 -81.96 0.999988 -81.96 0.003613 -157.7
8.92570000 0.003625 173.63 0.999988 -81.96 0.999988 -81.96 0.003624 -157.7
8.92580000 0.003636 173.62 0.999988 -81.96 0.999988 -81.96 0.003636 -157.7
8.92590000 0.003648 173.61 0.999988 -81.97 0.999988 -81.97 0.003647 -157.7
8.92600000 0.003659 173.59 0.999988 -81.97 0.999988 -81.97 0.003658 -157.7
8.92610000 0.003671 173.58 0.999988 -81.97 0.999988 -81.97 0.003670 -157.7
8.92620000 0.003683 173.57 0.999988 -81.97 0.999988 -81.97 0.003682 -157.7
8.92630000 0.003694 173.56 0.999987 -81.97 0.999987 -81.97 0.003693 -157.6
8.92640000 0.003706 173.55 0.999987 -81.97 0.999987 -81.97 0.003705 -157.6
8.92650000 0.003718 173.53 0.999987 -81.97 0.999987 -81.97 0.003717 -157.6
8.92660000 0.003730 173.52 0.999987 -81.98 0.999987 -81.98 0.003729 -157.6
8.92670000 0.003742 173.51 0.999987 -81.98 0.999987 -81.98 0.003741 -157.6
8.92680000 0.003754 173.50 0.999987 -81.98 0.999987 -81.98 0.003753 -157.6
8.92690000 0.003766 173.49 0.999987 -81.98 0.999987 -81.98 0.003765 -157.6
8.92700000 0.003778 173.47 0.999987 -81.98 0.999987 -81.98 0.003777 -157.6
8.92710000 0.003791 173.46 0.999987 -81.98 0.999987 -81.98 0.003790 -157.6
8.92720000 0.003803 173.45 0.999987 -81.99 0.999987 -81.99 0.003802 -157.6
8.92730000 0.003815 173.44 0.999987 -81.99 0.999987 -81.99 0.003815 -157.6
8.92740000 0.003828 173.42 0.999987 -81.99 0.999987 -81.99 0.003827 -157.5
8.92750000 0.003841 173.41 0.999987 -81.99 0.999987 -81.99 0.003840 -157.5
8.92760000 0.003853 173.40 0.999987 -81.99 0.999987 -81.99 0.003852 -157.5
8.92770000 0.003866 173.39 0.999987 -81.99 0.999987 -81.99 0.003865 -157.5
8.92780000 0.003879 173.38 0.999987 -82.00 0.999987 -82.00 0.003878 -157.5
8.92790000 0.003892 173.36 0.999986 -82.00 0.999986 -82.00 0.003891 -157.5
8.92800000 0.003905 173.35 0.999986 -82.00 0.999986 -82.00 0.003904 -157.5
8.92810000 0.003918 173.34 0.999986 -82.00 0.999986 -82.00 0.003917 -157.5
8.92820000 0.003931 173.33 0.999986 -82.00 0.999986 -82.00 0.003930 -157.5
8.92830000 0.003944 173.32 0.999986 -82.00 0.999986 -82.00 0.003944 -157.5
8.92840000 0.003958 173.30 0.999986 -82.01 0.999986 -82.01 0.003957 -157.5
8.92850000 0.003971 173.29 0.999986 -82.01 0.999986 -82.01 0.003970 -157.5
8.92860000 0.003985 173.28 0.999986 -82.01 0.999986 -82.01 0.003984 -157.4
8.92870000 0.003998 173.27 0.999986 -82.01 0.999986 -82.01 0.003998 -157.4
8.92880000 0.004012 173.25 0.999986 -82.01 0.999986 -82.01 0.004011 -157.4
8.92890000 0.004026 173.24 0.999986 -82.01 0.999986 -82.01 0.004025 -157.4
8.92900000 0.004040 173.23 0.999986 -82.02 0.999986 -82.02 0.004039 -157.4
8.92910000 0.004054 173.22 0.999986 -82.02 0.999986 -82.02 0.004053 -157.4
8.92920000 0.004068 173.21 0.999986 -82.02 0.999986 -82.02 0.004067 -157.4
8.92930000 0.004082 173.19 0.999985 -82.02 0.999985 -82.02 0.004081 -157.4
8.92940000 0.004096 173.18 0.999985 -82.02 0.999985 -82.02 0.004096 -157.4
8.92950000 0.004111 173.17 0.999985 -82.02 0.999985 -82.02 0.004110 -157.4
8.92960000 0.004125 173.16 0.999985 -82.03 0.999985 -82.03 0.004124 -157.4
8.92970000 0.004140 173.14 0.999985 -82.03 0.999985 -82.03 0.004139 -157.3
8.92980000 0.004154 173.13 0.999985 -82.03 0.999985 -82.03 0.004154 -157.3
8.92990000 0.004169 173.12 0.999985 -82.03 0.999985 -82.03 0.004168 -157.3
8.93000000 0.004184 173.11 0.999985 -82.03 0.999985 -82.03 0.004183 -157.3
8.93010000 0.004199 173.10 0.999985 -82.04 0.999985 -82.04 0.004198 -157.3
8.93020000 0.004214 173.08 0.999985 -82.04 0.999985 -82.04 0.004213 -157.3
8.93030000 0.004229 173.07 0.999985 -82.04 0.999985 -82.04 0.004228 -157.3
8.93040000 0.004245 173.06 0.999985 -82.04 0.999985 -82.04 0.004244 -157.3
8.93050000 0.004260 173.05 0.999984 -82.04 0.999984 -82.04 0.004259 -157.3
8.93060000 0.004275 173.03 0.999984 -82.04 0.999984 -82.04 0.004275 -157.3
8.93070000 0.004291 173.02 0.999984 -82.05 0.999984 -82.05 0.004290 -157.3
8.93080000 0.004307 173.01 0.999984 -82.05 0.999984 -82.05 0.004306 -157.3
8.93090000 0.004323 173.00 0.999984 -82.05 0.999984 -82.05 0.004322 -157.2
8.93100000 0.004338 172.98 0.999984 -82.05 0.999984 -82.05 0.004338 -157.2
8.93110000 0.004355 172.97 0.999984 -82.05 0.999984 -82.05 0.004354 -157.2
8.93120000 0.004371 172.96 0.999984 -82.06 0.999984 -82.06 0.004370 -157.2
8.93130000 0.004387 172.95 0.999984 -82.06 0.999984 -82.06 0.004386 -157.2
8.93140000 0.004403 172.94 0.999984 -82.06 0.999984 -82.06 0.004403 -157.2
8.93150000 0.004420 172.92 0.999984 -82.06 0.999984 -82.06 0.004419 -157.2
8.93160000 0.004437 172.91 0.999983 -82.06 0.999983 -82.06 0.004436 -157.2
8.93170000 0.004453 172.90 0.999983 -82.06 0.999983 -82.06 0.004452 -157.2
8.93180000 0.004470 172.89 0.999983 -82.07 0.999983 -82.07 0.004469 -157.2
8.93190000 0.004487 172.87 0.999983 -82.07 0.999983 -82.07 0.004486 -157.2
8.93200000 0.004504 172.86 0.999983 -82.07 0.999983 -82.07 0.004503 -157.1
8.93210000 0.004522 172.85 0.999983 -82.07 0.999983 -82.07 0.004521 -157.1
8.93220000 0.004539 172.84 0.999983 -82.07 0.999983 -82.07 0.004538 -157.1
8.93230000 0.004556 172.82 0.999983 -82.08 0.999983 -82.08 0.004556 -157.1
8.93240000 0.004574 172.81 0.999983 -82.08 0.999983 -82.08 0.004573 -157.1
8.93250000 0.004592 172.80 0.999982 -82.08 0.999982 -82.08 0.004591 -157.1
8.93260000 0.004610 172.79 0.999982 -82.08 0.999982 -82.08 0.004609 -157.1
8.93270000 0.004628 172.78 0.999982 -82.08 0.999982 -82.08 0.004627 -157.1
8.93280000 0.004646 172.76 0.999982 -82.09 0.999982 -82.09 0.004645 -157.1
8.93290000 0.004664 172.75 0.999982 -82.09 0.999982 -82.09 0.004663 -157.1
8.93300000 0.004683 172.74 0.999982 -82.09 0.999982 -82.09 0.004682 -157.1
8.93310000 0.004701 172.73 0.999982 -82.09 0.999982 -82.09 0.004700 -157.1
8.93320000 0.004720 172.71 0.999982 -82.09 0.999982 -82.09 0.004719 -157.0
8.93330000 0.004739 172.70 0.999982 -82.10 0.999982 -82.10 0.004738 -157.0
8.93340000 0.004758 172.69 0.999981 -82.10 0.999981 -82.10 0.004757 -157.0
8.93350000 0.004777 172.68 0.999981 -82.10 0.999981 -82.10 0.004776 -157.0
8.93360000 0.004796 172.66 0.999981 -82.10 0.999981 -82.10 0.004796 -157.0
8.93370000 0.004816 172.65 0.999981 -82.10 0.999981 -82.10 0.004815 -157.0
8.93380000 0.004836 172.64 0.999981 -82.11 0.999981 -82.11 0.004835 -157.0
8.93390000 0.004855 172.63 0.999981 -82.11 0.999981 -82.11 0.004855 -157.0
8.93400000 0.004875 172.61 0.999981 -82.11 0.999981 -82.11 0.004874 -157.0
8.93410000 0.004895 172.60 0.999981 -82.11 0.999981 -82.11 0.004895 -157.0
8.93420000 0.004916 172.59 0.999980 -82.11 0.999980 -82.11 0.004915 -157.0
8.93430000 0.004936 172.58 0.999980 -82.12 0.999980 -82.12 0.004935 -157.0
8.93440000 0.004957 172.56 0.999980 -82.12 0.999980 -82.12 0.004956 -156.9
8.93450000 0.004977 172.55 0.999980 -82.12 0.999980 -82.12 0.004977 -156.9
8.93460000 0.004998 172.54 0.999980 -82.12 0.999980 -82.12 0.004998 -156.9
8.93470000 0.005019 172.53 0.999980 -82.12 0.999980 -82.12 0.005019 -156.9
8.93480000 0.005041 172.51 0.999980 -82.13 0.999980 -82.13 0.005040 -156.9
8.93490000 0.005062 172.50 0.999979 -82.13 0.999979 -82.13 0.005061 -156.9
8.93500000 0.005084 172.49 0.999979 -82.13 0.999979 -82.13 0.005083 -156.9
8.93510000 0.005106 172.48 0.999979 -82.13 0.999979 -82.13 0.005105 -156.9
8.93520000 0.005128 172.46 0.999979 -82.14 0.999979 -82.14 0.005127 -156.9
8.93530000 0.005150 172.45 0.999979 -82.14 0.999979 -82.14 0.005149 -156.9
8.93540000 0.005172 172.44 0.999979 -82.14 0.999979 -82.14 0.005171 -156.9
8.93550000 0.005195 172.43 0.999979 -82.14 0.999979 -82.14 0.005194 -156.9
8.93560000 0.005217 172.41 0.999978 -82.14 0.999978 -82.14 0.005217 -156.9
8.93570000 0.005240 172.40 0.999978 -82.15 0.999978 -82.15 0.005239 -156.8
8.93580000 0.005263 172.39 0.999978 -82.15 0.999978 -82.15 0.005263 -156.8
8.93590000 0.005287 172.38 0.999978 -82.15 0.999978 -82.15 0.005286 -156.8
8.93600000 0.005310 172.36 0.999978 -82.15 0.999978 -82.15 0.005309 -156.8
8.93610000 0.005334 172.35 0.999978 -82.16 0.999978 -82.16 0.005333 -156.8
8.93620000 0.005358 172.34 0.999977 -82.16 0.999977 -82.16 0.005357 -156.8
8.93630000 0.005382 172.32 0.999977 -82.16 0.999977 -82.16 0.005381 -156.8
8.93640000 0.005406 172.31 0.999977 -82.16 0.999977 -82.16 0.005406 -156.8
8.93650000 0.005431 172.30 0.999977 -82.16 0.999977 -82.16 0.005430 -156.8
8.93660000 0.005456 172.29 0.999977 -82.17 0.999977 -82.17 0.005455 -156.8
8.93670000 0.005481 172.27 0.999976 -82.17 0.999976 -82.17 0.005480 -156.8
8.93680000 0.005506 172.26 0.999976 -82.17 0.999976 -82.17 0.005505 -156.8
8.93690000 0.005531 172.25 0.999976 -82.17 0.999976 -82.17 0.005531 -156.8
8.93700000 0.005557 172.24 0.999976 -82.18 0.999976 -82.18 0.005556 -156.7
8.93710000 0.005583 172.22 0.999976 -82.18 0.999976 -82.18 0.005582 -156.7
8.93720000 0.005609 172.21 0.999976 -82.18 0.999976 -82.18 0.005608 -156.7
8.93730000 0.005635 172.20 0.999975 -82.18 0.999975 -82.18 0.005635 -156.7
8.93740000 0.005662 172.18 0.999975 -82.19 0.999975 -82.19 0.005661 -156.7
8.93750000 0.005689 172.17 0.999975 -82.19 0.999975 -82.19 0.005688 -156.7
8.93760000 0.005716 172.16 0.999975 -82.19 0.999975 -82.19 0.005715 -156.7
8.93770000 0.005743 172.15 0.999975 -82.19 0.999975 -82.19 0.005743 -156.7
8.93780000 0.005771 172.13 0.999974 -82.20 0.999974 -82.20 0.005770 -156.7
8.93790000 0.005799 172.12 0.999974 -82.20 0.999974 -82.20 0.005798 -156.7
8.93800000 0.005827 172.11 0.999974 -82.20 0.999974 -82.20 0.005826 -156.7
8.93810000 0.005856 172.09 0.999974 -82.20 0.999974 -82.20 0.005855 -156.7
8.93820000 0.005884 172.08 0.999973 -82.21 0.999973 -82.21 0.005883 -156.7
8.93830000 0.005913 172.07 0.999973 -82.21 0.999973 -82.21 0.005912 -156.6
8.93840000 0.005942 172.06 0.999973 -82.21 0.999973 -82.21 0.005942 -156.6
8.93850000 0.005972 172.04 0.999973 -82.21 0.999973 -82.21 0.005971 -156.6
8.93860000 0.006002 172.03 0.999973 -82.22 0.999973 -82.22 0.006001 -156.6
8.93870000 0.006032 172.02 0.999972 -82.22 0.999972 -82.22 0.006031 -156.6
8.93880000 0.006062 172.00 0.999972 -82.22 0.999972 -82.22 0.006061 -156.6
8.93890000 0.006093 171.99 0.999972 -82.22 0.999972 -82.22 0.006092 -156.6
8.93900000 0.006124 171.98 0.999972 -82.23 0.999972 -82.23 0.006123 -156.6
8.93910000 0.006155 171.96 0.999971 -82.23 0.999971 -82.23 0.006154 -156.6
8.93920000 0.006187 171.95 0.999971 -82.23 0.999971 -82.23 0.006186 -156.6