! Sonnet Data File
! From: emgraph Version : 16.52
! From Project: Resonator2_cp_varyW
! Data is De-embedded 
! Data File Written: 10/07/2017 09:25:24
!< HDATE 10/06/2017 17:18:21
!< MDATE 10/06/2017 17:18:21
!< PARAMS
!< gap = 6.0
!< Length = 400.0
!< Pwid1 = 2000.0
!< Pwid2 = 2000.0
!< Air_gap = 24.0
!< Width = 40.0
!< END PARAMS
# GHZ S MA R 51.80000
8.80000000 0.011252 -154.9 0.999931 -81.32 0.999931 -81.32 0.011251 172.30
!< P1 F=8.8 Eeff=(6.44313487 -2.9703e-5) Z0=(50.4821399 1.16465e-4) R=0.0 C=0.0 
!< P2 F=8.8 Eeff=(6.44313487 -2.9703e-5) Z0=(50.4821399 1.16465e-4) R=0.0 C=0.0 
8.80020000 0.011235 -154.9 0.999932 -81.32 0.999932 -81.32 0.011234 172.25
8.80040000 0.011217 -154.8 0.999932 -81.32 0.999932 -81.32 0.011216 172.19
8.80060000 0.011200 -154.8 0.999932 -81.32 0.999932 -81.32 0.011199 172.14
8.80080000 0.011182 -154.7 0.999932 -81.33 0.999932 -81.33 0.011181 172.08
8.80100000 0.011165 -154.7 0.999932 -81.33 0.999932 -81.33 0.011164 172.02
8.80120000 0.011147 -154.6 0.999933 -81.33 0.999933 -81.33 0.011146 171.96
8.80140000 0.011129 -154.6 0.999933 -81.34 0.999933 -81.34 0.011128 171.90
8.80160000 0.011111 -154.5 0.999933 -81.34 0.999933 -81.34 0.011110 171.84
8.80180000 0.011093 -154.5 0.999933 -81.34 0.999933 -81.34 0.011092 171.78
8.80200000 0.011075 -154.4 0.999933 -81.35 0.999933 -81.35 0.011074 171.72
8.80220000 0.011057 -154.4 0.999933 -81.35 0.999933 -81.35 0.011056 171.66
8.80240000 0.011039 -154.3 0.999934 -81.35 0.999934 -81.35 0.011038 171.60
8.80260000 0.011020 -154.3 0.999934 -81.36 0.999934 -81.36 0.011019 171.54
8.80280000 0.011002 -154.2 0.999934 -81.36 0.999934 -81.36 0.011001 171.48
8.80300000 0.010983 -154.1 0.999934 -81.36 0.999934 -81.36 0.010982 171.42
8.80320000 0.010965 -154.1 0.999934 -81.36 0.999934 -81.36 0.010964 171.35
8.80340000 0.010946 -154.0 0.999935 -81.37 0.999935 -81.37 0.010945 171.29
8.80360000 0.010927 -154.0 0.999935 -81.37 0.999935 -81.37 0.010926 171.22
8.80380000 0.010909 -153.9 0.999935 -81.37 0.999935 -81.37 0.010908 171.16
8.80400000 0.010890 -153.9 0.999935 -81.38 0.999935 -81.38 0.010889 171.09
8.80420000 0.010871 -153.8 0.999935 -81.38 0.999935 -81.38 0.010870 171.03
8.80440000 0.010852 -153.7 0.999936 -81.38 0.999936 -81.38 0.010851 170.96
8.80460000 0.010833 -153.7 0.999936 -81.39 0.999936 -81.39 0.010832 170.90
8.80480000 0.010813 -153.6 0.999936 -81.39 0.999936 -81.39 0.010812 170.83
8.80500000 0.010794 -153.5 0.999936 -81.39 0.999936 -81.39 0.010793 170.76
8.80520000 0.010775 -153.5 0.999936 -81.40 0.999936 -81.40 0.010774 170.69
8.80540000 0.010755 -153.4 0.999937 -81.40 0.999937 -81.40 0.010754 170.62
8.80560000 0.010736 -153.4 0.999937 -81.40 0.999937 -81.40 0.010734 170.55
8.80580000 0.010716 -153.3 0.999937 -81.41 0.999937 -81.41 0.010715 170.48
8.80600000 0.010696 -153.2 0.999937 -81.41 0.999937 -81.41 0.010695 170.41
8.80620000 0.010676 -153.2 0.999937 -81.41 0.999937 -81.41 0.010675 170.34
8.80640000 0.010656 -153.1 0.999938 -81.41 0.999938 -81.41 0.010655 170.27
8.80660000 0.010636 -153.0 0.999938 -81.42 0.999938 -81.42 0.010635 170.19
8.80680000 0.010616 -153.0 0.999938 -81.42 0.999938 -81.42 0.010615 170.12
8.80700000 0.010596 -152.9 0.999938 -81.42 0.999938 -81.42 0.010595 170.05
8.80720000 0.010576 -152.8 0.999938 -81.43 0.999938 -81.43 0.010575 169.97
8.80740000 0.010555 -152.8 0.999939 -81.43 0.999939 -81.43 0.010554 169.90
8.80760000 0.010535 -152.7 0.999939 -81.43 0.999939 -81.43 0.010534 169.82
8.80780000 0.010514 -152.6 0.999939 -81.44 0.999939 -81.44 0.010513 169.74
8.80800000 0.010494 -152.5 0.999939 -81.44 0.999939 -81.44 0.010492 169.67
8.80820000 0.010473 -152.5 0.999939 -81.44 0.999939 -81.44 0.010472 169.59
8.80840000 0.010452 -152.4 0.999940 -81.45 0.999940 -81.45 0.010451 169.51
8.80860000 0.010431 -152.3 0.999940 -81.45 0.999940 -81.45 0.010430 169.43
8.80880000 0.010410 -152.3 0.999940 -81.45 0.999940 -81.45 0.010409 169.35
8.80900000 0.010389 -152.2 0.999940 -81.46 0.999940 -81.46 0.010387 169.27
8.80920000 0.010368 -152.1 0.999940 -81.46 0.999940 -81.46 0.010366 169.19
8.80940000 0.010346 -152.0 0.999941 -81.46 0.999941 -81.46 0.010345 169.10
8.80960000 0.010325 -152.0 0.999941 -81.47 0.999941 -81.47 0.010323 169.02
8.80980000 0.010303 -151.9 0.999941 -81.47 0.999941 -81.47 0.010302 168.93
8.81000000 0.010282 -151.8 0.999941 -81.47 0.999941 -81.47 0.010280 168.85
8.81020000 0.010260 -151.7 0.999941 -81.48 0.999941 -81.48 0.010258 168.76
8.81040000 0.010238 -151.6 0.999942 -81.48 0.999942 -81.48 0.010237 168.68
8.81060000 0.010216 -151.6 0.999942 -81.48 0.999942 -81.48 0.010215 168.59
8.81080000 0.010194 -151.5 0.999942 -81.49 0.999942 -81.49 0.010193 168.50
8.81100000 0.010172 -151.4 0.999942 -81.49 0.999942 -81.49 0.010170 168.41
8.81120000 0.010150 -151.3 0.999943 -81.49 0.999943 -81.49 0.010148 168.32
8.81140000 0.010127 -151.2 0.999943 -81.50 0.999943 -81.50 0.010126 168.23
8.81160000 0.010105 -151.1 0.999943 -81.50 0.999943 -81.50 0.010103 168.14
8.81180000 0.010082 -151.1 0.999943 -81.50 0.999943 -81.50 0.010081 168.05
8.81200000 0.010060 -151.0 0.999943 -81.51 0.999943 -81.51 0.010058 167.95
8.81220000 0.010037 -150.9 0.999944 -81.51 0.999944 -81.51 0.010035 167.86
8.81240000 0.010014 -150.8 0.999944 -81.51 0.999944 -81.51 0.010012 167.76
8.81260000 0.009991 -150.7 0.999944 -81.52 0.999944 -81.52 0.009989 167.67
8.81280000 0.009968 -150.6 0.999944 -81.52 0.999944 -81.52 0.009966 167.57
8.81300000 0.009945 -150.5 0.999944 -81.52 0.999944 -81.52 0.009943 167.47
8.81320000 0.009922 -150.4 0.999945 -81.53 0.999945 -81.53 0.009920 167.37
8.81340000 0.009898 -150.3 0.999945 -81.53 0.999945 -81.53 0.009896 167.27
8.81360000 0.009875 -150.2 0.999945 -81.54 0.999945 -81.54 0.009873 167.17
8.81380000 0.009851 -150.1 0.999945 -81.54 0.999945 -81.54 0.009849 167.06
8.81400000 0.009827 -150.0 0.999946 -81.54 0.999946 -81.54 0.009825 166.96
8.81420000 0.009803 -149.9 0.999946 -81.55 0.999946 -81.55 0.009802 166.86
8.81440000 0.009779 -149.8 0.999946 -81.55 0.999946 -81.55 0.009778 166.75
8.81460000 0.009755 -149.7 0.999946 -81.55 0.999946 -81.55 0.009753 166.64
8.81480000 0.009731 -149.6 0.999946 -81.56 0.999946 -81.56 0.009729 166.53
8.81500000 0.009707 -149.5 0.999947 -81.56 0.999947 -81.56 0.009705 166.43
8.81520000 0.009683 -149.4 0.999947 -81.56 0.999947 -81.56 0.009681 166.31
8.81540000 0.009658 -149.3 0.999947 -81.57 0.999947 -81.57 0.009656 166.20
8.81560000 0.009633 -149.2 0.999947 -81.57 0.999947 -81.57 0.009631 166.09
8.81580000 0.009609 -149.1 0.999947 -81.57 0.999947 -81.57 0.009607 165.98
8.81600000 0.009584 -149.0 0.999948 -81.58 0.999948 -81.58 0.009582 165.86
8.81620000 0.009559 -148.9 0.999948 -81.58 0.999948 -81.58 0.009557 165.74
8.81640000 0.009534 -148.8 0.999948 -81.59 0.999948 -81.59 0.009532 165.63
8.81660000 0.009509 -148.7 0.999948 -81.59 0.999948 -81.59 0.009506 165.51
8.81680000 0.009483 -148.6 0.999949 -81.59 0.999949 -81.59 0.009481 165.39
8.81700000 0.009458 -148.4 0.999949 -81.60 0.999949 -81.60 0.009456 165.26
8.81720000 0.009432 -148.3 0.999949 -81.60 0.999949 -81.60 0.009430 165.14
8.81740000 0.009407 -148.2 0.999949 -81.60 0.999949 -81.60 0.009404 165.01
8.81760000 0.009381 -148.1 0.999949 -81.61 0.999949 -81.61 0.009379 164.89
8.81780000 0.009355 -148.0 0.999950 -81.61 0.999950 -81.61 0.009353 164.76
8.81800000 0.009329 -147.9 0.999950 -81.61 0.999950 -81.61 0.009327 164.63
8.81820000 0.009303 -147.7 0.999950 -81.62 0.999950 -81.62 0.009300 164.50
8.81840000 0.009277 -147.6 0.999950 -81.62 0.999950 -81.62 0.009274 164.37
8.81860000 0.009250 -147.5 0.999951 -81.63 0.999951 -81.63 0.009248 164.23
8.81880000 0.009224 -147.4 0.999951 -81.63 0.999951 -81.63 0.009221 164.10
8.81900000 0.009197 -147.2 0.999951 -81.63 0.999951 -81.63 0.009195 163.96
8.81920000 0.009170 -147.1 0.999951 -81.64 0.999951 -81.64 0.009168 163.82
8.81940000 0.009144 -147.0 0.999951 -81.64 0.999951 -81.64 0.009141 163.68
8.81960000 0.009117 -146.8 0.999952 -81.64 0.999952 -81.64 0.009114 163.54
8.81980000 0.009089 -146.7 0.999952 -81.65 0.999952 -81.65 0.009087 163.40
8.82000000 0.009062 -146.5 0.999952 -81.65 0.999952 -81.65 0.009060 163.25
8.82020000 0.009035 -146.4 0.999952 -81.66 0.999952 -81.66 0.009032 163.10
8.82040000 0.009008 -146.3 0.999953 -81.66 0.999953 -81.66 0.009005 162.95
8.82060000 0.008980 -146.1 0.999953 -81.66 0.999953 -81.66 0.008977 162.80
8.82080000 0.008952 -146.0 0.999953 -81.67 0.999953 -81.67 0.008949 162.65
8.82100000 0.008924 -145.8 0.999953 -81.67 0.999953 -81.67 0.008922 162.50
8.82120000 0.008897 -145.7 0.999953 -81.68 0.999953 -81.68 0.008894 162.34
8.82140000 0.008868 -145.5 0.999954 -81.68 0.999954 -81.68 0.008866 162.18
8.82160000 0.008840 -145.4 0.999954 -81.68 0.999954 -81.68 0.008837 162.02
8.82180000 0.008812 -145.2 0.999954 -81.69 0.999954 -81.69 0.008809 161.86
8.82200000 0.008784 -145.1 0.999954 -81.69 0.999954 -81.69 0.008781 161.69
8.82220000 0.008755 -144.9 0.999955 -81.70 0.999955 -81.70 0.008752 161.52
8.82240000 0.008726 -144.7 0.999955 -81.70 0.999955 -81.70 0.008723 161.35
8.82260000 0.008698 -144.6 0.999955 -81.70 0.999955 -81.70 0.008695 161.18
8.82280000 0.008669 -144.4 0.999955 -81.71 0.999955 -81.71 0.008666 161.01
8.82300000 0.008640 -144.2 0.999955 -81.71 0.999955 -81.71 0.008637 160.83
8.82320000 0.008611 -144.1 0.999956 -81.72 0.999956 -81.72 0.008607 160.65
8.82340000 0.008581 -143.9 0.999956 -81.72 0.999956 -81.72 0.008578 160.47
8.82360000 0.008552 -143.7 0.999956 -81.72 0.999956 -81.72 0.008549 160.29
8.82380000 0.008523 -143.5 0.999956 -81.73 0.999956 -81.73 0.008519 160.10
8.82400000 0.008493 -143.4 0.999957 -81.73 0.999957 -81.73 0.008490 159.91
8.82420000 0.008463 -143.2 0.999957 -81.74 0.999957 -81.74 0.008460 159.72
8.82440000 0.008433 -143.0 0.999957 -81.74 0.999957 -81.74 0.008430 159.53
8.82460000 0.008404 -142.8 0.999957 -81.75 0.999957 -81.75 0.008400 159.33
8.82480000 0.008373 -142.6 0.999958 -81.75 0.999958 -81.75 0.008370 159.13
8.82500000 0.008343 -142.4 0.999958 -81.75 0.999958 -81.75 0.008340 158.93
8.82520000 0.008313 -142.2 0.999958 -81.76 0.999958 -81.76 0.008309 158.73
8.82540000 0.008283 -142.0 0.999958 -81.76 0.999958 -81.76 0.008279 158.52
8.82560000 0.008252 -141.8 0.999958 -81.77 0.999958 -81.77 0.008248 158.31
8.82580000 0.008222 -141.6 0.999959 -81.77 0.999959 -81.77 0.008218 158.09
8.82600000 0.008191 -141.4 0.999959 -81.78 0.999959 -81.78 0.008187 157.88
8.82620000 0.008160 -141.2 0.999959 -81.78 0.999959 -81.78 0.008156 157.66
8.82640000 0.008129 -141.0 0.999959 -81.78 0.999959 -81.78 0.008125 157.43
8.82660000 0.008098 -140.8 0.999959 -81.79 0.999959 -81.79 0.008094 157.21
8.82680000 0.008067 -140.5 0.999960 -81.79 0.999960 -81.79 0.008063 156.98
8.82700000 0.008036 -140.3 0.999960 -81.80 0.999960 -81.80 0.008031 156.74
8.82720000 0.008004 -140.1 0.999960 -81.80 0.999960 -81.80 0.008000 156.51
8.82740000 0.007973 -139.9 0.999960 -81.81 0.999960 -81.81 0.007969 156.27
8.82760000 0.007941 -139.6 0.999961 -81.81 0.999961 -81.81 0.007937 156.02
8.82780000 0.007910 -139.4 0.999961 -81.81 0.999961 -81.81 0.007905 155.77
8.82800000 0.007878 -139.1 0.999961 -81.82 0.999961 -81.82 0.007874 155.52
8.82820000 0.007846 -138.9 0.999961 -81.82 0.999961 -81.82 0.007842 155.27
8.82840000 0.007814 -138.6 0.999961 -81.83 0.999961 -81.83 0.007810 155.01
8.82860000 0.007782 -138.4 0.999962 -81.83 0.999962 -81.83 0.007778 154.74
8.82880000 0.007750 -138.1 0.999962 -81.84 0.999962 -81.84 0.007746 154.48
8.82900000 0.007718 -137.9 0.999962 -81.84 0.999962 -81.84 0.007713 154.21
8.82920000 0.007686 -137.6 0.999962 -81.85 0.999962 -81.85 0.007681 153.93
8.82940000 0.007654 -137.3 0.999962 -81.85 0.999962 -81.85 0.007649 153.65
8.82960000 0.007622 -137.1 0.999963 -81.86 0.999963 -81.86 0.007617 153.36
8.82980000 0.007589 -136.8 0.999963 -81.86 0.999963 -81.86 0.007584 153.07
8.83000000 0.007557 -136.5 0.999963 -81.87 0.999963 -81.87 0.007552 152.78
8.83020000 0.007524 -136.2 0.999963 -81.87 0.999963 -81.87 0.007519 152.48
8.83040000 0.007492 -135.9 0.999964 -81.87 0.999964 -81.87 0.007486 152.18
8.83060000 0.007459 -135.6 0.999964 -81.88 0.999964 -81.88 0.007454 151.87
8.83080000 0.007427 -135.3 0.999964 -81.88 0.999964 -81.88 0.007421 151.55
8.83100000 0.007394 -135.0 0.999964 -81.89 0.999964 -81.89 0.007388 151.23
8.83120000 0.007361 -134.7 0.999964 -81.89 0.999964 -81.89 0.007356 150.91
8.83140000 0.007328 -134.4 0.999965 -81.90 0.999965 -81.90 0.007323 150.58
8.83160000 0.007296 -134.0 0.999965 -81.90 0.999965 -81.90 0.007290 150.24
8.83180000 0.007263 -133.7 0.999965 -81.91 0.999965 -81.91 0.007257 149.90
8.83200000 0.007230 -133.4 0.999965 -81.91 0.999965 -81.91 0.007224 149.55
8.83220000 0.007197 -133.0 0.999965 -81.92 0.999965 -81.92 0.007191 149.20
8.83240000 0.007165 -132.7 0.999965 -81.92 0.999965 -81.92 0.007159 148.84
8.83260000 0.007132 -132.3 0.999966 -81.93 0.999966 -81.93 0.007126 148.48
8.83280000 0.007099 -131.9 0.999966 -81.93 0.999966 -81.93 0.007093 148.10
8.83300000 0.007067 -131.6 0.999966 -81.94 0.999966 -81.94 0.007060 147.73
8.83320000 0.007034 -131.2 0.999966 -81.94 0.999966 -81.94 0.007027 147.34
8.83340000 0.007001 -130.8 0.999966 -81.95 0.999966 -81.95 0.006995 146.95
8.83360000 0.006969 -130.4 0.999967 -81.95 0.999967 -81.95 0.006962 146.55
8.83380000 0.006936 -130.0 0.999967 -81.96 0.999967 -81.96 0.006929 146.14
8.83400000 0.006904 -129.6 0.999967 -81.96 0.999967 -81.96 0.006897 145.73
8.83420000 0.006872 -129.2 0.999967 -81.97 0.999967 -81.97 0.006864 145.31
8.83440000 0.006839 -128.8 0.999967 -81.98 0.999967 -81.98 0.006832 144.88
8.83460000 0.006807 -128.4 0.999967 -81.98 0.999967 -81.98 0.006800 144.45
8.83480000 0.006775 -128.0 0.999968 -81.99 0.999968 -81.99 0.006768 144.01
8.83500000 0.006743 -127.5 0.999968 -81.99 0.999968 -81.99 0.006736 143.56
8.83520000 0.006712 -127.1 0.999968 -82.00 0.999968 -82.00 0.006704 143.10
8.83540000 0.006680 -126.6 0.999968 -82.00 0.999968 -82.00 0.006672 142.63
8.83560000 0.006649 -126.1 0.999968 -82.01 0.999968 -82.01 0.006641 142.15
8.83580000 0.006617 -125.7 0.999968 -82.01 0.999968 -82.01 0.006609 141.67
8.83600000 0.006586 -125.2 0.999969 -82.02 0.999969 -82.02 0.006578 141.17
8.83620000 0.006556 -124.7 0.999969 -82.02 0.999969 -82.02 0.006547 140.67
8.83640000 0.006525 -124.2 0.999969 -82.03 0.999969 -82.03 0.006517 140.16
8.83660000 0.006495 -123.7 0.999969 -82.04 0.999969 -82.04 0.006486 139.64
8.83680000 0.006465 -123.2 0.999969 -82.04 0.999969 -82.04 0.006456 139.11
8.83700000 0.006435 -122.6 0.999969 -82.05 0.999969 -82.05 0.006426 138.57
8.83720000 0.006405 -122.1 0.999969 -82.05 0.999969 -82.05 0.006396 138.02
8.83740000 0.006376 -121.5 0.999969 -82.06 0.999969 -82.06 0.006367 137.46
8.83760000 0.006348 -121.0 0.999970 -82.06 0.999970 -82.06 0.006338 136.89
8.83780000 0.006319 -120.4 0.999970 -82.07 0.999970 -82.07 0.006310 136.31
8.83800000 0.006291 -119.8 0.999970 -82.08 0.999970 -82.08 0.006281 135.72
8.83820000 0.006263 -119.3 0.999970 -82.08 0.999970 -82.08 0.006254 135.12
8.83840000 0.006236 -118.7 0.999970 -82.09 0.999970 -82.09 0.006226 134.51
8.83860000 0.006210 -118.0 0.999970 -82.09 0.999970 -82.09 0.006199 133.88
8.83880000 0.006183 -117.4 0.999970 -82.10 0.999970 -82.10 0.006173 133.25
8.83900000 0.006158 -116.8 0.999970 -82.11 0.999970 -82.11 0.006147 132.60
8.83920000 0.006132 -116.1 0.999970 -82.11 0.999970 -82.11 0.006122 131.94
8.83940000 0.006108 -115.5 0.999970 -82.12 0.999970 -82.12 0.006097 131.27
8.83960000 0.006084 -114.8 0.999971 -82.12 0.999971 -82.12 0.006073 130.59
8.83980000 0.006060 -114.1 0.999971 -82.13 0.999971 -82.13 0.006049 129.90
8.84000000 0.006038 -113.4 0.999971 -82.14 0.999971 -82.14 0.006027 129.20
8.84020000 0.006016 -112.7 0.999971 -82.14 0.999971 -82.14 0.006004 128.48
8.84040000 0.005994 -112.0 0.999971 -82.15 0.999971 -82.15 0.005983 127.75
8.84060000 0.005974 -111.3 0.999971 -82.16 0.999971 -82.16 0.005962 127.01
8.84080000 0.005954 -110.6 0.999971 -82.16 0.999971 -82.16 0.005942 126.26
8.84100000 0.005935 -109.8 0.999971 -82.17 0.999971 -82.17 0.005923 125.49
8.84120000 0.005917 -109.0 0.999971 -82.17 0.999971 -82.17 0.005905 124.71
8.84140000 0.005900 -108.3 0.999971 -82.18 0.999971 -82.18 0.005888 123.92
8.84160000 0.005884 -107.5 0.999971 -82.19 0.999971 -82.19 0.005871 123.12
8.84180000 0.005869 -106.7 0.999971 -82.19 0.999971 -82.19 0.005856 122.31
8.84200000 0.005855 -105.9 0.999971 -82.20 0.999971 -82.20 0.005842 121.48
8.84220000 0.005842 -105.0 0.999971 -82.21 0.999971 -82.21 0.005829 120.64
8.84240000 0.005830 -104.2 0.999971 -82.21 0.999971 -82.21 0.005816 119.79
8.84260000 0.005819 -103.4 0.999971 -82.22 0.999971 -82.22 0.005805 118.92
8.84280000 0.005809 -102.5 0.999971 -82.23 0.999971 -82.23 0.005796 118.05
8.84300000 0.005801 -101.6 0.999971 -82.24 0.999971 -82.24 0.005787 117.16
8.84320000 0.005794 -100.7 0.999971 -82.24 0.999971 -82.24 0.005780 116.26
8.84340000 0.005789 -99.85 0.999971 -82.25 0.999971 -82.25 0.005774 115.35
8.84360000 0.005784 -98.95 0.999971 -82.26 0.999971 -82.26 0.005770 114.43
8.84380000 0.005782 -98.03 0.999971 -82.26 0.999971 -82.26 0.005767 113.50
8.84400000 0.005780 -97.11 0.999970 -82.27 0.999970 -82.27 0.005765 112.55
8.84420000 0.005781 -96.17 0.999970 -82.28 0.999970 -82.28 0.005765 111.60
8.84440000 0.005782 -95.22 0.999970 -82.29 0.999970 -82.29 0.005767 110.64
8.84460000 0.005786 -94.27 0.999970 -82.29 0.999970 -82.29 0.005770 109.66
8.84480000 0.005791 -93.30 0.999970 -82.30 0.999970 -82.30 0.005775 108.68
8.84500000 0.005798 -92.33 0.999970 -82.31 0.999970 -82.31 0.005782 107.69
8.84520000 0.005807 -91.35 0.999970 -82.32 0.999970 -82.32 0.005791 106.69
8.84540000 0.005817 -90.36 0.999969 -82.32 0.999969 -82.32 0.005801 105.69
8.84560000 0.005830 -89.37 0.999969 -82.33 0.999969 -82.33 0.005813 104.67
8.84580000 0.005844 -88.37 0.999969 -82.34 0.999969 -82.34 0.005828 103.65
8.84600000 0.005861 -87.36 0.999969 -82.35 0.999969 -82.35 0.005844 102.63
8.84620000 0.005879 -86.35 0.999969 -82.35 0.999969 -82.35 0.005862 101.60
8.84640000 0.005900 -85.33 0.999968 -82.36 0.999968 -82.36 0.005883 100.56
8.84660000 0.005922 -84.31 0.999968 -82.37 0.999968 -82.37 0.005905 99.518
8.84680000 0.005947 -83.28 0.999968 -82.38 0.999968 -82.38 0.005930 98.474
8.84700000 0.005974 -82.26 0.999968 -82.39 0.999968 -82.39 0.005957 97.426
8.84720000 0.006004 -81.23 0.999967 -82.40 0.999967 -82.40 0.005986 96.377
8.84740000 0.006036 -80.20 0.999967 -82.40 0.999967 -82.40 0.006018 95.326
8.84760000 0.006070 -79.16 0.999967 -82.41 0.999967 -82.41 0.006052 94.274
8.84780000 0.006106 -78.13 0.999966 -82.42 0.999966 -82.42 0.006088 93.222
8.84800000 0.006145 -77.10 0.999966 -82.43 0.999966 -82.43 0.006127 92.170
8.84820000 0.006187 -76.07 0.999965 -82.44 0.999965 -82.44 0.006168 91.120
8.84840000 0.006231 -75.04 0.999965 -82.45 0.999965 -82.45 0.006212 90.072
8.84860000 0.006277 -74.02 0.999965 -82.46 0.999965 -82.46 0.006259 89.026
8.84880000 0.006326 -73.00 0.999964 -82.46 0.999964 -82.46 0.006308 87.983
8.84900000 0.006378 -71.98 0.999964 -82.47 0.999964 -82.47 0.006360 86.944
8.84920000 0.006433 -70.97 0.999963 -82.48 0.999963 -82.48 0.006414 85.910
8.84940000 0.006490 -69.96 0.999963 -82.49 0.999963 -82.49 0.006471 84.881
8.84960000 0.006550 -68.96 0.999962 -82.50 0.999962 -82.50 0.006531 83.857
8.84980000 0.006613 -67.96 0.999961 -82.51 0.999961 -82.51 0.006594 82.840
8.85000000 0.006679 -66.98 0.999961 -82.52 0.999961 -82.52 0.006659 81.830
8.85020000 0.006747 -66.00 0.999960 -82.53 0.999960 -82.53 0.006728 80.827
8.85040000 0.006818 -65.02 0.999960 -82.54 0.999960 -82.54 0.006799 79.832
8.85060000 0.006893 -64.06 0.999959 -82.55 0.999959 -82.55 0.006873 78.846
8.85080000 0.006970 -63.10 0.999958 -82.56 0.999958 -82.56 0.006950 77.868
8.85100000 0.007050 -62.16 0.999957 -82.57 0.999957 -82.57 0.007031 76.899
8.85120000 0.007133 -61.22 0.999957 -82.58 0.999957 -82.58 0.007114 75.940
8.85140000 0.007220 -60.30 0.999956 -82.59 0.999956 -82.59 0.007200 74.991
8.85160000 0.007309 -59.38 0.999955 -82.60 0.999955 -82.60 0.007289 74.053
8.85170534 0.007357 -58.90 0.999955 -82.60 0.999955 -82.60 0.007337 73.563
8.85180000 0.007401 -58.48 0.999954 -82.61 0.999954 -82.61 0.007382 73.125
8.85200000 0.007497 -57.58 0.999953 -82.62 0.999953 -82.62 0.007477 72.208
8.85220000 0.007596 -56.70 0.999952 -82.63 0.999952 -82.63 0.007576 71.302
8.85239452 0.007695 -55.86 0.999951 -82.64 0.999951 -82.64 0.007675 70.432
8.85240000 0.007697 -55.83 0.999951 -82.64 0.999951 -82.64 0.007677 70.407
8.85260000 0.007802 -54.97 0.999950 -82.65 0.999950 -82.65 0.007782 69.524
8.85280000 0.007911 -54.13 0.999949 -82.66 0.999949 -82.66 0.007891 68.653
8.85300000 0.008022 -53.29 0.999948 -82.67 0.999948 -82.67 0.008002 67.794
8.85306790 0.008061 -53.01 0.999948 -82.68 0.999948 -82.68 0.008041 67.505
8.85320000 0.008137 -52.47 0.999947 -82.69 0.999947 -82.69 0.008117 66.946
8.85340000 0.008255 -51.66 0.999946 -82.70 0.999946 -82.70 0.008235 66.111
8.85360000 0.008377 -50.86 0.999944 -82.71 0.999944 -82.71 0.008357 65.287
8.85372586 0.008455 -50.36 0.999944 -82.72 0.999944 -82.72 0.008435 64.776
8.85380000 0.008502 -50.07 0.999943 -82.72 0.999943 -82.72 0.008482 64.476
8.85400000 0.008630 -49.30 0.999942 -82.73 0.999942 -82.73 0.008610 63.677
8.85420000 0.008762 -48.54 0.999940 -82.74 0.999940 -82.74 0.008742 62.891
8.85436874 0.008876 -47.91 0.999939 -82.75 0.999939 -82.75 0.008856 62.236
8.85440000 0.008897 -47.79 0.999939 -82.76 0.999939 -82.76 0.008877 62.116
8.85460000 0.009036 -47.06 0.999937 -82.77 0.999937 -82.77 0.009016 61.354
8.85480000 0.009179 -46.33 0.999936 -82.78 0.999936 -82.78 0.009159 60.603
8.85499689 0.009323 -45.63 0.999934 -82.79 0.999934 -82.79 0.009303 59.876
8.85500000 0.009325 -45.62 0.999934 -82.79 0.999934 -82.79 0.009305 59.865
8.85520000 0.009475 -44.92 0.999932 -82.81 0.999932 -82.81 0.009455 59.138
8.85540000 0.009628 -44.23 0.999931 -82.82 0.999931 -82.82 0.009608 58.424
8.85560000 0.009786 -43.56 0.999929 -82.83 0.999929 -82.83 0.009766 57.721
8.85561064 0.009794 -43.52 0.999929 -82.83 0.999929 -82.83 0.009774 57.684
8.85580000 0.009947 -42.89 0.999927 -82.84 0.999927 -82.84 0.009927 57.030
8.85600000 0.010112 -42.24 0.999925 -82.86 0.999925 -82.86 0.010092 56.351
8.85620000 0.010281 -41.60 0.999923 -82.87 0.999923 -82.87 0.010261 55.682
8.85621034 0.010290 -41.57 0.999923 -82.87 0.999923 -82.87 0.010269 55.648
8.85640000 0.010454 -40.98 0.999921 -82.89 0.999921 -82.89 0.010434 55.025
8.85660000 0.010631 -40.36 0.999919 -82.90 0.999919 -82.90 0.010611 54.380
8.85679629 0.010808 -39.77 0.999916 -82.91 0.999916 -82.91 0.010788 53.757
8.85680000 0.010812 -39.75 0.999916 -82.91 0.999916 -82.91 0.010792 53.745
8.85700000 0.010997 -39.16 0.999914 -82.93 0.999914 -82.93 0.010977 53.121
8.85720000 0.011187 -38.58 0.999911 -82.94 0.999911 -82.94 0.011166 52.507
8.85736881 0.011350 -38.09 0.999909 -82.96 0.999909 -82.96 0.011330 51.998
8.85740000 0.011381 -38.00 0.999909 -82.96 0.999909 -82.96 0.011360 51.905
8.85760000 0.011579 -37.44 0.999906 -82.97 0.999906 -82.97 0.011558 51.312
8.85780000 0.011781 -36.89 0.999903 -82.99 0.999903 -82.99 0.011761 50.729
8.85792822 0.011914 -36.54 0.999902 -83.00 0.999902 -83.00 0.011893 50.361
8.85800000 0.011989 -36.35 0.999901 -83.00 0.999901 -83.00 0.011968 50.157
8.85820000 0.012201 -35.82 0.999898 -83.02 0.999898 -83.02 0.012180 49.594
8.85840000 0.012417 -35.30 0.999895 -83.03 0.999895 -83.03 0.012397 49.041
8.85847481 0.012500 -35.11 0.999893 -83.04 0.999893 -83.04 0.012479 48.837
8.85860000 0.012639 -34.79 0.999891 -83.05 0.999891 -83.05 0.012618 48.497
8.85880000 0.012865 -34.29 0.999888 -83.07 0.999888 -83.07 0.012845 47.963
8.85900000 0.013096 -33.80 0.999885 -83.08 0.999885 -83.08 0.013076 47.438
8.85900887 0.013107 -33.78 0.999884 -83.08 0.999884 -83.08 0.013086 47.415
8.85920000 0.013333 -33.32 0.999881 -83.10 0.999881 -83.10 0.013312 46.921
8.85940000 0.013575 -32.85 0.999877 -83.12 0.999877 -83.12 0.013554 46.413
8.85953070 0.013736 -32.54 0.999875 -83.13 0.999875 -83.13 0.013715 46.086
8.85960000 0.013822 -32.38 0.999873 -83.14 0.999873 -83.14 0.013801 45.914
8.85980000 0.014074 -31.93 0.999869 -83.15 0.999869 -83.15 0.014054 45.423
8.86000000 0.014333 -31.48 0.999865 -83.17 0.999865 -83.17 0.014312 44.941
8.86004056 0.014386 -31.39 0.999864 -83.17 0.999864 -83.17 0.014365 44.844
8.86020000 0.014596 -31.04 0.999861 -83.19 0.999861 -83.19 0.014576 44.466
8.86040000 0.014866 -30.62 0.999856 -83.21 0.999856 -83.21 0.014845 43.999
8.86053875 0.015057 -30.32 0.999853 -83.22 0.999853 -83.22 0.015036 43.680
8.86060000 0.015142 -30.20 0.999851 -83.23 0.999851 -83.23 0.015121 43.540
8.86080000 0.015424 -29.78 0.999847 -83.25 0.999847 -83.25 0.015403 43.088
8.86100000 0.015712 -29.38 0.999841 -83.27 0.999841 -83.27 0.015691 42.644
8.86102552 0.015749 -29.33 0.999841 -83.27 0.999841 -83.27 0.015728 42.588
8.86120000 0.016007 -28.98 0.999836 -83.29 0.999836 -83.29 0.015986 42.207
8.86140000 0.016308 -28.59 0.999831 -83.31 0.999831 -83.31 0.016287 41.776
8.86150114 0.016463 -28.40 0.999828 -83.32 0.999828 -83.32 0.016442 41.561
8.86160000 0.016616 -28.21 0.999825 -83.33 0.999825 -83.33 0.016595 41.353
8.86180000 0.016931 -27.84 0.999819 -83.35 0.999819 -83.35 0.016910 40.936
8.86196586 0.017198 -27.54 0.999814 -83.37 0.999814 -83.37 0.017177 40.596
8.86200000 0.017253 -27.47 0.999813 -83.37 0.999813 -83.37 0.017232 40.526
8.86220000 0.017583 -27.11 0.999806 -83.39 0.999806 -83.39 0.017562 40.122
8.86240000 0.017920 -26.76 0.999800 -83.41 0.999800 -83.41 0.017899 39.724
8.86241993 0.017954 -26.73 0.999799 -83.42 0.999799 -83.42 0.017933 39.685
8.86260000 0.018265 -26.42 0.999793 -83.44 0.999793 -83.44 0.018244 39.333
8.86280000 0.018618 -26.08 0.999785 -83.46 0.999785 -83.46 0.018597 38.947
8.86286359 0.018732 -25.97 0.999783 -83.47 0.999783 -83.47 0.018710 38.825
8.86300000 0.018979 -25.75 0.999778 -83.48 0.999778 -83.48 0.018958 38.567
8.86320000 0.019349 -25.42 0.999770 -83.51 0.999770 -83.51 0.019327 38.192
8.86329709 0.019532 -25.27 0.999766 -83.52 0.999766 -83.52 0.019510 38.012
8.86340000 0.019727 -25.10 0.999761 -83.53 0.999761 -83.53 0.019706 37.823
8.86360000 0.020115 -24.79 0.999753 -83.56 0.999753 -83.56 0.020093 37.460
8.86372066 0.020353 -24.60 0.999747 -83.57 0.999747 -83.57 0.020332 37.243
8.86380000 0.020512 -24.48 0.999744 -83.58 0.999744 -83.58 0.020490 37.101
8.86400000 0.020919 -24.18 0.999734 -83.61 0.999734 -83.61 0.020897 36.747
8.86413452 0.021198 -23.98 0.999728 -83.63 0.999728 -83.63 0.021176 36.512
8.86420000 0.021335 -23.89 0.999725 -83.63 0.999725 -83.63 0.021313 36.399
8.86440000 0.021762 -23.60 0.999714 -83.66 0.999714 -83.66 0.021740 36.055
8.86453890 0.022064 -23.40 0.999707 -83.68 0.999707 -83.68 0.022042 35.819
8.86460000 0.022199 -23.32 0.999704 -83.69 0.999704 -83.69 0.022177 35.716
8.86480000 0.022647 -23.04 0.999693 -83.72 0.999693 -83.72 0.022625 35.381
8.86493401 0.022954 -22.86 0.999685 -83.74 0.999685 -83.74 0.022932 35.159
8.86500000 0.023107 -22.77 0.999681 -83.75 0.999681 -83.75 0.023085 35.050
8.86520000 0.023578 -22.51 0.999669 -83.78 0.999669 -83.78 0.023556 34.724
8.86532007 0.023867 -22.35 0.999661 -83.80 0.999661 -83.80 0.023845 34.530
8.86540000 0.024062 -22.25 0.999656 -83.81 0.999656 -83.81 0.024039 34.402
8.86560000 0.024558 -21.99 0.999643 -83.84 0.999643 -83.84 0.024535 34.084
8.86569728 0.024804 -21.87 0.999636 -83.85 0.999636 -83.85 0.024781 33.930
8.86580000 0.025067 -21.74 0.999629 -83.87 0.999629 -83.87 0.025044 33.769
8.86600000 0.025590 -21.50 0.999614 -83.90 0.999614 -83.90 0.025567 33.459
8.86606585 0.025765 -21.42 0.999609 -83.91 0.999609 -83.91 0.025742 33.357
8.86620000 0.026126 -21.26 0.999599 -83.94 0.999599 -83.94 0.026103 33.152
8.86640000 0.026678 -21.03 0.999583 -83.97 0.999583 -83.97 0.026654 32.848
8.86642598 0.026750 -21.00 0.999581 -83.98 0.999581 -83.98 0.026727 32.809
8.86660000 0.027244 -20.80 0.999566 -84.01 0.999566 -84.01 0.027221 32.548
8.86677785 0.027761 -20.60 0.999550 -84.04 0.999550 -84.04 0.027737 32.284
8.86680000 0.027826 -20.57 0.999548 -84.04 0.999548 -84.04 0.027803 32.251
8.86700000 0.028425 -20.36 0.999530 -84.08 0.999530 -84.08 0.028401 31.957
8.86712166 0.028797 -20.23 0.999518 -84.10 0.999518 -84.10 0.028773 31.780
8.86720000 0.029040 -20.14 0.999510 -84.12 0.999510 -84.12 0.029016 31.666
8.86740000 0.029673 -19.93 0.999490 -84.16 0.999490 -84.16 0.029649 31.378
8.86745759 0.029859 -19.88 0.999484 -84.17 0.999484 -84.17 0.029835 31.296
8.86760000 0.030324 -19.73 0.999468 -84.20 0.999468 -84.20 0.030300 31.093
8.86778582 0.030947 -19.55 0.999447 -84.23 0.999447 -84.23 0.030923 30.830
8.86780000 0.030995 -19.53 0.999446 -84.24 0.999446 -84.24 0.030971 30.810
8.86800000 0.031686 -19.34 0.999422 -84.28 0.999422 -84.28 0.031661 30.530
8.86810654 0.032062 -19.24 0.999409 -84.30 0.999409 -84.30 0.032038 30.381
8.86820000 0.032397 -19.15 0.999397 -84.32 0.999397 -84.32 0.032373 30.252
8.86840000 0.033131 -18.96 0.999371 -84.37 0.999371 -84.37 0.033106 29.976
8.86841990 0.033205 -18.95 0.999368 -84.37 0.999368 -84.37 0.033180 29.949
8.86860000 0.033887 -18.78 0.999343 -84.41 0.999343 -84.41 0.033862 29.703
8.86872608 0.034376 -18.67 0.999325 -84.44 0.999325 -84.44 0.034351 29.531
8.86880000 0.034667 -18.61 0.999314 -84.46 0.999314 -84.46 0.034642 29.431
8.86900000 0.035472 -18.44 0.999283 -84.51 0.999283 -84.51 0.035446 29.161
8.86902525 0.035576 -18.42 0.999279 -84.51 0.999279 -84.51 0.035550 29.127
8.86920000 0.036303 -18.27 0.999251 -84.56 0.999251 -84.56 0.036277 28.893
8.86931756 0.036805 -18.18 0.999231 -84.59 0.999231 -84.59 0.036778 28.736
8.86940000 0.037162 -18.11 0.999216 -84.61 0.999216 -84.61 0.037136 28.626
8.86960000 0.038049 -17.96 0.999180 -84.66 0.999180 -84.66 0.038022 28.361
8.86960318 0.038063 -17.96 0.999179 -84.66 0.999179 -84.66 0.038037 28.357
8.86980000 0.038966 -17.81 0.999141 -84.72 0.999141 -84.72 0.038939 28.097
8.86988225 0.039353 -17.75 0.999125 -84.74 0.999125 -84.74 0.039326 27.989
8.87000000 0.039915 -17.66 0.999101 -84.77 0.999101 -84.77 0.039888 27.835
8.87015493 0.040673 -17.55 0.999067 -84.82 0.999067 -84.82 0.040646 27.632