! Sonnet Data File
! From: emgraph Version : 16.52
! From Project: Resonator2_cp_varyW
! Data is De-embedded 
! Data File Written: 10/07/2017 23:12:07
!< HDATE 10/07/2017 13:09:30
!< MDATE 10/07/2017 13:09:30
!< PARAMS
!< gap = 6.0
!< Length = 400.0
!< Pwid1 = 2000.0
!< Pwid2 = 2000.0
!< Air_gap = 12.0
!< Width = 20.0
!< END PARAMS
# GHZ S MA R 51.80000
8.80000000 0.014733 -171.1 0.999888 -80.86 0.999888 -80.86 0.014733 -170.7
!< P1 F=8.8 Eeff=(6.44629866 -2.9719e-5) Z0=(50.907433 1.17455e-4) R=0.0 C=0.0 
!< P2 F=8.8 Eeff=(6.44629866 -2.9719e-5) Z0=(50.907433 1.17455e-4) R=0.0 C=0.0 
8.80020000 0.014735 -171.1 0.999888 -80.87 0.999888 -80.87 0.014735 -170.7
8.80040000 0.014738 -171.1 0.999888 -80.87 0.999888 -80.87 0.014738 -170.7
8.80060000 0.014741 -171.1 0.999888 -80.87 0.999888 -80.87 0.014741 -170.7
8.80080000 0.014744 -171.1 0.999888 -80.87 0.999888 -80.87 0.014744 -170.7
8.80100000 0.014746 -171.1 0.999888 -80.87 0.999888 -80.87 0.014746 -170.7
8.80120000 0.014749 -171.1 0.999888 -80.88 0.999888 -80.88 0.014749 -170.7
8.80140000 0.014752 -171.1 0.999888 -80.88 0.999888 -80.88 0.014752 -170.7
8.80160000 0.014755 -171.1 0.999888 -80.88 0.999888 -80.88 0.014755 -170.7
8.80180000 0.014757 -171.1 0.999888 -80.88 0.999888 -80.88 0.014758 -170.7
8.80200000 0.014760 -171.1 0.999888 -80.88 0.999888 -80.88 0.014760 -170.7
8.80220000 0.014763 -171.1 0.999887 -80.89 0.999887 -80.89 0.014763 -170.7
8.80240000 0.014766 -171.1 0.999887 -80.89 0.999887 -80.89 0.014766 -170.7
8.80260000 0.014769 -171.1 0.999887 -80.89 0.999887 -80.89 0.014769 -170.7
8.80280000 0.014771 -171.1 0.999887 -80.89 0.999887 -80.89 0.014772 -170.7
8.80300000 0.014774 -171.2 0.999887 -80.89 0.999887 -80.89 0.014774 -170.7
8.80320000 0.014777 -171.2 0.999887 -80.90 0.999887 -80.90 0.014777 -170.7
8.80340000 0.014780 -171.2 0.999887 -80.90 0.999887 -80.90 0.014780 -170.7
8.80360000 0.014783 -171.2 0.999887 -80.90 0.999887 -80.90 0.014783 -170.7
8.80380000 0.014786 -171.2 0.999887 -80.90 0.999887 -80.90 0.014786 -170.7
8.80400000 0.014789 -171.2 0.999887 -80.90 0.999887 -80.90 0.014789 -170.7
8.80420000 0.014791 -171.2 0.999887 -80.91 0.999887 -80.91 0.014792 -170.6
8.80440000 0.014794 -171.2 0.999887 -80.91 0.999887 -80.91 0.014795 -170.6
8.80460000 0.014797 -171.2 0.999887 -80.91 0.999887 -80.91 0.014797 -170.6
8.80480000 0.014800 -171.2 0.999887 -80.91 0.999887 -80.91 0.014800 -170.6
8.80500000 0.014803 -171.2 0.999887 -80.91 0.999887 -80.91 0.014803 -170.6
8.80520000 0.014806 -171.2 0.999887 -80.92 0.999887 -80.92 0.014806 -170.6
8.80540000 0.014809 -171.2 0.999887 -80.92 0.999887 -80.92 0.014809 -170.6
8.80560000 0.014812 -171.2 0.999887 -80.92 0.999887 -80.92 0.014812 -170.6
8.80580000 0.014815 -171.2 0.999887 -80.92 0.999887 -80.92 0.014815 -170.6
8.80600000 0.014818 -171.2 0.999887 -80.93 0.999887 -80.93 0.014818 -170.6
8.80620000 0.014821 -171.2 0.999887 -80.93 0.999887 -80.93 0.014821 -170.6
8.80640000 0.014824 -171.2 0.999887 -80.93 0.999887 -80.93 0.014824 -170.6
8.80660000 0.014827 -171.2 0.999886 -80.93 0.999886 -80.93 0.014827 -170.6
8.80680000 0.014830 -171.3 0.999886 -80.93 0.999886 -80.93 0.014830 -170.6
8.80700000 0.014833 -171.3 0.999886 -80.94 0.999886 -80.94 0.014833 -170.6
8.80720000 0.014836 -171.3 0.999886 -80.94 0.999886 -80.94 0.014836 -170.6
8.80740000 0.014839 -171.3 0.999886 -80.94 0.999886 -80.94 0.014839 -170.6
8.80760000 0.014842 -171.3 0.999886 -80.94 0.999886 -80.94 0.014842 -170.6
8.80780000 0.014845 -171.3 0.999886 -80.94 0.999886 -80.94 0.014845 -170.6
8.80800000 0.014848 -171.3 0.999886 -80.95 0.999886 -80.95 0.014848 -170.6
8.80820000 0.014851 -171.3 0.999886 -80.95 0.999886 -80.95 0.014851 -170.6
8.80840000 0.014854 -171.3 0.999886 -80.95 0.999886 -80.95 0.014854 -170.6
8.80860000 0.014857 -171.3 0.999886 -80.95 0.999886 -80.95 0.014857 -170.6
8.80880000 0.014860 -171.3 0.999886 -80.95 0.999886 -80.95 0.014860 -170.6
8.80900000 0.014863 -171.3 0.999886 -80.96 0.999886 -80.96 0.014863 -170.6
8.80920000 0.014866 -171.3 0.999886 -80.96 0.999886 -80.96 0.014866 -170.6
8.80940000 0.014869 -171.3 0.999886 -80.96 0.999886 -80.96 0.014869 -170.6
8.80960000 0.014872 -171.3 0.999886 -80.96 0.999886 -80.96 0.014872 -170.6
8.80980000 0.014875 -171.3 0.999886 -80.96 0.999886 -80.96 0.014875 -170.6
8.81000000 0.014878 -171.3 0.999886 -80.97 0.999886 -80.97 0.014878 -170.6
8.81020000 0.014881 -171.3 0.999886 -80.97 0.999886 -80.97 0.014881 -170.6
8.81040000 0.014884 -171.4 0.999886 -80.97 0.999886 -80.97 0.014885 -170.6
8.81060000 0.014888 -171.4 0.999886 -80.97 0.999886 -80.97 0.014888 -170.6
8.81080000 0.014891 -171.4 0.999886 -80.97 0.999886 -80.97 0.014891 -170.6
8.81100000 0.014894 -171.4 0.999885 -80.98 0.999885 -80.98 0.014894 -170.6
8.81120000 0.014897 -171.4 0.999885 -80.98 0.999885 -80.98 0.014897 -170.6
8.81140000 0.014900 -171.4 0.999885 -80.98 0.999885 -80.98 0.014900 -170.6
8.81160000 0.014903 -171.4 0.999885 -80.98 0.999885 -80.98 0.014903 -170.6
8.81180000 0.014906 -171.4 0.999885 -80.98 0.999885 -80.98 0.014907 -170.6
8.81200000 0.014910 -171.4 0.999885 -80.99 0.999885 -80.99 0.014910 -170.6
8.81220000 0.014913 -171.4 0.999885 -80.99 0.999885 -80.99 0.014913 -170.6
8.81240000 0.014916 -171.4 0.999885 -80.99 0.999885 -80.99 0.014916 -170.6
8.81260000 0.014919 -171.4 0.999885 -80.99 0.999885 -80.99 0.014919 -170.6
8.81280000 0.014922 -171.4 0.999885 -80.99 0.999885 -80.99 0.014923 -170.6
8.81300000 0.014926 -171.4 0.999885 -81.00 0.999885 -81.00 0.014926 -170.6
8.81320000 0.014929 -171.4 0.999885 -81.00 0.999885 -81.00 0.014929 -170.6
8.81340000 0.014932 -171.4 0.999885 -81.00 0.999885 -81.00 0.014932 -170.6
8.81360000 0.014935 -171.4 0.999885 -81.00 0.999885 -81.00 0.014936 -170.6
8.81380000 0.014939 -171.5 0.999885 -81.00 0.999885 -81.00 0.014939 -170.6
8.81400000 0.014942 -171.5 0.999885 -81.01 0.999885 -81.01 0.014942 -170.6
8.81420000 0.014945 -171.5 0.999885 -81.01 0.999885 -81.01 0.014945 -170.6
8.81440000 0.014949 -171.5 0.999885 -81.01 0.999885 -81.01 0.014949 -170.6
8.81460000 0.014952 -171.5 0.999885 -81.01 0.999885 -81.01 0.014952 -170.6
8.81480000 0.014955 -171.5 0.999885 -81.01 0.999885 -81.01 0.014955 -170.6
8.81500000 0.014958 -171.5 0.999884 -81.02 0.999884 -81.02 0.014959 -170.6
8.81520000 0.014962 -171.5 0.999884 -81.02 0.999884 -81.02 0.014962 -170.6
8.81540000 0.014965 -171.5 0.999884 -81.02 0.999884 -81.02 0.014965 -170.6
8.81560000 0.014969 -171.5 0.999884 -81.02 0.999884 -81.02 0.014969 -170.6
8.81580000 0.014972 -171.5 0.999884 -81.02 0.999884 -81.02 0.014972 -170.6
8.81600000 0.014975 -171.5 0.999884 -81.03 0.999884 -81.03 0.014975 -170.6
8.81620000 0.014979 -171.5 0.999884 -81.03 0.999884 -81.03 0.014979 -170.6
8.81640000 0.014982 -171.5 0.999884 -81.03 0.999884 -81.03 0.014982 -170.6
8.81660000 0.014985 -171.5 0.999884 -81.03 0.999884 -81.03 0.014986 -170.6
8.81680000 0.014989 -171.5 0.999884 -81.03 0.999884 -81.03 0.014989 -170.5
8.81700000 0.014992 -171.5 0.999884 -81.04 0.999884 -81.04 0.014992 -170.5
8.81720000 0.014996 -171.6 0.999884 -81.04 0.999884 -81.04 0.014996 -170.5
8.81740000 0.014999 -171.6 0.999884 -81.04 0.999884 -81.04 0.014999 -170.5
8.81760000 0.015002 -171.6 0.999884 -81.04 0.999884 -81.04 0.015003 -170.5
8.81780000 0.015006 -171.6 0.999884 -81.04 0.999884 -81.04 0.015006 -170.5
8.81800000 0.015009 -171.6 0.999884 -81.05 0.999884 -81.05 0.015010 -170.5
8.81820000 0.015013 -171.6 0.999884 -81.05 0.999884 -81.05 0.015013 -170.5
8.81840000 0.015016 -171.6 0.999884 -81.05 0.999884 -81.05 0.015016 -170.5
8.81860000 0.015020 -171.6 0.999884 -81.05 0.999884 -81.05 0.015020 -170.5
8.81880000 0.015023 -171.6 0.999883 -81.05 0.999883 -81.05 0.015023 -170.5
8.81900000 0.015027 -171.6 0.999883 -81.06 0.999883 -81.06 0.015027 -170.5
8.81920000 0.015030 -171.6 0.999883 -81.06 0.999883 -81.06 0.015030 -170.5
8.81940000 0.015034 -171.6 0.999883 -81.06 0.999883 -81.06 0.015034 -170.5
8.81960000 0.015037 -171.6 0.999883 -81.06 0.999883 -81.06 0.015038 -170.5
8.81980000 0.015041 -171.6 0.999883 -81.07 0.999883 -81.07 0.015041 -170.5
8.82000000 0.015044 -171.6 0.999883 -81.07 0.999883 -81.07 0.015045 -170.5
8.82020000 0.015048 -171.6 0.999883 -81.07 0.999883 -81.07 0.015048 -170.5
8.82040000 0.015052 -171.6 0.999883 -81.07 0.999883 -81.07 0.015052 -170.5
8.82060000 0.015055 -171.7 0.999883 -81.07 0.999883 -81.07 0.015055 -170.5
8.82080000 0.015059 -171.7 0.999883 -81.08 0.999883 -81.08 0.015059 -170.5
8.82100000 0.015062 -171.7 0.999883 -81.08 0.999883 -81.08 0.015063 -170.5
8.82120000 0.015066 -171.7 0.999883 -81.08 0.999883 -81.08 0.015066 -170.5
8.82140000 0.015070 -171.7 0.999883 -81.08 0.999883 -81.08 0.015070 -170.5
8.82160000 0.015073 -171.7 0.999883 -81.08 0.999883 -81.08 0.015073 -170.5
8.82180000 0.015077 -171.7 0.999883 -81.09 0.999883 -81.09 0.015077 -170.5
8.82200000 0.015081 -171.7 0.999883 -81.09 0.999883 -81.09 0.015081 -170.5
8.82220000 0.015084 -171.7 0.999883 -81.09 0.999883 -81.09 0.015084 -170.5
8.82240000 0.015088 -171.7 0.999882 -81.09 0.999882 -81.09 0.015088 -170.5
8.82260000 0.015092 -171.7 0.999882 -81.09 0.999882 -81.09 0.015092 -170.5
8.82280000 0.015095 -171.7 0.999882 -81.10 0.999882 -81.10 0.015096 -170.5
8.82300000 0.015099 -171.7 0.999882 -81.10 0.999882 -81.10 0.015099 -170.5
8.82320000 0.015103 -171.7 0.999882 -81.10 0.999882 -81.10 0.015103 -170.5
8.82340000 0.015107 -171.7 0.999882 -81.10 0.999882 -81.10 0.015107 -170.5
8.82360000 0.015110 -171.7 0.999882 -81.10 0.999882 -81.10 0.015110 -170.5
8.82380000 0.015114 -171.8 0.999882 -81.11 0.999882 -81.11 0.015114 -170.5
8.82400000 0.015118 -171.8 0.999882 -81.11 0.999882 -81.11 0.015118 -170.5
8.82420000 0.015122 -171.8 0.999882 -81.11 0.999882 -81.11 0.015122 -170.5
8.82440000 0.015125 -171.8 0.999882 -81.11 0.999882 -81.11 0.015126 -170.5
8.82460000 0.015129 -171.8 0.999882 -81.11 0.999882 -81.11 0.015129 -170.5
8.82480000 0.015133 -171.8 0.999882 -81.12 0.999882 -81.12 0.015133 -170.5
8.82500000 0.015137 -171.8 0.999882 -81.12 0.999882 -81.12 0.015137 -170.5
8.82520000 0.015141 -171.8 0.999882 -81.12 0.999882 -81.12 0.015141 -170.5
8.82540000 0.015145 -171.8 0.999882 -81.12 0.999882 -81.12 0.015145 -170.5
8.82560000 0.015148 -171.8 0.999882 -81.12 0.999882 -81.12 0.015149 -170.5
8.82580000 0.015152 -171.8 0.999881 -81.13 0.999881 -81.13 0.015152 -170.5
8.82600000 0.015156 -171.8 0.999881 -81.13 0.999881 -81.13 0.015156 -170.5
8.82620000 0.015160 -171.8 0.999881 -81.13 0.999881 -81.13 0.015160 -170.5
8.82640000 0.015164 -171.8 0.999881 -81.13 0.999881 -81.13 0.015164 -170.4
8.82660000 0.015168 -171.8 0.999881 -81.14 0.999881 -81.14 0.015168 -170.4
8.82680000 0.015172 -171.9 0.999881 -81.14 0.999881 -81.14 0.015172 -170.4
8.82700000 0.015176 -171.9 0.999881 -81.14 0.999881 -81.14 0.015176 -170.4
8.82720000 0.015180 -171.9 0.999881 -81.14 0.999881 -81.14 0.015180 -170.4
8.82740000 0.015184 -171.9 0.999881 -81.14 0.999881 -81.14 0.015184 -170.4
8.82760000 0.015188 -171.9 0.999881 -81.15 0.999881 -81.15 0.015188 -170.4
8.82780000 0.015192 -171.9 0.999881 -81.15 0.999881 -81.15 0.015192 -170.4
8.82800000 0.015196 -171.9 0.999881 -81.15 0.999881 -81.15 0.015196 -170.4
8.82820000 0.015200 -171.9 0.999881 -81.15 0.999881 -81.15 0.015200 -170.4
8.82840000 0.015204 -171.9 0.999881 -81.15 0.999881 -81.15 0.015204 -170.4
8.82860000 0.015208 -171.9 0.999881 -81.16 0.999881 -81.16 0.015208 -170.4
8.82880000 0.015212 -171.9 0.999881 -81.16 0.999881 -81.16 0.015212 -170.4
8.82900000 0.015216 -171.9 0.999880 -81.16 0.999880 -81.16 0.015216 -170.4
8.82920000 0.015220 -171.9 0.999880 -81.16 0.999880 -81.16 0.015220 -170.4
8.82940000 0.015224 -171.9 0.999880 -81.16 0.999880 -81.16 0.015224 -170.4
8.82960000 0.015228 -171.9 0.999880 -81.17 0.999880 -81.17 0.015228 -170.4
8.82980000 0.015232 -171.9 0.999880 -81.17 0.999880 -81.17 0.015232 -170.4
8.83000000 0.015236 -172.0 0.999880 -81.17 0.999880 -81.17 0.015236 -170.4
8.83020000 0.015240 -172.0 0.999880 -81.17 0.999880 -81.17 0.015241 -170.4
8.83040000 0.015244 -172.0 0.999880 -81.17 0.999880 -81.17 0.015245 -170.4
8.83060000 0.015249 -172.0 0.999880 -81.18 0.999880 -81.18 0.015249 -170.4
8.83080000 0.015253 -172.0 0.999880 -81.18 0.999880 -81.18 0.015253 -170.4
8.83100000 0.015257 -172.0 0.999880 -81.18 0.999880 -81.18 0.015257 -170.4
8.83120000 0.015261 -172.0 0.999880 -81.18 0.999880 -81.18 0.015261 -170.4
8.83140000 0.015265 -172.0 0.999880 -81.19 0.999880 -81.19 0.015266 -170.4
8.83160000 0.015270 -172.0 0.999880 -81.19 0.999880 -81.19 0.015270 -170.4
8.83180000 0.015274 -172.0 0.999880 -81.19 0.999880 -81.19 0.015274 -170.4
8.83200000 0.015278 -172.0 0.999880 -81.19 0.999880 -81.19 0.015278 -170.4
8.83220000 0.015282 -172.0 0.999879 -81.19 0.999879 -81.19 0.015283 -170.4
8.83240000 0.015287 -172.0 0.999879 -81.20 0.999879 -81.20 0.015287 -170.4
8.83260000 0.015291 -172.0 0.999879 -81.20 0.999879 -81.20 0.015291 -170.4
8.83280000 0.015295 -172.1 0.999879 -81.20 0.999879 -81.20 0.015295 -170.4
8.83300000 0.015300 -172.1 0.999879 -81.20 0.999879 -81.20 0.015300 -170.4
8.83320000 0.015304 -172.1 0.999879 -81.20 0.999879 -81.20 0.015304 -170.4
8.83340000 0.015308 -172.1 0.999879 -81.21 0.999879 -81.21 0.015308 -170.4
8.83360000 0.015313 -172.1 0.999879 -81.21 0.999879 -81.21 0.015313 -170.4
8.83380000 0.015317 -172.1 0.999879 -81.21 0.999879 -81.21 0.015317 -170.4
8.83400000 0.015321 -172.1 0.999879 -81.21 0.999879 -81.21 0.015322 -170.4
8.83420000 0.015326 -172.1 0.999879 -81.21 0.999879 -81.21 0.015326 -170.4
8.83440000 0.015330 -172.1 0.999879 -81.22 0.999879 -81.22 0.015330 -170.3
8.83460000 0.015335 -172.1 0.999879 -81.22 0.999879 -81.22 0.015335 -170.3
8.83480000 0.015339 -172.1 0.999879 -81.22 0.999879 -81.22 0.015339 -170.3
8.83500000 0.015343 -172.1 0.999878 -81.22 0.999878 -81.22 0.015344 -170.3
8.83520000 0.015348 -172.1 0.999878 -81.22 0.999878 -81.22 0.015348 -170.3
8.83540000 0.015352 -172.1 0.999878 -81.23 0.999878 -81.23 0.015353 -170.3
8.83560000 0.015357 -172.1 0.999878 -81.23 0.999878 -81.23 0.015357 -170.3
8.83580000 0.015361 -172.2 0.999878 -81.23 0.999878 -81.23 0.015362 -170.3
8.83600000 0.015366 -172.2 0.999878 -81.23 0.999878 -81.23 0.015366 -170.3
8.83620000 0.015371 -172.2 0.999878 -81.24 0.999878 -81.24 0.015371 -170.3
8.83640000 0.015375 -172.2 0.999878 -81.24 0.999878 -81.24 0.015375 -170.3
8.83660000 0.015380 -172.2 0.999878 -81.24 0.999878 -81.24 0.015380 -170.3
8.83680000 0.015384 -172.2 0.999878 -81.24 0.999878 -81.24 0.015384 -170.3
8.83700000 0.015389 -172.2 0.999878 -81.24 0.999878 -81.24 0.015389 -170.3
8.83720000 0.015393 -172.2 0.999878 -81.25 0.999878 -81.25 0.015394 -170.3
8.83740000 0.015398 -172.2 0.999878 -81.25 0.999878 -81.25 0.015398 -170.3
8.83760000 0.015403 -172.2 0.999878 -81.25 0.999878 -81.25 0.015403 -170.3
8.83780000 0.015407 -172.2 0.999877 -81.25 0.999877 -81.25 0.015408 -170.3
8.83800000 0.015412 -172.2 0.999877 -81.25 0.999877 -81.25 0.015412 -170.3
8.83820000 0.015417 -172.2 0.999877 -81.26 0.999877 -81.26 0.015417 -170.3
8.83840000 0.015421 -172.2 0.999877 -81.26 0.999877 -81.26 0.015422 -170.3
8.83860000 0.015426 -172.3 0.999877 -81.26 0.999877 -81.26 0.015426 -170.3
8.83880000 0.015431 -172.3 0.999877 -81.26 0.999877 -81.26 0.015431 -170.3
8.83900000 0.015436 -172.3 0.999877 -81.26 0.999877 -81.26 0.015436 -170.3
8.83920000 0.015440 -172.3 0.999877 -81.27 0.999877 -81.27 0.015441 -170.3
8.83940000 0.015445 -172.3 0.999877 -81.27 0.999877 -81.27 0.015445 -170.3
8.83960000 0.015450 -172.3 0.999877 -81.27 0.999877 -81.27 0.015450 -170.3
8.83980000 0.015455 -172.3 0.999877 -81.27 0.999877 -81.27 0.015455 -170.3
8.84000000 0.015460 -172.3 0.999877 -81.28 0.999877 -81.28 0.015460 -170.3
8.84020000 0.015464 -172.3 0.999877 -81.28 0.999877 -81.28 0.015465 -170.3
8.84040000 0.015469 -172.3 0.999877 -81.28 0.999877 -81.28 0.015470 -170.3
8.84060000 0.015474 -172.3 0.999876 -81.28 0.999876 -81.28 0.015474 -170.3
8.84080000 0.015479 -172.3 0.999876 -81.28 0.999876 -81.28 0.015479 -170.3
8.84100000 0.015484 -172.3 0.999876 -81.29 0.999876 -81.29 0.015484 -170.2
8.84120000 0.015489 -172.4 0.999876 -81.29 0.999876 -81.29 0.015489 -170.2
8.84140000 0.015494 -172.4 0.999876 -81.29 0.999876 -81.29 0.015494 -170.2
8.84160000 0.015499 -172.4 0.999876 -81.29 0.999876 -81.29 0.015499 -170.2
8.84180000 0.015504 -172.4 0.999876 -81.29 0.999876 -81.29 0.015504 -170.2
8.84200000 0.015509 -172.4 0.999876 -81.30 0.999876 -81.30 0.015509 -170.2
8.84220000 0.015514 -172.4 0.999876 -81.30 0.999876 -81.30 0.015514 -170.2
8.84240000 0.015519 -172.4 0.999876 -81.30 0.999876 -81.30 0.015519 -170.2
8.84260000 0.015524 -172.4 0.999876 -81.30 0.999876 -81.30 0.015524 -170.2
8.84280000 0.015529 -172.4 0.999876 -81.31 0.999876 -81.31 0.015529 -170.2
8.84300000 0.015534 -172.4 0.999875 -81.31 0.999875 -81.31 0.015534 -170.2
8.84320000 0.015539 -172.4 0.999875 -81.31 0.999875 -81.31 0.015539 -170.2
8.84340000 0.015544 -172.4 0.999875 -81.31 0.999875 -81.31 0.015544 -170.2
8.84360000 0.015549 -172.4 0.999875 -81.31 0.999875 -81.31 0.015550 -170.2
8.84380000 0.015555 -172.4 0.999875 -81.32 0.999875 -81.32 0.015555 -170.2
8.84400000 0.015560 -172.5 0.999875 -81.32 0.999875 -81.32 0.015560 -170.2
8.84420000 0.015565 -172.5 0.999875 -81.32 0.999875 -81.32 0.015565 -170.2
8.84440000 0.015570 -172.5 0.999875 -81.32 0.999875 -81.32 0.015570 -170.2
8.84460000 0.015575 -172.5 0.999875 -81.32 0.999875 -81.32 0.015576 -170.2
8.84480000 0.015581 -172.5 0.999875 -81.33 0.999875 -81.33 0.015581 -170.2
8.84500000 0.015586 -172.5 0.999875 -81.33 0.999875 -81.33 0.015586 -170.2
8.84520000 0.015591 -172.5 0.999875 -81.33 0.999875 -81.33 0.015591 -170.2
8.84540000 0.015596 -172.5 0.999874 -81.33 0.999874 -81.33 0.015597 -170.2
8.84560000 0.015602 -172.5 0.999874 -81.34 0.999874 -81.34 0.015602 -170.2
8.84580000 0.015607 -172.5 0.999874 -81.34 0.999874 -81.34 0.015607 -170.2
8.84600000 0.015612 -172.5 0.999874 -81.34 0.999874 -81.34 0.015613 -170.2
8.84620000 0.015618 -172.5 0.999874 -81.34 0.999874 -81.34 0.015618 -170.2
8.84640000 0.015623 -172.6 0.999874 -81.34 0.999874 -81.34 0.015623 -170.2
8.84660000 0.015629 -172.6 0.999874 -81.35 0.999874 -81.35 0.015629 -170.2
8.84680000 0.015634 -172.6 0.999874 -81.35 0.999874 -81.35 0.015634 -170.2
8.84700000 0.015639 -172.6 0.999874 -81.35 0.999874 -81.35 0.015640 -170.1
8.84720000 0.015645 -172.6 0.999874 -81.35 0.999874 -81.35 0.015645 -170.1
8.84740000 0.015650 -172.6 0.999874 -81.35 0.999874 -81.35 0.015651 -170.1
8.84760000 0.015656 -172.6 0.999874 -81.36 0.999874 -81.36 0.015656 -170.1
8.84780000 0.015661 -172.6 0.999873 -81.36 0.999873 -81.36 0.015662 -170.1
8.84800000 0.015667 -172.6 0.999873 -81.36 0.999873 -81.36 0.015667 -170.1
8.84820000 0.015672 -172.6 0.999873 -81.36 0.999873 -81.36 0.015673 -170.1
8.84840000 0.015678 -172.6 0.999873 -81.37 0.999873 -81.37 0.015678 -170.1
8.84860000 0.015684 -172.6 0.999873 -81.37 0.999873 -81.37 0.015684 -170.1
8.84880000 0.015689 -172.6 0.999873 -81.37 0.999873 -81.37 0.015689 -170.1
8.84900000 0.015695 -172.7 0.999873 -81.37 0.999873 -81.37 0.015695 -170.1
8.84920000 0.015701 -172.7 0.999873 -81.37 0.999873 -81.37 0.015701 -170.1
8.84940000 0.015706 -172.7 0.999873 -81.38 0.999873 -81.38 0.015706 -170.1
8.84960000 0.015712 -172.7 0.999873 -81.38 0.999873 -81.38 0.015712 -170.1
8.84980000 0.015718 -172.7 0.999873 -81.38 0.999873 -81.38 0.015718 -170.1
8.85000000 0.015723 -172.7 0.999872 -81.38 0.999872 -81.38 0.015724 -170.1
8.85020000 0.015729 -172.7 0.999872 -81.39 0.999872 -81.39 0.015729 -170.1
8.85040000 0.015735 -172.7 0.999872 -81.39 0.999872 -81.39 0.015735 -170.1
8.85060000 0.015741 -172.7 0.999872 -81.39 0.999872 -81.39 0.015741 -170.1
8.85080000 0.015747 -172.7 0.999872 -81.39 0.999872 -81.39 0.015747 -170.1
8.85100000 0.015752 -172.7 0.999872 -81.39 0.999872 -81.39 0.015753 -170.1
8.85120000 0.015758 -172.7 0.999872 -81.40 0.999872 -81.40 0.015758 -170.1
8.85140000 0.015764 -172.8 0.999872 -81.40 0.999872 -81.40 0.015764 -170.1
8.85160000 0.015770 -172.8 0.999872 -81.40 0.999872 -81.40 0.015770 -170.1
8.85180000 0.015776 -172.8 0.999872 -81.40 0.999872 -81.40 0.015776 -170.1
8.85200000 0.015782 -172.8 0.999871 -81.40 0.999871 -81.40 0.015782 -170.1
8.85220000 0.015788 -172.8 0.999871 -81.41 0.999871 -81.41 0.015788 -170.0
8.85240000 0.015794 -172.8 0.999871 -81.41 0.999871 -81.41 0.015794 -170.0
8.85260000 0.015800 -172.8 0.999871 -81.41 0.999871 -81.41 0.015800 -170.0
8.85280000 0.015806 -172.8 0.999871 -81.41 0.999871 -81.41 0.015806 -170.0
8.85300000 0.015812 -172.8 0.999871 -81.42 0.999871 -81.42 0.015812 -170.0
8.85320000 0.015818 -172.8 0.999871 -81.42 0.999871 -81.42 0.015818 -170.0
8.85340000 0.015824 -172.8 0.999871 -81.42 0.999871 -81.42 0.015824 -170.0
8.85360000 0.015830 -172.8 0.999871 -81.42 0.999871 -81.42 0.015831 -170.0
8.85380000 0.015836 -172.9 0.999871 -81.42 0.999871 -81.42 0.015837 -170.0
8.85400000 0.015843 -172.9 0.999871 -81.43 0.999871 -81.43 0.015843 -170.0
8.85420000 0.015849 -172.9 0.999870 -81.43 0.999870 -81.43 0.015849 -170.0
8.85440000 0.015855 -172.9 0.999870 -81.43 0.999870 -81.43 0.015855 -170.0
8.85460000 0.015861 -172.9 0.999870 -81.43 0.999870 -81.43 0.015861 -170.0
8.85480000 0.015868 -172.9 0.999870 -81.44 0.999870 -81.44 0.015868 -170.0
8.85500000 0.015874 -172.9 0.999870 -81.44 0.999870 -81.44 0.015874 -170.0
8.85520000 0.015880 -172.9 0.999870 -81.44 0.999870 -81.44 0.015880 -170.0
8.85540000 0.015886 -172.9 0.999870 -81.44 0.999870 -81.44 0.015887 -170.0
8.85560000 0.015893 -172.9 0.999870 -81.44 0.999870 -81.44 0.015893 -170.0
8.85580000 0.015899 -172.9 0.999870 -81.45 0.999870 -81.45 0.015899 -170.0
8.85600000 0.015906 -173.0 0.999869 -81.45 0.999869 -81.45 0.015906 -170.0
8.85620000 0.015912 -173.0 0.999869 -81.45 0.999869 -81.45 0.015912 -170.0
8.85640000 0.015919 -173.0 0.999869 -81.45 0.999869 -81.45 0.015919 -170.0
8.85660000 0.015925 -173.0 0.999869 -81.46 0.999869 -81.46 0.015925 -170.0
8.85680000 0.015932 -173.0 0.999869 -81.46 0.999869 -81.46 0.015932 -170.0
8.85700000 0.015938 -173.0 0.999869 -81.46 0.999869 -81.46 0.015938 -169.9
8.85720000 0.015945 -173.0 0.999869 -81.46 0.999869 -81.46 0.015945 -169.9
8.85740000 0.015951 -173.0 0.999869 -81.46 0.999869 -81.46 0.015951 -169.9
8.85760000 0.015958 -173.0 0.999869 -81.47 0.999869 -81.47 0.015958 -169.9
8.85780000 0.015964 -173.0 0.999869 -81.47 0.999869 -81.47 0.015965 -169.9
8.85800000 0.015971 -173.0 0.999868 -81.47 0.999868 -81.47 0.015971 -169.9
8.85820000 0.015978 -173.0 0.999868 -81.47 0.999868 -81.47 0.015978 -169.9
8.85840000 0.015985 -173.1 0.999868 -81.48 0.999868 -81.48 0.015985 -169.9
8.85860000 0.015991 -173.1 0.999868 -81.48 0.999868 -81.48 0.015992 -169.9
8.85880000 0.015998 -173.1 0.999868 -81.48 0.999868 -81.48 0.015998 -169.9
8.85900000 0.016005 -173.1 0.999868 -81.48 0.999868 -81.48 0.016005 -169.9
8.85920000 0.016012 -173.1 0.999868 -81.48 0.999868 -81.48 0.016012 -169.9
8.85940000 0.016019 -173.1 0.999868 -81.49 0.999868 -81.49 0.016019 -169.9
8.85960000 0.016025 -173.1 0.999868 -81.49 0.999868 -81.49 0.016026 -169.9
8.85980000 0.016032 -173.1 0.999867 -81.49 0.999867 -81.49 0.016033 -169.9
8.86000000 0.016039 -173.1 0.999867 -81.49 0.999867 -81.49 0.016039 -169.9
8.86020000 0.016046 -173.1 0.999867 -81.50 0.999867 -81.50 0.016046 -169.9
8.86040000 0.016053 -173.2 0.999867 -81.50 0.999867 -81.50 0.016053 -169.9
8.86060000 0.016060 -173.2 0.999867 -81.50 0.999867 -81.50 0.016060 -169.9
8.86080000 0.016067 -173.2 0.999867 -81.50 0.999867 -81.50 0.016067 -169.9
8.86100000 0.016074 -173.2 0.999867 -81.51 0.999867 -81.51 0.016075 -169.9
8.86120000 0.016081 -173.2 0.999867 -81.51 0.999867 -81.51 0.016082 -169.8
8.86140000 0.016088 -173.2 0.999866 -81.51 0.999866 -81.51 0.016089 -169.8
8.86160000 0.016096 -173.2 0.999866 -81.51 0.999866 -81.51 0.016096 -169.8
8.86180000 0.016103 -173.2 0.999866 -81.51 0.999866 -81.51 0.016103 -169.8
8.86200000 0.016110 -173.2 0.999866 -81.52 0.999866 -81.52 0.016110 -169.8
8.86220000 0.016117 -173.2 0.999866 -81.52 0.999866 -81.52 0.016118 -169.8
8.86240000 0.016125 -173.2 0.999866 -81.52 0.999866 -81.52 0.016125 -169.8
8.86260000 0.016132 -173.3 0.999866 -81.52 0.999866 -81.52 0.016132 -169.8
8.86280000 0.016139 -173.3 0.999866 -81.53 0.999866 -81.53 0.016139 -169.8
8.86300000 0.016147 -173.3 0.999866 -81.53 0.999866 -81.53 0.016147 -169.8
8.86320000 0.016154 -173.3 0.999865 -81.53 0.999865 -81.53 0.016154 -169.8
8.86340000 0.016161 -173.3 0.999865 -81.53 0.999865 -81.53 0.016162 -169.8
8.86360000 0.016169 -173.3 0.999865 -81.53 0.999865 -81.53 0.016169 -169.8
8.86380000 0.016176 -173.3 0.999865 -81.54 0.999865 -81.54 0.016177 -169.8
8.86400000 0.016184 -173.3 0.999865 -81.54 0.999865 -81.54 0.016184 -169.8
8.86420000 0.016191 -173.3 0.999865 -81.54 0.999865 -81.54 0.016192 -169.8
8.86440000 0.016199 -173.3 0.999865 -81.54 0.999865 -81.54 0.016199 -169.8
8.86460000 0.016206 -173.4 0.999865 -81.55 0.999865 -81.55 0.016207 -169.8
8.86480000 0.016214 -173.4 0.999864 -81.55 0.999864 -81.55 0.016214 -169.8
8.86500000 0.016222 -173.4 0.999864 -81.55 0.999864 -81.55 0.016222 -169.8
8.86520000 0.016229 -173.4 0.999864 -81.55 0.999864 -81.55 0.016230 -169.7
8.86540000 0.016237 -173.4 0.999864 -81.56 0.999864 -81.56 0.016237 -169.7
8.86560000 0.016245 -173.4 0.999864 -81.56 0.999864 -81.56 0.016245 -169.7
8.86580000 0.016253 -173.4 0.999864 -81.56 0.999864 -81.56 0.016253 -169.7
8.86600000 0.016261 -173.4 0.999864 -81.56 0.999864 -81.56 0.016261 -169.7
8.86620000 0.016268 -173.4 0.999863 -81.56 0.999863 -81.56 0.016269 -169.7
8.86640000 0.016276 -173.4 0.999863 -81.57 0.999863 -81.57 0.016277 -169.7
8.86660000 0.016284 -173.5 0.999863 -81.57 0.999863 -81.57 0.016285 -169.7
8.86680000 0.016292 -173.5 0.999863 -81.57 0.999863 -81.57 0.016293 -169.7
8.86700000 0.016300 -173.5 0.999863 -81.57 0.999863 -81.57 0.016301 -169.7
8.86720000 0.016308 -173.5 0.999863 -81.58 0.999863 -81.58 0.016309 -169.7
8.86740000 0.016316 -173.5 0.999863 -81.58 0.999863 -81.58 0.016317 -169.7
8.86760000 0.016324 -173.5 0.999863 -81.58 0.999863 -81.58 0.016325 -169.7
8.86780000 0.016333 -173.5 0.999862 -81.58 0.999862 -81.58 0.016333 -169.7
8.86800000 0.016341 -173.5 0.999862 -81.59 0.999862 -81.59 0.016341 -169.7
8.86820000 0.016349 -173.5 0.999862 -81.59 0.999862 -81.59 0.016349 -169.7
8.86840000 0.016357 -173.5 0.999862 -81.59 0.999862 -81.59 0.016357 -169.7
8.86860000 0.016365 -173.6 0.999862 -81.59 0.999862 -81.59 0.016366 -169.7
8.86880000 0.016374 -173.6 0.999862 -81.59 0.999862 -81.59 0.016374 -169.6
8.86900000 0.016382 -173.6 0.999862 -81.60 0.999862 -81.60 0.016382 -169.6
8.86920000 0.016390 -173.6 0.999861 -81.60 0.999861 -81.60 0.016391 -169.6
8.86940000 0.016399 -173.6 0.999861 -81.60 0.999861 -81.60 0.016399 -169.6
8.86960000 0.016407 -173.6 0.999861 -81.60 0.999861 -81.60 0.016408 -169.6
8.86980000 0.016416 -173.6 0.999861 -81.61 0.999861 -81.61 0.016416 -169.6
8.87000000 0.016424 -173.6 0.999861 -81.61 0.999861 -81.61 0.016425 -169.6
8.87020000 0.016433 -173.6 0.999861 -81.61 0.999861 -81.61 0.016433 -169.6
8.87040000 0.016442 -173.6 0.999861 -81.61 0.999861 -81.61 0.016442 -169.6
8.87060000 0.016450 -173.7 0.999860 -81.62 0.999860 -81.62 0.016451 -169.6
8.87080000 0.016459 -173.7 0.999860 -81.62 0.999860 -81.62 0.016459 -169.6
8.87100000 0.016468 -173.7 0.999860 -81.62 0.999860 -81.62 0.016468 -169.6
8.87120000 0.016476 -173.7 0.999860 -81.62 0.999860 -81.62 0.016477 -169.6
8.87140000 0.016485 -173.7 0.999860 -81.62 0.999860 -81.62 0.016485 -169.6
8.87160000 0.016494 -173.7 0.999860 -81.63 0.999860 -81.63 0.016494 -169.6
8.87180000 0.016503 -173.7 0.999860 -81.63 0.999860 -81.63 0.016503 -169.6
8.87200000 0.016512 -173.7 0.999859 -81.63 0.999859 -81.63 0.016512 -169.6
8.87220000 0.016521 -173.7 0.999859 -81.63 0.999859 -81.63 0.016521 -169.5
8.87240000 0.016530 -173.8 0.999859 -81.64 0.999859 -81.64 0.016530 -169.5
8.87260000 0.016539 -173.8 0.999859 -81.64 0.999859 -81.64 0.016539 -169.5
8.87280000 0.016548 -173.8 0.999859 -81.64 0.999859 -81.64 0.016548 -169.5
8.87300000 0.016557 -173.8 0.999859 -81.64 0.999859 -81.64 0.016557 -169.5
8.87320000 0.016566 -173.8 0.999858 -81.65 0.999858 -81.65 0.016566 -169.5
8.87340000 0.016575 -173.8 0.999858 -81.65 0.999858 -81.65 0.016576 -169.5
8.87360000 0.016585 -173.8 0.999858 -81.65 0.999858 -81.65 0.016585 -169.5
8.87380000 0.016594 -173.8 0.999858 -81.65 0.999858 -81.65 0.016594 -169.5
8.87400000 0.016603 -173.8 0.999858 -81.66 0.999858 -81.66 0.016604 -169.5
8.87420000 0.016613 -173.9 0.999858 -81.66 0.999858 -81.66 0.016613 -169.5
8.87440000 0.016622 -173.9 0.999858 -81.66 0.999858 -81.66 0.016622 -169.5
8.87460000 0.016631 -173.9 0.999857 -81.66 0.999857 -81.66 0.016632 -169.5
8.87480000 0.016641 -173.9 0.999857 -81.67 0.999857 -81.67 0.016641 -169.5
8.87500000 0.016650 -173.9 0.999857 -81.67 0.999857 -81.67 0.016651 -169.5
8.87520000 0.016660 -173.9 0.999857 -81.67 0.999857 -81.67 0.016660 -169.5
8.87540000 0.016670 -173.9 0.999857 -81.67 0.999857 -81.67 0.016670 -169.4
8.87560000 0.016679 -173.9 0.999857 -81.68 0.999857 -81.68 0.016680 -169.4
8.87580000 0.016689 -173.9 0.999856 -81.68 0.999856 -81.68 0.016689 -169.4
8.87600000 0.016699 -174.0 0.999856 -81.68 0.999856 -81.68 0.016699 -169.4
8.87620000 0.016709 -174.0 0.999856 -81.68 0.999856 -81.68 0.016709 -169.4
8.87640000 0.016719 -174.0 0.999856 -81.68 0.999856 -81.68 0.016719 -169.4
8.87660000 0.016728 -174.0 0.999856 -81.69 0.999856 -81.69 0.016729 -169.4
8.87680000 0.016738 -174.0 0.999856 -81.69 0.999856 -81.69 0.016739 -169.4
8.87700000 0.016748 -174.0 0.999855 -81.69 0.999855 -81.69 0.016749 -169.4
8.87720000 0.016758 -174.0 0.999855 -81.69 0.999855 -81.69 0.016759 -169.4
8.87740000 0.016769 -174.0 0.999855 -81.70 0.999855 -81.70 0.016769 -169.4
8.87760000 0.016779 -174.1 0.999855 -81.70 0.999855 -81.70 0.016779 -169.4
8.87780000 0.016789 -174.1 0.999855 -81.70 0.999855 -81.70 0.016789 -169.4
8.87800000 0.016799 -174.1 0.999854 -81.70 0.999854 -81.70 0.016799 -169.4
8.87820000 0.016809 -174.1 0.999854 -81.71 0.999854 -81.71 0.016810 -169.3
8.87840000 0.016820 -174.1 0.999854 -81.71 0.999854 -81.71 0.016820 -169.3