! Sonnet Data File
! From: emgraph Version : 16.52
! From Project: Resonator2_cp
! Data is De-embedded 
! Data File Written: 10/09/2017 00:47:19
!< HDATE 10/08/2017 10:09:33
!< MDATE 10/08/2017 10:09:33
!< PARAMS
!< Length = 400.0
!< Pwid1 = 2000.0
!< Pwid2 = 2000.0
!< Air_gap = 24.0
!< Width = 40.0
!< gap = 16.0
!< END PARAMS
# GHZ S MA R 51.00000
8.90000000 0.009241 -174.4 0.999953 -81.75 0.999953 -81.75 0.009241 -169.1
!< P1 F=8.9 Eeff=(6.44311882 -2.9701e-5) Z0=(50.4817959 1.16462e-4) R=0.0 C=0.0 
!< P2 F=8.9 Eeff=(6.44311882 -2.9701e-5) Z0=(50.4817959 1.16462e-4) R=0.0 C=0.0 
8.90010000 0.009245 -174.4 0.999953 -81.75 0.999953 -81.75 0.009246 -169.1
8.90020000 0.009250 -174.4 0.999953 -81.75 0.999953 -81.75 0.009250 -169.1
8.90030000 0.009255 -174.4 0.999953 -81.76 0.999953 -81.76 0.009255 -169.1
8.90040000 0.009259 -174.5 0.999953 -81.76 0.999953 -81.76 0.009260 -169.1
8.90050000 0.009264 -174.5 0.999953 -81.76 0.999953 -81.76 0.009264 -169.1
8.90060000 0.009269 -174.5 0.999953 -81.76 0.999953 -81.76 0.009269 -169.1
8.90070000 0.009273 -174.5 0.999953 -81.76 0.999953 -81.76 0.009274 -169.1
8.90080000 0.009278 -174.5 0.999953 -81.76 0.999953 -81.76 0.009278 -169.1
8.90090000 0.009283 -174.5 0.999953 -81.76 0.999953 -81.76 0.009283 -169.1
8.90100000 0.009287 -174.5 0.999953 -81.76 0.999953 -81.76 0.009288 -169.1
8.90110000 0.009292 -174.5 0.999953 -81.76 0.999953 -81.76 0.009293 -169.0
8.90120000 0.009297 -174.5 0.999952 -81.77 0.999952 -81.77 0.009297 -169.0
8.90130000 0.009302 -174.5 0.999952 -81.77 0.999952 -81.77 0.009302 -169.0
8.90140000 0.009307 -174.6 0.999952 -81.77 0.999952 -81.77 0.009307 -169.0
8.90150000 0.009311 -174.6 0.999952 -81.77 0.999952 -81.77 0.009312 -169.0
8.90160000 0.009316 -174.6 0.999952 -81.77 0.999952 -81.77 0.009317 -169.0
8.90170000 0.009321 -174.6 0.999952 -81.77 0.999952 -81.77 0.009322 -169.0
8.90180000 0.009326 -174.6 0.999952 -81.77 0.999952 -81.77 0.009326 -169.0
8.90190000 0.009331 -174.6 0.999952 -81.77 0.999952 -81.77 0.009331 -169.0
8.90200000 0.009336 -174.6 0.999952 -81.78 0.999952 -81.78 0.009336 -169.0
8.90210000 0.009341 -174.6 0.999952 -81.78 0.999952 -81.78 0.009341 -169.0
8.90220000 0.009346 -174.6 0.999952 -81.78 0.999952 -81.78 0.009346 -169.0
8.90230000 0.009351 -174.7 0.999952 -81.78 0.999952 -81.78 0.009351 -168.9
8.90240000 0.009356 -174.7 0.999952 -81.78 0.999952 -81.78 0.009356 -168.9
8.90250000 0.009361 -174.7 0.999952 -81.78 0.999952 -81.78 0.009361 -168.9
8.90260000 0.009366 -174.7 0.999952 -81.78 0.999952 -81.78 0.009366 -168.9
8.90270000 0.009371 -174.7 0.999952 -81.78 0.999952 -81.78 0.009371 -168.9
8.90280000 0.009376 -174.7 0.999952 -81.79 0.999952 -81.79 0.009376 -168.9
8.90290000 0.009381 -174.7 0.999952 -81.79 0.999952 -81.79 0.009381 -168.9
8.90300000 0.009386 -174.7 0.999952 -81.79 0.999952 -81.79 0.009387 -168.9
8.90310000 0.009391 -174.7 0.999952 -81.79 0.999952 -81.79 0.009392 -168.9
8.90320000 0.009396 -174.7 0.999951 -81.79 0.999951 -81.79 0.009397 -168.9
8.90330000 0.009402 -174.8 0.999951 -81.79 0.999951 -81.79 0.009402 -168.9
8.90340000 0.009407 -174.8 0.999951 -81.79 0.999951 -81.79 0.009407 -168.9
8.90350000 0.009412 -174.8 0.999951 -81.79 0.999951 -81.79 0.009412 -168.8
8.90360000 0.009417 -174.8 0.999951 -81.80 0.999951 -81.80 0.009418 -168.8
8.90370000 0.009422 -174.8 0.999951 -81.80 0.999951 -81.80 0.009423 -168.8
8.90380000 0.009428 -174.8 0.999951 -81.80 0.999951 -81.80 0.009428 -168.8
8.90390000 0.009433 -174.8 0.999951 -81.80 0.999951 -81.80 0.009433 -168.8
8.90400000 0.009438 -174.8 0.999951 -81.80 0.999951 -81.80 0.009439 -168.8
8.90410000 0.009443 -174.8 0.999951 -81.80 0.999951 -81.80 0.009444 -168.8
8.90420000 0.009449 -174.9 0.999951 -81.80 0.999951 -81.80 0.009449 -168.8
8.90430000 0.009454 -174.9 0.999951 -81.80 0.999951 -81.80 0.009455 -168.8
8.90440000 0.009459 -174.9 0.999951 -81.81 0.999951 -81.81 0.009460 -168.8
8.90450000 0.009465 -174.9 0.999951 -81.81 0.999951 -81.81 0.009465 -168.8
8.90460000 0.009470 -174.9 0.999951 -81.81 0.999951 -81.81 0.009471 -168.8
8.90470000 0.009476 -174.9 0.999951 -81.81 0.999951 -81.81 0.009476 -168.7
8.90480000 0.009481 -174.9 0.999951 -81.81 0.999951 -81.81 0.009482 -168.7
8.90490000 0.009487 -174.9 0.999951 -81.81 0.999951 -81.81 0.009487 -168.7
8.90500000 0.009492 -174.9 0.999950 -81.81 0.999950 -81.81 0.009493 -168.7
8.90510000 0.009498 -175.0 0.999950 -81.81 0.999950 -81.81 0.009498 -168.7
8.90520000 0.009503 -175.0 0.999950 -81.82 0.999950 -81.82 0.009504 -168.7
8.90530000 0.009509 -175.0 0.999950 -81.82 0.999950 -81.82 0.009509 -168.7
8.90540000 0.009514 -175.0 0.999950 -81.82 0.999950 -81.82 0.009515 -168.7
8.90550000 0.009520 -175.0 0.999950 -81.82 0.999950 -81.82 0.009520 -168.7
8.90560000 0.009525 -175.0 0.999950 -81.82 0.999950 -81.82 0.009526 -168.7
8.90570000 0.009531 -175.0 0.999950 -81.82 0.999950 -81.82 0.009531 -168.7
8.90580000 0.009537 -175.0 0.999950 -81.82 0.999950 -81.82 0.009537 -168.7
8.90590000 0.009542 -175.0 0.999950 -81.82 0.999950 -81.82 0.009543 -168.6
8.90600000 0.009548 -175.1 0.999950 -81.83 0.999950 -81.83 0.009549 -168.6
8.90610000 0.009554 -175.1 0.999950 -81.83 0.999950 -81.83 0.009554 -168.6
8.90620000 0.009560 -175.1 0.999950 -81.83 0.999950 -81.83 0.009560 -168.6
8.90630000 0.009565 -175.1 0.999950 -81.83 0.999950 -81.83 0.009566 -168.6
8.90640000 0.009571 -175.1 0.999950 -81.83 0.999950 -81.83 0.009572 -168.6
8.90650000 0.009577 -175.1 0.999950 -81.83 0.999950 -81.83 0.009577 -168.6
8.90660000 0.009583 -175.1 0.999950 -81.83 0.999950 -81.83 0.009583 -168.6
8.90670000 0.009589 -175.1 0.999949 -81.83 0.999949 -81.83 0.009589 -168.6
8.90680000 0.009594 -175.2 0.999949 -81.84 0.999949 -81.84 0.009595 -168.6
8.90690000 0.009600 -175.2 0.999949 -81.84 0.999949 -81.84 0.009601 -168.6
8.90700000 0.009606 -175.2 0.999949 -81.84 0.999949 -81.84 0.009607 -168.5
8.90710000 0.009612 -175.2 0.999949 -81.84 0.999949 -81.84 0.009613 -168.5
8.90720000 0.009618 -175.2 0.999949 -81.84 0.999949 -81.84 0.009619 -168.5
8.90730000 0.009624 -175.2 0.999949 -81.84 0.999949 -81.84 0.009625 -168.5
8.90740000 0.009630 -175.2 0.999949 -81.84 0.999949 -81.84 0.009631 -168.5
8.90750000 0.009636 -175.2 0.999949 -81.84 0.999949 -81.84 0.009637 -168.5
8.90760000 0.009642 -175.2 0.999949 -81.85 0.999949 -81.85 0.009643 -168.5
8.90770000 0.009648 -175.3 0.999949 -81.85 0.999949 -81.85 0.009649 -168.5
8.90780000 0.009654 -175.3 0.999949 -81.85 0.999949 -81.85 0.009655 -168.5
8.90790000 0.009660 -175.3 0.999949 -81.85 0.999949 -81.85 0.009661 -168.5
8.90800000 0.009667 -175.3 0.999949 -81.85 0.999949 -81.85 0.009667 -168.4
8.90810000 0.009673 -175.3 0.999949 -81.85 0.999949 -81.85 0.009673 -168.4
8.90820000 0.009679 -175.3 0.999949 -81.85 0.999949 -81.85 0.009679 -168.4
8.90830000 0.009685 -175.3 0.999948 -81.85 0.999948 -81.85 0.009686 -168.4
8.90840000 0.009691 -175.3 0.999948 -81.86 0.999948 -81.86 0.009692 -168.4
8.90850000 0.009698 -175.4 0.999948 -81.86 0.999948 -81.86 0.009698 -168.4
8.90860000 0.009704 -175.4 0.999948 -81.86 0.999948 -81.86 0.009704 -168.4
8.90870000 0.009710 -175.4 0.999948 -81.86 0.999948 -81.86 0.009711 -168.4
8.90880000 0.009717 -175.4 0.999948 -81.86 0.999948 -81.86 0.009717 -168.4
8.90890000 0.009723 -175.4 0.999948 -81.86 0.999948 -81.86 0.009724 -168.4
8.90900000 0.009729 -175.4 0.999948 -81.86 0.999948 -81.86 0.009730 -168.4
8.90910000 0.009736 -175.4 0.999948 -81.86 0.999948 -81.86 0.009736 -168.3
8.90920000 0.009742 -175.4 0.999948 -81.87 0.999948 -81.87 0.009743 -168.3
8.90930000 0.009749 -175.5 0.999948 -81.87 0.999948 -81.87 0.009749 -168.3
8.90940000 0.009755 -175.5 0.999948 -81.87 0.999948 -81.87 0.009756 -168.3
8.90950000 0.009762 -175.5 0.999948 -81.87 0.999948 -81.87 0.009762 -168.3
8.90960000 0.009768 -175.5 0.999948 -81.87 0.999948 -81.87 0.009769 -168.3
8.90970000 0.009775 -175.5 0.999948 -81.87 0.999948 -81.87 0.009775 -168.3
8.90980000 0.009782 -175.5 0.999947 -81.87 0.999947 -81.87 0.009782 -168.3
8.90990000 0.009788 -175.5 0.999947 -81.88 0.999947 -81.88 0.009789 -168.3
8.91000000 0.009795 -175.5 0.999947 -81.88 0.999947 -81.88 0.009795 -168.3
8.91010000 0.009802 -175.6 0.999947 -81.88 0.999947 -81.88 0.009802 -168.2
8.91020000 0.009808 -175.6 0.999947 -81.88 0.999947 -81.88 0.009809 -168.2
8.91030000 0.009815 -175.6 0.999947 -81.88 0.999947 -81.88 0.009815 -168.2
8.91040000 0.009822 -175.6 0.999947 -81.88 0.999947 -81.88 0.009822 -168.2
8.91050000 0.009829 -175.6 0.999947 -81.88 0.999947 -81.88 0.009829 -168.2
8.91060000 0.009835 -175.6 0.999947 -81.88 0.999947 -81.88 0.009836 -168.2
8.91070000 0.009842 -175.6 0.999947 -81.89 0.999947 -81.89 0.009843 -168.2
8.91080000 0.009849 -175.6 0.999947 -81.89 0.999947 -81.89 0.009850 -168.2
8.91090000 0.009856 -175.7 0.999947 -81.89 0.999947 -81.89 0.009857 -168.2
8.91100000 0.009863 -175.7 0.999947 -81.89 0.999947 -81.89 0.009863 -168.2
8.91110000 0.009870 -175.7 0.999947 -81.89 0.999947 -81.89 0.009870 -168.1
8.91120000 0.009877 -175.7 0.999946 -81.89 0.999946 -81.89 0.009877 -168.1
8.91130000 0.009884 -175.7 0.999946 -81.89 0.999946 -81.89 0.009884 -168.1
8.91140000 0.009891 -175.7 0.999946 -81.90 0.999946 -81.90 0.009891 -168.1
8.91150000 0.009898 -175.7 0.999946 -81.90 0.999946 -81.90 0.009899 -168.1
8.91160000 0.009905 -175.7 0.999946 -81.90 0.999946 -81.90 0.009906 -168.1
8.91170000 0.009912 -175.8 0.999946 -81.90 0.999946 -81.90 0.009913 -168.1
8.91180000 0.009920 -175.8 0.999946 -81.90 0.999946 -81.90 0.009920 -168.1
8.91190000 0.009927 -175.8 0.999946 -81.90 0.999946 -81.90 0.009927 -168.1
8.91200000 0.009934 -175.8 0.999946 -81.90 0.999946 -81.90 0.009934 -168.0
8.91210000 0.009941 -175.8 0.999946 -81.90 0.999946 -81.90 0.009942 -168.0
8.91220000 0.009949 -175.8 0.999946 -81.91 0.999946 -81.91 0.009949 -168.0
8.91230000 0.009956 -175.8 0.999946 -81.91 0.999946 -81.91 0.009956 -168.0
8.91240000 0.009963 -175.9 0.999946 -81.91 0.999946 -81.91 0.009964 -168.0
8.91250000 0.009971 -175.9 0.999945 -81.91 0.999945 -81.91 0.009971 -168.0
8.91260000 0.009978 -175.9 0.999945 -81.91 0.999945 -81.91 0.009979 -168.0
8.91270000 0.009985 -175.9 0.999945 -81.91 0.999945 -81.91 0.009986 -168.0
8.91280000 0.009993 -175.9 0.999945 -81.91 0.999945 -81.91 0.009993 -168.0
8.91290000 0.010000 -175.9 0.999945 -81.92 0.999945 -81.92 0.010001 -168.0
8.91300000 0.010008 -175.9 0.999945 -81.92 0.999945 -81.92 0.010009 -167.9
8.91310000 0.010016 -176.0 0.999945 -81.92 0.999945 -81.92 0.010016 -167.9
8.91320000 0.010023 -176.0 0.999945 -81.92 0.999945 -81.92 0.010024 -167.9
8.91330000 0.010031 -176.0 0.999945 -81.92 0.999945 -81.92 0.010031 -167.9
8.91340000 0.010039 -176.0 0.999945 -81.92 0.999945 -81.92 0.010039 -167.9
8.91350000 0.010046 -176.0 0.999945 -81.92 0.999945 -81.92 0.010047 -167.9
8.91360000 0.010054 -176.0 0.999945 -81.93 0.999945 -81.93 0.010055 -167.9
8.91370000 0.010062 -176.0 0.999944 -81.93 0.999944 -81.93 0.010062 -167.9
8.91380000 0.010070 -176.0 0.999944 -81.93 0.999944 -81.93 0.010070 -167.9
8.91390000 0.010077 -176.1 0.999944 -81.93 0.999944 -81.93 0.010078 -167.8
8.91400000 0.010085 -176.1 0.999944 -81.93 0.999944 -81.93 0.010086 -167.8
8.91410000 0.010093 -176.1 0.999944 -81.93 0.999944 -81.93 0.010094 -167.8
8.91420000 0.010101 -176.1 0.999944 -81.93 0.999944 -81.93 0.010102 -167.8
8.91430000 0.010109 -176.1 0.999944 -81.93 0.999944 -81.93 0.010110 -167.8
8.91440000 0.010117 -176.1 0.999944 -81.94 0.999944 -81.94 0.010118 -167.8
8.91450000 0.010125 -176.1 0.999944 -81.94 0.999944 -81.94 0.010126 -167.8
8.91460000 0.010133 -176.2 0.999944 -81.94 0.999944 -81.94 0.010134 -167.8
8.91470000 0.010142 -176.2 0.999944 -81.94 0.999944 -81.94 0.010142 -167.8
8.91480000 0.010150 -176.2 0.999943 -81.94 0.999943 -81.94 0.010150 -167.7
8.91490000 0.010158 -176.2 0.999943 -81.94 0.999943 -81.94 0.010158 -167.7
8.91500000 0.010166 -176.2 0.999943 -81.94 0.999943 -81.94 0.010167 -167.7
8.91510000 0.010174 -176.2 0.999943 -81.95 0.999943 -81.95 0.010175 -167.7
8.91520000 0.010183 -176.2 0.999943 -81.95 0.999943 -81.95 0.010183 -167.7
8.91530000 0.010191 -176.3 0.999943 -81.95 0.999943 -81.95 0.010192 -167.7
8.91540000 0.010200 -176.3 0.999943 -81.95 0.999943 -81.95 0.010200 -167.7
8.91550000 0.010208 -176.3 0.999943 -81.95 0.999943 -81.95 0.010209 -167.7
8.91560000 0.010216 -176.3 0.999943 -81.95 0.999943 -81.95 0.010217 -167.6
8.91570000 0.010225 -176.3 0.999943 -81.95 0.999943 -81.95 0.010226 -167.6
8.91580000 0.010234 -176.3 0.999943 -81.96 0.999943 -81.96 0.010234 -167.6
8.91590000 0.010242 -176.3 0.999942 -81.96 0.999942 -81.96 0.010243 -167.6
8.91600000 0.010251 -176.4 0.999942 -81.96 0.999942 -81.96 0.010251 -167.6
8.91610000 0.010259 -176.4 0.999942 -81.96 0.999942 -81.96 0.010260 -167.6
8.91620000 0.010268 -176.4 0.999942 -81.96 0.999942 -81.96 0.010269 -167.6
8.91630000 0.010277 -176.4 0.999942 -81.96 0.999942 -81.96 0.010277 -167.6
8.91640000 0.010286 -176.4 0.999942 -81.96 0.999942 -81.96 0.010286 -167.6
8.91650000 0.010295 -176.4 0.999942 -81.97 0.999942 -81.97 0.010295 -167.5
8.91660000 0.010303 -176.5 0.999942 -81.97 0.999942 -81.97 0.010304 -167.5
8.91670000 0.010312 -176.5 0.999942 -81.97 0.999942 -81.97 0.010313 -167.5
8.91680000 0.010321 -176.5 0.999942 -81.97 0.999942 -81.97 0.010322 -167.5
8.91690000 0.010330 -176.5 0.999941 -81.97 0.999941 -81.97 0.010331 -167.5
8.91700000 0.010339 -176.5 0.999941 -81.97 0.999941 -81.97 0.010340 -167.5
8.91710000 0.010348 -176.5 0.999941 -81.97 0.999941 -81.97 0.010349 -167.5
8.91720000 0.010358 -176.5 0.999941 -81.98 0.999941 -81.98 0.010358 -167.5
8.91730000 0.010367 -176.6 0.999941 -81.98 0.999941 -81.98 0.010367 -167.4
8.91740000 0.010376 -176.6 0.999941 -81.98 0.999941 -81.98 0.010377 -167.4
8.91750000 0.010385 -176.6 0.999941 -81.98 0.999941 -81.98 0.010386 -167.4
8.91760000 0.010394 -176.6 0.999941 -81.98 0.999941 -81.98 0.010395 -167.4
8.91770000 0.010404 -176.6 0.999941 -81.98 0.999941 -81.98 0.010404 -167.4
8.91780000 0.010413 -176.6 0.999940 -81.98 0.999940 -81.98 0.010414 -167.4
8.91790000 0.010423 -176.7 0.999940 -81.99 0.999940 -81.99 0.010423 -167.4
8.91800000 0.010432 -176.7 0.999940 -81.99 0.999940 -81.99 0.010433 -167.4
8.91810000 0.010442 -176.7 0.999940 -81.99 0.999940 -81.99 0.010442 -167.3
8.91820000 0.010451 -176.7 0.999940 -81.99 0.999940 -81.99 0.010452 -167.3
8.91830000 0.010461 -176.7 0.999940 -81.99 0.999940 -81.99 0.010462 -167.3
8.91840000 0.010471 -176.7 0.999940 -81.99 0.999940 -81.99 0.010471 -167.3
8.91850000 0.010480 -176.7 0.999940 -82.00 0.999940 -82.00 0.010481 -167.3
8.91860000 0.010490 -176.8 0.999940 -82.00 0.999940 -82.00 0.010491 -167.3
8.91870000 0.010500 -176.8 0.999940 -82.00 0.999940 -82.00 0.010501 -167.3
8.91880000 0.010510 -176.8 0.999939 -82.00 0.999939 -82.00 0.010510 -167.2
8.91890000 0.010520 -176.8 0.999939 -82.00 0.999939 -82.00 0.010520 -167.2
8.91900000 0.010530 -176.8 0.999939 -82.00 0.999939 -82.00 0.010530 -167.2
8.91910000 0.010540 -176.8 0.999939 -82.00 0.999939 -82.00 0.010540 -167.2
8.91920000 0.010550 -176.9 0.999939 -82.01 0.999939 -82.01 0.010550 -167.2
8.91930000 0.010560 -176.9 0.999939 -82.01 0.999939 -82.01 0.010560 -167.2
8.91940000 0.010570 -176.9 0.999939 -82.01 0.999939 -82.01 0.010571 -167.2
8.91950000 0.010580 -176.9 0.999939 -82.01 0.999939 -82.01 0.010581 -167.2
8.91960000 0.010590 -176.9 0.999938 -82.01 0.999938 -82.01 0.010591 -167.1
8.91970000 0.010601 -176.9 0.999938 -82.01 0.999938 -82.01 0.010601 -167.1
8.91980000 0.010611 -177.0 0.999938 -82.02 0.999938 -82.02 0.010612 -167.1
8.91990000 0.010622 -177.0 0.999938 -82.02 0.999938 -82.02 0.010622 -167.1
8.92000000 0.010632 -177.0 0.999938 -82.02 0.999938 -82.02 0.010633 -167.1
8.92010000 0.010643 -177.0 0.999938 -82.02 0.999938 -82.02 0.010643 -167.1
8.92020000 0.010653 -177.0 0.999938 -82.02 0.999938 -82.02 0.010654 -167.1
8.92030000 0.010664 -177.0 0.999938 -82.02 0.999938 -82.02 0.010664 -167.0
8.92040000 0.010674 -177.1 0.999937 -82.02 0.999937 -82.02 0.010675 -167.0
8.92050000 0.010685 -177.1 0.999937 -82.03 0.999937 -82.03 0.010686 -167.0
8.92060000 0.010696 -177.1 0.999937 -82.03 0.999937 -82.03 0.010697 -167.0
8.92070000 0.010707 -177.1 0.999937 -82.03 0.999937 -82.03 0.010708 -167.0
8.92080000 0.010718 -177.1 0.999937 -82.03 0.999937 -82.03 0.010719 -167.0
8.92090000 0.010729 -177.1 0.999937 -82.03 0.999937 -82.03 0.010729 -167.0
8.92100000 0.010740 -177.2 0.999937 -82.03 0.999937 -82.03 0.010741 -167.0
8.92110000 0.010751 -177.2 0.999937 -82.04 0.999937 -82.04 0.010752 -166.9
8.92120000 0.010762 -177.2 0.999936 -82.04 0.999936 -82.04 0.010763 -166.9
8.92130000 0.010773 -177.2 0.999936 -82.04 0.999936 -82.04 0.010774 -166.9
8.92140000 0.010784 -177.2 0.999936 -82.04 0.999936 -82.04 0.010785 -166.9
8.92150000 0.010796 -177.2 0.999936 -82.04 0.999936 -82.04 0.010797 -166.9
8.92160000 0.010807 -177.3 0.999936 -82.04 0.999936 -82.04 0.010808 -166.9
8.92170000 0.010819 -177.3 0.999936 -82.04 0.999936 -82.04 0.010819 -166.9
8.92180000 0.010830 -177.3 0.999936 -82.05 0.999936 -82.05 0.010831 -166.8
8.92190000 0.010842 -177.3 0.999935 -82.05 0.999935 -82.05 0.010842 -166.8
8.92200000 0.010853 -177.3 0.999935 -82.05 0.999935 -82.05 0.010854 -166.8
8.92210000 0.010865 -177.4 0.999935 -82.05 0.999935 -82.05 0.010866 -166.8
8.92220000 0.010877 -177.4 0.999935 -82.05 0.999935 -82.05 0.010877 -166.8
8.92230000 0.010889 -177.4 0.999935 -82.05 0.999935 -82.05 0.010889 -166.8
8.92240000 0.010900 -177.4 0.999935 -82.06 0.999935 -82.06 0.010901 -166.8
8.92250000 0.010912 -177.4 0.999935 -82.06 0.999935 -82.06 0.010913 -166.7
8.92260000 0.010924 -177.4 0.999934 -82.06 0.999934 -82.06 0.010925 -166.7
8.92270000 0.010936 -177.5 0.999934 -82.06 0.999934 -82.06 0.010937 -166.7
8.92280000 0.010949 -177.5 0.999934 -82.06 0.999934 -82.06 0.010949 -166.7
8.92290000 0.010961 -177.5 0.999934 -82.06 0.999934 -82.06 0.010962 -166.7
8.92300000 0.010973 -177.5 0.999934 -82.07 0.999934 -82.07 0.010974 -166.7
8.92310000 0.010985 -177.5 0.999934 -82.07 0.999934 -82.07 0.010986 -166.7
8.92320000 0.010998 -177.6 0.999934 -82.07 0.999934 -82.07 0.010999 -166.6
8.92330000 0.011010 -177.6 0.999933 -82.07 0.999933 -82.07 0.011011 -166.6
8.92340000 0.011023 -177.6 0.999933 -82.07 0.999933 -82.07 0.011024 -166.6
8.92350000 0.011035 -177.6 0.999933 -82.07 0.999933 -82.07 0.011036 -166.6
8.92360000 0.011048 -177.6 0.999933 -82.08 0.999933 -82.08 0.011049 -166.6
8.92370000 0.011061 -177.6 0.999933 -82.08 0.999933 -82.08 0.011062 -166.6
8.92380000 0.011074 -177.7 0.999933 -82.08 0.999933 -82.08 0.011074 -166.5
8.92390000 0.011087 -177.7 0.999933 -82.08 0.999933 -82.08 0.011087 -166.5
8.92400000 0.011100 -177.7 0.999932 -82.08 0.999932 -82.08 0.011100 -166.5
8.92410000 0.011113 -177.7 0.999932 -82.08 0.999932 -82.08 0.011113 -166.5
8.92420000 0.011126 -177.7 0.999932 -82.09 0.999932 -82.09 0.011127 -166.5
8.92430000 0.011139 -177.8 0.999932 -82.09 0.999932 -82.09 0.011140 -166.5
8.92440000 0.011152 -177.8 0.999932 -82.09 0.999932 -82.09 0.011153 -166.5
8.92450000 0.011165 -177.8 0.999932 -82.09 0.999932 -82.09 0.011166 -166.4
8.92460000 0.011179 -177.8 0.999931 -82.09 0.999931 -82.09 0.011180 -166.4
8.92470000 0.011192 -177.8 0.999931 -82.09 0.999931 -82.09 0.011193 -166.4
8.92480000 0.011206 -177.9 0.999931 -82.10 0.999931 -82.10 0.011207 -166.4
8.92490000 0.011220 -177.9 0.999931 -82.10 0.999931 -82.10 0.011221 -166.4
8.92500000 0.011233 -177.9 0.999931 -82.10 0.999931 -82.10 0.011234 -166.4
8.92510000 0.011247 -177.9 0.999931 -82.10 0.999931 -82.10 0.011248 -166.3
8.92520000 0.011261 -177.9 0.999930 -82.10 0.999930 -82.10 0.011262 -166.3
8.92530000 0.011275 -178.0 0.999930 -82.10 0.999930 -82.10 0.011276 -166.3
8.92540000 0.011289 -178.0 0.999930 -82.11 0.999930 -82.11 0.011290 -166.3
8.92550000 0.011303 -178.0 0.999930 -82.11 0.999930 -82.11 0.011304 -166.3
8.92560000 0.011317 -178.0 0.999930 -82.11 0.999930 -82.11 0.011318 -166.3
8.92570000 0.011332 -178.0 0.999929 -82.11 0.999929 -82.11 0.011333 -166.2
8.92580000 0.011346 -178.1 0.999929 -82.11 0.999929 -82.11 0.011347 -166.2
8.92590000 0.011361 -178.1 0.999929 -82.12 0.999929 -82.12 0.011362 -166.2
8.92600000 0.011375 -178.1 0.999929 -82.12 0.999929 -82.12 0.011376 -166.2
8.92610000 0.011390 -178.1 0.999929 -82.12 0.999929 -82.12 0.011391 -166.2
8.92620000 0.011405 -178.1 0.999929 -82.12 0.999929 -82.12 0.011406 -166.2
8.92630000 0.011419 -178.2 0.999928 -82.12 0.999928 -82.12 0.011420 -166.1
8.92640000 0.011434 -178.2 0.999928 -82.12 0.999928 -82.12 0.011435 -166.1
8.92650000 0.011449 -178.2 0.999928 -82.13 0.999928 -82.13 0.011450 -166.1
8.92660000 0.011464 -178.2 0.999928 -82.13 0.999928 -82.13 0.011465 -166.1
8.92670000 0.011480 -178.2 0.999928 -82.13 0.999928 -82.13 0.011481 -166.1
8.92680000 0.011495 -178.3 0.999927 -82.13 0.999927 -82.13 0.011496 -166.1
8.92690000 0.011510 -178.3 0.999927 -82.13 0.999927 -82.13 0.011511 -166.0
8.92700000 0.011526 -178.3 0.999927 -82.14 0.999927 -82.14 0.011527 -166.0
8.92710000 0.011541 -178.3 0.999927 -82.14 0.999927 -82.14 0.011542 -166.0
8.92720000 0.011557 -178.3 0.999927 -82.14 0.999927 -82.14 0.011558 -166.0
8.92730000 0.011573 -178.4 0.999926 -82.14 0.999926 -82.14 0.011574 -166.0
8.92740000 0.011589 -178.4 0.999926 -82.14 0.999926 -82.14 0.011590 -166.0
8.92750000 0.011605 -178.4 0.999926 -82.14 0.999926 -82.14 0.011606 -165.9
8.92760000 0.011621 -178.4 0.999926 -82.15 0.999926 -82.15 0.011622 -165.9
8.92770000 0.011637 -178.4 0.999926 -82.15 0.999926 -82.15 0.011638 -165.9
8.92780000 0.011653 -178.5 0.999925 -82.15 0.999925 -82.15 0.011654 -165.9
8.92790000 0.011669 -178.5 0.999925 -82.15 0.999925 -82.15 0.011670 -165.9
8.92800000 0.011686 -178.5 0.999925 -82.15 0.999925 -82.15 0.011687 -165.9
8.92810000 0.011702 -178.5 0.999925 -82.16 0.999925 -82.16 0.011703 -165.8
8.92820000 0.011719 -178.6 0.999925 -82.16 0.999925 -82.16 0.011720 -165.8
8.92830000 0.011736 -178.6 0.999924 -82.16 0.999924 -82.16 0.011737 -165.8
8.92840000 0.011753 -178.6 0.999924 -82.16 0.999924 -82.16 0.011754 -165.8
8.92850000 0.011770 -178.6 0.999924 -82.16 0.999924 -82.16 0.011771 -165.8
8.92860000 0.011787 -178.6 0.999924 -82.17 0.999924 -82.17 0.011788 -165.7
8.92870000 0.011804 -178.7 0.999923 -82.17 0.999923 -82.17 0.011805 -165.7
8.92880000 0.011821 -178.7 0.999923 -82.17 0.999923 -82.17 0.011823 -165.7
8.92890000 0.011839 -178.7 0.999923 -82.17 0.999923 -82.17 0.011840 -165.7
8.92900000 0.011856 -178.7 0.999923 -82.17 0.999923 -82.17 0.011858 -165.7
8.92910000 0.011874 -178.7 0.999922 -82.18 0.999922 -82.18 0.011875 -165.7
8.92920000 0.011892 -178.8 0.999922 -82.18 0.999922 -82.18 0.011893 -165.6
8.92930000 0.011910 -178.8 0.999922 -82.18 0.999922 -82.18 0.011911 -165.6
8.92940000 0.011928 -178.8 0.999922 -82.18 0.999922 -82.18 0.011929 -165.6
8.92950000 0.011946 -178.8 0.999922 -82.18 0.999922 -82.18 0.011947 -165.6
8.92960000 0.011964 -178.9 0.999921 -82.19 0.999921 -82.19 0.011965 -165.6
8.92970000 0.011983 -178.9 0.999921 -82.19 0.999921 -82.19 0.011984 -165.5
8.92980000 0.012001 -178.9 0.999921 -82.19 0.999921 -82.19 0.012002 -165.5
8.92990000 0.012020 -178.9 0.999921 -82.19 0.999921 -82.19 0.012021 -165.5
8.93000000 0.012039 -179.0 0.999920 -82.19 0.999920 -82.19 0.012040 -165.5
8.93010000 0.012057 -179.0 0.999920 -82.20 0.999920 -82.20 0.012059 -165.5
8.93020000 0.012076 -179.0 0.999920 -82.20 0.999920 -82.20 0.012078 -165.5
8.93030000 0.012096 -179.0 0.999920 -82.20 0.999920 -82.20 0.012097 -165.4
8.93040000 0.012115 -179.0 0.999919 -82.20 0.999919 -82.20 0.012116 -165.4
8.93050000 0.012134 -179.1 0.999919 -82.20 0.999919 -82.20 0.012136 -165.4
8.93060000 0.012154 -179.1 0.999919 -82.21 0.999919 -82.21 0.012155 -165.4
8.93070000 0.012174 -179.1 0.999918 -82.21 0.999918 -82.21 0.012175 -165.4
8.93080000 0.012193 -179.1 0.999918 -82.21 0.999918 -82.21 0.012195 -165.3
8.93090000 0.012213 -179.2 0.999918 -82.21 0.999918 -82.21 0.012215 -165.3
8.93100000 0.012233 -179.2 0.999918 -82.21 0.999918 -82.21 0.012235 -165.3
8.93110000 0.012254 -179.2 0.999917 -82.22 0.999917 -82.22 0.012255 -165.3
8.93120000 0.012274 -179.2 0.999917 -82.22 0.999917 -82.22 0.012275 -165.3
8.93130000 0.012295 -179.3 0.999917 -82.22 0.999917 -82.22 0.012296 -165.2
8.93140000 0.012315 -179.3 0.999917 -82.22 0.999917 -82.22 0.012317 -165.2
8.93150000 0.012336 -179.3 0.999916 -82.22 0.999916 -82.22 0.012337 -165.2
8.93160000 0.012357 -179.3 0.999916 -82.23 0.999916 -82.23 0.012358 -165.2
8.93170000 0.012378 -179.4 0.999916 -82.23 0.999916 -82.23 0.012379 -165.2
8.93180000 0.012399 -179.4 0.999915 -82.23 0.999915 -82.23 0.012401 -165.1
8.93190000 0.012421 -179.4 0.999915 -82.23 0.999915 -82.23 0.012422 -165.1
8.93200000 0.012442 -179.4 0.999915 -82.24 0.999915 -82.24 0.012444 -165.1
8.93210000 0.012464 -179.5 0.999914 -82.24 0.999914 -82.24 0.012466 -165.1
8.93220000 0.012486 -179.5 0.999914 -82.24 0.999914 -82.24 0.012487 -165.1
8.93230000 0.012508 -179.5 0.999914 -82.24 0.999914 -82.24 0.012509 -165.0
8.93240000 0.012530 -179.5 0.999914 -82.24 0.999914 -82.24 0.012532 -165.0
8.93250000 0.012553 -179.6 0.999913 -82.25 0.999913 -82.25 0.012554 -165.0
8.93260000 0.012575 -179.6 0.999913 -82.25 0.999913 -82.25 0.012577 -165.0
8.93270000 0.012598 -179.6 0.999913 -82.25 0.999913 -82.25 0.012599 -165.0
8.93280000 0.012621 -179.6 0.999912 -82.25 0.999912 -82.25 0.012622 -164.9
8.93290000 0.012644 -179.7 0.999912 -82.26 0.999912 -82.26 0.012645 -164.9
8.93300000 0.012667 -179.7 0.999912 -82.26 0.999912 -82.26 0.012669 -164.9
8.93310000 0.012690 -179.7 0.999911 -82.26 0.999911 -82.26 0.012692 -164.9
8.93320000 0.012714 -179.7 0.999911 -82.26 0.999911 -82.26 0.012716 -164.9
8.93330000 0.012738 -179.8 0.999911 -82.26 0.999911 -82.26 0.012739 -164.8
8.93340000 0.012762 -179.8 0.999910 -82.27 0.999910 -82.27 0.012763 -164.8
8.93350000 0.012786 -179.8 0.999910 -82.27 0.999910 -82.27 0.012787 -164.8
8.93360000 0.012810 -179.8 0.999910 -82.27 0.999910 -82.27 0.012812 -164.8
8.93370000 0.012835 -179.9 0.999909 -82.27 0.999909 -82.27 0.012836 -164.7
8.93380000 0.012859 -179.9 0.999909 -82.28 0.999909 -82.28 0.012861 -164.7
8.93390000 0.012884 -179.9 0.999908 -82.28 0.999908 -82.28 0.012886 -164.7
8.93400000 0.012909 -179.9 0.999908 -82.28 0.999908 -82.28 0.012911 -164.7
8.93410000 0.012935 -180.0 0.999908 -82.28 0.999908 -82.28 0.012936 -164.7
8.93420000 0.012960 180.00 0.999907 -82.29 0.999907 -82.29 0.012962 -164.6
8.93430000 0.012986 179.97 0.999907 -82.29 0.999907 -82.29 0.012987 -164.6
8.93440000 0.013012 179.95 0.999907 -82.29 0.999907 -82.29 0.013013 -164.6
8.93450000 0.013038 179.92 0.999906 -82.29 0.999906 -82.29 0.013039 -164.6
8.93460000 0.013064 179.89 0.999906 -82.30 0.999906 -82.30 0.013065 -164.5
8.93470000 0.013090 179.86 0.999905 -82.30 0.999905 -82.30 0.013092 -164.5
8.93480000 0.013117 179.84 0.999905 -82.30 0.999905 -82.30 0.013119 -164.5
8.93490000 0.013144 179.81 0.999905 -82.30 0.999905 -82.30 0.013146 -164.5
8.93500000 0.013171 179.78 0.999904 -82.31 0.999904 -82.31 0.013173 -164.5
8.93510000 0.013198 179.75 0.999904 -82.31 0.999904 -82.31 0.013200 -164.4
8.93520000 0.013226 179.72 0.999903 -82.31 0.999903 -82.31 0.013228 -164.4
8.93530000 0.013254 179.70 0.999903 -82.31 0.999903 -82.31 0.013256 -164.4
8.93540000 0.013282 179.67 0.999903 -82.32 0.999903 -82.32 0.013284 -164.4
8.93550000 0.013310 179.64 0.999902 -82.32 0.999902 -82.32 0.013312 -164.3
8.93560000 0.013339 179.61 0.999902 -82.32 0.999902 -82.32 0.013340 -164.3
8.93570000 0.013367 179.58 0.999901 -82.32 0.999901 -82.32 0.013369 -164.3
8.93580000 0.013396 179.55 0.999901 -82.33 0.999901 -82.33 0.013398 -164.3
8.93590000 0.013426 179.52 0.999900 -82.33 0.999900 -82.33 0.013427 -164.3
8.93600000 0.013455 179.50 0.999900 -82.33 0.999900 -82.33 0.013457 -164.2
8.93610000 0.013485 179.47 0.999900 -82.33 0.999900 -82.33 0.013487 -164.2
8.93620000 0.013515 179.44 0.999899 -82.34 0.999899 -82.34 0.013517 -164.2
8.93630000 0.013545 179.41 0.999899 -82.34 0.999899 -82.34 0.013547 -164.2
8.93640000 0.013575 179.38 0.999898 -82.34 0.999898 -82.34 0.013577 -164.1
8.93650000 0.013606 179.35 0.999898 -82.34 0.999898 -82.34 0.013608 -164.1
8.93660000 0.013637 179.32 0.999897 -82.35 0.999897 -82.35 0.013639 -164.1
8.93670000 0.013668 179.29 0.999897 -82.35 0.999897 -82.35 0.013670 -164.1
8.93680000 0.013700 179.26 0.999896 -82.35 0.999896 -82.35 0.013702 -164.0
8.93690000 0.013732 179.23 0.999896 -82.36 0.999896 -82.36 0.013734 -164.0
8.93700000 0.013764 179.20 0.999895 -82.36 0.999895 -82.36 0.013766 -164.0
8.93710000 0.013796 179.17 0.999895 -82.36 0.999895 -82.36 0.013798 -164.0
8.93720000 0.013829 179.14 0.999894 -82.36 0.999894 -82.36 0.013831 -163.9
8.93730000 0.013862 179.11 0.999894 -82.37 0.999894 -82.37 0.013864 -163.9
8.93740000 0.013895 179.08 0.999893 -82.37 0.999893 -82.37 0.013897 -163.9
8.93750000 0.013929 179.05 0.999893 -82.37 0.999893 -82.37 0.013931 -163.9
8.93760000 0.013963 179.02 0.999892 -82.38 0.999892 -82.38 0.013965 -163.8
8.93770000 0.013997 178.98 0.999892 -82.38 0.999892 -82.38 0.013999 -163.8
8.93780000 0.014031 178.95 0.999891 -82.38 0.999891 -82.38 0.014033 -163.8
8.93790000 0.014066 178.92 0.999890 -82.38 0.999890 -82.38 0.014068 -163.8
8.93800000 0.014101 178.89 0.999890 -82.39 0.999890 -82.39 0.014103 -163.7
8.93810000 0.014137 178.86 0.999889 -82.39 0.999889 -82.39 0.014139 -163.7
8.93820000 0.014172 178.83 0.999889 -82.39 0.999889 -82.39 0.014175 -163.7
8.93830000 0.014209 178.79 0.999888 -82.40 0.999888 -82.40 0.014211 -163.7
8.93840000 0.014245 178.76 0.999888 -82.40 0.999888 -82.40 0.014247 -163.6
8.93850000 0.014282 178.73 0.999887 -82.40 0.999887 -82.40 0.014284 -163.6
8.93860000 0.014319 178.70 0.999886 -82.41 0.999886 -82.41 0.014321 -163.6
8.93870000 0.014356 178.67 0.999886 -82.41 0.999886 -82.41 0.014359 -163.6
8.93880000 0.014394 178.63 0.999885 -82.41 0.999885 -82.41 0.014397 -163.5
8.93890000 0.014433 178.60 0.999885 -82.42 0.999885 -82.42 0.014435 -163.5
8.93900000 0.014471 178.57 0.999884 -82.42 0.999884 -82.42 0.014473 -163.5
8.93910000 0.014510 178.53 0.999883 -82.42 0.999883 -82.42 0.014512 -163.5
8.93920000 0.014549 178.50 0.999883 -82.42 0.999883 -82.42 0.014552 -163.4