! Sonnet Data File
! From: emgraph Version : 16.52
! From Emgraph Data: Resonator3
! Data File Written: 10/04/2017 12:04:41
!< HDATE 10/04/2017 11:35:44
!< MDATE 10/04/2017 11:35:44
# GHZ S MA R 51.80000
8.00000000 0.002382 62.126 0.999996 -19.64 0.999996 -19.64 0.002382 78.635
!< P1 F=8.0 Eeff=(6.45042311 -2.975e-5) Z0=(51.8073749 1.19483e-4) R=0.0 C=0.0 
!< P2 F=8.0 Eeff=(6.4504231 -2.975e-5) Z0=(51.8073748 1.19483e-4) R=0.0 C=0.0 
8.01000000 0.002389 62.089 0.999996 -19.66 0.999996 -19.66 0.002389 78.627
8.02000000 0.002395 62.053 0.999997 -19.69 0.999997 -19.69 0.002396 78.620
8.03000000 0.002402 62.016 0.999997 -19.71 0.999997 -19.71 0.002402 78.612
8.04000000 0.002409 61.979 0.999997 -19.74 0.999997 -19.74 0.002409 78.604
8.05000000 0.002416 61.941 0.999997 -19.76 0.999997 -19.76 0.002416 78.596
8.06000000 0.002423 61.904 0.999997 -19.79 0.999997 -19.79 0.002423 78.588
8.07000000 0.002430 61.866 0.999997 -19.81 0.999997 -19.81 0.002430 78.580
8.08000000 0.002437 61.828 0.999997 -19.84 0.999997 -19.84 0.002437 78.572
8.09000000 0.002444 61.790 0.999997 -19.86 0.999997 -19.86 0.002444 78.564
8.10000000 0.002451 61.751 0.999997 -19.89 0.999997 -19.89 0.002452 78.556
8.11000000 0.002459 61.713 0.999997 -19.91 0.999997 -19.91 0.002459 78.548
8.12000000 0.002466 61.674 0.999997 -19.94 0.999997 -19.94 0.002467 78.540
8.13000000 0.002474 61.635 0.999997 -19.96 0.999997 -19.96 0.002474 78.532
8.14000000 0.002482 61.596 0.999997 -19.98 0.999997 -19.98 0.002482 78.524
8.15000000 0.002490 61.556 0.999997 -20.01 0.999997 -20.01 0.002490 78.517
8.16000000 0.002498 61.516 0.999997 -20.03 0.999997 -20.03 0.002498 78.509
8.17000000 0.002506 61.477 0.999997 -20.06 0.999997 -20.06 0.002506 78.501
8.18000000 0.002514 61.436 0.999997 -20.08 0.999997 -20.08 0.002515 78.493
8.19000000 0.002522 61.396 0.999997 -20.11 0.999997 -20.11 0.002523 78.485
8.20000000 0.002531 61.356 0.999997 -20.13 0.999997 -20.13 0.002532 78.477
8.21000000 0.002540 61.315 0.999997 -20.16 0.999997 -20.16 0.002540 78.470
8.22000000 0.002549 61.274 0.999997 -20.18 0.999997 -20.18 0.002549 78.462
8.23000000 0.002558 61.233 0.999997 -20.21 0.999997 -20.21 0.002558 78.454
8.24000000 0.002567 61.191 0.999997 -20.23 0.999997 -20.23 0.002567 78.447
8.25000000 0.002576 61.149 0.999997 -20.26 0.999997 -20.26 0.002577 78.439
8.26000000 0.002586 61.107 0.999997 -20.28 0.999997 -20.28 0.002586 78.432
8.27000000 0.002595 61.065 0.999997 -20.31 0.999997 -20.31 0.002596 78.425
8.28000000 0.002605 61.023 0.999997 -20.33 0.999997 -20.33 0.002606 78.418
8.29000000 0.002616 60.980 0.999997 -20.36 0.999997 -20.36 0.002616 78.411
8.30000000 0.002626 60.937 0.999997 -20.38 0.999997 -20.38 0.002627 78.404
8.31000000 0.002637 60.894 0.999997 -20.41 0.999997 -20.41 0.002637 78.397
8.32000000 0.002647 60.850 0.999997 -20.43 0.999997 -20.43 0.002648 78.390
8.33000000 0.002658 60.807 0.999997 -20.46 0.999997 -20.46 0.002659 78.383
8.34000000 0.002670 60.763 0.999997 -20.48 0.999997 -20.48 0.002670 78.377
8.35000000 0.002681 60.718 0.999997 -20.51 0.999997 -20.51 0.002682 78.371
8.36000000 0.002693 60.674 0.999997 -20.53 0.999997 -20.53 0.002694 78.365
8.37000000 0.002705 60.629 0.999997 -20.56 0.999997 -20.56 0.002706 78.359
8.38000000 0.002718 60.584 0.999997 -20.58 0.999997 -20.58 0.002718 78.353
8.39000000 0.002731 60.538 0.999997 -20.61 0.999997 -20.61 0.002731 78.347
8.40000000 0.002744 60.492 0.999997 -20.63 0.999997 -20.63 0.002744 78.342
8.41000000 0.002757 60.446 0.999997 -20.66 0.999997 -20.66 0.002758 78.337
8.42000000 0.002771 60.399 0.999997 -20.68 0.999997 -20.68 0.002772 78.332
8.43000000 0.002785 60.353 0.999997 -20.71 0.999997 -20.71 0.002786 78.327
8.44000000 0.002800 60.305 0.999997 -20.73 0.999997 -20.73 0.002801 78.322
8.45000000 0.002815 60.258 0.999997 -20.76 0.999997 -20.76 0.002816 78.318
8.46000000 0.002831 60.210 0.999997 -20.78 0.999997 -20.78 0.002831 78.314
8.47000000 0.002847 60.161 0.999997 -20.81 0.999997 -20.81 0.002847 78.311
8.48000000 0.002863 60.112 0.999996 -20.84 0.999996 -20.84 0.002864 78.307
8.49000000 0.002880 60.063 0.999996 -20.86 0.999996 -20.86 0.002881 78.304
8.50000000 0.002898 60.013 0.999996 -20.89 0.999996 -20.89 0.002899 78.301
8.51000000 0.002916 59.963 0.999996 -20.91 0.999996 -20.91 0.002917 78.299
8.52000000 0.002935 59.913 0.999996 -20.94 0.999996 -20.94 0.002936 78.297
8.53000000 0.002955 59.861 0.999996 -20.96 0.999996 -20.96 0.002956 78.295
8.54000000 0.002975 59.810 0.999996 -20.99 0.999996 -20.99 0.002976 78.294
8.55000000 0.002997 59.757 0.999996 -21.01 0.999996 -21.01 0.002997 78.294
8.56000000 0.003019 59.704 0.999996 -21.04 0.999996 -21.04 0.003019 78.293
8.57000000 0.003042 59.651 0.999996 -21.07 0.999996 -21.07 0.003042 78.293
8.58000000 0.003066 59.597 0.999996 -21.09 0.999996 -21.09 0.003066 78.294
8.59000000 0.003091 59.542 0.999995 -21.12 0.999995 -21.12 0.003091 78.295
8.60000000 0.003117 59.486 0.999995 -21.14 0.999995 -21.14 0.003117 78.297
8.61000000 0.003144 59.430 0.999995 -21.17 0.999995 -21.17 0.003144 78.299
8.62000000 0.003172 59.373 0.999995 -21.19 0.999995 -21.19 0.003173 78.302
8.63000000 0.003202 59.315 0.999995 -21.22 0.999995 -21.22 0.003203 78.306
8.64000000 0.003234 59.257 0.999995 -21.25 0.999995 -21.25 0.003235 78.310
8.65000000 0.003267 59.197 0.999995 -21.27 0.999995 -21.27 0.003268 78.316
8.66000000 0.003302 59.136 0.999994 -21.30 0.999994 -21.30 0.003303 78.321
8.67000000 0.003339 59.074 0.999994 -21.33 0.999994 -21.33 0.003340 78.328
8.68000000 0.003378 59.011 0.999994 -21.35 0.999994 -21.35 0.003379 78.336
8.69000000 0.003420 58.947 0.999994 -21.38 0.999994 -21.38 0.003420 78.344
8.70000000 0.003464 58.882 0.999994 -21.41 0.999994 -21.41 0.003464 78.354
8.71000000 0.003511 58.815 0.999994 -21.43 0.999994 -21.43 0.003511 78.364
8.71661273 0.003543 58.770 0.999993 -21.45 0.999993 -21.45 0.003544 78.372
8.72000000 0.003561 58.747 0.999993 -21.46 0.999993 -21.46 0.003561 78.376
8.72307393 0.003577 58.726 0.999993 -21.47 0.999993 -21.47 0.003577 78.380
8.72938709 0.003611 58.682 0.999993 -21.49 0.999993 -21.49 0.003611 78.388
8.73000000 0.003614 58.677 0.999993 -21.49 0.999993 -21.49 0.003615 78.389
8.73555558 0.003646 58.638 0.999993 -21.50 0.999993 -21.50 0.003646 78.396
8.74000000 0.003672 58.606 0.999993 -21.52 0.999993 -21.52 0.003672 78.403
8.74158273 0.003681 58.595 0.999993 -21.52 0.999993 -21.52 0.003682 78.405
8.74747178 0.003718 58.551 0.999993 -21.54 0.999993 -21.54 0.003718 78.414
8.75000000 0.003734 58.533 0.999993 -21.54 0.999993 -21.54 0.003734 78.418
8.75322589 0.003755 58.509 0.999992 -21.55 0.999992 -21.55 0.003755 78.423
8.75884814 0.003793 58.466 0.999992 -21.57 0.999992 -21.57 0.003793 78.433
8.76000000 0.003801 58.458 0.999992 -21.57 0.999992 -21.57 0.003801 78.435
8.76434158 0.003832 58.424 0.999992 -21.58 0.999992 -21.58 0.003832 78.442
8.76970913 0.003871 58.382 0.999992 -21.60 0.999992 -21.60 0.003872 78.452
8.77000000 0.003874 58.380 0.999992 -21.60 0.999992 -21.60 0.003874 78.453
8.77495370 0.003912 58.341 0.999992 -21.61 0.999992 -21.61 0.003912 78.463
8.78000000 0.003953 58.300 0.999992 -21.63 0.999992 -21.63 0.003953 78.473
8.78007809 0.003953 58.300 0.999992 -21.63 0.999992 -21.63 0.003954 78.473
8.78508506 0.003996 58.259 0.999991 -21.64 0.999991 -21.64 0.003996 78.484
8.78997730 0.004039 58.218 0.999991 -21.66 0.999991 -21.66 0.004039 78.494
8.79000000 0.004039 58.218 0.999991 -21.66 0.999991 -21.66 0.004039 78.494
8.79475745 0.004083 58.178 0.999991 -21.67 0.999991 -21.67 0.004083 78.505
8.79942806 0.004128 58.138 0.999991 -21.69 0.999991 -21.69 0.004129 78.516
8.80000000 0.004134 58.133 0.999991 -21.69 0.999991 -21.69 0.004134 78.518
8.80399165 0.004174 58.098 0.999991 -21.70 0.999991 -21.70 0.004175 78.528
8.80845068 0.004222 58.059 0.999990 -21.71 0.999990 -21.71 0.004222 78.539
8.81000000 0.004238 58.045 0.999990 -21.72 0.999990 -21.72 0.004239 78.543
8.81280752 0.004270 58.020 0.999990 -21.73 0.999990 -21.73 0.004270 78.550
8.81706454 0.004319 57.981 0.999990 -21.74 0.999990 -21.74 0.004320 78.562
8.82000000 0.004355 57.953 0.999990 -21.75 0.999990 -21.75 0.004355 78.570
8.82122402 0.004370 57.942 0.999990 -21.75 0.999990 -21.75 0.004370 78.574
8.82528818 0.004421 57.903 0.999989 -21.77 0.999989 -21.77 0.004422 78.586
8.82925922 0.004474 57.865 0.999989 -21.78 0.999989 -21.78 0.004474 78.598
8.83000000 0.004484 57.858 0.999989 -21.78 0.999989 -21.78 0.004484 78.600
8.83313926 0.004528 57.827 0.999989 -21.79 0.999989 -21.79 0.004528 78.610
8.83693040 0.004583 57.790 0.999989 -21.80 0.999989 -21.80 0.004583 78.622
8.84000000 0.004630 57.759 0.999988 -21.81 0.999988 -21.81 0.004630 78.632
8.84063468 0.004639 57.752 0.999988 -21.82 0.999988 -21.82 0.004640 78.634
8.84425407 0.004697 57.715 0.999988 -21.83 0.999988 -21.83 0.004698 78.646
8.84779053 0.004756 57.678 0.999988 -21.84 0.999988 -21.84 0.004757 78.658
8.85000000 0.004794 57.655 0.999987 -21.85 0.999987 -21.85 0.004795 78.666
8.85124595 0.004816 57.641 0.999987 -21.85 0.999987 -21.85 0.004817 78.670
8.85462220 0.004878 57.605 0.999987 -21.86 0.999987 -21.86 0.004879 78.682
8.85792108 0.004941 57.568 0.999987 -21.88 0.999987 -21.88 0.004942 78.695
8.86000000 0.004983 57.545 0.999986 -21.88 0.999986 -21.88 0.004983 78.702
8.86114438 0.005006 57.532 0.999986 -21.89 0.999986 -21.89 0.005006 78.707
8.86429381 0.005072 57.496 0.999986 -21.90 0.999986 -21.90 0.005072 78.719
8.86737109 0.005140 57.461 0.999986 -21.91 0.999986 -21.91 0.005140 78.731
8.87000000 0.005200 57.430 0.999985 -21.92 0.999985 -21.92 0.005200 78.742
8.87037785 0.005209 57.425 0.999985 -21.92 0.999985 -21.92 0.005209 78.743
8.87331571 0.005279 57.390 0.999985 -21.93 0.999985 -21.93 0.005280 78.755
8.87618626 0.005352 57.355 0.999984 -21.94 0.999984 -21.94 0.005352 78.767
8.87899103 0.005426 57.320 0.999984 -21.95 0.999984 -21.95 0.005426 78.779
8.88000000 0.005453 57.307 0.999984 -21.96 0.999984 -21.96 0.005454 78.784
8.88173153 0.005501 57.285 0.999984 -21.97 0.999984 -21.97 0.005502 78.791
8.88440924 0.005579 57.251 0.999983 -21.98 0.999983 -21.98 0.005579 78.803
8.88702559 0.005658 57.217 0.999983 -21.99 0.999983 -21.99 0.005659 78.814
8.88958199 0.005739 57.182 0.999982 -22.00 0.999982 -22.00 0.005740 78.826
8.89000000 0.005753 57.177 0.999982 -22.00 0.999982 -22.00 0.005753 78.828
8.89207981 0.005822 57.149 0.999982 -22.01 0.999982 -22.01 0.005823 78.837
8.89452040 0.005907 57.115 0.999981 -22.02 0.999981 -22.02 0.005908 78.849
8.89690507 0.005994 57.081 0.999981 -22.03 0.999981 -22.03 0.005995 78.860
8.89923509 0.006083 57.048 0.999980 -22.04 0.999980 -22.04 0.006083 78.871
8.90000000 0.006113 57.037 0.999980 -22.05 0.999980 -22.05 0.006114 78.874
8.90151173 0.006174 57.015 0.999979 -22.05 0.999979 -22.05 0.006174 78.882
8.90373619 0.006267 56.982 0.999979 -22.06 0.999979 -22.06 0.006268 78.892
8.90590969 0.006362 56.949 0.999978 -22.07 0.999978 -22.07 0.006363 78.903
8.90803339 0.006460 56.916 0.999977 -22.08 0.999977 -22.08 0.006460 78.913
8.91000000 0.006554 56.885 0.999977 -22.10 0.999977 -22.10 0.006555 78.923
8.91010842 0.006560 56.884 0.999977 -22.10 0.999977 -22.10 0.006560 78.923
8.91213590 0.006662 56.851 0.999976 -22.11 0.999976 -22.11 0.006662 78.933
8.91411693 0.006766 56.819 0.999975 -22.12 0.999975 -22.12 0.006767 78.943
8.91605257 0.006873 56.787 0.999974 -22.13 0.999974 -22.13 0.006874 78.952
8.91794385 0.006983 56.755 0.999974 -22.14 0.999974 -22.14 0.006983 78.961
8.91979180 0.007095 56.724 0.999973 -22.15 0.999973 -22.15 0.007095 78.970
8.92000000 0.007107 56.720 0.999973 -22.15 0.999973 -22.15 0.007108 78.971
8.92159740 0.007209 56.692 0.999972 -22.16 0.999972 -22.16 0.007210 78.979
8.92336163 0.007326 56.661 0.999971 -22.17 0.999971 -22.17 0.007327 78.988
8.92508543 0.007446 56.629 0.999970 -22.18 0.999970 -22.18 0.007447 78.996
8.92676974 0.007569 56.598 0.999969 -22.19 0.999969 -22.19 0.007570 79.004
8.92841545 0.007695 56.567 0.999968 -22.21 0.999968 -22.21 0.007695 79.011
8.93000000 0.007822 56.536 0.999967 -22.22 0.999967 -22.22 0.007822 79.019
8.93002345 0.007824 56.536 0.999967 -22.22 0.999967 -22.22 0.007824 79.019
8.93159461 0.007955 56.505 0.999966 -22.23 0.999966 -22.23 0.007956 79.026
8.93312976 0.008090 56.474 0.999965 -22.24 0.999965 -22.24 0.008091 79.033
8.93462974 0.008228 56.444 0.999963 -22.25 0.999963 -22.25 0.008229 79.039
8.93609535 0.008369 56.413 0.999962 -22.26 0.999962 -22.26 0.008370 79.045
8.93752738 0.008514 56.383 0.999961 -22.27 0.999961 -22.27 0.008514 79.051
8.93892659 0.008662 56.352 0.999959 -22.29 0.999959 -22.29 0.008662 79.057
8.94000000 0.008780 56.329 0.999958 -22.30 0.999958 -22.30 0.008781 79.061
8.94029375 0.008813 56.322 0.999958 -22.30 0.999958 -22.30 0.008814 79.062
8.94162957 0.008968 56.292 0.999956 -22.31 0.999956 -22.31 0.008969 79.067
8.94293479 0.009127 56.262 0.999955 -22.32 0.999955 -22.32 0.009127 79.071
8.94421010 0.009289 56.232 0.999953 -22.34 0.999953 -22.34 0.009290 79.075
8.94545618 0.009456 56.202 0.999952 -22.35 0.999952 -22.35 0.009456 79.079
8.94667372 0.009626 56.172 0.999950 -22.36 0.999950 -22.36 0.009626 79.082
8.94786335 0.009800 56.142 0.999948 -22.37 0.999948 -22.37 0.009800 79.085
8.94902573 0.009978 56.112 0.999946 -22.39 0.999946 -22.39 0.009979 79.088
8.95000000 0.010134 56.086 0.999944 -22.40 0.999944 -22.40 0.010135 79.090
8.95016147 0.010161 56.082 0.999944 -22.40 0.999944 -22.40 0.010161 79.090
8.95127119 0.010348 56.052 0.999942 -22.41 0.999942 -22.41 0.010348 79.092
8.95235548 0.010539 56.022 0.999940 -22.43 0.999940 -22.43 0.010539 79.093
8.95341493 0.010734 55.992 0.999938 -22.44 0.999938 -22.44 0.010735 79.094
8.95445010 0.010935 55.962 0.999935 -22.45 0.999935 -22.45 0.010935 79.095
8.95546155 0.011140 55.933 0.999933 -22.47 0.999933 -22.47 0.011141 79.095
8.95644982 0.011350 55.903 0.999930 -22.48 0.999930 -22.48 0.011351 79.094
8.95741545 0.011565 55.873 0.999928 -22.50 0.999928 -22.50 0.011565 79.093
8.95835895 0.011785 55.843 0.999925 -22.51 0.999925 -22.51 0.011786 79.092
8.95928084 0.012010 55.813 0.999922 -22.53 0.999922 -22.53 0.012011 79.090
8.96000000 0.012194 55.789 0.999919 -22.54 0.999919 -22.54 0.012194 79.088
8.96018159 0.012241 55.783 0.999919 -22.54 0.999919 -22.54 0.012242 79.088
8.96106171 0.012477 55.752 0.999916 -22.56 0.999916 -22.56 0.012478 79.085
8.96192167 0.012719 55.722 0.999912 -22.58 0.999912 -22.58 0.012719 79.082
8.96276192 0.012966 55.692 0.999909 -22.59 0.999909 -22.59 0.012967 79.078
8.96358291 0.013220 55.661 0.999905 -22.61 0.999905 -22.61 0.013220 79.074
8.96438509 0.013479 55.631 0.999901 -22.62 0.999901 -22.62 0.013480 79.069
8.96516889 0.013745 55.600 0.999898 -22.64 0.999898 -22.64 0.013745 79.064
8.96593474 0.014016 55.569 0.999893 -22.66 0.999893 -22.66 0.014017 79.058
8.96668303 0.014295 55.538 0.999889 -22.68 0.999889 -22.68 0.014295 79.052
8.96741418 0.014580 55.507 0.999885 -22.70 0.999885 -22.70 0.014580 79.045
8.96812857 0.014872 55.476 0.999880 -22.71 0.999880 -22.71 0.014872 79.037
8.96882659 0.015170 55.444 0.999875 -22.73 0.999875 -22.73 0.015171 79.029
8.96950862 0.015476 55.413 0.999870 -22.75 0.999870 -22.75 0.015477 79.020
8.97000000 0.015706 55.389 0.999866 -22.77 0.999866 -22.77 0.015706 79.014
8.97017503 0.015789 55.381 0.999865 -22.77 0.999865 -22.77 0.015790 79.011
8.97082616 0.016110 55.348 0.999859 -22.79 0.999859 -22.79 0.016111 79.001
8.97146237 0.016438 55.316 0.999853 -22.81 0.999853 -22.81 0.016439 78.991
8.97208400 0.016774 55.283 0.999847 -22.83 0.999847 -22.83 0.016775 78.980
8.97269139 0.017119 55.251 0.999841 -22.85 0.999841 -22.85 0.017119 78.968
8.97328487 0.017471 55.217 0.999834 -22.88 0.999834 -22.88 0.017472 78.956
8.97386474 0.017832 55.184 0.999827 -22.90 0.999827 -22.90 0.017832 78.943
8.97443133 0.018201 55.150 0.999820 -22.92 0.999820 -22.92 0.018202 78.929
8.97498493 0.018580 55.116 0.999812 -22.94 0.999812 -22.94 0.018580 78.914
8.97552585 0.018967 55.082 0.999804 -22.97 0.999804 -22.97 0.018968 78.899
8.97605438 0.019364 55.047 0.999796 -22.99 0.999796 -22.99 0.019364 78.884
8.97657079 0.019770 55.011 0.999787 -23.01 0.999787 -23.01 0.019771 78.867
8.97707537 0.020186 54.976 0.999778 -23.04 0.999778 -23.04 0.020187 78.850
8.97756839 0.020612 54.940 0.999768 -23.07 0.999768 -23.07 0.020613 78.832
8.97805011 0.021048 54.903 0.999758 -23.09 0.999758 -23.09 0.021049 78.813
8.97852080 0.021495 54.867 0.999748 -23.12 0.999748 -23.12 0.021496 78.794
8.97898070 0.021953 54.829 0.999737 -23.15 0.999737 -23.15 0.021953 78.774
8.97943006 0.022421 54.791 0.999726 -23.17 0.999726 -23.17 0.022422 78.752
8.97986912 0.022901 54.753 0.999714 -23.20 0.999714 -23.20 0.022902 78.731
8.98000000 0.023048 54.741 0.999710 -23.21 0.999710 -23.21 0.023049 78.724
8.98029812 0.023392 54.714 0.999701 -23.23 0.999701 -23.23 0.023393 78.708
8.98071730 0.023896 54.675 0.999688 -23.26 0.999688 -23.26 0.023896 78.684
8.98112687 0.024411 54.635 0.999674 -23.29 0.999674 -23.29 0.024412 78.660
8.98152705 0.024939 54.594 0.999660 -23.32 0.999660 -23.32 0.024939 78.635
8.98191807 0.025479 54.553 0.999645 -23.36 0.999645 -23.36 0.025480 78.609
8.98230012 0.026033 54.511 0.999629 -23.39 0.999629 -23.39 0.026034 78.581
8.98267342 0.026600 54.469 0.999613 -23.42 0.999613 -23.42 0.026601 78.553
8.98303817 0.027181 54.426 0.999596 -23.46 0.999596 -23.46 0.027182 78.525
8.98339456 0.027776 54.382 0.999578 -23.49 0.999578 -23.49 0.027777 78.495
8.98374278 0.028385 54.338 0.999559 -23.53 0.999559 -23.53 0.028386 78.464
8.98408302 0.029010 54.292 0.999539 -23.56 0.999539 -23.56 0.029010 78.432
8.98441547 0.029649 54.246 0.999519 -23.60 0.999519 -23.60 0.029650 78.399
8.98474030 0.030304 54.199 0.999497 -23.64 0.999497 -23.64 0.030305 78.365
8.98505769 0.030975 54.152 0.999474 -23.68 0.999474 -23.68 0.030976 78.330
8.98536780 0.031662 54.103 0.999451 -23.72 0.999451 -23.72 0.031663 78.294
8.98567081 0.032366 54.054 0.999426 -23.76 0.999426 -23.76 0.032367 78.256
8.98596687 0.033087 54.004 0.999400 -23.80 0.999400 -23.80 0.033088 78.218
8.98625616 0.033826 53.952 0.999373 -23.84 0.999373 -23.84 0.033827 78.178
8.98653881 0.034583 53.900 0.999344 -23.89 0.999344 -23.89 0.034584 78.138
8.98681498 0.035359 53.847 0.999314 -23.93 0.999314 -23.93 0.035360 78.096
8.98708483 0.036153 53.793 0.999283 -23.98 0.999283 -23.98 0.036154 78.052
8.98734850 0.036967 53.738 0.999250 -24.03 0.999250 -24.03 0.036968 78.008
8.98760612 0.037801 53.681 0.999216 -24.08 0.999216 -24.08 0.037802 77.962
8.98785784 0.038655 53.624 0.999180 -24.12 0.999180 -24.12 0.038656 77.915
8.98810379 0.039531 53.565 0.999142 -24.18 0.999142 -24.18 0.039532 77.866
8.98834411 0.040428 53.506 0.999102 -24.23 0.999102 -24.23 0.040429 77.816
8.98857892 0.041347 53.445 0.999061 -24.28 0.999061 -24.28 0.041348 77.765
8.98880835 0.042289 53.382 0.999017 -24.34 0.999017 -24.34 0.042290 77.712
8.98903252 0.043254 53.319 0.998972 -24.39 0.998972 -24.39 0.043255 77.658
8.98925155 0.044243 53.254 0.998924 -24.45 0.998924 -24.45 0.044244 77.602
8.98946557 0.045256 53.188 0.998874 -24.51 0.998874 -24.51 0.045257 77.545
8.98967468 0.046295 53.120 0.998821 -24.57 0.998821 -24.57 0.046296 77.486
8.98987901 0.047359 53.051 0.998766 -24.63 0.998766 -24.63 0.047360 77.425
8.99000000 0.048014 53.008 0.998732 -24.67 0.998732 -24.67 0.048015 77.388
8.99007864 0.048450 52.980 0.998708 -24.69 0.998708 -24.69 0.048451 77.363
8.99027371 0.049568 52.908 0.998648 -24.76 0.998648 -24.76 0.049569 77.299
8.99046431 0.050714 52.834 0.998584 -24.82 0.998584 -24.82 0.050715 77.233
8.99065053 0.051888 52.759 0.998518 -24.89 0.998518 -24.89 0.051889 77.165
8.99083249 0.053092 52.681 0.998448 -24.96 0.998448 -24.96 0.053093 77.096
8.99101029 0.054325 52.603 0.998374 -25.03 0.998374 -25.03 0.054327 77.025
8.99118400 0.055590 52.522 0.998298 -25.10 0.998298 -25.10 0.055591 76.951
8.99135374 0.056886 52.439 0.998217 -25.18 0.998217 -25.18 0.056888 76.876
8.99151959 0.058215 52.355 0.998132 -25.26 0.998132 -25.26 0.058217 76.799
8.99168164 0.059578 52.269 0.998043 -25.33 0.998043 -25.33 0.059579 76.719
8.99183997 0.060974 52.180 0.997950 -25.41 0.997950 -25.41 0.060976 76.638
8.99199468 0.062406 52.090 0.997852 -25.50 0.997852 -25.50 0.062407 76.554
8.99214584 0.063874 51.997 0.997750 -25.58 0.997750 -25.58 0.063875 76.468
8.99229353 0.065379 51.903 0.997642 -25.67 0.997642 -25.67 0.065380 76.379
8.99243785 0.066922 51.806 0.997529 -25.76 0.997529 -25.76 0.066924 76.289
8.99257886 0.068504 51.707 0.997410 -25.85 0.997410 -25.85 0.068506 76.196
8.99271663 0.070127 51.605 0.997286 -25.94 0.997286 -25.94 0.070128 76.100
8.99285125 0.071791 51.501 0.997155 -26.04 0.997155 -26.04 0.071792 76.002
8.99298278 0.073497 51.394 0.997017 -26.14 0.997017 -26.14 0.073498 75.901
8.99311130 0.075246 51.285 0.996873 -26.24 0.996873 -26.24 0.075248 75.797
8.99323688 0.077040 51.173 0.996721 -26.34 0.996721 -26.34 0.077042 75.691
8.99335958 0.078881 51.059 0.996562 -26.45 0.996562 -26.45 0.078882 75.582
8.99347946 0.080768 50.941 0.996395 -26.56 0.996395 -26.56 0.080770 75.469
8.99359660 0.082704 50.821 0.996219 -26.67 0.996219 -26.67 0.082706 75.354
8.99371106 0.084689 50.698 0.996035 -26.78 0.996035 -26.78 0.084691 75.236
8.99382289 0.086726 50.572 0.995841 -26.90 0.995841 -26.90 0.086728 75.115
8.99393216 0.088815 50.442 0.995637 -27.02 0.995637 -27.02 0.088817 74.990
8.99403893 0.090959 50.310 0.995423 -27.14 0.995423 -27.14 0.090960 74.862
8.99414325 0.093157 50.174 0.995198 -27.27 0.995198 -27.27 0.093159 74.731
8.99424518 0.095413 50.034 0.994961 -27.40 0.994961 -27.40 0.095415 74.596
8.99434477 0.097727 49.891 0.994713 -27.53 0.994713 -27.53 0.097729 74.457
8.99444208 0.100102 49.744 0.994452 -27.67 0.994452 -27.67 0.100104 74.315
8.99453716 0.102538 49.594 0.994177 -27.81 0.994177 -27.81 0.102540 74.168
8.99463007 0.105038 49.440 0.993888 -27.96 0.993888 -27.96 0.105040 74.018
8.99472084 0.107603 49.282 0.993584 -28.10 0.993584 -28.10 0.107605 73.864
8.99480954 0.110235 49.119 0.993265 -28.26 0.993265 -28.26 0.110238 73.706
8.99489620 0.112937 48.953 0.992929 -28.41 0.992929 -28.41 0.112939 73.543
8.99498088 0.115709 48.782 0.992575 -28.57 0.992575 -28.57 0.115711 73.376
8.99506361 0.118554 48.607 0.992204 -28.74 0.992204 -28.74 0.118557 73.204
8.99514445 0.121475 48.427 0.991812 -28.90 0.991812 -28.90 0.121477 73.028
8.99522344 0.124472 48.242 0.991401 -29.08 0.991401 -29.08 0.124475 72.847
8.99530062 0.127549 48.053 0.990968 -29.26 0.990968 -29.26 0.127551 72.661
8.99537603 0.130707 47.858 0.990512 -29.44 0.990512 -29.44 0.130710 72.470
8.99544971 0.133949 47.659 0.990032 -29.63 0.990032 -29.63 0.133952 72.273
8.99552170 0.137277 47.454 0.989528 -29.82 0.989528 -29.82 0.137280 72.072
8.99559205 0.140693 47.243 0.988996 -30.02 0.988996 -30.02 0.140696 71.864
8.99566078 0.144201 47.027 0.988436 -30.22 0.988436 -30.22 0.144204 71.651
8.99572794 0.147802 46.805 0.987847 -30.43 0.987847 -30.43 0.147805 71.432
8.99579356 0.151499 46.577 0.987227 -30.64 0.987227 -30.64 0.151502 71.208
8.99585767 0.155295 46.343 0.986573 -30.86 0.986573 -30.86 0.155298 70.976
8.99592032 0.159193 46.103 0.985885 -31.09 0.985885 -31.09 0.159196 70.739
8.99598153 0.163195 45.856 0.985160 -31.32 0.985160 -31.32 0.163198 70.495
8.99604133 0.167305 45.602 0.984396 -31.56 0.984396 -31.56 0.167308 70.244
8.99609977 0.171525 45.342 0.983591 -31.81 0.983591 -31.81 0.171528 69.986
8.99615687 0.175858 45.074 0.982743 -32.06 0.982743 -32.06 0.175861 69.720
8.99621266 0.180307 44.799 0.981850 -32.32 0.981850 -32.32 0.180311 69.448
8.99626717 0.184877 44.516 0.980908 -32.58 0.980908 -32.58 0.184880 69.168
8.99632043 0.189569 44.226 0.979915 -32.86 0.979915 -32.86 0.189573 68.879
8.99637247 0.194388 43.927 0.978869 -33.14 0.978869 -33.14 0.194392 68.583
8.99642332 0.199336 43.620 0.977765 -33.43 0.977765 -33.43 0.199340 68.279
8.99647301 0.204418 43.305 0.976602 -33.73 0.976602 -33.73 0.204422 67.965
8.99652155 0.209636 42.980 0.975376 -34.03 0.975376 -34.03 0.209640 67.643
8.99656899 0.214995 42.647 0.974083 -34.35 0.974083 -34.35 0.214999 67.312
8.99661533 0.220497 42.304 0.972719 -34.67 0.972719 -34.67 0.220501 66.971
8.99666062 0.226147 41.952 0.971280 -35.00 0.971280 -35.00 0.226152 66.621
8.99670487 0.231949 41.590 0.969763 -35.34 0.969763 -35.34 0.231953 66.261
8.99674810 0.237906 41.217 0.968162 -35.69 0.968162 -35.69 0.237910 65.890
8.99679034 0.244022 40.834 0.966474 -36.05 0.966474 -36.05 0.244027 65.509
8.99683162 0.250301 40.440 0.964693 -36.43 0.964693 -36.43 0.250306 65.116
8.99687194 0.256747 40.035 0.962814 -36.81 0.962814 -36.81 0.256752 64.713
8.99691135 0.263364 39.618 0.960831 -37.20 0.960831 -37.20 0.263369 64.298
8.99694985 0.270155 39.189 0.958739 -37.60 0.958739 -37.60 0.270160 63.871
8.99698747 0.277125 38.748 0.956532 -38.02 0.956532 -38.02 0.277130 63.432
8.99702423 0.284277 38.295 0.954203 -38.45 0.954203 -38.45 0.284283 62.981
8.99706014 0.291616 37.829 0.951745 -38.88 0.951745 -38.88 0.291621 62.516
8.99709524 0.299144 37.349 0.949152 -39.34 0.949152 -39.34 0.299150 62.038
8.99712952 0.306866 36.856 0.946415 -39.80 0.946415 -39.80 0.306872 61.546
8.99716303 0.314785 36.349 0.943528 -40.28 0.943528 -40.28 0.314791 61.040
8.99719576 0.322905 35.827 0.940482 -40.77 0.940482 -40.77 0.322911 60.520
8.99722775 0.331228 35.290 0.937267 -41.27 0.937267 -41.27 0.331235 59.985
8.99725900 0.339758 34.738 0.933877 -41.79 0.933877 -41.79 0.339765 59.435
8.99728953 0.348498 34.171 0.930300 -42.32 0.930300 -42.32 0.348504 58.868
8.99731937 0.357450 33.588 0.926527 -42.87 0.926527 -42.87 0.357456 58.286
8.99734852 0.366616 32.988 0.922548 -43.43 0.922548 -43.43 0.366622 57.688
8.99737701 0.375997 32.371 0.918352 -44.01 0.918352 -44.01 0.376004 57.072
8.99740484 0.385597 31.737 0.913929 -44.61 0.913929 -44.61 0.385604 56.439
8.99743203 0.395415 31.085 0.909266 -45.22 0.909266 -45.22 0.395422 55.789
8.99745860 0.405452 30.415 0.904352 -45.85 0.904352 -45.85 0.405459 55.121
8.99748457 0.415708 29.727 0.899175 -46.49 0.899175 -46.49 0.415715 54.434
8.99750993 0.426182 29.020 0.893722 -47.15 0.893722 -47.15 0.426190 53.728
8.99753472 0.436873 28.294 0.887980 -47.83 0.887980 -47.83 0.436881 53.003
8.99755894 0.447779 27.549 0.881937 -48.52 0.881937 -48.52 0.447787 52.258
8.99758260 0.458896 26.783 0.875578 -49.24 0.875578 -49.24 0.458905 51.494
8.99760572 0.470221 25.998 0.868889 -49.97 0.868889 -49.97 0.470230 50.710
8.99762831 0.481750 25.192 0.861859 -50.72 0.861859 -50.72 0.481758 49.905
8.99765039 0.493475 24.365 0.854471 -51.49 0.854471 -51.49 0.493484 49.079
8.99767195 0.505390 23.518 0.846713 -52.27 0.846713 -52.27 0.505400 48.233
8.99769303 0.517488 22.649 0.838571 -53.08 0.838571 -53.08 0.517497 47.365
8.99771362 0.529758 21.759 0.830032 -53.90 0.830032 -53.90 0.529768 46.476
8.99773374 0.542190 20.848 0.821082 -54.74 0.821082 -54.74 0.542200 45.566
8.99775340 0.554772 19.916 0.811708 -55.60 0.811708 -55.60 0.554782 44.634
8.99777260 0.567490 18.962 0.801899 -56.48 0.801899 -56.48 0.567501 43.681
8.99779137 0.580330 17.987 0.791642 -57.38 0.791642 -57.38 0.580341 42.707
8.99780971 0.593276 16.991 0.780928 -58.29 0.780928 -58.29 0.593286 41.712
8.99782762 0.606309 15.973 0.769747 -59.22 0.769747 -59.22 0.606319 40.695
8.99784513 0.619410 14.936 0.758091 -60.16 0.758091 -60.16 0.619421 39.658
8.99786224 0.632559 13.877 0.745952 -61.12 0.745952 -61.12 0.632570 38.601
8.99787895 0.645733 12.799 0.733326 -62.10 0.733326 -62.10 0.645745 37.524
8.99789528 0.658910 11.702 0.720209 -63.09 0.720209 -63.09 0.658922 36.427
8.99791124 0.672065 10.586 0.706598 -64.09 0.706598 -64.09 0.672077 35.312
8.99792683 0.685172 9.4514 0.692496 -65.11 0.692496 -65.11 0.685184 34.178
8.99794206 0.698205 8.2998 0.677904 -66.13 0.677904 -66.13 0.698217 33.027
8.99795694 0.711136 7.1317 0.662827 -67.16 0.662827 -67.16 0.711149 31.860
8.99797149 0.723937 5.9481 0.647273 -68.20 0.647273 -68.20 0.723950 30.677
8.99798570 0.736581 4.7501 0.631253 -69.25 0.631253 -69.25 0.736594 29.479
8.99799958 0.749038 3.5388 0.614778 -70.30 0.614778 -70.30 0.749051 28.269
8.99801315 0.761280 2.3153 0.597865 -71.35 0.597865 -71.35 0.761294 27.046
8.99802640 0.773279 1.0810 0.580531 -72.40 0.580531 -72.40 0.773293 25.812
8.99803936 0.785008 -0.163 0.562799 -73.45 0.562799 -73.45 0.785022 24.569
8.99805201 0.796439 -1.415 0.544690 -74.49 0.544690 -74.49 0.796454 23.318
8.99806438 0.807548 -2.673 0.526231 -75.52 0.526231 -75.52 0.807563 22.060
8.99807646 0.818311 -3.937 0.507451 -76.54 0.507451 -76.54 0.818326 20.797
8.99808826 0.828704 -5.204 0.488381 -77.54 0.488381 -77.54 0.828719 19.530
8.99809980 0.838708 -6.473 0.469052 -78.52 0.469052 -78.52 0.838723 18.261
8.99811107 0.848304 -7.743 0.449499 -79.48 0.449499 -79.48 0.848319 16.992
8.99812208 0.857474 -9.011 0.429759 -80.41 0.429759 -80.41 0.857490 15.724
8.99813284 0.866207 -10.28 0.409867 -81.30 0.409867 -81.30 0.866222 14.459
8.99814335 0.874489 -11.54 0.389864 -82.16 0.389864 -82.16 0.874505 13.198
8.99815362 0.882313 -12.79 0.369787 -82.96 0.369787 -82.96 0.882328 11.943
8.99816366 0.889671 -14.04 0.349677 -83.71 0.349677 -83.71 0.889687 10.696
8.99817347 0.896560 -15.28 0.329573 -84.39 0.329573 -84.39 0.896575 9.4566
8.99818305 0.902978 -16.51 0.309516 -85.00 0.309516 -85.00 0.902994 8.2278
8.99819241 0.908926 -17.73 0.289546 -85.51 0.289546 -85.51 0.908943 7.0104
8.99820156 0.914409 -18.93 0.269706 -85.92 0.269706 -85.92 0.914425 5.8057
8.99821050 0.919431 -20.12 0.250036 -86.20 0.250036 -86.20 0.919447 4.6149
8.99821923 0.924000 -21.30 0.230581 -86.32 0.230581 -86.32 0.924017 3.4391
8.99822776 0.928126 -22.46 0.211385 -86.25 0.211385 -86.25 0.928142 2.2792
8.99823610 0.931820 -23.60 0.192497 -85.94 0.192497 -85.94 0.931836 1.1362
8.99824425 0.935094 -24.73 0.173974 -85.33 0.173974 -85.33 0.935110 0.0109
8.99825221 0.937962 -25.84 0.155883 -84.32 0.155883 -84.32 0.937979 -1.096
8.99825999 0.940440 -26.93 0.138306 -82.80 0.138306 -82.80 0.940457 -2.184
8.99826758 0.942543 -27.99 0.121357 -80.57 0.121357 -80.57 0.942560 -3.252
8.99827501 0.944288 -29.04 0.105199 -77.37 0.105199 -77.37 0.944305 -4.300
8.99828227 0.945692 -30.07 0.090084 -72.78 0.090084 -72.78 0.945709 -5.327