! Sonnet Data File
! From: emgraph Version : 16.52
! From Project: Resonator2_extremeCap
! Data is De-embedded 
! Data File Written: 10/11/2017 17:55:29
!< HDATE 10/10/2017 20:37:37
!< MDATE 10/10/2017 20:37:37
!< PARAMS
!< Pwid1 = 2000.0
!< Pwid2 = 2000.0
!< Air_gap = 12.0
!< Width = 20.0
!< Gap = 40.0
!< END PARAMS
# GHZ S MA R 50.70000
8.95000000 0.116415 3.1673 0.993195 -88.02 0.993195 -88.02 0.116411 0.7844
!< P1 F=8.95 Eeff=(6.44622481 -2.9718e-5) Z0=(50.9069921 1.17455e-4) R=0.0 C=0.0 
!< P2 F=8.95 Eeff=(6.44622481 -2.9718e-5) Z0=(50.9069921 1.17455e-4) R=0.0 C=0.0 
8.95020000 0.116424 3.1744 0.993194 -88.03 0.993194 -88.03 0.116420 0.7705
8.95040000 0.116433 3.1816 0.993193 -88.03 0.993193 -88.03 0.116429 0.7567
8.95060000 0.116442 3.1889 0.993192 -88.03 0.993192 -88.03 0.116438 0.7428
8.95080000 0.116451 3.1961 0.993191 -88.04 0.993191 -88.04 0.116447 0.7288
8.95100000 0.116461 3.2034 0.993190 -88.04 0.993190 -88.04 0.116456 0.7148
8.95120000 0.116470 3.2108 0.993188 -88.04 0.993188 -88.04 0.116465 0.7008
8.95140000 0.116479 3.2181 0.993187 -88.05 0.993187 -88.05 0.116474 0.6868
8.95160000 0.116488 3.2255 0.993186 -88.05 0.993186 -88.05 0.116483 0.6727
8.95180000 0.116497 3.2329 0.993185 -88.05 0.993185 -88.05 0.116493 0.6585
8.95200000 0.116507 3.2404 0.993184 -88.06 0.993184 -88.06 0.116502 0.6444
8.95220000 0.116516 3.2478 0.993183 -88.06 0.993183 -88.06 0.116511 0.6301
8.95240000 0.116525 3.2553 0.993182 -88.07 0.993182 -88.07 0.116520 0.6159
8.95260000 0.116534 3.2629 0.993181 -88.07 0.993181 -88.07 0.116530 0.6016
8.95280000 0.116544 3.2704 0.993180 -88.07 0.993180 -88.07 0.116539 0.5873
8.95300000 0.116553 3.2781 0.993179 -88.08 0.993179 -88.08 0.116548 0.5729
8.95320000 0.116563 3.2857 0.993177 -88.08 0.993177 -88.08 0.116558 0.5585
8.95340000 0.116572 3.2933 0.993176 -88.08 0.993176 -88.08 0.116567 0.5440
8.95360000 0.116581 3.3010 0.993175 -88.09 0.993175 -88.09 0.116577 0.5295
8.95380000 0.116591 3.3088 0.993174 -88.09 0.993174 -88.09 0.116586 0.5150
8.95400000 0.116600 3.3165 0.993173 -88.09 0.993173 -88.09 0.116595 0.5004
8.95420000 0.116610 3.3243 0.993172 -88.10 0.993172 -88.10 0.116605 0.4858
8.95440000 0.116619 3.3322 0.993171 -88.10 0.993171 -88.10 0.116614 0.4711
8.95460000 0.116629 3.3400 0.993170 -88.10 0.993170 -88.10 0.116624 0.4564
8.95480000 0.116639 3.3479 0.993168 -88.11 0.993168 -88.11 0.116634 0.4417
8.95500000 0.116648 3.3558 0.993167 -88.11 0.993167 -88.11 0.116643 0.4269
8.95520000 0.116658 3.3638 0.993166 -88.11 0.993166 -88.11 0.116653 0.4120
8.95540000 0.116667 3.3718 0.993165 -88.12 0.993165 -88.12 0.116662 0.3971
8.95560000 0.116677 3.3798 0.993164 -88.12 0.993164 -88.12 0.116672 0.3822
8.95580000 0.116687 3.3879 0.993163 -88.12 0.993163 -88.12 0.116682 0.3673
8.95600000 0.116697 3.3960 0.993162 -88.13 0.993162 -88.13 0.116691 0.3523
8.95620000 0.116706 3.4041 0.993160 -88.13 0.993160 -88.13 0.116701 0.3372
8.95640000 0.116716 3.4123 0.993159 -88.13 0.993159 -88.13 0.116711 0.3221
8.95660000 0.116726 3.4204 0.993158 -88.14 0.993158 -88.14 0.116721 0.3070
8.95680000 0.116736 3.4287 0.993157 -88.14 0.993157 -88.14 0.116731 0.2918
8.95700000 0.116746 3.4369 0.993156 -88.14 0.993156 -88.14 0.116740 0.2765
8.95720000 0.116755 3.4452 0.993155 -88.15 0.993155 -88.15 0.116750 0.2613
8.95740000 0.116765 3.4536 0.993153 -88.15 0.993153 -88.15 0.116760 0.2459
8.95760000 0.116775 3.4619 0.993152 -88.15 0.993152 -88.15 0.116770 0.2306
8.95780000 0.116785 3.4704 0.993151 -88.16 0.993151 -88.16 0.116780 0.2152
8.95800000 0.116795 3.4788 0.993150 -88.16 0.993150 -88.16 0.116790 0.1997
8.95820000 0.116805 3.4873 0.993149 -88.16 0.993149 -88.16 0.116800 0.1842
8.95840000 0.116815 3.4958 0.993148 -88.17 0.993148 -88.17 0.116810 0.1687
8.95860000 0.116825 3.5043 0.993146 -88.17 0.993146 -88.17 0.116820 0.1531
8.95880000 0.116835 3.5129 0.993145 -88.18 0.993145 -88.18 0.116830 0.1374
8.95900000 0.116846 3.5215 0.993144 -88.18 0.993144 -88.18 0.116840 0.1217
8.95920000 0.116856 3.5302 0.993143 -88.18 0.993143 -88.18 0.116850 0.1060
8.95940000 0.116866 3.5389 0.993142 -88.19 0.993142 -88.19 0.116861 0.0902
8.95960000 0.116876 3.5476 0.993140 -88.19 0.993140 -88.19 0.116871 0.0744
8.95980000 0.116886 3.5564 0.993139 -88.19 0.993139 -88.19 0.116881 0.0585
8.96000000 0.116897 3.5652 0.993138 -88.20 0.993138 -88.20 0.116891 0.0426
8.96020000 0.116907 3.5740 0.993137 -88.20 0.993137 -88.20 0.116902 0.0266
8.96040000 0.116917 3.5829 0.993135 -88.20 0.993135 -88.20 0.116912 0.0105
8.96060000 0.116928 3.5918 0.993134 -88.21 0.993134 -88.21 0.116922 0.0000
8.96080000 0.116938 3.6008 0.993133 -88.21 0.993133 -88.21 0.116933 -0.022
8.96100000 0.116948 3.6098 0.993132 -88.21 0.993132 -88.21 0.116943 -0.038
8.96120000 0.116959 3.6188 0.993131 -88.22 0.993131 -88.22 0.116953 -0.054
8.96140000 0.116969 3.6279 0.993129 -88.22 0.993129 -88.22 0.116964 -0.070
8.96160000 0.116980 3.6370 0.993128 -88.23 0.993128 -88.23 0.116974 -0.087
8.96180000 0.116990 3.6462 0.993127 -88.23 0.993127 -88.23 0.116985 -0.103
8.96200000 0.117001 3.6554 0.993126 -88.23 0.993126 -88.23 0.116995 -0.119
8.96220000 0.117012 3.6646 0.993124 -88.24 0.993124 -88.24 0.117006 -0.136
8.96240000 0.117022 3.6739 0.993123 -88.24 0.993123 -88.24 0.117017 -0.152
8.96260000 0.117033 3.6832 0.993122 -88.24 0.993122 -88.24 0.117027 -0.169
8.96280000 0.117044 3.6925 0.993120 -88.25 0.993120 -88.25 0.117038 -0.186
8.96300000 0.117054 3.7019 0.993119 -88.25 0.993119 -88.25 0.117049 -0.202
8.96320000 0.117065 3.7114 0.993118 -88.25 0.993118 -88.25 0.117059 -0.219
8.96340000 0.117076 3.7208 0.993117 -88.26 0.993117 -88.26 0.117070 -0.236
8.96360000 0.117087 3.7304 0.993115 -88.26 0.993115 -88.26 0.117081 -0.253
8.96380000 0.117098 3.7399 0.993114 -88.27 0.993114 -88.27 0.117092 -0.270
8.96400000 0.117108 3.7495 0.993113 -88.27 0.993113 -88.27 0.117103 -0.287
8.96420000 0.117119 3.7591 0.993111 -88.27 0.993111 -88.27 0.117114 -0.304
8.96440000 0.117130 3.7688 0.993110 -88.28 0.993110 -88.28 0.117124 -0.321
8.96460000 0.117141 3.7786 0.993109 -88.28 0.993109 -88.28 0.117135 -0.338
8.96480000 0.117152 3.7883 0.993108 -88.28 0.993108 -88.28 0.117146 -0.355
8.96500000 0.117163 3.7981 0.993106 -88.29 0.993106 -88.29 0.117157 -0.372
8.96520000 0.117174 3.8080 0.993105 -88.29 0.993105 -88.29 0.117169 -0.389
8.96540000 0.117186 3.8179 0.993104 -88.30 0.993104 -88.30 0.117180 -0.407
8.96560000 0.117197 3.8278 0.993102 -88.30 0.993102 -88.30 0.117191 -0.424
8.96580000 0.117208 3.8378 0.993101 -88.30 0.993101 -88.30 0.117202 -0.442
8.96600000 0.117219 3.8478 0.993100 -88.31 0.993100 -88.31 0.117213 -0.459
8.96620000 0.117230 3.8579 0.993098 -88.31 0.993098 -88.31 0.117224 -0.477
8.96640000 0.117242 3.8680 0.993097 -88.31 0.993097 -88.31 0.117236 -0.494
8.96660000 0.117253 3.8782 0.993096 -88.32 0.993096 -88.32 0.117247 -0.512
8.96680000 0.117264 3.8884 0.993094 -88.32 0.993094 -88.32 0.117258 -0.530
8.96700000 0.117276 3.8986 0.993093 -88.33 0.993093 -88.33 0.117270 -0.548
8.96720000 0.117287 3.9089 0.993092 -88.33 0.993092 -88.33 0.117281 -0.565
8.96740000 0.117299 3.9192 0.993090 -88.33 0.993090 -88.33 0.117293 -0.583
8.96760000 0.117310 3.9296 0.993089 -88.34 0.993089 -88.34 0.117304 -0.601
8.96780000 0.117322 3.9401 0.993087 -88.34 0.993087 -88.34 0.117316 -0.619
8.96800000 0.117333 3.9505 0.993086 -88.34 0.993086 -88.34 0.117327 -0.637
8.96820000 0.117345 3.9611 0.993085 -88.35 0.993085 -88.35 0.117339 -0.656
8.96840000 0.117357 3.9716 0.993083 -88.35 0.993083 -88.35 0.117350 -0.674
8.96860000 0.117368 3.9823 0.993082 -88.36 0.993082 -88.36 0.117362 -0.692
8.96880000 0.117380 3.9929 0.993080 -88.36 0.993080 -88.36 0.117374 -0.710
8.96900000 0.117392 4.0036 0.993079 -88.36 0.993079 -88.36 0.117386 -0.729
8.96920000 0.117404 4.0144 0.993078 -88.37 0.993078 -88.37 0.117397 -0.747
8.96940000 0.117416 4.0252 0.993076 -88.37 0.993076 -88.37 0.117409 -0.766
8.96960000 0.117428 4.0361 0.993075 -88.37 0.993075 -88.37 0.117421 -0.784
8.96980000 0.117439 4.0470 0.993073 -88.38 0.993073 -88.38 0.117433 -0.803
8.97000000 0.117451 4.0579 0.993072 -88.38 0.993072 -88.38 0.117445 -0.822
8.97020000 0.117463 4.0689 0.993071 -88.39 0.993071 -88.39 0.117457 -0.840
8.97040000 0.117475 4.0800 0.993069 -88.39 0.993069 -88.39 0.117469 -0.859
8.97060000 0.117488 4.0911 0.993068 -88.39 0.993068 -88.39 0.117481 -0.878
8.97080000 0.117500 4.1022 0.993066 -88.40 0.993066 -88.40 0.117493 -0.897
8.97100000 0.117512 4.1134 0.993065 -88.40 0.993065 -88.40 0.117505 -0.916
8.97120000 0.117524 4.1247 0.993063 -88.41 0.993063 -88.41 0.117517 -0.935
8.97140000 0.117536 4.1360 0.993062 -88.41 0.993062 -88.41 0.117530 -0.954
8.97160000 0.117549 4.1473 0.993060 -88.41 0.993060 -88.41 0.117542 -0.974
8.97180000 0.117561 4.1587 0.993059 -88.42 0.993059 -88.42 0.117554 -0.993
8.97200000 0.117573 4.1702 0.993057 -88.42 0.993057 -88.42 0.117567 -1.012
8.97220000 0.117586 4.1817 0.993056 -88.43 0.993056 -88.43 0.117579 -1.032
8.97240000 0.117598 4.1933 0.993054 -88.43 0.993054 -88.43 0.117591 -1.051
8.97260000 0.117611 4.2049 0.993053 -88.43 0.993053 -88.43 0.117604 -1.071
8.97280000 0.117623 4.2166 0.993051 -88.44 0.993051 -88.44 0.117617 -1.090
8.97300000 0.117636 4.2283 0.993050 -88.44 0.993050 -88.44 0.117629 -1.110
8.97320000 0.117649 4.2400 0.993048 -88.45 0.993048 -88.45 0.117642 -1.130
8.97340000 0.117661 4.2519 0.993047 -88.45 0.993047 -88.45 0.117654 -1.150
8.97360000 0.117674 4.2638 0.993045 -88.45 0.993045 -88.45 0.117667 -1.170
8.97380000 0.117687 4.2757 0.993044 -88.46 0.993044 -88.46 0.117680 -1.190
8.97400000 0.117700 4.2877 0.993042 -88.46 0.993042 -88.46 0.117693 -1.210
8.97420000 0.117713 4.2997 0.993041 -88.47 0.993041 -88.47 0.117706 -1.230
8.97440000 0.117726 4.3118 0.993039 -88.47 0.993039 -88.47 0.117718 -1.250
8.97460000 0.117739 4.3240 0.993038 -88.47 0.993038 -88.47 0.117731 -1.270
8.97480000 0.117752 4.3362 0.993036 -88.48 0.993036 -88.48 0.117744 -1.291
8.97500000 0.117765 4.3485 0.993035 -88.48 0.993035 -88.48 0.117757 -1.311
8.97520000 0.117778 4.3608 0.993033 -88.49 0.993033 -88.49 0.117771 -1.332
8.97540000 0.117791 4.3732 0.993031 -88.49 0.993031 -88.49 0.117784 -1.352
8.97560000 0.117804 4.3856 0.993030 -88.49 0.993030 -88.49 0.117797 -1.373
8.97580000 0.117817 4.3981 0.993028 -88.50 0.993028 -88.50 0.117810 -1.393
8.97600000 0.117831 4.4107 0.993027 -88.50 0.993027 -88.50 0.117823 -1.414
8.97620000 0.117844 4.4233 0.993025 -88.51 0.993025 -88.51 0.117837 -1.435
8.97640000 0.117858 4.4360 0.993023 -88.51 0.993023 -88.51 0.117850 -1.456
8.97660000 0.117871 4.4487 0.993022 -88.51 0.993022 -88.51 0.117864 -1.477
8.97680000 0.117885 4.4615 0.993020 -88.52 0.993020 -88.52 0.117877 -1.498
8.97700000 0.117898 4.4743 0.993019 -88.52 0.993019 -88.52 0.117891 -1.519
8.97720000 0.117912 4.4873 0.993017 -88.53 0.993017 -88.53 0.117904 -1.541
8.97740000 0.117925 4.5002 0.993015 -88.53 0.993015 -88.53 0.117918 -1.562
8.97760000 0.117939 4.5133 0.993014 -88.54 0.993014 -88.54 0.117932 -1.583
8.97780000 0.117953 4.5264 0.993012 -88.54 0.993012 -88.54 0.117945 -1.605
!< P1 F=8.9778 Eeff=(6.44621095 -2.9718e-5) Z0=(50.9069096 1.17456e-4) R=0.0 C=0.0 
!< P2 F=8.9778 Eeff=(6.44621095 -2.9718e-5) Z0=(50.9069096 1.17456e-4) R=0.0 C=0.0 
8.97800000 0.117967 4.5395 0.993010 -88.54 0.993010 -88.54 0.117959 -1.626
8.97820000 0.117981 4.5527 0.993009 -88.55 0.993009 -88.55 0.117973 -1.648
8.97840000 0.117995 4.5660 0.993007 -88.55 0.993007 -88.55 0.117987 -1.670
8.97860000 0.118009 4.5794 0.993005 -88.56 0.993005 -88.56 0.118001 -1.691
8.97880000 0.118023 4.5928 0.993004 -88.56 0.993004 -88.56 0.118015 -1.713
8.97900000 0.118037 4.6062 0.993002 -88.56 0.993002 -88.56 0.118029 -1.735
8.97920000 0.118051 4.6198 0.993000 -88.57 0.993000 -88.57 0.118043 -1.757
8.97940000 0.118065 4.6334 0.992999 -88.57 0.992999 -88.57 0.118057 -1.780
8.97960000 0.118079 4.6470 0.992997 -88.58 0.992997 -88.58 0.118071 -1.802
8.97980000 0.118094 4.6608 0.992995 -88.58 0.992995 -88.58 0.118086 -1.824
8.98000000 0.118108 4.6745 0.992993 -88.59 0.992993 -88.59 0.118100 -1.846
8.98020000 0.118123 4.6884 0.992992 -88.59 0.992992 -88.59 0.118115 -1.869
8.98040000 0.118137 4.7023 0.992990 -88.59 0.992990 -88.59 0.118129 -1.891
8.98060000 0.118152 4.7163 0.992988 -88.60 0.992988 -88.60 0.118144 -1.914
8.98080000 0.118166 4.7304 0.992986 -88.60 0.992986 -88.60 0.118158 -1.937
8.98100000 0.118181 4.7445 0.992985 -88.61 0.992985 -88.61 0.118173 -1.960
8.98120000 0.118196 4.7587 0.992983 -88.61 0.992983 -88.61 0.118187 -1.983
8.98140000 0.118211 4.7730 0.992981 -88.62 0.992981 -88.62 0.118202 -2.006
8.98160000 0.118225 4.7873 0.992979 -88.62 0.992979 -88.62 0.118217 -2.029
8.98180000 0.118240 4.8017 0.992977 -88.63 0.992977 -88.63 0.118232 -2.052
8.98200000 0.118255 4.8162 0.992976 -88.63 0.992976 -88.63 0.118247 -2.075
8.98220000 0.118270 4.8307 0.992974 -88.63 0.992974 -88.63 0.118262 -2.098
8.98240000 0.118286 4.8453 0.992972 -88.64 0.992972 -88.64 0.118277 -2.122
8.98260000 0.118301 4.8600 0.992970 -88.64 0.992970 -88.64 0.118292 -2.145
8.98280000 0.118316 4.8747 0.992968 -88.65 0.992968 -88.65 0.118307 -2.169
8.98300000 0.118331 4.8896 0.992967 -88.65 0.992967 -88.65 0.118323 -2.193
8.98320000 0.118347 4.9045 0.992965 -88.66 0.992965 -88.66 0.118338 -2.217
8.98340000 0.118362 4.9194 0.992963 -88.66 0.992963 -88.66 0.118353 -2.241
8.98360000 0.118378 4.9345 0.992961 -88.67 0.992961 -88.67 0.118369 -2.265
8.98380000 0.118393 4.9496 0.992959 -88.67 0.992959 -88.67 0.118384 -2.289
8.98400000 0.118409 4.9648 0.992957 -88.67 0.992957 -88.67 0.118400 -2.313
8.98420000 0.118425 4.9800 0.992955 -88.68 0.992955 -88.68 0.118416 -2.337
8.98440000 0.118440 4.9954 0.992953 -88.68 0.992953 -88.68 0.118431 -2.362
8.98460000 0.118456 5.0108 0.992951 -88.69 0.992951 -88.69 0.118447 -2.386
8.98480000 0.118472 5.0263 0.992950 -88.69 0.992950 -88.69 0.118463 -2.411
8.98500000 0.118488 5.0418 0.992948 -88.70 0.992948 -88.70 0.118479 -2.435
8.98520000 0.118504 5.0575 0.992946 -88.70 0.992946 -88.70 0.118495 -2.460
8.98540000 0.118520 5.0732 0.992944 -88.71 0.992944 -88.71 0.118511 -2.485
8.98560000 0.118537 5.0890 0.992942 -88.71 0.992942 -88.71 0.118527 -2.510
8.98580000 0.118553 5.1049 0.992940 -88.72 0.992940 -88.72 0.118544 -2.535
8.98600000 0.118569 5.1208 0.992938 -88.72 0.992938 -88.72 0.118560 -2.560
8.98620000 0.118586 5.1369 0.992936 -88.72 0.992936 -88.72 0.118576 -2.586
8.98640000 0.118602 5.1530 0.992934 -88.73 0.992934 -88.73 0.118593 -2.611
8.98660000 0.118619 5.1692 0.992932 -88.73 0.992932 -88.73 0.118609 -2.637
8.98680000 0.118635 5.1855 0.992930 -88.74 0.992930 -88.74 0.118626 -2.662
8.98700000 0.118652 5.2018 0.992928 -88.74 0.992928 -88.74 0.118643 -2.688
8.98720000 0.118669 5.2183 0.992926 -88.75 0.992926 -88.75 0.118659 -2.714
8.98740000 0.118686 5.2348 0.992924 -88.75 0.992924 -88.75 0.118676 -2.740
8.98760000 0.118703 5.2514 0.992922 -88.76 0.992922 -88.76 0.118693 -2.766
8.98780000 0.118720 5.2681 0.992920 -88.76 0.992920 -88.76 0.118710 -2.792
8.98800000 0.118737 5.2849 0.992918 -88.77 0.992918 -88.77 0.118727 -2.818
8.98820000 0.118754 5.3017 0.992916 -88.77 0.992916 -88.77 0.118744 -2.845
8.98840000 0.118771 5.3187 0.992913 -88.78 0.992913 -88.78 0.118762 -2.871
8.98860000 0.118789 5.3357 0.992911 -88.78 0.992911 -88.78 0.118779 -2.898
8.98880000 0.118806 5.3528 0.992909 -88.79 0.992909 -88.79 0.118796 -2.925
8.98900000 0.118824 5.3700 0.992907 -88.79 0.992907 -88.79 0.118814 -2.951
8.98920000 0.118841 5.3873 0.992905 -88.80 0.992905 -88.80 0.118831 -2.978
8.98940000 0.118859 5.4047 0.992903 -88.80 0.992903 -88.80 0.118849 -3.005
8.98960000 0.118877 5.4222 0.992901 -88.81 0.992901 -88.81 0.118867 -3.033
8.98980000 0.118895 5.4397 0.992899 -88.81 0.992899 -88.81 0.118885 -3.060
8.99000000 0.118913 5.4574 0.992896 -88.82 0.992896 -88.82 0.118903 -3.087
8.99020000 0.118931 5.4751 0.992894 -88.82 0.992894 -88.82 0.118921 -3.115
8.99040000 0.118949 5.4930 0.992892 -88.82 0.992892 -88.82 0.118939 -3.142
8.99060000 0.118967 5.5109 0.992890 -88.83 0.992890 -88.83 0.118957 -3.170
8.99080000 0.118985 5.5289 0.992888 -88.83 0.992888 -88.83 0.118975 -3.198
8.99100000 0.119004 5.5470 0.992885 -88.84 0.992885 -88.84 0.118993 -3.226
8.99120000 0.119022 5.5652 0.992883 -88.84 0.992883 -88.84 0.119012 -3.254
8.99140000 0.119041 5.5835 0.992881 -88.85 0.992881 -88.85 0.119030 -3.283
8.99160000 0.119060 5.6019 0.992879 -88.85 0.992879 -88.85 0.119049 -3.311
8.99180000 0.119078 5.6204 0.992876 -88.86 0.992876 -88.86 0.119068 -3.339
8.99200000 0.119097 5.6390 0.992874 -88.86 0.992874 -88.86 0.119087 -3.368
8.99220000 0.119116 5.6577 0.992872 -88.87 0.992872 -88.87 0.119105 -3.397
8.99240000 0.119135 5.6765 0.992869 -88.87 0.992869 -88.87 0.119125 -3.426
8.99260000 0.119154 5.6954 0.992867 -88.88 0.992867 -88.88 0.119144 -3.455
8.99280000 0.119174 5.7143 0.992865 -88.88 0.992865 -88.88 0.119163 -3.484
8.99300000 0.119193 5.7334 0.992862 -88.89 0.992862 -88.89 0.119182 -3.513
8.99320000 0.119212 5.7526 0.992860 -88.90 0.992860 -88.90 0.119202 -3.543
8.99340000 0.119232 5.7719 0.992858 -88.90 0.992858 -88.90 0.119221 -3.572
8.99360000 0.119252 5.7913 0.992855 -88.91 0.992855 -88.91 0.119241 -3.602
8.99380000 0.119271 5.8107 0.992853 -88.91 0.992853 -88.91 0.119260 -3.632
8.99400000 0.119291 5.8303 0.992850 -88.92 0.992850 -88.92 0.119280 -3.662
8.99420000 0.119311 5.8500 0.992848 -88.92 0.992848 -88.92 0.119300 -3.692
8.99440000 0.119331 5.8698 0.992846 -88.93 0.992846 -88.93 0.119320 -3.722
8.99460000 0.119352 5.8897 0.992843 -88.93 0.992843 -88.93 0.119340 -3.752
8.99480000 0.119372 5.9098 0.992841 -88.94 0.992841 -88.94 0.119360 -3.783
8.99500000 0.119392 5.9299 0.992838 -88.94 0.992838 -88.94 0.119381 -3.814
8.99520000 0.119413 5.9501 0.992836 -88.95 0.992836 -88.95 0.119401 -3.844
8.99540000 0.119433 5.9704 0.992833 -88.95 0.992833 -88.95 0.119422 -3.875
8.99560000 0.119454 5.9909 0.992831 -88.96 0.992831 -88.96 0.119443 -3.906
8.99580000 0.119475 6.0114 0.992828 -88.96 0.992828 -88.96 0.119463 -3.938
8.99600000 0.119496 6.0321 0.992826 -88.97 0.992826 -88.97 0.119484 -3.969
8.99620000 0.119517 6.0529 0.992823 -88.97 0.992823 -88.97 0.119505 -4.000
8.99640000 0.119538 6.0738 0.992820 -88.98 0.992820 -88.98 0.119526 -4.032
8.99660000 0.119560 6.0948 0.992818 -88.98 0.992818 -88.98 0.119548 -4.064
8.99680000 0.119581 6.1159 0.992815 -88.99 0.992815 -88.99 0.119569 -4.096
8.99700000 0.119602 6.1371 0.992813 -89.00 0.992813 -89.00 0.119590 -4.128
8.99720000 0.119624 6.1585 0.992810 -89.00 0.992810 -89.00 0.119612 -4.160
8.99740000 0.119646 6.1800 0.992807 -89.01 0.992807 -89.01 0.119634 -4.193
8.99760000 0.119668 6.2016 0.992805 -89.01 0.992805 -89.01 0.119656 -4.225
8.99780000 0.119690 6.2233 0.992802 -89.02 0.992802 -89.02 0.119678 -4.258
8.99800000 0.119712 6.2451 0.992799 -89.02 0.992799 -89.02 0.119700 -4.291
8.99820000 0.119734 6.2670 0.992797 -89.03 0.992797 -89.03 0.119722 -4.324
8.99840000 0.119757 6.2891 0.992794 -89.03 0.992794 -89.03 0.119744 -4.357
8.99860000 0.119779 6.3113 0.992791 -89.04 0.992791 -89.04 0.119767 -4.390
8.99880000 0.119802 6.3336 0.992788 -89.05 0.992788 -89.05 0.119789 -4.424
8.99900000 0.119825 6.3561 0.992785 -89.05 0.992785 -89.05 0.119812 -4.458
8.99920000 0.119848 6.3786 0.992783 -89.06 0.992783 -89.06 0.119835 -4.491
8.99940000 0.119871 6.4013 0.992780 -89.06 0.992780 -89.06 0.119858 -4.526
8.99960000 0.119894 6.4241 0.992777 -89.07 0.992777 -89.07 0.119881 -4.560
8.99980000 0.119917 6.4471 0.992774 -89.07 0.992774 -89.07 0.119904 -4.594
9.00000000 0.119941 6.4701 0.992771 -89.08 0.992771 -89.08 0.119928 -4.629
9.00020000 0.119965 6.4933 0.992768 -89.08 0.992768 -89.08 0.119951 -4.663
9.00040000 0.119988 6.5167 0.992766 -89.09 0.992766 -89.09 0.119975 -4.698
9.00060000 0.120012 6.5401 0.992763 -89.10 0.992763 -89.10 0.119999 -4.733
9.00080000 0.120036 6.5637 0.992760 -89.10 0.992760 -89.10 0.120023 -4.768
9.00100000 0.120061 6.5875 0.992757 -89.11 0.992757 -89.11 0.120047 -4.804
9.00120000 0.120085 6.6113 0.992754 -89.11 0.992754 -89.11 0.120071 -4.839
9.00140000 0.120109 6.6353 0.992751 -89.12 0.992751 -89.12 0.120096 -4.875
9.00160000 0.120134 6.6595 0.992748 -89.13 0.992748 -89.13 0.120120 -4.911
9.00180000 0.120159 6.6838 0.992745 -89.13 0.992745 -89.13 0.120145 -4.947
9.00200000 0.120184 6.7082 0.992742 -89.14 0.992742 -89.14 0.120170 -4.983
9.00220000 0.120209 6.7327 0.992739 -89.14 0.992739 -89.14 0.120195 -5.020
9.00240000 0.120234 6.7574 0.992735 -89.15 0.992735 -89.15 0.120220 -5.057
9.00260000 0.120260 6.7823 0.992732 -89.16 0.992732 -89.16 0.120246 -5.093
9.00280000 0.120285 6.8073 0.992729 -89.16 0.992729 -89.16 0.120271 -5.130
9.00300000 0.120311 6.8324 0.992726 -89.17 0.992726 -89.17 0.120297 -5.168
9.00320000 0.120337 6.8577 0.992723 -89.17 0.992723 -89.17 0.120323 -5.205
9.00340000 0.120363 6.8831 0.992720 -89.18 0.992720 -89.18 0.120349 -5.243
9.00360000 0.120389 6.9087 0.992716 -89.19 0.992716 -89.19 0.120375 -5.281
9.00380000 0.120416 6.9344 0.992713 -89.19 0.992713 -89.19 0.120401 -5.319
9.00400000 0.120442 6.9603 0.992710 -89.20 0.992710 -89.20 0.120428 -5.357
9.00420000 0.120469 6.9863 0.992707 -89.20 0.992707 -89.20 0.120454 -5.395
9.00440000 0.120496 7.0125 0.992703 -89.21 0.992703 -89.21 0.120481 -5.434
9.00460000 0.120523 7.0388 0.992700 -89.22 0.992700 -89.22 0.120508 -5.473
9.00480000 0.120550 7.0653 0.992697 -89.22 0.992697 -89.22 0.120535 -5.512
9.00500000 0.120578 7.0919 0.992693 -89.23 0.992693 -89.23 0.120563 -5.551
9.00520000 0.120605 7.1187 0.992690 -89.24 0.992690 -89.24 0.120590 -5.590
9.00540000 0.120633 7.1457 0.992686 -89.24 0.992686 -89.24 0.120618 -5.630
9.00560000 0.120661 7.1728 0.992683 -89.25 0.992683 -89.25 0.120646 -5.670
9.00580000 0.120689 7.2001 0.992680 -89.25 0.992680 -89.25 0.120674 -5.710
9.00600000 0.120718 7.2276 0.992676 -89.26 0.992676 -89.26 0.120702 -5.750
9.00620000 0.120746 7.2552 0.992673 -89.27 0.992673 -89.27 0.120731 -5.791
9.00640000 0.120775 7.2829 0.992669 -89.27 0.992669 -89.27 0.120759 -5.831
9.00660000 0.120804 7.3109 0.992665 -89.28 0.992665 -89.28 0.120788 -5.872
9.00680000 0.120833 7.3390 0.992662 -89.29 0.992662 -89.29 0.120817 -5.914
9.00700000 0.120862 7.3673 0.992658 -89.29 0.992658 -89.29 0.120846 -5.955
9.00720000 0.120892 7.3957 0.992655 -89.30 0.992655 -89.30 0.120876 -5.997
9.00740000 0.120922 7.4244 0.992651 -89.31 0.992651 -89.31 0.120906 -6.038
9.00760000 0.120952 7.4532 0.992647 -89.31 0.992647 -89.31 0.120935 -6.081
9.00780000 0.120982 7.4821 0.992643 -89.32 0.992643 -89.32 0.120966 -6.123
9.00800000 0.121012 7.5113 0.992640 -89.33 0.992640 -89.33 0.120996 -6.165
9.00820000 0.121043 7.5406 0.992636 -89.33 0.992636 -89.33 0.121026 -6.208
9.00840000 0.121074 7.5701 0.992632 -89.34 0.992632 -89.34 0.121057 -6.251
9.00860000 0.121105 7.5998 0.992628 -89.35 0.992628 -89.35 0.121088 -6.294
9.00880000 0.121136 7.6297 0.992624 -89.35 0.992624 -89.35 0.121119 -6.338
9.00900000 0.121167 7.6598 0.992621 -89.36 0.992621 -89.36 0.121151 -6.382
9.00920000 0.121199 7.6900 0.992617 -89.37 0.992617 -89.37 0.121182 -6.426
9.00940000 0.121231 7.7205 0.992613 -89.37 0.992613 -89.37 0.121214 -6.470
9.00960000 0.121263 7.7511 0.992609 -89.38 0.992609 -89.38 0.121246 -6.515
9.00980000 0.121296 7.7819 0.992605 -89.39 0.992605 -89.39 0.121278 -6.559
9.01000000 0.121328 7.8129 0.992601 -89.40 0.992601 -89.40 0.121311 -6.604
9.01020000 0.121361 7.8441 0.992597 -89.40 0.992597 -89.40 0.121344 -6.650
9.01040000 0.121394 7.8755 0.992592 -89.41 0.992592 -89.41 0.121377 -6.695
9.01060000 0.121428 7.9071 0.992588 -89.42 0.992588 -89.42 0.121410 -6.741
9.01080000 0.121461 7.9389 0.992584 -89.42 0.992584 -89.42 0.121443 -6.787
9.01100000 0.121495 7.9709 0.992580 -89.43 0.992580 -89.43 0.121477 -6.833
9.01120000 0.121529 8.0031 0.992576 -89.44 0.992576 -89.44 0.121511 -6.880
9.01140000 0.121563 8.0355 0.992571 -89.44 0.992571 -89.44 0.121545 -6.927
9.01160000 0.121598 8.0682 0.992567 -89.45 0.992567 -89.45 0.121580 -6.974
9.01180000 0.121633 8.1010 0.992563 -89.46 0.992563 -89.46 0.121615 -7.021
9.01200000 0.121668 8.1340 0.992558 -89.47 0.992558 -89.47 0.121650 -7.069
9.01220000 0.121704 8.1673 0.992554 -89.47 0.992554 -89.47 0.121685 -7.117
9.01240000 0.121739 8.2007 0.992550 -89.48 0.992550 -89.48 0.121720 -7.165
9.01260000 0.121775 8.2344 0.992545 -89.49 0.992545 -89.49 0.121756 -7.214
9.01280000 0.121811 8.2683 0.992541 -89.50 0.992541 -89.50 0.121792 -7.263
9.01300000 0.121848 8.3024 0.992536 -89.50 0.992536 -89.50 0.121829 -7.312
9.01320000 0.121885 8.3367 0.992532 -89.51 0.992532 -89.51 0.121866 -7.361
9.01340000 0.121922 8.3713 0.992527 -89.52 0.992527 -89.52 0.121903 -7.411
9.01360000 0.121959 8.4061 0.992522 -89.53 0.992522 -89.53 0.121940 -7.461
9.01380000 0.121997 8.4411 0.992518 -89.53 0.992518 -89.53 0.121977 -7.511
9.01400000 0.122035 8.4764 0.992513 -89.54 0.992513 -89.54 0.122015 -7.562
9.01420000 0.122073 8.5118 0.992508 -89.55 0.992508 -89.55 0.122053 -7.613
9.01440000 0.122112 8.5475 0.992503 -89.56 0.992503 -89.56 0.122092 -7.664
9.01460000 0.122151 8.5835 0.992498 -89.57 0.992498 -89.57 0.122131 -7.716
9.01480000 0.122190 8.6197 0.992494 -89.57 0.992494 -89.57 0.122170 -7.768
9.01500000 0.122230 8.6561 0.992489 -89.58 0.992489 -89.58 0.122209 -7.820
9.01520000 0.122269 8.6928 0.992484 -89.59 0.992484 -89.59 0.122249 -7.873
9.01540000 0.122310 8.7297 0.992479 -89.60 0.992479 -89.60 0.122289 -7.926
9.01560000 0.122350 8.7668 0.992474 -89.60 0.992474 -89.60 0.122329 -7.979
9.01580000 0.122391 8.8042 0.992468 -89.61 0.992468 -89.61 0.122370 -8.032
9.01600000 0.122432 8.8419 0.992463 -89.62 0.992463 -89.62 0.122411 -8.086
9.01620000 0.122474 8.8798 0.992458 -89.63 0.992458 -89.63 0.122453 -8.140
9.01640000 0.122516 8.9180 0.992453 -89.64 0.992453 -89.64 0.122494 -8.195
9.01660000 0.122558 8.9564 0.992448 -89.65 0.992448 -89.65 0.122536 -8.250
9.01680000 0.122601 8.9951 0.992442 -89.65 0.992442 -89.65 0.122579 -8.305
9.01700000 0.122644 9.0341 0.992437 -89.66 0.992437 -89.66 0.122622 -8.361
9.01720000 0.122687 9.0733 0.992431 -89.67 0.992431 -89.67 0.122665 -8.417
9.01740000 0.122731 9.1128 0.992426 -89.68 0.992426 -89.68 0.122708 -8.473
9.01760000 0.122775 9.1526 0.992420 -89.69 0.992420 -89.69 0.122752 -8.530
9.01780000 0.122819 9.1926 0.992415 -89.70 0.992415 -89.70 0.122797 -8.587
9.01800000 0.122864 9.2329 0.992409 -89.70 0.992409 -89.70 0.122841 -8.644
9.01820000 0.122909 9.2735 0.992403 -89.71 0.992403 -89.71 0.122887 -8.702
9.01840000 0.122955 9.3144 0.992398 -89.72 0.992398 -89.72 0.122932 -8.760
9.01860000 0.123001 9.3556 0.992392 -89.73 0.992392 -89.73 0.122978 -8.819
9.01880000 0.123048 9.3970 0.992386 -89.74 0.992386 -89.74 0.123024 -8.878
9.01900000 0.123094 9.4387 0.992380 -89.75 0.992380 -89.75 0.123071 -8.937
9.01920000 0.123142 9.4808 0.992374 -89.76 0.992374 -89.76 0.123118 -8.997
9.01940000 0.123189 9.5231 0.992368 -89.77 0.992368 -89.77 0.123166 -9.057
9.01960000 0.123238 9.5657 0.992362 -89.77 0.992362 -89.77 0.123214 -9.118
9.01980000 0.123286 9.6087 0.992356 -89.78 0.992356 -89.78 0.123262 -9.179
9.02000000 0.123335 9.6519 0.992350 -89.79 0.992350 -89.79 0.123311 -9.240
9.02020000 0.123385 9.6954 0.992344 -89.80 0.992344 -89.80 0.123360 -9.302
9.02040000 0.123435 9.7393 0.992337 -89.81 0.992337 -89.81 0.123410 -9.364
9.02060000 0.123485 9.7835 0.992331 -89.82 0.992331 -89.82 0.123460 -9.427
9.02080000 0.123536 9.8280 0.992325 -89.83 0.992325 -89.83 0.123511 -9.490
9.02100000 0.123587 9.8728 0.992318 -89.84 0.992318 -89.84 0.123562 -9.553
9.02120000 0.123639 9.9179 0.992312 -89.85 0.992312 -89.85 0.123614 -9.617
9.02140000 0.123691 9.9634 0.992305 -89.86 0.992305 -89.86 0.123666 -9.682
9.02160000 0.123744 10.009 0.992298 -89.87 0.992298 -89.87 0.123718 -9.747
9.02180000 0.123798 10.055 0.992291 -89.88 0.992291 -89.88 0.123772 -9.812
9.02200000 0.123851 10.102 0.992285 -89.89 0.992285 -89.89 0.123825 -9.878
9.02220000 0.123906 10.149 0.992278 -89.90 0.992278 -89.90 0.123879 -9.944
9.02240000 0.123961 10.196 0.992271 -89.91 0.992271 -89.91 0.123934 -10.01
9.02260000 0.124016 10.243 0.992264 -89.92 0.992264 -89.92 0.123989 -10.08
9.02280000 0.124072 10.291 0.992257 -89.93 0.992257 -89.93 0.124045 -10.15
9.02300000 0.124128 10.339 0.992250 -89.94 0.992250 -89.94 0.124101 -10.21
9.02320000 0.124185 10.388 0.992242 -89.95 0.992242 -89.95 0.124158 -10.28
9.02340000 0.124243 10.437 0.992235 -89.96 0.992235 -89.96 0.124215 -10.35
9.02360000 0.124301 10.486 0.992228 -89.97 0.992228 -89.97 0.124273 -10.42
9.02380000 0.124360 10.536 0.992220 -89.98 0.992220 -89.98 0.124332 -10.49
9.02400000 0.124419 10.586 0.992213 -89.99 0.992213 -89.99 0.124391 -10.56
9.02420000 0.124479 10.636 0.992205 -90.00 0.992205 -90.00 0.124451 -10.63
9.02440000 0.124540 10.687 0.992197 -90.01 0.992197 -90.01 0.124511 -10.70
9.02460000 0.124601 10.738 0.992189 -90.02 0.992189 -90.02 0.124572 -10.78
9.02480000 0.124663 10.789 0.992182 -90.03 0.992182 -90.03 0.124634 -10.85
9.02500000 0.124725 10.841 0.992174 -90.04 0.992174 -90.04 0.124696 -10.92
9.02520000 0.124788 10.894 0.992166 -90.05 0.992166 -90.05 0.124759 -11.00
9.02540000 0.124852 10.947 0.992157 -90.06 0.992157 -90.06 0.124822 -11.07
9.02560000 0.124916 11.000 0.992149 -90.07 0.992149 -90.07 0.124886 -11.15
9.02580000 0.124982 11.053 0.992141 -90.08 0.992141 -90.08 0.124951 -11.22
9.02600000 0.125047 11.107 0.992132 -90.09 0.992132 -90.09 0.125017 -11.30
9.02620000 0.125114 11.162 0.992124 -90.10 0.992124 -90.10 0.125083 -11.37
9.02640000 0.125181 11.216 0.992115 -90.11 0.992115 -90.11 0.125150 -11.45
9.02660000 0.125249 11.272 0.992107 -90.13 0.992107 -90.13 0.125217 -11.53
9.02680000 0.125317 11.327 0.992098 -90.14 0.992098 -90.14 0.125286 -11.61
9.02700000 0.125387 11.383 0.992089 -90.15 0.992089 -90.15 0.125355 -11.69
9.02720000 0.125457 11.440 0.992080 -90.16 0.992080 -90.16 0.125425 -11.76
9.02740000 0.125528 11.497 0.992071 -90.17 0.992071 -90.17 0.125495 -11.84
9.02760000 0.125599 11.554 0.992062 -90.18 0.992062 -90.18 0.125567 -11.93
9.02780000 0.125672 11.612 0.992052 -90.19 0.992052 -90.19 0.125639 -12.01
9.02800000 0.125745 11.671 0.992043 -90.21 0.992043 -90.21 0.125712 -12.09