! Sonnet Data File
! From: emgraph Version : 16.52
! From Project: Resonator2_cp
! Data is De-embedded 
! Data File Written: 10/09/2017 00:47:19
!< HDATE 10/08/2017 10:09:33
!< MDATE 10/08/2017 10:09:33
!< PARAMS
!< Length = 400.0
!< Pwid1 = 2000.0
!< Pwid2 = 2000.0
!< Air_gap = 24.0
!< Width = 40.0
!< gap = 26.0
!< END PARAMS
# GHZ S MA R 51.00000
8.90000000 0.009318 -172.8 0.999953 -81.61 0.999953 -81.61 0.009318 -170.5
!< P1 F=8.9 Eeff=(6.44311882 -2.9701e-5) Z0=(50.4817959 1.16462e-4) R=0.0 C=0.0 
!< P2 F=8.9 Eeff=(6.44311882 -2.9701e-5) Z0=(50.4817959 1.16462e-4) R=0.0 C=0.0 
8.90010000 0.009320 -172.8 0.999953 -81.61 0.999953 -81.61 0.009321 -170.5
8.90020000 0.009323 -172.8 0.999953 -81.61 0.999953 -81.61 0.009323 -170.5
8.90030000 0.009326 -172.8 0.999953 -81.61 0.999953 -81.61 0.009326 -170.5
8.90040000 0.009328 -172.8 0.999953 -81.61 0.999953 -81.61 0.009328 -170.5
8.90050000 0.009331 -172.8 0.999953 -81.61 0.999953 -81.61 0.009331 -170.5
8.90060000 0.009333 -172.8 0.999953 -81.61 0.999953 -81.61 0.009334 -170.5
8.90070000 0.009336 -172.8 0.999953 -81.62 0.999953 -81.62 0.009336 -170.5
8.90080000 0.009339 -172.8 0.999953 -81.62 0.999953 -81.62 0.009339 -170.5
8.90090000 0.009341 -172.8 0.999953 -81.62 0.999953 -81.62 0.009342 -170.5
8.90100000 0.009344 -172.8 0.999952 -81.62 0.999952 -81.62 0.009344 -170.5
8.90110000 0.009347 -172.8 0.999952 -81.62 0.999952 -81.62 0.009347 -170.4
8.90120000 0.009349 -172.8 0.999952 -81.62 0.999952 -81.62 0.009350 -170.4
8.90130000 0.009352 -172.8 0.999952 -81.62 0.999952 -81.62 0.009352 -170.4
8.90140000 0.009355 -172.8 0.999952 -81.62 0.999952 -81.62 0.009355 -170.4
8.90150000 0.009358 -172.9 0.999952 -81.62 0.999952 -81.62 0.009358 -170.4
8.90160000 0.009360 -172.9 0.999952 -81.63 0.999952 -81.63 0.009361 -170.4
8.90170000 0.009363 -172.9 0.999952 -81.63 0.999952 -81.63 0.009363 -170.4
8.90180000 0.009366 -172.9 0.999952 -81.63 0.999952 -81.63 0.009366 -170.4
8.90190000 0.009369 -172.9 0.999952 -81.63 0.999952 -81.63 0.009369 -170.4
8.90200000 0.009371 -172.9 0.999952 -81.63 0.999952 -81.63 0.009372 -170.4
8.90210000 0.009374 -172.9 0.999952 -81.63 0.999952 -81.63 0.009374 -170.4
8.90220000 0.009377 -172.9 0.999952 -81.63 0.999952 -81.63 0.009377 -170.4
8.90230000 0.009380 -172.9 0.999952 -81.63 0.999952 -81.63 0.009380 -170.4
8.90240000 0.009382 -172.9 0.999952 -81.63 0.999952 -81.63 0.009383 -170.4
8.90250000 0.009385 -172.9 0.999952 -81.64 0.999952 -81.64 0.009386 -170.4
8.90260000 0.009388 -172.9 0.999952 -81.64 0.999952 -81.64 0.009388 -170.4
8.90270000 0.009391 -172.9 0.999952 -81.64 0.999952 -81.64 0.009391 -170.4
8.90280000 0.009394 -172.9 0.999952 -81.64 0.999952 -81.64 0.009394 -170.4
8.90290000 0.009397 -173.0 0.999952 -81.64 0.999952 -81.64 0.009397 -170.4
8.90300000 0.009400 -173.0 0.999952 -81.64 0.999952 -81.64 0.009400 -170.4
8.90310000 0.009402 -173.0 0.999952 -81.64 0.999952 -81.64 0.009403 -170.4
8.90320000 0.009405 -173.0 0.999952 -81.64 0.999952 -81.64 0.009406 -170.3
8.90330000 0.009408 -173.0 0.999952 -81.64 0.999952 -81.64 0.009409 -170.3
8.90340000 0.009411 -173.0 0.999952 -81.64 0.999952 -81.64 0.009411 -170.3
8.90350000 0.009414 -173.0 0.999952 -81.65 0.999952 -81.65 0.009414 -170.3
8.90360000 0.009417 -173.0 0.999952 -81.65 0.999952 -81.65 0.009417 -170.3
8.90370000 0.009420 -173.0 0.999952 -81.65 0.999952 -81.65 0.009420 -170.3
8.90380000 0.009423 -173.0 0.999952 -81.65 0.999952 -81.65 0.009423 -170.3
8.90390000 0.009426 -173.0 0.999952 -81.65 0.999952 -81.65 0.009426 -170.3
8.90400000 0.009429 -173.0 0.999952 -81.65 0.999952 -81.65 0.009429 -170.3
8.90410000 0.009432 -173.0 0.999952 -81.65 0.999952 -81.65 0.009432 -170.3
8.90420000 0.009435 -173.0 0.999952 -81.65 0.999952 -81.65 0.009435 -170.3
8.90430000 0.009438 -173.1 0.999952 -81.65 0.999952 -81.65 0.009438 -170.3
8.90440000 0.009441 -173.1 0.999951 -81.66 0.999951 -81.66 0.009441 -170.3
8.90450000 0.009444 -173.1 0.999951 -81.66 0.999951 -81.66 0.009444 -170.3
8.90460000 0.009447 -173.1 0.999951 -81.66 0.999951 -81.66 0.009447 -170.3
8.90470000 0.009450 -173.1 0.999951 -81.66 0.999951 -81.66 0.009450 -170.3
8.90480000 0.009453 -173.1 0.999951 -81.66 0.999951 -81.66 0.009453 -170.3
8.90490000 0.009456 -173.1 0.999951 -81.66 0.999951 -81.66 0.009456 -170.3
8.90500000 0.009459 -173.1 0.999951 -81.66 0.999951 -81.66 0.009460 -170.3
8.90510000 0.009462 -173.1 0.999951 -81.66 0.999951 -81.66 0.009463 -170.2
8.90520000 0.009465 -173.1 0.999951 -81.66 0.999951 -81.66 0.009466 -170.2
8.90530000 0.009469 -173.1 0.999951 -81.67 0.999951 -81.67 0.009469 -170.2
8.90540000 0.009472 -173.1 0.999951 -81.67 0.999951 -81.67 0.009472 -170.2
8.90550000 0.009475 -173.1 0.999951 -81.67 0.999951 -81.67 0.009475 -170.2
8.90560000 0.009478 -173.2 0.999951 -81.67 0.999951 -81.67 0.009478 -170.2
8.90570000 0.009481 -173.2 0.999951 -81.67 0.999951 -81.67 0.009481 -170.2
8.90580000 0.009484 -173.2 0.999951 -81.67 0.999951 -81.67 0.009485 -170.2
8.90590000 0.009488 -173.2 0.999951 -81.67 0.999951 -81.67 0.009488 -170.2
8.90600000 0.009491 -173.2 0.999951 -81.67 0.999951 -81.67 0.009491 -170.2
8.90610000 0.009494 -173.2 0.999951 -81.67 0.999951 -81.67 0.009494 -170.2
8.90620000 0.009497 -173.2 0.999951 -81.68 0.999951 -81.68 0.009497 -170.2
8.90630000 0.009500 -173.2 0.999951 -81.68 0.999951 -81.68 0.009501 -170.2
8.90640000 0.009504 -173.2 0.999951 -81.68 0.999951 -81.68 0.009504 -170.2
8.90650000 0.009507 -173.2 0.999951 -81.68 0.999951 -81.68 0.009507 -170.2
8.90660000 0.009510 -173.2 0.999951 -81.68 0.999951 -81.68 0.009511 -170.2
8.90670000 0.009514 -173.2 0.999951 -81.68 0.999951 -81.68 0.009514 -170.2
8.90680000 0.009517 -173.2 0.999951 -81.68 0.999951 -81.68 0.009517 -170.2
8.90690000 0.009520 -173.3 0.999951 -81.68 0.999951 -81.68 0.009520 -170.2
8.90700000 0.009523 -173.3 0.999951 -81.68 0.999951 -81.68 0.009524 -170.1
8.90710000 0.009527 -173.3 0.999951 -81.69 0.999951 -81.69 0.009527 -170.1
8.90720000 0.009530 -173.3 0.999951 -81.69 0.999951 -81.69 0.009531 -170.1
8.90730000 0.009534 -173.3 0.999951 -81.69 0.999951 -81.69 0.009534 -170.1
8.90740000 0.009537 -173.3 0.999950 -81.69 0.999950 -81.69 0.009537 -170.1
8.90750000 0.009540 -173.3 0.999950 -81.69 0.999950 -81.69 0.009541 -170.1
8.90760000 0.009544 -173.3 0.999950 -81.69 0.999950 -81.69 0.009544 -170.1
8.90770000 0.009547 -173.3 0.999950 -81.69 0.999950 -81.69 0.009548 -170.1
8.90780000 0.009551 -173.3 0.999950 -81.69 0.999950 -81.69 0.009551 -170.1
8.90790000 0.009554 -173.3 0.999950 -81.69 0.999950 -81.69 0.009554 -170.1
8.90800000 0.009558 -173.3 0.999950 -81.70 0.999950 -81.70 0.009558 -170.1
8.90810000 0.009561 -173.3 0.999950 -81.70 0.999950 -81.70 0.009561 -170.1
8.90820000 0.009564 -173.4 0.999950 -81.70 0.999950 -81.70 0.009565 -170.1
8.90830000 0.009568 -173.4 0.999950 -81.70 0.999950 -81.70 0.009568 -170.1
8.90840000 0.009572 -173.4 0.999950 -81.70 0.999950 -81.70 0.009572 -170.1
8.90850000 0.009575 -173.4 0.999950 -81.70 0.999950 -81.70 0.009575 -170.1
8.90860000 0.009579 -173.4 0.999950 -81.70 0.999950 -81.70 0.009579 -170.1
8.90870000 0.009582 -173.4 0.999950 -81.70 0.999950 -81.70 0.009583 -170.0
8.90880000 0.009586 -173.4 0.999950 -81.71 0.999950 -81.71 0.009586 -170.0
8.90890000 0.009589 -173.4 0.999950 -81.71 0.999950 -81.71 0.009590 -170.0
8.90900000 0.009593 -173.4 0.999950 -81.71 0.999950 -81.71 0.009593 -170.0
8.90910000 0.009597 -173.4 0.999950 -81.71 0.999950 -81.71 0.009597 -170.0
8.90920000 0.009600 -173.4 0.999950 -81.71 0.999950 -81.71 0.009601 -170.0
8.90930000 0.009604 -173.5 0.999950 -81.71 0.999950 -81.71 0.009604 -170.0
8.90940000 0.009607 -173.5 0.999950 -81.71 0.999950 -81.71 0.009608 -170.0
8.90950000 0.009611 -173.5 0.999950 -81.71 0.999950 -81.71 0.009612 -170.0
8.90960000 0.009615 -173.5 0.999950 -81.71 0.999950 -81.71 0.009615 -170.0
8.90970000 0.009619 -173.5 0.999950 -81.72 0.999950 -81.72 0.009619 -170.0
8.90980000 0.009622 -173.5 0.999950 -81.72 0.999950 -81.72 0.009623 -170.0
8.90990000 0.009626 -173.5 0.999950 -81.72 0.999950 -81.72 0.009626 -170.0
8.91000000 0.009630 -173.5 0.999950 -81.72 0.999950 -81.72 0.009630 -170.0
8.91010000 0.009634 -173.5 0.999949 -81.72 0.999949 -81.72 0.009634 -170.0
8.91020000 0.009637 -173.5 0.999949 -81.72 0.999949 -81.72 0.009638 -170.0
8.91030000 0.009641 -173.5 0.999949 -81.72 0.999949 -81.72 0.009642 -169.9
8.91040000 0.009645 -173.5 0.999949 -81.72 0.999949 -81.72 0.009645 -169.9
8.91050000 0.009649 -173.6 0.999949 -81.72 0.999949 -81.72 0.009649 -169.9
8.91060000 0.009653 -173.6 0.999949 -81.73 0.999949 -81.73 0.009653 -169.9
8.91070000 0.009657 -173.6 0.999949 -81.73 0.999949 -81.73 0.009657 -169.9
8.91080000 0.009660 -173.6 0.999949 -81.73 0.999949 -81.73 0.009661 -169.9
8.91090000 0.009664 -173.6 0.999949 -81.73 0.999949 -81.73 0.009665 -169.9
8.91100000 0.009668 -173.6 0.999949 -81.73 0.999949 -81.73 0.009669 -169.9
8.91110000 0.009672 -173.6 0.999949 -81.73 0.999949 -81.73 0.009673 -169.9
8.91120000 0.009676 -173.6 0.999949 -81.73 0.999949 -81.73 0.009676 -169.9
8.91130000 0.009680 -173.6 0.999949 -81.73 0.999949 -81.73 0.009680 -169.9
8.91140000 0.009684 -173.6 0.999949 -81.73 0.999949 -81.73 0.009684 -169.9
8.91150000 0.009688 -173.6 0.999949 -81.74 0.999949 -81.74 0.009688 -169.9
8.91160000 0.009692 -173.7 0.999949 -81.74 0.999949 -81.74 0.009692 -169.9
8.91170000 0.009696 -173.7 0.999949 -81.74 0.999949 -81.74 0.009696 -169.9
8.91180000 0.009700 -173.7 0.999949 -81.74 0.999949 -81.74 0.009701 -169.8
8.91190000 0.009704 -173.7 0.999949 -81.74 0.999949 -81.74 0.009705 -169.8
8.91200000 0.009708 -173.7 0.999949 -81.74 0.999949 -81.74 0.009709 -169.8
8.91210000 0.009712 -173.7 0.999949 -81.74 0.999949 -81.74 0.009713 -169.8
8.91220000 0.009717 -173.7 0.999949 -81.74 0.999949 -81.74 0.009717 -169.8
8.91230000 0.009721 -173.7 0.999949 -81.75 0.999949 -81.75 0.009721 -169.8
8.91240000 0.009725 -173.7 0.999949 -81.75 0.999949 -81.75 0.009725 -169.8
8.91250000 0.009729 -173.7 0.999948 -81.75 0.999948 -81.75 0.009729 -169.8
8.91260000 0.009733 -173.7 0.999948 -81.75 0.999948 -81.75 0.009734 -169.8
8.91270000 0.009737 -173.8 0.999948 -81.75 0.999948 -81.75 0.009738 -169.8
8.91280000 0.009742 -173.8 0.999948 -81.75 0.999948 -81.75 0.009742 -169.8
8.91290000 0.009746 -173.8 0.999948 -81.75 0.999948 -81.75 0.009746 -169.8
8.91300000 0.009750 -173.8 0.999948 -81.75 0.999948 -81.75 0.009751 -169.8
8.91310000 0.009754 -173.8 0.999948 -81.75 0.999948 -81.75 0.009755 -169.8
8.91320000 0.009759 -173.8 0.999948 -81.76 0.999948 -81.76 0.009759 -169.7
8.91330000 0.009763 -173.8 0.999948 -81.76 0.999948 -81.76 0.009763 -169.7
8.91340000 0.009767 -173.8 0.999948 -81.76 0.999948 -81.76 0.009768 -169.7
8.91350000 0.009772 -173.8 0.999948 -81.76 0.999948 -81.76 0.009772 -169.7
8.91360000 0.009776 -173.8 0.999948 -81.76 0.999948 -81.76 0.009777 -169.7
8.91370000 0.009780 -173.9 0.999948 -81.76 0.999948 -81.76 0.009781 -169.7
8.91380000 0.009785 -173.9 0.999948 -81.76 0.999948 -81.76 0.009785 -169.7
8.91390000 0.009789 -173.9 0.999948 -81.76 0.999948 -81.76 0.009790 -169.7
8.91400000 0.009794 -173.9 0.999948 -81.77 0.999948 -81.77 0.009794 -169.7
8.91410000 0.009798 -173.9 0.999948 -81.77 0.999948 -81.77 0.009799 -169.7
8.91420000 0.009803 -173.9 0.999948 -81.77 0.999948 -81.77 0.009803 -169.7
8.91430000 0.009807 -173.9 0.999948 -81.77 0.999948 -81.77 0.009808 -169.7
8.91440000 0.009812 -173.9 0.999948 -81.77 0.999948 -81.77 0.009812 -169.7
8.91450000 0.009816 -173.9 0.999948 -81.77 0.999948 -81.77 0.009817 -169.6
8.91460000 0.009821 -173.9 0.999947 -81.77 0.999947 -81.77 0.009821 -169.6
8.91470000 0.009826 -174.0 0.999947 -81.77 0.999947 -81.77 0.009826 -169.6
8.91480000 0.009830 -174.0 0.999947 -81.77 0.999947 -81.77 0.009831 -169.6
8.91490000 0.009835 -174.0 0.999947 -81.78 0.999947 -81.78 0.009835 -169.6
8.91500000 0.009840 -174.0 0.999947 -81.78 0.999947 -81.78 0.009840 -169.6
8.91510000 0.009844 -174.0 0.999947 -81.78 0.999947 -81.78 0.009845 -169.6
8.91520000 0.009849 -174.0 0.999947 -81.78 0.999947 -81.78 0.009849 -169.6
8.91530000 0.009854 -174.0 0.999947 -81.78 0.999947 -81.78 0.009854 -169.6
8.91540000 0.009858 -174.0 0.999947 -81.78 0.999947 -81.78 0.009859 -169.6
8.91550000 0.009863 -174.0 0.999947 -81.78 0.999947 -81.78 0.009864 -169.6
8.91560000 0.009868 -174.0 0.999947 -81.78 0.999947 -81.78 0.009868 -169.6
8.91570000 0.009873 -174.1 0.999947 -81.79 0.999947 -81.79 0.009873 -169.6
8.91580000 0.009878 -174.1 0.999947 -81.79 0.999947 -81.79 0.009878 -169.5
8.91590000 0.009882 -174.1 0.999947 -81.79 0.999947 -81.79 0.009883 -169.5
8.91600000 0.009887 -174.1 0.999947 -81.79 0.999947 -81.79 0.009888 -169.5
8.91610000 0.009892 -174.1 0.999947 -81.79 0.999947 -81.79 0.009893 -169.5
8.91620000 0.009897 -174.1 0.999947 -81.79 0.999947 -81.79 0.009898 -169.5
8.91630000 0.009902 -174.1 0.999947 -81.79 0.999947 -81.79 0.009903 -169.5
8.91640000 0.009907 -174.1 0.999947 -81.79 0.999947 -81.79 0.009908 -169.5
8.91650000 0.009912 -174.1 0.999946 -81.80 0.999946 -81.80 0.009913 -169.5
8.91660000 0.009917 -174.1 0.999946 -81.80 0.999946 -81.80 0.009918 -169.5
8.91670000 0.009922 -174.2 0.999946 -81.80 0.999946 -81.80 0.009923 -169.5
8.91680000 0.009927 -174.2 0.999946 -81.80 0.999946 -81.80 0.009928 -169.5
8.91690000 0.009932 -174.2 0.999946 -81.80 0.999946 -81.80 0.009933 -169.5
8.91700000 0.009938 -174.2 0.999946 -81.80 0.999946 -81.80 0.009938 -169.4
8.91710000 0.009943 -174.2 0.999946 -81.80 0.999946 -81.80 0.009943 -169.4
8.91720000 0.009948 -174.2 0.999946 -81.80 0.999946 -81.80 0.009948 -169.4
8.91730000 0.009953 -174.2 0.999946 -81.81 0.999946 -81.81 0.009954 -169.4
8.91740000 0.009958 -174.2 0.999946 -81.81 0.999946 -81.81 0.009959 -169.4
8.91750000 0.009964 -174.2 0.999946 -81.81 0.999946 -81.81 0.009964 -169.4
8.91760000 0.009969 -174.3 0.999946 -81.81 0.999946 -81.81 0.009969 -169.4
8.91770000 0.009974 -174.3 0.999946 -81.81 0.999946 -81.81 0.009975 -169.4
8.91780000 0.009979 -174.3 0.999946 -81.81 0.999946 -81.81 0.009980 -169.4
8.91790000 0.009985 -174.3 0.999946 -81.81 0.999946 -81.81 0.009985 -169.4
8.91800000 0.009990 -174.3 0.999946 -81.81 0.999946 -81.81 0.009991 -169.4
8.91810000 0.009996 -174.3 0.999946 -81.81 0.999946 -81.81 0.009996 -169.4
8.91820000 0.010001 -174.3 0.999946 -81.82 0.999946 -81.82 0.010001 -169.3
8.91830000 0.010006 -174.3 0.999945 -81.82 0.999945 -81.82 0.010007 -169.3
8.91840000 0.010012 -174.3 0.999945 -81.82 0.999945 -81.82 0.010012 -169.3
8.91850000 0.010017 -174.4 0.999945 -81.82 0.999945 -81.82 0.010018 -169.3
8.91860000 0.010023 -174.4 0.999945 -81.82 0.999945 -81.82 0.010024 -169.3
8.91870000 0.010029 -174.4 0.999945 -81.82 0.999945 -81.82 0.010029 -169.3
8.91880000 0.010034 -174.4 0.999945 -81.82 0.999945 -81.82 0.010035 -169.3
8.91890000 0.010040 -174.4 0.999945 -81.82 0.999945 -81.82 0.010040 -169.3
8.91900000 0.010045 -174.4 0.999945 -81.83 0.999945 -81.83 0.010046 -169.3
8.91910000 0.010051 -174.4 0.999945 -81.83 0.999945 -81.83 0.010052 -169.3
8.91920000 0.010057 -174.4 0.999945 -81.83 0.999945 -81.83 0.010057 -169.3
8.91930000 0.010063 -174.5 0.999945 -81.83 0.999945 -81.83 0.010063 -169.2
8.91940000 0.010068 -174.5 0.999945 -81.83 0.999945 -81.83 0.010069 -169.2
8.91950000 0.010074 -174.5 0.999945 -81.83 0.999945 -81.83 0.010075 -169.2
8.91960000 0.010080 -174.5 0.999945 -81.83 0.999945 -81.83 0.010080 -169.2
8.91970000 0.010086 -174.5 0.999945 -81.84 0.999945 -81.84 0.010086 -169.2
8.91980000 0.010092 -174.5 0.999944 -81.84 0.999944 -81.84 0.010092 -169.2
8.91990000 0.010098 -174.5 0.999944 -81.84 0.999944 -81.84 0.010098 -169.2
8.92000000 0.010104 -174.5 0.999944 -81.84 0.999944 -81.84 0.010104 -169.2
8.92010000 0.010110 -174.6 0.999944 -81.84 0.999944 -81.84 0.010110 -169.2
8.92020000 0.010116 -174.6 0.999944 -81.84 0.999944 -81.84 0.010116 -169.2
8.92030000 0.010122 -174.6 0.999944 -81.84 0.999944 -81.84 0.010122 -169.2
8.92040000 0.010128 -174.6 0.999944 -81.84 0.999944 -81.84 0.010128 -169.1
8.92050000 0.010134 -174.6 0.999944 -81.85 0.999944 -81.85 0.010134 -169.1
8.92060000 0.010140 -174.6 0.999944 -81.85 0.999944 -81.85 0.010140 -169.1
8.92070000 0.010146 -174.6 0.999944 -81.85 0.999944 -81.85 0.010147 -169.1
8.92080000 0.010152 -174.6 0.999944 -81.85 0.999944 -81.85 0.010153 -169.1
8.92090000 0.010158 -174.6 0.999944 -81.85 0.999944 -81.85 0.010159 -169.1
8.92100000 0.010165 -174.7 0.999944 -81.85 0.999944 -81.85 0.010165 -169.1
8.92110000 0.010171 -174.7 0.999944 -81.85 0.999944 -81.85 0.010172 -169.1
8.92120000 0.010177 -174.7 0.999944 -81.85 0.999944 -81.85 0.010178 -169.1
8.92130000 0.010184 -174.7 0.999943 -81.86 0.999943 -81.86 0.010184 -169.1
8.92140000 0.010190 -174.7 0.999943 -81.86 0.999943 -81.86 0.010191 -169.0
8.92150000 0.010197 -174.7 0.999943 -81.86 0.999943 -81.86 0.010197 -169.0
8.92160000 0.010203 -174.7 0.999943 -81.86 0.999943 -81.86 0.010204 -169.0
8.92170000 0.010210 -174.8 0.999943 -81.86 0.999943 -81.86 0.010210 -169.0
8.92180000 0.010216 -174.8 0.999943 -81.86 0.999943 -81.86 0.010217 -169.0
8.92190000 0.010223 -174.8 0.999943 -81.86 0.999943 -81.86 0.010223 -169.0
8.92200000 0.010229 -174.8 0.999943 -81.86 0.999943 -81.86 0.010230 -169.0
8.92210000 0.010236 -174.8 0.999943 -81.87 0.999943 -81.87 0.010237 -169.0
8.92220000 0.010243 -174.8 0.999943 -81.87 0.999943 -81.87 0.010243 -169.0
8.92230000 0.010249 -174.8 0.999943 -81.87 0.999943 -81.87 0.010250 -168.9
8.92240000 0.010256 -174.8 0.999943 -81.87 0.999943 -81.87 0.010257 -168.9
8.92250000 0.010263 -174.9 0.999943 -81.87 0.999943 -81.87 0.010264 -168.9
8.92260000 0.010270 -174.9 0.999942 -81.87 0.999942 -81.87 0.010270 -168.9
8.92270000 0.010277 -174.9 0.999942 -81.87 0.999942 -81.87 0.010277 -168.9
8.92280000 0.010284 -174.9 0.999942 -81.88 0.999942 -81.88 0.010284 -168.9
8.92290000 0.010291 -174.9 0.999942 -81.88 0.999942 -81.88 0.010291 -168.9
8.92300000 0.010297 -174.9 0.999942 -81.88 0.999942 -81.88 0.010298 -168.9
8.92310000 0.010305 -174.9 0.999942 -81.88 0.999942 -81.88 0.010305 -168.9
8.92320000 0.010312 -175.0 0.999942 -81.88 0.999942 -81.88 0.010312 -168.9
8.92330000 0.010319 -175.0 0.999942 -81.88 0.999942 -81.88 0.010319 -168.8
8.92340000 0.010326 -175.0 0.999942 -81.88 0.999942 -81.88 0.010327 -168.8
8.92350000 0.010333 -175.0 0.999942 -81.88 0.999942 -81.88 0.010334 -168.8
8.92360000 0.010340 -175.0 0.999942 -81.89 0.999942 -81.89 0.010341 -168.8
8.92370000 0.010348 -175.0 0.999942 -81.89 0.999942 -81.89 0.010348 -168.8
8.92380000 0.010355 -175.0 0.999941 -81.89 0.999941 -81.89 0.010356 -168.8
8.92390000 0.010362 -175.0 0.999941 -81.89 0.999941 -81.89 0.010363 -168.8
8.92400000 0.010370 -175.1 0.999941 -81.89 0.999941 -81.89 0.010370 -168.8
8.92410000 0.010377 -175.1 0.999941 -81.89 0.999941 -81.89 0.010378 -168.8
8.92420000 0.010385 -175.1 0.999941 -81.89 0.999941 -81.89 0.010385 -168.7
8.92430000 0.010392 -175.1 0.999941 -81.90 0.999941 -81.90 0.010393 -168.7
8.92440000 0.010400 -175.1 0.999941 -81.90 0.999941 -81.90 0.010400 -168.7
8.92450000 0.010407 -175.1 0.999941 -81.90 0.999941 -81.90 0.010408 -168.7
8.92460000 0.010415 -175.1 0.999941 -81.90 0.999941 -81.90 0.010416 -168.7
8.92470000 0.010423 -175.2 0.999941 -81.90 0.999941 -81.90 0.010423 -168.7
8.92480000 0.010430 -175.2 0.999941 -81.90 0.999941 -81.90 0.010431 -168.7
8.92490000 0.010438 -175.2 0.999941 -81.90 0.999941 -81.90 0.010439 -168.7
8.92500000 0.010446 -175.2 0.999940 -81.91 0.999940 -81.91 0.010447 -168.6
8.92510000 0.010454 -175.2 0.999940 -81.91 0.999940 -81.91 0.010455 -168.6
8.92520000 0.010462 -175.2 0.999940 -81.91 0.999940 -81.91 0.010463 -168.6
8.92530000 0.010470 -175.3 0.999940 -81.91 0.999940 -81.91 0.010471 -168.6
8.92540000 0.010478 -175.3 0.999940 -81.91 0.999940 -81.91 0.010479 -168.6
8.92550000 0.010486 -175.3 0.999940 -81.91 0.999940 -81.91 0.010487 -168.6
8.92560000 0.010494 -175.3 0.999940 -81.91 0.999940 -81.91 0.010495 -168.6
8.92570000 0.010502 -175.3 0.999940 -81.92 0.999940 -81.92 0.010503 -168.6
8.92580000 0.010510 -175.3 0.999940 -81.92 0.999940 -81.92 0.010511 -168.5
8.92590000 0.010519 -175.3 0.999940 -81.92 0.999940 -81.92 0.010520 -168.5
8.92600000 0.010527 -175.4 0.999939 -81.92 0.999939 -81.92 0.010528 -168.5
8.92610000 0.010535 -175.4 0.999939 -81.92 0.999939 -81.92 0.010536 -168.5
8.92620000 0.010544 -175.4 0.999939 -81.92 0.999939 -81.92 0.010545 -168.5
8.92630000 0.010552 -175.4 0.999939 -81.92 0.999939 -81.92 0.010553 -168.5
8.92640000 0.010561 -175.4 0.999939 -81.92 0.999939 -81.92 0.010562 -168.5
8.92650000 0.010569 -175.4 0.999939 -81.93 0.999939 -81.93 0.010570 -168.5
8.92660000 0.010578 -175.5 0.999939 -81.93 0.999939 -81.93 0.010579 -168.4
8.92670000 0.010587 -175.5 0.999939 -81.93 0.999939 -81.93 0.010588 -168.4
8.92680000 0.010596 -175.5 0.999939 -81.93 0.999939 -81.93 0.010596 -168.4
8.92690000 0.010604 -175.5 0.999939 -81.93 0.999939 -81.93 0.010605 -168.4
8.92700000 0.010613 -175.5 0.999938 -81.93 0.999938 -81.93 0.010614 -168.4
8.92710000 0.010622 -175.5 0.999938 -81.94 0.999938 -81.94 0.010623 -168.4
8.92720000 0.010631 -175.5 0.999938 -81.94 0.999938 -81.94 0.010632 -168.4
8.92730000 0.010640 -175.6 0.999938 -81.94 0.999938 -81.94 0.010641 -168.4
8.92740000 0.010649 -175.6 0.999938 -81.94 0.999938 -81.94 0.010650 -168.3
8.92750000 0.010658 -175.6 0.999938 -81.94 0.999938 -81.94 0.010659 -168.3
8.92760000 0.010668 -175.6 0.999938 -81.94 0.999938 -81.94 0.010668 -168.3
8.92770000 0.010677 -175.6 0.999938 -81.94 0.999938 -81.94 0.010678 -168.3
8.92780000 0.010686 -175.6 0.999938 -81.95 0.999938 -81.95 0.010687 -168.3
8.92790000 0.010696 -175.7 0.999937 -81.95 0.999937 -81.95 0.010696 -168.3
8.92800000 0.010705 -175.7 0.999937 -81.95 0.999937 -81.95 0.010706 -168.3
8.92810000 0.010715 -175.7 0.999937 -81.95 0.999937 -81.95 0.010715 -168.2
8.92820000 0.010724 -175.7 0.999937 -81.95 0.999937 -81.95 0.010725 -168.2
8.92830000 0.010734 -175.7 0.999937 -81.95 0.999937 -81.95 0.010735 -168.2
8.92840000 0.010743 -175.7 0.999937 -81.95 0.999937 -81.95 0.010744 -168.2
8.92850000 0.010753 -175.8 0.999937 -81.96 0.999937 -81.96 0.010754 -168.2
8.92860000 0.010763 -175.8 0.999937 -81.96 0.999937 -81.96 0.010764 -168.2
8.92870000 0.010773 -175.8 0.999937 -81.96 0.999937 -81.96 0.010774 -168.2
8.92880000 0.010783 -175.8 0.999936 -81.96 0.999936 -81.96 0.010784 -168.1
8.92890000 0.010793 -175.8 0.999936 -81.96 0.999936 -81.96 0.010794 -168.1
8.92900000 0.010803 -175.9 0.999936 -81.96 0.999936 -81.96 0.010804 -168.1
8.92910000 0.010813 -175.9 0.999936 -81.96 0.999936 -81.96 0.010814 -168.1
8.92920000 0.010823 -175.9 0.999936 -81.97 0.999936 -81.97 0.010824 -168.1
8.92930000 0.010834 -175.9 0.999936 -81.97 0.999936 -81.97 0.010835 -168.1
8.92940000 0.010844 -175.9 0.999936 -81.97 0.999936 -81.97 0.010845 -168.1
8.92950000 0.010854 -175.9 0.999936 -81.97 0.999936 -81.97 0.010855 -168.0
8.92960000 0.010865 -176.0 0.999935 -81.97 0.999935 -81.97 0.010866 -168.0
8.92970000 0.010876 -176.0 0.999935 -81.97 0.999935 -81.97 0.010877 -168.0
8.92980000 0.010886 -176.0 0.999935 -81.98 0.999935 -81.98 0.010887 -168.0
8.92990000 0.010897 -176.0 0.999935 -81.98 0.999935 -81.98 0.010898 -168.0
8.93000000 0.010908 -176.0 0.999935 -81.98 0.999935 -81.98 0.010909 -168.0
8.93010000 0.010919 -176.1 0.999935 -81.98 0.999935 -81.98 0.010920 -168.0
8.93020000 0.010930 -176.1 0.999935 -81.98 0.999935 -81.98 0.010931 -167.9
8.93030000 0.010941 -176.1 0.999934 -81.98 0.999934 -81.98 0.010942 -167.9
8.93040000 0.010952 -176.1 0.999934 -81.99 0.999934 -81.99 0.010953 -167.9
8.93050000 0.010963 -176.1 0.999934 -81.99 0.999934 -81.99 0.010964 -167.9
8.93060000 0.010974 -176.1 0.999934 -81.99 0.999934 -81.99 0.010975 -167.9
8.93070000 0.010986 -176.2 0.999934 -81.99 0.999934 -81.99 0.010987 -167.9
8.93080000 0.010997 -176.2 0.999934 -81.99 0.999934 -81.99 0.010998 -167.8
8.93090000 0.011009 -176.2 0.999934 -81.99 0.999934 -81.99 0.011010 -167.8
8.93100000 0.011020 -176.2 0.999933 -81.99 0.999933 -81.99 0.011021 -167.8
8.93110000 0.011032 -176.2 0.999933 -82.00 0.999933 -82.00 0.011033 -167.8
8.93120000 0.011044 -176.3 0.999933 -82.00 0.999933 -82.00 0.011045 -167.8
8.93130000 0.011055 -176.3 0.999933 -82.00 0.999933 -82.00 0.011056 -167.8
8.93140000 0.011067 -176.3 0.999933 -82.00 0.999933 -82.00 0.011068 -167.8
8.93150000 0.011079 -176.3 0.999933 -82.00 0.999933 -82.00 0.011080 -167.7
8.93160000 0.011091 -176.3 0.999933 -82.00 0.999933 -82.00 0.011093 -167.7
8.93170000 0.011104 -176.4 0.999932 -82.01 0.999932 -82.01 0.011105 -167.7
8.93180000 0.011116 -176.4 0.999932 -82.01 0.999932 -82.01 0.011117 -167.7
8.93190000 0.011128 -176.4 0.999932 -82.01 0.999932 -82.01 0.011130 -167.7
8.93200000 0.011141 -176.4 0.999932 -82.01 0.999932 -82.01 0.011142 -167.7
8.93210000 0.011153 -176.4 0.999932 -82.01 0.999932 -82.01 0.011155 -167.6
8.93220000 0.011166 -176.5 0.999932 -82.01 0.999932 -82.01 0.011167 -167.6
8.93230000 0.011179 -176.5 0.999931 -82.02 0.999931 -82.02 0.011180 -167.6
8.93240000 0.011192 -176.5 0.999931 -82.02 0.999931 -82.02 0.011193 -167.6
8.93250000 0.011205 -176.5 0.999931 -82.02 0.999931 -82.02 0.011206 -167.6
8.93260000 0.011218 -176.5 0.999931 -82.02 0.999931 -82.02 0.011219 -167.5
8.93270000 0.011231 -176.6 0.999931 -82.02 0.999931 -82.02 0.011232 -167.5
8.93280000 0.011244 -176.6 0.999931 -82.02 0.999931 -82.02 0.011245 -167.5
8.93290000 0.011257 -176.6 0.999930 -82.03 0.999930 -82.03 0.011259 -167.5
8.93300000 0.011271 -176.6 0.999930 -82.03 0.999930 -82.03 0.011272 -167.5
8.93310000 0.011285 -176.7 0.999930 -82.03 0.999930 -82.03 0.011286 -167.5
8.93320000 0.011298 -176.7 0.999930 -82.03 0.999930 -82.03 0.011299 -167.4
8.93330000 0.011312 -176.7 0.999930 -82.03 0.999930 -82.03 0.011313 -167.4
8.93340000 0.011326 -176.7 0.999930 -82.03 0.999930 -82.03 0.011327 -167.4
8.93350000 0.011340 -176.7 0.999929 -82.04 0.999929 -82.04 0.011341 -167.4
8.93360000 0.011354 -176.8 0.999929 -82.04 0.999929 -82.04 0.011355 -167.4
8.93370000 0.011368 -176.8 0.999929 -82.04 0.999929 -82.04 0.011369 -167.4
8.93380000 0.011383 -176.8 0.999929 -82.04 0.999929 -82.04 0.011384 -167.3
8.93390000 0.011397 -176.8 0.999929 -82.04 0.999929 -82.04 0.011398 -167.3
8.93400000 0.011412 -176.9 0.999928 -82.05 0.999928 -82.05 0.011413 -167.3
8.93410000 0.011426 -176.9 0.999928 -82.05 0.999928 -82.05 0.011428 -167.3
8.93420000 0.011441 -176.9 0.999928 -82.05 0.999928 -82.05 0.011442 -167.3
8.93430000 0.011456 -176.9 0.999928 -82.05 0.999928 -82.05 0.011457 -167.2
8.93440000 0.011471 -176.9 0.999928 -82.05 0.999928 -82.05 0.011472 -167.2
8.93450000 0.011486 -177.0 0.999927 -82.05 0.999927 -82.05 0.011488 -167.2
8.93460000 0.011502 -177.0 0.999927 -82.06 0.999927 -82.06 0.011503 -167.2
8.93470000 0.011517 -177.0 0.999927 -82.06 0.999927 -82.06 0.011518 -167.2
8.93480000 0.011532 -177.0 0.999927 -82.06 0.999927 -82.06 0.011534 -167.1
8.93490000 0.011548 -177.1 0.999927 -82.06 0.999927 -82.06 0.011550 -167.1
8.93500000 0.011564 -177.1 0.999926 -82.06 0.999926 -82.06 0.011565 -167.1
8.93510000 0.011580 -177.1 0.999926 -82.07 0.999926 -82.07 0.011581 -167.1
8.93520000 0.011596 -177.1 0.999926 -82.07 0.999926 -82.07 0.011597 -167.1
8.93530000 0.011612 -177.2 0.999926 -82.07 0.999926 -82.07 0.011614 -167.0
8.93540000 0.011629 -177.2 0.999926 -82.07 0.999926 -82.07 0.011630 -167.0
8.93550000 0.011645 -177.2 0.999925 -82.07 0.999925 -82.07 0.011647 -167.0
8.93560000 0.011662 -177.2 0.999925 -82.07 0.999925 -82.07 0.011663 -167.0
8.93570000 0.011679 -177.3 0.999925 -82.08 0.999925 -82.08 0.011680 -167.0
8.93580000 0.011695 -177.3 0.999925 -82.08 0.999925 -82.08 0.011697 -166.9
8.93590000 0.011713 -177.3 0.999924 -82.08 0.999924 -82.08 0.011714 -166.9
8.93600000 0.011730 -177.3 0.999924 -82.08 0.999924 -82.08 0.011731 -166.9
8.93610000 0.011747 -177.4 0.999924 -82.08 0.999924 -82.08 0.011749 -166.9
8.93620000 0.011765 -177.4 0.999924 -82.09 0.999924 -82.09 0.011766 -166.9
8.93630000 0.011782 -177.4 0.999923 -82.09 0.999923 -82.09 0.011784 -166.8
8.93640000 0.011800 -177.4 0.999923 -82.09 0.999923 -82.09 0.011802 -166.8
8.93650000 0.011818 -177.5 0.999923 -82.09 0.999923 -82.09 0.011820 -166.8
8.93660000 0.011836 -177.5 0.999923 -82.09 0.999923 -82.09 0.011838 -166.8
8.93670000 0.011855 -177.5 0.999922 -82.10 0.999922 -82.10 0.011856 -166.7
8.93680000 0.011873 -177.5 0.999922 -82.10 0.999922 -82.10 0.011875 -166.7
8.93690000 0.011892 -177.6 0.999922 -82.10 0.999922 -82.10 0.011894 -166.7
8.93700000 0.011911 -177.6 0.999922 -82.10 0.999922 -82.10 0.011912 -166.7
8.93710000 0.011930 -177.6 0.999921 -82.10 0.999921 -82.10 0.011931 -166.7
8.93720000 0.011949 -177.6 0.999921 -82.11 0.999921 -82.11 0.011951 -166.6
8.93730000 0.011968 -177.7 0.999921 -82.11 0.999921 -82.11 0.011970 -166.6
8.93740000 0.011988 -177.7 0.999921 -82.11 0.999921 -82.11 0.011990 -166.6
8.93750000 0.012008 -177.7 0.999920 -82.11 0.999920 -82.11 0.012009 -166.6
8.93760000 0.012028 -177.7 0.999920 -82.12 0.999920 -82.12 0.012029 -166.5
8.93770000 0.012048 -177.8 0.999920 -82.12 0.999920 -82.12 0.012049 -166.5
8.93780000 0.012068 -177.8 0.999920 -82.12 0.999920 -82.12 0.012070 -166.5
8.93790000 0.012088 -177.8 0.999919 -82.12 0.999919 -82.12 0.012090 -166.5
8.93800000 0.012109 -177.9 0.999919 -82.12 0.999919 -82.12 0.012111 -166.4
8.93810000 0.012130 -177.9 0.999919 -82.13 0.999919 -82.13 0.012132 -166.4
8.93820000 0.012151 -177.9 0.999918 -82.13 0.999918 -82.13 0.012153 -166.4
8.93830000 0.012172 -177.9 0.999918 -82.13 0.999918 -82.13 0.012174 -166.4
8.93840000 0.012194 -178.0 0.999918 -82.13 0.999918 -82.13 0.012196 -166.4
8.93850000 0.012216 -178.0 0.999917 -82.13 0.999917 -82.13 0.012218 -166.3
8.93860000 0.012238 -178.0 0.999917 -82.14 0.999917 -82.14 0.012240 -166.3
8.93870000 0.012260 -178.1 0.999917 -82.14 0.999917 -82.14 0.012262 -166.3
8.93880000 0.012282 -178.1 0.999916 -82.14 0.999916 -82.14 0.012284 -166.3
8.93890000 0.012305 -178.1 0.999916 -82.14 0.999916 -82.14 0.012307 -166.2
8.93900000 0.012328 -178.2 0.999916 -82.15 0.999916 -82.15 0.012330 -166.2
8.93910000 0.012351 -178.2 0.999915 -82.15 0.999915 -82.15 0.012353 -166.2
8.93920000 0.012374 -178.2 0.999915 -82.15 0.999915 -82.15 0.012376 -166.2