! Sonnet Data File
! From: emgraph Version : 16.52
! From Project: Resonator2_extremeCap
! Data is De-embedded 
! Data File Written: 10/11/2017 17:55:29
!< HDATE 10/10/2017 20:37:37
!< MDATE 10/10/2017 20:37:37
!< PARAMS
!< Pwid1 = 2000.0
!< Pwid2 = 2000.0
!< Air_gap = 24.0
!< Width = 40.0
!< Gap = 40.0
!< END PARAMS
# GHZ S MA R 50.70000
8.95000000 0.101584 4.9836 0.994820 -88.46 0.994820 -88.46 0.101577 -1.900
!< P1 F=8.95 Eeff=(6.44311072 -2.9701e-5) Z0=(50.4816225 1.16464e-4) R=0.0 C=0.0 
!< P2 F=8.95 Eeff=(6.44311072 -2.9701e-5) Z0=(50.4816225 1.16464e-4) R=0.0 C=0.0 
8.95020000 0.101591 4.9966 0.994820 -88.46 0.994820 -88.46 0.101584 -1.921
8.95040000 0.101598 5.0096 0.994819 -88.47 0.994819 -88.47 0.101592 -1.941
8.95060000 0.101606 5.0227 0.994818 -88.47 0.994818 -88.47 0.101599 -1.962
8.95080000 0.101613 5.0358 0.994817 -88.47 0.994817 -88.47 0.101606 -1.983
8.95100000 0.101620 5.0489 0.994817 -88.48 0.994817 -88.48 0.101614 -2.004
8.95120000 0.101628 5.0621 0.994816 -88.48 0.994816 -88.48 0.101621 -2.024
8.95140000 0.101635 5.0754 0.994815 -88.49 0.994815 -88.49 0.101628 -2.045
8.95160000 0.101643 5.0887 0.994814 -88.49 0.994814 -88.49 0.101636 -2.066
8.95180000 0.101650 5.1020 0.994814 -88.49 0.994814 -88.49 0.101643 -2.087
8.95200000 0.101658 5.1154 0.994813 -88.50 0.994813 -88.50 0.101651 -2.109
8.95220000 0.101665 5.1289 0.994812 -88.50 0.994812 -88.50 0.101658 -2.130
8.95240000 0.101673 5.1424 0.994811 -88.51 0.994811 -88.51 0.101666 -2.151
8.95260000 0.101680 5.1560 0.994810 -88.51 0.994810 -88.51 0.101673 -2.172
8.95280000 0.101688 5.1696 0.994810 -88.51 0.994810 -88.51 0.101681 -2.194
8.95300000 0.101695 5.1832 0.994809 -88.52 0.994809 -88.52 0.101688 -2.215
8.95320000 0.101703 5.1969 0.994808 -88.52 0.994808 -88.52 0.101696 -2.237
8.95340000 0.101711 5.2107 0.994807 -88.52 0.994807 -88.52 0.101704 -2.258
8.95360000 0.101718 5.2245 0.994806 -88.53 0.994806 -88.53 0.101711 -2.280
8.95380000 0.101726 5.2384 0.994806 -88.53 0.994806 -88.53 0.101719 -2.302
8.95400000 0.101734 5.2523 0.994805 -88.54 0.994805 -88.54 0.101727 -2.323
8.95420000 0.101741 5.2663 0.994804 -88.54 0.994804 -88.54 0.101734 -2.345
8.95440000 0.101749 5.2803 0.994803 -88.54 0.994803 -88.54 0.101742 -2.367
8.95460000 0.101757 5.2944 0.994802 -88.55 0.994802 -88.55 0.101750 -2.389
8.95480000 0.101765 5.3086 0.994802 -88.55 0.994802 -88.55 0.101757 -2.411
8.95500000 0.101772 5.3228 0.994801 -88.56 0.994801 -88.56 0.101765 -2.433
8.95520000 0.101780 5.3370 0.994800 -88.56 0.994800 -88.56 0.101773 -2.455
8.95540000 0.101788 5.3513 0.994799 -88.56 0.994799 -88.56 0.101781 -2.478
8.95560000 0.101796 5.3657 0.994798 -88.57 0.994798 -88.57 0.101789 -2.500
8.95580000 0.101804 5.3801 0.994798 -88.57 0.994798 -88.57 0.101797 -2.522
8.95600000 0.101812 5.3945 0.994797 -88.58 0.994797 -88.58 0.101805 -2.545
8.95620000 0.101820 5.4091 0.994796 -88.58 0.994796 -88.58 0.101813 -2.567
8.95640000 0.101828 5.4236 0.994795 -88.58 0.994795 -88.58 0.101821 -2.590
8.95660000 0.101836 5.4383 0.994794 -88.59 0.994794 -88.59 0.101829 -2.613
8.95680000 0.101844 5.4530 0.994793 -88.59 0.994793 -88.59 0.101837 -2.635
8.95700000 0.101852 5.4677 0.994793 -88.60 0.994793 -88.60 0.101845 -2.658
8.95720000 0.101860 5.4825 0.994792 -88.60 0.994792 -88.60 0.101853 -2.681
8.95740000 0.101868 5.4974 0.994791 -88.60 0.994791 -88.60 0.101861 -2.704
8.95760000 0.101877 5.5123 0.994790 -88.61 0.994790 -88.61 0.101869 -2.727
8.95780000 0.101885 5.5273 0.994789 -88.61 0.994789 -88.61 0.101877 -2.750
8.95800000 0.101893 5.5424 0.994788 -88.62 0.994788 -88.62 0.101885 -2.773
8.95820000 0.101901 5.5575 0.994788 -88.62 0.994788 -88.62 0.101894 -2.796
8.95840000 0.101909 5.5726 0.994787 -88.62 0.994787 -88.62 0.101902 -2.820
8.95860000 0.101918 5.5878 0.994786 -88.63 0.994786 -88.63 0.101910 -2.843
8.95880000 0.101926 5.6031 0.994785 -88.63 0.994785 -88.63 0.101918 -2.867
8.95900000 0.101934 5.6185 0.994784 -88.64 0.994784 -88.64 0.101927 -2.890
8.95920000 0.101943 5.6339 0.994783 -88.64 0.994783 -88.64 0.101935 -2.914
8.95940000 0.101951 5.6493 0.994782 -88.64 0.994782 -88.64 0.101943 -2.937
8.95960000 0.101960 5.6648 0.994781 -88.65 0.994781 -88.65 0.101952 -2.961
8.95980000 0.101968 5.6804 0.994781 -88.65 0.994781 -88.65 0.101960 -2.985
8.96000000 0.101977 5.6961 0.994780 -88.66 0.994780 -88.66 0.101969 -3.009
8.96020000 0.101985 5.7118 0.994779 -88.66 0.994779 -88.66 0.101977 -3.033
8.96040000 0.101994 5.7275 0.994778 -88.67 0.994778 -88.67 0.101986 -3.057
8.96060000 0.102002 5.7434 0.994777 -88.67 0.994777 -88.67 0.101994 -3.081
8.96080000 0.102011 5.7593 0.994776 -88.67 0.994776 -88.67 0.102003 -3.105
8.96100000 0.102020 5.7752 0.994775 -88.68 0.994775 -88.68 0.102012 -3.130
8.96120000 0.102028 5.7913 0.994774 -88.68 0.994774 -88.68 0.102020 -3.154
8.96140000 0.102037 5.8073 0.994773 -88.69 0.994773 -88.69 0.102029 -3.178
8.96160000 0.102046 5.8235 0.994773 -88.69 0.994773 -88.69 0.102038 -3.203
8.96180000 0.102054 5.8397 0.994772 -88.69 0.994772 -88.69 0.102046 -3.228
8.96200000 0.102063 5.8560 0.994771 -88.70 0.994771 -88.70 0.102055 -3.252
8.96220000 0.102072 5.8723 0.994770 -88.70 0.994770 -88.70 0.102064 -3.277
8.96240000 0.102081 5.8887 0.994769 -88.71 0.994769 -88.71 0.102073 -3.302
8.96260000 0.102090 5.9052 0.994768 -88.71 0.994768 -88.71 0.102082 -3.327
8.96280000 0.102099 5.9218 0.994767 -88.72 0.994767 -88.72 0.102090 -3.352
8.96300000 0.102108 5.9384 0.994766 -88.72 0.994766 -88.72 0.102099 -3.377
8.96320000 0.102117 5.9550 0.994765 -88.72 0.994765 -88.72 0.102108 -3.402
8.96340000 0.102126 5.9718 0.994764 -88.73 0.994764 -88.73 0.102117 -3.428
8.96360000 0.102135 5.9886 0.994763 -88.73 0.994763 -88.73 0.102126 -3.453
8.96380000 0.102144 6.0055 0.994762 -88.74 0.994762 -88.74 0.102135 -3.478
8.96400000 0.102153 6.0224 0.994761 -88.74 0.994761 -88.74 0.102145 -3.504
8.96420000 0.102162 6.0394 0.994760 -88.75 0.994760 -88.75 0.102154 -3.529
8.96440000 0.102171 6.0565 0.994759 -88.75 0.994759 -88.75 0.102163 -3.555
8.96460000 0.102181 6.0737 0.994758 -88.75 0.994758 -88.75 0.102172 -3.581
8.96480000 0.102190 6.0909 0.994758 -88.76 0.994758 -88.76 0.102181 -3.607
8.96500000 0.102199 6.1082 0.994757 -88.76 0.994757 -88.76 0.102191 -3.633
8.96520000 0.102209 6.1256 0.994756 -88.77 0.994756 -88.77 0.102200 -3.659
8.96540000 0.102218 6.1430 0.994755 -88.77 0.994755 -88.77 0.102209 -3.685
8.96560000 0.102227 6.1605 0.994754 -88.78 0.994754 -88.78 0.102219 -3.711
8.96580000 0.102237 6.1781 0.994753 -88.78 0.994753 -88.78 0.102228 -3.738
8.96600000 0.102246 6.1957 0.994752 -88.78 0.994752 -88.78 0.102238 -3.764
8.96620000 0.102256 6.2135 0.994751 -88.79 0.994751 -88.79 0.102247 -3.790
8.96640000 0.102265 6.2312 0.994750 -88.79 0.994750 -88.79 0.102257 -3.817
8.96660000 0.102275 6.2491 0.994749 -88.80 0.994749 -88.80 0.102266 -3.844
8.96680000 0.102285 6.2671 0.994748 -88.80 0.994748 -88.80 0.102276 -3.870
8.96700000 0.102294 6.2851 0.994747 -88.81 0.994747 -88.81 0.102285 -3.897
8.96720000 0.102304 6.3032 0.994746 -88.81 0.994746 -88.81 0.102295 -3.924
8.96740000 0.102314 6.3213 0.994745 -88.82 0.994745 -88.82 0.102305 -3.951
8.96760000 0.102324 6.3396 0.994744 -88.82 0.994744 -88.82 0.102314 -3.979
8.96780000 0.102333 6.3579 0.994743 -88.82 0.994743 -88.82 0.102324 -4.006
8.96800000 0.102343 6.3763 0.994742 -88.83 0.994742 -88.83 0.102334 -4.033
8.96820000 0.102353 6.3948 0.994740 -88.83 0.994740 -88.83 0.102344 -4.061
8.96840000 0.102363 6.4133 0.994739 -88.84 0.994739 -88.84 0.102354 -4.088
8.96860000 0.102373 6.4319 0.994738 -88.84 0.994738 -88.84 0.102364 -4.116
8.96880000 0.102383 6.4506 0.994737 -88.85 0.994737 -88.85 0.102374 -4.143
8.96900000 0.102393 6.4694 0.994736 -88.85 0.994736 -88.85 0.102384 -4.171
8.96920000 0.102403 6.4883 0.994735 -88.86 0.994735 -88.86 0.102394 -4.199
8.96940000 0.102414 6.5072 0.994734 -88.86 0.994734 -88.86 0.102404 -4.227
8.96960000 0.102424 6.5262 0.994733 -88.87 0.994733 -88.87 0.102414 -4.255
8.96980000 0.102434 6.5453 0.994732 -88.87 0.994732 -88.87 0.102425 -4.283
8.97000000 0.102444 6.5645 0.994731 -88.87 0.994731 -88.87 0.102435 -4.312
8.97020000 0.102455 6.5838 0.994730 -88.88 0.994730 -88.88 0.102445 -4.340
8.97040000 0.102465 6.6031 0.994729 -88.88 0.994729 -88.88 0.102455 -4.369
8.97060000 0.102475 6.6226 0.994728 -88.89 0.994728 -88.89 0.102466 -4.397
8.97080000 0.102486 6.6421 0.994727 -88.89 0.994727 -88.89 0.102476 -4.426
8.97100000 0.102496 6.6617 0.994726 -88.90 0.994726 -88.90 0.102487 -4.455
8.97120000 0.102507 6.6813 0.994724 -88.90 0.994724 -88.90 0.102497 -4.484
8.97140000 0.102518 6.7011 0.994723 -88.91 0.994723 -88.91 0.102508 -4.513
8.97160000 0.102528 6.7209 0.994722 -88.91 0.994722 -88.91 0.102518 -4.542
8.97180000 0.102539 6.7408 0.994721 -88.92 0.994721 -88.92 0.102529 -4.571
8.97200000 0.102550 6.7609 0.994720 -88.92 0.994720 -88.92 0.102540 -4.601
8.97220000 0.102561 6.7810 0.994719 -88.93 0.994719 -88.93 0.102550 -4.630
8.97240000 0.102571 6.8011 0.994718 -88.93 0.994718 -88.93 0.102561 -4.660
8.97260000 0.102582 6.8214 0.994717 -88.93 0.994717 -88.93 0.102572 -4.689
8.97280000 0.102593 6.8418 0.994715 -88.94 0.994715 -88.94 0.102583 -4.719
8.97300000 0.102604 6.8622 0.994714 -88.94 0.994714 -88.94 0.102594 -4.749
8.97320000 0.102615 6.8827 0.994713 -88.95 0.994713 -88.95 0.102605 -4.779
8.97340000 0.102626 6.9034 0.994712 -88.95 0.994712 -88.95 0.102616 -4.809
8.97360000 0.102637 6.9241 0.994711 -88.96 0.994711 -88.96 0.102627 -4.839
8.97380000 0.102649 6.9449 0.994710 -88.96 0.994710 -88.96 0.102638 -4.869
8.97400000 0.102660 6.9657 0.994708 -88.97 0.994708 -88.97 0.102649 -4.900
8.97420000 0.102671 6.9867 0.994707 -88.97 0.994707 -88.97 0.102661 -4.930
8.97440000 0.102682 7.0078 0.994706 -88.98 0.994706 -88.98 0.102672 -4.961
8.97460000 0.102694 7.0290 0.994705 -88.98 0.994705 -88.98 0.102683 -4.992
8.97480000 0.102705 7.0502 0.994704 -88.99 0.994704 -88.99 0.102695 -5.023
8.97500000 0.102717 7.0716 0.994702 -88.99 0.994702 -88.99 0.102706 -5.054
8.97520000 0.102728 7.0930 0.994701 -89.00 0.994701 -89.00 0.102718 -5.085
8.97540000 0.102740 7.1145 0.994700 -89.00 0.994700 -89.00 0.102729 -5.116
8.97560000 0.102752 7.1362 0.994699 -89.01 0.994699 -89.01 0.102741 -5.148
8.97580000 0.102763 7.1579 0.994698 -89.01 0.994698 -89.01 0.102753 -5.179
8.97600000 0.102775 7.1797 0.994696 -89.02 0.994696 -89.02 0.102764 -5.211
8.97620000 0.102787 7.2016 0.994695 -89.02 0.994695 -89.02 0.102776 -5.242
8.97640000 0.102799 7.2236 0.994694 -89.03 0.994694 -89.03 0.102788 -5.274
8.97660000 0.102811 7.2457 0.994693 -89.03 0.994693 -89.03 0.102800 -5.306
8.97680000 0.102823 7.2680 0.994691 -89.04 0.994691 -89.04 0.102812 -5.338
8.97700000 0.102835 7.2903 0.994690 -89.04 0.994690 -89.04 0.102824 -5.371
8.97720000 0.102847 7.3127 0.994689 -89.05 0.994689 -89.05 0.102836 -5.403
8.97740000 0.102859 7.3352 0.994688 -89.05 0.994688 -89.05 0.102848 -5.435
8.97760000 0.102871 7.3578 0.994686 -89.06 0.994686 -89.06 0.102860 -5.468
8.97780000 0.102884 7.3805 0.994685 -89.06 0.994685 -89.06 0.102872 -5.501
8.97800000 0.102896 7.4033 0.994684 -89.07 0.994684 -89.07 0.102885 -5.533
8.97820000 0.102908 7.4262 0.994682 -89.07 0.994682 -89.07 0.102897 -5.566
8.97840000 0.102921 7.4492 0.994681 -89.08 0.994681 -89.08 0.102910 -5.599
8.97860000 0.102933 7.4723 0.994680 -89.08 0.994680 -89.08 0.102922 -5.633
8.97880000 0.102946 7.4955 0.994678 -89.09 0.994678 -89.09 0.102935 -5.666
8.97900000 0.102959 7.5189 0.994677 -89.09 0.994677 -89.09 0.102947 -5.700
8.97920000 0.102972 7.5423 0.994676 -89.10 0.994676 -89.10 0.102960 -5.733
8.97940000 0.102984 7.5658 0.994674 -89.10 0.994674 -89.10 0.102973 -5.767
8.97960000 0.102997 7.5895 0.994673 -89.11 0.994673 -89.11 0.102985 -5.801
8.97980000 0.103010 7.6132 0.994672 -89.11 0.994672 -89.11 0.102998 -5.835
8.98000000 0.103023 7.6371 0.994670 -89.12 0.994670 -89.12 0.103011 -5.869
8.98020000 0.103036 7.6610 0.994669 -89.12 0.994669 -89.12 0.103024 -5.903
8.98040000 0.103049 7.6851 0.994668 -89.13 0.994668 -89.13 0.103037 -5.938
8.98060000 0.103063 7.7093 0.994666 -89.13 0.994666 -89.13 0.103051 -5.972
8.98080000 0.103076 7.7336 0.994665 -89.14 0.994665 -89.14 0.103064 -6.007
8.98100000 0.103089 7.7580 0.994663 -89.14 0.994663 -89.14 0.103077 -6.042
8.98120000 0.103103 7.7825 0.994662 -89.15 0.994662 -89.15 0.103090 -6.077
8.98140000 0.103116 7.8071 0.994660 -89.15 0.994660 -89.15 0.103104 -6.112
8.98160000 0.103130 7.8318 0.994659 -89.16 0.994659 -89.16 0.103117 -6.147
8.98180000 0.103143 7.8567 0.994658 -89.16 0.994658 -89.16 0.103131 -6.182
8.98200000 0.103157 7.8817 0.994656 -89.17 0.994656 -89.17 0.103145 -6.218
8.98220000 0.103171 7.9067 0.994655 -89.17 0.994655 -89.17 0.103158 -6.254
8.98240000 0.103185 7.9319 0.994653 -89.18 0.994653 -89.18 0.103172 -6.289
8.98260000 0.103198 7.9572 0.994652 -89.18 0.994652 -89.18 0.103186 -6.325
8.98280000 0.103212 7.9827 0.994650 -89.19 0.994650 -89.19 0.103200 -6.362
8.98300000 0.103227 8.0082 0.994649 -89.20 0.994649 -89.20 0.103214 -6.398
8.98320000 0.103241 8.0339 0.994647 -89.20 0.994647 -89.20 0.103228 -6.434
8.98340000 0.103255 8.0597 0.994646 -89.21 0.994646 -89.21 0.103242 -6.471
8.98360000 0.103269 8.0856 0.994644 -89.21 0.994644 -89.21 0.103256 -6.508
8.98380000 0.103284 8.1116 0.994643 -89.22 0.994643 -89.22 0.103271 -6.544
8.98400000 0.103298 8.1378 0.994641 -89.22 0.994641 -89.22 0.103285 -6.581
8.98420000 0.103313 8.1640 0.994640 -89.23 0.994640 -89.23 0.103300 -6.619
8.98440000 0.103327 8.1904 0.994638 -89.23 0.994638 -89.23 0.103314 -6.656
8.98460000 0.103342 8.2170 0.994637 -89.24 0.994637 -89.24 0.103329 -6.693
8.98480000 0.103357 8.2436 0.994635 -89.24 0.994635 -89.24 0.103344 -6.731
8.98500000 0.103372 8.2704 0.994633 -89.25 0.994633 -89.25 0.103358 -6.769
8.98520000 0.103387 8.2973 0.994632 -89.26 0.994632 -89.26 0.103373 -6.807
8.98540000 0.103402 8.3243 0.994630 -89.26 0.994630 -89.26 0.103388 -6.845
8.98560000 0.103417 8.3515 0.994629 -89.27 0.994629 -89.27 0.103403 -6.883
8.98580000 0.103432 8.3787 0.994627 -89.27 0.994627 -89.27 0.103419 -6.922
8.98600000 0.103447 8.4062 0.994625 -89.28 0.994625 -89.28 0.103434 -6.960
8.98620000 0.103463 8.4337 0.994624 -89.28 0.994624 -89.28 0.103449 -6.999
8.98640000 0.103478 8.4614 0.994622 -89.29 0.994622 -89.29 0.103465 -7.038
8.98660000 0.103494 8.4892 0.994621 -89.29 0.994621 -89.29 0.103480 -7.077
8.98680000 0.103509 8.5171 0.994619 -89.30 0.994619 -89.30 0.103496 -7.116
8.98700000 0.103525 8.5452 0.994617 -89.31 0.994617 -89.31 0.103511 -7.156
8.98720000 0.103541 8.5734 0.994616 -89.31 0.994616 -89.31 0.103527 -7.195
8.98740000 0.103557 8.6017 0.994614 -89.32 0.994614 -89.32 0.103543 -7.235
8.98760000 0.103573 8.6302 0.994612 -89.32 0.994612 -89.32 0.103559 -7.275
8.98780000 0.103589 8.6588 0.994610 -89.33 0.994610 -89.33 0.103575 -7.315
8.98800000 0.103605 8.6876 0.994609 -89.33 0.994609 -89.33 0.103591 -7.355
8.98820000 0.103622 8.7165 0.994607 -89.34 0.994607 -89.34 0.103608 -7.396
8.98840000 0.103638 8.7455 0.994605 -89.35 0.994605 -89.35 0.103624 -7.437
8.98860000 0.103655 8.7747 0.994604 -89.35 0.994604 -89.35 0.103640 -7.477
8.98880000 0.103671 8.8040 0.994602 -89.36 0.994602 -89.36 0.103657 -7.518
8.98900000 0.103688 8.8335 0.994600 -89.36 0.994600 -89.36 0.103674 -7.560
8.98920000 0.103705 8.8631 0.994598 -89.37 0.994598 -89.37 0.103690 -7.601
8.98940000 0.103722 8.8929 0.994596 -89.38 0.994596 -89.38 0.103707 -7.642
8.98960000 0.103739 8.9228 0.994595 -89.38 0.994595 -89.38 0.103724 -7.684
8.98980000 0.103756 8.9528 0.994593 -89.39 0.994593 -89.39 0.103741 -7.726
8.99000000 0.103773 8.9830 0.994591 -89.39 0.994591 -89.39 0.103759 -7.768
8.99020000 0.103791 9.0133 0.994589 -89.40 0.994589 -89.40 0.103776 -7.810
8.99040000 0.103808 9.0438 0.994587 -89.40 0.994587 -89.40 0.103793 -7.853
8.99060000 0.103826 9.0745 0.994585 -89.41 0.994585 -89.41 0.103811 -7.896
8.99080000 0.103843 9.1053 0.994583 -89.42 0.994583 -89.42 0.103828 -7.938
8.99100000 0.103861 9.1362 0.994582 -89.42 0.994582 -89.42 0.103846 -7.981
8.99120000 0.103879 9.1673 0.994580 -89.43 0.994580 -89.43 0.103864 -8.025
8.99140000 0.103897 9.1986 0.994578 -89.44 0.994578 -89.44 0.103882 -8.068
8.99160000 0.103915 9.2300 0.994576 -89.44 0.994576 -89.44 0.103900 -8.112
8.99180000 0.103934 9.2616 0.994574 -89.45 0.994574 -89.45 0.103918 -8.156
8.99200000 0.103952 9.2933 0.994572 -89.45 0.994572 -89.45 0.103936 -8.200
8.99220000 0.103971 9.3252 0.994570 -89.46 0.994570 -89.46 0.103955 -8.244
8.99240000 0.103989 9.3572 0.994568 -89.47 0.994568 -89.47 0.103973 -8.288
8.99260000 0.104008 9.3894 0.994566 -89.47 0.994566 -89.47 0.103992 -8.333
8.99280000 0.104027 9.4218 0.994564 -89.48 0.994564 -89.48 0.104011 -8.378
8.99300000 0.104046 9.4544 0.994562 -89.48 0.994562 -89.48 0.104030 -8.423
8.99320000 0.104065 9.4871 0.994560 -89.49 0.994560 -89.49 0.104049 -8.468
8.99340000 0.104084 9.5199 0.994558 -89.50 0.994558 -89.50 0.104068 -8.514
8.99360000 0.104104 9.5530 0.994556 -89.50 0.994556 -89.50 0.104087 -8.559
8.99380000 0.104123 9.5862 0.994554 -89.51 0.994554 -89.51 0.104107 -8.605
8.99400000 0.104143 9.6195 0.994552 -89.52 0.994552 -89.52 0.104126 -8.651
8.99420000 0.104162 9.6531 0.994550 -89.52 0.994550 -89.52 0.104146 -8.697
8.99440000 0.104182 9.6868 0.994547 -89.53 0.994547 -89.53 0.104166 -8.744
8.99460000 0.104202 9.7207 0.994545 -89.54 0.994545 -89.54 0.104186 -8.791
8.99480000 0.104223 9.7547 0.994543 -89.54 0.994543 -89.54 0.104206 -8.838
8.99500000 0.104243 9.7890 0.994541 -89.55 0.994541 -89.55 0.104226 -8.885
8.99520000 0.104263 9.8234 0.994539 -89.55 0.994539 -89.55 0.104247 -8.932
8.99540000 0.104284 9.8580 0.994537 -89.56 0.994537 -89.56 0.104267 -8.980
8.99560000 0.104305 9.8928 0.994534 -89.57 0.994534 -89.57 0.104288 -9.028
8.99580000 0.104326 9.9277 0.994532 -89.57 0.994532 -89.57 0.104309 -9.076
8.99600000 0.104347 9.9628 0.994530 -89.58 0.994530 -89.58 0.104329 -9.124
8.99620000 0.104368 9.9982 0.994528 -89.59 0.994528 -89.59 0.104351 -9.173
8.99640000 0.104389 10.034 0.994525 -89.59 0.994525 -89.59 0.104372 -9.222
8.99660000 0.104411 10.069 0.994523 -89.60 0.994523 -89.60 0.104393 -9.271
8.99680000 0.104432 10.105 0.994521 -89.61 0.994521 -89.61 0.104415 -9.320
8.99700000 0.104454 10.141 0.994518 -89.61 0.994518 -89.61 0.104436 -9.369
8.99720000 0.104476 10.178 0.994516 -89.62 0.994516 -89.62 0.104458 -9.419
8.99740000 0.104498 10.214 0.994514 -89.63 0.994514 -89.63 0.104480 -9.469
8.99760000 0.104520 10.251 0.994511 -89.63 0.994511 -89.63 0.104502 -9.519
8.99780000 0.104543 10.287 0.994509 -89.64 0.994509 -89.64 0.104525 -9.570
8.99800000 0.104565 10.324 0.994506 -89.65 0.994506 -89.65 0.104547 -9.620
8.99820000 0.104588 10.362 0.994504 -89.65 0.994504 -89.65 0.104570 -9.671
8.99840000 0.104611 10.399 0.994502 -89.66 0.994502 -89.66 0.104593 -9.723
8.99860000 0.104634 10.437 0.994499 -89.67 0.994499 -89.67 0.104616 -9.774
8.99880000 0.104657 10.475 0.994497 -89.68 0.994497 -89.68 0.104639 -9.826
8.99900000 0.104681 10.513 0.994494 -89.68 0.994494 -89.68 0.104662 -9.878
8.99920000 0.104704 10.551 0.994492 -89.69 0.994492 -89.69 0.104686 -9.930
8.99940000 0.104728 10.589 0.994489 -89.70 0.994489 -89.70 0.104709 -9.982
8.99960000 0.104752 10.628 0.994486 -89.70 0.994486 -89.70 0.104733 -10.04
8.99980000 0.104776 10.667 0.994484 -89.71 0.994484 -89.71 0.104757 -10.09
9.00000000 0.104800 10.706 0.994481 -89.72 0.994481 -89.72 0.104781 -10.14
9.00020000 0.104825 10.745 0.994479 -89.72 0.994479 -89.72 0.104806 -10.20
9.00040000 0.104850 10.785 0.994476 -89.73 0.994476 -89.73 0.104830 -10.25
9.00060000 0.104874 10.824 0.994473 -89.74 0.994473 -89.74 0.104855 -10.30
9.00080000 0.104899 10.864 0.994471 -89.75 0.994471 -89.75 0.104880 -10.36
9.00100000 0.104925 10.904 0.994468 -89.75 0.994468 -89.75 0.104905 -10.41
9.00120000 0.104950 10.945 0.994465 -89.76 0.994465 -89.76 0.104930 -10.47
9.00140000 0.104976 10.985 0.994462 -89.77 0.994462 -89.77 0.104956 -10.52
9.00160000 0.105002 11.026 0.994460 -89.78 0.994460 -89.78 0.104982 -10.58
9.00180000 0.105028 11.067 0.994457 -89.78 0.994457 -89.78 0.105008 -10.63
9.00200000 0.105054 11.108 0.994454 -89.79 0.994454 -89.79 0.105034 -10.69
9.00220000 0.105080 11.150 0.994451 -89.80 0.994451 -89.80 0.105060 -10.75
9.00240000 0.105107 11.191 0.994448 -89.81 0.994448 -89.81 0.105087 -10.80
9.00260000 0.105134 11.233 0.994445 -89.81 0.994445 -89.81 0.105113 -10.86
9.00280000 0.105161 11.276 0.994443 -89.82 0.994443 -89.82 0.105140 -10.92
9.00300000 0.105188 11.318 0.994440 -89.83 0.994440 -89.83 0.105167 -10.97
9.00320000 0.105216 11.361 0.994437 -89.84 0.994437 -89.84 0.105195 -11.03
9.00340000 0.105243 11.403 0.994434 -89.84 0.994434 -89.84 0.105222 -11.09
9.00360000 0.105271 11.447 0.994431 -89.85 0.994431 -89.85 0.105250 -11.15
9.00380000 0.105299 11.490 0.994428 -89.86 0.994428 -89.86 0.105278 -11.21
9.00400000 0.105328 11.534 0.994425 -89.87 0.994425 -89.87 0.105307 -11.27
9.00420000 0.105356 11.577 0.994421 -89.87 0.994421 -89.87 0.105335 -11.33
9.00440000 0.105385 11.622 0.994418 -89.88 0.994418 -89.88 0.105364 -11.39
9.00460000 0.105414 11.666 0.994415 -89.89 0.994415 -89.89 0.105393 -11.45
9.00480000 0.105444 11.710 0.994412 -89.90 0.994412 -89.90 0.105422 -11.51
9.00500000 0.105473 11.755 0.994409 -89.91 0.994409 -89.91 0.105452 -11.57
9.00520000 0.105503 11.800 0.994406 -89.91 0.994406 -89.91 0.105481 -11.63
9.00540000 0.105533 11.846 0.994402 -89.92 0.994402 -89.92 0.105511 -11.69
9.00560000 0.105564 11.891 0.994399 -89.93 0.994399 -89.93 0.105541 -11.75
9.00580000 0.105594 11.937 0.994396 -89.94 0.994396 -89.94 0.105572 -11.81
9.00600000 0.105625 11.983 0.994392 -89.95 0.994392 -89.95 0.105603 -11.87
9.00620000 0.105656 12.030 0.994389 -89.95 0.994389 -89.95 0.105634 -11.94
9.00640000 0.105687 12.077 0.994386 -89.96 0.994386 -89.96 0.105665 -12.00
9.00660000 0.105719 12.124 0.994382 -89.97 0.994382 -89.97 0.105696 -12.06
9.00680000 0.105751 12.171 0.994379 -89.98 0.994379 -89.98 0.105728 -12.13
9.00700000 0.105783 12.218 0.994375 -89.99 0.994375 -89.99 0.105760 -12.19
9.00720000 0.105816 12.266 0.994372 -89.99 0.994372 -89.99 0.105792 -12.26
9.00740000 0.105848 12.314 0.994368 -90.00 0.994368 -90.00 0.105825 -12.32
9.00760000 0.105881 12.362 0.994365 -90.01 0.994365 -90.01 0.105858 -12.39
9.00780000 0.105915 12.411 0.994361 -90.02 0.994361 -90.02 0.105891 -12.45
9.00800000 0.105948 12.460 0.994357 -90.03 0.994357 -90.03 0.105924 -12.52
9.00820000 0.105982 12.509 0.994354 -90.04 0.994354 -90.04 0.105958 -12.58
9.00840000 0.106016 12.559 0.994350 -90.04 0.994350 -90.04 0.105992 -12.65
9.00860000 0.106051 12.608 0.994346 -90.05 0.994346 -90.05 0.106027 -12.72
9.00880000 0.106086 12.659 0.994342 -90.06 0.994342 -90.06 0.106061 -12.78
9.00900000 0.106121 12.709 0.994339 -90.07 0.994339 -90.07 0.106096 -12.85
9.00920000 0.106156 12.760 0.994335 -90.08 0.994335 -90.08 0.106131 -12.92
9.00940000 0.106192 12.811 0.994331 -90.09 0.994331 -90.09 0.106167 -12.99
9.00960000 0.106228 12.862 0.994327 -90.10 0.994327 -90.10 0.106203 -13.06
9.00980000 0.106264 12.913 0.994323 -90.11 0.994323 -90.11 0.106239 -13.13
9.01000000 0.106301 12.965 0.994319 -90.11 0.994319 -90.11 0.106276 -13.20
9.01020000 0.106338 13.018 0.994315 -90.12 0.994315 -90.12 0.106313 -13.27
9.01040000 0.106375 13.070 0.994311 -90.13 0.994311 -90.13 0.106350 -13.34
9.01060000 0.106413 13.123 0.994307 -90.14 0.994307 -90.14 0.106387 -13.41
9.01080000 0.106451 13.176 0.994303 -90.15 0.994303 -90.15 0.106425 -13.48
9.01100000 0.106490 13.230 0.994298 -90.16 0.994298 -90.16 0.106464 -13.55
9.01120000 0.106528 13.283 0.994294 -90.17 0.994294 -90.17 0.106502 -13.62
9.01140000 0.106568 13.337 0.994290 -90.18 0.994290 -90.18 0.106541 -13.70
9.01160000 0.106607 13.392 0.994286 -90.19 0.994286 -90.19 0.106581 -13.77
9.01180000 0.106647 13.447 0.994281 -90.20 0.994281 -90.20 0.106620 -13.84
9.01200000 0.106687 13.502 0.994277 -90.21 0.994277 -90.21 0.106660 -13.92
9.01220000 0.106728 13.557 0.994272 -90.22 0.994272 -90.22 0.106701 -13.99
9.01240000 0.106769 13.613 0.994268 -90.22 0.994268 -90.22 0.106742 -14.06
9.01260000 0.106810 13.669 0.994263 -90.23 0.994263 -90.23 0.106783 -14.14
9.01280000 0.106852 13.726 0.994259 -90.24 0.994259 -90.24 0.106825 -14.22
9.01300000 0.106894 13.783 0.994254 -90.25 0.994254 -90.25 0.106867 -14.29
9.01320000 0.106937 13.840 0.994250 -90.26 0.994250 -90.26 0.106909 -14.37
9.01340000 0.106980 13.897 0.994245 -90.27 0.994245 -90.27 0.106952 -14.44
9.01360000 0.107023 13.955 0.994240 -90.28 0.994240 -90.28 0.106995 -14.52
9.01380000 0.107067 14.014 0.994235 -90.29 0.994235 -90.29 0.107039 -14.60
9.01400000 0.107112 14.072 0.994230 -90.30 0.994230 -90.30 0.107083 -14.68
9.01420000 0.107156 14.131 0.994225 -90.31 0.994225 -90.31 0.107127 -14.76
9.01440000 0.107201 14.191 0.994220 -90.32 0.994220 -90.32 0.107172 -14.84
9.01460000 0.107247 14.251 0.994215 -90.33 0.994215 -90.33 0.107218 -14.92
9.01480000 0.107293 14.311 0.994210 -90.34 0.994210 -90.34 0.107264 -15.00
9.01500000 0.107340 14.371 0.994205 -90.35 0.994205 -90.35 0.107310 -15.08
9.01520000 0.107387 14.432 0.994200 -90.36 0.994200 -90.36 0.107357 -15.16
9.01540000 0.107434 14.493 0.994195 -90.37 0.994195 -90.37 0.107404 -15.24
9.01560000 0.107482 14.555 0.994190 -90.38 0.994190 -90.38 0.107452 -15.32
9.01580000 0.107531 14.617 0.994184 -90.39 0.994184 -90.39 0.107500 -15.41
9.01600000 0.107580 14.680 0.994179 -90.40 0.994179 -90.40 0.107549 -15.49
9.01620000 0.107629 14.743 0.994173 -90.41 0.994173 -90.41 0.107598 -15.57
9.01640000 0.107679 14.806 0.994168 -90.42 0.994168 -90.42 0.107648 -15.66
9.01660000 0.107729 14.870 0.994162 -90.43 0.994162 -90.43 0.107698 -15.74
9.01680000 0.107780 14.934 0.994157 -90.45 0.994157 -90.45 0.107749 -15.83
9.01700000 0.107832 14.998 0.994151 -90.46 0.994151 -90.46 0.107800 -15.91
9.01720000 0.107884 15.063 0.994145 -90.47 0.994145 -90.47 0.107852 -16.00
9.01740000 0.107936 15.129 0.994139 -90.48 0.994139 -90.48 0.107904 -16.09
9.01760000 0.107990 15.194 0.994134 -90.49 0.994134 -90.49 0.107957 -16.18
9.01780000 0.108043 15.261 0.994128 -90.50 0.994128 -90.50 0.108011 -16.26
9.01800000 0.108098 15.327 0.994122 -90.51 0.994122 -90.51 0.108065 -16.35
9.01820000 0.108152 15.394 0.994116 -90.52 0.994116 -90.52 0.108119 -16.44
9.01840000 0.108208 15.462 0.994109 -90.53 0.994109 -90.53 0.108175 -16.53
9.01860000 0.108264 15.530 0.994103 -90.54 0.994103 -90.54 0.108230 -16.62
9.01880000 0.108320 15.598 0.994097 -90.56 0.994097 -90.56 0.108287 -16.71
9.01900000 0.108378 15.667 0.994091 -90.57 0.994091 -90.57 0.108344 -16.80
9.01920000 0.108436 15.737 0.994084 -90.58 0.994084 -90.58 0.108401 -16.90
9.01940000 0.108494 15.806 0.994078 -90.59 0.994078 -90.59 0.108460 -16.99
9.01960000 0.108553 15.877 0.994071 -90.60 0.994071 -90.60 0.108519 -17.08
9.01980000 0.108613 15.947 0.994064 -90.61 0.994064 -90.61 0.108578 -17.18
9.02000000 0.108673 16.019 0.994058 -90.62 0.994058 -90.62 0.108638 -17.27
9.02020000 0.108734 16.090 0.994051 -90.64 0.994051 -90.64 0.108699 -17.37
9.02040000 0.108796 16.163 0.994044 -90.65 0.994044 -90.65 0.108761 -17.46
9.02060000 0.108859 16.235 0.994037 -90.66 0.994037 -90.66 0.108823 -17.56
9.02080000 0.108922 16.308 0.994030 -90.67 0.994030 -90.67 0.108886 -17.66
9.02100000 0.108986 16.382 0.994023 -90.68 0.994023 -90.68 0.108949 -17.76
9.02120000 0.109050 16.456 0.994016 -90.70 0.994016 -90.70 0.109014 -17.85
9.02140000 0.109116 16.531 0.994008 -90.71 0.994008 -90.71 0.109079 -17.95
9.02160000 0.109182 16.606 0.994001 -90.72 0.994001 -90.72 0.109144 -18.05
9.02180000 0.109248 16.682 0.993993 -90.73 0.993993 -90.73 0.109211 -18.15
9.02200000 0.109316 16.758 0.993986 -90.75 0.993986 -90.75 0.109278 -18.26
9.02220000 0.109384 16.835 0.993978 -90.76 0.993978 -90.76 0.109346 -18.36
9.02240000 0.109453 16.912 0.993970 -90.77 0.993970 -90.77 0.109415 -18.46
9.02260000 0.109523 16.990 0.993963 -90.78 0.993963 -90.78 0.109485 -18.56
9.02280000 0.109594 17.068 0.993955 -90.80 0.993955 -90.80 0.109555 -18.67
9.02300000 0.109666 17.147 0.993947 -90.81 0.993947 -90.81 0.109627 -18.77
9.02320000 0.109738 17.227 0.993938 -90.82 0.993938 -90.82 0.109699 -18.88
9.02340000 0.109811 17.307 0.993930 -90.84 0.993930 -90.84 0.109772 -18.99
9.02360000 0.109886 17.387 0.993922 -90.85 0.993922 -90.85 0.109846 -19.09
9.02380000 0.109961 17.468 0.993913 -90.86 0.993913 -90.86 0.109920 -19.20
9.02400000 0.110037 17.550 0.993905 -90.88 0.993905 -90.88 0.109996 -19.31
9.02420000 0.110113 17.632 0.993896 -90.89 0.993896 -90.89 0.110072 -19.42
9.02440000 0.110191 17.715 0.993887 -90.90 0.993887 -90.90 0.110150 -19.53
9.02460000 0.110270 17.799 0.993878 -90.92 0.993878 -90.92 0.110228 -19.64
9.02480000 0.110349 17.883 0.993869 -90.93 0.993869 -90.93 0.110308 -19.75
9.02500000 0.110430 17.967 0.993860 -90.94 0.993860 -90.94 0.110388 -19.86
9.02520000 0.110512 18.052 0.993851 -90.96 0.993851 -90.96 0.110469 -19.98
9.02540000 0.110594 18.138 0.993842 -90.97 0.993842 -90.97 0.110551 -20.09
9.02560000 0.110678 18.225 0.993832 -90.99 0.993832 -90.99 0.110635 -20.21
9.02580000 0.110763 18.312 0.993823 -91.00 0.993823 -91.00 0.110719 -20.32
9.02600000 0.110848 18.400 0.993813 -91.02 0.993813 -91.02 0.110804 -20.44
9.02620000 0.110935 18.488 0.993803 -91.03 0.993803 -91.03 0.110891 -20.56
9.02640000 0.111023 18.577 0.993793 -91.04 0.993793 -91.04 0.110978 -20.67
9.02660000 0.111112 18.666 0.993783 -91.06 0.993783 -91.06 0.111067 -20.79
9.02680000 0.111202 18.757 0.993773 -91.07 0.993773 -91.07 0.111157 -20.91
9.02700000 0.111293 18.848 0.993762 -91.09 0.993762 -91.09 0.111248 -21.03
9.02720000 0.111386 18.939 0.993752 -91.10 0.993752 -91.10 0.111340 -21.16
9.02740000 0.111479 19.031 0.993741 -91.12 0.993741 -91.12 0.111433 -21.28
9.02760000 0.111574 19.124 0.993730 -91.14 0.993730 -91.14 0.111527 -21.40
9.02780000 0.111670 19.218 0.993719 -91.15 0.993719 -91.15 0.111623 -21.53
9.02800000 0.111767 19.312 0.993708 -91.17 0.993708 -91.17 0.111720 -21.65
9.02820000 0.111866 19.407 0.993697 -91.18 0.993697 -91.18 0.111818 -21.78
9.02840000 0.111966 19.503 0.993685 -91.20 0.993685 -91.20 0.111917 -21.91