! Sonnet Data File
! From: emgraph Version : 16.52
! From Project: Resonator2_cp_cp
! Data is De-embedded 
! Data File Written: 10/06/2017 09:20:30
!< HDATE 10/05/2017 21:11:40
!< MDATE 10/05/2017 21:11:40
!< PARAMS
!< gap = 26.0
!< Length = 400.0
!< Pwid1 = 2000.0
!< Pwid2 = 2000.0
!< END PARAMS
# GHZ S MA R 51.80000
8.80000000 6.357e-4 -2.035 0.999997 -80.53 0.999997 -80.53 6.366e-4 21.367
!< P1 F=8.8 Eeff=(6.44679989 -2.9721e-5) Z0=(51.7992624 1.19519e-4) R=0.0 C=0.0 
!< P2 F=8.8 Eeff=(6.44679989 -2.9721e-5) Z0=(51.7992624 1.19519e-4) R=0.0 C=0.0 
8.80020000 6.362e-4 -2.041 0.999997 -80.53 0.999997 -80.53 6.372e-4 21.368
8.80040000 6.368e-4 -2.047 0.999996 -80.53 0.999996 -80.53 6.377e-4 21.370
8.80060000 6.374e-4 -2.052 0.999996 -80.54 0.999996 -80.54 6.383e-4 21.371
8.80080000 6.380e-4 -2.058 0.999996 -80.54 0.999996 -80.54 6.389e-4 21.373
8.80100000 6.385e-4 -2.064 0.999996 -80.54 0.999996 -80.54 6.395e-4 21.374
8.80120000 6.391e-4 -2.069 0.999996 -80.54 0.999996 -80.54 6.400e-4 21.376
8.80140000 6.397e-4 -2.075 0.999996 -80.54 0.999996 -80.54 6.406e-4 21.377
8.80160000 6.403e-4 -2.081 0.999996 -80.54 0.999996 -80.54 6.412e-4 21.379
8.80180000 6.408e-4 -2.086 0.999996 -80.55 0.999996 -80.55 6.418e-4 21.380
8.80200000 6.414e-4 -2.092 0.999996 -80.55 0.999996 -80.55 6.424e-4 21.382
8.80220000 6.420e-4 -2.098 0.999996 -80.55 0.999996 -80.55 6.429e-4 21.383
8.80240000 6.426e-4 -2.104 0.999996 -80.55 0.999996 -80.55 6.435e-4 21.385
8.80260000 6.432e-4 -2.109 0.999996 -80.55 0.999996 -80.55 6.441e-4 21.386
8.80280000 6.438e-4 -2.115 0.999996 -80.56 0.999996 -80.56 6.447e-4 21.388
8.80300000 6.444e-4 -2.121 0.999996 -80.56 0.999996 -80.56 6.453e-4 21.390
8.80320000 6.450e-4 -2.127 0.999996 -80.56 0.999996 -80.56 6.459e-4 21.391
8.80340000 6.456e-4 -2.132 0.999996 -80.56 0.999996 -80.56 6.465e-4 21.393
8.80360000 6.462e-4 -2.138 0.999996 -80.56 0.999996 -80.56 6.471e-4 21.395
8.80380000 6.468e-4 -2.144 0.999996 -80.56 0.999996 -80.56 6.477e-4 21.396
8.80400000 6.474e-4 -2.150 0.999996 -80.57 0.999996 -80.57 6.483e-4 21.398
8.80420000 6.480e-4 -2.156 0.999996 -80.57 0.999996 -80.57 6.489e-4 21.399
8.80440000 6.486e-4 -2.161 0.999996 -80.57 0.999996 -80.57 6.496e-4 21.401
8.80460000 6.492e-4 -2.167 0.999996 -80.57 0.999996 -80.57 6.502e-4 21.403
8.80480000 6.498e-4 -2.173 0.999996 -80.57 0.999996 -80.57 6.508e-4 21.404
8.80500000 6.505e-4 -2.179 0.999996 -80.58 0.999996 -80.58 6.514e-4 21.406
8.80520000 6.511e-4 -2.185 0.999996 -80.58 0.999996 -80.58 6.520e-4 21.408
8.80540000 6.517e-4 -2.191 0.999996 -80.58 0.999996 -80.58 6.526e-4 21.409
8.80560000 6.523e-4 -2.196 0.999996 -80.58 0.999996 -80.58 6.533e-4 21.411
8.80580000 6.530e-4 -2.202 0.999996 -80.58 0.999996 -80.58 6.539e-4 21.413
8.80600000 6.536e-4 -2.208 0.999996 -80.59 0.999996 -80.59 6.545e-4 21.415
8.80620000 6.542e-4 -2.214 0.999996 -80.59 0.999996 -80.59 6.552e-4 21.416
8.80640000 6.549e-4 -2.220 0.999996 -80.59 0.999996 -80.59 6.558e-4 21.418
8.80660000 6.555e-4 -2.226 0.999996 -80.59 0.999996 -80.59 6.564e-4 21.420
8.80680000 6.561e-4 -2.232 0.999996 -80.59 0.999996 -80.59 6.571e-4 21.422
8.80700000 6.568e-4 -2.238 0.999996 -80.59 0.999996 -80.59 6.577e-4 21.423
8.80720000 6.574e-4 -2.244 0.999996 -80.60 0.999996 -80.60 6.584e-4 21.425
8.80740000 6.581e-4 -2.250 0.999996 -80.60 0.999996 -80.60 6.590e-4 21.427
8.80760000 6.587e-4 -2.256 0.999996 -80.60 0.999996 -80.60 6.597e-4 21.429
8.80780000 6.594e-4 -2.262 0.999996 -80.60 0.999996 -80.60 6.603e-4 21.430
8.80800000 6.600e-4 -2.268 0.999996 -80.60 0.999996 -80.60 6.610e-4 21.432
8.80820000 6.607e-4 -2.274 0.999996 -80.61 0.999996 -80.61 6.616e-4 21.434
8.80840000 6.614e-4 -2.280 0.999996 -80.61 0.999996 -80.61 6.623e-4 21.436
8.80860000 6.620e-4 -2.286 0.999996 -80.61 0.999996 -80.61 6.630e-4 21.438
8.80880000 6.627e-4 -2.292 0.999996 -80.61 0.999996 -80.61 6.636e-4 21.439
8.80900000 6.634e-4 -2.298 0.999996 -80.61 0.999996 -80.61 6.643e-4 21.441
8.80920000 6.640e-4 -2.304 0.999996 -80.62 0.999996 -80.62 6.650e-4 21.443
8.80940000 6.647e-4 -2.310 0.999996 -80.62 0.999996 -80.62 6.657e-4 21.445
8.80960000 6.654e-4 -2.316 0.999996 -80.62 0.999996 -80.62 6.663e-4 21.447
8.80980000 6.661e-4 -2.322 0.999996 -80.62 0.999996 -80.62 6.670e-4 21.449
8.81000000 6.667e-4 -2.328 0.999996 -80.62 0.999996 -80.62 6.677e-4 21.451
8.81020000 6.674e-4 -2.334 0.999996 -80.62 0.999996 -80.62 6.684e-4 21.453
8.81040000 6.681e-4 -2.340 0.999996 -80.63 0.999996 -80.63 6.691e-4 21.454
8.81060000 6.688e-4 -2.346 0.999996 -80.63 0.999996 -80.63 6.698e-4 21.456
8.81080000 6.695e-4 -2.352 0.999996 -80.63 0.999996 -80.63 6.705e-4 21.458
8.81100000 6.702e-4 -2.359 0.999996 -80.63 0.999996 -80.63 6.712e-4 21.460
8.81120000 6.709e-4 -2.365 0.999996 -80.63 0.999996 -80.63 6.719e-4 21.462
8.81140000 6.716e-4 -2.371 0.999996 -80.64 0.999996 -80.64 6.726e-4 21.464
8.81160000 6.723e-4 -2.377 0.999996 -80.64 0.999996 -80.64 6.733e-4 21.466
8.81180000 6.730e-4 -2.383 0.999996 -80.64 0.999996 -80.64 6.740e-4 21.468
8.81200000 6.737e-4 -2.389 0.999996 -80.64 0.999996 -80.64 6.747e-4 21.470
8.81220000 6.745e-4 -2.396 0.999996 -80.64 0.999996 -80.64 6.754e-4 21.472
8.81240000 6.752e-4 -2.402 0.999996 -80.65 0.999996 -80.65 6.761e-4 21.474
8.81260000 6.759e-4 -2.408 0.999996 -80.65 0.999996 -80.65 6.768e-4 21.476
8.81280000 6.766e-4 -2.414 0.999996 -80.65 0.999996 -80.65 6.776e-4 21.478
8.81300000 6.773e-4 -2.420 0.999996 -80.65 0.999996 -80.65 6.783e-4 21.480
8.81320000 6.781e-4 -2.427 0.999996 -80.65 0.999996 -80.65 6.790e-4 21.482
8.81340000 6.788e-4 -2.433 0.999996 -80.65 0.999996 -80.65 6.798e-4 21.484
8.81360000 6.795e-4 -2.439 0.999996 -80.66 0.999996 -80.66 6.805e-4 21.486
8.81380000 6.803e-4 -2.445 0.999996 -80.66 0.999996 -80.66 6.812e-4 21.488
8.81400000 6.810e-4 -2.452 0.999996 -80.66 0.999996 -80.66 6.820e-4 21.490
8.81420000 6.818e-4 -2.458 0.999996 -80.66 0.999996 -80.66 6.827e-4 21.492
8.81440000 6.825e-4 -2.464 0.999996 -80.66 0.999996 -80.66 6.835e-4 21.494
8.81460000 6.833e-4 -2.471 0.999996 -80.67 0.999996 -80.67 6.842e-4 21.496
8.81480000 6.840e-4 -2.477 0.999996 -80.67 0.999996 -80.67 6.850e-4 21.498
8.81500000 6.848e-4 -2.483 0.999996 -80.67 0.999996 -80.67 6.858e-4 21.501
8.81520000 6.856e-4 -2.489 0.999996 -80.67 0.999996 -80.67 6.865e-4 21.503
8.81540000 6.863e-4 -2.496 0.999996 -80.67 0.999996 -80.67 6.873e-4 21.505
8.81560000 6.871e-4 -2.502 0.999996 -80.68 0.999996 -80.68 6.881e-4 21.507
8.81580000 6.879e-4 -2.509 0.999996 -80.68 0.999996 -80.68 6.888e-4 21.509
8.81600000 6.886e-4 -2.515 0.999996 -80.68 0.999996 -80.68 6.896e-4 21.511
8.81620000 6.894e-4 -2.521 0.999996 -80.68 0.999996 -80.68 6.904e-4 21.513
8.81640000 6.902e-4 -2.528 0.999996 -80.68 0.999996 -80.68 6.912e-4 21.516
8.81660000 6.910e-4 -2.534 0.999996 -80.68 0.999996 -80.68 6.920e-4 21.518
8.81680000 6.918e-4 -2.541 0.999996 -80.69 0.999996 -80.69 6.927e-4 21.520
8.81700000 6.926e-4 -2.547 0.999996 -80.69 0.999996 -80.69 6.935e-4 21.522
8.81720000 6.934e-4 -2.553 0.999996 -80.69 0.999996 -80.69 6.943e-4 21.524
8.81740000 6.942e-4 -2.560 0.999996 -80.69 0.999996 -80.69 6.951e-4 21.527
8.81760000 6.950e-4 -2.566 0.999996 -80.69 0.999996 -80.69 6.959e-4 21.529
8.81780000 6.958e-4 -2.573 0.999996 -80.70 0.999996 -80.70 6.967e-4 21.531
8.81800000 6.966e-4 -2.579 0.999996 -80.70 0.999996 -80.70 6.976e-4 21.533
8.81820000 6.974e-4 -2.586 0.999996 -80.70 0.999996 -80.70 6.984e-4 21.536
8.81840000 6.982e-4 -2.592 0.999996 -80.70 0.999996 -80.70 6.992e-4 21.538
8.81860000 6.991e-4 -2.599 0.999996 -80.70 0.999996 -80.70 7.000e-4 21.540
8.81880000 6.999e-4 -2.605 0.999996 -80.71 0.999996 -80.71 7.008e-4 21.542
8.81900000 7.007e-4 -2.612 0.999996 -80.71 0.999996 -80.71 7.017e-4 21.545
8.81920000 7.015e-4 -2.618 0.999996 -80.71 0.999996 -80.71 7.025e-4 21.547
8.81940000 7.024e-4 -2.625 0.999996 -80.71 0.999996 -80.71 7.033e-4 21.549
8.81960000 7.032e-4 -2.632 0.999996 -80.71 0.999996 -80.71 7.042e-4 21.552
8.81980000 7.041e-4 -2.638 0.999996 -80.71 0.999996 -80.71 7.050e-4 21.554
8.82000000 7.049e-4 -2.645 0.999996 -80.72 0.999996 -80.72 7.059e-4 21.556
8.82020000 7.058e-4 -2.651 0.999996 -80.72 0.999996 -80.72 7.067e-4 21.559
8.82040000 7.066e-4 -2.658 0.999996 -80.72 0.999996 -80.72 7.076e-4 21.561
8.82060000 7.075e-4 -2.665 0.999996 -80.72 0.999996 -80.72 7.085e-4 21.563
8.82080000 7.084e-4 -2.671 0.999996 -80.72 0.999996 -80.72 7.093e-4 21.566
8.82100000 7.092e-4 -2.678 0.999996 -80.73 0.999996 -80.73 7.102e-4 21.568
8.82120000 7.101e-4 -2.685 0.999996 -80.73 0.999996 -80.73 7.111e-4 21.571
8.82140000 7.110e-4 -2.691 0.999996 -80.73 0.999996 -80.73 7.120e-4 21.573
8.82160000 7.119e-4 -2.698 0.999996 -80.73 0.999996 -80.73 7.128e-4 21.575
8.82180000 7.127e-4 -2.705 0.999996 -80.73 0.999996 -80.73 7.137e-4 21.578
8.82200000 7.136e-4 -2.711 0.999996 -80.74 0.999996 -80.74 7.146e-4 21.580
8.82220000 7.145e-4 -2.718 0.999996 -80.74 0.999996 -80.74 7.155e-4 21.583
8.82240000 7.154e-4 -2.725 0.999996 -80.74 0.999996 -80.74 7.164e-4 21.585
8.82260000 7.163e-4 -2.732 0.999996 -80.74 0.999996 -80.74 7.173e-4 21.588
8.82280000 7.172e-4 -2.738 0.999996 -80.74 0.999996 -80.74 7.182e-4 21.590
8.82300000 7.182e-4 -2.745 0.999996 -80.74 0.999996 -80.74 7.191e-4 21.593
8.82320000 7.191e-4 -2.752 0.999996 -80.75 0.999996 -80.75 7.200e-4 21.595
8.82340000 7.200e-4 -2.759 0.999996 -80.75 0.999996 -80.75 7.210e-4 21.598
8.82360000 7.209e-4 -2.765 0.999996 -80.75 0.999996 -80.75 7.219e-4 21.600
8.82380000 7.218e-4 -2.772 0.999996 -80.75 0.999996 -80.75 7.228e-4 21.603
8.82400000 7.228e-4 -2.779 0.999996 -80.75 0.999996 -80.75 7.238e-4 21.605
8.82420000 7.237e-4 -2.786 0.999996 -80.76 0.999996 -80.76 7.247e-4 21.608
8.82440000 7.247e-4 -2.793 0.999996 -80.76 0.999996 -80.76 7.256e-4 21.610
8.82460000 7.256e-4 -2.800 0.999996 -80.76 0.999996 -80.76 7.266e-4 21.613
8.82480000 7.266e-4 -2.806 0.999996 -80.76 0.999996 -80.76 7.275e-4 21.615
8.82500000 7.275e-4 -2.813 0.999996 -80.76 0.999996 -80.76 7.285e-4 21.618
8.82520000 7.285e-4 -2.820 0.999996 -80.77 0.999996 -80.77 7.295e-4 21.621
8.82540000 7.294e-4 -2.827 0.999996 -80.77 0.999996 -80.77 7.304e-4 21.623
8.82560000 7.304e-4 -2.834 0.999996 -80.77 0.999996 -80.77 7.314e-4 21.626
8.82580000 7.314e-4 -2.841 0.999996 -80.77 0.999996 -80.77 7.324e-4 21.629
8.82600000 7.324e-4 -2.848 0.999996 -80.77 0.999996 -80.77 7.334e-4 21.631
8.82620000 7.334e-4 -2.855 0.999996 -80.77 0.999996 -80.77 7.344e-4 21.634
8.82640000 7.344e-4 -2.862 0.999996 -80.78 0.999996 -80.78 7.353e-4 21.637
8.82660000 7.354e-4 -2.869 0.999996 -80.78 0.999996 -80.78 7.363e-4 21.639
8.82680000 7.364e-4 -2.876 0.999996 -80.78 0.999996 -80.78 7.373e-4 21.642
8.82700000 7.374e-4 -2.883 0.999996 -80.78 0.999996 -80.78 7.383e-4 21.645
8.82720000 7.384e-4 -2.890 0.999996 -80.78 0.999996 -80.78 7.394e-4 21.647
8.82740000 7.394e-4 -2.897 0.999996 -80.79 0.999996 -80.79 7.404e-4 21.650
8.82760000 7.404e-4 -2.904 0.999996 -80.79 0.999996 -80.79 7.414e-4 21.653
8.82780000 7.414e-4 -2.911 0.999996 -80.79 0.999996 -80.79 7.424e-4 21.656
8.82800000 7.425e-4 -2.918 0.999996 -80.79 0.999996 -80.79 7.435e-4 21.658
8.82820000 7.435e-4 -2.925 0.999996 -80.79 0.999996 -80.79 7.445e-4 21.661
8.82840000 7.446e-4 -2.932 0.999996 -80.80 0.999996 -80.80 7.455e-4 21.664
8.82860000 7.456e-4 -2.939 0.999996 -80.80 0.999996 -80.80 7.466e-4 21.667
8.82880000 7.467e-4 -2.947 0.999996 -80.80 0.999996 -80.80 7.476e-4 21.669
8.82900000 7.477e-4 -2.954 0.999996 -80.80 0.999996 -80.80 7.487e-4 21.672
8.82920000 7.488e-4 -2.961 0.999996 -80.80 0.999996 -80.80 7.498e-4 21.675
8.82940000 7.499e-4 -2.968 0.999996 -80.80 0.999996 -80.80 7.508e-4 21.678
8.82960000 7.509e-4 -2.975 0.999996 -80.81 0.999996 -80.81 7.519e-4 21.681
8.82980000 7.520e-4 -2.982 0.999996 -80.81 0.999996 -80.81 7.530e-4 21.684
8.83000000 7.531e-4 -2.990 0.999996 -80.81 0.999996 -80.81 7.541e-4 21.686
8.83020000 7.542e-4 -2.997 0.999996 -80.81 0.999996 -80.81 7.552e-4 21.689
8.83040000 7.553e-4 -3.004 0.999996 -80.81 0.999996 -80.81 7.563e-4 21.692
8.83060000 7.564e-4 -3.011 0.999996 -80.82 0.999996 -80.82 7.574e-4 21.695
8.83080000 7.575e-4 -3.019 0.999996 -80.82 0.999996 -80.82 7.585e-4 21.698
8.83100000 7.586e-4 -3.026 0.999996 -80.82 0.999996 -80.82 7.596e-4 21.701
8.83120000 7.598e-4 -3.033 0.999996 -80.82 0.999996 -80.82 7.607e-4 21.704
8.83140000 7.609e-4 -3.040 0.999996 -80.82 0.999996 -80.82 7.619e-4 21.707
8.83160000 7.620e-4 -3.048 0.999996 -80.83 0.999996 -80.83 7.630e-4 21.710
8.83180000 7.632e-4 -3.055 0.999996 -80.83 0.999996 -80.83 7.642e-4 21.713
8.83200000 7.643e-4 -3.062 0.999996 -80.83 0.999996 -80.83 7.653e-4 21.716
8.83220000 7.655e-4 -3.070 0.999996 -80.83 0.999996 -80.83 7.665e-4 21.719
8.83240000 7.666e-4 -3.077 0.999996 -80.83 0.999996 -80.83 7.676e-4 21.722
8.83260000 7.678e-4 -3.085 0.999996 -80.84 0.999996 -80.84 7.688e-4 21.725
8.83280000 7.690e-4 -3.092 0.999996 -80.84 0.999996 -80.84 7.700e-4 21.728
8.83300000 7.701e-4 -3.099 0.999996 -80.84 0.999996 -80.84 7.711e-4 21.731
8.83320000 7.713e-4 -3.107 0.999996 -80.84 0.999996 -80.84 7.723e-4 21.734
8.83340000 7.725e-4 -3.114 0.999996 -80.84 0.999996 -80.84 7.735e-4 21.737
8.83360000 7.737e-4 -3.122 0.999996 -80.84 0.999996 -80.84 7.747e-4 21.740
8.83380000 7.749e-4 -3.129 0.999996 -80.85 0.999996 -80.85 7.759e-4 21.743
8.83400000 7.761e-4 -3.137 0.999996 -80.85 0.999996 -80.85 7.771e-4 21.746
8.83420000 7.774e-4 -3.144 0.999996 -80.85 0.999996 -80.85 7.784e-4 21.749
8.83440000 7.786e-4 -3.152 0.999996 -80.85 0.999996 -80.85 7.796e-4 21.752
8.83460000 7.798e-4 -3.159 0.999996 -80.85 0.999996 -80.85 7.808e-4 21.756
8.83480000 7.811e-4 -3.167 0.999996 -80.86 0.999996 -80.86 7.821e-4 21.759
8.83500000 7.823e-4 -3.174 0.999996 -80.86 0.999996 -80.86 7.833e-4 21.762
8.83520000 7.836e-4 -3.182 0.999996 -80.86 0.999996 -80.86 7.846e-4 21.765
8.83540000 7.848e-4 -3.189 0.999996 -80.86 0.999996 -80.86 7.858e-4 21.768
8.83560000 7.861e-4 -3.197 0.999996 -80.86 0.999996 -80.86 7.871e-4 21.771
8.83580000 7.874e-4 -3.205 0.999996 -80.87 0.999996 -80.87 7.884e-4 21.775
8.83600000 7.887e-4 -3.212 0.999996 -80.87 0.999996 -80.87 7.897e-4 21.778
8.83620000 7.899e-4 -3.220 0.999996 -80.87 0.999996 -80.87 7.910e-4 21.781
8.83640000 7.912e-4 -3.227 0.999996 -80.87 0.999996 -80.87 7.923e-4 21.784
8.83660000 7.925e-4 -3.235 0.999996 -80.87 0.999996 -80.87 7.936e-4 21.788
8.83680000 7.939e-4 -3.243 0.999996 -80.87 0.999996 -80.87 7.949e-4 21.791
8.83700000 7.952e-4 -3.251 0.999996 -80.88 0.999996 -80.88 7.962e-4 21.794
8.83720000 7.965e-4 -3.258 0.999996 -80.88 0.999996 -80.88 7.975e-4 21.797
8.83740000 7.979e-4 -3.266 0.999996 -80.88 0.999996 -80.88 7.989e-4 21.801
8.83760000 7.992e-4 -3.274 0.999996 -80.88 0.999996 -80.88 8.002e-4 21.804
8.83780000 8.005e-4 -3.281 0.999996 -80.88 0.999996 -80.88 8.016e-4 21.807
8.83800000 8.019e-4 -3.289 0.999996 -80.89 0.999996 -80.89 8.029e-4 21.811
8.83820000 8.033e-4 -3.297 0.999996 -80.89 0.999996 -80.89 8.043e-4 21.814
8.83840000 8.047e-4 -3.305 0.999996 -80.89 0.999996 -80.89 8.057e-4 21.817
8.83860000 8.060e-4 -3.313 0.999996 -80.89 0.999996 -80.89 8.071e-4 21.821
8.83880000 8.074e-4 -3.320 0.999996 -80.89 0.999996 -80.89 8.085e-4 21.824
8.83900000 8.088e-4 -3.328 0.999996 -80.90 0.999996 -80.90 8.099e-4 21.828
8.83920000 8.103e-4 -3.336 0.999996 -80.90 0.999996 -80.90 8.113e-4 21.831
8.83940000 8.117e-4 -3.344 0.999996 -80.90 0.999996 -80.90 8.127e-4 21.834
8.83960000 8.131e-4 -3.352 0.999996 -80.90 0.999996 -80.90 8.141e-4 21.838
8.83980000 8.145e-4 -3.360 0.999996 -80.90 0.999996 -80.90 8.156e-4 21.841
8.84000000 8.160e-4 -3.368 0.999996 -80.91 0.999996 -80.91 8.170e-4 21.845
8.84020000 8.174e-4 -3.376 0.999996 -80.91 0.999996 -80.91 8.185e-4 21.848
8.84040000 8.189e-4 -3.384 0.999996 -80.91 0.999996 -80.91 8.199e-4 21.852
8.84060000 8.204e-4 -3.392 0.999996 -80.91 0.999996 -80.91 8.214e-4 21.855
8.84080000 8.219e-4 -3.400 0.999996 -80.91 0.999996 -80.91 8.229e-4 21.859
8.84100000 8.233e-4 -3.408 0.999996 -80.91 0.999996 -80.91 8.244e-4 21.862
8.84120000 8.248e-4 -3.416 0.999996 -80.92 0.999996 -80.92 8.259e-4 21.866
8.84140000 8.264e-4 -3.424 0.999996 -80.92 0.999996 -80.92 8.274e-4 21.869
8.84160000 8.279e-4 -3.432 0.999996 -80.92 0.999996 -80.92 8.289e-4 21.873
8.84180000 8.294e-4 -3.440 0.999996 -80.92 0.999996 -80.92 8.304e-4 21.877
8.84200000 8.309e-4 -3.448 0.999996 -80.92 0.999996 -80.92 8.320e-4 21.880
8.84220000 8.325e-4 -3.456 0.999996 -80.93 0.999996 -80.93 8.335e-4 21.884
8.84240000 8.340e-4 -3.464 0.999996 -80.93 0.999996 -80.93 8.351e-4 21.887
8.84260000 8.356e-4 -3.472 0.999996 -80.93 0.999996 -80.93 8.366e-4 21.891
8.84280000 8.372e-4 -3.481 0.999996 -80.93 0.999996 -80.93 8.382e-4 21.895
8.84300000 8.388e-4 -3.489 0.999996 -80.93 0.999996 -80.93 8.398e-4 21.898
8.84320000 8.404e-4 -3.497 0.999996 -80.94 0.999996 -80.94 8.414e-4 21.902
8.84340000 8.420e-4 -3.505 0.999996 -80.94 0.999996 -80.94 8.430e-4 21.906
8.84360000 8.436e-4 -3.513 0.999996 -80.94 0.999996 -80.94 8.446e-4 21.909
8.84380000 8.452e-4 -3.522 0.999996 -80.94 0.999996 -80.94 8.463e-4 21.913
8.84400000 8.469e-4 -3.530 0.999996 -80.94 0.999996 -80.94 8.479e-4 21.917
8.84420000 8.485e-4 -3.538 0.999996 -80.95 0.999996 -80.95 8.496e-4 21.921
8.84440000 8.502e-4 -3.547 0.999996 -80.95 0.999996 -80.95 8.512e-4 21.924
8.84460000 8.519e-4 -3.555 0.999996 -80.95 0.999996 -80.95 8.529e-4 21.928
8.84480000 8.536e-4 -3.563 0.999996 -80.95 0.999996 -80.95 8.546e-4 21.932
8.84500000 8.553e-4 -3.572 0.999996 -80.95 0.999996 -80.95 8.563e-4 21.936
8.84520000 8.570e-4 -3.580 0.999996 -80.96 0.999996 -80.96 8.580e-4 21.940
8.84540000 8.587e-4 -3.588 0.999996 -80.96 0.999996 -80.96 8.597e-4 21.943
8.84560000 8.604e-4 -3.597 0.999996 -80.96 0.999996 -80.96 8.614e-4 21.947
8.84580000 8.621e-4 -3.605 0.999996 -80.96 0.999996 -80.96 8.632e-4 21.951
8.84600000 8.639e-4 -3.614 0.999996 -80.96 0.999996 -80.96 8.649e-4 21.955
8.84620000 8.657e-4 -3.622 0.999996 -80.96 0.999996 -80.96 8.667e-4 21.959
8.84640000 8.674e-4 -3.630 0.999996 -80.97 0.999996 -80.97 8.685e-4 21.963
8.84660000 8.692e-4 -3.639 0.999996 -80.97 0.999996 -80.97 8.703e-4 21.967
8.84680000 8.710e-4 -3.647 0.999996 -80.97 0.999996 -80.97 8.721e-4 21.971
8.84700000 8.729e-4 -3.656 0.999996 -80.97 0.999996 -80.97 8.739e-4 21.975
8.84720000 8.747e-4 -3.665 0.999996 -80.97 0.999996 -80.97 8.757e-4 21.979
8.84740000 8.765e-4 -3.673 0.999996 -80.98 0.999996 -80.98 8.776e-4 21.983
8.84760000 8.784e-4 -3.682 0.999996 -80.98 0.999996 -80.98 8.794e-4 21.987
8.84780000 8.802e-4 -3.690 0.999996 -80.98 0.999996 -80.98 8.813e-4 21.991
8.84800000 8.821e-4 -3.699 0.999996 -80.98 0.999996 -80.98 8.832e-4 21.995
8.84820000 8.840e-4 -3.708 0.999996 -80.98 0.999996 -80.98 8.851e-4 21.999
8.84840000 8.859e-4 -3.716 0.999996 -80.99 0.999996 -80.99 8.870e-4 22.003
8.84860000 8.878e-4 -3.725 0.999996 -80.99 0.999996 -80.99 8.889e-4 22.007
8.84880000 8.898e-4 -3.734 0.999996 -80.99 0.999996 -80.99 8.908e-4 22.011
8.84900000 8.917e-4 -3.742 0.999996 -80.99 0.999996 -80.99 8.928e-4 22.015
8.84920000 8.937e-4 -3.751 0.999996 -80.99 0.999996 -80.99 8.947e-4 22.019
8.84940000 8.956e-4 -3.760 0.999996 -81.00 0.999996 -81.00 8.967e-4 22.023
8.84960000 8.976e-4 -3.769 0.999996 -81.00 0.999996 -81.00 8.987e-4 22.027
8.84980000 8.996e-4 -3.777 0.999996 -81.00 0.999996 -81.00 9.007e-4 22.031
8.85000000 9.017e-4 -3.786 0.999996 -81.00 0.999996 -81.00 9.027e-4 22.036
8.85020000 9.037e-4 -3.795 0.999996 -81.00 0.999996 -81.00 9.047e-4 22.040
8.85040000 9.057e-4 -3.804 0.999996 -81.01 0.999996 -81.01 9.068e-4 22.044
8.85060000 9.078e-4 -3.813 0.999996 -81.01 0.999996 -81.01 9.088e-4 22.048
8.85080000 9.099e-4 -3.822 0.999996 -81.01 0.999996 -81.01 9.109e-4 22.052
8.85100000 9.120e-4 -3.831 0.999996 -81.01 0.999996 -81.01 9.130e-4 22.057
8.85120000 9.141e-4 -3.840 0.999996 -81.01 0.999996 -81.01 9.151e-4 22.061
8.85140000 9.162e-4 -3.848 0.999996 -81.02 0.999996 -81.02 9.172e-4 22.065
8.85160000 9.183e-4 -3.857 0.999996 -81.02 0.999996 -81.02 9.194e-4 22.070
8.85180000 9.205e-4 -3.866 0.999996 -81.02 0.999996 -81.02 9.215e-4 22.074
8.85200000 9.227e-4 -3.875 0.999996 -81.02 0.999996 -81.02 9.237e-4 22.078
8.85220000 9.249e-4 -3.884 0.999996 -81.02 0.999996 -81.02 9.259e-4 22.083
8.85240000 9.271e-4 -3.894 0.999996 -81.03 0.999996 -81.03 9.281e-4 22.087
8.85260000 9.293e-4 -3.903 0.999996 -81.03 0.999996 -81.03 9.303e-4 22.091
8.85280000 9.315e-4 -3.912 0.999996 -81.03 0.999996 -81.03 9.326e-4 22.096
8.85300000 9.338e-4 -3.921 0.999996 -81.03 0.999996 -81.03 9.348e-4 22.100
8.85320000 9.360e-4 -3.930 0.999996 -81.03 0.999996 -81.03 9.371e-4 22.104
8.85340000 9.383e-4 -3.939 0.999996 -81.03 0.999996 -81.03 9.394e-4 22.109
8.85360000 9.406e-4 -3.948 0.999996 -81.04 0.999996 -81.04 9.417e-4 22.113
8.85380000 9.430e-4 -3.958 0.999996 -81.04 0.999996 -81.04 9.440e-4 22.118
8.85400000 9.453e-4 -3.967 0.999996 -81.04 0.999996 -81.04 9.464e-4 22.122
8.85420000 9.477e-4 -3.976 0.999996 -81.04 0.999996 -81.04 9.488e-4 22.127
8.85440000 9.501e-4 -3.985 0.999996 -81.04 0.999996 -81.04 9.511e-4 22.131
8.85460000 9.525e-4 -3.995 0.999996 -81.05 0.999996 -81.05 9.535e-4 22.136
8.85480000 9.549e-4 -4.004 0.999996 -81.05 0.999996 -81.05 9.560e-4 22.140
8.85500000 9.573e-4 -4.013 0.999996 -81.05 0.999996 -81.05 9.584e-4 22.145
8.85520000 9.598e-4 -4.023 0.999996 -81.05 0.999996 -81.05 9.609e-4 22.149
8.85540000 9.623e-4 -4.032 0.999996 -81.05 0.999996 -81.05 9.633e-4 22.154
8.85560000 9.648e-4 -4.041 0.999996 -81.06 0.999996 -81.06 9.658e-4 22.159
8.85580000 9.673e-4 -4.051 0.999996 -81.06 0.999996 -81.06 9.684e-4 22.163
8.85600000 9.698e-4 -4.060 0.999996 -81.06 0.999996 -81.06 9.709e-4 22.168
8.85620000 9.724e-4 -4.070 0.999996 -81.06 0.999996 -81.06 9.735e-4 22.173
8.85640000 9.750e-4 -4.079 0.999996 -81.06 0.999996 -81.06 9.761e-4 22.177
8.85660000 9.776e-4 -4.089 0.999996 -81.07 0.999996 -81.07 9.787e-4 22.182
8.85680000 9.802e-4 -4.098 0.999996 -81.07 0.999996 -81.07 9.813e-4 22.187
8.85700000 9.829e-4 -4.108 0.999996 -81.07 0.999996 -81.07 9.839e-4 22.191
8.85720000 9.855e-4 -4.117 0.999996 -81.07 0.999996 -81.07 9.866e-4 22.196
8.85740000 9.882e-4 -4.127 0.999996 -81.07 0.999996 -81.07 9.893e-4 22.201
8.85760000 9.909e-4 -4.137 0.999996 -81.08 0.999996 -81.08 9.920e-4 22.206
8.85780000 9.937e-4 -4.146 0.999996 -81.08 0.999996 -81.08 9.948e-4 22.210
8.85800000 9.964e-4 -4.156 0.999996 -81.08 0.999996 -81.08 9.975e-4 22.215
8.85820000 9.992e-4 -4.166 0.999996 -81.08 0.999996 -81.08 0.001000 22.220
8.85840000 0.001002 -4.175 0.999996 -81.08 0.999996 -81.08 0.001003 22.225
8.85860000 0.001005 -4.185 0.999996 -81.09 0.999996 -81.09 0.001006 22.230
8.85880000 0.001008 -4.195 0.999996 -81.09 0.999996 -81.09 0.001009 22.235
8.85900000 0.001011 -4.205 0.999996 -81.09 0.999996 -81.09 0.001012 22.240
8.85920000 0.001014 -4.214 0.999996 -81.09 0.999996 -81.09 0.001015 22.245
8.85940000 0.001016 -4.224 0.999996 -81.09 0.999996 -81.09 0.001018 22.249
8.85960000 0.001019 -4.234 0.999996 -81.10 0.999996 -81.10 0.001020 22.254
8.85980000 0.001022 -4.244 0.999996 -81.10 0.999996 -81.10 0.001023 22.259
8.86000000 0.001025 -4.254 0.999996 -81.10 0.999996 -81.10 0.001026 22.264
8.86020000 0.001028 -4.264 0.999996 -81.10 0.999996 -81.10 0.001030 22.269
8.86040000 0.001032 -4.274 0.999996 -81.10 0.999996 -81.10 0.001033 22.274
8.86060000 0.001035 -4.284 0.999996 -81.11 0.999996 -81.11 0.001036 22.279
8.86080000 0.001038 -4.294 0.999996 -81.11 0.999996 -81.11 0.001039 22.284
8.86100000 0.001041 -4.304 0.999996 -81.11 0.999996 -81.11 0.001042 22.290
8.86120000 0.001044 -4.314 0.999996 -81.11 0.999996 -81.11 0.001045 22.295
8.86140000 0.001047 -4.324 0.999996 -81.11 0.999996 -81.11 0.001048 22.300
8.86160000 0.001051 -4.334 0.999996 -81.12 0.999996 -81.12 0.001052 22.305
8.86180000 0.001054 -4.344 0.999996 -81.12 0.999996 -81.12 0.001055 22.310
8.86200000 0.001057 -4.354 0.999996 -81.12 0.999996 -81.12 0.001058 22.315
8.86220000 0.001060 -4.365 0.999996 -81.12 0.999996 -81.12 0.001061 22.320
8.86240000 0.001064 -4.375 0.999996 -81.12 0.999996 -81.12 0.001065 22.325
8.86260000 0.001067 -4.385 0.999996 -81.13 0.999996 -81.13 0.001068 22.331
8.86280000 0.001071 -4.395 0.999996 -81.13 0.999996 -81.13 0.001072 22.336
8.86300000 0.001074 -4.406 0.999996 -81.13 0.999996 -81.13 0.001075 22.341
8.86320000 0.001078 -4.416 0.999996 -81.13 0.999996 -81.13 0.001079 22.346
8.86340000 0.001081 -4.426 0.999996 -81.13 0.999996 -81.13 0.001082 22.352
8.86360000 0.001085 -4.437 0.999996 -81.14 0.999996 -81.14 0.001086 22.357
8.86380000 0.001088 -4.447 0.999996 -81.14 0.999996 -81.14 0.001089 22.362
8.86400000 0.001092 -4.457 0.999996 -81.14 0.999996 -81.14 0.001093 22.368
8.86420000 0.001096 -4.468 0.999996 -81.14 0.999996 -81.14 0.001097 22.373
8.86440000 0.001099 -4.478 0.999996 -81.14 0.999996 -81.14 0.001100 22.378
8.86460000 0.001103 -4.489 0.999996 -81.15 0.999996 -81.15 0.001104 22.384
8.86480000 0.001107 -4.500 0.999996 -81.15 0.999996 -81.15 0.001108 22.389
8.86500000 0.001111 -4.510 0.999996 -81.15 0.999996 -81.15 0.001112 22.395
8.86520000 0.001114 -4.521 0.999996 -81.15 0.999996 -81.15 0.001115 22.400
8.86540000 0.001118 -4.531 0.999996 -81.16 0.999996 -81.16 0.001119 22.406
8.86560000 0.001122 -4.542 0.999996 -81.16 0.999996 -81.16 0.001123 22.411
8.86580000 0.001126 -4.553 0.999996 -81.16 0.999996 -81.16 0.001127 22.417
8.86600000 0.001130 -4.563 0.999996 -81.16 0.999996 -81.16 0.001131 22.422
8.86620000 0.001134 -4.574 0.999996 -81.16 0.999996 -81.16 0.001135 22.428
8.86640000 0.001138 -4.585 0.999996 -81.17 0.999996 -81.17 0.001139 22.433
8.86660000 0.001142 -4.596 0.999996 -81.17 0.999996 -81.17 0.001144 22.439
8.86680000 0.001147 -4.607 0.999996 -81.17 0.999996 -81.17 0.001148 22.444
8.86700000 0.001151 -4.617 0.999996 -81.17 0.999996 -81.17 0.001152 22.450
8.86720000 0.001155 -4.628 0.999996 -81.17 0.999996 -81.17 0.001156 22.456
8.86740000 0.001159 -4.639 0.999996 -81.18 0.999996 -81.18 0.001161 22.461
8.86760000 0.001164 -4.650 0.999996 -81.18 0.999996 -81.18 0.001165 22.467
8.86780000 0.001168 -4.661 0.999996 -81.18 0.999996 -81.18 0.001169 22.473
8.86800000 0.001173 -4.672 0.999996 -81.18 0.999996 -81.18 0.001174 22.478
8.86820000 0.001177 -4.683 0.999996 -81.18 0.999996 -81.18 0.001178 22.484
8.86840000 0.001182 -4.694 0.999996 -81.19 0.999996 -81.19 0.001183 22.490
8.86860000 0.001186 -4.705 0.999996 -81.19 0.999996 -81.19 0.001187 22.496
8.86880000 0.001191 -4.717 0.999996 -81.19 0.999996 -81.19 0.001192 22.501
8.86900000 0.001196 -4.728 0.999996 -81.19 0.999996 -81.19 0.001197 22.507
8.86920000 0.001200 -4.739 0.999995 -81.19 0.999995 -81.19 0.001202 22.513
8.86940000 0.001205 -4.750 0.999995 -81.20 0.999995 -81.20 0.001206 22.519
8.86960000 0.001210 -4.761 0.999995 -81.20 0.999995 -81.20 0.001211 22.525
8.86980000 0.001215 -4.773 0.999995 -81.20 0.999995 -81.20 0.001216 22.531
8.87000000 0.001220 -4.784 0.999995 -81.20 0.999995 -81.20 0.001221 22.537
8.87020000 0.001225 -4.795 0.999995 -81.21 0.999995 -81.21 0.001226 22.543
8.87040000 0.001230 -4.807 0.999995 -81.21 0.999995 -81.21 0.001231 22.548
8.87060000 0.001235 -4.818 0.999995 -81.21 0.999995 -81.21 0.001236 22.554
8.87080000 0.001241 -4.830 0.999995 -81.21 0.999995 -81.21 0.001242 22.560
8.87100000 0.001246 -4.841 0.999995 -81.21 0.999995 -81.21 0.001247 22.566
8.87120000 0.001251 -4.853 0.999995 -81.22 0.999995 -81.22 0.001252 22.572
8.87140000 0.001257 -4.864 0.999995 -81.22 0.999995 -81.22 0.001258 22.578
8.87160000 0.001262 -4.876 0.999995 -81.22 0.999995 -81.22 0.001263 22.585
8.87180000 0.001268 -4.888 0.999995 -81.22 0.999995 -81.22 0.001269 22.591
8.87200000 0.001273 -4.899 0.999995 -81.22 0.999995 -81.22 0.001274 22.597
8.87220000 0.001279 -4.911 0.999995 -81.23 0.999995 -81.23 0.001280 22.603
8.87240000 0.001285 -4.923 0.999995 -81.23 0.999995 -81.23 0.001286 22.609
8.87260000 0.001290 -4.934 0.999995 -81.23 0.999995 -81.23 0.001292 22.615
8.87280000 0.001296 -4.946 0.999995 -81.23 0.999995 -81.23 0.001297 22.621
8.87300000 0.001302 -4.958 0.999995 -81.24 0.999995 -81.24 0.001303 22.627
8.87320000 0.001308 -4.970 0.999995 -81.24 0.999995 -81.24 0.001309 22.634
8.87340000 0.001314 -4.982 0.999995 -81.24 0.999995 -81.24 0.001316 22.640
8.87360000 0.001321 -4.994 0.999995 -81.24 0.999995 -81.24 0.001322 22.646
8.87380000 0.001327 -5.006 0.999995 -81.24 0.999995 -81.24 0.001328 22.652
8.87400000 0.001333 -5.018 0.999995 -81.25 0.999995 -81.25 0.001334 22.659
8.87420000 0.001340 -5.030 0.999995 -81.25 0.999995 -81.25 0.001341 22.665
8.87440000 0.001346 -5.042 0.999995 -81.25 0.999995 -81.25 0.001347 22.671
8.87460000 0.001353 -5.054 0.999995 -81.25 0.999995 -81.25 0.001354 22.678
8.87480000 0.001359 -5.066 0.999995 -81.25 0.999995 -81.25 0.001361 22.684
8.87500000 0.001366 -5.079 0.999995 -81.26 0.999995 -81.26 0.001367 22.690
8.87510092 0.001370 -5.085 0.999995 -81.26 0.999995 -81.26 0.001371 22.694
8.87520000 0.001373 -5.091 0.999995 -81.26 0.999995 -81.26 0.001374 22.697
8.87540000 0.001380 -5.103 0.999995 -81.26 0.999995 -81.26 0.001381 22.703
8.87560000 0.001387 -5.116 0.999995 -81.26 0.999995 -81.26 0.001388 22.710
8.87578578 0.001394 -5.127 0.999995 -81.27 0.999995 -81.27 0.001395 22.716
8.87580000 0.001394 -5.128 0.999995 -81.27 0.999995 -81.27 0.001395 22.716
8.87600000 0.001401 -5.140 0.999995 -81.27 0.999995 -81.27 0.001403 22.723
8.87620000 0.001409 -5.153 0.999995 -81.27 0.999995 -81.27 0.001410 22.729
8.87640000 0.001416 -5.165 0.999995 -81.27 0.999995 -81.27 0.001417 22.736
8.87645495 0.001418 -5.169 0.999995 -81.27 0.999995 -81.27 0.001419 22.738
8.87660000 0.001424 -5.178 0.999995 -81.28 0.999995 -81.28 0.001425 22.742
8.87680000 0.001431 -5.191 0.999995 -81.28 0.999995 -81.28 0.001433 22.749
8.87700000 0.001439 -5.203 0.999995 -81.28 0.999995 -81.28 0.001440 22.755
8.87710878 0.001444 -5.210 0.999995 -81.28 0.999995 -81.28 0.001445 22.759
8.87720000 0.001447 -5.216 0.999995 -81.28 0.999995 -81.28 0.001448 22.762
8.87740000 0.001455 -5.229 0.999995 -81.28 0.999995 -81.28 0.001456 22.769
8.87760000 0.001463 -5.241 0.999995 -81.29 0.999995 -81.29 0.001464 22.775