! Sonnet Data File
! From: emgraph Version : 16.52
! From Project: Resonator2_cp
! Data is De-embedded 
! Data File Written: 10/09/2017 00:47:18
!< HDATE 10/08/2017 10:09:33
!< MDATE 10/08/2017 10:09:33
!< PARAMS
!< Length = 400.0
!< Pwid1 = 2000.0
!< Pwid2 = 2000.0
!< Air_gap = 6.0
!< Width = 10.0
!< gap = 26.0
!< END PARAMS
# GHZ S MA R 51.00000
8.90000000 0.015260 8.8542 0.999880 -81.46 0.999880 -81.46 0.015260 8.2510
!< P1 F=8.9 Eeff=(6.44673582 -2.972e-5) Z0=(51.7989596 1.19519e-4) R=0.0 C=0.0 
!< P2 F=8.9 Eeff=(6.44673582 -2.972e-5) Z0=(51.7989596 1.19519e-4) R=0.0 C=0.0 
8.90010000 0.015260 8.8542 0.999880 -81.46 0.999880 -81.46 0.015260 8.2490
8.90020000 0.015259 8.8541 0.999880 -81.46 0.999880 -81.46 0.015259 8.2472
8.90030000 0.015258 8.8541 0.999880 -81.46 0.999880 -81.46 0.015258 8.2453
8.90040000 0.015257 8.8541 0.999880 -81.46 0.999880 -81.46 0.015257 8.2433
8.90050000 0.015257 8.8541 0.999880 -81.46 0.999880 -81.46 0.015256 8.2414
8.90060000 0.015256 8.8541 0.999880 -81.46 0.999880 -81.46 0.015256 8.2395
8.90070000 0.015255 8.8541 0.999880 -81.46 0.999880 -81.46 0.015255 8.2376
8.90080000 0.015254 8.8541 0.999880 -81.46 0.999880 -81.46 0.015254 8.2357
8.90090000 0.015253 8.8541 0.999880 -81.47 0.999880 -81.47 0.015253 8.2338
8.90100000 0.015253 8.8541 0.999880 -81.47 0.999880 -81.47 0.015252 8.2318
8.90110000 0.015252 8.8541 0.999880 -81.47 0.999880 -81.47 0.015252 8.2299
8.90120000 0.015251 8.8541 0.999880 -81.47 0.999880 -81.47 0.015251 8.2280
8.90130000 0.015250 8.8541 0.999880 -81.47 0.999880 -81.47 0.015250 8.2260
8.90140000 0.015249 8.8541 0.999880 -81.47 0.999880 -81.47 0.015249 8.2241
8.90150000 0.015248 8.8542 0.999880 -81.47 0.999880 -81.47 0.015248 8.2222
8.90160000 0.015248 8.8542 0.999880 -81.47 0.999880 -81.47 0.015248 8.2202
8.90170000 0.015247 8.8542 0.999880 -81.47 0.999880 -81.47 0.015247 8.2183
8.90180000 0.015246 8.8543 0.999880 -81.47 0.999880 -81.47 0.015246 8.2163
8.90190000 0.015245 8.8543 0.999880 -81.47 0.999880 -81.47 0.015245 8.2143
8.90200000 0.015244 8.8543 0.999880 -81.48 0.999880 -81.48 0.015244 8.2124
8.90210000 0.015244 8.8544 0.999880 -81.48 0.999880 -81.48 0.015243 8.2104
8.90220000 0.015243 8.8544 0.999880 -81.48 0.999880 -81.48 0.015243 8.2084
8.90230000 0.015242 8.8545 0.999880 -81.48 0.999880 -81.48 0.015242 8.2065
8.90240000 0.015241 8.8545 0.999880 -81.48 0.999880 -81.48 0.015241 8.2045
8.90250000 0.015240 8.8546 0.999880 -81.48 0.999880 -81.48 0.015240 8.2025
8.90260000 0.015239 8.8546 0.999880 -81.48 0.999880 -81.48 0.015239 8.2005
8.90270000 0.015238 8.8547 0.999880 -81.48 0.999880 -81.48 0.015238 8.1985
8.90280000 0.015238 8.8548 0.999880 -81.48 0.999880 -81.48 0.015237 8.1965
8.90290000 0.015237 8.8548 0.999880 -81.48 0.999880 -81.48 0.015237 8.1945
8.90300000 0.015236 8.8549 0.999880 -81.49 0.999880 -81.49 0.015236 8.1925
8.90310000 0.015235 8.8550 0.999880 -81.49 0.999880 -81.49 0.015235 8.1905
8.90320000 0.015234 8.8551 0.999880 -81.49 0.999880 -81.49 0.015234 8.1885
8.90330000 0.015233 8.8552 0.999881 -81.49 0.999881 -81.49 0.015233 8.1865
8.90340000 0.015232 8.8553 0.999881 -81.49 0.999881 -81.49 0.015232 8.1845
8.90350000 0.015232 8.8554 0.999881 -81.49 0.999881 -81.49 0.015231 8.1824
8.90360000 0.015231 8.8555 0.999881 -81.49 0.999881 -81.49 0.015231 8.1804
8.90370000 0.015230 8.8556 0.999881 -81.49 0.999881 -81.49 0.015230 8.1784
8.90380000 0.015229 8.8557 0.999881 -81.49 0.999881 -81.49 0.015229 8.1763
8.90390000 0.015228 8.8558 0.999881 -81.49 0.999881 -81.49 0.015228 8.1743
8.90400000 0.015227 8.8559 0.999881 -81.50 0.999881 -81.50 0.015227 8.1723
8.90410000 0.015226 8.8560 0.999881 -81.50 0.999881 -81.50 0.015226 8.1702
8.90420000 0.015225 8.8561 0.999881 -81.50 0.999881 -81.50 0.015225 8.1682
8.90430000 0.015224 8.8562 0.999881 -81.50 0.999881 -81.50 0.015224 8.1661
8.90440000 0.015224 8.8564 0.999881 -81.50 0.999881 -81.50 0.015223 8.1640
8.90450000 0.015223 8.8565 0.999881 -81.50 0.999881 -81.50 0.015222 8.1620
8.90460000 0.015222 8.8567 0.999881 -81.50 0.999881 -81.50 0.015222 8.1599
8.90470000 0.015221 8.8568 0.999881 -81.50 0.999881 -81.50 0.015221 8.1578
8.90480000 0.015220 8.8569 0.999881 -81.50 0.999881 -81.50 0.015220 8.1557
8.90490000 0.015219 8.8571 0.999881 -81.50 0.999881 -81.50 0.015219 8.1537
8.90500000 0.015218 8.8572 0.999881 -81.50 0.999881 -81.50 0.015218 8.1516
8.90510000 0.015217 8.8574 0.999881 -81.51 0.999881 -81.51 0.015217 8.1495
8.90520000 0.015216 8.8576 0.999881 -81.51 0.999881 -81.51 0.015216 8.1474
8.90530000 0.015215 8.8577 0.999881 -81.51 0.999881 -81.51 0.015215 8.1453
8.90540000 0.015214 8.8579 0.999881 -81.51 0.999881 -81.51 0.015214 8.1432
8.90550000 0.015213 8.8581 0.999881 -81.51 0.999881 -81.51 0.015213 8.1410
8.90560000 0.015212 8.8583 0.999881 -81.51 0.999881 -81.51 0.015212 8.1389
8.90570000 0.015211 8.8584 0.999881 -81.51 0.999881 -81.51 0.015211 8.1368
8.90580000 0.015210 8.8586 0.999881 -81.51 0.999881 -81.51 0.015210 8.1347
8.90590000 0.015210 8.8588 0.999881 -81.51 0.999881 -81.51 0.015209 8.1325
8.90600000 0.015209 8.8590 0.999881 -81.51 0.999881 -81.51 0.015208 8.1304
8.90610000 0.015208 8.8592 0.999881 -81.52 0.999881 -81.52 0.015207 8.1283
8.90620000 0.015207 8.8594 0.999881 -81.52 0.999881 -81.52 0.015206 8.1261
8.90630000 0.015206 8.8596 0.999881 -81.52 0.999881 -81.52 0.015205 8.1240
8.90640000 0.015205 8.8598 0.999881 -81.52 0.999881 -81.52 0.015205 8.1218
8.90650000 0.015204 8.8601 0.999881 -81.52 0.999881 -81.52 0.015204 8.1197
8.90660000 0.015203 8.8603 0.999881 -81.52 0.999881 -81.52 0.015203 8.1175
8.90670000 0.015202 8.8605 0.999881 -81.52 0.999881 -81.52 0.015202 8.1153
8.90680000 0.015201 8.8608 0.999881 -81.52 0.999881 -81.52 0.015201 8.1131
8.90690000 0.015200 8.8610 0.999881 -81.52 0.999881 -81.52 0.015200 8.1110
8.90700000 0.015199 8.8612 0.999881 -81.52 0.999881 -81.52 0.015199 8.1088
8.90710000 0.015198 8.8615 0.999881 -81.53 0.999881 -81.53 0.015198 8.1066
8.90720000 0.015197 8.8617 0.999881 -81.53 0.999881 -81.53 0.015197 8.1044
8.90730000 0.015196 8.8620 0.999881 -81.53 0.999881 -81.53 0.015196 8.1022
8.90740000 0.015195 8.8622 0.999881 -81.53 0.999881 -81.53 0.015195 8.1000
8.90750000 0.015194 8.8625 0.999881 -81.53 0.999881 -81.53 0.015194 8.0978
8.90760000 0.015193 8.8628 0.999881 -81.53 0.999881 -81.53 0.015192 8.0956
8.90770000 0.015192 8.8631 0.999881 -81.53 0.999881 -81.53 0.015191 8.0933
8.90780000 0.015191 8.8633 0.999881 -81.53 0.999881 -81.53 0.015190 8.0911
8.90790000 0.015190 8.8636 0.999881 -81.53 0.999881 -81.53 0.015189 8.0889
8.90800000 0.015189 8.8639 0.999881 -81.53 0.999881 -81.53 0.015188 8.0866
8.90810000 0.015187 8.8642 0.999881 -81.54 0.999881 -81.54 0.015187 8.0844
8.90820000 0.015186 8.8645 0.999881 -81.54 0.999881 -81.54 0.015186 8.0821
8.90830000 0.015185 8.8648 0.999881 -81.54 0.999881 -81.54 0.015185 8.0799
8.90840000 0.015184 8.8651 0.999881 -81.54 0.999881 -81.54 0.015184 8.0776
8.90850000 0.015183 8.8654 0.999881 -81.54 0.999881 -81.54 0.015183 8.0754
8.90860000 0.015182 8.8658 0.999881 -81.54 0.999881 -81.54 0.015182 8.0731
8.90870000 0.015181 8.8661 0.999881 -81.54 0.999881 -81.54 0.015181 8.0708
8.90880000 0.015180 8.8664 0.999881 -81.54 0.999881 -81.54 0.015180 8.0685
8.90890000 0.015179 8.8668 0.999881 -81.54 0.999881 -81.54 0.015179 8.0662
8.90900000 0.015178 8.8671 0.999881 -81.54 0.999881 -81.54 0.015178 8.0640
8.90910000 0.015177 8.8674 0.999881 -81.54 0.999881 -81.54 0.015177 8.0617
8.90920000 0.015176 8.8678 0.999881 -81.55 0.999881 -81.55 0.015176 8.0593
8.90930000 0.015175 8.8682 0.999881 -81.55 0.999881 -81.55 0.015174 8.0570
8.90940000 0.015173 8.8685 0.999881 -81.55 0.999881 -81.55 0.015173 8.0547
8.90950000 0.015172 8.8689 0.999881 -81.55 0.999881 -81.55 0.015172 8.0524
8.90960000 0.015171 8.8693 0.999881 -81.55 0.999881 -81.55 0.015171 8.0501
8.90970000 0.015170 8.8696 0.999881 -81.55 0.999881 -81.55 0.015170 8.0477
8.90980000 0.015169 8.8700 0.999881 -81.55 0.999881 -81.55 0.015169 8.0454
8.90990000 0.015168 8.8704 0.999881 -81.55 0.999881 -81.55 0.015168 8.0430
8.91000000 0.015167 8.8708 0.999881 -81.55 0.999881 -81.55 0.015167 8.0407
8.91010000 0.015166 8.8712 0.999881 -81.55 0.999881 -81.55 0.015165 8.0383
8.91020000 0.015165 8.8716 0.999881 -81.56 0.999881 -81.56 0.015164 8.0360
8.91030000 0.015163 8.8720 0.999882 -81.56 0.999882 -81.56 0.015163 8.0336
8.91040000 0.015162 8.8724 0.999882 -81.56 0.999882 -81.56 0.015162 8.0312
8.91050000 0.015161 8.8729 0.999882 -81.56 0.999882 -81.56 0.015161 8.0288
8.91060000 0.015160 8.8733 0.999882 -81.56 0.999882 -81.56 0.015160 8.0264
8.91070000 0.015159 8.8737 0.999882 -81.56 0.999882 -81.56 0.015159 8.0240
8.91080000 0.015158 8.8742 0.999882 -81.56 0.999882 -81.56 0.015157 8.0216
8.91090000 0.015156 8.8746 0.999882 -81.56 0.999882 -81.56 0.015156 8.0192
8.91100000 0.015155 8.8751 0.999882 -81.56 0.999882 -81.56 0.015155 8.0168
8.91110000 0.015154 8.8755 0.999882 -81.56 0.999882 -81.56 0.015154 8.0144
8.91120000 0.015153 8.8760 0.999882 -81.57 0.999882 -81.57 0.015153 8.0119
8.91130000 0.015152 8.8765 0.999882 -81.57 0.999882 -81.57 0.015151 8.0095
8.91140000 0.015150 8.8770 0.999882 -81.57 0.999882 -81.57 0.015150 8.0071
8.91150000 0.015149 8.8774 0.999882 -81.57 0.999882 -81.57 0.015149 8.0046
8.91160000 0.015148 8.8779 0.999882 -81.57 0.999882 -81.57 0.015148 8.0022
8.91170000 0.015147 8.8784 0.999882 -81.57 0.999882 -81.57 0.015147 7.9997
8.91180000 0.015146 8.8789 0.999882 -81.57 0.999882 -81.57 0.015145 7.9972
8.91190000 0.015144 8.8794 0.999882 -81.57 0.999882 -81.57 0.015144 7.9947
8.91200000 0.015143 8.8800 0.999882 -81.57 0.999882 -81.57 0.015143 7.9923
8.91210000 0.015142 8.8805 0.999882 -81.57 0.999882 -81.57 0.015142 7.9898
8.91220000 0.015141 8.8810 0.999882 -81.58 0.999882 -81.58 0.015141 7.9873
8.91230000 0.015139 8.8816 0.999882 -81.58 0.999882 -81.58 0.015139 7.9848
8.91240000 0.015138 8.8821 0.999882 -81.58 0.999882 -81.58 0.015138 7.9822
8.91250000 0.015137 8.8826 0.999882 -81.58 0.999882 -81.58 0.015137 7.9797
8.91260000 0.015136 8.8832 0.999882 -81.58 0.999882 -81.58 0.015136 7.9772
8.91270000 0.015134 8.8838 0.999882 -81.58 0.999882 -81.58 0.015134 7.9747
8.91280000 0.015133 8.8843 0.999882 -81.58 0.999882 -81.58 0.015133 7.9721
8.91290000 0.015132 8.8849 0.999882 -81.58 0.999882 -81.58 0.015132 7.9696
8.91300000 0.015131 8.8855 0.999882 -81.58 0.999882 -81.58 0.015130 7.9670
8.91310000 0.015129 8.8861 0.999882 -81.58 0.999882 -81.58 0.015129 7.9644
8.91320000 0.015128 8.8867 0.999882 -81.59 0.999882 -81.59 0.015128 7.9619
8.91330000 0.015127 8.8873 0.999882 -81.59 0.999882 -81.59 0.015127 7.9593
8.91340000 0.015125 8.8879 0.999882 -81.59 0.999882 -81.59 0.015125 7.9567
8.91350000 0.015124 8.8885 0.999882 -81.59 0.999882 -81.59 0.015124 7.9541
8.91360000 0.015123 8.8891 0.999882 -81.59 0.999882 -81.59 0.015123 7.9515
8.91370000 0.015121 8.8898 0.999882 -81.59 0.999882 -81.59 0.015121 7.9489
8.91380000 0.015120 8.8904 0.999882 -81.59 0.999882 -81.59 0.015120 7.9463
8.91390000 0.015119 8.8910 0.999882 -81.59 0.999882 -81.59 0.015119 7.9436
8.91400000 0.015117 8.8917 0.999882 -81.59 0.999882 -81.59 0.015117 7.9410
8.91410000 0.015116 8.8924 0.999882 -81.59 0.999882 -81.59 0.015116 7.9384
8.91420000 0.015115 8.8930 0.999882 -81.60 0.999882 -81.60 0.015115 7.9357
8.91430000 0.015113 8.8937 0.999882 -81.60 0.999882 -81.60 0.015113 7.9331
8.91440000 0.015112 8.8944 0.999882 -81.60 0.999882 -81.60 0.015112 7.9304
8.91450000 0.015111 8.8951 0.999882 -81.60 0.999882 -81.60 0.015110 7.9277
8.91460000 0.015109 8.8958 0.999882 -81.60 0.999882 -81.60 0.015109 7.9250
8.91470000 0.015108 8.8965 0.999882 -81.60 0.999882 -81.60 0.015108 7.9223
8.91480000 0.015107 8.8972 0.999882 -81.60 0.999882 -81.60 0.015106 7.9196
8.91490000 0.015105 8.8979 0.999882 -81.60 0.999882 -81.60 0.015105 7.9169
8.91500000 0.015104 8.8986 0.999882 -81.60 0.999882 -81.60 0.015103 7.9142
8.91510000 0.015102 8.8994 0.999882 -81.60 0.999882 -81.60 0.015102 7.9115
8.91520000 0.015101 8.9001 0.999882 -81.61 0.999882 -81.61 0.015101 7.9087
8.91530000 0.015099 8.9009 0.999882 -81.61 0.999882 -81.61 0.015099 7.9060
8.91540000 0.015098 8.9016 0.999882 -81.61 0.999882 -81.61 0.015098 7.9033
8.91550000 0.015097 8.9024 0.999882 -81.61 0.999882 -81.61 0.015096 7.9005
8.91560000 0.015095 8.9032 0.999882 -81.61 0.999882 -81.61 0.015095 7.8977
8.91570000 0.015094 8.9040 0.999882 -81.61 0.999882 -81.61 0.015093 7.8949
8.91580000 0.015092 8.9048 0.999883 -81.61 0.999883 -81.61 0.015092 7.8922
8.91590000 0.015091 8.9056 0.999883 -81.61 0.999883 -81.61 0.015091 7.8894
8.91600000 0.015089 8.9064 0.999883 -81.61 0.999883 -81.61 0.015089 7.8865
8.91610000 0.015088 8.9072 0.999883 -81.61 0.999883 -81.61 0.015088 7.8837
8.91620000 0.015086 8.9080 0.999883 -81.62 0.999883 -81.62 0.015086 7.8809
8.91630000 0.015085 8.9089 0.999883 -81.62 0.999883 -81.62 0.015085 7.8781
8.91640000 0.015083 8.9097 0.999883 -81.62 0.999883 -81.62 0.015083 7.8752
8.91650000 0.015082 8.9106 0.999883 -81.62 0.999883 -81.62 0.015082 7.8724
8.91660000 0.015080 8.9114 0.999883 -81.62 0.999883 -81.62 0.015080 7.8695
8.91670000 0.015079 8.9123 0.999883 -81.62 0.999883 -81.62 0.015079 7.8666
8.91680000 0.015077 8.9132 0.999883 -81.62 0.999883 -81.62 0.015077 7.8637
8.91690000 0.015076 8.9141 0.999883 -81.62 0.999883 -81.62 0.015076 7.8609
8.91700000 0.015074 8.9150 0.999883 -81.62 0.999883 -81.62 0.015074 7.8580
8.91710000 0.015073 8.9159 0.999883 -81.62 0.999883 -81.62 0.015072 7.8550
8.91720000 0.015071 8.9168 0.999883 -81.63 0.999883 -81.63 0.015071 7.8521
8.91730000 0.015070 8.9177 0.999883 -81.63 0.999883 -81.63 0.015069 7.8492
8.91740000 0.015068 8.9187 0.999883 -81.63 0.999883 -81.63 0.015068 7.8462
8.91750000 0.015066 8.9196 0.999883 -81.63 0.999883 -81.63 0.015066 7.8433
8.91760000 0.015065 8.9206 0.999883 -81.63 0.999883 -81.63 0.015065 7.8403
8.91770000 0.015063 8.9215 0.999883 -81.63 0.999883 -81.63 0.015063 7.8373
8.91780000 0.015062 8.9225 0.999883 -81.63 0.999883 -81.63 0.015061 7.8344
8.91790000 0.015060 8.9235 0.999883 -81.63 0.999883 -81.63 0.015060 7.8314
8.91800000 0.015058 8.9245 0.999883 -81.63 0.999883 -81.63 0.015058 7.8284
8.91810000 0.015057 8.9255 0.999883 -81.63 0.999883 -81.63 0.015056 7.8253
8.91820000 0.015055 8.9265 0.999883 -81.64 0.999883 -81.64 0.015055 7.8223
8.91830000 0.015053 8.9275 0.999883 -81.64 0.999883 -81.64 0.015053 7.8193
8.91840000 0.015052 8.9286 0.999883 -81.64 0.999883 -81.64 0.015052 7.8162
8.91850000 0.015050 8.9296 0.999883 -81.64 0.999883 -81.64 0.015050 7.8132
8.91860000 0.015048 8.9307 0.999883 -81.64 0.999883 -81.64 0.015048 7.8101
8.91870000 0.015047 8.9317 0.999883 -81.64 0.999883 -81.64 0.015047 7.8070
8.91880000 0.015045 8.9328 0.999883 -81.64 0.999883 -81.64 0.015045 7.8039
8.91890000 0.015043 8.9339 0.999883 -81.64 0.999883 -81.64 0.015043 7.8008
8.91900000 0.015042 8.9350 0.999883 -81.64 0.999883 -81.64 0.015041 7.7977
8.91910000 0.015040 8.9361 0.999883 -81.64 0.999883 -81.64 0.015040 7.7946
8.91920000 0.015038 8.9372 0.999883 -81.65 0.999883 -81.65 0.015038 7.7914
8.91930000 0.015037 8.9384 0.999883 -81.65 0.999883 -81.65 0.015036 7.7883
8.91940000 0.015035 8.9395 0.999883 -81.65 0.999883 -81.65 0.015035 7.7851
8.91950000 0.015033 8.9407 0.999883 -81.65 0.999883 -81.65 0.015033 7.7819
8.91960000 0.015031 8.9418 0.999883 -81.65 0.999883 -81.65 0.015031 7.7787
8.91970000 0.015030 8.9430 0.999883 -81.65 0.999883 -81.65 0.015029 7.7755
8.91980000 0.015028 8.9442 0.999883 -81.65 0.999883 -81.65 0.015027 7.7723
8.91990000 0.015026 8.9454 0.999883 -81.65 0.999883 -81.65 0.015026 7.7691
8.92000000 0.015024 8.9466 0.999883 -81.65 0.999883 -81.65 0.015024 7.7658
8.92010000 0.015022 8.9478 0.999883 -81.65 0.999883 -81.65 0.015022 7.7626
8.92020000 0.015021 8.9490 0.999884 -81.66 0.999884 -81.66 0.015020 7.7593
8.92030000 0.015019 8.9503 0.999884 -81.66 0.999884 -81.66 0.015018 7.7560
8.92040000 0.015017 8.9515 0.999884 -81.66 0.999884 -81.66 0.015017 7.7528
8.92050000 0.015015 8.9528 0.999884 -81.66 0.999884 -81.66 0.015015 7.7495
8.92060000 0.015013 8.9541 0.999884 -81.66 0.999884 -81.66 0.015013 7.7461
8.92070000 0.015011 8.9554 0.999884 -81.66 0.999884 -81.66 0.015011 7.7428
8.92080000 0.015009 8.9567 0.999884 -81.66 0.999884 -81.66 0.015009 7.7395
8.92090000 0.015008 8.9580 0.999884 -81.66 0.999884 -81.66 0.015007 7.7361
8.92100000 0.015006 8.9593 0.999884 -81.66 0.999884 -81.66 0.015005 7.7327
8.92110000 0.015004 8.9607 0.999884 -81.67 0.999884 -81.67 0.015003 7.7294
8.92120000 0.015002 8.9620 0.999884 -81.67 0.999884 -81.67 0.015002 7.7260
8.92130000 0.015000 8.9634 0.999884 -81.67 0.999884 -81.67 0.015000 7.7225
8.92140000 0.014998 8.9648 0.999884 -81.67 0.999884 -81.67 0.014998 7.7191
8.92150000 0.014996 8.9662 0.999884 -81.67 0.999884 -81.67 0.014996 7.7157
8.92160000 0.014994 8.9676 0.999884 -81.67 0.999884 -81.67 0.014994 7.7122
8.92170000 0.014992 8.9690 0.999884 -81.67 0.999884 -81.67 0.014992 7.7088
8.92180000 0.014990 8.9704 0.999884 -81.67 0.999884 -81.67 0.014990 7.7053
8.92190000 0.014988 8.9719 0.999884 -81.67 0.999884 -81.67 0.014988 7.7018
8.92200000 0.014986 8.9733 0.999884 -81.67 0.999884 -81.67 0.014986 7.6983
8.92210000 0.014984 8.9748 0.999884 -81.68 0.999884 -81.68 0.014984 7.6947
8.92220000 0.014982 8.9763 0.999884 -81.68 0.999884 -81.68 0.014982 7.6912
8.92230000 0.014980 8.9778 0.999884 -81.68 0.999884 -81.68 0.014980 7.6876
8.92240000 0.014978 8.9793 0.999884 -81.68 0.999884 -81.68 0.014978 7.6841
8.92250000 0.014976 8.9808 0.999884 -81.68 0.999884 -81.68 0.014976 7.6805
8.92260000 0.014974 8.9824 0.999884 -81.68 0.999884 -81.68 0.014974 7.6769
8.92270000 0.014972 8.9839 0.999884 -81.68 0.999884 -81.68 0.014972 7.6732
8.92280000 0.014970 8.9855 0.999884 -81.68 0.999884 -81.68 0.014969 7.6696
8.92290000 0.014968 8.9871 0.999884 -81.68 0.999884 -81.68 0.014967 7.6660
8.92300000 0.014966 8.9887 0.999884 -81.68 0.999884 -81.68 0.014965 7.6623
8.92310000 0.014963 8.9903 0.999884 -81.69 0.999884 -81.69 0.014963 7.6586
8.92320000 0.014961 8.9920 0.999884 -81.69 0.999884 -81.69 0.014961 7.6549
8.92330000 0.014959 8.9936 0.999884 -81.69 0.999884 -81.69 0.014959 7.6512
8.92340000 0.014957 8.9953 0.999884 -81.69 0.999884 -81.69 0.014957 7.6475
8.92350000 0.014955 8.9969 0.999884 -81.69 0.999884 -81.69 0.014955 7.6437
8.92360000 0.014953 8.9986 0.999884 -81.69 0.999884 -81.69 0.014952 7.6399
8.92370000 0.014950 9.0003 0.999884 -81.69 0.999884 -81.69 0.014950 7.6362
8.92380000 0.014948 9.0021 0.999885 -81.69 0.999885 -81.69 0.014948 7.6323
8.92390000 0.014946 9.0038 0.999885 -81.69 0.999885 -81.69 0.014946 7.6285
8.92400000 0.014944 9.0056 0.999885 -81.70 0.999885 -81.70 0.014943 7.6247
8.92410000 0.014942 9.0074 0.999885 -81.70 0.999885 -81.70 0.014941 7.6208
8.92420000 0.014939 9.0091 0.999885 -81.70 0.999885 -81.70 0.014939 7.6170
8.92430000 0.014937 9.0110 0.999885 -81.70 0.999885 -81.70 0.014937 7.6131
8.92440000 0.014935 9.0128 0.999885 -81.70 0.999885 -81.70 0.014934 7.6092
8.92450000 0.014932 9.0146 0.999885 -81.70 0.999885 -81.70 0.014932 7.6052
8.92460000 0.014930 9.0165 0.999885 -81.70 0.999885 -81.70 0.014930 7.6013
8.92470000 0.014928 9.0184 0.999885 -81.70 0.999885 -81.70 0.014927 7.5973
8.92480000 0.014925 9.0203 0.999885 -81.70 0.999885 -81.70 0.014925 7.5933
8.92490000 0.014923 9.0222 0.999885 -81.70 0.999885 -81.70 0.014923 7.5893
8.92500000 0.014921 9.0241 0.999885 -81.71 0.999885 -81.71 0.014920 7.5853
8.92510000 0.014918 9.0260 0.999885 -81.71 0.999885 -81.71 0.014918 7.5813
8.92520000 0.014916 9.0280 0.999885 -81.71 0.999885 -81.71 0.014916 7.5772
8.92530000 0.014914 9.0300 0.999885 -81.71 0.999885 -81.71 0.014913 7.5731
8.92540000 0.014911 9.0320 0.999885 -81.71 0.999885 -81.71 0.014911 7.5690
8.92550000 0.014909 9.0340 0.999885 -81.71 0.999885 -81.71 0.014908 7.5649
8.92560000 0.014906 9.0361 0.999885 -81.71 0.999885 -81.71 0.014906 7.5608
8.92570000 0.014904 9.0381 0.999885 -81.71 0.999885 -81.71 0.014903 7.5566
8.92580000 0.014901 9.0402 0.999885 -81.71 0.999885 -81.71 0.014901 7.5524
8.92590000 0.014899 9.0423 0.999885 -81.72 0.999885 -81.72 0.014898 7.5482
8.92600000 0.014896 9.0444 0.999885 -81.72 0.999885 -81.72 0.014896 7.5440
8.92610000 0.014894 9.0466 0.999885 -81.72 0.999885 -81.72 0.014893 7.5397
8.92620000 0.014891 9.0487 0.999885 -81.72 0.999885 -81.72 0.014891 7.5355
8.92630000 0.014889 9.0509 0.999885 -81.72 0.999885 -81.72 0.014888 7.5312
8.92640000 0.014886 9.0531 0.999885 -81.72 0.999885 -81.72 0.014886 7.5269
8.92650000 0.014883 9.0553 0.999885 -81.72 0.999885 -81.72 0.014883 7.5225
8.92660000 0.014881 9.0576 0.999885 -81.72 0.999885 -81.72 0.014880 7.5182
8.92670000 0.014878 9.0598 0.999885 -81.72 0.999885 -81.72 0.014878 7.5138
8.92680000 0.014875 9.0621 0.999885 -81.73 0.999885 -81.73 0.014875 7.5094
8.92690000 0.014873 9.0644 0.999886 -81.73 0.999886 -81.73 0.014872 7.5050
8.92700000 0.014870 9.0667 0.999886 -81.73 0.999886 -81.73 0.014870 7.5005
8.92710000 0.014867 9.0691 0.999886 -81.73 0.999886 -81.73 0.014867 7.4960
8.92720000 0.014865 9.0714 0.999886 -81.73 0.999886 -81.73 0.014864 7.4915
8.92730000 0.014862 9.0738 0.999886 -81.73 0.999886 -81.73 0.014862 7.4870
8.92740000 0.014859 9.0762 0.999886 -81.73 0.999886 -81.73 0.014859 7.4825
8.92750000 0.014856 9.0787 0.999886 -81.73 0.999886 -81.73 0.014856 7.4779
8.92760000 0.014854 9.0811 0.999886 -81.73 0.999886 -81.73 0.014853 7.4733
8.92770000 0.014851 9.0836 0.999886 -81.73 0.999886 -81.73 0.014850 7.4687
8.92780000 0.014848 9.0861 0.999886 -81.74 0.999886 -81.74 0.014848 7.4640
8.92790000 0.014845 9.0887 0.999886 -81.74 0.999886 -81.74 0.014845 7.4594
8.92800000 0.014842 9.0912 0.999886 -81.74 0.999886 -81.74 0.014842 7.4547
8.92810000 0.014839 9.0938 0.999886 -81.74 0.999886 -81.74 0.014839 7.4499
8.92820000 0.014837 9.0964 0.999886 -81.74 0.999886 -81.74 0.014836 7.4452
8.92830000 0.014834 9.0990 0.999886 -81.74 0.999886 -81.74 0.014833 7.4404
8.92840000 0.014831 9.1017 0.999886 -81.74 0.999886 -81.74 0.014830 7.4356
8.92850000 0.014828 9.1044 0.999886 -81.74 0.999886 -81.74 0.014827 7.4308
8.92860000 0.014825 9.1071 0.999886 -81.74 0.999886 -81.74 0.014824 7.4259
8.92870000 0.014822 9.1098 0.999886 -81.75 0.999886 -81.75 0.014821 7.4210
8.92880000 0.014819 9.1126 0.999886 -81.75 0.999886 -81.75 0.014818 7.4161
8.92890000 0.014816 9.1153 0.999886 -81.75 0.999886 -81.75 0.014815 7.4112
8.92900000 0.014813 9.1181 0.999886 -81.75 0.999886 -81.75 0.014812 7.4062
8.92910000 0.014810 9.1210 0.999886 -81.75 0.999886 -81.75 0.014809 7.4012
8.92920000 0.014806 9.1238 0.999886 -81.75 0.999886 -81.75 0.014806 7.3962
8.92930000 0.014803 9.1267 0.999886 -81.75 0.999886 -81.75 0.014803 7.3911
8.92940000 0.014800 9.1297 0.999887 -81.75 0.999887 -81.75 0.014800 7.3860
8.92950000 0.014797 9.1326 0.999887 -81.75 0.999887 -81.75 0.014797 7.3809
8.92960000 0.014794 9.1356 0.999887 -81.76 0.999887 -81.76 0.014793 7.3757
8.92970000 0.014791 9.1386 0.999887 -81.76 0.999887 -81.76 0.014790 7.3706
8.92980000 0.014787 9.1416 0.999887 -81.76 0.999887 -81.76 0.014787 7.3653
8.92990000 0.014784 9.1447 0.999887 -81.76 0.999887 -81.76 0.014784 7.3601
8.93000000 0.014781 9.1478 0.999887 -81.76 0.999887 -81.76 0.014780 7.3548
8.93010000 0.014778 9.1509 0.999887 -81.76 0.999887 -81.76 0.014777 7.3495
8.93020000 0.014774 9.1540 0.999887 -81.76 0.999887 -81.76 0.014774 7.3442
8.93030000 0.014771 9.1572 0.999887 -81.76 0.999887 -81.76 0.014770 7.3388
8.93040000 0.014768 9.1604 0.999887 -81.76 0.999887 -81.76 0.014767 7.3334
8.93050000 0.014764 9.1637 0.999887 -81.77 0.999887 -81.77 0.014764 7.3279
8.93060000 0.014761 9.1670 0.999887 -81.77 0.999887 -81.77 0.014760 7.3224
8.93070000 0.014757 9.1703 0.999887 -81.77 0.999887 -81.77 0.014757 7.3169
8.93080000 0.014754 9.1736 0.999887 -81.77 0.999887 -81.77 0.014753 7.3114
8.93090000 0.014750 9.1770 0.999887 -81.77 0.999887 -81.77 0.014750 7.3058
8.93100000 0.014747 9.1804 0.999887 -81.77 0.999887 -81.77 0.014746 7.3002
8.93110000 0.014743 9.1838 0.999887 -81.77 0.999887 -81.77 0.014743 7.2945
8.93120000 0.014740 9.1873 0.999887 -81.77 0.999887 -81.77 0.014739 7.2888
8.93130000 0.014736 9.1908 0.999887 -81.77 0.999887 -81.77 0.014736 7.2831
8.93140000 0.014733 9.1944 0.999887 -81.78 0.999887 -81.78 0.014732 7.2773
8.93150000 0.014729 9.1980 0.999887 -81.78 0.999887 -81.78 0.014728 7.2715
8.93160000 0.014725 9.2016 0.999887 -81.78 0.999887 -81.78 0.014725 7.2657
8.93170000 0.014721 9.2052 0.999888 -81.78 0.999888 -81.78 0.014721 7.2598
8.93180000 0.014718 9.2089 0.999888 -81.78 0.999888 -81.78 0.014717 7.2539
8.93190000 0.014714 9.2126 0.999888 -81.78 0.999888 -81.78 0.014713 7.2479
8.93200000 0.014710 9.2164 0.999888 -81.78 0.999888 -81.78 0.014710 7.2419
8.93210000 0.014706 9.2202 0.999888 -81.78 0.999888 -81.78 0.014706 7.2359
8.93220000 0.014703 9.2241 0.999888 -81.79 0.999888 -81.79 0.014702 7.2298
8.93230000 0.014699 9.2279 0.999888 -81.79 0.999888 -81.79 0.014698 7.2237
8.93240000 0.014695 9.2319 0.999888 -81.79 0.999888 -81.79 0.014694 7.2175
8.93250000 0.014691 9.2358 0.999888 -81.79 0.999888 -81.79 0.014690 7.2113
8.93260000 0.014687 9.2398 0.999888 -81.79 0.999888 -81.79 0.014686 7.2050
8.93270000 0.014683 9.2439 0.999888 -81.79 0.999888 -81.79 0.014682 7.1987
8.93280000 0.014679 9.2479 0.999888 -81.79 0.999888 -81.79 0.014678 7.1924
8.93290000 0.014675 9.2521 0.999888 -81.79 0.999888 -81.79 0.014674 7.1860
8.93300000 0.014671 9.2562 0.999888 -81.79 0.999888 -81.79 0.014670 7.1796
8.93310000 0.014667 9.2604 0.999888 -81.80 0.999888 -81.80 0.014666 7.1731
8.93320000 0.014662 9.2647 0.999888 -81.80 0.999888 -81.80 0.014662 7.1665
8.93330000 0.014658 9.2690 0.999888 -81.80 0.999888 -81.80 0.014658 7.1600
8.93340000 0.014654 9.2733 0.999888 -81.80 0.999888 -81.80 0.014653 7.1533
8.93350000 0.014650 9.2777 0.999888 -81.80 0.999888 -81.80 0.014649 7.1467
8.93360000 0.014645 9.2821 0.999889 -81.80 0.999889 -81.80 0.014645 7.1400
8.93370000 0.014641 9.2866 0.999889 -81.80 0.999889 -81.80 0.014640 7.1332
8.93380000 0.014637 9.2911 0.999889 -81.80 0.999889 -81.80 0.014636 7.1264
8.93390000 0.014632 9.2957 0.999889 -81.80 0.999889 -81.80 0.014632 7.1195
8.93400000 0.014628 9.3003 0.999889 -81.81 0.999889 -81.81 0.014627 7.1126
8.93410000 0.014624 9.3050 0.999889 -81.81 0.999889 -81.81 0.014623 7.1056
8.93420000 0.014619 9.3097 0.999889 -81.81 0.999889 -81.81 0.014618 7.0986
8.93430000 0.014614 9.3145 0.999889 -81.81 0.999889 -81.81 0.014614 7.0915
8.93440000 0.014610 9.3193 0.999889 -81.81 0.999889 -81.81 0.014609 7.0843
8.93450000 0.014605 9.3242 0.999889 -81.81 0.999889 -81.81 0.014605 7.0771
8.93460000 0.014601 9.3291 0.999889 -81.81 0.999889 -81.81 0.014600 7.0699
8.93470000 0.014596 9.3341 0.999889 -81.81 0.999889 -81.81 0.014595 7.0626
8.93480000 0.014591 9.3391 0.999889 -81.82 0.999889 -81.82 0.014590 7.0552
8.93490000 0.014586 9.3442 0.999889 -81.82 0.999889 -81.82 0.014586 7.0478
8.93500000 0.014582 9.3494 0.999889 -81.82 0.999889 -81.82 0.014581 7.0403
8.93510000 0.014577 9.3546 0.999889 -81.82 0.999889 -81.82 0.014576 7.0328
8.93520000 0.014572 9.3598 0.999889 -81.82 0.999889 -81.82 0.014571 7.0252
8.93530000 0.014567 9.3651 0.999890 -81.82 0.999890 -81.82 0.014566 7.0175
8.93540000 0.014562 9.3705 0.999890 -81.82 0.999890 -81.82 0.014561 7.0098
8.93550000 0.014557 9.3759 0.999890 -81.82 0.999890 -81.82 0.014556 7.0020
8.93560000 0.014552 9.3814 0.999890 -81.83 0.999890 -81.83 0.014551 6.9941
8.93570000 0.014547 9.3870 0.999890 -81.83 0.999890 -81.83 0.014546 6.9862
8.93580000 0.014542 9.3926 0.999890 -81.83 0.999890 -81.83 0.014541 6.9782
8.93590000 0.014536 9.3982 0.999890 -81.83 0.999890 -81.83 0.014536 6.9702
8.93600000 0.014531 9.4040 0.999890 -81.83 0.999890 -81.83 0.014530 6.9621
8.93610000 0.014526 9.4098 0.999890 -81.83 0.999890 -81.83 0.014525 6.9539
8.93620000 0.014521 9.4156 0.999890 -81.83 0.999890 -81.83 0.014520 6.9456
8.93630000 0.014515 9.4216 0.999890 -81.83 0.999890 -81.83 0.014514 6.9373
8.93640000 0.014510 9.4276 0.999890 -81.84 0.999890 -81.84 0.014509 6.9289
8.93650000 0.014504 9.4336 0.999890 -81.84 0.999890 -81.84 0.014503 6.9204
8.93660000 0.014499 9.4398 0.999890 -81.84 0.999890 -81.84 0.014498 6.9119
8.93670000 0.014493 9.4460 0.999890 -81.84 0.999890 -81.84 0.014492 6.9033
8.93680000 0.014488 9.4523 0.999891 -81.84 0.999891 -81.84 0.014487 6.8946
8.93690000 0.014482 9.4586 0.999891 -81.84 0.999891 -81.84 0.014481 6.8858
8.93700000 0.014476 9.4650 0.999891 -81.84 0.999891 -81.84 0.014475 6.8769
8.93710000 0.014470 9.4715 0.999891 -81.84 0.999891 -81.84 0.014469 6.8680
8.93720000 0.014464 9.4781 0.999891 -81.85 0.999891 -81.85 0.014464 6.8590
8.93730000 0.014459 9.4848 0.999891 -81.85 0.999891 -81.85 0.014458 6.8499
8.93740000 0.014453 9.4915 0.999891 -81.85 0.999891 -81.85 0.014452 6.8407
8.93750000 0.014447 9.4983 0.999891 -81.85 0.999891 -81.85 0.014446 6.8314
8.93760000 0.014441 9.5052 0.999891 -81.85 0.999891 -81.85 0.014440 6.8221
8.93770000 0.014434 9.5122 0.999891 -81.85 0.999891 -81.85 0.014433 6.8126
8.93780000 0.014428 9.5192 0.999891 -81.85 0.999891 -81.85 0.014427 6.8031
8.93790000 0.014422 9.5264 0.999891 -81.85 0.999891 -81.85 0.014421 6.7935
8.93800000 0.014416 9.5336 0.999891 -81.86 0.999891 -81.86 0.014415 6.7838
8.93810000 0.014409 9.5409 0.999892 -81.86 0.999892 -81.86 0.014408 6.7740
8.93820000 0.014403 9.5483 0.999892 -81.86 0.999892 -81.86 0.014402 6.7641
8.93830000 0.014396 9.5558 0.999892 -81.86 0.999892 -81.86 0.014395 6.7541
8.93840000 0.014390 9.5634 0.999892 -81.86 0.999892 -81.86 0.014389 6.7440
8.93850000 0.014383 9.5710 0.999892 -81.86 0.999892 -81.86 0.014382 6.7338
8.93860000 0.014377 9.5788 0.999892 -81.86 0.999892 -81.86 0.014375 6.7235
8.93870000 0.014370 9.5867 0.999892 -81.86 0.999892 -81.86 0.014369 6.7131
8.93880000 0.014363 9.5946 0.999892 -81.87 0.999892 -81.87 0.014362 6.7026
8.93890000 0.014356 9.6027 0.999892 -81.87 0.999892 -81.87 0.014355 6.6920
8.93900000 0.014349 9.6109 0.999892 -81.87 0.999892 -81.87 0.014348 6.6813
8.93910000 0.014342 9.6191 0.999892 -81.87 0.999892 -81.87 0.014341 6.6705
8.93920000 0.014335 9.6275 0.999892 -81.87 0.999892 -81.87 0.014334 6.6596