! Sonnet Data File
! From: emgraph Version : 16.52
! From Project: Resonator2_extremeCap
! Data is De-embedded 
! Data File Written: 10/11/2017 17:55:29
!< HDATE 10/10/2017 20:37:37
!< MDATE 10/10/2017 20:37:37
!< PARAMS
!< Pwid1 = 2000.0
!< Pwid2 = 2000.0
!< Air_gap = 18.0
!< Width = 30.0
!< Gap = 40.0
!< END PARAMS
# GHZ S MA R 50.70000
8.95000000 0.107674 4.1045 0.994180 -88.29 0.994180 -88.29 0.107668 -0.680
!< P1 F=8.95 Eeff=(6.44502592 -2.9711e-5) Z0=(50.6183818 1.16783e-4) R=0.0 C=0.0 
!< P2 F=8.95 Eeff=(6.44502592 -2.9711e-5) Z0=(50.6183818 1.16783e-4) R=0.0 C=0.0 
8.95020000 0.107682 4.1148 0.994179 -88.29 0.994179 -88.29 0.107676 -0.698
8.95040000 0.107690 4.1251 0.994178 -88.30 0.994178 -88.30 0.107685 -0.715
8.95060000 0.107698 4.1354 0.994177 -88.30 0.994177 -88.30 0.107693 -0.733
8.95080000 0.107707 4.1458 0.994176 -88.30 0.994176 -88.30 0.107701 -0.750
8.95100000 0.107715 4.1562 0.994176 -88.31 0.994176 -88.31 0.107709 -0.768
8.95120000 0.107723 4.1667 0.994175 -88.31 0.994175 -88.31 0.107718 -0.786
8.95140000 0.107731 4.1772 0.994174 -88.31 0.994174 -88.31 0.107726 -0.803
8.95160000 0.107740 4.1877 0.994173 -88.32 0.994173 -88.32 0.107734 -0.821
8.95180000 0.107748 4.1983 0.994172 -88.32 0.994172 -88.32 0.107742 -0.839
8.95200000 0.107757 4.2089 0.994171 -88.32 0.994171 -88.32 0.107751 -0.857
8.95220000 0.107765 4.2196 0.994170 -88.33 0.994170 -88.33 0.107759 -0.875
8.95240000 0.107773 4.2303 0.994169 -88.33 0.994169 -88.33 0.107768 -0.893
8.95260000 0.107782 4.2410 0.994168 -88.34 0.994168 -88.34 0.107776 -0.911
8.95280000 0.107790 4.2518 0.994167 -88.34 0.994167 -88.34 0.107784 -0.929
8.95300000 0.107799 4.2626 0.994166 -88.34 0.994166 -88.34 0.107793 -0.947
8.95320000 0.107807 4.2735 0.994166 -88.35 0.994166 -88.35 0.107801 -0.965
8.95340000 0.107816 4.2844 0.994165 -88.35 0.994165 -88.35 0.107810 -0.984
8.95360000 0.107824 4.2954 0.994164 -88.35 0.994164 -88.35 0.107818 -1.002
8.95380000 0.107833 4.3064 0.994163 -88.36 0.994163 -88.36 0.107827 -1.020
8.95400000 0.107841 4.3174 0.994162 -88.36 0.994162 -88.36 0.107835 -1.039
8.95420000 0.107850 4.3285 0.994161 -88.37 0.994161 -88.37 0.107844 -1.057
8.95440000 0.107859 4.3396 0.994160 -88.37 0.994160 -88.37 0.107853 -1.076
8.95460000 0.107867 4.3508 0.994159 -88.37 0.994159 -88.37 0.107861 -1.095
8.95480000 0.107876 4.3620 0.994158 -88.38 0.994158 -88.38 0.107870 -1.113
8.95500000 0.107885 4.3733 0.994157 -88.38 0.994157 -88.38 0.107879 -1.132
8.95520000 0.107893 4.3846 0.994156 -88.38 0.994156 -88.38 0.107887 -1.151
8.95540000 0.107902 4.3960 0.994155 -88.39 0.994155 -88.39 0.107896 -1.169
8.95560000 0.107911 4.4074 0.994154 -88.39 0.994154 -88.39 0.107905 -1.188
8.95580000 0.107920 4.4188 0.994153 -88.39 0.994153 -88.39 0.107914 -1.207
8.95600000 0.107929 4.4303 0.994152 -88.40 0.994152 -88.40 0.107922 -1.226
8.95620000 0.107938 4.4418 0.994151 -88.40 0.994151 -88.40 0.107931 -1.245
8.95640000 0.107946 4.4534 0.994150 -88.41 0.994150 -88.41 0.107940 -1.264
8.95660000 0.107955 4.4651 0.994149 -88.41 0.994149 -88.41 0.107949 -1.284
8.95680000 0.107964 4.4767 0.994148 -88.41 0.994148 -88.41 0.107958 -1.303
8.95700000 0.107973 4.4885 0.994147 -88.42 0.994147 -88.42 0.107967 -1.322
8.95720000 0.107982 4.5002 0.994146 -88.42 0.994146 -88.42 0.107976 -1.342
8.95740000 0.107991 4.5120 0.994145 -88.43 0.994145 -88.43 0.107985 -1.361
8.95760000 0.108000 4.5239 0.994144 -88.43 0.994144 -88.43 0.107994 -1.380
8.95780000 0.108009 4.5358 0.994143 -88.43 0.994143 -88.43 0.108003 -1.400
8.95800000 0.108018 4.5478 0.994142 -88.44 0.994142 -88.44 0.108012 -1.420
8.95820000 0.108028 4.5598 0.994141 -88.44 0.994141 -88.44 0.108021 -1.439
8.95840000 0.108037 4.5718 0.994140 -88.44 0.994140 -88.44 0.108030 -1.459
8.95860000 0.108046 4.5839 0.994139 -88.45 0.994139 -88.45 0.108039 -1.479
8.95880000 0.108055 4.5961 0.994138 -88.45 0.994138 -88.45 0.108049 -1.499
8.95900000 0.108064 4.6083 0.994137 -88.46 0.994137 -88.46 0.108058 -1.518
8.95920000 0.108074 4.6205 0.994136 -88.46 0.994136 -88.46 0.108067 -1.538
8.95940000 0.108083 4.6328 0.994135 -88.46 0.994135 -88.46 0.108076 -1.558
8.95960000 0.108092 4.6452 0.994134 -88.47 0.994134 -88.47 0.108086 -1.578
8.95980000 0.108102 4.6576 0.994133 -88.47 0.994133 -88.47 0.108095 -1.599
8.96000000 0.108111 4.6700 0.994132 -88.48 0.994132 -88.48 0.108104 -1.619
8.96020000 0.108120 4.6825 0.994131 -88.48 0.994131 -88.48 0.108114 -1.639
8.96040000 0.108130 4.6951 0.994130 -88.48 0.994130 -88.48 0.108123 -1.659
8.96060000 0.108139 4.7077 0.994129 -88.49 0.994129 -88.49 0.108133 -1.680
8.96080000 0.108149 4.7203 0.994128 -88.49 0.994128 -88.49 0.108142 -1.700
8.96100000 0.108158 4.7330 0.994127 -88.49 0.994127 -88.49 0.108152 -1.721
8.96120000 0.108168 4.7458 0.994126 -88.50 0.994126 -88.50 0.108161 -1.741
8.96140000 0.108177 4.7586 0.994125 -88.50 0.994125 -88.50 0.108171 -1.762
8.96160000 0.108187 4.7714 0.994124 -88.51 0.994124 -88.51 0.108180 -1.783
8.96180000 0.108197 4.7844 0.994123 -88.51 0.994123 -88.51 0.108190 -1.804
8.96200000 0.108206 4.7973 0.994122 -88.51 0.994122 -88.51 0.108199 -1.824
8.96220000 0.108216 4.8103 0.994121 -88.52 0.994121 -88.52 0.108209 -1.845
8.96240000 0.108226 4.8234 0.994120 -88.52 0.994120 -88.52 0.108219 -1.866
8.96260000 0.108236 4.8365 0.994118 -88.53 0.994118 -88.53 0.108229 -1.887
8.96280000 0.108245 4.8497 0.994117 -88.53 0.994117 -88.53 0.108238 -1.909
8.96300000 0.108255 4.8630 0.994116 -88.53 0.994116 -88.53 0.108248 -1.930
8.96320000 0.108265 4.8762 0.994115 -88.54 0.994115 -88.54 0.108258 -1.951
8.96340000 0.108275 4.8896 0.994114 -88.54 0.994114 -88.54 0.108268 -1.972
8.96360000 0.108285 4.9030 0.994113 -88.55 0.994113 -88.55 0.108278 -1.994
8.96380000 0.108295 4.9164 0.994112 -88.55 0.994112 -88.55 0.108288 -2.015
8.96400000 0.108305 4.9300 0.994111 -88.55 0.994111 -88.55 0.108298 -2.037
8.96420000 0.108315 4.9435 0.994110 -88.56 0.994110 -88.56 0.108308 -2.059
8.96440000 0.108325 4.9571 0.994109 -88.56 0.994109 -88.56 0.108318 -2.080
8.96460000 0.108335 4.9708 0.994108 -88.57 0.994108 -88.57 0.108328 -2.102
8.96480000 0.108345 4.9846 0.994106 -88.57 0.994106 -88.57 0.108338 -2.124
8.96500000 0.108355 4.9984 0.994105 -88.57 0.994105 -88.57 0.108348 -2.146
8.96520000 0.108366 5.0122 0.994104 -88.58 0.994104 -88.58 0.108358 -2.168
8.96540000 0.108376 5.0261 0.994103 -88.58 0.994103 -88.58 0.108369 -2.190
8.96560000 0.108386 5.0401 0.994102 -88.59 0.994102 -88.59 0.108379 -2.212
8.96580000 0.108396 5.0541 0.994101 -88.59 0.994101 -88.59 0.108389 -2.234
8.96600000 0.108407 5.0682 0.994100 -88.59 0.994100 -88.59 0.108399 -2.256
8.96620000 0.108417 5.0823 0.994098 -88.60 0.994098 -88.60 0.108410 -2.279
8.96640000 0.108428 5.0965 0.994097 -88.60 0.994097 -88.60 0.108420 -2.301
8.96660000 0.108438 5.1108 0.994096 -88.61 0.994096 -88.61 0.108431 -2.324
8.96680000 0.108449 5.1251 0.994095 -88.61 0.994095 -88.61 0.108441 -2.346
8.96700000 0.108459 5.1395 0.994094 -88.62 0.994094 -88.62 0.108452 -2.369
8.96720000 0.108470 5.1540 0.994093 -88.62 0.994093 -88.62 0.108462 -2.392
8.96740000 0.108480 5.1685 0.994092 -88.62 0.994092 -88.62 0.108473 -2.414
8.96760000 0.108491 5.1830 0.994090 -88.63 0.994090 -88.63 0.108483 -2.437
8.96780000 0.108502 5.1977 0.994089 -88.63 0.994089 -88.63 0.108494 -2.460
8.96800000 0.108512 5.2123 0.994088 -88.64 0.994088 -88.64 0.108505 -2.483
8.96820000 0.108523 5.2271 0.994087 -88.64 0.994087 -88.64 0.108515 -2.506
8.96840000 0.108534 5.2419 0.994086 -88.64 0.994086 -88.64 0.108526 -2.530
8.96860000 0.108545 5.2568 0.994084 -88.65 0.994084 -88.65 0.108537 -2.553
8.96880000 0.108556 5.2717 0.994083 -88.65 0.994083 -88.65 0.108548 -2.576
8.96900000 0.108567 5.2867 0.994082 -88.66 0.994082 -88.66 0.108559 -2.600
8.96920000 0.108578 5.3018 0.994081 -88.66 0.994081 -88.66 0.108570 -2.623
8.96940000 0.108589 5.3170 0.994080 -88.67 0.994080 -88.67 0.108581 -2.647
8.96960000 0.108600 5.3322 0.994078 -88.67 0.994078 -88.67 0.108592 -2.671
8.96980000 0.108611 5.3474 0.994077 -88.67 0.994077 -88.67 0.108603 -2.694
8.97000000 0.108622 5.3627 0.994076 -88.68 0.994076 -88.68 0.108614 -2.718
8.97020000 0.108633 5.3781 0.994075 -88.68 0.994075 -88.68 0.108625 -2.742
8.97040000 0.108644 5.3936 0.994073 -88.69 0.994073 -88.69 0.108636 -2.766
8.97060000 0.108655 5.4091 0.994072 -88.69 0.994072 -88.69 0.108647 -2.790
8.97080000 0.108667 5.4247 0.994071 -88.70 0.994071 -88.70 0.108658 -2.814
8.97100000 0.108678 5.4404 0.994070 -88.70 0.994070 -88.70 0.108670 -2.839
8.97120000 0.108689 5.4561 0.994068 -88.70 0.994068 -88.70 0.108681 -2.863
8.97140000 0.108701 5.4719 0.994067 -88.71 0.994067 -88.71 0.108693 -2.887
8.97160000 0.108712 5.4878 0.994066 -88.71 0.994066 -88.71 0.108704 -2.912
8.97180000 0.108724 5.5037 0.994065 -88.72 0.994065 -88.72 0.108715 -2.937
8.97200000 0.108735 5.5198 0.994063 -88.72 0.994063 -88.72 0.108727 -2.961
8.97220000 0.108747 5.5358 0.994062 -88.73 0.994062 -88.73 0.108739 -2.986
8.97240000 0.108759 5.5520 0.994061 -88.73 0.994061 -88.73 0.108750 -3.011
8.97260000 0.108770 5.5682 0.994059 -88.73 0.994059 -88.73 0.108762 -3.036
8.97280000 0.108782 5.5845 0.994058 -88.74 0.994058 -88.74 0.108773 -3.061
8.97300000 0.108794 5.6008 0.994057 -88.74 0.994057 -88.74 0.108785 -3.086
8.97320000 0.108806 5.6173 0.994056 -88.75 0.994056 -88.75 0.108797 -3.111
8.97340000 0.108818 5.6338 0.994054 -88.75 0.994054 -88.75 0.108809 -3.137
8.97360000 0.108829 5.6504 0.994053 -88.76 0.994053 -88.76 0.108821 -3.162
8.97380000 0.108841 5.6670 0.994052 -88.76 0.994052 -88.76 0.108833 -3.188
8.97400000 0.108853 5.6837 0.994050 -88.77 0.994050 -88.77 0.108845 -3.213
8.97420000 0.108866 5.7005 0.994049 -88.77 0.994049 -88.77 0.108857 -3.239
8.97440000 0.108878 5.7174 0.994048 -88.77 0.994048 -88.77 0.108869 -3.265
8.97460000 0.108890 5.7344 0.994046 -88.78 0.994046 -88.78 0.108881 -3.291
8.97480000 0.108902 5.7514 0.994045 -88.78 0.994045 -88.78 0.108893 -3.317
8.97500000 0.108914 5.7685 0.994043 -88.79 0.994043 -88.79 0.108905 -3.343
8.97520000 0.108927 5.7856 0.994042 -88.79 0.994042 -88.79 0.108918 -3.369
8.97540000 0.108939 5.8029 0.994041 -88.80 0.994041 -88.80 0.108930 -3.395
8.97560000 0.108951 5.8202 0.994039 -88.80 0.994039 -88.80 0.108942 -3.422
8.97580000 0.108964 5.8376 0.994038 -88.81 0.994038 -88.81 0.108955 -3.448
8.97600000 0.108976 5.8551 0.994037 -88.81 0.994037 -88.81 0.108967 -3.475
8.97620000 0.108989 5.8727 0.994035 -88.81 0.994035 -88.81 0.108980 -3.501
8.97640000 0.109002 5.8903 0.994034 -88.82 0.994034 -88.82 0.108992 -3.528
8.97660000 0.109014 5.9080 0.994032 -88.82 0.994032 -88.82 0.109005 -3.555
8.97680000 0.109027 5.9258 0.994031 -88.83 0.994031 -88.83 0.109018 -3.582
8.97700000 0.109040 5.9437 0.994030 -88.83 0.994030 -88.83 0.109031 -3.609
8.97720000 0.109053 5.9617 0.994028 -88.84 0.994028 -88.84 0.109043 -3.636
8.97740000 0.109066 5.9797 0.994027 -88.84 0.994027 -88.84 0.109056 -3.664
8.97760000 0.109079 5.9978 0.994025 -88.85 0.994025 -88.85 0.109069 -3.691
8.97780000 0.109092 6.0160 0.994024 -88.85 0.994024 -88.85 0.109082 -3.719
8.97800000 0.109105 6.0343 0.994022 -88.86 0.994022 -88.86 0.109095 -3.746
8.97820000 0.109118 6.0527 0.994021 -88.86 0.994021 -88.86 0.109108 -3.774
8.97840000 0.109131 6.0712 0.994019 -88.87 0.994019 -88.87 0.109122 -3.802
8.97860000 0.109144 6.0897 0.994018 -88.87 0.994018 -88.87 0.109135 -3.830
8.97880000 0.109158 6.1083 0.994016 -88.88 0.994016 -88.88 0.109148 -3.858
8.97900000 0.109171 6.1270 0.994015 -88.88 0.994015 -88.88 0.109161 -3.886
8.97920000 0.109184 6.1458 0.994013 -88.88 0.994013 -88.88 0.109175 -3.914
8.97940000 0.109198 6.1647 0.994012 -88.89 0.994012 -88.89 0.109188 -3.942
8.97960000 0.109211 6.1837 0.994010 -88.89 0.994010 -88.89 0.109202 -3.971
8.97980000 0.109225 6.2027 0.994009 -88.90 0.994009 -88.90 0.109215 -3.999
8.98000000 0.109239 6.2219 0.994007 -88.90 0.994007 -88.90 0.109229 -4.028
8.98020000 0.109253 6.2411 0.994006 -88.91 0.994006 -88.91 0.109243 -4.057
8.98040000 0.109266 6.2604 0.994004 -88.91 0.994004 -88.91 0.109256 -4.086
8.98060000 0.109280 6.2798 0.994003 -88.92 0.994003 -88.92 0.109270 -4.115
8.98080000 0.109294 6.2993 0.994001 -88.92 0.994001 -88.92 0.109284 -4.144
8.98100000 0.109308 6.3189 0.994000 -88.93 0.994000 -88.93 0.109298 -4.173
8.98120000 0.109322 6.3386 0.993998 -88.93 0.993998 -88.93 0.109312 -4.203
8.98140000 0.109336 6.3584 0.993997 -88.94 0.993997 -88.94 0.109326 -4.232
8.98160000 0.109350 6.3782 0.993995 -88.94 0.993995 -88.94 0.109340 -4.262
8.98180000 0.109365 6.3982 0.993993 -88.95 0.993993 -88.95 0.109354 -4.291
8.98200000 0.109379 6.4183 0.993992 -88.95 0.993992 -88.95 0.109369 -4.321
8.98220000 0.109393 6.4384 0.993990 -88.96 0.993990 -88.96 0.109383 -4.351
8.98240000 0.109408 6.4586 0.993989 -88.96 0.993989 -88.96 0.109398 -4.381
8.98260000 0.109422 6.4790 0.993987 -88.97 0.993987 -88.97 0.109412 -4.411
8.98280000 0.109437 6.4994 0.993985 -88.97 0.993985 -88.97 0.109427 -4.442
8.98300000 0.109452 6.5199 0.993984 -88.98 0.993984 -88.98 0.109441 -4.472
8.98320000 0.109466 6.5406 0.993982 -88.98 0.993982 -88.98 0.109456 -4.503
8.98340000 0.109481 6.5613 0.993980 -88.99 0.993980 -88.99 0.109471 -4.533
8.98360000 0.109496 6.5821 0.993979 -88.99 0.993979 -88.99 0.109485 -4.564
8.98380000 0.109511 6.6030 0.993977 -89.00 0.993977 -89.00 0.109500 -4.595
8.98400000 0.109526 6.6240 0.993975 -89.00 0.993975 -89.00 0.109515 -4.626
8.98420000 0.109541 6.6451 0.993974 -89.01 0.993974 -89.01 0.109530 -4.657
8.98440000 0.109556 6.6664 0.993972 -89.01 0.993972 -89.01 0.109546 -4.689
8.98460000 0.109572 6.6877 0.993970 -89.02 0.993970 -89.02 0.109561 -4.720
8.98480000 0.109587 6.7091 0.993969 -89.02 0.993969 -89.02 0.109576 -4.752
8.98500000 0.109602 6.7306 0.993967 -89.03 0.993967 -89.03 0.109591 -4.783
8.98520000 0.109618 6.7523 0.993965 -89.03 0.993965 -89.03 0.109607 -4.815
8.98540000 0.109634 6.7740 0.993963 -89.04 0.993963 -89.04 0.109622 -4.847
8.98560000 0.109649 6.7958 0.993962 -89.04 0.993962 -89.04 0.109638 -4.879
8.98580000 0.109665 6.8178 0.993960 -89.05 0.993960 -89.05 0.109654 -4.912
!< P1 F=8.9858 Eeff=(6.44501396 -2.9711e-5) Z0=(50.6182692 1.16784e-4) R=0.0 C=0.0 
!< P2 F=8.9858 Eeff=(6.44501396 -2.9711e-5) Z0=(50.6182692 1.16784e-4) R=0.0 C=0.0 
8.98600000 0.109681 6.8398 0.993958 -89.05 0.993958 -89.05 0.109669 -4.944
8.98620000 0.109697 6.8620 0.993956 -89.06 0.993956 -89.06 0.109685 -4.977
8.98640000 0.109713 6.8842 0.993955 -89.06 0.993955 -89.06 0.109701 -5.009
8.98660000 0.109729 6.9066 0.993953 -89.07 0.993953 -89.07 0.109717 -5.042
8.98680000 0.109745 6.9291 0.993951 -89.07 0.993951 -89.07 0.109733 -5.075
8.98700000 0.109761 6.9517 0.993949 -89.08 0.993949 -89.08 0.109749 -5.108
8.98720000 0.109777 6.9744 0.993947 -89.08 0.993947 -89.08 0.109766 -5.141
8.98740000 0.109794 6.9972 0.993945 -89.09 0.993945 -89.09 0.109782 -5.175
8.98760000 0.109810 7.0201 0.993944 -89.09 0.993944 -89.09 0.109798 -5.208
8.98780000 0.109827 7.0431 0.993942 -89.10 0.993942 -89.10 0.109815 -5.242
8.98800000 0.109843 7.0663 0.993940 -89.10 0.993940 -89.10 0.109832 -5.275
8.98820000 0.109860 7.0895 0.993938 -89.11 0.993938 -89.11 0.109848 -5.309
8.98840000 0.109877 7.1129 0.993936 -89.12 0.993936 -89.12 0.109865 -5.343
8.98860000 0.109894 7.1364 0.993934 -89.12 0.993934 -89.12 0.109882 -5.378
8.98880000 0.109911 7.1600 0.993932 -89.13 0.993932 -89.13 0.109899 -5.412
8.98900000 0.109928 7.1837 0.993930 -89.13 0.993930 -89.13 0.109916 -5.446
8.98920000 0.109945 7.2076 0.993928 -89.14 0.993928 -89.14 0.109933 -5.481
8.98940000 0.109962 7.2315 0.993927 -89.14 0.993927 -89.14 0.109950 -5.516
8.98960000 0.109980 7.2556 0.993925 -89.15 0.993925 -89.15 0.109968 -5.551
8.98980000 0.109997 7.2798 0.993923 -89.15 0.993923 -89.15 0.109985 -5.586
8.99000000 0.110015 7.3041 0.993921 -89.16 0.993921 -89.16 0.110003 -5.621
8.99020000 0.110033 7.3286 0.993919 -89.16 0.993919 -89.16 0.110020 -5.657
8.99040000 0.110050 7.3531 0.993917 -89.17 0.993917 -89.17 0.110038 -5.692
8.99060000 0.110068 7.3778 0.993915 -89.18 0.993915 -89.18 0.110056 -5.728
8.99080000 0.110086 7.4026 0.993913 -89.18 0.993913 -89.18 0.110074 -5.764
8.99100000 0.110104 7.4276 0.993911 -89.19 0.993911 -89.19 0.110092 -5.800
8.99120000 0.110122 7.4526 0.993909 -89.19 0.993909 -89.19 0.110110 -5.836
8.99140000 0.110141 7.4778 0.993907 -89.20 0.993907 -89.20 0.110128 -5.873
8.99160000 0.110159 7.5031 0.993904 -89.20 0.993904 -89.20 0.110146 -5.909
8.99180000 0.110178 7.5286 0.993902 -89.21 0.993902 -89.21 0.110165 -5.946
8.99200000 0.110196 7.5542 0.993900 -89.21 0.993900 -89.21 0.110183 -5.983
8.99220000 0.110215 7.5799 0.993898 -89.22 0.993898 -89.22 0.110202 -6.020
8.99240000 0.110234 7.6057 0.993896 -89.23 0.993896 -89.23 0.110221 -6.057
8.99260000 0.110253 7.6317 0.993894 -89.23 0.993894 -89.23 0.110239 -6.094
8.99280000 0.110272 7.6578 0.993892 -89.24 0.993892 -89.24 0.110258 -6.132
8.99300000 0.110291 7.6840 0.993890 -89.24 0.993890 -89.24 0.110278 -6.170
8.99320000 0.110310 7.7104 0.993887 -89.25 0.993887 -89.25 0.110297 -6.208
8.99340000 0.110329 7.7369 0.993885 -89.25 0.993885 -89.25 0.110316 -6.246
8.99360000 0.110349 7.7635 0.993883 -89.26 0.993883 -89.26 0.110335 -6.284
8.99380000 0.110369 7.7903 0.993881 -89.27 0.993881 -89.27 0.110355 -6.322
8.99400000 0.110388 7.8172 0.993879 -89.27 0.993879 -89.27 0.110375 -6.361
8.99420000 0.110408 7.8443 0.993876 -89.28 0.993876 -89.28 0.110394 -6.400
8.99440000 0.110428 7.8715 0.993874 -89.28 0.993874 -89.28 0.110414 -6.439
8.99460000 0.110448 7.8988 0.993872 -89.29 0.993872 -89.29 0.110434 -6.478
8.99480000 0.110468 7.9263 0.993870 -89.30 0.993870 -89.30 0.110454 -6.517
8.99500000 0.110489 7.9540 0.993867 -89.30 0.993867 -89.30 0.110475 -6.557
8.99520000 0.110509 7.9817 0.993865 -89.31 0.993865 -89.31 0.110495 -6.596
8.99540000 0.110530 8.0096 0.993863 -89.31 0.993863 -89.31 0.110516 -6.636
8.99560000 0.110550 8.0377 0.993860 -89.32 0.993860 -89.32 0.110536 -6.676
8.99580000 0.110571 8.0659 0.993858 -89.33 0.993858 -89.33 0.110557 -6.716
8.99600000 0.110592 8.0943 0.993856 -89.33 0.993856 -89.33 0.110578 -6.757
8.99620000 0.110613 8.1228 0.993853 -89.34 0.993853 -89.34 0.110599 -6.798
8.99640000 0.110634 8.1515 0.993851 -89.34 0.993851 -89.34 0.110620 -6.838
8.99660000 0.110656 8.1803 0.993848 -89.35 0.993848 -89.35 0.110641 -6.879
8.99680000 0.110677 8.2092 0.993846 -89.36 0.993846 -89.36 0.110663 -6.921
8.99700000 0.110699 8.2384 0.993844 -89.36 0.993844 -89.36 0.110684 -6.962
8.99720000 0.110721 8.2676 0.993841 -89.37 0.993841 -89.37 0.110706 -7.004
8.99740000 0.110743 8.2971 0.993839 -89.37 0.993839 -89.37 0.110728 -7.045
8.99760000 0.110765 8.3267 0.993836 -89.38 0.993836 -89.38 0.110750 -7.088
8.99780000 0.110787 8.3564 0.993834 -89.39 0.993834 -89.39 0.110772 -7.130
8.99800000 0.110809 8.3863 0.993831 -89.39 0.993831 -89.39 0.110794 -7.172
8.99820000 0.110832 8.4164 0.993829 -89.40 0.993829 -89.40 0.110816 -7.215
8.99840000 0.110854 8.4467 0.993826 -89.41 0.993826 -89.41 0.110839 -7.258
8.99860000 0.110877 8.4771 0.993823 -89.41 0.993823 -89.41 0.110862 -7.301
8.99880000 0.110900 8.5076 0.993821 -89.42 0.993821 -89.42 0.110884 -7.344
8.99900000 0.110923 8.5383 0.993818 -89.42 0.993818 -89.42 0.110907 -7.387
8.99920000 0.110946 8.5692 0.993816 -89.43 0.993816 -89.43 0.110931 -7.431
8.99940000 0.110970 8.6003 0.993813 -89.44 0.993813 -89.44 0.110954 -7.475
8.99960000 0.110993 8.6315 0.993810 -89.44 0.993810 -89.44 0.110977 -7.519
8.99980000 0.111017 8.6630 0.993808 -89.45 0.993808 -89.45 0.111001 -7.564
9.00000000 0.111041 8.6945 0.993805 -89.46 0.993805 -89.46 0.111025 -7.608
9.00020000 0.111065 8.7263 0.993802 -89.46 0.993802 -89.46 0.111049 -7.653
9.00040000 0.111089 8.7582 0.993799 -89.47 0.993799 -89.47 0.111073 -7.698
9.00060000 0.111113 8.7903 0.993797 -89.48 0.993797 -89.48 0.111097 -7.743
9.00080000 0.111138 8.8226 0.993794 -89.48 0.993794 -89.48 0.111121 -7.789
9.00100000 0.111162 8.8551 0.993791 -89.49 0.993791 -89.49 0.111146 -7.834
9.00120000 0.111187 8.8877 0.993788 -89.50 0.993788 -89.50 0.111171 -7.880
9.00140000 0.111212 8.9205 0.993785 -89.50 0.993785 -89.50 0.111196 -7.926
9.00160000 0.111237 8.9535 0.993783 -89.51 0.993783 -89.51 0.111221 -7.973
9.00180000 0.111263 8.9867 0.993780 -89.52 0.993780 -89.52 0.111246 -8.020
9.00200000 0.111288 9.0201 0.993777 -89.52 0.993777 -89.52 0.111272 -8.066
9.00220000 0.111314 9.0537 0.993774 -89.53 0.993774 -89.53 0.111297 -8.114
9.00240000 0.111340 9.0874 0.993771 -89.54 0.993771 -89.54 0.111323 -8.161
9.00260000 0.111366 9.1214 0.993768 -89.54 0.993768 -89.54 0.111349 -8.209
9.00280000 0.111392 9.1555 0.993765 -89.55 0.993765 -89.55 0.111375 -8.256
9.00300000 0.111419 9.1898 0.993762 -89.56 0.993762 -89.56 0.111401 -8.305
9.00320000 0.111445 9.2244 0.993759 -89.56 0.993759 -89.56 0.111428 -8.353
9.00340000 0.111472 9.2591 0.993756 -89.57 0.993756 -89.57 0.111455 -8.401
9.00360000 0.111499 9.2940 0.993753 -89.58 0.993753 -89.58 0.111482 -8.450
9.00380000 0.111527 9.3291 0.993750 -89.58 0.993750 -89.58 0.111509 -8.499
9.00400000 0.111554 9.3644 0.993747 -89.59 0.993747 -89.59 0.111536 -8.549
9.00420000 0.111582 9.3999 0.993743 -89.60 0.993743 -89.60 0.111564 -8.599
9.00440000 0.111609 9.4357 0.993740 -89.61 0.993740 -89.61 0.111591 -8.648
9.00460000 0.111638 9.4716 0.993737 -89.61 0.993737 -89.61 0.111619 -8.699
9.00480000 0.111666 9.5077 0.993734 -89.62 0.993734 -89.62 0.111648 -8.749
9.00500000 0.111694 9.5441 0.993731 -89.63 0.993731 -89.63 0.111676 -8.800
9.00520000 0.111723 9.5806 0.993727 -89.63 0.993727 -89.63 0.111704 -8.851
9.00540000 0.111752 9.6174 0.993724 -89.64 0.993724 -89.64 0.111733 -8.902
9.00560000 0.111781 9.6544 0.993721 -89.65 0.993721 -89.65 0.111762 -8.954
9.00580000 0.111810 9.6916 0.993717 -89.66 0.993717 -89.66 0.111791 -9.005
9.00600000 0.111840 9.7290 0.993714 -89.66 0.993714 -89.66 0.111821 -9.057
9.00620000 0.111870 9.7666 0.993710 -89.67 0.993710 -89.67 0.111851 -9.110
9.00640000 0.111900 9.8045 0.993707 -89.68 0.993707 -89.68 0.111880 -9.163
9.00660000 0.111930 9.8426 0.993704 -89.69 0.993704 -89.69 0.111911 -9.215
9.00680000 0.111960 9.8809 0.993700 -89.69 0.993700 -89.69 0.111941 -9.269
9.00700000 0.111991 9.9194 0.993697 -89.70 0.993697 -89.70 0.111971 -9.322
9.00720000 0.112022 9.9582 0.993693 -89.71 0.993693 -89.71 0.112002 -9.376
9.00740000 0.112053 9.9971 0.993689 -89.72 0.993689 -89.72 0.112033 -9.430
9.00760000 0.112084 10.036 0.993686 -89.72 0.993686 -89.72 0.112065 -9.485
9.00780000 0.112116 10.076 0.993682 -89.73 0.993682 -89.73 0.112096 -9.539
9.00800000 0.112148 10.116 0.993679 -89.74 0.993679 -89.74 0.112128 -9.594
9.00820000 0.112180 10.155 0.993675 -89.75 0.993675 -89.75 0.112160 -9.650
9.00840000 0.112213 10.196 0.993671 -89.75 0.993671 -89.75 0.112192 -9.705
9.00860000 0.112245 10.236 0.993667 -89.76 0.993667 -89.76 0.112225 -9.761
9.00880000 0.112278 10.277 0.993664 -89.77 0.993664 -89.77 0.112258 -9.818
9.00900000 0.112312 10.318 0.993660 -89.78 0.993660 -89.78 0.112291 -9.874
9.00920000 0.112345 10.359 0.993656 -89.79 0.993656 -89.79 0.112324 -9.931
9.00940000 0.112379 10.400 0.993652 -89.79 0.993652 -89.79 0.112358 -9.989
9.00960000 0.112413 10.442 0.993648 -89.80 0.993648 -89.80 0.112392 -10.05
9.00980000 0.112447 10.484 0.993644 -89.81 0.993644 -89.81 0.112426 -10.10
9.01000000 0.112482 10.526 0.993640 -89.82 0.993640 -89.82 0.112460 -10.16
9.01020000 0.112517 10.568 0.993636 -89.83 0.993636 -89.83 0.112495 -10.22
9.01040000 0.112552 10.611 0.993632 -89.83 0.993632 -89.83 0.112530 -10.28
9.01060000 0.112587 10.654 0.993628 -89.84 0.993628 -89.84 0.112566 -10.34
9.01080000 0.112623 10.697 0.993624 -89.85 0.993624 -89.85 0.112601 -10.40
9.01100000 0.112659 10.740 0.993620 -89.86 0.993620 -89.86 0.112637 -10.46
9.01120000 0.112695 10.784 0.993616 -89.87 0.993616 -89.87 0.112673 -10.52
9.01140000 0.112732 10.828 0.993611 -89.87 0.993611 -89.87 0.112710 -10.58
9.01160000 0.112769 10.873 0.993607 -89.88 0.993607 -89.88 0.112747 -10.64
9.01180000 0.112806 10.917 0.993603 -89.89 0.993603 -89.89 0.112784 -10.70
9.01200000 0.112844 10.962 0.993599 -89.90 0.993599 -89.90 0.112821 -10.76
9.01220000 0.112882 11.007 0.993594 -89.91 0.993594 -89.91 0.112859 -10.83
9.01240000 0.112920 11.052 0.993590 -89.92 0.993590 -89.92 0.112897 -10.89
9.01260000 0.112959 11.098 0.993585 -89.93 0.993585 -89.93 0.112936 -10.95
9.01280000 0.112998 11.144 0.993581 -89.93 0.993581 -89.93 0.112975 -11.01
9.01300000 0.113037 11.190 0.993576 -89.94 0.993576 -89.94 0.113014 -11.08
9.01320000 0.113077 11.237 0.993572 -89.95 0.993572 -89.95 0.113053 -11.14
9.01340000 0.113117 11.284 0.993567 -89.96 0.993567 -89.96 0.113093 -11.21
9.01360000 0.113157 11.331 0.993562 -89.97 0.993562 -89.97 0.113133 -11.27
9.01380000 0.113198 11.378 0.993558 -89.98 0.993558 -89.98 0.113174 -11.34
9.01400000 0.113239 11.426 0.993553 -89.99 0.993553 -89.99 0.113215 -11.40
9.01420000 0.113280 11.474 0.993548 -90.00 0.993548 -90.00 0.113256 -11.47
9.01440000 0.113322 11.523 0.993543 -90.00 0.993543 -90.00 0.113298 -11.53
9.01460000 0.113364 11.571 0.993538 -90.01 0.993538 -90.01 0.113340 -11.60
9.01480000 0.113407 11.620 0.993533 -90.02 0.993533 -90.02 0.113382 -11.67
9.01500000 0.113450 11.670 0.993528 -90.03 0.993528 -90.03 0.113425 -11.74
9.01520000 0.113493 11.719 0.993523 -90.04 0.993523 -90.04 0.113468 -11.80
9.01540000 0.113537 11.769 0.993518 -90.05 0.993518 -90.05 0.113512 -11.87
9.01560000 0.113581 11.820 0.993513 -90.06 0.993513 -90.06 0.113556 -11.94
9.01580000 0.113626 11.870 0.993508 -90.07 0.993508 -90.07 0.113600 -12.01
9.01600000 0.113671 11.921 0.993503 -90.08 0.993503 -90.08 0.113645 -12.08
9.01620000 0.113716 11.972 0.993497 -90.09 0.993497 -90.09 0.113690 -12.15
9.01640000 0.113762 12.024 0.993492 -90.10 0.993492 -90.10 0.113736 -12.22
9.01660000 0.113808 12.076 0.993487 -90.11 0.993487 -90.11 0.113782 -12.29
9.01680000 0.113855 12.128 0.993481 -90.12 0.993481 -90.12 0.113828 -12.36
9.01700000 0.113902 12.181 0.993476 -90.13 0.993476 -90.13 0.113875 -12.44
9.01720000 0.113950 12.234 0.993470 -90.14 0.993470 -90.14 0.113923 -12.51
9.01740000 0.113998 12.287 0.993465 -90.15 0.993465 -90.15 0.113970 -12.58
9.01760000 0.114046 12.341 0.993459 -90.16 0.993459 -90.16 0.114019 -12.65
9.01780000 0.114095 12.395 0.993453 -90.17 0.993453 -90.17 0.114068 -12.73
9.01800000 0.114145 12.450 0.993448 -90.18 0.993448 -90.18 0.114117 -12.80
9.01820000 0.114195 12.504 0.993442 -90.19 0.993442 -90.19 0.114167 -12.88
9.01840000 0.114245 12.560 0.993436 -90.20 0.993436 -90.20 0.114217 -12.95
9.01860000 0.114296 12.615 0.993430 -90.21 0.993430 -90.21 0.114268 -13.03
9.01880000 0.114347 12.671 0.993424 -90.22 0.993424 -90.22 0.114319 -13.11
9.01900000 0.114399 12.728 0.993418 -90.23 0.993418 -90.23 0.114371 -13.18
9.01920000 0.114452 12.784 0.993412 -90.24 0.993412 -90.24 0.114423 -13.26
9.01940000 0.114505 12.841 0.993405 -90.25 0.993405 -90.25 0.114476 -13.34
9.01960000 0.114558 12.899 0.993399 -90.26 0.993399 -90.26 0.114529 -13.42
9.01980000 0.114612 12.957 0.993393 -90.27 0.993393 -90.27 0.114583 -13.49
9.02000000 0.114667 13.015 0.993386 -90.28 0.993386 -90.28 0.114637 -13.57
9.02020000 0.114722 13.074 0.993380 -90.29 0.993380 -90.29 0.114692 -13.65
9.02040000 0.114778 13.133 0.993373 -90.30 0.993373 -90.30 0.114748 -13.73
9.02060000 0.114834 13.192 0.993367 -90.31 0.993367 -90.31 0.114804 -13.82
9.02080000 0.114891 13.252 0.993360 -90.32 0.993360 -90.32 0.114861 -13.90
9.02100000 0.114949 13.312 0.993353 -90.33 0.993353 -90.33 0.114918 -13.98
9.02120000 0.115007 13.373 0.993346 -90.34 0.993346 -90.34 0.114976 -14.06
9.02140000 0.115065 13.434 0.993339 -90.35 0.993339 -90.35 0.115034 -14.15
9.02160000 0.115125 13.496 0.993332 -90.36 0.993332 -90.36 0.115093 -14.23
9.02180000 0.115185 13.558 0.993325 -90.38 0.993325 -90.38 0.115153 -14.31
9.02200000 0.115245 13.621 0.993318 -90.39 0.993318 -90.39 0.115213 -14.40
9.02220000 0.115307 13.684 0.993311 -90.40 0.993311 -90.40 0.115274 -14.48
9.02240000 0.115368 13.747 0.993304 -90.41 0.993304 -90.41 0.115336 -14.57
9.02260000 0.115431 13.811 0.993296 -90.42 0.993296 -90.42 0.115398 -14.66
9.02280000 0.115494 13.875 0.993289 -90.43 0.993289 -90.43 0.115461 -14.74
9.02300000 0.115558 13.940 0.993281 -90.44 0.993281 -90.44 0.115525 -14.83
9.02320000 0.115623 14.005 0.993274 -90.46 0.993274 -90.46 0.115589 -14.92
9.02340000 0.115688 14.071 0.993266 -90.47 0.993266 -90.47 0.115654 -15.01
9.02360000 0.115754 14.137 0.993258 -90.48 0.993258 -90.48 0.115720 -15.10
9.02380000 0.115821 14.203 0.993250 -90.49 0.993250 -90.49 0.115787 -15.19
9.02400000 0.115889 14.271 0.993242 -90.50 0.993242 -90.50 0.115854 -15.28
9.02420000 0.115957 14.338 0.993234 -90.52 0.993234 -90.52 0.115922 -15.37
9.02440000 0.116026 14.406 0.993226 -90.53 0.993226 -90.53 0.115991 -15.47
9.02460000 0.116096 14.475 0.993218 -90.54 0.993218 -90.54 0.116060 -15.56
9.02480000 0.116166 14.544 0.993209 -90.55 0.993209 -90.55 0.116131 -15.65
9.02500000 0.116238 14.614 0.993201 -90.56 0.993201 -90.56 0.116202 -15.75
9.02520000 0.116310 14.684 0.993192 -90.58 0.993192 -90.58 0.116274 -15.84
9.02540000 0.116383 14.754 0.993183 -90.59 0.993183 -90.59 0.116346 -15.94
9.02560000 0.116457 14.826 0.993175 -90.60 0.993175 -90.60 0.116420 -16.04
9.02580000 0.116532 14.897 0.993166 -90.62 0.993166 -90.62 0.116495 -16.13
9.02600000 0.116607 14.970 0.993157 -90.63 0.993157 -90.63 0.116570 -16.23
9.02620000 0.116684 15.042 0.993147 -90.64 0.993147 -90.64 0.116646 -16.33
9.02640000 0.116761 15.116 0.993138 -90.65 0.993138 -90.65 0.116723 -16.43
9.02660000 0.116840 15.190 0.993129 -90.67 0.993129 -90.67 0.116801 -16.53
9.02680000 0.116919 15.264 0.993119 -90.68 0.993119 -90.68 0.116880 -16.63
9.02700000 0.116999 15.339 0.993110 -90.69 0.993110 -90.69 0.116960 -16.73
9.02720000 0.117080 15.415 0.993100 -90.71 0.993100 -90.71 0.117041 -16.84
9.02740000 0.117162 15.491 0.993090 -90.72 0.993090 -90.72 0.117123 -16.94
9.02760000 0.117245 15.567 0.993080 -90.73 0.993080 -90.73 0.117205 -17.04
9.02780000 0.117329 15.645 0.993070 -90.75 0.993070 -90.75 0.117289 -17.15
9.02800000 0.117415 15.723 0.993060 -90.76 0.993060 -90.76 0.117374 -17.25