! Sonnet Data File
! From: emgraph Version : 16.52
! From Project: Resonator2_extremeCap
! Data is De-embedded 
! Data File Written: 10/10/2017 20:29:22
!< HDATE 10/09/2017 23:04:37
!< MDATE 10/09/2017 23:04:37
!< PARAMS
!< Pwid1 = 2000.0
!< Pwid2 = 2000.0
!< Air_gap = 24.0
!< Width = 40.0
!< Gap = 13.0
!< END PARAMS
# GHZ S MA R 51.80000
8.98000000 0.073359 77.830 0.997264 -93.93 0.997264 -93.93 0.073302 -85.73
!< P1 F=8.98 Eeff=(6.44310582 -2.9702e-5) Z0=(50.4815179 1.16466e-4) R=0.0 C=0.0 
!< P2 F=8.98 Eeff=(6.44310582 -2.9702e-5) Z0=(50.4815179 1.16466e-4) R=0.0 C=0.0 
8.98010000 0.073505 77.917 0.997253 -93.94 0.997253 -93.94 0.073448 -85.84
8.98020000 0.073652 78.003 0.997242 -93.95 0.997242 -93.95 0.073594 -85.95
8.98030000 0.073799 78.090 0.997231 -93.96 0.997231 -93.96 0.073742 -86.06
8.98040000 0.073948 78.177 0.997219 -93.98 0.997219 -93.98 0.073890 -86.18
8.98050000 0.074097 78.263 0.997208 -93.99 0.997208 -93.99 0.074039 -86.29
8.98060000 0.074247 78.350 0.997197 -94.00 0.997197 -94.00 0.074189 -86.40
8.98070000 0.074398 78.437 0.997186 -94.01 0.997186 -94.01 0.074340 -86.51
8.98080000 0.074549 78.523 0.997174 -94.03 0.997174 -94.03 0.074491 -86.62
8.98090000 0.074702 78.609 0.997162 -94.04 0.997162 -94.04 0.074644 -86.73
8.98100000 0.074855 78.696 0.997151 -94.05 0.997151 -94.05 0.074797 -86.85
8.98110000 0.075009 78.782 0.997139 -94.06 0.997139 -94.06 0.074951 -86.96
8.98120000 0.075164 78.868 0.997127 -94.08 0.997127 -94.08 0.075105 -87.07
8.98130000 0.075319 78.954 0.997115 -94.09 0.997115 -94.09 0.075261 -87.18
8.98140000 0.075476 79.040 0.997103 -94.10 0.997103 -94.10 0.075417 -87.29
8.98150000 0.075633 79.126 0.997091 -94.11 0.997091 -94.11 0.075574 -87.40
8.98160000 0.075791 79.212 0.997079 -94.13 0.997079 -94.13 0.075732 -87.52
8.98170000 0.075950 79.298 0.997067 -94.14 0.997067 -94.14 0.075891 -87.63
8.98180000 0.076110 79.383 0.997055 -94.15 0.997055 -94.15 0.076051 -87.74
8.98190000 0.076270 79.469 0.997042 -94.17 0.997042 -94.17 0.076211 -87.85
8.98200000 0.076432 79.554 0.997030 -94.18 0.997030 -94.18 0.076373 -87.96
8.98210000 0.076594 79.640 0.997017 -94.19 0.997017 -94.19 0.076535 -88.07
8.98220000 0.076757 79.725 0.997004 -94.21 0.997004 -94.21 0.076698 -88.19
8.98230000 0.076921 79.811 0.996992 -94.22 0.996992 -94.22 0.076862 -88.30
8.98240000 0.077086 79.896 0.996979 -94.23 0.996979 -94.23 0.077027 -88.41
8.98250000 0.077252 79.981 0.996966 -94.24 0.996966 -94.24 0.077192 -88.52
8.98260000 0.077418 80.066 0.996953 -94.26 0.996953 -94.26 0.077359 -88.63
8.98270000 0.077586 80.151 0.996939 -94.27 0.996939 -94.27 0.077526 -88.75
8.98280000 0.077754 80.236 0.996926 -94.29 0.996926 -94.29 0.077694 -88.86
8.98290000 0.077924 80.321 0.996913 -94.30 0.996913 -94.30 0.077864 -88.97
8.98300000 0.078094 80.406 0.996899 -94.31 0.996899 -94.31 0.078034 -89.08
8.98310000 0.078265 80.490 0.996886 -94.33 0.996886 -94.33 0.078205 -89.19
8.98320000 0.078437 80.575 0.996872 -94.34 0.996872 -94.34 0.078377 -89.31
8.98330000 0.078610 80.660 0.996858 -94.35 0.996858 -94.35 0.078549 -89.42
8.98340000 0.078784 80.744 0.996844 -94.37 0.996844 -94.37 0.078723 -89.53
8.98350000 0.078958 80.828 0.996830 -94.38 0.996830 -94.38 0.078898 -89.64
8.98360000 0.079134 80.913 0.996816 -94.39 0.996816 -94.39 0.079073 -89.75
8.98370000 0.079311 80.997 0.996802 -94.41 0.996802 -94.41 0.079250 -89.87
8.98380000 0.079488 81.081 0.996788 -94.42 0.996788 -94.42 0.079427 -89.98
8.98390000 0.079667 81.165 0.996773 -94.44 0.996773 -94.44 0.079606 -90.09
8.98400000 0.079846 81.249 0.996759 -94.45 0.996759 -94.45 0.079785 -90.20
8.98410000 0.080027 81.332 0.996744 -94.46 0.996744 -94.46 0.079965 -90.31
8.98420000 0.080208 81.416 0.996729 -94.48 0.996729 -94.48 0.080147 -90.43
8.98430000 0.080390 81.500 0.996714 -94.49 0.996714 -94.49 0.080329 -90.54
8.98440000 0.080574 81.583 0.996699 -94.51 0.996699 -94.51 0.080512 -90.65
8.98450000 0.080758 81.667 0.996684 -94.52 0.996684 -94.52 0.080696 -90.76
8.98460000 0.080943 81.750 0.996669 -94.54 0.996669 -94.54 0.080882 -90.88
8.98470000 0.081130 81.833 0.996654 -94.55 0.996654 -94.55 0.081068 -90.99
8.98480000 0.081317 81.916 0.996638 -94.56 0.996638 -94.56 0.081255 -91.10
8.98490000 0.081505 81.999 0.996623 -94.58 0.996623 -94.58 0.081443 -91.21
8.98500000 0.081695 82.082 0.996607 -94.59 0.996607 -94.59 0.081632 -91.32
8.98510000 0.081885 82.165 0.996591 -94.61 0.996591 -94.61 0.081823 -91.44
8.98520000 0.082076 82.248 0.996575 -94.62 0.996575 -94.62 0.082014 -91.55
8.98530000 0.082269 82.330 0.996559 -94.64 0.996559 -94.64 0.082206 -91.66
8.98540000 0.082462 82.413 0.996543 -94.65 0.996543 -94.65 0.082399 -91.77
8.98550000 0.082656 82.495 0.996527 -94.67 0.996527 -94.67 0.082594 -91.89
8.98560000 0.082852 82.577 0.996510 -94.68 0.996510 -94.68 0.082789 -92.00
8.98570000 0.083048 82.660 0.996494 -94.70 0.996494 -94.70 0.082986 -92.11
8.98580000 0.083246 82.742 0.996477 -94.71 0.996477 -94.71 0.083183 -92.22
8.98590000 0.083445 82.824 0.996460 -94.73 0.996460 -94.73 0.083382 -92.34
8.98600000 0.083645 82.905 0.996443 -94.74 0.996443 -94.74 0.083581 -92.45
8.98610000 0.083845 82.987 0.996426 -94.76 0.996426 -94.76 0.083782 -92.56
8.98620000 0.084047 83.069 0.996409 -94.77 0.996409 -94.77 0.083984 -92.67
8.98630000 0.084250 83.150 0.996391 -94.79 0.996391 -94.79 0.084187 -92.78
8.98640000 0.084454 83.232 0.996374 -94.80 0.996374 -94.80 0.084391 -92.90
8.98650000 0.084660 83.313 0.996356 -94.82 0.996356 -94.82 0.084596 -93.01
8.98660000 0.084866 83.394 0.996339 -94.83 0.996339 -94.83 0.084802 -93.12
8.98670000 0.085073 83.475 0.996321 -94.85 0.996321 -94.85 0.085009 -93.23
8.98680000 0.085282 83.556 0.996303 -94.87 0.996303 -94.87 0.085218 -93.35
8.98690000 0.085492 83.637 0.996284 -94.88 0.996284 -94.88 0.085427 -93.46
8.98700000 0.085702 83.718 0.996266 -94.90 0.996266 -94.90 0.085638 -93.57
8.98710000 0.085914 83.798 0.996248 -94.91 0.996248 -94.91 0.085850 -93.68
8.98720000 0.086128 83.879 0.996229 -94.93 0.996229 -94.93 0.086063 -93.80
8.98730000 0.086342 83.959 0.996210 -94.95 0.996210 -94.95 0.086277 -93.91
8.98740000 0.086557 84.039 0.996191 -94.96 0.996191 -94.96 0.086492 -94.02
8.98750000 0.086774 84.119 0.996172 -94.98 0.996172 -94.98 0.086709 -94.13
8.98760000 0.086992 84.199 0.996153 -94.99 0.996153 -94.99 0.086927 -94.25
8.98770000 0.087211 84.279 0.996134 -95.01 0.996134 -95.01 0.087146 -94.36
8.98780000 0.087431 84.359 0.996114 -95.03 0.996114 -95.03 0.087366 -94.47
8.98790000 0.087653 84.438 0.996094 -95.04 0.996094 -95.04 0.087587 -94.58
8.98800000 0.087875 84.518 0.996075 -95.06 0.996075 -95.06 0.087810 -94.70
8.98810000 0.088099 84.597 0.996055 -95.08 0.996055 -95.08 0.088033 -94.81
8.98820000 0.088324 84.676 0.996034 -95.09 0.996034 -95.09 0.088258 -94.92
8.98830000 0.088551 84.755 0.996014 -95.11 0.996014 -95.11 0.088485 -95.03
8.98840000 0.088778 84.834 0.995994 -95.13 0.995994 -95.13 0.088712 -95.15
8.98850000 0.089007 84.913 0.995973 -95.14 0.995973 -95.14 0.088941 -95.26
8.98860000 0.089237 84.992 0.995952 -95.16 0.995952 -95.16 0.089171 -95.37
8.98870000 0.089468 85.070 0.995931 -95.18 0.995931 -95.18 0.089402 -95.48
8.98880000 0.089701 85.149 0.995910 -95.19 0.995910 -95.19 0.089635 -95.60
8.98890000 0.089935 85.227 0.995889 -95.21 0.995889 -95.21 0.089868 -95.71
8.98900000 0.090170 85.305 0.995867 -95.23 0.995867 -95.23 0.090103 -95.82
8.98910000 0.090407 85.383 0.995845 -95.24 0.995845 -95.24 0.090340 -95.93
8.98920000 0.090645 85.461 0.995823 -95.26 0.995823 -95.26 0.090578 -96.05
8.98930000 0.090884 85.539 0.995801 -95.28 0.995801 -95.28 0.090817 -96.16
8.98940000 0.091124 85.616 0.995779 -95.30 0.995779 -95.30 0.091057 -96.27
8.98950000 0.091366 85.694 0.995757 -95.31 0.995757 -95.31 0.091299 -96.38
8.98960000 0.091609 85.771 0.995734 -95.33 0.995734 -95.33 0.091542 -96.50
8.98970000 0.091854 85.848 0.995711 -95.35 0.995711 -95.35 0.091786 -96.61
8.98980000 0.092100 85.925 0.995688 -95.37 0.995688 -95.37 0.092032 -96.72
8.98990000 0.092347 86.002 0.995665 -95.38 0.995665 -95.38 0.092279 -96.83
8.99000000 0.092596 86.079 0.995642 -95.40 0.995642 -95.40 0.092528 -96.95
8.99010000 0.092846 86.155 0.995618 -95.42 0.995618 -95.42 0.092778 -97.06
8.99020000 0.093097 86.232 0.995595 -95.44 0.995595 -95.44 0.093029 -97.17
8.99030000 0.093350 86.308 0.995571 -95.46 0.995571 -95.46 0.093282 -97.29
8.99040000 0.093604 86.384 0.995546 -95.47 0.995546 -95.47 0.093536 -97.40
8.99050000 0.093860 86.460 0.995522 -95.49 0.995522 -95.49 0.093791 -97.51
8.99060000 0.094117 86.536 0.995498 -95.51 0.995498 -95.51 0.094048 -97.62
8.99070000 0.094376 86.611 0.995473 -95.53 0.995473 -95.53 0.094307 -97.74
8.99080000 0.094636 86.687 0.995448 -95.55 0.995448 -95.55 0.094567 -97.85
8.99090000 0.094897 86.762 0.995423 -95.57 0.995423 -95.57 0.094828 -97.96
8.99100000 0.095160 86.837 0.995397 -95.59 0.995397 -95.59 0.095091 -98.07
8.99110000 0.095425 86.912 0.995372 -95.60 0.995372 -95.60 0.095355 -98.19
8.99120000 0.095691 86.987 0.995346 -95.62 0.995346 -95.62 0.095621 -98.30
8.99130000 0.095958 87.062 0.995320 -95.64 0.995320 -95.64 0.095888 -98.41
8.99140000 0.096227 87.136 0.995293 -95.66 0.995293 -95.66 0.096157 -98.52
8.99150000 0.096498 87.211 0.995267 -95.68 0.995267 -95.68 0.096428 -98.64
8.99160000 0.096770 87.285 0.995240 -95.70 0.995240 -95.70 0.096700 -98.75
8.99170000 0.097043 87.359 0.995213 -95.72 0.995213 -95.72 0.096973 -98.86
8.99180000 0.097318 87.433 0.995186 -95.74 0.995186 -95.74 0.097248 -98.98
8.99190000 0.097595 87.507 0.995159 -95.76 0.995159 -95.76 0.097525 -99.09
8.99200000 0.097874 87.580 0.995131 -95.78 0.995131 -95.78 0.097803 -99.20
8.99210000 0.098153 87.654 0.995103 -95.80 0.995103 -95.80 0.098083 -99.31
8.99220000 0.098435 87.727 0.995075 -95.82 0.995075 -95.82 0.098364 -99.43
8.99230000 0.098718 87.800 0.995047 -95.84 0.995047 -95.84 0.098647 -99.54
8.99240000 0.099003 87.873 0.995018 -95.86 0.995018 -95.86 0.098932 -99.65
8.99250000 0.099289 87.945 0.994989 -95.88 0.994989 -95.88 0.099218 -99.77
8.99260000 0.099577 88.018 0.994960 -95.90 0.994960 -95.90 0.099506 -99.88
8.99270000 0.099867 88.090 0.994931 -95.92 0.994931 -95.92 0.099796 -99.99
8.99280000 0.100158 88.162 0.994901 -95.94 0.994901 -95.94 0.100087 -100.1
8.99290000 0.100451 88.234 0.994871 -95.96 0.994871 -95.96 0.100380 -100.2
8.99300000 0.100746 88.306 0.994841 -95.98 0.994841 -95.98 0.100674 -100.3
8.99310000 0.101043 88.378 0.994811 -96.00 0.994811 -96.00 0.100971 -100.4
8.99320000 0.101341 88.449 0.994780 -96.02 0.994780 -96.02 0.101269 -100.6
8.99330000 0.101641 88.521 0.994749 -96.04 0.994749 -96.04 0.101568 -100.7
8.99340000 0.101942 88.592 0.994718 -96.06 0.994718 -96.06 0.101870 -100.8
8.99350000 0.102246 88.663 0.994686 -96.08 0.994686 -96.08 0.102173 -100.9
8.99360000 0.102551 88.733 0.994655 -96.10 0.994655 -96.10 0.102478 -101.0
8.99370000 0.102858 88.804 0.994623 -96.12 0.994623 -96.12 0.102785 -101.1
8.99380000 0.103167 88.874 0.994590 -96.14 0.994590 -96.14 0.103094 -101.2
8.99390000 0.103477 88.944 0.994558 -96.17 0.994558 -96.17 0.103404 -101.3
8.99400000 0.103790 89.014 0.994525 -96.19 0.994525 -96.19 0.103716 -101.5
8.99410000 0.104104 89.084 0.994492 -96.21 0.994492 -96.21 0.104031 -101.6
8.99420000 0.104420 89.154 0.994458 -96.23 0.994458 -96.23 0.104347 -101.7
8.99430000 0.104738 89.223 0.994424 -96.25 0.994424 -96.25 0.104664 -101.8
8.99440000 0.105058 89.292 0.994390 -96.27 0.994390 -96.27 0.104984 -101.9
8.99450000 0.105380 89.361 0.994356 -96.30 0.994356 -96.30 0.105306 -102.0
8.99460000 0.105703 89.430 0.994321 -96.32 0.994321 -96.32 0.105629 -102.1
8.99470000 0.106029 89.499 0.994286 -96.34 0.994286 -96.34 0.105954 -102.3
8.99480000 0.106356 89.567 0.994251 -96.36 0.994251 -96.36 0.106282 -102.4
8.99490000 0.106686 89.636 0.994215 -96.38 0.994215 -96.38 0.106611 -102.5
8.99500000 0.107017 89.704 0.994179 -96.41 0.994179 -96.41 0.106942 -102.6
8.99510000 0.107350 89.771 0.994143 -96.43 0.994143 -96.43 0.107275 -102.7
8.99520000 0.107686 89.839 0.994106 -96.45 0.994106 -96.45 0.107611 -102.8
8.99530000 0.108023 89.906 0.994069 -96.47 0.994069 -96.47 0.107948 -102.9
8.99540000 0.108362 89.974 0.994032 -96.50 0.994032 -96.50 0.108287 -103.0
8.99550000 0.108704 90.041 0.993994 -96.52 0.993994 -96.52 0.108628 -103.2
8.99560000 0.109047 90.107 0.993956 -96.54 0.993956 -96.54 0.108971 -103.3
8.99570000 0.109393 90.174 0.993918 -96.57 0.993918 -96.57 0.109317 -103.4
8.99580000 0.109740 90.240 0.993879 -96.59 0.993879 -96.59 0.109664 -103.5
8.99590000 0.110090 90.307 0.993840 -96.61 0.993840 -96.61 0.110014 -103.6
8.99600000 0.110442 90.373 0.993800 -96.64 0.993800 -96.64 0.110365 -103.7
8.99610000 0.110796 90.438 0.993761 -96.66 0.993761 -96.66 0.110719 -103.8
8.99620000 0.111152 90.504 0.993720 -96.69 0.993720 -96.69 0.111075 -104.0
8.99630000 0.111510 90.569 0.993680 -96.71 0.993680 -96.71 0.111433 -104.1
8.99640000 0.111870 90.634 0.993639 -96.73 0.993639 -96.73 0.111793 -104.2
8.99650000 0.112233 90.699 0.993598 -96.76 0.993598 -96.76 0.112156 -104.3
8.99660000 0.112598 90.764 0.993556 -96.78 0.993556 -96.78 0.112521 -104.4
8.99670000 0.112965 90.828 0.993514 -96.81 0.993514 -96.81 0.112887 -104.5
8.99680000 0.113334 90.893 0.993471 -96.83 0.993471 -96.83 0.113257 -104.6
8.99690000 0.113706 90.957 0.993428 -96.86 0.993428 -96.86 0.113628 -104.7
8.99700000 0.114079 91.020 0.993385 -96.88 0.993385 -96.88 0.114002 -104.9
8.99710000 0.114456 91.084 0.993341 -96.91 0.993341 -96.91 0.114378 -105.0
8.99720000 0.114834 91.147 0.993297 -96.93 0.993297 -96.93 0.114756 -105.1
8.99730000 0.115215 91.210 0.993253 -96.96 0.993253 -96.96 0.115137 -105.2
8.99740000 0.115598 91.273 0.993208 -96.98 0.993208 -96.98 0.115520 -105.3
8.99750000 0.115984 91.336 0.993162 -97.01 0.993162 -97.01 0.115905 -105.4
8.99760000 0.116371 91.398 0.993116 -97.03 0.993116 -97.03 0.116293 -105.5
8.99770000 0.116762 91.460 0.993070 -97.06 0.993070 -97.06 0.116683 -105.7
8.99780000 0.117155 91.522 0.993023 -97.09 0.993023 -97.09 0.117075 -105.8
8.99790000 0.117550 91.584 0.992976 -97.11 0.992976 -97.11 0.117470 -105.9
8.99800000 0.117947 91.645 0.992928 -97.14 0.992928 -97.14 0.117868 -106.0
8.99810000 0.118348 91.707 0.992880 -97.16 0.992880 -97.16 0.118268 -106.1
8.99820000 0.118750 91.768 0.992832 -97.19 0.992832 -97.19 0.118670 -106.2
8.99830000 0.119155 91.828 0.992783 -97.22 0.992783 -97.22 0.119076 -106.3
8.99840000 0.119563 91.889 0.992733 -97.24 0.992733 -97.24 0.119483 -106.5
8.99850000 0.119974 91.949 0.992683 -97.27 0.992683 -97.27 0.119893 -106.6
8.99860000 0.120387 92.009 0.992633 -97.30 0.992633 -97.30 0.120306 -106.7
8.99870000 0.120802 92.069 0.992582 -97.33 0.992582 -97.33 0.120721 -106.8
8.99880000 0.121220 92.128 0.992530 -97.35 0.992530 -97.35 0.121139 -106.9
8.99890000 0.121641 92.188 0.992478 -97.38 0.992478 -97.38 0.121560 -107.0
8.99900000 0.122065 92.247 0.992426 -97.41 0.992426 -97.41 0.121983 -107.1
8.99910000 0.122491 92.305 0.992373 -97.44 0.992373 -97.44 0.122409 -107.3
8.99920000 0.122920 92.364 0.992319 -97.46 0.992319 -97.46 0.122838 -107.4
8.99930000 0.123351 92.422 0.992265 -97.49 0.992265 -97.49 0.123270 -107.5
8.99940000 0.123786 92.480 0.992210 -97.52 0.992210 -97.52 0.123704 -107.6
8.99950000 0.124223 92.538 0.992155 -97.55 0.992155 -97.55 0.124141 -107.7
8.99960000 0.124663 92.595 0.992099 -97.58 0.992099 -97.58 0.124581 -107.8
8.99970000 0.125106 92.652 0.992043 -97.61 0.992043 -97.61 0.125024 -108.0
8.99980000 0.125552 92.709 0.991986 -97.64 0.991986 -97.64 0.125469 -108.1
8.99990000 0.126001 92.766 0.991929 -97.67 0.991929 -97.67 0.125918 -108.2
9.00000000 0.126452 92.822 0.991871 -97.69 0.991871 -97.69 0.126369 -108.3
9.00010000 0.126907 92.878 0.991812 -97.72 0.991812 -97.72 0.126824 -108.4
9.00020000 0.127364 92.934 0.991753 -97.75 0.991753 -97.75 0.127281 -108.5
9.00030000 0.127825 92.990 0.991693 -97.78 0.991693 -97.78 0.127741 -108.6
9.00040000 0.128288 93.045 0.991632 -97.81 0.991632 -97.81 0.128204 -108.8
9.00050000 0.128755 93.100 0.991571 -97.84 0.991571 -97.84 0.128671 -108.9
9.00060000 0.129224 93.155 0.991510 -97.87 0.991510 -97.87 0.129140 -109.0
9.00070000 0.129697 93.209 0.991447 -97.90 0.991447 -97.90 0.129613 -109.1
9.00080000 0.130173 93.263 0.991384 -97.94 0.991384 -97.94 0.130088 -109.2
9.00090000 0.130652 93.317 0.991321 -97.97 0.991321 -97.97 0.130567 -109.3
9.00100000 0.131134 93.371 0.991256 -98.00 0.991256 -98.00 0.131049 -109.5
9.00110000 0.131619 93.424 0.991191 -98.03 0.991191 -98.03 0.131534 -109.6
9.00120000 0.132108 93.477 0.991126 -98.06 0.991126 -98.06 0.132022 -109.7
9.00130000 0.132600 93.530 0.991059 -98.09 0.991059 -98.09 0.132514 -109.8
9.00140000 0.133095 93.582 0.990992 -98.12 0.990992 -98.12 0.133009 -109.9
9.00150000 0.133593 93.634 0.990925 -98.16 0.990925 -98.16 0.133507 -110.0
9.00160000 0.134095 93.686 0.990856 -98.19 0.990856 -98.19 0.134009 -110.2
9.00170000 0.134600 93.738 0.990787 -98.22 0.990787 -98.22 0.134514 -110.3
9.00180000 0.135109 93.789 0.990717 -98.25 0.990717 -98.25 0.135022 -110.4
9.00190000 0.135621 93.840 0.990646 -98.29 0.990646 -98.29 0.135534 -110.5
9.00200000 0.136136 93.890 0.990575 -98.32 0.990575 -98.32 0.136049 -110.6
9.00210000 0.136655 93.941 0.990503 -98.35 0.990503 -98.35 0.136568 -110.7
9.00220000 0.137178 93.991 0.990430 -98.39 0.990430 -98.39 0.137090 -110.9
9.00230000 0.137704 94.040 0.990356 -98.42 0.990356 -98.42 0.137616 -111.0
9.00240000 0.138233 94.090 0.990282 -98.45 0.990282 -98.45 0.138146 -111.1
9.00250000 0.138767 94.139 0.990206 -98.49 0.990206 -98.49 0.138679 -111.2
9.00260000 0.139304 94.187 0.990130 -98.52 0.990130 -98.52 0.139215 -111.3
9.00270000 0.139844 94.236 0.990053 -98.56 0.990053 -98.56 0.139756 -111.4
9.00280000 0.140389 94.284 0.989975 -98.59 0.989975 -98.59 0.140300 -111.6
9.00290000 0.140937 94.332 0.989897 -98.63 0.989897 -98.63 0.140848 -111.7
9.00300000 0.141489 94.379 0.989817 -98.66 0.989817 -98.66 0.141400 -111.8
9.00310000 0.142045 94.426 0.989737 -98.70 0.989737 -98.70 0.141955 -111.9
9.00320000 0.142604 94.473 0.989656 -98.73 0.989656 -98.73 0.142515 -112.0
9.00330000 0.143168 94.519 0.989573 -98.77 0.989573 -98.77 0.143078 -112.1
9.00340000 0.143735 94.565 0.989490 -98.80 0.989490 -98.80 0.143645 -112.3
9.00350000 0.144307 94.611 0.989406 -98.84 0.989406 -98.84 0.144217 -112.4
9.00360000 0.144882 94.657 0.989321 -98.88 0.989321 -98.88 0.144792 -112.5
9.00370000 0.145462 94.702 0.989236 -98.91 0.989236 -98.91 0.145371 -112.6
9.00380000 0.146046 94.746 0.989149 -98.95 0.989149 -98.95 0.145955 -112.7
9.00390000 0.146634 94.791 0.989061 -98.99 0.989061 -98.99 0.146542 -112.9
9.00400000 0.147226 94.835 0.988972 -99.02 0.988972 -99.02 0.147134 -113.0
9.00410000 0.147822 94.878 0.988882 -99.06 0.988882 -99.06 0.147730 -113.1
9.00420000 0.148422 94.922 0.988792 -99.10 0.988792 -99.10 0.148330 -113.2
9.00430000 0.149027 94.965 0.988700 -99.14 0.988700 -99.14 0.148935 -113.3
9.00440000 0.149636 95.007 0.988607 -99.18 0.988607 -99.18 0.149544 -113.5
9.00450000 0.150250 95.050 0.988513 -99.21 0.988513 -99.21 0.150157 -113.6
9.00460000 0.150867 95.091 0.988418 -99.25 0.988418 -99.25 0.150775 -113.7
9.00470000 0.151490 95.133 0.988322 -99.29 0.988322 -99.29 0.151397 -113.8
9.00480000 0.152117 95.174 0.988225 -99.33 0.988225 -99.33 0.152023 -113.9
9.00490000 0.152748 95.215 0.988126 -99.37 0.988126 -99.37 0.152655 -114.1
9.00500000 0.153384 95.255 0.988027 -99.41 0.988027 -99.41 0.153290 -114.2
9.00510000 0.154025 95.295 0.987926 -99.45 0.987926 -99.45 0.153931 -114.3
9.00520000 0.154670 95.335 0.987824 -99.49 0.987824 -99.49 0.154576 -114.4
9.00530000 0.155320 95.374 0.987721 -99.53 0.987721 -99.53 0.155226 -114.5
9.00540000 0.155975 95.413 0.987617 -99.57 0.987617 -99.57 0.155880 -114.7
9.00550000 0.156635 95.451 0.987512 -99.62 0.987512 -99.62 0.156540 -114.8
9.00560000 0.157300 95.489 0.987405 -99.66 0.987405 -99.66 0.157204 -114.9
9.00570000 0.157969 95.527 0.987297 -99.70 0.987297 -99.70 0.157874 -115.0
9.00580000 0.158644 95.564 0.987188 -99.74 0.987188 -99.74 0.158548 -115.2
9.00590000 0.159323 95.601 0.987078 -99.78 0.987078 -99.78 0.159227 -115.3
9.00600000 0.160008 95.637 0.986966 -99.83 0.986966 -99.83 0.159912 -115.4
9.00610000 0.160698 95.673 0.986853 -99.87 0.986853 -99.87 0.160601 -115.5
9.00620000 0.161393 95.709 0.986738 -99.91 0.986738 -99.91 0.161296 -115.6
9.00630000 0.162093 95.744 0.986622 -99.96 0.986622 -99.96 0.161996 -115.8
9.00640000 0.162799 95.779 0.986505 -100.0 0.986505 -100.0 0.162701 -115.9
9.00650000 0.163509 95.813 0.986386 -100.0 0.986386 -100.0 0.163412 -116.0
9.00660000 0.164226 95.847 0.986266 -100.1 0.986266 -100.1 0.164128 -116.1
9.00670000 0.164947 95.881 0.986145 -100.1 0.986145 -100.1 0.164849 -116.3
9.00680000 0.165675 95.914 0.986022 -100.2 0.986022 -100.2 0.165576 -116.4
9.00690000 0.166408 95.946 0.985897 -100.2 0.985897 -100.2 0.166309 -116.5
9.00700000 0.167146 95.978 0.985771 -100.3 0.985771 -100.3 0.167047 -116.6
9.00710000 0.167890 96.010 0.985643 -100.3 0.985643 -100.3 0.167791 -116.8
9.00720000 0.168640 96.041 0.985514 -100.4 0.985514 -100.4 0.168541 -116.9
9.00730000 0.169396 96.072 0.985383 -100.4 0.985383 -100.4 0.169296 -117.0
9.00740000 0.170158 96.103 0.985251 -100.5 0.985251 -100.5 0.170057 -117.1
9.00750000 0.170925 96.133 0.985117 -100.5 0.985117 -100.5 0.170825 -117.3
9.00760000 0.171699 96.162 0.984981 -100.6 0.984981 -100.6 0.171598 -117.4
9.00770000 0.172479 96.191 0.984843 -100.6 0.984843 -100.6 0.172377 -117.5
9.00780000 0.173264 96.219 0.984704 -100.7 0.984704 -100.7 0.173163 -117.6
9.00790000 0.174056 96.247 0.984563 -100.7 0.984563 -100.7 0.173955 -117.8
9.00800000 0.174855 96.275 0.984420 -100.8 0.984420 -100.8 0.174753 -117.9
9.00810000 0.175659 96.302 0.984276 -100.8 0.984276 -100.8 0.175557 -118.0
9.00820000 0.176470 96.329 0.984129 -100.9 0.984129 -100.9 0.176368 -118.1
9.00830000 0.177288 96.355 0.983981 -100.9 0.983981 -100.9 0.177185 -118.3
9.00840000 0.178112 96.380 0.983831 -101.0 0.983831 -101.0 0.178009 -118.4
9.00850000 0.178943 96.405 0.983679 -101.0 0.983679 -101.0 0.178839 -118.5
9.00860000 0.179780 96.430 0.983525 -101.1 0.983525 -101.1 0.179676 -118.7
9.00870000 0.180624 96.454 0.983369 -101.1 0.983369 -101.1 0.180520 -118.8
9.00880000 0.181475 96.477 0.983211 -101.2 0.983211 -101.2 0.181371 -118.9
9.00890000 0.182333 96.500 0.983050 -101.2 0.983050 -101.2 0.182229 -119.0
9.00900000 0.183198 96.523 0.982888 -101.3 0.982888 -101.3 0.183093 -119.2
9.00910000 0.184070 96.545 0.982724 -101.3 0.982724 -101.3 0.183965 -119.3
9.00920000 0.184950 96.566 0.982557 -101.4 0.982557 -101.4 0.184844 -119.4
9.00930000 0.185836 96.587 0.982388 -101.4 0.982388 -101.4 0.185730 -119.6
9.00940000 0.186730 96.607 0.982217 -101.5 0.982217 -101.5 0.186623 -119.7
9.00950000 0.187631 96.627 0.982044 -101.5 0.982044 -101.5 0.187524 -119.8
9.00960000 0.188540 96.646 0.981868 -101.6 0.981868 -101.6 0.188433 -120.0
9.00970000 0.189456 96.665 0.981690 -101.7 0.981690 -101.7 0.189349 -120.1
9.00980000 0.190380 96.683 0.981510 -101.7 0.981510 -101.7 0.190272 -120.2
9.00990000 0.191312 96.700 0.981327 -101.8 0.981327 -101.8 0.191204 -120.4
9.01000000 0.192252 96.717 0.981142 -101.8 0.981142 -101.8 0.192143 -120.5
9.01010000 0.193199 96.734 0.980954 -101.9 0.980954 -101.9 0.193090 -120.6
9.01020000 0.194155 96.749 0.980764 -101.9 0.980764 -101.9 0.194045 -120.8
9.01030000 0.195118 96.765 0.980571 -102.0 0.980571 -102.0 0.195009 -120.9
9.01040000 0.196090 96.779 0.980375 -102.1 0.980375 -102.1 0.195980 -121.0
9.01050000 0.197071 96.793 0.980177 -102.1 0.980177 -102.1 0.196960 -121.2
9.01060000 0.198059 96.806 0.979976 -102.2 0.979976 -102.2 0.197949 -121.3
9.01070000 0.199057 96.819 0.979772 -102.2 0.979772 -102.2 0.198946 -121.4
9.01080000 0.200063 96.831 0.979565 -102.3 0.979565 -102.3 0.199951 -121.6
9.01090000 0.201077 96.843 0.979355 -102.4 0.979355 -102.4 0.200965 -121.7
9.01100000 0.202101 96.853 0.979143 -102.4 0.979143 -102.4 0.201988 -121.8
9.01110000 0.203133 96.863 0.978927 -102.5 0.978927 -102.5 0.203020 -122.0
9.01120000 0.204174 96.873 0.978709 -102.6 0.978709 -102.6 0.204061 -122.1
9.01130000 0.205225 96.882 0.978487 -102.6 0.978487 -102.6 0.205112 -122.3
9.01140000 0.206285 96.890 0.978262 -102.7 0.978262 -102.7 0.206171 -122.4
9.01150000 0.207354 96.897 0.978034 -102.8 0.978034 -102.8 0.207240 -122.5
9.01160000 0.208433 96.904 0.977803 -102.8 0.977803 -102.8 0.208318 -122.7
9.01170000 0.209521 96.910 0.977568 -102.9 0.977568 -102.9 0.209406 -122.8
9.01180000 0.210620 96.916 0.977330 -103.0 0.977330 -103.0 0.210504 -122.9
9.01190000 0.211728 96.920 0.977088 -103.0 0.977088 -103.0 0.211612 -123.1
9.01200000 0.212846 96.924 0.976843 -103.1 0.976843 -103.1 0.212729 -123.2
9.01210000 0.213974 96.928 0.976595 -103.2 0.976595 -103.2 0.213857 -123.4
9.01220000 0.215112 96.930 0.976342 -103.2 0.976342 -103.2 0.214995 -123.5
9.01230000 0.216261 96.932 0.976086 -103.3 0.976086 -103.3 0.216143 -123.7
9.01240000 0.217420 96.933 0.975827 -103.4 0.975827 -103.4 0.217302 -123.8
9.01250000 0.218590 96.933 0.975563 -103.4 0.975563 -103.4 0.218472 -123.9
9.01260000 0.219771 96.933 0.975295 -103.5 0.975295 -103.5 0.219652 -124.1
9.01270000 0.220962 96.932 0.975024 -103.6 0.975024 -103.6 0.220843 -124.2
9.01280000 0.222165 96.930 0.974748 -103.7 0.974748 -103.7 0.222045 -124.4
9.01290000 0.223379 96.927 0.974468 -103.7 0.974468 -103.7 0.223259 -124.5
9.01300000 0.224604 96.923 0.974184 -103.8 0.974184 -103.8 0.224483 -124.7
9.01310000 0.225841 96.919 0.973896 -103.9 0.973896 -103.9 0.225720 -124.8
9.01320000 0.227089 96.914 0.973603 -104.0 0.973603 -104.0 0.226967 -125.0
9.01330000 0.228349 96.908 0.973305 -104.0 0.973305 -104.0 0.228227 -125.1
9.01340000 0.229621 96.901 0.973004 -104.1 0.973004 -104.1 0.229499 -125.3
9.01350000 0.230905 96.893 0.972697 -104.2 0.972697 -104.2 0.230782 -125.4
9.01360000 0.232202 96.885 0.972386 -104.3 0.972386 -104.3 0.232078 -125.6
9.01370000 0.233511 96.875 0.972069 -104.4 0.972069 -104.4 0.233387 -125.7
9.01380000 0.234832 96.865 0.971748 -104.4 0.971748 -104.4 0.234708 -125.9
9.01390000 0.236166 96.854 0.971422 -104.5 0.971422 -104.5 0.236041 -126.0
9.01400000 0.237513 96.841 0.971091 -104.6 0.971091 -104.6 0.237388 -126.2
9.01410000 0.238874 96.828 0.970754 -104.7 0.970754 -104.7 0.238748 -126.3
9.01420000 0.240247 96.814 0.970412 -104.8 0.970412 -104.8 0.240121 -126.5
9.01430000 0.241634 96.799 0.970065 -104.8 0.970065 -104.8 0.241507 -126.6
9.01440000 0.243035 96.784 0.969712 -104.9 0.969712 -104.9 0.242907 -126.8
9.01450000 0.244449 96.767 0.969353 -105.0 0.969353 -105.0 0.244321 -127.0
9.01460000 0.245878 96.749 0.968989 -105.1 0.968989 -105.1 0.245749 -127.1
9.01470000 0.247320 96.730 0.968619 -105.2 0.968619 -105.2 0.247191 -127.3
9.01480000 0.248777 96.711 0.968242 -105.3 0.968242 -105.3 0.248648 -127.4
9.01490000 0.250249 96.690 0.967860 -105.4 0.967860 -105.4 0.250119 -127.6
9.01500000 0.251736 96.668 0.967471 -105.5 0.967471 -105.5 0.251605 -127.7
9.01510000 0.253237 96.645 0.967076 -105.6 0.967076 -105.6 0.253106 -127.9
9.01520000 0.254754 96.621 0.966674 -105.6 0.966674 -105.6 0.254622 -128.1
9.01530000 0.256286 96.596 0.966265 -105.7 0.966265 -105.7 0.256154 -128.2
9.01540000 0.257834 96.570 0.965850 -105.8 0.965850 -105.8 0.257702 -128.4
9.01550000 0.259398 96.543 0.965428 -105.9 0.965428 -105.9 0.259265 -128.6
9.01560000 0.260978 96.515 0.964998 -106.0 0.964998 -106.0 0.260844 -128.7
9.01570000 0.262574 96.486 0.964561 -106.1 0.964561 -106.1 0.262440 -128.9
9.01580000 0.264187 96.455 0.964117 -106.2 0.964117 -106.2 0.264052 -129.1
9.01590000 0.265817 96.424 0.963665 -106.3 0.963665 -106.3 0.265681 -129.2
9.01600000 0.267464 96.391 0.963206 -106.4 0.963206 -106.4 0.267327 -129.4
9.01610000 0.269128 96.357 0.962738 -106.5 0.962738 -106.5 0.268991 -129.6
9.01620000 0.270809 96.322 0.962263 -106.6 0.962263 -106.6 0.270672 -129.7
9.01630000 0.272509 96.285 0.961779 -106.7 0.961779 -106.7 0.272371 -129.9
9.01640000 0.274226 96.248 0.961286 -106.8 0.961286 -106.8 0.274087 -130.1
9.01650000 0.275962 96.209 0.960785 -106.9 0.960785 -106.9 0.275823 -130.3
9.01660000 0.277716 96.168 0.960276 -107.1 0.960276 -107.1 0.277576 -130.4
9.01670000 0.279490 96.127 0.959757 -107.2 0.959757 -107.2 0.279349 -130.6
9.01680000 0.281282 96.084 0.959229 -107.3 0.959229 -107.3 0.281141 -130.8
9.01690000 0.283094 96.040 0.958691 -107.4 0.958691 -107.4 0.282952 -131.0
9.01700000 0.284926 95.995 0.958144 -107.5 0.958144 -107.5 0.284783 -131.1
9.01710000 0.286777 95.948 0.957587 -107.6 0.957587 -107.6 0.286634 -131.3
9.01720000 0.288649 95.899 0.957019 -107.7 0.957019 -107.7 0.288505 -131.5
9.01730000 0.290542 95.850 0.956442 -107.8 0.956442 -107.8 0.290397 -131.7
9.01740000 0.292455 95.799 0.955854 -108.0 0.955854 -108.0 0.292310 -131.9
9.01750000 0.294390 95.746 0.955254 -108.1 0.955254 -108.1 0.294244 -132.1
9.01760000 0.296347 95.692 0.954644 -108.2 0.954644 -108.2 0.296200 -132.3
9.01770000 0.298325 95.637 0.954023 -108.3 0.954023 -108.3 0.298178 -132.4
9.01780000 0.300326 95.580 0.953390 -108.4 0.953390 -108.4 0.300177 -132.6
9.01790000 0.302349 95.521 0.952745 -108.6 0.952745 -108.6 0.302200 -132.8
9.01800000 0.304395 95.461 0.952088 -108.7 0.952088 -108.7 0.304245 -133.0
9.01810000 0.306464 95.399 0.951418 -108.8 0.951418 -108.8 0.306314 -133.2
9.01820000 0.308557 95.336 0.950736 -108.9 0.950736 -108.9 0.308406 -133.4
9.01830000 0.310674 95.271 0.950041 -109.1 0.950041 -109.1 0.310522 -133.6
9.01840000 0.312816 95.204 0.949332 -109.2 0.949332 -109.2 0.312663 -133.8
9.01850000 0.314982 95.135 0.948610 -109.3 0.948610 -109.3 0.314828 -134.0
9.01853385 0.315721 95.112 0.948362 -109.4 0.948362 -109.4 0.315567 -134.1
9.01860000 0.317173 95.065 0.947873 -109.5 0.947873 -109.5 0.317019 -134.2
9.01870000 0.319390 94.993 0.947123 -109.6 0.947123 -109.6 0.319235 -134.4
9.01880000 0.321633 94.920 0.946357 -109.7 0.946357 -109.7 0.321477 -134.6
9.01886005 0.322992 94.874 0.945890 -109.8 0.945890 -109.8 0.322836 -134.7
9.01890000 0.323902 94.844 0.945577 -109.9 0.945577 -109.9 0.323745 -134.8
9.01900000 0.326198 94.767 0.944781 -110.0 0.944781 -110.0 0.326040 -135.0