! Sonnet Data File
! From: emgraph Version : 16.52
! From Emgraph Data: Resonator3
! Data File Written: 10/04/2017 12:28:16
!< HDATE 10/04/2017 11:56:44
!< MDATE 10/04/2017 11:56:44
# GHZ S MA R 51.80000
8.00000000 0.002595 44.756 0.999995 -36.72 0.999995 -36.72 0.002595 61.857
!< P1 F=8.0 Eeff=(6.44905068 -2.9741e-5) Z0=(51.8075811 1.19494e-4) R=0.0 C=0.0 
!< P2 F=8.0 Eeff=(6.44905069 -2.9741e-5) Z0=(51.8075809 1.19494e-4) R=0.0 C=0.0 
8.01000000 0.002602 44.695 0.999995 -36.77 0.999995 -36.77 0.002602 61.825
8.02000000 0.002609 44.633 0.999995 -36.82 0.999995 -36.82 0.002609 61.793
8.03000000 0.002616 44.572 0.999995 -36.86 0.999995 -36.86 0.002617 61.761
8.04000000 0.002624 44.511 0.999995 -36.91 0.999995 -36.91 0.002624 61.729
8.05000000 0.002631 44.450 0.999994 -36.95 0.999994 -36.95 0.002632 61.697
8.06000000 0.002639 44.389 0.999994 -37.00 0.999994 -37.00 0.002640 61.665
8.07000000 0.002647 44.327 0.999994 -37.05 0.999994 -37.05 0.002647 61.633
8.08000000 0.002655 44.266 0.999994 -37.09 0.999994 -37.09 0.002655 61.601
8.09000000 0.002663 44.205 0.999994 -37.14 0.999994 -37.14 0.002663 61.570
8.10000000 0.002671 44.143 0.999994 -37.18 0.999994 -37.18 0.002671 61.538
8.11000000 0.002679 44.082 0.999994 -37.23 0.999994 -37.23 0.002680 61.507
8.12000000 0.002688 44.020 0.999994 -37.28 0.999994 -37.28 0.002688 61.475
8.13000000 0.002696 43.959 0.999994 -37.32 0.999994 -37.32 0.002697 61.444
8.14000000 0.002705 43.897 0.999994 -37.37 0.999994 -37.37 0.002705 61.413
8.15000000 0.002714 43.835 0.999994 -37.42 0.999994 -37.42 0.002714 61.382
8.16000000 0.002723 43.773 0.999994 -37.46 0.999994 -37.46 0.002723 61.351
8.17000000 0.002732 43.712 0.999993 -37.51 0.999993 -37.51 0.002732 61.320
8.18000000 0.002741 43.650 0.999993 -37.55 0.999993 -37.55 0.002741 61.289
8.19000000 0.002750 43.588 0.999993 -37.60 0.999993 -37.60 0.002751 61.258
8.20000000 0.002760 43.525 0.999993 -37.65 0.999993 -37.65 0.002760 61.227
8.21000000 0.002770 43.463 0.999993 -37.69 0.999993 -37.69 0.002770 61.197
8.22000000 0.002780 43.401 0.999993 -37.74 0.999993 -37.74 0.002780 61.166
8.23000000 0.002790 43.339 0.999993 -37.79 0.999993 -37.79 0.002790 61.136
8.24000000 0.002800 43.276 0.999993 -37.83 0.999993 -37.83 0.002801 61.106
8.25000000 0.002811 43.214 0.999993 -37.88 0.999993 -37.88 0.002811 61.076
8.26000000 0.002822 43.151 0.999993 -37.92 0.999993 -37.92 0.002822 61.046
8.27000000 0.002833 43.088 0.999993 -37.97 0.999993 -37.97 0.002833 61.016
8.28000000 0.002844 43.025 0.999993 -38.02 0.999993 -38.02 0.002844 60.986
8.29000000 0.002855 42.962 0.999993 -38.06 0.999993 -38.06 0.002856 60.956
8.30000000 0.002867 42.899 0.999993 -38.11 0.999993 -38.11 0.002868 60.927
8.31000000 0.002879 42.835 0.999993 -38.16 0.999993 -38.16 0.002880 60.897
8.32000000 0.002892 42.772 0.999993 -38.20 0.999993 -38.20 0.002892 60.868
8.33000000 0.002904 42.708 0.999993 -38.25 0.999993 -38.25 0.002905 60.839
8.34000000 0.002917 42.644 0.999993 -38.30 0.999993 -38.30 0.002917 60.809
8.35000000 0.002930 42.580 0.999993 -38.34 0.999993 -38.34 0.002931 60.781
8.36000000 0.002944 42.516 0.999993 -38.39 0.999993 -38.39 0.002944 60.752
8.37000000 0.002958 42.452 0.999993 -38.44 0.999993 -38.44 0.002958 60.723
8.38000000 0.002972 42.387 0.999993 -38.48 0.999993 -38.48 0.002973 60.694
8.39000000 0.002987 42.323 0.999993 -38.53 0.999993 -38.53 0.002987 60.666
8.40000000 0.003002 42.258 0.999993 -38.58 0.999993 -38.58 0.003003 60.638
8.41000000 0.003018 42.192 0.999993 -38.62 0.999993 -38.62 0.003018 60.610
8.42000000 0.003034 42.127 0.999993 -38.67 0.999993 -38.67 0.003034 60.582
8.43000000 0.003050 42.061 0.999993 -38.72 0.999993 -38.72 0.003051 60.554
8.44000000 0.003067 41.995 0.999993 -38.76 0.999993 -38.76 0.003068 60.527
8.45000000 0.003085 41.929 0.999993 -38.81 0.999993 -38.81 0.003085 60.499
8.46000000 0.003103 41.863 0.999993 -38.86 0.999993 -38.86 0.003104 60.472
8.47000000 0.003122 41.796 0.999993 -38.90 0.999993 -38.90 0.003122 60.445
8.48000000 0.003141 41.729 0.999993 -38.95 0.999993 -38.95 0.003142 60.419
8.49000000 0.003162 41.662 0.999993 -39.00 0.999993 -39.00 0.003162 60.392
8.50000000 0.003182 41.594 0.999993 -39.04 0.999993 -39.04 0.003183 60.366
8.51000000 0.003204 41.526 0.999992 -39.09 0.999992 -39.09 0.003205 60.340
8.52000000 0.003227 41.458 0.999992 -39.14 0.999992 -39.14 0.003227 60.314
8.53000000 0.003250 41.389 0.999992 -39.18 0.999992 -39.18 0.003250 60.288
8.54000000 0.003274 41.320 0.999992 -39.23 0.999992 -39.23 0.003275 60.263
8.55000000 0.003300 41.250 0.999992 -39.28 0.999992 -39.28 0.003300 60.238
8.56000000 0.003326 41.181 0.999992 -39.33 0.999992 -39.33 0.003326 60.213
8.57000000 0.003354 41.110 0.999992 -39.37 0.999992 -39.37 0.003354 60.189
8.58000000 0.003382 41.039 0.999992 -39.42 0.999992 -39.42 0.003383 60.165
8.59000000 0.003413 40.968 0.999992 -39.47 0.999992 -39.47 0.003413 60.141
8.60000000 0.003444 40.896 0.999992 -39.52 0.999992 -39.52 0.003445 60.118
8.61000000 0.003477 40.823 0.999992 -39.56 0.999992 -39.56 0.003478 60.095
8.62000000 0.003512 40.750 0.999992 -39.61 0.999992 -39.61 0.003513 60.072
8.63000000 0.003549 40.676 0.999992 -39.66 0.999992 -39.66 0.003550 60.050
8.64000000 0.003588 40.601 0.999992 -39.71 0.999992 -39.71 0.003589 60.028
8.65000000 0.003629 40.526 0.999991 -39.75 0.999991 -39.75 0.003630 60.007
8.66000000 0.003673 40.450 0.999991 -39.80 0.999991 -39.80 0.003673 59.986
8.67000000 0.003719 40.373 0.999991 -39.85 0.999991 -39.85 0.003719 59.966
8.68000000 0.003768 40.295 0.999991 -39.90 0.999991 -39.90 0.003768 59.946
8.69000000 0.003820 40.216 0.999991 -39.95 0.999991 -39.95 0.003821 59.927
8.70000000 0.003876 40.137 0.999991 -40.00 0.999991 -40.00 0.003877 59.908
8.71000000 0.003936 40.056 0.999990 -40.05 0.999990 -40.05 0.003937 59.890
8.72000000 0.004001 39.973 0.999990 -40.10 0.999990 -40.10 0.004001 59.873
8.73000000 0.004070 39.890 0.999990 -40.15 0.999990 -40.15 0.004071 59.856
8.74000000 0.004145 39.805 0.999989 -40.20 0.999989 -40.20 0.004146 59.840
8.74541095 0.004189 39.758 0.999989 -40.22 0.999989 -40.22 0.004189 59.832
8.75000000 0.004227 39.718 0.999989 -40.25 0.999989 -40.25 0.004227 59.825
8.75069791 0.004233 39.712 0.999989 -40.25 0.999989 -40.25 0.004233 59.824
8.75586372 0.004278 39.667 0.999989 -40.28 0.999989 -40.28 0.004278 59.816
8.76000000 0.004316 39.630 0.999989 -40.30 0.999989 -40.30 0.004316 59.810
8.76091117 0.004324 39.622 0.999989 -40.30 0.999989 -40.30 0.004325 59.809
8.76584296 0.004371 39.578 0.999989 -40.33 0.999989 -40.33 0.004372 59.802
8.77000000 0.004413 39.540 0.999988 -40.35 0.999988 -40.35 0.004413 59.797
8.77066175 0.004420 39.534 0.999988 -40.35 0.999988 -40.35 0.004420 59.796
8.77537012 0.004469 39.491 0.999988 -40.38 0.999988 -40.38 0.004469 59.790
8.77997060 0.004519 39.448 0.999988 -40.40 0.999988 -40.40 0.004520 59.784
8.78000000 0.004520 39.448 0.999988 -40.40 0.999988 -40.40 0.004520 59.784
8.78446567 0.004571 39.406 0.999988 -40.42 0.999988 -40.42 0.004571 59.779
8.78885774 0.004624 39.364 0.999987 -40.45 0.999987 -40.45 0.004624 59.773
8.79000000 0.004638 39.354 0.999987 -40.45 0.999987 -40.45 0.004638 59.772
8.79314917 0.004678 39.323 0.999987 -40.47 0.999987 -40.47 0.004678 59.769
8.79734226 0.004733 39.283 0.999987 -40.49 0.999987 -40.49 0.004733 59.764
8.80000000 0.004769 39.257 0.999987 -40.51 0.999987 -40.51 0.004769 59.761
8.80143928 0.004789 39.242 0.999987 -40.51 0.999987 -40.51 0.004790 59.760
8.80544242 0.004847 39.203 0.999986 -40.53 0.999986 -40.53 0.004847 59.756
8.80935383 0.004906 39.163 0.999986 -40.56 0.999986 -40.56 0.004906 59.752
8.81000000 0.004916 39.157 0.999986 -40.56 0.999986 -40.56 0.004916 59.751
8.81317562 0.004966 39.125 0.999986 -40.58 0.999986 -40.58 0.004966 59.748
8.81690984 0.005028 39.086 0.999985 -40.60 0.999985 -40.60 0.005028 59.745
8.82000000 0.005081 39.054 0.999985 -40.61 0.999985 -40.61 0.005081 59.742
8.82055849 0.005091 39.048 0.999985 -40.62 0.999985 -40.62 0.005091 59.741
8.82412353 0.005155 39.010 0.999985 -40.64 0.999985 -40.64 0.005156 59.738
8.82760689 0.005221 38.973 0.999984 -40.66 0.999984 -40.66 0.005222 59.735
8.83000000 0.005268 38.947 0.999984 -40.67 0.999984 -40.67 0.005269 59.734
8.83101043 0.005288 38.936 0.999984 -40.68 0.999984 -40.68 0.005289 59.733
8.83433598 0.005358 38.900 0.999984 -40.70 0.999984 -40.70 0.005358 59.730
8.83758533 0.005428 38.864 0.999983 -40.71 0.999983 -40.71 0.005429 59.728
8.84000000 0.005483 38.837 0.999983 -40.73 0.999983 -40.73 0.005483 59.726
8.84076023 0.005500 38.828 0.999983 -40.73 0.999983 -40.73 0.005501 59.725
8.84386238 0.005574 38.793 0.999982 -40.75 0.999982 -40.75 0.005575 59.723
8.84689344 0.005650 38.758 0.999982 -40.77 0.999982 -40.77 0.005650 59.721
8.84985506 0.005727 38.723 0.999981 -40.79 0.999981 -40.79 0.005728 59.719
8.85000000 0.005731 38.721 0.999981 -40.79 0.999981 -40.79 0.005732 59.719
8.85274881 0.005806 38.689 0.999981 -40.81 0.999981 -40.81 0.005807 59.717
8.85557625 0.005887 38.655 0.999980 -40.82 0.999980 -40.82 0.005888 59.715
8.85833891 0.005970 38.621 0.999980 -40.84 0.999980 -40.84 0.005971 59.714
8.86000000 0.006022 38.600 0.999980 -40.85 0.999980 -40.85 0.006022 59.713
8.86103826 0.006055 38.588 0.999979 -40.86 0.999979 -40.86 0.006055 59.712
8.86367576 0.006141 38.554 0.999979 -40.88 0.999979 -40.88 0.006142 59.710
8.86625283 0.006230 38.522 0.999978 -40.89 0.999978 -40.89 0.006231 59.709
8.86877084 0.006321 38.489 0.999978 -40.91 0.999978 -40.91 0.006321 59.707
8.87000000 0.006367 38.473 0.999977 -40.92 0.999977 -40.92 0.006367 59.706
8.87123116 0.006414 38.457 0.999977 -40.93 0.999977 -40.93 0.006414 59.705
8.87363511 0.006509 38.425 0.999976 -40.94 0.999976 -40.94 0.006509 59.704
8.87598396 0.006606 38.393 0.999976 -40.96 0.999976 -40.96 0.006606 59.702
8.87827900 0.006705 38.361 0.999975 -40.97 0.999975 -40.97 0.006706 59.700
8.88000000 0.006783 38.337 0.999974 -40.99 0.999974 -40.99 0.006784 59.699
8.88052145 0.006807 38.330 0.999974 -40.99 0.999974 -40.99 0.006808 59.698
8.88271252 0.006911 38.299 0.999973 -41.01 0.999973 -41.01 0.006912 59.697
8.88485338 0.007018 38.268 0.999973 -41.02 0.999973 -41.02 0.007019 59.695
8.88694519 0.007127 38.237 0.999972 -41.04 0.999972 -41.04 0.007128 59.693
8.88898906 0.007239 38.207 0.999971 -41.05 0.999971 -41.05 0.007239 59.691
8.89000000 0.007296 38.192 0.999971 -41.06 0.999971 -41.06 0.007296 59.690
8.89098611 0.007353 38.177 0.999970 -41.07 0.999970 -41.07 0.007354 59.689
8.89293739 0.007470 38.147 0.999969 -41.09 0.999969 -41.09 0.007470 59.687
8.89484396 0.007590 38.117 0.999968 -41.10 0.999968 -41.10 0.007590 59.685
8.89670685 0.007712 38.087 0.999967 -41.12 0.999967 -41.12 0.007713 59.682
8.89852704 0.007837 38.058 0.999966 -41.13 0.999966 -41.13 0.007838 59.680
8.90000000 0.007943 38.034 0.999965 -41.14 0.999965 -41.14 0.007944 59.677
8.90030554 0.007966 38.028 0.999965 -41.15 0.999965 -41.15 0.007966 59.677
8.90204327 0.008097 37.999 0.999964 -41.16 0.999964 -41.16 0.008097 59.674
8.90374120 0.008231 37.970 0.999963 -41.18 0.999963 -41.18 0.008232 59.671
8.90540021 0.008369 37.941 0.999962 -41.19 0.999962 -41.19 0.008369 59.668
8.90702121 0.008509 37.913 0.999960 -41.21 0.999960 -41.21 0.008510 59.665
8.90860507 0.008653 37.884 0.999959 -41.22 0.999959 -41.22 0.008654 59.662
8.91000000 0.008786 37.858 0.999958 -41.24 0.999958 -41.24 0.008787 59.658
8.91015264 0.008801 37.855 0.999958 -41.24 0.999958 -41.24 0.008801 59.658
8.91166474 0.008952 37.827 0.999956 -41.26 0.999956 -41.26 0.008952 59.654
8.91314220 0.009106 37.799 0.999955 -41.27 0.999955 -41.27 0.009107 59.650
8.91458580 0.009264 37.770 0.999953 -41.29 0.999953 -41.29 0.009265 59.646
8.91599632 0.009426 37.742 0.999952 -41.30 0.999952 -41.30 0.009427 59.642
8.91737453 0.009592 37.714 0.999950 -41.32 0.999950 -41.32 0.009592 59.637
8.91872115 0.009761 37.686 0.999948 -41.33 0.999948 -41.33 0.009762 59.632
8.92000000 0.009930 37.659 0.999946 -41.35 0.999946 -41.35 0.009930 59.627
8.92003692 0.009935 37.658 0.999946 -41.35 0.999946 -41.35 0.009935 59.627
8.92132254 0.010112 37.630 0.999944 -41.37 0.999944 -41.37 0.010113 59.621
8.92257870 0.010294 37.602 0.999942 -41.38 0.999942 -41.38 0.010294 59.616
8.92380607 0.010480 37.574 0.999940 -41.40 0.999940 -41.40 0.010481 59.610
8.92500533 0.010670 37.547 0.999938 -41.42 0.999938 -41.42 0.010671 59.604
8.92617710 0.010865 37.519 0.999936 -41.43 0.999936 -41.43 0.010866 59.597
8.92732202 0.011065 37.491 0.999933 -41.45 0.999933 -41.45 0.011065 59.590
8.92844071 0.011269 37.463 0.999931 -41.47 0.999931 -41.47 0.011270 59.583
8.92953377 0.011478 37.435 0.999928 -41.48 0.999928 -41.48 0.011479 59.576
8.93000000 0.011570 37.423 0.999927 -41.49 0.999927 -41.49 0.011571 59.572
8.93060178 0.011692 37.407 0.999926 -41.50 0.999926 -41.50 0.011693 59.568
8.93164532 0.011911 37.379 0.999923 -41.52 0.999923 -41.52 0.011912 59.560
8.93266494 0.012135 37.351 0.999920 -41.53 0.999920 -41.53 0.012136 59.551
8.93366121 0.012365 37.323 0.999917 -41.55 0.999917 -41.55 0.012366 59.543
8.93463464 0.012600 37.295 0.999914 -41.57 0.999914 -41.57 0.012601 59.533
8.93558577 0.012841 37.267 0.999911 -41.59 0.999911 -41.59 0.012841 59.524
8.93651511 0.013087 37.238 0.999907 -41.61 0.999907 -41.61 0.013087 59.514
8.93742315 0.013339 37.210 0.999904 -41.62 0.999904 -41.62 0.013340 59.504
8.93831038 0.013597 37.181 0.999900 -41.64 0.999900 -41.64 0.013598 59.493
8.93917728 0.013861 37.152 0.999896 -41.66 0.999896 -41.66 0.013862 59.482
8.94000000 0.014124 37.124 0.999892 -41.68 0.999892 -41.68 0.014124 59.470
8.94002433 0.014132 37.123 0.999892 -41.68 0.999892 -41.68 0.014132 59.470
8.94085196 0.014409 37.094 0.999888 -41.70 0.999888 -41.70 0.014409 59.458
8.94166062 0.014692 37.065 0.999883 -41.72 0.999883 -41.72 0.014693 59.446
8.94245076 0.014982 37.036 0.999878 -41.74 0.999878 -41.74 0.014983 59.433
8.94322279 0.015279 37.006 0.999874 -41.76 0.999874 -41.76 0.015280 59.419
8.94397714 0.015584 36.976 0.999868 -41.78 0.999868 -41.78 0.015584 59.406
8.94471419 0.015895 36.946 0.999863 -41.80 0.999863 -41.80 0.015896 59.391
8.94543436 0.016214 36.916 0.999858 -41.83 0.999858 -41.83 0.016214 59.376
8.94613803 0.016540 36.886 0.999852 -41.85 0.999852 -41.85 0.016541 59.361
8.94682557 0.016874 36.855 0.999846 -41.87 0.999846 -41.87 0.016875 59.345
8.94749736 0.017216 36.824 0.999839 -41.89 0.999839 -41.89 0.017217 59.329
8.94815376 0.017567 36.792 0.999833 -41.92 0.999833 -41.92 0.017568 59.312
8.94879511 0.017925 36.761 0.999826 -41.94 0.999826 -41.94 0.017926 59.294
8.94942177 0.018293 36.729 0.999819 -41.96 0.999819 -41.96 0.018293 59.276
8.95000000 0.018647 36.698 0.999812 -41.99 0.999812 -41.99 0.018648 59.259
8.95003407 0.018669 36.696 0.999811 -41.99 0.999811 -41.99 0.018669 59.258
8.95063234 0.019054 36.664 0.999803 -42.01 0.999803 -42.01 0.019054 59.238
8.95121690 0.019448 36.631 0.999795 -42.04 0.999795 -42.04 0.019449 59.219
8.95178807 0.019851 36.597 0.999786 -42.06 0.999786 -42.06 0.019852 59.198
8.95234615 0.020265 36.563 0.999777 -42.09 0.999777 -42.09 0.020265 59.177
8.95289144 0.020688 36.529 0.999768 -42.12 0.999768 -42.12 0.020688 59.155
8.95342424 0.021121 36.495 0.999758 -42.14 0.999758 -42.14 0.021122 59.133
8.95394483 0.021565 36.459 0.999748 -42.17 0.999748 -42.17 0.021565 59.110
8.95445349 0.022019 36.424 0.999737 -42.20 0.999737 -42.20 0.022020 59.086
8.95495049 0.022484 36.388 0.999726 -42.23 0.999726 -42.23 0.022485 59.062
8.95543611 0.022960 36.351 0.999714 -42.26 0.999714 -42.26 0.022961 59.036
8.95591060 0.023448 36.314 0.999702 -42.29 0.999702 -42.29 0.023449 59.010
8.95637421 0.023947 36.276 0.999689 -42.32 0.999689 -42.32 0.023948 58.984
8.95682721 0.024459 36.238 0.999675 -42.35 0.999675 -42.35 0.024460 58.956
8.95726982 0.024983 36.199 0.999661 -42.38 0.999661 -42.38 0.024983 58.928
8.95770229 0.025519 36.159 0.999647 -42.42 0.999647 -42.42 0.025520 58.899
8.95812486 0.026068 36.119 0.999631 -42.45 0.999631 -42.45 0.026069 58.869
8.95853774 0.026631 36.079 0.999615 -42.48 0.999615 -42.48 0.026632 58.838
8.95894115 0.027207 36.037 0.999598 -42.52 0.999598 -42.52 0.027208 58.807
8.95933533 0.027797 35.995 0.999580 -42.55 0.999580 -42.55 0.027798 58.774
8.95972047 0.028401 35.952 0.999562 -42.59 0.999562 -42.59 0.028402 58.741
8.96000000 0.028858 35.920 0.999548 -42.62 0.999548 -42.62 0.028858 58.715
8.96009679 0.029020 35.908 0.999542 -42.63 0.999542 -42.63 0.029020 58.706
8.96046449 0.029653 35.864 0.999522 -42.67 0.999522 -42.67 0.029654 58.671
8.96082376 0.030302 35.819 0.999501 -42.70 0.999501 -42.70 0.030303 58.635
8.96117479 0.030967 35.773 0.999479 -42.74 0.999479 -42.74 0.030968 58.597
8.96151779 0.031648 35.726 0.999455 -42.78 0.999455 -42.78 0.031649 58.559
8.96185292 0.032345 35.678 0.999431 -42.83 0.999431 -42.83 0.032346 58.520
8.96218038 0.033059 35.630 0.999406 -42.87 0.999406 -42.87 0.033060 58.479
8.96250033 0.033791 35.580 0.999379 -42.91 0.999379 -42.91 0.033792 58.438
8.96281295 0.034540 35.530 0.999351 -42.96 0.999351 -42.96 0.034541 58.395
8.96311841 0.035308 35.478 0.999322 -43.00 0.999322 -43.00 0.035309 58.352
8.96341687 0.036094 35.426 0.999291 -43.05 0.999291 -43.05 0.036095 58.307
8.96370849 0.036899 35.372 0.999259 -43.10 0.999259 -43.10 0.036900 58.261
8.96399343 0.037724 35.318 0.999225 -43.14 0.999225 -43.14 0.037725 58.213
8.96427183 0.038569 35.262 0.999190 -43.19 0.999190 -43.19 0.038570 58.165
8.96454386 0.039434 35.205 0.999153 -43.24 0.999153 -43.24 0.039435 58.115
8.96480966 0.040321 35.147 0.999115 -43.30 0.999115 -43.30 0.040322 58.064
8.96506936 0.041230 35.088 0.999074 -43.35 0.999074 -43.35 0.041231 58.011
8.96532312 0.042160 35.027 0.999032 -43.40 0.999032 -43.40 0.042161 57.957
8.96557106 0.043114 34.965 0.998987 -43.46 0.998987 -43.46 0.043115 57.902
8.96581332 0.044090 34.902 0.998941 -43.52 0.998941 -43.52 0.044091 57.845
8.96605003 0.045091 34.838 0.998892 -43.58 0.998892 -43.58 0.045092 57.787
8.96628131 0.046116 34.772 0.998841 -43.64 0.998841 -43.64 0.046117 57.727
8.96650729 0.047167 34.705 0.998787 -43.70 0.998787 -43.70 0.047168 57.666
8.96672810 0.048243 34.636 0.998731 -43.76 0.998731 -43.76 0.048244 57.603
8.96694385 0.049346 34.566 0.998672 -43.82 0.998672 -43.82 0.049347 57.538
8.96715465 0.050476 34.494 0.998610 -43.89 0.998610 -43.89 0.050477 57.472
8.96736062 0.051633 34.421 0.998545 -43.96 0.998545 -43.96 0.051635 57.404
8.96756188 0.052820 34.346 0.998477 -44.03 0.998477 -44.03 0.052821 57.334
8.96775852 0.054036 34.269 0.998406 -44.10 0.998406 -44.10 0.054037 57.263
8.96795065 0.055281 34.190 0.998332 -44.17 0.998332 -44.17 0.055282 57.190
8.96813839 0.056558 34.110 0.998253 -44.24 0.998253 -44.24 0.056559 57.114
8.96832182 0.057866 34.028 0.998171 -44.32 0.998171 -44.32 0.057867 57.037
8.96850105 0.059207 33.944 0.998085 -44.40 0.998085 -44.40 0.059208 56.958
8.96867617 0.060581 33.858 0.997995 -44.48 0.997995 -44.48 0.060582 56.877
8.96884728 0.061989 33.770 0.997900 -44.56 0.997900 -44.56 0.061990 56.793
8.96901447 0.063432 33.680 0.997801 -44.64 0.997801 -44.64 0.063433 56.708
8.96917783 0.064911 33.588 0.997697 -44.73 0.997697 -44.73 0.064912 56.620
8.96933744 0.066427 33.494 0.997588 -44.82 0.997588 -44.82 0.066429 56.530
8.96949340 0.067981 33.397 0.997473 -44.91 0.997473 -44.91 0.067982 56.438
8.96964578 0.069574 33.299 0.997353 -45.00 0.997353 -45.00 0.069575 56.343
8.96979467 0.071207 33.197 0.997227 -45.09 0.997227 -45.09 0.071208 56.246
8.96994015 0.072880 33.094 0.997094 -45.19 0.997094 -45.19 0.072882 56.147
8.97000000 0.073593 33.050 0.997037 -45.23 0.997037 -45.23 0.073594 56.104
8.97008230 0.074596 32.988 0.996955 -45.29 0.996955 -45.29 0.074597 56.044
8.97022119 0.076355 32.879 0.996810 -45.39 0.996810 -45.39 0.076356 55.940
8.97035689 0.078157 32.768 0.996656 -45.49 0.996656 -45.49 0.078159 55.832
8.97048949 0.080006 32.654 0.996496 -45.60 0.996496 -45.60 0.080007 55.722
8.97061905 0.081901 32.537 0.996327 -45.71 0.996327 -45.71 0.081902 55.609
8.97074564 0.083843 32.418 0.996150 -45.82 0.996150 -45.82 0.083845 55.492
8.97086933 0.085835 32.295 0.995964 -45.94 0.995964 -45.94 0.085837 55.373
8.97099019 0.087878 32.170 0.995769 -46.06 0.995769 -46.06 0.087879 55.251
8.97110827 0.089972 32.041 0.995564 -46.18 0.995564 -46.18 0.089973 55.126
8.97122365 0.092119 31.909 0.995349 -46.30 0.995349 -46.30 0.092120 54.997
8.97133639 0.094321 31.774 0.995123 -46.43 0.995123 -46.43 0.094322 54.865
8.97144654 0.096578 31.636 0.994886 -46.56 0.994886 -46.56 0.096580 54.730
8.97155417 0.098893 31.494 0.994636 -46.69 0.994636 -46.69 0.098895 54.591
8.97165934 0.101268 31.348 0.994374 -46.83 0.994374 -46.83 0.101269 54.448
8.97176209 0.103702 31.199 0.994099 -46.97 0.994099 -46.97 0.103704 54.302
8.97186249 0.106199 31.046 0.993810 -47.11 0.993810 -47.11 0.106201 54.152
8.97196059 0.108760 30.890 0.993507 -47.26 0.993507 -47.26 0.108762 53.998
8.97205644 0.111387 30.729 0.993188 -47.41 0.993188 -47.41 0.111388 53.840
8.97215009 0.114080 30.564 0.992852 -47.57 0.992852 -47.57 0.114082 53.678
8.97224160 0.116843 30.395 0.992500 -47.73 0.992500 -47.73 0.116845 53.511
8.97233101 0.119677 30.222 0.992130 -47.89 0.992130 -47.89 0.119679 53.340
8.97241838 0.122584 30.044 0.991741 -48.06 0.991741 -48.06 0.122586 53.165
8.97250374 0.125566 29.861 0.991331 -48.23 0.991331 -48.23 0.125568 52.985
8.97258714 0.128624 29.674 0.990901 -48.41 0.990901 -48.41 0.128626 52.800
8.97266864 0.131762 29.482 0.990449 -48.59 0.990449 -48.59 0.131764 52.610
8.97274826 0.134980 29.286 0.989974 -48.78 0.989974 -48.78 0.134982 52.416
8.97282606 0.138282 29.084 0.989474 -48.97 0.989474 -48.97 0.138284 52.216
8.97290208 0.141669 28.876 0.988948 -49.17 0.988948 -49.17 0.141671 52.011
8.97297636 0.145144 28.664 0.988395 -49.37 0.988395 -49.37 0.145146 51.800
8.97304894 0.148709 28.445 0.987814 -49.58 0.987814 -49.58 0.148711 51.584
8.97311985 0.152366 28.221 0.987203 -49.79 0.987203 -49.79 0.152368 51.362
8.97318914 0.156118 27.992 0.986559 -50.01 0.986559 -50.01 0.156120 51.134
8.97325684 0.159967 27.756 0.985883 -50.23 0.985883 -50.23 0.159969 50.900
8.97332299 0.163916 27.513 0.985171 -50.46 0.985171 -50.46 0.163918 50.660
8.97338762 0.167968 27.265 0.984422 -50.69 0.984422 -50.69 0.167970 50.413
8.97345077 0.172125 27.010 0.983634 -50.94 0.983634 -50.94 0.172127 50.160
8.97351248 0.176389 26.748 0.982805 -51.18 0.982805 -51.18 0.176392 49.900
8.97357277 0.180765 26.479 0.981932 -51.44 0.981932 -51.44 0.180767 49.632
8.97363168 0.185254 26.203 0.981014 -51.70 0.981014 -51.70 0.185256 49.358
8.97368924 0.189859 25.919 0.980047 -51.97 0.980047 -51.97 0.189862 49.076
8.97374548 0.194584 25.628 0.979030 -52.25 0.979030 -52.25 0.194587 48.787
8.97380043 0.199431 25.329 0.977959 -52.53 0.977959 -52.53 0.199434 48.489
8.97385412 0.204404 25.023 0.976832 -52.82 0.976832 -52.82 0.204406 48.184
8.97390658 0.209505 24.707 0.975645 -53.12 0.975645 -53.12 0.209507 47.870
8.97395785 0.214737 24.384 0.974396 -53.43 0.974396 -53.43 0.214740 47.548
8.97400793 0.220105 24.051 0.973081 -53.74 0.973081 -53.74 0.220108 47.217
8.97405687 0.225610 23.710 0.971696 -54.07 0.971696 -54.07 0.225613 46.877
8.97410469 0.231257 23.360 0.970238 -54.40 0.970238 -54.40 0.231260 46.528
8.97415141 0.237048 22.999 0.968703 -54.74 0.968703 -54.74 0.237051 46.169
8.97419706 0.242987 22.630 0.967086 -55.09 0.967086 -55.09 0.242990 45.801
8.97424166 0.249077 22.250 0.965385 -55.45 0.965385 -55.45 0.249081 45.422
8.97428525 0.255322 21.860 0.963592 -55.82 0.963592 -55.82 0.255325 45.034
8.97432783 0.261724 21.459 0.961705 -56.20 0.961705 -56.20 0.261727 44.634
8.97436944 0.268286 21.048 0.959718 -56.59 0.959718 -56.59 0.268290 44.224
8.97441009 0.275013 20.625 0.957626 -56.99 0.957626 -56.99 0.275017 43.802
8.97444982 0.281907 20.191 0.955423 -57.40 0.955423 -57.40 0.281911 43.369
8.97448863 0.288972 19.745 0.953104 -57.82 0.953104 -57.82 0.288976 42.925
8.97452655 0.296210 19.287 0.950661 -58.26 0.950661 -58.26 0.296213 42.468
8.97456361 0.303624 18.817 0.948090 -58.70 0.948090 -58.70 0.303627 41.999
8.97459981 0.311217 18.334 0.945384 -59.16 0.945384 -59.16 0.311221 41.517
8.97463519 0.318992 17.838 0.942535 -59.63 0.942535 -59.63 0.318996 41.022
8.97466975 0.326951 17.329 0.939536 -60.11 0.939536 -60.11 0.326955 40.514
8.97470353 0.335097 16.806 0.936380 -60.61 0.936380 -60.61 0.335101 39.992
8.97473653 0.343431 16.269 0.933059 -61.11 0.933059 -61.11 0.343436 39.456
8.97476877 0.351957 15.718 0.929564 -61.63 0.929564 -61.63 0.351961 38.906
8.97480028 0.360674 15.152 0.925888 -62.17 0.925888 -62.17 0.360679 38.341
8.97483106 0.369586 14.572 0.922022 -62.72 0.922022 -62.72 0.369590 37.761
8.97486114 0.378691 13.976 0.917956 -63.28 0.917956 -63.28 0.378696 37.166
8.97489052 0.387992 13.365 0.913682 -63.86 0.913682 -63.86 0.387997 36.556
8.97491924 0.397489 12.738 0.909189 -64.45 0.909189 -64.45 0.397494 35.930
8.97494730 0.407180 12.095 0.904467 -65.05 0.904467 -65.05 0.407185 35.287
8.97497471 0.417066 11.435 0.899508 -65.68 0.899508 -65.68 0.417071 34.628
8.97500150 0.427145 10.759 0.894300 -66.31 0.894300 -66.31 0.427150 33.953
8.97502767 0.437414 10.065 0.888832 -66.96 0.888832 -66.96 0.437420 33.260
8.97505324 0.447872 9.3551 0.883095 -67.63 0.883095 -67.63 0.447878 32.551
8.97507823 0.458515 8.6273 0.877077 -68.31 0.877077 -68.31 0.458521 31.824
8.97510264 0.469340 7.8819 0.870767 -69.01 0.870767 -69.01 0.469345 31.079
8.97512649 0.480340 7.1188 0.864154 -69.73 0.864154 -69.73 0.480346 30.317
8.97514980 0.491511 6.3377 0.857228 -70.46 0.857228 -70.46 0.491517 29.536
8.97517258 0.502847 5.5385 0.849978 -71.21 0.849978 -71.21 0.502853 28.738
8.97519483 0.514338 4.7212 0.842393 -71.97 0.842393 -71.97 0.514344 27.921
8.97521657 0.525978 3.8857 0.834463 -72.75 0.834463 -72.75 0.525984 27.086
8.97523781 0.537757 3.0320 0.826177 -73.55 0.826177 -73.55 0.537763 26.233
8.97525857 0.549663 2.1601 0.817526 -74.36 0.817526 -74.36 0.549670 25.362
8.97527885 0.561686 1.2701 0.808501 -75.18 0.808501 -75.18 0.561693 24.472
8.97529867 0.573814 0.3620 0.799094 -76.03 0.799094 -76.03 0.573820 23.565
8.97531803 0.586031 -0.564 0.789296 -76.88 0.789296 -76.88 0.586038 22.639
8.97533695 0.598324 -1.507 0.779100 -77.75 0.779100 -77.75 0.598331 21.697
8.97535544 0.610676 -2.468 0.768502 -78.64 0.768502 -78.64 0.610683 20.736
8.97537350 0.623071 -3.446 0.757496 -79.54 0.757496 -79.54 0.623078 19.759
8.97539115 0.635490 -4.441 0.746077 -80.45 0.746077 -80.45 0.635498 18.765
8.97540839 0.647916 -5.451 0.734245 -81.37 0.734245 -81.37 0.647923 17.755
8.97542524 0.660327 -6.477 0.721998 -82.31 0.721998 -82.31 0.660335 16.729
8.97544170 0.672704 -7.519 0.709336 -83.25 0.709336 -83.25 0.672712 15.688
8.97545779 0.685026 -8.574 0.696263 -84.21 0.696263 -84.21 0.685034 14.633
8.97547350 0.697270 -9.644 0.682782 -85.17 0.682782 -85.17 0.697278 13.564
8.97548886 0.709415 -10.73 0.668898 -86.14 0.668898 -86.14 0.709423 12.482
8.97550386 0.721437 -11.82 0.654621 -87.12 0.654621 -87.12 0.721446 11.389
8.97551852 0.733315 -12.93 0.639958 -88.10 0.639958 -88.10 0.733324 10.284
8.97553285 0.745026 -14.04 0.624923 -89.09 0.624923 -89.09 0.745035 9.1685
8.97554685 0.756547 -15.17 0.609528 -90.07 0.609528 -90.07 0.756556 8.0442
8.97556052 0.767856 -16.30 0.593789 -91.06 0.593789 -91.06 0.767865 6.9118
8.97557388 0.778933 -17.44 0.577722 -92.04 0.577722 -92.04 0.778942 5.7725
8.97558694 0.789755 -18.58 0.561349 -93.02 0.561349 -93.02 0.789764 4.6273
8.97559970 0.800304 -19.73 0.544688 -94.00 0.544688 -94.00 0.800313 3.4776
8.97561216 0.810560 -20.89 0.527763 -94.96 0.527763 -94.96 0.810569 2.3243
8.97562434 0.820506 -22.04 0.510598 -95.92 0.510598 -95.92 0.820515 1.1689
8.97563624 0.830126 -23.20 0.493217 -96.86 0.493217 -96.86 0.830136 0.0126
8.97564787 0.839406 -24.36 0.475648 -97.78 0.475648 -97.78 0.839415 -1.143
8.97565923 0.848331 -25.51 0.457917 -98.69 0.457917 -98.69 0.848341 -2.298
8.97567033 0.856892 -26.66 0.440054 -99.57 0.440054 -99.57 0.856902 -3.450
8.97568118 0.865079 -27.81 0.422087 -100.4 0.422087 -100.4 0.865089 -4.597
8.97569178 0.872884 -28.95 0.404045 -101.3 0.404045 -101.3 0.872893 -5.740
8.97570213 0.880300 -30.09 0.385958 -102.1 0.385958 -102.1 0.880310 -6.876
8.97571225 0.887325 -31.22 0.367855 -102.8 0.367855 -102.8 0.887335 -8.004
8.97572213 0.893956 -32.34 0.349767 -103.5 0.349767 -103.5 0.893966 -9.124
8.97573179 0.900192 -33.45 0.331723 -104.2 0.331723 -104.2 0.900202 -10.23
8.97574123 0.906035 -34.55 0.313751 -104.8 0.313751 -104.8 0.906046 -11.33
8.97575045 0.911489 -35.64 0.295881 -105.3 0.295881 -105.3 0.911499 -12.42
8.97575946 0.916556 -36.71 0.278141 -105.8 0.278141 -105.8 0.916567 -13.50
8.97576827 0.921245 -37.78 0.260560 -106.2 0.260560 -106.2 0.921255 -14.56
8.97577687 0.925560 -38.82 0.243165 -106.4 0.243165 -106.4 0.925571 -15.61
8.97578528 0.929512 -39.86 0.225985 -106.6 0.225985 -106.6 0.929523 -16.64
8.97579349 0.933110 -40.88 0.209050 -106.6 0.209050 -106.6 0.933120 -17.66
8.97580151 0.936363 -41.88 0.192389 -106.4 0.192389 -106.4 0.936374 -18.66
8.97580935 0.939284 -42.86 0.176035 -106.0 0.176035 -106.0 0.939294 -19.65
8.97581701 0.941884 -43.83 0.160028 -105.4 0.160028 -105.4 0.941894 -20.62
8.97582450 0.944175 -44.79 0.144410 -104.4 0.144410 -104.4 0.944186 -21.57
8.97583181 0.946171 -45.72 0.129238 -103.0 0.129238 -103.0 0.946182 -22.50
8.97583896 0.947885 -46.64 0.114588 -101.0 0.114588 -101.0 0.947895 -23.42
8.97584594 0.949329 -47.54 0.100563 -98.26 0.100563 -98.26 0.949340 -24.32
8.97585277 0.950518 -48.42 0.087320 -94.44 0.087320 -94.44 0.950529 -25.20
8.97585943 0.951465 -49.28 0.075098 -89.12 0.075098 -89.12 0.951476 -26.06
8.97586594 0.952183 -50.12 0.064277 -81.74 0.064277 -81.74 0.952194 -26.90
8.97587231 0.952686 -50.95 0.055439 -71.63 0.055439 -71.63 0.952696 -27.73
8.97587853 0.952986 -51.76 0.049387 -58.46 0.049387 -58.46 0.952996 -28.54
8.97588460 0.953096 -52.55 0.046927 -43.06 0.046927 -43.06 0.953106 -29.33
8.97589054 0.953028 -53.32 0.048339 -27.67 0.048339 -27.67 0.953039 -30.10
8.97589634 0.952796 -54.07 0.053079 -14.51 0.053079 -14.51 0.952806 -30.85
8.97590201 0.952410 -54.81 0.060165 -4.370 0.060165 -4.370 0.952420 -31.59