! Sonnet Data File
! From: emgraph Version : 16.52
! From Project: Resonator2
! Data is De-embedded 
! Data File Written: 10/04/2017 18:31:03
!< HDATE 10/04/2017 15:54:54
!< MDATE 10/04/2017 15:55:28
!< PARAMS
!< gap = 16.0
!< Length = 400.0
!< END PARAMS
# GHZ S MA R 50.00000
8.80000000 0.024308 49.005 0.999703 -40.35 0.999703 -40.35 0.024308 50.304
!< P1 F=8.8 Eeff=(6.44890994 -2.9739e-5) Z0=(51.8068348 1.19496e-4) R=0.0 C=0.0 
!< P2 F=8.8 Eeff=(6.44890994 -2.9739e-5) Z0=(51.8068348 1.19496e-4) R=0.0 C=0.0 
8.80025000 0.024309 49.003 0.999703 -40.35 0.999703 -40.35 0.024310 50.304
8.80050000 0.024311 49.001 0.999703 -40.35 0.999703 -40.35 0.024311 50.303
8.80075000 0.024313 48.999 0.999703 -40.35 0.999703 -40.35 0.024313 50.303
8.80100000 0.024315 48.997 0.999703 -40.35 0.999703 -40.35 0.024315 50.302
8.80125000 0.024317 48.995 0.999703 -40.35 0.999703 -40.35 0.024317 50.302
8.80150000 0.024319 48.993 0.999703 -40.36 0.999703 -40.36 0.024319 50.301
8.80175000 0.024321 48.991 0.999702 -40.36 0.999702 -40.36 0.024321 50.301
8.80200000 0.024323 48.989 0.999702 -40.36 0.999702 -40.36 0.024323 50.300
8.80225000 0.024325 48.987 0.999702 -40.36 0.999702 -40.36 0.024325 50.300
8.80250000 0.024327 48.985 0.999702 -40.36 0.999702 -40.36 0.024327 50.299
8.80275000 0.024329 48.983 0.999702 -40.36 0.999702 -40.36 0.024329 50.299
8.80300000 0.024331 48.981 0.999702 -40.36 0.999702 -40.36 0.024331 50.298
8.80325000 0.024333 48.979 0.999702 -40.36 0.999702 -40.36 0.024333 50.298
8.80350000 0.024335 48.977 0.999702 -40.37 0.999702 -40.37 0.024335 50.297
8.80375000 0.024337 48.975 0.999702 -40.37 0.999702 -40.37 0.024337 50.297
8.80400000 0.024339 48.973 0.999702 -40.37 0.999702 -40.37 0.024339 50.296
8.80425000 0.024341 48.971 0.999702 -40.37 0.999702 -40.37 0.024341 50.296
8.80450000 0.024343 48.969 0.999702 -40.37 0.999702 -40.37 0.024344 50.296
8.80475000 0.024345 48.967 0.999702 -40.37 0.999702 -40.37 0.024346 50.295
8.80500000 0.024348 48.965 0.999702 -40.37 0.999702 -40.37 0.024348 50.295
8.80525000 0.024350 48.963 0.999702 -40.37 0.999702 -40.37 0.024350 50.294
8.80550000 0.024352 48.961 0.999702 -40.38 0.999702 -40.38 0.024352 50.294
8.80575000 0.024354 48.959 0.999702 -40.38 0.999702 -40.38 0.024354 50.293
8.80600000 0.024356 48.957 0.999702 -40.38 0.999702 -40.38 0.024356 50.293
8.80625000 0.024358 48.955 0.999702 -40.38 0.999702 -40.38 0.024358 50.292
8.80650000 0.024360 48.953 0.999702 -40.38 0.999702 -40.38 0.024360 50.292
8.80675000 0.024362 48.951 0.999701 -40.38 0.999701 -40.38 0.024362 50.292
8.80700000 0.024364 48.949 0.999701 -40.38 0.999701 -40.38 0.024364 50.291
8.80725000 0.024366 48.947 0.999701 -40.38 0.999701 -40.38 0.024366 50.291
8.80750000 0.024368 48.945 0.999701 -40.39 0.999701 -40.39 0.024369 50.290
8.80775000 0.024371 48.942 0.999701 -40.39 0.999701 -40.39 0.024371 50.290
8.80800000 0.024373 48.940 0.999701 -40.39 0.999701 -40.39 0.024373 50.289
8.80825000 0.024375 48.938 0.999701 -40.39 0.999701 -40.39 0.024375 50.289
8.80850000 0.024377 48.936 0.999701 -40.39 0.999701 -40.39 0.024377 50.289
8.80875000 0.024379 48.934 0.999701 -40.39 0.999701 -40.39 0.024379 50.288
8.80900000 0.024381 48.932 0.999701 -40.39 0.999701 -40.39 0.024381 50.288
8.80925000 0.024384 48.930 0.999701 -40.39 0.999701 -40.39 0.024384 50.287
8.80950000 0.024386 48.928 0.999701 -40.40 0.999701 -40.40 0.024386 50.287
8.80975000 0.024388 48.926 0.999701 -40.40 0.999701 -40.40 0.024388 50.287
8.81000000 0.024390 48.924 0.999701 -40.40 0.999701 -40.40 0.024390 50.286
8.81025000 0.024392 48.922 0.999701 -40.40 0.999701 -40.40 0.024392 50.286
8.81050000 0.024395 48.920 0.999701 -40.40 0.999701 -40.40 0.024395 50.285
8.81075000 0.024397 48.918 0.999701 -40.40 0.999701 -40.40 0.024397 50.285
8.81100000 0.024399 48.915 0.999701 -40.40 0.999701 -40.40 0.024399 50.285
8.81125000 0.024401 48.913 0.999700 -40.40 0.999700 -40.40 0.024401 50.284
8.81150000 0.024403 48.911 0.999700 -40.41 0.999700 -40.41 0.024404 50.284
8.81175000 0.024406 48.909 0.999700 -40.41 0.999700 -40.41 0.024406 50.283
8.81200000 0.024408 48.907 0.999700 -40.41 0.999700 -40.41 0.024408 50.283
8.81225000 0.024410 48.905 0.999700 -40.41 0.999700 -40.41 0.024410 50.283
8.81250000 0.024412 48.903 0.999700 -40.41 0.999700 -40.41 0.024413 50.282
8.81275000 0.024415 48.901 0.999700 -40.41 0.999700 -40.41 0.024415 50.282
8.81300000 0.024417 48.898 0.999700 -40.41 0.999700 -40.41 0.024417 50.282
8.81325000 0.024419 48.896 0.999700 -40.41 0.999700 -40.41 0.024419 50.281
8.81350000 0.024422 48.894 0.999700 -40.42 0.999700 -40.42 0.024422 50.281
8.81375000 0.024424 48.892 0.999700 -40.42 0.999700 -40.42 0.024424 50.281
8.81400000 0.024426 48.890 0.999700 -40.42 0.999700 -40.42 0.024426 50.280
8.81425000 0.024429 48.888 0.999700 -40.42 0.999700 -40.42 0.024429 50.280
8.81450000 0.024431 48.885 0.999700 -40.42 0.999700 -40.42 0.024431 50.280
8.81475000 0.024433 48.883 0.999700 -40.42 0.999700 -40.42 0.024433 50.279
8.81500000 0.024436 48.881 0.999700 -40.42 0.999700 -40.42 0.024436 50.279
8.81525000 0.024438 48.879 0.999700 -40.42 0.999700 -40.42 0.024438 50.279
8.81550000 0.024440 48.877 0.999700 -40.43 0.999700 -40.43 0.024440 50.278
8.81575000 0.024443 48.875 0.999699 -40.43 0.999699 -40.43 0.024443 50.278
8.81600000 0.024445 48.872 0.999699 -40.43 0.999699 -40.43 0.024445 50.278
8.81625000 0.024447 48.870 0.999699 -40.43 0.999699 -40.43 0.024448 50.277
8.81650000 0.024450 48.868 0.999699 -40.43 0.999699 -40.43 0.024450 50.277
8.81675000 0.024452 48.866 0.999699 -40.43 0.999699 -40.43 0.024452 50.277
8.81700000 0.024455 48.864 0.999699 -40.43 0.999699 -40.43 0.024455 50.276
8.81725000 0.024457 48.861 0.999699 -40.43 0.999699 -40.43 0.024457 50.276
8.81750000 0.024460 48.859 0.999699 -40.44 0.999699 -40.44 0.024460 50.276
8.81775000 0.024462 48.857 0.999699 -40.44 0.999699 -40.44 0.024462 50.276
8.81800000 0.024464 48.855 0.999699 -40.44 0.999699 -40.44 0.024465 50.275
8.81825000 0.024467 48.852 0.999699 -40.44 0.999699 -40.44 0.024467 50.275
8.81850000 0.024469 48.850 0.999699 -40.44 0.999699 -40.44 0.024470 50.275
8.81875000 0.024472 48.848 0.999699 -40.44 0.999699 -40.44 0.024472 50.274
8.81900000 0.024474 48.846 0.999699 -40.44 0.999699 -40.44 0.024474 50.274
8.81925000 0.024477 48.843 0.999699 -40.44 0.999699 -40.44 0.024477 50.274
8.81950000 0.024479 48.841 0.999699 -40.45 0.999699 -40.45 0.024479 50.274
8.81975000 0.024482 48.839 0.999698 -40.45 0.999698 -40.45 0.024482 50.273
8.82000000 0.024484 48.837 0.999698 -40.45 0.999698 -40.45 0.024485 50.273
8.82025000 0.024487 48.834 0.999698 -40.45 0.999698 -40.45 0.024487 50.273
8.82050000 0.024489 48.832 0.999698 -40.45 0.999698 -40.45 0.024490 50.273
8.82075000 0.024492 48.830 0.999698 -40.45 0.999698 -40.45 0.024492 50.272
8.82100000 0.024495 48.827 0.999698 -40.45 0.999698 -40.45 0.024495 50.272
8.82125000 0.024497 48.825 0.999698 -40.45 0.999698 -40.45 0.024497 50.272
8.82150000 0.024500 48.823 0.999698 -40.46 0.999698 -40.46 0.024500 50.272
8.82175000 0.024502 48.821 0.999698 -40.46 0.999698 -40.46 0.024502 50.271
8.82200000 0.024505 48.818 0.999698 -40.46 0.999698 -40.46 0.024505 50.271
8.82225000 0.024508 48.816 0.999698 -40.46 0.999698 -40.46 0.024508 50.271
8.82250000 0.024510 48.814 0.999698 -40.46 0.999698 -40.46 0.024510 50.271
8.82275000 0.024513 48.811 0.999698 -40.46 0.999698 -40.46 0.024513 50.271
8.82300000 0.024516 48.809 0.999698 -40.46 0.999698 -40.46 0.024516 50.270
8.82325000 0.024518 48.807 0.999698 -40.46 0.999698 -40.46 0.024518 50.270
8.82350000 0.024521 48.804 0.999698 -40.47 0.999698 -40.47 0.024521 50.270
8.82375000 0.024524 48.802 0.999697 -40.47 0.999697 -40.47 0.024524 50.270
8.82400000 0.024526 48.800 0.999697 -40.47 0.999697 -40.47 0.024526 50.270
8.82425000 0.024529 48.797 0.999697 -40.47 0.999697 -40.47 0.024529 50.270
8.82450000 0.024532 48.795 0.999697 -40.47 0.999697 -40.47 0.024532 50.269
8.82475000 0.024534 48.792 0.999697 -40.47 0.999697 -40.47 0.024534 50.269
8.82500000 0.024537 48.790 0.999697 -40.47 0.999697 -40.47 0.024537 50.269
8.82525000 0.024540 48.788 0.999697 -40.47 0.999697 -40.47 0.024540 50.269
8.82550000 0.024543 48.785 0.999697 -40.48 0.999697 -40.48 0.024543 50.269
8.82575000 0.024545 48.783 0.999697 -40.48 0.999697 -40.48 0.024545 50.269
8.82600000 0.024548 48.780 0.999697 -40.48 0.999697 -40.48 0.024548 50.268
8.82625000 0.024551 48.778 0.999697 -40.48 0.999697 -40.48 0.024551 50.268
8.82650000 0.024554 48.776 0.999697 -40.48 0.999697 -40.48 0.024554 50.268
8.82675000 0.024557 48.773 0.999697 -40.48 0.999697 -40.48 0.024557 50.268
8.82700000 0.024559 48.771 0.999697 -40.48 0.999697 -40.48 0.024559 50.268
8.82725000 0.024562 48.768 0.999696 -40.48 0.999696 -40.48 0.024562 50.268
8.82750000 0.024565 48.766 0.999696 -40.49 0.999696 -40.49 0.024565 50.268
8.82775000 0.024568 48.763 0.999696 -40.49 0.999696 -40.49 0.024568 50.268
8.82800000 0.024571 48.761 0.999696 -40.49 0.999696 -40.49 0.024571 50.267
8.82825000 0.024574 48.758 0.999696 -40.49 0.999696 -40.49 0.024574 50.267
8.82850000 0.024577 48.756 0.999696 -40.49 0.999696 -40.49 0.024577 50.267
8.82875000 0.024579 48.753 0.999696 -40.49 0.999696 -40.49 0.024580 50.267
8.82900000 0.024582 48.751 0.999696 -40.49 0.999696 -40.49 0.024582 50.267
8.82925000 0.024585 48.748 0.999696 -40.50 0.999696 -40.50 0.024585 50.267
8.82950000 0.024588 48.746 0.999696 -40.50 0.999696 -40.50 0.024588 50.267
8.82975000 0.024591 48.743 0.999696 -40.50 0.999696 -40.50 0.024591 50.267
8.83000000 0.024594 48.741 0.999696 -40.50 0.999696 -40.50 0.024594 50.267
8.83025000 0.024597 48.738 0.999696 -40.50 0.999696 -40.50 0.024597 50.267
8.83050000 0.024600 48.736 0.999696 -40.50 0.999696 -40.50 0.024600 50.267
8.83075000 0.024603 48.733 0.999695 -40.50 0.999695 -40.50 0.024603 50.267
8.83100000 0.024606 48.731 0.999695 -40.50 0.999695 -40.50 0.024606 50.267
8.83125000 0.024609 48.728 0.999695 -40.51 0.999695 -40.51 0.024609 50.267
8.83150000 0.024612 48.726 0.999695 -40.51 0.999695 -40.51 0.024612 50.267
8.83175000 0.024615 48.723 0.999695 -40.51 0.999695 -40.51 0.024615 50.267
8.83200000 0.024618 48.720 0.999695 -40.51 0.999695 -40.51 0.024619 50.267
8.83225000 0.024622 48.718 0.999695 -40.51 0.999695 -40.51 0.024622 50.267
8.83250000 0.024625 48.715 0.999695 -40.51 0.999695 -40.51 0.024625 50.267
8.83275000 0.024628 48.713 0.999695 -40.51 0.999695 -40.51 0.024628 50.267
8.83300000 0.024631 48.710 0.999695 -40.51 0.999695 -40.51 0.024631 50.267
8.83325000 0.024634 48.707 0.999695 -40.52 0.999695 -40.52 0.024634 50.267
8.83350000 0.024637 48.705 0.999695 -40.52 0.999695 -40.52 0.024637 50.267
8.83375000 0.024640 48.702 0.999695 -40.52 0.999695 -40.52 0.024641 50.267
8.83400000 0.024644 48.700 0.999694 -40.52 0.999694 -40.52 0.024644 50.267
8.83425000 0.024647 48.697 0.999694 -40.52 0.999694 -40.52 0.024647 50.267
8.83450000 0.024650 48.694 0.999694 -40.52 0.999694 -40.52 0.024650 50.267
8.83475000 0.024653 48.692 0.999694 -40.52 0.999694 -40.52 0.024653 50.267
8.83500000 0.024656 48.689 0.999694 -40.52 0.999694 -40.52 0.024657 50.267
8.83525000 0.024660 48.686 0.999694 -40.53 0.999694 -40.53 0.024660 50.267
8.83550000 0.024663 48.684 0.999694 -40.53 0.999694 -40.53 0.024663 50.267
8.83575000 0.024666 48.681 0.999694 -40.53 0.999694 -40.53 0.024666 50.267
8.83600000 0.024670 48.678 0.999694 -40.53 0.999694 -40.53 0.024670 50.267
8.83625000 0.024673 48.675 0.999694 -40.53 0.999694 -40.53 0.024673 50.267
8.83650000 0.024676 48.673 0.999694 -40.53 0.999694 -40.53 0.024676 50.267
8.83675000 0.024680 48.670 0.999694 -40.53 0.999694 -40.53 0.024680 50.267
8.83700000 0.024683 48.667 0.999693 -40.54 0.999693 -40.54 0.024683 50.268
8.83725000 0.024686 48.665 0.999693 -40.54 0.999693 -40.54 0.024687 50.268
8.83750000 0.024690 48.662 0.999693 -40.54 0.999693 -40.54 0.024690 50.268
8.83775000 0.024693 48.659 0.999693 -40.54 0.999693 -40.54 0.024693 50.268
8.83800000 0.024697 48.656 0.999693 -40.54 0.999693 -40.54 0.024697 50.268
8.83825000 0.024700 48.653 0.999693 -40.54 0.999693 -40.54 0.024700 50.268
8.83850000 0.024704 48.651 0.999693 -40.54 0.999693 -40.54 0.024704 50.268
8.83875000 0.024707 48.648 0.999693 -40.54 0.999693 -40.54 0.024707 50.269
8.83900000 0.024711 48.645 0.999693 -40.55 0.999693 -40.55 0.024711 50.269
8.83925000 0.024714 48.642 0.999693 -40.55 0.999693 -40.55 0.024714 50.269
8.83950000 0.024718 48.639 0.999693 -40.55 0.999693 -40.55 0.024718 50.269
8.83975000 0.024721 48.636 0.999692 -40.55 0.999692 -40.55 0.024722 50.269
8.84000000 0.024725 48.634 0.999692 -40.55 0.999692 -40.55 0.024725 50.270
8.84025000 0.024729 48.631 0.999692 -40.55 0.999692 -40.55 0.024729 50.270
8.84050000 0.024732 48.628 0.999692 -40.55 0.999692 -40.55 0.024732 50.270
8.84075000 0.024736 48.625 0.999692 -40.56 0.999692 -40.56 0.024736 50.270
8.84100000 0.024740 48.622 0.999692 -40.56 0.999692 -40.56 0.024740 50.270
8.84125000 0.024743 48.619 0.999692 -40.56 0.999692 -40.56 0.024743 50.271
8.84150000 0.024747 48.616 0.999692 -40.56 0.999692 -40.56 0.024747 50.271
8.84175000 0.024751 48.613 0.999692 -40.56 0.999692 -40.56 0.024751 50.271
8.84200000 0.024754 48.610 0.999692 -40.56 0.999692 -40.56 0.024755 50.271
8.84225000 0.024758 48.607 0.999692 -40.56 0.999692 -40.56 0.024758 50.272
8.84250000 0.024762 48.605 0.999691 -40.56 0.999691 -40.56 0.024762 50.272
8.84275000 0.024766 48.602 0.999691 -40.57 0.999691 -40.57 0.024766 50.272
8.84300000 0.024770 48.599 0.999691 -40.57 0.999691 -40.57 0.024770 50.273
8.84325000 0.024773 48.596 0.999691 -40.57 0.999691 -40.57 0.024774 50.273
8.84350000 0.024777 48.593 0.999691 -40.57 0.999691 -40.57 0.024777 50.273
8.84375000 0.024781 48.590 0.999691 -40.57 0.999691 -40.57 0.024781 50.274
8.84400000 0.024785 48.587 0.999691 -40.57 0.999691 -40.57 0.024785 50.274
8.84425000 0.024789 48.584 0.999691 -40.57 0.999691 -40.57 0.024789 50.274
8.84450000 0.024793 48.580 0.999691 -40.58 0.999691 -40.58 0.024793 50.275
8.84475000 0.024797 48.577 0.999691 -40.58 0.999691 -40.58 0.024797 50.275
8.84500000 0.024801 48.574 0.999690 -40.58 0.999690 -40.58 0.024801 50.275
8.84525000 0.024805 48.571 0.999690 -40.58 0.999690 -40.58 0.024805 50.276
8.84550000 0.024809 48.568 0.999690 -40.58 0.999690 -40.58 0.024809 50.276
8.84575000 0.024813 48.565 0.999690 -40.58 0.999690 -40.58 0.024813 50.276
8.84600000 0.024817 48.562 0.999690 -40.58 0.999690 -40.58 0.024817 50.277
8.84625000 0.024821 48.559 0.999690 -40.58 0.999690 -40.58 0.024821 50.277
8.84650000 0.024825 48.556 0.999690 -40.59 0.999690 -40.59 0.024825 50.278
8.84675000 0.024829 48.553 0.999690 -40.59 0.999690 -40.59 0.024830 50.278
8.84700000 0.024834 48.549 0.999690 -40.59 0.999690 -40.59 0.024834 50.279
8.84725000 0.024838 48.546 0.999690 -40.59 0.999690 -40.59 0.024838 50.279
8.84750000 0.024842 48.543 0.999689 -40.59 0.999689 -40.59 0.024842 50.279
8.84775000 0.024846 48.540 0.999689 -40.59 0.999689 -40.59 0.024846 50.280
8.84800000 0.024851 48.537 0.999689 -40.59 0.999689 -40.59 0.024851 50.280
8.84825000 0.024855 48.533 0.999689 -40.60 0.999689 -40.60 0.024855 50.281
8.84850000 0.024859 48.530 0.999689 -40.60 0.999689 -40.60 0.024859 50.281
8.84875000 0.024864 48.527 0.999689 -40.60 0.999689 -40.60 0.024864 50.282
8.84900000 0.024868 48.524 0.999689 -40.60 0.999689 -40.60 0.024868 50.282
8.84925000 0.024872 48.520 0.999689 -40.60 0.999689 -40.60 0.024872 50.283
8.84950000 0.024877 48.517 0.999689 -40.60 0.999689 -40.60 0.024877 50.284
8.84975000 0.024881 48.514 0.999688 -40.60 0.999688 -40.60 0.024881 50.284
8.85000000 0.024886 48.510 0.999688 -40.61 0.999688 -40.61 0.024886 50.285
8.85025000 0.024890 48.507 0.999688 -40.61 0.999688 -40.61 0.024890 50.285
8.85050000 0.024895 48.504 0.999688 -40.61 0.999688 -40.61 0.024895 50.286
8.85075000 0.024899 48.500 0.999688 -40.61 0.999688 -40.61 0.024899 50.286
8.85100000 0.024904 48.497 0.999688 -40.61 0.999688 -40.61 0.024904 50.287
8.85125000 0.024908 48.493 0.999688 -40.61 0.999688 -40.61 0.024909 50.288
8.85150000 0.024913 48.490 0.999688 -40.61 0.999688 -40.61 0.024913 50.288
8.85175000 0.024918 48.487 0.999688 -40.61 0.999688 -40.61 0.024918 50.289
8.85200000 0.024922 48.483 0.999687 -40.62 0.999687 -40.62 0.024923 50.290
8.85225000 0.024927 48.480 0.999687 -40.62 0.999687 -40.62 0.024927 50.290
8.85250000 0.024932 48.476 0.999687 -40.62 0.999687 -40.62 0.024932 50.291
8.85275000 0.024937 48.473 0.999687 -40.62 0.999687 -40.62 0.024937 50.292
8.85300000 0.024942 48.469 0.999687 -40.62 0.999687 -40.62 0.024942 50.292
8.85325000 0.024946 48.466 0.999687 -40.62 0.999687 -40.62 0.024947 50.293
8.85350000 0.024951 48.462 0.999687 -40.62 0.999687 -40.62 0.024952 50.294
8.85375000 0.024956 48.458 0.999687 -40.63 0.999687 -40.63 0.024956 50.295
8.85400000 0.024961 48.455 0.999686 -40.63 0.999686 -40.63 0.024961 50.295
8.85425000 0.024966 48.451 0.999686 -40.63 0.999686 -40.63 0.024966 50.296
8.85450000 0.024971 48.448 0.999686 -40.63 0.999686 -40.63 0.024971 50.297
8.85475000 0.024976 48.444 0.999686 -40.63 0.999686 -40.63 0.024976 50.298
8.85500000 0.024981 48.440 0.999686 -40.63 0.999686 -40.63 0.024981 50.299
8.85525000 0.024986 48.437 0.999686 -40.63 0.999686 -40.63 0.024987 50.299
8.85550000 0.024992 48.433 0.999686 -40.64 0.999686 -40.64 0.024992 50.300
8.85575000 0.024997 48.429 0.999686 -40.64 0.999686 -40.64 0.024997 50.301
8.85600000 0.025002 48.426 0.999685 -40.64 0.999685 -40.64 0.025002 50.302
8.85625000 0.025007 48.422 0.999685 -40.64 0.999685 -40.64 0.025007 50.303
8.85650000 0.025012 48.418 0.999685 -40.64 0.999685 -40.64 0.025013 50.304
8.85675000 0.025018 48.414 0.999685 -40.64 0.999685 -40.64 0.025018 50.305
8.85700000 0.025023 48.411 0.999685 -40.64 0.999685 -40.64 0.025023 50.306
8.85725000 0.025029 48.407 0.999685 -40.65 0.999685 -40.65 0.025029 50.307
8.85750000 0.025034 48.403 0.999685 -40.65 0.999685 -40.65 0.025034 50.308
8.85775000 0.025039 48.399 0.999684 -40.65 0.999684 -40.65 0.025040 50.309
8.85800000 0.025045 48.395 0.999684 -40.65 0.999684 -40.65 0.025045 50.310
8.85825000 0.025050 48.391 0.999684 -40.65 0.999684 -40.65 0.025051 50.311
8.85850000 0.025056 48.387 0.999684 -40.65 0.999684 -40.65 0.025056 50.312
8.85875000 0.025062 48.383 0.999684 -40.65 0.999684 -40.65 0.025062 50.313
8.85900000 0.025067 48.379 0.999684 -40.66 0.999684 -40.66 0.025068 50.314
8.85925000 0.025073 48.376 0.999684 -40.66 0.999684 -40.66 0.025073 50.315
8.85950000 0.025079 48.372 0.999683 -40.66 0.999683 -40.66 0.025079 50.316
8.85975000 0.025085 48.367 0.999683 -40.66 0.999683 -40.66 0.025085 50.317
8.86000000 0.025090 48.363 0.999683 -40.66 0.999683 -40.66 0.025091 50.318
8.86025000 0.025096 48.359 0.999683 -40.66 0.999683 -40.66 0.025096 50.319
8.86050000 0.025102 48.355 0.999683 -40.66 0.999683 -40.66 0.025102 50.320
8.86075000 0.025108 48.351 0.999683 -40.67 0.999683 -40.67 0.025108 50.321
8.86100000 0.025114 48.347 0.999682 -40.67 0.999682 -40.67 0.025114 50.323
8.86125000 0.025120 48.343 0.999682 -40.67 0.999682 -40.67 0.025120 50.324
8.86144016 0.025125 48.340 0.999682 -40.67 0.999682 -40.67 0.025125 50.325
8.86150000 0.025126 48.339 0.999682 -40.67 0.999682 -40.67 0.025126 50.325
8.86175000 0.025132 48.335 0.999682 -40.67 0.999682 -40.67 0.025133 50.326
8.86200000 0.025139 48.330 0.999682 -40.67 0.999682 -40.67 0.025139 50.328
8.86225000 0.025145 48.326 0.999682 -40.67 0.999682 -40.67 0.025145 50.329
8.86250000 0.025151 48.322 0.999682 -40.68 0.999682 -40.68 0.025151 50.330
8.86275000 0.025157 48.317 0.999681 -40.68 0.999681 -40.68 0.025158 50.331
8.86284733 0.025160 48.316 0.999681 -40.68 0.999681 -40.68 0.025160 50.332
8.86300000 0.025164 48.313 0.999681 -40.68 0.999681 -40.68 0.025164 50.333
8.86325000 0.025170 48.309 0.999681 -40.68 0.999681 -40.68 0.025170 50.334
8.86350000 0.025177 48.304 0.999681 -40.68 0.999681 -40.68 0.025177 50.336
8.86375000 0.025183 48.300 0.999681 -40.68 0.999681 -40.68 0.025183 50.337
8.86400000 0.025190 48.296 0.999681 -40.69 0.999681 -40.69 0.025190 50.338
8.86422225 0.025196 48.292 0.999680 -40.69 0.999680 -40.69 0.025196 50.340
8.86425000 0.025196 48.291 0.999680 -40.69 0.999680 -40.69 0.025197 50.340
8.86450000 0.025203 48.287 0.999680 -40.69 0.999680 -40.69 0.025203 50.341
8.86475000 0.025210 48.282 0.999680 -40.69 0.999680 -40.69 0.025210 50.343
8.86500000 0.025216 48.278 0.999680 -40.69 0.999680 -40.69 0.025217 50.344
8.86525000 0.025223 48.273 0.999680 -40.69 0.999680 -40.69 0.025224 50.346
8.86550000 0.025230 48.268 0.999679 -40.69 0.999679 -40.69 0.025230 50.347
8.86556566 0.025232 48.267 0.999679 -40.69 0.999679 -40.69 0.025232 50.348
8.86575000 0.025237 48.264 0.999679 -40.70 0.999679 -40.70 0.025237 50.349
8.86600000 0.025244 48.259 0.999679 -40.70 0.999679 -40.70 0.025244 50.350
8.86625000 0.025251 48.255 0.999679 -40.70 0.999679 -40.70 0.025251 50.352
8.86650000 0.025258 48.250 0.999679 -40.70 0.999679 -40.70 0.025259 50.354
8.86675000 0.025265 48.245 0.999679 -40.70 0.999679 -40.70 0.025266 50.355
8.86687829 0.025269 48.243 0.999678 -40.70 0.999678 -40.70 0.025269 50.356
8.86700000 0.025273 48.240 0.999678 -40.70 0.999678 -40.70 0.025273 50.357
8.86725000 0.025280 48.236 0.999678 -40.70 0.999678 -40.70 0.025280 50.359
8.86750000 0.025287 48.231 0.999678 -40.71 0.999678 -40.71 0.025288 50.360
8.86775000 0.025295 48.226 0.999678 -40.71 0.999678 -40.71 0.025295 50.362
8.86800000 0.025302 48.221 0.999678 -40.71 0.999678 -40.71 0.025303 50.364
8.86816085 0.025307 48.218 0.999677 -40.71 0.999677 -40.71 0.025307 50.365
8.86825000 0.025310 48.216 0.999677 -40.71 0.999677 -40.71 0.025310 50.366
8.86850000 0.025317 48.211 0.999677 -40.71 0.999677 -40.71 0.025318 50.368
8.86875000 0.025325 48.206 0.999677 -40.71 0.999677 -40.71 0.025325 50.369
8.86900000 0.025333 48.201 0.999677 -40.72 0.999677 -40.72 0.025333 50.371
8.86925000 0.025341 48.196 0.999677 -40.72 0.999677 -40.72 0.025341 50.373
8.86941401 0.025346 48.193 0.999676 -40.72 0.999676 -40.72 0.025346 50.374
8.86950000 0.025348 48.191 0.999676 -40.72 0.999676 -40.72 0.025349 50.375
8.86975000 0.025356 48.186 0.999676 -40.72 0.999676 -40.72 0.025357 50.377
8.87000000 0.025364 48.181 0.999676 -40.72 0.999676 -40.72 0.025365 50.379
8.87025000 0.025372 48.175 0.999676 -40.72 0.999676 -40.72 0.025373 50.381
8.87050000 0.025381 48.170 0.999676 -40.73 0.999676 -40.73 0.025381 50.383
8.87063847 0.025385 48.167 0.999675 -40.73 0.999675 -40.73 0.025385 50.384
8.87075000 0.025389 48.165 0.999675 -40.73 0.999675 -40.73 0.025389 50.385
8.87100000 0.025397 48.160 0.999675 -40.73 0.999675 -40.73 0.025397 50.387
8.87125000 0.025405 48.154 0.999675 -40.73 0.999675 -40.73 0.025406 50.389
8.87150000 0.025414 48.149 0.999675 -40.73 0.999675 -40.73 0.025414 50.391
8.87175000 0.025422 48.143 0.999674 -40.73 0.999674 -40.73 0.025423 50.394
8.87183486 0.025425 48.142 0.999674 -40.73 0.999674 -40.73 0.025426 50.394
8.87200000 0.025431 48.138 0.999674 -40.73 0.999674 -40.73 0.025431 50.396
8.87225000 0.025440 48.132 0.999674 -40.74 0.999674 -40.74 0.025440 50.398
8.87250000 0.025449 48.127 0.999674 -40.74 0.999674 -40.74 0.025449 50.400
8.87275000 0.025457 48.121 0.999674 -40.74 0.999674 -40.74 0.025458 50.403
8.87300000 0.025466 48.116 0.999673 -40.74 0.999673 -40.74 0.025467 50.405
8.87300384 0.025466 48.116 0.999673 -40.74 0.999673 -40.74 0.025467 50.405
8.87325000 0.025475 48.110 0.999673 -40.74 0.999673 -40.74 0.025476 50.407
8.87350000 0.025484 48.104 0.999673 -40.74 0.999673 -40.74 0.025485 50.410
8.87375000 0.025494 48.098 0.999673 -40.75 0.999673 -40.75 0.025494 50.412
8.87400000 0.025503 48.093 0.999672 -40.75 0.999672 -40.75 0.025503 50.415
8.87414604 0.025508 48.089 0.999672 -40.75 0.999672 -40.75 0.025509 50.416
8.87425000 0.025512 48.087 0.999672 -40.75 0.999672 -40.75 0.025513 50.417
8.87450000 0.025522 48.081 0.999672 -40.75 0.999672 -40.75 0.025522 50.420
8.87475000 0.025531 48.075 0.999672 -40.75 0.999672 -40.75 0.025532 50.422
8.87500000 0.025541 48.069 0.999671 -40.75 0.999671 -40.75 0.025541 50.425
8.87525000 0.025551 48.063 0.999671 -40.76 0.999671 -40.76 0.025551 50.427
8.87526206 0.025551 48.063 0.999671 -40.76 0.999671 -40.76 0.025552 50.428
8.87550000 0.025560 48.057 0.999671 -40.76 0.999671 -40.76 0.025561 50.430
8.87575000 0.025570 48.051 0.999671 -40.76 0.999671 -40.76 0.025571 50.433
8.87600000 0.025580 48.044 0.999670 -40.76 0.999670 -40.76 0.025581 50.436
8.87625000 0.025591 48.038 0.999670 -40.76 0.999670 -40.76 0.025591 50.438
8.87635251 0.025595 48.036 0.999670 -40.76 0.999670 -40.76 0.025595 50.440
8.87650000 0.025601 48.032 0.999670 -40.76 0.999670 -40.76 0.025601 50.441
8.87675000 0.025611 48.026 0.999670 -40.77 0.999670 -40.77 0.025612 50.444
8.87700000 0.025622 48.019 0.999669 -40.77 0.999669 -40.77 0.025622 50.447
8.87725000 0.025632 48.013 0.999669 -40.77 0.999669 -40.77 0.025633 50.450
8.87741798 0.025639 48.008 0.999669 -40.77 0.999669 -40.77 0.025640 50.452
8.87750000 0.025643 48.006 0.999669 -40.77 0.999669 -40.77 0.025643 50.453
8.87775000 0.025654 48.000 0.999668 -40.77 0.999668 -40.77 0.025654 50.456
8.87800000 0.025665 47.993 0.999668 -40.78 0.999668 -40.78 0.025665 50.459
8.87825000 0.025676 47.986 0.999668 -40.78 0.999668 -40.78 0.025676 50.462
8.87845903 0.025685 47.981 0.999668 -40.78 0.999668 -40.78 0.025685 50.465
8.87850000 0.025687 47.980 0.999668 -40.78 0.999668 -40.78 0.025687 50.465
8.87875000 0.025698 47.973 0.999667 -40.78 0.999667 -40.78 0.025698 50.468
8.87900000 0.025709 47.966 0.999667 -40.78 0.999667 -40.78 0.025710 50.472
8.87925000 0.025721 47.959 0.999667 -40.78 0.999667 -40.78 0.025721 50.475
8.87947622 0.025731 47.953 0.999666 -40.79 0.999666 -40.79 0.025732 50.478
8.87950000 0.025733 47.952 0.999666 -40.79 0.999666 -40.79 0.025733 50.478
8.87975000 0.025744 47.945 0.999666 -40.79 0.999666 -40.79 0.025745 50.482
8.88000000 0.025756 47.938 0.999666 -40.79 0.999666 -40.79 0.025757 50.485
8.88025000 0.025768 47.931 0.999665 -40.79 0.999665 -40.79 0.025769 50.489
8.88047011 0.025779 47.924 0.999665 -40.79 0.999665 -40.79 0.025779 50.492
8.88050000 0.025780 47.924 0.999665 -40.79 0.999665 -40.79 0.025781 50.492
8.88075000 0.025793 47.916 0.999665 -40.80 0.999665 -40.80 0.025793 50.496
8.88100000 0.025805 47.909 0.999664 -40.80 0.999664 -40.80 0.025806 50.499
8.88125000 0.025818 47.901 0.999664 -40.80 0.999664 -40.80 0.025818 50.503
8.88144123 0.025827 47.896 0.999664 -40.80 0.999664 -40.80 0.025828 50.506
8.88150000 0.025830 47.894 0.999664 -40.80 0.999664 -40.80 0.025831 50.507
8.88175000 0.025843 47.886 0.999663 -40.80 0.999663 -40.80 0.025844 50.511
8.88200000 0.025856 47.879 0.999663 -40.80 0.999663 -40.80 0.025857 50.515
8.88225000 0.025870 47.871 0.999663 -40.81 0.999663 -40.81 0.025870 50.518
8.88239009 0.025877 47.867 0.999662 -40.81 0.999662 -40.81 0.025878 50.521
8.88250000 0.025883 47.863 0.999662 -40.81 0.999662 -40.81 0.025883 50.522
8.88275000 0.025896 47.855 0.999662 -40.81 0.999662 -40.81 0.025897 50.526
8.88300000 0.025910 47.847 0.999662 -40.81 0.999662 -40.81 0.025911 50.530
8.88325000 0.025924 47.839 0.999661 -40.81 0.999661 -40.81 0.025924 50.535
8.88331721 0.025928 47.837 0.999661 -40.81 0.999661 -40.81 0.025928 50.536
8.88350000 0.025938 47.831 0.999661 -40.82 0.999661 -40.82 0.025938 50.539
8.88375000 0.025952 47.823 0.999660 -40.82 0.999660 -40.82 0.025953 50.543
8.88400000 0.025966 47.815 0.999660 -40.82 0.999660 -40.82 0.025967 50.547
8.88422309 0.025979 47.807 0.999660 -40.82 0.999660 -40.82 0.025980 50.551
8.88425000 0.025981 47.806 0.999660 -40.82 0.999660 -40.82 0.025981 50.552
8.88450000 0.025996 47.798 0.999659 -40.82 0.999659 -40.82 0.025996 50.556
8.88475000 0.026011 47.789 0.999659 -40.83 0.999659 -40.83 0.026011 50.561
8.88500000 0.026026 47.781 0.999658 -40.83 0.999658 -40.83 0.026026 50.565
8.88510821 0.026032 47.777 0.999658 -40.83 0.999658 -40.83 0.026033 50.567
8.88525000 0.026041 47.772 0.999658 -40.83 0.999658 -40.83 0.026042 50.570
8.88550000 0.026056 47.763 0.999658 -40.83 0.999658 -40.83 0.026057 50.575
8.88575000 0.026072 47.754 0.999657 -40.83 0.999657 -40.83 0.026073 50.580
8.88597305 0.026086 47.746 0.999657 -40.84 0.999657 -40.84 0.026087 50.584
8.88600000 0.026088 47.745 0.999657 -40.84 0.999657 -40.84 0.026089 50.584
8.88625000 0.026104 47.736 0.999656 -40.84 0.999656 -40.84 0.026105 50.589
8.88650000 0.026120 47.727 0.999656 -40.84 0.999656 -40.84 0.026121 50.594
8.88675000 0.026137 47.717 0.999655 -40.84 0.999655 -40.84 0.026138 50.599
8.88681807 0.026141 47.715 0.999655 -40.84 0.999655 -40.84 0.026142 50.601
8.88700000 0.026154 47.708 0.999655 -40.84 0.999655 -40.84 0.026154 50.605
8.88725000 0.026171 47.698 0.999654 -40.85 0.999654 -40.85 0.026171 50.610
8.88750000 0.026188 47.689 0.999654 -40.85 0.999654 -40.85 0.026189 50.615
8.88764373 0.026198 47.683 0.999654 -40.85 0.999654 -40.85 0.026199 50.618
8.88775000 0.026205 47.679 0.999654 -40.85 0.999654 -40.85 0.026206 50.621
8.88800000 0.026223 47.669 0.999653 -40.85 0.999653 -40.85 0.026224 50.626
8.88825000 0.026241 47.659 0.999653 -40.85 0.999653 -40.85 0.026242 50.632
8.88845047 0.026256 47.651 0.999652 -40.86 0.999652 -40.86 0.026256 50.636
8.88850000 0.026259 47.649 0.999652 -40.86 0.999652 -40.86 0.026260 50.637
8.88875000 0.026278 47.639 0.999652 -40.86 0.999652 -40.86 0.026278 50.643
8.88900000 0.026296 47.628 0.999651 -40.86 0.999651 -40.86 0.026297 50.649
8.88923872 0.026315 47.618 0.999651 -40.86 0.999651 -40.86 0.026315 50.655
8.88925000 0.026315 47.618 0.999650 -40.86 0.999650 -40.86 0.026316 50.655
8.88950000 0.026335 47.607 0.999650 -40.87 0.999650 -40.87 0.026335 50.661
8.88975000 0.026354 47.596 0.999649 -40.87 0.999649 -40.87 0.026355 50.667
8.89000000 0.026374 47.586 0.999649 -40.87 0.999649 -40.87 0.026375 50.673
8.89000891 0.026375 47.585 0.999649 -40.87 0.999649 -40.87 0.026376 50.674
8.89025000 0.026394 47.575 0.999648 -40.87 0.999648 -40.87 0.026395 50.680
8.89050000 0.026415 47.563 0.999648 -40.87 0.999648 -40.87 0.026415 50.686
8.89075000 0.026435 47.552 0.999647 -40.88 0.999647 -40.88 0.026436 50.693
8.89076146 0.026436 47.552 0.999647 -40.88 0.999647 -40.88 0.026437 50.693
8.89100000 0.026457 47.541 0.999647 -40.88 0.999647 -40.88 0.026457 50.699