! Sonnet Data File
! From: emgraph Version : 16.52
! From Project: Resonator2_cp_cp
! Data is De-embedded 
! Data File Written: 10/06/2017 09:20:31
!< HDATE 10/05/2017 21:11:40
!< MDATE 10/05/2017 21:11:40
!< PARAMS
!< gap = 96.0
!< Length = 400.0
!< Pwid1 = 2000.0
!< Pwid2 = 2000.0
!< END PARAMS
# GHZ S MA R 51.80000
8.80000000 2.649e-5 -167.8 0.999997 -80.49 0.999997 -80.49 2.709e-5 177.11
!< P1 F=8.8 Eeff=(6.44679989 -2.9721e-5) Z0=(51.7992624 1.19519e-4) R=0.0 C=0.0 
!< P2 F=8.8 Eeff=(6.44679989 -2.9721e-5) Z0=(51.7992624 1.19519e-4) R=0.0 C=0.0 
8.80020000 2.648e-5 -167.7 0.999997 -80.49 0.999997 -80.49 2.708e-5 177.09
8.80040000 2.647e-5 -167.7 0.999997 -80.50 0.999997 -80.50 2.707e-5 177.07
8.80060000 2.646e-5 -167.7 0.999997 -80.50 0.999997 -80.50 2.707e-5 177.05
8.80080000 2.645e-5 -167.7 0.999997 -80.50 0.999997 -80.50 2.706e-5 177.03
8.80100000 2.644e-5 -167.7 0.999997 -80.50 0.999997 -80.50 2.705e-5 177.01
8.80120000 2.644e-5 -167.7 0.999997 -80.50 0.999997 -80.50 2.705e-5 176.99
8.80140000 2.643e-5 -167.7 0.999997 -80.51 0.999997 -80.51 2.704e-5 176.97
8.80160000 2.642e-5 -167.6 0.999997 -80.51 0.999997 -80.51 2.703e-5 176.95
8.80180000 2.641e-5 -167.6 0.999997 -80.51 0.999997 -80.51 2.702e-5 176.93
8.80200000 2.640e-5 -167.6 0.999997 -80.51 0.999997 -80.51 2.702e-5 176.91
8.80220000 2.639e-5 -167.6 0.999997 -80.51 0.999997 -80.51 2.701e-5 176.89
8.80240000 2.639e-5 -167.6 0.999997 -80.51 0.999997 -80.51 2.700e-5 176.87
8.80260000 2.638e-5 -167.6 0.999997 -80.52 0.999997 -80.52 2.700e-5 176.85
8.80280000 2.637e-5 -167.6 0.999997 -80.52 0.999997 -80.52 2.699e-5 176.83
8.80300000 2.636e-5 -167.5 0.999997 -80.52 0.999997 -80.52 2.698e-5 176.81
8.80320000 2.635e-5 -167.5 0.999997 -80.52 0.999997 -80.52 2.698e-5 176.79
8.80340000 2.634e-5 -167.5 0.999997 -80.52 0.999997 -80.52 2.697e-5 176.77
8.80360000 2.634e-5 -167.5 0.999997 -80.53 0.999997 -80.53 2.696e-5 176.75
8.80380000 2.633e-5 -167.5 0.999997 -80.53 0.999997 -80.53 2.696e-5 176.72
8.80400000 2.632e-5 -167.5 0.999997 -80.53 0.999997 -80.53 2.695e-5 176.70
8.80420000 2.631e-5 -167.5 0.999997 -80.53 0.999997 -80.53 2.694e-5 176.68
8.80440000 2.630e-5 -167.4 0.999997 -80.53 0.999997 -80.53 2.693e-5 176.66
8.80460000 2.629e-5 -167.4 0.999997 -80.53 0.999997 -80.53 2.693e-5 176.64
8.80480000 2.629e-5 -167.4 0.999997 -80.54 0.999997 -80.54 2.692e-5 176.62
8.80500000 2.628e-5 -167.4 0.999997 -80.54 0.999997 -80.54 2.691e-5 176.60
8.80520000 2.627e-5 -167.4 0.999997 -80.54 0.999997 -80.54 2.691e-5 176.58
8.80540000 2.626e-5 -167.4 0.999997 -80.54 0.999997 -80.54 2.690e-5 176.55
8.80560000 2.625e-5 -167.4 0.999997 -80.54 0.999997 -80.54 2.689e-5 176.53
8.80580000 2.624e-5 -167.3 0.999997 -80.55 0.999997 -80.55 2.689e-5 176.51
8.80600000 2.624e-5 -167.3 0.999997 -80.55 0.999997 -80.55 2.688e-5 176.49
8.80620000 2.623e-5 -167.3 0.999997 -80.55 0.999997 -80.55 2.687e-5 176.47
8.80640000 2.622e-5 -167.3 0.999997 -80.55 0.999997 -80.55 2.687e-5 176.45
8.80660000 2.621e-5 -167.3 0.999997 -80.55 0.999997 -80.55 2.686e-5 176.42
8.80680000 2.620e-5 -167.3 0.999997 -80.55 0.999997 -80.55 2.685e-5 176.40
8.80700000 2.619e-5 -167.2 0.999997 -80.56 0.999997 -80.56 2.685e-5 176.38
8.80720000 2.619e-5 -167.2 0.999997 -80.56 0.999997 -80.56 2.684e-5 176.36
8.80740000 2.618e-5 -167.2 0.999997 -80.56 0.999997 -80.56 2.683e-5 176.34
8.80760000 2.617e-5 -167.2 0.999997 -80.56 0.999997 -80.56 2.683e-5 176.31
8.80780000 2.616e-5 -167.2 0.999997 -80.56 0.999997 -80.56 2.682e-5 176.29
8.80800000 2.615e-5 -167.2 0.999997 -80.57 0.999997 -80.57 2.681e-5 176.27
8.80820000 2.614e-5 -167.1 0.999997 -80.57 0.999997 -80.57 2.681e-5 176.25
8.80840000 2.614e-5 -167.1 0.999997 -80.57 0.999997 -80.57 2.680e-5 176.22
8.80860000 2.613e-5 -167.1 0.999997 -80.57 0.999997 -80.57 2.679e-5 176.20
8.80880000 2.612e-5 -167.1 0.999997 -80.57 0.999997 -80.57 2.678e-5 176.18
8.80900000 2.611e-5 -167.1 0.999997 -80.57 0.999997 -80.57 2.678e-5 176.16
8.80920000 2.610e-5 -167.1 0.999997 -80.58 0.999997 -80.58 2.677e-5 176.13
8.80940000 2.609e-5 -167.1 0.999997 -80.58 0.999997 -80.58 2.676e-5 176.11
8.80960000 2.609e-5 -167.0 0.999997 -80.58 0.999997 -80.58 2.676e-5 176.09
8.80980000 2.608e-5 -167.0 0.999997 -80.58 0.999997 -80.58 2.675e-5 176.07
8.81000000 2.607e-5 -167.0 0.999997 -80.58 0.999997 -80.58 2.674e-5 176.04
8.81020000 2.606e-5 -167.0 0.999997 -80.59 0.999997 -80.59 2.674e-5 176.02
8.81040000 2.605e-5 -167.0 0.999997 -80.59 0.999997 -80.59 2.673e-5 176.00
8.81060000 2.604e-5 -166.9 0.999997 -80.59 0.999997 -80.59 2.672e-5 175.97
8.81080000 2.603e-5 -166.9 0.999997 -80.59 0.999997 -80.59 2.672e-5 175.95
8.81100000 2.603e-5 -166.9 0.999997 -80.59 0.999997 -80.59 2.671e-5 175.93
8.81120000 2.602e-5 -166.9 0.999997 -80.59 0.999997 -80.59 2.670e-5 175.90
8.81140000 2.601e-5 -166.9 0.999997 -80.60 0.999997 -80.60 2.670e-5 175.88
8.81160000 2.600e-5 -166.9 0.999997 -80.60 0.999997 -80.60 2.669e-5 175.86
8.81180000 2.599e-5 -166.8 0.999997 -80.60 0.999997 -80.60 2.668e-5 175.83
8.81200000 2.598e-5 -166.8 0.999997 -80.60 0.999997 -80.60 2.668e-5 175.81
8.81220000 2.598e-5 -166.8 0.999997 -80.60 0.999997 -80.60 2.667e-5 175.78
8.81240000 2.597e-5 -166.8 0.999997 -80.61 0.999997 -80.61 2.666e-5 175.76
8.81260000 2.596e-5 -166.8 0.999997 -80.61 0.999997 -80.61 2.666e-5 175.74
8.81280000 2.595e-5 -166.8 0.999997 -80.61 0.999997 -80.61 2.665e-5 175.71
8.81300000 2.594e-5 -166.7 0.999997 -80.61 0.999997 -80.61 2.664e-5 175.69
8.81320000 2.593e-5 -166.7 0.999997 -80.61 0.999997 -80.61 2.664e-5 175.66
8.81340000 2.593e-5 -166.7 0.999997 -80.62 0.999997 -80.62 2.663e-5 175.64
8.81360000 2.592e-5 -166.7 0.999997 -80.62 0.999997 -80.62 2.662e-5 175.61
8.81380000 2.591e-5 -166.7 0.999997 -80.62 0.999997 -80.62 2.662e-5 175.59
8.81400000 2.590e-5 -166.6 0.999997 -80.62 0.999997 -80.62 2.661e-5 175.56
8.81420000 2.589e-5 -166.6 0.999997 -80.62 0.999997 -80.62 2.660e-5 175.54
8.81440000 2.588e-5 -166.6 0.999997 -80.62 0.999997 -80.62 2.660e-5 175.52
8.81460000 2.588e-5 -166.6 0.999997 -80.63 0.999997 -80.63 2.659e-5 175.49
8.81480000 2.587e-5 -166.6 0.999997 -80.63 0.999997 -80.63 2.658e-5 175.47
8.81500000 2.586e-5 -166.6 0.999997 -80.63 0.999997 -80.63 2.658e-5 175.44
8.81520000 2.585e-5 -166.5 0.999997 -80.63 0.999997 -80.63 2.657e-5 175.42
8.81540000 2.584e-5 -166.5 0.999997 -80.63 0.999997 -80.63 2.656e-5 175.39
8.81560000 2.583e-5 -166.5 0.999997 -80.64 0.999997 -80.64 2.656e-5 175.36
8.81580000 2.582e-5 -166.5 0.999997 -80.64 0.999997 -80.64 2.655e-5 175.34
8.81600000 2.582e-5 -166.5 0.999997 -80.64 0.999997 -80.64 2.654e-5 175.31
8.81620000 2.581e-5 -166.4 0.999997 -80.64 0.999997 -80.64 2.654e-5 175.29
8.81640000 2.580e-5 -166.4 0.999997 -80.64 0.999997 -80.64 2.653e-5 175.26
8.81660000 2.579e-5 -166.4 0.999997 -80.64 0.999997 -80.64 2.652e-5 175.24
8.81680000 2.578e-5 -166.4 0.999997 -80.65 0.999997 -80.65 2.652e-5 175.21
8.81700000 2.577e-5 -166.4 0.999997 -80.65 0.999997 -80.65 2.651e-5 175.18
8.81720000 2.576e-5 -166.3 0.999997 -80.65 0.999997 -80.65 2.650e-5 175.16
8.81740000 2.576e-5 -166.3 0.999997 -80.65 0.999997 -80.65 2.650e-5 175.13
8.81760000 2.575e-5 -166.3 0.999997 -80.65 0.999997 -80.65 2.649e-5 175.11
8.81780000 2.574e-5 -166.3 0.999997 -80.66 0.999997 -80.66 2.648e-5 175.08
8.81800000 2.573e-5 -166.3 0.999997 -80.66 0.999997 -80.66 2.648e-5 175.05
8.81820000 2.572e-5 -166.2 0.999997 -80.66 0.999997 -80.66 2.647e-5 175.03
8.81840000 2.571e-5 -166.2 0.999997 -80.66 0.999997 -80.66 2.646e-5 175.00
8.81860000 2.570e-5 -166.2 0.999997 -80.66 0.999997 -80.66 2.646e-5 174.97
8.81880000 2.570e-5 -166.2 0.999997 -80.66 0.999997 -80.66 2.645e-5 174.95
8.81900000 2.569e-5 -166.2 0.999997 -80.67 0.999997 -80.67 2.644e-5 174.92
8.81920000 2.568e-5 -166.1 0.999997 -80.67 0.999997 -80.67 2.644e-5 174.89
8.81940000 2.567e-5 -166.1 0.999997 -80.67 0.999997 -80.67 2.643e-5 174.87
8.81960000 2.566e-5 -166.1 0.999997 -80.67 0.999997 -80.67 2.642e-5 174.84
8.81980000 2.565e-5 -166.1 0.999997 -80.67 0.999997 -80.67 2.642e-5 174.81
8.82000000 2.564e-5 -166.0 0.999997 -80.68 0.999997 -80.68 2.641e-5 174.78
8.82020000 2.563e-5 -166.0 0.999997 -80.68 0.999997 -80.68 2.640e-5 174.76
8.82040000 2.563e-5 -166.0 0.999997 -80.68 0.999997 -80.68 2.640e-5 174.73
8.82060000 2.562e-5 -166.0 0.999997 -80.68 0.999997 -80.68 2.639e-5 174.70
8.82080000 2.561e-5 -166.0 0.999997 -80.68 0.999997 -80.68 2.638e-5 174.67
8.82100000 2.560e-5 -165.9 0.999997 -80.68 0.999997 -80.68 2.638e-5 174.64
8.82120000 2.559e-5 -165.9 0.999997 -80.69 0.999997 -80.69 2.637e-5 174.62
8.82140000 2.558e-5 -165.9 0.999997 -80.69 0.999997 -80.69 2.636e-5 174.59
8.82160000 2.557e-5 -165.9 0.999997 -80.69 0.999997 -80.69 2.636e-5 174.56
8.82180000 2.556e-5 -165.8 0.999997 -80.69 0.999997 -80.69 2.635e-5 174.53
8.82200000 2.556e-5 -165.8 0.999997 -80.69 0.999997 -80.69 2.634e-5 174.50
8.82220000 2.555e-5 -165.8 0.999997 -80.70 0.999997 -80.70 2.633e-5 174.47
8.82240000 2.554e-5 -165.8 0.999997 -80.70 0.999997 -80.70 2.633e-5 174.45
8.82260000 2.553e-5 -165.8 0.999997 -80.70 0.999997 -80.70 2.632e-5 174.42
8.82280000 2.552e-5 -165.7 0.999997 -80.70 0.999997 -80.70 2.631e-5 174.39
8.82300000 2.551e-5 -165.7 0.999997 -80.70 0.999997 -80.70 2.631e-5 174.36
8.82320000 2.550e-5 -165.7 0.999997 -80.70 0.999997 -80.70 2.630e-5 174.33
8.82340000 2.549e-5 -165.7 0.999997 -80.71 0.999997 -80.71 2.629e-5 174.30
8.82360000 2.548e-5 -165.6 0.999997 -80.71 0.999997 -80.71 2.629e-5 174.27
8.82380000 2.547e-5 -165.6 0.999997 -80.71 0.999997 -80.71 2.628e-5 174.24
8.82400000 2.547e-5 -165.6 0.999997 -80.71 0.999997 -80.71 2.627e-5 174.21
8.82420000 2.546e-5 -165.6 0.999997 -80.71 0.999997 -80.71 2.627e-5 174.18
8.82440000 2.545e-5 -165.5 0.999997 -80.72 0.999997 -80.72 2.626e-5 174.15
8.82460000 2.544e-5 -165.5 0.999997 -80.72 0.999997 -80.72 2.625e-5 174.12
8.82480000 2.543e-5 -165.5 0.999997 -80.72 0.999997 -80.72 2.624e-5 174.09
8.82500000 2.542e-5 -165.5 0.999997 -80.72 0.999997 -80.72 2.624e-5 174.06
8.82520000 2.541e-5 -165.4 0.999997 -80.72 0.999997 -80.72 2.623e-5 174.03
8.82540000 2.540e-5 -165.4 0.999997 -80.72 0.999997 -80.72 2.622e-5 174.00
8.82560000 2.539e-5 -165.4 0.999997 -80.73 0.999997 -80.73 2.622e-5 173.97
8.82580000 2.538e-5 -165.4 0.999997 -80.73 0.999997 -80.73 2.621e-5 173.94
8.82600000 2.537e-5 -165.3 0.999997 -80.73 0.999997 -80.73 2.620e-5 173.91
8.82620000 2.536e-5 -165.3 0.999997 -80.73 0.999997 -80.73 2.620e-5 173.87
8.82640000 2.535e-5 -165.3 0.999997 -80.73 0.999997 -80.73 2.619e-5 173.84
8.82660000 2.535e-5 -165.3 0.999997 -80.74 0.999997 -80.74 2.618e-5 173.81
8.82680000 2.534e-5 -165.2 0.999997 -80.74 0.999997 -80.74 2.617e-5 173.78
8.82700000 2.533e-5 -165.2 0.999997 -80.74 0.999997 -80.74 2.617e-5 173.75
8.82720000 2.532e-5 -165.2 0.999997 -80.74 0.999997 -80.74 2.616e-5 173.72
8.82740000 2.531e-5 -165.2 0.999997 -80.74 0.999997 -80.74 2.615e-5 173.69
8.82760000 2.530e-5 -165.1 0.999997 -80.74 0.999997 -80.74 2.615e-5 173.65
8.82780000 2.529e-5 -165.1 0.999997 -80.75 0.999997 -80.75 2.614e-5 173.62
8.82800000 2.528e-5 -165.1 0.999997 -80.75 0.999997 -80.75 2.613e-5 173.59
8.82820000 2.527e-5 -165.1 0.999997 -80.75 0.999997 -80.75 2.612e-5 173.56
8.82840000 2.526e-5 -165.0 0.999997 -80.75 0.999997 -80.75 2.612e-5 173.52
8.82860000 2.525e-5 -165.0 0.999997 -80.75 0.999997 -80.75 2.611e-5 173.49
8.82880000 2.524e-5 -165.0 0.999997 -80.76 0.999997 -80.76 2.610e-5 173.46
8.82900000 2.523e-5 -165.0 0.999997 -80.76 0.999997 -80.76 2.610e-5 173.42
8.82920000 2.522e-5 -164.9 0.999997 -80.76 0.999997 -80.76 2.609e-5 173.39
8.82940000 2.521e-5 -164.9 0.999997 -80.76 0.999997 -80.76 2.608e-5 173.36
8.82960000 2.520e-5 -164.9 0.999997 -80.76 0.999997 -80.76 2.607e-5 173.32
8.82980000 2.519e-5 -164.8 0.999997 -80.77 0.999997 -80.77 2.607e-5 173.29
8.83000000 2.518e-5 -164.8 0.999997 -80.77 0.999997 -80.77 2.606e-5 173.26
8.83020000 2.517e-5 -164.8 0.999997 -80.77 0.999997 -80.77 2.605e-5 173.22
8.83040000 2.516e-5 -164.8 0.999997 -80.77 0.999997 -80.77 2.604e-5 173.19
8.83060000 2.515e-5 -164.7 0.999997 -80.77 0.999997 -80.77 2.604e-5 173.15
8.83080000 2.514e-5 -164.7 0.999997 -80.77 0.999997 -80.77 2.603e-5 173.12
8.83100000 2.513e-5 -164.7 0.999997 -80.78 0.999997 -80.78 2.602e-5 173.08
8.83120000 2.512e-5 -164.6 0.999997 -80.78 0.999997 -80.78 2.601e-5 173.05
8.83140000 2.511e-5 -164.6 0.999997 -80.78 0.999997 -80.78 2.601e-5 173.01
8.83160000 2.510e-5 -164.6 0.999997 -80.78 0.999997 -80.78 2.600e-5 172.98
8.83180000 2.509e-5 -164.6 0.999997 -80.78 0.999997 -80.78 2.599e-5 172.94
8.83200000 2.508e-5 -164.5 0.999997 -80.79 0.999997 -80.79 2.598e-5 172.91
8.83220000 2.507e-5 -164.5 0.999997 -80.79 0.999997 -80.79 2.598e-5 172.87
8.83240000 2.506e-5 -164.5 0.999997 -80.79 0.999997 -80.79 2.597e-5 172.84
8.83260000 2.505e-5 -164.4 0.999997 -80.79 0.999997 -80.79 2.596e-5 172.80
8.83280000 2.504e-5 -164.4 0.999997 -80.79 0.999997 -80.79 2.595e-5 172.77
8.83300000 2.503e-5 -164.4 0.999997 -80.79 0.999997 -80.79 2.595e-5 172.73
8.83320000 2.502e-5 -164.4 0.999997 -80.80 0.999997 -80.80 2.594e-5 172.69
8.83340000 2.501e-5 -164.3 0.999997 -80.80 0.999997 -80.80 2.593e-5 172.66
8.83360000 2.500e-5 -164.3 0.999997 -80.80 0.999997 -80.80 2.592e-5 172.62
8.83380000 2.499e-5 -164.3 0.999997 -80.80 0.999997 -80.80 2.592e-5 172.58
8.83400000 2.498e-5 -164.2 0.999997 -80.80 0.999997 -80.80 2.591e-5 172.54
8.83420000 2.497e-5 -164.2 0.999997 -80.81 0.999997 -80.81 2.590e-5 172.51
8.83440000 2.496e-5 -164.2 0.999997 -80.81 0.999997 -80.81 2.589e-5 172.47
8.83460000 2.495e-5 -164.1 0.999997 -80.81 0.999997 -80.81 2.588e-5 172.43
8.83480000 2.494e-5 -164.1 0.999997 -80.81 0.999997 -80.81 2.588e-5 172.39
8.83500000 2.493e-5 -164.1 0.999997 -80.81 0.999997 -80.81 2.587e-5 172.36
8.83520000 2.492e-5 -164.0 0.999997 -80.81 0.999997 -80.81 2.586e-5 172.32
8.83540000 2.490e-5 -164.0 0.999997 -80.82 0.999997 -80.82 2.585e-5 172.28
8.83560000 2.489e-5 -164.0 0.999997 -80.82 0.999997 -80.82 2.584e-5 172.24
8.83580000 2.488e-5 -163.9 0.999997 -80.82 0.999997 -80.82 2.584e-5 172.20
8.83600000 2.487e-5 -163.9 0.999997 -80.82 0.999997 -80.82 2.583e-5 172.16
8.83620000 2.486e-5 -163.9 0.999997 -80.82 0.999997 -80.82 2.582e-5 172.12
8.83640000 2.485e-5 -163.8 0.999997 -80.83 0.999997 -80.83 2.581e-5 172.08
8.83660000 2.484e-5 -163.8 0.999997 -80.83 0.999997 -80.83 2.580e-5 172.04
8.83680000 2.483e-5 -163.8 0.999997 -80.83 0.999997 -80.83 2.580e-5 172.00
8.83700000 2.482e-5 -163.7 0.999997 -80.83 0.999997 -80.83 2.579e-5 171.96
8.83720000 2.481e-5 -163.7 0.999997 -80.83 0.999997 -80.83 2.578e-5 171.92
8.83740000 2.479e-5 -163.7 0.999997 -80.83 0.999997 -80.83 2.577e-5 171.88
8.83760000 2.478e-5 -163.6 0.999997 -80.84 0.999997 -80.84 2.576e-5 171.84
8.83780000 2.477e-5 -163.6 0.999997 -80.84 0.999997 -80.84 2.575e-5 171.80
8.83800000 2.476e-5 -163.6 0.999997 -80.84 0.999997 -80.84 2.575e-5 171.76
8.83820000 2.475e-5 -163.5 0.999997 -80.84 0.999997 -80.84 2.574e-5 171.72
8.83840000 2.474e-5 -163.5 0.999997 -80.84 0.999997 -80.84 2.573e-5 171.68
8.83860000 2.473e-5 -163.5 0.999997 -80.85 0.999997 -80.85 2.572e-5 171.64
8.83880000 2.471e-5 -163.4 0.999997 -80.85 0.999997 -80.85 2.571e-5 171.59
8.83900000 2.470e-5 -163.4 0.999997 -80.85 0.999997 -80.85 2.570e-5 171.55
8.83920000 2.469e-5 -163.3 0.999997 -80.85 0.999997 -80.85 2.570e-5 171.51
8.83940000 2.468e-5 -163.3 0.999997 -80.85 0.999997 -80.85 2.569e-5 171.47
8.83960000 2.467e-5 -163.3 0.999997 -80.85 0.999997 -80.85 2.568e-5 171.42
8.83980000 2.466e-5 -163.2 0.999997 -80.86 0.999997 -80.86 2.567e-5 171.38
8.84000000 2.464e-5 -163.2 0.999997 -80.86 0.999997 -80.86 2.566e-5 171.34
8.84020000 2.463e-5 -163.2 0.999997 -80.86 0.999997 -80.86 2.565e-5 171.29
8.84040000 2.462e-5 -163.1 0.999997 -80.86 0.999997 -80.86 2.564e-5 171.25
8.84060000 2.461e-5 -163.1 0.999997 -80.86 0.999997 -80.86 2.563e-5 171.20
8.84080000 2.460e-5 -163.1 0.999997 -80.87 0.999997 -80.87 2.563e-5 171.16
8.84100000 2.458e-5 -163.0 0.999997 -80.87 0.999997 -80.87 2.562e-5 171.12
8.84120000 2.457e-5 -163.0 0.999997 -80.87 0.999997 -80.87 2.561e-5 171.07
8.84140000 2.456e-5 -162.9 0.999997 -80.87 0.999997 -80.87 2.560e-5 171.02
8.84160000 2.455e-5 -162.9 0.999997 -80.87 0.999997 -80.87 2.559e-5 170.98
8.84180000 2.453e-5 -162.9 0.999997 -80.87 0.999997 -80.87 2.558e-5 170.93
8.84200000 2.452e-5 -162.8 0.999997 -80.88 0.999997 -80.88 2.557e-5 170.89
8.84220000 2.451e-5 -162.8 0.999997 -80.88 0.999997 -80.88 2.556e-5 170.84
8.84240000 2.450e-5 -162.7 0.999997 -80.88 0.999997 -80.88 2.555e-5 170.80
8.84260000 2.448e-5 -162.7 0.999997 -80.88 0.999997 -80.88 2.554e-5 170.75
8.84280000 2.447e-5 -162.7 0.999997 -80.88 0.999997 -80.88 2.553e-5 170.70
8.84300000 2.446e-5 -162.6 0.999997 -80.89 0.999997 -80.89 2.553e-5 170.65
8.84320000 2.445e-5 -162.6 0.999997 -80.89 0.999997 -80.89 2.552e-5 170.61
8.84340000 2.443e-5 -162.5 0.999997 -80.89 0.999997 -80.89 2.551e-5 170.56
8.84360000 2.442e-5 -162.5 0.999997 -80.89 0.999997 -80.89 2.550e-5 170.51
8.84380000 2.441e-5 -162.4 0.999997 -80.89 0.999997 -80.89 2.549e-5 170.46
8.84400000 2.439e-5 -162.4 0.999997 -80.90 0.999997 -80.90 2.548e-5 170.41
8.84420000 2.438e-5 -162.4 0.999997 -80.90 0.999997 -80.90 2.547e-5 170.37
8.84440000 2.437e-5 -162.3 0.999997 -80.90 0.999997 -80.90 2.546e-5 170.32
8.84460000 2.435e-5 -162.3 0.999997 -80.90 0.999997 -80.90 2.545e-5 170.27
8.84480000 2.434e-5 -162.2 0.999997 -80.90 0.999997 -80.90 2.544e-5 170.22
8.84500000 2.433e-5 -162.2 0.999997 -80.90 0.999997 -80.90 2.543e-5 170.17
8.84520000 2.431e-5 -162.1 0.999997 -80.91 0.999997 -80.91 2.542e-5 170.12
8.84540000 2.430e-5 -162.1 0.999997 -80.91 0.999997 -80.91 2.541e-5 170.07
8.84560000 2.429e-5 -162.1 0.999997 -80.91 0.999997 -80.91 2.540e-5 170.01
8.84580000 2.427e-5 -162.0 0.999997 -80.91 0.999997 -80.91 2.539e-5 169.96
8.84600000 2.426e-5 -162.0 0.999997 -80.91 0.999997 -80.91 2.538e-5 169.91
8.84620000 2.425e-5 -161.9 0.999997 -80.92 0.999997 -80.92 2.537e-5 169.86
8.84640000 2.423e-5 -161.9 0.999997 -80.92 0.999997 -80.92 2.536e-5 169.81
8.84660000 2.422e-5 -161.8 0.999997 -80.92 0.999997 -80.92 2.535e-5 169.76
8.84680000 2.420e-5 -161.8 0.999997 -80.92 0.999997 -80.92 2.534e-5 169.70
8.84700000 2.419e-5 -161.7 0.999997 -80.92 0.999997 -80.92 2.533e-5 169.65
8.84720000 2.418e-5 -161.7 0.999997 -80.92 0.999997 -80.92 2.532e-5 169.60
8.84740000 2.416e-5 -161.6 0.999997 -80.93 0.999997 -80.93 2.531e-5 169.54
8.84760000 2.415e-5 -161.6 0.999997 -80.93 0.999997 -80.93 2.530e-5 169.49
8.84780000 2.413e-5 -161.5 0.999997 -80.93 0.999997 -80.93 2.529e-5 169.43
8.84800000 2.412e-5 -161.5 0.999997 -80.93 0.999997 -80.93 2.528e-5 169.38
8.84820000 2.410e-5 -161.4 0.999997 -80.93 0.999997 -80.93 2.527e-5 169.32
8.84840000 2.409e-5 -161.4 0.999997 -80.94 0.999997 -80.94 2.526e-5 169.27
8.84860000 2.407e-5 -161.3 0.999997 -80.94 0.999997 -80.94 2.525e-5 169.21
8.84880000 2.406e-5 -161.3 0.999997 -80.94 0.999997 -80.94 2.524e-5 169.16
8.84900000 2.404e-5 -161.2 0.999997 -80.94 0.999997 -80.94 2.522e-5 169.10
8.84920000 2.403e-5 -161.2 0.999997 -80.94 0.999997 -80.94 2.521e-5 169.04
8.84940000 2.401e-5 -161.1 0.999997 -80.94 0.999997 -80.94 2.520e-5 168.98
8.84960000 2.400e-5 -161.1 0.999997 -80.95 0.999997 -80.95 2.519e-5 168.93
8.84980000 2.398e-5 -161.0 0.999997 -80.95 0.999997 -80.95 2.518e-5 168.87
8.85000000 2.397e-5 -161.0 0.999997 -80.95 0.999997 -80.95 2.517e-5 168.81
8.85020000 2.395e-5 -160.9 0.999997 -80.95 0.999997 -80.95 2.516e-5 168.75
8.85040000 2.394e-5 -160.9 0.999997 -80.95 0.999997 -80.95 2.515e-5 168.69
8.85060000 2.392e-5 -160.8 0.999997 -80.96 0.999997 -80.96 2.514e-5 168.63
8.85080000 2.391e-5 -160.8 0.999997 -80.96 0.999997 -80.96 2.513e-5 168.57
8.85100000 2.389e-5 -160.7 0.999997 -80.96 0.999997 -80.96 2.511e-5 168.51
8.85120000 2.388e-5 -160.7 0.999997 -80.96 0.999997 -80.96 2.510e-5 168.45
8.85140000 2.386e-5 -160.6 0.999997 -80.96 0.999997 -80.96 2.509e-5 168.39
8.85160000 2.384e-5 -160.6 0.999997 -80.96 0.999997 -80.96 2.508e-5 168.33
8.85180000 2.383e-5 -160.5 0.999997 -80.97 0.999997 -80.97 2.507e-5 168.27
8.85200000 2.381e-5 -160.4 0.999997 -80.97 0.999997 -80.97 2.506e-5 168.20
8.85220000 2.379e-5 -160.4 0.999997 -80.97 0.999997 -80.97 2.504e-5 168.14
8.85240000 2.378e-5 -160.3 0.999997 -80.97 0.999997 -80.97 2.503e-5 168.08
8.85260000 2.376e-5 -160.3 0.999997 -80.97 0.999997 -80.97 2.502e-5 168.01
8.85280000 2.374e-5 -160.2 0.999997 -80.98 0.999997 -80.98 2.501e-5 167.95
8.85300000 2.373e-5 -160.2 0.999997 -80.98 0.999997 -80.98 2.500e-5 167.89
8.85320000 2.371e-5 -160.1 0.999997 -80.98 0.999997 -80.98 2.498e-5 167.82
8.85340000 2.369e-5 -160.0 0.999997 -80.98 0.999997 -80.98 2.497e-5 167.75
8.85360000 2.368e-5 -160.0 0.999997 -80.98 0.999997 -80.98 2.496e-5 167.69
8.85380000 2.366e-5 -159.9 0.999997 -80.98 0.999997 -80.98 2.495e-5 167.62
8.85400000 2.364e-5 -159.9 0.999997 -80.99 0.999997 -80.99 2.494e-5 167.55
8.85420000 2.363e-5 -159.8 0.999997 -80.99 0.999997 -80.99 2.492e-5 167.49
8.85440000 2.361e-5 -159.7 0.999997 -80.99 0.999997 -80.99 2.491e-5 167.42
8.85460000 2.359e-5 -159.7 0.999997 -80.99 0.999997 -80.99 2.490e-5 167.35
8.85480000 2.357e-5 -159.6 0.999997 -80.99 0.999997 -80.99 2.489e-5 167.28
8.85500000 2.356e-5 -159.6 0.999997 -81.00 0.999997 -81.00 2.487e-5 167.21
8.85520000 2.354e-5 -159.5 0.999997 -81.00 0.999997 -81.00 2.486e-5 167.14
8.85540000 2.352e-5 -159.4 0.999997 -81.00 0.999997 -81.00 2.485e-5 167.07
8.85560000 2.350e-5 -159.4 0.999997 -81.00 0.999997 -81.00 2.483e-5 167.00
8.85580000 2.348e-5 -159.3 0.999997 -81.00 0.999997 -81.00 2.482e-5 166.93
8.85600000 2.346e-5 -159.2 0.999997 -81.00 0.999997 -81.00 2.481e-5 166.86
8.85620000 2.345e-5 -159.2 0.999997 -81.01 0.999997 -81.01 2.479e-5 166.79
8.85640000 2.343e-5 -159.1 0.999997 -81.01 0.999997 -81.01 2.478e-5 166.71
8.85660000 2.341e-5 -159.0 0.999997 -81.01 0.999997 -81.01 2.477e-5 166.64
8.85680000 2.339e-5 -159.0 0.999997 -81.01 0.999997 -81.01 2.475e-5 166.57
8.85700000 2.337e-5 -158.9 0.999997 -81.01 0.999997 -81.01 2.474e-5 166.49
8.85720000 2.335e-5 -158.8 0.999997 -81.02 0.999997 -81.02 2.473e-5 166.42
8.85740000 2.333e-5 -158.8 0.999997 -81.02 0.999997 -81.02 2.471e-5 166.34
8.85760000 2.331e-5 -158.7 0.999997 -81.02 0.999997 -81.02 2.470e-5 166.26
8.85780000 2.329e-5 -158.6 0.999997 -81.02 0.999997 -81.02 2.469e-5 166.19
8.85800000 2.328e-5 -158.5 0.999997 -81.02 0.999997 -81.02 2.467e-5 166.11
8.85820000 2.326e-5 -158.5 0.999997 -81.03 0.999997 -81.03 2.466e-5 166.03
8.85840000 2.324e-5 -158.4 0.999997 -81.03 0.999997 -81.03 2.465e-5 165.95
8.85860000 2.322e-5 -158.3 0.999997 -81.03 0.999997 -81.03 2.463e-5 165.87
8.85880000 2.320e-5 -158.3 0.999997 -81.03 0.999997 -81.03 2.462e-5 165.79
8.85900000 2.318e-5 -158.2 0.999997 -81.03 0.999997 -81.03 2.460e-5 165.71
8.85920000 2.316e-5 -158.1 0.999997 -81.03 0.999997 -81.03 2.459e-5 165.63
8.85940000 2.314e-5 -158.0 0.999997 -81.04 0.999997 -81.04 2.457e-5 165.55
8.85960000 2.312e-5 -158.0 0.999997 -81.04 0.999997 -81.04 2.456e-5 165.47
8.85980000 2.309e-5 -157.9 0.999997 -81.04 0.999997 -81.04 2.454e-5 165.39
8.86000000 2.307e-5 -157.8 0.999997 -81.04 0.999997 -81.04 2.453e-5 165.30
8.86020000 2.305e-5 -157.7 0.999997 -81.04 0.999997 -81.04 2.452e-5 165.22
8.86040000 2.303e-5 -157.6 0.999997 -81.05 0.999997 -81.05 2.450e-5 165.13
8.86060000 2.301e-5 -157.6 0.999997 -81.05 0.999997 -81.05 2.449e-5 165.05
8.86080000 2.299e-5 -157.5 0.999997 -81.05 0.999997 -81.05 2.447e-5 164.96
8.86100000 2.297e-5 -157.4 0.999997 -81.05 0.999997 -81.05 2.446e-5 164.87
8.86120000 2.295e-5 -157.3 0.999997 -81.05 0.999997 -81.05 2.444e-5 164.79
8.86140000 2.292e-5 -157.2 0.999997 -81.05 0.999997 -81.05 2.442e-5 164.70
8.86160000 2.290e-5 -157.2 0.999997 -81.06 0.999997 -81.06 2.441e-5 164.61
8.86180000 2.288e-5 -157.1 0.999997 -81.06 0.999997 -81.06 2.439e-5 164.52
8.86200000 2.286e-5 -157.0 0.999997 -81.06 0.999997 -81.06 2.438e-5 164.43
8.86220000 2.284e-5 -156.9 0.999997 -81.06 0.999997 -81.06 2.436e-5 164.34
8.86240000 2.281e-5 -156.8 0.999997 -81.06 0.999997 -81.06 2.435e-5 164.24
8.86260000 2.279e-5 -156.7 0.999997 -81.07 0.999997 -81.07 2.433e-5 164.15
8.86280000 2.277e-5 -156.6 0.999997 -81.07 0.999997 -81.07 2.432e-5 164.06
8.86300000 2.275e-5 -156.6 0.999997 -81.07 0.999997 -81.07 2.430e-5 163.96
8.86320000 2.272e-5 -156.5 0.999997 -81.07 0.999997 -81.07 2.428e-5 163.87
8.86340000 2.270e-5 -156.4 0.999997 -81.07 0.999997 -81.07 2.427e-5 163.77
8.86360000 2.268e-5 -156.3 0.999997 -81.07 0.999997 -81.07 2.425e-5 163.67
8.86380000 2.265e-5 -156.2 0.999997 -81.08 0.999997 -81.08 2.423e-5 163.58
8.86400000 2.263e-5 -156.1 0.999997 -81.08 0.999997 -81.08 2.422e-5 163.48
8.86420000 2.261e-5 -156.0 0.999997 -81.08 0.999997 -81.08 2.420e-5 163.38
8.86440000 2.258e-5 -155.9 0.999997 -81.08 0.999997 -81.08 2.418e-5 163.28
8.86460000 2.256e-5 -155.8 0.999997 -81.08 0.999997 -81.08 2.417e-5 163.18
8.86480000 2.253e-5 -155.7 0.999997 -81.09 0.999997 -81.09 2.415e-5 163.07
8.86500000 2.251e-5 -155.6 0.999997 -81.09 0.999997 -81.09 2.413e-5 162.97
8.86520000 2.248e-5 -155.5 0.999997 -81.09 0.999997 -81.09 2.412e-5 162.87
8.86540000 2.246e-5 -155.4 0.999997 -81.09 0.999997 -81.09 2.410e-5 162.76
8.86560000 2.244e-5 -155.3 0.999997 -81.09 0.999997 -81.09 2.408e-5 162.66
8.86580000 2.241e-5 -155.2 0.999997 -81.09 0.999997 -81.09 2.407e-5 162.55
8.86600000 2.239e-5 -155.1 0.999997 -81.10 0.999997 -81.10 2.405e-5 162.44
8.86620000 2.236e-5 -155.0 0.999997 -81.10 0.999997 -81.10 2.403e-5 162.33
8.86640000 2.233e-5 -154.9 0.999997 -81.10 0.999997 -81.10 2.401e-5 162.22
8.86660000 2.231e-5 -154.8 0.999997 -81.10 0.999997 -81.10 2.400e-5 162.11
8.86680000 2.228e-5 -154.7 0.999997 -81.10 0.999997 -81.10 2.398e-5 162.00
8.86700000 2.226e-5 -154.6 0.999997 -81.11 0.999997 -81.11 2.396e-5 161.89
8.86720000 2.223e-5 -154.5 0.999997 -81.11 0.999997 -81.11 2.394e-5 161.78
8.86740000 2.220e-5 -154.4 0.999997 -81.11 0.999997 -81.11 2.392e-5 161.66
8.86760000 2.218e-5 -154.3 0.999997 -81.11 0.999997 -81.11 2.391e-5 161.55
8.86780000 2.215e-5 -154.2 0.999997 -81.11 0.999997 -81.11 2.389e-5 161.43
8.86800000 2.212e-5 -154.1 0.999997 -81.11 0.999997 -81.11 2.387e-5 161.31
8.86820000 2.210e-5 -153.9 0.999997 -81.12 0.999997 -81.12 2.385e-5 161.19
8.86840000 2.207e-5 -153.8 0.999997 -81.12 0.999997 -81.12 2.383e-5 161.07
8.86860000 2.204e-5 -153.7 0.999997 -81.12 0.999997 -81.12 2.381e-5 160.95
8.86880000 2.202e-5 -153.6 0.999997 -81.12 0.999997 -81.12 2.379e-5 160.83
8.86900000 2.199e-5 -153.5 0.999997 -81.12 0.999997 -81.12 2.378e-5 160.71
8.86920000 2.196e-5 -153.3 0.999997 -81.13 0.999997 -81.13 2.376e-5 160.58
8.86940000 2.193e-5 -153.2 0.999997 -81.13 0.999997 -81.13 2.374e-5 160.46
8.86960000 2.190e-5 -153.1 0.999997 -81.13 0.999997 -81.13 2.372e-5 160.33
8.86980000 2.188e-5 -153.0 0.999997 -81.13 0.999997 -81.13 2.370e-5 160.20
8.87000000 2.185e-5 -152.9 0.999997 -81.13 0.999997 -81.13 2.368e-5 160.07
8.87020000 2.182e-5 -152.7 0.999997 -81.13 0.999997 -81.13 2.366e-5 159.94
8.87040000 2.179e-5 -152.6 0.999997 -81.14 0.999997 -81.14 2.364e-5 159.81
8.87060000 2.176e-5 -152.5 0.999997 -81.14 0.999997 -81.14 2.362e-5 159.67
8.87080000 2.173e-5 -152.3 0.999997 -81.14 0.999997 -81.14 2.360e-5 159.54
8.87100000 2.170e-5 -152.2 0.999997 -81.14 0.999997 -81.14 2.358e-5 159.40
8.87120000 2.167e-5 -152.1 0.999997 -81.14 0.999997 -81.14 2.356e-5 159.27
8.87140000 2.164e-5 -151.9 0.999997 -81.15 0.999997 -81.15 2.354e-5 159.13
8.87160000 2.161e-5 -151.8 0.999997 -81.15 0.999997 -81.15 2.352e-5 158.99
8.87180000 2.158e-5 -151.7 0.999997 -81.15 0.999997 -81.15 2.350e-5 158.85
8.87200000 2.155e-5 -151.5 0.999997 -81.15 0.999997 -81.15 2.348e-5 158.70
8.87220000 2.152e-5 -151.4 0.999997 -81.15 0.999997 -81.15 2.346e-5 158.56
8.87240000 2.149e-5 -151.2 0.999997 -81.16 0.999997 -81.16 2.344e-5 158.41
8.87260000 2.146e-5 -151.1 0.999997 -81.16 0.999997 -81.16 2.342e-5 158.27
8.87280000 2.143e-5 -151.0 0.999997 -81.16 0.999997 -81.16 2.340e-5 158.12
8.87300000 2.140e-5 -150.8 0.999997 -81.16 0.999997 -81.16 2.338e-5 157.97
8.87320000 2.137e-5 -150.7 0.999997 -81.16 0.999997 -81.16 2.336e-5 157.81
8.87340000 2.133e-5 -150.5 0.999997 -81.16 0.999997 -81.16 2.334e-5 157.66
8.87360000 2.130e-5 -150.3 0.999997 -81.17 0.999997 -81.17 2.332e-5 157.51
8.87380000 2.127e-5 -150.2 0.999997 -81.17 0.999997 -81.17 2.330e-5 157.35
8.87400000 2.124e-5 -150.0 0.999997 -81.17 0.999997 -81.17 2.327e-5 157.19
8.87420000 2.121e-5 -149.9 0.999997 -81.17 0.999997 -81.17 2.325e-5 157.03
8.87440000 2.117e-5 -149.7 0.999997 -81.17 0.999997 -81.17 2.323e-5 156.87
8.87460000 2.114e-5 -149.6 0.999997 -81.18 0.999997 -81.18 2.321e-5 156.70
8.87480000 2.111e-5 -149.4 0.999997 -81.18 0.999997 -81.18 2.319e-5 156.54
8.87500000 2.107e-5 -149.2 0.999997 -81.18 0.999997 -81.18 2.317e-5 156.37
8.87520000 2.104e-5 -149.1 0.999997 -81.18 0.999997 -81.18 2.315e-5 156.20
8.87540000 2.101e-5 -148.9 0.999997 -81.18 0.999997 -81.18 2.313e-5 156.03
8.87560000 2.097e-5 -148.7 0.999997 -81.18 0.999997 -81.18 2.310e-5 155.86
8.87580000 2.094e-5 -148.5 0.999997 -81.19 0.999997 -81.19 2.308e-5 155.69
8.87600000 2.091e-5 -148.4 0.999997 -81.19 0.999997 -81.19 2.306e-5 155.51
8.87620000 2.087e-5 -148.2 0.999997 -81.19 0.999997 -81.19 2.304e-5 155.33
8.87640000 2.084e-5 -148.0 0.999997 -81.19 0.999997 -81.19 2.302e-5 155.15
8.87660000 2.080e-5 -147.8 0.999997 -81.19 0.999997 -81.19 2.300e-5 154.97
8.87680000 2.077e-5 -147.6 0.999997 -81.20 0.999997 -81.20 2.297e-5 154.78
8.87700000 2.073e-5 -147.4 0.999997 -81.20 0.999997 -81.20 2.295e-5 154.60
8.87720000 2.070e-5 -147.3 0.999997 -81.20 0.999997 -81.20 2.293e-5 154.41
8.87740000 2.066e-5 -147.1 0.999997 -81.20 0.999997 -81.20 2.291e-5 154.22
8.87760000 2.063e-5 -146.9 0.999997 -81.20 0.999997 -81.20 2.289e-5 154.03
8.87780000 2.059e-5 -146.7 0.999997 -81.20 0.999997 -81.20 2.286e-5 153.83
8.87800000 2.056e-5 -146.5 0.999997 -81.21 0.999997 -81.21 2.284e-5 153.63
8.87820000 2.052e-5 -146.3 0.999997 -81.21 0.999997 -81.21 2.282e-5 153.43
8.87840000 2.049e-5 -146.1 0.999997 -81.21 0.999997 -81.21 2.280e-5 153.23