! Sonnet Data File
! From: emgraph Version : 16.52
! From Project: Resonator2_extremeCap
! Data is De-embedded 
! Data File Written: 10/11/2017 17:55:30
!< HDATE 10/10/2017 20:37:37
!< MDATE 10/10/2017 20:37:37
!< PARAMS
!< Pwid1 = 2000.0
!< Pwid2 = 2000.0
!< Air_gap = 30.0
!< Width = 50.0
!< Gap = 60.0
!< END PARAMS
# GHZ S MA R 50.70000
8.95000000 0.104899 2.6483 0.994477 -88.20 0.994477 -88.20 0.104895 0.9619
!< P1 F=8.95 Eeff=(6.44048267 -2.9687e-5) Z0=(50.4065418 1.16289e-4) R=0.0 C=0.0 
!< P2 F=8.95 Eeff=(6.44048267 -2.9687e-5) Z0=(50.4065418 1.16289e-4) R=0.0 C=0.0 
8.95020000 0.104910 2.6562 0.994476 -88.20 0.994476 -88.20 0.104905 0.9473
8.95040000 0.104921 2.6642 0.994475 -88.20 0.994475 -88.20 0.104916 0.9326
8.95060000 0.104932 2.6722 0.994474 -88.21 0.994474 -88.21 0.104927 0.9179
8.95080000 0.104943 2.6802 0.994472 -88.21 0.994472 -88.21 0.104938 0.9032
8.95100000 0.104954 2.6883 0.994471 -88.21 0.994471 -88.21 0.104949 0.8884
8.95120000 0.104965 2.6964 0.994470 -88.22 0.994470 -88.22 0.104960 0.8736
8.95140000 0.104976 2.7045 0.994469 -88.22 0.994469 -88.22 0.104972 0.8587
8.95160000 0.104987 2.7127 0.994468 -88.22 0.994468 -88.22 0.104983 0.8438
8.95180000 0.104998 2.7209 0.994467 -88.23 0.994467 -88.23 0.104994 0.8289
8.95200000 0.105009 2.7291 0.994465 -88.23 0.994465 -88.23 0.105005 0.8139
8.95220000 0.105021 2.7374 0.994464 -88.23 0.994464 -88.23 0.105016 0.7989
8.95240000 0.105032 2.7456 0.994463 -88.24 0.994463 -88.24 0.105027 0.7839
8.95260000 0.105043 2.7540 0.994462 -88.24 0.994462 -88.24 0.105039 0.7688
8.95280000 0.105054 2.7623 0.994461 -88.24 0.994461 -88.24 0.105050 0.7537
8.95300000 0.105066 2.7707 0.994459 -88.25 0.994459 -88.25 0.105061 0.7385
8.95320000 0.105077 2.7791 0.994458 -88.25 0.994458 -88.25 0.105072 0.7233
8.95340000 0.105088 2.7875 0.994457 -88.25 0.994457 -88.25 0.105084 0.7080
8.95360000 0.105100 2.7960 0.994456 -88.26 0.994456 -88.26 0.105095 0.6927
8.95380000 0.105111 2.8045 0.994455 -88.26 0.994455 -88.26 0.105107 0.6774
8.95400000 0.105123 2.8131 0.994453 -88.26 0.994453 -88.26 0.105118 0.6620
8.95420000 0.105134 2.8216 0.994452 -88.27 0.994452 -88.27 0.105130 0.6466
8.95440000 0.105146 2.8302 0.994451 -88.27 0.994451 -88.27 0.105141 0.6312
8.95460000 0.105157 2.8389 0.994450 -88.27 0.994450 -88.27 0.105153 0.6157
8.95480000 0.105169 2.8475 0.994448 -88.28 0.994448 -88.28 0.105164 0.6001
8.95500000 0.105180 2.8562 0.994447 -88.28 0.994447 -88.28 0.105176 0.5846
8.95520000 0.105192 2.8650 0.994446 -88.28 0.994446 -88.28 0.105187 0.5689
8.95540000 0.105204 2.8737 0.994445 -88.29 0.994445 -88.29 0.105199 0.5533
8.95560000 0.105215 2.8825 0.994443 -88.29 0.994443 -88.29 0.105211 0.5376
8.95580000 0.105227 2.8914 0.994442 -88.29 0.994442 -88.29 0.105222 0.5218
8.95600000 0.105239 2.9002 0.994441 -88.30 0.994441 -88.30 0.105234 0.5060
8.95620000 0.105251 2.9091 0.994440 -88.30 0.994440 -88.30 0.105246 0.4902
8.95640000 0.105263 2.9181 0.994438 -88.30 0.994438 -88.30 0.105258 0.4743
8.95660000 0.105274 2.9270 0.994437 -88.31 0.994437 -88.31 0.105270 0.4584
8.95680000 0.105286 2.9361 0.994436 -88.31 0.994436 -88.31 0.105281 0.4424
8.95700000 0.105298 2.9451 0.994435 -88.31 0.994435 -88.31 0.105293 0.4264
8.95720000 0.105310 2.9542 0.994433 -88.32 0.994433 -88.32 0.105305 0.4103
8.95740000 0.105322 2.9633 0.994432 -88.32 0.994432 -88.32 0.105317 0.3942
8.95760000 0.105334 2.9724 0.994431 -88.33 0.994431 -88.33 0.105329 0.3781
8.95780000 0.105346 2.9816 0.994430 -88.33 0.994430 -88.33 0.105341 0.3619
8.95800000 0.105358 2.9908 0.994428 -88.33 0.994428 -88.33 0.105353 0.3457
8.95820000 0.105370 3.0001 0.994427 -88.34 0.994427 -88.34 0.105365 0.3294
8.95840000 0.105382 3.0093 0.994426 -88.34 0.994426 -88.34 0.105377 0.3131
8.95860000 0.105395 3.0187 0.994424 -88.34 0.994424 -88.34 0.105390 0.2967
8.95880000 0.105407 3.0280 0.994423 -88.35 0.994423 -88.35 0.105402 0.2803
8.95900000 0.105419 3.0374 0.994422 -88.35 0.994422 -88.35 0.105414 0.2638
8.95920000 0.105431 3.0468 0.994420 -88.35 0.994420 -88.35 0.105426 0.2473
8.95940000 0.105444 3.0563 0.994419 -88.36 0.994419 -88.36 0.105439 0.2308
8.95960000 0.105456 3.0658 0.994418 -88.36 0.994418 -88.36 0.105451 0.2142
8.95980000 0.105468 3.0754 0.994417 -88.36 0.994417 -88.36 0.105463 0.1975
8.96000000 0.105481 3.0849 0.994415 -88.37 0.994415 -88.37 0.105476 0.1808
8.96020000 0.105493 3.0945 0.994414 -88.37 0.994414 -88.37 0.105488 0.1641
8.96040000 0.105506 3.1042 0.994413 -88.37 0.994413 -88.37 0.105501 0.1473
8.96060000 0.105518 3.1139 0.994411 -88.38 0.994411 -88.38 0.105513 0.1304
8.96080000 0.105531 3.1236 0.994410 -88.38 0.994410 -88.38 0.105526 0.1136
8.96100000 0.105543 3.1334 0.994408 -88.39 0.994408 -88.39 0.105538 0.0966
8.96120000 0.105556 3.1432 0.994407 -88.39 0.994407 -88.39 0.105551 0.0796
8.96140000 0.105569 3.1530 0.994406 -88.39 0.994406 -88.39 0.105563 0.0626
8.96160000 0.105581 3.1629 0.994404 -88.40 0.994404 -88.40 0.105576 0.0455
8.96180000 0.105594 3.1728 0.994403 -88.40 0.994403 -88.40 0.105589 0.0284
8.96200000 0.105607 3.1828 0.994402 -88.40 0.994402 -88.40 0.105601 0.0112
8.96220000 0.105620 3.1928 0.994400 -88.41 0.994400 -88.41 0.105614 0.0000
8.96240000 0.105632 3.2028 0.994399 -88.41 0.994399 -88.41 0.105627 -0.023
8.96260000 0.105645 3.2129 0.994398 -88.41 0.994398 -88.41 0.105640 -0.041
8.96280000 0.105658 3.2230 0.994396 -88.42 0.994396 -88.42 0.105653 -0.058
8.96300000 0.105671 3.2331 0.994395 -88.42 0.994395 -88.42 0.105666 -0.075
8.96320000 0.105684 3.2433 0.994393 -88.43 0.994393 -88.43 0.105679 -0.093
8.96340000 0.105697 3.2536 0.994392 -88.43 0.994392 -88.43 0.105692 -0.110
8.96360000 0.105710 3.2638 0.994391 -88.43 0.994391 -88.43 0.105705 -0.128
8.96380000 0.105723 3.2742 0.994389 -88.44 0.994389 -88.44 0.105718 -0.146
!< P1 F=8.9638 Eeff=(6.44048299 -2.9687e-5) Z0=(50.4064866 1.16285e-4) R=0.0 C=0.0 
!< P2 F=8.9638 Eeff=(6.44048299 -2.9687e-5) Z0=(50.4064866 1.16285e-4) R=0.0 C=0.0 
8.96400000 0.105736 3.2845 0.994388 -88.44 0.994388 -88.44 0.105731 -0.163
8.96420000 0.105750 3.2949 0.994386 -88.44 0.994386 -88.44 0.105744 -0.181
8.96440000 0.105763 3.3053 0.994385 -88.45 0.994385 -88.45 0.105757 -0.199
8.96460000 0.105776 3.3158 0.994384 -88.45 0.994384 -88.45 0.105770 -0.217
8.96480000 0.105789 3.3263 0.994382 -88.45 0.994382 -88.45 0.105784 -0.235
8.96500000 0.105803 3.3369 0.994381 -88.46 0.994381 -88.46 0.105797 -0.253
8.96520000 0.105816 3.3475 0.994379 -88.46 0.994379 -88.46 0.105810 -0.271
8.96540000 0.105829 3.3581 0.994378 -88.47 0.994378 -88.47 0.105824 -0.289
8.96560000 0.105843 3.3688 0.994376 -88.47 0.994376 -88.47 0.105837 -0.307
8.96580000 0.105856 3.3796 0.994375 -88.47 0.994375 -88.47 0.105851 -0.325
8.96600000 0.105870 3.3903 0.994374 -88.48 0.994374 -88.48 0.105864 -0.343
8.96620000 0.105883 3.4012 0.994372 -88.48 0.994372 -88.48 0.105878 -0.361
8.96640000 0.105897 3.4120 0.994371 -88.48 0.994371 -88.48 0.105891 -0.380
8.96660000 0.105911 3.4229 0.994369 -88.49 0.994369 -88.49 0.105905 -0.398
8.96680000 0.105924 3.4339 0.994368 -88.49 0.994368 -88.49 0.105919 -0.417
8.96700000 0.105938 3.4448 0.994366 -88.50 0.994366 -88.50 0.105932 -0.435
8.96720000 0.105952 3.4559 0.994365 -88.50 0.994365 -88.50 0.105946 -0.454
8.96740000 0.105966 3.4670 0.994363 -88.50 0.994363 -88.50 0.105960 -0.472
8.96760000 0.105980 3.4781 0.994362 -88.51 0.994362 -88.51 0.105974 -0.491
8.96780000 0.105994 3.4892 0.994360 -88.51 0.994360 -88.51 0.105988 -0.510
8.96800000 0.106008 3.5005 0.994359 -88.51 0.994359 -88.51 0.106002 -0.528
8.96820000 0.106022 3.5117 0.994357 -88.52 0.994357 -88.52 0.106016 -0.547
8.96840000 0.106036 3.5230 0.994356 -88.52 0.994356 -88.52 0.106030 -0.566
8.96860000 0.106050 3.5344 0.994354 -88.53 0.994354 -88.53 0.106044 -0.585
8.96880000 0.106064 3.5458 0.994353 -88.53 0.994353 -88.53 0.106058 -0.604
8.96900000 0.106078 3.5572 0.994351 -88.53 0.994351 -88.53 0.106072 -0.623
8.96920000 0.106092 3.5687 0.994350 -88.54 0.994350 -88.54 0.106086 -0.642
8.96940000 0.106106 3.5802 0.994348 -88.54 0.994348 -88.54 0.106100 -0.661
8.96960000 0.106121 3.5918 0.994347 -88.54 0.994347 -88.54 0.106115 -0.681
8.96980000 0.106135 3.6034 0.994345 -88.55 0.994345 -88.55 0.106129 -0.700
8.97000000 0.106150 3.6151 0.994344 -88.55 0.994344 -88.55 0.106143 -0.719
8.97020000 0.106164 3.6268 0.994342 -88.56 0.994342 -88.56 0.106158 -0.739
8.97040000 0.106178 3.6386 0.994340 -88.56 0.994340 -88.56 0.106172 -0.758
8.97060000 0.106193 3.6504 0.994339 -88.56 0.994339 -88.56 0.106187 -0.778
8.97080000 0.106208 3.6623 0.994337 -88.57 0.994337 -88.57 0.106201 -0.797
8.97100000 0.106222 3.6742 0.994336 -88.57 0.994336 -88.57 0.106216 -0.817
8.97120000 0.106237 3.6861 0.994334 -88.58 0.994334 -88.58 0.106231 -0.837
8.97140000 0.106252 3.6981 0.994333 -88.58 0.994333 -88.58 0.106245 -0.857
8.97160000 0.106266 3.7102 0.994331 -88.58 0.994331 -88.58 0.106260 -0.877
8.97180000 0.106281 3.7223 0.994329 -88.59 0.994329 -88.59 0.106275 -0.896
8.97200000 0.106296 3.7345 0.994328 -88.59 0.994328 -88.59 0.106290 -0.916
8.97220000 0.106311 3.7467 0.994326 -88.60 0.994326 -88.60 0.106305 -0.937
8.97240000 0.106326 3.7589 0.994325 -88.60 0.994325 -88.60 0.106320 -0.957
8.97260000 0.106341 3.7713 0.994323 -88.60 0.994323 -88.60 0.106335 -0.977
8.97280000 0.106356 3.7836 0.994321 -88.61 0.994321 -88.61 0.106350 -0.997
8.97300000 0.106371 3.7960 0.994320 -88.61 0.994320 -88.61 0.106365 -1.017
8.97320000 0.106387 3.8085 0.994318 -88.62 0.994318 -88.62 0.106380 -1.038
8.97340000 0.106402 3.8210 0.994316 -88.62 0.994316 -88.62 0.106395 -1.058
8.97360000 0.106417 3.8336 0.994315 -88.62 0.994315 -88.62 0.106410 -1.079
8.97380000 0.106432 3.8462 0.994313 -88.63 0.994313 -88.63 0.106426 -1.099
8.97400000 0.106448 3.8589 0.994311 -88.63 0.994311 -88.63 0.106441 -1.120
8.97420000 0.106463 3.8716 0.994310 -88.63 0.994310 -88.63 0.106457 -1.141
8.97440000 0.106479 3.8843 0.994308 -88.64 0.994308 -88.64 0.106472 -1.161
8.97460000 0.106494 3.8972 0.994306 -88.64 0.994306 -88.64 0.106488 -1.182
8.97480000 0.106510 3.9101 0.994305 -88.65 0.994305 -88.65 0.106503 -1.203
8.97500000 0.106526 3.9230 0.994303 -88.65 0.994303 -88.65 0.106519 -1.224
8.97520000 0.106541 3.9360 0.994301 -88.65 0.994301 -88.65 0.106535 -1.245
8.97540000 0.106557 3.9490 0.994300 -88.66 0.994300 -88.66 0.106550 -1.266
8.97560000 0.106573 3.9621 0.994298 -88.66 0.994298 -88.66 0.106566 -1.288
8.97580000 0.106589 3.9753 0.994296 -88.67 0.994296 -88.67 0.106582 -1.309
8.97600000 0.106605 3.9885 0.994294 -88.67 0.994294 -88.67 0.106598 -1.330
8.97620000 0.106621 4.0018 0.994293 -88.68 0.994293 -88.68 0.106614 -1.352
8.97640000 0.106637 4.0151 0.994291 -88.68 0.994291 -88.68 0.106630 -1.373
8.97660000 0.106653 4.0285 0.994289 -88.68 0.994289 -88.68 0.106646 -1.395
8.97680000 0.106669 4.0419 0.994288 -88.69 0.994288 -88.69 0.106662 -1.416
8.97700000 0.106685 4.0554 0.994286 -88.69 0.994286 -88.69 0.106678 -1.438
8.97720000 0.106702 4.0689 0.994284 -88.70 0.994284 -88.70 0.106695 -1.460
8.97740000 0.106718 4.0825 0.994282 -88.70 0.994282 -88.70 0.106711 -1.482
8.97760000 0.106734 4.0962 0.994280 -88.70 0.994280 -88.70 0.106727 -1.503
8.97780000 0.106751 4.1099 0.994279 -88.71 0.994279 -88.71 0.106744 -1.525
8.97800000 0.106767 4.1237 0.994277 -88.71 0.994277 -88.71 0.106760 -1.548
8.97820000 0.106784 4.1375 0.994275 -88.72 0.994275 -88.72 0.106777 -1.570
8.97840000 0.106801 4.1514 0.994273 -88.72 0.994273 -88.72 0.106793 -1.592
8.97860000 0.106817 4.1654 0.994271 -88.72 0.994271 -88.72 0.106810 -1.614
8.97880000 0.106834 4.1794 0.994270 -88.73 0.994270 -88.73 0.106827 -1.637
8.97900000 0.106851 4.1934 0.994268 -88.73 0.994268 -88.73 0.106844 -1.659
8.97920000 0.106868 4.2076 0.994266 -88.74 0.994266 -88.74 0.106860 -1.681
8.97940000 0.106885 4.2218 0.994264 -88.74 0.994264 -88.74 0.106877 -1.704
8.97960000 0.106902 4.2360 0.994262 -88.75 0.994262 -88.75 0.106894 -1.727
8.97980000 0.106919 4.2503 0.994260 -88.75 0.994260 -88.75 0.106911 -1.750
8.98000000 0.106936 4.2647 0.994259 -88.75 0.994259 -88.75 0.106928 -1.772
8.98020000 0.106953 4.2792 0.994257 -88.76 0.994257 -88.76 0.106946 -1.795
8.98040000 0.106970 4.2937 0.994255 -88.76 0.994255 -88.76 0.106963 -1.818
8.98060000 0.106988 4.3082 0.994253 -88.77 0.994253 -88.77 0.106980 -1.841
8.98080000 0.107005 4.3229 0.994251 -88.77 0.994251 -88.77 0.106998 -1.864
8.98100000 0.107023 4.3375 0.994249 -88.78 0.994249 -88.78 0.107015 -1.888
8.98120000 0.107040 4.3523 0.994247 -88.78 0.994247 -88.78 0.107033 -1.911
8.98140000 0.107058 4.3671 0.994245 -88.78 0.994245 -88.78 0.107050 -1.934
8.98160000 0.107075 4.3820 0.994243 -88.79 0.994243 -88.79 0.107068 -1.958
8.98180000 0.107093 4.3969 0.994242 -88.79 0.994242 -88.79 0.107086 -1.981
8.98200000 0.107111 4.4120 0.994240 -88.80 0.994240 -88.80 0.107103 -2.005
8.98220000 0.107129 4.4270 0.994238 -88.80 0.994238 -88.80 0.107121 -2.029
8.98240000 0.107147 4.4422 0.994236 -88.81 0.994236 -88.81 0.107139 -2.053
8.98260000 0.107165 4.4574 0.994234 -88.81 0.994234 -88.81 0.107157 -2.077
8.98280000 0.107183 4.4727 0.994232 -88.81 0.994232 -88.81 0.107175 -2.101
8.98300000 0.107201 4.4880 0.994230 -88.82 0.994230 -88.82 0.107193 -2.125
8.98320000 0.107219 4.5034 0.994228 -88.82 0.994228 -88.82 0.107212 -2.149
8.98340000 0.107238 4.5189 0.994226 -88.83 0.994226 -88.83 0.107230 -2.173
8.98360000 0.107256 4.5344 0.994224 -88.83 0.994224 -88.83 0.107248 -2.197
8.98380000 0.107275 4.5500 0.994222 -88.84 0.994222 -88.84 0.107267 -2.222
8.98400000 0.107293 4.5657 0.994220 -88.84 0.994220 -88.84 0.107285 -2.246
8.98420000 0.107312 4.5815 0.994218 -88.84 0.994218 -88.84 0.107304 -2.271
8.98440000 0.107330 4.5973 0.994216 -88.85 0.994216 -88.85 0.107322 -2.296
8.98460000 0.107349 4.6132 0.994214 -88.85 0.994214 -88.85 0.107341 -2.320
8.98480000 0.107368 4.6291 0.994212 -88.86 0.994212 -88.86 0.107360 -2.345
8.98500000 0.107387 4.6452 0.994210 -88.86 0.994210 -88.86 0.107379 -2.370
8.98520000 0.107406 4.6613 0.994208 -88.87 0.994208 -88.87 0.107398 -2.395
8.98540000 0.107425 4.6775 0.994205 -88.87 0.994205 -88.87 0.107417 -2.420
8.98560000 0.107444 4.6937 0.994203 -88.88 0.994203 -88.88 0.107436 -2.446
8.98580000 0.107463 4.7100 0.994201 -88.88 0.994201 -88.88 0.107455 -2.471
8.98600000 0.107483 4.7264 0.994199 -88.89 0.994199 -88.89 0.107474 -2.496
8.98620000 0.107502 4.7429 0.994197 -88.89 0.994197 -88.89 0.107494 -2.522
8.98640000 0.107522 4.7594 0.994195 -88.89 0.994195 -88.89 0.107513 -2.548
8.98660000 0.107541 4.7760 0.994193 -88.90 0.994193 -88.90 0.107533 -2.573
8.98680000 0.107561 4.7927 0.994191 -88.90 0.994191 -88.90 0.107552 -2.599
8.98700000 0.107581 4.8095 0.994189 -88.91 0.994189 -88.91 0.107572 -2.625
8.98720000 0.107600 4.8263 0.994186 -88.91 0.994186 -88.91 0.107592 -2.651
8.98740000 0.107620 4.8432 0.994184 -88.92 0.994184 -88.92 0.107612 -2.677
8.98760000 0.107640 4.8602 0.994182 -88.92 0.994182 -88.92 0.107632 -2.703
8.98780000 0.107660 4.8773 0.994180 -88.93 0.994180 -88.93 0.107652 -2.730
8.98800000 0.107680 4.8944 0.994178 -88.93 0.994178 -88.93 0.107672 -2.756
8.98820000 0.107701 4.9117 0.994175 -88.94 0.994175 -88.94 0.107692 -2.782
8.98840000 0.107721 4.9290 0.994173 -88.94 0.994173 -88.94 0.107712 -2.809
8.98860000 0.107741 4.9463 0.994171 -88.94 0.994171 -88.94 0.107732 -2.836
8.98880000 0.107762 4.9638 0.994169 -88.95 0.994169 -88.95 0.107753 -2.863
8.98900000 0.107782 4.9813 0.994166 -88.95 0.994166 -88.95 0.107774 -2.890
8.98920000 0.107803 4.9989 0.994164 -88.96 0.994164 -88.96 0.107794 -2.917
8.98940000 0.107824 5.0166 0.994162 -88.96 0.994162 -88.96 0.107815 -2.944
8.98960000 0.107845 5.0344 0.994160 -88.97 0.994160 -88.97 0.107836 -2.971
8.98980000 0.107866 5.0523 0.994157 -88.97 0.994157 -88.97 0.107857 -2.998
8.99000000 0.107887 5.0702 0.994155 -88.98 0.994155 -88.98 0.107878 -3.026
8.99020000 0.107908 5.0883 0.994153 -88.98 0.994153 -88.98 0.107899 -3.053
8.99040000 0.107929 5.1064 0.994150 -88.99 0.994150 -88.99 0.107920 -3.081
8.99060000 0.107951 5.1246 0.994148 -88.99 0.994148 -88.99 0.107941 -3.109
8.99080000 0.107972 5.1428 0.994146 -89.00 0.994146 -89.00 0.107963 -3.136
8.99100000 0.107993 5.1612 0.994143 -89.00 0.994143 -89.00 0.107984 -3.164
8.99120000 0.108015 5.1796 0.994141 -89.01 0.994141 -89.01 0.108006 -3.192
8.99140000 0.108037 5.1982 0.994139 -89.01 0.994139 -89.01 0.108027 -3.221
8.99160000 0.108059 5.2168 0.994136 -89.02 0.994136 -89.02 0.108049 -3.249
8.99180000 0.108081 5.2355 0.994134 -89.02 0.994134 -89.02 0.108071 -3.277
8.99200000 0.108103 5.2543 0.994131 -89.03 0.994131 -89.03 0.108093 -3.306
8.99220000 0.108125 5.2732 0.994129 -89.03 0.994129 -89.03 0.108115 -3.334
8.99240000 0.108147 5.2921 0.994127 -89.04 0.994127 -89.04 0.108137 -3.363
8.99260000 0.108169 5.3112 0.994124 -89.04 0.994124 -89.04 0.108160 -3.392
8.99280000 0.108192 5.3303 0.994122 -89.05 0.994122 -89.05 0.108182 -3.421
8.99300000 0.108214 5.3496 0.994119 -89.05 0.994119 -89.05 0.108204 -3.450
8.99320000 0.108237 5.3689 0.994117 -89.06 0.994117 -89.06 0.108227 -3.479
8.99340000 0.108260 5.3883 0.994114 -89.06 0.994114 -89.06 0.108250 -3.509
8.99360000 0.108282 5.4078 0.994112 -89.07 0.994112 -89.07 0.108273 -3.538
8.99380000 0.108305 5.4274 0.994109 -89.07 0.994109 -89.07 0.108295 -3.568
8.99400000 0.108329 5.4471 0.994107 -89.08 0.994107 -89.08 0.108318 -3.597
8.99420000 0.108352 5.4669 0.994104 -89.08 0.994104 -89.08 0.108342 -3.627
8.99440000 0.108375 5.4868 0.994101 -89.09 0.994101 -89.09 0.108365 -3.657
8.99460000 0.108398 5.5068 0.994099 -89.09 0.994099 -89.09 0.108388 -3.687
8.99480000 0.108422 5.5268 0.994096 -89.10 0.994096 -89.10 0.108412 -3.717
8.99500000 0.108446 5.5470 0.994094 -89.10 0.994094 -89.10 0.108435 -3.748
8.99520000 0.108469 5.5673 0.994091 -89.11 0.994091 -89.11 0.108459 -3.778
8.99540000 0.108493 5.5876 0.994088 -89.11 0.994088 -89.11 0.108483 -3.809
8.99560000 0.108517 5.6081 0.994086 -89.12 0.994086 -89.12 0.108507 -3.839
8.99580000 0.108541 5.6286 0.994083 -89.12 0.994083 -89.12 0.108531 -3.870
8.99600000 0.108565 5.6493 0.994081 -89.13 0.994081 -89.13 0.108555 -3.901
8.99620000 0.108590 5.6700 0.994078 -89.13 0.994078 -89.13 0.108579 -3.932
8.99640000 0.108614 5.6909 0.994075 -89.14 0.994075 -89.14 0.108604 -3.963
8.99660000 0.108639 5.7118 0.994072 -89.14 0.994072 -89.14 0.108628 -3.995
8.99680000 0.108664 5.7329 0.994070 -89.15 0.994070 -89.15 0.108653 -4.026
8.99700000 0.108688 5.7541 0.994067 -89.15 0.994067 -89.15 0.108678 -4.058
8.99720000 0.108713 5.7753 0.994064 -89.16 0.994064 -89.16 0.108703 -4.090
8.99740000 0.108738 5.7967 0.994061 -89.16 0.994061 -89.16 0.108728 -4.121
8.99760000 0.108764 5.8182 0.994059 -89.17 0.994059 -89.17 0.108753 -4.153
8.99780000 0.108789 5.8397 0.994056 -89.17 0.994056 -89.17 0.108778 -4.186
8.99800000 0.108814 5.8614 0.994053 -89.18 0.994053 -89.18 0.108803 -4.218
8.99820000 0.108840 5.8832 0.994050 -89.18 0.994050 -89.18 0.108829 -4.250
8.99840000 0.108866 5.9051 0.994047 -89.19 0.994047 -89.19 0.108855 -4.283
8.99860000 0.108892 5.9271 0.994045 -89.19 0.994045 -89.19 0.108880 -4.315
8.99880000 0.108918 5.9492 0.994042 -89.20 0.994042 -89.20 0.108906 -4.348
8.99900000 0.108944 5.9714 0.994039 -89.20 0.994039 -89.20 0.108932 -4.381
8.99920000 0.108970 5.9937 0.994036 -89.21 0.994036 -89.21 0.108959 -4.414
8.99940000 0.108996 6.0162 0.994033 -89.22 0.994033 -89.22 0.108985 -4.448
8.99960000 0.109023 6.0387 0.994030 -89.22 0.994030 -89.22 0.109011 -4.481
8.99980000 0.109050 6.0614 0.994027 -89.23 0.994027 -89.23 0.109038 -4.515
9.00000000 0.109076 6.0841 0.994024 -89.23 0.994024 -89.23 0.109065 -4.548
9.00020000 0.109103 6.1070 0.994021 -89.24 0.994021 -89.24 0.109092 -4.582
9.00040000 0.109130 6.1300 0.994018 -89.24 0.994018 -89.24 0.109119 -4.616
9.00060000 0.109158 6.1531 0.994015 -89.25 0.994015 -89.25 0.109146 -4.650
9.00080000 0.109185 6.1764 0.994012 -89.25 0.994012 -89.25 0.109173 -4.685
9.00100000 0.109213 6.1997 0.994009 -89.26 0.994009 -89.26 0.109201 -4.719
9.00120000 0.109240 6.2232 0.994006 -89.26 0.994006 -89.26 0.109228 -4.754
9.00140000 0.109268 6.2468 0.994003 -89.27 0.994003 -89.27 0.109256 -4.788
9.00160000 0.109296 6.2705 0.994000 -89.28 0.994000 -89.28 0.109284 -4.823
9.00180000 0.109324 6.2943 0.993997 -89.28 0.993997 -89.28 0.109312 -4.858
9.00200000 0.109353 6.3182 0.993993 -89.29 0.993993 -89.29 0.109340 -4.894
9.00220000 0.109381 6.3423 0.993990 -89.29 0.993990 -89.29 0.109369 -4.929
9.00240000 0.109410 6.3665 0.993987 -89.30 0.993987 -89.30 0.109397 -4.964
9.00260000 0.109438 6.3908 0.993984 -89.30 0.993984 -89.30 0.109426 -5.000
9.00280000 0.109467 6.4152 0.993981 -89.31 0.993981 -89.31 0.109455 -5.036
9.00300000 0.109496 6.4398 0.993977 -89.32 0.993977 -89.32 0.109484 -5.072
9.00320000 0.109526 6.4644 0.993974 -89.32 0.993974 -89.32 0.109513 -5.108
9.00340000 0.109555 6.4892 0.993971 -89.33 0.993971 -89.33 0.109543 -5.145
9.00360000 0.109585 6.5142 0.993968 -89.33 0.993968 -89.33 0.109572 -5.181
9.00380000 0.109614 6.5392 0.993964 -89.34 0.993964 -89.34 0.109602 -5.218
9.00400000 0.109644 6.5644 0.993961 -89.34 0.993961 -89.34 0.109632 -5.255
9.00420000 0.109674 6.5898 0.993958 -89.35 0.993958 -89.35 0.109662 -5.292
9.00440000 0.109705 6.6152 0.993954 -89.36 0.993954 -89.36 0.109692 -5.329
9.00460000 0.109735 6.6408 0.993951 -89.36 0.993951 -89.36 0.109722 -5.366
9.00480000 0.109766 6.6665 0.993947 -89.37 0.993947 -89.37 0.109753 -5.404
9.00500000 0.109797 6.6923 0.993944 -89.37 0.993944 -89.37 0.109783 -5.441
9.00520000 0.109828 6.7183 0.993941 -89.38 0.993941 -89.38 0.109814 -5.479
9.00540000 0.109859 6.7445 0.993937 -89.39 0.993937 -89.39 0.109845 -5.517
9.00560000 0.109890 6.7707 0.993934 -89.39 0.993934 -89.39 0.109877 -5.556
9.00580000 0.109922 6.7971 0.993930 -89.40 0.993930 -89.40 0.109908 -5.594
9.00600000 0.109953 6.8236 0.993926 -89.40 0.993926 -89.40 0.109940 -5.633
9.00620000 0.109985 6.8503 0.993923 -89.41 0.993923 -89.41 0.109972 -5.671
9.00640000 0.110017 6.8771 0.993919 -89.42 0.993919 -89.42 0.110004 -5.710
9.00660000 0.110049 6.9041 0.993916 -89.42 0.993916 -89.42 0.110036 -5.750
9.00680000 0.110082 6.9312 0.993912 -89.43 0.993912 -89.43 0.110068 -5.789
9.00700000 0.110115 6.9584 0.993908 -89.43 0.993908 -89.43 0.110101 -5.829
9.00720000 0.110147 6.9858 0.993905 -89.44 0.993905 -89.44 0.110133 -5.868
9.00740000 0.110180 7.0133 0.993901 -89.45 0.993901 -89.45 0.110166 -5.908
9.00760000 0.110214 7.0410 0.993897 -89.45 0.993897 -89.45 0.110200 -5.948
9.00780000 0.110247 7.0688 0.993894 -89.46 0.993894 -89.46 0.110233 -5.989
9.00800000 0.110281 7.0968 0.993890 -89.47 0.993890 -89.47 0.110266 -6.029
9.00820000 0.110315 7.1249 0.993886 -89.47 0.993886 -89.47 0.110300 -6.070
9.00840000 0.110349 7.1532 0.993882 -89.48 0.993882 -89.48 0.110334 -6.111
9.00860000 0.110383 7.1816 0.993878 -89.48 0.993878 -89.48 0.110368 -6.152
9.00880000 0.110417 7.2102 0.993875 -89.49 0.993875 -89.49 0.110403 -6.193
9.00900000 0.110452 7.2389 0.993871 -89.50 0.993871 -89.50 0.110437 -6.235
9.00920000 0.110487 7.2678 0.993867 -89.50 0.993867 -89.50 0.110472 -6.276
9.00940000 0.110522 7.2968 0.993863 -89.51 0.993863 -89.51 0.110507 -6.318
9.00960000 0.110558 7.3260 0.993859 -89.52 0.993859 -89.52 0.110543 -6.360
9.00980000 0.110593 7.3554 0.993855 -89.52 0.993855 -89.52 0.110578 -6.403
9.01000000 0.110629 7.3849 0.993851 -89.53 0.993851 -89.53 0.110614 -6.445
9.01020000 0.110665 7.4146 0.993847 -89.54 0.993847 -89.54 0.110650 -6.488
9.01040000 0.110701 7.4444 0.993843 -89.54 0.993843 -89.54 0.110686 -6.531
9.01060000 0.110738 7.4744 0.993839 -89.55 0.993839 -89.55 0.110722 -6.574
9.01080000 0.110774 7.5046 0.993834 -89.56 0.993834 -89.56 0.110759 -6.617
9.01100000 0.110811 7.5349 0.993830 -89.56 0.993830 -89.56 0.110796 -6.661
9.01120000 0.110849 7.5654 0.993826 -89.57 0.993826 -89.57 0.110833 -6.705
9.01140000 0.110886 7.5961 0.993822 -89.58 0.993822 -89.58 0.110870 -6.749
9.01160000 0.110924 7.6269 0.993818 -89.58 0.993818 -89.58 0.110908 -6.793
9.01180000 0.110962 7.6579 0.993813 -89.59 0.993813 -89.59 0.110946 -6.838
9.01200000 0.111000 7.6891 0.993809 -89.60 0.993809 -89.60 0.110984 -6.882
9.01220000 0.111038 7.7205 0.993805 -89.60 0.993805 -89.60 0.111022 -6.927
9.01240000 0.111077 7.7520 0.993800 -89.61 0.993800 -89.61 0.111061 -6.973
9.01260000 0.111116 7.7837 0.993796 -89.62 0.993796 -89.62 0.111100 -7.018
9.01280000 0.111155 7.8156 0.993791 -89.62 0.993791 -89.62 0.111139 -7.064
9.01300000 0.111195 7.8477 0.993787 -89.63 0.993787 -89.63 0.111178 -7.110
9.01320000 0.111234 7.8799 0.993782 -89.64 0.993782 -89.64 0.111218 -7.156
9.01340000 0.111274 7.9123 0.993778 -89.64 0.993778 -89.64 0.111258 -7.202
9.01360000 0.111315 7.9450 0.993773 -89.65 0.993773 -89.65 0.111298 -7.249
9.01380000 0.111355 7.9777 0.993769 -89.66 0.993769 -89.66 0.111338 -7.296
9.01400000 0.111396 8.0107 0.993764 -89.66 0.993764 -89.66 0.111379 -7.343
9.01420000 0.111437 8.0439 0.993759 -89.67 0.993759 -89.67 0.111420 -7.390
9.01440000 0.111478 8.0773 0.993755 -89.68 0.993755 -89.68 0.111461 -7.438
9.01460000 0.111520 8.1108 0.993750 -89.69 0.993750 -89.69 0.111503 -7.486
9.01480000 0.111562 8.1445 0.993745 -89.69 0.993745 -89.69 0.111545 -7.534
9.01500000 0.111604 8.1785 0.993740 -89.70 0.993740 -89.70 0.111587 -7.582
9.01520000 0.111647 8.2126 0.993736 -89.71 0.993736 -89.71 0.111630 -7.631
9.01540000 0.111690 8.2469 0.993731 -89.72 0.993731 -89.72 0.111672 -7.680
9.01560000 0.111733 8.2814 0.993726 -89.72 0.993726 -89.72 0.111715 -7.729
9.01580000 0.111776 8.3162 0.993721 -89.73 0.993721 -89.73 0.111759 -7.778
9.01600000 0.111820 8.3511 0.993716 -89.74 0.993716 -89.74 0.111802 -7.828
9.01620000 0.111864 8.3862 0.993711 -89.74 0.993711 -89.74 0.111846 -7.878
9.01640000 0.111909 8.4215 0.993706 -89.75 0.993706 -89.75 0.111891 -7.928
9.01660000 0.111953 8.4571 0.993701 -89.76 0.993701 -89.76 0.111935 -7.979
9.01680000 0.111998 8.4928 0.993696 -89.77 0.993696 -89.77 0.111980 -8.029
9.01700000 0.112044 8.5288 0.993691 -89.77 0.993691 -89.77 0.112025 -8.081
9.01720000 0.112089 8.5649 0.993685 -89.78 0.993685 -89.78 0.112071 -8.132
9.01740000 0.112136 8.6013 0.993680 -89.79 0.993680 -89.79 0.112117 -8.184
9.01760000 0.112182 8.6379 0.993675 -89.80 0.993675 -89.80 0.112163 -8.235
9.01780000 0.112229 8.6747 0.993669 -89.81 0.993669 -89.81 0.112210 -8.288
9.01800000 0.112276 8.7117 0.993664 -89.81 0.993664 -89.81 0.112257 -8.340
9.01820000 0.112323 8.7489 0.993659 -89.82 0.993659 -89.82 0.112304 -8.393
9.01840000 0.112371 8.7864 0.993653 -89.83 0.993653 -89.83 0.112352 -8.446
9.01860000 0.112419 8.8241 0.993648 -89.84 0.993648 -89.84 0.112400 -8.499
9.01880000 0.112467 8.8620 0.993642 -89.84 0.993642 -89.84 0.112448 -8.553
9.01900000 0.112516 8.9001 0.993637 -89.85 0.993637 -89.85 0.112497 -8.607
9.01920000 0.112565 8.9385 0.993631 -89.86 0.993631 -89.86 0.112546 -8.661
9.01940000 0.112615 8.9771 0.993625 -89.87 0.993625 -89.87 0.112595 -8.716
9.01960000 0.112665 9.0159 0.993619 -89.88 0.993619 -89.88 0.112645 -8.771
9.01980000 0.112715 9.0550 0.993614 -89.88 0.993614 -89.88 0.112695 -8.826
9.02000000 0.112766 9.0943 0.993608 -89.89 0.993608 -89.89 0.112746 -8.882
9.02020000 0.112817 9.1338 0.993602 -89.90 0.993602 -89.90 0.112797 -8.938
9.02040000 0.112869 9.1736 0.993596 -89.91 0.993596 -89.91 0.112848 -8.994
9.02060000 0.112921 9.2136 0.993590 -89.92 0.993590 -89.92 0.112900 -9.050
9.02080000 0.112973 9.2539 0.993584 -89.92 0.993584 -89.92 0.112952 -9.107
9.02100000 0.113026 9.2944 0.993578 -89.93 0.993578 -89.93 0.113005 -9.164
9.02120000 0.113079 9.3352 0.993572 -89.94 0.993572 -89.94 0.113058 -9.222
9.02140000 0.113132 9.3762 0.993566 -89.95 0.993566 -89.95 0.113111 -9.280
9.02160000 0.113186 9.4174 0.993560 -89.96 0.993560 -89.96 0.113165 -9.338
9.02180000 0.113241 9.4590 0.993553 -89.97 0.993553 -89.97 0.113219 -9.396
9.02200000 0.113296 9.5007 0.993547 -89.98 0.993547 -89.98 0.113274 -9.455
9.02220000 0.113351 9.5428 0.993541 -89.98 0.993541 -89.98 0.113329 -9.515
9.02240000 0.113407 9.5851 0.993534 -89.99 0.993534 -89.99 0.113385 -9.574
9.02260000 0.113463 9.6276 0.993528 -90.00 0.993528 -90.00 0.113441 -9.634
9.02280000 0.113520 9.6704 0.993521 -90.01 0.993521 -90.01 0.113498 -9.694
9.02300000 0.113577 9.7135 0.993514 -90.02 0.993514 -90.02 0.113555 -9.755
9.02320000 0.113634 9.7569 0.993508 -90.03 0.993508 -90.03 0.113612 -9.816
9.02340000 0.113692 9.8005 0.993501 -90.04 0.993501 -90.04 0.113670 -9.877
9.02360000 0.113751 9.8444 0.993494 -90.05 0.993494 -90.05 0.113728 -9.939
9.02380000 0.113810 9.8886 0.993487 -90.05 0.993487 -90.05 0.113787 -10.00
9.02400000 0.113870 9.9331 0.993481 -90.06 0.993481 -90.06 0.113847 -10.06
9.02420000 0.113930 9.9779 0.993474 -90.07 0.993474 -90.07 0.113906 -10.13
9.02440000 0.113990 10.023 0.993467 -90.08 0.993467 -90.08 0.113967 -10.19
9.02460000 0.114051 10.068 0.993459 -90.09 0.993459 -90.09 0.114028 -10.25
9.02480000 0.114113 10.114 0.993452 -90.10 0.993452 -90.10 0.114089 -10.32
9.02500000 0.114175 10.160 0.993445 -90.11 0.993445 -90.11 0.114151 -10.38
9.02520000 0.114238 10.206 0.993438 -90.12 0.993438 -90.12 0.114214 -10.45
9.02540000 0.114301 10.252 0.993430 -90.13 0.993430 -90.13 0.114277 -10.51
9.02560000 0.114364 10.299 0.993423 -90.14 0.993423 -90.14 0.114340 -10.58
9.02580000 0.114429 10.346 0.993416 -90.15 0.993416 -90.15 0.114404 -10.64
9.02600000 0.114494 10.394 0.993408 -90.16 0.993408 -90.16 0.114469 -10.71
9.02620000 0.114559 10.441 0.993400 -90.17 0.993400 -90.17 0.114534 -10.78
9.02640000 0.114625 10.489 0.993393 -90.18 0.993393 -90.18 0.114600 -10.85
9.02660000 0.114691 10.538 0.993385 -90.19 0.993385 -90.19 0.114666 -10.91
9.02680000 0.114759 10.586 0.993377 -90.19 0.993377 -90.19 0.114733 -10.98
9.02700000 0.114826 10.635 0.993369 -90.20 0.993369 -90.20 0.114801 -11.05
9.02720000 0.114895 10.685 0.993361 -90.21 0.993361 -90.21 0.114869 -11.12
9.02740000 0.114964 10.734 0.993353 -90.22 0.993353 -90.22 0.114938 -11.19
9.02760000 0.115033 10.784 0.993345 -90.23 0.993345 -90.23 0.115007 -11.26
9.02780000 0.115103 10.835 0.993337 -90.24 0.993337 -90.24 0.115077 -11.33
9.02800000 0.115174 10.885 0.993328 -90.25 0.993328 -90.25 0.115148 -11.40