! Sonnet Data File
! From: emgraph Version : 16.52
! From Project: Resonator2_extremeCap
! Data is De-embedded 
! Data File Written: 10/11/2017 17:55:29
!< HDATE 10/10/2017 20:37:37
!< MDATE 10/10/2017 20:37:37
!< PARAMS
!< Pwid1 = 2000.0
!< Pwid2 = 2000.0
!< Air_gap = 18.0
!< Width = 30.0
!< Gap = 80.0
!< END PARAMS
# GHZ S MA R 50.70000
8.95000000 0.117607 0.5225 0.993055 -87.93 0.993055 -87.93 0.117605 3.6230
!< P1 F=8.95 Eeff=(6.44502592 -2.9711e-5) Z0=(50.6183818 1.16783e-4) R=0.0 C=0.0 
!< P2 F=8.95 Eeff=(6.44502592 -2.9711e-5) Z0=(50.6183818 1.16783e-4) R=0.0 C=0.0 
8.95020000 0.117620 0.5250 0.993054 -87.93 0.993054 -87.93 0.117617 3.6147
8.95040000 0.117632 0.5276 0.993052 -87.93 0.993052 -87.93 0.117630 3.6063
8.95060000 0.117645 0.5302 0.993051 -87.94 0.993051 -87.94 0.117643 3.5980
8.95080000 0.117658 0.5329 0.993049 -87.94 0.993049 -87.94 0.117656 3.5896
8.95100000 0.117671 0.5355 0.993048 -87.94 0.993048 -87.94 0.117669 3.5812
8.95120000 0.117684 0.5381 0.993046 -87.95 0.993046 -87.95 0.117681 3.5727
8.95140000 0.117697 0.5408 0.993045 -87.95 0.993045 -87.95 0.117694 3.5643
8.95160000 0.117709 0.5435 0.993043 -87.95 0.993043 -87.95 0.117707 3.5558
8.95180000 0.117722 0.5462 0.993041 -87.95 0.993041 -87.95 0.117720 3.5473
8.95200000 0.117735 0.5489 0.993040 -87.96 0.993040 -87.96 0.117733 3.5388
8.95220000 0.117748 0.5516 0.993038 -87.96 0.993038 -87.96 0.117746 3.5303
8.95240000 0.117762 0.5543 0.993037 -87.96 0.993037 -87.96 0.117759 3.5218
8.95260000 0.117775 0.5570 0.993035 -87.97 0.993035 -87.97 0.117772 3.5132
8.95280000 0.117788 0.5598 0.993034 -87.97 0.993034 -87.97 0.117785 3.5046
8.95300000 0.117801 0.5626 0.993032 -87.97 0.993032 -87.97 0.117799 3.4960
8.95320000 0.117814 0.5654 0.993031 -87.97 0.993031 -87.97 0.117812 3.4874
8.95340000 0.117827 0.5682 0.993029 -87.98 0.993029 -87.98 0.117825 3.4788
8.95360000 0.117840 0.5710 0.993027 -87.98 0.993027 -87.98 0.117838 3.4701
8.95380000 0.117854 0.5738 0.993026 -87.98 0.993026 -87.98 0.117851 3.4614
8.95400000 0.117867 0.5766 0.993024 -87.99 0.993024 -87.99 0.117865 3.4527
8.95420000 0.117880 0.5795 0.993023 -87.99 0.993023 -87.99 0.117878 3.4440
8.95440000 0.117894 0.5824 0.993021 -87.99 0.993021 -87.99 0.117891 3.4353
8.95460000 0.117907 0.5853 0.993019 -87.99 0.993019 -87.99 0.117905 3.4265
8.95480000 0.117920 0.5881 0.993018 -88.00 0.993018 -88.00 0.117918 3.4177
8.95500000 0.117934 0.5911 0.993016 -88.00 0.993016 -88.00 0.117931 3.4090
8.95520000 0.117947 0.5940 0.993015 -88.00 0.993015 -88.00 0.117945 3.4001
8.95540000 0.117961 0.5969 0.993013 -88.01 0.993013 -88.01 0.117958 3.3913
8.95560000 0.117974 0.5999 0.993011 -88.01 0.993011 -88.01 0.117972 3.3824
8.95580000 0.117988 0.6029 0.993010 -88.01 0.993010 -88.01 0.117986 3.3736
8.95600000 0.118002 0.6059 0.993008 -88.02 0.993008 -88.02 0.117999 3.3647
8.95620000 0.118015 0.6089 0.993007 -88.02 0.993007 -88.02 0.118013 3.3557
8.95640000 0.118029 0.6119 0.993005 -88.02 0.993005 -88.02 0.118026 3.3468
8.95660000 0.118043 0.6149 0.993003 -88.02 0.993003 -88.02 0.118040 3.3378
8.95680000 0.118056 0.6180 0.993002 -88.03 0.993002 -88.03 0.118054 3.3288
8.95700000 0.118070 0.6210 0.993000 -88.03 0.993000 -88.03 0.118068 3.3198
8.95720000 0.118084 0.6241 0.992998 -88.03 0.992998 -88.03 0.118081 3.3108
8.95740000 0.118098 0.6272 0.992997 -88.04 0.992997 -88.04 0.118095 3.3018
8.95760000 0.118111 0.6303 0.992995 -88.04 0.992995 -88.04 0.118109 3.2927
8.95780000 0.118125 0.6334 0.992993 -88.04 0.992993 -88.04 0.118123 3.2836
8.95800000 0.118139 0.6366 0.992992 -88.04 0.992992 -88.04 0.118137 3.2745
8.95820000 0.118153 0.6397 0.992990 -88.05 0.992990 -88.05 0.118151 3.2654
8.95840000 0.118167 0.6429 0.992988 -88.05 0.992988 -88.05 0.118165 3.2562
8.95860000 0.118181 0.6461 0.992987 -88.05 0.992987 -88.05 0.118179 3.2470
8.95880000 0.118195 0.6493 0.992985 -88.06 0.992985 -88.06 0.118193 3.2378
8.95900000 0.118209 0.6525 0.992983 -88.06 0.992983 -88.06 0.118207 3.2286
8.95920000 0.118223 0.6557 0.992982 -88.06 0.992982 -88.06 0.118221 3.2194
8.95940000 0.118238 0.6590 0.992980 -88.07 0.992980 -88.07 0.118235 3.2101
8.95960000 0.118252 0.6623 0.992978 -88.07 0.992978 -88.07 0.118249 3.2008
8.95980000 0.118266 0.6655 0.992977 -88.07 0.992977 -88.07 0.118263 3.1915
8.96000000 0.118280 0.6688 0.992975 -88.07 0.992975 -88.07 0.118278 3.1822
8.96020000 0.118295 0.6722 0.992973 -88.08 0.992973 -88.08 0.118292 3.1728
8.96040000 0.118309 0.6755 0.992972 -88.08 0.992972 -88.08 0.118306 3.1634
8.96060000 0.118323 0.6788 0.992970 -88.08 0.992970 -88.08 0.118321 3.1540
8.96080000 0.118338 0.6822 0.992968 -88.09 0.992968 -88.09 0.118335 3.1446
8.96100000 0.118352 0.6856 0.992966 -88.09 0.992966 -88.09 0.118349 3.1352
8.96120000 0.118367 0.6890 0.992965 -88.09 0.992965 -88.09 0.118364 3.1257
8.96140000 0.118381 0.6924 0.992963 -88.10 0.992963 -88.10 0.118378 3.1162
8.96160000 0.118396 0.6958 0.992961 -88.10 0.992961 -88.10 0.118393 3.1067
8.96180000 0.118410 0.6993 0.992959 -88.10 0.992959 -88.10 0.118407 3.0971
8.96200000 0.118425 0.7028 0.992958 -88.11 0.992958 -88.11 0.118422 3.0876
8.96220000 0.118439 0.7062 0.992956 -88.11 0.992956 -88.11 0.118437 3.0780
8.96240000 0.118454 0.7097 0.992954 -88.11 0.992954 -88.11 0.118451 3.0684
8.96260000 0.118469 0.7133 0.992952 -88.11 0.992952 -88.11 0.118466 3.0587
8.96280000 0.118484 0.7168 0.992951 -88.12 0.992951 -88.12 0.118481 3.0491
8.96300000 0.118498 0.7204 0.992949 -88.12 0.992949 -88.12 0.118496 3.0394
8.96320000 0.118513 0.7239 0.992947 -88.12 0.992947 -88.12 0.118510 3.0297
8.96340000 0.118528 0.7275 0.992945 -88.13 0.992945 -88.13 0.118525 3.0199
8.96360000 0.118543 0.7311 0.992944 -88.13 0.992944 -88.13 0.118540 3.0102
8.96380000 0.118558 0.7347 0.992942 -88.13 0.992942 -88.13 0.118555 3.0004
8.96400000 0.118573 0.7384 0.992940 -88.14 0.992940 -88.14 0.118570 2.9906
8.96420000 0.118588 0.7421 0.992938 -88.14 0.992938 -88.14 0.118585 2.9807
8.96440000 0.118603 0.7457 0.992936 -88.14 0.992936 -88.14 0.118600 2.9709
8.96460000 0.118618 0.7494 0.992935 -88.15 0.992935 -88.15 0.118615 2.9610
8.96480000 0.118633 0.7531 0.992933 -88.15 0.992933 -88.15 0.118630 2.9511
8.96500000 0.118648 0.7569 0.992931 -88.15 0.992931 -88.15 0.118646 2.9412
8.96520000 0.118664 0.7606 0.992929 -88.15 0.992929 -88.15 0.118661 2.9312
8.96540000 0.118679 0.7644 0.992927 -88.16 0.992927 -88.16 0.118676 2.9212
8.96560000 0.118694 0.7682 0.992925 -88.16 0.992925 -88.16 0.118691 2.9112
8.96580000 0.118710 0.7720 0.992924 -88.16 0.992924 -88.16 0.118707 2.9012
8.96600000 0.118725 0.7758 0.992922 -88.17 0.992922 -88.17 0.118722 2.8911
8.96620000 0.118740 0.7797 0.992920 -88.17 0.992920 -88.17 0.118737 2.8810
8.96640000 0.118756 0.7835 0.992918 -88.17 0.992918 -88.17 0.118753 2.8709
8.96660000 0.118771 0.7874 0.992916 -88.18 0.992916 -88.18 0.118768 2.8608
8.96680000 0.118787 0.7913 0.992914 -88.18 0.992914 -88.18 0.118784 2.8506
8.96700000 0.118802 0.7952 0.992912 -88.18 0.992912 -88.18 0.118800 2.8404
!< P1 F=8.967 Eeff=(6.44502019 -2.9711e-5) Z0=(50.6183286 1.16782e-4) R=0.0 C=0.0 
!< P2 F=8.967 Eeff=(6.44502019 -2.9711e-5) Z0=(50.6183286 1.16782e-4) R=0.0 C=0.0 
8.96720000 0.118818 0.7992 0.992911 -88.19 0.992911 -88.19 0.118815 2.8302
8.96740000 0.118834 0.8031 0.992909 -88.19 0.992909 -88.19 0.118831 2.8199
8.96760000 0.118849 0.8071 0.992907 -88.19 0.992907 -88.19 0.118847 2.8096
8.96780000 0.118865 0.8111 0.992905 -88.20 0.992905 -88.20 0.118862 2.7993
8.96800000 0.118881 0.8151 0.992903 -88.20 0.992903 -88.20 0.118878 2.7890
8.96820000 0.118897 0.8192 0.992901 -88.20 0.992901 -88.20 0.118894 2.7786
8.96840000 0.118913 0.8232 0.992899 -88.20 0.992899 -88.20 0.118910 2.7683
8.96860000 0.118929 0.8273 0.992897 -88.21 0.992897 -88.21 0.118926 2.7579
8.96880000 0.118945 0.8314 0.992895 -88.21 0.992895 -88.21 0.118942 2.7474
8.96900000 0.118961 0.8355 0.992893 -88.21 0.992893 -88.21 0.118958 2.7369
8.96920000 0.118977 0.8396 0.992891 -88.22 0.992891 -88.22 0.118974 2.7264
8.96940000 0.118993 0.8438 0.992890 -88.22 0.992890 -88.22 0.118990 2.7159
8.96960000 0.119009 0.8480 0.992888 -88.22 0.992888 -88.22 0.119006 2.7054
8.96980000 0.119025 0.8522 0.992886 -88.23 0.992886 -88.23 0.119022 2.6948
8.97000000 0.119041 0.8564 0.992884 -88.23 0.992884 -88.23 0.119038 2.6842
8.97020000 0.119058 0.8606 0.992882 -88.23 0.992882 -88.23 0.119055 2.6735
8.97040000 0.119074 0.8649 0.992880 -88.24 0.992880 -88.24 0.119071 2.6629
8.97060000 0.119090 0.8692 0.992878 -88.24 0.992878 -88.24 0.119087 2.6522
8.97080000 0.119107 0.8735 0.992876 -88.24 0.992876 -88.24 0.119104 2.6414
8.97100000 0.119123 0.8778 0.992874 -88.25 0.992874 -88.25 0.119120 2.6307
8.97120000 0.119140 0.8822 0.992872 -88.25 0.992872 -88.25 0.119137 2.6199
8.97140000 0.119156 0.8865 0.992870 -88.25 0.992870 -88.25 0.119153 2.6091
8.97160000 0.119173 0.8909 0.992868 -88.26 0.992868 -88.26 0.119170 2.5982
8.97180000 0.119190 0.8953 0.992866 -88.26 0.992866 -88.26 0.119186 2.5874
8.97200000 0.119206 0.8997 0.992864 -88.26 0.992864 -88.26 0.119203 2.5765
8.97220000 0.119223 0.9042 0.992862 -88.27 0.992862 -88.27 0.119220 2.5655
8.97240000 0.119240 0.9087 0.992860 -88.27 0.992860 -88.27 0.119237 2.5546
8.97260000 0.119257 0.9132 0.992858 -88.27 0.992858 -88.27 0.119253 2.5436
8.97280000 0.119274 0.9177 0.992856 -88.28 0.992856 -88.28 0.119270 2.5325
8.97300000 0.119290 0.9222 0.992854 -88.28 0.992854 -88.28 0.119287 2.5215
8.97320000 0.119307 0.9268 0.992852 -88.28 0.992852 -88.28 0.119304 2.5104
8.97340000 0.119325 0.9314 0.992850 -88.28 0.992850 -88.28 0.119321 2.4993
8.97360000 0.119342 0.9360 0.992848 -88.29 0.992848 -88.29 0.119338 2.4881
8.97380000 0.119359 0.9406 0.992845 -88.29 0.992845 -88.29 0.119355 2.4769
8.97400000 0.119376 0.9453 0.992843 -88.29 0.992843 -88.29 0.119373 2.4657
8.97420000 0.119393 0.9499 0.992841 -88.30 0.992841 -88.30 0.119390 2.4545
8.97440000 0.119410 0.9546 0.992839 -88.30 0.992839 -88.30 0.119407 2.4432
8.97460000 0.119428 0.9594 0.992837 -88.30 0.992837 -88.30 0.119424 2.4319
8.97480000 0.119445 0.9641 0.992835 -88.31 0.992835 -88.31 0.119442 2.4205
8.97500000 0.119463 0.9689 0.992833 -88.31 0.992833 -88.31 0.119459 2.4092
8.97520000 0.119480 0.9737 0.992831 -88.31 0.992831 -88.31 0.119477 2.3977
8.97540000 0.119498 0.9785 0.992829 -88.32 0.992829 -88.32 0.119494 2.3863
8.97560000 0.119515 0.9833 0.992827 -88.32 0.992827 -88.32 0.119512 2.3748
8.97580000 0.119533 0.9882 0.992824 -88.32 0.992824 -88.32 0.119529 2.3633
8.97600000 0.119551 0.9931 0.992822 -88.33 0.992822 -88.33 0.119547 2.3518
8.97620000 0.119568 0.9980 0.992820 -88.33 0.992820 -88.33 0.119565 2.3402
8.97640000 0.119586 1.0029 0.992818 -88.33 0.992818 -88.33 0.119583 2.3286
8.97660000 0.119604 1.0079 0.992816 -88.34 0.992816 -88.34 0.119601 2.3170
8.97680000 0.119622 1.0129 0.992814 -88.34 0.992814 -88.34 0.119618 2.3053
8.97700000 0.119640 1.0179 0.992811 -88.34 0.992811 -88.34 0.119636 2.2936
8.97720000 0.119658 1.0229 0.992809 -88.35 0.992809 -88.35 0.119654 2.2818
8.97740000 0.119676 1.0280 0.992807 -88.35 0.992807 -88.35 0.119672 2.2700
8.97760000 0.119694 1.0330 0.992805 -88.35 0.992805 -88.35 0.119691 2.2582
8.97780000 0.119712 1.0381 0.992803 -88.36 0.992803 -88.36 0.119709 2.2464
8.97800000 0.119731 1.0433 0.992800 -88.36 0.992800 -88.36 0.119727 2.2345
8.97820000 0.119749 1.0484 0.992798 -88.36 0.992798 -88.36 0.119745 2.2226
8.97840000 0.119767 1.0536 0.992796 -88.37 0.992796 -88.37 0.119764 2.2106
8.97860000 0.119786 1.0588 0.992794 -88.37 0.992794 -88.37 0.119782 2.1986
8.97880000 0.119804 1.0641 0.992792 -88.37 0.992792 -88.37 0.119801 2.1866
8.97900000 0.119823 1.0693 0.992789 -88.38 0.992789 -88.38 0.119819 2.1745
8.97920000 0.119841 1.0746 0.992787 -88.38 0.992787 -88.38 0.119838 2.1624
8.97940000 0.119860 1.0799 0.992785 -88.39 0.992785 -88.39 0.119856 2.1503
8.97960000 0.119879 1.0853 0.992783 -88.39 0.992783 -88.39 0.119875 2.1381
8.97980000 0.119897 1.0906 0.992780 -88.39 0.992780 -88.39 0.119894 2.1259
8.98000000 0.119916 1.0960 0.992778 -88.40 0.992778 -88.40 0.119913 2.1137
8.98020000 0.119935 1.1014 0.992776 -88.40 0.992776 -88.40 0.119931 2.1014
8.98040000 0.119954 1.1069 0.992773 -88.40 0.992773 -88.40 0.119950 2.0891
8.98060000 0.119973 1.1123 0.992771 -88.41 0.992771 -88.41 0.119969 2.0767
8.98080000 0.119992 1.1178 0.992769 -88.41 0.992769 -88.41 0.119988 2.0643
8.98100000 0.120011 1.1234 0.992766 -88.41 0.992766 -88.41 0.120008 2.0519
8.98120000 0.120031 1.1289 0.992764 -88.42 0.992764 -88.42 0.120027 2.0394
8.98140000 0.120050 1.1345 0.992762 -88.42 0.992762 -88.42 0.120046 2.0269
8.98160000 0.120069 1.1401 0.992759 -88.42 0.992759 -88.42 0.120065 2.0143
8.98180000 0.120089 1.1457 0.992757 -88.43 0.992757 -88.43 0.120085 2.0017
8.98200000 0.120108 1.1514 0.992755 -88.43 0.992755 -88.43 0.120104 1.9891
8.98220000 0.120128 1.1571 0.992752 -88.43 0.992752 -88.43 0.120124 1.9764
8.98240000 0.120147 1.1628 0.992750 -88.44 0.992750 -88.44 0.120143 1.9637
8.98260000 0.120167 1.1686 0.992748 -88.44 0.992748 -88.44 0.120163 1.9510
8.98280000 0.120186 1.1743 0.992745 -88.44 0.992745 -88.44 0.120182 1.9382
8.98300000 0.120206 1.1801 0.992743 -88.45 0.992743 -88.45 0.120202 1.9254
8.98320000 0.120226 1.1860 0.992740 -88.45 0.992740 -88.45 0.120222 1.9125
8.98340000 0.120246 1.1918 0.992738 -88.45 0.992738 -88.45 0.120242 1.8996
8.98360000 0.120266 1.1977 0.992736 -88.46 0.992736 -88.46 0.120262 1.8866
8.98380000 0.120286 1.2037 0.992733 -88.46 0.992733 -88.46 0.120282 1.8737
8.98400000 0.120306 1.2096 0.992731 -88.46 0.992731 -88.46 0.120302 1.8606
8.98420000 0.120326 1.2156 0.992728 -88.47 0.992728 -88.47 0.120322 1.8475
8.98440000 0.120346 1.2216 0.992726 -88.47 0.992726 -88.47 0.120342 1.8344
8.98460000 0.120367 1.2276 0.992723 -88.48 0.992723 -88.48 0.120363 1.8213
8.98480000 0.120387 1.2337 0.992721 -88.48 0.992721 -88.48 0.120383 1.8081
8.98500000 0.120408 1.2398 0.992718 -88.48 0.992718 -88.48 0.120403 1.7948
8.98520000 0.120428 1.2459 0.992716 -88.49 0.992716 -88.49 0.120424 1.7815
8.98540000 0.120449 1.2521 0.992713 -88.49 0.992713 -88.49 0.120445 1.7682
8.98560000 0.120469 1.2583 0.992711 -88.49 0.992711 -88.49 0.120465 1.7548
8.98580000 0.120490 1.2645 0.992708 -88.50 0.992708 -88.50 0.120486 1.7414
8.98600000 0.120511 1.2708 0.992706 -88.50 0.992706 -88.50 0.120507 1.7280
8.98620000 0.120532 1.2771 0.992703 -88.50 0.992703 -88.50 0.120528 1.7145
8.98640000 0.120553 1.2834 0.992701 -88.51 0.992701 -88.51 0.120548 1.7009
8.98660000 0.120574 1.2897 0.992698 -88.51 0.992698 -88.51 0.120569 1.6873
8.98680000 0.120595 1.2961 0.992695 -88.52 0.992695 -88.52 0.120591 1.6737
8.98700000 0.120616 1.3025 0.992693 -88.52 0.992693 -88.52 0.120612 1.6600
8.98720000 0.120637 1.3090 0.992690 -88.52 0.992690 -88.52 0.120633 1.6463
8.98740000 0.120659 1.3154 0.992688 -88.53 0.992688 -88.53 0.120654 1.6325
8.98760000 0.120680 1.3220 0.992685 -88.53 0.992685 -88.53 0.120676 1.6187
8.98780000 0.120701 1.3285 0.992682 -88.53 0.992682 -88.53 0.120697 1.6048
8.98800000 0.120723 1.3351 0.992680 -88.54 0.992680 -88.54 0.120719 1.5909
8.98820000 0.120745 1.3417 0.992677 -88.54 0.992677 -88.54 0.120740 1.5769
8.98840000 0.120766 1.3483 0.992675 -88.54 0.992675 -88.54 0.120762 1.5629
8.98860000 0.120788 1.3550 0.992672 -88.55 0.992672 -88.55 0.120784 1.5489
8.98880000 0.120810 1.3617 0.992669 -88.55 0.992669 -88.55 0.120805 1.5348
8.98900000 0.120832 1.3685 0.992667 -88.56 0.992667 -88.56 0.120827 1.5206
8.98920000 0.120854 1.3752 0.992664 -88.56 0.992664 -88.56 0.120849 1.5064
8.98940000 0.120876 1.3820 0.992661 -88.56 0.992661 -88.56 0.120871 1.4922
8.98960000 0.120898 1.3889 0.992658 -88.57 0.992658 -88.57 0.120894 1.4779
8.98980000 0.120920 1.3958 0.992656 -88.57 0.992656 -88.57 0.120916 1.4636
8.99000000 0.120943 1.4027 0.992653 -88.57 0.992653 -88.57 0.120938 1.4492
8.99020000 0.120965 1.4096 0.992650 -88.58 0.992650 -88.58 0.120960 1.4347
8.99040000 0.120988 1.4166 0.992647 -88.58 0.992647 -88.58 0.120983 1.4202
8.99060000 0.121010 1.4237 0.992645 -88.59 0.992645 -88.59 0.121006 1.4057
8.99080000 0.121033 1.4307 0.992642 -88.59 0.992642 -88.59 0.121028 1.3911
8.99100000 0.121056 1.4378 0.992639 -88.59 0.992639 -88.59 0.121051 1.3765
8.99120000 0.121078 1.4449 0.992636 -88.60 0.992636 -88.60 0.121074 1.3618
8.99140000 0.121101 1.4521 0.992634 -88.60 0.992634 -88.60 0.121097 1.3470
8.99160000 0.121124 1.4593 0.992631 -88.60 0.992631 -88.60 0.121120 1.3322
8.99180000 0.121148 1.4665 0.992628 -88.61 0.992628 -88.61 0.121143 1.3174
8.99200000 0.121171 1.4738 0.992625 -88.61 0.992625 -88.61 0.121166 1.3025
8.99220000 0.121194 1.4811 0.992622 -88.62 0.992622 -88.62 0.121189 1.2875
8.99240000 0.121217 1.4885 0.992619 -88.62 0.992619 -88.62 0.121212 1.2725
8.99260000 0.121241 1.4959 0.992616 -88.62 0.992616 -88.62 0.121236 1.2575
8.99280000 0.121264 1.5033 0.992614 -88.63 0.992614 -88.63 0.121259 1.2424
8.99300000 0.121288 1.5108 0.992611 -88.63 0.992611 -88.63 0.121283 1.2272
8.99320000 0.121312 1.5183 0.992608 -88.63 0.992608 -88.63 0.121307 1.2120
8.99340000 0.121335 1.5258 0.992605 -88.64 0.992605 -88.64 0.121330 1.1967
8.99360000 0.121359 1.5334 0.992602 -88.64 0.992602 -88.64 0.121354 1.1814
8.99380000 0.121383 1.5410 0.992599 -88.65 0.992599 -88.65 0.121378 1.1660
8.99400000 0.121407 1.5487 0.992596 -88.65 0.992596 -88.65 0.121402 1.1506
8.99420000 0.121432 1.5563 0.992593 -88.65 0.992593 -88.65 0.121427 1.1351
8.99440000 0.121456 1.5641 0.992590 -88.66 0.992590 -88.66 0.121451 1.1195
8.99460000 0.121480 1.5719 0.992587 -88.66 0.992587 -88.66 0.121475 1.1039
8.99480000 0.121505 1.5797 0.992584 -88.67 0.992584 -88.67 0.121500 1.0882
8.99500000 0.121529 1.5875 0.992581 -88.67 0.992581 -88.67 0.121524 1.0725
8.99520000 0.121554 1.5954 0.992578 -88.67 0.992578 -88.67 0.121549 1.0567
8.99540000 0.121579 1.6034 0.992575 -88.68 0.992575 -88.68 0.121574 1.0409
8.99560000 0.121604 1.6114 0.992572 -88.68 0.992572 -88.68 0.121598 1.0250
8.99580000 0.121629 1.6194 0.992569 -88.69 0.992569 -88.69 0.121623 1.0090
8.99600000 0.121654 1.6274 0.992566 -88.69 0.992566 -88.69 0.121648 0.9930
8.99620000 0.121679 1.6355 0.992563 -88.69 0.992563 -88.69 0.121673 0.9770
8.99640000 0.121704 1.6437 0.992559 -88.70 0.992559 -88.70 0.121699 0.9608
8.99660000 0.121729 1.6519 0.992556 -88.70 0.992556 -88.70 0.121724 0.9446
8.99680000 0.121755 1.6601 0.992553 -88.71 0.992553 -88.71 0.121749 0.9284
8.99700000 0.121780 1.6684 0.992550 -88.71 0.992550 -88.71 0.121775 0.9121
8.99720000 0.121806 1.6767 0.992547 -88.71 0.992547 -88.71 0.121801 0.8957
8.99740000 0.121832 1.6851 0.992544 -88.72 0.992544 -88.72 0.121826 0.8793
8.99760000 0.121858 1.6935 0.992541 -88.72 0.992541 -88.72 0.121852 0.8628
8.99780000 0.121884 1.7019 0.992537 -88.73 0.992537 -88.73 0.121878 0.8462
8.99800000 0.121910 1.7104 0.992534 -88.73 0.992534 -88.73 0.121904 0.8296
8.99820000 0.121936 1.7189 0.992531 -88.73 0.992531 -88.73 0.121931 0.8129
8.99840000 0.121962 1.7275 0.992528 -88.74 0.992528 -88.74 0.121957 0.7961
8.99860000 0.121989 1.7362 0.992524 -88.74 0.992524 -88.74 0.121983 0.7793
8.99880000 0.122015 1.7448 0.992521 -88.75 0.992521 -88.75 0.122010 0.7624
8.99900000 0.122042 1.7535 0.992518 -88.75 0.992518 -88.75 0.122036 0.7455
8.99920000 0.122069 1.7623 0.992514 -88.75 0.992514 -88.75 0.122063 0.7285
8.99940000 0.122096 1.7711 0.992511 -88.76 0.992511 -88.76 0.122090 0.7114
8.99960000 0.122123 1.7800 0.992508 -88.76 0.992508 -88.76 0.122117 0.6943
8.99980000 0.122150 1.7889 0.992504 -88.77 0.992504 -88.77 0.122144 0.6770
9.00000000 0.122177 1.7978 0.992501 -88.77 0.992501 -88.77 0.122171 0.6598
9.00020000 0.122204 1.8068 0.992498 -88.78 0.992498 -88.78 0.122198 0.6424
9.00040000 0.122232 1.8159 0.992494 -88.78 0.992494 -88.78 0.122226 0.6250
9.00060000 0.122259 1.8250 0.992491 -88.78 0.992491 -88.78 0.122253 0.6075
9.00080000 0.122287 1.8341 0.992487 -88.79 0.992487 -88.79 0.122281 0.5900
9.00100000 0.122315 1.8433 0.992484 -88.79 0.992484 -88.79 0.122309 0.5724
9.00120000 0.122343 1.8526 0.992481 -88.80 0.992481 -88.80 0.122337 0.5547
9.00140000 0.122371 1.8618 0.992477 -88.80 0.992477 -88.80 0.122365 0.5369
9.00160000 0.122399 1.8712 0.992474 -88.80 0.992474 -88.80 0.122393 0.5191
9.00180000 0.122427 1.8806 0.992470 -88.81 0.992470 -88.81 0.122421 0.5012
9.00200000 0.122456 1.8900 0.992467 -88.81 0.992467 -88.81 0.122450 0.4832
9.00220000 0.122484 1.8995 0.992463 -88.82 0.992463 -88.82 0.122478 0.4652
9.00240000 0.122513 1.9090 0.992459 -88.82 0.992459 -88.82 0.122507 0.4470
9.00260000 0.122542 1.9186 0.992456 -88.83 0.992456 -88.83 0.122536 0.4289
9.00280000 0.122571 1.9283 0.992452 -88.83 0.992452 -88.83 0.122564 0.4106
9.00300000 0.122600 1.9380 0.992449 -88.83 0.992449 -88.83 0.122593 0.3923
9.00320000 0.122629 1.9477 0.992445 -88.84 0.992445 -88.84 0.122623 0.3738
9.00340000 0.122658 1.9575 0.992441 -88.84 0.992441 -88.84 0.122652 0.3554
9.00360000 0.122688 1.9674 0.992438 -88.85 0.992438 -88.85 0.122681 0.3368
9.00380000 0.122717 1.9773 0.992434 -88.85 0.992434 -88.85 0.122711 0.3181
9.00400000 0.122747 1.9872 0.992430 -88.86 0.992430 -88.86 0.122741 0.2994
9.00420000 0.122777 1.9973 0.992427 -88.86 0.992427 -88.86 0.122770 0.2806
9.00440000 0.122807 2.0073 0.992423 -88.87 0.992423 -88.87 0.122800 0.2618
9.00460000 0.122837 2.0175 0.992419 -88.87 0.992419 -88.87 0.122831 0.2428
9.00480000 0.122867 2.0276 0.992415 -88.87 0.992415 -88.87 0.122861 0.2238
9.00500000 0.122898 2.0379 0.992412 -88.88 0.992412 -88.88 0.122891 0.2047
9.00520000 0.122928 2.0482 0.992408 -88.88 0.992408 -88.88 0.122922 0.1855
9.00540000 0.122959 2.0585 0.992404 -88.89 0.992404 -88.89 0.122952 0.1662
9.00560000 0.122990 2.0689 0.992400 -88.89 0.992400 -88.89 0.122983 0.1469
9.00580000 0.123021 2.0794 0.992396 -88.90 0.992396 -88.90 0.123014 0.1274
9.00600000 0.123052 2.0899 0.992392 -88.90 0.992392 -88.90 0.123045 0.1079
9.00620000 0.123083 2.1005 0.992389 -88.91 0.992389 -88.91 0.123076 0.0883
9.00640000 0.123115 2.1111 0.992385 -88.91 0.992385 -88.91 0.123108 0.0686
9.00660000 0.123146 2.1218 0.992381 -88.91 0.992381 -88.91 0.123139 0.0489
9.00680000 0.123178 2.1325 0.992377 -88.92 0.992377 -88.92 0.123171 0.0290
9.00700000 0.123210 2.1433 0.992373 -88.92 0.992373 -88.92 0.123203 0.0091
9.00720000 0.123242 2.1542 0.992369 -88.93 0.992369 -88.93 0.123235 -0.011
9.00740000 0.123274 2.1651 0.992365 -88.93 0.992365 -88.93 0.123267 -0.031
9.00760000 0.123306 2.1761 0.992361 -88.94 0.992361 -88.94 0.123299 -0.051
9.00780000 0.123339 2.1872 0.992357 -88.94 0.992357 -88.94 0.123332 -0.072
9.00800000 0.123372 2.1983 0.992353 -88.95 0.992353 -88.95 0.123364 -0.092
9.00820000 0.123404 2.2095 0.992348 -88.95 0.992348 -88.95 0.123397 -0.112
9.00840000 0.123437 2.2207 0.992344 -88.96 0.992344 -88.96 0.123430 -0.133
9.00860000 0.123470 2.2320 0.992340 -88.96 0.992340 -88.96 0.123463 -0.154
9.00880000 0.123504 2.2434 0.992336 -88.96 0.992336 -88.96 0.123497 -0.174
9.00900000 0.123537 2.2548 0.992332 -88.97 0.992332 -88.97 0.123530 -0.195
9.00920000 0.123571 2.2663 0.992328 -88.97 0.992328 -88.97 0.123564 -0.216
9.00940000 0.123605 2.2778 0.992323 -88.98 0.992323 -88.98 0.123597 -0.237
9.00960000 0.123639 2.2895 0.992319 -88.98 0.992319 -88.98 0.123631 -0.258
9.00980000 0.123673 2.3012 0.992315 -88.99 0.992315 -88.99 0.123665 -0.279
9.01000000 0.123707 2.3129 0.992311 -88.99 0.992311 -88.99 0.123700 -0.301
9.01020000 0.123742 2.3247 0.992306 -89.00 0.992306 -89.00 0.123734 -0.322
9.01040000 0.123776 2.3366 0.992302 -89.00 0.992302 -89.00 0.123769 -0.343
9.01060000 0.123811 2.3486 0.992297 -89.01 0.992297 -89.01 0.123803 -0.365
9.01080000 0.123846 2.3606 0.992293 -89.01 0.992293 -89.01 0.123838 -0.387
9.01100000 0.123881 2.3727 0.992289 -89.02 0.992289 -89.02 0.123874 -0.408
9.01120000 0.123917 2.3848 0.992284 -89.02 0.992284 -89.02 0.123909 -0.430
9.01140000 0.123952 2.3970 0.992280 -89.03 0.992280 -89.03 0.123944 -0.452
9.01160000 0.123988 2.4093 0.992275 -89.03 0.992275 -89.03 0.123980 -0.474
9.01180000 0.124024 2.4217 0.992271 -89.04 0.992271 -89.04 0.124016 -0.497
9.01200000 0.124060 2.4341 0.992266 -89.04 0.992266 -89.04 0.124052 -0.519
9.01220000 0.124096 2.4466 0.992262 -89.05 0.992262 -89.05 0.124088 -0.541
9.01240000 0.124133 2.4592 0.992257 -89.05 0.992257 -89.05 0.124125 -0.564
9.01260000 0.124169 2.4719 0.992252 -89.06 0.992252 -89.06 0.124161 -0.586
9.01280000 0.124206 2.4846 0.992248 -89.06 0.992248 -89.06 0.124198 -0.609
9.01300000 0.124243 2.4974 0.992243 -89.07 0.992243 -89.07 0.124235 -0.632
9.01320000 0.124281 2.5103 0.992238 -89.07 0.992238 -89.07 0.124272 -0.655
9.01340000 0.124318 2.5232 0.992234 -89.08 0.992234 -89.08 0.124310 -0.678
9.01360000 0.124356 2.5362 0.992229 -89.08 0.992229 -89.08 0.124348 -0.701
9.01380000 0.124394 2.5493 0.992224 -89.09 0.992224 -89.09 0.124385 -0.724
9.01400000 0.124432 2.5625 0.992219 -89.09 0.992219 -89.09 0.124423 -0.747
9.01420000 0.124470 2.5758 0.992215 -89.10 0.992215 -89.10 0.124462 -0.771
9.01440000 0.124508 2.5891 0.992210 -89.10 0.992210 -89.10 0.124500 -0.794
9.01460000 0.124547 2.6025 0.992205 -89.11 0.992205 -89.11 0.124539 -0.818
9.01480000 0.124586 2.6160 0.992200 -89.11 0.992200 -89.11 0.124578 -0.842
9.01500000 0.124625 2.6295 0.992195 -89.12 0.992195 -89.12 0.124617 -0.866
9.01520000 0.124665 2.6432 0.992190 -89.12 0.992190 -89.12 0.124656 -0.890
9.01540000 0.124704 2.6569 0.992185 -89.13 0.992185 -89.13 0.124695 -0.914
9.01560000 0.124744 2.6707 0.992180 -89.13 0.992180 -89.13 0.124735 -0.938
9.01580000 0.124784 2.6846 0.992175 -89.14 0.992175 -89.14 0.124775 -0.963
9.01600000 0.124824 2.6985 0.992170 -89.14 0.992170 -89.14 0.124815 -0.987
9.01620000 0.124864 2.7126 0.992165 -89.15 0.992165 -89.15 0.124856 -1.012
9.01640000 0.124905 2.7267 0.992160 -89.15 0.992160 -89.15 0.124896 -1.036
9.01660000 0.124946 2.7409 0.992154 -89.16 0.992154 -89.16 0.124937 -1.061
9.01680000 0.124987 2.7552 0.992149 -89.16 0.992149 -89.16 0.124978 -1.086
9.01700000 0.125029 2.7696 0.992144 -89.17 0.992144 -89.17 0.125019 -1.111
9.01720000 0.125070 2.7841 0.992139 -89.18 0.992139 -89.18 0.125061 -1.137
9.01740000 0.125112 2.7986 0.992133 -89.18 0.992133 -89.18 0.125103 -1.162
9.01760000 0.125154 2.8133 0.992128 -89.19 0.992128 -89.19 0.125145 -1.188
9.01780000 0.125196 2.8280 0.992123 -89.19 0.992123 -89.19 0.125187 -1.213
9.01800000 0.125239 2.8428 0.992117 -89.20 0.992117 -89.20 0.125230 -1.239
9.01820000 0.125282 2.8578 0.992112 -89.20 0.992112 -89.20 0.125272 -1.265
9.01840000 0.125325 2.8728 0.992106 -89.21 0.992106 -89.21 0.125315 -1.291
9.01860000 0.125368 2.8878 0.992101 -89.21 0.992101 -89.21 0.125359 -1.317
9.01880000 0.125412 2.9030 0.992095 -89.22 0.992095 -89.22 0.125402 -1.343
9.01900000 0.125456 2.9183 0.992090 -89.22 0.992090 -89.22 0.125446 -1.370
9.01920000 0.125500 2.9337 0.992084 -89.23 0.992084 -89.23 0.125490 -1.396
9.01940000 0.125544 2.9491 0.992078 -89.24 0.992078 -89.24 0.125534 -1.423
9.01960000 0.125589 2.9647 0.992073 -89.24 0.992073 -89.24 0.125579 -1.450
9.01980000 0.125633 2.9803 0.992067 -89.25 0.992067 -89.25 0.125624 -1.477
9.02000000 0.125679 2.9961 0.992061 -89.25 0.992061 -89.25 0.125669 -1.504
9.02020000 0.125724 3.0119 0.992055 -89.26 0.992055 -89.26 0.125714 -1.531
9.02040000 0.125770 3.0279 0.992050 -89.26 0.992050 -89.26 0.125760 -1.558
9.02060000 0.125816 3.0439 0.992044 -89.27 0.992044 -89.27 0.125806 -1.586
9.02080000 0.125862 3.0600 0.992038 -89.28 0.992038 -89.28 0.125852 -1.614
9.02100000 0.125909 3.0763 0.992032 -89.28 0.992032 -89.28 0.125898 -1.641
9.02120000 0.125955 3.0926 0.992026 -89.29 0.992026 -89.29 0.125945 -1.669
9.02140000 0.126002 3.1090 0.992020 -89.29 0.992020 -89.29 0.125992 -1.697
9.02160000 0.126050 3.1256 0.992014 -89.30 0.992014 -89.30 0.126039 -1.726
9.02180000 0.126098 3.1422 0.992008 -89.30 0.992008 -89.30 0.126087 -1.754
9.02200000 0.126146 3.1590 0.992002 -89.31 0.992002 -89.31 0.126135 -1.783
9.02220000 0.126194 3.1758 0.991995 -89.32 0.991995 -89.32 0.126183 -1.811
9.02240000 0.126242 3.1928 0.991989 -89.32 0.991989 -89.32 0.126232 -1.840
9.02260000 0.126291 3.2098 0.991983 -89.33 0.991983 -89.33 0.126281 -1.869
9.02280000 0.126341 3.2270 0.991977 -89.33 0.991977 -89.33 0.126330 -1.898
9.02300000 0.126390 3.2443 0.991970 -89.34 0.991970 -89.34 0.126379 -1.928
9.02320000 0.126440 3.2617 0.991964 -89.35 0.991964 -89.35 0.126429 -1.957
9.02340000 0.126490 3.2792 0.991957 -89.35 0.991957 -89.35 0.126479 -1.987
9.02360000 0.126541 3.2968 0.991951 -89.36 0.991951 -89.36 0.126530 -2.017
9.02380000 0.126591 3.3145 0.991944 -89.36 0.991944 -89.36 0.126580 -2.047
9.02400000 0.126643 3.3323 0.991938 -89.37 0.991938 -89.37 0.126631 -2.077
9.02420000 0.126694 3.3503 0.991931 -89.38 0.991931 -89.38 0.126683 -2.107
9.02440000 0.126746 3.3683 0.991925 -89.38 0.991925 -89.38 0.126735 -2.138
9.02460000 0.126798 3.3865 0.991918 -89.39 0.991918 -89.39 0.126787 -2.169
9.02480000 0.126851 3.4048 0.991911 -89.40 0.991911 -89.40 0.126839 -2.199
9.02500000 0.126903 3.4232 0.991904 -89.40 0.991904 -89.40 0.126892 -2.230
9.02520000 0.126957 3.4417 0.991897 -89.41 0.991897 -89.41 0.126945 -2.262
9.02540000 0.127010 3.4604 0.991891 -89.41 0.991891 -89.41 0.126998 -2.293
9.02560000 0.127064 3.4792 0.991884 -89.42 0.991884 -89.42 0.127052 -2.325
9.02580000 0.127118 3.4981 0.991877 -89.43 0.991877 -89.43 0.127106 -2.356
9.02600000 0.127173 3.5171 0.991870 -89.43 0.991870 -89.43 0.127161 -2.388
9.02620000 0.127228 3.5362 0.991862 -89.44 0.991862 -89.44 0.127216 -2.420
9.02640000 0.127283 3.5555 0.991855 -89.45 0.991855 -89.45 0.127271 -2.453
9.02660000 0.127339 3.5749 0.991848 -89.45 0.991848 -89.45 0.127327 -2.485
9.02680000 0.127395 3.5944 0.991841 -89.46 0.991841 -89.46 0.127383 -2.518
9.02700000 0.127452 3.6140 0.991833 -89.47 0.991833 -89.47 0.127440 -2.551
9.02720000 0.127509 3.6338 0.991826 -89.47 0.991826 -89.47 0.127496 -2.584
9.02740000 0.127566 3.6537 0.991819 -89.48 0.991819 -89.48 0.127554 -2.617
9.02760000 0.127624 3.6737 0.991811 -89.49 0.991811 -89.49 0.127611 -2.650
9.02780000 0.127682 3.6939 0.991804 -89.49 0.991804 -89.49 0.127669 -2.684
9.02800000 0.127741 3.7142 0.991796 -89.50 0.991796 -89.50 0.127728 -2.718