! Sonnet Data File
! From: emgraph Version : 16.52
! From Project: Resonator2_cp_varyW
! Data is De-embedded 
! Data File Written: 10/07/2017 23:12:07
!< HDATE 10/07/2017 13:09:30
!< MDATE 10/07/2017 13:09:30
!< PARAMS
!< gap = 6.0
!< Length = 400.0
!< Pwid1 = 2000.0
!< Pwid2 = 2000.0
!< Air_gap = 6.0
!< Width = 10.0
!< END PARAMS
# GHZ S MA R 51.80000
8.80000000 9.838e-4 17.513 0.999996 -80.72 0.999996 -80.72 9.829e-4 1.3306
!< P1 F=8.8 Eeff=(6.44679989 -2.9721e-5) Z0=(51.7992624 1.19519e-4) R=0.0 C=0.0 
!< P2 F=8.8 Eeff=(6.44679989 -2.9721e-5) Z0=(51.7992624 1.19519e-4) R=0.0 C=0.0 
8.80020000 9.818e-4 17.561 0.999996 -80.72 0.999996 -80.72 9.810e-4 1.2787
8.80040000 9.799e-4 17.610 0.999996 -80.72 0.999996 -80.72 9.791e-4 1.2264
8.80060000 9.780e-4 17.660 0.999996 -80.73 0.999996 -80.73 9.771e-4 1.1738
8.80080000 9.760e-4 17.709 0.999996 -80.73 0.999996 -80.73 9.752e-4 1.1209
8.80100000 9.741e-4 17.759 0.999996 -80.73 0.999996 -80.73 9.733e-4 1.0676
8.80120000 9.721e-4 17.810 0.999996 -80.73 0.999996 -80.73 9.713e-4 1.0140
8.80140000 9.702e-4 17.860 0.999996 -80.73 0.999996 -80.73 9.693e-4 0.9600
8.80160000 9.682e-4 17.911 0.999996 -80.74 0.999996 -80.74 9.674e-4 0.9057
8.80180000 9.663e-4 17.962 0.999996 -80.74 0.999996 -80.74 9.654e-4 0.8511
8.80200000 9.643e-4 18.014 0.999996 -80.74 0.999996 -80.74 9.635e-4 0.7961
8.80220000 9.624e-4 18.066 0.999996 -80.74 0.999996 -80.74 9.615e-4 0.7407
8.80240000 9.604e-4 18.119 0.999996 -80.74 0.999996 -80.74 9.595e-4 0.6850
8.80260000 9.584e-4 18.171 0.999996 -80.75 0.999996 -80.75 9.575e-4 0.6289
8.80280000 9.564e-4 18.225 0.999996 -80.75 0.999996 -80.75 9.555e-4 0.5725
8.80300000 9.544e-4 18.278 0.999996 -80.75 0.999996 -80.75 9.536e-4 0.5156
8.80320000 9.525e-4 18.332 0.999996 -80.75 0.999996 -80.75 9.516e-4 0.4585
8.80340000 9.505e-4 18.386 0.999996 -80.75 0.999996 -80.75 9.496e-4 0.4009
8.80360000 9.485e-4 18.441 0.999996 -80.76 0.999996 -80.76 9.476e-4 0.3429
8.80380000 9.465e-4 18.496 0.999996 -80.76 0.999996 -80.76 9.456e-4 0.2846
8.80400000 9.445e-4 18.551 0.999996 -80.76 0.999996 -80.76 9.436e-4 0.2259
8.80420000 9.425e-4 18.607 0.999996 -80.76 0.999996 -80.76 9.415e-4 0.1668
8.80440000 9.404e-4 18.664 0.999996 -80.76 0.999996 -80.76 9.395e-4 0.1073
8.80460000 9.384e-4 18.720 0.999996 -80.77 0.999996 -80.77 9.375e-4 0.0474
8.80480000 9.364e-4 18.777 0.999996 -80.77 0.999996 -80.77 9.355e-4 -0.013
8.80500000 9.344e-4 18.835 0.999996 -80.77 0.999996 -80.77 9.334e-4 -0.074
8.80520000 9.323e-4 18.893 0.999996 -80.77 0.999996 -80.77 9.314e-4 -0.135
8.80540000 9.303e-4 18.951 0.999996 -80.77 0.999996 -80.77 9.294e-4 -0.196
8.80560000 9.283e-4 19.010 0.999996 -80.78 0.999996 -80.78 9.273e-4 -0.258
8.80580000 9.262e-4 19.069 0.999996 -80.78 0.999996 -80.78 9.253e-4 -0.321
8.80600000 9.242e-4 19.128 0.999996 -80.78 0.999996 -80.78 9.232e-4 -0.384
8.80620000 9.221e-4 19.188 0.999996 -80.78 0.999996 -80.78 9.212e-4 -0.447
8.80640000 9.201e-4 19.249 0.999996 -80.78 0.999996 -80.78 9.191e-4 -0.510
8.80660000 9.180e-4 19.310 0.999996 -80.79 0.999996 -80.79 9.170e-4 -0.575
8.80680000 9.159e-4 19.371 0.999996 -80.79 0.999996 -80.79 9.150e-4 -0.639
8.80700000 9.139e-4 19.433 0.999996 -80.79 0.999996 -80.79 9.129e-4 -0.704
8.80720000 9.118e-4 19.495 0.999996 -80.79 0.999996 -80.79 9.108e-4 -0.770
8.80740000 9.097e-4 19.558 0.999996 -80.79 0.999996 -80.79 9.087e-4 -0.836
8.80760000 9.076e-4 19.621 0.999996 -80.80 0.999996 -80.80 9.066e-4 -0.902
8.80780000 9.055e-4 19.685 0.999996 -80.80 0.999996 -80.80 9.045e-4 -0.969
8.80800000 9.035e-4 19.749 0.999996 -80.80 0.999996 -80.80 9.024e-4 -1.036
8.80820000 9.014e-4 19.814 0.999996 -80.80 0.999996 -80.80 9.003e-4 -1.104
8.80840000 8.993e-4 19.879 0.999996 -80.80 0.999996 -80.80 8.982e-4 -1.173
8.80860000 8.972e-4 19.944 0.999996 -80.81 0.999996 -80.81 8.961e-4 -1.241
8.80880000 8.950e-4 20.010 0.999996 -80.81 0.999996 -80.81 8.940e-4 -1.311
8.80900000 8.929e-4 20.077 0.999996 -80.81 0.999996 -80.81 8.919e-4 -1.381
8.80920000 8.908e-4 20.144 0.999996 -80.81 0.999996 -80.81 8.897e-4 -1.451
8.80940000 8.887e-4 20.212 0.999996 -80.81 0.999996 -80.81 8.876e-4 -1.522
8.80960000 8.866e-4 20.280 0.999996 -80.82 0.999996 -80.82 8.855e-4 -1.593
8.80980000 8.844e-4 20.349 0.999996 -80.82 0.999996 -80.82 8.833e-4 -1.665
8.81000000 8.823e-4 20.418 0.999996 -80.82 0.999996 -80.82 8.812e-4 -1.738
8.81020000 8.802e-4 20.488 0.999996 -80.82 0.999996 -80.82 8.791e-4 -1.811
8.81040000 8.780e-4 20.558 0.999996 -80.82 0.999996 -80.82 8.769e-4 -1.884
8.81060000 8.759e-4 20.629 0.999996 -80.83 0.999996 -80.83 8.747e-4 -1.958
8.81080000 8.737e-4 20.701 0.999996 -80.83 0.999996 -80.83 8.726e-4 -2.033
8.81100000 8.715e-4 20.773 0.999996 -80.83 0.999996 -80.83 8.704e-4 -2.108
8.81120000 8.694e-4 20.845 0.999996 -80.83 0.999996 -80.83 8.683e-4 -2.184
8.81140000 8.672e-4 20.918 0.999996 -80.83 0.999996 -80.83 8.661e-4 -2.260
8.81160000 8.650e-4 20.992 0.999996 -80.83 0.999996 -80.83 8.639e-4 -2.337
8.81180000 8.629e-4 21.066 0.999996 -80.84 0.999996 -80.84 8.617e-4 -2.414
8.81200000 8.607e-4 21.141 0.999996 -80.84 0.999996 -80.84 8.595e-4 -2.492
8.81220000 8.585e-4 21.217 0.999996 -80.84 0.999996 -80.84 8.573e-4 -2.571
8.81240000 8.563e-4 21.293 0.999996 -80.84 0.999996 -80.84 8.551e-4 -2.650
8.81260000 8.541e-4 21.370 0.999996 -80.84 0.999996 -80.84 8.529e-4 -2.730
8.81280000 8.519e-4 21.447 0.999996 -80.85 0.999996 -80.85 8.507e-4 -2.811
8.81300000 8.497e-4 21.525 0.999996 -80.85 0.999996 -80.85 8.485e-4 -2.892
8.81320000 8.475e-4 21.604 0.999996 -80.85 0.999996 -80.85 8.463e-4 -2.974
8.81340000 8.453e-4 21.683 0.999996 -80.85 0.999996 -80.85 8.441e-4 -3.056
8.81360000 8.431e-4 21.763 0.999996 -80.85 0.999996 -80.85 8.419e-4 -3.139
8.81380000 8.409e-4 21.844 0.999996 -80.86 0.999996 -80.86 8.396e-4 -3.223
8.81400000 8.386e-4 21.925 0.999996 -80.86 0.999996 -80.86 8.374e-4 -3.307
8.81420000 8.364e-4 22.007 0.999996 -80.86 0.999996 -80.86 8.352e-4 -3.393
8.81440000 8.342e-4 22.090 0.999996 -80.86 0.999996 -80.86 8.329e-4 -3.478
8.81460000 8.319e-4 22.173 0.999996 -80.86 0.999996 -80.86 8.307e-4 -3.565
8.81480000 8.297e-4 22.257 0.999996 -80.87 0.999996 -80.87 8.284e-4 -3.652
8.81500000 8.275e-4 22.342 0.999996 -80.87 0.999996 -80.87 8.262e-4 -3.740
8.81520000 8.252e-4 22.428 0.999996 -80.87 0.999996 -80.87 8.239e-4 -3.828
8.81540000 8.229e-4 22.514 0.999996 -80.87 0.999996 -80.87 8.217e-4 -3.918
8.81560000 8.207e-4 22.601 0.999996 -80.87 0.999996 -80.87 8.194e-4 -4.008
8.81580000 8.184e-4 22.688 0.999996 -80.88 0.999996 -80.88 8.171e-4 -4.098
8.81600000 8.162e-4 22.777 0.999996 -80.88 0.999996 -80.88 8.148e-4 -4.190
8.81620000 8.139e-4 22.866 0.999996 -80.88 0.999996 -80.88 8.126e-4 -4.282
8.81640000 8.116e-4 22.956 0.999996 -80.88 0.999996 -80.88 8.103e-4 -4.375
8.81660000 8.093e-4 23.047 0.999996 -80.88 0.999996 -80.88 8.080e-4 -4.469
8.81680000 8.070e-4 23.138 0.999996 -80.89 0.999996 -80.89 8.057e-4 -4.563
8.81700000 8.047e-4 23.231 0.999996 -80.89 0.999996 -80.89 8.034e-4 -4.659
8.81720000 8.024e-4 23.324 0.999996 -80.89 0.999996 -80.89 8.011e-4 -4.755
8.81740000 8.002e-4 23.418 0.999996 -80.89 0.999996 -80.89 7.988e-4 -4.852
8.81760000 7.978e-4 23.513 0.999996 -80.89 0.999996 -80.89 7.965e-4 -4.950
8.81780000 7.955e-4 23.608 0.999996 -80.90 0.999996 -80.90 7.941e-4 -5.049
8.81800000 7.932e-4 23.705 0.999996 -80.90 0.999996 -80.90 7.918e-4 -5.148
8.81820000 7.909e-4 23.802 0.999996 -80.90 0.999996 -80.90 7.895e-4 -5.248
8.81840000 7.886e-4 23.900 0.999996 -80.90 0.999996 -80.90 7.872e-4 -5.350
8.81860000 7.863e-4 23.999 0.999996 -80.90 0.999996 -80.90 7.848e-4 -5.452
8.81880000 7.839e-4 24.099 0.999996 -80.91 0.999996 -80.91 7.825e-4 -5.555
8.81900000 7.816e-4 24.200 0.999996 -80.91 0.999996 -80.91 7.802e-4 -5.659
8.81920000 7.793e-4 24.302 0.999996 -80.91 0.999996 -80.91 7.778e-4 -5.763
8.81940000 7.769e-4 24.405 0.999996 -80.91 0.999996 -80.91 7.755e-4 -5.869
8.81960000 7.746e-4 24.508 0.999996 -80.91 0.999996 -80.91 7.731e-4 -5.976
8.81980000 7.722e-4 24.613 0.999996 -80.92 0.999996 -80.92 7.707e-4 -6.083
8.82000000 7.699e-4 24.719 0.999996 -80.92 0.999996 -80.92 7.684e-4 -6.192
8.82020000 7.675e-4 24.825 0.999996 -80.92 0.999996 -80.92 7.660e-4 -6.301
8.82040000 7.652e-4 24.933 0.999996 -80.92 0.999996 -80.92 7.636e-4 -6.412
8.82060000 7.628e-4 25.041 0.999996 -80.92 0.999996 -80.92 7.613e-4 -6.523
8.82080000 7.604e-4 25.151 0.999996 -80.93 0.999996 -80.93 7.589e-4 -6.636
8.82100000 7.580e-4 25.261 0.999996 -80.93 0.999996 -80.93 7.565e-4 -6.749
8.82120000 7.557e-4 25.373 0.999996 -80.93 0.999996 -80.93 7.541e-4 -6.864
8.82140000 7.533e-4 25.486 0.999996 -80.93 0.999996 -80.93 7.517e-4 -6.980
8.82160000 7.509e-4 25.599 0.999996 -80.93 0.999996 -80.93 7.493e-4 -7.096
8.82180000 7.485e-4 25.714 0.999996 -80.94 0.999996 -80.94 7.469e-4 -7.214
8.82200000 7.461e-4 25.830 0.999996 -80.94 0.999996 -80.94 7.445e-4 -7.333
8.82220000 7.437e-4 25.947 0.999996 -80.94 0.999996 -80.94 7.421e-4 -7.453
8.82240000 7.413e-4 26.065 0.999996 -80.94 0.999996 -80.94 7.397e-4 -7.574
8.82260000 7.389e-4 26.185 0.999996 -80.94 0.999996 -80.94 7.373e-4 -7.696
8.82280000 7.365e-4 26.305 0.999996 -80.95 0.999996 -80.95 7.349e-4 -7.820
8.82300000 7.341e-4 26.427 0.999996 -80.95 0.999996 -80.95 7.324e-4 -7.944
8.82320000 7.317e-4 26.549 0.999996 -80.95 0.999996 -80.95 7.300e-4 -8.070
8.82340000 7.293e-4 26.673 0.999996 -80.95 0.999996 -80.95 7.276e-4 -8.197
8.82360000 7.268e-4 26.799 0.999996 -80.95 0.999996 -80.95 7.251e-4 -8.325
8.82380000 7.244e-4 26.925 0.999996 -80.96 0.999996 -80.96 7.227e-4 -8.454
8.82400000 7.220e-4 27.053 0.999996 -80.96 0.999996 -80.96 7.203e-4 -8.585
8.82420000 7.195e-4 27.182 0.999996 -80.96 0.999996 -80.96 7.178e-4 -8.716
8.82440000 7.171e-4 27.312 0.999996 -80.96 0.999996 -80.96 7.154e-4 -8.850
8.82460000 7.147e-4 27.444 0.999996 -80.96 0.999996 -80.96 7.129e-4 -8.984
8.82480000 7.122e-4 27.576 0.999996 -80.97 0.999996 -80.97 7.104e-4 -9.120
8.82500000 7.098e-4 27.711 0.999996 -80.97 0.999996 -80.97 7.080e-4 -9.257
8.82520000 7.073e-4 27.846 0.999996 -80.97 0.999996 -80.97 7.055e-4 -9.395
8.82540000 7.049e-4 27.983 0.999996 -80.97 0.999996 -80.97 7.031e-4 -9.535
8.82560000 7.024e-4 28.121 0.999996 -80.97 0.999996 -80.97 7.006e-4 -9.676
8.82580000 6.999e-4 28.261 0.999996 -80.98 0.999996 -80.98 6.981e-4 -9.819
8.82600000 6.975e-4 28.402 0.999996 -80.98 0.999996 -80.98 6.956e-4 -9.963
8.82620000 6.950e-4 28.545 0.999996 -80.98 0.999996 -80.98 6.932e-4 -10.11
8.82640000 6.925e-4 28.689 0.999996 -80.98 0.999996 -80.98 6.907e-4 -10.26
8.82660000 6.901e-4 28.835 0.999996 -80.98 0.999996 -80.98 6.882e-4 -10.40
8.82680000 6.876e-4 28.982 0.999996 -80.99 0.999996 -80.99 6.857e-4 -10.55
8.82700000 6.851e-4 29.130 0.999996 -80.99 0.999996 -80.99 6.832e-4 -10.71
8.82720000 6.826e-4 29.281 0.999996 -80.99 0.999996 -80.99 6.807e-4 -10.86
8.82740000 6.801e-4 29.432 0.999996 -80.99 0.999996 -80.99 6.782e-4 -11.01
8.82760000 6.777e-4 29.586 0.999996 -80.99 0.999996 -80.99 6.757e-4 -11.17
8.82780000 6.752e-4 29.741 0.999996 -81.00 0.999996 -81.00 6.732e-4 -11.33
8.82800000 6.727e-4 29.897 0.999996 -81.00 0.999996 -81.00 6.707e-4 -11.49
8.82820000 6.702e-4 30.056 0.999996 -81.00 0.999996 -81.00 6.682e-4 -11.65
8.82840000 6.677e-4 30.216 0.999996 -81.00 0.999996 -81.00 6.657e-4 -11.81
8.82860000 6.652e-4 30.378 0.999996 -81.00 0.999996 -81.00 6.632e-4 -11.98
8.82880000 6.627e-4 30.541 0.999996 -81.01 0.999996 -81.01 6.606e-4 -12.14
8.82900000 6.602e-4 30.706 0.999996 -81.01 0.999996 -81.01 6.581e-4 -12.31
8.82920000 6.577e-4 30.873 0.999996 -81.01 0.999996 -81.01 6.556e-4 -12.48
8.82940000 6.552e-4 31.042 0.999996 -81.01 0.999996 -81.01 6.531e-4 -12.65
8.82960000 6.527e-4 31.213 0.999996 -81.01 0.999996 -81.01 6.506e-4 -12.82
8.82980000 6.501e-4 31.386 0.999996 -81.02 0.999996 -81.02 6.480e-4 -13.00
8.83000000 6.476e-4 31.560 0.999996 -81.02 0.999996 -81.02 6.455e-4 -13.18
8.83020000 6.451e-4 31.736 0.999996 -81.02 0.999996 -81.02 6.430e-4 -13.36
8.83040000 6.426e-4 31.915 0.999996 -81.02 0.999996 -81.02 6.404e-4 -13.54
8.83060000 6.401e-4 32.095 0.999996 -81.02 0.999996 -81.02 6.379e-4 -13.72
8.83080000 6.376e-4 32.278 0.999996 -81.03 0.999996 -81.03 6.354e-4 -13.91
8.83100000 6.350e-4 32.462 0.999996 -81.03 0.999996 -81.03 6.328e-4 -14.09
8.83120000 6.325e-4 32.649 0.999996 -81.03 0.999996 -81.03 6.303e-4 -14.28
8.83140000 6.300e-4 32.837 0.999996 -81.03 0.999996 -81.03 6.278e-4 -14.47
8.83160000 6.275e-4 33.028 0.999996 -81.03 0.999996 -81.03 6.252e-4 -14.67
8.83180000 6.250e-4 33.221 0.999996 -81.04 0.999996 -81.04 6.227e-4 -14.86
8.83200000 6.224e-4 33.416 0.999996 -81.04 0.999996 -81.04 6.201e-4 -15.06
8.83220000 6.199e-4 33.613 0.999996 -81.04 0.999996 -81.04 6.176e-4 -15.26
8.83240000 6.174e-4 33.813 0.999996 -81.04 0.999996 -81.04 6.150e-4 -15.46
8.83260000 6.149e-4 34.015 0.999996 -81.04 0.999996 -81.04 6.125e-4 -15.67
8.83280000 6.123e-4 34.219 0.999996 -81.05 0.999996 -81.05 6.100e-4 -15.88
8.83300000 6.098e-4 34.426 0.999996 -81.05 0.999996 -81.05 6.074e-4 -16.09
8.83320000 6.073e-4 34.635 0.999996 -81.05 0.999996 -81.05 6.049e-4 -16.30
8.83340000 6.048e-4 34.846 0.999996 -81.05 0.999996 -81.05 6.023e-4 -16.51
8.83360000 6.022e-4 35.060 0.999996 -81.06 0.999996 -81.06 5.998e-4 -16.73
8.83380000 5.997e-4 35.277 0.999996 -81.06 0.999996 -81.06 5.972e-4 -16.95
8.83400000 5.972e-4 35.496 0.999996 -81.06 0.999996 -81.06 5.947e-4 -17.17
8.83420000 5.947e-4 35.718 0.999996 -81.06 0.999996 -81.06 5.922e-4 -17.40
8.83440000 5.921e-4 35.942 0.999996 -81.06 0.999996 -81.06 5.896e-4 -17.62
8.83460000 5.896e-4 36.169 0.999996 -81.07 0.999996 -81.07 5.871e-4 -17.85
8.83480000 5.871e-4 36.398 0.999996 -81.07 0.999996 -81.07 5.845e-4 -18.08
8.83500000 5.846e-4 36.631 0.999996 -81.07 0.999996 -81.07 5.820e-4 -18.32
8.83520000 5.821e-4 36.866 0.999996 -81.07 0.999996 -81.07 5.795e-4 -18.56
8.83540000 5.796e-4 37.104 0.999996 -81.07 0.999996 -81.07 5.769e-4 -18.80
8.83560000 5.770e-4 37.345 0.999996 -81.08 0.999996 -81.08 5.744e-4 -19.04
8.83580000 5.745e-4 37.589 0.999996 -81.08 0.999996 -81.08 5.719e-4 -19.29
8.83600000 5.720e-4 37.836 0.999996 -81.08 0.999996 -81.08 5.693e-4 -19.54
8.83620000 5.695e-4 38.085 0.999996 -81.08 0.999996 -81.08 5.668e-4 -19.79
8.83640000 5.670e-4 38.338 0.999996 -81.08 0.999996 -81.08 5.643e-4 -20.05
8.83660000 5.645e-4 38.594 0.999996 -81.09 0.999996 -81.09 5.618e-4 -20.31
8.83680000 5.620e-4 38.853 0.999996 -81.09 0.999996 -81.09 5.593e-4 -20.57
8.83700000 5.595e-4 39.116 0.999996 -81.09 0.999996 -81.09 5.567e-4 -20.84
8.83720000 5.570e-4 39.381 0.999996 -81.09 0.999996 -81.09 5.542e-4 -21.10
8.83740000 5.546e-4 39.650 0.999996 -81.09 0.999996 -81.09 5.517e-4 -21.38
8.83760000 5.521e-4 39.922 0.999996 -81.10 0.999996 -81.10 5.492e-4 -21.65
8.83780000 5.496e-4 40.198 0.999996 -81.10 0.999996 -81.10 5.467e-4 -21.93
8.83800000 5.471e-4 40.477 0.999996 -81.10 0.999996 -81.10 5.442e-4 -22.21
8.83820000 5.447e-4 40.759 0.999996 -81.10 0.999996 -81.10 5.417e-4 -22.50
8.83840000 5.422e-4 41.045 0.999996 -81.10 0.999996 -81.10 5.393e-4 -22.79
8.83860000 5.398e-4 41.335 0.999996 -81.11 0.999996 -81.11 5.368e-4 -23.08
8.83880000 5.373e-4 41.628 0.999996 -81.11 0.999996 -81.11 5.343e-4 -23.38
8.83900000 5.349e-4 41.925 0.999996 -81.11 0.999996 -81.11 5.319e-4 -23.68
8.83920000 5.325e-4 42.225 0.999996 -81.11 0.999996 -81.11 5.294e-4 -23.98
8.83940000 5.300e-4 42.530 0.999996 -81.11 0.999996 -81.11 5.269e-4 -24.29
8.83960000 5.276e-4 42.838 0.999996 -81.12 0.999996 -81.12 5.245e-4 -24.60
8.83980000 5.252e-4 43.150 0.999996 -81.12 0.999996 -81.12 5.221e-4 -24.92
8.84000000 5.228e-4 43.467 0.999996 -81.12 0.999996 -81.12 5.196e-4 -25.24
8.84020000 5.204e-4 43.787 0.999996 -81.12 0.999996 -81.12 5.172e-4 -25.56
8.84040000 5.180e-4 44.111 0.999996 -81.12 0.999996 -81.12 5.148e-4 -25.89
8.84060000 5.156e-4 44.439 0.999996 -81.13 0.999996 -81.13 5.124e-4 -26.22
8.84080000 5.133e-4 44.772 0.999996 -81.13 0.999996 -81.13 5.100e-4 -26.56
8.84100000 5.109e-4 45.109 0.999996 -81.13 0.999996 -81.13 5.076e-4 -26.90
8.84120000 5.086e-4 45.450 0.999996 -81.13 0.999996 -81.13 5.052e-4 -27.24
8.84140000 5.062e-4 45.795 0.999996 -81.13 0.999996 -81.13 5.029e-4 -27.59
8.84160000 5.039e-4 46.145 0.999996 -81.14 0.999996 -81.14 5.005e-4 -27.95
8.84180000 5.016e-4 46.500 0.999996 -81.14 0.999996 -81.14 4.982e-4 -28.31
8.84200000 4.993e-4 46.859 0.999996 -81.14 0.999996 -81.14 4.958e-4 -28.67
8.84220000 4.970e-4 47.222 0.999996 -81.14 0.999996 -81.14 4.935e-4 -29.04
8.84240000 4.947e-4 47.590 0.999996 -81.14 0.999996 -81.14 4.912e-4 -29.41
8.84260000 4.924e-4 47.963 0.999996 -81.15 0.999996 -81.15 4.889e-4 -29.79
8.84280000 4.902e-4 48.341 0.999996 -81.15 0.999996 -81.15 4.866e-4 -30.17
8.84300000 4.879e-4 48.723 0.999996 -81.15 0.999996 -81.15 4.844e-4 -30.56
8.84320000 4.857e-4 49.110 0.999996 -81.15 0.999996 -81.15 4.821e-4 -30.95
8.84340000 4.835e-4 49.502 0.999996 -81.16 0.999996 -81.16 4.799e-4 -31.34
8.84360000 4.813e-4 49.900 0.999996 -81.16 0.999996 -81.16 4.776e-4 -31.75
8.84380000 4.791e-4 50.302 0.999996 -81.16 0.999996 -81.16 4.754e-4 -32.15
8.84400000 4.770e-4 50.709 0.999996 -81.16 0.999996 -81.16 4.732e-4 -32.57
8.84420000 4.748e-4 51.122 0.999996 -81.16 0.999996 -81.16 4.711e-4 -32.98
8.84440000 4.727e-4 51.539 0.999996 -81.17 0.999996 -81.17 4.689e-4 -33.41
8.84460000 4.706e-4 51.962 0.999996 -81.17 0.999996 -81.17 4.668e-4 -33.83
8.84480000 4.685e-4 52.390 0.999996 -81.17 0.999996 -81.17 4.647e-4 -34.27
8.84500000 4.664e-4 52.824 0.999996 -81.17 0.999996 -81.17 4.626e-4 -34.71
8.84520000 4.644e-4 53.263 0.999996 -81.17 0.999996 -81.17 4.605e-4 -35.15
8.84540000 4.624e-4 53.707 0.999996 -81.18 0.999996 -81.18 4.584e-4 -35.60
8.84560000 4.604e-4 54.157 0.999996 -81.18 0.999996 -81.18 4.564e-4 -36.06
8.84580000 4.584e-4 54.613 0.999996 -81.18 0.999996 -81.18 4.544e-4 -36.52
8.84600000 4.564e-4 55.074 0.999996 -81.18 0.999996 -81.18 4.524e-4 -36.99
8.84620000 4.545e-4 55.541 0.999996 -81.18 0.999996 -81.18 4.504e-4 -37.46
8.84640000 4.526e-4 56.013 0.999996 -81.19 0.999996 -81.19 4.485e-4 -37.94
8.84660000 4.507e-4 56.491 0.999996 -81.19 0.999996 -81.19 4.465e-4 -38.42
8.84680000 4.488e-4 56.975 0.999996 -81.19 0.999996 -81.19 4.446e-4 -38.91
8.84700000 4.470e-4 57.465 0.999996 -81.19 0.999996 -81.19 4.428e-4 -39.41
8.84720000 4.451e-4 57.960 0.999996 -81.19 0.999996 -81.19 4.409e-4 -39.91
8.84740000 4.434e-4 58.461 0.999996 -81.20 0.999996 -81.20 4.391e-4 -40.42
8.84760000 4.416e-4 58.968 0.999996 -81.20 0.999996 -81.20 4.373e-4 -40.93
8.84780000 4.399e-4 59.481 0.999996 -81.20 0.999996 -81.20 4.355e-4 -41.45
8.84800000 4.382e-4 60.000 0.999996 -81.20 0.999996 -81.20 4.338e-4 -41.98
8.84820000 4.365e-4 60.525 0.999996 -81.21 0.999996 -81.21 4.321e-4 -42.51
8.84840000 4.349e-4 61.056 0.999996 -81.21 0.999996 -81.21 4.304e-4 -43.05
8.84860000 4.333e-4 61.592 0.999996 -81.21 0.999996 -81.21 4.288e-4 -43.60
8.84880000 4.317e-4 62.135 0.999996 -81.21 0.999996 -81.21 4.272e-4 -44.15
8.84900000 4.302e-4 62.684 0.999996 -81.21 0.999996 -81.21 4.256e-4 -44.70
8.84920000 4.287e-4 63.238 0.999996 -81.22 0.999996 -81.22 4.241e-4 -45.27
8.84940000 4.272e-4 63.798 0.999996 -81.22 0.999996 -81.22 4.226e-4 -45.84
8.84960000 4.258e-4 64.364 0.999996 -81.22 0.999996 -81.22 4.211e-4 -46.41
8.84980000 4.244e-4 64.936 0.999996 -81.22 0.999996 -81.22 4.197e-4 -46.99
8.85000000 4.230e-4 65.514 0.999996 -81.22 0.999996 -81.22 4.183e-4 -47.58
8.85020000 4.217e-4 66.098 0.999996 -81.23 0.999996 -81.23 4.170e-4 -48.17
8.85040000 4.204e-4 66.688 0.999996 -81.23 0.999996 -81.23 4.157e-4 -48.77
8.85060000 4.192e-4 67.283 0.999996 -81.23 0.999996 -81.23 4.144e-4 -49.38
8.85080000 4.180e-4 67.884 0.999996 -81.23 0.999996 -81.23 4.132e-4 -49.99
8.85100000 4.168e-4 68.490 0.999996 -81.23 0.999996 -81.23 4.120e-4 -50.60
8.85120000 4.157e-4 69.102 0.999996 -81.24 0.999996 -81.24 4.109e-4 -51.23
8.85140000 4.147e-4 69.720 0.999996 -81.24 0.999996 -81.24 4.098e-4 -51.86
8.85160000 4.137e-4 70.343 0.999996 -81.24 0.999996 -81.24 4.087e-4 -52.49
8.85180000 4.127e-4 70.972 0.999996 -81.24 0.999996 -81.24 4.077e-4 -53.13
8.85200000 4.118e-4 71.605 0.999996 -81.24 0.999996 -81.24 4.068e-4 -53.77
8.85220000 4.109e-4 72.244 0.999996 -81.25 0.999996 -81.25 4.058e-4 -54.42
8.85240000 4.100e-4 72.888 0.999996 -81.25 0.999996 -81.25 4.050e-4 -55.08
8.85260000 4.093e-4 73.537 0.999996 -81.25 0.999996 -81.25 4.042e-4 -55.74
8.85280000 4.085e-4 74.191 0.999996 -81.25 0.999996 -81.25 4.034e-4 -56.41
8.85300000 4.079e-4 74.849 0.999996 -81.26 0.999996 -81.26 4.027e-4 -57.08
8.85320000 4.072e-4 75.513 0.999996 -81.26 0.999996 -81.26 4.021e-4 -57.75
8.85340000 4.067e-4 76.180 0.999996 -81.26 0.999996 -81.26 4.015e-4 -58.43
8.85360000 4.061e-4 76.852 0.999996 -81.26 0.999996 -81.26 4.009e-4 -59.12
8.85380000 4.057e-4 77.528 0.999996 -81.26 0.999996 -81.26 4.004e-4 -59.80
8.85400000 4.053e-4 78.209 0.999996 -81.27 0.999996 -81.27 4.000e-4 -60.50
8.85420000 4.049e-4 78.893 0.999996 -81.27 0.999996 -81.27 3.996e-4 -61.19
8.85440000 4.046e-4 79.580 0.999996 -81.27 0.999996 -81.27 3.993e-4 -61.90
8.85460000 4.044e-4 80.272 0.999996 -81.27 0.999996 -81.27 3.990e-4 -62.60
8.85480000 4.042e-4 80.966 0.999996 -81.27 0.999996 -81.27 3.988e-4 -63.31
8.85500000 4.041e-4 81.664 0.999996 -81.28 0.999996 -81.28 3.987e-4 -64.02
8.85520000 4.040e-4 82.365 0.999996 -81.28 0.999996 -81.28 3.986e-4 -64.73
8.85540000 4.040e-4 83.069 0.999996 -81.28 0.999996 -81.28 3.986e-4 -65.45
8.85560000 4.041e-4 83.775 0.999996 -81.28 0.999996 -81.28 3.986e-4 -66.17
8.85580000 4.042e-4 84.484 0.999996 -81.29 0.999996 -81.29 3.987e-4 -66.89
8.85600000 4.044e-4 85.195 0.999996 -81.29 0.999996 -81.29 3.989e-4 -67.62
8.85620000 4.046e-4 85.908 0.999996 -81.29 0.999996 -81.29 3.992e-4 -68.35
8.85640000 4.050e-4 86.623 0.999996 -81.29 0.999996 -81.29 3.995e-4 -69.08
8.85660000 4.053e-4 87.339 0.999996 -81.29 0.999996 -81.29 3.998e-4 -69.81
8.85680000 4.058e-4 88.056 0.999996 -81.30 0.999996 -81.30 4.003e-4 -70.54
8.85700000 4.063e-4 88.775 0.999996 -81.30 0.999996 -81.30 4.008e-4 -71.27
8.85720000 4.069e-4 89.494 0.999996 -81.30 0.999996 -81.30 4.013e-4 -72.01
8.85740000 4.075e-4 90.215 0.999996 -81.30 0.999996 -81.30 4.020e-4 -72.74
8.85760000 4.082e-4 90.935 0.999996 -81.30 0.999996 -81.30 4.027e-4 -73.48
8.85780000 4.090e-4 91.656 0.999996 -81.31 0.999996 -81.31 4.034e-4 -74.21
8.85800000 4.099e-4 92.377 0.999996 -81.31 0.999996 -81.31 4.043e-4 -74.95
8.85820000 4.108e-4 93.097 0.999996 -81.31 0.999996 -81.31 4.052e-4 -75.68
8.85840000 4.118e-4 93.817 0.999996 -81.31 0.999996 -81.31 4.062e-4 -76.42
8.85860000 4.128e-4 94.536 0.999996 -81.31 0.999996 -81.31 4.072e-4 -77.15
8.85880000 4.140e-4 95.254 0.999996 -81.32 0.999996 -81.32 4.083e-4 -77.88
8.85900000 4.152e-4 95.972 0.999996 -81.32 0.999996 -81.32 4.095e-4 -78.61
8.85920000 4.164e-4 96.687 0.999996 -81.32 0.999996 -81.32 4.108e-4 -79.34
8.85940000 4.178e-4 97.401 0.999996 -81.32 0.999996 -81.32 4.121e-4 -80.07
8.85960000 4.192e-4 98.113 0.999996 -81.33 0.999996 -81.33 4.135e-4 -80.80
8.85980000 4.207e-4 98.824 0.999996 -81.33 0.999996 -81.33 4.150e-4 -81.52
8.86000000 4.222e-4 99.531 0.999996 -81.33 0.999996 -81.33 4.166e-4 -82.24
8.86020000 4.238e-4 100.24 0.999996 -81.33 0.999996 -81.33 4.182e-4 -82.96
8.86040000 4.255e-4 100.94 0.999996 -81.33 0.999996 -81.33 4.199e-4 -83.68
8.86060000 4.273e-4 101.64 0.999996 -81.34 0.999996 -81.34 4.216e-4 -84.39
8.86080000 4.291e-4 102.34 0.999996 -81.34 0.999996 -81.34 4.235e-4 -85.10
8.86100000 4.310e-4 103.03 0.999996 -81.34 0.999996 -81.34 4.254e-4 -85.81
8.86120000 4.330e-4 103.72 0.999996 -81.34 0.999996 -81.34 4.274e-4 -86.51
8.86140000 4.350e-4 104.41 0.999996 -81.34 0.999996 -81.34 4.294e-4 -87.21
8.86160000 4.372e-4 105.09 0.999996 -81.35 0.999996 -81.35 4.315e-4 -87.91
8.86180000 4.393e-4 105.77 0.999996 -81.35 0.999996 -81.35 4.337e-4 -88.60
8.86200000 4.416e-4 106.44 0.999996 -81.35 0.999996 -81.35 4.360e-4 -89.29
8.86220000 4.439e-4 107.11 0.999996 -81.35 0.999996 -81.35 4.383e-4 -89.97
8.86240000 4.463e-4 107.78 0.999996 -81.36 0.999996 -81.36 4.408e-4 -90.65
8.86260000 4.488e-4 108.44 0.999996 -81.36 0.999996 -81.36 4.432e-4 -91.32
8.86280000 4.514e-4 109.10 0.999996 -81.36 0.999996 -81.36 4.458e-4 -91.99
8.86300000 4.540e-4 109.75 0.999996 -81.36 0.999996 -81.36 4.484e-4 -92.65
8.86320000 4.566e-4 110.40 0.999996 -81.36 0.999996 -81.36 4.511e-4 -93.31
8.86340000 4.594e-4 111.04 0.999996 -81.37 0.999996 -81.37 4.539e-4 -93.97
8.86360000 4.622e-4 111.68 0.999996 -81.37 0.999996 -81.37 4.567e-4 -94.61
8.86380000 4.651e-4 112.31 0.999996 -81.37 0.999996 -81.37 4.596e-4 -95.26
8.86400000 4.681e-4 112.93 0.999996 -81.37 0.999996 -81.37 4.626e-4 -95.89
8.86420000 4.711e-4 113.55 0.999996 -81.38 0.999996 -81.38 4.656e-4 -96.53
8.86440000 4.742e-4 114.17 0.999996 -81.38 0.999996 -81.38 4.687e-4 -97.15
8.86460000 4.773e-4 114.78 0.999996 -81.38 0.999996 -81.38 4.719e-4 -97.77
8.86480000 4.806e-4 115.38 0.999996 -81.38 0.999996 -81.38 4.752e-4 -98.39
8.86500000 4.839e-4 115.98 0.999996 -81.38 0.999996 -81.38 4.785e-4 -99.00
8.86520000 4.872e-4 116.58 0.999996 -81.39 0.999996 -81.39 4.818e-4 -99.60
8.86540000 4.907e-4 117.16 0.999996 -81.39 0.999996 -81.39 4.853e-4 -100.2
8.86560000 4.942e-4 117.75 0.999996 -81.39 0.999996 -81.39 4.888e-4 -100.8
8.86580000 4.977e-4 118.32 0.999996 -81.39 0.999996 -81.39 4.924e-4 -101.4
8.86600000 5.013e-4 118.89 0.999996 -81.39 0.999996 -81.39 4.960e-4 -101.9
8.86620000 5.050e-4 119.46 0.999996 -81.40 0.999996 -81.40 4.997e-4 -102.5
8.86640000 5.088e-4 120.01 0.999996 -81.40 0.999996 -81.40 5.035e-4 -103.1
8.86660000 5.126e-4 120.57 0.999996 -81.40 0.999996 -81.40 5.074e-4 -103.6
8.86680000 5.165e-4 121.11 0.999996 -81.40 0.999996 -81.40 5.113e-4 -104.2
8.86700000 5.205e-4 121.65 0.999996 -81.41 0.999996 -81.41 5.152e-4 -104.8
8.86720000 5.245e-4 122.19 0.999996 -81.41 0.999996 -81.41 5.193e-4 -105.3
8.86740000 5.285e-4 122.72 0.999996 -81.41 0.999996 -81.41 5.234e-4 -105.8
8.86760000 5.327e-4 123.24 0.999996 -81.41 0.999996 -81.41 5.275e-4 -106.4
8.86780000 5.369e-4 123.75 0.999996 -81.41 0.999996 -81.41 5.317e-4 -106.9
8.86800000 5.411e-4 124.27 0.999996 -81.42 0.999996 -81.42 5.360e-4 -107.4
8.86820000 5.455e-4 124.77 0.999996 -81.42 0.999996 -81.42 5.404e-4 -107.9
8.86840000 5.498e-4 125.27 0.999996 -81.42 0.999996 -81.42 5.448e-4 -108.4
8.86860000 5.543e-4 125.76 0.999996 -81.42 0.999996 -81.42 5.492e-4 -108.9
8.86880000 5.588e-4 126.25 0.999996 -81.43 0.999996 -81.43 5.538e-4 -109.4
8.86900000 5.634e-4 126.73 0.999996 -81.43 0.999996 -81.43 5.584e-4 -109.9
8.86920000 5.680e-4 127.21 0.999996 -81.43 0.999996 -81.43 5.630e-4 -110.4
8.86940000 5.727e-4 127.68 0.999996 -81.43 0.999996 -81.43 5.677e-4 -110.9
8.86960000 5.774e-4 128.14 0.999996 -81.43 0.999996 -81.43 5.725e-4 -111.3
8.86980000 5.822e-4 128.60 0.999996 -81.44 0.999996 -81.44 5.773e-4 -111.8
8.87000000 5.871e-4 129.05 0.999996 -81.44 0.999996 -81.44 5.822e-4 -112.3
8.87020000 5.920e-4 129.50 0.999996 -81.44 0.999996 -81.44 5.871e-4 -112.7
8.87040000 5.970e-4 129.94 0.999996 -81.44 0.999996 -81.44 5.921e-4 -113.2
8.87060000 6.020e-4 130.38 0.999996 -81.45 0.999996 -81.45 5.972e-4 -113.6
8.87080000 6.071e-4 130.81 0.999996 -81.45 0.999996 -81.45 6.023e-4 -114.0
8.87100000 6.123e-4 131.24 0.999996 -81.45 0.999996 -81.45 6.075e-4 -114.5
8.87120000 6.175e-4 131.66 0.999996 -81.45 0.999996 -81.45 6.127e-4 -114.9
8.87140000 6.228e-4 132.08 0.999996 -81.45 0.999996 -81.45 6.180e-4 -115.3
8.87160000 6.281e-4 132.49 0.999996 -81.46 0.999996 -81.46 6.234e-4 -115.7
8.87180000 6.335e-4 132.89 0.999996 -81.46 0.999996 -81.46 6.288e-4 -116.1
8.87200000 6.389e-4 133.29 0.999996 -81.46 0.999996 -81.46 6.342e-4 -116.6
8.87220000 6.444e-4 133.69 0.999996 -81.46 0.999996 -81.46 6.397e-4 -117.0
8.87240000 6.499e-4 134.08 0.999996 -81.47 0.999996 -81.47 6.453e-4 -117.3
8.87260000 6.555e-4 134.46 0.999996 -81.47 0.999996 -81.47 6.509e-4 -117.7
8.87280000 6.612e-4 134.84 0.999996 -81.47 0.999996 -81.47 6.566e-4 -118.1
8.87300000 6.669e-4 135.22 0.999996 -81.47 0.999996 -81.47 6.624e-4 -118.5
8.87320000 6.727e-4 135.59 0.999996 -81.47 0.999996 -81.47 6.681e-4 -118.9
8.87340000 6.785e-4 135.96 0.999996 -81.48 0.999996 -81.48 6.740e-4 -119.2
8.87360000 6.844e-4 136.32 0.999996 -81.48 0.999996 -81.48 6.799e-4 -119.6
8.87380000 6.903e-4 136.67 0.999996 -81.48 0.999996 -81.48 6.858e-4 -120.0
8.87400000 6.963e-4 137.03 0.999996 -81.48 0.999996 -81.48 6.919e-4 -120.3
8.87420000 7.024e-4 137.38 0.999996 -81.49 0.999996 -81.49 6.979e-4 -120.7
8.87440000 7.085e-4 137.72 0.999996 -81.49 0.999996 -81.49 7.040e-4 -121.0
8.87460000 7.146e-4 138.06 0.999996 -81.49 0.999996 -81.49 7.102e-4 -121.4
8.87480000 7.208e-4 138.39 0.999996 -81.49 0.999996 -81.49 7.164e-4 -121.7
8.87500000 7.271e-4 138.72 0.999996 -81.50 0.999996 -81.50 7.227e-4 -122.1
8.87520000 7.334e-4 139.05 0.999996 -81.50 0.999996 -81.50 7.290e-4 -122.4
8.87540000 7.398e-4 139.37 0.999996 -81.50 0.999996 -81.50 7.354e-4 -122.7
8.87560000 7.462e-4 139.69 0.999996 -81.50 0.999996 -81.50 7.419e-4 -123.0
8.87580000 7.527e-4 140.01 0.999996 -81.50 0.999996 -81.50 7.484e-4 -123.3
8.87600000 7.592e-4 140.32 0.999996 -81.51 0.999996 -81.51 7.549e-4 -123.7
8.87620000 7.658e-4 140.62 0.999996 -81.51 0.999996 -81.51 7.615e-4 -124.0
8.87640000 7.724e-4 140.93 0.999996 -81.51 0.999996 -81.51 7.682e-4 -124.3
8.87660000 7.791e-4 141.23 0.999996 -81.51 0.999996 -81.51 7.749e-4 -124.6
8.87680000 7.858e-4 141.52 0.999996 -81.52 0.999996 -81.52 7.816e-4 -124.9
8.87700000 7.926e-4 141.81 0.999996 -81.52 0.999996 -81.52 7.885e-4 -125.2
8.87720000 7.995e-4 142.10 0.999996 -81.52 0.999996 -81.52 7.953e-4 -125.5
8.87740000 8.064e-4 142.39 0.999996 -81.52 0.999996 -81.52 8.023e-4 -125.8
8.87760000 8.133e-4 142.67 0.999996 -81.52 0.999996 -81.52 8.092e-4 -126.0
8.87780000 8.203e-4 142.94 0.999996 -81.53 0.999996 -81.53 8.163e-4 -126.3
8.87800000 8.274e-4 143.22 0.999996 -81.53 0.999996 -81.53 8.233e-4 -126.6
8.87820000 8.345e-4 143.49 0.999995 -81.53 0.999995 -81.53 8.305e-4 -126.9
8.87840000 8.417e-4 143.76 0.999995 -81.53 0.999995 -81.53 8.377e-4 -127.1