! Sonnet Data File
! From: emgraph Version : 16.52
! From Project: Resonator2_extremeCap
! Data is De-embedded 
! Data File Written: 10/10/2017 20:29:21
!< HDATE 10/09/2017 23:04:37
!< MDATE 10/09/2017 23:04:37
!< PARAMS
!< Pwid1 = 2000.0
!< Pwid2 = 2000.0
!< Air_gap = 18.0
!< Width = 30.0
!< Gap = 23.0
!< END PARAMS
# GHZ S MA R 51.80000
8.98000000 0.073635 20.584 0.997272 -90.02 0.997272 -90.02 0.073613 -20.61
!< P1 F=8.98 Eeff=(6.44501582 -2.9712e-5) Z0=(50.6182877 1.16785e-4) R=0.0 C=0.0 
!< P2 F=8.98 Eeff=(6.44501582 -2.9712e-5) Z0=(50.6182877 1.16785e-4) R=0.0 C=0.0 
8.98010000 0.073641 20.619 0.997271 -90.02 0.997271 -90.02 0.073619 -20.66
8.98020000 0.073648 20.653 0.997271 -90.02 0.997271 -90.02 0.073626 -20.70
8.98030000 0.073655 20.688 0.997270 -90.03 0.997270 -90.03 0.073633 -20.74
8.98040000 0.073662 20.723 0.997270 -90.03 0.997270 -90.03 0.073639 -20.78
8.98050000 0.073668 20.757 0.997269 -90.03 0.997269 -90.03 0.073646 -20.83
8.98060000 0.073675 20.792 0.997269 -90.04 0.997269 -90.04 0.073653 -20.87
8.98070000 0.073682 20.827 0.997268 -90.04 0.997268 -90.04 0.073660 -20.91
8.98080000 0.073689 20.863 0.997268 -90.05 0.997268 -90.05 0.073667 -20.96
8.98090000 0.073696 20.898 0.997267 -90.05 0.997267 -90.05 0.073674 -21.00
8.98100000 0.073703 20.933 0.997267 -90.05 0.997267 -90.05 0.073681 -21.04
8.98110000 0.073710 20.968 0.997266 -90.06 0.997266 -90.06 0.073688 -21.08
8.98120000 0.073717 21.004 0.997265 -90.06 0.997265 -90.06 0.073695 -21.13
8.98130000 0.073725 21.039 0.997265 -90.07 0.997265 -90.07 0.073702 -21.17
8.98140000 0.073732 21.075 0.997264 -90.07 0.997264 -90.07 0.073709 -21.22
8.98150000 0.073739 21.111 0.997264 -90.07 0.997264 -90.07 0.073716 -21.26
8.98160000 0.073746 21.147 0.997263 -90.08 0.997263 -90.08 0.073723 -21.30
8.98170000 0.073754 21.183 0.997263 -90.08 0.997263 -90.08 0.073731 -21.35
8.98180000 0.073761 21.219 0.997262 -90.09 0.997262 -90.09 0.073738 -21.39
8.98190000 0.073769 21.255 0.997262 -90.09 0.997262 -90.09 0.073746 -21.44
8.98200000 0.073776 21.291 0.997261 -90.10 0.997261 -90.10 0.073753 -21.48
8.98210000 0.073784 21.327 0.997260 -90.10 0.997260 -90.10 0.073761 -21.52
8.98220000 0.073792 21.364 0.997260 -90.10 0.997260 -90.10 0.073768 -21.57
8.98230000 0.073799 21.400 0.997259 -90.11 0.997259 -90.11 0.073776 -21.61
8.98240000 0.073807 21.436 0.997259 -90.11 0.997259 -90.11 0.073784 -21.66
8.98250000 0.073815 21.473 0.997258 -90.12 0.997258 -90.12 0.073791 -21.70
8.98260000 0.073823 21.510 0.997257 -90.12 0.997257 -90.12 0.073799 -21.75
8.98270000 0.073831 21.547 0.997257 -90.12 0.997257 -90.12 0.073807 -21.79
8.98280000 0.073839 21.584 0.997256 -90.13 0.997256 -90.13 0.073815 -21.84
8.98290000 0.073847 21.621 0.997255 -90.13 0.997255 -90.13 0.073823 -21.88
8.98300000 0.073855 21.658 0.997255 -90.14 0.997255 -90.14 0.073831 -21.93
8.98310000 0.073863 21.695 0.997254 -90.14 0.997254 -90.14 0.073839 -21.97
8.98320000 0.073871 21.732 0.997254 -90.14 0.997254 -90.14 0.073847 -22.02
8.98330000 0.073879 21.770 0.997253 -90.15 0.997253 -90.15 0.073855 -22.07
8.98340000 0.073888 21.807 0.997252 -90.15 0.997252 -90.15 0.073864 -22.11
8.98350000 0.073896 21.845 0.997252 -90.16 0.997252 -90.16 0.073872 -22.16
8.98360000 0.073904 21.882 0.997251 -90.16 0.997251 -90.16 0.073880 -22.20
8.98370000 0.073913 21.920 0.997250 -90.17 0.997250 -90.17 0.073889 -22.25
8.98380000 0.073921 21.958 0.997250 -90.17 0.997250 -90.17 0.073897 -22.30
8.98390000 0.073930 21.996 0.997249 -90.17 0.997249 -90.17 0.073906 -22.34
8.98400000 0.073939 22.034 0.997248 -90.18 0.997248 -90.18 0.073914 -22.39
8.98410000 0.073947 22.072 0.997248 -90.18 0.997248 -90.18 0.073923 -22.44
8.98420000 0.073956 22.110 0.997247 -90.19 0.997247 -90.19 0.073932 -22.48
8.98430000 0.073965 22.148 0.997246 -90.19 0.997246 -90.19 0.073940 -22.53
8.98440000 0.073974 22.187 0.997246 -90.20 0.997246 -90.20 0.073949 -22.58
8.98450000 0.073983 22.225 0.997245 -90.20 0.997245 -90.20 0.073958 -22.62
8.98460000 0.073992 22.264 0.997244 -90.20 0.997244 -90.20 0.073967 -22.67
8.98470000 0.074001 22.303 0.997244 -90.21 0.997244 -90.21 0.073976 -22.72
8.98480000 0.074010 22.342 0.997243 -90.21 0.997243 -90.21 0.073985 -22.77
8.98490000 0.074019 22.380 0.997242 -90.22 0.997242 -90.22 0.073994 -22.81
8.98500000 0.074028 22.419 0.997241 -90.22 0.997241 -90.22 0.074003 -22.86
8.98510000 0.074038 22.459 0.997241 -90.23 0.997241 -90.23 0.074013 -22.91
8.98520000 0.074047 22.498 0.997240 -90.23 0.997240 -90.23 0.074022 -22.96
8.98530000 0.074057 22.537 0.997239 -90.23 0.997239 -90.23 0.074031 -23.00
8.98540000 0.074066 22.577 0.997238 -90.24 0.997238 -90.24 0.074041 -23.05
8.98550000 0.074076 22.616 0.997238 -90.24 0.997238 -90.24 0.074050 -23.10
8.98560000 0.074085 22.656 0.997237 -90.25 0.997237 -90.25 0.074060 -23.15
8.98570000 0.074095 22.695 0.997236 -90.25 0.997236 -90.25 0.074070 -23.20
8.98580000 0.074105 22.735 0.997235 -90.26 0.997235 -90.26 0.074079 -23.25
8.98590000 0.074115 22.775 0.997235 -90.26 0.997235 -90.26 0.074089 -23.30
8.98600000 0.074125 22.815 0.997234 -90.26 0.997234 -90.26 0.074099 -23.34
8.98610000 0.074135 22.855 0.997233 -90.27 0.997233 -90.27 0.074109 -23.39
8.98620000 0.074145 22.895 0.997232 -90.27 0.997232 -90.27 0.074119 -23.44
8.98630000 0.074155 22.936 0.997232 -90.28 0.997232 -90.28 0.074129 -23.49
8.98640000 0.074165 22.976 0.997231 -90.28 0.997231 -90.28 0.074139 -23.54
8.98650000 0.074175 23.017 0.997230 -90.29 0.997230 -90.29 0.074149 -23.59
8.98660000 0.074185 23.057 0.997229 -90.29 0.997229 -90.29 0.074159 -23.64
8.98670000 0.074196 23.098 0.997228 -90.30 0.997228 -90.30 0.074170 -23.69
8.98680000 0.074206 23.139 0.997228 -90.30 0.997228 -90.30 0.074180 -23.74
8.98690000 0.074217 23.180 0.997227 -90.30 0.997227 -90.30 0.074191 -23.79
8.98700000 0.074227 23.221 0.997226 -90.31 0.997226 -90.31 0.074201 -23.84
8.98710000 0.074238 23.262 0.997225 -90.31 0.997225 -90.31 0.074212 -23.89
8.98720000 0.074249 23.303 0.997224 -90.32 0.997224 -90.32 0.074222 -23.94
8.98730000 0.074260 23.345 0.997223 -90.32 0.997223 -90.32 0.074233 -23.99
8.98740000 0.074271 23.386 0.997223 -90.33 0.997223 -90.33 0.074244 -24.04
8.98750000 0.074282 23.428 0.997222 -90.33 0.997222 -90.33 0.074255 -24.09
8.98760000 0.074293 23.470 0.997221 -90.34 0.997221 -90.34 0.074266 -24.14
8.98770000 0.074304 23.511 0.997220 -90.34 0.997220 -90.34 0.074277 -24.19
8.98780000 0.074315 23.553 0.997219 -90.35 0.997219 -90.35 0.074288 -24.24
8.98790000 0.074326 23.595 0.997218 -90.35 0.997218 -90.35 0.074299 -24.30
8.98800000 0.074338 23.637 0.997217 -90.35 0.997217 -90.35 0.074311 -24.35
8.98810000 0.074349 23.680 0.997217 -90.36 0.997217 -90.36 0.074322 -24.40
8.98820000 0.074360 23.722 0.997216 -90.36 0.997216 -90.36 0.074333 -24.45
8.98830000 0.074372 23.764 0.997215 -90.37 0.997215 -90.37 0.074345 -24.50
8.98840000 0.074384 23.807 0.997214 -90.37 0.997214 -90.37 0.074356 -24.55
8.98850000 0.074395 23.850 0.997213 -90.38 0.997213 -90.38 0.074368 -24.61
8.98860000 0.074407 23.892 0.997212 -90.38 0.997212 -90.38 0.074380 -24.66
8.98870000 0.074419 23.935 0.997211 -90.39 0.997211 -90.39 0.074392 -24.71
8.98880000 0.074431 23.978 0.997210 -90.39 0.997210 -90.39 0.074404 -24.76
8.98890000 0.074443 24.021 0.997209 -90.40 0.997209 -90.40 0.074416 -24.82
8.98900000 0.074455 24.065 0.997208 -90.40 0.997208 -90.40 0.074428 -24.87
8.98910000 0.074468 24.108 0.997207 -90.41 0.997207 -90.41 0.074440 -24.92
8.98920000 0.074480 24.151 0.997206 -90.41 0.997206 -90.41 0.074452 -24.97
8.98930000 0.074492 24.195 0.997205 -90.42 0.997205 -90.42 0.074464 -25.03
8.98940000 0.074505 24.239 0.997204 -90.42 0.997204 -90.42 0.074477 -25.08
8.98950000 0.074517 24.283 0.997203 -90.43 0.997203 -90.43 0.074489 -25.13
8.98960000 0.074530 24.326 0.997203 -90.43 0.997203 -90.43 0.074502 -25.19
8.98970000 0.074543 24.370 0.997202 -90.43 0.997202 -90.43 0.074514 -25.24
8.98980000 0.074556 24.415 0.997201 -90.44 0.997201 -90.44 0.074527 -25.29
8.98990000 0.074568 24.459 0.997200 -90.44 0.997200 -90.44 0.074540 -25.35
8.99000000 0.074581 24.503 0.997199 -90.45 0.997199 -90.45 0.074553 -25.40
8.99010000 0.074594 24.548 0.997198 -90.45 0.997198 -90.45 0.074566 -25.46
8.99020000 0.074608 24.592 0.997196 -90.46 0.997196 -90.46 0.074579 -25.51
8.99030000 0.074621 24.637 0.997195 -90.46 0.997195 -90.46 0.074592 -25.57
8.99040000 0.074634 24.682 0.997194 -90.47 0.997194 -90.47 0.074605 -25.62
8.99050000 0.074648 24.727 0.997193 -90.47 0.997193 -90.47 0.074619 -25.67
8.99060000 0.074661 24.772 0.997192 -90.48 0.997192 -90.48 0.074632 -25.73
8.99070000 0.074675 24.817 0.997191 -90.48 0.997191 -90.48 0.074646 -25.78
8.99080000 0.074689 24.862 0.997190 -90.49 0.997190 -90.49 0.074659 -25.84
8.99090000 0.074702 24.908 0.997189 -90.49 0.997189 -90.49 0.074673 -25.89
8.99100000 0.074716 24.953 0.997188 -90.50 0.997188 -90.50 0.074687 -25.95
8.99110000 0.074730 24.999 0.997187 -90.50 0.997187 -90.50 0.074701 -26.01
8.99120000 0.074744 25.045 0.997186 -90.51 0.997186 -90.51 0.074715 -26.06
8.99130000 0.074759 25.091 0.997185 -90.51 0.997185 -90.51 0.074729 -26.12
8.99140000 0.074773 25.137 0.997184 -90.52 0.997184 -90.52 0.074743 -26.17
8.99150000 0.074787 25.183 0.997183 -90.52 0.997183 -90.52 0.074757 -26.23
8.99160000 0.074802 25.229 0.997181 -90.53 0.997181 -90.53 0.074772 -26.29
8.99170000 0.074816 25.276 0.997180 -90.53 0.997180 -90.53 0.074786 -26.34
8.99180000 0.074831 25.322 0.997179 -90.54 0.997179 -90.54 0.074801 -26.40
8.99190000 0.074846 25.369 0.997178 -90.54 0.997178 -90.54 0.074816 -26.46
8.99200000 0.074861 25.416 0.997177 -90.55 0.997177 -90.55 0.074830 -26.51
8.99210000 0.074876 25.463 0.997176 -90.55 0.997176 -90.55 0.074845 -26.57
8.99220000 0.074891 25.510 0.997174 -90.56 0.997174 -90.56 0.074860 -26.63
8.99230000 0.074906 25.557 0.997173 -90.56 0.997173 -90.56 0.074875 -26.68
8.99240000 0.074921 25.604 0.997172 -90.57 0.997172 -90.57 0.074891 -26.74
8.99250000 0.074936 25.651 0.997171 -90.57 0.997171 -90.57 0.074906 -26.80
8.99260000 0.074952 25.699 0.997170 -90.58 0.997170 -90.58 0.074921 -26.86
8.99270000 0.074968 25.747 0.997169 -90.58 0.997169 -90.58 0.074937 -26.91
8.99280000 0.074983 25.794 0.997167 -90.59 0.997167 -90.59 0.074952 -26.97
8.99290000 0.074999 25.842 0.997166 -90.59 0.997166 -90.59 0.074968 -27.03
8.99300000 0.075015 25.890 0.997165 -90.60 0.997165 -90.60 0.074984 -27.09
8.99310000 0.075031 25.938 0.997164 -90.60 0.997164 -90.60 0.075000 -27.15
8.99320000 0.075047 25.987 0.997162 -90.61 0.997162 -90.61 0.075016 -27.21
8.99330000 0.075063 26.035 0.997161 -90.61 0.997161 -90.61 0.075032 -27.27
8.99340000 0.075080 26.084 0.997160 -90.62 0.997160 -90.62 0.075048 -27.32
8.99350000 0.075096 26.132 0.997158 -90.62 0.997158 -90.62 0.075065 -27.38
8.99360000 0.075113 26.181 0.997157 -90.63 0.997157 -90.63 0.075081 -27.44
8.99370000 0.075129 26.230 0.997156 -90.64 0.997156 -90.64 0.075098 -27.50
8.99380000 0.075146 26.279 0.997155 -90.64 0.997155 -90.64 0.075115 -27.56
8.99390000 0.075163 26.328 0.997153 -90.65 0.997153 -90.65 0.075131 -27.62
8.99400000 0.075180 26.378 0.997152 -90.65 0.997152 -90.65 0.075148 -27.68
8.99410000 0.075197 26.427 0.997151 -90.66 0.997151 -90.66 0.075165 -27.74
8.99420000 0.075215 26.477 0.997149 -90.66 0.997149 -90.66 0.075183 -27.80
8.99430000 0.075232 26.526 0.997148 -90.67 0.997148 -90.67 0.075200 -27.86
8.99440000 0.075250 26.576 0.997147 -90.67 0.997147 -90.67 0.075217 -27.92
8.99450000 0.075267 26.626 0.997145 -90.68 0.997145 -90.68 0.075235 -27.98
8.99460000 0.075285 26.676 0.997144 -90.68 0.997144 -90.68 0.075252 -28.04
8.99470000 0.075303 26.727 0.997142 -90.69 0.997142 -90.69 0.075270 -28.11
8.99480000 0.075321 26.777 0.997141 -90.69 0.997141 -90.69 0.075288 -28.17
8.99490000 0.075339 26.828 0.997140 -90.70 0.997140 -90.70 0.075306 -28.23
8.99500000 0.075357 26.878 0.997138 -90.70 0.997138 -90.70 0.075324 -28.29
8.99510000 0.075375 26.929 0.997137 -90.71 0.997137 -90.71 0.075343 -28.35
8.99520000 0.075394 26.980 0.997135 -90.72 0.997135 -90.72 0.075361 -28.41
8.99530000 0.075412 27.031 0.997134 -90.72 0.997134 -90.72 0.075379 -28.48
8.99540000 0.075431 27.082 0.997132 -90.73 0.997132 -90.73 0.075398 -28.54
8.99550000 0.075450 27.134 0.997131 -90.73 0.997131 -90.73 0.075417 -28.60
8.99560000 0.075469 27.185 0.997129 -90.74 0.997129 -90.74 0.075436 -28.66
8.99570000 0.075488 27.237 0.997128 -90.74 0.997128 -90.74 0.075455 -28.73
8.99580000 0.075507 27.289 0.997126 -90.75 0.997126 -90.75 0.075474 -28.79
8.99590000 0.075527 27.341 0.997125 -90.75 0.997125 -90.75 0.075493 -28.85
8.99600000 0.075546 27.393 0.997123 -90.76 0.997123 -90.76 0.075513 -28.91
8.99610000 0.075566 27.445 0.997122 -90.77 0.997122 -90.77 0.075532 -28.98
8.99620000 0.075586 27.497 0.997120 -90.77 0.997120 -90.77 0.075552 -29.04
8.99630000 0.075606 27.550 0.997119 -90.78 0.997119 -90.78 0.075572 -29.11
8.99640000 0.075626 27.602 0.997117 -90.78 0.997117 -90.78 0.075592 -29.17
8.99650000 0.075646 27.655 0.997116 -90.79 0.997116 -90.79 0.075612 -29.23
8.99660000 0.075666 27.708 0.997114 -90.79 0.997114 -90.79 0.075632 -29.30
8.99670000 0.075687 27.761 0.997112 -90.80 0.997112 -90.80 0.075652 -29.36
8.99680000 0.075707 27.814 0.997111 -90.80 0.997111 -90.80 0.075673 -29.43
8.99690000 0.075728 27.867 0.997109 -90.81 0.997109 -90.81 0.075693 -29.49
8.99700000 0.075749 27.921 0.997107 -90.82 0.997107 -90.82 0.075714 -29.56
8.99710000 0.075770 27.974 0.997106 -90.82 0.997106 -90.82 0.075735 -29.62
8.99720000 0.075791 28.028 0.997104 -90.83 0.997104 -90.83 0.075756 -29.69
8.99730000 0.075813 28.082 0.997103 -90.83 0.997103 -90.83 0.075777 -29.75
8.99740000 0.075834 28.136 0.997101 -90.84 0.997101 -90.84 0.075799 -29.82
8.99750000 0.075856 28.190 0.997099 -90.84 0.997099 -90.84 0.075820 -29.88
8.99760000 0.075877 28.245 0.997097 -90.85 0.997097 -90.85 0.075842 -29.95
8.99770000 0.075899 28.299 0.997096 -90.86 0.997096 -90.86 0.075864 -30.02
8.99780000 0.075921 28.354 0.997094 -90.86 0.997094 -90.86 0.075886 -30.08
8.99790000 0.075944 28.409 0.997092 -90.87 0.997092 -90.87 0.075908 -30.15
8.99800000 0.075966 28.464 0.997090 -90.87 0.997090 -90.87 0.075930 -30.22
8.99810000 0.075988 28.519 0.997089 -90.88 0.997089 -90.88 0.075953 -30.28
8.99820000 0.076011 28.574 0.997087 -90.89 0.997087 -90.89 0.075975 -30.35
8.99830000 0.076034 28.629 0.997085 -90.89 0.997085 -90.89 0.075998 -30.42
8.99840000 0.076057 28.685 0.997083 -90.90 0.997083 -90.90 0.076021 -30.48
8.99850000 0.076080 28.741 0.997081 -90.90 0.997081 -90.90 0.076044 -30.55
8.99860000 0.076103 28.797 0.997080 -90.91 0.997080 -90.91 0.076067 -30.62
8.99870000 0.076127 28.853 0.997078 -90.92 0.997078 -90.92 0.076090 -30.69
8.99880000 0.076151 28.909 0.997076 -90.92 0.997076 -90.92 0.076114 -30.76
8.99890000 0.076174 28.965 0.997074 -90.93 0.997074 -90.93 0.076138 -30.82
8.99900000 0.076198 29.021 0.997072 -90.93 0.997072 -90.93 0.076161 -30.89
8.99910000 0.076222 29.078 0.997070 -90.94 0.997070 -90.94 0.076185 -30.96
8.99920000 0.076247 29.135 0.997068 -90.95 0.997068 -90.95 0.076210 -31.03
8.99930000 0.076271 29.192 0.997066 -90.95 0.997066 -90.95 0.076234 -31.10
8.99940000 0.076296 29.249 0.997064 -90.96 0.997064 -90.96 0.076259 -31.17
8.99950000 0.076321 29.306 0.997063 -90.96 0.997063 -90.96 0.076283 -31.24
8.99960000 0.076346 29.363 0.997061 -90.97 0.997061 -90.97 0.076308 -31.31
8.99970000 0.076371 29.421 0.997059 -90.98 0.997059 -90.98 0.076333 -31.38
8.99980000 0.076396 29.479 0.997057 -90.98 0.997057 -90.98 0.076358 -31.45
8.99990000 0.076422 29.537 0.997055 -90.99 0.997055 -90.99 0.076384 -31.52
9.00000000 0.076447 29.595 0.997053 -90.99 0.997053 -90.99 0.076409 -31.59
9.00010000 0.076473 29.653 0.997051 -91.00 0.997051 -91.00 0.076435 -31.66
!< P1 F=9.0001 Eeff=(6.44500907 -2.971e-5) Z0=(50.6182245 1.16782e-4) R=0.0 C=0.0 
!< P2 F=9.0001 Eeff=(6.44500907 -2.971e-5) Z0=(50.6182245 1.16782e-4) R=0.0 C=0.0 
9.00020000 0.076499 29.711 0.997048 -91.01 0.997048 -91.01 0.076461 -31.73
9.00030000 0.076525 29.770 0.997046 -91.01 0.997046 -91.01 0.076487 -31.80
9.00040000 0.076552 29.828 0.997044 -91.02 0.997044 -91.02 0.076513 -31.87
9.00050000 0.076578 29.887 0.997042 -91.03 0.997042 -91.03 0.076540 -31.94
9.00060000 0.076605 29.946 0.997040 -91.03 0.997040 -91.03 0.076566 -32.02
9.00070000 0.076632 30.005 0.997038 -91.04 0.997038 -91.04 0.076593 -32.09
9.00080000 0.076659 30.065 0.997036 -91.04 0.997036 -91.04 0.076620 -32.16
9.00090000 0.076686 30.124 0.997034 -91.05 0.997034 -91.05 0.076647 -32.23
9.00100000 0.076714 30.184 0.997031 -91.06 0.997031 -91.06 0.076675 -32.30
9.00110000 0.076742 30.244 0.997029 -91.06 0.997029 -91.06 0.076702 -32.38
9.00120000 0.076770 30.303 0.997027 -91.07 0.997027 -91.07 0.076730 -32.45
9.00130000 0.076798 30.364 0.997025 -91.08 0.997025 -91.08 0.076758 -32.52
9.00140000 0.076826 30.424 0.997023 -91.08 0.997023 -91.08 0.076786 -32.60
9.00150000 0.076854 30.484 0.997020 -91.09 0.997020 -91.09 0.076815 -32.67
9.00160000 0.076883 30.545 0.997018 -91.10 0.997018 -91.10 0.076843 -32.74
9.00170000 0.076912 30.606 0.997016 -91.10 0.997016 -91.10 0.076872 -32.82
9.00180000 0.076941 30.667 0.997013 -91.11 0.997013 -91.11 0.076901 -32.89
9.00190000 0.076970 30.728 0.997011 -91.12 0.997011 -91.12 0.076930 -32.97
9.00200000 0.077000 30.789 0.997009 -91.12 0.997009 -91.12 0.076959 -33.04
9.00210000 0.077029 30.851 0.997006 -91.13 0.997006 -91.13 0.076989 -33.11
9.00220000 0.077059 30.912 0.997004 -91.14 0.997004 -91.14 0.077019 -33.19
9.00230000 0.077089 30.974 0.997002 -91.14 0.997002 -91.14 0.077049 -33.26
9.00240000 0.077120 31.036 0.996999 -91.15 0.996999 -91.15 0.077079 -33.34
9.00250000 0.077150 31.098 0.996997 -91.16 0.996997 -91.16 0.077109 -33.42
9.00260000 0.077181 31.160 0.996994 -91.16 0.996994 -91.16 0.077140 -33.49
9.00270000 0.077212 31.223 0.996992 -91.17 0.996992 -91.17 0.077171 -33.57
9.00280000 0.077243 31.286 0.996989 -91.18 0.996989 -91.18 0.077202 -33.64
9.00290000 0.077275 31.348 0.996987 -91.18 0.996987 -91.18 0.077233 -33.72
9.00300000 0.077306 31.411 0.996984 -91.19 0.996984 -91.19 0.077265 -33.80
9.00310000 0.077338 31.474 0.996982 -91.20 0.996982 -91.20 0.077296 -33.87
9.00320000 0.077370 31.538 0.996979 -91.20 0.996979 -91.20 0.077328 -33.95
9.00330000 0.077402 31.601 0.996977 -91.21 0.996977 -91.21 0.077360 -34.03
9.00340000 0.077435 31.665 0.996974 -91.22 0.996974 -91.22 0.077393 -34.10
9.00350000 0.077468 31.729 0.996972 -91.22 0.996972 -91.22 0.077425 -34.18
9.00360000 0.077501 31.793 0.996969 -91.23 0.996969 -91.23 0.077458 -34.26
9.00370000 0.077534 31.857 0.996966 -91.24 0.996966 -91.24 0.077491 -34.34
9.00380000 0.077567 31.922 0.996964 -91.24 0.996964 -91.24 0.077525 -34.42
9.00390000 0.077601 31.986 0.996961 -91.25 0.996961 -91.25 0.077558 -34.49
9.00400000 0.077635 32.051 0.996958 -91.26 0.996958 -91.26 0.077592 -34.57
9.00410000 0.077669 32.116 0.996955 -91.26 0.996955 -91.26 0.077626 -34.65
9.00420000 0.077703 32.181 0.996953 -91.27 0.996953 -91.27 0.077660 -34.73
9.00430000 0.077738 32.246 0.996950 -91.28 0.996950 -91.28 0.077695 -34.81
9.00440000 0.077773 32.312 0.996947 -91.29 0.996947 -91.29 0.077729 -34.89
9.00450000 0.077808 32.377 0.996944 -91.29 0.996944 -91.29 0.077764 -34.97
9.00460000 0.077843 32.443 0.996941 -91.30 0.996941 -91.30 0.077800 -35.05
9.00470000 0.077879 32.509 0.996939 -91.31 0.996939 -91.31 0.077835 -35.13
9.00480000 0.077915 32.575 0.996936 -91.31 0.996936 -91.31 0.077871 -35.21
9.00490000 0.077951 32.642 0.996933 -91.32 0.996933 -91.32 0.077907 -35.29
9.00500000 0.077987 32.708 0.996930 -91.33 0.996930 -91.33 0.077943 -35.37
9.00510000 0.078024 32.775 0.996927 -91.34 0.996927 -91.34 0.077980 -35.45
9.00520000 0.078061 32.842 0.996924 -91.34 0.996924 -91.34 0.078016 -35.54
9.00530000 0.078098 32.909 0.996921 -91.35 0.996921 -91.35 0.078053 -35.62
9.00540000 0.078136 32.976 0.996918 -91.36 0.996918 -91.36 0.078091 -35.70
9.00550000 0.078173 33.044 0.996915 -91.36 0.996915 -91.36 0.078128 -35.78
9.00560000 0.078211 33.111 0.996912 -91.37 0.996912 -91.37 0.078166 -35.86
9.00570000 0.078249 33.179 0.996909 -91.38 0.996909 -91.38 0.078204 -35.95
9.00580000 0.078288 33.247 0.996906 -91.39 0.996906 -91.39 0.078243 -36.03
9.00590000 0.078327 33.315 0.996903 -91.39 0.996903 -91.39 0.078281 -36.11
9.00600000 0.078366 33.384 0.996899 -91.40 0.996899 -91.40 0.078320 -36.20
9.00610000 0.078405 33.452 0.996896 -91.41 0.996896 -91.41 0.078359 -36.28
9.00620000 0.078445 33.521 0.996893 -91.42 0.996893 -91.42 0.078399 -36.36
9.00630000 0.078485 33.590 0.996890 -91.42 0.996890 -91.42 0.078438 -36.45
9.00640000 0.078525 33.659 0.996887 -91.43 0.996887 -91.43 0.078478 -36.53
9.00650000 0.078565 33.728 0.996883 -91.44 0.996883 -91.44 0.078519 -36.62
9.00660000 0.078606 33.798 0.996880 -91.45 0.996880 -91.45 0.078559 -36.70
9.00670000 0.078647 33.868 0.996877 -91.45 0.996877 -91.45 0.078600 -36.79
9.00680000 0.078689 33.938 0.996873 -91.46 0.996873 -91.46 0.078642 -36.87
9.00690000 0.078730 34.008 0.996870 -91.47 0.996870 -91.47 0.078683 -36.96
9.00700000 0.078772 34.078 0.996867 -91.48 0.996867 -91.48 0.078725 -37.04
9.00710000 0.078814 34.149 0.996863 -91.48 0.996863 -91.48 0.078767 -37.13
9.00720000 0.078857 34.219 0.996860 -91.49 0.996860 -91.49 0.078809 -37.21
9.00730000 0.078900 34.290 0.996856 -91.50 0.996856 -91.50 0.078852 -37.30
9.00740000 0.078943 34.361 0.996853 -91.51 0.996853 -91.51 0.078895 -37.39
9.00750000 0.078986 34.432 0.996849 -91.52 0.996849 -91.52 0.078938 -37.47
9.00760000 0.079030 34.504 0.996846 -91.52 0.996846 -91.52 0.078982 -37.56
9.00770000 0.079074 34.575 0.996842 -91.53 0.996842 -91.53 0.079026 -37.65
9.00780000 0.079119 34.647 0.996838 -91.54 0.996838 -91.54 0.079070 -37.74
9.00790000 0.079163 34.719 0.996835 -91.55 0.996835 -91.55 0.079115 -37.82
9.00800000 0.079208 34.792 0.996831 -91.56 0.996831 -91.56 0.079160 -37.91
9.00810000 0.079254 34.864 0.996827 -91.56 0.996827 -91.56 0.079205 -38.00
9.00820000 0.079300 34.937 0.996824 -91.57 0.996824 -91.57 0.079250 -38.09
9.00830000 0.079346 35.009 0.996820 -91.58 0.996820 -91.58 0.079296 -38.18
9.00840000 0.079392 35.083 0.996816 -91.59 0.996816 -91.59 0.079342 -38.27
9.00850000 0.079439 35.156 0.996812 -91.60 0.996812 -91.60 0.079389 -38.36
9.00860000 0.079486 35.229 0.996809 -91.60 0.996809 -91.60 0.079436 -38.45
9.00870000 0.079533 35.303 0.996805 -91.61 0.996805 -91.61 0.079483 -38.54
9.00880000 0.079581 35.377 0.996801 -91.62 0.996801 -91.62 0.079531 -38.63
9.00890000 0.079629 35.451 0.996797 -91.63 0.996797 -91.63 0.079579 -38.72
9.00900000 0.079677 35.525 0.996793 -91.64 0.996793 -91.64 0.079627 -38.81
9.00910000 0.079726 35.599 0.996789 -91.64 0.996789 -91.64 0.079675 -38.90
9.00920000 0.079775 35.674 0.996785 -91.65 0.996785 -91.65 0.079724 -38.99
9.00930000 0.079825 35.749 0.996781 -91.66 0.996781 -91.66 0.079774 -39.08
9.00940000 0.079875 35.824 0.996777 -91.67 0.996777 -91.67 0.079823 -39.17
9.00950000 0.079925 35.899 0.996773 -91.68 0.996773 -91.68 0.079873 -39.27
9.00960000 0.079975 35.974 0.996768 -91.69 0.996768 -91.69 0.079924 -39.36
9.00970000 0.080026 36.050 0.996764 -91.69 0.996764 -91.69 0.079975 -39.45
9.00980000 0.080078 36.126 0.996760 -91.70 0.996760 -91.70 0.080026 -39.54
9.00990000 0.080129 36.202 0.996756 -91.71 0.996756 -91.71 0.080077 -39.64
9.01000000 0.080181 36.278 0.996751 -91.72 0.996751 -91.72 0.080129 -39.73
9.01010000 0.080234 36.355 0.996747 -91.73 0.996747 -91.73 0.080182 -39.82
9.01020000 0.080287 36.431 0.996743 -91.74 0.996743 -91.74 0.080234 -39.92
9.01030000 0.080340 36.508 0.996738 -91.75 0.996738 -91.75 0.080287 -40.01
9.01040000 0.080394 36.585 0.996734 -91.75 0.996734 -91.75 0.080341 -40.11
9.01050000 0.080448 36.663 0.996729 -91.76 0.996729 -91.76 0.080394 -40.20
9.01060000 0.080502 36.740 0.996725 -91.77 0.996725 -91.77 0.080449 -40.30
9.01070000 0.080557 36.818 0.996720 -91.78 0.996720 -91.78 0.080503 -40.39
9.01080000 0.080612 36.896 0.996716 -91.79 0.996716 -91.79 0.080558 -40.49
9.01090000 0.080668 36.974 0.996711 -91.80 0.996711 -91.80 0.080614 -40.58
9.01100000 0.080724 37.052 0.996707 -91.81 0.996707 -91.81 0.080670 -40.68
9.01110000 0.080780 37.131 0.996702 -91.81 0.996702 -91.81 0.080726 -40.77
9.01120000 0.080837 37.210 0.996697 -91.82 0.996697 -91.82 0.080783 -40.87
9.01130000 0.080894 37.289 0.996692 -91.83 0.996692 -91.83 0.080840 -40.97
9.01140000 0.080952 37.368 0.996688 -91.84 0.996688 -91.84 0.080897 -41.07
9.01150000 0.081010 37.447 0.996683 -91.85 0.996683 -91.85 0.080955 -41.16
9.01160000 0.081069 37.527 0.996678 -91.86 0.996678 -91.86 0.081014 -41.26
9.01170000 0.081128 37.607 0.996673 -91.87 0.996673 -91.87 0.081072 -41.36
9.01180000 0.081187 37.687 0.996668 -91.88 0.996668 -91.88 0.081132 -41.46
9.01190000 0.081247 37.767 0.996663 -91.89 0.996663 -91.89 0.081191 -41.56
9.01200000 0.081307 37.847 0.996658 -91.90 0.996658 -91.90 0.081251 -41.65
9.01210000 0.081368 37.928 0.996653 -91.90 0.996653 -91.90 0.081312 -41.75
9.01220000 0.081429 38.009 0.996648 -91.91 0.996648 -91.91 0.081373 -41.85
9.01230000 0.081491 38.090 0.996643 -91.92 0.996643 -91.92 0.081434 -41.95
9.01240000 0.081553 38.172 0.996637 -91.93 0.996637 -91.93 0.081496 -42.05
9.01250000 0.081616 38.253 0.996632 -91.94 0.996632 -91.94 0.081559 -42.15
9.01260000 0.081679 38.335 0.996627 -91.95 0.996627 -91.95 0.081622 -42.25
9.01270000 0.081742 38.417 0.996622 -91.96 0.996622 -91.96 0.081685 -42.35
9.01280000 0.081806 38.499 0.996616 -91.97 0.996616 -91.97 0.081749 -42.46
9.01290000 0.081871 38.581 0.996611 -91.98 0.996611 -91.98 0.081813 -42.56
9.01300000 0.081936 38.664 0.996605 -91.99 0.996605 -91.99 0.081878 -42.66
9.01310000 0.082001 38.747 0.996600 -92.00 0.996600 -92.00 0.081943 -42.76
9.01320000 0.082067 38.830 0.996594 -92.01 0.996594 -92.01 0.082009 -42.86
9.01330000 0.082134 38.913 0.996589 -92.02 0.996589 -92.02 0.082075 -42.97
9.01340000 0.082201 38.997 0.996583 -92.03 0.996583 -92.03 0.082142 -43.07
9.01350000 0.082268 39.080 0.996577 -92.04 0.996577 -92.04 0.082209 -43.17
9.01360000 0.082336 39.164 0.996572 -92.05 0.996572 -92.05 0.082277 -43.28
9.01370000 0.082404 39.249 0.996566 -92.06 0.996566 -92.06 0.082345 -43.38
9.01380000 0.082473 39.333 0.996560 -92.07 0.996560 -92.07 0.082414 -43.48
9.01390000 0.082543 39.418 0.996554 -92.08 0.996554 -92.08 0.082483 -43.59
9.01400000 0.082613 39.502 0.996548 -92.09 0.996548 -92.09 0.082553 -43.69
9.01410000 0.082683 39.587 0.996542 -92.10 0.996542 -92.10 0.082623 -43.80
9.01420000 0.082754 39.673 0.996536 -92.11 0.996536 -92.11 0.082694 -43.90
9.01430000 0.082826 39.758 0.996530 -92.12 0.996530 -92.12 0.082765 -44.01
9.01440000 0.082898 39.844 0.996524 -92.13 0.996524 -92.13 0.082837 -44.11
9.01450000 0.082971 39.930 0.996518 -92.14 0.996518 -92.14 0.082910 -44.22
9.01460000 0.083044 40.016 0.996512 -92.15 0.996512 -92.15 0.082983 -44.33
9.01470000 0.083118 40.102 0.996505 -92.16 0.996505 -92.16 0.083057 -44.43
9.01480000 0.083192 40.189 0.996499 -92.17 0.996499 -92.17 0.083131 -44.54
9.01490000 0.083267 40.276 0.996493 -92.18 0.996493 -92.18 0.083205 -44.65
9.01500000 0.083343 40.363 0.996486 -92.19 0.996486 -92.19 0.083281 -44.76
9.01510000 0.083419 40.450 0.996480 -92.20 0.996480 -92.20 0.083357 -44.86
9.01520000 0.083496 40.538 0.996473 -92.21 0.996473 -92.21 0.083433 -44.97
9.01530000 0.083573 40.625 0.996466 -92.22 0.996466 -92.22 0.083510 -45.08
9.01540000 0.083651 40.713 0.996460 -92.23 0.996460 -92.23 0.083588 -45.19
9.01550000 0.083729 40.801 0.996453 -92.24 0.996453 -92.24 0.083666 -45.30
9.01560000 0.083808 40.890 0.996446 -92.25 0.996446 -92.25 0.083745 -45.41
9.01570000 0.083888 40.978 0.996439 -92.26 0.996439 -92.26 0.083824 -45.52
9.01580000 0.083968 41.067 0.996432 -92.27 0.996432 -92.27 0.083904 -45.63
9.01590000 0.084049 41.156 0.996425 -92.28 0.996425 -92.28 0.083985 -45.74
9.01600000 0.084130 41.246 0.996418 -92.29 0.996418 -92.29 0.084066 -45.85
9.01610000 0.084212 41.335 0.996411 -92.30 0.996411 -92.30 0.084148 -45.96
9.01620000 0.084295 41.425 0.996404 -92.31 0.996404 -92.31 0.084230 -46.07
9.01630000 0.084379 41.515 0.996397 -92.32 0.996397 -92.32 0.084314 -46.18
9.01640000 0.084463 41.605 0.996390 -92.34 0.996390 -92.34 0.084397 -46.30
9.01650000 0.084547 41.695 0.996382 -92.35 0.996382 -92.35 0.084482 -46.41
9.01660000 0.084633 41.786 0.996375 -92.36 0.996375 -92.36 0.084567 -46.52
9.01670000 0.084719 41.877 0.996367 -92.37 0.996367 -92.37 0.084653 -46.63
9.01680000 0.084805 41.968 0.996360 -92.38 0.996360 -92.38 0.084739 -46.75
9.01690000 0.084893 42.059 0.996352 -92.39 0.996352 -92.39 0.084826 -46.86
9.01700000 0.084981 42.151 0.996345 -92.40 0.996345 -92.40 0.084914 -46.98
9.01710000 0.085069 42.243 0.996337 -92.41 0.996337 -92.41 0.085002 -47.09
9.01720000 0.085159 42.335 0.996329 -92.42 0.996329 -92.42 0.085091 -47.21
9.01730000 0.085249 42.427 0.996321 -92.43 0.996321 -92.43 0.085181 -47.32
9.01740000 0.085339 42.519 0.996313 -92.45 0.996313 -92.45 0.085272 -47.44
9.01750000 0.085431 42.612 0.996305 -92.46 0.996305 -92.46 0.085363 -47.55
9.01760000 0.085523 42.705 0.996297 -92.47 0.996297 -92.47 0.085455 -47.67
9.01770000 0.085616 42.798 0.996289 -92.48 0.996289 -92.48 0.085547 -47.78
9.01780000 0.085710 42.892 0.996281 -92.49 0.996281 -92.49 0.085641 -47.90
9.01790000 0.085804 42.985 0.996273 -92.50 0.996273 -92.50 0.085735 -48.02
9.01800000 0.085899 43.079 0.996264 -92.52 0.996264 -92.52 0.085830 -48.13
9.01810000 0.085995 43.173 0.996256 -92.53 0.996256 -92.53 0.085925 -48.25
9.01820000 0.086091 43.267 0.996247 -92.54 0.996247 -92.54 0.086022 -48.37
9.01830000 0.086189 43.362 0.996239 -92.55 0.996239 -92.55 0.086119 -48.49
9.01840000 0.086287 43.457 0.996230 -92.56 0.996230 -92.56 0.086217 -48.61
9.01850000 0.086386 43.552 0.996221 -92.57 0.996221 -92.57 0.086315 -48.73
9.01860000 0.086485 43.647 0.996212 -92.59 0.996212 -92.59 0.086415 -48.85
9.01870000 0.086586 43.742 0.996204 -92.60 0.996204 -92.60 0.086515 -48.96
9.01880000 0.086687 43.838 0.996195 -92.61 0.996195 -92.61 0.086616 -49.08
9.01890000 0.086789 43.934 0.996186 -92.62 0.996186 -92.62 0.086718 -49.21
9.01900000 0.086892 44.030 0.996176 -92.63 0.996176 -92.63 0.086820 -49.33