! Sonnet Data File
! From: emgraph Version : 16.52
! From Project: Resonator2_cp_cp
! Data is De-embedded 
! Data File Written: 10/06/2017 09:20:31
!< HDATE 10/05/2017 21:11:40
!< MDATE 10/05/2017 21:11:40
!< PARAMS
!< gap = 36.0
!< Length = 400.0
!< Pwid1 = 2000.0
!< Pwid2 = 2000.0
!< END PARAMS
# GHZ S MA R 51.80000
8.80000000 3.203e-4 1.0746 0.999997 -80.51 0.999997 -80.51 3.210e-4 18.697
!< P1 F=8.8 Eeff=(6.44679989 -2.9721e-5) Z0=(51.7992624 1.19519e-4) R=0.0 C=0.0 
!< P2 F=8.8 Eeff=(6.44679989 -2.9721e-5) Z0=(51.7992624 1.19519e-4) R=0.0 C=0.0 
8.80020000 3.206e-4 1.0660 0.999997 -80.51 0.999997 -80.51 3.213e-4 18.702
8.80040000 3.208e-4 1.0569 0.999997 -80.52 0.999997 -80.52 3.215e-4 18.706
8.80060000 3.211e-4 1.0477 0.999997 -80.52 0.999997 -80.52 3.218e-4 18.711
8.80080000 3.213e-4 1.0385 0.999997 -80.52 0.999997 -80.52 3.221e-4 18.716
8.80100000 3.216e-4 1.0293 0.999997 -80.52 0.999997 -80.52 3.223e-4 18.721
8.80120000 3.219e-4 1.0201 0.999997 -80.52 0.999997 -80.52 3.226e-4 18.726
8.80140000 3.221e-4 1.0109 0.999997 -80.52 0.999997 -80.52 3.228e-4 18.731
8.80160000 3.224e-4 1.0016 0.999997 -80.53 0.999997 -80.53 3.231e-4 18.735
8.80180000 3.226e-4 0.9924 0.999997 -80.53 0.999997 -80.53 3.233e-4 18.740
8.80200000 3.229e-4 0.9831 0.999997 -80.53 0.999997 -80.53 3.236e-4 18.745
8.80220000 3.232e-4 0.9738 0.999997 -80.53 0.999997 -80.53 3.239e-4 18.750
8.80240000 3.234e-4 0.9645 0.999997 -80.53 0.999997 -80.53 3.241e-4 18.755
8.80260000 3.237e-4 0.9551 0.999997 -80.54 0.999997 -80.54 3.244e-4 18.760
8.80280000 3.239e-4 0.9458 0.999997 -80.54 0.999997 -80.54 3.247e-4 18.765
8.80300000 3.242e-4 0.9364 0.999997 -80.54 0.999997 -80.54 3.249e-4 18.770
8.80320000 3.245e-4 0.9270 0.999997 -80.54 0.999997 -80.54 3.252e-4 18.775
8.80340000 3.247e-4 0.9176 0.999997 -80.54 0.999997 -80.54 3.255e-4 18.780
8.80360000 3.250e-4 0.9081 0.999997 -80.54 0.999997 -80.54 3.257e-4 18.785
8.80380000 3.253e-4 0.8987 0.999997 -80.55 0.999997 -80.55 3.260e-4 18.790
8.80400000 3.256e-4 0.8892 0.999997 -80.55 0.999997 -80.55 3.263e-4 18.795
8.80420000 3.258e-4 0.8797 0.999997 -80.55 0.999997 -80.55 3.265e-4 18.800
8.80440000 3.261e-4 0.8702 0.999997 -80.55 0.999997 -80.55 3.268e-4 18.805
8.80460000 3.264e-4 0.8606 0.999997 -80.55 0.999997 -80.55 3.271e-4 18.810
8.80480000 3.266e-4 0.8511 0.999997 -80.56 0.999997 -80.56 3.274e-4 18.816
8.80500000 3.269e-4 0.8415 0.999997 -80.56 0.999997 -80.56 3.276e-4 18.821
8.80520000 3.272e-4 0.8319 0.999997 -80.56 0.999997 -80.56 3.279e-4 18.826
8.80540000 3.275e-4 0.8223 0.999997 -80.56 0.999997 -80.56 3.282e-4 18.831
8.80560000 3.277e-4 0.8127 0.999997 -80.56 0.999997 -80.56 3.285e-4 18.836
8.80580000 3.280e-4 0.8030 0.999997 -80.56 0.999997 -80.56 3.288e-4 18.842
8.80600000 3.283e-4 0.7934 0.999997 -80.57 0.999997 -80.57 3.290e-4 18.847
8.80620000 3.286e-4 0.7837 0.999997 -80.57 0.999997 -80.57 3.293e-4 18.852
8.80640000 3.289e-4 0.7740 0.999997 -80.57 0.999997 -80.57 3.296e-4 18.857
8.80660000 3.292e-4 0.7643 0.999997 -80.57 0.999997 -80.57 3.299e-4 18.863
8.80680000 3.294e-4 0.7545 0.999997 -80.57 0.999997 -80.57 3.302e-4 18.868
8.80700000 3.297e-4 0.7447 0.999997 -80.58 0.999997 -80.58 3.305e-4 18.873
8.80720000 3.300e-4 0.7349 0.999997 -80.58 0.999997 -80.58 3.307e-4 18.879
8.80740000 3.303e-4 0.7251 0.999997 -80.58 0.999997 -80.58 3.310e-4 18.884
8.80760000 3.306e-4 0.7153 0.999997 -80.58 0.999997 -80.58 3.313e-4 18.890
8.80780000 3.309e-4 0.7055 0.999997 -80.58 0.999997 -80.58 3.316e-4 18.895
8.80800000 3.312e-4 0.6956 0.999997 -80.59 0.999997 -80.59 3.319e-4 18.900
8.80820000 3.315e-4 0.6857 0.999997 -80.59 0.999997 -80.59 3.322e-4 18.906
8.80840000 3.317e-4 0.6758 0.999997 -80.59 0.999997 -80.59 3.325e-4 18.911
8.80860000 3.320e-4 0.6659 0.999997 -80.59 0.999997 -80.59 3.328e-4 18.917
8.80880000 3.323e-4 0.6559 0.999997 -80.59 0.999997 -80.59 3.331e-4 18.922
8.80900000 3.326e-4 0.6459 0.999997 -80.59 0.999997 -80.59 3.334e-4 18.928
8.80920000 3.329e-4 0.6359 0.999997 -80.60 0.999997 -80.60 3.337e-4 18.933
8.80940000 3.332e-4 0.6259 0.999997 -80.60 0.999997 -80.60 3.340e-4 18.939
8.80960000 3.335e-4 0.6159 0.999997 -80.60 0.999997 -80.60 3.343e-4 18.945
8.80980000 3.338e-4 0.6058 0.999997 -80.60 0.999997 -80.60 3.346e-4 18.950
8.81000000 3.341e-4 0.5958 0.999997 -80.60 0.999997 -80.60 3.349e-4 18.956
8.81020000 3.344e-4 0.5857 0.999997 -80.61 0.999997 -80.61 3.352e-4 18.961
8.81040000 3.347e-4 0.5756 0.999997 -80.61 0.999997 -80.61 3.355e-4 18.967
8.81060000 3.350e-4 0.5654 0.999997 -80.61 0.999997 -80.61 3.358e-4 18.973
8.81080000 3.354e-4 0.5553 0.999997 -80.61 0.999997 -80.61 3.361e-4 18.979
8.81100000 3.357e-4 0.5451 0.999997 -80.61 0.999997 -80.61 3.364e-4 18.984
8.81120000 3.360e-4 0.5349 0.999997 -80.61 0.999997 -80.61 3.367e-4 18.990
8.81140000 3.363e-4 0.5246 0.999997 -80.62 0.999997 -80.62 3.370e-4 18.996
8.81160000 3.366e-4 0.5144 0.999997 -80.62 0.999997 -80.62 3.373e-4 19.002
8.81180000 3.369e-4 0.5041 0.999997 -80.62 0.999997 -80.62 3.377e-4 19.007
8.81200000 3.372e-4 0.4938 0.999997 -80.62 0.999997 -80.62 3.380e-4 19.013
8.81220000 3.375e-4 0.4835 0.999997 -80.62 0.999997 -80.62 3.383e-4 19.019
8.81240000 3.378e-4 0.4732 0.999997 -80.63 0.999997 -80.63 3.386e-4 19.025
8.81260000 3.382e-4 0.4628 0.999997 -80.63 0.999997 -80.63 3.389e-4 19.031
8.81280000 3.385e-4 0.4525 0.999997 -80.63 0.999997 -80.63 3.392e-4 19.037
8.81300000 3.388e-4 0.4421 0.999997 -80.63 0.999997 -80.63 3.396e-4 19.043
8.81320000 3.391e-4 0.4317 0.999997 -80.63 0.999997 -80.63 3.399e-4 19.049
8.81340000 3.395e-4 0.4212 0.999997 -80.64 0.999997 -80.64 3.402e-4 19.055
8.81360000 3.398e-4 0.4107 0.999997 -80.64 0.999997 -80.64 3.405e-4 19.061
8.81380000 3.401e-4 0.4003 0.999997 -80.64 0.999997 -80.64 3.409e-4 19.067
8.81400000 3.404e-4 0.3897 0.999997 -80.64 0.999997 -80.64 3.412e-4 19.073
8.81420000 3.408e-4 0.3792 0.999997 -80.64 0.999997 -80.64 3.415e-4 19.079
8.81440000 3.411e-4 0.3687 0.999997 -80.64 0.999997 -80.64 3.418e-4 19.085
8.81460000 3.414e-4 0.3581 0.999997 -80.65 0.999997 -80.65 3.422e-4 19.091
8.81480000 3.417e-4 0.3475 0.999997 -80.65 0.999997 -80.65 3.425e-4 19.097
8.81500000 3.421e-4 0.3369 0.999997 -80.65 0.999997 -80.65 3.428e-4 19.103
8.81520000 3.424e-4 0.3262 0.999997 -80.65 0.999997 -80.65 3.432e-4 19.109
8.81540000 3.428e-4 0.3155 0.999997 -80.65 0.999997 -80.65 3.435e-4 19.115
8.81560000 3.431e-4 0.3048 0.999997 -80.66 0.999997 -80.66 3.439e-4 19.122
8.81580000 3.434e-4 0.2941 0.999997 -80.66 0.999997 -80.66 3.442e-4 19.128
8.81600000 3.438e-4 0.2834 0.999997 -80.66 0.999997 -80.66 3.445e-4 19.134
8.81620000 3.441e-4 0.2726 0.999997 -80.66 0.999997 -80.66 3.449e-4 19.140
8.81640000 3.445e-4 0.2618 0.999997 -80.66 0.999997 -80.66 3.452e-4 19.147
8.81660000 3.448e-4 0.2510 0.999997 -80.66 0.999997 -80.66 3.456e-4 19.153
8.81680000 3.451e-4 0.2402 0.999997 -80.67 0.999997 -80.67 3.459e-4 19.159
8.81700000 3.455e-4 0.2293 0.999997 -80.67 0.999997 -80.67 3.463e-4 19.165
8.81720000 3.458e-4 0.2185 0.999997 -80.67 0.999997 -80.67 3.466e-4 19.172
8.81740000 3.462e-4 0.2076 0.999997 -80.67 0.999997 -80.67 3.470e-4 19.178
8.81760000 3.465e-4 0.1966 0.999997 -80.67 0.999997 -80.67 3.473e-4 19.185
8.81780000 3.469e-4 0.1857 0.999997 -80.68 0.999997 -80.68 3.477e-4 19.191
8.81800000 3.473e-4 0.1747 0.999997 -80.68 0.999997 -80.68 3.480e-4 19.198
8.81820000 3.476e-4 0.1637 0.999997 -80.68 0.999997 -80.68 3.484e-4 19.204
8.81840000 3.480e-4 0.1527 0.999997 -80.68 0.999997 -80.68 3.488e-4 19.210
8.81860000 3.483e-4 0.1416 0.999997 -80.68 0.999997 -80.68 3.491e-4 19.217
8.81880000 3.487e-4 0.1306 0.999997 -80.68 0.999997 -80.68 3.495e-4 19.224
8.81900000 3.491e-4 0.1195 0.999997 -80.69 0.999997 -80.69 3.498e-4 19.230
8.81920000 3.494e-4 0.1084 0.999997 -80.69 0.999997 -80.69 3.502e-4 19.237
8.81940000 3.498e-4 0.0972 0.999997 -80.69 0.999997 -80.69 3.506e-4 19.243
8.81960000 3.502e-4 0.0860 0.999997 -80.69 0.999997 -80.69 3.509e-4 19.250
8.81980000 3.505e-4 0.0748 0.999997 -80.69 0.999997 -80.69 3.513e-4 19.257
8.82000000 3.509e-4 0.0636 0.999997 -80.70 0.999997 -80.70 3.517e-4 19.263
8.82020000 3.513e-4 0.0524 0.999997 -80.70 0.999997 -80.70 3.521e-4 19.270
8.82040000 3.516e-4 0.0411 0.999997 -80.70 0.999997 -80.70 3.524e-4 19.277
8.82060000 3.520e-4 0.0298 0.999997 -80.70 0.999997 -80.70 3.528e-4 19.283
8.82080000 3.524e-4 0.0185 0.999997 -80.70 0.999997 -80.70 3.532e-4 19.290
8.82100000 3.528e-4 0.0071 0.999997 -80.71 0.999997 -80.71 3.536e-4 19.297
8.82120000 3.532e-4 0.0000 0.999997 -80.71 0.999997 -80.71 3.540e-4 19.304
8.82140000 3.535e-4 -0.016 0.999997 -80.71 0.999997 -80.71 3.543e-4 19.311
8.82160000 3.539e-4 -0.027 0.999997 -80.71 0.999997 -80.71 3.547e-4 19.317
8.82180000 3.543e-4 -0.038 0.999997 -80.71 0.999997 -80.71 3.551e-4 19.324
8.82200000 3.547e-4 -0.050 0.999997 -80.71 0.999997 -80.71 3.555e-4 19.331
8.82220000 3.551e-4 -0.061 0.999997 -80.72 0.999997 -80.72 3.559e-4 19.338
8.82240000 3.555e-4 -0.073 0.999997 -80.72 0.999997 -80.72 3.563e-4 19.345
8.82260000 3.559e-4 -0.085 0.999997 -80.72 0.999997 -80.72 3.567e-4 19.352
8.82280000 3.563e-4 -0.096 0.999997 -80.72 0.999997 -80.72 3.571e-4 19.359
8.82300000 3.567e-4 -0.108 0.999997 -80.72 0.999997 -80.72 3.575e-4 19.366
8.82320000 3.571e-4 -0.119 0.999997 -80.73 0.999997 -80.73 3.579e-4 19.373
8.82340000 3.575e-4 -0.131 0.999997 -80.73 0.999997 -80.73 3.583e-4 19.380
8.82360000 3.579e-4 -0.143 0.999997 -80.73 0.999997 -80.73 3.587e-4 19.387
8.82380000 3.583e-4 -0.154 0.999997 -80.73 0.999997 -80.73 3.591e-4 19.395
8.82400000 3.587e-4 -0.166 0.999997 -80.73 0.999997 -80.73 3.595e-4 19.402
8.82420000 3.591e-4 -0.178 0.999997 -80.73 0.999997 -80.73 3.599e-4 19.409
8.82440000 3.595e-4 -0.190 0.999997 -80.74 0.999997 -80.74 3.603e-4 19.416
8.82460000 3.599e-4 -0.202 0.999997 -80.74 0.999997 -80.74 3.607e-4 19.423
8.82480000 3.603e-4 -0.213 0.999997 -80.74 0.999997 -80.74 3.611e-4 19.430
8.82500000 3.608e-4 -0.225 0.999997 -80.74 0.999997 -80.74 3.616e-4 19.438
8.82520000 3.612e-4 -0.237 0.999997 -80.74 0.999997 -80.74 3.620e-4 19.445
8.82540000 3.616e-4 -0.249 0.999997 -80.75 0.999997 -80.75 3.624e-4 19.452
8.82560000 3.620e-4 -0.261 0.999997 -80.75 0.999997 -80.75 3.628e-4 19.460
8.82580000 3.624e-4 -0.273 0.999997 -80.75 0.999997 -80.75 3.633e-4 19.467
8.82600000 3.629e-4 -0.285 0.999997 -80.75 0.999997 -80.75 3.637e-4 19.474
8.82620000 3.633e-4 -0.297 0.999997 -80.75 0.999997 -80.75 3.641e-4 19.482
8.82640000 3.637e-4 -0.309 0.999997 -80.76 0.999997 -80.76 3.645e-4 19.489
8.82660000 3.642e-4 -0.321 0.999997 -80.76 0.999997 -80.76 3.650e-4 19.497
8.82680000 3.646e-4 -0.333 0.999997 -80.76 0.999997 -80.76 3.654e-4 19.504
8.82700000 3.650e-4 -0.345 0.999997 -80.76 0.999997 -80.76 3.658e-4 19.512
8.82720000 3.655e-4 -0.358 0.999997 -80.76 0.999997 -80.76 3.663e-4 19.519
8.82740000 3.659e-4 -0.370 0.999997 -80.76 0.999997 -80.76 3.667e-4 19.527
8.82760000 3.664e-4 -0.382 0.999997 -80.77 0.999997 -80.77 3.672e-4 19.535
8.82780000 3.668e-4 -0.394 0.999997 -80.77 0.999997 -80.77 3.676e-4 19.542
8.82800000 3.672e-4 -0.407 0.999997 -80.77 0.999997 -80.77 3.681e-4 19.550
8.82820000 3.677e-4 -0.419 0.999997 -80.77 0.999997 -80.77 3.685e-4 19.557
8.82840000 3.682e-4 -0.431 0.999997 -80.77 0.999997 -80.77 3.690e-4 19.565
8.82860000 3.686e-4 -0.444 0.999997 -80.78 0.999997 -80.78 3.694e-4 19.573
8.82880000 3.691e-4 -0.456 0.999997 -80.78 0.999997 -80.78 3.699e-4 19.581
8.82900000 3.695e-4 -0.469 0.999997 -80.78 0.999997 -80.78 3.703e-4 19.588
8.82920000 3.700e-4 -0.481 0.999997 -80.78 0.999997 -80.78 3.708e-4 19.596
8.82940000 3.704e-4 -0.493 0.999997 -80.78 0.999997 -80.78 3.713e-4 19.604
8.82960000 3.709e-4 -0.506 0.999997 -80.78 0.999997 -80.78 3.717e-4 19.612
8.82980000 3.714e-4 -0.519 0.999997 -80.79 0.999997 -80.79 3.722e-4 19.620
8.83000000 3.719e-4 -0.531 0.999997 -80.79 0.999997 -80.79 3.727e-4 19.628
8.83020000 3.723e-4 -0.544 0.999997 -80.79 0.999997 -80.79 3.732e-4 19.636
8.83040000 3.728e-4 -0.556 0.999997 -80.79 0.999997 -80.79 3.736e-4 19.644
8.83060000 3.733e-4 -0.569 0.999997 -80.79 0.999997 -80.79 3.741e-4 19.652
8.83080000 3.738e-4 -0.582 0.999997 -80.80 0.999997 -80.80 3.746e-4 19.660
8.83100000 3.742e-4 -0.595 0.999997 -80.80 0.999997 -80.80 3.751e-4 19.668
8.83120000 3.747e-4 -0.607 0.999997 -80.80 0.999997 -80.80 3.756e-4 19.676
8.83140000 3.752e-4 -0.620 0.999997 -80.80 0.999997 -80.80 3.761e-4 19.684
8.83160000 3.757e-4 -0.633 0.999997 -80.80 0.999997 -80.80 3.765e-4 19.692
8.83180000 3.762e-4 -0.646 0.999997 -80.81 0.999997 -80.81 3.770e-4 19.700
8.83200000 3.767e-4 -0.659 0.999997 -80.81 0.999997 -80.81 3.775e-4 19.708
8.83220000 3.772e-4 -0.672 0.999997 -80.81 0.999997 -80.81 3.780e-4 19.717
8.83240000 3.777e-4 -0.685 0.999997 -80.81 0.999997 -80.81 3.785e-4 19.725
8.83260000 3.782e-4 -0.698 0.999997 -80.81 0.999997 -80.81 3.790e-4 19.733
8.83280000 3.787e-4 -0.711 0.999997 -80.81 0.999997 -80.81 3.796e-4 19.741
8.83300000 3.792e-4 -0.724 0.999997 -80.82 0.999997 -80.82 3.801e-4 19.750
8.83320000 3.797e-4 -0.737 0.999997 -80.82 0.999997 -80.82 3.806e-4 19.758
8.83340000 3.802e-4 -0.750 0.999997 -80.82 0.999997 -80.82 3.811e-4 19.766
8.83360000 3.808e-4 -0.763 0.999997 -80.82 0.999997 -80.82 3.816e-4 19.775
8.83380000 3.813e-4 -0.776 0.999997 -80.82 0.999997 -80.82 3.821e-4 19.783
8.83400000 3.818e-4 -0.789 0.999997 -80.83 0.999997 -80.83 3.827e-4 19.792
8.83420000 3.823e-4 -0.803 0.999997 -80.83 0.999997 -80.83 3.832e-4 19.800
8.83440000 3.829e-4 -0.816 0.999997 -80.83 0.999997 -80.83 3.837e-4 19.809
8.83460000 3.834e-4 -0.829 0.999997 -80.83 0.999997 -80.83 3.842e-4 19.817
8.83480000 3.839e-4 -0.842 0.999997 -80.83 0.999997 -80.83 3.848e-4 19.826
8.83500000 3.845e-4 -0.856 0.999997 -80.84 0.999997 -80.84 3.853e-4 19.835
8.83520000 3.850e-4 -0.869 0.999997 -80.84 0.999997 -80.84 3.859e-4 19.843
8.83540000 3.856e-4 -0.883 0.999997 -80.84 0.999997 -80.84 3.864e-4 19.852
8.83560000 3.861e-4 -0.896 0.999997 -80.84 0.999997 -80.84 3.870e-4 19.861
8.83580000 3.866e-4 -0.910 0.999997 -80.84 0.999997 -80.84 3.875e-4 19.869
8.83600000 3.872e-4 -0.923 0.999997 -80.84 0.999997 -80.84 3.881e-4 19.878
8.83620000 3.878e-4 -0.937 0.999997 -80.85 0.999997 -80.85 3.886e-4 19.887
8.83640000 3.883e-4 -0.950 0.999997 -80.85 0.999997 -80.85 3.892e-4 19.896
8.83660000 3.889e-4 -0.964 0.999997 -80.85 0.999997 -80.85 3.897e-4 19.905
8.83680000 3.894e-4 -0.978 0.999997 -80.85 0.999997 -80.85 3.903e-4 19.914
8.83700000 3.900e-4 -0.991 0.999997 -80.85 0.999997 -80.85 3.909e-4 19.923
8.83720000 3.906e-4 -1.005 0.999997 -80.86 0.999997 -80.86 3.915e-4 19.931
8.83740000 3.912e-4 -1.019 0.999997 -80.86 0.999997 -80.86 3.920e-4 19.940
8.83760000 3.917e-4 -1.033 0.999997 -80.86 0.999997 -80.86 3.926e-4 19.949
8.83780000 3.923e-4 -1.046 0.999997 -80.86 0.999997 -80.86 3.932e-4 19.959
8.83800000 3.929e-4 -1.060 0.999997 -80.86 0.999997 -80.86 3.938e-4 19.968
8.83820000 3.935e-4 -1.074 0.999997 -80.86 0.999997 -80.86 3.944e-4 19.977
8.83840000 3.941e-4 -1.088 0.999997 -80.87 0.999997 -80.87 3.950e-4 19.986
8.83860000 3.947e-4 -1.102 0.999997 -80.87 0.999997 -80.87 3.956e-4 19.995
8.83880000 3.953e-4 -1.116 0.999997 -80.87 0.999997 -80.87 3.962e-4 20.004
8.83900000 3.959e-4 -1.130 0.999997 -80.87 0.999997 -80.87 3.968e-4 20.013
8.83920000 3.965e-4 -1.144 0.999997 -80.87 0.999997 -80.87 3.974e-4 20.023
8.83940000 3.971e-4 -1.158 0.999997 -80.88 0.999997 -80.88 3.980e-4 20.032
8.83960000 3.977e-4 -1.173 0.999997 -80.88 0.999997 -80.88 3.986e-4 20.041
8.83980000 3.983e-4 -1.187 0.999997 -80.88 0.999997 -80.88 3.992e-4 20.051
8.84000000 3.989e-4 -1.201 0.999997 -80.88 0.999997 -80.88 3.998e-4 20.060
8.84020000 3.996e-4 -1.215 0.999997 -80.88 0.999997 -80.88 4.005e-4 20.070
8.84040000 4.002e-4 -1.230 0.999997 -80.89 0.999997 -80.89 4.011e-4 20.079
8.84060000 4.008e-4 -1.244 0.999997 -80.89 0.999997 -80.89 4.017e-4 20.088
8.84080000 4.015e-4 -1.258 0.999997 -80.89 0.999997 -80.89 4.024e-4 20.098
8.84100000 4.021e-4 -1.273 0.999997 -80.89 0.999997 -80.89 4.030e-4 20.108
8.84120000 4.027e-4 -1.287 0.999997 -80.89 0.999997 -80.89 4.036e-4 20.117
8.84140000 4.034e-4 -1.302 0.999997 -80.89 0.999997 -80.89 4.043e-4 20.127
8.84160000 4.040e-4 -1.316 0.999997 -80.90 0.999997 -80.90 4.049e-4 20.136
8.84180000 4.047e-4 -1.331 0.999997 -80.90 0.999997 -80.90 4.056e-4 20.146
8.84200000 4.054e-4 -1.345 0.999997 -80.90 0.999997 -80.90 4.063e-4 20.156
8.84220000 4.060e-4 -1.360 0.999997 -80.90 0.999997 -80.90 4.069e-4 20.166
8.84240000 4.067e-4 -1.375 0.999997 -80.90 0.999997 -80.90 4.076e-4 20.175
8.84260000 4.074e-4 -1.389 0.999997 -80.91 0.999997 -80.91 4.083e-4 20.185
8.84280000 4.080e-4 -1.404 0.999997 -80.91 0.999997 -80.91 4.089e-4 20.195
8.84300000 4.087e-4 -1.419 0.999997 -80.91 0.999997 -80.91 4.096e-4 20.205
8.84320000 4.094e-4 -1.434 0.999997 -80.91 0.999997 -80.91 4.103e-4 20.215
8.84340000 4.101e-4 -1.449 0.999997 -80.91 0.999997 -80.91 4.110e-4 20.225
8.84360000 4.108e-4 -1.464 0.999997 -80.92 0.999997 -80.92 4.117e-4 20.235
8.84380000 4.115e-4 -1.479 0.999997 -80.92 0.999997 -80.92 4.124e-4 20.245
8.84400000 4.122e-4 -1.494 0.999997 -80.92 0.999997 -80.92 4.131e-4 20.255
8.84420000 4.129e-4 -1.509 0.999997 -80.92 0.999997 -80.92 4.138e-4 20.265
8.84440000 4.136e-4 -1.524 0.999997 -80.92 0.999997 -80.92 4.145e-4 20.275
8.84460000 4.143e-4 -1.539 0.999997 -80.92 0.999997 -80.92 4.152e-4 20.285
8.84480000 4.150e-4 -1.554 0.999997 -80.93 0.999997 -80.93 4.159e-4 20.296
8.84500000 4.158e-4 -1.569 0.999997 -80.93 0.999997 -80.93 4.167e-4 20.306
8.84520000 4.165e-4 -1.584 0.999997 -80.93 0.999997 -80.93 4.174e-4 20.316
8.84540000 4.172e-4 -1.600 0.999997 -80.93 0.999997 -80.93 4.181e-4 20.327
8.84560000 4.180e-4 -1.615 0.999997 -80.93 0.999997 -80.93 4.189e-4 20.337
8.84580000 4.187e-4 -1.630 0.999997 -80.94 0.999997 -80.94 4.196e-4 20.347
8.84600000 4.194e-4 -1.646 0.999997 -80.94 0.999997 -80.94 4.204e-4 20.358
8.84620000 4.202e-4 -1.661 0.999997 -80.94 0.999997 -80.94 4.211e-4 20.368
8.84640000 4.210e-4 -1.677 0.999997 -80.94 0.999997 -80.94 4.219e-4 20.379
8.84660000 4.217e-4 -1.692 0.999997 -80.94 0.999997 -80.94 4.226e-4 20.389
8.84680000 4.225e-4 -1.708 0.999997 -80.95 0.999997 -80.95 4.234e-4 20.400
8.84700000 4.233e-4 -1.723 0.999997 -80.95 0.999997 -80.95 4.242e-4 20.410
8.84720000 4.240e-4 -1.739 0.999997 -80.95 0.999997 -80.95 4.250e-4 20.421
8.84740000 4.248e-4 -1.755 0.999997 -80.95 0.999997 -80.95 4.257e-4 20.432
8.84760000 4.256e-4 -1.770 0.999997 -80.95 0.999997 -80.95 4.265e-4 20.442
8.84780000 4.264e-4 -1.786 0.999997 -80.95 0.999997 -80.95 4.273e-4 20.453
8.84800000 4.272e-4 -1.802 0.999997 -80.96 0.999997 -80.96 4.281e-4 20.464
8.84820000 4.280e-4 -1.818 0.999997 -80.96 0.999997 -80.96 4.289e-4 20.475
8.84840000 4.288e-4 -1.834 0.999997 -80.96 0.999997 -80.96 4.298e-4 20.486
8.84860000 4.296e-4 -1.850 0.999997 -80.96 0.999997 -80.96 4.306e-4 20.497
8.84880000 4.305e-4 -1.866 0.999997 -80.96 0.999997 -80.96 4.314e-4 20.508
8.84900000 4.313e-4 -1.882 0.999997 -80.97 0.999997 -80.97 4.322e-4 20.519
8.84920000 4.321e-4 -1.898 0.999997 -80.97 0.999997 -80.97 4.331e-4 20.530
8.84940000 4.330e-4 -1.914 0.999997 -80.97 0.999997 -80.97 4.339e-4 20.541
8.84960000 4.338e-4 -1.930 0.999997 -80.97 0.999997 -80.97 4.347e-4 20.552
8.84980000 4.347e-4 -1.946 0.999997 -80.97 0.999997 -80.97 4.356e-4 20.563
8.85000000 4.355e-4 -1.962 0.999997 -80.98 0.999997 -80.98 4.365e-4 20.574
8.85020000 4.364e-4 -1.979 0.999997 -80.98 0.999997 -80.98 4.373e-4 20.585
8.85040000 4.373e-4 -1.995 0.999997 -80.98 0.999997 -80.98 4.382e-4 20.597
8.85060000 4.381e-4 -2.011 0.999997 -80.98 0.999997 -80.98 4.391e-4 20.608
8.85080000 4.390e-4 -2.028 0.999997 -80.98 0.999997 -80.98 4.400e-4 20.619
8.85100000 4.399e-4 -2.044 0.999997 -80.98 0.999997 -80.98 4.408e-4 20.631
8.85120000 4.408e-4 -2.061 0.999997 -80.99 0.999997 -80.99 4.417e-4 20.642
8.85140000 4.417e-4 -2.077 0.999997 -80.99 0.999997 -80.99 4.426e-4 20.654
8.85160000 4.426e-4 -2.094 0.999997 -80.99 0.999997 -80.99 4.435e-4 20.665
8.85180000 4.435e-4 -2.111 0.999997 -80.99 0.999997 -80.99 4.445e-4 20.677
8.85200000 4.444e-4 -2.127 0.999997 -80.99 0.999997 -80.99 4.454e-4 20.688
8.85220000 4.454e-4 -2.144 0.999997 -81.00 0.999997 -81.00 4.463e-4 20.700
8.85240000 4.463e-4 -2.161 0.999997 -81.00 0.999997 -81.00 4.472e-4 20.712
8.85260000 4.472e-4 -2.178 0.999997 -81.00 0.999997 -81.00 4.482e-4 20.723
8.85280000 4.482e-4 -2.195 0.999997 -81.00 0.999997 -81.00 4.491e-4 20.735
8.85300000 4.491e-4 -2.212 0.999997 -81.00 0.999997 -81.00 4.501e-4 20.747
8.85320000 4.501e-4 -2.229 0.999997 -81.01 0.999997 -81.01 4.511e-4 20.759
8.85340000 4.511e-4 -2.246 0.999997 -81.01 0.999997 -81.01 4.520e-4 20.771
8.85360000 4.521e-4 -2.263 0.999997 -81.01 0.999997 -81.01 4.530e-4 20.783
8.85380000 4.530e-4 -2.280 0.999997 -81.01 0.999997 -81.01 4.540e-4 20.794
8.85400000 4.540e-4 -2.297 0.999997 -81.01 0.999997 -81.01 4.550e-4 20.806
8.85420000 4.550e-4 -2.314 0.999997 -81.01 0.999997 -81.01 4.560e-4 20.819
8.85440000 4.560e-4 -2.332 0.999997 -81.02 0.999997 -81.02 4.570e-4 20.831
8.85460000 4.570e-4 -2.349 0.999997 -81.02 0.999997 -81.02 4.580e-4 20.843
8.85480000 4.581e-4 -2.366 0.999996 -81.02 0.999996 -81.02 4.590e-4 20.855
8.85500000 4.591e-4 -2.384 0.999996 -81.02 0.999996 -81.02 4.601e-4 20.867
8.85520000 4.601e-4 -2.401 0.999996 -81.02 0.999996 -81.02 4.611e-4 20.879
8.85540000 4.612e-4 -2.419 0.999996 -81.03 0.999996 -81.03 4.622e-4 20.892
8.85560000 4.622e-4 -2.436 0.999996 -81.03 0.999996 -81.03 4.632e-4 20.904
8.85580000 4.633e-4 -2.454 0.999996 -81.03 0.999996 -81.03 4.643e-4 20.917
8.85600000 4.644e-4 -2.472 0.999996 -81.03 0.999996 -81.03 4.654e-4 20.929
8.85620000 4.655e-4 -2.489 0.999996 -81.03 0.999996 -81.03 4.664e-4 20.942
8.85640000 4.665e-4 -2.507 0.999996 -81.04 0.999996 -81.04 4.675e-4 20.954
8.85660000 4.676e-4 -2.525 0.999996 -81.04 0.999996 -81.04 4.686e-4 20.967
8.85680000 4.688e-4 -2.543 0.999996 -81.04 0.999996 -81.04 4.697e-4 20.979
8.85700000 4.699e-4 -2.561 0.999996 -81.04 0.999996 -81.04 4.709e-4 20.992
8.85720000 4.710e-4 -2.579 0.999996 -81.04 0.999996 -81.04 4.720e-4 21.005
8.85740000 4.721e-4 -2.597 0.999996 -81.04 0.999996 -81.04 4.731e-4 21.017
8.85760000 4.733e-4 -2.615 0.999996 -81.05 0.999996 -81.05 4.743e-4 21.030
8.85780000 4.744e-4 -2.633 0.999996 -81.05 0.999996 -81.05 4.754e-4 21.043
8.85800000 4.756e-4 -2.651 0.999996 -81.05 0.999996 -81.05 4.766e-4 21.056
8.85820000 4.768e-4 -2.670 0.999996 -81.05 0.999996 -81.05 4.777e-4 21.069
8.85840000 4.779e-4 -2.688 0.999996 -81.05 0.999996 -81.05 4.789e-4 21.082
8.85860000 4.791e-4 -2.706 0.999996 -81.06 0.999996 -81.06 4.801e-4 21.095
8.85880000 4.803e-4 -2.725 0.999996 -81.06 0.999996 -81.06 4.813e-4 21.108
8.85900000 4.815e-4 -2.743 0.999996 -81.06 0.999996 -81.06 4.825e-4 21.121
8.85920000 4.828e-4 -2.762 0.999996 -81.06 0.999996 -81.06 4.838e-4 21.134
8.85940000 4.840e-4 -2.780 0.999996 -81.06 0.999996 -81.06 4.850e-4 21.148
8.85960000 4.852e-4 -2.799 0.999996 -81.07 0.999996 -81.07 4.862e-4 21.161
8.85980000 4.865e-4 -2.818 0.999996 -81.07 0.999996 -81.07 4.875e-4 21.174
8.86000000 4.877e-4 -2.836 0.999996 -81.07 0.999996 -81.07 4.888e-4 21.188
8.86020000 4.890e-4 -2.855 0.999996 -81.07 0.999996 -81.07 4.900e-4 21.201
8.86040000 4.903e-4 -2.874 0.999996 -81.07 0.999996 -81.07 4.913e-4 21.215
8.86060000 4.916e-4 -2.893 0.999996 -81.08 0.999996 -81.08 4.926e-4 21.228
8.86080000 4.929e-4 -2.912 0.999996 -81.08 0.999996 -81.08 4.939e-4 21.242
8.86100000 4.942e-4 -2.931 0.999996 -81.08 0.999996 -81.08 4.952e-4 21.255
8.86120000 4.956e-4 -2.950 0.999996 -81.08 0.999996 -81.08 4.966e-4 21.269
8.86140000 4.969e-4 -2.969 0.999996 -81.08 0.999996 -81.08 4.979e-4 21.283
8.86160000 4.983e-4 -2.989 0.999996 -81.08 0.999996 -81.08 4.993e-4 21.297
8.86180000 4.996e-4 -3.008 0.999996 -81.09 0.999996 -81.09 5.006e-4 21.310
8.86200000 5.010e-4 -3.027 0.999996 -81.09 0.999996 -81.09 5.020e-4 21.324
8.86220000 5.024e-4 -3.047 0.999996 -81.09 0.999996 -81.09 5.034e-4 21.338
8.86240000 5.038e-4 -3.066 0.999996 -81.09 0.999996 -81.09 5.048e-4 21.352
8.86260000 5.052e-4 -3.086 0.999996 -81.09 0.999996 -81.09 5.062e-4 21.366
8.86280000 5.066e-4 -3.105 0.999996 -81.10 0.999996 -81.10 5.077e-4 21.380
8.86300000 5.081e-4 -3.125 0.999996 -81.10 0.999996 -81.10 5.091e-4 21.394
8.86320000 5.095e-4 -3.144 0.999996 -81.10 0.999996 -81.10 5.106e-4 21.409
8.86340000 5.110e-4 -3.164 0.999996 -81.10 0.999996 -81.10 5.120e-4 21.423
8.86360000 5.125e-4 -3.184 0.999996 -81.10 0.999996 -81.10 5.135e-4 21.437
8.86380000 5.140e-4 -3.204 0.999996 -81.11 0.999996 -81.11 5.150e-4 21.452
8.86400000 5.155e-4 -3.224 0.999996 -81.11 0.999996 -81.11 5.165e-4 21.466
8.86420000 5.170e-4 -3.244 0.999996 -81.11 0.999996 -81.11 5.181e-4 21.480
8.86440000 5.186e-4 -3.264 0.999996 -81.11 0.999996 -81.11 5.196e-4 21.495
8.86460000 5.201e-4 -3.284 0.999996 -81.11 0.999996 -81.11 5.212e-4 21.509
8.86480000 5.217e-4 -3.304 0.999996 -81.12 0.999996 -81.12 5.227e-4 21.524
8.86500000 5.233e-4 -3.324 0.999996 -81.12 0.999996 -81.12 5.243e-4 21.539
8.86520000 5.249e-4 -3.345 0.999996 -81.12 0.999996 -81.12 5.259e-4 21.553
8.86540000 5.265e-4 -3.365 0.999996 -81.12 0.999996 -81.12 5.275e-4 21.568
8.86560000 5.281e-4 -3.386 0.999996 -81.12 0.999996 -81.12 5.292e-4 21.583
8.86580000 5.298e-4 -3.406 0.999996 -81.13 0.999996 -81.13 5.308e-4 21.598
8.86600000 5.314e-4 -3.427 0.999996 -81.13 0.999996 -81.13 5.325e-4 21.613
8.86620000 5.331e-4 -3.447 0.999996 -81.13 0.999996 -81.13 5.342e-4 21.628
8.86640000 5.348e-4 -3.468 0.999996 -81.13 0.999996 -81.13 5.359e-4 21.643
8.86660000 5.365e-4 -3.489 0.999996 -81.13 0.999996 -81.13 5.376e-4 21.658
8.86680000 5.383e-4 -3.510 0.999996 -81.13 0.999996 -81.13 5.393e-4 21.673
8.86700000 5.400e-4 -3.530 0.999996 -81.14 0.999996 -81.14 5.411e-4 21.688
8.86720000 5.418e-4 -3.551 0.999996 -81.14 0.999996 -81.14 5.428e-4 21.704
8.86740000 5.436e-4 -3.572 0.999996 -81.14 0.999996 -81.14 5.446e-4 21.719
8.86760000 5.454e-4 -3.594 0.999996 -81.14 0.999996 -81.14 5.464e-4 21.734
8.86780000 5.472e-4 -3.615 0.999996 -81.14 0.999996 -81.14 5.483e-4 21.750
8.86800000 5.490e-4 -3.636 0.999996 -81.15 0.999996 -81.15 5.501e-4 21.765
8.86820000 5.509e-4 -3.657 0.999996 -81.15 0.999996 -81.15 5.520e-4 21.781
8.86840000 5.528e-4 -3.679 0.999996 -81.15 0.999996 -81.15 5.538e-4 21.797
8.86860000 5.547e-4 -3.700 0.999996 -81.15 0.999996 -81.15 5.557e-4 21.812
8.86880000 5.566e-4 -3.722 0.999996 -81.15 0.999996 -81.15 5.577e-4 21.828
8.86900000 5.585e-4 -3.743 0.999996 -81.16 0.999996 -81.16 5.596e-4 21.844
8.86920000 5.605e-4 -3.765 0.999996 -81.16 0.999996 -81.16 5.616e-4 21.860
8.86940000 5.625e-4 -3.787 0.999996 -81.16 0.999996 -81.16 5.635e-4 21.876
8.86960000 5.645e-4 -3.808 0.999996 -81.16 0.999996 -81.16 5.655e-4 21.892
8.86980000 5.665e-4 -3.830 0.999996 -81.16 0.999996 -81.16 5.676e-4 21.908
8.87000000 5.685e-4 -3.852 0.999996 -81.17 0.999996 -81.17 5.696e-4 21.924
8.87020000 5.706e-4 -3.874 0.999996 -81.17 0.999996 -81.17 5.717e-4 21.940
8.87040000 5.727e-4 -3.896 0.999996 -81.17 0.999996 -81.17 5.738e-4 21.956
8.87060000 5.748e-4 -3.919 0.999996 -81.17 0.999996 -81.17 5.759e-4 21.972
8.87080000 5.769e-4 -3.941 0.999996 -81.17 0.999996 -81.17 5.780e-4 21.989
8.87100000 5.791e-4 -3.963 0.999996 -81.18 0.999996 -81.18 5.802e-4 22.005
8.87120000 5.813e-4 -3.985 0.999996 -81.18 0.999996 -81.18 5.824e-4 22.022
8.87140000 5.835e-4 -4.008 0.999996 -81.18 0.999996 -81.18 5.846e-4 22.038
8.87160000 5.857e-4 -4.030 0.999996 -81.18 0.999996 -81.18 5.868e-4 22.055
8.87180000 5.880e-4 -4.053 0.999996 -81.18 0.999996 -81.18 5.891e-4 22.071
8.87200000 5.903e-4 -4.076 0.999996 -81.19 0.999996 -81.19 5.914e-4 22.088
8.87220000 5.926e-4 -4.099 0.999996 -81.19 0.999996 -81.19 5.937e-4 22.105
8.87240000 5.950e-4 -4.121 0.999996 -81.19 0.999996 -81.19 5.961e-4 22.122
8.87260000 5.973e-4 -4.144 0.999996 -81.19 0.999996 -81.19 5.984e-4 22.139
8.87280000 5.997e-4 -4.167 0.999996 -81.19 0.999996 -81.19 6.008e-4 22.156
8.87300000 6.021e-4 -4.190 0.999996 -81.20 0.999996 -81.20 6.033e-4 22.173
8.87320000 6.046e-4 -4.214 0.999996 -81.20 0.999996 -81.20 6.057e-4 22.190
8.87340000 6.071e-4 -4.237 0.999996 -81.20 0.999996 -81.20 6.082e-4 22.207
8.87360000 6.096e-4 -4.260 0.999996 -81.20 0.999996 -81.20 6.107e-4 22.224
8.87380000 6.121e-4 -4.283 0.999996 -81.20 0.999996 -81.20 6.133e-4 22.241
8.87400000 6.147e-4 -4.307 0.999996 -81.21 0.999996 -81.21 6.159e-4 22.259
8.87420000 6.173e-4 -4.331 0.999996 -81.21 0.999996 -81.21 6.185e-4 22.276
8.87440000 6.200e-4 -4.354 0.999996 -81.21 0.999996 -81.21 6.211e-4 22.294
8.87460000 6.227e-4 -4.378 0.999996 -81.21 0.999996 -81.21 6.238e-4 22.311
8.87480000 6.254e-4 -4.402 0.999996 -81.21 0.999996 -81.21 6.265e-4 22.329
8.87500000 6.281e-4 -4.426 0.999996 -81.21 0.999996 -81.21 6.292e-4 22.346
8.87520000 6.309e-4 -4.450 0.999996 -81.22 0.999996 -81.22 6.320e-4 22.364
8.87540000 6.337e-4 -4.474 0.999996 -81.22 0.999996 -81.22 6.348e-4 22.382
8.87560000 6.365e-4 -4.498 0.999996 -81.22 0.999996 -81.22 6.377e-4 22.400
8.87580000 6.394e-4 -4.522 0.999996 -81.22 0.999996 -81.22 6.406e-4 22.418
8.87600000 6.423e-4 -4.546 0.999996 -81.22 0.999996 -81.22 6.435e-4 22.436
8.87620000 6.453e-4 -4.571 0.999996 -81.23 0.999996 -81.23 6.465e-4 22.454
8.87640000 6.483e-4 -4.595 0.999996 -81.23 0.999996 -81.23 6.495e-4 22.472
8.87660000 6.513e-4 -4.620 0.999996 -81.23 0.999996 -81.23 6.525e-4 22.490
8.87680000 6.544e-4 -4.644 0.999996 -81.23 0.999996 -81.23 6.556e-4 22.509
8.87700000 6.575e-4 -4.669 0.999996 -81.23 0.999996 -81.23 6.587e-4 22.527
8.87720000 6.607e-4 -4.694 0.999996 -81.24 0.999996 -81.24 6.619e-4 22.546
8.87729397 6.622e-4 -4.706 0.999996 -81.24 0.999996 -81.24 6.634e-4 22.554
8.87740000 6.639e-4 -4.719 0.999996 -81.24 0.999996 -81.24 6.651e-4 22.564
8.87760000 6.672e-4 -4.744 0.999996 -81.24 0.999996 -81.24 6.683e-4 22.583
8.87780000 6.705e-4 -4.769 0.999996 -81.24 0.999996 -81.24 6.716e-4 22.601
8.87797204 6.733e-4 -4.791 0.999996 -81.24 0.999996 -81.24 6.745e-4 22.617
8.87800000 6.738e-4 -4.794 0.999996 -81.25 0.999996 -81.25 6.750e-4 22.620