! Sonnet Data File
! From: emgraph Version : 16.52
! From Emgraph Data: Resonator2
! Data File Written: 10/03/2017 19:52:38
!< HDATE 10/03/2017 16:44:45
!< MDATE 10/03/2017 17:29:32
!< PARAMS
!< gap = 6.0
!< Length = 400.0
!< END PARAMS
# GHZ S MA R 51.80000
4.00000000 0.001093 73.807 0.999999 -12.25 0.999999 -12.25 0.001093 81.739
!< P1 F=4.0 Eeff=(6.45006945 -2.975e-5) Z0=(51.809612 1.19486e-4) R=0.0 C=0.0 
!< P2 F=4.0 Eeff=(6.45006945 -2.975e-5) Z0=(51.809612 1.19486e-4) R=0.0 C=0.0 
4.02500000 0.001100 73.705 0.999999 -12.33 0.999999 -12.33 0.001100 81.689
4.05000000 0.001107 73.603 0.999999 -12.41 0.999999 -12.41 0.001108 81.638
4.07500000 0.001114 73.501 0.999999 -12.48 0.999999 -12.48 0.001115 81.587
4.10000000 0.001122 73.399 0.999999 -12.56 0.999999 -12.56 0.001122 81.537
4.12500000 0.001129 73.297 0.999999 -12.64 0.999999 -12.64 0.001129 81.486
4.15000000 0.001136 73.195 0.999999 -12.71 0.999999 -12.71 0.001136 81.435
4.17500000 0.001143 73.093 0.999999 -12.79 0.999999 -12.79 0.001143 81.384
4.20000000 0.001150 72.991 0.999999 -12.87 0.999999 -12.87 0.001150 81.333
4.22500000 0.001157 72.889 0.999999 -12.94 0.999999 -12.94 0.001157 81.282
4.25000000 0.001164 72.787 0.999999 -13.02 0.999999 -13.02 0.001164 81.231
4.27500000 0.001171 72.685 0.999999 -13.09 0.999999 -13.09 0.001171 81.180
4.30000000 0.001178 72.583 0.999999 -13.17 0.999999 -13.17 0.001178 81.129
4.32500000 0.001185 72.481 0.999999 -13.25 0.999999 -13.25 0.001185 81.078
4.35000000 0.001192 72.379 0.999999 -13.32 0.999999 -13.32 0.001192 81.027
4.37500000 0.001199 72.277 0.999999 -13.40 0.999999 -13.40 0.001199 80.976
4.40000000 0.001206 72.175 0.999999 -13.48 0.999999 -13.48 0.001206 80.924
4.42500000 0.001214 72.073 0.999999 -13.55 0.999999 -13.55 0.001214 80.873
4.45000000 0.001221 71.971 0.999999 -13.63 0.999999 -13.63 0.001221 80.822
4.47500000 0.001228 71.869 0.999999 -13.71 0.999999 -13.71 0.001228 80.771
4.50000000 0.001235 71.767 0.999999 -13.78 0.999999 -13.78 0.001235 80.720
4.52500000 0.001242 71.665 0.999999 -13.86 0.999999 -13.86 0.001242 80.668
4.55000000 0.001249 71.562 0.999999 -13.94 0.999999 -13.94 0.001249 80.617
4.57500000 0.001256 71.460 0.999999 -14.01 0.999999 -14.01 0.001256 80.566
4.60000000 0.001263 71.358 0.999999 -14.09 0.999999 -14.09 0.001263 80.515
4.62500000 0.001271 71.256 0.999999 -14.17 0.999999 -14.17 0.001271 80.464
4.65000000 0.001278 71.154 0.999999 -14.24 0.999999 -14.24 0.001278 80.412
4.67500000 0.001285 71.051 0.999999 -14.32 0.999999 -14.32 0.001285 80.361
4.70000000 0.001292 70.949 0.999999 -14.40 0.999999 -14.40 0.001292 80.310
4.72500000 0.001299 70.847 0.999999 -14.47 0.999999 -14.47 0.001299 80.259
4.75000000 0.001306 70.745 0.999999 -14.55 0.999999 -14.55 0.001307 80.207
4.77500000 0.001314 70.642 0.999999 -14.63 0.999999 -14.63 0.001314 80.156
4.80000000 0.001321 70.540 0.999999 -14.70 0.999999 -14.70 0.001321 80.105
4.82500000 0.001328 70.438 0.999999 -14.78 0.999999 -14.78 0.001328 80.054
4.85000000 0.001335 70.335 0.999999 -14.86 0.999999 -14.86 0.001335 80.003
4.87500000 0.001343 70.233 0.999999 -14.93 0.999999 -14.93 0.001343 79.951
4.90000000 0.001350 70.131 0.999998 -15.01 0.999998 -15.01 0.001350 79.900
4.92500000 0.001357 70.028 0.999998 -15.09 0.999998 -15.09 0.001357 79.849
4.95000000 0.001364 69.926 0.999998 -15.16 0.999998 -15.16 0.001364 79.798
4.97500000 0.001372 69.824 0.999998 -15.24 0.999998 -15.24 0.001372 79.747
!< P1 F=4.975 Eeff=(6.44999031 -2.9748e-5) Z0=(51.8092052 1.19486e-4) R=0.0 C=0.0 
!< P2 F=4.975 Eeff=(6.44999031 -2.9748e-5) Z0=(51.8092052 1.19486e-4) R=0.0 C=0.0 
5.00000000 0.001379 69.721 0.999998 -15.32 0.999998 -15.32 0.001379 79.696
5.02500000 0.001386 69.619 0.999998 -15.39 0.999998 -15.39 0.001386 79.645
5.05000000 0.001393 69.516 0.999998 -15.47 0.999998 -15.47 0.001394 79.594
5.07500000 0.001401 69.414 0.999998 -15.55 0.999998 -15.55 0.001401 79.543
5.10000000 0.001408 69.311 0.999998 -15.62 0.999998 -15.62 0.001408 79.492
5.12500000 0.001415 69.209 0.999998 -15.70 0.999998 -15.70 0.001415 79.441
5.15000000 0.001423 69.106 0.999998 -15.78 0.999998 -15.78 0.001423 79.390
5.17500000 0.001430 69.003 0.999998 -15.85 0.999998 -15.85 0.001430 79.339
5.20000000 0.001437 68.901 0.999998 -15.93 0.999998 -15.93 0.001438 79.288
5.22500000 0.001445 68.798 0.999998 -16.01 0.999998 -16.01 0.001445 79.237
5.25000000 0.001452 68.696 0.999998 -16.08 0.999998 -16.08 0.001452 79.186
5.27500000 0.001459 68.593 0.999998 -16.16 0.999998 -16.16 0.001460 79.135
5.30000000 0.001467 68.490 0.999998 -16.24 0.999998 -16.24 0.001467 79.085
5.32500000 0.001474 68.388 0.999998 -16.31 0.999998 -16.31 0.001474 79.034
5.35000000 0.001482 68.285 0.999998 -16.39 0.999998 -16.39 0.001482 78.983
5.37500000 0.001489 68.182 0.999998 -16.47 0.999998 -16.47 0.001489 78.932
5.40000000 0.001497 68.079 0.999998 -16.54 0.999998 -16.54 0.001497 78.882
5.42500000 0.001504 67.977 0.999998 -16.62 0.999998 -16.62 0.001504 78.831
5.45000000 0.001511 67.874 0.999998 -16.70 0.999998 -16.70 0.001512 78.780
5.47500000 0.001519 67.771 0.999998 -16.77 0.999998 -16.77 0.001519 78.730
5.50000000 0.001526 67.668 0.999998 -16.85 0.999998 -16.85 0.001527 78.679
5.52500000 0.001534 67.565 0.999998 -16.93 0.999998 -16.93 0.001534 78.629
5.55000000 0.001541 67.463 0.999998 -17.00 0.999998 -17.00 0.001542 78.578
5.57500000 0.001549 67.360 0.999998 -17.08 0.999998 -17.08 0.001549 78.528
5.60000000 0.001557 67.257 0.999998 -17.16 0.999998 -17.16 0.001557 78.477
5.62500000 0.001564 67.154 0.999998 -17.23 0.999998 -17.23 0.001564 78.427
5.65000000 0.001572 67.051 0.999998 -17.31 0.999998 -17.31 0.001572 78.376
5.67500000 0.001579 66.948 0.999998 -17.38 0.999998 -17.38 0.001579 78.326
5.70000000 0.001587 66.845 0.999998 -17.46 0.999998 -17.46 0.001587 78.276
5.72500000 0.001595 66.742 0.999998 -17.54 0.999998 -17.54 0.001595 78.225
5.75000000 0.001602 66.639 0.999998 -17.61 0.999998 -17.61 0.001602 78.175
5.77500000 0.001610 66.536 0.999998 -17.69 0.999998 -17.69 0.001610 78.125
5.80000000 0.001617 66.433 0.999998 -17.77 0.999998 -17.77 0.001618 78.075
5.82500000 0.001625 66.330 0.999998 -17.84 0.999998 -17.84 0.001625 78.024
5.85000000 0.001633 66.226 0.999998 -17.92 0.999998 -17.92 0.001633 77.974
5.87500000 0.001641 66.123 0.999998 -18.00 0.999998 -18.00 0.001641 77.924
5.90000000 0.001648 66.020 0.999998 -18.07 0.999998 -18.07 0.001649 77.874
5.92500000 0.001656 65.917 0.999998 -18.15 0.999998 -18.15 0.001656 77.824
5.95000000 0.001664 65.814 0.999998 -18.23 0.999998 -18.23 0.001664 77.774
5.97500000 0.001672 65.710 0.999998 -18.30 0.999998 -18.30 0.001672 77.724
6.00000000 0.001679 65.607 0.999998 -18.38 0.999998 -18.38 0.001680 77.674
6.02500000 0.001687 65.504 0.999998 -18.46 0.999998 -18.46 0.001688 77.624
6.05000000 0.001695 65.400 0.999998 -18.53 0.999998 -18.53 0.001695 77.574
6.07500000 0.001703 65.297 0.999998 -18.61 0.999998 -18.61 0.001703 77.524
6.10000000 0.001711 65.193 0.999998 -18.69 0.999998 -18.69 0.001711 77.475
6.12500000 0.001719 65.090 0.999998 -18.76 0.999998 -18.76 0.001719 77.425
6.15000000 0.001727 64.987 0.999998 -18.84 0.999998 -18.84 0.001727 77.375
6.17500000 0.001735 64.883 0.999998 -18.92 0.999998 -18.92 0.001735 77.325
6.20000000 0.001743 64.779 0.999998 -18.99 0.999998 -18.99 0.001743 77.276
6.22500000 0.001751 64.676 0.999998 -19.07 0.999998 -19.07 0.001751 77.226
6.25000000 0.001759 64.572 0.999998 -19.15 0.999998 -19.15 0.001759 77.176
6.27500000 0.001767 64.469 0.999998 -19.22 0.999998 -19.22 0.001767 77.127
6.30000000 0.001775 64.365 0.999998 -19.30 0.999998 -19.30 0.001775 77.077
6.32500000 0.001783 64.261 0.999998 -19.38 0.999998 -19.38 0.001784 77.028
6.35000000 0.001791 64.157 0.999998 -19.45 0.999998 -19.45 0.001792 76.978
6.37500000 0.001800 64.054 0.999998 -19.53 0.999998 -19.53 0.001800 76.929
6.40000000 0.001808 63.950 0.999997 -19.61 0.999997 -19.61 0.001808 76.880
6.42500000 0.001816 63.846 0.999997 -19.68 0.999997 -19.68 0.001816 76.830
6.45000000 0.001824 63.742 0.999997 -19.76 0.999997 -19.76 0.001825 76.781
6.47500000 0.001833 63.638 0.999997 -19.84 0.999997 -19.84 0.001833 76.732
6.50000000 0.001841 63.534 0.999997 -19.91 0.999997 -19.91 0.001841 76.682
6.52500000 0.001850 63.430 0.999997 -19.99 0.999997 -19.99 0.001850 76.633
6.55000000 0.001858 63.326 0.999997 -20.07 0.999997 -20.07 0.001858 76.584
6.57500000 0.001867 63.222 0.999997 -20.14 0.999997 -20.14 0.001867 76.535
6.60000000 0.001875 63.117 0.999997 -20.22 0.999997 -20.22 0.001875 76.486
6.62500000 0.001884 63.013 0.999997 -20.30 0.999997 -20.30 0.001884 76.437
6.65000000 0.001892 62.909 0.999997 -20.37 0.999997 -20.37 0.001892 76.388
6.67500000 0.001901 62.804 0.999997 -20.45 0.999997 -20.45 0.001901 76.339
6.70000000 0.001910 62.700 0.999997 -20.53 0.999997 -20.53 0.001910 76.290
6.72500000 0.001918 62.595 0.999997 -20.60 0.999997 -20.60 0.001918 76.241
6.75000000 0.001927 62.491 0.999997 -20.68 0.999997 -20.68 0.001927 76.193
6.77500000 0.001936 62.386 0.999997 -20.76 0.999997 -20.76 0.001936 76.144
6.80000000 0.001945 62.282 0.999997 -20.83 0.999997 -20.83 0.001945 76.095
6.82500000 0.001954 62.177 0.999997 -20.91 0.999997 -20.91 0.001954 76.047
6.85000000 0.001963 62.072 0.999997 -20.99 0.999997 -20.99 0.001963 75.998
6.87500000 0.001972 61.967 0.999997 -21.06 0.999997 -21.06 0.001972 75.950
6.90000000 0.001981 61.862 0.999997 -21.14 0.999997 -21.14 0.001981 75.901
6.92500000 0.001990 61.757 0.999997 -21.22 0.999997 -21.22 0.001990 75.853
6.95000000 0.001999 61.652 0.999997 -21.29 0.999997 -21.29 0.001999 75.804
6.97500000 0.002009 61.547 0.999997 -21.37 0.999997 -21.37 0.002009 75.756
7.00000000 0.002018 61.442 0.999997 -21.45 0.999997 -21.45 0.002018 75.708
7.02500000 0.002027 61.337 0.999997 -21.52 0.999997 -21.52 0.002028 75.660
7.05000000 0.002037 61.231 0.999997 -21.60 0.999997 -21.60 0.002037 75.612
7.07500000 0.002046 61.126 0.999997 -21.68 0.999997 -21.68 0.002047 75.564
7.10000000 0.002056 61.020 0.999997 -21.75 0.999997 -21.75 0.002056 75.516
7.12500000 0.002066 60.915 0.999997 -21.83 0.999997 -21.83 0.002066 75.468
7.15000000 0.002076 60.809 0.999997 -21.91 0.999997 -21.91 0.002076 75.420
7.17500000 0.002086 60.703 0.999997 -21.99 0.999997 -21.99 0.002086 75.373
!< P1 F=7.175 Eeff=(6.44974865 -2.9746e-5) Z0=(51.8079604 1.19489e-4) R=0.0 C=0.0 
!< P2 F=7.175 Eeff=(6.44974865 -2.9746e-5) Z0=(51.8079604 1.19489e-4) R=0.0 C=0.0 
7.20000000 0.002096 60.597 0.999997 -22.06 0.999997 -22.06 0.002096 75.325
7.22500000 0.002106 60.491 0.999997 -22.14 0.999997 -22.14 0.002106 75.278
7.25000000 0.002116 60.385 0.999997 -22.22 0.999997 -22.22 0.002116 75.230
7.27500000 0.002126 60.279 0.999997 -22.29 0.999997 -22.29 0.002127 75.183
7.30000000 0.002137 60.172 0.999997 -22.37 0.999997 -22.37 0.002137 75.136
7.32500000 0.002147 60.066 0.999997 -22.45 0.999997 -22.45 0.002148 75.088
7.35000000 0.002158 59.959 0.999997 -22.52 0.999997 -22.52 0.002158 75.041
7.37500000 0.002169 59.853 0.999997 -22.60 0.999997 -22.60 0.002169 74.995
7.40000000 0.002180 59.746 0.999997 -22.68 0.999997 -22.68 0.002180 74.948
7.42500000 0.002191 59.639 0.999997 -22.75 0.999997 -22.75 0.002191 74.901
7.45000000 0.002202 59.531 0.999997 -22.83 0.999997 -22.83 0.002202 74.855
7.47500000 0.002213 59.424 0.999997 -22.91 0.999997 -22.91 0.002214 74.808
7.50000000 0.002225 59.316 0.999997 -22.98 0.999997 -22.98 0.002225 74.762
7.52500000 0.002237 59.209 0.999997 -23.06 0.999997 -23.06 0.002237 74.716
7.55000000 0.002249 59.101 0.999997 -23.14 0.999997 -23.14 0.002249 74.670
7.57500000 0.002261 58.993 0.999997 -23.21 0.999997 -23.21 0.002261 74.624
7.60000000 0.002273 58.885 0.999996 -23.29 0.999996 -23.29 0.002273 74.578
7.62500000 0.002286 58.776 0.999996 -23.37 0.999996 -23.37 0.002286 74.533
7.65000000 0.002298 58.667 0.999996 -23.44 0.999996 -23.44 0.002299 74.488
7.67500000 0.002311 58.559 0.999996 -23.52 0.999996 -23.52 0.002312 74.443
7.70000000 0.002324 58.449 0.999996 -23.60 0.999996 -23.60 0.002325 74.398
7.72500000 0.002338 58.340 0.999996 -23.68 0.999996 -23.68 0.002338 74.353
7.75000000 0.002352 58.230 0.999996 -23.75 0.999996 -23.75 0.002352 74.309
7.77500000 0.002366 58.120 0.999996 -23.83 0.999996 -23.83 0.002366 74.264
7.80000000 0.002380 58.010 0.999996 -23.91 0.999996 -23.91 0.002381 74.221
7.82500000 0.002395 57.900 0.999996 -23.98 0.999996 -23.98 0.002395 74.177
7.85000000 0.002410 57.789 0.999996 -24.06 0.999996 -24.06 0.002411 74.133
7.87500000 0.002426 57.677 0.999996 -24.14 0.999996 -24.14 0.002426 74.090
7.90000000 0.002442 57.566 0.999996 -24.22 0.999996 -24.22 0.002442 74.048
7.92500000 0.002458 57.454 0.999996 -24.29 0.999996 -24.29 0.002459 74.005
7.95000000 0.002475 57.341 0.999996 -24.37 0.999996 -24.37 0.002475 73.963
7.97500000 0.002493 57.228 0.999996 -24.45 0.999996 -24.45 0.002493 73.921
8.00000000 0.002511 57.115 0.999996 -24.52 0.999996 -24.52 0.002511 73.880
8.02500000 0.002529 57.001 0.999996 -24.60 0.999996 -24.60 0.002530 73.839
8.05000000 0.002549 56.887 0.999996 -24.68 0.999996 -24.68 0.002549 73.799
8.07500000 0.002569 56.772 0.999996 -24.76 0.999996 -24.76 0.002569 73.759
8.10000000 0.002590 56.656 0.999996 -24.83 0.999996 -24.83 0.002590 73.719
8.12500000 0.002612 56.540 0.999996 -24.91 0.999996 -24.91 0.002612 73.681
8.15000000 0.002635 56.423 0.999996 -24.99 0.999996 -24.99 0.002635 73.642
8.17500000 0.002658 56.305 0.999995 -25.07 0.999995 -25.07 0.002659 73.605
8.20000000 0.002683 56.186 0.999995 -25.14 0.999995 -25.14 0.002684 73.568
8.22500000 0.002710 56.066 0.999995 -25.22 0.999995 -25.22 0.002710 73.532
8.25000000 0.002738 55.945 0.999995 -25.30 0.999995 -25.30 0.002738 73.497
8.27500000 0.002767 55.823 0.999995 -25.38 0.999995 -25.38 0.002767 73.463
8.30000000 0.002798 55.700 0.999995 -25.45 0.999995 -25.45 0.002799 73.430
8.32500000 0.002832 55.576 0.999995 -25.53 0.999995 -25.53 0.002832 73.397
8.35000000 0.002867 55.450 0.999995 -25.61 0.999995 -25.61 0.002868 73.367
8.37500000 0.002906 55.322 0.999995 -25.69 0.999995 -25.69 0.002906 73.337
8.40000000 0.002947 55.192 0.999995 -25.77 0.999995 -25.77 0.002948 73.309
8.42500000 0.002992 55.060 0.999994 -25.85 0.999994 -25.85 0.002992 73.283
8.45000000 0.003041 54.926 0.999994 -25.93 0.999994 -25.93 0.003041 73.258
8.47500000 0.003095 54.790 0.999994 -26.00 0.999994 -26.00 0.003095 73.235
8.50000000 0.003154 54.650 0.999994 -26.08 0.999994 -26.08 0.003154 73.215
8.52500000 0.003220 54.507 0.999994 -26.16 0.999994 -26.16 0.003220 73.198
8.55000000 0.003294 54.360 0.999993 -26.24 0.999993 -26.24 0.003294 73.183
8.57500000 0.003377 54.208 0.999993 -26.33 0.999993 -26.33 0.003378 73.171
8.60000000 0.003473 54.051 0.999993 -26.41 0.999993 -26.41 0.003473 73.164
8.60730956 0.003504 54.004 0.999993 -26.43 0.999993 -26.43 0.003504 73.162
8.61445162 0.003535 53.958 0.999993 -26.46 0.999993 -26.46 0.003535 73.161
8.62143003 0.003567 53.912 0.999992 -26.48 0.999992 -26.48 0.003567 73.161
8.62500000 0.003584 53.888 0.999992 -26.49 0.999992 -26.49 0.003584 73.161
8.62824855 0.003600 53.867 0.999992 -26.50 0.999992 -26.50 0.003600 73.160
8.63491082 0.003633 53.822 0.999992 -26.52 0.999992 -26.52 0.003633 73.161
8.64142044 0.003667 53.777 0.999992 -26.54 0.999992 -26.54 0.003667 73.161
8.64778089 0.003702 53.733 0.999992 -26.57 0.999992 -26.57 0.003702 73.162
8.65000000 0.003714 53.718 0.999992 -26.57 0.999992 -26.57 0.003714 73.162
8.65399561 0.003737 53.690 0.999992 -26.59 0.999992 -26.59 0.003737 73.163
8.66006792 0.003773 53.647 0.999992 -26.61 0.999992 -26.61 0.003774 73.165
8.66600109 0.003810 53.604 0.999992 -26.63 0.999992 -26.63 0.003811 73.166
8.67179831 0.003848 53.562 0.999991 -26.65 0.999991 -26.65 0.003848 73.168
8.67500000 0.003870 53.538 0.999991 -26.66 0.999991 -26.66 0.003870 73.170
8.67746269 0.003887 53.520 0.999991 -26.67 0.999991 -26.67 0.003887 73.171
8.68299729 0.003926 53.479 0.999991 -26.69 0.999991 -26.69 0.003926 73.173
8.68840506 0.003966 53.438 0.999991 -26.71 0.999991 -26.71 0.003967 73.176
8.69368892 0.004007 53.397 0.999991 -26.72 0.999991 -26.72 0.004008 73.180
8.69885171 0.004049 53.357 0.999991 -26.74 0.999991 -26.74 0.004050 73.183
8.70000000 0.004059 53.348 0.999991 -26.75 0.999991 -26.75 0.004059 73.184
8.70389620 0.004092 53.317 0.999990 -26.76 0.999990 -26.76 0.004093 73.187
8.70882510 0.004136 53.278 0.999990 -26.78 0.999990 -26.78 0.004137 73.191
8.71364106 0.004181 53.239 0.999990 -26.79 0.999990 -26.79 0.004182 73.195
8.71834666 0.004227 53.200 0.999990 -26.81 0.999990 -26.81 0.004227 73.199
8.72294445 0.004274 53.162 0.999990 -26.83 0.999990 -26.83 0.004274 73.204
8.72500000 0.004296 53.144 0.999989 -26.84 0.999989 -26.84 0.004296 73.206
8.72743688 0.004322 53.124 0.999989 -26.84 0.999989 -26.84 0.004322 73.208
8.73182637 0.004371 53.086 0.999989 -26.86 0.999989 -26.86 0.004371 73.213
8.73611529 0.004421 53.048 0.999989 -26.88 0.999989 -26.88 0.004421 73.218
8.74030593 0.004472 53.011 0.999989 -26.89 0.999989 -26.89 0.004473 73.223
8.74440054 0.004525 52.974 0.999988 -26.91 0.999988 -26.91 0.004525 73.229
8.74840133 0.004578 52.938 0.999988 -26.92 0.999988 -26.92 0.004578 73.234
8.75000000 0.004600 52.923 0.999988 -26.93 0.999988 -26.93 0.004601 73.236
8.75231045 0.004633 52.902 0.999988 -26.94 0.999988 -26.94 0.004633 73.240
8.75613000 0.004689 52.866 0.999988 -26.95 0.999988 -26.95 0.004689 73.245
8.75986203 0.004746 52.830 0.999987 -26.97 0.999987 -26.97 0.004747 73.251
8.76350854 0.004805 52.795 0.999987 -26.98 0.999987 -26.98 0.004805 73.257
8.76707149 0.004865 52.760 0.999987 -27.00 0.999987 -27.00 0.004865 73.263
8.77055281 0.004926 52.725 0.999986 -27.01 0.999986 -27.01 0.004926 73.269
8.77395435 0.004989 52.690 0.999986 -27.02 0.999986 -27.02 0.004989 73.275
8.77500000 0.005008 52.680 0.999986 -27.03 0.999986 -27.03 0.005009 73.277
!< P1 F=8.775 Eeff=(6.44951806 -2.9743e-5) Z0=(51.8067687 1.19492e-4) R=0.0 C=0.0 
!< P2 F=8.775 Eeff=(6.44951806 -2.9743e-5) Z0=(51.8067687 1.19492e-4) R=0.0 C=0.0 
8.77727795 0.005053 52.656 0.999986 -27.04 0.999986 -27.04 0.005053 73.281
8.78052540 0.005118 52.622 0.999985 -27.05 0.999985 -27.05 0.005119 73.287
8.78369843 0.005185 52.588 0.999985 -27.07 0.999985 -27.07 0.005186 73.293
8.78679876 0.005254 52.555 0.999985 -27.08 0.999985 -27.08 0.005254 73.300
8.78982805 0.005324 52.521 0.999984 -27.09 0.999984 -27.09 0.005325 73.306
8.79278793 0.005396 52.488 0.999984 -27.11 0.999984 -27.11 0.005396 73.312
8.79567998 0.005469 52.455 0.999983 -27.12 0.999983 -27.12 0.005470 73.318
8.79850577 0.005544 52.423 0.999983 -27.13 0.999983 -27.13 0.005545 73.324
8.80000000 0.005586 52.405 0.999983 -27.14 0.999983 -27.14 0.005586 73.328
8.80126680 0.005621 52.390 0.999983 -27.14 0.999983 -27.14 0.005622 73.330
8.80396457 0.005700 52.358 0.999982 -27.16 0.999982 -27.16 0.005700 73.337
8.80660053 0.005781 52.326 0.999982 -27.17 0.999982 -27.17 0.005781 73.343
8.80917608 0.005863 52.294 0.999981 -27.18 0.999981 -27.18 0.005863 73.349
8.81169262 0.005947 52.263 0.999981 -27.19 0.999981 -27.19 0.005948 73.354
8.81415150 0.006033 52.231 0.999980 -27.21 0.999980 -27.21 0.006034 73.360
8.81655403 0.006122 52.200 0.999979 -27.22 0.999979 -27.22 0.006122 73.366
8.81890152 0.006212 52.169 0.999979 -27.23 0.999979 -27.23 0.006212 73.372
8.82119521 0.006304 52.138 0.999978 -27.24 0.999978 -27.24 0.006305 73.377
8.82343634 0.006399 52.108 0.999978 -27.26 0.999978 -27.26 0.006399 73.383
8.82500000 0.006467 52.086 0.999977 -27.26 0.999977 -27.26 0.006468 73.386
8.82562613 0.006495 52.077 0.999977 -27.27 0.999977 -27.27 0.006496 73.388
8.82776573 0.006594 52.047 0.999976 -27.28 0.999976 -27.28 0.006595 73.393
8.82985631 0.006696 52.017 0.999975 -27.29 0.999975 -27.29 0.006696 73.398
8.83189899 0.006799 51.987 0.999975 -27.30 0.999975 -27.30 0.006800 73.403
8.83389486 0.006905 51.957 0.999974 -27.32 0.999974 -27.32 0.006906 73.408
8.83584500 0.007014 51.927 0.999973 -27.33 0.999973 -27.33 0.007014 73.412
8.83775045 0.007125 51.898 0.999972 -27.34 0.999972 -27.34 0.007126 73.416
8.83961224 0.007239 51.868 0.999971 -27.35 0.999971 -27.35 0.007239 73.421
8.84143138 0.007355 51.839 0.999971 -27.37 0.999971 -27.37 0.007356 73.425
8.84320882 0.007474 51.810 0.999970 -27.38 0.999970 -27.38 0.007475 73.428
8.84494554 0.007596 51.781 0.999969 -27.39 0.999969 -27.39 0.007597 73.432
8.84664247 0.007721 51.752 0.999968 -27.40 0.999968 -27.40 0.007721 73.435
8.84830051 0.007849 51.723 0.999967 -27.42 0.999967 -27.42 0.007849 73.438
8.84992056 0.007979 51.694 0.999965 -27.43 0.999965 -27.43 0.007980 73.441
8.85000000 0.007986 51.693 0.999965 -27.43 0.999965 -27.43 0.007986 73.441
8.85150349 0.008113 51.666 0.999964 -27.44 0.999964 -27.44 0.008113 73.444
8.85305015 0.008250 51.637 0.999963 -27.45 0.999963 -27.45 0.008250 73.446
8.85456137 0.008390 51.609 0.999962 -27.47 0.999962 -27.47 0.008390 73.448
8.85603796 0.008533 51.580 0.999960 -27.48 0.999960 -27.48 0.008534 73.450
8.85748072 0.008680 51.552 0.999959 -27.49 0.999959 -27.49 0.008681 73.452
8.85889041 0.008830 51.524 0.999958 -27.50 0.999958 -27.50 0.008831 73.453
8.86026781 0.008984 51.496 0.999956 -27.52 0.999956 -27.52 0.008985 73.454
8.86161364 0.009142 51.468 0.999955 -27.53 0.999955 -27.53 0.009142 73.455
8.86292864 0.009303 51.440 0.999953 -27.54 0.999953 -27.54 0.009303 73.455
8.86421350 0.009468 51.412 0.999951 -27.56 0.999951 -27.56 0.009468 73.455
8.86546893 0.009636 51.384 0.999950 -27.57 0.999950 -27.57 0.009637 73.455
8.86669558 0.009809 51.356 0.999948 -27.58 0.999948 -27.58 0.009810 73.455
8.86789413 0.009986 51.328 0.999946 -27.60 0.999946 -27.60 0.009987 73.454
8.86906522 0.010167 51.300 0.999944 -27.61 0.999944 -27.61 0.010168 73.453
8.87020947 0.010353 51.272 0.999942 -27.63 0.999942 -27.63 0.010353 73.451
8.87132751 0.010542 51.244 0.999940 -27.64 0.999940 -27.64 0.010543 73.449
8.87241992 0.010737 51.216 0.999938 -27.65 0.999938 -27.65 0.010737 73.447
8.87348730 0.010935 51.188 0.999935 -27.67 0.999935 -27.67 0.010936 73.444
8.87453023 0.011139 51.160 0.999933 -27.68 0.999933 -27.68 0.011140 73.441
8.87500000 0.011234 51.147 0.999932 -27.69 0.999932 -27.69 0.011234 73.440
8.87554926 0.011347 51.132 0.999930 -27.70 0.999930 -27.70 0.011348 73.438
8.87654494 0.011561 51.104 0.999928 -27.71 0.999928 -27.71 0.011561 73.434
8.87751780 0.011779 51.076 0.999925 -27.73 0.999925 -27.73 0.011780 73.430
8.87846837 0.012003 51.048 0.999922 -27.75 0.999922 -27.75 0.012003 73.425
8.87939716 0.012232 51.019 0.999919 -27.76 0.999919 -27.76 0.012232 73.420
8.88030467 0.012466 50.991 0.999916 -27.78 0.999916 -27.78 0.012466 73.414
8.88119139 0.012706 50.963 0.999913 -27.79 0.999913 -27.79 0.012706 73.408
8.88205778 0.012951 50.934 0.999909 -27.81 0.999909 -27.81 0.012952 73.402
8.88290432 0.013203 50.905 0.999906 -27.83 0.999906 -27.83 0.013203 73.395
8.88373147 0.013460 50.876 0.999902 -27.84 0.999902 -27.84 0.013461 73.387
8.88453966 0.013724 50.847 0.999898 -27.86 0.999898 -27.86 0.013725 73.380
8.88532934 0.013994 50.818 0.999894 -27.88 0.999894 -27.88 0.013994 73.371
8.88610092 0.014270 50.789 0.999890 -27.90 0.999890 -27.90 0.014271 73.363
8.88685482 0.014553 50.759 0.999885 -27.92 0.999885 -27.92 0.014554 73.353
8.88759144 0.014843 50.730 0.999880 -27.94 0.999880 -27.94 0.014843 73.343
8.88831119 0.015139 50.700 0.999876 -27.95 0.999876 -27.95 0.015140 73.333
8.88901444 0.015443 50.670 0.999871 -27.97 0.999871 -27.97 0.015443 73.322
8.88970158 0.015754 50.639 0.999865 -27.99 0.999865 -27.99 0.015754 73.311
8.89037298 0.016072 50.609 0.999860 -28.01 0.999860 -28.01 0.016073 73.299
8.89102899 0.016398 50.578 0.999854 -28.04 0.999854 -28.04 0.016399 73.286
8.89166997 0.016732 50.547 0.999848 -28.06 0.999848 -28.06 0.016732 73.273
8.89229626 0.017073 50.515 0.999842 -28.08 0.999842 -28.08 0.017074 73.259
8.89290820 0.017423 50.483 0.999835 -28.10 0.999835 -28.10 0.017424 73.245
8.89350612 0.017782 50.451 0.999828 -28.12 0.999828 -28.12 0.017782 73.230
8.89409034 0.018149 50.419 0.999821 -28.14 0.999821 -28.14 0.018149 73.214
8.89466117 0.018524 50.386 0.999813 -28.17 0.999813 -28.17 0.018525 73.198
8.89521893 0.018909 50.353 0.999806 -28.19 0.999806 -28.19 0.018910 73.181
8.89576390 0.019303 50.320 0.999797 -28.22 0.999797 -28.22 0.019304 73.164
8.89629638 0.019707 50.286 0.999789 -28.24 0.999789 -28.24 0.019707 73.145
8.89681667 0.020120 50.252 0.999780 -28.27 0.999780 -28.27 0.020120 73.127
8.89732503 0.020543 50.217 0.999770 -28.29 0.999770 -28.29 0.020544 73.107
8.89782174 0.020976 50.182 0.999760 -28.32 0.999760 -28.32 0.020977 73.087
8.89830707 0.021420 50.146 0.999750 -28.35 0.999750 -28.35 0.021421 73.066
8.89878128 0.021874 50.110 0.999739 -28.37 0.999739 -28.37 0.021875 73.044
8.89924463 0.022340 50.074 0.999728 -28.40 0.999728 -28.40 0.022341 73.021
8.89969736 0.022817 50.037 0.999716 -28.43 0.999716 -28.43 0.022817 72.998
8.90000000 0.023148 50.011 0.999708 -28.45 0.999708 -28.45 0.023149 72.982
8.90013971 0.023305 49.999 0.999704 -28.46 0.999704 -28.46 0.023306 72.974
8.90057193 0.023805 49.961 0.999691 -28.49 0.999691 -28.49 0.023806 72.949
8.90099424 0.024317 49.922 0.999678 -28.52 0.999678 -28.52 0.024318 72.923
8.90140688 0.024842 49.883 0.999663 -28.55 0.999663 -28.55 0.024842 72.897
8.90181006 0.025379 49.843 0.999649 -28.58 0.999649 -28.58 0.025380 72.869
8.90220401 0.025929 49.802 0.999633 -28.62 0.999633 -28.62 0.025930 72.841
8.90258892 0.026493 49.761 0.999617 -28.65 0.999617 -28.65 0.026494 72.812
8.90296502 0.027070 49.719 0.999600 -28.68 0.999600 -28.68 0.027071 72.782
8.90333250 0.027662 49.676 0.999582 -28.72 0.999582 -28.72 0.027663 72.751
8.90369156 0.028268 49.633 0.999564 -28.75 0.999564 -28.75 0.028268 72.719
8.90404239 0.028888 49.589 0.999544 -28.79 0.999544 -28.79 0.028889 72.686
8.90438518 0.029524 49.544 0.999524 -28.83 0.999524 -28.83 0.029525 72.652
8.90472012 0.030175 49.498 0.999502 -28.87 0.999502 -28.87 0.030176 72.617
8.90504739 0.030842 49.452 0.999480 -28.91 0.999480 -28.91 0.030843 72.581
8.90536715 0.031526 49.404 0.999457 -28.95 0.999457 -28.95 0.031527 72.544
8.90567959 0.032226 49.356 0.999432 -28.99 0.999432 -28.99 0.032227 72.505
8.90598487 0.032943 49.307 0.999406 -29.03 0.999406 -29.03 0.032944 72.466
8.90628315 0.033678 49.256 0.999380 -29.07 0.999380 -29.07 0.033679 72.426
8.90657460 0.034431 49.205 0.999351 -29.12 0.999351 -29.12 0.034432 72.384
8.90685937 0.035203 49.153 0.999322 -29.16 0.999322 -29.16 0.035204 72.341
8.90713762 0.035993 49.100 0.999291 -29.21 0.999291 -29.21 0.035994 72.297
8.90740949 0.036803 49.046 0.999258 -29.25 0.999258 -29.25 0.036804 72.252
8.90767513 0.037633 48.990 0.999224 -29.30 0.999224 -29.30 0.037634 72.205
8.90793468 0.038484 48.934 0.999189 -29.35 0.999189 -29.35 0.038485 72.157
8.90818828 0.039355 48.876 0.999151 -29.40 0.999151 -29.40 0.039356 72.108
8.90843608 0.040248 48.817 0.999112 -29.46 0.999112 -29.46 0.040249 72.058
8.90867820 0.041163 48.757 0.999071 -29.51 0.999071 -29.51 0.041164 72.006
8.90891477 0.042101 48.696 0.999028 -29.56 0.999028 -29.56 0.042102 71.952
8.90914591 0.043062 48.633 0.998983 -29.62 0.998983 -29.62 0.043063 71.897
8.90937177 0.044047 48.569 0.998936 -29.68 0.998936 -29.68 0.044048 71.841
8.90959244 0.045056 48.504 0.998886 -29.73 0.998886 -29.73 0.045057 71.783
8.90980806 0.046091 48.437 0.998835 -29.79 0.998835 -29.79 0.046092 71.724
8.91001874 0.047151 48.369 0.998780 -29.86 0.998780 -29.86 0.047152 71.662
8.91022459 0.048238 48.299 0.998723 -29.92 0.998723 -29.92 0.048239 71.600
8.91042573 0.049352 48.228 0.998663 -29.98 0.998663 -29.98 0.049353 71.535
8.91062226 0.050494 48.155 0.998600 -30.05 0.998600 -30.05 0.050495 71.469
8.91081428 0.051665 48.080 0.998534 -30.12 0.998534 -30.12 0.051666 71.401
8.91100190 0.052865 48.004 0.998465 -30.19 0.998465 -30.19 0.052866 71.331
8.91118523 0.054095 47.926 0.998392 -30.26 0.998392 -30.26 0.054096 71.259
8.91136435 0.055356 47.846 0.998316 -30.33 0.998316 -30.33 0.055357 71.185
8.91153937 0.056649 47.764 0.998236 -30.41 0.998236 -30.41 0.056650 71.110
8.91171038 0.057974 47.680 0.998152 -30.48 0.998152 -30.48 0.057976 71.032
8.91187747 0.059333 47.595 0.998064 -30.56 0.998064 -30.56 0.059335 70.952
8.91204073 0.060727 47.507 0.997972 -30.64 0.997972 -30.64 0.060728 70.870
8.91220025 0.062156 47.418 0.997875 -30.72 0.997875 -30.72 0.062157 70.786
8.91235612 0.063621 47.326 0.997773 -30.81 0.997773 -30.81 0.063622 70.700
8.91250841 0.065124 47.232 0.997666 -30.90 0.997666 -30.90 0.065125 70.611
8.91265722 0.066664 47.135 0.997554 -30.98 0.997554 -30.98 0.066666 70.520
8.91280261 0.068245 47.037 0.997436 -31.08 0.997436 -31.08 0.068246 70.427
8.91294467 0.069865 46.936 0.997313 -31.17 0.997313 -31.17 0.069867 70.331
8.91308348 0.071527 46.832 0.997183 -31.26 0.997183 -31.26 0.071529 70.232
8.91321911 0.073232 46.726 0.997046 -31.36 0.997046 -31.36 0.073234 70.131
8.91335163 0.074981 46.618 0.996903 -31.46 0.996903 -31.46 0.074982 70.027
8.91348111 0.076774 46.507 0.996752 -31.57 0.996752 -31.57 0.076776 69.920
8.91360763 0.078614 46.393 0.996594 -31.67 0.996594 -31.67 0.078616 69.811
8.91373124 0.080502 46.276 0.996428 -31.78 0.996428 -31.78 0.080503 69.698
8.91385203 0.082438 46.156 0.996253 -31.89 0.996253 -31.89 0.082440 69.583
8.91397005 0.084425 46.033 0.996070 -32.01 0.996070 -32.01 0.084426 69.464
8.91400000 0.084945 46.002 0.996023 -32.04 0.996023 -32.04 0.084947 69.434
!< P1 F=8.914 Eeff=(6.44949585 -2.9743e-5) Z0=(51.8066537 1.19492e-4) R=0.0 C=0.0 
!< P2 F=8.914 Eeff=(6.44949585 -2.9743e-5) Z0=(51.8066537 1.19492e-4) R=0.0 C=0.0 
8.91400500 0.085032 45.997 0.996015 -32.04 0.996015 -32.04 0.085034 69.429
8.91401000 0.085120 45.991 0.996006 -32.05 0.996006 -32.05 0.085122 69.424
8.91401500 0.085208 45.986 0.995998 -32.05 0.995998 -32.05 0.085209 69.419
8.91402000 0.085296 45.981 0.995990 -32.06 0.995990 -32.06 0.085297 69.413
8.91402500 0.085384 45.975 0.995981 -32.06 0.995981 -32.06 0.085386 69.408
8.91403000 0.085472 45.970 0.995973 -32.07 0.995973 -32.07 0.085474 69.403
8.91403500 0.085561 45.964 0.995965 -32.07 0.995965 -32.07 0.085563 69.397
8.91404000 0.085650 45.959 0.995956 -32.08 0.995956 -32.08 0.085651 69.392