! Sonnet Data File
! From: emgraph Version : 16.52
! From Project: Resonator2_extremeCap
! Data is De-embedded 
! Data File Written: 10/11/2017 17:55:29
!< HDATE 10/10/2017 20:37:37
!< MDATE 10/10/2017 20:37:37
!< PARAMS
!< Pwid1 = 2000.0
!< Pwid2 = 2000.0
!< Air_gap = 18.0
!< Width = 30.0
!< Gap = 60.0
!< END PARAMS
# GHZ S MA R 50.70000
8.95000000 0.114134 1.7000 0.993460 -88.02 0.993460 -88.02 0.114131 2.2664
!< P1 F=8.95 Eeff=(6.44502592 -2.9711e-5) Z0=(50.6183818 1.16783e-4) R=0.0 C=0.0 
!< P2 F=8.95 Eeff=(6.44502592 -2.9711e-5) Z0=(50.6183818 1.16783e-4) R=0.0 C=0.0 
8.95020000 0.114146 1.7050 0.993459 -88.02 0.993459 -88.02 0.114142 2.2553
8.95040000 0.114157 1.7099 0.993457 -88.02 0.993457 -88.02 0.114154 2.2441
8.95060000 0.114169 1.7149 0.993456 -88.03 0.993456 -88.03 0.114166 2.2329
8.95080000 0.114180 1.7200 0.993455 -88.03 0.993455 -88.03 0.114177 2.2217
8.95100000 0.114192 1.7250 0.993453 -88.03 0.993453 -88.03 0.114189 2.2105
8.95120000 0.114204 1.7301 0.993452 -88.04 0.993452 -88.04 0.114201 2.1992
8.95140000 0.114216 1.7351 0.993451 -88.04 0.993451 -88.04 0.114212 2.1879
8.95160000 0.114227 1.7403 0.993449 -88.04 0.993449 -88.04 0.114224 2.1766
8.95180000 0.114239 1.7454 0.993448 -88.05 0.993448 -88.05 0.114236 2.1652
8.95200000 0.114251 1.7505 0.993446 -88.05 0.993446 -88.05 0.114248 2.1538
8.95220000 0.114263 1.7557 0.993445 -88.05 0.993445 -88.05 0.114259 2.1424
8.95240000 0.114275 1.7609 0.993444 -88.05 0.993444 -88.05 0.114271 2.1310
8.95260000 0.114287 1.7661 0.993442 -88.06 0.993442 -88.06 0.114283 2.1195
8.95280000 0.114299 1.7713 0.993441 -88.06 0.993441 -88.06 0.114295 2.1080
8.95300000 0.114310 1.7766 0.993440 -88.06 0.993440 -88.06 0.114307 2.0965
8.95320000 0.114322 1.7819 0.993438 -88.07 0.993438 -88.07 0.114319 2.0849
8.95340000 0.114335 1.7872 0.993437 -88.07 0.993437 -88.07 0.114331 2.0733
8.95360000 0.114347 1.7925 0.993435 -88.07 0.993435 -88.07 0.114343 2.0617
8.95380000 0.114359 1.7979 0.993434 -88.08 0.993434 -88.08 0.114355 2.0501
8.95400000 0.114371 1.8032 0.993433 -88.08 0.993433 -88.08 0.114367 2.0384
8.95420000 0.114383 1.8086 0.993431 -88.08 0.993431 -88.08 0.114379 2.0267
8.95440000 0.114395 1.8140 0.993430 -88.09 0.993430 -88.09 0.114392 2.0150
8.95460000 0.114407 1.8195 0.993428 -88.09 0.993428 -88.09 0.114404 2.0032
8.95480000 0.114419 1.8249 0.993427 -88.09 0.993427 -88.09 0.114416 1.9914
8.95500000 0.114432 1.8304 0.993426 -88.10 0.993426 -88.10 0.114428 1.9796
8.95520000 0.114444 1.8359 0.993424 -88.10 0.993424 -88.10 0.114440 1.9677
8.95540000 0.114456 1.8414 0.993423 -88.10 0.993423 -88.10 0.114453 1.9558
8.95560000 0.114469 1.8470 0.993421 -88.11 0.993421 -88.11 0.114465 1.9439
8.95580000 0.114481 1.8526 0.993420 -88.11 0.993420 -88.11 0.114477 1.9320
8.95600000 0.114493 1.8582 0.993418 -88.11 0.993418 -88.11 0.114490 1.9200
8.95620000 0.114506 1.8638 0.993417 -88.11 0.993417 -88.11 0.114502 1.9080
8.95640000 0.114518 1.8694 0.993416 -88.12 0.993416 -88.12 0.114515 1.8959
8.95660000 0.114531 1.8751 0.993414 -88.12 0.993414 -88.12 0.114527 1.8839
8.95680000 0.114543 1.8808 0.993413 -88.12 0.993413 -88.12 0.114540 1.8718
8.95700000 0.114556 1.8865 0.993411 -88.13 0.993411 -88.13 0.114552 1.8596
8.95720000 0.114568 1.8923 0.993410 -88.13 0.993410 -88.13 0.114565 1.8475
8.95740000 0.114581 1.8981 0.993408 -88.13 0.993408 -88.13 0.114577 1.8353
8.95760000 0.114594 1.9038 0.993407 -88.14 0.993407 -88.14 0.114590 1.8230
8.95780000 0.114606 1.9097 0.993405 -88.14 0.993405 -88.14 0.114603 1.8108
8.95800000 0.114619 1.9155 0.993404 -88.14 0.993404 -88.14 0.114615 1.7985
8.95820000 0.114632 1.9214 0.993402 -88.15 0.993402 -88.15 0.114628 1.7861
8.95840000 0.114645 1.9273 0.993401 -88.15 0.993401 -88.15 0.114641 1.7738
8.95860000 0.114657 1.9332 0.993399 -88.15 0.993399 -88.15 0.114654 1.7614
8.95880000 0.114670 1.9391 0.993398 -88.16 0.993398 -88.16 0.114666 1.7490
8.95900000 0.114683 1.9451 0.993396 -88.16 0.993396 -88.16 0.114679 1.7365
8.95920000 0.114696 1.9511 0.993395 -88.16 0.993395 -88.16 0.114692 1.7240
8.95940000 0.114709 1.9571 0.993393 -88.17 0.993393 -88.17 0.114705 1.7115
8.95960000 0.114722 1.9631 0.993392 -88.17 0.993392 -88.17 0.114718 1.6989
8.95980000 0.114735 1.9692 0.993390 -88.17 0.993390 -88.17 0.114731 1.6863
8.96000000 0.114748 1.9753 0.993389 -88.18 0.993389 -88.18 0.114744 1.6737
8.96020000 0.114761 1.9814 0.993387 -88.18 0.993387 -88.18 0.114757 1.6610
8.96040000 0.114774 1.9876 0.993386 -88.18 0.993386 -88.18 0.114770 1.6483
8.96060000 0.114787 1.9938 0.993384 -88.19 0.993384 -88.19 0.114783 1.6356
8.96080000 0.114800 2.0000 0.993383 -88.19 0.993383 -88.19 0.114797 1.6228
8.96100000 0.114814 2.0062 0.993381 -88.19 0.993381 -88.19 0.114810 1.6100
8.96120000 0.114827 2.0124 0.993380 -88.20 0.993380 -88.20 0.114823 1.5972
8.96140000 0.114840 2.0187 0.993378 -88.20 0.993378 -88.20 0.114836 1.5843
8.96160000 0.114854 2.0250 0.993377 -88.20 0.993377 -88.20 0.114850 1.5714
8.96180000 0.114867 2.0314 0.993375 -88.21 0.993375 -88.21 0.114863 1.5584
8.96200000 0.114880 2.0377 0.993374 -88.21 0.993374 -88.21 0.114876 1.5455
8.96220000 0.114894 2.0441 0.993372 -88.21 0.993372 -88.21 0.114890 1.5324
8.96240000 0.114907 2.0505 0.993370 -88.22 0.993370 -88.22 0.114903 1.5194
8.96260000 0.114921 2.0570 0.993369 -88.22 0.993369 -88.22 0.114917 1.5063
8.96280000 0.114934 2.0634 0.993367 -88.22 0.993367 -88.22 0.114930 1.4932
8.96300000 0.114948 2.0699 0.993366 -88.23 0.993366 -88.23 0.114944 1.4800
8.96320000 0.114961 2.0765 0.993364 -88.23 0.993364 -88.23 0.114957 1.4668
8.96340000 0.114975 2.0830 0.993363 -88.23 0.993363 -88.23 0.114971 1.4536
8.96360000 0.114989 2.0896 0.993361 -88.24 0.993361 -88.24 0.114985 1.4403
8.96380000 0.115002 2.0962 0.993359 -88.24 0.993359 -88.24 0.114998 1.4270
8.96400000 0.115016 2.1029 0.993358 -88.24 0.993358 -88.24 0.115012 1.4136
8.96420000 0.115030 2.1095 0.993356 -88.25 0.993356 -88.25 0.115026 1.4003
8.96440000 0.115044 2.1162 0.993355 -88.25 0.993355 -88.25 0.115040 1.3868
8.96460000 0.115058 2.1229 0.993353 -88.25 0.993353 -88.25 0.115053 1.3734
8.96480000 0.115072 2.1297 0.993351 -88.26 0.993351 -88.26 0.115067 1.3599
8.96500000 0.115085 2.1365 0.993350 -88.26 0.993350 -88.26 0.115081 1.3463
8.96520000 0.115099 2.1433 0.993348 -88.26 0.993348 -88.26 0.115095 1.3328
8.96540000 0.115113 2.1501 0.993346 -88.27 0.993346 -88.27 0.115109 1.3191
8.96560000 0.115128 2.1570 0.993345 -88.27 0.993345 -88.27 0.115123 1.3055
8.96580000 0.115142 2.1639 0.993343 -88.27 0.993343 -88.27 0.115137 1.2918
8.96600000 0.115156 2.1708 0.993342 -88.28 0.993342 -88.28 0.115151 1.2781
8.96620000 0.115170 2.1778 0.993340 -88.28 0.993340 -88.28 0.115166 1.2643
8.96640000 0.115184 2.1848 0.993338 -88.28 0.993338 -88.28 0.115180 1.2505
8.96660000 0.115198 2.1918 0.993337 -88.29 0.993337 -88.29 0.115194 1.2366
8.96680000 0.115213 2.1989 0.993335 -88.29 0.993335 -88.29 0.115208 1.2227
8.96700000 0.115227 2.2060 0.993333 -88.29 0.993333 -88.29 0.115223 1.2088
8.96720000 0.115241 2.2131 0.993332 -88.30 0.993332 -88.30 0.115237 1.1948
8.96740000 0.115256 2.2202 0.993330 -88.30 0.993330 -88.30 0.115251 1.1808
8.96760000 0.115270 2.2274 0.993328 -88.30 0.993328 -88.30 0.115266 1.1667
8.96780000 0.115285 2.2346 0.993326 -88.31 0.993326 -88.31 0.115280 1.1526
8.96800000 0.115299 2.2418 0.993325 -88.31 0.993325 -88.31 0.115295 1.1385
8.96820000 0.115314 2.2491 0.993323 -88.31 0.993323 -88.31 0.115310 1.1243
8.96840000 0.115329 2.2564 0.993321 -88.32 0.993321 -88.32 0.115324 1.1101
8.96860000 0.115343 2.2638 0.993320 -88.32 0.993320 -88.32 0.115339 1.0958
8.96880000 0.115358 2.2711 0.993318 -88.32 0.993318 -88.32 0.115354 1.0815
8.96900000 0.115373 2.2785 0.993316 -88.33 0.993316 -88.33 0.115368 1.0672
8.96920000 0.115388 2.2860 0.993314 -88.33 0.993314 -88.33 0.115383 1.0528
8.96940000 0.115402 2.2934 0.993313 -88.33 0.993313 -88.33 0.115398 1.0383
8.96960000 0.115417 2.3009 0.993311 -88.34 0.993311 -88.34 0.115413 1.0239
8.96980000 0.115432 2.3084 0.993309 -88.34 0.993309 -88.34 0.115428 1.0093
8.97000000 0.115447 2.3160 0.993308 -88.34 0.993308 -88.34 0.115443 0.9948
8.97020000 0.115462 2.3236 0.993306 -88.35 0.993306 -88.35 0.115458 0.9802
8.97040000 0.115477 2.3312 0.993304 -88.35 0.993304 -88.35 0.115473 0.9655
8.97060000 0.115493 2.3389 0.993302 -88.36 0.993302 -88.36 0.115488 0.9508
8.97080000 0.115508 2.3466 0.993300 -88.36 0.993300 -88.36 0.115503 0.9361
8.97100000 0.115523 2.3543 0.993299 -88.36 0.993299 -88.36 0.115518 0.9213
!< P1 F=8.971 Eeff=(6.44501889 -2.9711e-5) Z0=(50.6183158 1.16784e-4) R=0.0 C=0.0 
!< P2 F=8.971 Eeff=(6.44501889 -2.9711e-5) Z0=(50.6183158 1.16784e-4) R=0.0 C=0.0 
8.97120000 0.115538 2.3621 0.993297 -88.37 0.993297 -88.37 0.115533 0.9064
8.97140000 0.115553 2.3699 0.993295 -88.37 0.993295 -88.37 0.115549 0.8916
8.97160000 0.115569 2.3777 0.993293 -88.37 0.993293 -88.37 0.115564 0.8766
8.97180000 0.115584 2.3856 0.993292 -88.38 0.993292 -88.38 0.115579 0.8617
8.97200000 0.115600 2.3935 0.993290 -88.38 0.993290 -88.38 0.115595 0.8467
8.97220000 0.115615 2.4014 0.993288 -88.38 0.993288 -88.38 0.115610 0.8316
8.97240000 0.115631 2.4094 0.993286 -88.39 0.993286 -88.39 0.115626 0.8165
8.97260000 0.115646 2.4174 0.993284 -88.39 0.993284 -88.39 0.115641 0.8013
8.97280000 0.115662 2.4254 0.993282 -88.39 0.993282 -88.39 0.115657 0.7861
8.97300000 0.115678 2.4335 0.993281 -88.40 0.993281 -88.40 0.115673 0.7709
8.97320000 0.115693 2.4416 0.993279 -88.40 0.993279 -88.40 0.115688 0.7556
8.97340000 0.115709 2.4498 0.993277 -88.41 0.993277 -88.41 0.115704 0.7402
8.97360000 0.115725 2.4580 0.993275 -88.41 0.993275 -88.41 0.115720 0.7248
8.97380000 0.115741 2.4662 0.993273 -88.41 0.993273 -88.41 0.115736 0.7094
8.97400000 0.115757 2.4744 0.993271 -88.42 0.993271 -88.42 0.115752 0.6939
8.97420000 0.115773 2.4827 0.993269 -88.42 0.993269 -88.42 0.115768 0.6784
8.97440000 0.115789 2.4911 0.993268 -88.42 0.993268 -88.42 0.115784 0.6628
8.97460000 0.115805 2.4994 0.993266 -88.43 0.993266 -88.43 0.115800 0.6472
8.97480000 0.115821 2.5079 0.993264 -88.43 0.993264 -88.43 0.115816 0.6315
8.97500000 0.115837 2.5163 0.993262 -88.43 0.993262 -88.43 0.115832 0.6157
8.97520000 0.115854 2.5248 0.993260 -88.44 0.993260 -88.44 0.115848 0.5999
8.97540000 0.115870 2.5333 0.993258 -88.44 0.993258 -88.44 0.115865 0.5841
8.97560000 0.115886 2.5419 0.993256 -88.45 0.993256 -88.45 0.115881 0.5682
8.97580000 0.115903 2.5505 0.993254 -88.45 0.993254 -88.45 0.115897 0.5523
8.97600000 0.115919 2.5591 0.993252 -88.45 0.993252 -88.45 0.115914 0.5363
8.97620000 0.115936 2.5678 0.993250 -88.46 0.993250 -88.46 0.115930 0.5203
8.97640000 0.115952 2.5765 0.993248 -88.46 0.993248 -88.46 0.115947 0.5042
8.97660000 0.115969 2.5852 0.993246 -88.46 0.993246 -88.46 0.115964 0.4880
8.97680000 0.115985 2.5940 0.993244 -88.47 0.993244 -88.47 0.115980 0.4718
8.97700000 0.116002 2.6029 0.993243 -88.47 0.993243 -88.47 0.115997 0.4556
8.97720000 0.116019 2.6117 0.993241 -88.47 0.993241 -88.47 0.116014 0.4393
8.97740000 0.116036 2.6206 0.993239 -88.48 0.993239 -88.48 0.116030 0.4229
8.97760000 0.116053 2.6296 0.993237 -88.48 0.993237 -88.48 0.116047 0.4065
8.97780000 0.116070 2.6386 0.993235 -88.49 0.993235 -88.49 0.116064 0.3901
8.97800000 0.116087 2.6476 0.993233 -88.49 0.993233 -88.49 0.116081 0.3735
8.97820000 0.116104 2.6567 0.993231 -88.49 0.993231 -88.49 0.116098 0.3570
8.97840000 0.116121 2.6658 0.993229 -88.50 0.993229 -88.50 0.116115 0.3403
8.97860000 0.116138 2.6750 0.993227 -88.50 0.993227 -88.50 0.116133 0.3237
8.97880000 0.116155 2.6842 0.993225 -88.50 0.993225 -88.50 0.116150 0.3069
8.97900000 0.116173 2.6934 0.993222 -88.51 0.993222 -88.51 0.116167 0.2901
8.97920000 0.116190 2.7027 0.993220 -88.51 0.993220 -88.51 0.116184 0.2733
8.97940000 0.116207 2.7120 0.993218 -88.52 0.993218 -88.52 0.116202 0.2564
8.97960000 0.116225 2.7214 0.993216 -88.52 0.993216 -88.52 0.116219 0.2394
8.97980000 0.116243 2.7308 0.993214 -88.52 0.993214 -88.52 0.116237 0.2224
8.98000000 0.116260 2.7403 0.993212 -88.53 0.993212 -88.53 0.116254 0.2053
8.98020000 0.116278 2.7498 0.993210 -88.53 0.993210 -88.53 0.116272 0.1882
8.98040000 0.116296 2.7593 0.993208 -88.54 0.993208 -88.54 0.116290 0.1710
8.98060000 0.116313 2.7689 0.993206 -88.54 0.993206 -88.54 0.116308 0.1538
8.98080000 0.116331 2.7785 0.993204 -88.54 0.993204 -88.54 0.116325 0.1365
8.98100000 0.116349 2.7882 0.993202 -88.55 0.993202 -88.55 0.116343 0.1191
8.98120000 0.116367 2.7979 0.993200 -88.55 0.993200 -88.55 0.116361 0.1017
8.98140000 0.116385 2.8077 0.993197 -88.55 0.993197 -88.55 0.116379 0.0842
8.98160000 0.116403 2.8175 0.993195 -88.56 0.993195 -88.56 0.116397 0.0667
8.98180000 0.116421 2.8273 0.993193 -88.56 0.993193 -88.56 0.116416 0.0490
8.98200000 0.116440 2.8372 0.993191 -88.57 0.993191 -88.57 0.116434 0.0314
8.98220000 0.116458 2.8472 0.993189 -88.57 0.993189 -88.57 0.116452 0.0137
8.98240000 0.116476 2.8572 0.993187 -88.57 0.993187 -88.57 0.116470 0.0000
8.98260000 0.116495 2.8672 0.993185 -88.58 0.993185 -88.58 0.116489 -0.022
8.98280000 0.116513 2.8773 0.993182 -88.58 0.993182 -88.58 0.116507 -0.040
8.98300000 0.116532 2.8874 0.993180 -88.59 0.993180 -88.59 0.116526 -0.058
8.98320000 0.116550 2.8976 0.993178 -88.59 0.993178 -88.59 0.116544 -0.076
8.98340000 0.116569 2.9078 0.993176 -88.59 0.993176 -88.59 0.116563 -0.094
8.98360000 0.116588 2.9181 0.993174 -88.60 0.993174 -88.60 0.116582 -0.112
8.98380000 0.116607 2.9284 0.993171 -88.60 0.993171 -88.60 0.116601 -0.130
8.98400000 0.116626 2.9388 0.993169 -88.61 0.993169 -88.61 0.116620 -0.149
8.98420000 0.116645 2.9492 0.993167 -88.61 0.993167 -88.61 0.116639 -0.167
8.98440000 0.116664 2.9596 0.993165 -88.61 0.993165 -88.61 0.116658 -0.185
8.98460000 0.116683 2.9702 0.993162 -88.62 0.993162 -88.62 0.116677 -0.204
8.98480000 0.116702 2.9807 0.993160 -88.62 0.993160 -88.62 0.116696 -0.222
8.98500000 0.116721 2.9913 0.993158 -88.62 0.993158 -88.62 0.116715 -0.241
8.98520000 0.116741 3.0020 0.993155 -88.63 0.993155 -88.63 0.116734 -0.260
8.98540000 0.116760 3.0127 0.993153 -88.63 0.993153 -88.63 0.116754 -0.279
8.98560000 0.116780 3.0235 0.993151 -88.64 0.993151 -88.64 0.116773 -0.297
8.98580000 0.116799 3.0343 0.993149 -88.64 0.993149 -88.64 0.116793 -0.316
8.98600000 0.116819 3.0451 0.993146 -88.65 0.993146 -88.65 0.116812 -0.335
8.98620000 0.116839 3.0561 0.993144 -88.65 0.993144 -88.65 0.116832 -0.354
8.98640000 0.116858 3.0670 0.993142 -88.65 0.993142 -88.65 0.116852 -0.373
8.98660000 0.116878 3.0780 0.993139 -88.66 0.993139 -88.66 0.116872 -0.392
8.98680000 0.116898 3.0891 0.993137 -88.66 0.993137 -88.66 0.116892 -0.412
8.98700000 0.116918 3.1002 0.993134 -88.67 0.993134 -88.67 0.116912 -0.431
8.98720000 0.116938 3.1114 0.993132 -88.67 0.993132 -88.67 0.116932 -0.450
8.98740000 0.116958 3.1227 0.993130 -88.67 0.993130 -88.67 0.116952 -0.470
8.98760000 0.116979 3.1339 0.993127 -88.68 0.993127 -88.68 0.116972 -0.489
8.98780000 0.116999 3.1453 0.993125 -88.68 0.993125 -88.68 0.116992 -0.509
8.98800000 0.117019 3.1567 0.993122 -88.69 0.993122 -88.69 0.117013 -0.528
8.98820000 0.117040 3.1681 0.993120 -88.69 0.993120 -88.69 0.117033 -0.548
8.98840000 0.117061 3.1796 0.993118 -88.69 0.993118 -88.69 0.117054 -0.568
8.98860000 0.117081 3.1912 0.993115 -88.70 0.993115 -88.70 0.117074 -0.588
8.98880000 0.117102 3.2028 0.993113 -88.70 0.993113 -88.70 0.117095 -0.608
8.98900000 0.117123 3.2145 0.993110 -88.71 0.993110 -88.71 0.117116 -0.628
8.98920000 0.117144 3.2262 0.993108 -88.71 0.993108 -88.71 0.117137 -0.648
8.98940000 0.117165 3.2380 0.993105 -88.72 0.993105 -88.72 0.117158 -0.668
8.98960000 0.117186 3.2498 0.993103 -88.72 0.993103 -88.72 0.117179 -0.688
8.98980000 0.117207 3.2617 0.993100 -88.72 0.993100 -88.72 0.117200 -0.709
8.99000000 0.117228 3.2736 0.993098 -88.73 0.993098 -88.73 0.117221 -0.729
8.99020000 0.117250 3.2856 0.993095 -88.73 0.993095 -88.73 0.117243 -0.750
8.99040000 0.117271 3.2977 0.993093 -88.74 0.993093 -88.74 0.117264 -0.770
8.99060000 0.117292 3.3098 0.993090 -88.74 0.993090 -88.74 0.117285 -0.791
8.99080000 0.117314 3.3220 0.993088 -88.74 0.993088 -88.74 0.117307 -0.811
8.99100000 0.117336 3.3343 0.993085 -88.75 0.993085 -88.75 0.117329 -0.832
8.99120000 0.117358 3.3466 0.993082 -88.75 0.993082 -88.75 0.117350 -0.853
8.99140000 0.117379 3.3589 0.993080 -88.76 0.993080 -88.76 0.117372 -0.874
8.99160000 0.117401 3.3714 0.993077 -88.76 0.993077 -88.76 0.117394 -0.895
8.99180000 0.117423 3.3839 0.993075 -88.77 0.993075 -88.77 0.117416 -0.916
8.99200000 0.117446 3.3964 0.993072 -88.77 0.993072 -88.77 0.117438 -0.937
8.99220000 0.117468 3.4090 0.993069 -88.77 0.993069 -88.77 0.117460 -0.959
8.99240000 0.117490 3.4217 0.993067 -88.78 0.993067 -88.78 0.117483 -0.980
8.99260000 0.117513 3.4344 0.993064 -88.78 0.993064 -88.78 0.117505 -1.002
8.99280000 0.117535 3.4472 0.993061 -88.79 0.993061 -88.79 0.117528 -1.023
8.99300000 0.117558 3.4601 0.993059 -88.79 0.993059 -88.79 0.117550 -1.045
8.99320000 0.117580 3.4730 0.993056 -88.80 0.993056 -88.80 0.117573 -1.066
8.99340000 0.117603 3.4860 0.993053 -88.80 0.993053 -88.80 0.117596 -1.088
8.99360000 0.117626 3.4990 0.993050 -88.81 0.993050 -88.81 0.117619 -1.110
8.99380000 0.117649 3.5121 0.993048 -88.81 0.993048 -88.81 0.117642 -1.132
8.99400000 0.117672 3.5253 0.993045 -88.81 0.993045 -88.81 0.117665 -1.154
8.99420000 0.117696 3.5386 0.993042 -88.82 0.993042 -88.82 0.117688 -1.176
8.99440000 0.117719 3.5519 0.993039 -88.82 0.993039 -88.82 0.117711 -1.198
8.99460000 0.117742 3.5652 0.993037 -88.83 0.993037 -88.83 0.117735 -1.221
8.99480000 0.117766 3.5787 0.993034 -88.83 0.993034 -88.83 0.117758 -1.243
8.99500000 0.117789 3.5922 0.993031 -88.84 0.993031 -88.84 0.117782 -1.266
8.99520000 0.117813 3.6058 0.993028 -88.84 0.993028 -88.84 0.117805 -1.288
8.99540000 0.117837 3.6194 0.993025 -88.85 0.993025 -88.85 0.117829 -1.311
8.99560000 0.117861 3.6331 0.993022 -88.85 0.993022 -88.85 0.117853 -1.334
8.99580000 0.117885 3.6469 0.993019 -88.85 0.993019 -88.85 0.117877 -1.356
8.99600000 0.117909 3.6608 0.993017 -88.86 0.993017 -88.86 0.117901 -1.379
8.99620000 0.117933 3.6747 0.993014 -88.86 0.993014 -88.86 0.117925 -1.402
8.99640000 0.117958 3.6887 0.993011 -88.87 0.993011 -88.87 0.117950 -1.426
8.99660000 0.117982 3.7028 0.993008 -88.87 0.993008 -88.87 0.117974 -1.449
8.99680000 0.118007 3.7169 0.993005 -88.88 0.993005 -88.88 0.117999 -1.472
8.99700000 0.118032 3.7311 0.993002 -88.88 0.993002 -88.88 0.118023 -1.496
8.99720000 0.118056 3.7454 0.992999 -88.89 0.992999 -88.89 0.118048 -1.519
8.99740000 0.118081 3.7597 0.992996 -88.89 0.992996 -88.89 0.118073 -1.543
8.99760000 0.118106 3.7742 0.992993 -88.90 0.992993 -88.90 0.118098 -1.566
8.99780000 0.118132 3.7887 0.992990 -88.90 0.992990 -88.90 0.118123 -1.590
8.99800000 0.118157 3.8032 0.992987 -88.91 0.992987 -88.91 0.118148 -1.614
8.99820000 0.118182 3.8179 0.992984 -88.91 0.992984 -88.91 0.118174 -1.638
8.99840000 0.118208 3.8326 0.992981 -88.91 0.992981 -88.91 0.118199 -1.662
8.99860000 0.118233 3.8474 0.992978 -88.92 0.992978 -88.92 0.118225 -1.687
8.99880000 0.118259 3.8623 0.992975 -88.92 0.992975 -88.92 0.118251 -1.711
8.99900000 0.118285 3.8772 0.992972 -88.93 0.992972 -88.93 0.118276 -1.735
8.99920000 0.118311 3.8922 0.992968 -88.93 0.992968 -88.93 0.118302 -1.760
8.99940000 0.118337 3.9073 0.992965 -88.94 0.992965 -88.94 0.118328 -1.784
8.99960000 0.118363 3.9225 0.992962 -88.94 0.992962 -88.94 0.118355 -1.809
8.99980000 0.118390 3.9378 0.992959 -88.95 0.992959 -88.95 0.118381 -1.834
9.00000000 0.118416 3.9531 0.992956 -88.95 0.992956 -88.95 0.118408 -1.859
9.00020000 0.118443 3.9686 0.992953 -88.96 0.992953 -88.96 0.118434 -1.884
9.00040000 0.118470 3.9841 0.992949 -88.96 0.992949 -88.96 0.118461 -1.909
9.00060000 0.118497 3.9996 0.992946 -88.97 0.992946 -88.97 0.118488 -1.934
9.00080000 0.118524 4.0153 0.992943 -88.97 0.992943 -88.97 0.118515 -1.960
9.00100000 0.118551 4.0310 0.992940 -88.98 0.992940 -88.98 0.118542 -1.985
9.00120000 0.118578 4.0469 0.992936 -88.98 0.992936 -88.98 0.118569 -2.011
9.00140000 0.118606 4.0628 0.992933 -88.99 0.992933 -88.99 0.118596 -2.037
9.00160000 0.118633 4.0788 0.992930 -88.99 0.992930 -88.99 0.118624 -2.062
9.00180000 0.118661 4.0949 0.992926 -89.00 0.992926 -89.00 0.118652 -2.088
9.00200000 0.118689 4.1110 0.992923 -89.00 0.992923 -89.00 0.118679 -2.115
9.00220000 0.118717 4.1273 0.992920 -89.01 0.992920 -89.01 0.118707 -2.141
9.00240000 0.118745 4.1436 0.992916 -89.01 0.992916 -89.01 0.118735 -2.167
9.00260000 0.118773 4.1600 0.992913 -89.02 0.992913 -89.02 0.118764 -2.193
9.00280000 0.118801 4.1765 0.992909 -89.02 0.992909 -89.02 0.118792 -2.220
9.00300000 0.118830 4.1931 0.992906 -89.03 0.992906 -89.03 0.118820 -2.247
9.00320000 0.118859 4.2098 0.992903 -89.03 0.992903 -89.03 0.118849 -2.273
9.00340000 0.118887 4.2266 0.992899 -89.04 0.992899 -89.04 0.118878 -2.300
9.00360000 0.118916 4.2434 0.992896 -89.04 0.992896 -89.04 0.118907 -2.327
9.00380000 0.118946 4.2604 0.992892 -89.05 0.992892 -89.05 0.118936 -2.354
9.00400000 0.118975 4.2774 0.992889 -89.05 0.992889 -89.05 0.118965 -2.382
9.00420000 0.119004 4.2946 0.992885 -89.06 0.992885 -89.06 0.118995 -2.409
9.00440000 0.119034 4.3118 0.992881 -89.06 0.992881 -89.06 0.119024 -2.436
9.00460000 0.119064 4.3291 0.992878 -89.07 0.992878 -89.07 0.119054 -2.464
9.00480000 0.119094 4.3465 0.992874 -89.07 0.992874 -89.07 0.119084 -2.492
9.00500000 0.119124 4.3640 0.992871 -89.08 0.992871 -89.08 0.119114 -2.520
9.00520000 0.119154 4.3816 0.992867 -89.08 0.992867 -89.08 0.119144 -2.548
9.00540000 0.119184 4.3993 0.992863 -89.09 0.992863 -89.09 0.119174 -2.576
9.00560000 0.119215 4.4171 0.992860 -89.09 0.992860 -89.09 0.119205 -2.604
9.00580000 0.119245 4.4350 0.992856 -89.10 0.992856 -89.10 0.119235 -2.632
9.00600000 0.119276 4.4530 0.992852 -89.10 0.992852 -89.10 0.119266 -2.661
9.00620000 0.119307 4.4711 0.992848 -89.11 0.992848 -89.11 0.119297 -2.690
9.00640000 0.119338 4.4893 0.992845 -89.11 0.992845 -89.11 0.119328 -2.718
9.00660000 0.119370 4.5075 0.992841 -89.12 0.992841 -89.12 0.119359 -2.747
9.00680000 0.119401 4.5259 0.992837 -89.12 0.992837 -89.12 0.119391 -2.776
9.00700000 0.119433 4.5444 0.992833 -89.13 0.992833 -89.13 0.119423 -2.806
9.00720000 0.119465 4.5630 0.992829 -89.14 0.992829 -89.14 0.119454 -2.835
9.00740000 0.119497 4.5817 0.992825 -89.14 0.992825 -89.14 0.119486 -2.864
9.00760000 0.119529 4.6005 0.992821 -89.15 0.992821 -89.15 0.119519 -2.894
9.00780000 0.119562 4.6194 0.992818 -89.15 0.992818 -89.15 0.119551 -2.924
9.00800000 0.119594 4.6384 0.992814 -89.16 0.992814 -89.16 0.119583 -2.954
9.00820000 0.119627 4.6575 0.992810 -89.16 0.992810 -89.16 0.119616 -2.984
9.00840000 0.119660 4.6767 0.992806 -89.17 0.992806 -89.17 0.119649 -3.014
9.00860000 0.119693 4.6960 0.992802 -89.17 0.992802 -89.17 0.119682 -3.044
9.00880000 0.119726 4.7155 0.992798 -89.18 0.992798 -89.18 0.119715 -3.075
9.00900000 0.119760 4.7350 0.992793 -89.18 0.992793 -89.18 0.119749 -3.105
9.00920000 0.119794 4.7546 0.992789 -89.19 0.992789 -89.19 0.119782 -3.136
9.00940000 0.119828 4.7744 0.992785 -89.20 0.992785 -89.20 0.119816 -3.167
9.00960000 0.119862 4.7943 0.992781 -89.20 0.992781 -89.20 0.119850 -3.198
9.00980000 0.119896 4.8142 0.992777 -89.21 0.992777 -89.21 0.119885 -3.230
9.01000000 0.119930 4.8343 0.992773 -89.21 0.992773 -89.21 0.119919 -3.261
9.01020000 0.119965 4.8545 0.992768 -89.22 0.992768 -89.22 0.119954 -3.292
9.01040000 0.120000 4.8749 0.992764 -89.22 0.992764 -89.22 0.119988 -3.324
9.01060000 0.120035 4.8953 0.992760 -89.23 0.992760 -89.23 0.120023 -3.356
9.01080000 0.120070 4.9159 0.992756 -89.24 0.992756 -89.24 0.120059 -3.388
9.01100000 0.120106 4.9365 0.992751 -89.24 0.992751 -89.24 0.120094 -3.420
9.01120000 0.120141 4.9573 0.992747 -89.25 0.992747 -89.25 0.120130 -3.453
9.01140000 0.120177 4.9782 0.992743 -89.25 0.992743 -89.25 0.120165 -3.485
9.01160000 0.120214 4.9993 0.992738 -89.26 0.992738 -89.26 0.120202 -3.518
9.01180000 0.120250 5.0204 0.992734 -89.26 0.992734 -89.26 0.120238 -3.551
9.01200000 0.120286 5.0417 0.992729 -89.27 0.992729 -89.27 0.120274 -3.584
9.01220000 0.120323 5.0631 0.992725 -89.28 0.992725 -89.28 0.120311 -3.617
9.01240000 0.120360 5.0846 0.992720 -89.28 0.992720 -89.28 0.120348 -3.650
9.01260000 0.120397 5.1062 0.992716 -89.29 0.992716 -89.29 0.120385 -3.684
9.01280000 0.120435 5.1280 0.992711 -89.29 0.992711 -89.29 0.120422 -3.717
9.01300000 0.120473 5.1499 0.992707 -89.30 0.992707 -89.30 0.120460 -3.751
9.01320000 0.120510 5.1719 0.992702 -89.31 0.992702 -89.31 0.120498 -3.785
9.01340000 0.120549 5.1941 0.992697 -89.31 0.992697 -89.31 0.120536 -3.819
9.01360000 0.120587 5.2164 0.992693 -89.32 0.992693 -89.32 0.120574 -3.854
9.01380000 0.120626 5.2388 0.992688 -89.32 0.992688 -89.32 0.120613 -3.888
9.01400000 0.120664 5.2613 0.992683 -89.33 0.992683 -89.33 0.120652 -3.923
9.01420000 0.120703 5.2840 0.992678 -89.34 0.992678 -89.34 0.120691 -3.958
9.01440000 0.120743 5.3068 0.992673 -89.34 0.992673 -89.34 0.120730 -3.993
9.01460000 0.120782 5.3298 0.992669 -89.35 0.992669 -89.35 0.120769 -4.028
9.01480000 0.120822 5.3528 0.992664 -89.35 0.992664 -89.35 0.120809 -4.064
9.01500000 0.120862 5.3761 0.992659 -89.36 0.992659 -89.36 0.120849 -4.099
9.01520000 0.120903 5.3994 0.992654 -89.37 0.992654 -89.37 0.120889 -4.135
9.01540000 0.120943 5.4229 0.992649 -89.37 0.992649 -89.37 0.120930 -4.171
9.01560000 0.120984 5.4465 0.992644 -89.38 0.992644 -89.38 0.120971 -4.208
9.01580000 0.121025 5.4703 0.992639 -89.39 0.992639 -89.39 0.121012 -4.244
9.01600000 0.121067 5.4942 0.992634 -89.39 0.992634 -89.39 0.121053 -4.281
9.01620000 0.121108 5.5183 0.992628 -89.40 0.992628 -89.40 0.121095 -4.318
9.01640000 0.121150 5.5425 0.992623 -89.40 0.992623 -89.40 0.121136 -4.355
9.01660000 0.121192 5.5669 0.992618 -89.41 0.992618 -89.41 0.121179 -4.392
9.01680000 0.121235 5.5914 0.992613 -89.42 0.992613 -89.42 0.121221 -4.429
9.01700000 0.121278 5.6160 0.992608 -89.42 0.992608 -89.42 0.121264 -4.467
9.01720000 0.121321 5.6408 0.992602 -89.43 0.992602 -89.43 0.121307 -4.505
9.01740000 0.121364 5.6658 0.992597 -89.44 0.992597 -89.44 0.121350 -4.543
9.01760000 0.121408 5.6909 0.992592 -89.44 0.992592 -89.44 0.121393 -4.581
9.01780000 0.121451 5.7161 0.992586 -89.45 0.992586 -89.45 0.121437 -4.619
9.01800000 0.121496 5.7416 0.992581 -89.46 0.992581 -89.46 0.121481 -4.658
9.01820000 0.121540 5.7671 0.992575 -89.46 0.992575 -89.46 0.121526 -4.697
9.01840000 0.121585 5.7929 0.992570 -89.47 0.992570 -89.47 0.121570 -4.736
9.01860000 0.121630 5.8187 0.992564 -89.48 0.992564 -89.48 0.121615 -4.776
9.01880000 0.121675 5.8448 0.992559 -89.48 0.992559 -89.48 0.121661 -4.815
9.01900000 0.121721 5.8710 0.992553 -89.49 0.992553 -89.49 0.121706 -4.855
9.01920000 0.121767 5.8974 0.992547 -89.50 0.992547 -89.50 0.121752 -4.895
9.01940000 0.121814 5.9239 0.992541 -89.50 0.992541 -89.50 0.121798 -4.935
9.01960000 0.121860 5.9506 0.992536 -89.51 0.992536 -89.51 0.121845 -4.976
9.01980000 0.121907 5.9775 0.992530 -89.52 0.992530 -89.52 0.121892 -5.016
9.02000000 0.121955 6.0045 0.992524 -89.53 0.992524 -89.53 0.121939 -5.057
9.02020000 0.122002 6.0317 0.992518 -89.53 0.992518 -89.53 0.121987 -5.098
9.02040000 0.122050 6.0591 0.992512 -89.54 0.992512 -89.54 0.122035 -5.140
9.02060000 0.122099 6.0866 0.992506 -89.55 0.992506 -89.55 0.122083 -5.181
9.02080000 0.122147 6.1144 0.992500 -89.55 0.992500 -89.55 0.122131 -5.223
9.02100000 0.122196 6.1423 0.992494 -89.56 0.992494 -89.56 0.122180 -5.265
9.02120000 0.122246 6.1704 0.992488 -89.57 0.992488 -89.57 0.122230 -5.308
9.02140000 0.122295 6.1986 0.992482 -89.57 0.992482 -89.57 0.122279 -5.350
9.02160000 0.122345 6.2270 0.992475 -89.58 0.992475 -89.58 0.122329 -5.393
9.02180000 0.122396 6.2557 0.992469 -89.59 0.992469 -89.59 0.122380 -5.436
9.02200000 0.122447 6.2845 0.992463 -89.60 0.992463 -89.60 0.122430 -5.480
9.02220000 0.122498 6.3135 0.992456 -89.60 0.992456 -89.60 0.122481 -5.523
9.02240000 0.122550 6.3426 0.992450 -89.61 0.992450 -89.61 0.122533 -5.567
9.02260000 0.122601 6.3720 0.992444 -89.62 0.992444 -89.62 0.122585 -5.612
9.02280000 0.122654 6.4016 0.992437 -89.63 0.992437 -89.63 0.122637 -5.656
9.02300000 0.122707 6.4313 0.992430 -89.63 0.992430 -89.63 0.122690 -5.701
9.02320000 0.122760 6.4612 0.992424 -89.64 0.992424 -89.64 0.122743 -5.746
9.02340000 0.122813 6.4914 0.992417 -89.65 0.992417 -89.65 0.122796 -5.791
9.02360000 0.122867 6.5217 0.992410 -89.66 0.992410 -89.66 0.122850 -5.836
9.02380000 0.122921 6.5522 0.992404 -89.66 0.992404 -89.66 0.122904 -5.882
9.02400000 0.122976 6.5830 0.992397 -89.67 0.992397 -89.67 0.122959 -5.928
9.02420000 0.123031 6.6139 0.992390 -89.68 0.992390 -89.68 0.123014 -5.975
9.02440000 0.123087 6.6450 0.992383 -89.69 0.992383 -89.69 0.123069 -6.021
9.02460000 0.123143 6.6764 0.992376 -89.69 0.992376 -89.69 0.123125 -6.068
9.02480000 0.123199 6.7079 0.992369 -89.70 0.992369 -89.70 0.123181 -6.115
9.02500000 0.123256 6.7397 0.992362 -89.71 0.992362 -89.71 0.123238 -6.163
9.02520000 0.123314 6.7717 0.992354 -89.72 0.992354 -89.72 0.123295 -6.211
9.02540000 0.123371 6.8039 0.992347 -89.73 0.992347 -89.73 0.123353 -6.259
9.02560000 0.123430 6.8363 0.992340 -89.73 0.992340 -89.73 0.123411 -6.307
9.02580000 0.123488 6.8689 0.992333 -89.74 0.992333 -89.74 0.123470 -6.356
9.02600000 0.123547 6.9017 0.992325 -89.75 0.992325 -89.75 0.123529 -6.405
9.02620000 0.123607 6.9348 0.992318 -89.76 0.992318 -89.76 0.123588 -6.454
9.02640000 0.123667 6.9681 0.992310 -89.77 0.992310 -89.77 0.123648 -6.504
9.02660000 0.123728 7.0016 0.992302 -89.77 0.992302 -89.77 0.123709 -6.554
9.02680000 0.123789 7.0353 0.992295 -89.78 0.992295 -89.78 0.123770 -6.604
9.02700000 0.123850 7.0693 0.992287 -89.79 0.992287 -89.79 0.123831 -6.655
9.02720000 0.123912 7.1035 0.992279 -89.80 0.992279 -89.80 0.123893 -6.706
9.02740000 0.123975 7.1380 0.992271 -89.81 0.992271 -89.81 0.123955 -6.757
9.02760000 0.124038 7.1726 0.992263 -89.82 0.992263 -89.82 0.124018 -6.809
9.02780000 0.124102 7.2076 0.992255 -89.82 0.992255 -89.82 0.124082 -6.861
9.02800000 0.124166 7.2427 0.992247 -89.83 0.992247 -89.83 0.124146 -6.913