! Sonnet Data File
! From: emgraph Version : 16.52
! From Project: Resonator2_cp_cp
! Data is De-embedded 
! Data File Written: 10/06/2017 09:20:30
!< HDATE 10/05/2017 21:11:40
!< MDATE 10/05/2017 21:11:40
!< PARAMS
!< gap = 16.0
!< Length = 400.0
!< Pwid1 = 2000.0
!< Pwid2 = 2000.0
!< END PARAMS
# GHZ S MA R 51.80000
8.80000000 0.001605 -1.223 0.999995 -80.58 0.999995 -80.58 0.001606 20.204
!< P1 F=8.8 Eeff=(6.44679989 -2.9721e-5) Z0=(51.7992624 1.19519e-4) R=0.0 C=0.0 
!< P2 F=8.8 Eeff=(6.44679989 -2.9721e-5) Z0=(51.7992624 1.19519e-4) R=0.0 C=0.0 
8.80020000 0.001607 -1.229 0.999995 -80.59 0.999995 -80.59 0.001608 20.206
8.80040000 0.001609 -1.234 0.999995 -80.59 0.999995 -80.59 0.001609 20.207
8.80060000 0.001610 -1.239 0.999995 -80.59 0.999995 -80.59 0.001611 20.208
8.80080000 0.001612 -1.244 0.999995 -80.59 0.999995 -80.59 0.001613 20.209
8.80100000 0.001614 -1.249 0.999995 -80.59 0.999995 -80.59 0.001615 20.210
8.80120000 0.001615 -1.254 0.999995 -80.59 0.999995 -80.59 0.001616 20.211
8.80140000 0.001617 -1.260 0.999995 -80.60 0.999995 -80.60 0.001618 20.212
8.80160000 0.001619 -1.265 0.999995 -80.60 0.999995 -80.60 0.001620 20.213
8.80180000 0.001621 -1.270 0.999995 -80.60 0.999995 -80.60 0.001622 20.215
8.80200000 0.001622 -1.275 0.999995 -80.60 0.999995 -80.60 0.001623 20.216
8.80220000 0.001624 -1.280 0.999995 -80.60 0.999995 -80.60 0.001625 20.217
8.80240000 0.001626 -1.285 0.999995 -80.61 0.999995 -80.61 0.001627 20.218
8.80260000 0.001628 -1.291 0.999995 -80.61 0.999995 -80.61 0.001629 20.219
8.80280000 0.001630 -1.296 0.999995 -80.61 0.999995 -80.61 0.001630 20.220
8.80300000 0.001631 -1.301 0.999995 -80.61 0.999995 -80.61 0.001632 20.221
8.80320000 0.001633 -1.306 0.999995 -80.61 0.999995 -80.61 0.001634 20.223
8.80340000 0.001635 -1.312 0.999995 -80.62 0.999995 -80.62 0.001636 20.224
8.80360000 0.001637 -1.317 0.999995 -80.62 0.999995 -80.62 0.001638 20.225
8.80380000 0.001639 -1.322 0.999995 -80.62 0.999995 -80.62 0.001640 20.226
8.80400000 0.001640 -1.327 0.999995 -80.62 0.999995 -80.62 0.001641 20.227
8.80420000 0.001642 -1.333 0.999995 -80.62 0.999995 -80.62 0.001643 20.228
8.80440000 0.001644 -1.338 0.999995 -80.63 0.999995 -80.63 0.001645 20.230
8.80460000 0.001646 -1.343 0.999995 -80.63 0.999995 -80.63 0.001647 20.231
8.80480000 0.001648 -1.348 0.999995 -80.63 0.999995 -80.63 0.001649 20.232
8.80500000 0.001650 -1.354 0.999995 -80.63 0.999995 -80.63 0.001651 20.233
8.80520000 0.001652 -1.359 0.999995 -80.63 0.999995 -80.63 0.001653 20.234
8.80540000 0.001653 -1.364 0.999995 -80.64 0.999995 -80.64 0.001654 20.236
8.80560000 0.001655 -1.370 0.999995 -80.64 0.999995 -80.64 0.001656 20.237
8.80580000 0.001657 -1.375 0.999995 -80.64 0.999995 -80.64 0.001658 20.238
8.80600000 0.001659 -1.380 0.999995 -80.64 0.999995 -80.64 0.001660 20.239
8.80620000 0.001661 -1.385 0.999995 -80.64 0.999995 -80.64 0.001662 20.240
8.80640000 0.001663 -1.391 0.999995 -80.65 0.999995 -80.65 0.001664 20.242
8.80660000 0.001665 -1.396 0.999995 -80.65 0.999995 -80.65 0.001666 20.243
8.80680000 0.001667 -1.401 0.999995 -80.65 0.999995 -80.65 0.001668 20.244
8.80700000 0.001669 -1.407 0.999995 -80.65 0.999995 -80.65 0.001670 20.245
8.80720000 0.001671 -1.412 0.999995 -80.65 0.999995 -80.65 0.001672 20.247
8.80740000 0.001673 -1.418 0.999995 -80.65 0.999995 -80.65 0.001674 20.248
8.80760000 0.001675 -1.423 0.999995 -80.66 0.999995 -80.66 0.001676 20.249
8.80780000 0.001677 -1.428 0.999995 -80.66 0.999995 -80.66 0.001678 20.250
8.80800000 0.001679 -1.434 0.999995 -80.66 0.999995 -80.66 0.001680 20.252
8.80820000 0.001681 -1.439 0.999995 -80.66 0.999995 -80.66 0.001682 20.253
8.80840000 0.001683 -1.444 0.999995 -80.66 0.999995 -80.66 0.001684 20.254
8.80860000 0.001685 -1.450 0.999995 -80.67 0.999995 -80.67 0.001686 20.255
8.80880000 0.001687 -1.455 0.999995 -80.67 0.999995 -80.67 0.001688 20.257
8.80900000 0.001689 -1.461 0.999995 -80.67 0.999995 -80.67 0.001690 20.258
8.80920000 0.001691 -1.466 0.999995 -80.67 0.999995 -80.67 0.001692 20.259
8.80940000 0.001693 -1.471 0.999995 -80.67 0.999995 -80.67 0.001694 20.261
8.80960000 0.001695 -1.477 0.999995 -80.68 0.999995 -80.68 0.001696 20.262
8.80980000 0.001697 -1.482 0.999995 -80.68 0.999995 -80.68 0.001698 20.263
8.81000000 0.001699 -1.488 0.999995 -80.68 0.999995 -80.68 0.001700 20.265
8.81020000 0.001701 -1.493 0.999995 -80.68 0.999995 -80.68 0.001702 20.266
8.81040000 0.001703 -1.499 0.999995 -80.68 0.999995 -80.68 0.001704 20.267
8.81060000 0.001705 -1.504 0.999995 -80.69 0.999995 -80.69 0.001706 20.269
8.81080000 0.001708 -1.510 0.999995 -80.69 0.999995 -80.69 0.001708 20.270
8.81100000 0.001710 -1.515 0.999995 -80.69 0.999995 -80.69 0.001711 20.271
8.81120000 0.001712 -1.521 0.999995 -80.69 0.999995 -80.69 0.001713 20.273
8.81140000 0.001714 -1.526 0.999995 -80.69 0.999995 -80.69 0.001715 20.274
8.81160000 0.001716 -1.532 0.999995 -80.70 0.999995 -80.70 0.001717 20.275
8.81180000 0.001718 -1.537 0.999995 -80.70 0.999995 -80.70 0.001719 20.277
8.81200000 0.001720 -1.543 0.999995 -80.70 0.999995 -80.70 0.001721 20.278
8.81220000 0.001723 -1.548 0.999995 -80.70 0.999995 -80.70 0.001724 20.279
8.81240000 0.001725 -1.554 0.999995 -80.70 0.999995 -80.70 0.001726 20.281
8.81260000 0.001727 -1.559 0.999995 -80.71 0.999995 -80.71 0.001728 20.282
8.81280000 0.001729 -1.565 0.999995 -80.71 0.999995 -80.71 0.001730 20.284
8.81300000 0.001732 -1.570 0.999995 -80.71 0.999995 -80.71 0.001732 20.285
8.81320000 0.001734 -1.576 0.999995 -80.71 0.999995 -80.71 0.001735 20.286
8.81340000 0.001736 -1.581 0.999995 -80.71 0.999995 -80.71 0.001737 20.288
8.81360000 0.001738 -1.587 0.999995 -80.72 0.999995 -80.72 0.001739 20.289
8.81380000 0.001741 -1.593 0.999995 -80.72 0.999995 -80.72 0.001741 20.291
8.81400000 0.001743 -1.598 0.999995 -80.72 0.999995 -80.72 0.001744 20.292
8.81420000 0.001745 -1.604 0.999995 -80.72 0.999995 -80.72 0.001746 20.294
8.81440000 0.001747 -1.609 0.999995 -80.72 0.999995 -80.72 0.001748 20.295
8.81460000 0.001750 -1.615 0.999995 -80.73 0.999995 -80.73 0.001751 20.296
8.81480000 0.001752 -1.621 0.999995 -80.73 0.999995 -80.73 0.001753 20.298
8.81500000 0.001754 -1.626 0.999995 -80.73 0.999995 -80.73 0.001755 20.299
8.81520000 0.001757 -1.632 0.999995 -80.73 0.999995 -80.73 0.001758 20.301
8.81540000 0.001759 -1.637 0.999995 -80.73 0.999995 -80.73 0.001760 20.302
8.81560000 0.001761 -1.643 0.999995 -80.73 0.999995 -80.73 0.001762 20.304
8.81580000 0.001764 -1.649 0.999995 -80.74 0.999995 -80.74 0.001765 20.305
8.81600000 0.001766 -1.654 0.999995 -80.74 0.999995 -80.74 0.001767 20.307
8.81620000 0.001769 -1.660 0.999995 -80.74 0.999995 -80.74 0.001769 20.308
8.81640000 0.001771 -1.666 0.999995 -80.74 0.999995 -80.74 0.001772 20.310
8.81660000 0.001773 -1.671 0.999995 -80.74 0.999995 -80.74 0.001774 20.311
8.81680000 0.001776 -1.677 0.999995 -80.75 0.999995 -80.75 0.001777 20.313
8.81700000 0.001778 -1.683 0.999995 -80.75 0.999995 -80.75 0.001779 20.314
8.81720000 0.001781 -1.689 0.999995 -80.75 0.999995 -80.75 0.001782 20.316
8.81740000 0.001783 -1.694 0.999995 -80.75 0.999995 -80.75 0.001784 20.317
8.81760000 0.001786 -1.700 0.999995 -80.75 0.999995 -80.75 0.001787 20.319
8.81780000 0.001788 -1.706 0.999995 -80.76 0.999995 -80.76 0.001789 20.320
8.81800000 0.001791 -1.711 0.999995 -80.76 0.999995 -80.76 0.001792 20.322
8.81820000 0.001793 -1.717 0.999995 -80.76 0.999995 -80.76 0.001794 20.323
8.81840000 0.001796 -1.723 0.999995 -80.76 0.999995 -80.76 0.001797 20.325
8.81860000 0.001798 -1.729 0.999995 -80.76 0.999995 -80.76 0.001799 20.326
8.81880000 0.001801 -1.735 0.999995 -80.77 0.999995 -80.77 0.001802 20.328
8.81900000 0.001803 -1.740 0.999995 -80.77 0.999995 -80.77 0.001804 20.330
8.81920000 0.001806 -1.746 0.999995 -80.77 0.999995 -80.77 0.001807 20.331
8.81940000 0.001808 -1.752 0.999995 -80.77 0.999995 -80.77 0.001809 20.333
8.81960000 0.001811 -1.758 0.999995 -80.77 0.999995 -80.77 0.001812 20.334
8.81980000 0.001814 -1.763 0.999995 -80.78 0.999995 -80.78 0.001815 20.336
8.82000000 0.001816 -1.769 0.999995 -80.78 0.999995 -80.78 0.001817 20.337
8.82020000 0.001819 -1.775 0.999995 -80.78 0.999995 -80.78 0.001820 20.339
8.82040000 0.001822 -1.781 0.999995 -80.78 0.999995 -80.78 0.001823 20.341
8.82060000 0.001824 -1.787 0.999995 -80.78 0.999995 -80.78 0.001825 20.342
8.82080000 0.001827 -1.793 0.999995 -80.79 0.999995 -80.79 0.001828 20.344
8.82100000 0.001830 -1.799 0.999995 -80.79 0.999995 -80.79 0.001831 20.346
8.82120000 0.001832 -1.804 0.999995 -80.79 0.999995 -80.79 0.001833 20.347
8.82140000 0.001835 -1.810 0.999995 -80.79 0.999995 -80.79 0.001836 20.349
8.82160000 0.001838 -1.816 0.999995 -80.79 0.999995 -80.79 0.001839 20.350
8.82180000 0.001841 -1.822 0.999995 -80.80 0.999995 -80.80 0.001842 20.352
8.82200000 0.001843 -1.828 0.999995 -80.80 0.999995 -80.80 0.001844 20.354
8.82220000 0.001846 -1.834 0.999995 -80.80 0.999995 -80.80 0.001847 20.355
8.82240000 0.001849 -1.840 0.999995 -80.80 0.999995 -80.80 0.001850 20.357
8.82260000 0.001852 -1.846 0.999995 -80.80 0.999995 -80.80 0.001853 20.359
8.82280000 0.001855 -1.852 0.999995 -80.81 0.999995 -80.81 0.001855 20.360
8.82300000 0.001857 -1.858 0.999995 -80.81 0.999995 -80.81 0.001858 20.362
8.82320000 0.001860 -1.864 0.999995 -80.81 0.999995 -80.81 0.001861 20.364
8.82340000 0.001863 -1.869 0.999995 -80.81 0.999995 -80.81 0.001864 20.365
8.82360000 0.001866 -1.875 0.999995 -80.81 0.999995 -80.81 0.001867 20.367
8.82380000 0.001869 -1.881 0.999995 -80.82 0.999995 -80.82 0.001870 20.369
8.82400000 0.001872 -1.887 0.999995 -80.82 0.999995 -80.82 0.001873 20.371
8.82420000 0.001875 -1.893 0.999995 -80.82 0.999995 -80.82 0.001876 20.372
8.82440000 0.001878 -1.899 0.999995 -80.82 0.999995 -80.82 0.001879 20.374
8.82460000 0.001881 -1.905 0.999995 -80.82 0.999995 -80.82 0.001882 20.376
8.82480000 0.001884 -1.911 0.999995 -80.83 0.999995 -80.83 0.001884 20.377
8.82500000 0.001887 -1.917 0.999995 -80.83 0.999995 -80.83 0.001887 20.379
8.82520000 0.001890 -1.924 0.999995 -80.83 0.999995 -80.83 0.001890 20.381
8.82540000 0.001893 -1.930 0.999995 -80.83 0.999995 -80.83 0.001893 20.383
8.82560000 0.001896 -1.936 0.999995 -80.83 0.999995 -80.83 0.001897 20.385
8.82580000 0.001899 -1.942 0.999995 -80.84 0.999995 -80.84 0.001900 20.386
8.82600000 0.001902 -1.948 0.999995 -80.84 0.999995 -80.84 0.001903 20.388
8.82620000 0.001905 -1.954 0.999995 -80.84 0.999995 -80.84 0.001906 20.390
8.82640000 0.001908 -1.960 0.999995 -80.84 0.999995 -80.84 0.001909 20.392
8.82660000 0.001911 -1.966 0.999995 -80.84 0.999995 -80.84 0.001912 20.393
8.82680000 0.001914 -1.972 0.999995 -80.85 0.999995 -80.85 0.001915 20.395
8.82700000 0.001917 -1.978 0.999995 -80.85 0.999995 -80.85 0.001918 20.397
8.82720000 0.001920 -1.984 0.999995 -80.85 0.999995 -80.85 0.001921 20.399
8.82740000 0.001924 -1.991 0.999995 -80.85 0.999995 -80.85 0.001925 20.401
8.82760000 0.001927 -1.997 0.999995 -80.85 0.999995 -80.85 0.001928 20.402
8.82780000 0.001930 -2.003 0.999995 -80.86 0.999995 -80.86 0.001931 20.404
8.82800000 0.001933 -2.009 0.999995 -80.86 0.999995 -80.86 0.001934 20.406
8.82820000 0.001937 -2.015 0.999995 -80.86 0.999995 -80.86 0.001937 20.408
8.82840000 0.001940 -2.021 0.999995 -80.86 0.999995 -80.86 0.001941 20.410
8.82860000 0.001943 -2.028 0.999995 -80.86 0.999995 -80.86 0.001944 20.412
8.82880000 0.001946 -2.034 0.999994 -80.87 0.999994 -80.87 0.001947 20.414
8.82900000 0.001950 -2.040 0.999994 -80.87 0.999994 -80.87 0.001951 20.415
8.82920000 0.001953 -2.046 0.999994 -80.87 0.999994 -80.87 0.001954 20.417
8.82940000 0.001956 -2.052 0.999994 -80.87 0.999994 -80.87 0.001957 20.419
8.82960000 0.001960 -2.059 0.999994 -80.87 0.999994 -80.87 0.001961 20.421
8.82980000 0.001963 -2.065 0.999994 -80.88 0.999994 -80.88 0.001964 20.423
8.83000000 0.001967 -2.071 0.999994 -80.88 0.999994 -80.88 0.001968 20.425
8.83020000 0.001970 -2.078 0.999994 -80.88 0.999994 -80.88 0.001971 20.427
8.83040000 0.001974 -2.084 0.999994 -80.88 0.999994 -80.88 0.001974 20.429
8.83060000 0.001977 -2.090 0.999994 -80.88 0.999994 -80.88 0.001978 20.431
8.83080000 0.001980 -2.096 0.999994 -80.89 0.999994 -80.89 0.001981 20.433
8.83100000 0.001984 -2.103 0.999994 -80.89 0.999994 -80.89 0.001985 20.435
8.83120000 0.001988 -2.109 0.999994 -80.89 0.999994 -80.89 0.001989 20.436
8.83140000 0.001991 -2.115 0.999994 -80.89 0.999994 -80.89 0.001992 20.438
8.83160000 0.001995 -2.122 0.999994 -80.89 0.999994 -80.89 0.001996 20.440
8.83180000 0.001998 -2.128 0.999994 -80.90 0.999994 -80.90 0.001999 20.442
8.83200000 0.002002 -2.134 0.999994 -80.90 0.999994 -80.90 0.002003 20.444
8.83220000 0.002006 -2.141 0.999994 -80.90 0.999994 -80.90 0.002007 20.446
8.83240000 0.002009 -2.147 0.999994 -80.90 0.999994 -80.90 0.002010 20.448
8.83260000 0.002013 -2.154 0.999994 -80.90 0.999994 -80.90 0.002014 20.450
8.83280000 0.002017 -2.160 0.999994 -80.91 0.999994 -80.91 0.002018 20.452
8.83300000 0.002020 -2.166 0.999994 -80.91 0.999994 -80.91 0.002021 20.454
8.83320000 0.002024 -2.173 0.999994 -80.91 0.999994 -80.91 0.002025 20.456
8.83340000 0.002028 -2.179 0.999994 -80.91 0.999994 -80.91 0.002029 20.458
8.83360000 0.002032 -2.186 0.999994 -80.92 0.999994 -80.92 0.002033 20.460
8.83380000 0.002035 -2.192 0.999994 -80.92 0.999994 -80.92 0.002036 20.462
8.83400000 0.002039 -2.199 0.999994 -80.92 0.999994 -80.92 0.002040 20.464
8.83420000 0.002043 -2.205 0.999994 -80.92 0.999994 -80.92 0.002044 20.466
8.83440000 0.002047 -2.212 0.999994 -80.92 0.999994 -80.92 0.002048 20.468
8.83460000 0.002051 -2.218 0.999994 -80.93 0.999994 -80.93 0.002052 20.471
8.83480000 0.002055 -2.225 0.999994 -80.93 0.999994 -80.93 0.002056 20.473
8.83500000 0.002059 -2.231 0.999994 -80.93 0.999994 -80.93 0.002060 20.475
8.83520000 0.002063 -2.238 0.999994 -80.93 0.999994 -80.93 0.002064 20.477
8.83540000 0.002067 -2.244 0.999994 -80.93 0.999994 -80.93 0.002068 20.479
8.83560000 0.002071 -2.251 0.999994 -80.94 0.999994 -80.94 0.002072 20.481
8.83580000 0.002075 -2.257 0.999994 -80.94 0.999994 -80.94 0.002076 20.483
8.83600000 0.002079 -2.264 0.999994 -80.94 0.999994 -80.94 0.002080 20.485
8.83620000 0.002083 -2.271 0.999994 -80.94 0.999994 -80.94 0.002084 20.487
8.83640000 0.002087 -2.277 0.999994 -80.94 0.999994 -80.94 0.002088 20.489
8.83660000 0.002091 -2.284 0.999994 -80.95 0.999994 -80.95 0.002092 20.491
8.83680000 0.002096 -2.290 0.999994 -80.95 0.999994 -80.95 0.002097 20.494
8.83700000 0.002100 -2.297 0.999994 -80.95 0.999994 -80.95 0.002101 20.496
8.83720000 0.002104 -2.304 0.999994 -80.95 0.999994 -80.95 0.002105 20.498
8.83740000 0.002108 -2.310 0.999994 -80.95 0.999994 -80.95 0.002109 20.500
8.83760000 0.002113 -2.317 0.999994 -80.96 0.999994 -80.96 0.002114 20.502
8.83780000 0.002117 -2.324 0.999994 -80.96 0.999994 -80.96 0.002118 20.504
8.83800000 0.002121 -2.330 0.999994 -80.96 0.999994 -80.96 0.002122 20.507
8.83820000 0.002126 -2.337 0.999994 -80.96 0.999994 -80.96 0.002127 20.509
8.83840000 0.002130 -2.344 0.999994 -80.96 0.999994 -80.96 0.002131 20.511
8.83860000 0.002135 -2.350 0.999994 -80.97 0.999994 -80.97 0.002136 20.513
8.83880000 0.002139 -2.357 0.999994 -80.97 0.999994 -80.97 0.002140 20.515
8.83900000 0.002143 -2.364 0.999994 -80.97 0.999994 -80.97 0.002144 20.518
8.83920000 0.002148 -2.371 0.999994 -80.97 0.999994 -80.97 0.002149 20.520
8.83940000 0.002153 -2.377 0.999994 -80.98 0.999994 -80.98 0.002154 20.522
8.83960000 0.002157 -2.384 0.999994 -80.98 0.999994 -80.98 0.002158 20.524
8.83980000 0.002162 -2.391 0.999994 -80.98 0.999994 -80.98 0.002163 20.527
8.84000000 0.002166 -2.398 0.999994 -80.98 0.999994 -80.98 0.002167 20.529
8.84020000 0.002171 -2.405 0.999994 -80.98 0.999994 -80.98 0.002172 20.531
8.84040000 0.002176 -2.412 0.999994 -80.99 0.999994 -80.99 0.002177 20.533
8.84060000 0.002180 -2.418 0.999994 -80.99 0.999994 -80.99 0.002181 20.536
8.84080000 0.002185 -2.425 0.999994 -80.99 0.999994 -80.99 0.002186 20.538
8.84100000 0.002190 -2.432 0.999994 -80.99 0.999994 -80.99 0.002191 20.540
8.84120000 0.002195 -2.439 0.999994 -80.99 0.999994 -80.99 0.002196 20.542
8.84140000 0.002200 -2.446 0.999994 -81.00 0.999994 -81.00 0.002201 20.545
8.84160000 0.002205 -2.453 0.999994 -81.00 0.999994 -81.00 0.002206 20.547
8.84180000 0.002210 -2.460 0.999994 -81.00 0.999994 -81.00 0.002211 20.549
8.84200000 0.002214 -2.467 0.999994 -81.00 0.999994 -81.00 0.002215 20.552
8.84220000 0.002219 -2.474 0.999994 -81.00 0.999994 -81.00 0.002220 20.554
8.84240000 0.002224 -2.481 0.999994 -81.01 0.999994 -81.01 0.002225 20.556
8.84260000 0.002230 -2.488 0.999994 -81.01 0.999994 -81.01 0.002231 20.559
8.84280000 0.002235 -2.495 0.999994 -81.01 0.999994 -81.01 0.002236 20.561
8.84300000 0.002240 -2.502 0.999994 -81.01 0.999994 -81.01 0.002241 20.563
8.84320000 0.002245 -2.509 0.999994 -81.02 0.999994 -81.02 0.002246 20.566
8.84340000 0.002250 -2.516 0.999994 -81.02 0.999994 -81.02 0.002251 20.568
8.84360000 0.002255 -2.523 0.999994 -81.02 0.999994 -81.02 0.002256 20.571
8.84380000 0.002261 -2.530 0.999994 -81.02 0.999994 -81.02 0.002262 20.573
8.84400000 0.002266 -2.537 0.999994 -81.02 0.999994 -81.02 0.002267 20.575
8.84420000 0.002271 -2.544 0.999994 -81.03 0.999994 -81.03 0.002272 20.578
8.84440000 0.002277 -2.551 0.999994 -81.03 0.999994 -81.03 0.002278 20.580
8.84460000 0.002282 -2.558 0.999994 -81.03 0.999994 -81.03 0.002283 20.583
8.84480000 0.002288 -2.565 0.999994 -81.03 0.999994 -81.03 0.002289 20.585
8.84500000 0.002293 -2.572 0.999994 -81.03 0.999994 -81.03 0.002294 20.587
8.84520000 0.002299 -2.579 0.999994 -81.04 0.999994 -81.04 0.002300 20.590
8.84540000 0.002304 -2.587 0.999993 -81.04 0.999993 -81.04 0.002305 20.592
8.84560000 0.002310 -2.594 0.999993 -81.04 0.999993 -81.04 0.002311 20.595
8.84580000 0.002316 -2.601 0.999993 -81.04 0.999993 -81.04 0.002317 20.597
8.84600000 0.002321 -2.608 0.999993 -81.05 0.999993 -81.05 0.002322 20.600
8.84620000 0.002327 -2.615 0.999993 -81.05 0.999993 -81.05 0.002328 20.602
8.84640000 0.002333 -2.623 0.999993 -81.05 0.999993 -81.05 0.002334 20.605
8.84660000 0.002339 -2.630 0.999993 -81.05 0.999993 -81.05 0.002340 20.607
8.84680000 0.002344 -2.637 0.999993 -81.05 0.999993 -81.05 0.002345 20.610
8.84700000 0.002350 -2.644 0.999993 -81.06 0.999993 -81.06 0.002351 20.612
8.84720000 0.002356 -2.652 0.999993 -81.06 0.999993 -81.06 0.002357 20.615
8.84740000 0.002362 -2.659 0.999993 -81.06 0.999993 -81.06 0.002363 20.617
8.84760000 0.002368 -2.666 0.999993 -81.06 0.999993 -81.06 0.002369 20.620
8.84780000 0.002375 -2.674 0.999993 -81.06 0.999993 -81.06 0.002376 20.622
8.84800000 0.002381 -2.681 0.999993 -81.07 0.999993 -81.07 0.002382 20.625
8.84820000 0.002387 -2.688 0.999993 -81.07 0.999993 -81.07 0.002388 20.627
8.84840000 0.002393 -2.696 0.999993 -81.07 0.999993 -81.07 0.002394 20.630
8.84860000 0.002399 -2.703 0.999993 -81.07 0.999993 -81.07 0.002400 20.632
8.84880000 0.002406 -2.710 0.999993 -81.08 0.999993 -81.08 0.002407 20.635
8.84900000 0.002412 -2.718 0.999993 -81.08 0.999993 -81.08 0.002413 20.638
8.84920000 0.002419 -2.725 0.999993 -81.08 0.999993 -81.08 0.002420 20.640
8.84940000 0.002425 -2.733 0.999993 -81.08 0.999993 -81.08 0.002426 20.643
8.84960000 0.002432 -2.740 0.999993 -81.08 0.999993 -81.08 0.002433 20.645
8.84980000 0.002438 -2.748 0.999993 -81.09 0.999993 -81.09 0.002439 20.648
8.85000000 0.002445 -2.755 0.999993 -81.09 0.999993 -81.09 0.002446 20.651
8.85020000 0.002452 -2.763 0.999993 -81.09 0.999993 -81.09 0.002453 20.653
8.85040000 0.002458 -2.770 0.999993 -81.09 0.999993 -81.09 0.002459 20.656
8.85060000 0.002465 -2.778 0.999993 -81.10 0.999993 -81.10 0.002466 20.659
8.85080000 0.002472 -2.785 0.999993 -81.10 0.999993 -81.10 0.002473 20.661
8.85100000 0.002479 -2.793 0.999993 -81.10 0.999993 -81.10 0.002480 20.664
8.85120000 0.002486 -2.800 0.999993 -81.10 0.999993 -81.10 0.002487 20.667
8.85140000 0.002493 -2.808 0.999993 -81.10 0.999993 -81.10 0.002494 20.669
8.85160000 0.002500 -2.816 0.999993 -81.11 0.999993 -81.11 0.002501 20.672
8.85180000 0.002507 -2.823 0.999993 -81.11 0.999993 -81.11 0.002508 20.675
8.85200000 0.002514 -2.831 0.999993 -81.11 0.999993 -81.11 0.002515 20.677
8.85220000 0.002521 -2.839 0.999993 -81.11 0.999993 -81.11 0.002523 20.680
8.85240000 0.002529 -2.846 0.999993 -81.12 0.999993 -81.12 0.002530 20.683
8.85260000 0.002536 -2.854 0.999993 -81.12 0.999993 -81.12 0.002537 20.685
8.85280000 0.002544 -2.862 0.999993 -81.12 0.999993 -81.12 0.002545 20.688
8.85300000 0.002551 -2.870 0.999993 -81.12 0.999993 -81.12 0.002552 20.691
8.85320000 0.002559 -2.877 0.999993 -81.12 0.999993 -81.12 0.002560 20.694
8.85340000 0.002566 -2.885 0.999993 -81.13 0.999993 -81.13 0.002567 20.696
8.85360000 0.002574 -2.893 0.999993 -81.13 0.999993 -81.13 0.002575 20.699
8.85380000 0.002582 -2.901 0.999993 -81.13 0.999993 -81.13 0.002583 20.702
8.85400000 0.002590 -2.909 0.999993 -81.13 0.999993 -81.13 0.002591 20.705
8.85420000 0.002597 -2.916 0.999993 -81.14 0.999993 -81.14 0.002598 20.707
8.85440000 0.002605 -2.924 0.999993 -81.14 0.999993 -81.14 0.002606 20.710
8.85460000 0.002613 -2.932 0.999992 -81.14 0.999992 -81.14 0.002614 20.713
8.85480000 0.002622 -2.940 0.999992 -81.14 0.999992 -81.14 0.002623 20.716
8.85500000 0.002630 -2.948 0.999992 -81.15 0.999992 -81.15 0.002631 20.719
8.85520000 0.002638 -2.956 0.999992 -81.15 0.999992 -81.15 0.002639 20.721
8.85540000 0.002646 -2.964 0.999992 -81.15 0.999992 -81.15 0.002647 20.724
8.85560000 0.002655 -2.972 0.999992 -81.15 0.999992 -81.15 0.002656 20.727
8.85580000 0.002663 -2.980 0.999992 -81.15 0.999992 -81.15 0.002664 20.730
8.85600000 0.002672 -2.988 0.999992 -81.16 0.999992 -81.16 0.002673 20.733
8.85620000 0.002680 -2.996 0.999992 -81.16 0.999992 -81.16 0.002681 20.736
8.85640000 0.002689 -3.004 0.999992 -81.16 0.999992 -81.16 0.002690 20.739
8.85660000 0.002698 -3.012 0.999992 -81.16 0.999992 -81.16 0.002699 20.741
8.85680000 0.002707 -3.020 0.999992 -81.17 0.999992 -81.17 0.002708 20.744
8.85700000 0.002716 -3.028 0.999992 -81.17 0.999992 -81.17 0.002717 20.747
8.85720000 0.002725 -3.036 0.999992 -81.17 0.999992 -81.17 0.002726 20.750
8.85740000 0.002734 -3.044 0.999992 -81.17 0.999992 -81.17 0.002735 20.753
8.85760000 0.002743 -3.053 0.999992 -81.18 0.999992 -81.18 0.002744 20.756
8.85780000 0.002752 -3.061 0.999992 -81.18 0.999992 -81.18 0.002753 20.759
8.85800000 0.002761 -3.069 0.999992 -81.18 0.999992 -81.18 0.002762 20.762
8.85820000 0.002771 -3.077 0.999992 -81.18 0.999992 -81.18 0.002772 20.765
8.85840000 0.002780 -3.085 0.999992 -81.18 0.999992 -81.18 0.002781 20.768
8.85860000 0.002790 -3.094 0.999992 -81.19 0.999992 -81.19 0.002791 20.770
8.85880000 0.002800 -3.102 0.999992 -81.19 0.999992 -81.19 0.002801 20.773
8.85900000 0.002810 -3.110 0.999992 -81.19 0.999992 -81.19 0.002811 20.776
8.85920000 0.002819 -3.119 0.999992 -81.19 0.999992 -81.19 0.002820 20.779
8.85940000 0.002829 -3.127 0.999992 -81.20 0.999992 -81.20 0.002830 20.782
8.85960000 0.002840 -3.135 0.999992 -81.20 0.999992 -81.20 0.002841 20.785
8.85980000 0.002850 -3.144 0.999992 -81.20 0.999992 -81.20 0.002851 20.788
8.86000000 0.002860 -3.152 0.999992 -81.20 0.999992 -81.20 0.002861 20.791
8.86020000 0.002870 -3.161 0.999992 -81.21 0.999992 -81.21 0.002871 20.794
8.86040000 0.002881 -3.169 0.999991 -81.21 0.999991 -81.21 0.002882 20.797
8.86060000 0.002891 -3.178 0.999991 -81.21 0.999991 -81.21 0.002893 20.800
8.86080000 0.002902 -3.186 0.999991 -81.21 0.999991 -81.21 0.002903 20.803
8.86100000 0.002913 -3.195 0.999991 -81.22 0.999991 -81.22 0.002914 20.806
8.86120000 0.002924 -3.203 0.999991 -81.22 0.999991 -81.22 0.002925 20.809
8.86140000 0.002935 -3.212 0.999991 -81.22 0.999991 -81.22 0.002936 20.812
8.86160000 0.002946 -3.220 0.999991 -81.22 0.999991 -81.22 0.002947 20.815
8.86180000 0.002957 -3.229 0.999991 -81.23 0.999991 -81.23 0.002958 20.818
8.86200000 0.002969 -3.237 0.999991 -81.23 0.999991 -81.23 0.002970 20.821
8.86220000 0.002980 -3.246 0.999991 -81.23 0.999991 -81.23 0.002981 20.824
8.86240000 0.002992 -3.255 0.999991 -81.23 0.999991 -81.23 0.002993 20.827
8.86260000 0.003004 -3.264 0.999991 -81.24 0.999991 -81.24 0.003005 20.831
8.86280000 0.003015 -3.272 0.999991 -81.24 0.999991 -81.24 0.003017 20.834
8.86300000 0.003027 -3.281 0.999991 -81.24 0.999991 -81.24 0.003029 20.837
8.86320000 0.003040 -3.290 0.999991 -81.24 0.999991 -81.24 0.003041 20.840
8.86340000 0.003052 -3.299 0.999991 -81.25 0.999991 -81.25 0.003053 20.843
8.86360000 0.003064 -3.307 0.999991 -81.25 0.999991 -81.25 0.003065 20.846
8.86380000 0.003077 -3.316 0.999991 -81.25 0.999991 -81.25 0.003078 20.849
8.86400000 0.003089 -3.325 0.999991 -81.25 0.999991 -81.25 0.003090 20.852
8.86420000 0.003102 -3.334 0.999991 -81.26 0.999991 -81.26 0.003103 20.855
8.86440000 0.003115 -3.343 0.999991 -81.26 0.999991 -81.26 0.003116 20.858
8.86460000 0.003128 -3.352 0.999990 -81.26 0.999990 -81.26 0.003129 20.861
8.86480000 0.003141 -3.361 0.999990 -81.26 0.999990 -81.26 0.003142 20.865
8.86500000 0.003155 -3.370 0.999990 -81.27 0.999990 -81.27 0.003156 20.868
8.86520000 0.003168 -3.379 0.999990 -81.27 0.999990 -81.27 0.003169 20.871
8.86540000 0.003182 -3.388 0.999990 -81.27 0.999990 -81.27 0.003183 20.874
8.86560000 0.003196 -3.397 0.999990 -81.27 0.999990 -81.27 0.003197 20.877
8.86580000 0.003210 -3.406 0.999990 -81.28 0.999990 -81.28 0.003211 20.880
8.86600000 0.003224 -3.415 0.999990 -81.28 0.999990 -81.28 0.003225 20.883
8.86620000 0.003238 -3.425 0.999990 -81.28 0.999990 -81.28 0.003239 20.887
8.86640000 0.003253 -3.434 0.999990 -81.29 0.999990 -81.29 0.003254 20.890
8.86660000 0.003267 -3.443 0.999990 -81.29 0.999990 -81.29 0.003268 20.893
8.86680000 0.003282 -3.452 0.999990 -81.29 0.999990 -81.29 0.003283 20.896
8.86700000 0.003297 -3.462 0.999990 -81.29 0.999990 -81.29 0.003298 20.899
8.86720000 0.003312 -3.471 0.999990 -81.30 0.999990 -81.30 0.003313 20.902
8.86740000 0.003328 -3.480 0.999990 -81.30 0.999990 -81.30 0.003329 20.905
8.86760000 0.003343 -3.490 0.999990 -81.30 0.999990 -81.30 0.003344 20.909
8.86780000 0.003359 -3.499 0.999989 -81.30 0.999989 -81.30 0.003360 20.912
8.86800000 0.003375 -3.508 0.999989 -81.31 0.999989 -81.31 0.003376 20.915
8.86820000 0.003391 -3.518 0.999989 -81.31 0.999989 -81.31 0.003392 20.918
8.86840000 0.003407 -3.527 0.999989 -81.31 0.999989 -81.31 0.003408 20.921
8.86860000 0.003424 -3.537 0.999989 -81.32 0.999989 -81.32 0.003425 20.925
8.86880000 0.003441 -3.547 0.999989 -81.32 0.999989 -81.32 0.003442 20.928
8.86900000 0.003457 -3.556 0.999989 -81.32 0.999989 -81.32 0.003459 20.931
8.86920000 0.003475 -3.566 0.999989 -81.32 0.999989 -81.32 0.003476 20.934
8.86940000 0.003492 -3.575 0.999989 -81.33 0.999989 -81.33 0.003493 20.937
8.86960000 0.003510 -3.585 0.999989 -81.33 0.999989 -81.33 0.003511 20.940
8.86980000 0.003527 -3.595 0.999989 -81.33 0.999989 -81.33 0.003528 20.944
8.87000000 0.003545 -3.605 0.999989 -81.33 0.999989 -81.33 0.003547 20.947
8.87020000 0.003564 -3.614 0.999988 -81.34 0.999988 -81.34 0.003565 20.950
8.87040000 0.003582 -3.624 0.999988 -81.34 0.999988 -81.34 0.003583 20.953
8.87060000 0.003601 -3.634 0.999988 -81.34 0.999988 -81.34 0.003602 20.956
8.87080000 0.003620 -3.644 0.999988 -81.35 0.999988 -81.35 0.003621 20.960
8.87089999 0.003630 -3.649 0.999988 -81.35 0.999988 -81.35 0.003631 20.961
8.87100000 0.003639 -3.654 0.999988 -81.35 0.999988 -81.35 0.003640 20.963
8.87120000 0.003659 -3.664 0.999988 -81.35 0.999988 -81.35 0.003660 20.966
8.87140000 0.003679 -3.674 0.999988 -81.36 0.999988 -81.36 0.003680 20.969
8.87158394 0.003697 -3.683 0.999988 -81.36 0.999988 -81.36 0.003698 20.972
8.87160000 0.003699 -3.684 0.999988 -81.36 0.999988 -81.36 0.003700 20.972
8.87180000 0.003719 -3.694 0.999988 -81.36 0.999988 -81.36 0.003720 20.975
8.87200000 0.003740 -3.704 0.999988 -81.36 0.999988 -81.36 0.003741 20.979
8.87220000 0.003761 -3.714 0.999987 -81.37 0.999987 -81.37 0.003762 20.982
8.87225222 0.003766 -3.717 0.999987 -81.37 0.999987 -81.37 0.003767 20.983
8.87240000 0.003782 -3.725 0.999987 -81.37 0.999987 -81.37 0.003783 20.985
8.87260000 0.003803 -3.735 0.999987 -81.37 0.999987 -81.37 0.003805 20.988
8.87280000 0.003825 -3.745 0.999987 -81.38 0.999987 -81.38 0.003826 20.991
8.87290518 0.003837 -3.751 0.999987 -81.38 0.999987 -81.38 0.003838 20.993
8.87300000 0.003847 -3.755 0.999987 -81.38 0.999987 -81.38 0.003849 20.994
8.87320000 0.003870 -3.766 0.999987 -81.38 0.999987 -81.38 0.003871 20.998
8.87340000 0.003893 -3.776 0.999987 -81.39 0.999987 -81.39 0.003894 21.001
8.87354319 0.003909 -3.784 0.999987 -81.39 0.999987 -81.39 0.003910 21.003
8.87360000 0.003916 -3.787 0.999987 -81.39 0.999987 -81.39 0.003917 21.004
8.87380000 0.003939 -3.797 0.999987 -81.39 0.999987 -81.39 0.003940 21.007
8.87400000 0.003963 -3.808 0.999986 -81.40 0.999986 -81.40 0.003964 21.010
8.87416657 0.003983 -3.816 0.999986 -81.40 0.999986 -81.40 0.003984 21.013
8.87420000 0.003987 -3.818 0.999986 -81.40 0.999986 -81.40 0.003989 21.013
8.87440000 0.004012 -3.829 0.999986 -81.40 0.999986 -81.40 0.004013 21.016
8.87460000 0.004037 -3.840 0.999986 -81.41 0.999986 -81.41 0.004038 21.019
8.87477567 0.004059 -3.849 0.999986 -81.41 0.999986 -81.41 0.004060 21.022
8.87480000 0.004062 -3.850 0.999986 -81.41 0.999986 -81.41 0.004063 21.023
8.87500000 0.004088 -3.861 0.999986 -81.41 0.999986 -81.41 0.004089 21.026
8.87520000 0.004114 -3.872 0.999986 -81.41 0.999986 -81.41 0.004115 21.029
8.87537082 0.004137 -3.881 0.999985 -81.42 0.999985 -81.42 0.004138 21.031
8.87540000 0.004141 -3.883 0.999985 -81.42 0.999985 -81.42 0.004142 21.032
8.87560000 0.004168 -3.894 0.999985 -81.42 0.999985 -81.42 0.004169 21.035
8.87580000 0.004195 -3.905 0.999985 -81.43 0.999985 -81.43 0.004196 21.038
8.87595232 0.004216 -3.913 0.999985 -81.43 0.999985 -81.43 0.004217 21.040
8.87600000 0.004223 -3.916 0.999985 -81.43 0.999985 -81.43 0.004224 21.041
8.87620000 0.004251 -3.927 0.999985 -81.43 0.999985 -81.43 0.004252 21.044
8.87640000 0.004280 -3.938 0.999985 -81.44 0.999985 -81.44 0.004281 21.047
8.87652051 0.004297 -3.945 0.999984 -81.44 0.999984 -81.44 0.004299 21.049