! Sonnet Data File
! From: emgraph Version : 16.52
! From Project: Resonator2_cp_cp
! Data is De-embedded 
! Data File Written: 10/06/2017 09:20:31
!< HDATE 10/05/2017 21:11:40
!< MDATE 10/05/2017 21:11:40
!< PARAMS
!< gap = 86.0
!< Length = 400.0
!< Pwid1 = 2000.0
!< Pwid2 = 2000.0
!< END PARAMS
# GHZ S MA R 51.80000
8.80000000 9.363e-6 -148.4 0.999997 -80.49 0.999997 -80.49 1.185e-5 146.57
!< P1 F=8.8 Eeff=(6.44679989 -2.9721e-5) Z0=(51.7992624 1.19519e-4) R=0.0 C=0.0 
!< P2 F=8.8 Eeff=(6.44679989 -2.9721e-5) Z0=(51.7992624 1.19519e-4) R=0.0 C=0.0 
8.80020000 9.353e-6 -148.4 0.999997 -80.50 0.999997 -80.50 1.185e-5 146.52
8.80040000 9.348e-6 -148.3 0.999997 -80.50 0.999997 -80.50 1.185e-5 146.46
8.80060000 9.344e-6 -148.2 0.999997 -80.50 0.999997 -80.50 1.185e-5 146.39
8.80080000 9.339e-6 -148.2 0.999997 -80.50 0.999997 -80.50 1.185e-5 146.33
8.80100000 9.334e-6 -148.1 0.999997 -80.50 0.999997 -80.50 1.185e-5 146.27
8.80120000 9.329e-6 -148.0 0.999997 -80.50 0.999997 -80.50 1.185e-5 146.20
8.80140000 9.325e-6 -147.9 0.999997 -80.51 0.999997 -80.51 1.185e-5 146.14
8.80160000 9.320e-6 -147.9 0.999997 -80.51 0.999997 -80.51 1.185e-5 146.08
8.80180000 9.315e-6 -147.8 0.999997 -80.51 0.999997 -80.51 1.185e-5 146.01
8.80200000 9.311e-6 -147.7 0.999997 -80.51 0.999997 -80.51 1.185e-5 145.95
8.80220000 9.306e-6 -147.7 0.999997 -80.51 0.999997 -80.51 1.185e-5 145.89
8.80240000 9.301e-6 -147.6 0.999997 -80.52 0.999997 -80.52 1.185e-5 145.82
8.80260000 9.296e-6 -147.5 0.999997 -80.52 0.999997 -80.52 1.185e-5 145.76
8.80280000 9.292e-6 -147.5 0.999997 -80.52 0.999997 -80.52 1.185e-5 145.69
8.80300000 9.287e-6 -147.4 0.999997 -80.52 0.999997 -80.52 1.185e-5 145.63
8.80320000 9.282e-6 -147.3 0.999997 -80.52 0.999997 -80.52 1.185e-5 145.56
8.80340000 9.277e-6 -147.2 0.999997 -80.52 0.999997 -80.52 1.185e-5 145.50
8.80360000 9.273e-6 -147.2 0.999997 -80.53 0.999997 -80.53 1.185e-5 145.43
8.80380000 9.268e-6 -147.1 0.999997 -80.53 0.999997 -80.53 1.185e-5 145.37
8.80400000 9.263e-6 -147.0 0.999997 -80.53 0.999997 -80.53 1.185e-5 145.30
8.80420000 9.259e-6 -146.9 0.999997 -80.53 0.999997 -80.53 1.185e-5 145.24
8.80440000 9.254e-6 -146.9 0.999997 -80.53 0.999997 -80.53 1.185e-5 145.17
8.80460000 9.249e-6 -146.8 0.999997 -80.54 0.999997 -80.54 1.185e-5 145.10
8.80480000 9.244e-6 -146.7 0.999997 -80.54 0.999997 -80.54 1.185e-5 145.04
8.80500000 9.240e-6 -146.7 0.999997 -80.54 0.999997 -80.54 1.185e-5 144.97
8.80520000 9.235e-6 -146.6 0.999997 -80.54 0.999997 -80.54 1.185e-5 144.90
8.80540000 9.230e-6 -146.5 0.999997 -80.54 0.999997 -80.54 1.185e-5 144.84
8.80560000 9.226e-6 -146.4 0.999997 -80.54 0.999997 -80.54 1.185e-5 144.77
8.80580000 9.221e-6 -146.3 0.999997 -80.55 0.999997 -80.55 1.185e-5 144.70
8.80600000 9.216e-6 -146.3 0.999997 -80.55 0.999997 -80.55 1.185e-5 144.63
8.80620000 9.211e-6 -146.2 0.999997 -80.55 0.999997 -80.55 1.185e-5 144.56
8.80640000 9.207e-6 -146.1 0.999997 -80.55 0.999997 -80.55 1.185e-5 144.50
8.80660000 9.202e-6 -146.0 0.999997 -80.55 0.999997 -80.55 1.185e-5 144.43
8.80680000 9.197e-6 -146.0 0.999997 -80.56 0.999997 -80.56 1.185e-5 144.36
8.80700000 9.192e-6 -145.9 0.999997 -80.56 0.999997 -80.56 1.185e-5 144.29
8.80720000 9.188e-6 -145.8 0.999997 -80.56 0.999997 -80.56 1.185e-5 144.22
8.80740000 9.183e-6 -145.7 0.999997 -80.56 0.999997 -80.56 1.185e-5 144.15
8.80760000 9.178e-6 -145.6 0.999997 -80.56 0.999997 -80.56 1.185e-5 144.08
8.80780000 9.174e-6 -145.6 0.999997 -80.56 0.999997 -80.56 1.185e-5 144.01
8.80800000 9.169e-6 -145.5 0.999997 -80.57 0.999997 -80.57 1.185e-5 143.94
8.80820000 9.164e-6 -145.4 0.999997 -80.57 0.999997 -80.57 1.185e-5 143.87
8.80840000 9.159e-6 -145.3 0.999997 -80.57 0.999997 -80.57 1.185e-5 143.80
8.80860000 9.155e-6 -145.2 0.999997 -80.57 0.999997 -80.57 1.185e-5 143.73
8.80880000 9.150e-6 -145.2 0.999997 -80.57 0.999997 -80.57 1.185e-5 143.66
8.80900000 9.145e-6 -145.1 0.999997 -80.58 0.999997 -80.58 1.185e-5 143.58
8.80920000 9.140e-6 -145.0 0.999997 -80.58 0.999997 -80.58 1.185e-5 143.51
8.80940000 9.136e-6 -144.9 0.999997 -80.58 0.999997 -80.58 1.185e-5 143.44
8.80960000 9.131e-6 -144.8 0.999997 -80.58 0.999997 -80.58 1.185e-5 143.37
8.80980000 9.126e-6 -144.7 0.999997 -80.58 0.999997 -80.58 1.185e-5 143.29
8.81000000 9.122e-6 -144.7 0.999997 -80.58 0.999997 -80.58 1.185e-5 143.22
8.81020000 9.117e-6 -144.6 0.999997 -80.59 0.999997 -80.59 1.185e-5 143.15
8.81040000 9.112e-6 -144.5 0.999997 -80.59 0.999997 -80.59 1.185e-5 143.08
8.81060000 9.107e-6 -144.4 0.999997 -80.59 0.999997 -80.59 1.185e-5 143.00
8.81080000 9.103e-6 -144.3 0.999997 -80.59 0.999997 -80.59 1.185e-5 142.93
8.81100000 9.098e-6 -144.2 0.999997 -80.59 0.999997 -80.59 1.185e-5 142.85
8.81120000 9.093e-6 -144.1 0.999997 -80.60 0.999997 -80.60 1.185e-5 142.78
8.81140000 9.089e-6 -144.1 0.999997 -80.60 0.999997 -80.60 1.185e-5 142.70
8.81160000 9.084e-6 -144.0 0.999997 -80.60 0.999997 -80.60 1.185e-5 142.63
8.81180000 9.079e-6 -143.9 0.999997 -80.60 0.999997 -80.60 1.185e-5 142.55
8.81200000 9.074e-6 -143.8 0.999997 -80.60 0.999997 -80.60 1.186e-5 142.48
8.81220000 9.070e-6 -143.7 0.999997 -80.60 0.999997 -80.60 1.186e-5 142.40
8.81240000 9.065e-6 -143.6 0.999997 -80.61 0.999997 -80.61 1.186e-5 142.33
8.81260000 9.060e-6 -143.5 0.999997 -80.61 0.999997 -80.61 1.186e-5 142.25
8.81280000 9.056e-6 -143.4 0.999997 -80.61 0.999997 -80.61 1.186e-5 142.17
8.81300000 9.051e-6 -143.3 0.999997 -80.61 0.999997 -80.61 1.186e-5 142.10
8.81320000 9.046e-6 -143.3 0.999997 -80.61 0.999997 -80.61 1.186e-5 142.02
8.81340000 9.041e-6 -143.2 0.999997 -80.62 0.999997 -80.62 1.186e-5 141.94
8.81360000 9.037e-6 -143.1 0.999997 -80.62 0.999997 -80.62 1.186e-5 141.86
8.81380000 9.032e-6 -143.0 0.999997 -80.62 0.999997 -80.62 1.186e-5 141.79
8.81400000 9.027e-6 -142.9 0.999997 -80.62 0.999997 -80.62 1.186e-5 141.71
8.81420000 9.023e-6 -142.8 0.999997 -80.62 0.999997 -80.62 1.186e-5 141.63
8.81440000 9.018e-6 -142.7 0.999997 -80.62 0.999997 -80.62 1.186e-5 141.55
8.81460000 9.013e-6 -142.6 0.999997 -80.63 0.999997 -80.63 1.186e-5 141.47
8.81480000 9.009e-6 -142.5 0.999997 -80.63 0.999997 -80.63 1.186e-5 141.39
8.81500000 9.004e-6 -142.4 0.999997 -80.63 0.999997 -80.63 1.187e-5 141.31
8.81520000 8.999e-6 -142.3 0.999997 -80.63 0.999997 -80.63 1.187e-5 141.23
8.81540000 8.994e-6 -142.2 0.999997 -80.63 0.999997 -80.63 1.187e-5 141.15
8.81560000 8.990e-6 -142.1 0.999997 -80.64 0.999997 -80.64 1.187e-5 141.07
8.81580000 8.985e-6 -142.0 0.999997 -80.64 0.999997 -80.64 1.187e-5 140.99
8.81600000 8.980e-6 -141.9 0.999997 -80.64 0.999997 -80.64 1.187e-5 140.91
8.81620000 8.976e-6 -141.8 0.999997 -80.64 0.999997 -80.64 1.187e-5 140.82
8.81640000 8.971e-6 -141.7 0.999997 -80.64 0.999997 -80.64 1.187e-5 140.74
8.81660000 8.966e-6 -141.6 0.999997 -80.65 0.999997 -80.65 1.187e-5 140.66
8.81680000 8.962e-6 -141.5 0.999997 -80.65 0.999997 -80.65 1.187e-5 140.58
8.81700000 8.957e-6 -141.4 0.999997 -80.65 0.999997 -80.65 1.187e-5 140.49
8.81720000 8.952e-6 -141.3 0.999997 -80.65 0.999997 -80.65 1.188e-5 140.41
8.81740000 8.948e-6 -141.2 0.999997 -80.65 0.999997 -80.65 1.188e-5 140.33
8.81760000 8.943e-6 -141.1 0.999997 -80.65 0.999997 -80.65 1.188e-5 140.24
8.81780000 8.939e-6 -141.0 0.999997 -80.66 0.999997 -80.66 1.188e-5 140.16
8.81800000 8.934e-6 -140.9 0.999997 -80.66 0.999997 -80.66 1.188e-5 140.07
8.81820000 8.929e-6 -140.8 0.999997 -80.66 0.999997 -80.66 1.188e-5 139.99
8.81840000 8.925e-6 -140.7 0.999997 -80.66 0.999997 -80.66 1.188e-5 139.90
8.81860000 8.920e-6 -140.6 0.999997 -80.66 0.999997 -80.66 1.188e-5 139.82
8.81880000 8.915e-6 -140.5 0.999997 -80.67 0.999997 -80.67 1.189e-5 139.73
8.81900000 8.911e-6 -140.4 0.999997 -80.67 0.999997 -80.67 1.189e-5 139.64
8.81920000 8.906e-6 -140.3 0.999997 -80.67 0.999997 -80.67 1.189e-5 139.56
8.81940000 8.902e-6 -140.2 0.999997 -80.67 0.999997 -80.67 1.189e-5 139.47
8.81960000 8.897e-6 -140.1 0.999997 -80.67 0.999997 -80.67 1.189e-5 139.38
8.81980000 8.892e-6 -139.9 0.999997 -80.67 0.999997 -80.67 1.189e-5 139.29
8.82000000 8.888e-6 -139.8 0.999997 -80.68 0.999997 -80.68 1.189e-5 139.21
8.82020000 8.883e-6 -139.7 0.999997 -80.68 0.999997 -80.68 1.189e-5 139.12
8.82040000 8.879e-6 -139.6 0.999997 -80.68 0.999997 -80.68 1.190e-5 139.03
8.82060000 8.874e-6 -139.5 0.999997 -80.68 0.999997 -80.68 1.190e-5 138.94
8.82080000 8.869e-6 -139.4 0.999997 -80.68 0.999997 -80.68 1.190e-5 138.85
8.82100000 8.865e-6 -139.3 0.999997 -80.69 0.999997 -80.69 1.190e-5 138.76
8.82120000 8.860e-6 -139.2 0.999997 -80.69 0.999997 -80.69 1.190e-5 138.67
8.82140000 8.856e-6 -139.1 0.999997 -80.69 0.999997 -80.69 1.190e-5 138.58
8.82160000 8.851e-6 -138.9 0.999997 -80.69 0.999997 -80.69 1.191e-5 138.49
8.82180000 8.847e-6 -138.8 0.999997 -80.69 0.999997 -80.69 1.191e-5 138.40
8.82200000 8.842e-6 -138.7 0.999997 -80.69 0.999997 -80.69 1.191e-5 138.30
8.82220000 8.838e-6 -138.6 0.999997 -80.70 0.999997 -80.70 1.191e-5 138.21
8.82240000 8.833e-6 -138.5 0.999997 -80.70 0.999997 -80.70 1.191e-5 138.12
8.82260000 8.829e-6 -138.4 0.999997 -80.70 0.999997 -80.70 1.191e-5 138.03
8.82280000 8.824e-6 -138.2 0.999997 -80.70 0.999997 -80.70 1.192e-5 137.93
8.82300000 8.820e-6 -138.1 0.999997 -80.70 0.999997 -80.70 1.192e-5 137.84
8.82320000 8.815e-6 -138.0 0.999997 -80.71 0.999997 -80.71 1.192e-5 137.74
8.82340000 8.811e-6 -137.9 0.999997 -80.71 0.999997 -80.71 1.192e-5 137.65
8.82360000 8.807e-6 -137.8 0.999997 -80.71 0.999997 -80.71 1.192e-5 137.56
8.82380000 8.802e-6 -137.6 0.999997 -80.71 0.999997 -80.71 1.193e-5 137.46
8.82400000 8.798e-6 -137.5 0.999997 -80.71 0.999997 -80.71 1.193e-5 137.36
8.82420000 8.793e-6 -137.4 0.999997 -80.71 0.999997 -80.71 1.193e-5 137.27
8.82440000 8.789e-6 -137.3 0.999997 -80.72 0.999997 -80.72 1.193e-5 137.17
8.82460000 8.785e-6 -137.1 0.999997 -80.72 0.999997 -80.72 1.193e-5 137.07
8.82480000 8.780e-6 -137.0 0.999997 -80.72 0.999997 -80.72 1.194e-5 136.98
8.82500000 8.776e-6 -136.9 0.999997 -80.72 0.999997 -80.72 1.194e-5 136.88
8.82520000 8.771e-6 -136.8 0.999997 -80.72 0.999997 -80.72 1.194e-5 136.78
8.82540000 8.767e-6 -136.6 0.999997 -80.73 0.999997 -80.73 1.194e-5 136.68
8.82560000 8.763e-6 -136.5 0.999997 -80.73 0.999997 -80.73 1.194e-5 136.58
8.82580000 8.759e-6 -136.4 0.999997 -80.73 0.999997 -80.73 1.195e-5 136.48
8.82600000 8.754e-6 -136.3 0.999997 -80.73 0.999997 -80.73 1.195e-5 136.38
8.82620000 8.750e-6 -136.1 0.999997 -80.73 0.999997 -80.73 1.195e-5 136.28
8.82640000 8.746e-6 -136.0 0.999997 -80.73 0.999997 -80.73 1.195e-5 136.18
8.82660000 8.742e-6 -135.9 0.999997 -80.74 0.999997 -80.74 1.196e-5 136.08
8.82680000 8.737e-6 -135.7 0.999997 -80.74 0.999997 -80.74 1.196e-5 135.98
8.82700000 8.733e-6 -135.6 0.999997 -80.74 0.999997 -80.74 1.196e-5 135.88
8.82720000 8.729e-6 -135.5 0.999997 -80.74 0.999997 -80.74 1.196e-5 135.77
8.82740000 8.725e-6 -135.3 0.999997 -80.74 0.999997 -80.74 1.197e-5 135.67
8.82760000 8.721e-6 -135.2 0.999997 -80.75 0.999997 -80.75 1.197e-5 135.57
8.82780000 8.717e-6 -135.1 0.999997 -80.75 0.999997 -80.75 1.197e-5 135.46
8.82800000 8.712e-6 -134.9 0.999997 -80.75 0.999997 -80.75 1.197e-5 135.36
8.82820000 8.708e-6 -134.8 0.999997 -80.75 0.999997 -80.75 1.198e-5 135.25
8.82840000 8.704e-6 -134.6 0.999997 -80.75 0.999997 -80.75 1.198e-5 135.15
8.82860000 8.700e-6 -134.5 0.999997 -80.75 0.999997 -80.75 1.198e-5 135.04
8.82880000 8.696e-6 -134.4 0.999997 -80.76 0.999997 -80.76 1.198e-5 134.94
8.82900000 8.692e-6 -134.2 0.999997 -80.76 0.999997 -80.76 1.199e-5 134.83
8.82920000 8.688e-6 -134.1 0.999997 -80.76 0.999997 -80.76 1.199e-5 134.72
8.82940000 8.684e-6 -133.9 0.999997 -80.76 0.999997 -80.76 1.199e-5 134.62
8.82960000 8.680e-6 -133.8 0.999997 -80.76 0.999997 -80.76 1.200e-5 134.51
8.82980000 8.676e-6 -133.6 0.999997 -80.77 0.999997 -80.77 1.200e-5 134.40
8.83000000 8.673e-6 -133.5 0.999997 -80.77 0.999997 -80.77 1.200e-5 134.29
8.83020000 8.669e-6 -133.4 0.999997 -80.77 0.999997 -80.77 1.201e-5 134.18
8.83040000 8.665e-6 -133.2 0.999997 -80.77 0.999997 -80.77 1.201e-5 134.07
8.83060000 8.661e-6 -133.1 0.999997 -80.77 0.999997 -80.77 1.201e-5 133.96
8.83080000 8.657e-6 -132.9 0.999997 -80.77 0.999997 -80.77 1.201e-5 133.85
8.83100000 8.654e-6 -132.8 0.999997 -80.78 0.999997 -80.78 1.202e-5 133.74
8.83120000 8.650e-6 -132.6 0.999997 -80.78 0.999997 -80.78 1.202e-5 133.62
8.83140000 8.646e-6 -132.5 0.999997 -80.78 0.999997 -80.78 1.202e-5 133.51
8.83160000 8.643e-6 -132.3 0.999997 -80.78 0.999997 -80.78 1.203e-5 133.40
8.83180000 8.639e-6 -132.2 0.999997 -80.78 0.999997 -80.78 1.203e-5 133.29
8.83200000 8.635e-6 -132.0 0.999997 -80.79 0.999997 -80.79 1.204e-5 133.17
8.83220000 8.632e-6 -131.8 0.999997 -80.79 0.999997 -80.79 1.204e-5 133.06
8.83240000 8.628e-6 -131.7 0.999997 -80.79 0.999997 -80.79 1.204e-5 132.94
8.83260000 8.625e-6 -131.5 0.999997 -80.79 0.999997 -80.79 1.205e-5 132.83
8.83280000 8.621e-6 -131.4 0.999997 -80.79 0.999997 -80.79 1.205e-5 132.71
8.83300000 8.618e-6 -131.2 0.999997 -80.80 0.999997 -80.80 1.205e-5 132.59
8.83320000 8.614e-6 -131.1 0.999997 -80.80 0.999997 -80.80 1.206e-5 132.48
8.83340000 8.611e-6 -130.9 0.999997 -80.80 0.999997 -80.80 1.206e-5 132.36
8.83360000 8.608e-6 -130.7 0.999997 -80.80 0.999997 -80.80 1.207e-5 132.24
8.83380000 8.604e-6 -130.6 0.999997 -80.80 0.999997 -80.80 1.207e-5 132.12
8.83400000 8.601e-6 -130.4 0.999997 -80.80 0.999997 -80.80 1.207e-5 132.00
8.83420000 8.598e-6 -130.2 0.999997 -80.81 0.999997 -80.81 1.208e-5 131.88
8.83440000 8.595e-6 -130.1 0.999997 -80.81 0.999997 -80.81 1.208e-5 131.76
8.83460000 8.592e-6 -129.9 0.999997 -80.81 0.999997 -80.81 1.209e-5 131.64
8.83480000 8.589e-6 -129.7 0.999997 -80.81 0.999997 -80.81 1.209e-5 131.52
8.83500000 8.586e-6 -129.6 0.999997 -80.81 0.999997 -80.81 1.210e-5 131.40
8.83520000 8.583e-6 -129.4 0.999997 -80.82 0.999997 -80.82 1.210e-5 131.27
8.83540000 8.580e-6 -129.2 0.999997 -80.82 0.999997 -80.82 1.210e-5 131.15
8.83560000 8.577e-6 -129.1 0.999997 -80.82 0.999997 -80.82 1.211e-5 131.03
8.83580000 8.574e-6 -128.9 0.999997 -80.82 0.999997 -80.82 1.211e-5 130.90
8.83600000 8.571e-6 -128.7 0.999997 -80.82 0.999997 -80.82 1.212e-5 130.78
8.83620000 8.568e-6 -128.5 0.999997 -80.82 0.999997 -80.82 1.212e-5 130.65
8.83640000 8.566e-6 -128.4 0.999997 -80.83 0.999997 -80.83 1.213e-5 130.52
8.83660000 8.563e-6 -128.2 0.999997 -80.83 0.999997 -80.83 1.213e-5 130.40
8.83680000 8.560e-6 -128.0 0.999997 -80.83 0.999997 -80.83 1.214e-5 130.27
8.83700000 8.558e-6 -127.8 0.999997 -80.83 0.999997 -80.83 1.214e-5 130.14
8.83720000 8.555e-6 -127.6 0.999997 -80.83 0.999997 -80.83 1.215e-5 130.01
8.83740000 8.553e-6 -127.5 0.999997 -80.84 0.999997 -80.84 1.215e-5 129.88
8.83760000 8.551e-6 -127.3 0.999997 -80.84 0.999997 -80.84 1.216e-5 129.75
8.83780000 8.548e-6 -127.1 0.999997 -80.84 0.999997 -80.84 1.216e-5 129.62
8.83800000 8.546e-6 -126.9 0.999997 -80.84 0.999997 -80.84 1.217e-5 129.49
8.83820000 8.544e-6 -126.7 0.999997 -80.84 0.999997 -80.84 1.217e-5 129.36
8.83840000 8.542e-6 -126.5 0.999997 -80.84 0.999997 -80.84 1.218e-5 129.23
8.83860000 8.540e-6 -126.4 0.999997 -80.85 0.999997 -80.85 1.218e-5 129.10
8.83880000 8.538e-6 -126.2 0.999997 -80.85 0.999997 -80.85 1.219e-5 128.96
8.83900000 8.536e-6 -126.0 0.999997 -80.85 0.999997 -80.85 1.220e-5 128.83
8.83920000 8.534e-6 -125.8 0.999997 -80.85 0.999997 -80.85 1.220e-5 128.69
8.83940000 8.532e-6 -125.6 0.999997 -80.85 0.999997 -80.85 1.221e-5 128.56
8.83960000 8.530e-6 -125.4 0.999997 -80.86 0.999997 -80.86 1.221e-5 128.42
8.83980000 8.529e-6 -125.2 0.999997 -80.86 0.999997 -80.86 1.222e-5 128.29
8.84000000 8.527e-6 -125.0 0.999997 -80.86 0.999997 -80.86 1.223e-5 128.15
8.84020000 8.525e-6 -124.8 0.999997 -80.86 0.999997 -80.86 1.223e-5 128.01
8.84040000 8.524e-6 -124.6 0.999997 -80.86 0.999997 -80.86 1.224e-5 127.87
8.84060000 8.523e-6 -124.4 0.999997 -80.86 0.999997 -80.86 1.225e-5 127.73
8.84080000 8.521e-6 -124.2 0.999997 -80.87 0.999997 -80.87 1.225e-5 127.59
8.84100000 8.520e-6 -124.0 0.999997 -80.87 0.999997 -80.87 1.226e-5 127.45
8.84120000 8.519e-6 -123.8 0.999997 -80.87 0.999997 -80.87 1.226e-5 127.31
8.84140000 8.518e-6 -123.6 0.999997 -80.87 0.999997 -80.87 1.227e-5 127.17
8.84160000 8.517e-6 -123.4 0.999997 -80.87 0.999997 -80.87 1.228e-5 127.03
8.84180000 8.516e-6 -123.2 0.999997 -80.88 0.999997 -80.88 1.229e-5 126.89
8.84200000 8.515e-6 -123.0 0.999997 -80.88 0.999997 -80.88 1.229e-5 126.74
8.84220000 8.515e-6 -122.8 0.999997 -80.88 0.999997 -80.88 1.230e-5 126.60
8.84240000 8.514e-6 -122.6 0.999997 -80.88 0.999997 -80.88 1.231e-5 126.45
8.84260000 8.514e-6 -122.3 0.999997 -80.88 0.999997 -80.88 1.231e-5 126.31
8.84280000 8.513e-6 -122.1 0.999997 -80.88 0.999997 -80.88 1.232e-5 126.16
8.84300000 8.513e-6 -121.9 0.999997 -80.89 0.999997 -80.89 1.233e-5 126.01
8.84320000 8.513e-6 -121.7 0.999997 -80.89 0.999997 -80.89 1.234e-5 125.86
8.84340000 8.513e-6 -121.5 0.999997 -80.89 0.999997 -80.89 1.234e-5 125.72
8.84360000 8.513e-6 -121.3 0.999997 -80.89 0.999997 -80.89 1.235e-5 125.57
8.84380000 8.513e-6 -121.0 0.999997 -80.89 0.999997 -80.89 1.236e-5 125.42
8.84400000 8.513e-6 -120.8 0.999997 -80.90 0.999997 -80.90 1.237e-5 125.27
8.84420000 8.513e-6 -120.6 0.999997 -80.90 0.999997 -80.90 1.238e-5 125.11
8.84440000 8.514e-6 -120.4 0.999997 -80.90 0.999997 -80.90 1.238e-5 124.96
8.84460000 8.514e-6 -120.2 0.999997 -80.90 0.999997 -80.90 1.239e-5 124.81
8.84480000 8.515e-6 -119.9 0.999997 -80.90 0.999997 -80.90 1.240e-5 124.66
8.84500000 8.516e-6 -119.7 0.999997 -80.90 0.999997 -80.90 1.241e-5 124.50
8.84520000 8.516e-6 -119.5 0.999997 -80.91 0.999997 -80.91 1.242e-5 124.35
8.84540000 8.517e-6 -119.2 0.999997 -80.91 0.999997 -80.91 1.243e-5 124.19
8.84560000 8.519e-6 -119.0 0.999997 -80.91 0.999997 -80.91 1.244e-5 124.03
8.84580000 8.520e-6 -118.8 0.999997 -80.91 0.999997 -80.91 1.245e-5 123.88
8.84600000 8.521e-6 -118.5 0.999997 -80.91 0.999997 -80.91 1.246e-5 123.72
8.84620000 8.523e-6 -118.3 0.999997 -80.92 0.999997 -80.92 1.246e-5 123.56
8.84640000 8.524e-6 -118.1 0.999997 -80.92 0.999997 -80.92 1.247e-5 123.40
8.84660000 8.526e-6 -117.8 0.999997 -80.92 0.999997 -80.92 1.248e-5 123.24
8.84680000 8.528e-6 -117.6 0.999997 -80.92 0.999997 -80.92 1.249e-5 123.08
8.84700000 8.530e-6 -117.3 0.999997 -80.92 0.999997 -80.92 1.250e-5 122.92
8.84720000 8.532e-6 -117.1 0.999997 -80.93 0.999997 -80.93 1.251e-5 122.75
8.84740000 8.535e-6 -116.9 0.999997 -80.93 0.999997 -80.93 1.252e-5 122.59
8.84760000 8.537e-6 -116.6 0.999997 -80.93 0.999997 -80.93 1.253e-5 122.43
8.84780000 8.540e-6 -116.4 0.999997 -80.93 0.999997 -80.93 1.254e-5 122.26
8.84800000 8.543e-6 -116.1 0.999997 -80.93 0.999997 -80.93 1.255e-5 122.10
8.84820000 8.546e-6 -115.9 0.999997 -80.93 0.999997 -80.93 1.257e-5 121.93
8.84840000 8.549e-6 -115.6 0.999997 -80.94 0.999997 -80.94 1.258e-5 121.76
8.84860000 8.552e-6 -115.4 0.999997 -80.94 0.999997 -80.94 1.259e-5 121.60
8.84880000 8.555e-6 -115.1 0.999997 -80.94 0.999997 -80.94 1.260e-5 121.43
8.84900000 8.559e-6 -114.9 0.999997 -80.94 0.999997 -80.94 1.261e-5 121.26
8.84920000 8.563e-6 -114.6 0.999997 -80.94 0.999997 -80.94 1.262e-5 121.09
8.84940000 8.567e-6 -114.3 0.999997 -80.95 0.999997 -80.95 1.263e-5 120.92
8.84960000 8.571e-6 -114.1 0.999997 -80.95 0.999997 -80.95 1.264e-5 120.74
8.84980000 8.575e-6 -113.8 0.999997 -80.95 0.999997 -80.95 1.266e-5 120.57
8.85000000 8.580e-6 -113.6 0.999997 -80.95 0.999997 -80.95 1.267e-5 120.40
8.85020000 8.584e-6 -113.3 0.999997 -80.95 0.999997 -80.95 1.268e-5 120.22
8.85040000 8.589e-6 -113.0 0.999997 -80.95 0.999997 -80.95 1.269e-5 120.05
8.85060000 8.594e-6 -112.8 0.999997 -80.96 0.999997 -80.96 1.271e-5 119.87
8.85080000 8.600e-6 -112.5 0.999997 -80.96 0.999997 -80.96 1.272e-5 119.70
8.85100000 8.605e-6 -112.2 0.999997 -80.96 0.999997 -80.96 1.273e-5 119.52
8.85120000 8.611e-6 -112.0 0.999997 -80.96 0.999997 -80.96 1.274e-5 119.34
8.85140000 8.616e-6 -111.7 0.999997 -80.96 0.999997 -80.96 1.276e-5 119.16
8.85160000 8.623e-6 -111.4 0.999997 -80.97 0.999997 -80.97 1.277e-5 118.98
8.85180000 8.629e-6 -111.1 0.999997 -80.97 0.999997 -80.97 1.278e-5 118.80
8.85200000 8.635e-6 -110.9 0.999997 -80.97 0.999997 -80.97 1.280e-5 118.62
8.85220000 8.642e-6 -110.6 0.999997 -80.97 0.999997 -80.97 1.281e-5 118.44
8.85240000 8.649e-6 -110.3 0.999997 -80.97 0.999997 -80.97 1.283e-5 118.26
8.85260000 8.656e-6 -110.0 0.999997 -80.97 0.999997 -80.97 1.284e-5 118.07
8.85280000 8.664e-6 -109.7 0.999997 -80.98 0.999997 -80.98 1.286e-5 117.89
8.85300000 8.671e-6 -109.5 0.999997 -80.98 0.999997 -80.98 1.287e-5 117.70
8.85320000 8.679e-6 -109.2 0.999997 -80.98 0.999997 -80.98 1.289e-5 117.51
8.85340000 8.687e-6 -108.9 0.999997 -80.98 0.999997 -80.98 1.290e-5 117.33
8.85360000 8.696e-6 -108.6 0.999997 -80.98 0.999997 -80.98 1.292e-5 117.14
8.85380000 8.704e-6 -108.3 0.999997 -80.99 0.999997 -80.99 1.293e-5 116.95
8.85400000 8.713e-6 -108.0 0.999997 -80.99 0.999997 -80.99 1.295e-5 116.76
8.85420000 8.722e-6 -107.7 0.999997 -80.99 0.999997 -80.99 1.296e-5 116.57
8.85440000 8.731e-6 -107.4 0.999997 -80.99 0.999997 -80.99 1.298e-5 116.38
8.85460000 8.741e-6 -107.1 0.999997 -80.99 0.999997 -80.99 1.300e-5 116.19
8.85480000 8.751e-6 -106.8 0.999997 -80.99 0.999997 -80.99 1.301e-5 115.99
8.85500000 8.761e-6 -106.5 0.999997 -81.00 0.999997 -81.00 1.303e-5 115.80
8.85520000 8.772e-6 -106.2 0.999997 -81.00 0.999997 -81.00 1.305e-5 115.60
8.85540000 8.782e-6 -105.9 0.999997 -81.00 0.999997 -81.00 1.307e-5 115.41
8.85560000 8.793e-6 -105.6 0.999997 -81.00 0.999997 -81.00 1.308e-5 115.21
8.85580000 8.805e-6 -105.3 0.999997 -81.00 0.999997 -81.00 1.310e-5 115.01
8.85600000 8.816e-6 -105.0 0.999997 -81.01 0.999997 -81.01 1.312e-5 114.82
8.85620000 8.828e-6 -104.7 0.999997 -81.01 0.999997 -81.01 1.314e-5 114.62
8.85640000 8.841e-6 -104.4 0.999997 -81.01 0.999997 -81.01 1.316e-5 114.42
8.85660000 8.853e-6 -104.1 0.999997 -81.01 0.999997 -81.01 1.318e-5 114.22
8.85680000 8.866e-6 -103.8 0.999997 -81.01 0.999997 -81.01 1.319e-5 114.01
8.85700000 8.879e-6 -103.5 0.999997 -81.01 0.999997 -81.01 1.321e-5 113.81
8.85720000 8.893e-6 -103.2 0.999997 -81.02 0.999997 -81.02 1.323e-5 113.61
8.85740000 8.907e-6 -102.9 0.999997 -81.02 0.999997 -81.02 1.325e-5 113.40
8.85760000 8.921e-6 -102.5 0.999997 -81.02 0.999997 -81.02 1.327e-5 113.20
8.85780000 8.935e-6 -102.2 0.999997 -81.02 0.999997 -81.02 1.329e-5 112.99
8.85800000 8.950e-6 -101.9 0.999997 -81.02 0.999997 -81.02 1.332e-5 112.79
8.85820000 8.965e-6 -101.6 0.999997 -81.03 0.999997 -81.03 1.334e-5 112.58
8.85840000 8.981e-6 -101.3 0.999997 -81.03 0.999997 -81.03 1.336e-5 112.37
8.85860000 8.997e-6 -101.0 0.999997 -81.03 0.999997 -81.03 1.338e-5 112.16
8.85880000 9.013e-6 -100.6 0.999997 -81.03 0.999997 -81.03 1.340e-5 111.95
8.85900000 9.030e-6 -100.3 0.999997 -81.03 0.999997 -81.03 1.342e-5 111.74
8.85920000 9.047e-6 -99.98 0.999997 -81.03 0.999997 -81.03 1.345e-5 111.53
8.85940000 9.064e-6 -99.66 0.999997 -81.04 0.999997 -81.04 1.347e-5 111.32
8.85960000 9.082e-6 -99.33 0.999997 -81.04 0.999997 -81.04 1.349e-5 111.10
8.85980000 9.100e-6 -99.00 0.999997 -81.04 0.999997 -81.04 1.352e-5 110.89
8.86000000 9.119e-6 -98.67 0.999997 -81.04 0.999997 -81.04 1.354e-5 110.67
8.86020000 9.138e-6 -98.34 0.999997 -81.04 0.999997 -81.04 1.356e-5 110.46
8.86040000 9.158e-6 -98.01 0.999997 -81.05 0.999997 -81.05 1.359e-5 110.24
8.86060000 9.177e-6 -97.68 0.999997 -81.05 0.999997 -81.05 1.361e-5 110.02
8.86080000 9.198e-6 -97.34 0.999997 -81.05 0.999997 -81.05 1.364e-5 109.80
8.86100000 9.218e-6 -97.01 0.999997 -81.05 0.999997 -81.05 1.366e-5 109.58
8.86120000 9.240e-6 -96.67 0.999997 -81.05 0.999997 -81.05 1.369e-5 109.36
8.86140000 9.261e-6 -96.34 0.999997 -81.06 0.999997 -81.06 1.372e-5 109.14
8.86160000 9.283e-6 -96.00 0.999997 -81.06 0.999997 -81.06 1.374e-5 108.92
8.86180000 9.306e-6 -95.66 0.999997 -81.06 0.999997 -81.06 1.377e-5 108.70
8.86200000 9.329e-6 -95.32 0.999997 -81.06 0.999997 -81.06 1.380e-5 108.47
8.86220000 9.352e-6 -94.98 0.999997 -81.06 0.999997 -81.06 1.383e-5 108.25
8.86240000 9.376e-6 -94.64 0.999997 -81.06 0.999997 -81.06 1.385e-5 108.02
8.86260000 9.400e-6 -94.30 0.999997 -81.07 0.999997 -81.07 1.388e-5 107.80
8.86280000 9.425e-6 -93.96 0.999997 -81.07 0.999997 -81.07 1.391e-5 107.57
8.86300000 9.451e-6 -93.61 0.999997 -81.07 0.999997 -81.07 1.394e-5 107.34
8.86320000 9.477e-6 -93.27 0.999997 -81.07 0.999997 -81.07 1.397e-5 107.11
8.86340000 9.503e-6 -92.92 0.999997 -81.07 0.999997 -81.07 1.400e-5 106.88
8.86360000 9.530e-6 -92.57 0.999997 -81.08 0.999997 -81.08 1.403e-5 106.65
8.86380000 9.557e-6 -92.23 0.999997 -81.08 0.999997 -81.08 1.406e-5 106.42
8.86400000 9.585e-6 -91.88 0.999997 -81.08 0.999997 -81.08 1.409e-5 106.19
8.86420000 9.614e-6 -91.53 0.999997 -81.08 0.999997 -81.08 1.413e-5 105.96
8.86440000 9.643e-6 -91.18 0.999997 -81.08 0.999997 -81.08 1.416e-5 105.72
8.86460000 9.672e-6 -90.83 0.999997 -81.08 0.999997 -81.08 1.419e-5 105.49
8.86480000 9.702e-6 -90.48 0.999997 -81.09 0.999997 -81.09 1.422e-5 105.25
8.86500000 9.733e-6 -90.13 0.999997 -81.09 0.999997 -81.09 1.426e-5 105.02
8.86520000 9.764e-6 -89.78 0.999997 -81.09 0.999997 -81.09 1.429e-5 104.78
8.86540000 9.796e-6 -89.43 0.999997 -81.09 0.999997 -81.09 1.433e-5 104.54
8.86560000 9.829e-6 -89.07 0.999997 -81.09 0.999997 -81.09 1.436e-5 104.30
8.86580000 9.862e-6 -88.72 0.999997 -81.10 0.999997 -81.10 1.440e-5 104.07
8.86600000 9.895e-6 -88.37 0.999997 -81.10 0.999997 -81.10 1.443e-5 103.83
8.86620000 9.929e-6 -88.01 0.999997 -81.10 0.999997 -81.10 1.447e-5 103.58
8.86640000 9.964e-6 -87.66 0.999997 -81.10 0.999997 -81.10 1.451e-5 103.34
8.86660000 10.00e-6 -87.30 0.999997 -81.10 0.999997 -81.10 1.454e-5 103.10
8.86680000 1.004e-5 -86.95 0.999997 -81.10 0.999997 -81.10 1.458e-5 102.86
8.86700000 1.007e-5 -86.59 0.999997 -81.11 0.999997 -81.11 1.462e-5 102.61
8.86720000 1.011e-5 -86.23 0.999997 -81.11 0.999997 -81.11 1.466e-5 102.37
8.86740000 1.015e-5 -85.88 0.999997 -81.11 0.999997 -81.11 1.470e-5 102.12
8.86760000 1.019e-5 -85.52 0.999997 -81.11 0.999997 -81.11 1.474e-5 101.88
8.86780000 1.023e-5 -85.16 0.999997 -81.11 0.999997 -81.11 1.478e-5 101.63
8.86800000 1.027e-5 -84.80 0.999997 -81.12 0.999997 -81.12 1.482e-5 101.39
8.86820000 1.031e-5 -84.45 0.999997 -81.12 0.999997 -81.12 1.486e-5 101.14
8.86840000 1.035e-5 -84.09 0.999997 -81.12 0.999997 -81.12 1.491e-5 100.89
8.86860000 1.039e-5 -83.73 0.999997 -81.12 0.999997 -81.12 1.495e-5 100.64
8.86880000 1.043e-5 -83.37 0.999997 -81.12 0.999997 -81.12 1.499e-5 100.39
8.86900000 1.048e-5 -83.01 0.999997 -81.12 0.999997 -81.12 1.504e-5 100.14
8.86920000 1.052e-5 -82.66 0.999997 -81.13 0.999997 -81.13 1.508e-5 99.887
8.86940000 1.057e-5 -82.30 0.999997 -81.13 0.999997 -81.13 1.513e-5 99.635
8.86960000 1.061e-5 -81.94 0.999997 -81.13 0.999997 -81.13 1.517e-5 99.382
8.86980000 1.066e-5 -81.58 0.999997 -81.13 0.999997 -81.13 1.522e-5 99.129
8.87000000 1.071e-5 -81.22 0.999997 -81.13 0.999997 -81.13 1.527e-5 98.875
8.87020000 1.075e-5 -80.86 0.999997 -81.14 0.999997 -81.14 1.531e-5 98.620
8.87040000 1.080e-5 -80.51 0.999997 -81.14 0.999997 -81.14 1.536e-5 98.365
8.87060000 1.085e-5 -80.15 0.999997 -81.14 0.999997 -81.14 1.541e-5 98.109
8.87080000 1.090e-5 -79.79 0.999997 -81.14 0.999997 -81.14 1.546e-5 97.852
8.87100000 1.096e-5 -79.43 0.999997 -81.14 0.999997 -81.14 1.551e-5 97.595
8.87120000 1.101e-5 -79.07 0.999997 -81.14 0.999997 -81.14 1.556e-5 97.337
8.87140000 1.106e-5 -78.72 0.999997 -81.15 0.999997 -81.15 1.562e-5 97.079
8.87160000 1.111e-5 -78.36 0.999997 -81.15 0.999997 -81.15 1.567e-5 96.820
8.87180000 1.117e-5 -78.00 0.999997 -81.15 0.999997 -81.15 1.572e-5 96.560
8.87200000 1.123e-5 -77.65 0.999997 -81.15 0.999997 -81.15 1.578e-5 96.300
8.87220000 1.128e-5 -77.29 0.999997 -81.15 0.999997 -81.15 1.583e-5 96.040
8.87240000 1.134e-5 -76.93 0.999997 -81.16 0.999997 -81.16 1.589e-5 95.779
8.87260000 1.140e-5 -76.58 0.999997 -81.16 0.999997 -81.16 1.595e-5 95.517
8.87280000 1.146e-5 -76.22 0.999997 -81.16 0.999997 -81.16 1.600e-5 95.255
8.87300000 1.152e-5 -75.87 0.999997 -81.16 0.999997 -81.16 1.606e-5 94.992
8.87320000 1.158e-5 -75.51 0.999997 -81.16 0.999997 -81.16 1.612e-5 94.729
8.87340000 1.164e-5 -75.16 0.999997 -81.17 0.999997 -81.17 1.618e-5 94.465
8.87360000 1.170e-5 -74.81 0.999997 -81.17 0.999997 -81.17 1.624e-5 94.201
8.87380000 1.177e-5 -74.45 0.999997 -81.17 0.999997 -81.17 1.630e-5 93.936
8.87400000 1.183e-5 -74.10 0.999997 -81.17 0.999997 -81.17 1.636e-5 93.671
8.87420000 1.190e-5 -73.75 0.999997 -81.17 0.999997 -81.17 1.643e-5 93.405
8.87440000 1.197e-5 -73.40 0.999997 -81.17 0.999997 -81.17 1.649e-5 93.139
8.87460000 1.203e-5 -73.05 0.999997 -81.18 0.999997 -81.18 1.656e-5 92.873
8.87480000 1.210e-5 -72.70 0.999997 -81.18 0.999997 -81.18 1.662e-5 92.606
8.87500000 1.217e-5 -72.35 0.999997 -81.18 0.999997 -81.18 1.669e-5 92.339
8.87520000 1.224e-5 -72.00 0.999997 -81.18 0.999997 -81.18 1.676e-5 92.071
8.87540000 1.232e-5 -71.65 0.999997 -81.18 0.999997 -81.18 1.683e-5 91.803
8.87560000 1.239e-5 -71.31 0.999997 -81.19 0.999997 -81.19 1.690e-5 91.534
8.87580000 1.246e-5 -70.96 0.999997 -81.19 0.999997 -81.19 1.697e-5 91.266
8.87600000 1.254e-5 -70.62 0.999997 -81.19 0.999997 -81.19 1.704e-5 90.996
8.87620000 1.261e-5 -70.27 0.999997 -81.19 0.999997 -81.19 1.711e-5 90.727
8.87640000 1.269e-5 -69.93 0.999997 -81.19 0.999997 -81.19 1.718e-5 90.457
8.87660000 1.277e-5 -69.59 0.999997 -81.19 0.999997 -81.19 1.726e-5 90.187
8.87680000 1.285e-5 -69.24 0.999997 -81.20 0.999997 -81.20 1.733e-5 89.916
8.87700000 1.293e-5 -68.90 0.999997 -81.20 0.999997 -81.20 1.741e-5 89.646
8.87720000 1.302e-5 -68.56 0.999997 -81.20 0.999997 -81.20 1.749e-5 89.375
8.87740000 1.310e-5 -68.22 0.999997 -81.20 0.999997 -81.20 1.757e-5 89.103
8.87760000 1.318e-5 -67.88 0.999997 -81.20 0.999997 -81.20 1.765e-5 88.832
8.87780000 1.327e-5 -67.55 0.999997 -81.21 0.999997 -81.21 1.773e-5 88.560
8.87800000 1.336e-5 -67.21 0.999997 -81.21 0.999997 -81.21 1.781e-5 88.288
8.87820000 1.345e-5 -66.88 0.999997 -81.21 0.999997 -81.21 1.789e-5 88.015
8.87840000 1.354e-5 -66.54 0.999997 -81.21 0.999997 -81.21 1.798e-5 87.743