! Sonnet Data File
! From: emgraph Version : 16.52
! From Project: Resonator2_extremeCap
! Data is De-embedded 
! Data File Written: 10/11/2017 17:55:28
!< HDATE 10/10/2017 20:37:37
!< MDATE 10/10/2017 20:37:37
!< PARAMS
!< Pwid1 = 2000.0
!< Pwid2 = 2000.0
!< Air_gap = 6.0
!< Width = 10.0
!< Gap = 60.0
!< END PARAMS
# GHZ S MA R 50.70000
8.95000000 0.138248 0.9944 0.990393 -87.43 0.990393 -87.43 0.138246 4.1472
!< P1 F=8.95 Eeff=(6.4467035 -2.972e-5) Z0=(51.7988068 1.1952e-4) R=0.0 C=0.0 
!< P2 F=8.95 Eeff=(6.4467035 -2.972e-5) Z0=(51.7988068 1.1952e-4) R=0.0 C=0.0 
8.95020000 0.138259 0.9953 0.990391 -87.43 0.990391 -87.43 0.138257 4.1410
8.95040000 0.138270 0.9961 0.990390 -87.44 0.990390 -87.44 0.138268 4.1347
8.95060000 0.138281 0.9970 0.990388 -87.44 0.990388 -87.44 0.138279 4.1285
8.95080000 0.138292 0.9979 0.990387 -87.44 0.990387 -87.44 0.138290 4.1222
8.95100000 0.138303 0.9988 0.990385 -87.44 0.990385 -87.44 0.138302 4.1160
8.95120000 0.138314 0.9997 0.990384 -87.45 0.990384 -87.45 0.138313 4.1097
8.95140000 0.138326 1.0007 0.990382 -87.45 0.990382 -87.45 0.138324 4.1034
8.95160000 0.138337 1.0016 0.990381 -87.45 0.990381 -87.45 0.138335 4.0971
8.95180000 0.138348 1.0025 0.990379 -87.45 0.990379 -87.45 0.138346 4.0907
8.95200000 0.138359 1.0035 0.990377 -87.46 0.990377 -87.46 0.138358 4.0844
8.95220000 0.138371 1.0045 0.990376 -87.46 0.990376 -87.46 0.138369 4.0780
8.95240000 0.138382 1.0054 0.990374 -87.46 0.990374 -87.46 0.138380 4.0717
8.95260000 0.138393 1.0064 0.990373 -87.46 0.990373 -87.46 0.138391 4.0653
8.95280000 0.138405 1.0074 0.990371 -87.47 0.990371 -87.47 0.138403 4.0589
8.95300000 0.138416 1.0084 0.990369 -87.47 0.990369 -87.47 0.138414 4.0525
8.95320000 0.138427 1.0094 0.990368 -87.47 0.990368 -87.47 0.138426 4.0461
8.95340000 0.138439 1.0104 0.990366 -87.48 0.990366 -87.48 0.138437 4.0397
8.95360000 0.138450 1.0114 0.990365 -87.48 0.990365 -87.48 0.138448 4.0332
8.95380000 0.138462 1.0125 0.990363 -87.48 0.990363 -87.48 0.138460 4.0267
8.95400000 0.138473 1.0135 0.990361 -87.48 0.990361 -87.48 0.138471 4.0203
8.95420000 0.138485 1.0146 0.990360 -87.49 0.990360 -87.49 0.138483 4.0138
8.95440000 0.138496 1.0156 0.990358 -87.49 0.990358 -87.49 0.138494 4.0073
8.95460000 0.138508 1.0167 0.990357 -87.49 0.990357 -87.49 0.138506 4.0008
8.95480000 0.138519 1.0178 0.990355 -87.49 0.990355 -87.49 0.138518 3.9942
8.95500000 0.138531 1.0189 0.990353 -87.50 0.990353 -87.50 0.138529 3.9877
8.95520000 0.138543 1.0200 0.990352 -87.50 0.990352 -87.50 0.138541 3.9811
8.95540000 0.138554 1.0211 0.990350 -87.50 0.990350 -87.50 0.138553 3.9745
8.95560000 0.138566 1.0222 0.990348 -87.51 0.990348 -87.51 0.138564 3.9680
8.95580000 0.138578 1.0233 0.990347 -87.51 0.990347 -87.51 0.138576 3.9614
8.95600000 0.138590 1.0245 0.990345 -87.51 0.990345 -87.51 0.138588 3.9547
8.95620000 0.138601 1.0256 0.990343 -87.51 0.990343 -87.51 0.138600 3.9481
8.95640000 0.138613 1.0268 0.990342 -87.52 0.990342 -87.52 0.138611 3.9415
8.95660000 0.138625 1.0279 0.990340 -87.52 0.990340 -87.52 0.138623 3.9348
8.95680000 0.138637 1.0291 0.990338 -87.52 0.990338 -87.52 0.138635 3.9281
8.95700000 0.138649 1.0303 0.990337 -87.52 0.990337 -87.52 0.138647 3.9214
8.95720000 0.138661 1.0315 0.990335 -87.53 0.990335 -87.53 0.138659 3.9147
8.95740000 0.138673 1.0327 0.990333 -87.53 0.990333 -87.53 0.138671 3.9080
8.95760000 0.138685 1.0340 0.990332 -87.53 0.990332 -87.53 0.138683 3.9013
8.95780000 0.138697 1.0352 0.990330 -87.54 0.990330 -87.54 0.138695 3.8945
8.95800000 0.138709 1.0364 0.990328 -87.54 0.990328 -87.54 0.138707 3.8877
8.95820000 0.138721 1.0377 0.990327 -87.54 0.990327 -87.54 0.138719 3.8810
8.95840000 0.138733 1.0389 0.990325 -87.54 0.990325 -87.54 0.138731 3.8742
8.95860000 0.138745 1.0402 0.990323 -87.55 0.990323 -87.55 0.138743 3.8673
!< P1 F=8.9586 Eeff=(6.44669803 -2.972e-5) Z0=(51.79878 1.1952e-4) R=0.0 C=0.0 
!< P2 F=8.9586 Eeff=(6.44669803 -2.972e-5) Z0=(51.79878 1.1952e-4) R=0.0 C=0.0 
8.95880000 0.138757 1.0415 0.990322 -87.55 0.990322 -87.55 0.138755 3.8605
8.95900000 0.138769 1.0428 0.990320 -87.55 0.990320 -87.55 0.138767 3.8537
8.95920000 0.138782 1.0441 0.990318 -87.55 0.990318 -87.55 0.138780 3.8468
8.95940000 0.138794 1.0454 0.990316 -87.56 0.990316 -87.56 0.138792 3.8399
8.95960000 0.138806 1.0467 0.990315 -87.56 0.990315 -87.56 0.138804 3.8330
8.95980000 0.138818 1.0481 0.990313 -87.56 0.990313 -87.56 0.138816 3.8261
8.96000000 0.138831 1.0494 0.990311 -87.57 0.990311 -87.57 0.138829 3.8192
8.96020000 0.138843 1.0508 0.990309 -87.57 0.990309 -87.57 0.138841 3.8123
8.96040000 0.138855 1.0521 0.990308 -87.57 0.990308 -87.57 0.138853 3.8053
8.96060000 0.138868 1.0535 0.990306 -87.57 0.990306 -87.57 0.138866 3.7983
8.96080000 0.138880 1.0549 0.990304 -87.58 0.990304 -87.58 0.138878 3.7914
8.96100000 0.138893 1.0563 0.990302 -87.58 0.990302 -87.58 0.138891 3.7844
8.96120000 0.138905 1.0577 0.990301 -87.58 0.990301 -87.58 0.138903 3.7773
8.96140000 0.138918 1.0592 0.990299 -87.59 0.990299 -87.59 0.138916 3.7703
8.96160000 0.138930 1.0606 0.990297 -87.59 0.990297 -87.59 0.138928 3.7632
8.96180000 0.138943 1.0620 0.990295 -87.59 0.990295 -87.59 0.138941 3.7562
8.96200000 0.138956 1.0635 0.990294 -87.59 0.990294 -87.59 0.138954 3.7491
8.96220000 0.138968 1.0650 0.990292 -87.60 0.990292 -87.60 0.138966 3.7420
8.96240000 0.138981 1.0664 0.990290 -87.60 0.990290 -87.60 0.138979 3.7349
8.96260000 0.138994 1.0679 0.990288 -87.60 0.990288 -87.60 0.138992 3.7277
8.96280000 0.139006 1.0694 0.990287 -87.61 0.990287 -87.61 0.139004 3.7206
8.96300000 0.139019 1.0710 0.990285 -87.61 0.990285 -87.61 0.139017 3.7134
8.96320000 0.139032 1.0725 0.990283 -87.61 0.990283 -87.61 0.139030 3.7062
8.96340000 0.139045 1.0740 0.990281 -87.61 0.990281 -87.61 0.139043 3.6990
8.96360000 0.139058 1.0756 0.990279 -87.62 0.990279 -87.62 0.139056 3.6918
8.96380000 0.139071 1.0771 0.990277 -87.62 0.990277 -87.62 0.139069 3.6845
8.96400000 0.139084 1.0787 0.990276 -87.62 0.990276 -87.62 0.139081 3.6773
8.96420000 0.139097 1.0803 0.990274 -87.63 0.990274 -87.63 0.139094 3.6700
8.96440000 0.139110 1.0819 0.990272 -87.63 0.990272 -87.63 0.139107 3.6627
8.96460000 0.139123 1.0835 0.990270 -87.63 0.990270 -87.63 0.139120 3.6554
8.96480000 0.139136 1.0851 0.990268 -87.63 0.990268 -87.63 0.139134 3.6481
8.96500000 0.139149 1.0868 0.990266 -87.64 0.990266 -87.64 0.139147 3.6407
8.96520000 0.139162 1.0884 0.990265 -87.64 0.990265 -87.64 0.139160 3.6333
8.96540000 0.139175 1.0901 0.990263 -87.64 0.990263 -87.64 0.139173 3.6260
8.96560000 0.139188 1.0917 0.990261 -87.65 0.990261 -87.65 0.139186 3.6185
8.96580000 0.139202 1.0934 0.990259 -87.65 0.990259 -87.65 0.139199 3.6111
8.96600000 0.139215 1.0951 0.990257 -87.65 0.990257 -87.65 0.139213 3.6037
8.96620000 0.139228 1.0968 0.990255 -87.65 0.990255 -87.65 0.139226 3.5962
8.96640000 0.139241 1.0986 0.990253 -87.66 0.990253 -87.66 0.139239 3.5887
8.96660000 0.139255 1.1003 0.990252 -87.66 0.990252 -87.66 0.139253 3.5813
8.96680000 0.139268 1.1020 0.990250 -87.66 0.990250 -87.66 0.139266 3.5737
8.96700000 0.139282 1.1038 0.990248 -87.67 0.990248 -87.67 0.139279 3.5662
8.96720000 0.139295 1.1056 0.990246 -87.67 0.990246 -87.67 0.139293 3.5586
8.96740000 0.139309 1.1074 0.990244 -87.67 0.990244 -87.67 0.139306 3.5511
8.96760000 0.139322 1.1092 0.990242 -87.67 0.990242 -87.67 0.139320 3.5435
8.96780000 0.139336 1.1110 0.990240 -87.68 0.990240 -87.68 0.139334 3.5359
8.96800000 0.139349 1.1128 0.990238 -87.68 0.990238 -87.68 0.139347 3.5282
8.96820000 0.139363 1.1146 0.990236 -87.68 0.990236 -87.68 0.139361 3.5206
8.96840000 0.139377 1.1165 0.990234 -87.69 0.990234 -87.69 0.139375 3.5129
8.96860000 0.139391 1.1184 0.990232 -87.69 0.990232 -87.69 0.139388 3.5052
8.96880000 0.139404 1.1202 0.990230 -87.69 0.990230 -87.69 0.139402 3.4975
8.96900000 0.139418 1.1221 0.990228 -87.69 0.990228 -87.69 0.139416 3.4898
8.96920000 0.139432 1.1240 0.990227 -87.70 0.990227 -87.70 0.139430 3.4820
8.96940000 0.139446 1.1260 0.990225 -87.70 0.990225 -87.70 0.139444 3.4743
8.96960000 0.139460 1.1279 0.990223 -87.70 0.990223 -87.70 0.139457 3.4665
8.96980000 0.139474 1.1298 0.990221 -87.71 0.990221 -87.71 0.139471 3.4587
8.97000000 0.139488 1.1318 0.990219 -87.71 0.990219 -87.71 0.139485 3.4508
8.97020000 0.139502 1.1338 0.990217 -87.71 0.990217 -87.71 0.139499 3.4430
8.97040000 0.139516 1.1358 0.990215 -87.71 0.990215 -87.71 0.139513 3.4351
8.97060000 0.139530 1.1378 0.990213 -87.72 0.990213 -87.72 0.139528 3.4272
8.97080000 0.139544 1.1398 0.990211 -87.72 0.990211 -87.72 0.139542 3.4193
8.97100000 0.139558 1.1418 0.990209 -87.72 0.990209 -87.72 0.139556 3.4114
8.97120000 0.139573 1.1439 0.990207 -87.73 0.990207 -87.73 0.139570 3.4034
8.97140000 0.139587 1.1459 0.990205 -87.73 0.990205 -87.73 0.139584 3.3955
8.97160000 0.139601 1.1480 0.990203 -87.73 0.990203 -87.73 0.139599 3.3875
8.97180000 0.139615 1.1501 0.990201 -87.74 0.990201 -87.74 0.139613 3.3794
8.97200000 0.139630 1.1522 0.990199 -87.74 0.990199 -87.74 0.139627 3.3714
8.97220000 0.139644 1.1543 0.990197 -87.74 0.990197 -87.74 0.139642 3.3633
8.97240000 0.139659 1.1564 0.990194 -87.74 0.990194 -87.74 0.139656 3.3552
8.97260000 0.139673 1.1586 0.990192 -87.75 0.990192 -87.75 0.139671 3.3471
8.97280000 0.139688 1.1607 0.990190 -87.75 0.990190 -87.75 0.139685 3.3390
8.97300000 0.139702 1.1629 0.990188 -87.75 0.990188 -87.75 0.139700 3.3309
8.97320000 0.139717 1.1651 0.990186 -87.76 0.990186 -87.76 0.139714 3.3227
8.97340000 0.139732 1.1673 0.990184 -87.76 0.990184 -87.76 0.139729 3.3145
8.97360000 0.139746 1.1695 0.990182 -87.76 0.990182 -87.76 0.139744 3.3063
8.97380000 0.139761 1.1718 0.990180 -87.77 0.990180 -87.77 0.139759 3.2980
8.97400000 0.139776 1.1740 0.990178 -87.77 0.990178 -87.77 0.139773 3.2898
8.97420000 0.139791 1.1763 0.990176 -87.77 0.990176 -87.77 0.139788 3.2815
8.97440000 0.139806 1.1786 0.990174 -87.77 0.990174 -87.77 0.139803 3.2732
8.97460000 0.139821 1.1809 0.990172 -87.78 0.990172 -87.78 0.139818 3.2648
8.97480000 0.139836 1.1832 0.990169 -87.78 0.990169 -87.78 0.139833 3.2565
8.97500000 0.139851 1.1855 0.990167 -87.78 0.990167 -87.78 0.139848 3.2481
8.97520000 0.139866 1.1879 0.990165 -87.79 0.990165 -87.79 0.139863 3.2397
8.97540000 0.139881 1.1902 0.990163 -87.79 0.990163 -87.79 0.139878 3.2313
8.97560000 0.139896 1.1926 0.990161 -87.79 0.990161 -87.79 0.139893 3.2228
8.97580000 0.139911 1.1950 0.990159 -87.80 0.990159 -87.80 0.139908 3.2144
8.97600000 0.139926 1.1974 0.990157 -87.80 0.990157 -87.80 0.139924 3.2059
8.97620000 0.139942 1.1998 0.990154 -87.80 0.990154 -87.80 0.139939 3.1973
8.97640000 0.139957 1.2023 0.990152 -87.80 0.990152 -87.80 0.139954 3.1888
8.97660000 0.139972 1.2047 0.990150 -87.81 0.990150 -87.81 0.139970 3.1802
8.97680000 0.139988 1.2072 0.990148 -87.81 0.990148 -87.81 0.139985 3.1716
8.97700000 0.140003 1.2097 0.990146 -87.81 0.990146 -87.81 0.140001 3.1630
8.97720000 0.140019 1.2122 0.990143 -87.82 0.990143 -87.82 0.140016 3.1544
8.97740000 0.140034 1.2147 0.990141 -87.82 0.990141 -87.82 0.140032 3.1457
8.97760000 0.140050 1.2173 0.990139 -87.82 0.990139 -87.82 0.140047 3.1370
8.97780000 0.140066 1.2198 0.990137 -87.83 0.990137 -87.83 0.140063 3.1283
8.97800000 0.140081 1.2224 0.990135 -87.83 0.990135 -87.83 0.140079 3.1195
8.97820000 0.140097 1.2250 0.990132 -87.83 0.990132 -87.83 0.140094 3.1108
8.97840000 0.140113 1.2276 0.990130 -87.84 0.990130 -87.84 0.140110 3.1020
8.97860000 0.140129 1.2303 0.990128 -87.84 0.990128 -87.84 0.140126 3.0931
8.97880000 0.140145 1.2329 0.990126 -87.84 0.990126 -87.84 0.140142 3.0843
8.97900000 0.140161 1.2356 0.990123 -87.84 0.990123 -87.84 0.140158 3.0754
8.97920000 0.140177 1.2382 0.990121 -87.85 0.990121 -87.85 0.140174 3.0665
8.97940000 0.140193 1.2409 0.990119 -87.85 0.990119 -87.85 0.140190 3.0576
8.97960000 0.140209 1.2437 0.990116 -87.85 0.990116 -87.85 0.140206 3.0486
8.97980000 0.140225 1.2464 0.990114 -87.86 0.990114 -87.86 0.140222 3.0397
8.98000000 0.140241 1.2492 0.990112 -87.86 0.990112 -87.86 0.140238 3.0306
8.98020000 0.140257 1.2519 0.990110 -87.86 0.990110 -87.86 0.140254 3.0216
8.98040000 0.140274 1.2547 0.990107 -87.87 0.990107 -87.87 0.140271 3.0126
8.98060000 0.140290 1.2575 0.990105 -87.87 0.990105 -87.87 0.140287 3.0035
8.98080000 0.140306 1.2603 0.990103 -87.87 0.990103 -87.87 0.140303 2.9943
8.98100000 0.140323 1.2632 0.990100 -87.88 0.990100 -87.88 0.140320 2.9852
8.98120000 0.140339 1.2661 0.990098 -87.88 0.990098 -87.88 0.140336 2.9760
8.98140000 0.140356 1.2689 0.990096 -87.88 0.990096 -87.88 0.140353 2.9668
8.98160000 0.140373 1.2718 0.990093 -87.89 0.990093 -87.89 0.140370 2.9576
8.98180000 0.140389 1.2748 0.990091 -87.89 0.990091 -87.89 0.140386 2.9484
8.98200000 0.140406 1.2777 0.990088 -87.89 0.990088 -87.89 0.140403 2.9391
8.98220000 0.140423 1.2807 0.990086 -87.90 0.990086 -87.90 0.140420 2.9298
8.98240000 0.140440 1.2836 0.990084 -87.90 0.990084 -87.90 0.140436 2.9204
8.98260000 0.140456 1.2866 0.990081 -87.90 0.990081 -87.90 0.140453 2.9110
8.98280000 0.140473 1.2896 0.990079 -87.90 0.990079 -87.90 0.140470 2.9016
8.98300000 0.140490 1.2927 0.990076 -87.91 0.990076 -87.91 0.140487 2.8922
8.98320000 0.140507 1.2957 0.990074 -87.91 0.990074 -87.91 0.140504 2.8828
8.98340000 0.140525 1.2988 0.990072 -87.91 0.990072 -87.91 0.140521 2.8733
8.98360000 0.140542 1.3019 0.990069 -87.92 0.990069 -87.92 0.140539 2.8638
8.98380000 0.140559 1.3050 0.990067 -87.92 0.990067 -87.92 0.140556 2.8542
8.98400000 0.140576 1.3082 0.990064 -87.92 0.990064 -87.92 0.140573 2.8446
8.98420000 0.140594 1.3113 0.990062 -87.93 0.990062 -87.93 0.140590 2.8350
8.98440000 0.140611 1.3145 0.990059 -87.93 0.990059 -87.93 0.140608 2.8254
8.98460000 0.140628 1.3177 0.990057 -87.93 0.990057 -87.93 0.140625 2.8157
8.98480000 0.140646 1.3209 0.990054 -87.94 0.990054 -87.94 0.140643 2.8060
8.98500000 0.140664 1.3241 0.990052 -87.94 0.990052 -87.94 0.140660 2.7963
8.98520000 0.140681 1.3274 0.990049 -87.94 0.990049 -87.94 0.140678 2.7865
8.98540000 0.140699 1.3307 0.990047 -87.95 0.990047 -87.95 0.140696 2.7767
8.98560000 0.140717 1.3340 0.990044 -87.95 0.990044 -87.95 0.140713 2.7669
8.98580000 0.140734 1.3373 0.990042 -87.95 0.990042 -87.95 0.140731 2.7570
8.98600000 0.140752 1.3406 0.990039 -87.96 0.990039 -87.96 0.140749 2.7472
8.98620000 0.140770 1.3440 0.990037 -87.96 0.990037 -87.96 0.140767 2.7372
8.98640000 0.140788 1.3474 0.990034 -87.96 0.990034 -87.96 0.140785 2.7273
8.98660000 0.140806 1.3508 0.990031 -87.97 0.990031 -87.97 0.140803 2.7173
8.98680000 0.140824 1.3542 0.990029 -87.97 0.990029 -87.97 0.140821 2.7073
8.98700000 0.140843 1.3577 0.990026 -87.97 0.990026 -87.97 0.140839 2.6972
8.98720000 0.140861 1.3612 0.990024 -87.98 0.990024 -87.98 0.140857 2.6871
8.98740000 0.140879 1.3647 0.990021 -87.98 0.990021 -87.98 0.140876 2.6770
8.98760000 0.140898 1.3682 0.990018 -87.98 0.990018 -87.98 0.140894 2.6669
8.98780000 0.140916 1.3717 0.990016 -87.99 0.990016 -87.99 0.140913 2.6567
8.98800000 0.140934 1.3753 0.990013 -87.99 0.990013 -87.99 0.140931 2.6465
8.98820000 0.140953 1.3789 0.990010 -87.99 0.990010 -87.99 0.140950 2.6362
8.98840000 0.140972 1.3825 0.990008 -88.00 0.990008 -88.00 0.140968 2.6259
8.98860000 0.140990 1.3861 0.990005 -88.00 0.990005 -88.00 0.140987 2.6156
8.98880000 0.141009 1.3898 0.990002 -88.00 0.990002 -88.00 0.141006 2.6053
8.98900000 0.141028 1.3935 0.990000 -88.01 0.990000 -88.01 0.141024 2.5949
8.98920000 0.141047 1.3972 0.989997 -88.01 0.989997 -88.01 0.141043 2.5844
8.98940000 0.141066 1.4009 0.989994 -88.01 0.989994 -88.01 0.141062 2.5740
8.98960000 0.141085 1.4046 0.989992 -88.02 0.989992 -88.02 0.141081 2.5635
8.98980000 0.141104 1.4084 0.989989 -88.02 0.989989 -88.02 0.141100 2.5529
8.99000000 0.141123 1.4122 0.989986 -88.02 0.989986 -88.02 0.141120 2.5424
8.99020000 0.141143 1.4160 0.989983 -88.03 0.989983 -88.03 0.141139 2.5318
8.99040000 0.141162 1.4199 0.989981 -88.03 0.989981 -88.03 0.141158 2.5211
8.99060000 0.141181 1.4238 0.989978 -88.03 0.989978 -88.03 0.141178 2.5104
8.99080000 0.141201 1.4277 0.989975 -88.04 0.989975 -88.04 0.141197 2.4997
8.99100000 0.141220 1.4316 0.989972 -88.04 0.989972 -88.04 0.141217 2.4890
8.99120000 0.141240 1.4355 0.989969 -88.04 0.989969 -88.04 0.141236 2.4782
8.99140000 0.141260 1.4395 0.989967 -88.05 0.989967 -88.05 0.141256 2.4673
8.99160000 0.141279 1.4435 0.989964 -88.05 0.989964 -88.05 0.141276 2.4565
8.99180000 0.141299 1.4475 0.989961 -88.05 0.989961 -88.05 0.141295 2.4456
8.99200000 0.141319 1.4516 0.989958 -88.06 0.989958 -88.06 0.141315 2.4346
8.99220000 0.141339 1.4557 0.989955 -88.06 0.989955 -88.06 0.141335 2.4236
8.99240000 0.141359 1.4598 0.989952 -88.06 0.989952 -88.06 0.141355 2.4126
8.99260000 0.141379 1.4639 0.989949 -88.07 0.989949 -88.07 0.141375 2.4015
8.99280000 0.141399 1.4680 0.989947 -88.07 0.989947 -88.07 0.141396 2.3904
8.99300000 0.141420 1.4722 0.989944 -88.07 0.989944 -88.07 0.141416 2.3793
8.99320000 0.141440 1.4764 0.989941 -88.08 0.989941 -88.08 0.141436 2.3681
8.99340000 0.141461 1.4807 0.989938 -88.08 0.989938 -88.08 0.141457 2.3569
8.99360000 0.141481 1.4849 0.989935 -88.08 0.989935 -88.08 0.141477 2.3456
8.99380000 0.141502 1.4892 0.989932 -88.09 0.989932 -88.09 0.141498 2.3343
8.99400000 0.141522 1.4935 0.989929 -88.09 0.989929 -88.09 0.141518 2.3230
8.99420000 0.141543 1.4979 0.989926 -88.10 0.989926 -88.10 0.141539 2.3116
8.99440000 0.141564 1.5022 0.989923 -88.10 0.989923 -88.10 0.141560 2.3002
8.99460000 0.141585 1.5066 0.989920 -88.10 0.989920 -88.10 0.141581 2.2887
8.99480000 0.141606 1.5111 0.989917 -88.11 0.989917 -88.11 0.141602 2.2772
8.99500000 0.141627 1.5155 0.989914 -88.11 0.989914 -88.11 0.141623 2.2656
8.99520000 0.141648 1.5200 0.989911 -88.11 0.989911 -88.11 0.141644 2.2541
8.99540000 0.141670 1.5245 0.989908 -88.12 0.989908 -88.12 0.141665 2.2424
8.99560000 0.141691 1.5291 0.989905 -88.12 0.989905 -88.12 0.141687 2.2307
8.99580000 0.141712 1.5336 0.989902 -88.12 0.989902 -88.12 0.141708 2.2190
8.99600000 0.141734 1.5382 0.989899 -88.13 0.989899 -88.13 0.141730 2.2072
8.99620000 0.141755 1.5429 0.989895 -88.13 0.989895 -88.13 0.141751 2.1954
8.99640000 0.141777 1.5475 0.989892 -88.13 0.989892 -88.13 0.141773 2.1836
8.99660000 0.141799 1.5522 0.989889 -88.14 0.989889 -88.14 0.141795 2.1717
8.99680000 0.141821 1.5569 0.989886 -88.14 0.989886 -88.14 0.141816 2.1597
8.99700000 0.141843 1.5617 0.989883 -88.15 0.989883 -88.15 0.141838 2.1477
8.99720000 0.141865 1.5664 0.989880 -88.15 0.989880 -88.15 0.141860 2.1357
8.99740000 0.141887 1.5713 0.989877 -88.15 0.989877 -88.15 0.141883 2.1236
8.99760000 0.141909 1.5761 0.989873 -88.16 0.989873 -88.16 0.141905 2.1115
8.99780000 0.141931 1.5810 0.989870 -88.16 0.989870 -88.16 0.141927 2.0993
8.99800000 0.141954 1.5859 0.989867 -88.16 0.989867 -88.16 0.141949 2.0871
8.99820000 0.141976 1.5908 0.989864 -88.17 0.989864 -88.17 0.141972 2.0748
8.99840000 0.141999 1.5958 0.989860 -88.17 0.989860 -88.17 0.141995 2.0625
8.99860000 0.142022 1.6008 0.989857 -88.17 0.989857 -88.17 0.142017 2.0501
8.99880000 0.142044 1.6058 0.989854 -88.18 0.989854 -88.18 0.142040 2.0377
8.99900000 0.142067 1.6108 0.989851 -88.18 0.989851 -88.18 0.142063 2.0252
8.99920000 0.142090 1.6159 0.989847 -88.19 0.989847 -88.19 0.142086 2.0127
8.99940000 0.142113 1.6211 0.989844 -88.19 0.989844 -88.19 0.142109 2.0001
8.99960000 0.142137 1.6262 0.989841 -88.19 0.989841 -88.19 0.142132 1.9875
8.99980000 0.142160 1.6314 0.989837 -88.20 0.989837 -88.20 0.142155 1.9749
9.00000000 0.142183 1.6366 0.989834 -88.20 0.989834 -88.20 0.142179 1.9622
9.00020000 0.142207 1.6419 0.989830 -88.20 0.989830 -88.20 0.142202 1.9494
9.00040000 0.142230 1.6472 0.989827 -88.21 0.989827 -88.21 0.142226 1.9366
9.00060000 0.142254 1.6525 0.989824 -88.21 0.989824 -88.21 0.142249 1.9237
9.00080000 0.142278 1.6579 0.989820 -88.22 0.989820 -88.22 0.142273 1.9108
9.00100000 0.142302 1.6633 0.989817 -88.22 0.989817 -88.22 0.142297 1.8978
9.00120000 0.142326 1.6687 0.989813 -88.22 0.989813 -88.22 0.142321 1.8848
9.00140000 0.142350 1.6742 0.989810 -88.23 0.989810 -88.23 0.142345 1.8717
9.00160000 0.142374 1.6797 0.989806 -88.23 0.989806 -88.23 0.142369 1.8586
9.00180000 0.142398 1.6852 0.989803 -88.23 0.989803 -88.23 0.142393 1.8454
9.00200000 0.142423 1.6908 0.989799 -88.24 0.989799 -88.24 0.142418 1.8322
9.00220000 0.142447 1.6964 0.989796 -88.24 0.989796 -88.24 0.142442 1.8189
9.00240000 0.142472 1.7020 0.989792 -88.25 0.989792 -88.25 0.142467 1.8055
9.00260000 0.142497 1.7077 0.989789 -88.25 0.989789 -88.25 0.142492 1.7921
9.00280000 0.142521 1.7134 0.989785 -88.25 0.989785 -88.25 0.142516 1.7787
9.00300000 0.142546 1.7192 0.989781 -88.26 0.989781 -88.26 0.142541 1.7652
9.00320000 0.142571 1.7250 0.989778 -88.26 0.989778 -88.26 0.142566 1.7516
9.00340000 0.142597 1.7308 0.989774 -88.27 0.989774 -88.27 0.142592 1.7380
9.00360000 0.142622 1.7366 0.989770 -88.27 0.989770 -88.27 0.142617 1.7243
9.00380000 0.142647 1.7425 0.989767 -88.27 0.989767 -88.27 0.142642 1.7106
9.00400000 0.142673 1.7485 0.989763 -88.28 0.989763 -88.28 0.142668 1.6968
9.00420000 0.142699 1.7545 0.989759 -88.28 0.989759 -88.28 0.142693 1.6829
9.00440000 0.142724 1.7605 0.989756 -88.29 0.989756 -88.29 0.142719 1.6690
9.00460000 0.142750 1.7665 0.989752 -88.29 0.989752 -88.29 0.142745 1.6550
9.00480000 0.142776 1.7726 0.989748 -88.29 0.989748 -88.29 0.142771 1.6410
9.00500000 0.142802 1.7788 0.989744 -88.30 0.989744 -88.30 0.142797 1.6269
9.00520000 0.142829 1.7850 0.989741 -88.30 0.989741 -88.30 0.142823 1.6127
9.00540000 0.142855 1.7912 0.989737 -88.30 0.989737 -88.30 0.142850 1.5985
9.00560000 0.142881 1.7974 0.989733 -88.31 0.989733 -88.31 0.142876 1.5842
9.00580000 0.142908 1.8037 0.989729 -88.31 0.989729 -88.31 0.142903 1.5699
9.00600000 0.142935 1.8101 0.989725 -88.32 0.989725 -88.32 0.142929 1.5555
9.00620000 0.142962 1.8165 0.989721 -88.32 0.989721 -88.32 0.142956 1.5410
9.00640000 0.142989 1.8229 0.989717 -88.33 0.989717 -88.33 0.142983 1.5265
9.00660000 0.143016 1.8293 0.989713 -88.33 0.989713 -88.33 0.143010 1.5119
9.00680000 0.143043 1.8359 0.989709 -88.33 0.989709 -88.33 0.143038 1.4973
9.00700000 0.143071 1.8424 0.989705 -88.34 0.989705 -88.34 0.143065 1.4825
9.00720000 0.143098 1.8490 0.989701 -88.34 0.989701 -88.34 0.143093 1.4678
9.00740000 0.143126 1.8556 0.989697 -88.35 0.989697 -88.35 0.143120 1.4529
9.00760000 0.143154 1.8623 0.989693 -88.35 0.989693 -88.35 0.143148 1.4380
9.00780000 0.143182 1.8690 0.989689 -88.35 0.989689 -88.35 0.143176 1.4230
9.00800000 0.143210 1.8758 0.989685 -88.36 0.989685 -88.36 0.143204 1.4079
9.00820000 0.143238 1.8826 0.989681 -88.36 0.989681 -88.36 0.143232 1.3928
9.00840000 0.143266 1.8895 0.989677 -88.37 0.989677 -88.37 0.143260 1.3776
9.00860000 0.143295 1.8964 0.989673 -88.37 0.989673 -88.37 0.143289 1.3624
9.00880000 0.143323 1.9033 0.989669 -88.37 0.989669 -88.37 0.143317 1.3470
9.00900000 0.143352 1.9103 0.989664 -88.38 0.989664 -88.38 0.143346 1.3316
9.00920000 0.143381 1.9174 0.989660 -88.38 0.989660 -88.38 0.143375 1.3162
9.00940000 0.143410 1.9245 0.989656 -88.39 0.989656 -88.39 0.143404 1.3006
9.00960000 0.143439 1.9316 0.989652 -88.39 0.989652 -88.39 0.143433 1.2850
9.00980000 0.143469 1.9388 0.989648 -88.40 0.989648 -88.40 0.143463 1.2693
9.01000000 0.143498 1.9460 0.989643 -88.40 0.989643 -88.40 0.143492 1.2536
9.01020000 0.143528 1.9533 0.989639 -88.40 0.989639 -88.40 0.143522 1.2378
9.01040000 0.143558 1.9606 0.989635 -88.41 0.989635 -88.41 0.143552 1.2218
9.01060000 0.143588 1.9680 0.989630 -88.41 0.989630 -88.41 0.143581 1.2059
9.01080000 0.143618 1.9754 0.989626 -88.42 0.989626 -88.42 0.143612 1.1898
9.01100000 0.143648 1.9829 0.989621 -88.42 0.989621 -88.42 0.143642 1.1737
9.01120000 0.143678 1.9904 0.989617 -88.43 0.989617 -88.43 0.143672 1.1575
9.01140000 0.143709 1.9980 0.989612 -88.43 0.989612 -88.43 0.143703 1.1412
9.01160000 0.143740 2.0056 0.989608 -88.43 0.989608 -88.43 0.143733 1.1248
9.01180000 0.143771 2.0133 0.989603 -88.44 0.989603 -88.44 0.143764 1.1084
9.01200000 0.143802 2.0210 0.989599 -88.44 0.989599 -88.44 0.143795 1.0919
9.01220000 0.143833 2.0288 0.989594 -88.45 0.989594 -88.45 0.143827 1.0753
9.01240000 0.143864 2.0366 0.989590 -88.45 0.989590 -88.45 0.143858 1.0586
9.01260000 0.143896 2.0445 0.989585 -88.46 0.989585 -88.46 0.143889 1.0418
9.01280000 0.143928 2.0525 0.989581 -88.46 0.989581 -88.46 0.143921 1.0250
9.01300000 0.143960 2.0605 0.989576 -88.47 0.989576 -88.47 0.143953 1.0081
9.01320000 0.143992 2.0685 0.989571 -88.47 0.989571 -88.47 0.143985 0.9911
9.01340000 0.144024 2.0766 0.989566 -88.47 0.989566 -88.47 0.144017 0.9740
9.01360000 0.144056 2.0848 0.989562 -88.48 0.989562 -88.48 0.144050 0.9568
9.01380000 0.144089 2.0930 0.989557 -88.48 0.989557 -88.48 0.144082 0.9395
9.01400000 0.144122 2.1012 0.989552 -88.49 0.989552 -88.49 0.144115 0.9222
9.01420000 0.144155 2.1096 0.989547 -88.49 0.989547 -88.49 0.144148 0.9048
9.01440000 0.144188 2.1180 0.989542 -88.50 0.989542 -88.50 0.144181 0.8872
9.01460000 0.144221 2.1264 0.989538 -88.50 0.989538 -88.50 0.144214 0.8696
9.01480000 0.144255 2.1349 0.989533 -88.51 0.989533 -88.51 0.144248 0.8519
9.01500000 0.144288 2.1434 0.989528 -88.51 0.989528 -88.51 0.144281 0.8341
9.01520000 0.144322 2.1521 0.989523 -88.52 0.989523 -88.52 0.144315 0.8163
9.01540000 0.144356 2.1607 0.989518 -88.52 0.989518 -88.52 0.144349 0.7983
9.01560000 0.144391 2.1695 0.989513 -88.52 0.989513 -88.52 0.144384 0.7802
9.01580000 0.144425 2.1783 0.989508 -88.53 0.989508 -88.53 0.144418 0.7621
9.01600000 0.144460 2.1871 0.989503 -88.53 0.989503 -88.53 0.144453 0.7439
9.01620000 0.144495 2.1960 0.989497 -88.54 0.989497 -88.54 0.144487 0.7255
9.01640000 0.144530 2.2050 0.989492 -88.54 0.989492 -88.54 0.144523 0.7071
9.01660000 0.144565 2.2140 0.989487 -88.55 0.989487 -88.55 0.144558 0.6886
9.01680000 0.144601 2.2231 0.989482 -88.55 0.989482 -88.55 0.144593 0.6699
9.01700000 0.144636 2.2323 0.989477 -88.56 0.989477 -88.56 0.144629 0.6512
9.01720000 0.144672 2.2415 0.989471 -88.56 0.989471 -88.56 0.144665 0.6324
9.01740000 0.144708 2.2508 0.989466 -88.57 0.989466 -88.57 0.144701 0.6135
9.01760000 0.144744 2.2602 0.989461 -88.57 0.989461 -88.57 0.144737 0.5944
9.01780000 0.144781 2.2696 0.989455 -88.58 0.989455 -88.58 0.144773 0.5753
9.01800000 0.144818 2.2791 0.989450 -88.58 0.989450 -88.58 0.144810 0.5561
9.01820000 0.144855 2.2887 0.989445 -88.59 0.989445 -88.59 0.144847 0.5368
9.01840000 0.144892 2.2983 0.989439 -88.59 0.989439 -88.59 0.144884 0.5173
9.01860000 0.144929 2.3080 0.989434 -88.60 0.989434 -88.60 0.144921 0.4978
9.01880000 0.144967 2.3177 0.989428 -88.60 0.989428 -88.60 0.144959 0.4782
9.01900000 0.145005 2.3276 0.989422 -88.61 0.989422 -88.61 0.144997 0.4584
9.01920000 0.145043 2.3375 0.989417 -88.61 0.989417 -88.61 0.145035 0.4386
9.01940000 0.145081 2.3474 0.989411 -88.62 0.989411 -88.62 0.145073 0.4186
9.01960000 0.145120 2.3575 0.989406 -88.62 0.989406 -88.62 0.145112 0.3985
9.01980000 0.145158 2.3676 0.989400 -88.63 0.989400 -88.63 0.145150 0.3784
9.02000000 0.145197 2.3778 0.989394 -88.63 0.989394 -88.63 0.145189 0.3581
9.02020000 0.145237 2.3880 0.989388 -88.64 0.989388 -88.64 0.145228 0.3377
9.02040000 0.145276 2.3983 0.989382 -88.64 0.989382 -88.64 0.145268 0.3171
9.02060000 0.145316 2.4087 0.989377 -88.65 0.989377 -88.65 0.145307 0.2965
9.02080000 0.145356 2.4192 0.989371 -88.65 0.989371 -88.65 0.145347 0.2758
9.02100000 0.145396 2.4298 0.989365 -88.66 0.989365 -88.66 0.145388 0.2549
9.02120000 0.145436 2.4404 0.989359 -88.66 0.989359 -88.66 0.145428 0.2339
9.02140000 0.145477 2.4511 0.989353 -88.67 0.989353 -88.67 0.145469 0.2128
9.02160000 0.145518 2.4619 0.989347 -88.67 0.989347 -88.67 0.145510 0.1916
9.02180000 0.145559 2.4727 0.989341 -88.68 0.989341 -88.68 0.145551 0.1703
9.02200000 0.145601 2.4837 0.989334 -88.68 0.989334 -88.68 0.145592 0.1488
9.02220000 0.145643 2.4947 0.989328 -88.69 0.989328 -88.69 0.145634 0.1272
9.02240000 0.145685 2.5058 0.989322 -88.69 0.989322 -88.69 0.145676 0.1055
9.02260000 0.145727 2.5170 0.989316 -88.70 0.989316 -88.70 0.145718 0.0837
9.02280000 0.145770 2.5282 0.989309 -88.70 0.989309 -88.70 0.145761 0.0617
9.02300000 0.145813 2.5396 0.989303 -88.71 0.989303 -88.71 0.145804 0.0396
9.02320000 0.145856 2.5510 0.989297 -88.71 0.989297 -88.71 0.145847 0.0174
9.02340000 0.145899 2.5625 0.989290 -88.72 0.989290 -88.72 0.145890 0.0000
9.02360000 0.145943 2.5741 0.989284 -88.73 0.989284 -88.73 0.145934 -0.027
9.02380000 0.145987 2.5858 0.989277 -88.73 0.989277 -88.73 0.145978 -0.050
9.02400000 0.146031 2.5975 0.989271 -88.74 0.989271 -88.74 0.146022 -0.073
9.02420000 0.146076 2.6094 0.989264 -88.74 0.989264 -88.74 0.146067 -0.096
9.02440000 0.146121 2.6213 0.989257 -88.75 0.989257 -88.75 0.146111 -0.119
9.02460000 0.146166 2.6334 0.989251 -88.75 0.989251 -88.75 0.146157 -0.142
9.02480000 0.146212 2.6455 0.989244 -88.76 0.989244 -88.76 0.146202 -0.165
9.02500000 0.146257 2.6577 0.989237 -88.76 0.989237 -88.76 0.146248 -0.189
9.02520000 0.146304 2.6700 0.989230 -88.77 0.989230 -88.77 0.146294 -0.212
9.02540000 0.146350 2.6824 0.989223 -88.78 0.989223 -88.78 0.146340 -0.236
9.02560000 0.146397 2.6949 0.989216 -88.78 0.989216 -88.78 0.146387 -0.260
9.02580000 0.146444 2.7074 0.989209 -88.79 0.989209 -88.79 0.146434 -0.284
9.02600000 0.146491 2.7201 0.989202 -88.79 0.989202 -88.79 0.146481 -0.308
9.02620000 0.146539 2.7329 0.989195 -88.80 0.989195 -88.80 0.146529 -0.332
9.02640000 0.146587 2.7457 0.989188 -88.80 0.989188 -88.80 0.146577 -0.357
9.02660000 0.146636 2.7587 0.989181 -88.81 0.989181 -88.81 0.146625 -0.381
9.02680000 0.146684 2.7718 0.989173 -88.82 0.989173 -88.82 0.146674 -0.406
9.02700000 0.146733 2.7849 0.989166 -88.82 0.989166 -88.82 0.146723 -0.431
9.02720000 0.146783 2.7982 0.989159 -88.83 0.989159 -88.83 0.146773 -0.456
9.02740000 0.146833 2.8115 0.989151 -88.83 0.989151 -88.83 0.146822 -0.481
9.02760000 0.146883 2.8250 0.989144 -88.84 0.989144 -88.84 0.146872 -0.507
9.02780000 0.146934 2.8386 0.989136 -88.85 0.989136 -88.85 0.146923 -0.532
9.02800000 0.146984 2.8522 0.989129 -88.85 0.989129 -88.85 0.146974 -0.558