! Sonnet Data File
! From: emgraph Version : 16.52
! From Project: Resonator2_extremeCap
! Data is De-embedded 
! Data File Written: 10/10/2017 20:29:21
!< HDATE 10/09/2017 23:04:37
!< MDATE 10/09/2017 23:04:37
!< PARAMS
!< Pwid1 = 2000.0
!< Pwid2 = 2000.0
!< Air_gap = 18.0
!< Width = 30.0
!< Gap = 33.0
!< END PARAMS
# GHZ S MA R 51.80000
8.98000000 0.083275 10.318 0.996518 -89.15 0.996518 -89.15 0.083263 -8.614
!< P1 F=8.98 Eeff=(6.44501582 -2.9712e-5) Z0=(50.6182877 1.16785e-4) R=0.0 C=0.0 
!< P2 F=8.98 Eeff=(6.44501582 -2.9712e-5) Z0=(50.6182877 1.16785e-4) R=0.0 C=0.0 
8.98010000 0.083281 10.334 0.996517 -89.15 0.996517 -89.15 0.083268 -8.636
8.98020000 0.083287 10.351 0.996517 -89.15 0.996517 -89.15 0.083274 -8.658
8.98030000 0.083292 10.367 0.996516 -89.16 0.996516 -89.16 0.083280 -8.679
8.98040000 0.083298 10.384 0.996516 -89.16 0.996516 -89.16 0.083286 -8.701
8.98050000 0.083304 10.400 0.996515 -89.16 0.996515 -89.16 0.083292 -8.723
8.98060000 0.083310 10.417 0.996515 -89.16 0.996515 -89.16 0.083298 -8.745
8.98070000 0.083316 10.433 0.996514 -89.17 0.996514 -89.17 0.083303 -8.767
8.98080000 0.083322 10.450 0.996513 -89.17 0.996513 -89.17 0.083309 -8.788
8.98090000 0.083328 10.466 0.996513 -89.17 0.996513 -89.17 0.083315 -8.810
8.98100000 0.083334 10.483 0.996512 -89.18 0.996512 -89.18 0.083321 -8.832
8.98110000 0.083340 10.500 0.996512 -89.18 0.996512 -89.18 0.083327 -8.854
8.98120000 0.083346 10.516 0.996511 -89.18 0.996511 -89.18 0.083333 -8.877
8.98130000 0.083352 10.533 0.996511 -89.18 0.996511 -89.18 0.083339 -8.899
8.98140000 0.083358 10.550 0.996510 -89.19 0.996510 -89.19 0.083345 -8.921
8.98150000 0.083364 10.567 0.996510 -89.19 0.996510 -89.19 0.083351 -8.943
8.98160000 0.083370 10.583 0.996509 -89.19 0.996509 -89.19 0.083357 -8.965
8.98170000 0.083376 10.600 0.996509 -89.19 0.996509 -89.19 0.083363 -8.988
8.98180000 0.083382 10.617 0.996508 -89.20 0.996508 -89.20 0.083369 -9.010
8.98190000 0.083388 10.634 0.996508 -89.20 0.996508 -89.20 0.083376 -9.033
8.98200000 0.083394 10.651 0.996507 -89.20 0.996507 -89.20 0.083382 -9.055
8.98210000 0.083401 10.668 0.996507 -89.21 0.996507 -89.21 0.083388 -9.078
8.98220000 0.083407 10.685 0.996506 -89.21 0.996506 -89.21 0.083394 -9.100
8.98230000 0.083413 10.703 0.996506 -89.21 0.996506 -89.21 0.083400 -9.123
8.98240000 0.083419 10.720 0.996505 -89.21 0.996505 -89.21 0.083406 -9.145
8.98250000 0.083425 10.737 0.996505 -89.22 0.996505 -89.22 0.083413 -9.168
8.98260000 0.083432 10.754 0.996504 -89.22 0.996504 -89.22 0.083419 -9.191
8.98270000 0.083438 10.772 0.996504 -89.22 0.996504 -89.22 0.083425 -9.214
8.98280000 0.083444 10.789 0.996503 -89.22 0.996503 -89.22 0.083431 -9.236
8.98290000 0.083451 10.806 0.996502 -89.23 0.996502 -89.23 0.083438 -9.259
8.98300000 0.083457 10.824 0.996502 -89.23 0.996502 -89.23 0.083444 -9.282
8.98310000 0.083463 10.841 0.996501 -89.23 0.996501 -89.23 0.083450 -9.305
8.98320000 0.083470 10.859 0.996501 -89.24 0.996501 -89.24 0.083457 -9.328
8.98330000 0.083476 10.876 0.996500 -89.24 0.996500 -89.24 0.083463 -9.351
8.98340000 0.083483 10.894 0.996500 -89.24 0.996500 -89.24 0.083469 -9.374
8.98350000 0.083489 10.911 0.996499 -89.24 0.996499 -89.24 0.083476 -9.398
8.98360000 0.083496 10.929 0.996499 -89.25 0.996499 -89.25 0.083482 -9.421
8.98370000 0.083502 10.947 0.996498 -89.25 0.996498 -89.25 0.083489 -9.444
8.98380000 0.083509 10.964 0.996497 -89.25 0.996497 -89.25 0.083495 -9.467
8.98390000 0.083515 10.982 0.996497 -89.26 0.996497 -89.26 0.083502 -9.491
8.98400000 0.083522 11.000 0.996496 -89.26 0.996496 -89.26 0.083508 -9.514
8.98410000 0.083528 11.018 0.996496 -89.26 0.996496 -89.26 0.083515 -9.538
8.98420000 0.083535 11.036 0.996495 -89.26 0.996495 -89.26 0.083522 -9.561
8.98430000 0.083542 11.053 0.996495 -89.27 0.996495 -89.27 0.083528 -9.585
8.98440000 0.083548 11.071 0.996494 -89.27 0.996494 -89.27 0.083535 -9.608
8.98450000 0.083555 11.089 0.996494 -89.27 0.996494 -89.27 0.083541 -9.632
8.98460000 0.083562 11.107 0.996493 -89.27 0.996493 -89.27 0.083548 -9.656
8.98470000 0.083568 11.126 0.996492 -89.28 0.996492 -89.28 0.083555 -9.679
8.98480000 0.083575 11.144 0.996492 -89.28 0.996492 -89.28 0.083561 -9.703
8.98490000 0.083582 11.162 0.996491 -89.28 0.996491 -89.28 0.083568 -9.727
8.98500000 0.083589 11.180 0.996491 -89.29 0.996491 -89.29 0.083575 -9.751
8.98510000 0.083595 11.198 0.996490 -89.29 0.996490 -89.29 0.083582 -9.775
8.98520000 0.083602 11.217 0.996489 -89.29 0.996489 -89.29 0.083589 -9.799
8.98530000 0.083609 11.235 0.996489 -89.29 0.996489 -89.29 0.083595 -9.823
8.98540000 0.083616 11.253 0.996488 -89.30 0.996488 -89.30 0.083602 -9.847
8.98550000 0.083623 11.272 0.996488 -89.30 0.996488 -89.30 0.083609 -9.871
8.98560000 0.083630 11.290 0.996487 -89.30 0.996487 -89.30 0.083616 -9.896
8.98570000 0.083637 11.309 0.996486 -89.31 0.996486 -89.31 0.083623 -9.920
8.98580000 0.083644 11.327 0.996486 -89.31 0.996486 -89.31 0.083630 -9.944
8.98590000 0.083651 11.346 0.996485 -89.31 0.996485 -89.31 0.083637 -9.968
8.98600000 0.083658 11.365 0.996485 -89.31 0.996485 -89.31 0.083644 -9.993
8.98610000 0.083665 11.383 0.996484 -89.32 0.996484 -89.32 0.083651 -10.02
8.98620000 0.083672 11.402 0.996483 -89.32 0.996483 -89.32 0.083658 -10.04
8.98630000 0.083679 11.421 0.996483 -89.32 0.996483 -89.32 0.083665 -10.07
8.98640000 0.083686 11.440 0.996482 -89.33 0.996482 -89.33 0.083672 -10.09
8.98650000 0.083693 11.458 0.996482 -89.33 0.996482 -89.33 0.083679 -10.12
8.98660000 0.083700 11.477 0.996481 -89.33 0.996481 -89.33 0.083686 -10.14
8.98670000 0.083708 11.496 0.996480 -89.34 0.996480 -89.34 0.083693 -10.17
8.98680000 0.083715 11.515 0.996480 -89.34 0.996480 -89.34 0.083701 -10.19
8.98690000 0.083722 11.534 0.996479 -89.34 0.996479 -89.34 0.083708 -10.22
8.98700000 0.083729 11.553 0.996479 -89.34 0.996479 -89.34 0.083715 -10.24
8.98710000 0.083737 11.573 0.996478 -89.35 0.996478 -89.35 0.083722 -10.27
8.98720000 0.083744 11.592 0.996477 -89.35 0.996477 -89.35 0.083730 -10.29
8.98730000 0.083751 11.611 0.996477 -89.35 0.996477 -89.35 0.083737 -10.32
8.98740000 0.083759 11.630 0.996476 -89.36 0.996476 -89.36 0.083744 -10.34
8.98750000 0.083766 11.650 0.996475 -89.36 0.996475 -89.36 0.083752 -10.37
8.98760000 0.083773 11.669 0.996475 -89.36 0.996475 -89.36 0.083759 -10.39
8.98770000 0.083781 11.688 0.996474 -89.36 0.996474 -89.36 0.083766 -10.42
8.98780000 0.083788 11.708 0.996473 -89.37 0.996473 -89.37 0.083774 -10.44
8.98790000 0.083796 11.727 0.996473 -89.37 0.996473 -89.37 0.083781 -10.47
8.98800000 0.083803 11.747 0.996472 -89.37 0.996472 -89.37 0.083789 -10.49
8.98810000 0.083811 11.766 0.996471 -89.38 0.996471 -89.38 0.083796 -10.52
8.98820000 0.083819 11.786 0.996471 -89.38 0.996471 -89.38 0.083804 -10.54
8.98830000 0.083826 11.806 0.996470 -89.38 0.996470 -89.38 0.083812 -10.57
8.98840000 0.083834 11.825 0.996469 -89.39 0.996469 -89.39 0.083819 -10.60
8.98850000 0.083841 11.845 0.996469 -89.39 0.996469 -89.39 0.083827 -10.62
8.98860000 0.083849 11.865 0.996468 -89.39 0.996468 -89.39 0.083834 -10.65
8.98870000 0.083857 11.885 0.996468 -89.39 0.996468 -89.39 0.083842 -10.67
8.98880000 0.083865 11.905 0.996467 -89.40 0.996467 -89.40 0.083850 -10.70
8.98890000 0.083872 11.925 0.996466 -89.40 0.996466 -89.40 0.083858 -10.72
8.98900000 0.083880 11.945 0.996465 -89.40 0.996465 -89.40 0.083865 -10.75
8.98910000 0.083888 11.965 0.996465 -89.41 0.996465 -89.41 0.083873 -10.78
8.98920000 0.083896 11.985 0.996464 -89.41 0.996464 -89.41 0.083881 -10.80
8.98930000 0.083904 12.005 0.996463 -89.41 0.996463 -89.41 0.083889 -10.83
8.98940000 0.083912 12.025 0.996463 -89.42 0.996463 -89.42 0.083897 -10.86
8.98950000 0.083920 12.045 0.996462 -89.42 0.996462 -89.42 0.083905 -10.88
8.98960000 0.083928 12.066 0.996461 -89.42 0.996461 -89.42 0.083913 -10.91
8.98970000 0.083936 12.086 0.996461 -89.42 0.996461 -89.42 0.083920 -10.93
8.98980000 0.083944 12.106 0.996460 -89.43 0.996460 -89.43 0.083928 -10.96
8.98990000 0.083952 12.127 0.996459 -89.43 0.996459 -89.43 0.083937 -10.99
8.99000000 0.083960 12.147 0.996459 -89.43 0.996459 -89.43 0.083945 -11.01
8.99010000 0.083968 12.168 0.996458 -89.44 0.996458 -89.44 0.083953 -11.04
8.99020000 0.083976 12.189 0.996457 -89.44 0.996457 -89.44 0.083961 -11.07
8.99030000 0.083984 12.209 0.996457 -89.44 0.996457 -89.44 0.083969 -11.09
8.99040000 0.083993 12.230 0.996456 -89.45 0.996456 -89.45 0.083977 -11.12
8.99050000 0.084001 12.251 0.996455 -89.45 0.996455 -89.45 0.083985 -11.15
8.99060000 0.084009 12.271 0.996454 -89.45 0.996454 -89.45 0.083994 -11.18
8.99070000 0.084017 12.292 0.996454 -89.46 0.996454 -89.46 0.084002 -11.20
8.99080000 0.084026 12.313 0.996453 -89.46 0.996453 -89.46 0.084010 -11.23
8.99090000 0.084034 12.334 0.996452 -89.46 0.996452 -89.46 0.084018 -11.26
8.99100000 0.084042 12.355 0.996451 -89.46 0.996451 -89.46 0.084027 -11.28
8.99110000 0.084051 12.376 0.996451 -89.47 0.996451 -89.47 0.084035 -11.31
8.99120000 0.084059 12.397 0.996450 -89.47 0.996450 -89.47 0.084044 -11.34
8.99130000 0.084068 12.418 0.996449 -89.47 0.996449 -89.47 0.084052 -11.37
8.99140000 0.084076 12.439 0.996449 -89.48 0.996449 -89.48 0.084061 -11.39
8.99150000 0.084085 12.461 0.996448 -89.48 0.996448 -89.48 0.084069 -11.42
8.99160000 0.084093 12.482 0.996447 -89.48 0.996447 -89.48 0.084078 -11.45
8.99170000 0.084102 12.503 0.996446 -89.49 0.996446 -89.49 0.084086 -11.48
8.99180000 0.084111 12.525 0.996446 -89.49 0.996446 -89.49 0.084095 -11.50
8.99190000 0.084119 12.546 0.996445 -89.49 0.996445 -89.49 0.084103 -11.53
8.99200000 0.084128 12.568 0.996444 -89.50 0.996444 -89.50 0.084112 -11.56
8.99210000 0.084137 12.589 0.996443 -89.50 0.996443 -89.50 0.084121 -11.59
8.99220000 0.084146 12.611 0.996443 -89.50 0.996443 -89.50 0.084130 -11.62
8.99230000 0.084155 12.633 0.996442 -89.51 0.996442 -89.51 0.084138 -11.64
8.99240000 0.084163 12.654 0.996441 -89.51 0.996441 -89.51 0.084147 -11.67
8.99250000 0.084172 12.676 0.996440 -89.51 0.996440 -89.51 0.084156 -11.70
8.99260000 0.084181 12.698 0.996439 -89.52 0.996439 -89.52 0.084165 -11.73
8.99270000 0.084190 12.720 0.996439 -89.52 0.996439 -89.52 0.084174 -11.76
8.99280000 0.084199 12.742 0.996438 -89.52 0.996438 -89.52 0.084183 -11.79
8.99290000 0.084208 12.764 0.996437 -89.53 0.996437 -89.53 0.084192 -11.81
8.99300000 0.084217 12.786 0.996436 -89.53 0.996436 -89.53 0.084201 -11.84
8.99310000 0.084226 12.808 0.996436 -89.53 0.996436 -89.53 0.084210 -11.87
8.99320000 0.084235 12.830 0.996435 -89.53 0.996435 -89.53 0.084219 -11.90
8.99330000 0.084245 12.852 0.996434 -89.54 0.996434 -89.54 0.084228 -11.93
8.99340000 0.084254 12.874 0.996433 -89.54 0.996433 -89.54 0.084237 -11.96
8.99350000 0.084263 12.897 0.996432 -89.54 0.996432 -89.54 0.084246 -11.99
8.99360000 0.084272 12.919 0.996432 -89.55 0.996432 -89.55 0.084256 -12.01
8.99370000 0.084282 12.942 0.996431 -89.55 0.996431 -89.55 0.084265 -12.04
8.99380000 0.084291 12.964 0.996430 -89.55 0.996430 -89.55 0.084274 -12.07
8.99390000 0.084300 12.987 0.996429 -89.56 0.996429 -89.56 0.084284 -12.10
8.99400000 0.084310 13.009 0.996428 -89.56 0.996428 -89.56 0.084293 -12.13
8.99410000 0.084319 13.032 0.996428 -89.56 0.996428 -89.56 0.084302 -12.16
8.99420000 0.084329 13.055 0.996427 -89.57 0.996427 -89.57 0.084312 -12.19
8.99430000 0.084338 13.077 0.996426 -89.57 0.996426 -89.57 0.084321 -12.22
8.99440000 0.084348 13.100 0.996425 -89.57 0.996425 -89.57 0.084331 -12.25
8.99450000 0.084357 13.123 0.996424 -89.58 0.996424 -89.58 0.084340 -12.28
8.99460000 0.084367 13.146 0.996423 -89.58 0.996423 -89.58 0.084350 -12.31
8.99470000 0.084377 13.169 0.996423 -89.58 0.996423 -89.58 0.084360 -12.34
8.99480000 0.084386 13.192 0.996422 -89.59 0.996422 -89.59 0.084369 -12.37
8.99490000 0.084396 13.215 0.996421 -89.59 0.996421 -89.59 0.084379 -12.40
8.99500000 0.084406 13.238 0.996420 -89.59 0.996420 -89.59 0.084389 -12.43
8.99510000 0.084416 13.261 0.996419 -89.60 0.996419 -89.60 0.084399 -12.46
8.99520000 0.084426 13.285 0.996418 -89.60 0.996418 -89.60 0.084408 -12.49
8.99530000 0.084436 13.308 0.996417 -89.60 0.996417 -89.60 0.084418 -12.52
8.99540000 0.084446 13.332 0.996417 -89.61 0.996417 -89.61 0.084428 -12.55
8.99550000 0.084456 13.355 0.996416 -89.61 0.996416 -89.61 0.084438 -12.58
8.99560000 0.084466 13.378 0.996415 -89.61 0.996415 -89.61 0.084448 -12.61
8.99570000 0.084476 13.402 0.996414 -89.62 0.996414 -89.62 0.084458 -12.64
8.99580000 0.084486 13.426 0.996413 -89.62 0.996413 -89.62 0.084468 -12.67
8.99590000 0.084496 13.449 0.996412 -89.62 0.996412 -89.62 0.084478 -12.70
8.99600000 0.084506 13.473 0.996411 -89.63 0.996411 -89.63 0.084488 -12.73
8.99610000 0.084516 13.497 0.996410 -89.63 0.996410 -89.63 0.084499 -12.76
8.99620000 0.084527 13.521 0.996410 -89.63 0.996410 -89.63 0.084509 -12.79
8.99630000 0.084537 13.545 0.996409 -89.64 0.996409 -89.64 0.084519 -12.82
8.99640000 0.084547 13.569 0.996408 -89.64 0.996408 -89.64 0.084529 -12.85
8.99650000 0.084558 13.593 0.996407 -89.65 0.996407 -89.65 0.084540 -12.88
8.99660000 0.084568 13.617 0.996406 -89.65 0.996406 -89.65 0.084550 -12.91
8.99670000 0.084579 13.641 0.996405 -89.65 0.996405 -89.65 0.084561 -12.95
8.99680000 0.084589 13.665 0.996404 -89.66 0.996404 -89.66 0.084571 -12.98
8.99690000 0.084600 13.690 0.996403 -89.66 0.996403 -89.66 0.084582 -13.01
8.99700000 0.084610 13.714 0.996402 -89.66 0.996402 -89.66 0.084592 -13.04
8.99710000 0.084621 13.739 0.996401 -89.67 0.996401 -89.67 0.084603 -13.07
8.99720000 0.084632 13.763 0.996400 -89.67 0.996400 -89.67 0.084614 -13.10
8.99730000 0.084643 13.788 0.996399 -89.67 0.996399 -89.67 0.084624 -13.13
8.99740000 0.084653 13.812 0.996399 -89.68 0.996399 -89.68 0.084635 -13.17
8.99750000 0.084664 13.837 0.996398 -89.68 0.996398 -89.68 0.084646 -13.20
8.99760000 0.084675 13.862 0.996397 -89.68 0.996397 -89.68 0.084657 -13.23
8.99770000 0.084686 13.886 0.996396 -89.69 0.996396 -89.69 0.084668 -13.26
8.99780000 0.084697 13.911 0.996395 -89.69 0.996395 -89.69 0.084678 -13.29
8.99790000 0.084708 13.936 0.996394 -89.69 0.996394 -89.69 0.084689 -13.32
8.99800000 0.084719 13.961 0.996393 -89.70 0.996393 -89.70 0.084700 -13.36
8.99810000 0.084730 13.986 0.996392 -89.70 0.996392 -89.70 0.084712 -13.39
8.99820000 0.084741 14.011 0.996391 -89.70 0.996391 -89.70 0.084723 -13.42
8.99830000 0.084753 14.037 0.996390 -89.71 0.996390 -89.71 0.084734 -13.45
8.99840000 0.084764 14.062 0.996389 -89.71 0.996389 -89.71 0.084745 -13.49
8.99850000 0.084775 14.087 0.996388 -89.72 0.996388 -89.72 0.084756 -13.52
8.99860000 0.084786 14.113 0.996387 -89.72 0.996387 -89.72 0.084768 -13.55
8.99870000 0.084798 14.138 0.996386 -89.72 0.996386 -89.72 0.084779 -13.58
8.99880000 0.084809 14.164 0.996385 -89.73 0.996385 -89.73 0.084790 -13.62
8.99890000 0.084821 14.189 0.996384 -89.73 0.996384 -89.73 0.084802 -13.65
8.99900000 0.084832 14.215 0.996383 -89.73 0.996383 -89.73 0.084813 -13.68
8.99910000 0.084844 14.241 0.996382 -89.74 0.996382 -89.74 0.084825 -13.71
8.99920000 0.084856 14.266 0.996381 -89.74 0.996381 -89.74 0.084836 -13.75
8.99930000 0.084867 14.292 0.996380 -89.74 0.996380 -89.74 0.084848 -13.78
8.99940000 0.084879 14.318 0.996379 -89.75 0.996379 -89.75 0.084860 -13.81
8.99950000 0.084891 14.344 0.996378 -89.75 0.996378 -89.75 0.084871 -13.85
8.99960000 0.084903 14.370 0.996377 -89.76 0.996377 -89.76 0.084883 -13.88
8.99970000 0.084915 14.396 0.996376 -89.76 0.996376 -89.76 0.084895 -13.91
8.99980000 0.084927 14.423 0.996375 -89.76 0.996375 -89.76 0.084907 -13.95
8.99990000 0.084939 14.449 0.996374 -89.77 0.996374 -89.77 0.084919 -13.98
9.00000000 0.084951 14.475 0.996373 -89.77 0.996373 -89.77 0.084931 -14.02
9.00010000 0.084963 14.502 0.996372 -89.77 0.996372 -89.77 0.084943 -14.05
9.00020000 0.084975 14.528 0.996370 -89.78 0.996370 -89.78 0.084955 -14.08
9.00030000 0.084987 14.555 0.996369 -89.78 0.996369 -89.78 0.084967 -14.12
9.00040000 0.084999 14.581 0.996368 -89.78 0.996368 -89.78 0.084979 -14.15
9.00050000 0.085012 14.608 0.996367 -89.79 0.996367 -89.79 0.084992 -14.19
9.00060000 0.085024 14.635 0.996366 -89.79 0.996366 -89.79 0.085004 -14.22
9.00070000 0.085036 14.662 0.996365 -89.80 0.996365 -89.80 0.085016 -14.25
9.00080000 0.085049 14.688 0.996364 -89.80 0.996364 -89.80 0.085029 -14.29
9.00090000 0.085061 14.715 0.996363 -89.80 0.996363 -89.80 0.085041 -14.32
9.00100000 0.085074 14.742 0.996362 -89.81 0.996362 -89.81 0.085054 -14.36
9.00110000 0.085087 14.770 0.996361 -89.81 0.996361 -89.81 0.085066 -14.39
9.00120000 0.085099 14.797 0.996360 -89.81 0.996360 -89.81 0.085079 -14.43
9.00130000 0.085112 14.824 0.996358 -89.82 0.996358 -89.82 0.085092 -14.46
9.00140000 0.085125 14.851 0.996357 -89.82 0.996357 -89.82 0.085105 -14.50
9.00150000 0.085138 14.879 0.996356 -89.83 0.996356 -89.83 0.085117 -14.53
9.00160000 0.085151 14.906 0.996355 -89.83 0.996355 -89.83 0.085130 -14.57
9.00170000 0.085164 14.934 0.996354 -89.83 0.996354 -89.83 0.085143 -14.60
9.00180000 0.085177 14.961 0.996353 -89.84 0.996353 -89.84 0.085156 -14.64
9.00190000 0.085190 14.989 0.996352 -89.84 0.996352 -89.84 0.085169 -14.67
9.00200000 0.085203 15.017 0.996351 -89.85 0.996351 -89.85 0.085182 -14.71
9.00210000 0.085216 15.045 0.996349 -89.85 0.996349 -89.85 0.085195 -14.74
9.00220000 0.085229 15.073 0.996348 -89.85 0.996348 -89.85 0.085209 -14.78
9.00230000 0.085243 15.101 0.996347 -89.86 0.996347 -89.86 0.085222 -14.81
9.00240000 0.085256 15.129 0.996346 -89.86 0.996346 -89.86 0.085235 -14.85
9.00250000 0.085270 15.157 0.996345 -89.86 0.996345 -89.86 0.085249 -14.89
9.00260000 0.085283 15.185 0.996344 -89.87 0.996344 -89.87 0.085262 -14.92
9.00270000 0.085297 15.213 0.996342 -89.87 0.996342 -89.87 0.085276 -14.96
9.00280000 0.085310 15.242 0.996341 -89.88 0.996341 -89.88 0.085289 -15.00
9.00290000 0.085324 15.270 0.996340 -89.88 0.996340 -89.88 0.085303 -15.03
9.00300000 0.085338 15.299 0.996339 -89.88 0.996339 -89.88 0.085317 -15.07
9.00310000 0.085352 15.327 0.996338 -89.89 0.996338 -89.89 0.085330 -15.10
9.00320000 0.085366 15.356 0.996336 -89.89 0.996336 -89.89 0.085344 -15.14
9.00330000 0.085379 15.385 0.996335 -89.90 0.996335 -89.90 0.085358 -15.18
9.00340000 0.085394 15.414 0.996334 -89.90 0.996334 -89.90 0.085372 -15.21
9.00350000 0.085408 15.443 0.996333 -89.90 0.996333 -89.90 0.085386 -15.25
9.00360000 0.085422 15.472 0.996331 -89.91 0.996331 -89.91 0.085400 -15.29
9.00370000 0.085436 15.501 0.996330 -89.91 0.996330 -89.91 0.085414 -15.33
9.00380000 0.085450 15.530 0.996329 -89.92 0.996329 -89.92 0.085428 -15.36
9.00390000 0.085465 15.559 0.996328 -89.92 0.996328 -89.92 0.085443 -15.40
9.00400000 0.085479 15.588 0.996326 -89.92 0.996326 -89.92 0.085457 -15.44
9.00410000 0.085493 15.618 0.996325 -89.93 0.996325 -89.93 0.085471 -15.47
9.00420000 0.085508 15.647 0.996324 -89.93 0.996324 -89.93 0.085486 -15.51
9.00430000 0.085523 15.677 0.996322 -89.94 0.996322 -89.94 0.085500 -15.55
9.00440000 0.085537 15.706 0.996321 -89.94 0.996321 -89.94 0.085515 -15.59
9.00450000 0.085552 15.736 0.996320 -89.94 0.996320 -89.94 0.085530 -15.63
9.00460000 0.085567 15.766 0.996319 -89.95 0.996319 -89.95 0.085544 -15.66
9.00470000 0.085582 15.796 0.996317 -89.95 0.996317 -89.95 0.085559 -15.70
9.00480000 0.085597 15.826 0.996316 -89.96 0.996316 -89.96 0.085574 -15.74
9.00490000 0.085612 15.856 0.996315 -89.96 0.996315 -89.96 0.085589 -15.78
9.00500000 0.085627 15.886 0.996313 -89.96 0.996313 -89.96 0.085604 -15.82
9.00510000 0.085642 15.916 0.996312 -89.97 0.996312 -89.97 0.085619 -15.85
9.00520000 0.085657 15.946 0.996311 -89.97 0.996311 -89.97 0.085634 -15.89
9.00530000 0.085672 15.977 0.996309 -89.98 0.996309 -89.98 0.085650 -15.93
9.00540000 0.085688 16.007 0.996308 -89.98 0.996308 -89.98 0.085665 -15.97
9.00550000 0.085703 16.038 0.996307 -89.98 0.996307 -89.98 0.085680 -16.01
9.00560000 0.085719 16.068 0.996305 -89.99 0.996305 -89.99 0.085696 -16.05
9.00570000 0.085734 16.099 0.996304 -89.99 0.996304 -89.99 0.085711 -16.09
9.00580000 0.085750 16.130 0.996302 -90.00 0.996302 -90.00 0.085727 -16.13
9.00590000 0.085766 16.161 0.996301 -90.00 0.996301 -90.00 0.085743 -16.17
9.00600000 0.085781 16.192 0.996300 -90.01 0.996300 -90.01 0.085758 -16.20
9.00610000 0.085797 16.223 0.996298 -90.01 0.996298 -90.01 0.085774 -16.24
9.00620000 0.085813 16.254 0.996297 -90.01 0.996297 -90.01 0.085790 -16.28
9.00630000 0.085829 16.285 0.996295 -90.02 0.996295 -90.02 0.085806 -16.32
9.00640000 0.085845 16.316 0.996294 -90.02 0.996294 -90.02 0.085822 -16.36
9.00650000 0.085862 16.348 0.996293 -90.03 0.996293 -90.03 0.085838 -16.40
9.00660000 0.085878 16.379 0.996291 -90.03 0.996291 -90.03 0.085854 -16.44
9.00670000 0.085894 16.411 0.996290 -90.04 0.996290 -90.04 0.085871 -16.48
9.00680000 0.085911 16.443 0.996288 -90.04 0.996288 -90.04 0.085887 -16.52
!< P1 F=9.0068 Eeff=(6.44500684 -2.9712e-5) Z0=(50.6182034 1.16785e-4) R=0.0 C=0.0 
!< P2 F=9.0068 Eeff=(6.44500684 -2.9712e-5) Z0=(50.6182034 1.16785e-4) R=0.0 C=0.0 
9.00690000 0.085927 16.474 0.996287 -90.04 0.996287 -90.04 0.085903 -16.56
9.00700000 0.085944 16.506 0.996285 -90.05 0.996285 -90.05 0.085920 -16.60
9.00710000 0.085960 16.538 0.996284 -90.05 0.996284 -90.05 0.085937 -16.64
9.00720000 0.085977 16.570 0.996282 -90.06 0.996282 -90.06 0.085953 -16.69
9.00730000 0.085994 16.602 0.996281 -90.06 0.996281 -90.06 0.085970 -16.73
9.00740000 0.086011 16.635 0.996279 -90.07 0.996279 -90.07 0.085987 -16.77
9.00750000 0.086028 16.667 0.996278 -90.07 0.996278 -90.07 0.086004 -16.81
9.00760000 0.086045 16.699 0.996276 -90.07 0.996276 -90.07 0.086021 -16.85
9.00770000 0.086062 16.732 0.996275 -90.08 0.996275 -90.08 0.086038 -16.89
9.00780000 0.086079 16.764 0.996273 -90.08 0.996273 -90.08 0.086055 -16.93
9.00790000 0.086097 16.797 0.996272 -90.09 0.996272 -90.09 0.086072 -16.97
9.00800000 0.086114 16.830 0.996270 -90.09 0.996270 -90.09 0.086090 -17.02
9.00810000 0.086132 16.863 0.996269 -90.10 0.996269 -90.10 0.086107 -17.06
9.00820000 0.086149 16.895 0.996267 -90.10 0.996267 -90.10 0.086125 -17.10
9.00830000 0.086167 16.928 0.996266 -90.10 0.996266 -90.10 0.086142 -17.14
9.00840000 0.086185 16.962 0.996264 -90.11 0.996264 -90.11 0.086160 -17.18
9.00850000 0.086203 16.995 0.996263 -90.11 0.996263 -90.11 0.086178 -17.22
9.00860000 0.086220 17.028 0.996261 -90.12 0.996261 -90.12 0.086195 -17.27
9.00870000 0.086238 17.062 0.996259 -90.12 0.996259 -90.12 0.086213 -17.31
9.00880000 0.086257 17.095 0.996258 -90.13 0.996258 -90.13 0.086231 -17.35
9.00890000 0.086275 17.129 0.996256 -90.13 0.996256 -90.13 0.086250 -17.39
9.00900000 0.086293 17.162 0.996254 -90.14 0.996254 -90.14 0.086268 -17.44
9.00910000 0.086311 17.196 0.996253 -90.14 0.996253 -90.14 0.086286 -17.48
9.00920000 0.086330 17.230 0.996251 -90.15 0.996251 -90.15 0.086304 -17.52
9.00930000 0.086349 17.264 0.996250 -90.15 0.996250 -90.15 0.086323 -17.57
9.00940000 0.086367 17.298 0.996248 -90.15 0.996248 -90.15 0.086342 -17.61
9.00950000 0.086386 17.332 0.996246 -90.16 0.996246 -90.16 0.086360 -17.65
9.00960000 0.086405 17.367 0.996245 -90.16 0.996245 -90.16 0.086379 -17.70
9.00970000 0.086424 17.401 0.996243 -90.17 0.996243 -90.17 0.086398 -17.74
9.00980000 0.086443 17.435 0.996241 -90.17 0.996241 -90.17 0.086417 -17.78
9.00990000 0.086462 17.470 0.996240 -90.18 0.996240 -90.18 0.086436 -17.83
9.01000000 0.086481 17.505 0.996238 -90.18 0.996238 -90.18 0.086455 -17.87
9.01010000 0.086500 17.539 0.996236 -90.19 0.996236 -90.19 0.086474 -17.91
9.01020000 0.086520 17.574 0.996234 -90.19 0.996234 -90.19 0.086494 -17.96
9.01030000 0.086539 17.609 0.996233 -90.20 0.996233 -90.20 0.086513 -18.00
9.01040000 0.086559 17.644 0.996231 -90.20 0.996231 -90.20 0.086533 -18.05
9.01050000 0.086579 17.680 0.996229 -90.21 0.996229 -90.21 0.086552 -18.09
9.01060000 0.086599 17.715 0.996227 -90.21 0.996227 -90.21 0.086572 -18.14
9.01070000 0.086619 17.750 0.996226 -90.21 0.996226 -90.21 0.086592 -18.18
9.01080000 0.086639 17.786 0.996224 -90.22 0.996224 -90.22 0.086612 -18.23
9.01090000 0.086659 17.821 0.996222 -90.22 0.996222 -90.22 0.086632 -18.27
9.01100000 0.086679 17.857 0.996220 -90.23 0.996220 -90.23 0.086652 -18.32
9.01110000 0.086699 17.893 0.996218 -90.23 0.996218 -90.23 0.086672 -18.36
9.01120000 0.086720 17.929 0.996217 -90.24 0.996217 -90.24 0.086693 -18.41
9.01130000 0.086740 17.965 0.996215 -90.24 0.996215 -90.24 0.086713 -18.45
9.01140000 0.086761 18.001 0.996213 -90.25 0.996213 -90.25 0.086734 -18.50
9.01150000 0.086782 18.037 0.996211 -90.25 0.996211 -90.25 0.086754 -18.55
9.01160000 0.086803 18.073 0.996209 -90.26 0.996209 -90.26 0.086775 -18.59
9.01170000 0.086824 18.110 0.996207 -90.26 0.996207 -90.26 0.086796 -18.64
9.01180000 0.086845 18.146 0.996205 -90.27 0.996205 -90.27 0.086817 -18.68
9.01190000 0.086866 18.183 0.996204 -90.27 0.996204 -90.27 0.086838 -18.73
9.01200000 0.086887 18.220 0.996202 -90.28 0.996202 -90.28 0.086859 -18.78
9.01210000 0.086909 18.257 0.996200 -90.28 0.996200 -90.28 0.086881 -18.82
9.01220000 0.086930 18.294 0.996198 -90.29 0.996198 -90.29 0.086902 -18.87
9.01230000 0.086952 18.331 0.996196 -90.29 0.996196 -90.29 0.086924 -18.92
9.01240000 0.086974 18.368 0.996194 -90.30 0.996194 -90.30 0.086945 -18.96
9.01250000 0.086995 18.405 0.996192 -90.30 0.996192 -90.30 0.086967 -19.01
9.01260000 0.087017 18.443 0.996190 -90.31 0.996190 -90.31 0.086989 -19.06
9.01270000 0.087040 18.480 0.996188 -90.31 0.996188 -90.31 0.087011 -19.11
9.01280000 0.087062 18.518 0.996186 -90.32 0.996186 -90.32 0.087033 -19.15
9.01290000 0.087084 18.556 0.996184 -90.32 0.996184 -90.32 0.087056 -19.20
9.01300000 0.087107 18.593 0.996182 -90.33 0.996182 -90.33 0.087078 -19.25
9.01310000 0.087129 18.631 0.996180 -90.33 0.996180 -90.33 0.087100 -19.30
9.01320000 0.087152 18.669 0.996178 -90.34 0.996178 -90.34 0.087123 -19.34
9.01330000 0.087175 18.708 0.996176 -90.34 0.996176 -90.34 0.087146 -19.39
9.01340000 0.087198 18.746 0.996174 -90.35 0.996174 -90.35 0.087169 -19.44
9.01350000 0.087221 18.784 0.996172 -90.35 0.996172 -90.35 0.087192 -19.49
9.01360000 0.087244 18.823 0.996170 -90.36 0.996170 -90.36 0.087215 -19.54
9.01370000 0.087267 18.862 0.996168 -90.36 0.996168 -90.36 0.087238 -19.59
9.01380000 0.087291 18.900 0.996166 -90.37 0.996166 -90.37 0.087261 -19.64
9.01390000 0.087314 18.939 0.996163 -90.37 0.996163 -90.37 0.087285 -19.69
9.01400000 0.087338 18.978 0.996161 -90.38 0.996161 -90.38 0.087308 -19.74
9.01410000 0.087362 19.017 0.996159 -90.38 0.996159 -90.38 0.087332 -19.78
9.01420000 0.087386 19.057 0.996157 -90.39 0.996157 -90.39 0.087356 -19.83
9.01430000 0.087410 19.096 0.996155 -90.39 0.996155 -90.39 0.087380 -19.88
9.01440000 0.087434 19.135 0.996153 -90.40 0.996153 -90.40 0.087404 -19.93
9.01450000 0.087458 19.175 0.996151 -90.40 0.996151 -90.40 0.087428 -19.98
9.01460000 0.087483 19.215 0.996148 -90.41 0.996148 -90.41 0.087453 -20.03
9.01470000 0.087507 19.254 0.996146 -90.41 0.996146 -90.41 0.087477 -20.08
9.01480000 0.087532 19.294 0.996144 -90.42 0.996144 -90.42 0.087502 -20.13
9.01490000 0.087557 19.334 0.996142 -90.42 0.996142 -90.42 0.087527 -20.19
9.01500000 0.087582 19.375 0.996139 -90.43 0.996139 -90.43 0.087552 -20.24
9.01510000 0.087607 19.415 0.996137 -90.43 0.996137 -90.43 0.087577 -20.29
9.01520000 0.087633 19.455 0.996135 -90.44 0.996135 -90.44 0.087602 -20.34
9.01530000 0.087658 19.496 0.996133 -90.44 0.996133 -90.44 0.087627 -20.39
9.01540000 0.087684 19.537 0.996130 -90.45 0.996130 -90.45 0.087653 -20.44
9.01550000 0.087709 19.577 0.996128 -90.46 0.996128 -90.46 0.087678 -20.49
9.01560000 0.087735 19.618 0.996126 -90.46 0.996126 -90.46 0.087704 -20.54
9.01570000 0.087761 19.659 0.996123 -90.47 0.996123 -90.47 0.087730 -20.60
9.01580000 0.087787 19.701 0.996121 -90.47 0.996121 -90.47 0.087756 -20.65
9.01590000 0.087814 19.742 0.996119 -90.48 0.996119 -90.48 0.087782 -20.70
9.01600000 0.087840 19.783 0.996116 -90.48 0.996116 -90.48 0.087809 -20.75
9.01610000 0.087867 19.825 0.996114 -90.49 0.996114 -90.49 0.087835 -20.80
9.01620000 0.087893 19.867 0.996111 -90.49 0.996111 -90.49 0.087862 -20.86
9.01630000 0.087920 19.908 0.996109 -90.50 0.996109 -90.50 0.087888 -20.91
9.01640000 0.087947 19.950 0.996106 -90.50 0.996106 -90.50 0.087915 -20.96
9.01650000 0.087975 19.992 0.996104 -90.51 0.996104 -90.51 0.087942 -21.02
9.01660000 0.088002 20.035 0.996102 -90.52 0.996102 -90.52 0.087970 -21.07
9.01670000 0.088029 20.077 0.996099 -90.52 0.996099 -90.52 0.087997 -21.12
9.01680000 0.088057 20.119 0.996097 -90.53 0.996097 -90.53 0.088025 -21.18
9.01690000 0.088085 20.162 0.996094 -90.53 0.996094 -90.53 0.088052 -21.23
9.01700000 0.088113 20.205 0.996092 -90.54 0.996092 -90.54 0.088080 -21.28
9.01710000 0.088141 20.247 0.996089 -90.54 0.996089 -90.54 0.088108 -21.34
9.01720000 0.088169 20.290 0.996086 -90.55 0.996086 -90.55 0.088136 -21.39
9.01730000 0.088198 20.333 0.996084 -90.55 0.996084 -90.55 0.088165 -21.45
9.01740000 0.088226 20.377 0.996081 -90.56 0.996081 -90.56 0.088193 -21.50
9.01750000 0.088255 20.420 0.996079 -90.57 0.996079 -90.57 0.088222 -21.56
9.01760000 0.088284 20.464 0.996076 -90.57 0.996076 -90.57 0.088251 -21.61
9.01770000 0.088313 20.507 0.996073 -90.58 0.996073 -90.58 0.088280 -21.67
9.01780000 0.088342 20.551 0.996071 -90.58 0.996071 -90.58 0.088309 -21.72
9.01790000 0.088372 20.595 0.996068 -90.59 0.996068 -90.59 0.088338 -21.78
9.01800000 0.088401 20.639 0.996065 -90.59 0.996065 -90.59 0.088368 -21.83
9.01810000 0.088431 20.683 0.996063 -90.60 0.996063 -90.60 0.088397 -21.89
9.01820000 0.088461 20.727 0.996060 -90.61 0.996060 -90.61 0.088427 -21.94
9.01830000 0.088491 20.772 0.996057 -90.61 0.996057 -90.61 0.088457 -22.00
9.01840000 0.088522 20.817 0.996054 -90.62 0.996054 -90.62 0.088487 -22.06
9.01850000 0.088552 20.861 0.996052 -90.62 0.996052 -90.62 0.088518 -22.11
9.01860000 0.088583 20.906 0.996049 -90.63 0.996049 -90.63 0.088548 -22.17
9.01870000 0.088614 20.951 0.996046 -90.64 0.996046 -90.64 0.088579 -22.23
9.01880000 0.088645 20.996 0.996043 -90.64 0.996043 -90.64 0.088610 -22.28
9.01890000 0.088676 21.042 0.996040 -90.65 0.996040 -90.65 0.088641 -22.34
9.01900000 0.088707 21.087 0.996038 -90.65 0.996038 -90.65 0.088672 -22.40