! Sonnet Data File
! From: emgraph Version : 16.52
! From Project: Resonator2_extremeCap
! Data is De-embedded 
! Data File Written: 10/10/2017 20:29:22
!< HDATE 10/09/2017 23:04:37
!< MDATE 10/09/2017 23:04:37
!< PARAMS
!< Pwid1 = 2000.0
!< Pwid2 = 2000.0
!< Air_gap = 24.0
!< Width = 40.0
!< Gap = 33.0
!< END PARAMS
# GHZ S MA R 51.80000
8.98000000 0.076600 12.863 0.997052 -89.40 0.997052 -89.40 0.076587 -11.66
!< P1 F=8.98 Eeff=(6.44310582 -2.9702e-5) Z0=(50.4815179 1.16466e-4) R=0.0 C=0.0 
!< P2 F=8.98 Eeff=(6.44310582 -2.9702e-5) Z0=(50.4815179 1.16466e-4) R=0.0 C=0.0 
8.98010000 0.076606 12.884 0.997052 -89.40 0.997052 -89.40 0.076592 -11.69
8.98020000 0.076612 12.904 0.997051 -89.41 0.997051 -89.41 0.076598 -11.71
8.98030000 0.076618 12.925 0.997051 -89.41 0.997051 -89.41 0.076604 -11.74
8.98040000 0.076624 12.945 0.997050 -89.41 0.997050 -89.41 0.076610 -11.77
8.98050000 0.076630 12.966 0.997050 -89.41 0.997050 -89.41 0.076616 -11.79
8.98060000 0.076636 12.986 0.997049 -89.42 0.997049 -89.42 0.076622 -11.82
8.98070000 0.076642 13.007 0.997049 -89.42 0.997049 -89.42 0.076628 -11.85
8.98080000 0.076648 13.028 0.997048 -89.42 0.997048 -89.42 0.076634 -11.87
8.98090000 0.076655 13.049 0.997048 -89.43 0.997048 -89.43 0.076640 -11.90
8.98100000 0.076661 13.070 0.997047 -89.43 0.997047 -89.43 0.076647 -11.93
8.98110000 0.076667 13.091 0.997047 -89.43 0.997047 -89.43 0.076653 -11.95
8.98120000 0.076673 13.112 0.997046 -89.43 0.997046 -89.43 0.076659 -11.98
8.98130000 0.076679 13.132 0.997046 -89.44 0.997046 -89.44 0.076665 -12.01
8.98140000 0.076685 13.154 0.997045 -89.44 0.997045 -89.44 0.076671 -12.03
8.98150000 0.076692 13.175 0.997045 -89.44 0.997045 -89.44 0.076677 -12.06
8.98160000 0.076698 13.196 0.997044 -89.45 0.997044 -89.45 0.076684 -12.09
8.98170000 0.076704 13.217 0.997044 -89.45 0.997044 -89.45 0.076690 -12.11
8.98180000 0.076711 13.238 0.997043 -89.45 0.997043 -89.45 0.076696 -12.14
8.98190000 0.076717 13.259 0.997043 -89.45 0.997043 -89.45 0.076702 -12.17
8.98200000 0.076723 13.281 0.997042 -89.46 0.997042 -89.46 0.076709 -12.19
8.98210000 0.076730 13.302 0.997042 -89.46 0.997042 -89.46 0.076715 -12.22
8.98220000 0.076736 13.324 0.997041 -89.46 0.997041 -89.46 0.076722 -12.25
8.98230000 0.076743 13.345 0.997041 -89.47 0.997041 -89.47 0.076728 -12.28
8.98240000 0.076749 13.367 0.997040 -89.47 0.997040 -89.47 0.076734 -12.30
8.98250000 0.076755 13.388 0.997040 -89.47 0.997040 -89.47 0.076741 -12.33
8.98260000 0.076762 13.410 0.997039 -89.48 0.997039 -89.48 0.076747 -12.36
8.98270000 0.076769 13.431 0.997039 -89.48 0.997039 -89.48 0.076754 -12.39
8.98280000 0.076775 13.453 0.997038 -89.48 0.997038 -89.48 0.076760 -12.41
8.98290000 0.076782 13.475 0.997038 -89.48 0.997038 -89.48 0.076767 -12.44
8.98300000 0.076788 13.497 0.997037 -89.49 0.997037 -89.49 0.076773 -12.47
8.98310000 0.076795 13.518 0.997037 -89.49 0.997037 -89.49 0.076780 -12.50
8.98320000 0.076802 13.540 0.997036 -89.49 0.997036 -89.49 0.076787 -12.53
8.98330000 0.076808 13.562 0.997036 -89.50 0.997036 -89.50 0.076793 -12.55
8.98340000 0.076815 13.584 0.997035 -89.50 0.997035 -89.50 0.076800 -12.58
8.98350000 0.076822 13.606 0.997034 -89.50 0.997034 -89.50 0.076807 -12.61
8.98360000 0.076829 13.628 0.997034 -89.51 0.997034 -89.51 0.076814 -12.64
8.98370000 0.076835 13.651 0.997033 -89.51 0.997033 -89.51 0.076820 -12.67
8.98380000 0.076842 13.673 0.997033 -89.51 0.997033 -89.51 0.076827 -12.69
8.98390000 0.076849 13.695 0.997032 -89.51 0.997032 -89.51 0.076834 -12.72
8.98400000 0.076856 13.717 0.997032 -89.52 0.997032 -89.52 0.076841 -12.75
8.98410000 0.076863 13.740 0.997031 -89.52 0.997031 -89.52 0.076848 -12.78
8.98420000 0.076870 13.762 0.997031 -89.52 0.997031 -89.52 0.076854 -12.81
8.98430000 0.076877 13.784 0.997030 -89.53 0.997030 -89.53 0.076861 -12.84
8.98440000 0.076884 13.807 0.997030 -89.53 0.997030 -89.53 0.076868 -12.87
8.98450000 0.076891 13.829 0.997029 -89.53 0.997029 -89.53 0.076875 -12.89
8.98460000 0.076898 13.852 0.997028 -89.54 0.997028 -89.54 0.076882 -12.92
8.98470000 0.076905 13.875 0.997028 -89.54 0.997028 -89.54 0.076889 -12.95
8.98480000 0.076912 13.897 0.997027 -89.54 0.997027 -89.54 0.076896 -12.98
8.98490000 0.076919 13.920 0.997027 -89.55 0.997027 -89.55 0.076903 -13.01
8.98500000 0.076926 13.943 0.997026 -89.55 0.997026 -89.55 0.076911 -13.04
8.98510000 0.076933 13.966 0.997026 -89.55 0.997026 -89.55 0.076918 -13.07
8.98520000 0.076940 13.989 0.997025 -89.55 0.997025 -89.55 0.076925 -13.10
8.98530000 0.076948 14.012 0.997025 -89.56 0.997025 -89.56 0.076932 -13.13
8.98540000 0.076955 14.035 0.997024 -89.56 0.997024 -89.56 0.076939 -13.15
8.98550000 0.076962 14.058 0.997023 -89.56 0.997023 -89.56 0.076947 -13.18
8.98560000 0.076970 14.081 0.997023 -89.57 0.997023 -89.57 0.076954 -13.21
8.98570000 0.076977 14.104 0.997022 -89.57 0.997022 -89.57 0.076961 -13.24
8.98580000 0.076984 14.127 0.997022 -89.57 0.997022 -89.57 0.076969 -13.27
8.98590000 0.076992 14.150 0.997021 -89.58 0.997021 -89.58 0.076976 -13.30
8.98600000 0.076999 14.174 0.997020 -89.58 0.997020 -89.58 0.076983 -13.33
8.98610000 0.077007 14.197 0.997020 -89.58 0.997020 -89.58 0.076991 -13.36
8.98620000 0.077014 14.221 0.997019 -89.59 0.997019 -89.59 0.076998 -13.39
8.98630000 0.077022 14.244 0.997019 -89.59 0.997019 -89.59 0.077006 -13.42
8.98640000 0.077029 14.268 0.997018 -89.59 0.997018 -89.59 0.077013 -13.45
8.98650000 0.077037 14.291 0.997017 -89.60 0.997017 -89.60 0.077021 -13.48
8.98660000 0.077044 14.315 0.997017 -89.60 0.997017 -89.60 0.077028 -13.51
8.98670000 0.077052 14.339 0.997016 -89.60 0.997016 -89.60 0.077036 -13.54
8.98680000 0.077060 14.362 0.997016 -89.60 0.997016 -89.60 0.077044 -13.57
8.98690000 0.077067 14.386 0.997015 -89.61 0.997015 -89.61 0.077051 -13.60
8.98700000 0.077075 14.410 0.997014 -89.61 0.997014 -89.61 0.077059 -13.63
8.98710000 0.077083 14.434 0.997014 -89.61 0.997014 -89.61 0.077067 -13.66
8.98720000 0.077091 14.458 0.997013 -89.62 0.997013 -89.62 0.077074 -13.69
8.98730000 0.077099 14.482 0.997013 -89.62 0.997013 -89.62 0.077082 -13.72
8.98740000 0.077106 14.506 0.997012 -89.62 0.997012 -89.62 0.077090 -13.75
8.98750000 0.077114 14.530 0.997011 -89.63 0.997011 -89.63 0.077098 -13.78
8.98760000 0.077122 14.554 0.997011 -89.63 0.997011 -89.63 0.077106 -13.81
8.98770000 0.077130 14.578 0.997010 -89.63 0.997010 -89.63 0.077114 -13.84
8.98780000 0.077138 14.603 0.997009 -89.64 0.997009 -89.64 0.077122 -13.88
8.98790000 0.077146 14.627 0.997009 -89.64 0.997009 -89.64 0.077130 -13.91
8.98800000 0.077154 14.652 0.997008 -89.64 0.997008 -89.64 0.077138 -13.94
8.98810000 0.077162 14.676 0.997007 -89.65 0.997007 -89.65 0.077146 -13.97
8.98820000 0.077171 14.701 0.997007 -89.65 0.997007 -89.65 0.077154 -14.00
8.98830000 0.077179 14.725 0.997006 -89.65 0.997006 -89.65 0.077162 -14.03
8.98840000 0.077187 14.750 0.997005 -89.66 0.997005 -89.66 0.077170 -14.06
8.98850000 0.077195 14.774 0.997005 -89.66 0.997005 -89.66 0.077178 -14.09
8.98860000 0.077203 14.799 0.997004 -89.66 0.997004 -89.66 0.077187 -14.12
8.98870000 0.077212 14.824 0.997004 -89.67 0.997004 -89.67 0.077195 -14.16
8.98880000 0.077220 14.849 0.997003 -89.67 0.997003 -89.67 0.077203 -14.19
8.98890000 0.077228 14.874 0.997002 -89.67 0.997002 -89.67 0.077211 -14.22
8.98900000 0.077237 14.899 0.997002 -89.68 0.997002 -89.68 0.077220 -14.25
8.98910000 0.077245 14.924 0.997001 -89.68 0.997001 -89.68 0.077228 -14.28
8.98920000 0.077254 14.949 0.997000 -89.68 0.997000 -89.68 0.077237 -14.31
8.98930000 0.077262 14.974 0.996999 -89.69 0.996999 -89.69 0.077245 -14.34
8.98940000 0.077271 14.999 0.996999 -89.69 0.996999 -89.69 0.077254 -14.38
8.98950000 0.077279 15.025 0.996998 -89.69 0.996998 -89.69 0.077262 -14.41
8.98960000 0.077288 15.050 0.996997 -89.70 0.996997 -89.70 0.077271 -14.44
8.98970000 0.077297 15.075 0.996997 -89.70 0.996997 -89.70 0.077279 -14.47
8.98980000 0.077305 15.101 0.996996 -89.70 0.996996 -89.70 0.077288 -14.50
8.98990000 0.077314 15.126 0.996995 -89.71 0.996995 -89.71 0.077297 -14.54
8.99000000 0.077323 15.152 0.996995 -89.71 0.996995 -89.71 0.077305 -14.57
8.99010000 0.077332 15.178 0.996994 -89.71 0.996994 -89.71 0.077314 -14.60
8.99020000 0.077340 15.203 0.996993 -89.72 0.996993 -89.72 0.077323 -14.63
8.99030000 0.077349 15.229 0.996993 -89.72 0.996993 -89.72 0.077332 -14.67
8.99040000 0.077358 15.255 0.996992 -89.72 0.996992 -89.72 0.077341 -14.70
8.99050000 0.077367 15.281 0.996991 -89.73 0.996991 -89.73 0.077350 -14.73
8.99060000 0.077376 15.307 0.996990 -89.73 0.996990 -89.73 0.077359 -14.76
8.99070000 0.077385 15.333 0.996990 -89.73 0.996990 -89.73 0.077368 -14.80
8.99080000 0.077394 15.359 0.996989 -89.74 0.996989 -89.74 0.077377 -14.83
8.99090000 0.077403 15.385 0.996988 -89.74 0.996988 -89.74 0.077386 -14.86
8.99100000 0.077413 15.411 0.996987 -89.74 0.996987 -89.74 0.077395 -14.90
8.99110000 0.077422 15.437 0.996987 -89.75 0.996987 -89.75 0.077404 -14.93
8.99120000 0.077431 15.464 0.996986 -89.75 0.996986 -89.75 0.077413 -14.96
8.99130000 0.077440 15.490 0.996985 -89.75 0.996985 -89.75 0.077422 -15.00
8.99140000 0.077450 15.516 0.996985 -89.76 0.996985 -89.76 0.077432 -15.03
8.99150000 0.077459 15.543 0.996984 -89.76 0.996984 -89.76 0.077441 -15.06
8.99160000 0.077468 15.569 0.996983 -89.76 0.996983 -89.76 0.077450 -15.10
8.99170000 0.077478 15.596 0.996982 -89.77 0.996982 -89.77 0.077460 -15.13
8.99180000 0.077487 15.623 0.996982 -89.77 0.996982 -89.77 0.077469 -15.16
8.99190000 0.077497 15.650 0.996981 -89.77 0.996981 -89.77 0.077478 -15.20
8.99200000 0.077506 15.676 0.996980 -89.78 0.996980 -89.78 0.077488 -15.23
8.99210000 0.077516 15.703 0.996979 -89.78 0.996979 -89.78 0.077497 -15.26
8.99220000 0.077525 15.730 0.996978 -89.78 0.996978 -89.78 0.077507 -15.30
8.99230000 0.077535 15.757 0.996978 -89.79 0.996978 -89.79 0.077517 -15.33
8.99240000 0.077545 15.784 0.996977 -89.79 0.996977 -89.79 0.077526 -15.37
8.99250000 0.077555 15.811 0.996976 -89.79 0.996976 -89.79 0.077536 -15.40
8.99260000 0.077564 15.839 0.996975 -89.80 0.996975 -89.80 0.077546 -15.43
8.99270000 0.077574 15.866 0.996975 -89.80 0.996975 -89.80 0.077556 -15.47
8.99280000 0.077584 15.893 0.996974 -89.80 0.996974 -89.80 0.077565 -15.50
8.99290000 0.077594 15.921 0.996973 -89.81 0.996973 -89.81 0.077575 -15.54
8.99300000 0.077604 15.948 0.996972 -89.81 0.996972 -89.81 0.077585 -15.57
8.99310000 0.077614 15.976 0.996971 -89.82 0.996971 -89.82 0.077595 -15.61
8.99320000 0.077624 16.003 0.996971 -89.82 0.996971 -89.82 0.077605 -15.64
8.99330000 0.077634 16.031 0.996970 -89.82 0.996970 -89.82 0.077615 -15.68
8.99340000 0.077644 16.059 0.996969 -89.83 0.996969 -89.83 0.077625 -15.71
8.99350000 0.077654 16.086 0.996968 -89.83 0.996968 -89.83 0.077635 -15.75
8.99360000 0.077665 16.114 0.996967 -89.83 0.996967 -89.83 0.077646 -15.78
8.99370000 0.077675 16.142 0.996967 -89.84 0.996967 -89.84 0.077656 -15.82
8.99380000 0.077685 16.170 0.996966 -89.84 0.996966 -89.84 0.077666 -15.85
8.99390000 0.077696 16.198 0.996965 -89.84 0.996965 -89.84 0.077677 -15.89
8.99400000 0.077706 16.226 0.996964 -89.85 0.996964 -89.85 0.077687 -15.92
8.99410000 0.077717 16.255 0.996963 -89.85 0.996963 -89.85 0.077697 -15.96
8.99420000 0.077727 16.283 0.996962 -89.85 0.996962 -89.85 0.077708 -15.99
8.99430000 0.077738 16.311 0.996962 -89.86 0.996962 -89.86 0.077718 -16.03
8.99440000 0.077748 16.340 0.996961 -89.86 0.996961 -89.86 0.077729 -16.06
8.99450000 0.077759 16.368 0.996960 -89.87 0.996960 -89.87 0.077739 -16.10
8.99460000 0.077770 16.397 0.996959 -89.87 0.996959 -89.87 0.077750 -16.13
8.99470000 0.077780 16.425 0.996958 -89.87 0.996958 -89.87 0.077761 -16.17
8.99480000 0.077791 16.454 0.996957 -89.88 0.996957 -89.88 0.077772 -16.21
8.99490000 0.077802 16.483 0.996956 -89.88 0.996956 -89.88 0.077782 -16.24
8.99500000 0.077813 16.511 0.996955 -89.88 0.996955 -89.88 0.077793 -16.28
8.99510000 0.077824 16.540 0.996955 -89.89 0.996955 -89.89 0.077804 -16.32
8.99520000 0.077835 16.569 0.996954 -89.89 0.996954 -89.89 0.077815 -16.35
8.99530000 0.077846 16.598 0.996953 -89.89 0.996953 -89.89 0.077826 -16.39
8.99540000 0.077857 16.627 0.996952 -89.90 0.996952 -89.90 0.077837 -16.42
8.99550000 0.077868 16.657 0.996951 -89.90 0.996951 -89.90 0.077848 -16.46
8.99560000 0.077879 16.686 0.996950 -89.91 0.996950 -89.91 0.077859 -16.50
8.99570000 0.077890 16.715 0.996949 -89.91 0.996949 -89.91 0.077870 -16.53
8.99580000 0.077902 16.745 0.996948 -89.91 0.996948 -89.91 0.077882 -16.57
8.99590000 0.077913 16.774 0.996947 -89.92 0.996947 -89.92 0.077893 -16.61
8.99600000 0.077924 16.804 0.996947 -89.92 0.996947 -89.92 0.077904 -16.65
8.99610000 0.077936 16.833 0.996946 -89.92 0.996946 -89.92 0.077916 -16.68
8.99620000 0.077947 16.863 0.996945 -89.93 0.996945 -89.93 0.077927 -16.72
8.99630000 0.077959 16.893 0.996944 -89.93 0.996944 -89.93 0.077939 -16.76
8.99640000 0.077971 16.922 0.996943 -89.94 0.996943 -89.94 0.077950 -16.79
8.99650000 0.077982 16.952 0.996942 -89.94 0.996942 -89.94 0.077962 -16.83
8.99660000 0.077994 16.982 0.996941 -89.94 0.996941 -89.94 0.077974 -16.87
8.99670000 0.078006 17.012 0.996940 -89.95 0.996940 -89.95 0.077985 -16.91
8.99680000 0.078018 17.043 0.996939 -89.95 0.996939 -89.95 0.077997 -16.94
8.99690000 0.078029 17.073 0.996938 -89.95 0.996938 -89.95 0.078009 -16.98
8.99700000 0.078041 17.103 0.996937 -89.96 0.996937 -89.96 0.078021 -17.02
8.99710000 0.078053 17.133 0.996936 -89.96 0.996936 -89.96 0.078033 -17.06
8.99720000 0.078065 17.164 0.996935 -89.97 0.996935 -89.97 0.078045 -17.10
8.99730000 0.078077 17.194 0.996934 -89.97 0.996934 -89.97 0.078057 -17.13
8.99740000 0.078090 17.225 0.996933 -89.97 0.996933 -89.97 0.078069 -17.17
8.99750000 0.078102 17.256 0.996932 -89.98 0.996932 -89.98 0.078081 -17.21
8.99760000 0.078114 17.286 0.996931 -89.98 0.996931 -89.98 0.078093 -17.25
8.99770000 0.078126 17.317 0.996930 -89.99 0.996930 -89.99 0.078105 -17.29
8.99780000 0.078139 17.348 0.996929 -89.99 0.996929 -89.99 0.078118 -17.33
8.99790000 0.078151 17.379 0.996928 -89.99 0.996928 -89.99 0.078130 -17.37
8.99800000 0.078164 17.410 0.996927 -90.00 0.996927 -90.00 0.078143 -17.40
8.99810000 0.078176 17.441 0.996926 -90.00 0.996926 -90.00 0.078155 -17.44
8.99820000 0.078189 17.472 0.996925 -90.00 0.996925 -90.00 0.078168 -17.48
8.99830000 0.078202 17.504 0.996924 -90.01 0.996924 -90.01 0.078180 -17.52
8.99840000 0.078214 17.535 0.996923 -90.01 0.996923 -90.01 0.078193 -17.56
8.99850000 0.078227 17.566 0.996922 -90.02 0.996922 -90.02 0.078206 -17.60
8.99860000 0.078240 17.598 0.996921 -90.02 0.996921 -90.02 0.078218 -17.64
8.99870000 0.078253 17.629 0.996920 -90.02 0.996920 -90.02 0.078231 -17.68
8.99880000 0.078266 17.661 0.996919 -90.03 0.996919 -90.03 0.078244 -17.72
8.99890000 0.078279 17.693 0.996918 -90.03 0.996918 -90.03 0.078257 -17.76
8.99900000 0.078292 17.725 0.996917 -90.04 0.996917 -90.04 0.078270 -17.80
8.99910000 0.078305 17.757 0.996916 -90.04 0.996916 -90.04 0.078283 -17.84
8.99920000 0.078318 17.789 0.996915 -90.04 0.996915 -90.04 0.078296 -17.88
8.99930000 0.078332 17.821 0.996914 -90.05 0.996914 -90.05 0.078310 -17.92
8.99940000 0.078345 17.853 0.996913 -90.05 0.996913 -90.05 0.078323 -17.96
8.99950000 0.078358 17.885 0.996912 -90.06 0.996912 -90.06 0.078336 -18.00
8.99960000 0.078372 17.917 0.996911 -90.06 0.996911 -90.06 0.078350 -18.04
8.99970000 0.078385 17.950 0.996909 -90.06 0.996909 -90.06 0.078363 -18.08
8.99980000 0.078399 17.982 0.996908 -90.07 0.996908 -90.07 0.078377 -18.12
8.99990000 0.078413 18.015 0.996907 -90.07 0.996907 -90.07 0.078390 -18.16
9.00000000 0.078426 18.047 0.996906 -90.08 0.996906 -90.08 0.078404 -18.20
9.00010000 0.078440 18.080 0.996905 -90.08 0.996905 -90.08 0.078418 -18.24
9.00020000 0.078454 18.113 0.996904 -90.08 0.996904 -90.08 0.078432 -18.28
9.00030000 0.078468 18.146 0.996903 -90.09 0.996903 -90.09 0.078445 -18.32
9.00040000 0.078482 18.179 0.996902 -90.09 0.996902 -90.09 0.078459 -18.36
9.00050000 0.078496 18.212 0.996900 -90.10 0.996900 -90.10 0.078473 -18.41
9.00060000 0.078510 18.245 0.996899 -90.10 0.996899 -90.10 0.078487 -18.45
9.00070000 0.078524 18.278 0.996898 -90.10 0.996898 -90.10 0.078502 -18.49
9.00080000 0.078539 18.312 0.996897 -90.11 0.996897 -90.11 0.078516 -18.53
9.00090000 0.078553 18.345 0.996896 -90.11 0.996896 -90.11 0.078530 -18.57
9.00100000 0.078567 18.378 0.996895 -90.12 0.996895 -90.12 0.078544 -18.61
9.00110000 0.078582 18.412 0.996894 -90.12 0.996894 -90.12 0.078559 -18.65
9.00120000 0.078596 18.446 0.996892 -90.12 0.996892 -90.12 0.078573 -18.70
9.00130000 0.078611 18.479 0.996891 -90.13 0.996891 -90.13 0.078588 -18.74
9.00140000 0.078626 18.513 0.996890 -90.13 0.996890 -90.13 0.078603 -18.78
9.00150000 0.078640 18.547 0.996889 -90.14 0.996889 -90.14 0.078617 -18.82
9.00160000 0.078655 18.581 0.996888 -90.14 0.996888 -90.14 0.078632 -18.87
9.00170000 0.078670 18.615 0.996886 -90.15 0.996886 -90.15 0.078647 -18.91
9.00180000 0.078685 18.649 0.996885 -90.15 0.996885 -90.15 0.078662 -18.95
9.00190000 0.078700 18.684 0.996884 -90.15 0.996884 -90.15 0.078677 -18.99
9.00200000 0.078715 18.718 0.996883 -90.16 0.996883 -90.16 0.078692 -19.04
9.00210000 0.078731 18.753 0.996882 -90.16 0.996882 -90.16 0.078707 -19.08
9.00220000 0.078746 18.787 0.996880 -90.17 0.996880 -90.17 0.078722 -19.12
9.00230000 0.078761 18.822 0.996879 -90.17 0.996879 -90.17 0.078737 -19.17
9.00240000 0.078777 18.856 0.996878 -90.18 0.996878 -90.18 0.078753 -19.21
9.00250000 0.078792 18.891 0.996877 -90.18 0.996877 -90.18 0.078768 -19.25
9.00260000 0.078808 18.926 0.996875 -90.18 0.996875 -90.18 0.078784 -19.30
9.00270000 0.078823 18.961 0.996874 -90.19 0.996874 -90.19 0.078799 -19.34
9.00280000 0.078839 18.996 0.996873 -90.19 0.996873 -90.19 0.078815 -19.38
9.00290000 0.078855 19.031 0.996871 -90.20 0.996871 -90.20 0.078831 -19.43
9.00300000 0.078871 19.067 0.996870 -90.20 0.996870 -90.20 0.078847 -19.47
9.00310000 0.078887 19.102 0.996869 -90.21 0.996869 -90.21 0.078863 -19.51
9.00320000 0.078903 19.137 0.996868 -90.21 0.996868 -90.21 0.078879 -19.56
9.00330000 0.078919 19.173 0.996866 -90.21 0.996866 -90.21 0.078895 -19.60
9.00340000 0.078935 19.208 0.996865 -90.22 0.996865 -90.22 0.078911 -19.65
9.00350000 0.078951 19.244 0.996864 -90.22 0.996864 -90.22 0.078927 -19.69
9.00360000 0.078968 19.280 0.996862 -90.23 0.996862 -90.23 0.078943 -19.74
9.00370000 0.078984 19.316 0.996861 -90.23 0.996861 -90.23 0.078960 -19.78
9.00380000 0.079001 19.352 0.996860 -90.24 0.996860 -90.24 0.078976 -19.83
9.00390000 0.079017 19.388 0.996858 -90.24 0.996858 -90.24 0.078993 -19.87
9.00400000 0.079034 19.424 0.996857 -90.24 0.996857 -90.24 0.079009 -19.92
9.00410000 0.079051 19.460 0.996856 -90.25 0.996856 -90.25 0.079026 -19.96
9.00420000 0.079068 19.497 0.996854 -90.25 0.996854 -90.25 0.079043 -20.01
9.00430000 0.079085 19.533 0.996853 -90.26 0.996853 -90.26 0.079060 -20.05
9.00440000 0.079102 19.570 0.996851 -90.26 0.996851 -90.26 0.079077 -20.10
9.00450000 0.079119 19.607 0.996850 -90.27 0.996850 -90.27 0.079094 -20.14
9.00460000 0.079136 19.643 0.996849 -90.27 0.996849 -90.27 0.079111 -20.19
9.00470000 0.079153 19.680 0.996847 -90.28 0.996847 -90.28 0.079128 -20.23
9.00480000 0.079171 19.717 0.996846 -90.28 0.996846 -90.28 0.079146 -20.28
9.00490000 0.079188 19.754 0.996844 -90.28 0.996844 -90.28 0.079163 -20.33
9.00500000 0.079206 19.791 0.996843 -90.29 0.996843 -90.29 0.079180 -20.37
9.00510000 0.079224 19.829 0.996841 -90.29 0.996841 -90.29 0.079198 -20.42
9.00520000 0.079241 19.866 0.996840 -90.30 0.996840 -90.30 0.079216 -20.46
9.00530000 0.079259 19.903 0.996839 -90.30 0.996839 -90.30 0.079233 -20.51
9.00540000 0.079277 19.941 0.996837 -90.31 0.996837 -90.31 0.079251 -20.56
9.00550000 0.079295 19.979 0.996836 -90.31 0.996836 -90.31 0.079269 -20.60
9.00560000 0.079313 20.016 0.996834 -90.32 0.996834 -90.32 0.079287 -20.65
9.00570000 0.079331 20.054 0.996833 -90.32 0.996833 -90.32 0.079305 -20.70
9.00580000 0.079350 20.092 0.996831 -90.33 0.996831 -90.33 0.079324 -20.75
9.00590000 0.079368 20.130 0.996830 -90.33 0.996830 -90.33 0.079342 -20.79
9.00600000 0.079387 20.168 0.996828 -90.33 0.996828 -90.33 0.079360 -20.84
9.00610000 0.079405 20.206 0.996827 -90.34 0.996827 -90.34 0.079379 -20.89
9.00620000 0.079424 20.245 0.996825 -90.34 0.996825 -90.34 0.079398 -20.94
!< P1 F=9.0062 Eeff=(6.44310155 -2.9701e-5) Z0=(50.4814263 1.16461e-4) R=0.0 C=0.0 
!< P2 F=9.0062 Eeff=(6.44310155 -2.9701e-5) Z0=(50.4814263 1.16461e-4) R=0.0 C=0.0 
9.00630000 0.079443 20.283 0.996824 -90.35 0.996824 -90.35 0.079416 -20.98
9.00640000 0.079462 20.322 0.996822 -90.35 0.996822 -90.35 0.079435 -21.03
9.00650000 0.079481 20.360 0.996821 -90.36 0.996821 -90.36 0.079454 -21.08
9.00660000 0.079500 20.399 0.996819 -90.36 0.996819 -90.36 0.079473 -21.13
9.00670000 0.079519 20.438 0.996817 -90.37 0.996817 -90.37 0.079492 -21.18
9.00680000 0.079538 20.477 0.996816 -90.37 0.996816 -90.37 0.079511 -21.22
9.00690000 0.079558 20.516 0.996814 -90.38 0.996814 -90.38 0.079531 -21.27
9.00700000 0.079577 20.555 0.996813 -90.38 0.996813 -90.38 0.079550 -21.32
9.00710000 0.079597 20.595 0.996811 -90.39 0.996811 -90.39 0.079570 -21.37
9.00720000 0.079616 20.634 0.996809 -90.39 0.996809 -90.39 0.079589 -21.42
9.00730000 0.079636 20.673 0.996808 -90.40 0.996808 -90.40 0.079609 -21.47
9.00740000 0.079656 20.713 0.996806 -90.40 0.996806 -90.40 0.079629 -21.52
9.00750000 0.079676 20.753 0.996805 -90.41 0.996805 -90.41 0.079649 -21.57
9.00760000 0.079696 20.793 0.996803 -90.41 0.996803 -90.41 0.079669 -21.62
9.00770000 0.079716 20.832 0.996801 -90.41 0.996801 -90.41 0.079689 -21.66
9.00780000 0.079737 20.872 0.996800 -90.42 0.996800 -90.42 0.079709 -21.71
9.00790000 0.079757 20.913 0.996798 -90.42 0.996798 -90.42 0.079729 -21.76
9.00800000 0.079778 20.953 0.996796 -90.43 0.996796 -90.43 0.079750 -21.81
9.00810000 0.079798 20.993 0.996795 -90.43 0.996795 -90.43 0.079770 -21.86
9.00820000 0.079819 21.034 0.996793 -90.44 0.996793 -90.44 0.079791 -21.91
9.00830000 0.079840 21.074 0.996791 -90.44 0.996791 -90.44 0.079812 -21.96
9.00840000 0.079861 21.115 0.996789 -90.45 0.996789 -90.45 0.079833 -22.02
9.00850000 0.079882 21.156 0.996788 -90.45 0.996788 -90.45 0.079854 -22.07
9.00860000 0.079903 21.197 0.996786 -90.46 0.996786 -90.46 0.079875 -22.12
9.00870000 0.079924 21.238 0.996784 -90.46 0.996784 -90.46 0.079896 -22.17
9.00880000 0.079946 21.279 0.996782 -90.47 0.996782 -90.47 0.079917 -22.22
9.00890000 0.079967 21.320 0.996781 -90.47 0.996781 -90.47 0.079939 -22.27
9.00900000 0.079989 21.361 0.996779 -90.48 0.996779 -90.48 0.079960 -22.32
9.00910000 0.080011 21.403 0.996777 -90.48 0.996777 -90.48 0.079982 -22.37
9.00920000 0.080033 21.444 0.996775 -90.49 0.996775 -90.49 0.080004 -22.42
9.00930000 0.080055 21.486 0.996773 -90.49 0.996773 -90.49 0.080026 -22.48
9.00940000 0.080077 21.528 0.996772 -90.50 0.996772 -90.50 0.080048 -22.53
9.00950000 0.080099 21.570 0.996770 -90.50 0.996770 -90.50 0.080070 -22.58
9.00960000 0.080121 21.612 0.996768 -90.51 0.996768 -90.51 0.080092 -22.63
9.00970000 0.080144 21.654 0.996766 -90.51 0.996766 -90.51 0.080115 -22.68
9.00980000 0.080166 21.696 0.996764 -90.52 0.996764 -90.52 0.080137 -22.74
9.00990000 0.080189 21.738 0.996762 -90.52 0.996762 -90.52 0.080160 -22.79
9.01000000 0.080212 21.781 0.996760 -90.53 0.996760 -90.53 0.080182 -22.84
9.01010000 0.080235 21.824 0.996759 -90.53 0.996759 -90.53 0.080205 -22.89
9.01020000 0.080258 21.866 0.996757 -90.54 0.996757 -90.54 0.080228 -22.95
9.01030000 0.080281 21.909 0.996755 -90.54 0.996755 -90.54 0.080251 -23.00
9.01040000 0.080305 21.952 0.996753 -90.55 0.996753 -90.55 0.080275 -23.05
9.01050000 0.080328 21.995 0.996751 -90.55 0.996751 -90.55 0.080298 -23.11
9.01060000 0.080352 22.038 0.996749 -90.56 0.996749 -90.56 0.080322 -23.16
9.01070000 0.080375 22.082 0.996747 -90.56 0.996747 -90.56 0.080345 -23.21
9.01080000 0.080399 22.125 0.996745 -90.57 0.996745 -90.57 0.080369 -23.27
9.01090000 0.080423 22.169 0.996743 -90.57 0.996743 -90.57 0.080393 -23.32
9.01100000 0.080447 22.212 0.996741 -90.58 0.996741 -90.58 0.080417 -23.38
9.01110000 0.080472 22.256 0.996739 -90.59 0.996739 -90.59 0.080441 -23.43
9.01120000 0.080496 22.300 0.996737 -90.59 0.996737 -90.59 0.080465 -23.49
9.01130000 0.080521 22.344 0.996735 -90.60 0.996735 -90.60 0.080490 -23.54
9.01140000 0.080545 22.388 0.996733 -90.60 0.996733 -90.60 0.080514 -23.59
9.01150000 0.080570 22.432 0.996731 -90.61 0.996731 -90.61 0.080539 -23.65
9.01160000 0.080595 22.477 0.996729 -90.61 0.996729 -90.61 0.080564 -23.70
9.01170000 0.080620 22.521 0.996727 -90.62 0.996727 -90.62 0.080589 -23.76
9.01180000 0.080645 22.566 0.996725 -90.62 0.996725 -90.62 0.080614 -23.82
9.01190000 0.080671 22.611 0.996723 -90.63 0.996723 -90.63 0.080639 -23.87
9.01200000 0.080696 22.656 0.996720 -90.63 0.996720 -90.63 0.080665 -23.93
9.01210000 0.080722 22.701 0.996718 -90.64 0.996718 -90.64 0.080690 -23.98
9.01220000 0.080747 22.746 0.996716 -90.64 0.996716 -90.64 0.080716 -24.04
9.01230000 0.080773 22.791 0.996714 -90.65 0.996714 -90.65 0.080742 -24.09
9.01240000 0.080799 22.836 0.996712 -90.65 0.996712 -90.65 0.080768 -24.15
9.01250000 0.080826 22.882 0.996710 -90.66 0.996710 -90.66 0.080794 -24.21
9.01260000 0.080852 22.927 0.996708 -90.67 0.996708 -90.67 0.080820 -24.26
9.01270000 0.080879 22.973 0.996705 -90.67 0.996705 -90.67 0.080847 -24.32
9.01280000 0.080905 23.019 0.996703 -90.68 0.996703 -90.68 0.080873 -24.38
9.01290000 0.080932 23.065 0.996701 -90.68 0.996701 -90.68 0.080900 -24.43
9.01300000 0.080959 23.111 0.996699 -90.69 0.996699 -90.69 0.080927 -24.49
9.01310000 0.080986 23.158 0.996696 -90.69 0.996696 -90.69 0.080954 -24.55
9.01320000 0.081013 23.204 0.996694 -90.70 0.996694 -90.70 0.080981 -24.61
9.01330000 0.081041 23.251 0.996692 -90.70 0.996692 -90.70 0.081008 -24.66
9.01340000 0.081068 23.297 0.996690 -90.71 0.996690 -90.71 0.081036 -24.72
9.01350000 0.081096 23.344 0.996687 -90.72 0.996687 -90.72 0.081063 -24.78
9.01360000 0.081124 23.391 0.996685 -90.72 0.996685 -90.72 0.081091 -24.84
9.01370000 0.081152 23.438 0.996683 -90.73 0.996683 -90.73 0.081119 -24.90
9.01380000 0.081180 23.485 0.996680 -90.73 0.996680 -90.73 0.081147 -24.95
9.01390000 0.081209 23.532 0.996678 -90.74 0.996678 -90.74 0.081176 -25.01
9.01400000 0.081237 23.580 0.996675 -90.74 0.996675 -90.74 0.081204 -25.07
9.01410000 0.081266 23.628 0.996673 -90.75 0.996673 -90.75 0.081233 -25.13
9.01420000 0.081295 23.675 0.996671 -90.75 0.996671 -90.75 0.081261 -25.19
9.01430000 0.081324 23.723 0.996668 -90.76 0.996668 -90.76 0.081290 -25.25
9.01440000 0.081353 23.771 0.996666 -90.77 0.996666 -90.77 0.081319 -25.31
9.01450000 0.081382 23.819 0.996663 -90.77 0.996663 -90.77 0.081349 -25.37
9.01460000 0.081412 23.867 0.996661 -90.78 0.996661 -90.78 0.081378 -25.43
9.01470000 0.081442 23.916 0.996658 -90.78 0.996658 -90.78 0.081408 -25.49
9.01480000 0.081471 23.964 0.996656 -90.79 0.996656 -90.79 0.081437 -25.55
9.01490000 0.081501 24.013 0.996653 -90.80 0.996653 -90.80 0.081467 -25.61
9.01500000 0.081532 24.062 0.996651 -90.80 0.996651 -90.80 0.081497 -25.67
9.01510000 0.081562 24.111 0.996648 -90.81 0.996648 -90.81 0.081528 -25.73
9.01520000 0.081593 24.160 0.996646 -90.81 0.996646 -90.81 0.081558 -25.79
9.01530000 0.081623 24.209 0.996643 -90.82 0.996643 -90.82 0.081589 -25.85
9.01540000 0.081654 24.258 0.996641 -90.82 0.996641 -90.82 0.081620 -25.91
9.01550000 0.081685 24.308 0.996638 -90.83 0.996638 -90.83 0.081651 -25.98
9.01560000 0.081717 24.358 0.996635 -90.84 0.996635 -90.84 0.081682 -26.04
9.01570000 0.081748 24.407 0.996633 -90.84 0.996633 -90.84 0.081713 -26.10
9.01580000 0.081780 24.457 0.996630 -90.85 0.996630 -90.85 0.081745 -26.16
9.01590000 0.081812 24.507 0.996627 -90.85 0.996627 -90.85 0.081776 -26.22
9.01600000 0.081844 24.558 0.996625 -90.86 0.996625 -90.86 0.081808 -26.28
9.01610000 0.081876 24.608 0.996622 -90.87 0.996622 -90.87 0.081840 -26.35
9.01620000 0.081908 24.658 0.996619 -90.87 0.996619 -90.87 0.081873 -26.41
9.01630000 0.081941 24.709 0.996617 -90.88 0.996617 -90.88 0.081905 -26.47
9.01640000 0.081974 24.760 0.996614 -90.88 0.996614 -90.88 0.081938 -26.54
9.01650000 0.082007 24.811 0.996611 -90.89 0.996611 -90.89 0.081971 -26.60
9.01660000 0.082040 24.862 0.996608 -90.90 0.996608 -90.90 0.082004 -26.66
9.01670000 0.082073 24.913 0.996605 -90.90 0.996605 -90.90 0.082037 -26.73
9.01680000 0.082107 24.964 0.996603 -90.91 0.996603 -90.91 0.082071 -26.79
9.01690000 0.082141 25.016 0.996600 -90.92 0.996600 -90.92 0.082104 -26.85
9.01700000 0.082175 25.068 0.996597 -90.92 0.996597 -90.92 0.082138 -26.92
9.01710000 0.082209 25.119 0.996594 -90.93 0.996594 -90.93 0.082172 -26.98
9.01720000 0.082243 25.171 0.996591 -90.93 0.996591 -90.93 0.082206 -27.05
9.01730000 0.082278 25.223 0.996588 -90.94 0.996588 -90.94 0.082241 -27.11
9.01740000 0.082313 25.276 0.996585 -90.95 0.996585 -90.95 0.082276 -27.18
9.01750000 0.082348 25.328 0.996582 -90.95 0.996582 -90.95 0.082310 -27.24
9.01760000 0.082383 25.381 0.996579 -90.96 0.996579 -90.96 0.082346 -27.31
9.01770000 0.082418 25.433 0.996576 -90.97 0.996576 -90.97 0.082381 -27.37
9.01780000 0.082454 25.486 0.996573 -90.97 0.996573 -90.97 0.082416 -27.44
9.01790000 0.082490 25.539 0.996570 -90.98 0.996570 -90.98 0.082452 -27.50
9.01800000 0.082526 25.592 0.996567 -90.98 0.996567 -90.98 0.082488 -27.57
9.01810000 0.082562 25.646 0.996564 -90.99 0.996564 -90.99 0.082524 -27.64
9.01820000 0.082599 25.699 0.996561 -91.00 0.996561 -91.00 0.082561 -27.70
9.01830000 0.082635 25.753 0.996558 -91.00 0.996558 -91.00 0.082597 -27.77
9.01840000 0.082672 25.806 0.996555 -91.01 0.996555 -91.01 0.082634 -27.83
9.01850000 0.082709 25.860 0.996552 -91.02 0.996552 -91.02 0.082671 -27.90
9.01860000 0.082747 25.914 0.996548 -91.02 0.996548 -91.02 0.082708 -27.97
9.01870000 0.082784 25.969 0.996545 -91.03 0.996545 -91.03 0.082746 -28.04
9.01880000 0.082822 26.023 0.996542 -91.04 0.996542 -91.04 0.082784 -28.10
9.01890000 0.082860 26.078 0.996539 -91.04 0.996539 -91.04 0.082821 -28.17
9.01900000 0.082899 26.132 0.996536 -91.05 0.996536 -91.05 0.082860 -28.24