! Sonnet Data File
! From: emgraph Version : 16.52
! From Project: Resonator2_extremeCap
! Data is De-embedded 
! Data File Written: 10/11/2017 17:55:28
!< HDATE 10/10/2017 20:37:37
!< MDATE 10/10/2017 20:37:37
!< PARAMS
!< Pwid1 = 2000.0
!< Pwid2 = 2000.0
!< Air_gap = 6.0
!< Width = 10.0
!< Gap = 40.0
!< END PARAMS
# GHZ S MA R 50.70000
8.95000000 0.134863 2.2306 0.990859 -87.54 0.990859 -87.54 0.134860 2.6859
!< P1 F=8.95 Eeff=(6.4467035 -2.972e-5) Z0=(51.7988068 1.1952e-4) R=0.0 C=0.0 
!< P2 F=8.95 Eeff=(6.4467035 -2.972e-5) Z0=(51.7988068 1.1952e-4) R=0.0 C=0.0 
8.95020000 0.134872 2.2339 0.990858 -87.55 0.990858 -87.55 0.134869 2.6766
8.95040000 0.134882 2.2372 0.990856 -87.55 0.990856 -87.55 0.134879 2.6674
8.95060000 0.134892 2.2406 0.990855 -87.55 0.990855 -87.55 0.134889 2.6581
8.95080000 0.134902 2.2439 0.990854 -87.55 0.990854 -87.55 0.134899 2.6488
8.95100000 0.134912 2.2473 0.990852 -87.56 0.990852 -87.56 0.134909 2.6395
8.95120000 0.134922 2.2507 0.990851 -87.56 0.990851 -87.56 0.134919 2.6302
8.95140000 0.134932 2.2542 0.990850 -87.56 0.990850 -87.56 0.134929 2.6208
8.95160000 0.134942 2.2576 0.990848 -87.57 0.990848 -87.57 0.134939 2.6114
8.95180000 0.134952 2.2611 0.990847 -87.57 0.990847 -87.57 0.134949 2.6020
8.95200000 0.134962 2.2645 0.990846 -87.57 0.990846 -87.57 0.134959 2.5926
8.95220000 0.134972 2.2680 0.990844 -87.57 0.990844 -87.57 0.134969 2.5831
8.95240000 0.134982 2.2716 0.990843 -87.58 0.990843 -87.58 0.134979 2.5736
8.95260000 0.134992 2.2751 0.990842 -87.58 0.990842 -87.58 0.134989 2.5641
8.95280000 0.135002 2.2786 0.990840 -87.58 0.990840 -87.58 0.134999 2.5546
8.95300000 0.135012 2.2822 0.990839 -87.59 0.990839 -87.59 0.135009 2.5450
8.95320000 0.135022 2.2858 0.990837 -87.59 0.990837 -87.59 0.135019 2.5354
8.95340000 0.135032 2.2894 0.990836 -87.59 0.990836 -87.59 0.135029 2.5258
8.95360000 0.135042 2.2930 0.990835 -87.60 0.990835 -87.60 0.135039 2.5162
8.95380000 0.135053 2.2967 0.990833 -87.60 0.990833 -87.60 0.135049 2.5065
8.95400000 0.135063 2.3003 0.990832 -87.60 0.990832 -87.60 0.135060 2.4968
8.95420000 0.135073 2.3040 0.990830 -87.60 0.990830 -87.60 0.135070 2.4871
8.95440000 0.135083 2.3077 0.990829 -87.61 0.990829 -87.61 0.135080 2.4774
8.95460000 0.135094 2.3114 0.990828 -87.61 0.990828 -87.61 0.135090 2.4676
8.95480000 0.135104 2.3152 0.990826 -87.61 0.990826 -87.61 0.135101 2.4578
8.95500000 0.135114 2.3189 0.990825 -87.62 0.990825 -87.62 0.135111 2.4480
8.95520000 0.135125 2.3227 0.990823 -87.62 0.990823 -87.62 0.135121 2.4382
8.95540000 0.135135 2.3265 0.990822 -87.62 0.990822 -87.62 0.135132 2.4283
8.95560000 0.135146 2.3303 0.990821 -87.63 0.990821 -87.63 0.135142 2.4184
8.95580000 0.135156 2.3341 0.990819 -87.63 0.990819 -87.63 0.135153 2.4085
8.95600000 0.135167 2.3380 0.990818 -87.63 0.990818 -87.63 0.135163 2.3985
8.95620000 0.135177 2.3419 0.990816 -87.64 0.990816 -87.64 0.135174 2.3886
8.95640000 0.135188 2.3458 0.990815 -87.64 0.990815 -87.64 0.135184 2.3786
8.95660000 0.135198 2.3497 0.990813 -87.64 0.990813 -87.64 0.135195 2.3685
8.95680000 0.135209 2.3536 0.990812 -87.64 0.990812 -87.64 0.135205 2.3585
8.95700000 0.135219 2.3576 0.990810 -87.65 0.990810 -87.65 0.135216 2.3484
8.95720000 0.135230 2.3615 0.990809 -87.65 0.990809 -87.65 0.135227 2.3383
8.95740000 0.135241 2.3655 0.990808 -87.65 0.990808 -87.65 0.135237 2.3281
8.95760000 0.135251 2.3695 0.990806 -87.66 0.990806 -87.66 0.135248 2.3180
8.95780000 0.135262 2.3736 0.990805 -87.66 0.990805 -87.66 0.135259 2.3078
8.95800000 0.135273 2.3776 0.990803 -87.66 0.990803 -87.66 0.135269 2.2976
8.95820000 0.135284 2.3817 0.990802 -87.67 0.990802 -87.67 0.135280 2.2873
8.95840000 0.135294 2.3858 0.990800 -87.67 0.990800 -87.67 0.135291 2.2770
8.95860000 0.135305 2.3899 0.990799 -87.67 0.990799 -87.67 0.135302 2.2667
8.95880000 0.135316 2.3941 0.990797 -87.68 0.990797 -87.68 0.135312 2.2564
8.95900000 0.135327 2.3982 0.990796 -87.68 0.990796 -87.68 0.135323 2.2460
8.95920000 0.135338 2.4024 0.990794 -87.68 0.990794 -87.68 0.135334 2.2356
8.95940000 0.135349 2.4066 0.990793 -87.68 0.990793 -87.68 0.135345 2.2252
8.95960000 0.135360 2.4108 0.990791 -87.69 0.990791 -87.69 0.135356 2.2147
8.95980000 0.135371 2.4151 0.990790 -87.69 0.990790 -87.69 0.135367 2.2043
8.96000000 0.135382 2.4194 0.990788 -87.69 0.990788 -87.69 0.135378 2.1937
8.96020000 0.135393 2.4236 0.990787 -87.70 0.990787 -87.70 0.135389 2.1832
8.96040000 0.135404 2.4280 0.990785 -87.70 0.990785 -87.70 0.135400 2.1726
8.96060000 0.135415 2.4323 0.990784 -87.70 0.990784 -87.70 0.135411 2.1620
8.96080000 0.135426 2.4366 0.990782 -87.71 0.990782 -87.71 0.135422 2.1514
8.96100000 0.135437 2.4410 0.990781 -87.71 0.990781 -87.71 0.135434 2.1407
8.96120000 0.135448 2.4454 0.990779 -87.71 0.990779 -87.71 0.135445 2.1300
8.96140000 0.135460 2.4498 0.990778 -87.72 0.990778 -87.72 0.135456 2.1193
8.96160000 0.135471 2.4543 0.990776 -87.72 0.990776 -87.72 0.135467 2.1085
8.96180000 0.135482 2.4588 0.990774 -87.72 0.990774 -87.72 0.135478 2.0978
8.96200000 0.135494 2.4633 0.990773 -87.73 0.990773 -87.73 0.135490 2.0869
8.96220000 0.135505 2.4678 0.990771 -87.73 0.990771 -87.73 0.135501 2.0761
8.96240000 0.135516 2.4723 0.990770 -87.73 0.990770 -87.73 0.135512 2.0652
8.96260000 0.135528 2.4769 0.990768 -87.73 0.990768 -87.73 0.135524 2.0543
8.96280000 0.135539 2.4815 0.990767 -87.74 0.990767 -87.74 0.135535 2.0433
8.96300000 0.135551 2.4861 0.990765 -87.74 0.990765 -87.74 0.135547 2.0324
8.96320000 0.135562 2.4907 0.990763 -87.74 0.990763 -87.74 0.135558 2.0214
8.96340000 0.135574 2.4953 0.990762 -87.75 0.990762 -87.75 0.135570 2.0103
8.96360000 0.135585 2.5000 0.990760 -87.75 0.990760 -87.75 0.135581 1.9992
8.96380000 0.135597 2.5047 0.990759 -87.75 0.990759 -87.75 0.135593 1.9881
8.96400000 0.135608 2.5095 0.990757 -87.76 0.990757 -87.76 0.135604 1.9770
8.96420000 0.135620 2.5142 0.990756 -87.76 0.990756 -87.76 0.135616 1.9658
8.96440000 0.135632 2.5190 0.990754 -87.76 0.990754 -87.76 0.135628 1.9546
8.96460000 0.135643 2.5238 0.990752 -87.77 0.990752 -87.77 0.135639 1.9434
8.96480000 0.135655 2.5286 0.990751 -87.77 0.990751 -87.77 0.135651 1.9321
8.96500000 0.135667 2.5335 0.990749 -87.77 0.990749 -87.77 0.135663 1.9208
8.96520000 0.135679 2.5383 0.990747 -87.78 0.990747 -87.78 0.135675 1.9095
8.96540000 0.135691 2.5432 0.990746 -87.78 0.990746 -87.78 0.135687 1.8981
8.96560000 0.135703 2.5482 0.990744 -87.78 0.990744 -87.78 0.135698 1.8867
8.96580000 0.135715 2.5531 0.990743 -87.79 0.990743 -87.79 0.135710 1.8752
8.96600000 0.135726 2.5581 0.990741 -87.79 0.990741 -87.79 0.135722 1.8637
8.96620000 0.135738 2.5631 0.990739 -87.79 0.990739 -87.79 0.135734 1.8522
8.96640000 0.135750 2.5681 0.990738 -87.80 0.990738 -87.80 0.135746 1.8407
8.96660000 0.135763 2.5732 0.990736 -87.80 0.990736 -87.80 0.135758 1.8291
8.96680000 0.135775 2.5782 0.990734 -87.80 0.990734 -87.80 0.135770 1.8175
8.96700000 0.135787 2.5833 0.990733 -87.81 0.990733 -87.81 0.135783 1.8058
8.96720000 0.135799 2.5885 0.990731 -87.81 0.990731 -87.81 0.135795 1.7941
8.96740000 0.135811 2.5936 0.990729 -87.81 0.990729 -87.81 0.135807 1.7824
8.96760000 0.135823 2.5988 0.990728 -87.82 0.990728 -87.82 0.135819 1.7706
8.96780000 0.135836 2.6040 0.990726 -87.82 0.990726 -87.82 0.135831 1.7588
8.96800000 0.135848 2.6093 0.990724 -87.82 0.990724 -87.82 0.135844 1.7470
8.96820000 0.135860 2.6145 0.990722 -87.83 0.990722 -87.83 0.135856 1.7351
8.96840000 0.135873 2.6198 0.990721 -87.83 0.990721 -87.83 0.135868 1.7232
8.96860000 0.135885 2.6251 0.990719 -87.83 0.990719 -87.83 0.135881 1.7112
8.96880000 0.135898 2.6305 0.990717 -87.84 0.990717 -87.84 0.135893 1.6993
8.96900000 0.135910 2.6359 0.990716 -87.84 0.990716 -87.84 0.135906 1.6872
8.96920000 0.135923 2.6413 0.990714 -87.84 0.990714 -87.84 0.135918 1.6752
8.96940000 0.135935 2.6467 0.990712 -87.85 0.990712 -87.85 0.135931 1.6631
8.96960000 0.135948 2.6521 0.990710 -87.85 0.990710 -87.85 0.135943 1.6509
8.96980000 0.135960 2.6576 0.990709 -87.85 0.990709 -87.85 0.135956 1.6388
8.97000000 0.135973 2.6631 0.990707 -87.86 0.990707 -87.86 0.135969 1.6265
8.97020000 0.135986 2.6687 0.990705 -87.86 0.990705 -87.86 0.135981 1.6143
8.97040000 0.135999 2.6743 0.990703 -87.86 0.990703 -87.86 0.135994 1.6020
8.97060000 0.136011 2.6799 0.990702 -87.87 0.990702 -87.87 0.136007 1.5897
8.97080000 0.136024 2.6855 0.990700 -87.87 0.990700 -87.87 0.136020 1.5773
8.97100000 0.136037 2.6911 0.990698 -87.87 0.990698 -87.87 0.136032 1.5649
8.97120000 0.136050 2.6968 0.990696 -87.88 0.990696 -87.88 0.136045 1.5524
8.97140000 0.136063 2.7025 0.990695 -87.88 0.990695 -87.88 0.136058 1.5399
8.97160000 0.136076 2.7083 0.990693 -87.88 0.990693 -87.88 0.136071 1.5274
8.97180000 0.136089 2.7141 0.990691 -87.89 0.990691 -87.89 0.136084 1.5148
8.97200000 0.136102 2.7199 0.990689 -87.89 0.990689 -87.89 0.136097 1.5022
8.97220000 0.136115 2.7257 0.990687 -87.89 0.990687 -87.89 0.136110 1.4895
8.97240000 0.136128 2.7316 0.990686 -87.90 0.990686 -87.90 0.136124 1.4768
8.97260000 0.136142 2.7375 0.990684 -87.90 0.990684 -87.90 0.136137 1.4641
8.97280000 0.136155 2.7434 0.990682 -87.90 0.990682 -87.90 0.136150 1.4513
8.97300000 0.136168 2.7494 0.990680 -87.91 0.990680 -87.91 0.136163 1.4385
8.97320000 0.136181 2.7554 0.990678 -87.91 0.990678 -87.91 0.136177 1.4256
8.97340000 0.136195 2.7614 0.990676 -87.91 0.990676 -87.91 0.136190 1.4127
8.97360000 0.136208 2.7674 0.990674 -87.92 0.990674 -87.92 0.136203 1.3997
8.97380000 0.136222 2.7735 0.990673 -87.92 0.990673 -87.92 0.136217 1.3867
8.97400000 0.136235 2.7796 0.990671 -87.92 0.990671 -87.92 0.136230 1.3737
8.97420000 0.136249 2.7858 0.990669 -87.93 0.990669 -87.93 0.136244 1.3606
8.97440000 0.136262 2.7920 0.990667 -87.93 0.990667 -87.93 0.136257 1.3475
8.97460000 0.136276 2.7982 0.990665 -87.93 0.990665 -87.93 0.136271 1.3343
8.97480000 0.136290 2.8044 0.990663 -87.94 0.990663 -87.94 0.136285 1.3211
8.97500000 0.136303 2.8107 0.990661 -87.94 0.990661 -87.94 0.136298 1.3078
8.97520000 0.136317 2.8170 0.990659 -87.94 0.990659 -87.94 0.136312 1.2945
8.97540000 0.136331 2.8234 0.990658 -87.95 0.990658 -87.95 0.136326 1.2812
8.97560000 0.136345 2.8297 0.990656 -87.95 0.990656 -87.95 0.136340 1.2678
8.97580000 0.136359 2.8361 0.990654 -87.96 0.990654 -87.96 0.136354 1.2543
8.97600000 0.136373 2.8426 0.990652 -87.96 0.990652 -87.96 0.136367 1.2408
8.97620000 0.136387 2.8491 0.990650 -87.96 0.990650 -87.96 0.136381 1.2273
8.97640000 0.136401 2.8556 0.990648 -87.97 0.990648 -87.97 0.136396 1.2137
8.97660000 0.136415 2.8621 0.990646 -87.97 0.990646 -87.97 0.136410 1.2001
8.97680000 0.136429 2.8687 0.990644 -87.97 0.990644 -87.97 0.136424 1.1864
8.97700000 0.136443 2.8753 0.990642 -87.98 0.990642 -87.98 0.136438 1.1727
8.97720000 0.136457 2.8820 0.990640 -87.98 0.990640 -87.98 0.136452 1.1589
8.97740000 0.136472 2.8887 0.990638 -87.98 0.990638 -87.98 0.136466 1.1451
8.97760000 0.136486 2.8954 0.990636 -87.99 0.990636 -87.99 0.136481 1.1312
8.97780000 0.136500 2.9021 0.990634 -87.99 0.990634 -87.99 0.136495 1.1173
8.97800000 0.136515 2.9089 0.990632 -87.99 0.990632 -87.99 0.136509 1.1033
8.97820000 0.136529 2.9158 0.990630 -88.00 0.990630 -88.00 0.136524 1.0893
8.97840000 0.136544 2.9226 0.990628 -88.00 0.990628 -88.00 0.136538 1.0752
8.97860000 0.136558 2.9295 0.990626 -88.01 0.990626 -88.01 0.136553 1.0611
8.97880000 0.136573 2.9365 0.990624 -88.01 0.990624 -88.01 0.136568 1.0469
8.97900000 0.136588 2.9434 0.990622 -88.01 0.990622 -88.01 0.136582 1.0327
8.97920000 0.136603 2.9504 0.990620 -88.02 0.990620 -88.02 0.136597 1.0184
8.97940000 0.136617 2.9575 0.990618 -88.02 0.990618 -88.02 0.136612 1.0041
8.97960000 0.136632 2.9646 0.990616 -88.02 0.990616 -88.02 0.136627 0.9897
8.97980000 0.136647 2.9717 0.990614 -88.03 0.990614 -88.03 0.136642 0.9753
8.98000000 0.136662 2.9789 0.990612 -88.03 0.990612 -88.03 0.136656 0.9608
8.98020000 0.136677 2.9861 0.990610 -88.03 0.990610 -88.03 0.136671 0.9463
8.98040000 0.136692 2.9933 0.990608 -88.04 0.990608 -88.04 0.136686 0.9317
8.98060000 0.136707 3.0006 0.990605 -88.04 0.990605 -88.04 0.136702 0.9171
8.98080000 0.136722 3.0079 0.990603 -88.05 0.990603 -88.05 0.136717 0.9024
8.98100000 0.136738 3.0153 0.990601 -88.05 0.990601 -88.05 0.136732 0.8877
8.98120000 0.136753 3.0226 0.990599 -88.05 0.990599 -88.05 0.136747 0.8729
8.98140000 0.136768 3.0301 0.990597 -88.06 0.990597 -88.06 0.136763 0.8580
8.98160000 0.136784 3.0376 0.990595 -88.06 0.990595 -88.06 0.136778 0.8431
8.98180000 0.136799 3.0451 0.990593 -88.06 0.990593 -88.06 0.136793 0.8281
8.98200000 0.136815 3.0526 0.990590 -88.07 0.990590 -88.07 0.136809 0.8131
8.98220000 0.136830 3.0602 0.990588 -88.07 0.990588 -88.07 0.136824 0.7980
8.98240000 0.136846 3.0679 0.990586 -88.08 0.990586 -88.08 0.136840 0.7829
8.98260000 0.136862 3.0755 0.990584 -88.08 0.990584 -88.08 0.136856 0.7677
8.98280000 0.136877 3.0833 0.990582 -88.08 0.990582 -88.08 0.136871 0.7525
8.98300000 0.136893 3.0910 0.990580 -88.09 0.990580 -88.09 0.136887 0.7372
8.98320000 0.136909 3.0988 0.990577 -88.09 0.990577 -88.09 0.136903 0.7218
8.98340000 0.136925 3.1067 0.990575 -88.09 0.990575 -88.09 0.136919 0.7064
8.98360000 0.136941 3.1146 0.990573 -88.10 0.990573 -88.10 0.136935 0.6909
8.98380000 0.136957 3.1225 0.990571 -88.10 0.990571 -88.10 0.136951 0.6754
8.98400000 0.136973 3.1305 0.990568 -88.11 0.990568 -88.11 0.136967 0.6598
8.98420000 0.136989 3.1385 0.990566 -88.11 0.990566 -88.11 0.136983 0.6442
8.98440000 0.137005 3.1465 0.990564 -88.11 0.990564 -88.11 0.136999 0.6284
8.98460000 0.137022 3.1546 0.990562 -88.12 0.990562 -88.12 0.137016 0.6127
8.98480000 0.137038 3.1628 0.990559 -88.12 0.990559 -88.12 0.137032 0.5968
8.98500000 0.137055 3.1710 0.990557 -88.12 0.990557 -88.12 0.137048 0.5809
8.98520000 0.137071 3.1792 0.990555 -88.13 0.990555 -88.13 0.137065 0.5650
8.98540000 0.137088 3.1875 0.990553 -88.13 0.990553 -88.13 0.137081 0.5490
8.98560000 0.137104 3.1958 0.990550 -88.14 0.990550 -88.14 0.137098 0.5329
8.98580000 0.137121 3.2042 0.990548 -88.14 0.990548 -88.14 0.137115 0.5167
8.98600000 0.137138 3.2126 0.990546 -88.14 0.990546 -88.14 0.137131 0.5005
8.98620000 0.137155 3.2211 0.990543 -88.15 0.990543 -88.15 0.137148 0.4843
8.98640000 0.137171 3.2296 0.990541 -88.15 0.990541 -88.15 0.137165 0.4679
8.98660000 0.137188 3.2382 0.990539 -88.16 0.990539 -88.16 0.137182 0.4515
8.98680000 0.137205 3.2468 0.990536 -88.16 0.990536 -88.16 0.137199 0.4351
8.98700000 0.137223 3.2554 0.990534 -88.16 0.990534 -88.16 0.137216 0.4185
8.98720000 0.137240 3.2641 0.990531 -88.17 0.990531 -88.17 0.137233 0.4019
8.98740000 0.137257 3.2729 0.990529 -88.17 0.990529 -88.17 0.137250 0.3853
8.98760000 0.137274 3.2817 0.990527 -88.18 0.990527 -88.18 0.137268 0.3685
8.98780000 0.137292 3.2905 0.990524 -88.18 0.990524 -88.18 0.137285 0.3517
8.98800000 0.137309 3.2994 0.990522 -88.18 0.990522 -88.18 0.137302 0.3349
8.98820000 0.137327 3.3084 0.990519 -88.19 0.990519 -88.19 0.137320 0.3179
8.98840000 0.137344 3.3174 0.990517 -88.19 0.990517 -88.19 0.137337 0.3009
8.98860000 0.137362 3.3264 0.990514 -88.20 0.990514 -88.20 0.137355 0.2839
8.98880000 0.137380 3.3355 0.990512 -88.20 0.990512 -88.20 0.137373 0.2667
8.98900000 0.137397 3.3447 0.990509 -88.20 0.990509 -88.20 0.137391 0.2495
8.98920000 0.137415 3.3538 0.990507 -88.21 0.990507 -88.21 0.137408 0.2322
8.98940000 0.137433 3.3631 0.990504 -88.21 0.990504 -88.21 0.137426 0.2149
8.98960000 0.137451 3.3724 0.990502 -88.22 0.990502 -88.22 0.137444 0.1975
8.98980000 0.137469 3.3818 0.990499 -88.22 0.990499 -88.22 0.137462 0.1800
8.99000000 0.137488 3.3912 0.990497 -88.22 0.990497 -88.22 0.137481 0.1624
8.99020000 0.137506 3.4006 0.990494 -88.23 0.990494 -88.23 0.137499 0.1448
8.99040000 0.137524 3.4101 0.990492 -88.23 0.990492 -88.23 0.137517 0.1271
8.99060000 0.137543 3.4197 0.990489 -88.24 0.990489 -88.24 0.137536 0.1093
8.99080000 0.137561 3.4293 0.990486 -88.24 0.990486 -88.24 0.137554 0.0914
8.99100000 0.137580 3.4390 0.990484 -88.24 0.990484 -88.24 0.137573 0.0735
8.99120000 0.137598 3.4487 0.990481 -88.25 0.990481 -88.25 0.137591 0.0555
8.99140000 0.137617 3.4585 0.990479 -88.25 0.990479 -88.25 0.137610 0.0374
8.99160000 0.137636 3.4683 0.990476 -88.26 0.990476 -88.26 0.137629 0.0192
8.99180000 0.137655 3.4782 0.990473 -88.26 0.990473 -88.26 0.137648 0.0010
8.99200000 0.137674 3.4882 0.990471 -88.26 0.990471 -88.26 0.137667 -0.017
8.99220000 0.137693 3.4982 0.990468 -88.27 0.990468 -88.27 0.137686 -0.036
8.99240000 0.137712 3.5083 0.990465 -88.27 0.990465 -88.27 0.137705 -0.054
8.99260000 0.137732 3.5184 0.990463 -88.28 0.990463 -88.28 0.137724 -0.073
8.99280000 0.137751 3.5286 0.990460 -88.28 0.990460 -88.28 0.137743 -0.091
8.99300000 0.137770 3.5388 0.990457 -88.29 0.990457 -88.29 0.137763 -0.110
8.99320000 0.137790 3.5491 0.990454 -88.29 0.990454 -88.29 0.137782 -0.129
8.99340000 0.137810 3.5594 0.990452 -88.29 0.990452 -88.29 0.137802 -0.148
8.99360000 0.137829 3.5699 0.990449 -88.30 0.990449 -88.30 0.137822 -0.167
8.99380000 0.137849 3.5803 0.990446 -88.30 0.990446 -88.30 0.137841 -0.186
8.99400000 0.137869 3.5909 0.990443 -88.31 0.990443 -88.31 0.137861 -0.205
8.99420000 0.137889 3.6015 0.990441 -88.31 0.990441 -88.31 0.137881 -0.224
8.99440000 0.137909 3.6121 0.990438 -88.32 0.990438 -88.32 0.137901 -0.243
8.99460000 0.137929 3.6228 0.990435 -88.32 0.990435 -88.32 0.137921 -0.263
8.99480000 0.137949 3.6336 0.990432 -88.32 0.990432 -88.32 0.137942 -0.282
8.99500000 0.137970 3.6445 0.990429 -88.33 0.990429 -88.33 0.137962 -0.302
8.99520000 0.137990 3.6554 0.990426 -88.33 0.990426 -88.33 0.137982 -0.322
8.99540000 0.138011 3.6663 0.990424 -88.34 0.990424 -88.34 0.138003 -0.341
8.99560000 0.138031 3.6774 0.990421 -88.34 0.990421 -88.34 0.138023 -0.361
8.99580000 0.138052 3.6885 0.990418 -88.35 0.990418 -88.35 0.138044 -0.381
8.99600000 0.138073 3.6996 0.990415 -88.35 0.990415 -88.35 0.138065 -0.401
8.99620000 0.138094 3.7109 0.990412 -88.36 0.990412 -88.36 0.138086 -0.421
8.99640000 0.138115 3.7222 0.990409 -88.36 0.990409 -88.36 0.138107 -0.441
8.99660000 0.138136 3.7335 0.990406 -88.36 0.990406 -88.36 0.138128 -0.461
8.99680000 0.138157 3.7450 0.990403 -88.37 0.990403 -88.37 0.138149 -0.482
8.99700000 0.138179 3.7564 0.990400 -88.37 0.990400 -88.37 0.138170 -0.502
8.99720000 0.138200 3.7680 0.990397 -88.38 0.990397 -88.38 0.138192 -0.523
8.99740000 0.138222 3.7796 0.990394 -88.38 0.990394 -88.38 0.138213 -0.544
8.99760000 0.138243 3.7913 0.990391 -88.39 0.990391 -88.39 0.138235 -0.564
8.99780000 0.138265 3.8031 0.990388 -88.39 0.990388 -88.39 0.138257 -0.585
8.99800000 0.138287 3.8150 0.990385 -88.40 0.990385 -88.40 0.138279 -0.606
8.99820000 0.138309 3.8269 0.990382 -88.40 0.990382 -88.40 0.138301 -0.627
8.99840000 0.138331 3.8388 0.990379 -88.40 0.990379 -88.40 0.138323 -0.648
8.99860000 0.138353 3.8509 0.990375 -88.41 0.990375 -88.41 0.138345 -0.669
8.99880000 0.138376 3.8630 0.990372 -88.41 0.990372 -88.41 0.138367 -0.691
8.99900000 0.138398 3.8752 0.990369 -88.42 0.990369 -88.42 0.138389 -0.712
8.99920000 0.138421 3.8875 0.990366 -88.42 0.990366 -88.42 0.138412 -0.734
8.99940000 0.138443 3.8998 0.990363 -88.43 0.990363 -88.43 0.138435 -0.755
8.99960000 0.138466 3.9122 0.990360 -88.43 0.990360 -88.43 0.138457 -0.777
8.99980000 0.138489 3.9247 0.990356 -88.44 0.990356 -88.44 0.138480 -0.799
9.00000000 0.138512 3.9373 0.990353 -88.44 0.990353 -88.44 0.138503 -0.821
9.00020000 0.138535 3.9499 0.990350 -88.45 0.990350 -88.45 0.138526 -0.843
9.00040000 0.138559 3.9627 0.990346 -88.45 0.990346 -88.45 0.138549 -0.865
9.00060000 0.138582 3.9755 0.990343 -88.46 0.990343 -88.46 0.138573 -0.887
9.00080000 0.138605 3.9883 0.990340 -88.46 0.990340 -88.46 0.138596 -0.910
9.00100000 0.138629 4.0013 0.990337 -88.47 0.990337 -88.47 0.138620 -0.932
9.00120000 0.138653 4.0143 0.990333 -88.47 0.990333 -88.47 0.138644 -0.955
9.00140000 0.138677 4.0274 0.990330 -88.48 0.990330 -88.48 0.138667 -0.977
9.00160000 0.138701 4.0406 0.990326 -88.48 0.990326 -88.48 0.138691 -1.000
9.00180000 0.138725 4.0539 0.990323 -88.48 0.990323 -88.48 0.138715 -1.023
9.00200000 0.138749 4.0672 0.990320 -88.49 0.990320 -88.49 0.138740 -1.046
9.00220000 0.138774 4.0807 0.990316 -88.49 0.990316 -88.49 0.138764 -1.069
9.00240000 0.138798 4.0942 0.990313 -88.50 0.990313 -88.50 0.138788 -1.093
9.00260000 0.138823 4.1078 0.990309 -88.50 0.990309 -88.50 0.138813 -1.116
9.00280000 0.138848 4.1215 0.990306 -88.51 0.990306 -88.51 0.138838 -1.140
9.00300000 0.138872 4.1353 0.990302 -88.51 0.990302 -88.51 0.138863 -1.163
9.00320000 0.138898 4.1491 0.990299 -88.52 0.990299 -88.52 0.138888 -1.187
9.00340000 0.138923 4.1631 0.990295 -88.52 0.990295 -88.52 0.138913 -1.211
9.00360000 0.138948 4.1771 0.990291 -88.53 0.990291 -88.53 0.138938 -1.235
9.00380000 0.138974 4.1912 0.990288 -88.53 0.990288 -88.53 0.138964 -1.259
9.00400000 0.138999 4.2054 0.990284 -88.54 0.990284 -88.54 0.138989 -1.283
9.00420000 0.139025 4.2197 0.990281 -88.54 0.990281 -88.54 0.139015 -1.307
9.00440000 0.139051 4.2341 0.990277 -88.55 0.990277 -88.55 0.139041 -1.332
9.00460000 0.139077 4.2486 0.990273 -88.55 0.990273 -88.55 0.139067 -1.356
9.00480000 0.139103 4.2631 0.990270 -88.56 0.990270 -88.56 0.139093 -1.381
9.00500000 0.139130 4.2778 0.990266 -88.56 0.990266 -88.56 0.139119 -1.406
9.00520000 0.139156 4.2925 0.990262 -88.57 0.990262 -88.57 0.139146 -1.431
9.00540000 0.139183 4.3074 0.990258 -88.57 0.990258 -88.57 0.139172 -1.456
9.00560000 0.139210 4.3223 0.990254 -88.58 0.990254 -88.58 0.139199 -1.481
9.00580000 0.139237 4.3373 0.990251 -88.58 0.990251 -88.58 0.139226 -1.507
9.00600000 0.139264 4.3525 0.990247 -88.59 0.990247 -88.59 0.139253 -1.532
9.00620000 0.139291 4.3677 0.990243 -88.60 0.990243 -88.60 0.139280 -1.558
9.00640000 0.139318 4.3830 0.990239 -88.60 0.990239 -88.60 0.139308 -1.584
9.00660000 0.139346 4.3984 0.990235 -88.61 0.990235 -88.61 0.139335 -1.610
9.00680000 0.139374 4.4139 0.990231 -88.61 0.990231 -88.61 0.139363 -1.636
9.00700000 0.139402 4.4296 0.990227 -88.62 0.990227 -88.62 0.139391 -1.662
9.00720000 0.139430 4.4453 0.990223 -88.62 0.990223 -88.62 0.139419 -1.688
9.00740000 0.139458 4.4611 0.990219 -88.63 0.990219 -88.63 0.139447 -1.715
9.00760000 0.139487 4.4770 0.990215 -88.63 0.990215 -88.63 0.139475 -1.741
9.00780000 0.139515 4.4930 0.990211 -88.64 0.990211 -88.64 0.139504 -1.768
9.00800000 0.139544 4.5092 0.990207 -88.64 0.990207 -88.64 0.139533 -1.795
9.00820000 0.139573 4.5254 0.990203 -88.65 0.990203 -88.65 0.139562 -1.822
9.00840000 0.139602 4.5417 0.990199 -88.65 0.990199 -88.65 0.139591 -1.849
9.00860000 0.139631 4.5582 0.990195 -88.66 0.990195 -88.66 0.139620 -1.877
9.00880000 0.139661 4.5747 0.990190 -88.66 0.990190 -88.66 0.139649 -1.904
9.00900000 0.139691 4.5914 0.990186 -88.67 0.990186 -88.67 0.139679 -1.932
9.00920000 0.139721 4.6082 0.990182 -88.68 0.990182 -88.68 0.139709 -1.960
9.00940000 0.139751 4.6251 0.990178 -88.68 0.990178 -88.68 0.139739 -1.988
9.00960000 0.139781 4.6421 0.990173 -88.69 0.990173 -88.69 0.139769 -2.016
9.00980000 0.139811 4.6592 0.990169 -88.69 0.990169 -88.69 0.139799 -2.044
9.01000000 0.139842 4.6764 0.990165 -88.70 0.990165 -88.70 0.139830 -2.072
9.01020000 0.139873 4.6937 0.990160 -88.70 0.990160 -88.70 0.139861 -2.101
9.01040000 0.139904 4.7112 0.990156 -88.71 0.990156 -88.71 0.139892 -2.130
9.01060000 0.139935 4.7287 0.990151 -88.71 0.990151 -88.71 0.139923 -2.159
9.01080000 0.139966 4.7464 0.990147 -88.72 0.990147 -88.72 0.139954 -2.188
9.01100000 0.139998 4.7642 0.990142 -88.73 0.990142 -88.73 0.139986 -2.217
9.01120000 0.140030 4.7821 0.990138 -88.73 0.990138 -88.73 0.140017 -2.246
9.01140000 0.140062 4.8002 0.990133 -88.74 0.990133 -88.74 0.140049 -2.276
9.01160000 0.140094 4.8183 0.990129 -88.74 0.990129 -88.74 0.140082 -2.306
9.01180000 0.140127 4.8366 0.990124 -88.75 0.990124 -88.75 0.140114 -2.336
9.01200000 0.140159 4.8550 0.990119 -88.76 0.990119 -88.76 0.140146 -2.366
9.01220000 0.140192 4.8736 0.990115 -88.76 0.990115 -88.76 0.140179 -2.396
9.01240000 0.140225 4.8922 0.990110 -88.77 0.990110 -88.77 0.140212 -2.427
9.01260000 0.140259 4.9110 0.990105 -88.77 0.990105 -88.77 0.140246 -2.457
9.01280000 0.140292 4.9299 0.990100 -88.78 0.990100 -88.78 0.140279 -2.488
9.01300000 0.140326 4.9490 0.990096 -88.78 0.990096 -88.78 0.140313 -2.519
9.01320000 0.140360 4.9682 0.990091 -88.79 0.990091 -88.79 0.140347 -2.550
9.01340000 0.140394 4.9875 0.990086 -88.80 0.990086 -88.80 0.140381 -2.582
9.01360000 0.140429 5.0069 0.990081 -88.80 0.990081 -88.80 0.140415 -2.613
9.01380000 0.140463 5.0265 0.990076 -88.81 0.990076 -88.81 0.140450 -2.645
9.01400000 0.140498 5.0462 0.990071 -88.81 0.990071 -88.81 0.140485 -2.677
9.01420000 0.140534 5.0661 0.990066 -88.82 0.990066 -88.82 0.140520 -2.709
9.01440000 0.140569 5.0861 0.990061 -88.83 0.990061 -88.83 0.140555 -2.741
9.01460000 0.140605 5.1062 0.990056 -88.83 0.990056 -88.83 0.140591 -2.774
9.01480000 0.140641 5.1265 0.990051 -88.84 0.990051 -88.84 0.140627 -2.807
9.01500000 0.140677 5.1469 0.990045 -88.85 0.990045 -88.85 0.140663 -2.840
9.01520000 0.140713 5.1674 0.990040 -88.85 0.990040 -88.85 0.140699 -2.873
9.01540000 0.140750 5.1881 0.990035 -88.86 0.990035 -88.86 0.140736 -2.906
9.01560000 0.140787 5.2090 0.990030 -88.86 0.990030 -88.86 0.140772 -2.940
9.01580000 0.140824 5.2300 0.990024 -88.87 0.990024 -88.87 0.140810 -2.973
9.01600000 0.140862 5.2511 0.990019 -88.88 0.990019 -88.88 0.140847 -3.007
9.01620000 0.140899 5.2724 0.990013 -88.88 0.990013 -88.88 0.140885 -3.041
9.01640000 0.140937 5.2939 0.990008 -88.89 0.990008 -88.89 0.140923 -3.076
9.01660000 0.140976 5.3155 0.990002 -88.90 0.990002 -88.90 0.140961 -3.110
9.01680000 0.141014 5.3372 0.989997 -88.90 0.989997 -88.90 0.140999 -3.145
9.01700000 0.141053 5.3592 0.989991 -88.91 0.989991 -88.91 0.141038 -3.180
9.01720000 0.141092 5.3812 0.989986 -88.92 0.989986 -88.92 0.141077 -3.216
9.01740000 0.141132 5.4035 0.989980 -88.92 0.989980 -88.92 0.141117 -3.251
9.01760000 0.141172 5.4259 0.989974 -88.93 0.989974 -88.93 0.141156 -3.287
9.01780000 0.141212 5.4484 0.989968 -88.94 0.989968 -88.94 0.141196 -3.323
9.01800000 0.141252 5.4711 0.989963 -88.94 0.989963 -88.94 0.141236 -3.359
9.01820000 0.141293 5.4940 0.989957 -88.95 0.989957 -88.95 0.141277 -3.395
9.01840000 0.141334 5.5171 0.989951 -88.96 0.989951 -88.96 0.141318 -3.432
9.01860000 0.141375 5.5403 0.989945 -88.96 0.989945 -88.96 0.141359 -3.469
9.01880000 0.141417 5.5637 0.989939 -88.97 0.989939 -88.97 0.141401 -3.506
9.01900000 0.141459 5.5873 0.989933 -88.98 0.989933 -88.98 0.141442 -3.543
9.01920000 0.141501 5.6110 0.989927 -88.98 0.989927 -88.98 0.141485 -3.581
9.01940000 0.141543 5.6349 0.989921 -88.99 0.989921 -88.99 0.141527 -3.619
9.01960000 0.141586 5.6590 0.989914 -89.00 0.989914 -89.00 0.141570 -3.657
9.01980000 0.141630 5.6833 0.989908 -89.01 0.989908 -89.01 0.141613 -3.696
9.02000000 0.141673 5.7077 0.989902 -89.01 0.989902 -89.01 0.141656 -3.734
9.02020000 0.141717 5.7324 0.989896 -89.02 0.989896 -89.02 0.141700 -3.773
9.02040000 0.141761 5.7572 0.989889 -89.03 0.989889 -89.03 0.141744 -3.812
9.02060000 0.141806 5.7822 0.989883 -89.03 0.989883 -89.03 0.141789 -3.852
9.02080000 0.141851 5.8074 0.989876 -89.04 0.989876 -89.04 0.141834 -3.891
9.02100000 0.141896 5.8328 0.989870 -89.05 0.989870 -89.05 0.141879 -3.931
9.02120000 0.141942 5.8584 0.989863 -89.06 0.989863 -89.06 0.141925 -3.972
9.02140000 0.141988 5.8842 0.989856 -89.06 0.989856 -89.06 0.141971 -4.012
9.02160000 0.142035 5.9102 0.989850 -89.07 0.989850 -89.07 0.142017 -4.053
9.02180000 0.142082 5.9364 0.989843 -89.08 0.989843 -89.08 0.142064 -4.094
9.02200000 0.142129 5.9627 0.989836 -89.09 0.989836 -89.09 0.142111 -4.136
9.02220000 0.142177 5.9893 0.989829 -89.09 0.989829 -89.09 0.142158 -4.177
9.02240000 0.142225 6.0161 0.989822 -89.10 0.989822 -89.10 0.142206 -4.219
9.02260000 0.142273 6.0431 0.989815 -89.11 0.989815 -89.11 0.142255 -4.261
9.02280000 0.142322 6.0703 0.989808 -89.12 0.989808 -89.12 0.142303 -4.304
9.02300000 0.142371 6.0978 0.989801 -89.12 0.989801 -89.12 0.142353 -4.347
9.02320000 0.142421 6.1254 0.989793 -89.13 0.989793 -89.13 0.142402 -4.390
9.02340000 0.142471 6.1533 0.989786 -89.14 0.989786 -89.14 0.142452 -4.434
9.02360000 0.142522 6.1813 0.989779 -89.15 0.989779 -89.15 0.142502 -4.477
9.02380000 0.142573 6.2096 0.989771 -89.15 0.989771 -89.15 0.142553 -4.522
9.02400000 0.142624 6.2381 0.989764 -89.16 0.989764 -89.16 0.142605 -4.566
9.02420000 0.142676 6.2669 0.989756 -89.17 0.989756 -89.17 0.142656 -4.611
9.02440000 0.142728 6.2959 0.989749 -89.18 0.989749 -89.18 0.142709 -4.656
9.02460000 0.142781 6.3251 0.989741 -89.19 0.989741 -89.19 0.142761 -4.701
9.02480000 0.142834 6.3545 0.989733 -89.20 0.989733 -89.20 0.142814 -4.747
9.02500000 0.142888 6.3842 0.989725 -89.20 0.989725 -89.20 0.142868 -4.793
9.02520000 0.142943 6.4141 0.989717 -89.21 0.989717 -89.21 0.142922 -4.840
9.02540000 0.142997 6.4443 0.989709 -89.22 0.989709 -89.22 0.142977 -4.886
9.02560000 0.143052 6.4747 0.989701 -89.23 0.989701 -89.23 0.143032 -4.934
9.02580000 0.143108 6.5053 0.989693 -89.24 0.989693 -89.24 0.143087 -4.981
9.02600000 0.143164 6.5362 0.989685 -89.25 0.989685 -89.25 0.143143 -5.029
9.02620000 0.143221 6.5674 0.989677 -89.25 0.989677 -89.25 0.143200 -5.077
9.02640000 0.143279 6.5988 0.989668 -89.26 0.989668 -89.26 0.143257 -5.126
9.02660000 0.143336 6.6305 0.989660 -89.27 0.989660 -89.27 0.143315 -5.175
9.02680000 0.143395 6.6624 0.989651 -89.28 0.989651 -89.28 0.143373 -5.224
9.02700000 0.143454 6.6946 0.989643 -89.29 0.989643 -89.29 0.143432 -5.274
9.02720000 0.143513 6.7271 0.989634 -89.30 0.989634 -89.30 0.143491 -5.324
9.02740000 0.143573 6.7598 0.989625 -89.31 0.989625 -89.31 0.143551 -5.375
9.02760000 0.143634 6.7929 0.989616 -89.31 0.989616 -89.31 0.143611 -5.425
9.02780000 0.143695 6.8261 0.989607 -89.32 0.989607 -89.32 0.143672 -5.477
9.02800000 0.143757 6.8597 0.989598 -89.33 0.989598 -89.33 0.143734 -5.529
9.02820000 0.143819 6.8936 0.989589 -89.34 0.989589 -89.34 0.143796 -5.581
9.02840000 0.143882 6.9277 0.989580 -89.35 0.989580 -89.35 0.143859 -5.633