! Sonnet Data File
! From: emgraph Version : 16.52
! From Emgraph Data: Resonator2
! Data File Written: 10/05/2017 15:05:29
!< HDATE 10/05/2017 13:40:33
!< MDATE 10/05/2017 13:40:33
!< PARAMS
!< gap = 6.0
!< Length = 400.0
!< Pwid1 = 2000.0
!< END PARAMS
# GHZ S MA R 50.0 !  non standard terminations in data
! TERM 51.80000 0.000000 35.97000 0.000000
8.80000000 0.999462 69.710 0.032519 138.06 0.032519 138.06 0.999458 26.431
!< P1 F=8.8 Eeff=(6.44679989 -2.9721e-5) Z0=(51.7992624 1.19519e-4) R=0.0 C=0.0 
!< P2 F=8.8 Eeff=(5.36817953 -2.3731e-5) Z0=(35.9853883 8.0522e-5) R=0.0 C=0.0 
8.80020000 0.999460 69.702 0.032567 138.05 0.032567 138.05 0.999456 26.423
8.80040000 0.999459 69.695 0.032615 138.05 0.032615 138.05 0.999455 26.415
8.80060000 0.999457 69.687 0.032663 138.04 0.032663 138.04 0.999453 26.407
8.80080000 0.999455 69.680 0.032712 138.03 0.032712 138.03 0.999452 26.399
8.80100000 0.999454 69.672 0.032760 138.02 0.032760 138.02 0.999450 26.390
8.80120000 0.999452 69.664 0.032809 138.01 0.032809 138.01 0.999448 26.382
8.80140000 0.999450 69.657 0.032858 138.01 0.032858 138.01 0.999447 26.374
8.80160000 0.999449 69.649 0.032908 138.00 0.032908 138.00 0.999445 26.366
8.80180000 0.999447 69.641 0.032957 137.99 0.032957 137.99 0.999443 26.357
8.80200000 0.999446 69.634 0.033007 137.98 0.033007 137.98 0.999442 26.349
8.80220000 0.999444 69.626 0.033057 137.97 0.033057 137.97 0.999440 26.341
8.80240000 0.999442 69.618 0.033108 137.97 0.033108 137.97 0.999438 26.332
8.80260000 0.999440 69.611 0.033158 137.96 0.033158 137.96 0.999436 26.324
8.80280000 0.999439 69.603 0.033209 137.95 0.033209 137.95 0.999435 26.315
8.80300000 0.999437 69.595 0.033261 137.94 0.033261 137.94 0.999433 26.307
8.80320000 0.999435 69.588 0.033312 137.93 0.033312 137.93 0.999431 26.299
8.80340000 0.999434 69.580 0.033364 137.93 0.033364 137.93 0.999429 26.290
8.80360000 0.999432 69.572 0.033416 137.92 0.033416 137.92 0.999428 26.282
8.80380000 0.999430 69.564 0.033468 137.91 0.033468 137.91 0.999426 26.273
8.80400000 0.999428 69.557 0.033520 137.90 0.033520 137.90 0.999424 26.264
8.80420000 0.999427 69.549 0.033573 137.89 0.033573 137.89 0.999422 26.256
8.80440000 0.999425 69.541 0.033626 137.88 0.033626 137.88 0.999420 26.247
8.80460000 0.999423 69.533 0.033679 137.88 0.033679 137.88 0.999419 26.238
8.80480000 0.999421 69.526 0.033733 137.87 0.033733 137.87 0.999417 26.230
8.80500000 0.999419 69.518 0.033787 137.86 0.033787 137.86 0.999415 26.221
8.80520000 0.999417 69.510 0.033841 137.85 0.033841 137.85 0.999413 26.212
8.80540000 0.999416 69.502 0.033895 137.84 0.033895 137.84 0.999411 26.204
8.80560000 0.999414 69.494 0.033950 137.83 0.033950 137.83 0.999409 26.195
8.80580000 0.999412 69.486 0.034005 137.83 0.034005 137.83 0.999407 26.186
8.80600000 0.999410 69.479 0.034060 137.82 0.034060 137.82 0.999405 26.177
8.80620000 0.999408 69.471 0.034116 137.81 0.034116 137.81 0.999403 26.168
8.80640000 0.999406 69.463 0.034172 137.80 0.034172 137.80 0.999401 26.159
8.80660000 0.999404 69.455 0.034228 137.79 0.034228 137.79 0.999399 26.150
8.80680000 0.999402 69.447 0.034284 137.78 0.034284 137.78 0.999397 26.141
8.80700000 0.999400 69.439 0.034341 137.78 0.034341 137.78 0.999395 26.132
8.80720000 0.999398 69.431 0.034398 137.77 0.034398 137.77 0.999393 26.123
8.80740000 0.999396 69.423 0.034455 137.76 0.034455 137.76 0.999391 26.114
8.80760000 0.999394 69.416 0.034513 137.75 0.034513 137.75 0.999389 26.105
8.80780000 0.999392 69.408 0.034571 137.74 0.034571 137.74 0.999387 26.096
8.80800000 0.999390 69.400 0.034629 137.73 0.034629 137.73 0.999385 26.087
8.80820000 0.999388 69.392 0.034688 137.72 0.034688 137.72 0.999383 26.078
8.80840000 0.999386 69.384 0.034746 137.72 0.034746 137.72 0.999381 26.068
8.80860000 0.999384 69.376 0.034806 137.71 0.034806 137.71 0.999379 26.059
8.80880000 0.999382 69.368 0.034865 137.70 0.034865 137.70 0.999377 26.050
8.80900000 0.999380 69.360 0.034925 137.69 0.034925 137.69 0.999375 26.041
8.80920000 0.999378 69.352 0.034985 137.68 0.034985 137.68 0.999372 26.031
8.80940000 0.999376 69.344 0.035046 137.67 0.035046 137.67 0.999370 26.022
8.80960000 0.999373 69.336 0.035107 137.66 0.035107 137.66 0.999368 26.012
8.80980000 0.999371 69.328 0.035168 137.66 0.035168 137.66 0.999366 26.003
8.81000000 0.999369 69.320 0.035229 137.65 0.035229 137.65 0.999364 25.993
8.81020000 0.999367 69.312 0.035291 137.64 0.035291 137.64 0.999361 25.984
8.81040000 0.999365 69.304 0.035353 137.63 0.035353 137.63 0.999359 25.974
8.81060000 0.999362 69.295 0.035416 137.62 0.035416 137.62 0.999357 25.965
8.81080000 0.999360 69.287 0.035479 137.61 0.035479 137.61 0.999355 25.955
8.81100000 0.999358 69.279 0.035542 137.60 0.035542 137.60 0.999352 25.946
8.81120000 0.999356 69.271 0.035606 137.59 0.035606 137.59 0.999350 25.936
8.81140000 0.999353 69.263 0.035670 137.58 0.035670 137.58 0.999348 25.926
8.81160000 0.999351 69.255 0.035734 137.57 0.035734 137.57 0.999345 25.916
8.81180000 0.999349 69.247 0.035799 137.57 0.035799 137.57 0.999343 25.907
8.81200000 0.999346 69.239 0.035864 137.56 0.035864 137.56 0.999340 25.897
8.81220000 0.999344 69.230 0.035929 137.55 0.035929 137.55 0.999338 25.887
8.81240000 0.999342 69.222 0.035995 137.54 0.035995 137.54 0.999336 25.877
8.81260000 0.999339 69.214 0.036061 137.53 0.036061 137.53 0.999333 25.867
8.81280000 0.999337 69.206 0.036128 137.52 0.036128 137.52 0.999331 25.857
8.81300000 0.999334 69.198 0.036194 137.51 0.036194 137.51 0.999328 25.847
8.81320000 0.999332 69.189 0.036262 137.50 0.036262 137.50 0.999326 25.837
8.81340000 0.999329 69.181 0.036329 137.49 0.036329 137.49 0.999323 25.827
8.81360000 0.999327 69.173 0.036398 137.48 0.036398 137.48 0.999321 25.817
8.81380000 0.999324 69.165 0.036466 137.47 0.036466 137.47 0.999318 25.807
8.81400000 0.999322 69.156 0.036535 137.47 0.036535 137.47 0.999315 25.796
8.81420000 0.999319 69.148 0.036604 137.46 0.036604 137.46 0.999313 25.786
8.81440000 0.999317 69.140 0.036674 137.45 0.036674 137.45 0.999310 25.776
8.81460000 0.999314 69.131 0.036744 137.44 0.036744 137.44 0.999308 25.765
8.81480000 0.999311 69.123 0.036815 137.43 0.036815 137.43 0.999305 25.755
8.81500000 0.999309 69.115 0.036886 137.42 0.036886 137.42 0.999302 25.745
8.81520000 0.999306 69.106 0.036957 137.41 0.036957 137.41 0.999299 25.734
8.81540000 0.999303 69.098 0.037029 137.40 0.037029 137.40 0.999297 25.724
8.81560000 0.999301 69.089 0.037101 137.39 0.037101 137.39 0.999294 25.713
8.81580000 0.999298 69.081 0.037174 137.38 0.037174 137.38 0.999291 25.703
8.81600000 0.999295 69.073 0.037247 137.37 0.037247 137.37 0.999288 25.692
8.81620000 0.999292 69.064 0.037320 137.36 0.037320 137.36 0.999286 25.681
8.81640000 0.999290 69.056 0.037394 137.35 0.037394 137.35 0.999283 25.671
8.81660000 0.999287 69.047 0.037469 137.34 0.037469 137.34 0.999280 25.660
8.81680000 0.999284 69.039 0.037544 137.33 0.037544 137.33 0.999277 25.649
8.81700000 0.999281 69.030 0.037619 137.32 0.037619 137.32 0.999274 25.638
8.81720000 0.999278 69.022 0.037695 137.31 0.037695 137.31 0.999271 25.627
8.81740000 0.999275 69.013 0.037771 137.30 0.037771 137.30 0.999268 25.616
8.81760000 0.999272 69.005 0.037848 137.29 0.037848 137.29 0.999265 25.605
8.81780000 0.999269 68.996 0.037925 137.28 0.037925 137.28 0.999262 25.594
8.81800000 0.999266 68.987 0.038003 137.27 0.038003 137.27 0.999259 25.583
8.81820000 0.999263 68.979 0.038081 137.26 0.038081 137.26 0.999256 25.572
8.81840000 0.999260 68.970 0.038159 137.25 0.038159 137.25 0.999253 25.561
8.81860000 0.999257 68.962 0.038239 137.24 0.038239 137.24 0.999250 25.550
8.81880000 0.999254 68.953 0.038318 137.23 0.038318 137.23 0.999247 25.538
8.81900000 0.999251 68.944 0.038398 137.22 0.038398 137.22 0.999244 25.527
8.81920000 0.999248 68.936 0.038479 137.21 0.038479 137.21 0.999240 25.516
8.81940000 0.999245 68.927 0.038560 137.20 0.038560 137.20 0.999237 25.504
8.81960000 0.999242 68.918 0.038642 137.19 0.038642 137.19 0.999234 25.493
8.81980000 0.999239 68.909 0.038724 137.18 0.038724 137.18 0.999231 25.481
8.82000000 0.999235 68.901 0.038807 137.17 0.038807 137.17 0.999227 25.470
8.82020000 0.999232 68.892 0.038890 137.16 0.038890 137.16 0.999224 25.458
8.82040000 0.999229 68.883 0.038974 137.15 0.038974 137.15 0.999221 25.446
8.82060000 0.999225 68.874 0.039058 137.14 0.039058 137.14 0.999217 25.435
8.82080000 0.999222 68.865 0.039143 137.13 0.039143 137.13 0.999214 25.423
8.82100000 0.999219 68.857 0.039228 137.12 0.039228 137.12 0.999210 25.411
8.82120000 0.999215 68.848 0.039314 137.11 0.039314 137.11 0.999207 25.399
8.82140000 0.999212 68.839 0.039401 137.10 0.039401 137.10 0.999203 25.387
8.82160000 0.999208 68.830 0.039488 137.09 0.039488 137.09 0.999200 25.375
8.82180000 0.999205 68.821 0.039576 137.08 0.039576 137.08 0.999196 25.363
8.82200000 0.999201 68.812 0.039664 137.07 0.039664 137.07 0.999193 25.351
8.82220000 0.999198 68.803 0.039753 137.06 0.039753 137.06 0.999189 25.339
8.82240000 0.999194 68.794 0.039842 137.05 0.039842 137.05 0.999185 25.326
8.82260000 0.999190 68.785 0.039932 137.04 0.039932 137.04 0.999182 25.314
8.82280000 0.999187 68.776 0.040023 137.03 0.040023 137.03 0.999178 25.302
8.82300000 0.999183 68.767 0.040114 137.01 0.040114 137.01 0.999174 25.289
8.82320000 0.999179 68.758 0.040206 137.00 0.040206 137.00 0.999170 25.277
8.82340000 0.999176 68.749 0.040299 136.99 0.040299 136.99 0.999166 25.264
8.82360000 0.999172 68.740 0.040392 136.98 0.040392 136.98 0.999163 25.252
8.82380000 0.999168 68.731 0.040485 136.97 0.040485 136.97 0.999159 25.239
8.82400000 0.999164 68.722 0.040580 136.96 0.040580 136.96 0.999155 25.226
8.82420000 0.999160 68.713 0.040675 136.95 0.040675 136.95 0.999151 25.213
8.82440000 0.999156 68.703 0.040770 136.94 0.040770 136.94 0.999147 25.201
8.82460000 0.999152 68.694 0.040867 136.93 0.040867 136.93 0.999143 25.188
8.82480000 0.999148 68.685 0.040964 136.92 0.040964 136.92 0.999139 25.175
8.82500000 0.999144 68.676 0.041061 136.90 0.041061 136.90 0.999134 25.162
8.82520000 0.999140 68.666 0.041160 136.89 0.041160 136.89 0.999130 25.148
8.82540000 0.999136 68.657 0.041259 136.88 0.041259 136.88 0.999126 25.135
8.82560000 0.999132 68.648 0.041359 136.87 0.041359 136.87 0.999122 25.122
8.82580000 0.999128 68.638 0.041459 136.86 0.041459 136.86 0.999118 25.109
8.82600000 0.999123 68.629 0.041560 136.85 0.041560 136.85 0.999113 25.095
8.82620000 0.999119 68.620 0.041662 136.84 0.041662 136.84 0.999109 25.082
8.82640000 0.999115 68.610 0.041765 136.82 0.041765 136.82 0.999104 25.068
8.82660000 0.999110 68.601 0.041868 136.81 0.041868 136.81 0.999100 25.054
8.82680000 0.999106 68.591 0.041972 136.80 0.041972 136.80 0.999095 25.041
8.82700000 0.999102 68.582 0.042077 136.79 0.042077 136.79 0.999091 25.027
8.82720000 0.999097 68.572 0.042183 136.78 0.042183 136.78 0.999086 25.013
8.82740000 0.999093 68.563 0.042289 136.77 0.042289 136.77 0.999082 24.999
8.82760000 0.999088 68.553 0.042396 136.75 0.042396 136.75 0.999077 24.985
8.82780000 0.999083 68.544 0.042504 136.74 0.042504 136.74 0.999072 24.971
8.82800000 0.999079 68.534 0.042613 136.73 0.042613 136.73 0.999068 24.957
8.82820000 0.999074 68.525 0.042722 136.72 0.042722 136.72 0.999063 24.943
8.82840000 0.999069 68.515 0.042832 136.71 0.042832 136.71 0.999058 24.928
8.82860000 0.999064 68.505 0.042943 136.69 0.042943 136.69 0.999053 24.914
8.82880000 0.999059 68.495 0.043055 136.68 0.043055 136.68 0.999048 24.899
8.82900000 0.999055 68.486 0.043168 136.67 0.043168 136.67 0.999043 24.885
8.82920000 0.999050 68.476 0.043282 136.66 0.043282 136.66 0.999038 24.870
8.82940000 0.999045 68.466 0.043396 136.65 0.043396 136.65 0.999033 24.856
8.82960000 0.999040 68.456 0.043512 136.63 0.043512 136.63 0.999028 24.841
8.82980000 0.999034 68.446 0.043628 136.62 0.043628 136.62 0.999022 24.826
8.83000000 0.999029 68.437 0.043745 136.61 0.043745 136.61 0.999017 24.811
8.83020000 0.999024 68.427 0.043863 136.60 0.043863 136.60 0.999012 24.796
8.83040000 0.999019 68.417 0.043982 136.58 0.043982 136.58 0.999006 24.781
8.83060000 0.999013 68.407 0.044101 136.57 0.044101 136.57 0.999001 24.765
8.83080000 0.999008 68.397 0.044222 136.56 0.044222 136.56 0.998995 24.750
8.83100000 0.999003 68.387 0.044344 136.54 0.044344 136.54 0.998990 24.734
8.83120000 0.998997 68.377 0.044466 136.53 0.044466 136.53 0.998984 24.719
8.83140000 0.998991 68.366 0.044590 136.52 0.044590 136.52 0.998979 24.703
8.83160000 0.998986 68.356 0.044715 136.51 0.044715 136.51 0.998973 24.688
8.83180000 0.998980 68.346 0.044840 136.49 0.044840 136.49 0.998967 24.672
8.83200000 0.998974 68.336 0.044967 136.48 0.044967 136.48 0.998961 24.656
8.83220000 0.998969 68.326 0.045094 136.47 0.045094 136.47 0.998955 24.640
8.83240000 0.998963 68.315 0.045223 136.45 0.045223 136.45 0.998949 24.624
8.83260000 0.998957 68.305 0.045352 136.44 0.045352 136.44 0.998943 24.607
8.83280000 0.998951 68.295 0.045483 136.43 0.045483 136.43 0.998937 24.591
8.83300000 0.998945 68.284 0.045614 136.41 0.045614 136.41 0.998931 24.575
8.83320000 0.998939 68.274 0.045747 136.40 0.045747 136.40 0.998925 24.558
8.83340000 0.998932 68.264 0.045881 136.39 0.045881 136.39 0.998918 24.541
8.83360000 0.998926 68.253 0.046016 136.37 0.046016 136.37 0.998912 24.525
8.83380000 0.998920 68.243 0.046152 136.36 0.046152 136.36 0.998905 24.508
8.83400000 0.998913 68.232 0.046289 136.34 0.046289 136.34 0.998899 24.491
8.83420000 0.998907 68.221 0.046427 136.33 0.046427 136.33 0.998892 24.474
8.83440000 0.998900 68.211 0.046566 136.32 0.046566 136.32 0.998886 24.457
8.83460000 0.998894 68.200 0.046707 136.30 0.046707 136.30 0.998879 24.439
8.83480000 0.998887 68.189 0.046848 136.29 0.046848 136.29 0.998872 24.422
8.83500000 0.998880 68.179 0.046991 136.27 0.046991 136.27 0.998865 24.404
8.83520000 0.998873 68.168 0.047135 136.26 0.047135 136.26 0.998858 24.387
8.83540000 0.998866 68.157 0.047281 136.24 0.047281 136.24 0.998851 24.369
8.83560000 0.998859 68.146 0.047427 136.23 0.047427 136.23 0.998844 24.351
8.83580000 0.998852 68.135 0.047575 136.22 0.047575 136.22 0.998837 24.333
8.83600000 0.998845 68.124 0.047724 136.20 0.047724 136.20 0.998829 24.315
8.83620000 0.998838 68.113 0.047874 136.19 0.047874 136.19 0.998822 24.296
8.83640000 0.998830 68.102 0.048026 136.17 0.048026 136.17 0.998814 24.278
8.83660000 0.998823 68.091 0.048179 136.16 0.048179 136.16 0.998807 24.259
8.83680000 0.998815 68.080 0.048333 136.14 0.048333 136.14 0.998799 24.241
8.83700000 0.998808 68.069 0.048489 136.13 0.048489 136.13 0.998791 24.222
8.83720000 0.998800 68.058 0.048646 136.11 0.048646 136.11 0.998783 24.203
8.83740000 0.998792 68.047 0.048804 136.10 0.048804 136.10 0.998775 24.184
8.83760000 0.998784 68.035 0.048964 136.08 0.048964 136.08 0.998767 24.165
8.83780000 0.998776 68.024 0.049125 136.07 0.049125 136.07 0.998759 24.145
8.83800000 0.998768 68.013 0.049288 136.05 0.049288 136.05 0.998751 24.126
8.83820000 0.998760 68.001 0.049452 136.03 0.049452 136.03 0.998742 24.106
8.83840000 0.998752 67.990 0.049618 136.02 0.049618 136.02 0.998734 24.086
8.83860000 0.998743 67.978 0.049785 136.00 0.049785 136.00 0.998725 24.066
8.83880000 0.998735 67.966 0.049953 135.99 0.049953 135.99 0.998717 24.046
8.83900000 0.998726 67.955 0.050124 135.97 0.050124 135.97 0.998708 24.026
8.83920000 0.998718 67.943 0.050295 135.95 0.050295 135.95 0.998699 24.005
8.83940000 0.998709 67.931 0.050469 135.94 0.050469 135.94 0.998690 23.985
8.83960000 0.998700 67.920 0.050643 135.92 0.050643 135.92 0.998681 23.964
8.83980000 0.998691 67.908 0.050820 135.90 0.050820 135.90 0.998672 23.943
8.84000000 0.998682 67.896 0.050998 135.89 0.050998 135.89 0.998662 23.922
8.84020000 0.998672 67.884 0.051178 135.87 0.051178 135.87 0.998653 23.901
8.84040000 0.998663 67.872 0.051360 135.85 0.051360 135.85 0.998643 23.879
8.84060000 0.998653 67.860 0.051543 135.84 0.051543 135.84 0.998633 23.858
8.84080000 0.998644 67.848 0.051728 135.82 0.051728 135.82 0.998623 23.836
8.84100000 0.998634 67.835 0.051915 135.80 0.051915 135.80 0.998613 23.814
8.84120000 0.998624 67.823 0.052104 135.79 0.052104 135.79 0.998603 23.792
8.84140000 0.998614 67.811 0.052294 135.77 0.052294 135.77 0.998593 23.770
8.84160000 0.998604 67.798 0.052486 135.75 0.052486 135.75 0.998582 23.747
8.84180000 0.998593 67.786 0.052681 135.73 0.052681 135.73 0.998572 23.725
8.84200000 0.998583 67.773 0.052877 135.72 0.052877 135.72 0.998561 23.702
8.84220000 0.998572 67.761 0.053075 135.70 0.053075 135.70 0.998550 23.679
8.84240000 0.998561 67.748 0.053275 135.68 0.053275 135.68 0.998539 23.656
8.84260000 0.998550 67.736 0.053477 135.66 0.053477 135.66 0.998528 23.632
8.84280000 0.998539 67.723 0.053681 135.64 0.053681 135.64 0.998517 23.608
8.84300000 0.998528 67.710 0.053887 135.62 0.053887 135.62 0.998505 23.585
8.84320000 0.998517 67.697 0.054095 135.61 0.054095 135.61 0.998494 23.561
8.84340000 0.998505 67.684 0.054305 135.59 0.054305 135.59 0.998482 23.536
8.84360000 0.998494 67.671 0.054518 135.57 0.054518 135.57 0.998470 23.512
8.84380000 0.998482 67.658 0.054732 135.55 0.054732 135.55 0.998458 23.487
8.84400000 0.998470 67.645 0.054949 135.53 0.054949 135.53 0.998446 23.462
8.84420000 0.998457 67.631 0.055168 135.51 0.055168 135.51 0.998433 23.437
8.84440000 0.998445 67.618 0.055390 135.49 0.055390 135.49 0.998420 23.412
8.84460000 0.998432 67.605 0.055613 135.47 0.055613 135.47 0.998408 23.386
8.84480000 0.998420 67.591 0.055839 135.45 0.055839 135.45 0.998395 23.360
8.84500000 0.998407 67.578 0.056068 135.43 0.056068 135.43 0.998381 23.334
8.84520000 0.998394 67.564 0.056299 135.41 0.056299 135.41 0.998368 23.308
8.84540000 0.998380 67.550 0.056532 135.39 0.056532 135.39 0.998354 23.281
8.84560000 0.998367 67.536 0.056768 135.37 0.056768 135.37 0.998340 23.255
8.84580000 0.998353 67.522 0.057006 135.35 0.057006 135.35 0.998326 23.228
8.84600000 0.998339 67.509 0.057247 135.33 0.057247 135.33 0.998312 23.200
8.84620000 0.998325 67.494 0.057491 135.31 0.057491 135.31 0.998298 23.173
8.84640000 0.998310 67.480 0.057737 135.29 0.057737 135.29 0.998283 23.145
8.84660000 0.998296 67.466 0.057986 135.27 0.057986 135.27 0.998268 23.117
8.84680000 0.998281 67.452 0.058238 135.24 0.058238 135.24 0.998253 23.088
8.84700000 0.998266 67.437 0.058493 135.22 0.058493 135.22 0.998237 23.060
8.84720000 0.998251 67.423 0.058750 135.20 0.058750 135.20 0.998222 23.031
8.84740000 0.998235 67.408 0.059010 135.18 0.059010 135.18 0.998206 23.001
8.84760000 0.998219 67.393 0.059274 135.16 0.059274 135.16 0.998190 22.972
8.84780000 0.998203 67.378 0.059540 135.13 0.059540 135.13 0.998173 22.942
8.84800000 0.998187 67.364 0.059810 135.11 0.059810 135.11 0.998157 22.912
8.84820000 0.998170 67.349 0.060082 135.09 0.060082 135.09 0.998140 22.881
8.84840000 0.998154 67.333 0.060358 135.06 0.060358 135.06 0.998123 22.851
8.84860000 0.998137 67.318 0.060637 135.04 0.060637 135.04 0.998105 22.820
8.84880000 0.998119 67.303 0.060919 135.02 0.060919 135.02 0.998087 22.788
8.84900000 0.998101 67.287 0.061205 134.99 0.061205 134.99 0.998069 22.756
8.84920000 0.998084 67.272 0.061494 134.97 0.061494 134.97 0.998051 22.724
8.84940000 0.998065 67.256 0.061786 134.95 0.061786 134.95 0.998032 22.692
8.84960000 0.998047 67.240 0.062082 134.92 0.062082 134.92 0.998013 22.659
8.84980000 0.998028 67.224 0.062382 134.90 0.062382 134.90 0.997994 22.626
8.85000000 0.998009 67.208 0.062685 134.87 0.062685 134.87 0.997974 22.592
8.85020000 0.997989 67.192 0.062992 134.85 0.062992 134.85 0.997954 22.558
8.85040000 0.997969 67.176 0.063303 134.82 0.063303 134.82 0.997934 22.524
8.85060000 0.997949 67.159 0.063617 134.80 0.063617 134.80 0.997913 22.490
8.85080000 0.997928 67.143 0.063936 134.77 0.063936 134.77 0.997892 22.455
8.85100000 0.997907 67.126 0.064259 134.74 0.064259 134.74 0.997871 22.419
8.85120000 0.997886 67.109 0.064585 134.72 0.064585 134.72 0.997849 22.383
8.85140000 0.997864 67.092 0.064916 134.69 0.064916 134.69 0.997827 22.347
8.85160000 0.997842 67.075 0.065251 134.66 0.065251 134.66 0.997804 22.310
8.85180000 0.997820 67.058 0.065590 134.63 0.065590 134.63 0.997781 22.273
8.85200000 0.997797 67.041 0.065934 134.61 0.065934 134.61 0.997758 22.236
8.85220000 0.997773 67.023 0.066282 134.58 0.066282 134.58 0.997734 22.198
8.85240000 0.997750 67.005 0.066635 134.55 0.066635 134.55 0.997709 22.159
8.85250075 0.997737 66.996 0.066815 134.54 0.066815 134.54 0.997697 22.140
8.85260000 0.997725 66.987 0.066993 134.52 0.066993 134.52 0.997685 22.120
8.85280000 0.997701 66.969 0.067355 134.49 0.067355 134.49 0.997659 22.081
8.85300000 0.997676 66.951 0.067722 134.46 0.067722 134.46 0.997634 22.041
8.85318545 0.997652 66.934 0.068067 134.44 0.068067 134.44 0.997609 22.004
8.85320000 0.997650 66.933 0.068094 134.43 0.068094 134.43 0.997607 22.001
8.85340000 0.997624 66.914 0.068472 134.40 0.068472 134.40 0.997581 21.960
8.85360000 0.997597 66.896 0.068854 134.37 0.068854 134.37 0.997553 21.918
8.85380000 0.997570 66.877 0.069242 134.34 0.069242 134.34 0.997526 21.876
8.85385445 0.997563 66.872 0.069348 134.33 0.069348 134.33 0.997518 21.865
8.85400000 0.997542 66.858 0.069635 134.31 0.069635 134.31 0.997497 21.834
8.85420000 0.997514 66.839 0.070033 134.28 0.070033 134.28 0.997468 21.791
8.85440000 0.997485 66.819 0.070437 134.25 0.070437 134.25 0.997439 21.747
8.85450813 0.997469 66.809 0.070658 134.23 0.070658 134.23 0.997423 21.723
8.85460000 0.997456 66.800 0.070847 134.22 0.070847 134.22 0.997409 21.703
8.85480000 0.997426 66.780 0.071263 134.18 0.071263 134.18 0.997378 21.658
8.85500000 0.997395 66.760 0.071684 134.15 0.071684 134.15 0.997347 21.613
8.85514683 0.997373 66.745 0.071998 134.13 0.071998 134.13 0.997323 21.579
8.85520000 0.997364 66.740 0.072112 134.12 0.072112 134.12 0.997315 21.567
8.85540000 0.997332 66.719 0.072546 134.08 0.072546 134.08 0.997282 21.521
8.85560000 0.997300 66.699 0.072987 134.05 0.072987 134.05 0.997249 21.473
8.85577089 0.997271 66.681 0.073368 134.02 0.073368 134.02 0.997220 21.432
8.85580000 0.997267 66.678 0.073434 134.02 0.073434 134.02 0.997215 21.425
8.85600000 0.997233 66.657 0.073887 133.98 0.073887 133.98 0.997180 21.377
8.85620000 0.997198 66.636 0.074348 133.94 0.074348 133.94 0.997145 21.328
8.85638066 0.997166 66.616 0.074769 133.91 0.074769 133.91 0.997112 21.283
8.85640000 0.997163 66.614 0.074815 133.91 0.074815 133.91 0.997109 21.278
8.85660000 0.997127 66.593 0.075289 133.87 0.075289 133.87 0.997072 21.227
8.85680000 0.997090 66.571 0.075771 133.84 0.075771 133.84 0.997034 21.176
8.85697645 0.997056 66.551 0.076202 133.80 0.076202 133.80 0.997000 21.130
8.85700000 0.997052 66.548 0.076260 133.80 0.076260 133.80 0.996995 21.124
8.85720000 0.997013 66.526 0.076757 133.76 0.076757 133.76 0.996956 21.071
8.85740000 0.996974 66.503 0.077262 133.72 0.077262 133.72 0.996915 21.017
8.85755859 0.996942 66.485 0.077668 133.69 0.077668 133.69 0.996883 20.974
8.85760000 0.996933 66.480 0.077775 133.68 0.077775 133.68 0.996874 20.963
8.85780000 0.996892 66.457 0.078296 133.64 0.078296 133.64 0.996832 20.908
8.85800000 0.996850 66.434 0.078825 133.60 0.078825 133.60 0.996788 20.852
8.85812739 0.996823 66.418 0.079166 133.58 0.079166 133.58 0.996760 20.815
8.85820000 0.996807 66.410 0.079363 133.56 0.079363 133.56 0.996744 20.795
8.85840000 0.996763 66.386 0.079909 133.52 0.079909 133.52 0.996699 20.737
8.85860000 0.996717 66.361 0.080465 133.48 0.080465 133.48 0.996653 20.678
8.85868316 0.996698 66.351 0.080699 133.46 0.080699 133.46 0.996633 20.653
8.85880000 0.996671 66.337 0.081030 133.44 0.081030 133.44 0.996605 20.618
8.85900000 0.996623 66.312 0.081604 133.39 0.081604 133.39 0.996557 20.558
8.85920000 0.996575 66.286 0.082188 133.35 0.082188 133.35 0.996507 20.496
8.85922619 0.996568 66.283 0.082266 133.34 0.082266 133.34 0.996500 20.488
8.85940000 0.996525 66.261 0.082782 133.30 0.082782 133.30 0.996456 20.434
8.85960000 0.996474 66.235 0.083387 133.26 0.083387 133.26 0.996404 20.370
8.85975678 0.996433 66.214 0.083868 133.22 0.083868 133.22 0.996362 20.319
8.85980000 0.996422 66.208 0.084001 133.21 0.084001 133.21 0.996350 20.305
8.86000000 0.996368 66.181 0.084627 133.17 0.084627 133.17 0.996295 20.240
8.86020000 0.996313 66.154 0.085263 133.12 0.085263 133.12 0.996239 20.173
8.86027522 0.996292 66.144 0.085506 133.10 0.085506 133.10 0.996217 20.147
8.86040000 0.996257 66.127 0.085911 133.07 0.085911 133.07 0.996181 20.105
8.86060000 0.996199 66.099 0.086571 133.02 0.086571 133.02 0.996122 20.036
8.86078177 0.996145 66.074 0.087181 132.98 0.087181 132.98 0.996067 19.972
8.86080000 0.996140 66.071 0.087242 132.97 0.087242 132.97 0.996061 19.965
8.86100000 0.996079 66.042 0.087926 132.92 0.087926 132.92 0.995999 19.894
8.86120000 0.996016 66.013 0.088622 132.87 0.088622 132.87 0.995935 19.821
8.86127671 0.995992 66.002 0.088893 132.85 0.088893 132.85 0.995910 19.792
8.86140000 0.995952 65.984 0.089332 132.82 0.089332 132.82 0.995869 19.747
8.86160000 0.995886 65.954 0.090054 132.76 0.090054 132.76 0.995801 19.671
8.86176032 0.995832 65.930 0.090644 132.72 0.090644 132.72 0.995746 19.610
8.86180000 0.995819 65.924 0.090791 132.71 0.090791 132.71 0.995732 19.594
8.86200000 0.995749 65.893 0.091541 132.66 0.091541 132.66 0.995661 19.516
8.86220000 0.995678 65.861 0.092306 132.60 0.092306 132.60 0.995588 19.436
8.86223284 0.995666 65.856 0.092433 132.59 0.092433 132.59 0.995575 19.423
8.86240000 0.995604 65.830 0.093086 132.54 0.093086 132.54 0.995512 19.355
8.86260000 0.995529 65.797 0.093881 132.48 0.093881 132.48 0.995435 19.272
8.86269454 0.995492 65.782 0.094263 132.46 0.094263 132.46 0.995397 19.233
8.86280000 0.995451 65.764 0.094692 132.42 0.094692 132.42 0.995355 19.188
8.86300000 0.995371 65.731 0.095520 132.36 0.095520 132.36 0.995273 19.102
8.86314566 0.995311 65.706 0.096133 132.32 0.096133 132.32 0.995212 19.038
8.86320000 0.995288 65.697 0.096364 132.30 0.096364 132.30 0.995189 19.014
8.86340000 0.995203 65.663 0.097225 132.24 0.097225 132.24 0.995102 18.925
8.86358644 0.995122 65.630 0.098045 132.18 0.098045 132.18 0.995018 18.840
8.86360000 0.995116 65.628 0.098105 132.18 0.098105 132.18 0.995012 18.833
8.86380000 0.995026 65.592 0.099002 132.11 0.099002 132.11 0.994920 18.740
8.86400000 0.994933 65.556 0.099919 132.05 0.099919 132.05 0.994825 18.645
8.86401712 0.994925 65.553 0.099999 132.04 0.099999 132.04 0.994816 18.637
8.86420000 0.994837 65.519 0.100855 131.98 0.100855 131.98 0.994726 18.548
8.86440000 0.994739 65.481 0.101812 131.91 0.101812 131.91 0.994625 18.449
8.86443793 0.994720 65.474 0.101996 131.90 0.101996 131.90 0.994606 18.430
8.86460000 0.994637 65.443 0.102789 131.84 0.102789 131.84 0.994521 18.348
8.86480000 0.994532 65.404 0.103788 131.77 0.103788 131.77 0.994413 18.245
8.86484910 0.994506 65.394 0.104037 131.75 0.104037 131.75 0.994386 18.219
8.86500000 0.994423 65.364 0.104810 131.69 0.104810 131.69 0.994302 18.139
8.86520000 0.994311 65.324 0.105854 131.62 0.105854 131.62 0.994187 18.031
8.86525085 0.994282 65.313 0.106123 131.60 0.106123 131.60 0.994157 18.003
8.86540000 0.994196 65.282 0.106922 131.54 0.106922 131.54 0.994068 17.921
8.86560000 0.994076 65.240 0.108014 131.46 0.108014 131.46 0.993946 17.808
8.86564339 0.994050 65.231 0.108255 131.45 0.108255 131.45 0.993919 17.783
8.86580000 0.993952 65.197 0.109133 131.38 0.109133 131.38 0.993819 17.693
8.86600000 0.993824 65.153 0.110277 131.30 0.110277 131.30 0.993688 17.575
8.86602694 0.993807 65.147 0.110433 131.29 0.110433 131.29 0.993670 17.559
8.86620000 0.993692 65.109 0.111449 131.22 0.111449 131.22 0.993552 17.454
8.86640000 0.993555 65.063 0.112649 131.13 0.112649 131.13 0.993411 17.330
8.86640170 0.993554 65.063 0.112659 131.13 0.112659 131.13 0.993410 17.329
8.86660000 0.993413 65.016 0.113879 131.04 0.113879 131.04 0.993266 17.203
8.86676787 0.993290 64.977 0.114934 130.97 0.114934 130.97 0.993139 17.095
8.86680000 0.993266 64.969 0.115139 130.96 0.115139 130.96 0.993115 17.074
8.86700000 0.993113 64.920 0.116430 130.86 0.116430 130.86 0.992958 16.941
8.86712565 0.993015 64.889 0.117258 130.80 0.117258 130.80 0.992857 16.856
8.86720000 0.992955 64.870 0.117754 130.77 0.117754 130.77 0.992796 16.804
8.86740000 0.992791 64.820 0.119112 130.67 0.119112 130.67 0.992628 16.665
8.86747524 0.992728 64.800 0.119632 130.64 0.119632 130.64 0.992563 16.611
8.86760000 0.992621 64.768 0.120506 130.57 0.120506 130.57 0.992453 16.521
8.86780000 0.992444 64.714 0.121936 130.47 0.121936 130.47 0.992272 16.374
8.86781681 0.992428 64.710 0.122058 130.46 0.122058 130.46 0.992256 16.362
8.86800000 0.992260 64.660 0.123404 130.37 0.123404 130.37 0.992083 16.223
8.86815056 0.992117 64.618 0.124535 130.29 0.124535 130.29 0.991936 16.107
8.86820000 0.992069 64.604 0.124912 130.26 0.124912 130.26 0.991887 16.068
8.86840000 0.991870 64.547 0.126461 130.15 0.126461 130.15 0.991683 15.909
8.86847665 0.991791 64.525 0.127066 130.11 0.127066 130.11 0.991603 15.847
8.86860000 0.991663 64.489 0.128053 130.04 0.128053 130.04 0.991471 15.746
8.86879528 0.991452 64.430 0.129651 129.93 0.129651 129.93 0.991255 15.581
8.86880000 0.991447 64.429 0.129690 129.93 0.129690 129.93 0.991249 15.577
8.86900000 0.991223 64.367 0.131374 129.81 0.131374 129.81 0.991019 15.404
8.86910661 0.991099 64.334 0.132291 129.74 0.132291 129.74 0.990892 15.310
8.86920000 0.990988 64.304 0.133106 129.69 0.133106 129.69 0.990779 15.227
8.86940000 0.990744 64.239 0.134889 129.56 0.134889 129.56 0.990528 15.043
8.86941080 0.990731 64.236 0.134987 129.55 0.134987 129.55 0.990514 15.033
8.86960000 0.990489 64.173 0.136725 129.43 0.136725 129.43 0.990266 14.855
8.86970802 0.990347 64.136 0.137740 129.36 0.137740 129.36 0.990120 14.751
8.86980000 0.990223 64.104 0.138617 129.30 0.138617 129.30 0.989993 14.661
8.86999843 0.989946 64.035 0.140551 129.16 0.140551 129.16 0.989709 14.462
8.87000000 0.989944 64.034 0.140566 129.16 0.140566 129.16 0.989707 14.460
8.87020000 0.989653 63.962 0.142576 129.02 0.142576 129.02 0.989408 14.254
8.87028219 0.989529 63.932 0.143421 128.96 0.143421 128.96 0.989281 14.167
8.87040000 0.989348 63.888 0.144650 128.88 0.144650 128.88 0.989095 14.041