! Sonnet Data File
! From: emgraph Version : 16.52
! From Project: Resonator2
! Data is De-embedded 
! Data File Written: 10/06/2017 09:13:21
!< HDATE 10/05/2017 15:18:40
!< MDATE 10/05/2017 15:18:40
!< PARAMS
!< gap = 46.0
!< Length = 400.0
!< Pwid1 = 2000.0
!< Pwid2 = 2000.0
!< END PARAMS
# GHZ S MA R 50.0 !  non standard terminations in data
! TERM 51.80000 0.000000 35.97000 0.000000
8.80000000 0.999986 70.637 0.003790 -39.24 0.003790 -39.24 0.999988 30.877
!< P1 F=8.8 Eeff=(6.44679989 -2.9721e-5) Z0=(51.7992624 1.19519e-4) R=0.0 C=0.0 
!< P2 F=8.8 Eeff=(5.36817953 -2.3731e-5) Z0=(35.9853883 8.0522e-5) R=0.0 C=0.0 
8.80020000 0.999986 70.631 0.003791 -39.25 0.003791 -39.25 0.999988 30.873
8.80040000 0.999986 70.625 0.003791 -39.25 0.003791 -39.25 0.999988 30.870
8.80060000 0.999986 70.619 0.003792 -39.26 0.003792 -39.26 0.999988 30.866
8.80080000 0.999986 70.613 0.003792 -39.26 0.003792 -39.26 0.999988 30.863
8.80100000 0.999986 70.607 0.003793 -39.27 0.003793 -39.27 0.999988 30.859
8.80120000 0.999986 70.601 0.003794 -39.27 0.003794 -39.27 0.999988 30.856
8.80140000 0.999986 70.595 0.003794 -39.28 0.003794 -39.28 0.999988 30.852
8.80160000 0.999986 70.589 0.003795 -39.28 0.003795 -39.28 0.999988 30.849
8.80180000 0.999986 70.583 0.003795 -39.29 0.003795 -39.29 0.999988 30.845
8.80200000 0.999986 70.577 0.003796 -39.29 0.003796 -39.29 0.999988 30.842
8.80220000 0.999986 70.571 0.003797 -39.30 0.003797 -39.30 0.999988 30.838
8.80240000 0.999986 70.565 0.003797 -39.30 0.003797 -39.30 0.999988 30.835
8.80260000 0.999986 70.559 0.003798 -39.31 0.003798 -39.31 0.999988 30.831
8.80280000 0.999986 70.553 0.003798 -39.31 0.003798 -39.31 0.999988 30.828
8.80300000 0.999986 70.547 0.003799 -39.32 0.003799 -39.32 0.999988 30.824
8.80320000 0.999986 70.541 0.003800 -39.32 0.003800 -39.32 0.999988 30.821
8.80340000 0.999986 70.535 0.003800 -39.33 0.003800 -39.33 0.999988 30.817
8.80360000 0.999986 70.529 0.003801 -39.33 0.003801 -39.33 0.999988 30.814
8.80380000 0.999986 70.523 0.003801 -39.33 0.003801 -39.33 0.999988 30.810
8.80400000 0.999986 70.517 0.003802 -39.34 0.003802 -39.34 0.999988 30.807
8.80420000 0.999986 70.511 0.003803 -39.34 0.003803 -39.34 0.999988 30.803
8.80440000 0.999986 70.505 0.003803 -39.35 0.003803 -39.35 0.999988 30.800
8.80460000 0.999986 70.499 0.003804 -39.35 0.003804 -39.35 0.999988 30.796
8.80480000 0.999986 70.493 0.003805 -39.36 0.003805 -39.36 0.999988 30.792
8.80500000 0.999986 70.487 0.003805 -39.36 0.003805 -39.36 0.999988 30.789
8.80520000 0.999986 70.481 0.003806 -39.37 0.003806 -39.37 0.999988 30.785
8.80540000 0.999986 70.475 0.003806 -39.37 0.003806 -39.37 0.999988 30.782
8.80560000 0.999986 70.469 0.003807 -39.38 0.003807 -39.38 0.999988 30.778
8.80580000 0.999986 70.463 0.003808 -39.38 0.003808 -39.38 0.999988 30.775
8.80600000 0.999986 70.457 0.003808 -39.39 0.003808 -39.39 0.999988 30.771
8.80620000 0.999986 70.451 0.003809 -39.39 0.003809 -39.39 0.999988 30.768
8.80640000 0.999986 70.445 0.003810 -39.40 0.003810 -39.40 0.999988 30.764
8.80660000 0.999986 70.439 0.003810 -39.40 0.003810 -39.40 0.999988 30.761
8.80680000 0.999986 70.433 0.003811 -39.41 0.003811 -39.41 0.999988 30.757
8.80700000 0.999986 70.427 0.003811 -39.41 0.003811 -39.41 0.999988 30.754
8.80720000 0.999986 70.421 0.003812 -39.42 0.003812 -39.42 0.999988 30.750
8.80740000 0.999986 70.415 0.003813 -39.42 0.003813 -39.42 0.999988 30.747
8.80760000 0.999986 70.409 0.003813 -39.43 0.003813 -39.43 0.999988 30.743
8.80780000 0.999986 70.403 0.003814 -39.43 0.003814 -39.43 0.999988 30.739
8.80800000 0.999986 70.397 0.003815 -39.44 0.003815 -39.44 0.999988 30.736
8.80820000 0.999986 70.391 0.003815 -39.44 0.003815 -39.44 0.999988 30.732
8.80840000 0.999986 70.385 0.003816 -39.44 0.003816 -39.44 0.999988 30.729
8.80860000 0.999986 70.379 0.003817 -39.45 0.003817 -39.45 0.999988 30.725
8.80880000 0.999986 70.373 0.003817 -39.45 0.003817 -39.45 0.999988 30.722
8.80900000 0.999986 70.367 0.003818 -39.46 0.003818 -39.46 0.999988 30.718
8.80920000 0.999986 70.361 0.003819 -39.46 0.003819 -39.46 0.999988 30.715
8.80940000 0.999986 70.355 0.003819 -39.47 0.003819 -39.47 0.999988 30.711
8.80960000 0.999986 70.349 0.003820 -39.47 0.003820 -39.47 0.999988 30.708
8.80980000 0.999986 70.343 0.003821 -39.48 0.003821 -39.48 0.999988 30.704
8.81000000 0.999986 70.337 0.003821 -39.48 0.003821 -39.48 0.999988 30.701
8.81020000 0.999986 70.331 0.003822 -39.49 0.003822 -39.49 0.999988 30.697
8.81040000 0.999986 70.325 0.003823 -39.49 0.003823 -39.49 0.999988 30.693
8.81060000 0.999986 70.319 0.003823 -39.50 0.003823 -39.50 0.999988 30.690
8.81080000 0.999986 70.313 0.003824 -39.50 0.003824 -39.50 0.999988 30.686
8.81100000 0.999986 70.307 0.003825 -39.51 0.003825 -39.51 0.999988 30.683
8.81120000 0.999986 70.301 0.003825 -39.51 0.003825 -39.51 0.999988 30.679
8.81140000 0.999986 70.295 0.003826 -39.52 0.003826 -39.52 0.999988 30.676
8.81160000 0.999986 70.288 0.003827 -39.52 0.003827 -39.52 0.999988 30.672
8.81180000 0.999986 70.282 0.003827 -39.53 0.003827 -39.53 0.999988 30.669
8.81200000 0.999986 70.276 0.003828 -39.53 0.003828 -39.53 0.999988 30.665
8.81220000 0.999986 70.270 0.003829 -39.54 0.003829 -39.54 0.999988 30.662
8.81240000 0.999986 70.264 0.003829 -39.54 0.003829 -39.54 0.999988 30.658
8.81260000 0.999986 70.258 0.003830 -39.55 0.003830 -39.55 0.999988 30.654
8.81280000 0.999986 70.252 0.003831 -39.55 0.003831 -39.55 0.999988 30.651
8.81300000 0.999986 70.246 0.003831 -39.56 0.003831 -39.56 0.999988 30.647
8.81320000 0.999986 70.240 0.003832 -39.56 0.003832 -39.56 0.999988 30.644
8.81340000 0.999986 70.234 0.003833 -39.56 0.003833 -39.56 0.999988 30.640
8.81360000 0.999986 70.228 0.003833 -39.57 0.003833 -39.57 0.999988 30.637
8.81380000 0.999986 70.222 0.003834 -39.57 0.003834 -39.57 0.999988 30.633
8.81400000 0.999986 70.216 0.003835 -39.58 0.003835 -39.58 0.999988 30.629
8.81420000 0.999986 70.210 0.003836 -39.58 0.003836 -39.58 0.999988 30.626
8.81440000 0.999986 70.204 0.003836 -39.59 0.003836 -39.59 0.999988 30.622
8.81460000 0.999986 70.198 0.003837 -39.59 0.003837 -39.59 0.999988 30.619
8.81480000 0.999986 70.192 0.003838 -39.60 0.003838 -39.60 0.999988 30.615
8.81500000 0.999986 70.186 0.003838 -39.60 0.003838 -39.60 0.999988 30.612
8.81520000 0.999986 70.180 0.003839 -39.61 0.003839 -39.61 0.999988 30.608
8.81540000 0.999986 70.174 0.003840 -39.61 0.003840 -39.61 0.999988 30.605
8.81560000 0.999986 70.168 0.003841 -39.62 0.003841 -39.62 0.999988 30.601
8.81580000 0.999986 70.162 0.003841 -39.62 0.003841 -39.62 0.999988 30.597
8.81600000 0.999986 70.156 0.003842 -39.63 0.003842 -39.63 0.999988 30.594
8.81620000 0.999986 70.150 0.003843 -39.63 0.003843 -39.63 0.999988 30.590
8.81640000 0.999986 70.144 0.003843 -39.64 0.003843 -39.64 0.999988 30.587
8.81660000 0.999986 70.138 0.003844 -39.64 0.003844 -39.64 0.999988 30.583
8.81680000 0.999986 70.132 0.003845 -39.65 0.003845 -39.65 0.999988 30.580
8.81700000 0.999986 70.126 0.003846 -39.65 0.003846 -39.65 0.999988 30.576
8.81720000 0.999986 70.120 0.003846 -39.66 0.003846 -39.66 0.999988 30.572
8.81740000 0.999986 70.114 0.003847 -39.66 0.003847 -39.66 0.999988 30.569
8.81760000 0.999986 70.108 0.003848 -39.67 0.003848 -39.67 0.999988 30.565
8.81780000 0.999986 70.102 0.003849 -39.67 0.003849 -39.67 0.999988 30.562
8.81800000 0.999986 70.096 0.003849 -39.68 0.003849 -39.68 0.999988 30.558
8.81820000 0.999986 70.090 0.003850 -39.68 0.003850 -39.68 0.999988 30.555
8.81840000 0.999986 70.084 0.003851 -39.68 0.003851 -39.68 0.999988 30.551
8.81860000 0.999986 70.078 0.003852 -39.69 0.003852 -39.69 0.999988 30.547
8.81880000 0.999986 70.072 0.003852 -39.69 0.003852 -39.69 0.999988 30.544
8.81900000 0.999986 70.066 0.003853 -39.70 0.003853 -39.70 0.999988 30.540
8.81920000 0.999986 70.060 0.003854 -39.70 0.003854 -39.70 0.999988 30.537
8.81940000 0.999986 70.054 0.003855 -39.71 0.003855 -39.71 0.999988 30.533
8.81960000 0.999986 70.048 0.003855 -39.71 0.003855 -39.71 0.999988 30.529
8.81980000 0.999986 70.042 0.003856 -39.72 0.003856 -39.72 0.999988 30.526
8.82000000 0.999986 70.036 0.003857 -39.72 0.003857 -39.72 0.999988 30.522
8.82020000 0.999986 70.030 0.003858 -39.73 0.003858 -39.73 0.999988 30.519
8.82040000 0.999986 70.024 0.003858 -39.73 0.003858 -39.73 0.999988 30.515
8.82060000 0.999986 70.018 0.003859 -39.74 0.003859 -39.74 0.999988 30.512
8.82080000 0.999986 70.012 0.003860 -39.74 0.003860 -39.74 0.999988 30.508
8.82100000 0.999986 70.006 0.003861 -39.75 0.003861 -39.75 0.999988 30.504
8.82120000 0.999986 70.000 0.003862 -39.75 0.003862 -39.75 0.999988 30.501
8.82140000 0.999986 69.994 0.003862 -39.76 0.003862 -39.76 0.999988 30.497
8.82160000 0.999986 69.988 0.003863 -39.76 0.003863 -39.76 0.999988 30.494
8.82180000 0.999986 69.982 0.003864 -39.77 0.003864 -39.77 0.999988 30.490
8.82200000 0.999986 69.976 0.003865 -39.77 0.003865 -39.77 0.999988 30.486
8.82220000 0.999986 69.970 0.003866 -39.78 0.003866 -39.78 0.999988 30.483
8.82240000 0.999986 69.964 0.003866 -39.78 0.003866 -39.78 0.999988 30.479
8.82260000 0.999986 69.958 0.003867 -39.79 0.003867 -39.79 0.999988 30.476
8.82280000 0.999986 69.952 0.003868 -39.79 0.003868 -39.79 0.999988 30.472
8.82300000 0.999986 69.946 0.003869 -39.80 0.003869 -39.80 0.999988 30.468
8.82320000 0.999986 69.940 0.003870 -39.80 0.003870 -39.80 0.999988 30.465
8.82340000 0.999986 69.934 0.003870 -39.81 0.003870 -39.81 0.999988 30.461
8.82360000 0.999986 69.928 0.003871 -39.81 0.003871 -39.81 0.999988 30.458
8.82380000 0.999986 69.922 0.003872 -39.82 0.003872 -39.82 0.999988 30.454
8.82400000 0.999986 69.916 0.003873 -39.82 0.003873 -39.82 0.999988 30.450
8.82420000 0.999986 69.910 0.003874 -39.82 0.003874 -39.82 0.999988 30.447
8.82440000 0.999986 69.904 0.003874 -39.83 0.003874 -39.83 0.999988 30.443
8.82460000 0.999986 69.898 0.003875 -39.83 0.003875 -39.83 0.999988 30.440
8.82480000 0.999986 69.892 0.003876 -39.84 0.003876 -39.84 0.999988 30.436
8.82500000 0.999986 69.886 0.003877 -39.84 0.003877 -39.84 0.999988 30.432
8.82520000 0.999986 69.880 0.003878 -39.85 0.003878 -39.85 0.999988 30.429
8.82540000 0.999986 69.874 0.003879 -39.85 0.003879 -39.85 0.999988 30.425
8.82560000 0.999986 69.868 0.003879 -39.86 0.003879 -39.86 0.999988 30.421
8.82580000 0.999986 69.862 0.003880 -39.86 0.003880 -39.86 0.999988 30.418
8.82600000 0.999986 69.856 0.003881 -39.87 0.003881 -39.87 0.999988 30.414
8.82620000 0.999986 69.850 0.003882 -39.87 0.003882 -39.87 0.999988 30.411
8.82640000 0.999986 69.844 0.003883 -39.88 0.003883 -39.88 0.999988 30.407
8.82660000 0.999986 69.838 0.003884 -39.88 0.003884 -39.88 0.999988 30.403
8.82680000 0.999986 69.832 0.003885 -39.89 0.003885 -39.89 0.999988 30.400
8.82700000 0.999986 69.826 0.003885 -39.89 0.003885 -39.89 0.999988 30.396
8.82720000 0.999986 69.820 0.003886 -39.90 0.003886 -39.90 0.999988 30.392
8.82740000 0.999986 69.814 0.003887 -39.90 0.003887 -39.90 0.999988 30.389
8.82760000 0.999986 69.808 0.003888 -39.91 0.003888 -39.91 0.999988 30.385
8.82780000 0.999986 69.802 0.003889 -39.91 0.003889 -39.91 0.999988 30.382
8.82800000 0.999986 69.796 0.003890 -39.92 0.003890 -39.92 0.999988 30.378
8.82820000 0.999986 69.790 0.003891 -39.92 0.003891 -39.92 0.999988 30.374
8.82840000 0.999986 69.784 0.003892 -39.93 0.003892 -39.93 0.999988 30.371
8.82860000 0.999986 69.778 0.003893 -39.93 0.003893 -39.93 0.999988 30.367
8.82880000 0.999986 69.772 0.003893 -39.94 0.003893 -39.94 0.999988 30.363
8.82900000 0.999986 69.766 0.003894 -39.94 0.003894 -39.94 0.999988 30.360
8.82920000 0.999986 69.760 0.003895 -39.95 0.003895 -39.95 0.999988 30.356
8.82940000 0.999986 69.754 0.003896 -39.95 0.003896 -39.95 0.999988 30.353
8.82960000 0.999986 69.748 0.003897 -39.96 0.003897 -39.96 0.999988 30.349
8.82980000 0.999986 69.741 0.003898 -39.96 0.003898 -39.96 0.999988 30.345
8.83000000 0.999986 69.735 0.003899 -39.96 0.003899 -39.96 0.999988 30.342
8.83020000 0.999986 69.729 0.003900 -39.97 0.003900 -39.97 0.999988 30.338
8.83040000 0.999986 69.723 0.003901 -39.97 0.003901 -39.97 0.999988 30.334
8.83060000 0.999986 69.717 0.003902 -39.98 0.003902 -39.98 0.999988 30.331
8.83080000 0.999986 69.711 0.003903 -39.98 0.003903 -39.98 0.999988 30.327
8.83100000 0.999986 69.705 0.003903 -39.99 0.003903 -39.99 0.999988 30.323
8.83120000 0.999986 69.699 0.003904 -39.99 0.003904 -39.99 0.999988 30.320
8.83140000 0.999986 69.693 0.003905 -40.00 0.003905 -40.00 0.999988 30.316
8.83160000 0.999986 69.687 0.003906 -40.00 0.003906 -40.00 0.999988 30.312
8.83180000 0.999986 69.681 0.003907 -40.01 0.003907 -40.01 0.999988 30.309
8.83200000 0.999986 69.675 0.003908 -40.01 0.003908 -40.01 0.999988 30.305
8.83220000 0.999986 69.669 0.003909 -40.02 0.003909 -40.02 0.999988 30.301
8.83240000 0.999986 69.663 0.003910 -40.02 0.003910 -40.02 0.999988 30.298
8.83260000 0.999986 69.657 0.003911 -40.03 0.003911 -40.03 0.999988 30.294
8.83280000 0.999986 69.651 0.003912 -40.03 0.003912 -40.03 0.999988 30.290
8.83300000 0.999986 69.645 0.003913 -40.04 0.003913 -40.04 0.999988 30.287
8.83320000 0.999986 69.639 0.003914 -40.04 0.003914 -40.04 0.999988 30.283
8.83340000 0.999986 69.633 0.003915 -40.05 0.003915 -40.05 0.999988 30.279
8.83360000 0.999986 69.627 0.003916 -40.05 0.003916 -40.05 0.999988 30.276
8.83380000 0.999986 69.621 0.003917 -40.06 0.003917 -40.06 0.999988 30.272
8.83400000 0.999986 69.615 0.003918 -40.06 0.003918 -40.06 0.999988 30.268
8.83420000 0.999986 69.609 0.003919 -40.07 0.003919 -40.07 0.999988 30.265
8.83440000 0.999986 69.603 0.003920 -40.07 0.003920 -40.07 0.999988 30.261
8.83460000 0.999986 69.597 0.003921 -40.08 0.003921 -40.08 0.999988 30.257
8.83480000 0.999986 69.591 0.003922 -40.08 0.003922 -40.08 0.999988 30.254
8.83500000 0.999986 69.585 0.003923 -40.09 0.003923 -40.09 0.999988 30.250
8.83520000 0.999986 69.579 0.003924 -40.09 0.003924 -40.09 0.999988 30.246
8.83540000 0.999986 69.573 0.003925 -40.10 0.003925 -40.10 0.999988 30.243
8.83560000 0.999986 69.567 0.003926 -40.10 0.003926 -40.10 0.999988 30.239
8.83580000 0.999986 69.561 0.003927 -40.11 0.003927 -40.11 0.999988 30.235
8.83600000 0.999986 69.555 0.003928 -40.11 0.003928 -40.11 0.999988 30.231
8.83620000 0.999986 69.549 0.003929 -40.12 0.003929 -40.12 0.999988 30.228
8.83640000 0.999986 69.543 0.003930 -40.12 0.003930 -40.12 0.999988 30.224
8.83660000 0.999986 69.537 0.003931 -40.13 0.003931 -40.13 0.999988 30.220
8.83680000 0.999986 69.531 0.003932 -40.13 0.003932 -40.13 0.999988 30.217
8.83700000 0.999986 69.525 0.003933 -40.13 0.003933 -40.13 0.999988 30.213
8.83720000 0.999986 69.519 0.003934 -40.14 0.003934 -40.14 0.999988 30.209
8.83740000 0.999986 69.513 0.003936 -40.14 0.003936 -40.14 0.999988 30.206
8.83760000 0.999986 69.507 0.003937 -40.15 0.003937 -40.15 0.999988 30.202
8.83780000 0.999986 69.501 0.003938 -40.15 0.003938 -40.15 0.999988 30.198
8.83800000 0.999986 69.495 0.003939 -40.16 0.003939 -40.16 0.999988 30.194
8.83820000 0.999986 69.489 0.003940 -40.16 0.003940 -40.16 0.999988 30.191
8.83840000 0.999986 69.483 0.003941 -40.17 0.003941 -40.17 0.999988 30.187
8.83860000 0.999986 69.477 0.003942 -40.17 0.003942 -40.17 0.999988 30.183
8.83880000 0.999986 69.471 0.003943 -40.18 0.003943 -40.18 0.999988 30.180
8.83900000 0.999986 69.465 0.003944 -40.18 0.003944 -40.18 0.999988 30.176
8.83920000 0.999986 69.459 0.003945 -40.19 0.003945 -40.19 0.999988 30.172
8.83940000 0.999986 69.453 0.003946 -40.19 0.003946 -40.19 0.999988 30.168
8.83960000 0.999986 69.447 0.003948 -40.20 0.003948 -40.20 0.999988 30.165
8.83980000 0.999986 69.441 0.003949 -40.20 0.003949 -40.20 0.999988 30.161
8.84000000 0.999986 69.435 0.003950 -40.21 0.003950 -40.21 0.999988 30.157
8.84020000 0.999986 69.429 0.003951 -40.21 0.003951 -40.21 0.999988 30.153
8.84040000 0.999986 69.423 0.003952 -40.22 0.003952 -40.22 0.999988 30.150
8.84060000 0.999986 69.417 0.003953 -40.22 0.003953 -40.22 0.999988 30.146
8.84080000 0.999986 69.411 0.003954 -40.23 0.003954 -40.23 0.999988 30.142
8.84100000 0.999986 69.405 0.003956 -40.23 0.003956 -40.23 0.999988 30.139
8.84120000 0.999986 69.399 0.003957 -40.24 0.003957 -40.24 0.999988 30.135
8.84140000 0.999986 69.393 0.003958 -40.24 0.003958 -40.24 0.999988 30.131
8.84160000 0.999986 69.387 0.003959 -40.25 0.003959 -40.25 0.999988 30.127
8.84180000 0.999986 69.381 0.003960 -40.25 0.003960 -40.25 0.999988 30.124
8.84200000 0.999986 69.375 0.003962 -40.26 0.003962 -40.26 0.999988 30.120
8.84220000 0.999986 69.369 0.003963 -40.26 0.003963 -40.26 0.999988 30.116
8.84240000 0.999986 69.363 0.003964 -40.27 0.003964 -40.27 0.999988 30.112
8.84260000 0.999986 69.357 0.003965 -40.27 0.003965 -40.27 0.999988 30.109
8.84280000 0.999986 69.351 0.003966 -40.28 0.003966 -40.28 0.999988 30.105
8.84300000 0.999986 69.345 0.003968 -40.28 0.003968 -40.28 0.999988 30.101
8.84320000 0.999986 69.339 0.003969 -40.29 0.003969 -40.29 0.999988 30.097
8.84340000 0.999986 69.333 0.003970 -40.29 0.003970 -40.29 0.999988 30.093
8.84360000 0.999986 69.327 0.003971 -40.30 0.003971 -40.30 0.999988 30.090
8.84380000 0.999986 69.321 0.003973 -40.30 0.003973 -40.30 0.999988 30.086
8.84400000 0.999986 69.315 0.003974 -40.31 0.003974 -40.31 0.999988 30.082
8.84420000 0.999986 69.309 0.003975 -40.31 0.003975 -40.31 0.999988 30.078
8.84440000 0.999986 69.303 0.003976 -40.32 0.003976 -40.32 0.999988 30.075
8.84460000 0.999986 69.297 0.003978 -40.32 0.003978 -40.32 0.999988 30.071
8.84480000 0.999986 69.291 0.003979 -40.33 0.003979 -40.33 0.999988 30.067
8.84500000 0.999986 69.285 0.003980 -40.33 0.003980 -40.33 0.999988 30.063
8.84520000 0.999986 69.279 0.003981 -40.34 0.003981 -40.34 0.999988 30.059
8.84540000 0.999986 69.273 0.003983 -40.34 0.003983 -40.34 0.999988 30.056
8.84560000 0.999986 69.267 0.003984 -40.35 0.003984 -40.35 0.999988 30.052
8.84580000 0.999986 69.261 0.003985 -40.35 0.003985 -40.35 0.999988 30.048
8.84600000 0.999986 69.255 0.003987 -40.36 0.003987 -40.36 0.999988 30.044
8.84620000 0.999986 69.249 0.003988 -40.36 0.003988 -40.36 0.999988 30.040
8.84640000 0.999986 69.243 0.003989 -40.37 0.003989 -40.37 0.999988 30.037
8.84660000 0.999986 69.237 0.003991 -40.37 0.003991 -40.37 0.999988 30.033
8.84680000 0.999986 69.231 0.003992 -40.38 0.003992 -40.38 0.999988 30.029
8.84700000 0.999986 69.225 0.003993 -40.38 0.003993 -40.38 0.999988 30.025
8.84720000 0.999986 69.219 0.003995 -40.38 0.003995 -40.38 0.999988 30.021
8.84740000 0.999986 69.213 0.003996 -40.39 0.003996 -40.39 0.999988 30.017
8.84760000 0.999986 69.207 0.003998 -40.39 0.003998 -40.39 0.999988 30.014
8.84780000 0.999986 69.201 0.003999 -40.40 0.003999 -40.40 0.999988 30.010
8.84800000 0.999986 69.195 0.004000 -40.40 0.004000 -40.40 0.999988 30.006
8.84820000 0.999986 69.189 0.004002 -40.41 0.004002 -40.41 0.999988 30.002
8.84840000 0.999986 69.183 0.004003 -40.41 0.004003 -40.41 0.999988 29.998
8.84860000 0.999986 69.177 0.004005 -40.42 0.004005 -40.42 0.999988 29.994
8.84880000 0.999986 69.170 0.004006 -40.42 0.004006 -40.42 0.999988 29.991
8.84900000 0.999986 69.164 0.004007 -40.43 0.004007 -40.43 0.999988 29.987
8.84920000 0.999986 69.158 0.004009 -40.43 0.004009 -40.43 0.999988 29.983
8.84940000 0.999986 69.152 0.004010 -40.44 0.004010 -40.44 0.999988 29.979
8.84960000 0.999986 69.146 0.004012 -40.44 0.004012 -40.44 0.999988 29.975
8.84980000 0.999986 69.140 0.004013 -40.45 0.004013 -40.45 0.999988 29.971
8.85000000 0.999986 69.134 0.004015 -40.45 0.004015 -40.45 0.999988 29.967
8.85020000 0.999986 69.128 0.004016 -40.46 0.004016 -40.46 0.999988 29.964
8.85040000 0.999986 69.122 0.004018 -40.46 0.004018 -40.46 0.999988 29.960
8.85060000 0.999986 69.116 0.004019 -40.47 0.004019 -40.47 0.999988 29.956
8.85080000 0.999986 69.110 0.004021 -40.47 0.004021 -40.47 0.999988 29.952
8.85100000 0.999986 69.104 0.004022 -40.48 0.004022 -40.48 0.999988 29.948
8.85120000 0.999986 69.098 0.004024 -40.48 0.004024 -40.48 0.999988 29.944
8.85140000 0.999986 69.092 0.004025 -40.49 0.004025 -40.49 0.999988 29.940
8.85160000 0.999986 69.086 0.004027 -40.49 0.004027 -40.49 0.999988 29.936
8.85180000 0.999986 69.080 0.004028 -40.50 0.004028 -40.50 0.999987 29.932
8.85200000 0.999986 69.074 0.004030 -40.50 0.004030 -40.50 0.999987 29.929
8.85220000 0.999986 69.068 0.004032 -40.51 0.004032 -40.51 0.999987 29.925
8.85240000 0.999986 69.062 0.004033 -40.51 0.004033 -40.51 0.999987 29.921
8.85260000 0.999986 69.056 0.004035 -40.52 0.004035 -40.52 0.999987 29.917
8.85280000 0.999986 69.050 0.004036 -40.52 0.004036 -40.52 0.999987 29.913
8.85300000 0.999986 69.044 0.004038 -40.53 0.004038 -40.53 0.999987 29.909
8.85320000 0.999986 69.038 0.004040 -40.53 0.004040 -40.53 0.999987 29.905
8.85340000 0.999986 69.032 0.004041 -40.54 0.004041 -40.54 0.999987 29.901
8.85360000 0.999986 69.026 0.004043 -40.54 0.004043 -40.54 0.999987 29.897
8.85380000 0.999986 69.020 0.004045 -40.55 0.004045 -40.55 0.999987 29.893
8.85400000 0.999986 69.014 0.004046 -40.55 0.004046 -40.55 0.999987 29.889
8.85420000 0.999986 69.008 0.004048 -40.56 0.004048 -40.56 0.999987 29.885
8.85440000 0.999986 69.002 0.004050 -40.56 0.004050 -40.56 0.999987 29.881
8.85460000 0.999986 68.996 0.004051 -40.57 0.004051 -40.57 0.999987 29.877
8.85480000 0.999986 68.990 0.004053 -40.57 0.004053 -40.57 0.999987 29.873
8.85500000 0.999986 68.984 0.004055 -40.58 0.004055 -40.58 0.999987 29.869
8.85520000 0.999986 68.978 0.004057 -40.58 0.004057 -40.58 0.999987 29.865
8.85540000 0.999986 68.972 0.004058 -40.59 0.004058 -40.59 0.999987 29.862
8.85560000 0.999986 68.966 0.004060 -40.59 0.004060 -40.59 0.999987 29.858
8.85580000 0.999986 68.960 0.004062 -40.60 0.004062 -40.60 0.999987 29.854
8.85600000 0.999986 68.954 0.004064 -40.60 0.004064 -40.60 0.999987 29.850
8.85620000 0.999986 68.948 0.004065 -40.61 0.004065 -40.61 0.999987 29.846
8.85640000 0.999986 68.942 0.004067 -40.61 0.004067 -40.61 0.999987 29.842
8.85660000 0.999986 68.936 0.004069 -40.62 0.004069 -40.62 0.999987 29.838
8.85680000 0.999986 68.930 0.004071 -40.62 0.004071 -40.62 0.999987 29.834
8.85700000 0.999986 68.924 0.004073 -40.63 0.004073 -40.63 0.999987 29.830
8.85720000 0.999986 68.918 0.004075 -40.63 0.004075 -40.63 0.999987 29.826
8.85740000 0.999986 68.912 0.004076 -40.64 0.004076 -40.64 0.999987 29.821
8.85760000 0.999986 68.906 0.004078 -40.64 0.004078 -40.64 0.999987 29.817
8.85780000 0.999986 68.900 0.004080 -40.65 0.004080 -40.65 0.999987 29.813
8.85800000 0.999986 68.894 0.004082 -40.65 0.004082 -40.65 0.999987 29.809
8.85820000 0.999986 68.888 0.004084 -40.66 0.004084 -40.66 0.999987 29.805
8.85840000 0.999986 68.882 0.004086 -40.66 0.004086 -40.66 0.999987 29.801
8.85860000 0.999986 68.876 0.004088 -40.67 0.004088 -40.67 0.999987 29.797
8.85880000 0.999986 68.870 0.004090 -40.67 0.004090 -40.67 0.999987 29.793
8.85900000 0.999986 68.864 0.004092 -40.68 0.004092 -40.68 0.999987 29.789
8.85920000 0.999985 68.858 0.004094 -40.68 0.004094 -40.68 0.999987 29.785
8.85940000 0.999985 68.852 0.004096 -40.69 0.004096 -40.69 0.999987 29.781
8.85960000 0.999985 68.846 0.004098 -40.69 0.004098 -40.69 0.999987 29.777
8.85980000 0.999985 68.840 0.004100 -40.70 0.004100 -40.70 0.999987 29.773
8.86000000 0.999985 68.834 0.004102 -40.70 0.004102 -40.70 0.999987 29.769
8.86020000 0.999985 68.828 0.004104 -40.71 0.004104 -40.71 0.999987 29.765
8.86040000 0.999985 68.822 0.004106 -40.71 0.004106 -40.71 0.999987 29.760
8.86060000 0.999985 68.816 0.004108 -40.72 0.004108 -40.72 0.999987 29.756
8.86080000 0.999985 68.810 0.004110 -40.73 0.004110 -40.73 0.999987 29.752
8.86100000 0.999985 68.804 0.004113 -40.73 0.004113 -40.73 0.999987 29.748
8.86120000 0.999985 68.798 0.004115 -40.74 0.004115 -40.74 0.999987 29.744
8.86140000 0.999985 68.792 0.004117 -40.74 0.004117 -40.74 0.999987 29.740
8.86160000 0.999985 68.786 0.004119 -40.75 0.004119 -40.75 0.999987 29.736
8.86180000 0.999985 68.780 0.004121 -40.75 0.004121 -40.75 0.999987 29.731
8.86200000 0.999985 68.774 0.004124 -40.76 0.004124 -40.76 0.999987 29.727
8.86220000 0.999985 68.768 0.004126 -40.76 0.004126 -40.76 0.999987 29.723
8.86240000 0.999985 68.762 0.004128 -40.77 0.004128 -40.77 0.999987 29.719
8.86260000 0.999985 68.756 0.004130 -40.77 0.004130 -40.77 0.999987 29.715
8.86280000 0.999985 68.750 0.004133 -40.78 0.004133 -40.78 0.999987 29.711
8.86300000 0.999985 68.744 0.004135 -40.78 0.004135 -40.78 0.999987 29.706
8.86320000 0.999985 68.738 0.004137 -40.79 0.004137 -40.79 0.999987 29.702
8.86340000 0.999985 68.732 0.004140 -40.79 0.004140 -40.79 0.999987 29.698
8.86360000 0.999985 68.725 0.004142 -40.80 0.004142 -40.80 0.999986 29.694
8.86380000 0.999985 68.719 0.004144 -40.80 0.004144 -40.80 0.999986 29.689
8.86400000 0.999985 68.713 0.004147 -40.81 0.004147 -40.81 0.999986 29.685
8.86420000 0.999985 68.707 0.004149 -40.81 0.004149 -40.81 0.999986 29.681
8.86440000 0.999985 68.701 0.004152 -40.82 0.004152 -40.82 0.999986 29.677
8.86460000 0.999985 68.695 0.004154 -40.82 0.004154 -40.82 0.999986 29.672
8.86480000 0.999985 68.689 0.004157 -40.83 0.004157 -40.83 0.999986 29.668
8.86500000 0.999985 68.683 0.004159 -40.83 0.004159 -40.83 0.999986 29.664
8.86520000 0.999985 68.677 0.004162 -40.84 0.004162 -40.84 0.999986 29.660
8.86540000 0.999985 68.671 0.004164 -40.84 0.004164 -40.84 0.999986 29.655
8.86560000 0.999985 68.665 0.004167 -40.85 0.004167 -40.85 0.999986 29.651
8.86580000 0.999985 68.659 0.004169 -40.85 0.004169 -40.85 0.999986 29.647
8.86600000 0.999985 68.653 0.004172 -40.86 0.004172 -40.86 0.999986 29.642
8.86620000 0.999985 68.647 0.004175 -40.86 0.004175 -40.86 0.999986 29.638
8.86640000 0.999985 68.641 0.004177 -40.87 0.004177 -40.87 0.999986 29.634
8.86660000 0.999985 68.635 0.004180 -40.87 0.004180 -40.87 0.999986 29.629
8.86680000 0.999985 68.629 0.004183 -40.88 0.004183 -40.88 0.999986 29.625
8.86700000 0.999985 68.623 0.004186 -40.88 0.004186 -40.88 0.999986 29.621
8.86720000 0.999985 68.617 0.004188 -40.89 0.004188 -40.89 0.999986 29.616
8.86740000 0.999985 68.611 0.004191 -40.90 0.004191 -40.90 0.999986 29.612
8.86760000 0.999985 68.605 0.004194 -40.90 0.004194 -40.90 0.999986 29.607
8.86780000 0.999985 68.599 0.004197 -40.91 0.004197 -40.91 0.999986 29.603
8.86800000 0.999985 68.593 0.004200 -40.91 0.004200 -40.91 0.999986 29.599
8.86820000 0.999985 68.587 0.004203 -40.92 0.004203 -40.92 0.999986 29.594
8.86840000 0.999985 68.581 0.004205 -40.92 0.004205 -40.92 0.999986 29.590
8.86860000 0.999985 68.575 0.004208 -40.93 0.004208 -40.93 0.999986 29.585
8.86880000 0.999985 68.569 0.004211 -40.93 0.004211 -40.93 0.999986 29.581
8.86900000 0.999985 68.563 0.004214 -40.94 0.004214 -40.94 0.999986 29.576
8.86920000 0.999985 68.557 0.004217 -40.94 0.004217 -40.94 0.999986 29.572
8.86940000 0.999985 68.551 0.004221 -40.95 0.004221 -40.95 0.999986 29.567
8.86960000 0.999985 68.545 0.004224 -40.95 0.004224 -40.95 0.999986 29.563
8.86980000 0.999985 68.539 0.004227 -40.96 0.004227 -40.96 0.999986 29.558
8.87000000 0.999985 68.533 0.004230 -40.96 0.004230 -40.96 0.999986 29.554
8.87020000 0.999985 68.527 0.004233 -40.97 0.004233 -40.97 0.999985 29.549
8.87040000 0.999985 68.521 0.004236 -40.97 0.004236 -40.97 0.999985 29.545
8.87060000 0.999985 68.515 0.004240 -40.98 0.004240 -40.98 0.999985 29.540
8.87080000 0.999985 68.509 0.004243 -40.99 0.004243 -40.99 0.999985 29.536
8.87100000 0.999985 68.503 0.004246 -40.99 0.004246 -40.99 0.999985 29.531
8.87120000 0.999985 68.497 0.004250 -41.00 0.004250 -41.00 0.999985 29.526
8.87140000 0.999985 68.491 0.004253 -41.00 0.004253 -41.00 0.999985 29.522
8.87160000 0.999985 68.485 0.004256 -41.01 0.004256 -41.01 0.999985 29.517
8.87180000 0.999985 68.479 0.004260 -41.01 0.004260 -41.01 0.999985 29.512
8.87200000 0.999985 68.473 0.004263 -41.02 0.004263 -41.02 0.999985 29.508
8.87220000 0.999985 68.467 0.004267 -41.02 0.004267 -41.02 0.999985 29.503
8.87240000 0.999985 68.461 0.004270 -41.03 0.004270 -41.03 0.999985 29.498
8.87260000 0.999985 68.455 0.004274 -41.03 0.004274 -41.03 0.999985 29.494
8.87280000 0.999985 68.449 0.004278 -41.04 0.004278 -41.04 0.999985 29.489
8.87300000 0.999985 68.443 0.004281 -41.04 0.004281 -41.04 0.999985 29.484
8.87320000 0.999985 68.436 0.004285 -41.05 0.004285 -41.05 0.999985 29.479
8.87340000 0.999985 68.430 0.004289 -41.06 0.004289 -41.06 0.999985 29.475
8.87360000 0.999984 68.424 0.004293 -41.06 0.004293 -41.06 0.999985 29.470
8.87380000 0.999984 68.418 0.004297 -41.07 0.004297 -41.07 0.999985 29.465
8.87400000 0.999984 68.412 0.004300 -41.07 0.004300 -41.07 0.999985 29.460
8.87420000 0.999984 68.406 0.004304 -41.08 0.004304 -41.08 0.999985 29.455
8.87440000 0.999984 68.400 0.004308 -41.08 0.004308 -41.08 0.999985 29.451
8.87460000 0.999984 68.394 0.004312 -41.09 0.004312 -41.09 0.999985 29.446
8.87480000 0.999984 68.388 0.004317 -41.09 0.004317 -41.09 0.999984 29.441
8.87500000 0.999984 68.382 0.004321 -41.10 0.004321 -41.10 0.999984 29.436
8.87520000 0.999984 68.376 0.004325 -41.10 0.004325 -41.10 0.999984 29.431
8.87540000 0.999984 68.370 0.004329 -41.11 0.004329 -41.11 0.999984 29.426
8.87560000 0.999984 68.364 0.004333 -41.12 0.004333 -41.12 0.999984 29.421
8.87580000 0.999984 68.358 0.004338 -41.12 0.004338 -41.12 0.999984 29.416
8.87600000 0.999984 68.352 0.004342 -41.13 0.004342 -41.13 0.999984 29.411
8.87620000 0.999984 68.346 0.004346 -41.13 0.004346 -41.13 0.999984 29.406
8.87640000 0.999984 68.340 0.004351 -41.14 0.004351 -41.14 0.999984 29.401
8.87660000 0.999984 68.334 0.004355 -41.14 0.004355 -41.14 0.999984 29.396
8.87680000 0.999984 68.328 0.004360 -41.15 0.004360 -41.15 0.999984 29.391
8.87700000 0.999984 68.322 0.004365 -41.15 0.004365 -41.15 0.999984 29.386
8.87720000 0.999984 68.316 0.004369 -41.16 0.004369 -41.16 0.999984 29.380
8.87740000 0.999984 68.310 0.004374 -41.17 0.004374 -41.17 0.999984 29.375
8.87760000 0.999984 68.304 0.004379 -41.17 0.004379 -41.17 0.999984 29.370
8.87780000 0.999984 68.298 0.004384 -41.18 0.004384 -41.18 0.999984 29.365
8.87789726 0.999984 68.295 0.004386 -41.18 0.004386 -41.18 0.999984 29.362
8.87800000 0.999984 68.292 0.004389 -41.18 0.004389 -41.18 0.999983 29.360