! Sonnet Data File
! From: emgraph Version : 16.52
! From Project: Resonator2
! Data is De-embedded 
! Data File Written: 10/05/2017 13:36:36
!< HDATE 10/05/2017 10:48:01
!< MDATE 10/05/2017 10:48:01
!< PARAMS
!< gap = 26.0
!< Length = 400.0
!< Pwid1 = 2000.0
!< Pwid2 = 2000.0
!< END PARAMS
# GHZ S MA R 50.00000
8.80000000 0.999993 68.726 5.982e-4 -35.15 5.982e-4 -35.15 0.999993 40.955
!< P1 F=8.8 Eeff=(6.44679989 -2.9721e-5) Z0=(51.7992624 1.19519e-4) R=0.0 C=0.0 
!< P2 F=8.8 Eeff=(5.36817953 -2.3731e-5) Z0=(35.9853883 8.0522e-5) R=0.0 C=0.0 
9.00000000 0.999990 62.828 0.002417 -40.02 0.002417 -40.02 0.999990 37.126
!< P1 F=9.0 Eeff=(6.44667112 -2.972e-5) Z0=(51.7986524 1.1952e-4) R=0.0 C=0.0 
!< P2 F=9.0 Eeff=(5.3714988 -2.3767e-5) Z0=(35.9700551 8.0601e-5) R=0.0 C=0.0 
