! Sonnet Data File
! From: emgraph Version : 16.52
! From Project: Resonator2
! Data is De-embedded 
! Data File Written: 10/06/2017 09:13:21
!< HDATE 10/05/2017 15:18:40
!< MDATE 10/05/2017 15:18:40
!< PARAMS
!< gap = 36.0
!< Length = 400.0
!< Pwid1 = 2000.0
!< Pwid2 = 2000.0
!< END PARAMS
# GHZ S MA R 50.0 !  non standard terminations in data
! TERM 51.80000 0.000000 35.97000 0.000000
8.80000000 0.999990 70.639 0.002683 -39.40 0.002683 -39.40 0.999991 30.555
!< P1 F=8.8 Eeff=(6.44679989 -2.9721e-5) Z0=(51.7992624 1.19519e-4) R=0.0 C=0.0 
!< P2 F=8.8 Eeff=(5.36817953 -2.3731e-5) Z0=(35.9853883 8.0522e-5) R=0.0 C=0.0 
8.80020000 0.999990 70.633 0.002683 -39.41 0.002683 -39.41 0.999991 30.551
8.80040000 0.999990 70.627 0.002683 -39.41 0.002683 -39.41 0.999991 30.547
8.80060000 0.999990 70.621 0.002683 -39.42 0.002683 -39.42 0.999991 30.544
8.80080000 0.999990 70.615 0.002683 -39.42 0.002683 -39.42 0.999991 30.540
8.80100000 0.999990 70.609 0.002684 -39.43 0.002684 -39.43 0.999991 30.537
8.80120000 0.999990 70.603 0.002684 -39.43 0.002684 -39.43 0.999991 30.533
8.80140000 0.999990 70.597 0.002684 -39.44 0.002684 -39.44 0.999991 30.529
8.80160000 0.999990 70.591 0.002684 -39.44 0.002684 -39.44 0.999991 30.526
8.80180000 0.999990 70.585 0.002684 -39.45 0.002684 -39.45 0.999991 30.522
8.80200000 0.999990 70.579 0.002685 -39.45 0.002685 -39.45 0.999991 30.518
8.80220000 0.999990 70.573 0.002685 -39.46 0.002685 -39.46 0.999991 30.515
8.80240000 0.999990 70.567 0.002685 -39.46 0.002685 -39.46 0.999991 30.511
8.80260000 0.999990 70.561 0.002685 -39.47 0.002685 -39.47 0.999991 30.508
8.80280000 0.999990 70.555 0.002685 -39.47 0.002685 -39.47 0.999991 30.504
8.80300000 0.999990 70.549 0.002686 -39.47 0.002686 -39.47 0.999991 30.500
8.80320000 0.999990 70.543 0.002686 -39.48 0.002686 -39.48 0.999991 30.497
8.80340000 0.999990 70.537 0.002686 -39.48 0.002686 -39.48 0.999991 30.493
8.80360000 0.999990 70.531 0.002686 -39.49 0.002686 -39.49 0.999991 30.490
8.80380000 0.999990 70.525 0.002686 -39.49 0.002686 -39.49 0.999991 30.486
8.80400000 0.999990 70.519 0.002687 -39.50 0.002687 -39.50 0.999991 30.482
8.80420000 0.999990 70.513 0.002687 -39.50 0.002687 -39.50 0.999991 30.479
8.80440000 0.999990 70.507 0.002687 -39.51 0.002687 -39.51 0.999991 30.475
8.80460000 0.999990 70.501 0.002687 -39.51 0.002687 -39.51 0.999991 30.471
8.80480000 0.999990 70.495 0.002687 -39.52 0.002687 -39.52 0.999991 30.468
8.80500000 0.999990 70.489 0.002687 -39.52 0.002687 -39.52 0.999991 30.464
8.80520000 0.999990 70.483 0.002688 -39.53 0.002688 -39.53 0.999991 30.461
8.80540000 0.999990 70.477 0.002688 -39.53 0.002688 -39.53 0.999991 30.457
8.80560000 0.999990 70.471 0.002688 -39.54 0.002688 -39.54 0.999991 30.453
8.80580000 0.999990 70.465 0.002688 -39.54 0.002688 -39.54 0.999991 30.450
8.80600000 0.999990 70.459 0.002688 -39.55 0.002688 -39.55 0.999991 30.446
8.80620000 0.999990 70.453 0.002689 -39.55 0.002689 -39.55 0.999991 30.442
8.80640000 0.999990 70.447 0.002689 -39.56 0.002689 -39.56 0.999991 30.439
8.80660000 0.999990 70.441 0.002689 -39.56 0.002689 -39.56 0.999991 30.435
8.80680000 0.999990 70.435 0.002689 -39.57 0.002689 -39.57 0.999991 30.432
8.80700000 0.999990 70.429 0.002689 -39.57 0.002689 -39.57 0.999991 30.428
8.80720000 0.999990 70.423 0.002690 -39.58 0.002690 -39.58 0.999991 30.424
8.80740000 0.999990 70.417 0.002690 -39.58 0.002690 -39.58 0.999991 30.421
8.80760000 0.999990 70.411 0.002690 -39.59 0.002690 -39.59 0.999991 30.417
8.80780000 0.999990 70.405 0.002690 -39.59 0.002690 -39.59 0.999991 30.413
8.80800000 0.999990 70.399 0.002690 -39.60 0.002690 -39.60 0.999991 30.410
8.80820000 0.999990 70.393 0.002691 -39.60 0.002691 -39.60 0.999991 30.406
8.80840000 0.999990 70.387 0.002691 -39.60 0.002691 -39.60 0.999991 30.402
8.80860000 0.999990 70.381 0.002691 -39.61 0.002691 -39.61 0.999991 30.399
8.80880000 0.999990 70.375 0.002691 -39.61 0.002691 -39.61 0.999991 30.395
8.80900000 0.999990 70.369 0.002691 -39.62 0.002691 -39.62 0.999991 30.392
8.80920000 0.999990 70.363 0.002691 -39.62 0.002691 -39.62 0.999991 30.388
8.80940000 0.999990 70.357 0.002692 -39.63 0.002692 -39.63 0.999991 30.384
8.80960000 0.999990 70.351 0.002692 -39.63 0.002692 -39.63 0.999991 30.381
8.80980000 0.999990 70.345 0.002692 -39.64 0.002692 -39.64 0.999991 30.377
8.81000000 0.999990 70.339 0.002692 -39.64 0.002692 -39.64 0.999991 30.373
8.81020000 0.999990 70.333 0.002692 -39.65 0.002692 -39.65 0.999991 30.370
8.81040000 0.999990 70.327 0.002693 -39.65 0.002693 -39.65 0.999991 30.366
8.81060000 0.999990 70.321 0.002693 -39.66 0.002693 -39.66 0.999991 30.362
8.81080000 0.999990 70.315 0.002693 -39.66 0.002693 -39.66 0.999991 30.359
8.81100000 0.999990 70.309 0.002693 -39.67 0.002693 -39.67 0.999991 30.355
8.81120000 0.999990 70.303 0.002693 -39.67 0.002693 -39.67 0.999991 30.351
8.81140000 0.999990 70.297 0.002694 -39.68 0.002694 -39.68 0.999991 30.348
8.81160000 0.999990 70.291 0.002694 -39.68 0.002694 -39.68 0.999991 30.344
8.81180000 0.999990 70.285 0.002694 -39.69 0.002694 -39.69 0.999991 30.340
8.81200000 0.999990 70.279 0.002694 -39.69 0.002694 -39.69 0.999991 30.337
8.81220000 0.999990 70.273 0.002694 -39.70 0.002694 -39.70 0.999991 30.333
8.81240000 0.999990 70.267 0.002694 -39.70 0.002694 -39.70 0.999991 30.329
8.81260000 0.999990 70.261 0.002695 -39.71 0.002695 -39.71 0.999991 30.326
8.81280000 0.999990 70.255 0.002695 -39.71 0.002695 -39.71 0.999991 30.322
8.81300000 0.999990 70.249 0.002695 -39.72 0.002695 -39.72 0.999991 30.318
8.81320000 0.999990 70.243 0.002695 -39.72 0.002695 -39.72 0.999991 30.315
8.81340000 0.999990 70.237 0.002695 -39.73 0.002695 -39.73 0.999991 30.311
8.81360000 0.999990 70.231 0.002696 -39.73 0.002696 -39.73 0.999991 30.307
8.81380000 0.999990 70.225 0.002696 -39.73 0.002696 -39.73 0.999991 30.304
8.81400000 0.999990 70.219 0.002696 -39.74 0.002696 -39.74 0.999991 30.300
8.81420000 0.999990 70.213 0.002696 -39.74 0.002696 -39.74 0.999991 30.296
8.81440000 0.999990 70.207 0.002696 -39.75 0.002696 -39.75 0.999991 30.293
8.81460000 0.999990 70.201 0.002697 -39.75 0.002697 -39.75 0.999991 30.289
8.81480000 0.999990 70.195 0.002697 -39.76 0.002697 -39.76 0.999991 30.285
8.81500000 0.999990 70.189 0.002697 -39.76 0.002697 -39.76 0.999991 30.282
8.81520000 0.999990 70.183 0.002697 -39.77 0.002697 -39.77 0.999991 30.278
8.81540000 0.999990 70.177 0.002697 -39.77 0.002697 -39.77 0.999991 30.274
8.81560000 0.999990 70.171 0.002697 -39.78 0.002697 -39.78 0.999991 30.271
8.81580000 0.999990 70.165 0.002698 -39.78 0.002698 -39.78 0.999991 30.267
8.81600000 0.999990 70.159 0.002698 -39.79 0.002698 -39.79 0.999991 30.263
8.81620000 0.999990 70.153 0.002698 -39.79 0.002698 -39.79 0.999991 30.260
8.81640000 0.999990 70.147 0.002698 -39.80 0.002698 -39.80 0.999991 30.256
8.81660000 0.999990 70.141 0.002698 -39.80 0.002698 -39.80 0.999991 30.252
8.81680000 0.999990 70.135 0.002699 -39.81 0.002699 -39.81 0.999991 30.249
8.81700000 0.999990 70.129 0.002699 -39.81 0.002699 -39.81 0.999991 30.245
8.81720000 0.999990 70.123 0.002699 -39.82 0.002699 -39.82 0.999991 30.241
8.81740000 0.999990 70.117 0.002699 -39.82 0.002699 -39.82 0.999991 30.237
8.81760000 0.999990 70.111 0.002699 -39.83 0.002699 -39.83 0.999991 30.234
8.81780000 0.999990 70.105 0.002699 -39.83 0.002699 -39.83 0.999991 30.230
8.81800000 0.999990 70.099 0.002700 -39.84 0.002700 -39.84 0.999991 30.226
8.81820000 0.999990 70.093 0.002700 -39.84 0.002700 -39.84 0.999991 30.223
8.81840000 0.999990 70.087 0.002700 -39.85 0.002700 -39.85 0.999991 30.219
8.81860000 0.999990 70.081 0.002700 -39.85 0.002700 -39.85 0.999991 30.215
8.81880000 0.999990 70.075 0.002700 -39.86 0.002700 -39.86 0.999991 30.212
8.81900000 0.999990 70.069 0.002701 -39.86 0.002701 -39.86 0.999991 30.208
8.81920000 0.999990 70.063 0.002701 -39.87 0.002701 -39.87 0.999991 30.204
8.81940000 0.999990 70.057 0.002701 -39.87 0.002701 -39.87 0.999991 30.200
8.81960000 0.999990 70.051 0.002701 -39.88 0.002701 -39.88 0.999991 30.197
8.81980000 0.999990 70.045 0.002701 -39.88 0.002701 -39.88 0.999991 30.193
8.82000000 0.999990 70.039 0.002701 -39.89 0.002701 -39.89 0.999991 30.189
8.82020000 0.999990 70.033 0.002702 -39.89 0.002702 -39.89 0.999991 30.186
8.82040000 0.999990 70.027 0.002702 -39.89 0.002702 -39.89 0.999991 30.182
8.82060000 0.999990 70.021 0.002702 -39.90 0.002702 -39.90 0.999991 30.178
8.82080000 0.999990 70.015 0.002702 -39.90 0.002702 -39.90 0.999991 30.174
8.82100000 0.999990 70.008 0.002702 -39.91 0.002702 -39.91 0.999991 30.171
8.82120000 0.999990 70.002 0.002703 -39.91 0.002703 -39.91 0.999991 30.167
8.82140000 0.999990 69.996 0.002703 -39.92 0.002703 -39.92 0.999991 30.163
8.82160000 0.999990 69.990 0.002703 -39.92 0.002703 -39.92 0.999991 30.159
8.82180000 0.999990 69.984 0.002703 -39.93 0.002703 -39.93 0.999991 30.156
8.82200000 0.999990 69.978 0.002703 -39.93 0.002703 -39.93 0.999991 30.152
8.82220000 0.999990 69.972 0.002703 -39.94 0.002703 -39.94 0.999991 30.148
8.82240000 0.999990 69.966 0.002704 -39.94 0.002704 -39.94 0.999991 30.144
8.82260000 0.999990 69.960 0.002704 -39.95 0.002704 -39.95 0.999991 30.141
8.82280000 0.999990 69.954 0.002704 -39.95 0.002704 -39.95 0.999991 30.137
8.82300000 0.999990 69.948 0.002704 -39.96 0.002704 -39.96 0.999991 30.133
8.82320000 0.999990 69.942 0.002704 -39.96 0.002704 -39.96 0.999991 30.130
8.82340000 0.999990 69.936 0.002705 -39.97 0.002705 -39.97 0.999991 30.126
8.82360000 0.999990 69.930 0.002705 -39.97 0.002705 -39.97 0.999991 30.122
8.82380000 0.999990 69.924 0.002705 -39.98 0.002705 -39.98 0.999991 30.118
8.82400000 0.999990 69.918 0.002705 -39.98 0.002705 -39.98 0.999991 30.115
8.82420000 0.999990 69.912 0.002705 -39.99 0.002705 -39.99 0.999991 30.111
8.82440000 0.999990 69.906 0.002705 -39.99 0.002705 -39.99 0.999991 30.107
8.82460000 0.999990 69.900 0.002706 -40.00 0.002706 -40.00 0.999991 30.103
8.82480000 0.999990 69.894 0.002706 -40.00 0.002706 -40.00 0.999991 30.099
8.82500000 0.999990 69.888 0.002706 -40.01 0.002706 -40.01 0.999991 30.096
8.82520000 0.999990 69.882 0.002706 -40.01 0.002706 -40.01 0.999991 30.092
8.82540000 0.999990 69.876 0.002706 -40.02 0.002706 -40.02 0.999991 30.088
8.82560000 0.999990 69.870 0.002706 -40.02 0.002706 -40.02 0.999991 30.084
8.82580000 0.999990 69.864 0.002707 -40.03 0.002707 -40.03 0.999991 30.081
8.82600000 0.999990 69.858 0.002707 -40.03 0.002707 -40.03 0.999991 30.077
8.82620000 0.999990 69.852 0.002707 -40.04 0.002707 -40.04 0.999991 30.073
8.82640000 0.999990 69.846 0.002707 -40.04 0.002707 -40.04 0.999991 30.069
8.82660000 0.999990 69.840 0.002707 -40.05 0.002707 -40.05 0.999991 30.066
8.82680000 0.999990 69.834 0.002707 -40.05 0.002707 -40.05 0.999991 30.062
8.82700000 0.999990 69.828 0.002708 -40.06 0.002708 -40.06 0.999991 30.058
8.82720000 0.999990 69.822 0.002708 -40.06 0.002708 -40.06 0.999991 30.054
8.82740000 0.999990 69.816 0.002708 -40.07 0.002708 -40.07 0.999991 30.050
8.82760000 0.999990 69.810 0.002708 -40.07 0.002708 -40.07 0.999991 30.047
8.82780000 0.999990 69.804 0.002708 -40.08 0.002708 -40.08 0.999991 30.043
8.82800000 0.999990 69.798 0.002709 -40.08 0.002709 -40.08 0.999991 30.039
8.82820000 0.999990 69.792 0.002709 -40.09 0.002709 -40.09 0.999991 30.035
8.82840000 0.999990 69.786 0.002709 -40.09 0.002709 -40.09 0.999991 30.031
8.82860000 0.999990 69.780 0.002709 -40.09 0.002709 -40.09 0.999991 30.028
8.82880000 0.999990 69.774 0.002709 -40.10 0.002709 -40.10 0.999991 30.024
8.82900000 0.999990 69.768 0.002709 -40.10 0.002709 -40.10 0.999991 30.020
8.82920000 0.999990 69.762 0.002710 -40.11 0.002710 -40.11 0.999991 30.016
8.82940000 0.999990 69.756 0.002710 -40.11 0.002710 -40.11 0.999991 30.012
8.82960000 0.999990 69.750 0.002710 -40.12 0.002710 -40.12 0.999991 30.009
8.82980000 0.999990 69.744 0.002710 -40.12 0.002710 -40.12 0.999991 30.005
8.83000000 0.999990 69.738 0.002710 -40.13 0.002710 -40.13 0.999991 30.001
8.83020000 0.999990 69.732 0.002710 -40.13 0.002710 -40.13 0.999991 29.997
8.83040000 0.999990 69.726 0.002711 -40.14 0.002711 -40.14 0.999991 29.993
8.83060000 0.999990 69.720 0.002711 -40.14 0.002711 -40.14 0.999991 29.990
8.83080000 0.999990 69.714 0.002711 -40.15 0.002711 -40.15 0.999991 29.986
8.83100000 0.999990 69.708 0.002711 -40.15 0.002711 -40.15 0.999991 29.982
8.83120000 0.999990 69.702 0.002711 -40.16 0.002711 -40.16 0.999991 29.978
8.83140000 0.999990 69.696 0.002711 -40.16 0.002711 -40.16 0.999991 29.974
8.83160000 0.999990 69.690 0.002712 -40.17 0.002712 -40.17 0.999991 29.970
8.83180000 0.999990 69.684 0.002712 -40.17 0.002712 -40.17 0.999991 29.967
8.83200000 0.999990 69.678 0.002712 -40.18 0.002712 -40.18 0.999991 29.963
8.83220000 0.999990 69.672 0.002712 -40.18 0.002712 -40.18 0.999991 29.959
8.83240000 0.999990 69.666 0.002712 -40.19 0.002712 -40.19 0.999991 29.955
8.83260000 0.999990 69.660 0.002712 -40.19 0.002712 -40.19 0.999991 29.951
8.83280000 0.999990 69.654 0.002713 -40.20 0.002713 -40.20 0.999991 29.947
8.83300000 0.999990 69.648 0.002713 -40.20 0.002713 -40.20 0.999991 29.944
8.83320000 0.999990 69.642 0.002713 -40.21 0.002713 -40.21 0.999991 29.940
8.83340000 0.999990 69.636 0.002713 -40.21 0.002713 -40.21 0.999991 29.936
8.83360000 0.999990 69.630 0.002713 -40.22 0.002713 -40.22 0.999991 29.932
8.83380000 0.999990 69.624 0.002713 -40.22 0.002713 -40.22 0.999991 29.928
8.83400000 0.999990 69.618 0.002714 -40.23 0.002714 -40.23 0.999991 29.924
8.83420000 0.999990 69.612 0.002714 -40.23 0.002714 -40.23 0.999991 29.920
8.83440000 0.999990 69.606 0.002714 -40.24 0.002714 -40.24 0.999991 29.917
8.83460000 0.999990 69.600 0.002714 -40.24 0.002714 -40.24 0.999991 29.913
8.83480000 0.999990 69.594 0.002714 -40.25 0.002714 -40.25 0.999991 29.909
8.83500000 0.999990 69.588 0.002714 -40.25 0.002714 -40.25 0.999991 29.905
8.83520000 0.999990 69.582 0.002714 -40.26 0.002714 -40.26 0.999991 29.901
8.83540000 0.999990 69.576 0.002715 -40.26 0.002715 -40.26 0.999991 29.897
8.83560000 0.999990 69.570 0.002715 -40.27 0.002715 -40.27 0.999991 29.893
8.83580000 0.999990 69.564 0.002715 -40.27 0.002715 -40.27 0.999991 29.889
8.83600000 0.999990 69.558 0.002715 -40.28 0.002715 -40.28 0.999991 29.885
8.83620000 0.999990 69.552 0.002715 -40.28 0.002715 -40.28 0.999991 29.882
8.83640000 0.999990 69.546 0.002715 -40.29 0.002715 -40.29 0.999991 29.878
8.83660000 0.999990 69.540 0.002716 -40.29 0.002716 -40.29 0.999991 29.874
8.83680000 0.999990 69.534 0.002716 -40.30 0.002716 -40.30 0.999991 29.870
8.83700000 0.999990 69.528 0.002716 -40.30 0.002716 -40.30 0.999991 29.866
8.83720000 0.999990 69.522 0.002716 -40.31 0.002716 -40.31 0.999991 29.862
8.83740000 0.999990 69.516 0.002716 -40.31 0.002716 -40.31 0.999991 29.858
8.83760000 0.999990 69.510 0.002716 -40.32 0.002716 -40.32 0.999991 29.854
8.83780000 0.999990 69.504 0.002717 -40.32 0.002717 -40.32 0.999991 29.850
8.83800000 0.999990 69.498 0.002717 -40.33 0.002717 -40.33 0.999991 29.846
8.83820000 0.999990 69.492 0.002717 -40.33 0.002717 -40.33 0.999991 29.842
8.83840000 0.999990 69.486 0.002717 -40.34 0.002717 -40.34 0.999991 29.839
8.83860000 0.999990 69.480 0.002717 -40.34 0.002717 -40.34 0.999991 29.835
8.83880000 0.999990 69.474 0.002717 -40.35 0.002717 -40.35 0.999991 29.831
8.83900000 0.999990 69.468 0.002717 -40.35 0.002717 -40.35 0.999991 29.827
8.83920000 0.999990 69.462 0.002718 -40.36 0.002718 -40.36 0.999991 29.823
8.83940000 0.999990 69.456 0.002718 -40.36 0.002718 -40.36 0.999991 29.819
8.83960000 0.999990 69.450 0.002718 -40.37 0.002718 -40.37 0.999991 29.815
8.83980000 0.999990 69.444 0.002718 -40.37 0.002718 -40.37 0.999991 29.811
8.84000000 0.999990 69.438 0.002718 -40.38 0.002718 -40.38 0.999991 29.807
8.84020000 0.999990 69.432 0.002718 -40.38 0.002718 -40.38 0.999991 29.803
8.84040000 0.999990 69.426 0.002719 -40.39 0.002719 -40.39 0.999991 29.799
8.84060000 0.999990 69.420 0.002719 -40.39 0.002719 -40.39 0.999991 29.795
8.84080000 0.999990 69.414 0.002719 -40.40 0.002719 -40.40 0.999991 29.791
8.84100000 0.999990 69.408 0.002719 -40.40 0.002719 -40.40 0.999991 29.787
8.84120000 0.999990 69.402 0.002719 -40.41 0.002719 -40.41 0.999991 29.783
8.84140000 0.999990 69.396 0.002719 -40.41 0.002719 -40.41 0.999990 29.779
8.84160000 0.999990 69.390 0.002719 -40.42 0.002719 -40.42 0.999990 29.775
8.84180000 0.999990 69.384 0.002720 -40.42 0.002720 -40.42 0.999990 29.771
8.84200000 0.999990 69.378 0.002720 -40.43 0.002720 -40.43 0.999990 29.767
8.84220000 0.999990 69.372 0.002720 -40.43 0.002720 -40.43 0.999990 29.763
8.84240000 0.999990 69.366 0.002720 -40.44 0.002720 -40.44 0.999990 29.759
8.84260000 0.999990 69.360 0.002720 -40.44 0.002720 -40.44 0.999990 29.755
8.84280000 0.999990 69.354 0.002720 -40.45 0.002720 -40.45 0.999990 29.751
8.84300000 0.999990 69.348 0.002720 -40.45 0.002720 -40.45 0.999990 29.747
8.84320000 0.999990 69.342 0.002721 -40.46 0.002721 -40.46 0.999990 29.743
8.84340000 0.999990 69.336 0.002721 -40.46 0.002721 -40.46 0.999990 29.739
8.84360000 0.999990 69.330 0.002721 -40.47 0.002721 -40.47 0.999990 29.735
8.84380000 0.999990 69.324 0.002721 -40.47 0.002721 -40.47 0.999990 29.731
8.84400000 0.999990 69.318 0.002721 -40.48 0.002721 -40.48 0.999990 29.727
8.84420000 0.999990 69.312 0.002721 -40.48 0.002721 -40.48 0.999990 29.723
8.84440000 0.999990 69.306 0.002721 -40.49 0.002721 -40.49 0.999990 29.719
8.84460000 0.999990 69.300 0.002722 -40.49 0.002722 -40.49 0.999990 29.715
8.84480000 0.999990 69.294 0.002722 -40.50 0.002722 -40.50 0.999990 29.711
8.84500000 0.999990 69.288 0.002722 -40.50 0.002722 -40.50 0.999990 29.707
8.84520000 0.999990 69.282 0.002722 -40.51 0.002722 -40.51 0.999990 29.703
8.84540000 0.999990 69.276 0.002722 -40.51 0.002722 -40.51 0.999990 29.699
8.84560000 0.999990 69.270 0.002722 -40.52 0.002722 -40.52 0.999990 29.695
8.84580000 0.999990 69.264 0.002722 -40.52 0.002722 -40.52 0.999990 29.691
8.84600000 0.999990 69.258 0.002723 -40.53 0.002723 -40.53 0.999990 29.686
8.84620000 0.999990 69.252 0.002723 -40.53 0.002723 -40.53 0.999990 29.682
8.84640000 0.999990 69.246 0.002723 -40.54 0.002723 -40.54 0.999990 29.678
8.84660000 0.999990 69.240 0.002723 -40.54 0.002723 -40.54 0.999990 29.674
8.84680000 0.999990 69.234 0.002723 -40.55 0.002723 -40.55 0.999990 29.670
8.84700000 0.999990 69.228 0.002723 -40.55 0.002723 -40.55 0.999990 29.666
8.84720000 0.999990 69.222 0.002723 -40.56 0.002723 -40.56 0.999990 29.662
8.84740000 0.999990 69.216 0.002723 -40.56 0.002723 -40.56 0.999990 29.658
8.84760000 0.999990 69.210 0.002724 -40.57 0.002724 -40.57 0.999990 29.654
8.84780000 0.999990 69.204 0.002724 -40.57 0.002724 -40.57 0.999990 29.650
8.84800000 0.999990 69.198 0.002724 -40.58 0.002724 -40.58 0.999990 29.645
8.84820000 0.999990 69.192 0.002724 -40.58 0.002724 -40.58 0.999990 29.641
8.84840000 0.999990 69.186 0.002724 -40.59 0.002724 -40.59 0.999990 29.637
8.84860000 0.999990 69.180 0.002724 -40.59 0.002724 -40.59 0.999990 29.633
8.84880000 0.999990 69.174 0.002724 -40.60 0.002724 -40.60 0.999990 29.629
8.84900000 0.999990 69.168 0.002725 -40.60 0.002725 -40.60 0.999990 29.625
8.84920000 0.999990 69.162 0.002725 -40.61 0.002725 -40.61 0.999990 29.621
8.84940000 0.999990 69.156 0.002725 -40.61 0.002725 -40.61 0.999990 29.616
8.84960000 0.999990 69.150 0.002725 -40.62 0.002725 -40.62 0.999990 29.612
8.84980000 0.999990 69.144 0.002725 -40.62 0.002725 -40.62 0.999990 29.608
8.85000000 0.999990 69.138 0.002725 -40.63 0.002725 -40.63 0.999990 29.604
8.85020000 0.999990 69.132 0.002725 -40.63 0.002725 -40.63 0.999990 29.600
8.85040000 0.999990 69.126 0.002725 -40.64 0.002725 -40.64 0.999990 29.596
8.85060000 0.999990 69.120 0.002726 -40.64 0.002726 -40.64 0.999990 29.591
8.85080000 0.999990 69.114 0.002726 -40.65 0.002726 -40.65 0.999990 29.587
8.85100000 0.999990 69.108 0.002726 -40.65 0.002726 -40.65 0.999990 29.583
8.85120000 0.999990 69.102 0.002726 -40.66 0.002726 -40.66 0.999990 29.579
8.85140000 0.999990 69.096 0.002726 -40.66 0.002726 -40.66 0.999990 29.574
8.85160000 0.999990 69.090 0.002726 -40.67 0.002726 -40.67 0.999990 29.570
8.85180000 0.999990 69.084 0.002726 -40.67 0.002726 -40.67 0.999990 29.566
8.85200000 0.999990 69.078 0.002726 -40.68 0.002726 -40.68 0.999990 29.562
8.85220000 0.999990 69.072 0.002726 -40.68 0.002726 -40.68 0.999990 29.558
8.85240000 0.999990 69.066 0.002727 -40.69 0.002727 -40.69 0.999990 29.553
8.85260000 0.999990 69.060 0.002727 -40.69 0.002727 -40.69 0.999990 29.549
8.85280000 0.999990 69.054 0.002727 -40.70 0.002727 -40.70 0.999990 29.545
8.85300000 0.999990 69.048 0.002727 -40.70 0.002727 -40.70 0.999990 29.540
8.85320000 0.999990 69.042 0.002727 -40.71 0.002727 -40.71 0.999990 29.536
8.85340000 0.999990 69.036 0.002727 -40.71 0.002727 -40.71 0.999990 29.532
8.85360000 0.999990 69.030 0.002727 -40.72 0.002727 -40.72 0.999990 29.528
8.85380000 0.999990 69.024 0.002727 -40.72 0.002727 -40.72 0.999990 29.523
8.85400000 0.999990 69.018 0.002727 -40.73 0.002727 -40.73 0.999990 29.519
8.85420000 0.999990 69.012 0.002728 -40.74 0.002728 -40.74 0.999990 29.515
8.85440000 0.999990 69.006 0.002728 -40.74 0.002728 -40.74 0.999990 29.510
8.85460000 0.999990 69.000 0.002728 -40.75 0.002728 -40.75 0.999990 29.506
8.85480000 0.999990 68.994 0.002728 -40.75 0.002728 -40.75 0.999990 29.502
8.85500000 0.999990 68.988 0.002728 -40.76 0.002728 -40.76 0.999990 29.497
8.85520000 0.999990 68.982 0.002728 -40.76 0.002728 -40.76 0.999990 29.493
8.85540000 0.999990 68.976 0.002728 -40.77 0.002728 -40.77 0.999990 29.489
8.85560000 0.999990 68.970 0.002728 -40.77 0.002728 -40.77 0.999990 29.484
8.85580000 0.999990 68.964 0.002728 -40.78 0.002728 -40.78 0.999990 29.480
8.85600000 0.999990 68.958 0.002728 -40.78 0.002728 -40.78 0.999990 29.476
8.85620000 0.999990 68.952 0.002729 -40.79 0.002729 -40.79 0.999990 29.471
8.85640000 0.999990 68.946 0.002729 -40.79 0.002729 -40.79 0.999990 29.467
8.85660000 0.999990 68.940 0.002729 -40.80 0.002729 -40.80 0.999990 29.462
8.85680000 0.999990 68.934 0.002729 -40.80 0.002729 -40.80 0.999990 29.458
8.85700000 0.999990 68.928 0.002729 -40.81 0.002729 -40.81 0.999990 29.453
8.85720000 0.999990 68.922 0.002729 -40.81 0.002729 -40.81 0.999990 29.449
8.85740000 0.999990 68.916 0.002729 -40.82 0.002729 -40.82 0.999990 29.445
8.85760000 0.999990 68.910 0.002729 -40.82 0.002729 -40.82 0.999990 29.440
8.85780000 0.999990 68.904 0.002729 -40.83 0.002729 -40.83 0.999990 29.436
8.85800000 0.999990 68.898 0.002729 -40.83 0.002729 -40.83 0.999990 29.431
8.85820000 0.999990 68.892 0.002729 -40.84 0.002729 -40.84 0.999990 29.427
8.85840000 0.999990 68.886 0.002730 -40.84 0.002730 -40.84 0.999990 29.422
8.85860000 0.999990 68.880 0.002730 -40.85 0.002730 -40.85 0.999990 29.418
8.85880000 0.999990 68.874 0.002730 -40.85 0.002730 -40.85 0.999990 29.413
8.85900000 0.999990 68.868 0.002730 -40.86 0.002730 -40.86 0.999990 29.409
8.85920000 0.999990 68.862 0.002730 -40.87 0.002730 -40.87 0.999990 29.404
8.85940000 0.999990 68.856 0.002730 -40.87 0.002730 -40.87 0.999989 29.400
8.85960000 0.999990 68.850 0.002730 -40.88 0.002730 -40.88 0.999989 29.395
8.85980000 0.999990 68.844 0.002730 -40.88 0.002730 -40.88 0.999989 29.391
8.86000000 0.999990 68.838 0.002730 -40.89 0.002730 -40.89 0.999989 29.386
8.86020000 0.999990 68.832 0.002730 -40.89 0.002730 -40.89 0.999989 29.381
8.86040000 0.999990 68.826 0.002730 -40.90 0.002730 -40.90 0.999989 29.377
8.86060000 0.999990 68.820 0.002730 -40.90 0.002730 -40.90 0.999989 29.372
8.86080000 0.999990 68.814 0.002730 -40.91 0.002730 -40.91 0.999989 29.368
8.86100000 0.999990 68.808 0.002731 -40.91 0.002731 -40.91 0.999989 29.363
8.86120000 0.999990 68.802 0.002731 -40.92 0.002731 -40.92 0.999989 29.358
8.86140000 0.999990 68.796 0.002731 -40.92 0.002731 -40.92 0.999989 29.354
8.86160000 0.999990 68.790 0.002731 -40.93 0.002731 -40.93 0.999989 29.349
8.86180000 0.999990 68.784 0.002731 -40.93 0.002731 -40.93 0.999989 29.345
8.86200000 0.999990 68.778 0.002731 -40.94 0.002731 -40.94 0.999989 29.340
8.86220000 0.999990 68.772 0.002731 -40.94 0.002731 -40.94 0.999989 29.335
8.86240000 0.999990 68.766 0.002731 -40.95 0.002731 -40.95 0.999989 29.330
8.86260000 0.999990 68.760 0.002731 -40.96 0.002731 -40.96 0.999989 29.326
8.86280000 0.999990 68.754 0.002731 -40.96 0.002731 -40.96 0.999989 29.321
8.86300000 0.999990 68.748 0.002731 -40.97 0.002731 -40.97 0.999989 29.316
8.86320000 0.999990 68.742 0.002731 -40.97 0.002731 -40.97 0.999989 29.312
8.86340000 0.999990 68.736 0.002731 -40.98 0.002731 -40.98 0.999989 29.307
8.86360000 0.999990 68.730 0.002731 -40.98 0.002731 -40.98 0.999989 29.302
8.86380000 0.999990 68.724 0.002731 -40.99 0.002731 -40.99 0.999989 29.297
8.86400000 0.999990 68.718 0.002731 -40.99 0.002731 -40.99 0.999989 29.292
8.86420000 0.999990 68.712 0.002731 -41.00 0.002731 -41.00 0.999989 29.288
8.86440000 0.999990 68.706 0.002731 -41.00 0.002731 -41.00 0.999989 29.283
8.86460000 0.999990 68.700 0.002732 -41.01 0.002732 -41.01 0.999989 29.278
8.86480000 0.999990 68.694 0.002732 -41.01 0.002732 -41.01 0.999989 29.273
8.86500000 0.999990 68.688 0.002732 -41.02 0.002732 -41.02 0.999989 29.268
8.86520000 0.999990 68.682 0.002732 -41.03 0.002732 -41.03 0.999989 29.263
8.86540000 0.999990 68.676 0.002732 -41.03 0.002732 -41.03 0.999989 29.259
8.86560000 0.999990 68.670 0.002732 -41.04 0.002732 -41.04 0.999989 29.254
8.86580000 0.999990 68.664 0.002732 -41.04 0.002732 -41.04 0.999989 29.249
8.86600000 0.999990 68.658 0.002732 -41.05 0.002732 -41.05 0.999989 29.244
8.86620000 0.999990 68.652 0.002732 -41.05 0.002732 -41.05 0.999989 29.239
8.86640000 0.999990 68.646 0.002732 -41.06 0.002732 -41.06 0.999989 29.234
8.86660000 0.999990 68.640 0.002732 -41.06 0.002732 -41.06 0.999989 29.229
8.86680000 0.999990 68.634 0.002732 -41.07 0.002732 -41.07 0.999989 29.224
8.86700000 0.999990 68.628 0.002732 -41.08 0.002732 -41.08 0.999989 29.219
8.86720000 0.999990 68.622 0.002732 -41.08 0.002732 -41.08 0.999989 29.214
8.86740000 0.999990 68.616 0.002732 -41.09 0.002732 -41.09 0.999989 29.209
8.86760000 0.999990 68.610 0.002732 -41.09 0.002732 -41.09 0.999989 29.204
8.86780000 0.999990 68.604 0.002732 -41.10 0.002732 -41.10 0.999989 29.199
8.86800000 0.999990 68.598 0.002732 -41.10 0.002732 -41.10 0.999988 29.194
8.86820000 0.999990 68.592 0.002732 -41.11 0.002732 -41.11 0.999988 29.188
8.86840000 0.999990 68.586 0.002732 -41.11 0.002732 -41.11 0.999988 29.183
8.86860000 0.999990 68.580 0.002732 -41.12 0.002732 -41.12 0.999988 29.178
8.86880000 0.999990 68.574 0.002732 -41.13 0.002732 -41.13 0.999988 29.173
8.86900000 0.999990 68.568 0.002732 -41.13 0.002732 -41.13 0.999988 29.168
8.86920000 0.999990 68.562 0.002732 -41.14 0.002732 -41.14 0.999988 29.163
8.86940000 0.999990 68.556 0.002732 -41.14 0.002732 -41.14 0.999988 29.157
8.86960000 0.999990 68.550 0.002732 -41.15 0.002732 -41.15 0.999988 29.152
8.86980000 0.999990 68.544 0.002732 -41.15 0.002732 -41.15 0.999988 29.147
8.87000000 0.999990 68.538 0.002732 -41.16 0.002732 -41.16 0.999988 29.141
8.87020000 0.999990 68.532 0.002732 -41.16 0.002732 -41.16 0.999988 29.136
8.87040000 0.999990 68.526 0.002732 -41.17 0.002732 -41.17 0.999988 29.131
8.87060000 0.999990 68.520 0.002732 -41.18 0.002732 -41.18 0.999988 29.125
8.87080000 0.999990 68.514 0.002732 -41.18 0.002732 -41.18 0.999988 29.120
8.87100000 0.999990 68.508 0.002732 -41.19 0.002732 -41.19 0.999988 29.115
8.87120000 0.999990 68.502 0.002732 -41.19 0.002732 -41.19 0.999988 29.109
8.87140000 0.999990 68.496 0.002732 -41.20 0.002732 -41.20 0.999988 29.104
8.87160000 0.999990 68.490 0.002732 -41.20 0.002732 -41.20 0.999988 29.098
8.87180000 0.999990 68.484 0.002732 -41.21 0.002732 -41.21 0.999988 29.093
8.87200000 0.999990 68.478 0.002732 -41.22 0.002732 -41.22 0.999988 29.087
8.87220000 0.999990 68.472 0.002732 -41.22 0.002732 -41.22 0.999988 29.082
8.87240000 0.999990 68.466 0.002731 -41.23 0.002731 -41.23 0.999988 29.076
8.87260000 0.999990 68.460 0.002731 -41.23 0.002731 -41.23 0.999988 29.071
8.87280000 0.999990 68.454 0.002731 -41.24 0.002731 -41.24 0.999988 29.065
8.87300000 0.999990 68.448 0.002731 -41.24 0.002731 -41.24 0.999988 29.059
8.87320000 0.999990 68.442 0.002731 -41.25 0.002731 -41.25 0.999987 29.054
8.87340000 0.999990 68.436 0.002731 -41.26 0.002731 -41.26 0.999987 29.048
8.87360000 0.999990 68.430 0.002731 -41.26 0.002731 -41.26 0.999987 29.042
8.87380000 0.999990 68.424 0.002731 -41.27 0.002731 -41.27 0.999987 29.036
8.87400000 0.999990 68.418 0.002731 -41.27 0.002731 -41.27 0.999987 29.031
8.87420000 0.999990 68.412 0.002731 -41.28 0.002731 -41.28 0.999987 29.025
8.87440000 0.999990 68.406 0.002731 -41.29 0.002731 -41.29 0.999987 29.019
8.87460000 0.999990 68.400 0.002731 -41.29 0.002731 -41.29 0.999987 29.013
8.87480000 0.999990 68.394 0.002731 -41.30 0.002731 -41.30 0.999987 29.007
8.87500000 0.999990 68.388 0.002730 -41.30 0.002730 -41.30 0.999987 29.001
8.87520000 0.999990 68.382 0.002730 -41.31 0.002730 -41.31 0.999987 28.995
8.87540000 0.999990 68.376 0.002730 -41.32 0.002730 -41.32 0.999987 28.989
8.87560000 0.999990 68.370 0.002730 -41.32 0.002730 -41.32 0.999987 28.983
8.87580000 0.999990 68.364 0.002730 -41.33 0.002730 -41.33 0.999987 28.977
8.87600000 0.999990 68.358 0.002730 -41.33 0.002730 -41.33 0.999987 28.971
8.87620000 0.999990 68.352 0.002730 -41.34 0.002730 -41.34 0.999987 28.965
8.87640000 0.999990 68.346 0.002730 -41.35 0.002730 -41.35 0.999987 28.959
8.87660000 0.999990 68.340 0.002730 -41.35 0.002730 -41.35 0.999986 28.952
8.87680000 0.999990 68.334 0.002729 -41.36 0.002729 -41.36 0.999986 28.946
8.87690163 0.999990 68.331 0.002729 -41.36 0.002729 -41.36 0.999986 28.943
8.87700000 0.999990 68.328 0.002729 -41.36 0.002729 -41.36 0.999986 28.940
8.87720000 0.999990 68.322 0.002729 -41.37 0.002729 -41.37 0.999986 28.934
8.87740000 0.999990 68.316 0.002729 -41.38 0.002729 -41.38 0.999986 28.927
8.87758718 0.999990 68.311 0.002729 -41.38 0.002729 -41.38 0.999986 28.921
8.87760000 0.999990 68.310 0.002729 -41.38 0.002729 -41.38 0.999986 28.921
8.87780000 0.999990 68.304 0.002729 -41.39 0.002729 -41.39 0.999986 28.914