! Sonnet Data File
! From: emgraph Version : 16.52
! From Project: Resonator2
! Data is De-embedded 
! Data File Written: 10/05/2017 13:36:36
!< HDATE 10/05/2017 10:48:01
!< MDATE 10/05/2017 10:48:01
!< PARAMS
!< gap = 16.0
!< Length = 400.0
!< Pwid1 = 2000.0
!< Pwid2 = 2000.0
!< END PARAMS
# GHZ S MA R 50.00000
8.80000000 0.999977 68.638 0.005793 144.22 0.005793 144.22 0.999975 39.820
!< P1 F=8.8 Eeff=(6.44679989 -2.9721e-5) Z0=(51.7992624 1.19519e-4) R=0.0 C=0.0 
!< P2 F=8.8 Eeff=(5.36817953 -2.3731e-5) Z0=(35.9853883 8.0522e-5) R=0.0 C=0.0 
8.80020000 0.999976 68.632 0.005799 144.22 0.005799 144.22 0.999975 39.815
8.80040000 0.999976 68.626 0.005806 144.21 0.005806 144.21 0.999975 39.809
8.80060000 0.999976 68.620 0.005812 144.21 0.005812 144.21 0.999975 39.803
8.80080000 0.999976 68.614 0.005819 144.20 0.005819 144.20 0.999975 39.798
8.80100000 0.999976 68.608 0.005825 144.19 0.005825 144.19 0.999975 39.792
8.80120000 0.999976 68.602 0.005832 144.19 0.005832 144.19 0.999975 39.786
8.80140000 0.999976 68.595 0.005838 144.18 0.005838 144.18 0.999975 39.781
8.80160000 0.999976 68.589 0.005845 144.18 0.005845 144.18 0.999975 39.775
8.80180000 0.999976 68.583 0.005852 144.17 0.005852 144.17 0.999975 39.769
8.80200000 0.999976 68.577 0.005858 144.16 0.005858 144.16 0.999974 39.763
8.80220000 0.999976 68.571 0.005865 144.16 0.005865 144.16 0.999974 39.758
8.80240000 0.999976 68.565 0.005872 144.15 0.005872 144.15 0.999974 39.752
8.80260000 0.999976 68.559 0.005879 144.15 0.005879 144.15 0.999974 39.746
8.80280000 0.999976 68.553 0.005885 144.14 0.005885 144.14 0.999974 39.741
8.80300000 0.999976 68.547 0.005892 144.13 0.005892 144.13 0.999974 39.735
8.80320000 0.999976 68.541 0.005899 144.13 0.005899 144.13 0.999974 39.729
8.80340000 0.999976 68.535 0.005906 144.12 0.005906 144.12 0.999974 39.723
8.80360000 0.999976 68.529 0.005913 144.12 0.005913 144.12 0.999974 39.717
8.80380000 0.999976 68.523 0.005920 144.11 0.005920 144.11 0.999974 39.712
8.80400000 0.999976 68.517 0.005927 144.10 0.005927 144.10 0.999974 39.706
8.80420000 0.999976 68.511 0.005934 144.10 0.005934 144.10 0.999974 39.700
8.80440000 0.999976 68.505 0.005941 144.09 0.005941 144.09 0.999974 39.694
8.80460000 0.999976 68.499 0.005948 144.09 0.005948 144.09 0.999974 39.689
8.80480000 0.999976 68.493 0.005955 144.08 0.005955 144.08 0.999974 39.683
8.80500000 0.999976 68.487 0.005962 144.07 0.005962 144.07 0.999974 39.677
8.80520000 0.999976 68.480 0.005969 144.07 0.005969 144.07 0.999974 39.671
8.80540000 0.999976 68.474 0.005977 144.06 0.005977 144.06 0.999974 39.665
8.80560000 0.999975 68.468 0.005984 144.06 0.005984 144.06 0.999974 39.660
8.80580000 0.999975 68.462 0.005991 144.05 0.005991 144.05 0.999973 39.654
8.80600000 0.999975 68.456 0.005998 144.04 0.005998 144.04 0.999973 39.648
8.80620000 0.999975 68.450 0.006006 144.04 0.006006 144.04 0.999973 39.642
8.80640000 0.999975 68.444 0.006013 144.03 0.006013 144.03 0.999973 39.636
8.80660000 0.999975 68.438 0.006020 144.03 0.006020 144.03 0.999973 39.630
8.80680000 0.999975 68.432 0.006028 144.02 0.006028 144.02 0.999973 39.625
8.80700000 0.999975 68.426 0.006035 144.01 0.006035 144.01 0.999973 39.619
8.80720000 0.999975 68.420 0.006043 144.01 0.006043 144.01 0.999973 39.613
8.80740000 0.999975 68.414 0.006050 144.00 0.006050 144.00 0.999973 39.607
8.80760000 0.999975 68.408 0.006058 144.00 0.006058 144.00 0.999973 39.601
8.80780000 0.999975 68.402 0.006065 143.99 0.006065 143.99 0.999973 39.595
8.80800000 0.999975 68.396 0.006073 143.98 0.006073 143.98 0.999973 39.589
8.80820000 0.999975 68.390 0.006081 143.98 0.006081 143.98 0.999973 39.583
8.80840000 0.999975 68.383 0.006088 143.97 0.006088 143.97 0.999973 39.577
8.80860000 0.999975 68.377 0.006096 143.97 0.006096 143.97 0.999973 39.572
8.80880000 0.999975 68.371 0.006104 143.96 0.006104 143.96 0.999973 39.566
8.80900000 0.999975 68.365 0.006112 143.95 0.006112 143.95 0.999973 39.560
8.80920000 0.999975 68.359 0.006120 143.95 0.006120 143.95 0.999972 39.554
8.80940000 0.999975 68.353 0.006127 143.94 0.006127 143.94 0.999972 39.548
8.80960000 0.999975 68.347 0.006135 143.94 0.006135 143.94 0.999972 39.542
8.80980000 0.999975 68.341 0.006143 143.93 0.006143 143.93 0.999972 39.536
8.81000000 0.999975 68.335 0.006151 143.92 0.006151 143.92 0.999972 39.530
8.81020000 0.999974 68.329 0.006159 143.92 0.006159 143.92 0.999972 39.524
8.81040000 0.999974 68.323 0.006167 143.91 0.006167 143.91 0.999972 39.518
8.81060000 0.999974 68.317 0.006175 143.91 0.006175 143.91 0.999972 39.512
8.81080000 0.999974 68.311 0.006183 143.90 0.006183 143.90 0.999972 39.506
8.81100000 0.999974 68.305 0.006192 143.89 0.006192 143.89 0.999972 39.500
8.81120000 0.999974 68.298 0.006200 143.89 0.006200 143.89 0.999972 39.494
8.81140000 0.999974 68.292 0.006208 143.88 0.006208 143.88 0.999972 39.488
8.81160000 0.999974 68.286 0.006216 143.88 0.006216 143.88 0.999972 39.482
8.81180000 0.999974 68.280 0.006225 143.87 0.006225 143.87 0.999972 39.476
8.81200000 0.999974 68.274 0.006233 143.86 0.006233 143.86 0.999972 39.470
8.81220000 0.999974 68.268 0.006241 143.86 0.006241 143.86 0.999972 39.464
8.81240000 0.999974 68.262 0.006250 143.85 0.006250 143.85 0.999971 39.458
8.81260000 0.999974 68.256 0.006258 143.85 0.006258 143.85 0.999971 39.452
8.81280000 0.999974 68.250 0.006267 143.84 0.006267 143.84 0.999971 39.446
8.81300000 0.999974 68.244 0.006275 143.83 0.006275 143.83 0.999971 39.440
8.81320000 0.999974 68.238 0.006284 143.83 0.006284 143.83 0.999971 39.434
8.81340000 0.999974 68.232 0.006292 143.82 0.006292 143.82 0.999971 39.428
8.81360000 0.999974 68.226 0.006301 143.82 0.006301 143.82 0.999971 39.421
8.81380000 0.999974 68.219 0.006310 143.81 0.006310 143.81 0.999971 39.415
8.81400000 0.999974 68.213 0.006319 143.80 0.006319 143.80 0.999971 39.409
8.81420000 0.999973 68.207 0.006327 143.80 0.006327 143.80 0.999971 39.403
8.81440000 0.999973 68.201 0.006336 143.79 0.006336 143.79 0.999971 39.397
8.81460000 0.999973 68.195 0.006345 143.78 0.006345 143.78 0.999971 39.391
8.81480000 0.999973 68.189 0.006354 143.78 0.006354 143.78 0.999971 39.385
8.81500000 0.999973 68.183 0.006363 143.77 0.006363 143.77 0.999971 39.379
8.81520000 0.999973 68.177 0.006372 143.77 0.006372 143.77 0.999970 39.372
8.81540000 0.999973 68.171 0.006381 143.76 0.006381 143.76 0.999970 39.366
8.81560000 0.999973 68.165 0.006390 143.75 0.006390 143.75 0.999970 39.360
8.81580000 0.999973 68.159 0.006399 143.75 0.006399 143.75 0.999970 39.354
8.81600000 0.999973 68.152 0.006408 143.74 0.006408 143.74 0.999970 39.348
8.81620000 0.999973 68.146 0.006418 143.74 0.006418 143.74 0.999970 39.342
8.81640000 0.999973 68.140 0.006427 143.73 0.006427 143.73 0.999970 39.335
8.81660000 0.999973 68.134 0.006436 143.72 0.006436 143.72 0.999970 39.329
8.81680000 0.999973 68.128 0.006446 143.72 0.006446 143.72 0.999970 39.323
8.81700000 0.999973 68.122 0.006455 143.71 0.006455 143.71 0.999970 39.317
8.81720000 0.999973 68.116 0.006464 143.70 0.006464 143.70 0.999970 39.310
8.81740000 0.999973 68.110 0.006474 143.70 0.006474 143.70 0.999970 39.304
8.81760000 0.999972 68.104 0.006483 143.69 0.006483 143.69 0.999970 39.298
8.81780000 0.999972 68.098 0.006493 143.69 0.006493 143.69 0.999969 39.292
8.81800000 0.999972 68.091 0.006503 143.68 0.006503 143.68 0.999969 39.285
8.81820000 0.999972 68.085 0.006512 143.67 0.006512 143.67 0.999969 39.279
8.81840000 0.999972 68.079 0.006522 143.67 0.006522 143.67 0.999969 39.273
8.81860000 0.999972 68.073 0.006532 143.66 0.006532 143.66 0.999969 39.267
8.81880000 0.999972 68.067 0.006542 143.65 0.006542 143.65 0.999969 39.260
8.81900000 0.999972 68.061 0.006552 143.65 0.006552 143.65 0.999969 39.254
8.81920000 0.999972 68.055 0.006562 143.64 0.006562 143.64 0.999969 39.248
8.81940000 0.999972 68.049 0.006572 143.64 0.006572 143.64 0.999969 39.241
8.81960000 0.999972 68.043 0.006582 143.63 0.006582 143.63 0.999969 39.235
8.81980000 0.999972 68.037 0.006592 143.62 0.006592 143.62 0.999969 39.229
8.82000000 0.999972 68.030 0.006602 143.62 0.006602 143.62 0.999969 39.222
8.82020000 0.999972 68.024 0.006612 143.61 0.006612 143.61 0.999968 39.216
8.82040000 0.999972 68.018 0.006622 143.60 0.006622 143.60 0.999968 39.209
8.82060000 0.999972 68.012 0.006632 143.60 0.006632 143.60 0.999968 39.203
8.82080000 0.999971 68.006 0.006643 143.59 0.006643 143.59 0.999968 39.197
8.82100000 0.999971 68.000 0.006653 143.59 0.006653 143.59 0.999968 39.190
8.82120000 0.999971 67.994 0.006664 143.58 0.006664 143.58 0.999968 39.184
8.82140000 0.999971 67.988 0.006674 143.57 0.006674 143.57 0.999968 39.177
8.82160000 0.999971 67.982 0.006685 143.57 0.006685 143.57 0.999968 39.171
8.82180000 0.999971 67.975 0.006695 143.56 0.006695 143.56 0.999968 39.164
8.82200000 0.999971 67.969 0.006706 143.55 0.006706 143.55 0.999968 39.158
8.82220000 0.999971 67.963 0.006717 143.55 0.006717 143.55 0.999968 39.151
8.82240000 0.999971 67.957 0.006728 143.54 0.006728 143.54 0.999967 39.145
8.82260000 0.999971 67.951 0.006738 143.53 0.006738 143.53 0.999967 39.138
8.82280000 0.999971 67.945 0.006749 143.53 0.006749 143.53 0.999967 39.132
8.82300000 0.999971 67.939 0.006760 143.52 0.006760 143.52 0.999967 39.125
8.82320000 0.999971 67.933 0.006771 143.52 0.006771 143.52 0.999967 39.119
8.82340000 0.999971 67.926 0.006782 143.51 0.006782 143.51 0.999967 39.112
8.82360000 0.999970 67.920 0.006793 143.50 0.006793 143.50 0.999967 39.106
8.82380000 0.999970 67.914 0.006805 143.50 0.006805 143.50 0.999967 39.099
8.82400000 0.999970 67.908 0.006816 143.49 0.006816 143.49 0.999967 39.093
8.82420000 0.999970 67.902 0.006827 143.48 0.006827 143.48 0.999967 39.086
8.82440000 0.999970 67.896 0.006839 143.48 0.006839 143.48 0.999967 39.079
8.82460000 0.999970 67.890 0.006850 143.47 0.006850 143.47 0.999966 39.073
8.82480000 0.999970 67.884 0.006861 143.46 0.006861 143.46 0.999966 39.066
8.82500000 0.999970 67.877 0.006873 143.46 0.006873 143.46 0.999966 39.060
8.82520000 0.999970 67.871 0.006885 143.45 0.006885 143.45 0.999966 39.053
8.82540000 0.999970 67.865 0.006896 143.45 0.006896 143.45 0.999966 39.046
8.82560000 0.999970 67.859 0.006908 143.44 0.006908 143.44 0.999966 39.040
8.82580000 0.999970 67.853 0.006920 143.43 0.006920 143.43 0.999966 39.033
8.82600000 0.999969 67.847 0.006932 143.43 0.006932 143.43 0.999966 39.026
8.82620000 0.999969 67.841 0.006944 143.42 0.006944 143.42 0.999966 39.019
8.82640000 0.999969 67.835 0.006956 143.41 0.006956 143.41 0.999966 39.013
8.82660000 0.999969 67.828 0.006968 143.41 0.006968 143.41 0.999965 39.006
8.82680000 0.999969 67.822 0.006980 143.40 0.006980 143.40 0.999965 38.999
8.82700000 0.999969 67.816 0.006992 143.39 0.006992 143.39 0.999965 38.993
8.82720000 0.999969 67.810 0.007004 143.39 0.007004 143.39 0.999965 38.986
8.82740000 0.999969 67.804 0.007017 143.38 0.007017 143.38 0.999965 38.979
8.82760000 0.999969 67.798 0.007029 143.37 0.007029 143.37 0.999965 38.972
8.82780000 0.999969 67.792 0.007042 143.37 0.007042 143.37 0.999965 38.965
8.82800000 0.999969 67.785 0.007054 143.36 0.007054 143.36 0.999965 38.959
8.82820000 0.999969 67.779 0.007067 143.35 0.007067 143.35 0.999965 38.952
8.82840000 0.999968 67.773 0.007079 143.35 0.007079 143.35 0.999964 38.945
8.82860000 0.999968 67.767 0.007092 143.34 0.007092 143.34 0.999964 38.938
8.82880000 0.999968 67.761 0.007105 143.33 0.007105 143.33 0.999964 38.931
8.82900000 0.999968 67.755 0.007118 143.33 0.007118 143.33 0.999964 38.924
8.82920000 0.999968 67.748 0.007131 143.32 0.007131 143.32 0.999964 38.917
8.82940000 0.999968 67.742 0.007144 143.32 0.007144 143.32 0.999964 38.910
8.82960000 0.999968 67.736 0.007157 143.31 0.007157 143.31 0.999964 38.903
8.82980000 0.999968 67.730 0.007170 143.30 0.007170 143.30 0.999964 38.896
8.83000000 0.999968 67.724 0.007184 143.30 0.007184 143.30 0.999963 38.890
8.83020000 0.999968 67.718 0.007197 143.29 0.007197 143.29 0.999963 38.883
8.83040000 0.999967 67.711 0.007210 143.28 0.007210 143.28 0.999963 38.876
8.83060000 0.999967 67.705 0.007224 143.28 0.007224 143.28 0.999963 38.869
8.83080000 0.999967 67.699 0.007237 143.27 0.007237 143.27 0.999963 38.862
8.83100000 0.999967 67.693 0.007251 143.26 0.007251 143.26 0.999963 38.854
8.83120000 0.999967 67.687 0.007265 143.26 0.007265 143.26 0.999963 38.847
8.83140000 0.999967 67.681 0.007279 143.25 0.007279 143.25 0.999963 38.840
8.83160000 0.999967 67.674 0.007293 143.24 0.007293 143.24 0.999962 38.833
8.83180000 0.999967 67.668 0.007307 143.24 0.007307 143.24 0.999962 38.826
8.83200000 0.999967 67.662 0.007321 143.23 0.007321 143.23 0.999962 38.819
8.83220000 0.999967 67.656 0.007335 143.22 0.007335 143.22 0.999962 38.812
8.83240000 0.999966 67.650 0.007349 143.22 0.007349 143.22 0.999962 38.805
8.83260000 0.999966 67.644 0.007363 143.21 0.007363 143.21 0.999962 38.798
8.83280000 0.999966 67.637 0.007378 143.20 0.007378 143.20 0.999962 38.790
8.83300000 0.999966 67.631 0.007392 143.20 0.007392 143.20 0.999962 38.783
8.83320000 0.999966 67.625 0.007407 143.19 0.007407 143.19 0.999961 38.776
8.83340000 0.999966 67.619 0.007422 143.18 0.007422 143.18 0.999961 38.769
8.83360000 0.999966 67.613 0.007436 143.18 0.007436 143.18 0.999961 38.762
8.83380000 0.999966 67.607 0.007451 143.17 0.007451 143.17 0.999961 38.754
8.83400000 0.999966 67.600 0.007466 143.16 0.007466 143.16 0.999961 38.747
8.83420000 0.999965 67.594 0.007481 143.15 0.007481 143.15 0.999961 38.740
8.83440000 0.999965 67.588 0.007496 143.15 0.007496 143.15 0.999961 38.732
8.83460000 0.999965 67.582 0.007512 143.14 0.007512 143.14 0.999960 38.725
8.83480000 0.999965 67.576 0.007527 143.13 0.007527 143.13 0.999960 38.718
8.83500000 0.999965 67.569 0.007542 143.13 0.007542 143.13 0.999960 38.710
8.83520000 0.999965 67.563 0.007558 143.12 0.007558 143.12 0.999960 38.703
8.83540000 0.999965 67.557 0.007574 143.11 0.007574 143.11 0.999960 38.696
8.83560000 0.999965 67.551 0.007589 143.11 0.007589 143.11 0.999960 38.688
8.83580000 0.999964 67.545 0.007605 143.10 0.007605 143.10 0.999959 38.681
8.83600000 0.999964 67.538 0.007621 143.09 0.007621 143.09 0.999959 38.673
8.83620000 0.999964 67.532 0.007637 143.09 0.007637 143.09 0.999959 38.666
8.83640000 0.999964 67.526 0.007653 143.08 0.007653 143.08 0.999959 38.658
8.83660000 0.999964 67.520 0.007669 143.07 0.007669 143.07 0.999959 38.651
8.83680000 0.999964 67.514 0.007686 143.07 0.007686 143.07 0.999959 38.643
8.83700000 0.999964 67.507 0.007702 143.06 0.007702 143.06 0.999959 38.636
8.83720000 0.999964 67.501 0.007719 143.05 0.007719 143.05 0.999958 38.628
8.83740000 0.999963 67.495 0.007735 143.04 0.007735 143.04 0.999958 38.620
8.83760000 0.999963 67.489 0.007752 143.04 0.007752 143.04 0.999958 38.613
8.83780000 0.999963 67.482 0.007769 143.03 0.007769 143.03 0.999958 38.605
8.83800000 0.999963 67.476 0.007786 143.02 0.007786 143.02 0.999958 38.598
8.83820000 0.999963 67.470 0.007803 143.02 0.007803 143.02 0.999958 38.590
8.83840000 0.999963 67.464 0.007820 143.01 0.007820 143.01 0.999957 38.582
8.83860000 0.999963 67.458 0.007837 143.00 0.007837 143.00 0.999957 38.574
8.83880000 0.999963 67.451 0.007855 143.00 0.007855 143.00 0.999957 38.567
8.83900000 0.999962 67.445 0.007872 142.99 0.007872 142.99 0.999957 38.559
8.83920000 0.999962 67.439 0.007890 142.98 0.007890 142.98 0.999957 38.551
8.83940000 0.999962 67.433 0.007908 142.97 0.007908 142.97 0.999956 38.543
8.83960000 0.999962 67.426 0.007926 142.97 0.007926 142.97 0.999956 38.536
8.83980000 0.999962 67.420 0.007944 142.96 0.007944 142.96 0.999956 38.528
8.84000000 0.999962 67.414 0.007962 142.95 0.007962 142.95 0.999956 38.520
8.84020000 0.999961 67.408 0.007980 142.95 0.007980 142.95 0.999956 38.512
8.84040000 0.999961 67.401 0.007998 142.94 0.007998 142.94 0.999956 38.504
8.84060000 0.999961 67.395 0.008017 142.93 0.008017 142.93 0.999955 38.496
8.84080000 0.999961 67.389 0.008035 142.92 0.008035 142.92 0.999955 38.488
8.84100000 0.999961 67.383 0.008054 142.92 0.008054 142.92 0.999955 38.480
8.84120000 0.999961 67.376 0.008073 142.91 0.008073 142.91 0.999955 38.472
8.84140000 0.999961 67.370 0.008092 142.90 0.008092 142.90 0.999955 38.464
8.84160000 0.999960 67.364 0.008111 142.90 0.008111 142.90 0.999954 38.456
8.84180000 0.999960 67.358 0.008130 142.89 0.008130 142.89 0.999954 38.448
8.84200000 0.999960 67.351 0.008150 142.88 0.008150 142.88 0.999954 38.440
8.84220000 0.999960 67.345 0.008169 142.87 0.008169 142.87 0.999954 38.432
8.84240000 0.999960 67.339 0.008189 142.87 0.008189 142.87 0.999954 38.423
8.84260000 0.999960 67.332 0.008209 142.86 0.008209 142.86 0.999953 38.415
8.84280000 0.999959 67.326 0.008229 142.85 0.008229 142.85 0.999953 38.407
8.84300000 0.999959 67.320 0.008249 142.84 0.008249 142.84 0.999953 38.399
8.84320000 0.999959 67.314 0.008269 142.84 0.008269 142.84 0.999953 38.391
8.84340000 0.999959 67.307 0.008289 142.83 0.008289 142.83 0.999952 38.382
8.84360000 0.999959 67.301 0.008310 142.82 0.008310 142.82 0.999952 38.374
8.84380000 0.999959 67.295 0.008330 142.82 0.008330 142.82 0.999952 38.366
8.84400000 0.999958 67.289 0.008351 142.81 0.008351 142.81 0.999952 38.357
8.84420000 0.999958 67.282 0.008372 142.80 0.008372 142.80 0.999952 38.349
8.84440000 0.999958 67.276 0.008393 142.79 0.008393 142.79 0.999951 38.340
8.84460000 0.999958 67.270 0.008414 142.79 0.008414 142.79 0.999951 38.332
8.84480000 0.999958 67.263 0.008436 142.78 0.008436 142.78 0.999951 38.323
8.84500000 0.999957 67.257 0.008457 142.77 0.008457 142.77 0.999951 38.315
8.84520000 0.999957 67.251 0.008479 142.76 0.008479 142.76 0.999950 38.306
8.84540000 0.999957 67.244 0.008501 142.76 0.008501 142.76 0.999950 38.298
8.84560000 0.999957 67.238 0.008523 142.75 0.008523 142.75 0.999950 38.289
8.84580000 0.999957 67.232 0.008545 142.74 0.008545 142.74 0.999950 38.280
8.84600000 0.999956 67.225 0.008568 142.73 0.008568 142.73 0.999949 38.272
8.84620000 0.999956 67.219 0.008590 142.73 0.008590 142.73 0.999949 38.263
8.84640000 0.999956 67.213 0.008613 142.72 0.008613 142.72 0.999949 38.254
8.84660000 0.999956 67.207 0.008636 142.71 0.008636 142.71 0.999949 38.246
8.84680000 0.999956 67.200 0.008659 142.70 0.008659 142.70 0.999948 38.237
8.84700000 0.999955 67.194 0.008682 142.69 0.008682 142.69 0.999948 38.228
8.84720000 0.999955 67.188 0.008705 142.69 0.008705 142.69 0.999948 38.219
8.84740000 0.999955 67.181 0.008729 142.68 0.008729 142.68 0.999948 38.210
8.84760000 0.999955 67.175 0.008753 142.67 0.008753 142.67 0.999947 38.201
8.84780000 0.999955 67.168 0.008777 142.66 0.008777 142.66 0.999947 38.192
8.84800000 0.999954 67.162 0.008801 142.66 0.008801 142.66 0.999947 38.183
8.84820000 0.999954 67.156 0.008825 142.65 0.008825 142.65 0.999947 38.174
8.84840000 0.999954 67.149 0.008850 142.64 0.008850 142.64 0.999946 38.165
8.84860000 0.999954 67.143 0.008874 142.63 0.008874 142.63 0.999946 38.156
8.84880000 0.999954 67.137 0.008899 142.63 0.008899 142.63 0.999946 38.147
8.84900000 0.999953 67.130 0.008924 142.62 0.008924 142.62 0.999945 38.138
8.84920000 0.999953 67.124 0.008950 142.61 0.008950 142.61 0.999945 38.128
8.84940000 0.999953 67.118 0.008975 142.60 0.008975 142.60 0.999945 38.119
8.84960000 0.999953 67.111 0.009001 142.59 0.009001 142.59 0.999945 38.110
8.84980000 0.999952 67.105 0.009027 142.59 0.009027 142.59 0.999944 38.101
8.85000000 0.999952 67.099 0.009053 142.58 0.009053 142.58 0.999944 38.091
8.85020000 0.999952 67.092 0.009079 142.57 0.009079 142.57 0.999944 38.082
8.85040000 0.999952 67.086 0.009105 142.56 0.009105 142.56 0.999943 38.072
8.85060000 0.999951 67.079 0.009132 142.55 0.009132 142.55 0.999943 38.063
8.85080000 0.999951 67.073 0.009159 142.55 0.009159 142.55 0.999943 38.053
8.85100000 0.999951 67.067 0.009186 142.54 0.009186 142.54 0.999942 38.044
8.85120000 0.999951 67.060 0.009214 142.53 0.009214 142.53 0.999942 38.034
8.85140000 0.999950 67.054 0.009241 142.52 0.009241 142.52 0.999942 38.024
8.85160000 0.999950 67.047 0.009269 142.51 0.009269 142.51 0.999941 38.015
8.85180000 0.999950 67.041 0.009297 142.50 0.009297 142.50 0.999941 38.005
8.85200000 0.999950 67.034 0.009325 142.50 0.009325 142.50 0.999941 37.995
8.85220000 0.999949 67.028 0.009354 142.49 0.009354 142.49 0.999940 37.985
8.85240000 0.999949 67.022 0.009383 142.48 0.009383 142.48 0.999940 37.975
8.85260000 0.999949 67.015 0.009412 142.47 0.009412 142.47 0.999940 37.966
8.85280000 0.999948 67.009 0.009441 142.46 0.009441 142.46 0.999939 37.956
8.85300000 0.999948 67.002 0.009470 142.46 0.009470 142.46 0.999939 37.946
8.85320000 0.999948 66.996 0.009500 142.45 0.009500 142.45 0.999939 37.935
8.85340000 0.999948 66.989 0.009530 142.44 0.009530 142.44 0.999938 37.925
8.85360000 0.999947 66.983 0.009560 142.43 0.009560 142.43 0.999938 37.915
8.85380000 0.999947 66.977 0.009591 142.42 0.009591 142.42 0.999937 37.905
8.85400000 0.999947 66.970 0.009622 142.41 0.009622 142.41 0.999937 37.895
8.85420000 0.999946 66.964 0.009653 142.40 0.009653 142.40 0.999937 37.884
8.85440000 0.999946 66.957 0.009684 142.40 0.009684 142.40 0.999936 37.874
8.85460000 0.999946 66.951 0.009716 142.39 0.009716 142.39 0.999936 37.864
8.85480000 0.999945 66.944 0.009748 142.38 0.009748 142.38 0.999935 37.853
8.85500000 0.999945 66.938 0.009780 142.37 0.009780 142.37 0.999935 37.843
8.85520000 0.999945 66.931 0.009812 142.36 0.009812 142.36 0.999935 37.832
8.85540000 0.999944 66.925 0.009845 142.35 0.009845 142.35 0.999934 37.821
8.85560000 0.999944 66.918 0.009878 142.34 0.009878 142.34 0.999934 37.811
8.85580000 0.999944 66.912 0.009911 142.34 0.009911 142.34 0.999933 37.800
8.85600000 0.999943 66.905 0.009945 142.33 0.009945 142.33 0.999933 37.789
8.85620000 0.999943 66.899 0.009979 142.32 0.009979 142.32 0.999932 37.778
8.85640000 0.999943 66.892 0.010013 142.31 0.010013 142.31 0.999932 37.767
8.85660000 0.999942 66.886 0.010048 142.30 0.010048 142.30 0.999932 37.756
8.85680000 0.999942 66.879 0.010083 142.29 0.010083 142.29 0.999931 37.745
8.85700000 0.999942 66.873 0.010118 142.28 0.010118 142.28 0.999931 37.734
8.85720000 0.999941 66.866 0.010154 142.27 0.010154 142.27 0.999930 37.723
8.85740000 0.999941 66.859 0.010189 142.26 0.010189 142.26 0.999930 37.712
8.85760000 0.999940 66.853 0.010226 142.26 0.010226 142.26 0.999929 37.701
8.85780000 0.999940 66.846 0.010262 142.25 0.010262 142.25 0.999929 37.689
8.85800000 0.999940 66.840 0.010299 142.24 0.010299 142.24 0.999928 37.678
8.85820000 0.999939 66.833 0.010336 142.23 0.010336 142.23 0.999928 37.666
8.85840000 0.999939 66.827 0.010374 142.22 0.010374 142.22 0.999927 37.655
8.85860000 0.999938 66.820 0.010412 142.21 0.010412 142.21 0.999927 37.643
8.85880000 0.999938 66.813 0.010450 142.20 0.010450 142.20 0.999926 37.632
8.85900000 0.999938 66.807 0.010489 142.19 0.010489 142.19 0.999926 37.620
8.85920000 0.999937 66.800 0.010528 142.18 0.010528 142.18 0.999925 37.608
8.85940000 0.999937 66.794 0.010567 142.17 0.010567 142.17 0.999925 37.596
8.85960000 0.999936 66.787 0.010607 142.16 0.010607 142.16 0.999924 37.584
8.85980000 0.999936 66.780 0.010648 142.15 0.010648 142.15 0.999923 37.572
8.86000000 0.999935 66.774 0.010688 142.14 0.010688 142.14 0.999923 37.560
8.86020000 0.999935 66.767 0.010729 142.13 0.010729 142.13 0.999922 37.548
8.86040000 0.999935 66.760 0.010771 142.13 0.010771 142.13 0.999922 37.536
8.86060000 0.999934 66.754 0.010813 142.12 0.010813 142.12 0.999921 37.523
8.86080000 0.999934 66.747 0.010855 142.11 0.010855 142.11 0.999921 37.511
8.86100000 0.999933 66.740 0.010898 142.10 0.010898 142.10 0.999920 37.498
8.86120000 0.999933 66.734 0.010941 142.09 0.010941 142.09 0.999919 37.486
8.86140000 0.999932 66.727 0.010984 142.08 0.010984 142.08 0.999919 37.473
8.86160000 0.999932 66.720 0.011028 142.07 0.011028 142.07 0.999918 37.460
8.86180000 0.999931 66.714 0.011073 142.06 0.011073 142.06 0.999917 37.447
8.86200000 0.999931 66.707 0.011118 142.05 0.011118 142.05 0.999917 37.435
8.86220000 0.999930 66.700 0.011163 142.04 0.011163 142.04 0.999916 37.422
8.86240000 0.999930 66.694 0.011209 142.03 0.011209 142.03 0.999915 37.408
8.86260000 0.999929 66.687 0.011256 142.02 0.011256 142.02 0.999915 37.395
8.86280000 0.999928 66.680 0.011303 142.01 0.011303 142.01 0.999914 37.382
8.86300000 0.999928 66.673 0.011350 142.00 0.011350 142.00 0.999913 37.369
8.86320000 0.999927 66.667 0.011398 141.99 0.011398 141.99 0.999913 37.355
8.86340000 0.999927 66.660 0.011446 141.98 0.011446 141.98 0.999912 37.341
8.86360000 0.999926 66.653 0.011495 141.97 0.011495 141.97 0.999911 37.328
8.86380000 0.999926 66.646 0.011545 141.95 0.011545 141.95 0.999910 37.314
8.86400000 0.999925 66.639 0.011595 141.94 0.011595 141.94 0.999910 37.300
8.86420000 0.999924 66.633 0.011646 141.93 0.011646 141.93 0.999909 37.286
8.86440000 0.999924 66.626 0.011697 141.92 0.011697 141.92 0.999908 37.272
8.86460000 0.999923 66.619 0.011749 141.91 0.011749 141.91 0.999907 37.258
8.86480000 0.999923 66.612 0.011801 141.90 0.011801 141.90 0.999906 37.244
8.86500000 0.999922 66.605 0.011854 141.89 0.011854 141.89 0.999906 37.229
8.86520000 0.999921 66.598 0.011907 141.88 0.011907 141.88 0.999905 37.215
8.86540000 0.999921 66.592 0.011962 141.87 0.011962 141.87 0.999904 37.200
8.86560000 0.999920 66.585 0.012016 141.86 0.012016 141.86 0.999903 37.185
8.86580000 0.999919 66.578 0.012072 141.85 0.012072 141.85 0.999902 37.170
8.86600000 0.999918 66.571 0.012128 141.84 0.012128 141.84 0.999901 37.155
8.86620000 0.999918 66.564 0.012184 141.82 0.012184 141.82 0.999900 37.140
8.86640000 0.999917 66.557 0.012242 141.81 0.012242 141.81 0.999899 37.125
8.86660000 0.999916 66.550 0.012300 141.80 0.012300 141.80 0.999898 37.109
8.86680000 0.999916 66.543 0.012359 141.79 0.012359 141.79 0.999897 37.094
8.86700000 0.999915 66.536 0.012418 141.78 0.012418 141.78 0.999896 37.078
8.86720000 0.999914 66.529 0.012478 141.77 0.012478 141.77 0.999895 37.062
8.86740000 0.999913 66.522 0.012539 141.76 0.012539 141.76 0.999894 37.047
8.86760000 0.999912 66.515 0.012601 141.74 0.012601 141.74 0.999893 37.031
8.86780000 0.999912 66.508 0.012663 141.73 0.012663 141.73 0.999892 37.014
8.86800000 0.999911 66.501 0.012726 141.72 0.012726 141.72 0.999891 36.998
8.86820000 0.999910 66.494 0.012790 141.71 0.012790 141.71 0.999890 36.981
8.86840000 0.999909 66.487 0.012855 141.70 0.012855 141.70 0.999889 36.965
8.86860000 0.999908 66.480 0.012920 141.68 0.012920 141.68 0.999888 36.948
8.86880000 0.999907 66.473 0.012987 141.67 0.012987 141.67 0.999887 36.931
8.86900000 0.999906 66.466 0.013054 141.66 0.013054 141.66 0.999886 36.914
8.86920000 0.999905 66.459 0.013122 141.65 0.013122 141.65 0.999885 36.897
8.86940000 0.999905 66.452 0.013191 141.63 0.013191 141.63 0.999883 36.879
8.86960000 0.999904 66.445 0.013261 141.62 0.013261 141.62 0.999882 36.862
8.86980000 0.999903 66.437 0.013332 141.61 0.013332 141.61 0.999881 36.844
8.87000000 0.999902 66.430 0.013403 141.60 0.013403 141.60 0.999880 36.826
8.87020000 0.999901 66.423 0.013476 141.58 0.013476 141.58 0.999878 36.808
8.87040000 0.999900 66.416 0.013550 141.57 0.013550 141.57 0.999877 36.789
8.87060000 0.999899 66.409 0.013624 141.56 0.013624 141.56 0.999876 36.771
8.87069988 0.999898 66.405 0.013662 141.55 0.013662 141.55 0.999875 36.762
8.87080000 0.999897 66.401 0.013700 141.54 0.013700 141.54 0.999874 36.752
8.87100000 0.999896 66.394 0.013777 141.53 0.013777 141.53 0.999873 36.733
8.87120000 0.999895 66.387 0.013854 141.52 0.013854 141.52 0.999871 36.714
8.87138372 0.999894 66.380 0.013927 141.50 0.013927 141.50 0.999870 36.697
8.87140000 0.999894 66.380 0.013933 141.50 0.013933 141.50 0.999870 36.695
8.87160000 0.999893 66.372 0.014013 141.49 0.014013 141.49 0.999868 36.676
8.87180000 0.999892 66.365 0.014094 141.48 0.014094 141.48 0.999867 36.656
8.87200000 0.999891 66.358 0.014176 141.46 0.014176 141.46 0.999865 36.636
8.87205190 0.999890 66.356 0.014197 141.46 0.014197 141.46 0.999865 36.631
8.87220000 0.999889 66.350 0.014259 141.45 0.014259 141.45 0.999864 36.616
8.87240000 0.999888 66.343 0.014344 141.43 0.014344 141.43 0.999862 36.595
8.87260000 0.999887 66.335 0.014429 141.42 0.014429 141.42 0.999861 36.575
8.87270476 0.999886 66.331 0.014475 141.41 0.014475 141.41 0.999860 36.564
8.87280000 0.999886 66.328 0.014516 141.41 0.014516 141.41 0.999859 36.554
8.87300000 0.999884 66.320 0.014604 141.39 0.014604 141.39 0.999857 36.533
8.87320000 0.999883 66.313 0.014694 141.38 0.014694 141.38 0.999855 36.512
8.87334266 0.999882 66.308 0.014758 141.37 0.014758 141.37 0.999854 36.496
8.87340000 0.999882 66.305 0.014785 141.36 0.014785 141.36 0.999854 36.490
8.87360000 0.999880 66.298 0.014877 141.35 0.014877 141.35 0.999852 36.468
8.87380000 0.999879 66.290 0.014970 141.33 0.014970 141.33 0.999850 36.446
8.87396595 0.999877 66.284 0.015049 141.32 0.015049 141.32 0.999848 36.428
8.87400000 0.999877 66.283 0.015065 141.32 0.015065 141.32 0.999848 36.424
8.87420000 0.999876 66.275 0.015162 141.30 0.015162 141.30 0.999846 36.401
8.87440000 0.999874 66.268 0.015259 141.28 0.015259 141.28 0.999844 36.378
8.87457495 0.999873 66.261 0.015346 141.27 0.015346 141.27 0.999842 36.358
8.87460000 0.999873 66.260 0.015359 141.27 0.015359 141.27 0.999842 36.355
8.87480000 0.999871 66.252 0.015460 141.25 0.015460 141.25 0.999840 36.332
8.87500000 0.999869 66.245 0.015562 141.24 0.015562 141.24 0.999838 36.308
8.87517000 0.999868 66.238 0.015651 141.22 0.015651 141.22 0.999836 36.288
8.87520000 0.999868 66.237 0.015666 141.22 0.015666 141.22 0.999836 36.284
8.87540000 0.999866 66.229 0.015772 141.20 0.015772 141.20 0.999833 36.260
8.87560000 0.999864 66.221 0.015880 141.19 0.015880 141.19 0.999831 36.235
8.87575142 0.999863 66.215 0.015962 141.18 0.015962 141.18 0.999829 36.216
8.87580000 0.999862 66.213 0.015989 141.17 0.015989 141.17 0.999829 36.210
8.87600000 0.999861 66.206 0.016100 141.15 0.016100 141.15 0.999826 36.185
8.87620000 0.999859 66.198 0.016213 141.14 0.016213 141.14 0.999824 36.159
8.87631951 0.999858 66.193 0.016281 141.13 0.016281 141.13 0.999822 36.143
8.87640000 0.999857 66.190 0.016328 141.12 0.016328 141.12 0.999821 36.133