! Sonnet Data File
! From: emgraph Version : 16.52
! From Project: Resonator2
! Data is De-embedded 
! Data File Written: 10/06/2017 09:13:21
!< HDATE 10/05/2017 15:18:40
!< MDATE 10/05/2017 15:18:40
!< PARAMS
!< gap = 16.0
!< Length = 400.0
!< Pwid1 = 2000.0
!< Pwid2 = 2000.0
!< END PARAMS
# GHZ S MA R 50.0 !  non standard terminations in data
! TERM 51.80000 0.000000 35.97000 0.000000
8.80000000 0.999980 70.537 0.005088 139.87 0.005088 139.87 0.999981 29.209
!< P1 F=8.8 Eeff=(6.44679989 -2.9721e-5) Z0=(51.7992624 1.19519e-4) R=0.0 C=0.0 
!< P2 F=8.8 Eeff=(5.36817953 -2.3731e-5) Z0=(35.9853883 8.0522e-5) R=0.0 C=0.0 
8.80020000 0.999980 70.531 0.005094 139.86 0.005094 139.86 0.999981 29.205
8.80040000 0.999980 70.525 0.005099 139.86 0.005099 139.86 0.999981 29.200
8.80060000 0.999980 70.519 0.005105 139.85 0.005105 139.85 0.999981 29.196
8.80080000 0.999980 70.513 0.005111 139.85 0.005111 139.85 0.999981 29.192
8.80100000 0.999980 70.506 0.005116 139.84 0.005116 139.84 0.999981 29.187
8.80120000 0.999980 70.500 0.005122 139.84 0.005122 139.84 0.999981 29.183
8.80140000 0.999980 70.494 0.005128 139.83 0.005128 139.83 0.999981 29.179
8.80160000 0.999980 70.488 0.005134 139.82 0.005134 139.82 0.999980 29.174
8.80180000 0.999980 70.482 0.005140 139.82 0.005140 139.82 0.999980 29.170
8.80200000 0.999980 70.476 0.005145 139.81 0.005145 139.81 0.999980 29.166
8.80220000 0.999980 70.470 0.005151 139.81 0.005151 139.81 0.999980 29.161
8.80240000 0.999980 70.464 0.005157 139.80 0.005157 139.80 0.999980 29.157
8.80260000 0.999980 70.457 0.005163 139.80 0.005163 139.80 0.999980 29.152
8.80280000 0.999980 70.451 0.005169 139.79 0.005169 139.79 0.999980 29.148
8.80300000 0.999980 70.445 0.005175 139.79 0.005175 139.79 0.999980 29.144
8.80320000 0.999980 70.439 0.005181 139.78 0.005181 139.78 0.999980 29.139
8.80340000 0.999980 70.433 0.005187 139.78 0.005187 139.78 0.999980 29.135
8.80360000 0.999980 70.427 0.005193 139.77 0.005193 139.77 0.999980 29.131
8.80380000 0.999980 70.421 0.005199 139.77 0.005199 139.77 0.999980 29.126
8.80400000 0.999980 70.415 0.005205 139.76 0.005205 139.76 0.999980 29.122
8.80420000 0.999980 70.408 0.005211 139.76 0.005211 139.76 0.999980 29.117
8.80440000 0.999980 70.402 0.005218 139.75 0.005218 139.75 0.999980 29.113
8.80460000 0.999980 70.396 0.005224 139.75 0.005224 139.75 0.999980 29.109
8.80480000 0.999980 70.390 0.005230 139.74 0.005230 139.74 0.999980 29.104
8.80500000 0.999980 70.384 0.005236 139.73 0.005236 139.73 0.999980 29.100
8.80520000 0.999980 70.378 0.005242 139.73 0.005242 139.73 0.999980 29.095
8.80540000 0.999980 70.372 0.005249 139.72 0.005249 139.72 0.999980 29.091
8.80560000 0.999979 70.365 0.005255 139.72 0.005255 139.72 0.999980 29.086
8.80580000 0.999979 70.359 0.005261 139.71 0.005261 139.71 0.999980 29.082
8.80600000 0.999979 70.353 0.005268 139.71 0.005268 139.71 0.999980 29.078
8.80620000 0.999979 70.347 0.005274 139.70 0.005274 139.70 0.999980 29.073
8.80640000 0.999979 70.341 0.005281 139.70 0.005281 139.70 0.999979 29.069
8.80660000 0.999979 70.335 0.005287 139.69 0.005287 139.69 0.999979 29.064
8.80680000 0.999979 70.329 0.005293 139.69 0.005293 139.69 0.999979 29.060
8.80700000 0.999979 70.322 0.005300 139.68 0.005300 139.68 0.999979 29.055
8.80720000 0.999979 70.316 0.005307 139.68 0.005307 139.68 0.999979 29.051
8.80740000 0.999979 70.310 0.005313 139.67 0.005313 139.67 0.999979 29.046
8.80760000 0.999979 70.304 0.005320 139.67 0.005320 139.67 0.999979 29.042
8.80780000 0.999979 70.298 0.005326 139.66 0.005326 139.66 0.999979 29.037
8.80800000 0.999979 70.292 0.005333 139.65 0.005333 139.65 0.999979 29.033
8.80820000 0.999979 70.286 0.005340 139.65 0.005340 139.65 0.999979 29.028
8.80840000 0.999979 70.279 0.005346 139.64 0.005346 139.64 0.999979 29.024
8.80860000 0.999979 70.273 0.005353 139.64 0.005353 139.64 0.999979 29.019
8.80880000 0.999979 70.267 0.005360 139.63 0.005360 139.63 0.999979 29.015
8.80900000 0.999979 70.261 0.005367 139.63 0.005367 139.63 0.999979 29.010
8.80920000 0.999979 70.255 0.005374 139.62 0.005374 139.62 0.999979 29.006
8.80940000 0.999979 70.249 0.005380 139.62 0.005380 139.62 0.999979 29.001
8.80960000 0.999979 70.243 0.005387 139.61 0.005387 139.61 0.999979 28.997
8.80980000 0.999979 70.236 0.005394 139.61 0.005394 139.61 0.999979 28.992
8.81000000 0.999979 70.230 0.005401 139.60 0.005401 139.60 0.999979 28.988
8.81020000 0.999979 70.224 0.005408 139.60 0.005408 139.60 0.999979 28.983
8.81040000 0.999979 70.218 0.005415 139.59 0.005415 139.59 0.999979 28.979
8.81060000 0.999979 70.212 0.005422 139.59 0.005422 139.59 0.999979 28.974
8.81080000 0.999979 70.206 0.005429 139.58 0.005429 139.58 0.999978 28.970
8.81100000 0.999979 70.200 0.005436 139.57 0.005436 139.57 0.999978 28.965
8.81120000 0.999979 70.193 0.005444 139.57 0.005444 139.57 0.999978 28.960
8.81140000 0.999979 70.187 0.005451 139.56 0.005451 139.56 0.999978 28.956
8.81160000 0.999978 70.181 0.005458 139.56 0.005458 139.56 0.999978 28.951
8.81180000 0.999978 70.175 0.005465 139.55 0.005465 139.55 0.999978 28.947
8.81200000 0.999978 70.169 0.005473 139.55 0.005473 139.55 0.999978 28.942
8.81220000 0.999978 70.163 0.005480 139.54 0.005480 139.54 0.999978 28.937
8.81240000 0.999978 70.157 0.005487 139.54 0.005487 139.54 0.999978 28.933
8.81260000 0.999978 70.150 0.005495 139.53 0.005495 139.53 0.999978 28.928
8.81280000 0.999978 70.144 0.005502 139.53 0.005502 139.53 0.999978 28.924
8.81300000 0.999978 70.138 0.005510 139.52 0.005510 139.52 0.999978 28.919
8.81320000 0.999978 70.132 0.005517 139.51 0.005517 139.51 0.999978 28.914
8.81340000 0.999978 70.126 0.005525 139.51 0.005525 139.51 0.999978 28.910
8.81360000 0.999978 70.120 0.005532 139.50 0.005532 139.50 0.999978 28.905
8.81380000 0.999978 70.113 0.005540 139.50 0.005540 139.50 0.999978 28.900
8.81400000 0.999978 70.107 0.005547 139.49 0.005547 139.49 0.999978 28.896
8.81420000 0.999978 70.101 0.005555 139.49 0.005555 139.49 0.999978 28.891
8.81440000 0.999978 70.095 0.005563 139.48 0.005563 139.48 0.999978 28.887
8.81460000 0.999978 70.089 0.005571 139.48 0.005571 139.48 0.999977 28.882
8.81480000 0.999978 70.083 0.005578 139.47 0.005578 139.47 0.999977 28.877
8.81500000 0.999978 70.076 0.005586 139.47 0.005586 139.47 0.999977 28.873
8.81520000 0.999978 70.070 0.005594 139.46 0.005594 139.46 0.999977 28.868
8.81540000 0.999978 70.064 0.005602 139.46 0.005602 139.46 0.999977 28.863
8.81560000 0.999978 70.058 0.005610 139.45 0.005610 139.45 0.999977 28.858
8.81580000 0.999978 70.052 0.005618 139.44 0.005618 139.44 0.999977 28.854
8.81600000 0.999978 70.046 0.005626 139.44 0.005626 139.44 0.999977 28.849
8.81620000 0.999978 70.039 0.005634 139.43 0.005634 139.43 0.999977 28.844
8.81640000 0.999977 70.033 0.005642 139.43 0.005642 139.43 0.999977 28.840
8.81660000 0.999977 70.027 0.005650 139.42 0.005650 139.42 0.999977 28.835
8.81680000 0.999977 70.021 0.005658 139.42 0.005658 139.42 0.999977 28.830
8.81700000 0.999977 70.015 0.005667 139.41 0.005667 139.41 0.999977 28.825
8.81720000 0.999977 70.009 0.005675 139.41 0.005675 139.41 0.999977 28.821
8.81740000 0.999977 70.002 0.005683 139.40 0.005683 139.40 0.999977 28.816
8.81760000 0.999977 69.996 0.005691 139.39 0.005691 139.39 0.999977 28.811
8.81780000 0.999977 69.990 0.005700 139.39 0.005700 139.39 0.999977 28.806
8.81800000 0.999977 69.984 0.005708 139.38 0.005708 139.38 0.999976 28.802
8.81820000 0.999977 69.978 0.005717 139.38 0.005717 139.38 0.999976 28.797
8.81840000 0.999977 69.972 0.005725 139.37 0.005725 139.37 0.999976 28.792
8.81860000 0.999977 69.965 0.005734 139.37 0.005734 139.37 0.999976 28.787
8.81880000 0.999977 69.959 0.005742 139.36 0.005742 139.36 0.999976 28.782
8.81900000 0.999977 69.953 0.005751 139.36 0.005751 139.36 0.999976 28.778
8.81920000 0.999977 69.947 0.005760 139.35 0.005760 139.35 0.999976 28.773
8.81940000 0.999977 69.941 0.005768 139.35 0.005768 139.35 0.999976 28.768
8.81960000 0.999977 69.934 0.005777 139.34 0.005777 139.34 0.999976 28.763
8.81980000 0.999977 69.928 0.005786 139.33 0.005786 139.33 0.999976 28.758
8.82000000 0.999977 69.922 0.005795 139.33 0.005795 139.33 0.999976 28.753
8.82020000 0.999977 69.916 0.005804 139.32 0.005804 139.32 0.999976 28.749
8.82040000 0.999977 69.910 0.005813 139.32 0.005813 139.32 0.999976 28.744
8.82060000 0.999976 69.903 0.005822 139.31 0.005822 139.31 0.999976 28.739
8.82080000 0.999976 69.897 0.005831 139.31 0.005831 139.31 0.999976 28.734
8.82100000 0.999976 69.891 0.005840 139.30 0.005840 139.30 0.999976 28.729
8.82120000 0.999976 69.885 0.005849 139.30 0.005849 139.30 0.999975 28.724
8.82140000 0.999976 69.879 0.005858 139.29 0.005858 139.29 0.999975 28.719
8.82160000 0.999976 69.873 0.005867 139.28 0.005867 139.28 0.999975 28.714
8.82180000 0.999976 69.866 0.005877 139.28 0.005877 139.28 0.999975 28.709
8.82200000 0.999976 69.860 0.005886 139.27 0.005886 139.27 0.999975 28.705
8.82220000 0.999976 69.854 0.005895 139.27 0.005895 139.27 0.999975 28.700
8.82240000 0.999976 69.848 0.005905 139.26 0.005905 139.26 0.999975 28.695
8.82260000 0.999976 69.842 0.005914 139.26 0.005914 139.26 0.999975 28.690
8.82280000 0.999976 69.835 0.005924 139.25 0.005924 139.25 0.999975 28.685
8.82300000 0.999976 69.829 0.005933 139.24 0.005933 139.24 0.999975 28.680
8.82320000 0.999976 69.823 0.005943 139.24 0.005943 139.24 0.999975 28.675
8.82340000 0.999976 69.817 0.005952 139.23 0.005952 139.23 0.999975 28.670
8.82360000 0.999976 69.811 0.005962 139.23 0.005962 139.23 0.999975 28.665
8.82380000 0.999976 69.804 0.005972 139.22 0.005972 139.22 0.999975 28.660
8.82400000 0.999976 69.798 0.005982 139.22 0.005982 139.22 0.999974 28.655
8.82420000 0.999975 69.792 0.005992 139.21 0.005992 139.21 0.999974 28.650
8.82440000 0.999975 69.786 0.006002 139.21 0.006002 139.21 0.999974 28.645
8.82460000 0.999975 69.780 0.006012 139.20 0.006012 139.20 0.999974 28.640
8.82480000 0.999975 69.773 0.006022 139.19 0.006022 139.19 0.999974 28.635
8.82500000 0.999975 69.767 0.006032 139.19 0.006032 139.19 0.999974 28.630
8.82520000 0.999975 69.761 0.006042 139.18 0.006042 139.18 0.999974 28.625
8.82540000 0.999975 69.755 0.006052 139.18 0.006052 139.18 0.999974 28.620
8.82560000 0.999975 69.748 0.006062 139.17 0.006062 139.17 0.999974 28.615
8.82580000 0.999975 69.742 0.006073 139.17 0.006073 139.17 0.999974 28.609
8.82600000 0.999975 69.736 0.006083 139.16 0.006083 139.16 0.999974 28.604
8.82620000 0.999975 69.730 0.006093 139.15 0.006093 139.15 0.999974 28.599
8.82640000 0.999975 69.724 0.006104 139.15 0.006104 139.15 0.999974 28.594
8.82660000 0.999975 69.717 0.006114 139.14 0.006114 139.14 0.999973 28.589
8.82680000 0.999975 69.711 0.006125 139.14 0.006125 139.14 0.999973 28.584
8.82700000 0.999975 69.705 0.006136 139.13 0.006136 139.13 0.999973 28.579
8.82720000 0.999975 69.699 0.006146 139.13 0.006146 139.13 0.999973 28.574
8.82740000 0.999974 69.693 0.006157 139.12 0.006157 139.12 0.999973 28.568
8.82760000 0.999974 69.686 0.006168 139.11 0.006168 139.11 0.999973 28.563
8.82780000 0.999974 69.680 0.006179 139.11 0.006179 139.11 0.999973 28.558
8.82800000 0.999974 69.674 0.006190 139.10 0.006190 139.10 0.999973 28.553
8.82820000 0.999974 69.668 0.006201 139.10 0.006201 139.10 0.999973 28.548
8.82840000 0.999974 69.661 0.006212 139.09 0.006212 139.09 0.999973 28.543
8.82860000 0.999974 69.655 0.006223 139.09 0.006223 139.09 0.999973 28.537
8.82880000 0.999974 69.649 0.006234 139.08 0.006234 139.08 0.999973 28.532
8.82900000 0.999974 69.643 0.006246 139.07 0.006246 139.07 0.999972 28.527
8.82920000 0.999974 69.636 0.006257 139.07 0.006257 139.07 0.999972 28.522
8.82940000 0.999974 69.630 0.006268 139.06 0.006268 139.06 0.999972 28.516
8.82960000 0.999974 69.624 0.006280 139.06 0.006280 139.06 0.999972 28.511
8.82980000 0.999974 69.618 0.006291 139.05 0.006291 139.05 0.999972 28.506
8.83000000 0.999974 69.612 0.006303 139.04 0.006303 139.04 0.999972 28.500
8.83020000 0.999973 69.605 0.006315 139.04 0.006315 139.04 0.999972 28.495
8.83040000 0.999973 69.599 0.006326 139.03 0.006326 139.03 0.999972 28.490
8.83060000 0.999973 69.593 0.006338 139.03 0.006338 139.03 0.999972 28.485
8.83080000 0.999973 69.587 0.006350 139.02 0.006350 139.02 0.999972 28.479
8.83100000 0.999973 69.580 0.006362 139.02 0.006362 139.02 0.999971 28.474
8.83120000 0.999973 69.574 0.006374 139.01 0.006374 139.01 0.999971 28.469
8.83140000 0.999973 69.568 0.006386 139.00 0.006386 139.00 0.999971 28.463
8.83160000 0.999973 69.562 0.006398 139.00 0.006398 139.00 0.999971 28.458
8.83180000 0.999973 69.555 0.006411 138.99 0.006411 138.99 0.999971 28.452
8.83200000 0.999973 69.549 0.006423 138.99 0.006423 138.99 0.999971 28.447
8.83220000 0.999973 69.543 0.006435 138.98 0.006435 138.98 0.999971 28.442
8.83240000 0.999973 69.537 0.006448 138.97 0.006448 138.97 0.999971 28.436
8.83260000 0.999973 69.530 0.006460 138.97 0.006460 138.97 0.999971 28.431
8.83280000 0.999972 69.524 0.006473 138.96 0.006473 138.96 0.999971 28.425
8.83300000 0.999972 69.518 0.006486 138.96 0.006486 138.96 0.999970 28.420
8.83320000 0.999972 69.511 0.006498 138.95 0.006498 138.95 0.999970 28.414
8.83340000 0.999972 69.505 0.006511 138.95 0.006511 138.95 0.999970 28.409
8.83360000 0.999972 69.499 0.006524 138.94 0.006524 138.94 0.999970 28.403
8.83380000 0.999972 69.493 0.006537 138.93 0.006537 138.93 0.999970 28.398
8.83400000 0.999972 69.486 0.006550 138.93 0.006550 138.93 0.999970 28.392
8.83420000 0.999972 69.480 0.006563 138.92 0.006563 138.92 0.999970 28.387
8.83440000 0.999972 69.474 0.006576 138.92 0.006576 138.92 0.999970 28.381
8.83460000 0.999972 69.468 0.006590 138.91 0.006590 138.91 0.999970 28.376
8.83480000 0.999972 69.461 0.006603 138.90 0.006603 138.90 0.999970 28.370
8.83500000 0.999971 69.455 0.006617 138.90 0.006617 138.90 0.999969 28.364
8.83520000 0.999971 69.449 0.006630 138.89 0.006630 138.89 0.999969 28.359
8.83540000 0.999971 69.442 0.006644 138.89 0.006644 138.89 0.999969 28.353
8.83560000 0.999971 69.436 0.006658 138.88 0.006658 138.88 0.999969 28.347
8.83580000 0.999971 69.430 0.006671 138.87 0.006671 138.87 0.999969 28.342
8.83600000 0.999971 69.424 0.006685 138.87 0.006685 138.87 0.999969 28.336
8.83620000 0.999971 69.417 0.006699 138.86 0.006699 138.86 0.999969 28.330
8.83640000 0.999971 69.411 0.006713 138.86 0.006713 138.86 0.999969 28.325
8.83660000 0.999971 69.405 0.006727 138.85 0.006727 138.85 0.999968 28.319
8.83680000 0.999971 69.398 0.006742 138.84 0.006742 138.84 0.999968 28.313
8.83700000 0.999970 69.392 0.006756 138.84 0.006756 138.84 0.999968 28.308
8.83720000 0.999970 69.386 0.006771 138.83 0.006771 138.83 0.999968 28.302
8.83740000 0.999970 69.380 0.006785 138.82 0.006785 138.82 0.999968 28.296
8.83760000 0.999970 69.373 0.006800 138.82 0.006800 138.82 0.999968 28.290
8.83780000 0.999970 69.367 0.006814 138.81 0.006814 138.81 0.999968 28.285
8.83800000 0.999970 69.361 0.006829 138.81 0.006829 138.81 0.999968 28.279
8.83820000 0.999970 69.354 0.006844 138.80 0.006844 138.80 0.999967 28.273
8.83840000 0.999970 69.348 0.006859 138.79 0.006859 138.79 0.999967 28.267
8.83860000 0.999970 69.342 0.006874 138.79 0.006874 138.79 0.999967 28.261
8.83880000 0.999970 69.335 0.006889 138.78 0.006889 138.78 0.999967 28.255
8.83900000 0.999969 69.329 0.006905 138.78 0.006905 138.78 0.999967 28.249
8.83920000 0.999969 69.323 0.006920 138.77 0.006920 138.77 0.999967 28.243
8.83940000 0.999969 69.317 0.006936 138.76 0.006936 138.76 0.999967 28.238
8.83960000 0.999969 69.310 0.006951 138.76 0.006951 138.76 0.999966 28.232
8.83980000 0.999969 69.304 0.006967 138.75 0.006967 138.75 0.999966 28.226
8.84000000 0.999969 69.298 0.006983 138.74 0.006983 138.74 0.999966 28.220
8.84020000 0.999969 69.291 0.006999 138.74 0.006999 138.74 0.999966 28.214
8.84040000 0.999969 69.285 0.007015 138.73 0.007015 138.73 0.999966 28.208
8.84060000 0.999969 69.279 0.007031 138.73 0.007031 138.73 0.999966 28.202
8.84080000 0.999968 69.272 0.007047 138.72 0.007047 138.72 0.999966 28.196
8.84100000 0.999968 69.266 0.007064 138.71 0.007064 138.71 0.999965 28.189
8.84120000 0.999968 69.260 0.007080 138.71 0.007080 138.71 0.999965 28.183
8.84140000 0.999968 69.253 0.007097 138.70 0.007097 138.70 0.999965 28.177
8.84160000 0.999968 69.247 0.007113 138.69 0.007113 138.69 0.999965 28.171
8.84180000 0.999968 69.241 0.007130 138.69 0.007130 138.69 0.999965 28.165
8.84200000 0.999968 69.234 0.007147 138.68 0.007147 138.68 0.999965 28.159
8.84220000 0.999968 69.228 0.007164 138.68 0.007164 138.68 0.999965 28.153
8.84240000 0.999967 69.221 0.007181 138.67 0.007181 138.67 0.999964 28.147
8.84260000 0.999967 69.215 0.007199 138.66 0.007199 138.66 0.999964 28.140
8.84280000 0.999967 69.209 0.007216 138.66 0.007216 138.66 0.999964 28.134
8.84300000 0.999967 69.202 0.007234 138.65 0.007234 138.65 0.999964 28.128
8.84320000 0.999967 69.196 0.007251 138.64 0.007251 138.64 0.999964 28.122
8.84340000 0.999967 69.190 0.007269 138.64 0.007269 138.64 0.999964 28.115
8.84360000 0.999967 69.183 0.007287 138.63 0.007287 138.63 0.999963 28.109
8.84380000 0.999966 69.177 0.007305 138.62 0.007305 138.62 0.999963 28.103
8.84400000 0.999966 69.171 0.007323 138.62 0.007323 138.62 0.999963 28.096
8.84420000 0.999966 69.164 0.007341 138.61 0.007341 138.61 0.999963 28.090
8.84440000 0.999966 69.158 0.007360 138.61 0.007360 138.61 0.999963 28.083
8.84460000 0.999966 69.151 0.007378 138.60 0.007378 138.60 0.999963 28.077
8.84480000 0.999966 69.145 0.007397 138.59 0.007397 138.59 0.999962 28.071
8.84500000 0.999966 69.139 0.007416 138.59 0.007416 138.59 0.999962 28.064
8.84520000 0.999965 69.132 0.007435 138.58 0.007435 138.58 0.999962 28.058
8.84540000 0.999965 69.126 0.007454 138.57 0.007454 138.57 0.999962 28.051
8.84560000 0.999965 69.120 0.007473 138.57 0.007473 138.57 0.999962 28.045
8.84580000 0.999965 69.113 0.007493 138.56 0.007493 138.56 0.999961 28.038
8.84600000 0.999965 69.107 0.007512 138.55 0.007512 138.55 0.999961 28.031
8.84620000 0.999965 69.100 0.007532 138.55 0.007532 138.55 0.999961 28.025
8.84640000 0.999965 69.094 0.007552 138.54 0.007552 138.54 0.999961 28.018
8.84660000 0.999964 69.088 0.007572 138.53 0.007572 138.53 0.999961 28.011
8.84680000 0.999964 69.081 0.007592 138.53 0.007592 138.53 0.999961 28.005
8.84700000 0.999964 69.075 0.007612 138.52 0.007612 138.52 0.999960 27.998
8.84720000 0.999964 69.068 0.007633 138.51 0.007633 138.51 0.999960 27.991
8.84740000 0.999964 69.062 0.007653 138.51 0.007653 138.51 0.999960 27.985
8.84760000 0.999964 69.055 0.007674 138.50 0.007674 138.50 0.999960 27.978
8.84780000 0.999963 69.049 0.007695 138.49 0.007695 138.49 0.999960 27.971
8.84800000 0.999963 69.043 0.007716 138.49 0.007716 138.49 0.999959 27.964
8.84820000 0.999963 69.036 0.007737 138.48 0.007737 138.48 0.999959 27.957
8.84840000 0.999963 69.030 0.007758 138.47 0.007758 138.47 0.999959 27.950
8.84860000 0.999963 69.023 0.007780 138.47 0.007780 138.47 0.999959 27.944
8.84880000 0.999963 69.017 0.007802 138.46 0.007802 138.46 0.999958 27.937
8.84900000 0.999962 69.010 0.007824 138.45 0.007824 138.45 0.999958 27.930
8.84920000 0.999962 69.004 0.007846 138.45 0.007846 138.45 0.999958 27.923
8.84940000 0.999962 68.997 0.007868 138.44 0.007868 138.44 0.999958 27.916
8.84960000 0.999962 68.991 0.007890 138.43 0.007890 138.43 0.999958 27.909
8.84980000 0.999962 68.985 0.007913 138.43 0.007913 138.43 0.999957 27.902
8.85000000 0.999961 68.978 0.007936 138.42 0.007936 138.42 0.999957 27.894
8.85020000 0.999961 68.972 0.007959 138.41 0.007959 138.41 0.999957 27.887
8.85040000 0.999961 68.965 0.007982 138.41 0.007982 138.41 0.999957 27.880
8.85060000 0.999961 68.959 0.008005 138.40 0.008005 138.40 0.999956 27.873
8.85080000 0.999961 68.952 0.008029 138.39 0.008029 138.39 0.999956 27.866
8.85100000 0.999961 68.946 0.008052 138.38 0.008052 138.38 0.999956 27.858
8.85120000 0.999960 68.939 0.008076 138.38 0.008076 138.38 0.999956 27.851
8.85140000 0.999960 68.933 0.008100 138.37 0.008100 138.37 0.999955 27.844
8.85160000 0.999960 68.926 0.008125 138.36 0.008125 138.36 0.999955 27.836
8.85180000 0.999960 68.920 0.008149 138.36 0.008149 138.36 0.999955 27.829
8.85200000 0.999959 68.913 0.008174 138.35 0.008174 138.35 0.999955 27.822
8.85220000 0.999959 68.907 0.008199 138.34 0.008199 138.34 0.999954 27.814
8.85240000 0.999959 68.900 0.008224 138.34 0.008224 138.34 0.999954 27.807
8.85260000 0.999959 68.894 0.008249 138.33 0.008249 138.33 0.999954 27.799
8.85280000 0.999959 68.887 0.008275 138.32 0.008275 138.32 0.999954 27.792
8.85300000 0.999958 68.881 0.008301 138.31 0.008301 138.31 0.999953 27.784
8.85320000 0.999958 68.874 0.008327 138.31 0.008327 138.31 0.999953 27.776
8.85340000 0.999958 68.868 0.008353 138.30 0.008353 138.30 0.999953 27.769
8.85360000 0.999958 68.861 0.008379 138.29 0.008379 138.29 0.999952 27.761
8.85380000 0.999957 68.855 0.008406 138.28 0.008406 138.28 0.999952 27.753
8.85400000 0.999957 68.848 0.008433 138.28 0.008433 138.28 0.999952 27.745
8.85420000 0.999957 68.841 0.008460 138.27 0.008460 138.27 0.999952 27.738
8.85440000 0.999957 68.835 0.008487 138.26 0.008487 138.26 0.999951 27.730
8.85460000 0.999957 68.828 0.008515 138.26 0.008515 138.26 0.999951 27.722
8.85480000 0.999956 68.822 0.008543 138.25 0.008543 138.25 0.999951 27.714
8.85500000 0.999956 68.815 0.008571 138.24 0.008571 138.24 0.999950 27.706
8.85520000 0.999956 68.809 0.008599 138.23 0.008599 138.23 0.999950 27.698
8.85540000 0.999956 68.802 0.008628 138.23 0.008628 138.23 0.999950 27.690
8.85560000 0.999955 68.795 0.008657 138.22 0.008657 138.22 0.999949 27.682
8.85580000 0.999955 68.789 0.008686 138.21 0.008686 138.21 0.999949 27.674
8.85600000 0.999955 68.782 0.008715 138.20 0.008715 138.20 0.999949 27.665
8.85620000 0.999954 68.776 0.008745 138.20 0.008745 138.20 0.999948 27.657
8.85640000 0.999954 68.769 0.008775 138.19 0.008775 138.19 0.999948 27.649
8.85660000 0.999954 68.762 0.008805 138.18 0.008805 138.18 0.999948 27.641
8.85680000 0.999954 68.756 0.008835 138.17 0.008835 138.17 0.999947 27.632
8.85700000 0.999953 68.749 0.008866 138.17 0.008866 138.17 0.999947 27.624
8.85720000 0.999953 68.743 0.008897 138.16 0.008897 138.16 0.999947 27.615
8.85740000 0.999953 68.736 0.008928 138.15 0.008928 138.15 0.999946 27.607
8.85760000 0.999952 68.729 0.008960 138.14 0.008960 138.14 0.999946 27.598
8.85780000 0.999952 68.723 0.008992 138.14 0.008992 138.14 0.999945 27.590
8.85800000 0.999952 68.716 0.009024 138.13 0.009024 138.13 0.999945 27.581
8.85820000 0.999952 68.709 0.009057 138.12 0.009057 138.12 0.999945 27.572
8.85840000 0.999951 68.703 0.009089 138.11 0.009089 138.11 0.999944 27.564
8.85860000 0.999951 68.696 0.009122 138.10 0.009122 138.10 0.999944 27.555
8.85880000 0.999951 68.689 0.009156 138.10 0.009156 138.10 0.999944 27.546
8.85900000 0.999950 68.683 0.009190 138.09 0.009190 138.09 0.999943 27.537
8.85920000 0.999950 68.676 0.009224 138.08 0.009224 138.08 0.999943 27.528
8.85940000 0.999950 68.669 0.009258 138.07 0.009258 138.07 0.999942 27.519
8.85960000 0.999949 68.663 0.009293 138.06 0.009293 138.06 0.999942 27.510
8.85980000 0.999949 68.656 0.009328 138.06 0.009328 138.06 0.999941 27.501
8.86000000 0.999949 68.649 0.009364 138.05 0.009364 138.05 0.999941 27.492
8.86020000 0.999948 68.642 0.009399 138.04 0.009399 138.04 0.999941 27.483
8.86040000 0.999948 68.636 0.009436 138.03 0.009436 138.03 0.999940 27.473
8.86060000 0.999948 68.629 0.009472 138.02 0.009472 138.02 0.999940 27.464
8.86080000 0.999947 68.622 0.009509 138.02 0.009509 138.02 0.999939 27.455
8.86100000 0.999947 68.615 0.009546 138.01 0.009546 138.01 0.999939 27.445
8.86120000 0.999946 68.609 0.009584 138.00 0.009584 138.00 0.999938 27.436
8.86140000 0.999946 68.602 0.009622 137.99 0.009622 137.99 0.999938 27.426
8.86160000 0.999946 68.595 0.009661 137.98 0.009661 137.98 0.999937 27.416
8.86180000 0.999945 68.588 0.009699 137.97 0.009699 137.97 0.999937 27.407
8.86200000 0.999945 68.582 0.009739 137.97 0.009739 137.97 0.999936 27.397
8.86220000 0.999944 68.575 0.009778 137.96 0.009778 137.96 0.999936 27.387
8.86240000 0.999944 68.568 0.009818 137.95 0.009818 137.95 0.999935 27.377
8.86260000 0.999944 68.561 0.009859 137.94 0.009859 137.94 0.999935 27.367
8.86280000 0.999943 68.554 0.009900 137.93 0.009900 137.93 0.999934 27.357
8.86300000 0.999943 68.547 0.009941 137.92 0.009941 137.92 0.999934 27.347
8.86320000 0.999942 68.541 0.009983 137.91 0.009983 137.91 0.999933 27.337
8.86340000 0.999942 68.534 0.010025 137.90 0.010025 137.90 0.999933 27.326
8.86360000 0.999941 68.527 0.010068 137.90 0.010068 137.90 0.999932 27.316
8.86380000 0.999941 68.520 0.010111 137.89 0.010111 137.89 0.999931 27.306
8.86400000 0.999941 68.513 0.010155 137.88 0.010155 137.88 0.999931 27.295
8.86420000 0.999940 68.506 0.010199 137.87 0.010199 137.87 0.999930 27.284
8.86440000 0.999940 68.499 0.010244 137.86 0.010244 137.86 0.999930 27.274
8.86460000 0.999939 68.492 0.010289 137.85 0.010289 137.85 0.999929 27.263
8.86480000 0.999939 68.485 0.010335 137.84 0.010335 137.84 0.999928 27.252
8.86500000 0.999938 68.479 0.010381 137.83 0.010381 137.83 0.999928 27.241
8.86520000 0.999938 68.472 0.010427 137.82 0.010427 137.82 0.999927 27.230
8.86540000 0.999937 68.465 0.010475 137.82 0.010475 137.82 0.999927 27.219
8.86560000 0.999937 68.458 0.010522 137.81 0.010522 137.81 0.999926 27.208
8.86580000 0.999936 68.451 0.010571 137.80 0.010571 137.80 0.999925 27.197
8.86600000 0.999936 68.444 0.010620 137.79 0.010620 137.79 0.999925 27.185
8.86620000 0.999935 68.437 0.010669 137.78 0.010669 137.78 0.999924 27.174
8.86640000 0.999934 68.430 0.010719 137.77 0.010719 137.77 0.999923 27.162
8.86660000 0.999934 68.423 0.010770 137.76 0.010770 137.76 0.999922 27.151
8.86680000 0.999933 68.416 0.010821 137.75 0.010821 137.75 0.999922 27.139
8.86700000 0.999933 68.409 0.010873 137.74 0.010873 137.74 0.999921 27.127
8.86720000 0.999932 68.402 0.010925 137.73 0.010925 137.73 0.999920 27.115
8.86740000 0.999931 68.394 0.010978 137.72 0.010978 137.72 0.999919 27.103
8.86760000 0.999931 68.387 0.011032 137.71 0.011032 137.71 0.999919 27.091
8.86780000 0.999930 68.380 0.011087 137.70 0.011087 137.70 0.999918 27.079
8.86800000 0.999930 68.373 0.011142 137.69 0.011142 137.69 0.999917 27.066
8.86820000 0.999929 68.366 0.011197 137.68 0.011197 137.68 0.999916 27.054
8.86840000 0.999928 68.359 0.011254 137.67 0.011254 137.67 0.999915 27.041
8.86860000 0.999928 68.352 0.011311 137.66 0.011311 137.66 0.999914 27.029
8.86880000 0.999927 68.345 0.011369 137.65 0.011369 137.65 0.999914 27.016
8.86900000 0.999926 68.337 0.011427 137.64 0.011427 137.64 0.999913 27.003
8.86920000 0.999926 68.330 0.011487 137.63 0.011487 137.63 0.999912 26.990
8.86940000 0.999925 68.323 0.011547 137.62 0.011547 137.62 0.999911 26.977
8.86960000 0.999924 68.316 0.011608 137.61 0.011608 137.61 0.999910 26.963
8.86980000 0.999923 68.308 0.011670 137.60 0.011670 137.60 0.999909 26.950
8.87000000 0.999923 68.301 0.011732 137.59 0.011732 137.59 0.999908 26.936
8.87020000 0.999922 68.294 0.011795 137.58 0.011795 137.58 0.999907 26.923
8.87040000 0.999921 68.287 0.011860 137.57 0.011860 137.57 0.999906 26.909
8.87060000 0.999920 68.279 0.011925 137.55 0.011925 137.55 0.999905 26.895
8.87069988 0.999920 68.276 0.011957 137.55 0.011957 137.55 0.999905 26.888
8.87080000 0.999919 68.272 0.011991 137.54 0.011991 137.54 0.999904 26.881
8.87100000 0.999919 68.265 0.012057 137.53 0.012057 137.53 0.999903 26.866
8.87120000 0.999918 68.257 0.012125 137.52 0.012125 137.52 0.999902 26.852
8.87138372 0.999917 68.250 0.012188 137.51 0.012188 137.51 0.999901 26.839
8.87140000 0.999917 68.250 0.012194 137.51 0.012194 137.51 0.999901 26.837
8.87160000 0.999916 68.242 0.012263 137.50 0.012263 137.50 0.999900 26.823
8.87180000 0.999915 68.235 0.012334 137.49 0.012334 137.49 0.999898 26.808
8.87200000 0.999914 68.228 0.012405 137.48 0.012405 137.48 0.999897 26.793
8.87205190 0.999914 68.226 0.012424 137.47 0.012424 137.47 0.999897 26.789
8.87220000 0.999913 68.220 0.012478 137.46 0.012478 137.46 0.999896 26.778
8.87240000 0.999912 68.213 0.012552 137.45 0.012552 137.45 0.999895 26.762
8.87260000 0.999911 68.205 0.012626 137.44 0.012626 137.44 0.999894 26.747
8.87270476 0.999911 68.201 0.012666 137.43 0.012666 137.43 0.999893 26.738
8.87280000 0.999910 68.198 0.012702 137.43 0.012702 137.43 0.999892 26.731
8.87300000 0.999909 68.190 0.012779 137.42 0.012779 137.42 0.999891 26.715
8.87320000 0.999908 68.182 0.012857 137.40 0.012857 137.40 0.999890 26.699
8.87334266 0.999907 68.177 0.012913 137.40 0.012913 137.40 0.999889 26.687
8.87340000 0.999907 68.175 0.012936 137.39 0.012936 137.39 0.999888 26.683
8.87360000 0.999906 68.167 0.013016 137.38 0.013016 137.38 0.999887 26.666
8.87380000 0.999905 68.160 0.013098 137.37 0.013098 137.37 0.999886 26.650
8.87396595 0.999904 68.153 0.013166 137.36 0.013166 137.36 0.999884 26.636
8.87400000 0.999904 68.152 0.013180 137.36 0.013180 137.36 0.999884 26.633
8.87420000 0.999903 68.144 0.013264 137.34 0.013264 137.34 0.999883 26.616
8.87440000 0.999901 68.137 0.013350 137.33 0.013350 137.33 0.999881 26.598
8.87457495 0.999900 68.130 0.013425 137.32 0.013425 137.32 0.999880 26.583
8.87460000 0.999900 68.129 0.013436 137.32 0.013436 137.32 0.999880 26.581
8.87480000 0.999899 68.121 0.013524 137.30 0.013524 137.30 0.999878 26.563
8.87500000 0.999898 68.113 0.013613 137.29 0.013613 137.29 0.999876 26.545
8.87517000 0.999897 68.107 0.013690 137.28 0.013690 137.28 0.999875 26.530
8.87520000 0.999896 68.105 0.013704 137.28 0.013704 137.28 0.999875 26.527
8.87540000 0.999895 68.098 0.013796 137.26 0.013796 137.26 0.999873 26.509
8.87560000 0.999894 68.090 0.013890 137.25 0.013890 137.25 0.999871 26.490
8.87575142 0.999893 68.084 0.013962 137.24 0.013962 137.24 0.999870 26.476
8.87580000 0.999892 68.082 0.013985 137.24 0.013985 137.24 0.999869 26.471
8.87600000 0.999891 68.074 0.014081 137.22 0.014081 137.22 0.999868 26.452
8.87620000 0.999889 68.066 0.014180 137.21 0.014180 137.21 0.999866 26.433
8.87631951 0.999889 68.061 0.014239 137.20 0.014239 137.20 0.999865 26.421