! Sonnet Data File
! From: emgraph Version : 16.52
! From Project: Resonator2
! Data is De-embedded 
! Data File Written: 10/05/2017 13:36:36
!< HDATE 10/05/2017 10:48:01
!< MDATE 10/05/2017 10:48:01
!< PARAMS
!< gap = 6.0
!< Length = 400.0
!< Pwid1 = 2000.0
!< Pwid2 = 2000.0
!< END PARAMS
# GHZ S MA R 50.00000
8.80000000 0.999299 67.815 0.037197 141.98 0.037197 141.98 0.999291 36.158
!< P1 F=8.8 Eeff=(6.44679989 -2.9721e-5) Z0=(51.7992624 1.19519e-4) R=0.0 C=0.0 
!< P2 F=8.8 Eeff=(5.36817953 -2.3731e-5) Z0=(35.9853883 8.0522e-5) R=0.0 C=0.0 
8.80020000 0.999297 67.808 0.037252 141.97 0.037252 141.97 0.999289 36.147
8.80040000 0.999294 67.800 0.037307 141.96 0.037307 141.96 0.999286 36.137
8.80060000 0.999292 67.793 0.037363 141.95 0.037363 141.95 0.999284 36.126
8.80080000 0.999290 67.785 0.037419 141.94 0.037419 141.94 0.999282 36.115
8.80100000 0.999288 67.778 0.037475 141.93 0.037475 141.93 0.999280 36.104
8.80120000 0.999286 67.770 0.037531 141.92 0.037531 141.92 0.999278 36.093
8.80140000 0.999284 67.763 0.037588 141.91 0.037588 141.91 0.999276 36.082
8.80160000 0.999282 67.755 0.037645 141.90 0.037645 141.90 0.999273 36.071
8.80180000 0.999280 67.748 0.037702 141.89 0.037702 141.89 0.999271 36.060
8.80200000 0.999277 67.740 0.037760 141.89 0.037760 141.89 0.999269 36.049
8.80220000 0.999275 67.732 0.037817 141.88 0.037817 141.88 0.999267 36.038
8.80240000 0.999273 67.725 0.037875 141.87 0.037875 141.87 0.999264 36.027
8.80260000 0.999271 67.717 0.037934 141.86 0.037934 141.86 0.999262 36.016
8.80280000 0.999268 67.710 0.037993 141.85 0.037993 141.85 0.999260 36.005
8.80300000 0.999266 67.702 0.038052 141.84 0.038052 141.84 0.999258 35.993
8.80320000 0.999264 67.694 0.038111 141.83 0.038111 141.83 0.999255 35.982
8.80340000 0.999262 67.687 0.038170 141.82 0.038170 141.82 0.999253 35.971
8.80360000 0.999259 67.679 0.038230 141.81 0.038230 141.81 0.999251 35.960
8.80380000 0.999257 67.671 0.038290 141.80 0.038290 141.80 0.999248 35.948
8.80400000 0.999255 67.664 0.038351 141.79 0.038351 141.79 0.999246 35.937
8.80420000 0.999252 67.656 0.038412 141.78 0.038412 141.78 0.999243 35.925
8.80440000 0.999250 67.648 0.038473 141.77 0.038473 141.77 0.999241 35.914
8.80460000 0.999248 67.641 0.038534 141.76 0.038534 141.76 0.999239 35.903
8.80480000 0.999245 67.633 0.038596 141.75 0.038596 141.75 0.999236 35.891
8.80500000 0.999243 67.625 0.038658 141.74 0.038658 141.74 0.999234 35.879
8.80520000 0.999240 67.617 0.038721 141.73 0.038721 141.73 0.999231 35.868
8.80540000 0.999238 67.610 0.038783 141.72 0.038783 141.72 0.999229 35.856
8.80560000 0.999235 67.602 0.038846 141.71 0.038846 141.71 0.999226 35.845
8.80580000 0.999233 67.594 0.038910 141.70 0.038910 141.70 0.999224 35.833
8.80600000 0.999230 67.586 0.038974 141.69 0.038974 141.69 0.999221 35.821
8.80620000 0.999228 67.579 0.039038 141.68 0.039038 141.68 0.999218 35.809
8.80640000 0.999225 67.571 0.039102 141.67 0.039102 141.67 0.999216 35.797
8.80660000 0.999223 67.563 0.039167 141.66 0.039167 141.66 0.999213 35.786
8.80680000 0.999220 67.555 0.039232 141.65 0.039232 141.65 0.999211 35.774
8.80700000 0.999218 67.548 0.039297 141.64 0.039297 141.64 0.999208 35.762
8.80720000 0.999215 67.540 0.039363 141.63 0.039363 141.63 0.999205 35.750
8.80740000 0.999212 67.532 0.039429 141.62 0.039429 141.62 0.999203 35.738
8.80760000 0.999210 67.524 0.039496 141.61 0.039496 141.61 0.999200 35.726
8.80780000 0.999207 67.516 0.039562 141.60 0.039562 141.60 0.999197 35.714
8.80800000 0.999204 67.508 0.039630 141.59 0.039630 141.59 0.999194 35.701
8.80820000 0.999202 67.500 0.039697 141.58 0.039697 141.58 0.999192 35.689
8.80840000 0.999199 67.493 0.039765 141.57 0.039765 141.57 0.999189 35.677
8.80860000 0.999196 67.485 0.039833 141.56 0.039833 141.56 0.999186 35.665
8.80880000 0.999194 67.477 0.039902 141.55 0.039902 141.55 0.999183 35.652
8.80900000 0.999191 67.469 0.039971 141.54 0.039971 141.54 0.999181 35.640
8.80920000 0.999188 67.461 0.040040 141.53 0.040040 141.53 0.999178 35.628
8.80940000 0.999185 67.453 0.040110 141.52 0.040110 141.52 0.999175 35.615
8.80960000 0.999182 67.445 0.040180 141.51 0.040180 141.51 0.999172 35.603
8.80980000 0.999179 67.437 0.040251 141.50 0.040251 141.50 0.999169 35.590
8.81000000 0.999177 67.429 0.040322 141.49 0.040322 141.49 0.999166 35.578
8.81020000 0.999174 67.421 0.040393 141.48 0.040393 141.48 0.999163 35.565
8.81040000 0.999171 67.413 0.040465 141.47 0.040465 141.47 0.999160 35.552
8.81060000 0.999168 67.405 0.040537 141.46 0.040537 141.46 0.999157 35.540
8.81080000 0.999165 67.397 0.040610 141.45 0.040610 141.45 0.999154 35.527
8.81100000 0.999162 67.389 0.040683 141.44 0.040683 141.44 0.999151 35.514
8.81120000 0.999159 67.381 0.040756 141.43 0.040756 141.43 0.999148 35.501
8.81140000 0.999156 67.373 0.040830 141.42 0.040830 141.42 0.999145 35.488
8.81160000 0.999153 67.365 0.040904 141.41 0.040904 141.41 0.999142 35.475
8.81180000 0.999150 67.357 0.040978 141.40 0.040978 141.40 0.999139 35.462
8.81200000 0.999147 67.349 0.041053 141.39 0.041053 141.39 0.999135 35.449
8.81220000 0.999143 67.341 0.041129 141.38 0.041129 141.38 0.999132 35.436
8.81240000 0.999140 67.333 0.041205 141.37 0.041205 141.37 0.999129 35.423
8.81260000 0.999137 67.325 0.041281 141.36 0.041281 141.36 0.999126 35.410
8.81280000 0.999134 67.316 0.041358 141.35 0.041358 141.35 0.999122 35.397
8.81300000 0.999131 67.308 0.041435 141.33 0.041435 141.33 0.999119 35.383
8.81320000 0.999127 67.300 0.041513 141.32 0.041513 141.32 0.999116 35.370
8.81340000 0.999124 67.292 0.041591 141.31 0.041591 141.31 0.999112 35.356
8.81360000 0.999121 67.284 0.041669 141.30 0.041669 141.30 0.999109 35.343
8.81380000 0.999118 67.276 0.041748 141.29 0.041748 141.29 0.999106 35.330
8.81400000 0.999114 67.267 0.041828 141.28 0.041828 141.28 0.999102 35.316
8.81420000 0.999111 67.259 0.041908 141.27 0.041908 141.27 0.999099 35.302
8.81440000 0.999107 67.251 0.041988 141.26 0.041988 141.26 0.999095 35.289
8.81460000 0.999104 67.243 0.042069 141.25 0.042069 141.25 0.999092 35.275
8.81480000 0.999101 67.234 0.042151 141.24 0.042151 141.24 0.999088 35.261
8.81500000 0.999097 67.226 0.042232 141.23 0.042232 141.23 0.999085 35.247
8.81520000 0.999094 67.218 0.042315 141.21 0.042315 141.21 0.999081 35.233
8.81540000 0.999090 67.209 0.042398 141.20 0.042398 141.20 0.999078 35.220
8.81560000 0.999087 67.201 0.042481 141.19 0.042481 141.19 0.999074 35.206
8.81580000 0.999083 67.193 0.042565 141.18 0.042565 141.18 0.999070 35.191
8.81600000 0.999079 67.184 0.042649 141.17 0.042649 141.17 0.999067 35.177
8.81620000 0.999076 67.176 0.042734 141.16 0.042734 141.16 0.999063 35.163
8.81640000 0.999072 67.168 0.042819 141.15 0.042819 141.15 0.999059 35.149
8.81660000 0.999068 67.159 0.042905 141.14 0.042905 141.14 0.999055 35.135
8.81680000 0.999065 67.151 0.042992 141.12 0.042992 141.12 0.999051 35.120
8.81700000 0.999061 67.143 0.043079 141.11 0.043079 141.11 0.999048 35.106
8.81720000 0.999057 67.134 0.043166 141.10 0.043166 141.10 0.999044 35.091
8.81740000 0.999053 67.126 0.043254 141.09 0.043254 141.09 0.999040 35.077
8.81760000 0.999049 67.117 0.043343 141.08 0.043343 141.08 0.999036 35.062
8.81780000 0.999045 67.109 0.043432 141.07 0.043432 141.07 0.999032 35.048
8.81800000 0.999041 67.100 0.043521 141.05 0.043521 141.05 0.999028 35.033
8.81820000 0.999037 67.092 0.043612 141.04 0.043612 141.04 0.999024 35.018
8.81840000 0.999033 67.083 0.043702 141.03 0.043702 141.03 0.999020 35.003
8.81860000 0.999029 67.075 0.043794 141.02 0.043794 141.02 0.999016 34.988
8.81880000 0.999025 67.066 0.043886 141.01 0.043886 141.01 0.999011 34.973
8.81900000 0.999021 67.057 0.043978 141.00 0.043978 141.00 0.999007 34.958
8.81920000 0.999017 67.049 0.044071 140.98 0.044071 140.98 0.999003 34.943
8.81940000 0.999013 67.040 0.044165 140.97 0.044165 140.97 0.998999 34.928
8.81960000 0.999009 67.032 0.044259 140.96 0.044259 140.96 0.998994 34.913
8.81980000 0.999005 67.023 0.044354 140.95 0.044354 140.95 0.998990 34.897
8.82000000 0.999000 67.014 0.044449 140.94 0.044449 140.94 0.998986 34.882
8.82020000 0.998996 67.006 0.044545 140.92 0.044545 140.92 0.998981 34.866
8.82040000 0.998992 66.997 0.044642 140.91 0.044642 140.91 0.998977 34.851
8.82060000 0.998987 66.988 0.044740 140.90 0.044740 140.90 0.998972 34.835
8.82080000 0.998983 66.979 0.044837 140.89 0.044837 140.89 0.998968 34.820
8.82100000 0.998978 66.971 0.044936 140.87 0.044936 140.87 0.998963 34.804
8.82120000 0.998974 66.962 0.045035 140.86 0.045035 140.86 0.998959 34.788
8.82140000 0.998969 66.953 0.045135 140.85 0.045135 140.85 0.998954 34.772
8.82160000 0.998965 66.944 0.045236 140.84 0.045236 140.84 0.998949 34.756
8.82180000 0.998960 66.935 0.045337 140.82 0.045337 140.82 0.998945 34.740
8.82200000 0.998955 66.927 0.045439 140.81 0.045439 140.81 0.998940 34.724
8.82220000 0.998951 66.918 0.045541 140.80 0.045541 140.80 0.998935 34.708
8.82240000 0.998946 66.909 0.045645 140.79 0.045645 140.79 0.998930 34.691
8.82260000 0.998941 66.900 0.045749 140.77 0.045749 140.77 0.998925 34.675
8.82280000 0.998936 66.891 0.045853 140.76 0.045853 140.76 0.998920 34.659
8.82300000 0.998931 66.882 0.045959 140.75 0.045959 140.75 0.998915 34.642
8.82320000 0.998927 66.873 0.046065 140.74 0.046065 140.74 0.998910 34.626
8.82340000 0.998922 66.864 0.046171 140.72 0.046171 140.72 0.998905 34.609
8.82360000 0.998917 66.855 0.046279 140.71 0.046279 140.71 0.998900 34.592
8.82380000 0.998911 66.846 0.046387 140.70 0.046387 140.70 0.998895 34.575
8.82400000 0.998906 66.837 0.046496 140.68 0.046496 140.68 0.998890 34.558
8.82420000 0.998901 66.828 0.046606 140.67 0.046606 140.67 0.998885 34.541
8.82440000 0.998896 66.819 0.046716 140.66 0.046716 140.66 0.998879 34.524
8.82460000 0.998891 66.810 0.046828 140.64 0.046828 140.64 0.998874 34.507
8.82480000 0.998885 66.801 0.046940 140.63 0.046940 140.63 0.998868 34.490
8.82500000 0.998880 66.791 0.047052 140.62 0.047052 140.62 0.998863 34.472
8.82520000 0.998875 66.782 0.047166 140.60 0.047166 140.60 0.998857 34.455
8.82540000 0.998869 66.773 0.047280 140.59 0.047280 140.59 0.998852 34.437
8.82560000 0.998864 66.764 0.047396 140.58 0.047396 140.58 0.998846 34.419
8.82580000 0.998858 66.755 0.047512 140.56 0.047512 140.56 0.998841 34.402
8.82600000 0.998853 66.745 0.047628 140.55 0.047628 140.55 0.998835 34.384
8.82620000 0.998847 66.736 0.047746 140.54 0.047746 140.54 0.998829 34.366
8.82640000 0.998841 66.727 0.047865 140.52 0.047865 140.52 0.998823 34.348
8.82660000 0.998835 66.717 0.047984 140.51 0.047984 140.51 0.998817 34.330
8.82680000 0.998830 66.708 0.048104 140.49 0.048104 140.49 0.998811 34.312
8.82700000 0.998824 66.699 0.048225 140.48 0.048225 140.48 0.998805 34.293
8.82720000 0.998818 66.689 0.048347 140.47 0.048347 140.47 0.998799 34.275
8.82740000 0.998812 66.680 0.048470 140.45 0.048470 140.45 0.998793 34.256
8.82760000 0.998806 66.670 0.048594 140.44 0.048594 140.44 0.998787 34.238
8.82780000 0.998800 66.661 0.048718 140.42 0.048718 140.42 0.998781 34.219
8.82800000 0.998793 66.651 0.048844 140.41 0.048844 140.41 0.998774 34.200
8.82820000 0.998787 66.642 0.048970 140.40 0.048970 140.40 0.998768 34.181
8.82840000 0.998781 66.632 0.049098 140.38 0.049098 140.38 0.998761 34.162
8.82860000 0.998775 66.622 0.049226 140.37 0.049226 140.37 0.998755 34.143
8.82880000 0.998768 66.613 0.049355 140.35 0.049355 140.35 0.998748 34.123
8.82900000 0.998762 66.603 0.049486 140.34 0.049486 140.34 0.998742 34.104
8.82920000 0.998755 66.593 0.049617 140.32 0.049617 140.32 0.998735 34.085
8.82940000 0.998748 66.584 0.049749 140.31 0.049749 140.31 0.998728 34.065
8.82960000 0.998742 66.574 0.049882 140.29 0.049882 140.29 0.998721 34.045
8.82980000 0.998735 66.564 0.050017 140.28 0.050017 140.28 0.998714 34.025
8.83000000 0.998728 66.554 0.050152 140.26 0.050152 140.26 0.998707 34.005
8.83020000 0.998721 66.545 0.050288 140.25 0.050288 140.25 0.998700 33.985
8.83040000 0.998714 66.535 0.050426 140.23 0.050426 140.23 0.998693 33.965
8.83060000 0.998707 66.525 0.050564 140.22 0.050564 140.22 0.998686 33.945
8.83080000 0.998700 66.515 0.050703 140.20 0.050703 140.20 0.998679 33.924
8.83100000 0.998693 66.505 0.050844 140.19 0.050844 140.19 0.998671 33.904
8.83120000 0.998686 66.495 0.050986 140.17 0.050986 140.17 0.998664 33.883
8.83140000 0.998678 66.485 0.051128 140.16 0.051128 140.16 0.998656 33.862
8.83160000 0.998671 66.475 0.051272 140.14 0.051272 140.14 0.998649 33.841
8.83180000 0.998663 66.465 0.051417 140.13 0.051417 140.13 0.998641 33.820
8.83200000 0.998656 66.455 0.051564 140.11 0.051564 140.11 0.998633 33.799
8.83220000 0.998648 66.444 0.051711 140.09 0.051711 140.09 0.998625 33.778
8.83240000 0.998640 66.434 0.051859 140.08 0.051859 140.08 0.998618 33.756
8.83260000 0.998632 66.424 0.052009 140.06 0.052009 140.06 0.998609 33.734
8.83280000 0.998624 66.414 0.052160 140.05 0.052160 140.05 0.998601 33.713
8.83300000 0.998616 66.404 0.052312 140.03 0.052312 140.03 0.998593 33.691
8.83320000 0.998608 66.393 0.052466 140.01 0.052466 140.01 0.998585 33.669
8.83340000 0.998600 66.383 0.052620 140.00 0.052620 140.00 0.998576 33.646
8.83360000 0.998592 66.372 0.052776 139.98 0.052776 139.98 0.998568 33.624
8.83380000 0.998583 66.362 0.052933 139.96 0.052933 139.96 0.998559 33.602
8.83400000 0.998575 66.352 0.053092 139.95 0.053092 139.95 0.998551 33.579
8.83420000 0.998566 66.341 0.053252 139.93 0.053252 139.93 0.998542 33.556
8.83440000 0.998558 66.331 0.053413 139.91 0.053413 139.91 0.998533 33.533
8.83460000 0.998549 66.320 0.053575 139.90 0.053575 139.90 0.998524 33.510
8.83480000 0.998540 66.309 0.053739 139.88 0.053739 139.88 0.998515 33.487
8.83500000 0.998531 66.299 0.053904 139.86 0.053904 139.86 0.998506 33.464
8.83520000 0.998522 66.288 0.054071 139.85 0.054071 139.85 0.998496 33.440
8.83540000 0.998513 66.277 0.054239 139.83 0.054239 139.83 0.998487 33.416
8.83560000 0.998504 66.266 0.054408 139.81 0.054408 139.81 0.998478 33.392
8.83580000 0.998494 66.256 0.054579 139.79 0.054579 139.79 0.998468 33.368
8.83600000 0.998485 66.245 0.054751 139.78 0.054751 139.78 0.998458 33.344
8.83620000 0.998475 66.234 0.054925 139.76 0.054925 139.76 0.998448 33.320
8.83640000 0.998465 66.223 0.055101 139.74 0.055101 139.74 0.998438 33.295
8.83660000 0.998455 66.212 0.055277 139.72 0.055277 139.72 0.998428 33.270
8.83680000 0.998445 66.201 0.055456 139.70 0.055456 139.70 0.998418 33.245
8.83700000 0.998435 66.190 0.055636 139.69 0.055636 139.69 0.998408 33.220
8.83720000 0.998425 66.179 0.055817 139.67 0.055817 139.67 0.998397 33.195
8.83740000 0.998415 66.167 0.056001 139.65 0.056001 139.65 0.998387 33.169
8.83760000 0.998404 66.156 0.056185 139.63 0.056185 139.63 0.998376 33.144
8.83780000 0.998394 66.145 0.056372 139.61 0.056372 139.61 0.998365 33.118
8.83800000 0.998383 66.134 0.056560 139.59 0.056560 139.59 0.998354 33.092
8.83820000 0.998372 66.122 0.056750 139.57 0.056750 139.57 0.998343 33.066
8.83840000 0.998361 66.111 0.056942 139.56 0.056942 139.56 0.998332 33.039
8.83860000 0.998350 66.099 0.057135 139.54 0.057135 139.54 0.998320 33.012
8.83880000 0.998339 66.088 0.057330 139.52 0.057330 139.52 0.998309 32.986
8.83900000 0.998327 66.076 0.057527 139.50 0.057527 139.50 0.998297 32.959
8.83920000 0.998316 66.065 0.057726 139.48 0.057726 139.48 0.998285 32.931
8.83940000 0.998304 66.053 0.057926 139.46 0.057926 139.46 0.998273 32.904
8.83960000 0.998292 66.041 0.058128 139.44 0.058128 139.44 0.998261 32.876
8.83980000 0.998280 66.030 0.058333 139.42 0.058333 139.42 0.998249 32.848
8.84000000 0.998268 66.018 0.058539 139.40 0.058539 139.40 0.998236 32.820
8.84020000 0.998256 66.006 0.058747 139.38 0.058747 139.38 0.998224 32.792
8.84040000 0.998243 65.994 0.058957 139.36 0.058957 139.36 0.998211 32.763
8.84060000 0.998230 65.982 0.059170 139.34 0.059170 139.34 0.998198 32.734
8.84080000 0.998218 65.970 0.059384 139.32 0.059384 139.32 0.998185 32.705
8.84100000 0.998205 65.958 0.059600 139.30 0.059600 139.30 0.998171 32.676
8.84120000 0.998191 65.946 0.059818 139.27 0.059818 139.27 0.998158 32.646
8.84140000 0.998178 65.933 0.060039 139.25 0.060039 139.25 0.998144 32.617
8.84160000 0.998165 65.921 0.060261 139.23 0.060261 139.23 0.998130 32.587
8.84180000 0.998151 65.909 0.060486 139.21 0.060486 139.21 0.998116 32.556
8.84200000 0.998137 65.896 0.060713 139.19 0.060713 139.19 0.998102 32.526
8.84220000 0.998123 65.884 0.060942 139.17 0.060942 139.17 0.998088 32.495
8.84240000 0.998109 65.871 0.061174 139.15 0.061174 139.15 0.998073 32.464
8.84260000 0.998094 65.859 0.061408 139.12 0.061408 139.12 0.998058 32.433
8.84280000 0.998079 65.846 0.061644 139.10 0.061644 139.10 0.998043 32.401
8.84300000 0.998065 65.833 0.061883 139.08 0.061883 139.08 0.998028 32.369
8.84320000 0.998049 65.820 0.062124 139.06 0.062124 139.06 0.998012 32.337
8.84340000 0.998034 65.807 0.062367 139.03 0.062367 139.03 0.997997 32.305
8.84360000 0.998019 65.794 0.062613 139.01 0.062613 139.01 0.997981 32.272
8.84380000 0.998003 65.781 0.062862 138.99 0.062862 138.99 0.997965 32.239
8.84400000 0.997987 65.768 0.063113 138.96 0.063113 138.96 0.997948 32.206
8.84420000 0.997971 65.755 0.063367 138.94 0.063367 138.94 0.997932 32.172
8.84440000 0.997954 65.742 0.063623 138.92 0.063623 138.92 0.997915 32.138
8.84460000 0.997938 65.728 0.063882 138.89 0.063882 138.89 0.997898 32.104
8.84480000 0.997921 65.715 0.064144 138.87 0.064144 138.87 0.997880 32.069
8.84500000 0.997903 65.702 0.064409 138.84 0.064409 138.84 0.997863 32.034
8.84520000 0.997886 65.688 0.064676 138.82 0.064676 138.82 0.997845 31.999
8.84540000 0.997868 65.674 0.064946 138.79 0.064946 138.79 0.997827 31.964
8.84560000 0.997850 65.661 0.065220 138.77 0.065220 138.77 0.997808 31.928
8.84580000 0.997832 65.647 0.065496 138.74 0.065496 138.74 0.997789 31.892
8.84600000 0.997813 65.633 0.065775 138.72 0.065775 138.72 0.997770 31.855
8.84620000 0.997795 65.619 0.066057 138.69 0.066057 138.69 0.997751 31.818
8.84640000 0.997776 65.605 0.066343 138.67 0.066343 138.67 0.997731 31.781
8.84660000 0.997756 65.591 0.066631 138.64 0.066631 138.64 0.997712 31.743
8.84680000 0.997736 65.576 0.066923 138.61 0.066923 138.61 0.997691 31.705
8.84700000 0.997716 65.562 0.067218 138.59 0.067218 138.59 0.997671 31.667
8.84720000 0.997696 65.547 0.067517 138.56 0.067517 138.56 0.997650 31.628
8.84740000 0.997675 65.533 0.067819 138.53 0.067819 138.53 0.997629 31.589
8.84760000 0.997654 65.518 0.068124 138.51 0.068124 138.51 0.997607 31.549
8.84780000 0.997633 65.503 0.068433 138.48 0.068433 138.48 0.997585 31.509
8.84800000 0.997611 65.489 0.068745 138.45 0.068745 138.45 0.997563 31.469
8.84820000 0.997589 65.474 0.069061 138.42 0.069061 138.42 0.997541 31.428
8.84840000 0.997567 65.459 0.069381 138.40 0.069381 138.40 0.997518 31.387
8.84860000 0.997544 65.443 0.069704 138.37 0.069704 138.37 0.997494 31.345
8.84880000 0.997521 65.428 0.070032 138.34 0.070032 138.34 0.997471 31.303
8.84900000 0.997498 65.413 0.070363 138.31 0.070363 138.31 0.997447 31.261
8.84920000 0.997474 65.397 0.070698 138.28 0.070698 138.28 0.997422 31.218
8.84940000 0.997449 65.382 0.071037 138.25 0.071037 138.25 0.997397 31.174
8.84960000 0.997425 65.366 0.071381 138.22 0.071381 138.22 0.997372 31.130
8.84980000 0.997400 65.350 0.071728 138.19 0.071728 138.19 0.997346 31.086
8.85000000 0.997374 65.334 0.072080 138.16 0.072080 138.16 0.997320 31.041
8.85020000 0.997348 65.318 0.072436 138.13 0.072436 138.13 0.997293 30.995
8.85040000 0.997322 65.302 0.072796 138.10 0.072796 138.10 0.997266 30.949
8.85060000 0.997295 65.285 0.073161 138.06 0.073161 138.06 0.997238 30.903
8.85080000 0.997267 65.269 0.073531 138.03 0.073531 138.03 0.997210 30.856
8.85100000 0.997239 65.252 0.073905 138.00 0.073905 138.00 0.997181 30.809
8.85120000 0.997211 65.235 0.074284 137.97 0.074284 137.97 0.997152 30.760
8.85140000 0.997182 65.218 0.074668 137.93 0.074668 137.93 0.997122 30.712
8.85160000 0.997152 65.201 0.075057 137.90 0.075057 137.90 0.997092 30.663
8.85180000 0.997122 65.184 0.075451 137.87 0.075451 137.87 0.997061 30.613
8.85200000 0.997092 65.167 0.075850 137.83 0.075850 137.83 0.997030 30.562
8.85220000 0.997061 65.149 0.076254 137.80 0.076254 137.80 0.996998 30.511
8.85240000 0.997029 65.132 0.076664 137.76 0.076664 137.76 0.996966 30.460
8.85250075 0.997013 65.123 0.076872 137.75 0.076872 137.75 0.996949 30.433
8.85260000 0.996997 65.114 0.077079 137.73 0.077079 137.73 0.996932 30.407
8.85280000 0.996964 65.096 0.077500 137.69 0.077500 137.69 0.996899 30.355
8.85300000 0.996930 65.078 0.077926 137.66 0.077926 137.66 0.996864 30.301
8.85318545 0.996899 65.061 0.078326 137.62 0.078326 137.62 0.996832 30.251
8.85320000 0.996896 65.060 0.078358 137.62 0.078358 137.62 0.996829 30.247
8.85340000 0.996861 65.041 0.078796 137.58 0.078796 137.58 0.996793 30.192
8.85360000 0.996826 65.023 0.079240 137.55 0.079240 137.55 0.996757 30.136
8.85380000 0.996790 65.004 0.079690 137.51 0.079690 137.51 0.996720 30.080
8.85385445 0.996780 64.999 0.079814 137.50 0.079814 137.50 0.996710 30.064
8.85400000 0.996753 64.985 0.080147 137.47 0.080147 137.47 0.996682 30.023
8.85420000 0.996715 64.966 0.080610 137.43 0.080610 137.43 0.996643 29.965
8.85440000 0.996677 64.946 0.081079 137.39 0.081079 137.39 0.996604 29.907
8.85450813 0.996656 64.936 0.081336 137.37 0.081336 137.37 0.996582 29.875
8.85460000 0.996637 64.927 0.081555 137.35 0.081555 137.35 0.996563 29.847
8.85480000 0.996597 64.907 0.082038 137.31 0.082038 137.31 0.996522 29.787
8.85500000 0.996557 64.887 0.082528 137.27 0.082528 137.27 0.996480 29.726
8.85514683 0.996526 64.872 0.082892 137.24 0.082892 137.24 0.996449 29.681
8.85520000 0.996515 64.867 0.083025 137.23 0.083025 137.23 0.996438 29.664
8.85540000 0.996472 64.847 0.083530 137.19 0.083530 137.19 0.996394 29.602
8.85560000 0.996429 64.826 0.084041 137.15 0.084041 137.15 0.996349 29.538
8.85577089 0.996391 64.808 0.084485 137.11 0.084485 137.11 0.996311 29.483
8.85580000 0.996385 64.805 0.084561 137.10 0.084561 137.10 0.996304 29.474
8.85600000 0.996339 64.784 0.085088 137.06 0.085088 137.06 0.996257 29.409
8.85620000 0.996293 64.763 0.085623 137.02 0.085623 137.02 0.996210 29.342
8.85638066 0.996250 64.744 0.086114 136.98 0.086114 136.98 0.996166 29.282
8.85640000 0.996246 64.742 0.086167 136.97 0.086167 136.97 0.996161 29.275
8.85660000 0.996197 64.720 0.086718 136.93 0.086718 136.93 0.996112 29.207
8.85680000 0.996148 64.698 0.087279 136.88 0.087279 136.88 0.996061 29.138
8.85697645 0.996104 64.679 0.087780 136.84 0.087780 136.84 0.996015 29.076
8.85700000 0.996098 64.676 0.087848 136.83 0.087848 136.83 0.996009 29.068
8.85720000 0.996046 64.654 0.088425 136.79 0.088425 136.79 0.995956 28.997
8.85740000 0.995993 64.631 0.089012 136.74 0.089012 136.74 0.995902 28.925
8.85755859 0.995951 64.613 0.089484 136.70 0.089484 136.70 0.995858 28.867
8.85760000 0.995939 64.608 0.089609 136.69 0.089609 136.69 0.995846 28.851
8.85780000 0.995884 64.585 0.090215 136.64 0.090215 136.64 0.995790 28.777
8.85800000 0.995828 64.561 0.090830 136.59 0.090830 136.59 0.995732 28.701
8.85812739 0.995791 64.546 0.091228 136.56 0.091228 136.56 0.995694 28.653
8.85820000 0.995770 64.538 0.091456 136.54 0.091456 136.54 0.995672 28.625
8.85840000 0.995711 64.513 0.092092 136.49 0.092092 136.49 0.995611 28.547
8.85860000 0.995650 64.489 0.092739 136.44 0.092739 136.44 0.995549 28.468
8.85868316 0.995624 64.479 0.093011 136.41 0.093011 136.41 0.995523 28.434
8.85880000 0.995588 64.464 0.093396 136.38 0.093396 136.38 0.995485 28.387
8.85900000 0.995524 64.439 0.094065 136.33 0.094065 136.33 0.995420 28.306
8.85920000 0.995459 64.414 0.094745 136.28 0.094745 136.28 0.995353 28.222
8.85922619 0.995451 64.411 0.094834 136.27 0.094834 136.27 0.995344 28.212
8.85940000 0.995393 64.388 0.095436 136.22 0.095436 136.22 0.995285 28.138
8.85960000 0.995324 64.362 0.096140 136.16 0.096140 136.16 0.995214 28.052
8.85975678 0.995270 64.342 0.096700 136.12 0.096700 136.12 0.995158 27.984
8.85980000 0.995254 64.336 0.096855 136.11 0.096855 136.11 0.995142 27.965
8.86000000 0.995182 64.309 0.097584 136.05 0.097584 136.05 0.995069 27.876
8.86020000 0.995109 64.282 0.098325 135.99 0.098325 135.99 0.994993 27.786
8.86027522 0.995081 64.272 0.098607 135.97 0.098607 135.97 0.994964 27.752
8.86040000 0.995033 64.255 0.099079 135.93 0.099079 135.93 0.994915 27.694
8.86060000 0.994956 64.227 0.099848 135.87 0.099848 135.87 0.994836 27.601
8.86078177 0.994884 64.202 0.100558 135.81 0.100558 135.81 0.994761 27.515
8.86080000 0.994876 64.199 0.100630 135.81 0.100630 135.81 0.994754 27.506
8.86100000 0.994795 64.170 0.101426 135.74 0.101426 135.74 0.994670 27.410
8.86120000 0.994711 64.141 0.102238 135.68 0.102238 135.68 0.994584 27.311
8.86127671 0.994678 64.130 0.102553 135.65 0.102553 135.65 0.994550 27.273
8.86140000 0.994625 64.112 0.103064 135.61 0.103064 135.61 0.994495 27.211
8.86160000 0.994536 64.082 0.103906 135.55 0.103906 135.55 0.994404 27.109
8.86176032 0.994464 64.058 0.104593 135.49 0.104593 135.49 0.994330 27.026
8.86180000 0.994445 64.052 0.104764 135.48 0.104764 135.48 0.994311 27.005
8.86200000 0.994352 64.021 0.105639 135.41 0.105639 135.41 0.994215 26.899
8.86220000 0.994256 63.989 0.106531 135.34 0.106531 135.34 0.994116 26.792
8.86223284 0.994240 63.984 0.106679 135.33 0.106679 135.33 0.994099 26.774
8.86240000 0.994157 63.958 0.107440 135.27 0.107440 135.27 0.994014 26.682
8.86260000 0.994055 63.925 0.108367 135.20 0.108367 135.20 0.993910 26.570
8.86269454 0.994006 63.910 0.108812 135.16 0.108812 135.16 0.993859 26.516
8.86280000 0.993951 63.893 0.109313 135.12 0.109313 135.12 0.993802 26.456
8.86300000 0.993843 63.859 0.110278 135.05 0.110278 135.05 0.993692 26.339
8.86314566 0.993763 63.834 0.110993 134.99 0.110993 134.99 0.993609 26.253
8.86320000 0.993732 63.825 0.111262 134.97 0.111262 134.97 0.993578 26.221
8.86340000 0.993618 63.791 0.112267 134.89 0.112267 134.89 0.993460 26.100
8.86358644 0.993509 63.758 0.113223 134.82 0.113223 134.82 0.993348 25.984
8.86360000 0.993501 63.756 0.113293 134.81 0.113293 134.81 0.993339 25.976
8.86380000 0.993380 63.720 0.114340 134.73 0.114340 134.73 0.993215 25.850
8.86400000 0.993255 63.684 0.115410 134.65 0.115410 134.65 0.993086 25.721
8.86401712 0.993244 63.680 0.115502 134.64 0.115502 134.64 0.993075 25.710
8.86420000 0.993126 63.647 0.116502 134.56 0.116502 134.56 0.992954 25.590
8.86440000 0.992993 63.609 0.117619 134.48 0.117619 134.48 0.992817 25.456
8.86443793 0.992967 63.602 0.117833 134.46 0.117833 134.46 0.992791 25.430
8.86460000 0.992856 63.571 0.118759 134.39 0.118759 134.39 0.992676 25.319
8.86480000 0.992715 63.532 0.119925 134.30 0.119925 134.30 0.992531 25.178
8.86484910 0.992679 63.522 0.120215 134.27 0.120215 134.27 0.992494 25.144
8.86500000 0.992568 63.492 0.121117 134.20 0.121117 134.20 0.992380 25.035
8.86520000 0.992417 63.451 0.122336 134.11 0.122336 134.11 0.992225 24.889
8.86525085 0.992378 63.441 0.122651 134.09 0.122651 134.09 0.992185 24.851
8.86540000 0.992261 63.410 0.123584 134.01 0.123584 134.01 0.992064 24.739
8.86560000 0.992100 63.368 0.124859 133.92 0.124859 133.92 0.991898 24.586
8.86564339 0.992064 63.359 0.125140 133.89 0.125140 133.89 0.991862 24.553
8.86580000 0.991933 63.325 0.126165 133.81 0.126165 133.81 0.991727 24.430
8.86600000 0.991761 63.281 0.127502 133.71 0.127502 133.71 0.991549 24.269
8.86602694 0.991737 63.275 0.127685 133.70 0.127685 133.70 0.991525 24.248
8.86620000 0.991582 63.236 0.128871 133.61 0.128871 133.61 0.991365 24.105
8.86640000 0.991397 63.191 0.130273 133.50 0.130273 133.50 0.991175 23.937
8.86640170 0.991395 63.190 0.130285 133.50 0.130285 133.50 0.991173 23.936
8.86660000 0.991205 63.144 0.131709 133.39 0.131709 133.39 0.990977 23.765
8.86676787 0.991039 63.104 0.132942 133.29 0.132942 133.29 0.990806 23.618
8.86680000 0.991007 63.096 0.133181 133.28 0.133181 133.28 0.990773 23.589
8.86700000 0.990801 63.048 0.134690 133.16 0.134690 133.16 0.990561 23.408
8.86712565 0.990667 63.017 0.135658 133.09 0.135658 133.09 0.990424 23.292
8.86720000 0.990587 62.998 0.136238 133.04 0.136238 133.04 0.990341 23.223
8.86740000 0.990365 62.947 0.137825 132.92 0.137825 132.92 0.990113 23.033
8.86747524 0.990280 62.928 0.138433 132.87 0.138433 132.87 0.990024 22.960
8.86760000 0.990135 62.895 0.139454 132.80 0.139454 132.80 0.989875 22.838
8.86780000 0.989896 62.842 0.141126 132.67 0.141126 132.67 0.989629 22.638
8.86781681 0.989875 62.838 0.141268 132.66 0.141268 132.66 0.989608 22.621
8.86800000 0.989647 62.788 0.142842 132.54 0.142842 132.54 0.989373 22.432
8.86815056 0.989453 62.746 0.144165 132.44 0.144165 132.44 0.989174 22.274
8.86820000 0.989388 62.732 0.144605 132.40 0.144605 132.40 0.989107 22.221
8.86840000 0.989119 62.675 0.146416 132.26 0.146416 132.26 0.988830 22.004
8.86847665 0.989013 62.653 0.147124 132.21 0.147124 132.21 0.988721 21.919
8.86860000 0.988839 62.616 0.148278 132.12 0.148278 132.12 0.988541 21.781
8.86879528 0.988554 62.558 0.150147 131.98 0.150147 131.98 0.988248 21.557
8.86880000 0.988547 62.556 0.150192 131.98 0.150192 131.98 0.988241 21.552
8.86900000 0.988243 62.495 0.152161 131.83 0.152161 131.83 0.987928 21.316
8.86910661 0.988076 62.462 0.153234 131.74 0.153234 131.74 0.987755 21.188
8.86920000 0.987926 62.432 0.154187 131.67 0.154187 131.67 0.987601 21.073
8.86940000 0.987595 62.367 0.156273 131.51 0.156273 131.51 0.987260 20.823
8.86941080 0.987577 62.364 0.156387 131.50 0.156387 131.50 0.987241 20.810
8.86960000 0.987249 62.301 0.158420 131.35 0.158420 131.35 0.986904 20.566
8.86970802 0.987056 62.264 0.159607 131.26 0.159607 131.26 0.986705 20.424
8.86980000 0.986888 62.233 0.160633 131.18 0.160633 131.18 0.986532 20.301
8.86999843 0.986513 62.163 0.162895 131.01 0.162895 131.01 0.986146 20.029
8.87000000 0.986510 62.163 0.162913 131.01 0.162913 131.01 0.986143 20.027
8.87020000 0.986115 62.091 0.165264 130.83 0.165264 130.83 0.985736 19.745
8.87028219 0.985948 62.061 0.166252 130.76 0.166252 130.76 0.985563 19.627
8.87040000 0.985702 62.017 0.167689 130.65 0.167689 130.65 0.985310 19.454