! Sonnet Data File
! From: emgraph Version : 16.52
! From Project: Resonator2
! Data is De-embedded 
! Data File Written: 10/06/2017 09:13:21
!< HDATE 10/05/2017 15:18:40
!< MDATE 10/05/2017 15:18:40
!< PARAMS
!< gap = 26.0
!< Length = 400.0
!< Pwid1 = 2000.0
!< Pwid2 = 2000.0
!< END PARAMS
# GHZ S MA R 50.0 !  non standard terminations in data
! TERM 51.80000 0.000000 35.97000 0.000000
8.80000000 0.999993 70.626 5.262e-4 -39.64 5.262e-4 -39.64 0.999995 30.075
!< P1 F=8.8 Eeff=(6.44679989 -2.9721e-5) Z0=(51.7992624 1.19519e-4) R=0.0 C=0.0 
!< P2 F=8.8 Eeff=(5.36817953 -2.3731e-5) Z0=(35.9853883 8.0522e-5) R=0.0 C=0.0 
8.80020000 0.999993 70.620 5.252e-4 -39.64 5.252e-4 -39.64 0.999995 30.071
8.80040000 0.999993 70.614 5.242e-4 -39.65 5.242e-4 -39.65 0.999995 30.067
8.80060000 0.999993 70.608 5.232e-4 -39.65 5.232e-4 -39.65 0.999995 30.063
8.80080000 0.999993 70.602 5.221e-4 -39.66 5.221e-4 -39.66 0.999995 30.060
8.80100000 0.999993 70.596 5.211e-4 -39.66 5.211e-4 -39.66 0.999995 30.056
8.80120000 0.999993 70.590 5.201e-4 -39.66 5.201e-4 -39.66 0.999994 30.052
8.80140000 0.999993 70.584 5.190e-4 -39.67 5.190e-4 -39.67 0.999994 30.048
8.80160000 0.999993 70.578 5.180e-4 -39.67 5.180e-4 -39.67 0.999994 30.044
8.80180000 0.999993 70.572 5.170e-4 -39.68 5.170e-4 -39.68 0.999994 30.041
8.80200000 0.999993 70.566 5.159e-4 -39.68 5.159e-4 -39.68 0.999994 30.037
8.80220000 0.999993 70.560 5.149e-4 -39.69 5.149e-4 -39.69 0.999994 30.033
8.80240000 0.999993 70.554 5.138e-4 -39.69 5.138e-4 -39.69 0.999994 30.029
8.80260000 0.999993 70.548 5.127e-4 -39.70 5.127e-4 -39.70 0.999994 30.025
8.80280000 0.999993 70.542 5.117e-4 -39.70 5.117e-4 -39.70 0.999994 30.022
8.80300000 0.999993 70.536 5.106e-4 -39.71 5.106e-4 -39.71 0.999994 30.018
8.80320000 0.999993 70.530 5.095e-4 -39.71 5.095e-4 -39.71 0.999994 30.014
8.80340000 0.999993 70.524 5.084e-4 -39.72 5.084e-4 -39.72 0.999994 30.010
8.80360000 0.999993 70.518 5.073e-4 -39.72 5.073e-4 -39.72 0.999994 30.006
8.80380000 0.999993 70.512 5.062e-4 -39.73 5.062e-4 -39.73 0.999994 30.002
8.80400000 0.999993 70.506 5.051e-4 -39.73 5.051e-4 -39.73 0.999994 29.999
8.80420000 0.999993 70.500 5.040e-4 -39.74 5.040e-4 -39.74 0.999994 29.995
8.80440000 0.999993 70.494 5.029e-4 -39.74 5.029e-4 -39.74 0.999994 29.991
8.80460000 0.999993 70.488 5.018e-4 -39.75 5.018e-4 -39.75 0.999994 29.987
8.80480000 0.999993 70.482 5.007e-4 -39.75 5.007e-4 -39.75 0.999994 29.983
8.80500000 0.999993 70.476 4.995e-4 -39.76 4.995e-4 -39.76 0.999994 29.980
8.80520000 0.999993 70.470 4.984e-4 -39.76 4.984e-4 -39.76 0.999994 29.976
8.80540000 0.999993 70.464 4.973e-4 -39.77 4.973e-4 -39.77 0.999994 29.972
8.80560000 0.999993 70.458 4.961e-4 -39.77 4.961e-4 -39.77 0.999994 29.968
8.80580000 0.999993 70.452 4.950e-4 -39.78 4.950e-4 -39.78 0.999994 29.964
8.80600000 0.999993 70.446 4.938e-4 -39.78 4.938e-4 -39.78 0.999994 29.960
8.80620000 0.999993 70.440 4.927e-4 -39.79 4.927e-4 -39.79 0.999994 29.956
8.80640000 0.999993 70.434 4.915e-4 -39.79 4.915e-4 -39.79 0.999994 29.953
8.80660000 0.999993 70.428 4.903e-4 -39.79 4.903e-4 -39.79 0.999994 29.949
8.80680000 0.999993 70.422 4.892e-4 -39.80 4.892e-4 -39.80 0.999994 29.945
8.80700000 0.999993 70.416 4.880e-4 -39.80 4.880e-4 -39.80 0.999994 29.941
8.80720000 0.999993 70.410 4.868e-4 -39.81 4.868e-4 -39.81 0.999994 29.937
8.80740000 0.999993 70.404 4.856e-4 -39.81 4.856e-4 -39.81 0.999994 29.933
8.80760000 0.999993 70.398 4.844e-4 -39.82 4.844e-4 -39.82 0.999994 29.930
8.80780000 0.999993 70.392 4.832e-4 -39.82 4.832e-4 -39.82 0.999994 29.926
8.80800000 0.999993 70.386 4.820e-4 -39.83 4.820e-4 -39.83 0.999994 29.922
8.80820000 0.999993 70.380 4.807e-4 -39.83 4.807e-4 -39.83 0.999994 29.918
8.80840000 0.999993 70.374 4.795e-4 -39.84 4.795e-4 -39.84 0.999994 29.914
8.80860000 0.999993 70.368 4.783e-4 -39.84 4.783e-4 -39.84 0.999994 29.910
8.80880000 0.999993 70.362 4.771e-4 -39.85 4.771e-4 -39.85 0.999994 29.906
8.80900000 0.999993 70.356 4.758e-4 -39.85 4.758e-4 -39.85 0.999994 29.903
8.80920000 0.999993 70.350 4.746e-4 -39.86 4.746e-4 -39.86 0.999994 29.899
8.80940000 0.999993 70.343 4.733e-4 -39.86 4.733e-4 -39.86 0.999994 29.895
8.80960000 0.999993 70.337 4.720e-4 -39.87 4.720e-4 -39.87 0.999994 29.891
8.80980000 0.999993 70.331 4.708e-4 -39.87 4.708e-4 -39.87 0.999994 29.887
8.81000000 0.999993 70.325 4.695e-4 -39.88 4.695e-4 -39.88 0.999994 29.883
8.81020000 0.999993 70.319 4.682e-4 -39.88 4.682e-4 -39.88 0.999994 29.879
8.81040000 0.999993 70.313 4.669e-4 -39.89 4.669e-4 -39.89 0.999994 29.875
8.81060000 0.999993 70.307 4.656e-4 -39.89 4.656e-4 -39.89 0.999994 29.872
8.81080000 0.999993 70.301 4.644e-4 -39.90 4.644e-4 -39.90 0.999994 29.868
8.81100000 0.999993 70.295 4.630e-4 -39.90 4.630e-4 -39.90 0.999994 29.864
8.81120000 0.999993 70.289 4.617e-4 -39.91 4.617e-4 -39.91 0.999994 29.860
8.81140000 0.999993 70.283 4.604e-4 -39.91 4.604e-4 -39.91 0.999994 29.856
8.81160000 0.999993 70.277 4.591e-4 -39.91 4.591e-4 -39.91 0.999994 29.852
8.81180000 0.999993 70.271 4.578e-4 -39.92 4.578e-4 -39.92 0.999994 29.848
8.81200000 0.999993 70.265 4.564e-4 -39.92 4.564e-4 -39.92 0.999994 29.844
8.81220000 0.999994 70.259 4.551e-4 -39.93 4.551e-4 -39.93 0.999994 29.840
8.81240000 0.999994 70.253 4.537e-4 -39.93 4.537e-4 -39.93 0.999994 29.836
8.81260000 0.999994 70.247 4.524e-4 -39.94 4.524e-4 -39.94 0.999994 29.833
8.81280000 0.999994 70.241 4.510e-4 -39.94 4.510e-4 -39.94 0.999994 29.829
8.81300000 0.999994 70.235 4.496e-4 -39.95 4.496e-4 -39.95 0.999994 29.825
8.81320000 0.999994 70.229 4.482e-4 -39.95 4.482e-4 -39.95 0.999994 29.821
8.81340000 0.999994 70.223 4.469e-4 -39.96 4.469e-4 -39.96 0.999994 29.817
8.81360000 0.999994 70.217 4.455e-4 -39.96 4.455e-4 -39.96 0.999994 29.813
8.81380000 0.999994 70.211 4.441e-4 -39.97 4.441e-4 -39.97 0.999994 29.809
8.81400000 0.999994 70.205 4.427e-4 -39.97 4.427e-4 -39.97 0.999994 29.805
8.81420000 0.999994 70.199 4.412e-4 -39.98 4.412e-4 -39.98 0.999994 29.801
8.81440000 0.999994 70.193 4.398e-4 -39.98 4.398e-4 -39.98 0.999994 29.797
8.81460000 0.999994 70.187 4.384e-4 -39.99 4.384e-4 -39.99 0.999994 29.793
8.81480000 0.999994 70.181 4.369e-4 -39.99 4.369e-4 -39.99 0.999994 29.789
8.81500000 0.999994 70.175 4.355e-4 -40.00 4.355e-4 -40.00 0.999994 29.786
8.81520000 0.999994 70.169 4.341e-4 -40.00 4.341e-4 -40.00 0.999994 29.782
8.81540000 0.999994 70.163 4.326e-4 -40.01 4.326e-4 -40.01 0.999994 29.778
8.81560000 0.999994 70.157 4.311e-4 -40.01 4.311e-4 -40.01 0.999994 29.774
8.81580000 0.999994 70.151 4.297e-4 -40.02 4.297e-4 -40.02 0.999994 29.770
8.81600000 0.999994 70.145 4.282e-4 -40.02 4.282e-4 -40.02 0.999994 29.766
8.81620000 0.999994 70.139 4.267e-4 -40.03 4.267e-4 -40.03 0.999994 29.762
8.81640000 0.999994 70.133 4.252e-4 -40.03 4.252e-4 -40.03 0.999994 29.758
8.81660000 0.999994 70.127 4.237e-4 -40.03 4.237e-4 -40.03 0.999994 29.754
8.81680000 0.999994 70.121 4.222e-4 -40.04 4.222e-4 -40.04 0.999994 29.750
8.81700000 0.999994 70.115 4.206e-4 -40.04 4.206e-4 -40.04 0.999994 29.746
8.81720000 0.999994 70.109 4.191e-4 -40.05 4.191e-4 -40.05 0.999994 29.742
8.81740000 0.999994 70.103 4.176e-4 -40.05 4.176e-4 -40.05 0.999994 29.738
8.81760000 0.999994 70.097 4.160e-4 -40.06 4.160e-4 -40.06 0.999994 29.734
8.81780000 0.999994 70.091 4.145e-4 -40.06 4.145e-4 -40.06 0.999994 29.730
8.81800000 0.999994 70.085 4.129e-4 -40.07 4.129e-4 -40.07 0.999994 29.726
8.81820000 0.999994 70.079 4.113e-4 -40.07 4.113e-4 -40.07 0.999994 29.722
8.81840000 0.999994 70.073 4.098e-4 -40.08 4.098e-4 -40.08 0.999994 29.718
8.81860000 0.999994 70.067 4.082e-4 -40.08 4.082e-4 -40.08 0.999994 29.714
8.81880000 0.999994 70.061 4.066e-4 -40.09 4.066e-4 -40.09 0.999994 29.710
8.81900000 0.999994 70.055 4.050e-4 -40.09 4.050e-4 -40.09 0.999994 29.706
8.81920000 0.999994 70.049 4.034e-4 -40.10 4.034e-4 -40.10 0.999994 29.702
8.81940000 0.999994 70.043 4.017e-4 -40.10 4.017e-4 -40.10 0.999994 29.698
8.81960000 0.999994 70.037 4.001e-4 -40.11 4.001e-4 -40.11 0.999994 29.694
8.81980000 0.999994 70.030 3.985e-4 -40.11 3.985e-4 -40.11 0.999994 29.690
8.82000000 0.999994 70.024 3.968e-4 -40.12 3.968e-4 -40.12 0.999994 29.686
8.82020000 0.999994 70.018 3.952e-4 -40.12 3.952e-4 -40.12 0.999994 29.682
8.82040000 0.999994 70.012 3.935e-4 -40.13 3.935e-4 -40.13 0.999994 29.678
8.82060000 0.999994 70.006 3.918e-4 -40.13 3.918e-4 -40.13 0.999994 29.674
8.82080000 0.999994 70.000 3.902e-4 -40.13 3.902e-4 -40.13 0.999994 29.670
8.82100000 0.999994 69.994 3.885e-4 -40.14 3.885e-4 -40.14 0.999994 29.666
8.82120000 0.999994 69.988 3.868e-4 -40.14 3.868e-4 -40.14 0.999994 29.662
8.82140000 0.999994 69.982 3.851e-4 -40.15 3.851e-4 -40.15 0.999994 29.658
8.82160000 0.999994 69.976 3.833e-4 -40.15 3.833e-4 -40.15 0.999994 29.654
8.82180000 0.999994 69.970 3.816e-4 -40.16 3.816e-4 -40.16 0.999994 29.650
8.82200000 0.999994 69.964 3.799e-4 -40.16 3.799e-4 -40.16 0.999994 29.646
8.82220000 0.999994 69.958 3.781e-4 -40.17 3.781e-4 -40.17 0.999994 29.642
8.82240000 0.999994 69.952 3.764e-4 -40.17 3.764e-4 -40.17 0.999994 29.638
8.82260000 0.999994 69.946 3.746e-4 -40.18 3.746e-4 -40.18 0.999994 29.634
8.82280000 0.999994 69.940 3.728e-4 -40.18 3.728e-4 -40.18 0.999994 29.630
8.82300000 0.999994 69.934 3.710e-4 -40.19 3.710e-4 -40.19 0.999994 29.626
8.82320000 0.999994 69.928 3.692e-4 -40.19 3.692e-4 -40.19 0.999994 29.622
8.82340000 0.999994 69.922 3.674e-4 -40.20 3.674e-4 -40.20 0.999994 29.618
8.82360000 0.999994 69.916 3.656e-4 -40.20 3.656e-4 -40.20 0.999994 29.614
8.82380000 0.999994 69.910 3.638e-4 -40.21 3.638e-4 -40.21 0.999994 29.610
8.82400000 0.999994 69.904 3.619e-4 -40.21 3.619e-4 -40.21 0.999994 29.606
8.82420000 0.999994 69.898 3.601e-4 -40.22 3.601e-4 -40.22 0.999994 29.601
8.82440000 0.999994 69.892 3.582e-4 -40.22 3.582e-4 -40.22 0.999994 29.597
8.82460000 0.999994 69.886 3.564e-4 -40.22 3.564e-4 -40.22 0.999994 29.593
8.82480000 0.999994 69.880 3.545e-4 -40.23 3.545e-4 -40.23 0.999994 29.589
8.82500000 0.999994 69.874 3.526e-4 -40.23 3.526e-4 -40.23 0.999994 29.585
8.82520000 0.999994 69.868 3.507e-4 -40.24 3.507e-4 -40.24 0.999994 29.581
8.82540000 0.999994 69.862 3.488e-4 -40.24 3.488e-4 -40.24 0.999994 29.577
8.82560000 0.999994 69.856 3.469e-4 -40.25 3.469e-4 -40.25 0.999994 29.573
8.82580000 0.999994 69.850 3.450e-4 -40.25 3.450e-4 -40.25 0.999994 29.569
8.82600000 0.999994 69.844 3.430e-4 -40.26 3.430e-4 -40.26 0.999994 29.565
8.82620000 0.999994 69.838 3.411e-4 -40.26 3.411e-4 -40.26 0.999994 29.561
8.82640000 0.999994 69.832 3.391e-4 -40.27 3.391e-4 -40.27 0.999994 29.556
8.82660000 0.999994 69.826 3.371e-4 -40.27 3.371e-4 -40.27 0.999994 29.552
8.82680000 0.999994 69.820 3.351e-4 -40.28 3.351e-4 -40.28 0.999994 29.548
8.82700000 0.999994 69.814 3.331e-4 -40.28 3.331e-4 -40.28 0.999994 29.544
8.82720000 0.999994 69.808 3.311e-4 -40.29 3.311e-4 -40.29 0.999994 29.540
8.82740000 0.999994 69.802 3.291e-4 -40.29 3.291e-4 -40.29 0.999994 29.536
8.82760000 0.999994 69.796 3.271e-4 -40.29 3.271e-4 -40.29 0.999994 29.532
8.82780000 0.999994 69.790 3.250e-4 -40.30 3.250e-4 -40.30 0.999994 29.528
8.82800000 0.999994 69.784 3.230e-4 -40.30 3.230e-4 -40.30 0.999994 29.523
8.82820000 0.999994 69.778 3.209e-4 -40.31 3.209e-4 -40.31 0.999994 29.519
8.82840000 0.999994 69.772 3.188e-4 -40.31 3.188e-4 -40.31 0.999994 29.515
8.82860000 0.999994 69.766 3.167e-4 -40.32 3.167e-4 -40.32 0.999994 29.511
8.82880000 0.999994 69.759 3.146e-4 -40.32 3.146e-4 -40.32 0.999994 29.507
8.82900000 0.999994 69.753 3.125e-4 -40.33 3.125e-4 -40.33 0.999994 29.503
8.82920000 0.999994 69.747 3.104e-4 -40.33 3.104e-4 -40.33 0.999994 29.498
8.82940000 0.999994 69.741 3.082e-4 -40.34 3.082e-4 -40.34 0.999994 29.494
8.82960000 0.999994 69.735 3.061e-4 -40.34 3.061e-4 -40.34 0.999994 29.490
8.82980000 0.999994 69.729 3.039e-4 -40.34 3.039e-4 -40.34 0.999994 29.486
8.83000000 0.999994 69.723 3.017e-4 -40.35 3.017e-4 -40.35 0.999994 29.482
8.83020000 0.999994 69.717 2.995e-4 -40.35 2.995e-4 -40.35 0.999994 29.478
8.83040000 0.999994 69.711 2.973e-4 -40.36 2.973e-4 -40.36 0.999994 29.473
8.83060000 0.999994 69.705 2.951e-4 -40.36 2.951e-4 -40.36 0.999994 29.469
8.83080000 0.999994 69.699 2.929e-4 -40.37 2.929e-4 -40.37 0.999994 29.465
8.83100000 0.999994 69.693 2.906e-4 -40.37 2.906e-4 -40.37 0.999994 29.461
8.83120000 0.999994 69.687 2.884e-4 -40.38 2.884e-4 -40.38 0.999994 29.457
8.83140000 0.999994 69.681 2.861e-4 -40.38 2.861e-4 -40.38 0.999994 29.452
8.83160000 0.999994 69.675 2.838e-4 -40.38 2.838e-4 -40.38 0.999994 29.448
8.83180000 0.999994 69.669 2.815e-4 -40.39 2.815e-4 -40.39 0.999994 29.444
8.83200000 0.999994 69.663 2.792e-4 -40.39 2.792e-4 -40.39 0.999994 29.440
8.83220000 0.999994 69.657 2.769e-4 -40.40 2.769e-4 -40.40 0.999994 29.435
8.83240000 0.999994 69.651 2.745e-4 -40.40 2.745e-4 -40.40 0.999994 29.431
8.83260000 0.999994 69.645 2.722e-4 -40.41 2.722e-4 -40.41 0.999994 29.427
8.83280000 0.999994 69.639 2.698e-4 -40.41 2.698e-4 -40.41 0.999994 29.423
8.83300000 0.999994 69.633 2.674e-4 -40.42 2.674e-4 -40.42 0.999994 29.418
8.83320000 0.999994 69.627 2.650e-4 -40.42 2.650e-4 -40.42 0.999994 29.414
8.83340000 0.999994 69.621 2.626e-4 -40.42 2.626e-4 -40.42 0.999994 29.410
8.83360000 0.999994 69.615 2.602e-4 -40.43 2.602e-4 -40.43 0.999994 29.406
8.83380000 0.999994 69.609 2.577e-4 -40.43 2.577e-4 -40.43 0.999994 29.401
8.83400000 0.999994 69.603 2.553e-4 -40.44 2.553e-4 -40.44 0.999994 29.397
8.83420000 0.999994 69.597 2.528e-4 -40.44 2.528e-4 -40.44 0.999994 29.393
8.83440000 0.999994 69.591 2.503e-4 -40.44 2.503e-4 -40.44 0.999994 29.389
8.83460000 0.999994 69.585 2.478e-4 -40.45 2.478e-4 -40.45 0.999994 29.384
8.83480000 0.999994 69.579 2.453e-4 -40.45 2.453e-4 -40.45 0.999994 29.380
8.83500000 0.999994 69.573 2.428e-4 -40.46 2.428e-4 -40.46 0.999994 29.376
8.83520000 0.999994 69.567 2.402e-4 -40.46 2.402e-4 -40.46 0.999994 29.371
8.83540000 0.999994 69.561 2.376e-4 -40.47 2.376e-4 -40.47 0.999994 29.367
8.83560000 0.999994 69.555 2.351e-4 -40.47 2.351e-4 -40.47 0.999993 29.363
8.83580000 0.999994 69.549 2.325e-4 -40.47 2.325e-4 -40.47 0.999993 29.358
8.83600000 0.999994 69.543 2.298e-4 -40.48 2.298e-4 -40.48 0.999993 29.354
8.83620000 0.999994 69.537 2.272e-4 -40.48 2.272e-4 -40.48 0.999993 29.350
8.83640000 0.999994 69.530 2.246e-4 -40.48 2.246e-4 -40.48 0.999993 29.345
8.83660000 0.999994 69.524 2.219e-4 -40.49 2.219e-4 -40.49 0.999993 29.341
8.83680000 0.999994 69.518 2.192e-4 -40.49 2.192e-4 -40.49 0.999993 29.337
8.83700000 0.999994 69.512 2.165e-4 -40.50 2.165e-4 -40.50 0.999993 29.332
8.83720000 0.999994 69.506 2.138e-4 -40.50 2.138e-4 -40.50 0.999993 29.328
8.83740000 0.999994 69.500 2.110e-4 -40.50 2.110e-4 -40.50 0.999993 29.324
8.83760000 0.999994 69.494 2.083e-4 -40.51 2.083e-4 -40.51 0.999993 29.319
8.83780000 0.999994 69.488 2.055e-4 -40.51 2.055e-4 -40.51 0.999993 29.315
8.83800000 0.999994 69.482 2.027e-4 -40.51 2.027e-4 -40.51 0.999993 29.310
8.83820000 0.999994 69.476 1.999e-4 -40.52 1.999e-4 -40.52 0.999993 29.306
8.83840000 0.999994 69.470 1.971e-4 -40.52 1.971e-4 -40.52 0.999993 29.302
8.83860000 0.999994 69.464 1.943e-4 -40.52 1.943e-4 -40.52 0.999993 29.297
8.83880000 0.999994 69.458 1.914e-4 -40.53 1.914e-4 -40.53 0.999993 29.293
8.83900000 0.999994 69.452 1.885e-4 -40.53 1.885e-4 -40.53 0.999993 29.288
8.83920000 0.999994 69.446 1.856e-4 -40.53 1.856e-4 -40.53 0.999993 29.284
8.83940000 0.999994 69.440 1.827e-4 -40.54 1.827e-4 -40.54 0.999993 29.279
8.83960000 0.999994 69.434 1.798e-4 -40.54 1.798e-4 -40.54 0.999993 29.275
8.83980000 0.999994 69.428 1.768e-4 -40.54 1.768e-4 -40.54 0.999993 29.271
8.84000000 0.999994 69.422 1.738e-4 -40.54 1.738e-4 -40.54 0.999993 29.266
8.84020000 0.999994 69.416 1.708e-4 -40.55 1.708e-4 -40.55 0.999993 29.262
8.84040000 0.999994 69.410 1.678e-4 -40.55 1.678e-4 -40.55 0.999993 29.257
8.84060000 0.999994 69.404 1.648e-4 -40.55 1.648e-4 -40.55 0.999993 29.253
8.84080000 0.999994 69.398 1.617e-4 -40.55 1.617e-4 -40.55 0.999993 29.248
8.84100000 0.999994 69.392 1.586e-4 -40.56 1.586e-4 -40.56 0.999993 29.244
8.84120000 0.999994 69.386 1.555e-4 -40.56 1.555e-4 -40.56 0.999993 29.239
8.84140000 0.999994 69.380 1.524e-4 -40.56 1.524e-4 -40.56 0.999993 29.235
8.84160000 0.999994 69.374 1.493e-4 -40.56 1.493e-4 -40.56 0.999993 29.230
8.84180000 0.999994 69.368 1.461e-4 -40.56 1.461e-4 -40.56 0.999993 29.226
8.84200000 0.999994 69.362 1.429e-4 -40.57 1.429e-4 -40.57 0.999993 29.221
8.84220000 0.999994 69.356 1.397e-4 -40.57 1.397e-4 -40.57 0.999993 29.217
8.84240000 0.999994 69.350 1.365e-4 -40.57 1.365e-4 -40.57 0.999993 29.212
8.84260000 0.999994 69.344 1.332e-4 -40.57 1.332e-4 -40.57 0.999993 29.208
8.84280000 0.999994 69.337 1.300e-4 -40.57 1.300e-4 -40.57 0.999993 29.203
8.84300000 0.999994 69.331 1.267e-4 -40.57 1.267e-4 -40.57 0.999993 29.198
8.84320000 0.999994 69.325 1.234e-4 -40.57 1.234e-4 -40.57 0.999993 29.194
8.84340000 0.999994 69.319 1.200e-4 -40.57 1.200e-4 -40.57 0.999993 29.189
8.84360000 0.999994 69.313 1.166e-4 -40.57 1.166e-4 -40.57 0.999993 29.185
8.84380000 0.999994 69.307 1.133e-4 -40.56 1.133e-4 -40.56 0.999993 29.180
8.84400000 0.999994 69.301 1.098e-4 -40.56 1.098e-4 -40.56 0.999993 29.176
8.84420000 0.999994 69.295 1.064e-4 -40.56 1.064e-4 -40.56 0.999993 29.171
8.84440000 0.999994 69.289 1.030e-4 -40.56 1.030e-4 -40.56 0.999993 29.166
8.84460000 0.999994 69.283 9.947e-5 -40.55 9.947e-5 -40.55 0.999993 29.162
8.84480000 0.999994 69.277 9.596e-5 -40.55 9.596e-5 -40.55 0.999993 29.157
8.84500000 0.999994 69.271 9.242e-5 -40.54 9.242e-5 -40.54 0.999993 29.152
8.84520000 0.999994 69.265 8.886e-5 -40.54 8.886e-5 -40.54 0.999993 29.148
8.84540000 0.999994 69.259 8.528e-5 -40.53 8.528e-5 -40.53 0.999993 29.143
8.84560000 0.999994 69.253 8.167e-5 -40.52 8.167e-5 -40.52 0.999993 29.138
8.84580000 0.999994 69.247 7.803e-5 -40.51 7.803e-5 -40.51 0.999993 29.134
8.84600000 0.999994 69.241 7.437e-5 -40.50 7.437e-5 -40.50 0.999993 29.129
8.84620000 0.999994 69.235 7.068e-5 -40.49 7.068e-5 -40.49 0.999993 29.124
8.84640000 0.999994 69.229 6.696e-5 -40.47 6.696e-5 -40.47 0.999993 29.120
8.84660000 0.999994 69.223 6.322e-5 -40.45 6.322e-5 -40.45 0.999993 29.115
8.84680000 0.999994 69.217 5.945e-5 -40.43 5.945e-5 -40.43 0.999993 29.110
8.84700000 0.999994 69.211 5.565e-5 -40.41 5.565e-5 -40.41 0.999993 29.105
8.84720000 0.999994 69.205 5.182e-5 -40.38 5.182e-5 -40.38 0.999993 29.101
8.84740000 0.999994 69.199 4.797e-5 -40.34 4.797e-5 -40.34 0.999993 29.096
8.84760000 0.999994 69.193 4.409e-5 -40.30 4.409e-5 -40.30 0.999993 29.091
8.84780000 0.999994 69.187 4.018e-5 -40.25 4.018e-5 -40.25 0.999993 29.086
8.84800000 0.999994 69.181 3.624e-5 -40.18 3.624e-5 -40.18 0.999993 29.082
8.84820000 0.999994 69.174 3.227e-5 -40.10 3.227e-5 -40.10 0.999993 29.077
8.84840000 0.999994 69.168 2.827e-5 -39.98 2.827e-5 -39.98 0.999993 29.072
8.84860000 0.999994 69.162 2.424e-5 -39.83 2.424e-5 -39.83 0.999993 29.067
8.84880000 0.999994 69.156 2.018e-5 -39.62 2.018e-5 -39.62 0.999993 29.062
8.84900000 0.999994 69.150 1.609e-5 -39.29 1.609e-5 -39.29 0.999993 29.058
8.84920000 0.999994 69.144 1.197e-5 -38.73 1.197e-5 -38.73 0.999993 29.053
8.84940000 0.999994 69.138 7.819e-6 -37.55 7.819e-6 -37.55 0.999993 29.048
8.84960000 0.999994 69.132 3.649e-6 -33.66 3.649e-6 -33.66 0.999993 29.043
8.84980000 0.999994 69.126 7.563e-7 101.22 7.563e-7 101.22 0.999993 29.038
8.85000000 0.999994 69.120 4.869e-6 133.57 4.869e-6 133.57 0.999993 29.033
8.85020000 0.999994 69.114 9.141e-6 136.12 9.141e-6 136.12 0.999992 29.028
8.85040000 0.999994 69.108 1.345e-5 137.05 1.345e-5 137.05 0.999992 29.024
8.85060000 0.999994 69.102 1.780e-5 137.52 1.780e-5 137.52 0.999992 29.019
8.85080000 0.999994 69.096 2.218e-5 137.81 2.218e-5 137.81 0.999992 29.014
8.85100000 0.999994 69.090 2.660e-5 138.00 2.660e-5 138.00 0.999992 29.009
8.85120000 0.999994 69.084 3.105e-5 138.14 3.105e-5 138.14 0.999992 29.004
8.85140000 0.999994 69.078 3.554e-5 138.25 3.554e-5 138.25 0.999992 28.999
8.85160000 0.999994 69.072 4.006e-5 138.32 4.006e-5 138.32 0.999992 28.994
8.85180000 0.999994 69.066 4.461e-5 138.39 4.461e-5 138.39 0.999992 28.989
8.85200000 0.999994 69.060 4.921e-5 138.44 4.921e-5 138.44 0.999992 28.984
8.85220000 0.999994 69.054 5.384e-5 138.48 5.384e-5 138.48 0.999992 28.979
8.85240000 0.999994 69.048 5.851e-5 138.51 5.851e-5 138.51 0.999992 28.974
8.85260000 0.999994 69.042 6.321e-5 138.54 6.321e-5 138.54 0.999992 28.969
8.85280000 0.999994 69.035 6.795e-5 138.56 6.795e-5 138.56 0.999992 28.964
8.85300000 0.999994 69.029 7.274e-5 138.58 7.274e-5 138.58 0.999992 28.959
8.85320000 0.999994 69.023 7.756e-5 138.60 7.756e-5 138.60 0.999992 28.954
8.85340000 0.999994 69.017 8.242e-5 138.61 8.242e-5 138.61 0.999992 28.948
8.85360000 0.999994 69.011 8.731e-5 138.63 8.731e-5 138.63 0.999992 28.943
8.85380000 0.999994 69.005 9.225e-5 138.64 9.225e-5 138.64 0.999992 28.938
8.85400000 0.999994 68.999 9.723e-5 138.65 9.723e-5 138.65 0.999992 28.933
8.85420000 0.999994 68.993 1.023e-4 138.65 1.023e-4 138.65 0.999992 28.928
8.85440000 0.999994 68.987 1.073e-4 138.66 1.073e-4 138.66 0.999992 28.923
8.85460000 0.999994 68.981 1.124e-4 138.67 1.124e-4 138.67 0.999992 28.918
8.85480000 0.999994 68.975 1.176e-4 138.67 1.176e-4 138.67 0.999992 28.912
8.85500000 0.999994 68.969 1.228e-4 138.67 1.228e-4 138.67 0.999992 28.907
8.85520000 0.999994 68.963 1.280e-4 138.68 1.280e-4 138.68 0.999992 28.902
8.85540000 0.999994 68.957 1.333e-4 138.68 1.333e-4 138.68 0.999992 28.897
8.85560000 0.999994 68.951 1.386e-4 138.68 1.386e-4 138.68 0.999992 28.892
8.85580000 0.999994 68.945 1.440e-4 138.68 1.440e-4 138.68 0.999992 28.886
8.85600000 0.999994 68.939 1.494e-4 138.68 1.494e-4 138.68 0.999992 28.881
8.85620000 0.999994 68.933 1.548e-4 138.69 1.548e-4 138.69 0.999992 28.876
8.85640000 0.999994 68.927 1.603e-4 138.69 1.603e-4 138.69 0.999992 28.870
8.85660000 0.999994 68.920 1.659e-4 138.68 1.659e-4 138.68 0.999992 28.865
8.85680000 0.999994 68.914 1.715e-4 138.68 1.715e-4 138.68 0.999992 28.860
8.85700000 0.999994 68.908 1.772e-4 138.68 1.772e-4 138.68 0.999992 28.854
8.85720000 0.999994 68.902 1.829e-4 138.68 1.829e-4 138.68 0.999992 28.849
8.85740000 0.999994 68.896 1.886e-4 138.68 1.886e-4 138.68 0.999992 28.844
8.85760000 0.999994 68.890 1.944e-4 138.68 1.944e-4 138.68 0.999992 28.838
8.85780000 0.999994 68.884 2.003e-4 138.68 2.003e-4 138.68 0.999992 28.833
8.85800000 0.999994 68.878 2.062e-4 138.68 2.062e-4 138.68 0.999991 28.827
8.85820000 0.999994 68.872 2.121e-4 138.67 2.121e-4 138.67 0.999991 28.822
8.85840000 0.999994 68.866 2.181e-4 138.67 2.181e-4 138.67 0.999991 28.816
8.85860000 0.999994 68.860 2.242e-4 138.67 2.242e-4 138.67 0.999991 28.811
8.85880000 0.999994 68.854 2.303e-4 138.67 2.303e-4 138.67 0.999991 28.805
8.85900000 0.999994 68.848 2.365e-4 138.66 2.365e-4 138.66 0.999991 28.800
8.85920000 0.999994 68.842 2.427e-4 138.66 2.427e-4 138.66 0.999991 28.794
8.85940000 0.999994 68.836 2.490e-4 138.66 2.490e-4 138.66 0.999991 28.789
8.85960000 0.999994 68.830 2.553e-4 138.65 2.553e-4 138.65 0.999991 28.783
8.85980000 0.999994 68.824 2.618e-4 138.65 2.618e-4 138.65 0.999991 28.777
8.86000000 0.999994 68.817 2.682e-4 138.65 2.682e-4 138.65 0.999991 28.772
8.86020000 0.999994 68.811 2.747e-4 138.64 2.747e-4 138.64 0.999991 28.766
8.86040000 0.999994 68.805 2.813e-4 138.64 2.813e-4 138.64 0.999991 28.761
8.86060000 0.999993 68.799 2.880e-4 138.63 2.880e-4 138.63 0.999991 28.755
8.86080000 0.999993 68.793 2.947e-4 138.63 2.947e-4 138.63 0.999991 28.749
8.86100000 0.999993 68.787 3.014e-4 138.63 3.014e-4 138.63 0.999991 28.743
8.86120000 0.999993 68.781 3.083e-4 138.62 3.083e-4 138.62 0.999991 28.738
8.86140000 0.999993 68.775 3.152e-4 138.62 3.152e-4 138.62 0.999991 28.732
8.86160000 0.999993 68.769 3.221e-4 138.61 3.221e-4 138.61 0.999991 28.726
8.86180000 0.999993 68.763 3.292e-4 138.61 3.292e-4 138.61 0.999991 28.720
8.86200000 0.999993 68.757 3.363e-4 138.61 3.363e-4 138.61 0.999991 28.714
8.86220000 0.999993 68.751 3.434e-4 138.60 3.434e-4 138.60 0.999991 28.708
8.86240000 0.999993 68.745 3.507e-4 138.60 3.507e-4 138.60 0.999991 28.703
8.86260000 0.999993 68.739 3.580e-4 138.59 3.580e-4 138.59 0.999991 28.697
8.86280000 0.999993 68.733 3.654e-4 138.59 3.654e-4 138.59 0.999991 28.691
8.86300000 0.999993 68.726 3.728e-4 138.58 3.728e-4 138.58 0.999990 28.685
8.86320000 0.999993 68.720 3.803e-4 138.58 3.803e-4 138.58 0.999990 28.679
8.86340000 0.999993 68.714 3.879e-4 138.57 3.879e-4 138.57 0.999990 28.673
8.86360000 0.999993 68.708 3.956e-4 138.57 3.956e-4 138.57 0.999990 28.667
8.86380000 0.999993 68.702 4.034e-4 138.56 4.034e-4 138.56 0.999990 28.661
8.86400000 0.999993 68.696 4.112e-4 138.56 4.112e-4 138.56 0.999990 28.655
8.86420000 0.999993 68.690 4.191e-4 138.55 4.191e-4 138.55 0.999990 28.648
8.86440000 0.999993 68.684 4.271e-4 138.55 4.271e-4 138.55 0.999990 28.642
8.86460000 0.999993 68.678 4.352e-4 138.54 4.352e-4 138.54 0.999990 28.636
8.86480000 0.999993 68.672 4.433e-4 138.54 4.433e-4 138.54 0.999990 28.630
8.86500000 0.999993 68.666 4.516e-4 138.53 4.516e-4 138.53 0.999990 28.624
8.86520000 0.999993 68.660 4.599e-4 138.53 4.599e-4 138.53 0.999990 28.617
8.86540000 0.999993 68.653 4.683e-4 138.52 4.683e-4 138.52 0.999990 28.611
8.86560000 0.999993 68.647 4.768e-4 138.52 4.768e-4 138.52 0.999990 28.605
8.86580000 0.999993 68.641 4.854e-4 138.51 4.854e-4 138.51 0.999990 28.598
8.86600000 0.999993 68.635 4.941e-4 138.51 4.941e-4 138.51 0.999990 28.592
8.86620000 0.999993 68.629 5.028e-4 138.50 5.028e-4 138.50 0.999990 28.586
8.86640000 0.999993 68.623 5.117e-4 138.50 5.117e-4 138.50 0.999990 28.579
8.86660000 0.999993 68.617 5.207e-4 138.49 5.207e-4 138.49 0.999990 28.573
8.86680000 0.999993 68.611 5.297e-4 138.48 5.297e-4 138.48 0.999989 28.566
8.86700000 0.999993 68.605 5.389e-4 138.48 5.389e-4 138.48 0.999989 28.560
8.86720000 0.999993 68.599 5.481e-4 138.47 5.481e-4 138.47 0.999989 28.553
8.86740000 0.999993 68.593 5.575e-4 138.47 5.575e-4 138.47 0.999989 28.546
8.86760000 0.999993 68.587 5.670e-4 138.46 5.670e-4 138.46 0.999989 28.540
8.86780000 0.999993 68.580 5.765e-4 138.46 5.765e-4 138.46 0.999989 28.533
8.86800000 0.999993 68.574 5.862e-4 138.45 5.862e-4 138.45 0.999989 28.526
8.86820000 0.999993 68.568 5.960e-4 138.44 5.960e-4 138.44 0.999989 28.520
8.86840000 0.999993 68.562 6.059e-4 138.44 6.059e-4 138.44 0.999989 28.513
8.86860000 0.999993 68.556 6.159e-4 138.43 6.159e-4 138.43 0.999989 28.506
8.86880000 0.999993 68.550 6.260e-4 138.43 6.260e-4 138.43 0.999989 28.499
8.86900000 0.999993 68.544 6.362e-4 138.42 6.362e-4 138.42 0.999989 28.492
8.86920000 0.999993 68.538 6.465e-4 138.41 6.465e-4 138.41 0.999989 28.485
8.86940000 0.999993 68.532 6.570e-4 138.41 6.570e-4 138.41 0.999989 28.478
8.86960000 0.999993 68.526 6.676e-4 138.40 6.676e-4 138.40 0.999988 28.471
8.86980000 0.999993 68.519 6.783e-4 138.40 6.783e-4 138.40 0.999988 28.464
8.87000000 0.999993 68.513 6.891e-4 138.39 6.891e-4 138.39 0.999988 28.457
8.87020000 0.999993 68.507 7.001e-4 138.38 7.001e-4 138.38 0.999988 28.450
8.87040000 0.999993 68.501 7.112e-4 138.38 7.112e-4 138.38 0.999988 28.443
8.87060000 0.999993 68.495 7.224e-4 138.37 7.224e-4 138.37 0.999988 28.436
8.87080000 0.999993 68.489 7.338e-4 138.36 7.338e-4 138.36 0.999988 28.428
8.87100000 0.999993 68.483 7.453e-4 138.36 7.453e-4 138.36 0.999988 28.421
8.87120000 0.999993 68.477 7.569e-4 138.35 7.569e-4 138.35 0.999988 28.414
8.87140000 0.999993 68.471 7.687e-4 138.35 7.687e-4 138.35 0.999988 28.406
8.87160000 0.999993 68.464 7.806e-4 138.34 7.806e-4 138.34 0.999988 28.399
8.87180000 0.999993 68.458 7.926e-4 138.33 7.926e-4 138.33 0.999987 28.391
8.87200000 0.999993 68.452 8.049e-4 138.33 8.049e-4 138.33 0.999987 28.384
8.87220000 0.999993 68.446 8.172e-4 138.32 8.172e-4 138.32 0.999987 28.376
8.87240000 0.999993 68.440 8.298e-4 138.31 8.298e-4 138.31 0.999987 28.368
8.87260000 0.999993 68.434 8.424e-4 138.31 8.424e-4 138.31 0.999987 28.360
8.87280000 0.999993 68.428 8.553e-4 138.30 8.553e-4 138.30 0.999987 28.353
8.87300000 0.999993 68.422 8.683e-4 138.29 8.683e-4 138.29 0.999987 28.345
8.87320000 0.999993 68.415 8.815e-4 138.29 8.815e-4 138.29 0.999987 28.337
8.87340000 0.999993 68.409 8.948e-4 138.28 8.948e-4 138.28 0.999987 28.329
8.87360000 0.999993 68.403 9.083e-4 138.27 9.083e-4 138.27 0.999986 28.321
8.87380000 0.999993 68.397 9.220e-4 138.27 9.220e-4 138.27 0.999986 28.313
8.87400000 0.999993 68.391 9.359e-4 138.26 9.359e-4 138.26 0.999986 28.305
8.87420000 0.999993 68.385 9.499e-4 138.25 9.499e-4 138.25 0.999986 28.297
8.87440000 0.999993 68.379 9.642e-4 138.24 9.642e-4 138.24 0.999986 28.288
8.87460000 0.999993 68.373 9.786e-4 138.24 9.786e-4 138.24 0.999986 28.280
8.87480000 0.999993 68.366 9.932e-4 138.23 9.932e-4 138.23 0.999986 28.272
8.87490299 0.999993 68.363 0.001001 138.23 0.001001 138.23 0.999986 28.267
8.87500000 0.999993 68.360 0.001008 138.22 0.001008 138.22 0.999986 28.263
8.87520000 0.999993 68.354 0.001023 138.22 0.001023 138.22 0.999985 28.255
8.87540000 0.999993 68.348 0.001038 138.21 0.001038 138.21 0.999985 28.246
8.87558988 0.999993 68.342 0.001053 138.20 0.001053 138.20 0.999985 28.238
8.87560000 0.999993 68.342 0.001054 138.20 0.001054 138.20 0.999985 28.237
8.87580000 0.999993 68.336 0.001069 138.19 0.001069 138.19 0.999985 28.229
8.87600000 0.999993 68.330 0.001085 138.19 0.001085 138.19 0.999985 28.220
8.87620000 0.999993 68.323 0.001101 138.18 0.001101 138.18 0.999985 28.211
8.87626103 0.999993 68.321 0.001106 138.18 0.001106 138.18 0.999985 28.208
8.87640000 0.999993 68.317 0.001118 138.17 0.001118 138.17 0.999985 28.202
8.87660000 0.999993 68.311 0.001134 138.16 0.001134 138.16 0.999984 28.193
8.87680000 0.999993 68.305 0.001151 138.16 0.001151 138.16 0.999984 28.184
8.87691680 0.999993 68.301 0.001161 138.15 0.001161 138.15 0.999984 28.178
8.87700000 0.999993 68.299 0.001168 138.15 0.001168 138.15 0.999984 28.174
8.87720000 0.999993 68.293 0.001186 138.14 0.001186 138.14 0.999984 28.165
8.87740000 0.999992 68.286 0.001203 138.13 0.001203 138.13 0.999984 28.156