! Sonnet Data File
! From: emgraph Version : 16.52
! From Project: Resonator2
! Data is De-embedded 
! Data File Written: 10/06/2017 09:13:21
!< HDATE 10/05/2017 15:18:40
!< MDATE 10/05/2017 15:18:40
!< PARAMS
!< gap = 56.0
!< Length = 400.0
!< Pwid1 = 2000.0
!< Pwid2 = 2000.0
!< END PARAMS
# GHZ S MA R 50.0 !  non standard terminations in data
! TERM 51.80000 0.000000 35.97000 0.000000
8.80000000 0.999984 70.633 0.004363 -39.13 0.004363 -39.13 0.999986 31.109
!< P1 F=8.8 Eeff=(6.44679989 -2.9721e-5) Z0=(51.7992624 1.19519e-4) R=0.0 C=0.0 
!< P2 F=8.8 Eeff=(5.36817953 -2.3731e-5) Z0=(35.9853883 8.0522e-5) R=0.0 C=0.0 
9.00000000 0.999985 64.646 0.003998 -43.75 0.003998 -43.75 0.999987 27.851
!< P1 F=9.0 Eeff=(6.44667112 -2.972e-5) Z0=(51.7986524 1.1952e-4) R=0.0 C=0.0 
!< P2 F=9.0 Eeff=(5.3714988 -2.3767e-5) Z0=(35.9700551 8.0601e-5) R=0.0 C=0.0 
8.90840000 0.996328 68.626 0.070580 149.58 0.070580 149.58 0.983819 44.053
!< P1 F=8.9084 Eeff=(6.44673032 -2.972e-5) Z0=(51.7989343 1.19519e-4) R=0.0 C=0.0 
!< P2 F=8.9084 Eeff=(5.36996913 -2.3756e-5) Z0=(35.97711 8.0577e-5) R=0.0 C=0.0 
8.90800000 0.894279 65.546 0.376111 -115.4 0.376111 -115.4 0.419268 -93.68
!< P1 F=8.908 Eeff=(6.44673057 -2.972e-5) Z0=(51.7989354 1.1952e-4) R=0.0 C=0.0 
!< P2 F=8.908 Eeff=(5.36996248 -2.3747e-5) Z0=(35.9771407 8.05544e-5) R=0.0 C=0.0 
