! Sonnet Data File
! From: emgraph Version : 16.52
! From Project: Resonator2_cp
! Data is De-embedded 
! Data File Written: 10/07/2017 13:01:14
!< HDATE 10/07/2017 09:22:27
!< MDATE 10/07/2017 09:22:27
!< PARAMS
!< gap = 26.0
!< Length = 400.0
!< Pwid1 = 2000.0
!< Pwid2 = 2000.0
!< Air_gap = 18.0
!< Width = 30.0
!< END PARAMS
# GHZ S MA R 43.07000
8.80000000 0.023398 3.1316 0.999723 -73.39 0.999723 -73.39 0.023399 30.093
!< P1 F=8.8 Eeff=(5.15948137 -2.2525e-5) Z0=(43.0696006 9.54461e-5) R=0.0 C=0.0 
!< P2 F=8.8 Eeff=(5.15948137 -2.2525e-5) Z0=(43.0696006 9.54461e-5) R=0.0 C=0.0 
8.80020000 0.023403 3.1202 0.999723 -73.39 0.999723 -73.39 0.023405 30.100
8.80040000 0.023408 3.1088 0.999723 -73.40 0.999723 -73.40 0.023410 30.107
8.80060000 0.023413 3.0974 0.999722 -73.40 0.999722 -73.40 0.023415 30.114
8.80080000 0.023419 3.0860 0.999722 -73.40 0.999722 -73.40 0.023420 30.122
8.80100000 0.023424 3.0745 0.999722 -73.40 0.999722 -73.40 0.023426 30.129
8.80120000 0.023429 3.0630 0.999722 -73.40 0.999722 -73.40 0.023431 30.136
8.80140000 0.023435 3.0515 0.999722 -73.41 0.999722 -73.41 0.023437 30.144
8.80160000 0.023440 3.0400 0.999722 -73.41 0.999722 -73.41 0.023442 30.151
8.80180000 0.023446 3.0284 0.999722 -73.41 0.999722 -73.41 0.023447 30.159
8.80200000 0.023451 3.0167 0.999721 -73.41 0.999721 -73.41 0.023453 30.166
8.80220000 0.023457 3.0051 0.999721 -73.41 0.999721 -73.41 0.023458 30.174
8.80240000 0.023462 2.9934 0.999721 -73.42 0.999721 -73.42 0.023464 30.181
8.80260000 0.023468 2.9817 0.999721 -73.42 0.999721 -73.42 0.023469 30.189
8.80280000 0.023473 2.9699 0.999721 -73.42 0.999721 -73.42 0.023475 30.196
8.80300000 0.023479 2.9581 0.999721 -73.42 0.999721 -73.42 0.023480 30.204
8.80320000 0.023484 2.9463 0.999721 -73.42 0.999721 -73.42 0.023486 30.212
8.80340000 0.023490 2.9344 0.999721 -73.43 0.999721 -73.43 0.023492 30.219
8.80360000 0.023495 2.9225 0.999720 -73.43 0.999720 -73.43 0.023497 30.227
8.80380000 0.023501 2.9106 0.999720 -73.43 0.999720 -73.43 0.023503 30.235
8.80400000 0.023507 2.8986 0.999720 -73.43 0.999720 -73.43 0.023509 30.242
8.80420000 0.023512 2.8866 0.999720 -73.43 0.999720 -73.43 0.023514 30.250
8.80440000 0.023518 2.8746 0.999720 -73.44 0.999720 -73.44 0.023520 30.258
8.80460000 0.023524 2.8625 0.999720 -73.44 0.999720 -73.44 0.023526 30.266
8.80480000 0.023530 2.8504 0.999720 -73.44 0.999720 -73.44 0.023531 30.274
8.80500000 0.023535 2.8382 0.999719 -73.44 0.999719 -73.44 0.023537 30.282
8.80520000 0.023541 2.8261 0.999719 -73.45 0.999719 -73.45 0.023543 30.290
8.80540000 0.023547 2.8138 0.999719 -73.45 0.999719 -73.45 0.023549 30.298
8.80560000 0.023553 2.8016 0.999719 -73.45 0.999719 -73.45 0.023555 30.306
8.80580000 0.023559 2.7893 0.999719 -73.45 0.999719 -73.45 0.023561 30.314
8.80600000 0.023565 2.7770 0.999719 -73.45 0.999719 -73.45 0.023567 30.322
8.80620000 0.023571 2.7646 0.999719 -73.46 0.999719 -73.46 0.023572 30.330
8.80640000 0.023577 2.7522 0.999718 -73.46 0.999718 -73.46 0.023578 30.338
8.80660000 0.023583 2.7398 0.999718 -73.46 0.999718 -73.46 0.023584 30.347
8.80680000 0.023589 2.7273 0.999718 -73.46 0.999718 -73.46 0.023590 30.355
8.80700000 0.023595 2.7148 0.999718 -73.46 0.999718 -73.46 0.023596 30.363
8.80720000 0.023601 2.7022 0.999718 -73.47 0.999718 -73.47 0.023603 30.372
8.80740000 0.023607 2.6896 0.999718 -73.47 0.999718 -73.47 0.023609 30.380
8.80760000 0.023613 2.6770 0.999718 -73.47 0.999718 -73.47 0.023615 30.388
8.80780000 0.023619 2.6644 0.999717 -73.47 0.999717 -73.47 0.023621 30.397
8.80800000 0.023625 2.6516 0.999717 -73.47 0.999717 -73.47 0.023627 30.405
8.80820000 0.023631 2.6389 0.999717 -73.48 0.999717 -73.48 0.023633 30.414
8.80840000 0.023637 2.6261 0.999717 -73.48 0.999717 -73.48 0.023639 30.422
8.80860000 0.023644 2.6133 0.999717 -73.48 0.999717 -73.48 0.023646 30.431
8.80880000 0.023650 2.6004 0.999717 -73.48 0.999717 -73.48 0.023652 30.439
8.80900000 0.023656 2.5875 0.999717 -73.49 0.999717 -73.49 0.023658 30.448
8.80920000 0.023663 2.5746 0.999716 -73.49 0.999716 -73.49 0.023664 30.457
8.80940000 0.023669 2.5616 0.999716 -73.49 0.999716 -73.49 0.023671 30.465
8.80960000 0.023675 2.5486 0.999716 -73.49 0.999716 -73.49 0.023677 30.474
8.80980000 0.023682 2.5355 0.999716 -73.49 0.999716 -73.49 0.023684 30.483
8.81000000 0.023688 2.5224 0.999716 -73.50 0.999716 -73.50 0.023690 30.492
8.81020000 0.023695 2.5093 0.999716 -73.50 0.999716 -73.50 0.023696 30.501
8.81040000 0.023701 2.4961 0.999715 -73.50 0.999715 -73.50 0.023703 30.509
8.81060000 0.023707 2.4828 0.999715 -73.50 0.999715 -73.50 0.023709 30.518
8.81080000 0.023714 2.4696 0.999715 -73.50 0.999715 -73.50 0.023716 30.527
8.81100000 0.023721 2.4563 0.999715 -73.51 0.999715 -73.51 0.023722 30.536
8.81120000 0.023727 2.4429 0.999715 -73.51 0.999715 -73.51 0.023729 30.545
8.81140000 0.023734 2.4295 0.999715 -73.51 0.999715 -73.51 0.023736 30.554
8.81160000 0.023740 2.4161 0.999714 -73.51 0.999714 -73.51 0.023742 30.564
8.81180000 0.023747 2.4026 0.999714 -73.52 0.999714 -73.52 0.023749 30.573
8.81200000 0.023754 2.3890 0.999714 -73.52 0.999714 -73.52 0.023756 30.582
8.81220000 0.023760 2.3755 0.999714 -73.52 0.999714 -73.52 0.023762 30.591
8.81240000 0.023767 2.3619 0.999714 -73.52 0.999714 -73.52 0.023769 30.600
8.81260000 0.023774 2.3482 0.999714 -73.52 0.999714 -73.52 0.023776 30.610
8.81280000 0.023781 2.3345 0.999713 -73.53 0.999713 -73.53 0.023783 30.619
8.81300000 0.023788 2.3207 0.999713 -73.53 0.999713 -73.53 0.023790 30.629
8.81320000 0.023795 2.3069 0.999713 -73.53 0.999713 -73.53 0.023797 30.638
8.81340000 0.023801 2.2931 0.999713 -73.53 0.999713 -73.53 0.023803 30.648
8.81360000 0.023808 2.2792 0.999713 -73.53 0.999713 -73.53 0.023810 30.657
8.81380000 0.023815 2.2653 0.999713 -73.54 0.999713 -73.54 0.023817 30.667
8.81400000 0.023822 2.2513 0.999712 -73.54 0.999712 -73.54 0.023824 30.676
8.81420000 0.023829 2.2373 0.999712 -73.54 0.999712 -73.54 0.023831 30.686
8.81440000 0.023836 2.2232 0.999712 -73.54 0.999712 -73.54 0.023838 30.696
8.81460000 0.023844 2.2091 0.999712 -73.55 0.999712 -73.55 0.023846 30.705
8.81480000 0.023851 2.1949 0.999712 -73.55 0.999712 -73.55 0.023853 30.715
8.81500000 0.023858 2.1807 0.999712 -73.55 0.999712 -73.55 0.023860 30.725
8.81520000 0.023865 2.1665 0.999711 -73.55 0.999711 -73.55 0.023867 30.735
8.81540000 0.023872 2.1522 0.999711 -73.55 0.999711 -73.55 0.023874 30.745
8.81560000 0.023880 2.1378 0.999711 -73.56 0.999711 -73.56 0.023882 30.755
8.81580000 0.023887 2.1234 0.999711 -73.56 0.999711 -73.56 0.023889 30.765
8.81600000 0.023894 2.1090 0.999711 -73.56 0.999711 -73.56 0.023896 30.775
8.81620000 0.023901 2.0945 0.999711 -73.56 0.999711 -73.56 0.023904 30.785
8.81640000 0.023909 2.0799 0.999710 -73.57 0.999710 -73.57 0.023911 30.795
8.81660000 0.023916 2.0653 0.999710 -73.57 0.999710 -73.57 0.023918 30.805
8.81680000 0.023924 2.0507 0.999710 -73.57 0.999710 -73.57 0.023926 30.815
8.81700000 0.023931 2.0360 0.999710 -73.57 0.999710 -73.57 0.023933 30.826
8.81720000 0.023939 2.0212 0.999710 -73.57 0.999710 -73.57 0.023941 30.836
8.81740000 0.023946 2.0064 0.999709 -73.58 0.999709 -73.58 0.023948 30.846
8.81760000 0.023954 1.9916 0.999709 -73.58 0.999709 -73.58 0.023956 30.857
8.81780000 0.023962 1.9767 0.999709 -73.58 0.999709 -73.58 0.023964 30.867
8.81800000 0.023969 1.9617 0.999709 -73.58 0.999709 -73.58 0.023971 30.878
8.81820000 0.023977 1.9467 0.999709 -73.59 0.999709 -73.59 0.023979 30.888
8.81840000 0.023985 1.9316 0.999708 -73.59 0.999708 -73.59 0.023987 30.899
8.81860000 0.023992 1.9165 0.999708 -73.59 0.999708 -73.59 0.023995 30.909
8.81880000 0.024000 1.9014 0.999708 -73.59 0.999708 -73.59 0.024002 30.920
8.81900000 0.024008 1.8861 0.999708 -73.59 0.999708 -73.59 0.024010 30.931
8.81920000 0.024016 1.8709 0.999708 -73.60 0.999708 -73.60 0.024018 30.941
8.81940000 0.024024 1.8555 0.999707 -73.60 0.999707 -73.60 0.024026 30.952
8.81960000 0.024032 1.8402 0.999707 -73.60 0.999707 -73.60 0.024034 30.963
8.81980000 0.024040 1.8247 0.999707 -73.60 0.999707 -73.60 0.024042 30.974
8.82000000 0.024048 1.8092 0.999707 -73.61 0.999707 -73.61 0.024050 30.985
8.82020000 0.024056 1.7937 0.999707 -73.61 0.999707 -73.61 0.024058 30.996
8.82040000 0.024064 1.7781 0.999706 -73.61 0.999706 -73.61 0.024066 31.007
8.82060000 0.024072 1.7624 0.999706 -73.61 0.999706 -73.61 0.024074 31.018
8.82080000 0.024080 1.7467 0.999706 -73.61 0.999706 -73.61 0.024083 31.030
8.82100000 0.024089 1.7309 0.999706 -73.62 0.999706 -73.62 0.024091 31.041
8.82120000 0.024097 1.7151 0.999706 -73.62 0.999706 -73.62 0.024099 31.052
8.82140000 0.024105 1.6992 0.999705 -73.62 0.999705 -73.62 0.024108 31.063
8.82160000 0.024114 1.6833 0.999705 -73.62 0.999705 -73.62 0.024116 31.075
8.82180000 0.024122 1.6673 0.999705 -73.63 0.999705 -73.63 0.024124 31.086
8.82200000 0.024131 1.6512 0.999705 -73.63 0.999705 -73.63 0.024133 31.098
8.82220000 0.024139 1.6351 0.999705 -73.63 0.999705 -73.63 0.024141 31.109
8.82240000 0.024148 1.6189 0.999704 -73.63 0.999704 -73.63 0.024150 31.121
8.82260000 0.024156 1.6027 0.999704 -73.64 0.999704 -73.64 0.024158 31.132
8.82280000 0.024165 1.5864 0.999704 -73.64 0.999704 -73.64 0.024167 31.144
8.82300000 0.024173 1.5701 0.999704 -73.64 0.999704 -73.64 0.024176 31.156
8.82320000 0.024182 1.5536 0.999704 -73.64 0.999704 -73.64 0.024184 31.168
8.82340000 0.024191 1.5372 0.999703 -73.64 0.999703 -73.64 0.024193 31.180
8.82360000 0.024200 1.5206 0.999703 -73.65 0.999703 -73.65 0.024202 31.192
8.82380000 0.024208 1.5040 0.999703 -73.65 0.999703 -73.65 0.024211 31.204
8.82400000 0.024217 1.4874 0.999703 -73.65 0.999703 -73.65 0.024220 31.216
8.82420000 0.024226 1.4706 0.999702 -73.65 0.999702 -73.65 0.024228 31.228
8.82440000 0.024235 1.4538 0.999702 -73.66 0.999702 -73.66 0.024237 31.240
8.82460000 0.024244 1.4370 0.999702 -73.66 0.999702 -73.66 0.024246 31.252
8.82480000 0.024253 1.4201 0.999702 -73.66 0.999702 -73.66 0.024256 31.264
8.82500000 0.024262 1.4031 0.999702 -73.66 0.999702 -73.66 0.024265 31.277
8.82520000 0.024271 1.3860 0.999701 -73.66 0.999701 -73.66 0.024274 31.289
8.82540000 0.024281 1.3689 0.999701 -73.67 0.999701 -73.67 0.024283 31.301
8.82560000 0.024290 1.3518 0.999701 -73.67 0.999701 -73.67 0.024292 31.314
8.82580000 0.024299 1.3345 0.999701 -73.67 0.999701 -73.67 0.024302 31.326
8.82600000 0.024309 1.3172 0.999700 -73.67 0.999700 -73.67 0.024311 31.339
8.82620000 0.024318 1.2998 0.999700 -73.68 0.999700 -73.68 0.024320 31.352
8.82640000 0.024327 1.2824 0.999700 -73.68 0.999700 -73.68 0.024330 31.365
8.82660000 0.024337 1.2649 0.999700 -73.68 0.999700 -73.68 0.024339 31.377
8.82680000 0.024346 1.2473 0.999699 -73.68 0.999699 -73.68 0.024349 31.390
8.82700000 0.024356 1.2296 0.999699 -73.69 0.999699 -73.69 0.024358 31.403
8.82720000 0.024366 1.2119 0.999699 -73.69 0.999699 -73.69 0.024368 31.416
8.82740000 0.024375 1.1941 0.999699 -73.69 0.999699 -73.69 0.024378 31.429
8.82760000 0.024385 1.1763 0.999699 -73.69 0.999699 -73.69 0.024387 31.442
8.82780000 0.024395 1.1584 0.999698 -73.70 0.999698 -73.70 0.024397 31.455
8.82800000 0.024405 1.1404 0.999698 -73.70 0.999698 -73.70 0.024407 31.469
8.82820000 0.024415 1.1223 0.999698 -73.70 0.999698 -73.70 0.024417 31.482
8.82840000 0.024424 1.1042 0.999698 -73.70 0.999698 -73.70 0.024427 31.495
8.82860000 0.024434 1.0859 0.999697 -73.70 0.999697 -73.70 0.024437 31.509
8.82880000 0.024445 1.0676 0.999697 -73.71 0.999697 -73.71 0.024447 31.522
8.82900000 0.024455 1.0493 0.999697 -73.71 0.999697 -73.71 0.024457 31.536
8.82920000 0.024465 1.0309 0.999696 -73.71 0.999696 -73.71 0.024467 31.549
8.82940000 0.024475 1.0123 0.999696 -73.71 0.999696 -73.71 0.024478 31.563
8.82960000 0.024485 0.9938 0.999696 -73.72 0.999696 -73.72 0.024488 31.577
8.82980000 0.024496 0.9751 0.999696 -73.72 0.999696 -73.72 0.024498 31.591
8.83000000 0.024506 0.9564 0.999695 -73.72 0.999695 -73.72 0.024509 31.605
8.83020000 0.024516 0.9376 0.999695 -73.72 0.999695 -73.72 0.024519 31.619
8.83040000 0.024527 0.9187 0.999695 -73.73 0.999695 -73.73 0.024529 31.633
8.83060000 0.024538 0.8997 0.999695 -73.73 0.999695 -73.73 0.024540 31.647
8.83080000 0.024548 0.8807 0.999694 -73.73 0.999694 -73.73 0.024551 31.661
8.83100000 0.024559 0.8615 0.999694 -73.73 0.999694 -73.73 0.024561 31.675
8.83120000 0.024570 0.8423 0.999694 -73.74 0.999694 -73.74 0.024572 31.690
8.83140000 0.024580 0.8231 0.999694 -73.74 0.999694 -73.74 0.024583 31.704
8.83160000 0.024591 0.8037 0.999693 -73.74 0.999693 -73.74 0.024594 31.718
8.83180000 0.024602 0.7842 0.999693 -73.74 0.999693 -73.74 0.024605 31.733
8.83200000 0.024613 0.7647 0.999693 -73.75 0.999693 -73.75 0.024616 31.748
8.83220000 0.024624 0.7451 0.999692 -73.75 0.999692 -73.75 0.024627 31.762
8.83240000 0.024635 0.7254 0.999692 -73.75 0.999692 -73.75 0.024638 31.777
8.83260000 0.024646 0.7057 0.999692 -73.75 0.999692 -73.75 0.024649 31.792
8.83280000 0.024658 0.6858 0.999692 -73.76 0.999692 -73.76 0.024660 31.807
8.83300000 0.024669 0.6659 0.999691 -73.76 0.999691 -73.76 0.024672 31.822
8.83320000 0.024680 0.6458 0.999691 -73.76 0.999691 -73.76 0.024683 31.837
8.83340000 0.024692 0.6257 0.999691 -73.76 0.999691 -73.76 0.024694 31.852
8.83360000 0.024703 0.6055 0.999690 -73.77 0.999690 -73.77 0.024706 31.867
8.83380000 0.024715 0.5853 0.999690 -73.77 0.999690 -73.77 0.024717 31.882
8.83400000 0.024726 0.5649 0.999690 -73.77 0.999690 -73.77 0.024729 31.898
8.83420000 0.024738 0.5444 0.999690 -73.77 0.999690 -73.77 0.024741 31.913
8.83440000 0.024750 0.5239 0.999689 -73.78 0.999689 -73.78 0.024753 31.929
8.83460000 0.024762 0.5032 0.999689 -73.78 0.999689 -73.78 0.024764 31.944
8.83480000 0.024774 0.4825 0.999689 -73.78 0.999689 -73.78 0.024776 31.960
8.83500000 0.024786 0.4617 0.999688 -73.78 0.999688 -73.78 0.024788 31.976
8.83520000 0.024798 0.4408 0.999688 -73.79 0.999688 -73.79 0.024800 31.992
8.83540000 0.024810 0.4198 0.999688 -73.79 0.999688 -73.79 0.024812 32.008
8.83560000 0.024822 0.3987 0.999687 -73.79 0.999687 -73.79 0.024825 32.024
8.83580000 0.024834 0.3775 0.999687 -73.79 0.999687 -73.79 0.024837 32.040
8.83600000 0.024846 0.3562 0.999687 -73.80 0.999687 -73.80 0.024849 32.056
8.83620000 0.024859 0.3349 0.999686 -73.80 0.999686 -73.80 0.024862 32.072
8.83640000 0.024871 0.3134 0.999686 -73.80 0.999686 -73.80 0.024874 32.088
8.83660000 0.024884 0.2918 0.999686 -73.80 0.999686 -73.80 0.024887 32.105
8.83680000 0.024897 0.2702 0.999686 -73.81 0.999686 -73.81 0.024899 32.121
8.83700000 0.024909 0.2484 0.999685 -73.81 0.999685 -73.81 0.024912 32.138
8.83720000 0.024922 0.2266 0.999685 -73.81 0.999685 -73.81 0.024925 32.155
8.83740000 0.024935 0.2046 0.999685 -73.81 0.999685 -73.81 0.024938 32.171
8.83760000 0.024948 0.1825 0.999684 -73.82 0.999684 -73.82 0.024951 32.188
8.83780000 0.024961 0.1604 0.999684 -73.82 0.999684 -73.82 0.024964 32.205
8.83800000 0.024974 0.1381 0.999684 -73.82 0.999684 -73.82 0.024977 32.222
8.83820000 0.024987 0.1158 0.999683 -73.82 0.999683 -73.82 0.024990 32.239
8.83840000 0.025000 0.0933 0.999683 -73.83 0.999683 -73.83 0.025003 32.257
8.83860000 0.025014 0.0707 0.999683 -73.83 0.999683 -73.83 0.025017 32.274
8.83880000 0.025027 0.0481 0.999682 -73.83 0.999682 -73.83 0.025030 32.291
8.83900000 0.025041 0.0253 0.999682 -73.83 0.999682 -73.83 0.025044 32.309
8.83920000 0.025054 0.0024 0.999681 -73.84 0.999681 -73.84 0.025057 32.327
8.83940000 0.025068 -0.021 0.999681 -73.84 0.999681 -73.84 0.025071 32.344
8.83960000 0.025082 -0.044 0.999681 -73.84 0.999681 -73.84 0.025085 32.362
8.83980000 0.025096 -0.067 0.999680 -73.84 0.999680 -73.84 0.025099 32.380
8.84000000 0.025110 -0.090 0.999680 -73.85 0.999680 -73.85 0.025113 32.398
8.84020000 0.025124 -0.114 0.999680 -73.85 0.999680 -73.85 0.025127 32.416
8.84040000 0.025138 -0.137 0.999679 -73.85 0.999679 -73.85 0.025141 32.434
8.84060000 0.025152 -0.161 0.999679 -73.86 0.999679 -73.86 0.025155 32.453
8.84080000 0.025166 -0.185 0.999679 -73.86 0.999679 -73.86 0.025169 32.471
8.84100000 0.025181 -0.208 0.999678 -73.86 0.999678 -73.86 0.025184 32.489
8.84120000 0.025195 -0.232 0.999678 -73.86 0.999678 -73.86 0.025198 32.508
8.84140000 0.025210 -0.256 0.999677 -73.87 0.999677 -73.87 0.025213 32.527
8.84160000 0.025224 -0.281 0.999677 -73.87 0.999677 -73.87 0.025228 32.545
8.84180000 0.025239 -0.305 0.999677 -73.87 0.999677 -73.87 0.025242 32.564
8.84200000 0.025254 -0.329 0.999676 -73.87 0.999676 -73.87 0.025257 32.583
8.84220000 0.025269 -0.354 0.999676 -73.88 0.999676 -73.88 0.025272 32.602
8.84240000 0.025284 -0.379 0.999675 -73.88 0.999675 -73.88 0.025287 32.622
8.84260000 0.025299 -0.404 0.999675 -73.88 0.999675 -73.88 0.025302 32.641
8.84280000 0.025315 -0.428 0.999675 -73.88 0.999675 -73.88 0.025318 32.660
8.84300000 0.025330 -0.454 0.999674 -73.89 0.999674 -73.89 0.025333 32.680
8.84320000 0.025345 -0.479 0.999674 -73.89 0.999674 -73.89 0.025349 32.700
8.84340000 0.025361 -0.504 0.999673 -73.89 0.999673 -73.89 0.025364 32.719
8.84360000 0.025377 -0.529 0.999673 -73.90 0.999673 -73.90 0.025380 32.739
8.84380000 0.025393 -0.555 0.999673 -73.90 0.999673 -73.90 0.025396 32.759
8.84400000 0.025408 -0.581 0.999672 -73.90 0.999672 -73.90 0.025412 32.779
8.84420000 0.025424 -0.606 0.999672 -73.90 0.999672 -73.90 0.025428 32.800
8.84440000 0.025441 -0.632 0.999671 -73.91 0.999671 -73.91 0.025444 32.820
8.84460000 0.025457 -0.658 0.999671 -73.91 0.999671 -73.91 0.025460 32.840
8.84480000 0.025473 -0.685 0.999671 -73.91 0.999671 -73.91 0.025476 32.861
8.84500000 0.025490 -0.711 0.999670 -73.92 0.999670 -73.92 0.025493 32.882
8.84520000 0.025506 -0.738 0.999670 -73.92 0.999670 -73.92 0.025510 32.902
8.84540000 0.025523 -0.764 0.999669 -73.92 0.999669 -73.92 0.025526 32.923
8.84560000 0.025540 -0.791 0.999669 -73.92 0.999669 -73.92 0.025543 32.944
8.84580000 0.025557 -0.818 0.999668 -73.93 0.999668 -73.93 0.025560 32.965
8.84600000 0.025574 -0.845 0.999668 -73.93 0.999668 -73.93 0.025577 32.987
8.84620000 0.025591 -0.872 0.999667 -73.93 0.999667 -73.93 0.025594 33.008
8.84640000 0.025608 -0.899 0.999667 -73.94 0.999667 -73.94 0.025612 33.030
8.84660000 0.025626 -0.927 0.999667 -73.94 0.999667 -73.94 0.025629 33.051
8.84680000 0.025643 -0.954 0.999666 -73.94 0.999666 -73.94 0.025647 33.073
8.84700000 0.025661 -0.982 0.999666 -73.94 0.999666 -73.94 0.025664 33.095
8.84720000 0.025678 -1.010 0.999665 -73.95 0.999665 -73.95 0.025682 33.117
8.84740000 0.025696 -1.038 0.999665 -73.95 0.999665 -73.95 0.025700 33.139
8.84760000 0.025714 -1.066 0.999664 -73.95 0.999664 -73.95 0.025718 33.162
8.84780000 0.025733 -1.094 0.999664 -73.96 0.999664 -73.96 0.025736 33.184
8.84800000 0.025751 -1.123 0.999663 -73.96 0.999663 -73.96 0.025755 33.206
8.84820000 0.025769 -1.151 0.999663 -73.96 0.999663 -73.96 0.025773 33.229
8.84840000 0.025788 -1.180 0.999662 -73.96 0.999662 -73.96 0.025792 33.252
8.84860000 0.025807 -1.209 0.999662 -73.97 0.999662 -73.97 0.025810 33.275
8.84880000 0.025826 -1.238 0.999661 -73.97 0.999661 -73.97 0.025829 33.298
8.84900000 0.025845 -1.267 0.999661 -73.97 0.999661 -73.97 0.025848 33.321
8.84920000 0.025864 -1.297 0.999660 -73.98 0.999660 -73.98 0.025867 33.345
8.84940000 0.025883 -1.326 0.999660 -73.98 0.999660 -73.98 0.025887 33.368
8.84960000 0.025902 -1.356 0.999659 -73.98 0.999659 -73.98 0.025906 33.392
8.84980000 0.025922 -1.386 0.999659 -73.99 0.999659 -73.99 0.025926 33.416
8.85000000 0.025942 -1.416 0.999658 -73.99 0.999658 -73.99 0.025945 33.440
8.85020000 0.025962 -1.446 0.999658 -73.99 0.999658 -73.99 0.025965 33.464
8.85040000 0.025982 -1.477 0.999657 -73.99 0.999657 -73.99 0.025985 33.488
8.85060000 0.026002 -1.507 0.999656 -74.00 0.999656 -74.00 0.026006 33.512
8.85080000 0.026022 -1.538 0.999656 -74.00 0.999656 -74.00 0.026026 33.537
8.85100000 0.026043 -1.569 0.999655 -74.00 0.999655 -74.00 0.026046 33.562
8.85120000 0.026063 -1.600 0.999655 -74.01 0.999655 -74.01 0.026067 33.587
8.85140000 0.026084 -1.631 0.999654 -74.01 0.999654 -74.01 0.026088 33.612
8.85160000 0.026105 -1.663 0.999654 -74.01 0.999654 -74.01 0.026109 33.637
8.85180000 0.026126 -1.694 0.999653 -74.02 0.999653 -74.02 0.026130 33.662
8.85200000 0.026147 -1.726 0.999653 -74.02 0.999653 -74.02 0.026151 33.687
8.85220000 0.026169 -1.758 0.999652 -74.02 0.999652 -74.02 0.026173 33.713
8.85240000 0.026191 -1.790 0.999651 -74.03 0.999651 -74.03 0.026195 33.739
8.85260000 0.026212 -1.823 0.999651 -74.03 0.999651 -74.03 0.026216 33.765
8.85280000 0.026234 -1.855 0.999650 -74.03 0.999650 -74.03 0.026238 33.791
8.85300000 0.026257 -1.888 0.999650 -74.03 0.999650 -74.03 0.026261 33.817
8.85320000 0.026279 -1.921 0.999649 -74.04 0.999649 -74.04 0.026283 33.844
8.85340000 0.026301 -1.954 0.999648 -74.04 0.999648 -74.04 0.026305 33.870
8.85360000 0.026324 -1.987 0.999648 -74.04 0.999648 -74.04 0.026328 33.897
8.85380000 0.026347 -2.020 0.999647 -74.05 0.999647 -74.05 0.026351 33.924
8.85400000 0.026370 -2.054 0.999646 -74.05 0.999646 -74.05 0.026374 33.951
8.85420000 0.026393 -2.088 0.999646 -74.05 0.999646 -74.05 0.026398 33.978
8.85440000 0.026417 -2.122 0.999645 -74.06 0.999645 -74.06 0.026421 34.006
8.85460000 0.026440 -2.156 0.999645 -74.06 0.999645 -74.06 0.026445 34.034
8.85480000 0.026464 -2.191 0.999644 -74.06 0.999644 -74.06 0.026469 34.061
8.85500000 0.026488 -2.226 0.999643 -74.07 0.999643 -74.07 0.026493 34.089
8.85520000 0.026513 -2.260 0.999643 -74.07 0.999643 -74.07 0.026517 34.118
8.85540000 0.026537 -2.296 0.999642 -74.07 0.999642 -74.07 0.026541 34.146
8.85560000 0.026562 -2.331 0.999641 -74.08 0.999641 -74.08 0.026566 34.175
8.85580000 0.026587 -2.366 0.999641 -74.08 0.999641 -74.08 0.026591 34.203
8.85600000 0.026612 -2.402 0.999640 -74.08 0.999640 -74.08 0.026616 34.232
8.85620000 0.026637 -2.438 0.999639 -74.09 0.999639 -74.09 0.026641 34.261
8.85640000 0.026663 -2.474 0.999638 -74.09 0.999638 -74.09 0.026667 34.291
8.85660000 0.026688 -2.511 0.999638 -74.09 0.999638 -74.09 0.026693 34.320
8.85680000 0.026714 -2.547 0.999637 -74.10 0.999637 -74.10 0.026719 34.350
8.85700000 0.026740 -2.584 0.999636 -74.10 0.999636 -74.10 0.026745 34.380
8.85720000 0.026767 -2.621 0.999636 -74.10 0.999636 -74.10 0.026771 34.410
8.85740000 0.026794 -2.659 0.999635 -74.11 0.999635 -74.11 0.026798 34.440
8.85760000 0.026820 -2.696 0.999634 -74.11 0.999634 -74.11 0.026825 34.471
8.85780000 0.026848 -2.734 0.999633 -74.11 0.999633 -74.11 0.026852 34.501
8.85800000 0.026875 -2.772 0.999633 -74.12 0.999633 -74.12 0.026880 34.532
8.85820000 0.026903 -2.810 0.999632 -74.12 0.999632 -74.12 0.026907 34.564
8.85840000 0.026930 -2.849 0.999631 -74.13 0.999631 -74.13 0.026935 34.595
8.85860000 0.026959 -2.888 0.999630 -74.13 0.999630 -74.13 0.026963 34.626
8.85880000 0.026987 -2.927 0.999629 -74.13 0.999629 -74.13 0.026992 34.658
8.85900000 0.027016 -2.966 0.999629 -74.14 0.999629 -74.14 0.027020 34.690
8.85920000 0.027045 -3.006 0.999628 -74.14 0.999628 -74.14 0.027049 34.722
8.85940000 0.027074 -3.045 0.999627 -74.14 0.999627 -74.14 0.027079 34.755
8.85960000 0.027103 -3.085 0.999626 -74.15 0.999626 -74.15 0.027108 34.788
8.85980000 0.027133 -3.126 0.999625 -74.15 0.999625 -74.15 0.027138 34.820
8.86000000 0.027163 -3.166 0.999624 -74.15 0.999624 -74.15 0.027168 34.853
8.86020000 0.027193 -3.207 0.999624 -74.16 0.999624 -74.16 0.027198 34.887
8.86040000 0.027224 -3.248 0.999623 -74.16 0.999623 -74.16 0.027229 34.920
8.86060000 0.027254 -3.290 0.999622 -74.17 0.999622 -74.17 0.027260 34.954
8.86080000 0.027286 -3.331 0.999621 -74.17 0.999621 -74.17 0.027291 34.988
8.86100000 0.027317 -3.373 0.999620 -74.17 0.999620 -74.17 0.027322 35.023
8.86120000 0.027349 -3.416 0.999619 -74.18 0.999619 -74.18 0.027354 35.057
8.86140000 0.027381 -3.458 0.999618 -74.18 0.999618 -74.18 0.027386 35.092
8.86160000 0.027413 -3.501 0.999617 -74.18 0.999617 -74.18 0.027418 35.127
8.86180000 0.027446 -3.544 0.999616 -74.19 0.999616 -74.19 0.027451 35.162
8.86200000 0.027479 -3.587 0.999615 -74.19 0.999615 -74.19 0.027484 35.198
8.86220000 0.027512 -3.631 0.999615 -74.20 0.999615 -74.20 0.027517 35.233
8.86240000 0.027546 -3.675 0.999614 -74.20 0.999614 -74.20 0.027551 35.269
8.86260000 0.027580 -3.719 0.999613 -74.20 0.999613 -74.20 0.027585 35.306
8.86280000 0.027614 -3.764 0.999612 -74.21 0.999612 -74.21 0.027619 35.342
8.86300000 0.027649 -3.809 0.999611 -74.21 0.999611 -74.21 0.027654 35.379
8.86320000 0.027684 -3.854 0.999610 -74.22 0.999610 -74.22 0.027689 35.416
8.86340000 0.027719 -3.899 0.999609 -74.22 0.999609 -74.22 0.027725 35.454
8.86360000 0.027755 -3.945 0.999608 -74.22 0.999608 -74.22 0.027760 35.491
8.86380000 0.027791 -3.991 0.999606 -74.23 0.999606 -74.23 0.027796 35.529
8.86400000 0.027827 -4.038 0.999605 -74.23 0.999605 -74.23 0.027833 35.567
8.86420000 0.027864 -4.085 0.999604 -74.24 0.999604 -74.24 0.027870 35.606
8.86440000 0.027901 -4.132 0.999603 -74.24 0.999603 -74.24 0.027907 35.644
8.86460000 0.027939 -4.180 0.999602 -74.24 0.999602 -74.24 0.027945 35.684
8.86480000 0.027977 -4.227 0.999601 -74.25 0.999601 -74.25 0.027983 35.723
8.86500000 0.028015 -4.276 0.999600 -74.25 0.999600 -74.25 0.028021 35.762
8.86520000 0.028054 -4.324 0.999599 -74.26 0.999599 -74.26 0.028060 35.802
8.86540000 0.028093 -4.373 0.999598 -74.26 0.999598 -74.26 0.028099 35.843
8.86560000 0.028133 -4.422 0.999597 -74.27 0.999597 -74.27 0.028139 35.883
8.86580000 0.028173 -4.472 0.999595 -74.27 0.999595 -74.27 0.028179 35.924
8.86600000 0.028213 -4.522 0.999594 -74.27 0.999594 -74.27 0.028219 35.965
8.86620000 0.028254 -4.572 0.999593 -74.28 0.999593 -74.28 0.028260 36.007
8.86640000 0.028296 -4.623 0.999592 -74.28 0.999592 -74.28 0.028302 36.048
8.86660000 0.028338 -4.674 0.999590 -74.29 0.999590 -74.29 0.028344 36.090
8.86680000 0.028380 -4.726 0.999589 -74.29 0.999589 -74.29 0.028386 36.133
8.86700000 0.028423 -4.777 0.999588 -74.30 0.999588 -74.30 0.028429 36.176
8.86720000 0.028466 -4.830 0.999587 -74.30 0.999587 -74.30 0.028472 36.219
8.86740000 0.028510 -4.882 0.999585 -74.31 0.999585 -74.31 0.028516 36.262
8.86760000 0.028554 -4.936 0.999584 -74.31 0.999584 -74.31 0.028560 36.306
8.86780000 0.028598 -4.989 0.999583 -74.31 0.999583 -74.31 0.028605 36.350
8.86800000 0.028644 -5.043 0.999581 -74.32 0.999581 -74.32 0.028650 36.394
8.86820000 0.028689 -5.097 0.999580 -74.32 0.999580 -74.32 0.028696 36.439
8.86840000 0.028736 -5.152 0.999579 -74.33 0.999579 -74.33 0.028742 36.484
8.86860000 0.028783 -5.207 0.999577 -74.33 0.999577 -74.33 0.028789 36.530
8.86880000 0.028830 -5.263 0.999576 -74.34 0.999576 -74.34 0.028837 36.576
8.86900000 0.028878 -5.319 0.999574 -74.34 0.999574 -74.34 0.028885 36.622
8.86920000 0.028926 -5.375 0.999573 -74.35 0.999573 -74.35 0.028933 36.668
8.86940000 0.028975 -5.432 0.999571 -74.35 0.999571 -74.35 0.028982 36.715
8.86960000 0.029025 -5.490 0.999570 -74.36 0.999570 -74.36 0.029032 36.763
8.86980000 0.029075 -5.547 0.999568 -74.36 0.999568 -74.36 0.029082 36.810
8.87000000 0.029126 -5.606 0.999567 -74.37 0.999567 -74.37 0.029133 36.858
8.87020000 0.029178 -5.665 0.999565 -74.37 0.999565 -74.37 0.029185 36.907
8.87040000 0.029230 -5.724 0.999564 -74.38 0.999564 -74.38 0.029237 36.956
8.87060000 0.029282 -5.784 0.999562 -74.38 0.999562 -74.38 0.029290 37.005
8.87080000 0.029336 -5.844 0.999560 -74.39 0.999560 -74.39 0.029343 37.055
8.87100000 0.029390 -5.904 0.999559 -74.39 0.999559 -74.39 0.029397 37.105
8.87120000 0.029445 -5.966 0.999557 -74.40 0.999557 -74.40 0.029452 37.155
8.87140000 0.029500 -6.027 0.999555 -74.40 0.999555 -74.40 0.029507 37.206
8.87160000 0.029556 -6.090 0.999554 -74.41 0.999554 -74.41 0.029564 37.258
8.87180000 0.029613 -6.152 0.999552 -74.41 0.999552 -74.41 0.029621 37.310
8.87200000 0.029670 -6.216 0.999550 -74.42 0.999550 -74.42 0.029678 37.362
8.87220000 0.029729 -6.280 0.999548 -74.42 0.999548 -74.42 0.029737 37.414
8.87240000 0.029788 -6.344 0.999546 -74.43 0.999546 -74.43 0.029796 37.468
8.87260000 0.029848 -6.409 0.999544 -74.44 0.999544 -74.44 0.029856 37.521
8.87280000 0.029908 -6.474 0.999543 -74.44 0.999543 -74.44 0.029916 37.575
8.87300000 0.029970 -6.540 0.999541 -74.45 0.999541 -74.45 0.029978 37.630
8.87320000 0.030032 -6.607 0.999539 -74.45 0.999539 -74.45 0.030040 37.685
8.87340000 0.030095 -6.674 0.999537 -74.46 0.999537 -74.46 0.030103 37.740
8.87360000 0.030159 -6.742 0.999535 -74.46 0.999535 -74.46 0.030167 37.796
8.87380000 0.030224 -6.810 0.999533 -74.47 0.999533 -74.47 0.030232 37.852
8.87400000 0.030289 -6.879 0.999531 -74.48 0.999531 -74.48 0.030298 37.909
8.87420000 0.030356 -6.949 0.999528 -74.48 0.999528 -74.48 0.030364 37.966
8.87440000 0.030423 -7.019 0.999526 -74.49 0.999526 -74.49 0.030432 38.024
8.87450114 0.030458 -7.055 0.999525 -74.49 0.999525 -74.49 0.030467 38.054
8.87460000 0.030492 -7.090 0.999524 -74.49 0.999524 -74.49 0.030501 38.083
8.87480000 0.030561 -7.162 0.999522 -74.50 0.999522 -74.50 0.030570 38.142
8.87500000 0.030632 -7.234 0.999520 -74.51 0.999520 -74.51 0.030641 38.201
8.87518621 0.030698 -7.301 0.999517 -74.51 0.999517 -74.51 0.030707 38.257
8.87520000 0.030703 -7.306 0.999517 -74.51 0.999517 -74.51 0.030712 38.261
8.87540000 0.030776 -7.380 0.999515 -74.52 0.999515 -74.52 0.030785 38.321
8.87560000 0.030849 -7.454 0.999513 -74.53 0.999513 -74.53 0.030858 38.382
8.87580000 0.030924 -7.529 0.999510 -74.53 0.999510 -74.53 0.030933 38.444
8.87585559 0.030944 -7.550 0.999509 -74.53 0.999509 -74.53 0.030954 38.461
8.87600000 0.030999 -7.604 0.999508 -74.54 0.999508 -74.54 0.031008 38.506
8.87620000 0.031076 -7.681 0.999505 -74.54 0.999505 -74.54 0.031085 38.569
8.87640000 0.031154 -7.757 0.999503 -74.55 0.999503 -74.55 0.031163 38.632
8.87650963 0.031197 -7.800 0.999501 -74.56 0.999501 -74.56 0.031207 38.667
8.87660000 0.031233 -7.835 0.999500 -74.56 0.999500 -74.56 0.031242 38.696
8.87680000 0.031313 -7.913 0.999497 -74.57 0.999497 -74.57 0.031323 38.760
8.87700000 0.031395 -7.993 0.999495 -74.57 0.999495 -74.57 0.031404 38.825
8.87714868 0.031456 -8.052 0.999493 -74.58 0.999493 -74.58 0.031466 38.874
8.87720000 0.031477 -8.072 0.999492 -74.58 0.999492 -74.58 0.031487 38.890
8.87740000 0.031561 -8.153 0.999489 -74.59 0.999489 -74.59 0.031571 38.957