! Sonnet Data File
! From: emgraph Version : 16.52
! From Project: Resonator2_extremeCap2
! Data is De-embedded 
! Data File Written: 10/10/2017 08:27:13
!< HDATE 10/10/2017 01:06:54
!< MDATE 10/10/2017 01:06:54
!< PARAMS
!< Pwid1 = 2000.0
!< Pwid2 = 2000.0
!< Air_gap = 6.0
!< Width = 10.0
!< Gap = 13.0
!< END PARAMS
# GHZ S MA R 35.98000
8.98000000 0.398454 -0.661 0.917143 -103.3 0.917143 -103.3 0.398356 -25.97
!< P1 F=8.98 Eeff=(5.37116343 -2.3769e-5) Z0=(35.9716001 8.05996e-5) R=0.0 C=0.0 
!< P2 F=8.98 Eeff=(5.37116343 -2.3769e-5) Z0=(35.9716001 8.05996e-5) R=0.0 C=0.0 
8.98010000 0.398588 -0.644 0.917084 -103.3 0.917084 -103.3 0.398490 -26.02
8.98020000 0.398723 -0.627 0.917025 -103.3 0.917025 -103.3 0.398625 -26.07
8.98030000 0.398858 -0.611 0.916966 -103.4 0.916966 -103.4 0.398760 -26.12
8.98040000 0.398995 -0.594 0.916907 -103.4 0.916907 -103.4 0.398896 -26.17
8.98050000 0.399131 -0.577 0.916847 -103.4 0.916847 -103.4 0.399032 -26.23
8.98060000 0.399269 -0.560 0.916787 -103.4 0.916787 -103.4 0.399169 -26.28
8.98070000 0.399407 -0.543 0.916727 -103.4 0.916727 -103.4 0.399307 -26.33
8.98080000 0.399545 -0.527 0.916666 -103.4 0.916666 -103.4 0.399445 -26.38
8.98090000 0.399685 -0.510 0.916605 -103.5 0.916605 -103.5 0.399584 -26.43
8.98100000 0.399824 -0.493 0.916544 -103.5 0.916544 -103.5 0.399723 -26.49
8.98110000 0.399965 -0.476 0.916483 -103.5 0.916483 -103.5 0.399863 -26.54
8.98120000 0.400106 -0.458 0.916421 -103.5 0.916421 -103.5 0.400004 -26.59
8.98130000 0.400248 -0.441 0.916359 -103.5 0.916359 -103.5 0.400145 -26.64
8.98140000 0.400390 -0.424 0.916297 -103.6 0.916297 -103.6 0.400287 -26.70
8.98150000 0.400533 -0.407 0.916234 -103.6 0.916234 -103.6 0.400430 -26.75
8.98160000 0.400677 -0.390 0.916171 -103.6 0.916171 -103.6 0.400573 -26.80
8.98170000 0.400821 -0.372 0.916108 -103.6 0.916108 -103.6 0.400717 -26.86
8.98180000 0.400966 -0.355 0.916044 -103.6 0.916044 -103.6 0.400862 -26.91
8.98190000 0.401112 -0.337 0.915980 -103.6 0.915980 -103.6 0.401007 -26.96
8.98200000 0.401258 -0.320 0.915916 -103.7 0.915916 -103.7 0.401153 -27.02
8.98210000 0.401405 -0.302 0.915851 -103.7 0.915851 -103.7 0.401300 -27.07
8.98220000 0.401553 -0.285 0.915786 -103.7 0.915786 -103.7 0.401447 -27.13
8.98230000 0.401701 -0.267 0.915721 -103.7 0.915721 -103.7 0.401595 -27.18
8.98240000 0.401850 -0.249 0.915656 -103.7 0.915656 -103.7 0.401744 -27.23
8.98250000 0.402000 -0.232 0.915590 -103.8 0.915590 -103.8 0.401893 -27.29
8.98260000 0.402150 -0.214 0.915523 -103.8 0.915523 -103.8 0.402043 -27.35
8.98270000 0.402302 -0.196 0.915457 -103.8 0.915457 -103.8 0.402194 -27.40
8.98280000 0.402453 -0.178 0.915390 -103.8 0.915390 -103.8 0.402345 -27.46
8.98290000 0.402606 -0.160 0.915323 -103.8 0.915323 -103.8 0.402498 -27.51
8.98300000 0.402759 -0.142 0.915255 -103.8 0.915255 -103.8 0.402650 -27.57
8.98310000 0.402913 -0.124 0.915187 -103.9 0.915187 -103.9 0.402804 -27.62
8.98320000 0.403068 -0.106 0.915119 -103.9 0.915119 -103.9 0.402958 -27.68
8.98330000 0.403223 -0.088 0.915050 -103.9 0.915050 -103.9 0.403113 -27.74
8.98340000 0.403379 -0.070 0.914981 -103.9 0.914981 -103.9 0.403269 -27.79
8.98350000 0.403536 -0.051 0.914912 -103.9 0.914912 -103.9 0.403426 -27.85
8.98360000 0.403694 -0.033 0.914842 -104.0 0.914842 -104.0 0.403583 -27.91
8.98370000 0.403852 -0.015 0.914772 -104.0 0.914772 -104.0 0.403741 -27.96
8.98380000 0.404012 0.0036 0.914701 -104.0 0.914701 -104.0 0.403899 -28.02
8.98390000 0.404171 0.0221 0.914631 -104.0 0.914631 -104.0 0.404059 -28.08
8.98400000 0.404332 0.0406 0.914559 -104.0 0.914559 -104.0 0.404219 -28.14
8.98410000 0.404494 0.0592 0.914488 -104.1 0.914488 -104.1 0.404380 -28.19
8.98420000 0.404656 0.0778 0.914416 -104.1 0.914416 -104.1 0.404542 -28.25
8.98430000 0.404819 0.0964 0.914343 -104.1 0.914343 -104.1 0.404705 -28.31
8.98440000 0.404983 0.1152 0.914271 -104.1 0.914271 -104.1 0.404868 -28.37
8.98450000 0.405147 0.1339 0.914198 -104.1 0.914198 -104.1 0.405032 -28.43
8.98460000 0.405313 0.1528 0.914124 -104.2 0.914124 -104.2 0.405197 -28.49
8.98470000 0.405479 0.1716 0.914050 -104.2 0.914050 -104.2 0.405363 -28.55
8.98480000 0.405646 0.1906 0.913976 -104.2 0.913976 -104.2 0.405529 -28.61
8.98490000 0.405814 0.2096 0.913901 -104.2 0.913901 -104.2 0.405697 -28.67
8.98500000 0.405982 0.2286 0.913826 -104.2 0.913826 -104.2 0.405865 -28.73
8.98510000 0.406152 0.2477 0.913751 -104.3 0.913751 -104.3 0.406034 -28.79
8.98520000 0.406322 0.2668 0.913675 -104.3 0.913675 -104.3 0.406204 -28.85
8.98530000 0.406493 0.2860 0.913598 -104.3 0.913598 -104.3 0.406374 -28.91
8.98540000 0.406665 0.3053 0.913522 -104.3 0.913522 -104.3 0.406546 -28.97
8.98550000 0.406838 0.3246 0.913444 -104.3 0.913444 -104.3 0.406718 -29.03
8.98560000 0.407011 0.3440 0.913367 -104.4 0.913367 -104.4 0.406891 -29.09
8.98570000 0.407186 0.3634 0.913289 -104.4 0.913289 -104.4 0.407065 -29.15
8.98580000 0.407361 0.3829 0.913210 -104.4 0.913210 -104.4 0.407240 -29.21
8.98590000 0.407538 0.4024 0.913132 -104.4 0.913132 -104.4 0.407416 -29.28
8.98600000 0.407715 0.4220 0.913052 -104.5 0.913052 -104.5 0.407593 -29.34
8.98610000 0.407893 0.4416 0.912972 -104.5 0.912972 -104.5 0.407770 -29.40
8.98620000 0.408072 0.4613 0.912892 -104.5 0.912892 -104.5 0.407949 -29.46
8.98630000 0.408252 0.4810 0.912812 -104.5 0.912812 -104.5 0.408128 -29.53
8.98640000 0.408432 0.5008 0.912731 -104.5 0.912731 -104.5 0.408308 -29.59
8.98650000 0.408614 0.5207 0.912649 -104.6 0.912649 -104.6 0.408490 -29.65
8.98660000 0.408796 0.5406 0.912567 -104.6 0.912567 -104.6 0.408672 -29.72
8.98670000 0.408980 0.5606 0.912485 -104.6 0.912485 -104.6 0.408855 -29.78
8.98680000 0.409164 0.5806 0.912402 -104.6 0.912402 -104.6 0.409039 -29.84
8.98690000 0.409350 0.6007 0.912318 -104.6 0.912318 -104.6 0.409224 -29.91
8.98700000 0.409536 0.6208 0.912234 -104.7 0.912234 -104.7 0.409409 -29.97
8.98710000 0.409723 0.6410 0.912150 -104.7 0.912150 -104.7 0.409596 -30.04
8.98720000 0.409911 0.6613 0.912065 -104.7 0.912065 -104.7 0.409784 -30.10
8.98730000 0.410101 0.6816 0.911980 -104.7 0.911980 -104.7 0.409972 -30.17
8.98740000 0.410291 0.7020 0.911894 -104.8 0.911894 -104.8 0.410162 -30.23
8.98750000 0.410482 0.7224 0.911808 -104.8 0.911808 -104.8 0.410353 -30.30
8.98760000 0.410674 0.7429 0.911721 -104.8 0.911721 -104.8 0.410544 -30.36
8.98770000 0.410867 0.7634 0.911634 -104.8 0.911634 -104.8 0.410737 -30.43
8.98780000 0.411061 0.7840 0.911546 -104.8 0.911546 -104.8 0.410931 -30.50
8.98790000 0.411256 0.8046 0.911458 -104.9 0.911458 -104.9 0.411125 -30.56
8.98800000 0.411453 0.8254 0.911369 -104.9 0.911369 -104.9 0.411321 -30.63
8.98810000 0.411650 0.8461 0.911280 -104.9 0.911280 -104.9 0.411517 -30.70
8.98820000 0.411848 0.8670 0.911190 -104.9 0.911190 -104.9 0.411715 -30.76
8.98830000 0.412047 0.8878 0.911100 -105.0 0.911100 -105.0 0.411914 -30.83
8.98840000 0.412248 0.9088 0.911009 -105.0 0.911009 -105.0 0.412114 -30.90
8.98850000 0.412449 0.9298 0.910917 -105.0 0.910917 -105.0 0.412314 -30.97
8.98860000 0.412651 0.9508 0.910825 -105.0 0.910825 -105.0 0.412516 -31.04
8.98870000 0.412855 0.9720 0.910733 -105.1 0.910733 -105.1 0.412719 -31.10
8.98880000 0.413059 0.9931 0.910640 -105.1 0.910640 -105.1 0.412923 -31.17
8.98890000 0.413265 1.0144 0.910546 -105.1 0.910546 -105.1 0.413128 -31.24
8.98900000 0.413472 1.0357 0.910452 -105.1 0.910452 -105.1 0.413335 -31.31
8.98910000 0.413680 1.0570 0.910358 -105.2 0.910358 -105.2 0.413542 -31.38
8.98920000 0.413889 1.0784 0.910262 -105.2 0.910262 -105.2 0.413750 -31.45
8.98930000 0.414099 1.0999 0.910166 -105.2 0.910166 -105.2 0.413960 -31.52
8.98940000 0.414310 1.1214 0.910070 -105.2 0.910070 -105.2 0.414171 -31.59
8.98950000 0.414522 1.1430 0.909973 -105.3 0.909973 -105.3 0.414382 -31.66
8.98960000 0.414736 1.1647 0.909875 -105.3 0.909875 -105.3 0.414595 -31.73
8.98970000 0.414951 1.1864 0.909777 -105.3 0.909777 -105.3 0.414809 -31.81
8.98980000 0.415166 1.2081 0.909679 -105.3 0.909679 -105.3 0.415025 -31.88
8.98990000 0.415384 1.2300 0.909579 -105.4 0.909579 -105.4 0.415241 -31.95
8.99000000 0.415602 1.2518 0.909479 -105.4 0.909479 -105.4 0.415459 -32.02
8.99010000 0.415821 1.2738 0.909379 -105.4 0.909379 -105.4 0.415678 -32.09
8.99020000 0.416042 1.2958 0.909277 -105.4 0.909277 -105.4 0.415898 -32.17
8.99030000 0.416264 1.3179 0.909176 -105.5 0.909176 -105.5 0.416119 -32.24
8.99040000 0.416487 1.3400 0.909073 -105.5 0.909073 -105.5 0.416341 -32.31
8.99050000 0.416711 1.3622 0.908970 -105.5 0.908970 -105.5 0.416565 -32.39
8.99060000 0.416936 1.3844 0.908866 -105.5 0.908866 -105.5 0.416790 -32.46
8.99070000 0.417163 1.4068 0.908762 -105.6 0.908762 -105.6 0.417016 -32.53
8.99080000 0.417391 1.4291 0.908657 -105.6 0.908657 -105.6 0.417243 -32.61
8.99090000 0.417620 1.4516 0.908551 -105.6 0.908551 -105.6 0.417472 -32.68
8.99100000 0.417851 1.4740 0.908445 -105.6 0.908445 -105.6 0.417702 -32.76
8.99110000 0.418083 1.4966 0.908338 -105.7 0.908338 -105.7 0.417933 -32.83
8.99120000 0.418316 1.5192 0.908230 -105.7 0.908230 -105.7 0.418166 -32.91
8.99130000 0.418551 1.5419 0.908122 -105.7 0.908122 -105.7 0.418399 -32.99
8.99140000 0.418786 1.5646 0.908013 -105.7 0.908013 -105.7 0.418635 -33.06
8.99150000 0.419024 1.5874 0.907903 -105.8 0.907903 -105.8 0.418871 -33.14
8.99160000 0.419262 1.6103 0.907793 -105.8 0.907793 -105.8 0.419109 -33.22
8.99170000 0.419502 1.6332 0.907682 -105.8 0.907682 -105.8 0.419348 -33.29
8.99180000 0.419743 1.6562 0.907570 -105.8 0.907570 -105.8 0.419589 -33.37
8.99190000 0.419986 1.6792 0.907457 -105.9 0.907457 -105.9 0.419831 -33.45
8.99200000 0.420230 1.7023 0.907344 -105.9 0.907344 -105.9 0.420074 -33.53
8.99210000 0.420475 1.7255 0.907230 -105.9 0.907230 -105.9 0.420319 -33.60
8.99220000 0.420722 1.7487 0.907115 -106.0 0.907115 -106.0 0.420565 -33.68
8.99230000 0.420970 1.7720 0.907000 -106.0 0.907000 -106.0 0.420812 -33.76
8.99240000 0.421219 1.7954 0.906883 -106.0 0.906883 -106.0 0.421061 -33.84
8.99250000 0.421470 1.8188 0.906766 -106.0 0.906766 -106.0 0.421311 -33.92
8.99260000 0.421723 1.8423 0.906649 -106.1 0.906649 -106.1 0.421563 -34.00
8.99270000 0.421977 1.8658 0.906530 -106.1 0.906530 -106.1 0.421817 -34.08
8.99280000 0.422232 1.8894 0.906411 -106.1 0.906411 -106.1 0.422071 -34.16
8.99290000 0.422489 1.9131 0.906291 -106.2 0.906291 -106.2 0.422327 -34.24
8.99300000 0.422748 1.9368 0.906170 -106.2 0.906170 -106.2 0.422585 -34.33
8.99310000 0.423008 1.9606 0.906048 -106.2 0.906048 -106.2 0.422844 -34.41
8.99320000 0.423269 1.9845 0.905926 -106.2 0.905926 -106.2 0.423105 -34.49
8.99330000 0.423532 2.0084 0.905802 -106.3 0.905802 -106.3 0.423368 -34.57
8.99340000 0.423797 2.0323 0.905678 -106.3 0.905678 -106.3 0.423631 -34.65
8.99350000 0.424063 2.0564 0.905553 -106.3 0.905553 -106.3 0.423897 -34.74
8.99360000 0.424331 2.0805 0.905427 -106.4 0.905427 -106.4 0.424164 -34.82
8.99370000 0.424600 2.1046 0.905301 -106.4 0.905301 -106.4 0.424432 -34.91
8.99380000 0.424871 2.1289 0.905173 -106.4 0.905173 -106.4 0.424703 -34.99
8.99390000 0.425144 2.1532 0.905045 -106.5 0.905045 -106.5 0.424974 -35.07
8.99400000 0.425418 2.1775 0.904916 -106.5 0.904916 -106.5 0.425248 -35.16
8.99410000 0.425694 2.2019 0.904786 -106.5 0.904786 -106.5 0.425523 -35.24
8.99420000 0.425971 2.2264 0.904655 -106.5 0.904655 -106.5 0.425800 -35.33
8.99430000 0.426250 2.2509 0.904523 -106.6 0.904523 -106.6 0.426078 -35.42
8.99440000 0.426531 2.2755 0.904390 -106.6 0.904390 -106.6 0.426358 -35.50
8.99450000 0.426814 2.3002 0.904256 -106.6 0.904256 -106.6 0.426640 -35.59
8.99460000 0.427098 2.3249 0.904122 -106.7 0.904122 -106.7 0.426923 -35.68
8.99470000 0.427384 2.3497 0.903986 -106.7 0.903986 -106.7 0.427209 -35.76
8.99480000 0.427672 2.3745 0.903849 -106.7 0.903849 -106.7 0.427496 -35.85
8.99490000 0.427961 2.3995 0.903712 -106.8 0.903712 -106.8 0.427784 -35.94
8.99500000 0.428253 2.4244 0.903574 -106.8 0.903574 -106.8 0.428075 -36.03
8.99510000 0.428546 2.4495 0.903434 -106.8 0.903434 -106.8 0.428367 -36.12
8.99520000 0.428841 2.4746 0.903294 -106.9 0.903294 -106.9 0.428661 -36.21
8.99530000 0.429137 2.4997 0.903152 -106.9 0.903152 -106.9 0.428957 -36.30
8.99540000 0.429436 2.5249 0.903010 -106.9 0.903010 -106.9 0.429255 -36.39
8.99550000 0.429736 2.5502 0.902867 -107.0 0.902867 -107.0 0.429554 -36.48
8.99560000 0.430039 2.5756 0.902722 -107.0 0.902722 -107.0 0.429856 -36.57
8.99570000 0.430343 2.6010 0.902577 -107.0 0.902577 -107.0 0.430159 -36.66
8.99580000 0.430649 2.6264 0.902431 -107.1 0.902431 -107.1 0.430464 -36.75
8.99590000 0.430957 2.6520 0.902283 -107.1 0.902283 -107.1 0.430771 -36.84
8.99600000 0.431267 2.6775 0.902134 -107.1 0.902134 -107.1 0.431080 -36.93
8.99610000 0.431579 2.7032 0.901985 -107.2 0.901985 -107.2 0.431391 -37.03
8.99620000 0.431893 2.7289 0.901834 -107.2 0.901834 -107.2 0.431704 -37.12
8.99630000 0.432208 2.7547 0.901682 -107.2 0.901682 -107.2 0.432019 -37.21
8.99640000 0.432526 2.7805 0.901529 -107.3 0.901529 -107.3 0.432336 -37.31
8.99650000 0.432846 2.8064 0.901375 -107.3 0.901375 -107.3 0.432655 -37.40
8.99660000 0.433168 2.8324 0.901220 -107.3 0.901220 -107.3 0.432976 -37.50
8.99670000 0.433492 2.8584 0.901064 -107.4 0.901064 -107.4 0.433299 -37.59
8.99680000 0.433818 2.8845 0.900907 -107.4 0.900907 -107.4 0.433625 -37.69
8.99690000 0.434146 2.9106 0.900748 -107.4 0.900748 -107.4 0.433952 -37.79
8.99700000 0.434476 2.9368 0.900588 -107.5 0.900588 -107.5 0.434281 -37.88
8.99710000 0.434809 2.9631 0.900427 -107.5 0.900427 -107.5 0.434613 -37.98
8.99720000 0.435143 2.9894 0.900265 -107.5 0.900265 -107.5 0.434946 -38.08
8.99730000 0.435480 3.0157 0.900102 -107.6 0.900102 -107.6 0.435282 -38.17
8.99740000 0.435819 3.0422 0.899937 -107.6 0.899937 -107.6 0.435620 -38.27
8.99750000 0.436160 3.0687 0.899772 -107.6 0.899772 -107.6 0.435960 -38.37
8.99760000 0.436503 3.0952 0.899605 -107.7 0.899605 -107.7 0.436302 -38.47
8.99770000 0.436849 3.1218 0.899436 -107.7 0.899436 -107.7 0.436647 -38.57
8.99780000 0.437197 3.1485 0.899267 -107.7 0.899267 -107.7 0.436994 -38.67
8.99790000 0.437547 3.1752 0.899096 -107.8 0.899096 -107.8 0.437343 -38.77
8.99800000 0.437900 3.2020 0.898924 -107.8 0.898924 -107.8 0.437695 -38.87
8.99810000 0.438254 3.2289 0.898750 -107.9 0.898750 -107.9 0.438048 -38.97
8.99820000 0.438612 3.2558 0.898575 -107.9 0.898575 -107.9 0.438405 -39.08
8.99830000 0.438971 3.2827 0.898399 -107.9 0.898399 -107.9 0.438763 -39.18
8.99840000 0.439333 3.3098 0.898222 -108.0 0.898222 -108.0 0.439124 -39.28
8.99850000 0.439697 3.3368 0.898043 -108.0 0.898043 -108.0 0.439487 -39.39
8.99860000 0.440064 3.3640 0.897863 -108.1 0.897863 -108.1 0.439853 -39.49
8.99870000 0.440434 3.3911 0.897681 -108.1 0.897681 -108.1 0.440221 -39.59
8.99880000 0.440805 3.4184 0.897498 -108.1 0.897498 -108.1 0.440592 -39.70
8.99890000 0.441180 3.4457 0.897313 -108.2 0.897313 -108.2 0.440965 -39.80
8.99900000 0.441556 3.4730 0.897128 -108.2 0.897128 -108.2 0.441341 -39.91
8.99910000 0.441936 3.5004 0.896940 -108.2 0.896940 -108.2 0.441719 -40.02
8.99920000 0.442318 3.5279 0.896751 -108.3 0.896751 -108.3 0.442100 -40.12
8.99930000 0.442702 3.5554 0.896561 -108.3 0.896561 -108.3 0.442484 -40.23
8.99940000 0.443090 3.5830 0.896369 -108.4 0.896369 -108.4 0.442870 -40.34
8.99950000 0.443479 3.6106 0.896176 -108.4 0.896176 -108.4 0.443259 -40.45
8.99960000 0.443872 3.6383 0.895981 -108.4 0.895981 -108.4 0.443650 -40.56
8.99970000 0.444267 3.6660 0.895784 -108.5 0.895784 -108.5 0.444044 -40.67
8.99980000 0.444665 3.6938 0.895586 -108.5 0.895586 -108.5 0.444441 -40.78
8.99990000 0.445066 3.7216 0.895386 -108.6 0.895386 -108.6 0.444841 -40.89
9.00000000 0.445469 3.7495 0.895185 -108.6 0.895185 -108.6 0.445243 -41.00
9.00010000 0.445876 3.7774 0.894982 -108.7 0.894982 -108.7 0.445648 -41.11
9.00020000 0.446285 3.8054 0.894777 -108.7 0.894777 -108.7 0.446056 -41.22
9.00030000 0.446697 3.8334 0.894571 -108.7 0.894571 -108.7 0.446467 -41.33
9.00040000 0.447112 3.8615 0.894363 -108.8 0.894363 -108.8 0.446881 -41.45
9.00050000 0.447530 3.8896 0.894153 -108.8 0.894153 -108.8 0.447297 -41.56
9.00060000 0.447951 3.9178 0.893942 -108.9 0.893942 -108.9 0.447717 -41.67
9.00070000 0.448374 3.9460 0.893729 -108.9 0.893729 -108.9 0.448140 -41.79
9.00080000 0.448801 3.9743 0.893514 -109.0 0.893514 -109.0 0.448565 -41.90
9.00090000 0.449231 4.0026 0.893297 -109.0 0.893297 -109.0 0.448994 -42.02
9.00100000 0.449664 4.0310 0.893079 -109.0 0.893079 -109.0 0.449425 -42.14
9.00110000 0.450100 4.0594 0.892858 -109.1 0.892858 -109.1 0.449860 -42.25
9.00120000 0.450539 4.0878 0.892636 -109.1 0.892636 -109.1 0.450298 -42.37
9.00130000 0.450981 4.1163 0.892412 -109.2 0.892412 -109.2 0.450739 -42.49
9.00140000 0.451427 4.1448 0.892186 -109.2 0.892186 -109.2 0.451183 -42.61
9.00150000 0.451875 4.1734 0.891958 -109.3 0.891958 -109.3 0.451631 -42.73
9.00160000 0.452327 4.2020 0.891728 -109.3 0.891728 -109.3 0.452081 -42.85
9.00170000 0.452782 4.2307 0.891497 -109.4 0.891497 -109.4 0.452535 -42.97
9.00180000 0.453241 4.2594 0.891263 -109.4 0.891263 -109.4 0.452992 -43.09
9.00190000 0.453703 4.2881 0.891027 -109.4 0.891027 -109.4 0.453453 -43.21
9.00200000 0.454168 4.3169 0.890789 -109.5 0.890789 -109.5 0.453917 -43.33
9.00210000 0.454637 4.3457 0.890549 -109.5 0.890549 -109.5 0.454384 -43.46
9.00220000 0.455109 4.3746 0.890307 -109.6 0.890307 -109.6 0.454855 -43.58
9.00230000 0.455584 4.4034 0.890063 -109.6 0.890063 -109.6 0.455329 -43.71
9.00240000 0.456063 4.4324 0.889817 -109.7 0.889817 -109.7 0.455807 -43.83
9.00250000 0.456546 4.4613 0.889569 -109.7 0.889569 -109.7 0.456288 -43.96
9.00260000 0.457032 4.4903 0.889318 -109.8 0.889318 -109.8 0.456773 -44.08
9.00270000 0.457522 4.5193 0.889066 -109.8 0.889066 -109.8 0.457261 -44.21
9.00280000 0.458016 4.5484 0.888811 -109.9 0.888811 -109.9 0.457753 -44.34
9.00290000 0.458513 4.5774 0.888553 -109.9 0.888553 -109.9 0.458249 -44.46
9.00300000 0.459014 4.6065 0.888294 -110.0 0.888294 -110.0 0.458749 -44.59
9.00310000 0.459518 4.6357 0.888032 -110.0 0.888032 -110.0 0.459252 -44.72
9.00320000 0.460027 4.6648 0.887768 -110.1 0.887768 -110.1 0.459759 -44.85
9.00330000 0.460539 4.6940 0.887501 -110.1 0.887501 -110.1 0.460270 -44.98
9.00340000 0.461056 4.7232 0.887232 -110.2 0.887232 -110.2 0.460785 -45.12
9.00350000 0.461576 4.7525 0.886961 -110.2 0.886961 -110.2 0.461303 -45.25
9.00360000 0.462100 4.7817 0.886687 -110.3 0.886687 -110.3 0.461826 -45.38
9.00370000 0.462628 4.8110 0.886411 -110.3 0.886411 -110.3 0.462353 -45.51
9.00380000 0.463160 4.8403 0.886132 -110.4 0.886132 -110.4 0.462883 -45.65
9.00390000 0.463697 4.8696 0.885850 -110.4 0.885850 -110.4 0.463418 -45.78
9.00400000 0.464237 4.8989 0.885566 -110.5 0.885566 -110.5 0.463957 -45.92
9.00410000 0.464782 4.9283 0.885280 -110.5 0.885280 -110.5 0.464500 -46.05
9.00420000 0.465331 4.9577 0.884990 -110.6 0.884990 -110.6 0.465047 -46.19
9.00430000 0.465884 4.9870 0.884698 -110.7 0.884698 -110.7 0.465599 -46.33
9.00440000 0.466441 5.0164 0.884404 -110.7 0.884404 -110.7 0.466155 -46.47
9.00450000 0.467003 5.0458 0.884106 -110.8 0.884106 -110.8 0.466715 -46.61
9.00460000 0.467569 5.0752 0.883806 -110.8 0.883806 -110.8 0.467280 -46.75
9.00470000 0.468140 5.1046 0.883503 -110.9 0.883503 -110.9 0.467849 -46.89
9.00480000 0.468715 5.1340 0.883197 -110.9 0.883197 -110.9 0.468422 -47.03
9.00490000 0.469295 5.1635 0.882888 -111.0 0.882888 -111.0 0.469000 -47.17
9.00500000 0.469879 5.1929 0.882576 -111.0 0.882576 -111.0 0.469583 -47.32
9.00510000 0.470468 5.2223 0.882261 -111.1 0.882261 -111.1 0.470170 -47.46
9.00520000 0.471062 5.2517 0.881943 -111.2 0.881943 -111.2 0.470762 -47.60
9.00530000 0.471660 5.2811 0.881622 -111.2 0.881622 -111.2 0.471359 -47.75
9.00540000 0.472263 5.3106 0.881298 -111.3 0.881298 -111.3 0.471960 -47.89
9.00550000 0.472871 5.3400 0.880971 -111.3 0.880971 -111.3 0.472566 -48.04
9.00560000 0.473484 5.3694 0.880641 -111.4 0.880641 -111.4 0.473177 -48.19
9.00570000 0.474102 5.3987 0.880307 -111.4 0.880307 -111.4 0.473793 -48.34
9.00580000 0.474725 5.4281 0.879970 -111.5 0.879970 -111.5 0.474414 -48.49
9.00590000 0.475353 5.4575 0.879630 -111.6 0.879630 -111.6 0.475041 -48.64
9.00600000 0.475986 5.4868 0.879287 -111.6 0.879287 -111.6 0.475672 -48.79
9.00610000 0.476624 5.5161 0.878940 -111.7 0.878940 -111.7 0.476308 -48.94
9.00620000 0.477267 5.5454 0.878589 -111.8 0.878589 -111.8 0.476950 -49.09
9.00630000 0.477916 5.5747 0.878235 -111.8 0.878235 -111.8 0.477596 -49.25
9.00640000 0.478570 5.6040 0.877878 -111.9 0.877878 -111.9 0.478249 -49.40
9.00650000 0.479229 5.6332 0.877517 -111.9 0.877517 -111.9 0.478906 -49.56
9.00660000 0.479894 5.6624 0.877152 -112.0 0.877152 -112.0 0.479569 -49.71
9.00670000 0.480565 5.6916 0.876784 -112.1 0.876784 -112.1 0.480237 -49.87
9.00680000 0.481240 5.7207 0.876412 -112.1 0.876412 -112.1 0.480911 -50.03
9.00690000 0.481922 5.7498 0.876036 -112.2 0.876036 -112.2 0.481591 -50.19
9.00700000 0.482609 5.7788 0.875656 -112.3 0.875656 -112.3 0.482276 -50.35
9.00710000 0.483302 5.8079 0.875273 -112.3 0.875273 -112.3 0.482967 -50.51
9.00720000 0.484001 5.8368 0.874885 -112.4 0.874885 -112.4 0.483664 -50.67
9.00730000 0.484706 5.8657 0.874494 -112.5 0.874494 -112.5 0.484367 -50.83
9.00740000 0.485417 5.8946 0.874098 -112.5 0.874098 -112.5 0.485075 -50.99
9.00750000 0.486133 5.9234 0.873698 -112.6 0.873698 -112.6 0.485790 -51.16
9.00760000 0.486856 5.9522 0.873294 -112.7 0.873294 -112.7 0.486511 -51.32
9.00770000 0.487585 5.9809 0.872886 -112.7 0.872886 -112.7 0.487238 -51.49
9.00780000 0.488320 6.0095 0.872474 -112.8 0.872474 -112.8 0.487971 -51.66
9.00790000 0.489062 6.0381 0.872057 -112.9 0.872057 -112.9 0.488710 -51.82
9.00800000 0.489810 6.0666 0.871636 -112.9 0.871636 -112.9 0.489456 -51.99
9.00810000 0.490564 6.0950 0.871210 -113.0 0.871210 -113.0 0.490208 -52.16
9.00820000 0.491325 6.1233 0.870780 -113.1 0.870780 -113.1 0.490967 -52.33
9.00830000 0.492092 6.1516 0.870345 -113.2 0.870345 -113.2 0.491732 -52.51
9.00840000 0.492866 6.1798 0.869905 -113.2 0.869905 -113.2 0.492504 -52.68
9.00850000 0.493647 6.2079 0.869461 -113.3 0.869461 -113.3 0.493282 -52.85
9.00860000 0.494435 6.2359 0.869011 -113.4 0.869011 -113.4 0.494067 -53.03
9.00870000 0.495229 6.2638 0.868557 -113.4 0.868557 -113.4 0.494860 -53.21
9.00880000 0.496031 6.2917 0.868098 -113.5 0.868098 -113.5 0.495659 -53.38
9.00890000 0.496839 6.3194 0.867634 -113.6 0.867634 -113.6 0.496465 -53.56
9.00900000 0.497655 6.3470 0.867165 -113.7 0.867165 -113.7 0.497278 -53.74
9.00910000 0.498478 6.3745 0.866691 -113.7 0.866691 -113.7 0.498099 -53.92
9.00920000 0.499308 6.4019 0.866211 -113.8 0.866211 -113.8 0.498926 -54.10
9.00930000 0.500145 6.4292 0.865726 -113.9 0.865726 -113.9 0.499762 -54.28
9.00940000 0.500990 6.4563 0.865236 -114.0 0.865236 -114.0 0.500604 -54.47
9.00950000 0.501843 6.4834 0.864740 -114.1 0.864740 -114.1 0.501454 -54.65
9.00960000 0.502703 6.5103 0.864238 -114.1 0.864238 -114.1 0.502312 -54.84
9.00970000 0.503571 6.5370 0.863731 -114.2 0.863731 -114.2 0.503177 -55.03
9.00980000 0.504447 6.5637 0.863218 -114.3 0.863218 -114.3 0.504051 -55.21
9.00990000 0.505331 6.5901 0.862699 -114.4 0.862699 -114.4 0.504932 -55.40
9.01000000 0.506222 6.6165 0.862175 -114.5 0.862175 -114.5 0.505821 -55.59
9.01010000 0.507122 6.6426 0.861644 -114.5 0.861644 -114.5 0.506718 -55.79
9.01020000 0.508030 6.6687 0.861107 -114.6 0.861107 -114.6 0.507623 -55.98
9.01030000 0.508946 6.6945 0.860564 -114.7 0.860564 -114.7 0.508537 -56.17
9.01040000 0.509871 6.7202 0.860014 -114.8 0.860014 -114.8 0.509459 -56.37
9.01050000 0.510804 6.7457 0.859458 -114.9 0.859458 -114.9 0.510390 -56.57
9.01060000 0.511746 6.7710 0.858896 -115.0 0.858896 -115.0 0.511329 -56.76
9.01070000 0.512696 6.7962 0.858327 -115.1 0.858327 -115.1 0.512276 -56.96
9.01080000 0.513656 6.8211 0.857751 -115.1 0.857751 -115.1 0.513233 -57.16
9.01090000 0.514624 6.8459 0.857169 -115.2 0.857169 -115.2 0.514198 -57.36
9.01100000 0.515601 6.8704 0.856579 -115.3 0.856579 -115.3 0.515172 -57.57
9.01110000 0.516587 6.8948 0.855983 -115.4 0.855983 -115.4 0.516156 -57.77
9.01120000 0.517582 6.9189 0.855379 -115.5 0.855379 -115.5 0.517148 -57.98
9.01130000 0.518587 6.9428 0.854768 -115.6 0.854768 -115.6 0.518150 -58.18
9.01140000 0.519602 6.9664 0.854150 -115.7 0.854150 -115.7 0.519161 -58.39
9.01150000 0.520625 6.9899 0.853524 -115.8 0.853524 -115.8 0.520182 -58.60
9.01160000 0.521659 7.0131 0.852891 -115.9 0.852891 -115.9 0.521213 -58.81
9.01170000 0.522702 7.0360 0.852249 -116.0 0.852249 -116.0 0.522253 -59.02
9.01180000 0.523755 7.0587 0.851600 -116.1 0.851600 -116.1 0.523303 -59.24
9.01190000 0.524818 7.0811 0.850943 -116.2 0.850943 -116.2 0.524363 -59.45
9.01200000 0.525892 7.1032 0.850278 -116.2 0.850278 -116.2 0.525434 -59.67
9.01210000 0.526975 7.1251 0.849604 -116.3 0.849604 -116.3 0.526514 -59.89
9.01220000 0.528069 7.1467 0.848922 -116.4 0.848922 -116.4 0.527605 -60.10
9.01230000 0.529174 7.1679 0.848232 -116.5 0.848232 -116.5 0.528706 -60.33
9.01240000 0.530289 7.1889 0.847533 -116.6 0.847533 -116.6 0.529818 -60.55
9.01250000 0.531415 7.2096 0.846825 -116.7 0.846825 -116.7 0.530941 -60.77
9.01260000 0.532552 7.2299 0.846108 -116.8 0.846108 -116.8 0.532074 -61.00
9.01270000 0.533700 7.2500 0.845381 -117.0 0.845381 -117.0 0.533219 -61.22
9.01280000 0.534859 7.2696 0.844646 -117.1 0.844646 -117.1 0.534375 -61.45
9.01290000 0.536029 7.2890 0.843901 -117.2 0.843901 -117.2 0.535542 -61.68
9.01300000 0.537211 7.3080 0.843146 -117.3 0.843146 -117.3 0.536720 -61.91
9.01310000 0.538404 7.3266 0.842382 -117.4 0.842382 -117.4 0.537910 -62.14
9.01320000 0.539610 7.3448 0.841608 -117.5 0.841608 -117.5 0.539112 -62.38
9.01330000 0.540827 7.3627 0.840824 -117.6 0.840824 -117.6 0.540325 -62.61
9.01340000 0.542056 7.3801 0.840029 -117.7 0.840029 -117.7 0.541551 -62.85
9.01350000 0.543297 7.3972 0.839224 -117.8 0.839224 -117.8 0.542789 -63.09
9.01360000 0.544551 7.4138 0.838408 -117.9 0.838408 -117.9 0.544038 -63.33
9.01370000 0.545817 7.4300 0.837581 -118.0 0.837581 -118.0 0.545301 -63.57
9.01380000 0.547095 7.4458 0.836744 -118.1 0.836744 -118.1 0.546576 -63.82
9.01390000 0.548387 7.4612 0.835895 -118.3 0.835895 -118.3 0.547863 -64.06
9.01400000 0.549691 7.4760 0.835035 -118.4 0.835035 -118.4 0.549164 -64.31
9.01410000 0.551008 7.4904 0.834163 -118.5 0.834163 -118.5 0.550478 -64.56
9.01420000 0.552339 7.5044 0.833279 -118.6 0.833279 -118.6 0.551805 -64.81
9.01430000 0.553683 7.5178 0.832383 -118.7 0.832383 -118.7 0.553145 -65.06
9.01440000 0.555041 7.5307 0.831475 -118.9 0.831475 -118.9 0.554499 -65.32
9.01450000 0.556412 7.5431 0.830555 -119.0 0.830555 -119.0 0.555866 -65.57
9.01460000 0.557798 7.5550 0.829622 -119.1 0.829622 -119.1 0.557248 -65.83
9.01470000 0.559197 7.5663 0.828675 -119.2 0.828675 -119.2 0.558643 -66.09
9.01480000 0.560611 7.5771 0.827716 -119.3 0.827716 -119.3 0.560053 -66.35
9.01490000 0.562039 7.5873 0.826744 -119.5 0.826744 -119.5 0.561477 -66.62
9.01500000 0.563482 7.5969 0.825757 -119.6 0.825757 -119.6 0.562916 -66.88
9.01510000 0.564940 7.6060 0.824757 -119.7 0.824757 -119.7 0.564369 -67.15
9.01520000 0.566412 7.6144 0.823743 -119.9 0.823743 -119.9 0.565837 -67.42
9.01530000 0.567900 7.6221 0.822714 -120.0 0.822714 -120.0 0.567321 -67.69
9.01540000 0.569403 7.6293 0.821671 -120.1 0.821671 -120.1 0.568820 -67.97
9.01550000 0.570922 7.6358 0.820612 -120.3 0.820612 -120.3 0.570334 -68.24
9.01560000 0.572456 7.6416 0.819539 -120.4 0.819539 -120.4 0.571864 -68.52
9.01570000 0.574006 7.6467 0.818450 -120.5 0.818450 -120.5 0.573410 -68.80
9.01580000 0.575573 7.6511 0.817345 -120.7 0.817345 -120.7 0.574972 -69.08
9.01590000 0.577156 7.6547 0.816224 -120.8 0.816224 -120.8 0.576550 -69.36
9.01600000 0.578755 7.6577 0.815086 -120.9 0.815086 -120.9 0.578144 -69.65
9.01610000 0.580371 7.6599 0.813932 -121.1 0.813932 -121.1 0.579756 -69.94
9.01620000 0.582004 7.6613 0.812761 -121.2 0.812761 -121.2 0.581384 -70.23
9.01630000 0.583654 7.6619 0.811573 -121.4 0.811573 -121.4 0.583029 -70.52
9.01640000 0.585321 7.6617 0.810367 -121.5 0.810367 -121.5 0.584692 -70.82
9.01650000 0.587006 7.6606 0.809142 -121.7 0.809142 -121.7 0.586372 -71.11
9.01660000 0.588708 7.6588 0.807900 -121.8 0.807900 -121.8 0.588069 -71.41
9.01670000 0.590429 7.6560 0.806639 -122.0 0.806639 -122.0 0.589785 -71.71
9.01680000 0.592168 7.6524 0.805358 -122.1 0.805358 -122.1 0.591519 -72.02
9.01690000 0.593925 7.6478 0.804058 -122.3 0.804058 -122.3 0.593271 -72.32
9.01700000 0.595701 7.6423 0.802739 -122.4 0.802739 -122.4 0.595042 -72.63
9.01710000 0.597495 7.6359 0.801399 -122.6 0.801399 -122.6 0.596831 -72.94
9.01720000 0.599309 7.6284 0.800039 -122.8 0.800039 -122.8 0.598639 -73.26
9.01730000 0.601142 7.6200 0.798657 -122.9 0.798657 -122.9 0.600467 -73.57
9.01740000 0.602994 7.6106 0.797254 -123.1 0.797254 -123.1 0.602314 -73.89
9.01750000 0.604866 7.6001 0.795829 -123.2 0.795829 -123.2 0.604181 -74.21
9.01760000 0.606758 7.5886 0.794382 -123.4 0.794382 -123.4 0.606068 -74.53
9.01762340 0.607204 7.5857 0.794040 -123.5 0.794040 -123.5 0.606512 -74.61
9.01770000 0.608671 7.5759 0.792912 -123.6 0.792912 -123.6 0.607975 -74.86
9.01780000 0.610603 7.5622 0.791419 -123.8 0.791419 -123.8 0.609902 -75.19
9.01790000 0.612557 7.5473 0.789903 -123.9 0.789903 -123.9 0.611850 -75.52
9.01793939 0.613332 7.5411 0.789299 -124.0 0.789299 -124.0 0.612622 -75.65
9.01800000 0.614531 7.5312 0.788362 -124.1 0.788362 -124.1 0.613818 -75.85
9.01810000 0.616527 7.5139 0.786797 -124.3 0.786797 -124.3 0.615808 -76.19
9.01820000 0.618543 7.4955 0.785206 -124.5 0.785206 -124.5 0.617819 -76.53
9.01824814 0.619522 7.4861 0.784431 -124.5 0.784431 -124.5 0.618795 -76.69
9.01830000 0.620582 7.4757 0.783590 -124.6 0.783590 -124.6 0.619852 -76.87
9.01840000 0.622642 7.4547 0.781948 -124.8 0.781948 -124.8 0.621906 -77.22
9.01850000 0.624724 7.4324 0.780279 -125.0 0.780279 -125.0 0.623982 -77.56
9.01854981 0.625770 7.4208 0.779437 -125.1 0.779437 -125.1 0.625025 -77.74
9.01860000 0.626829 7.4088 0.778582 -125.2 0.778582 -125.2 0.626081 -77.92
9.01870000 0.628956 7.3838 0.776858 -125.4 0.776858 -125.4 0.628202 -78.27
9.01880000 0.631106 7.3574 0.775106 -125.6 0.775106 -125.6 0.630346 -78.63