! Sonnet Data File
! From: emgraph Version : 16.52
! From Project: Resonator2_cp_varyW
! Data is De-embedded 
! Data File Written: 10/08/2017 22:08:32
!< HDATE 10/08/2017 15:20:13
!< MDATE 10/08/2017 15:20:13
!< PARAMS
!< Length = 400.0
!< Pwid1 = 2000.0
!< Pwid2 = 2000.0
!< Air_gap = 24.0
!< Width = 40.0
!< gap = 26.0
!< END PARAMS
# GHZ S MA R 45.40000
8.90000000 0.016009 17.181 0.999867 -73.84 0.999867 -73.84 0.016006 15.166
!< P1 F=8.9 Eeff=(5.09096395 -2.214e-5) Z0=(45.4059169 1.00354e-4) R=0.0 C=0.0 
!< P2 F=8.9 Eeff=(5.09096395 -2.214e-5) Z0=(45.4059169 1.00354e-4) R=0.0 C=0.0 
8.90010000 0.016001 17.200 0.999867 -73.84 0.999867 -73.84 0.015999 15.144
8.90020000 0.015994 17.218 0.999867 -73.84 0.999867 -73.84 0.015991 15.123
8.90030000 0.015986 17.237 0.999867 -73.84 0.999867 -73.84 0.015984 15.102
8.90040000 0.015978 17.256 0.999868 -73.85 0.999868 -73.85 0.015976 15.080
8.90050000 0.015971 17.275 0.999868 -73.85 0.999868 -73.85 0.015968 15.058
8.90060000 0.015963 17.294 0.999868 -73.85 0.999868 -73.85 0.015961 15.037
8.90070000 0.015955 17.313 0.999868 -73.85 0.999868 -73.85 0.015953 15.015
8.90080000 0.015948 17.332 0.999868 -73.85 0.999868 -73.85 0.015945 14.993
8.90090000 0.015940 17.351 0.999868 -73.85 0.999868 -73.85 0.015938 14.971
8.90100000 0.015932 17.371 0.999868 -73.85 0.999868 -73.85 0.015930 14.949
8.90110000 0.015925 17.390 0.999868 -73.85 0.999868 -73.85 0.015922 14.926
8.90120000 0.015917 17.410 0.999869 -73.86 0.999869 -73.86 0.015914 14.904
8.90130000 0.015909 17.429 0.999869 -73.86 0.999869 -73.86 0.015906 14.882
8.90140000 0.015901 17.449 0.999869 -73.86 0.999869 -73.86 0.015899 14.859
8.90150000 0.015893 17.469 0.999869 -73.86 0.999869 -73.86 0.015891 14.837
8.90160000 0.015885 17.489 0.999869 -73.86 0.999869 -73.86 0.015883 14.814
8.90170000 0.015877 17.509 0.999869 -73.86 0.999869 -73.86 0.015875 14.791
8.90180000 0.015869 17.529 0.999869 -73.86 0.999869 -73.86 0.015867 14.768
8.90190000 0.015862 17.549 0.999869 -73.87 0.999869 -73.87 0.015859 14.745
8.90200000 0.015854 17.569 0.999869 -73.87 0.999869 -73.87 0.015851 14.722
8.90210000 0.015846 17.590 0.999870 -73.87 0.999870 -73.87 0.015843 14.699
8.90220000 0.015837 17.610 0.999870 -73.87 0.999870 -73.87 0.015835 14.676
8.90230000 0.015829 17.631 0.999870 -73.87 0.999870 -73.87 0.015827 14.652
8.90240000 0.015821 17.652 0.999870 -73.87 0.999870 -73.87 0.015819 14.629
8.90250000 0.015813 17.672 0.999870 -73.87 0.999870 -73.87 0.015811 14.605
8.90260000 0.015805 17.693 0.999870 -73.88 0.999870 -73.88 0.015802 14.582
8.90270000 0.015797 17.714 0.999870 -73.88 0.999870 -73.88 0.015794 14.558
8.90280000 0.015789 17.735 0.999870 -73.88 0.999870 -73.88 0.015786 14.534
8.90290000 0.015780 17.757 0.999871 -73.88 0.999871 -73.88 0.015778 14.510
8.90300000 0.015772 17.778 0.999871 -73.88 0.999871 -73.88 0.015769 14.486
8.90310000 0.015764 17.799 0.999871 -73.88 0.999871 -73.88 0.015761 14.461
8.90320000 0.015756 17.821 0.999871 -73.88 0.999871 -73.88 0.015753 14.437
8.90330000 0.015747 17.842 0.999871 -73.89 0.999871 -73.89 0.015744 14.413
8.90340000 0.015739 17.864 0.999871 -73.89 0.999871 -73.89 0.015736 14.388
8.90350000 0.015730 17.886 0.999871 -73.89 0.999871 -73.89 0.015728 14.363
8.90360000 0.015722 17.908 0.999871 -73.89 0.999871 -73.89 0.015719 14.339
8.90370000 0.015714 17.930 0.999872 -73.89 0.999872 -73.89 0.015711 14.314
8.90380000 0.015705 17.952 0.999872 -73.89 0.999872 -73.89 0.015702 14.289
8.90390000 0.015697 17.974 0.999872 -73.90 0.999872 -73.90 0.015694 14.264
8.90400000 0.015688 17.997 0.999872 -73.90 0.999872 -73.90 0.015685 14.238
8.90410000 0.015680 18.019 0.999872 -73.90 0.999872 -73.90 0.015677 14.213
8.90420000 0.015671 18.042 0.999872 -73.90 0.999872 -73.90 0.015668 14.188
8.90430000 0.015662 18.065 0.999872 -73.90 0.999872 -73.90 0.015659 14.162
8.90440000 0.015654 18.087 0.999872 -73.90 0.999872 -73.90 0.015651 14.136
8.90450000 0.015645 18.110 0.999873 -73.90 0.999873 -73.90 0.015642 14.110
8.90460000 0.015636 18.133 0.999873 -73.91 0.999873 -73.91 0.015633 14.084
8.90470000 0.015628 18.156 0.999873 -73.91 0.999873 -73.91 0.015625 14.058
8.90480000 0.015619 18.180 0.999873 -73.91 0.999873 -73.91 0.015616 14.032
8.90490000 0.015610 18.203 0.999873 -73.91 0.999873 -73.91 0.015607 14.006
8.90500000 0.015601 18.227 0.999873 -73.91 0.999873 -73.91 0.015598 13.980
8.90510000 0.015592 18.250 0.999873 -73.91 0.999873 -73.91 0.015589 13.953
8.90520000 0.015583 18.274 0.999873 -73.91 0.999873 -73.91 0.015580 13.926
8.90530000 0.015575 18.298 0.999874 -73.92 0.999874 -73.92 0.015572 13.899
8.90540000 0.015566 18.322 0.999874 -73.92 0.999874 -73.92 0.015563 13.873
8.90550000 0.015557 18.346 0.999874 -73.92 0.999874 -73.92 0.015554 13.846
8.90560000 0.015548 18.370 0.999874 -73.92 0.999874 -73.92 0.015545 13.818
8.90570000 0.015539 18.395 0.999874 -73.92 0.999874 -73.92 0.015536 13.791
8.90580000 0.015529 18.419 0.999874 -73.92 0.999874 -73.92 0.015526 13.764
8.90590000 0.015520 18.444 0.999874 -73.92 0.999874 -73.92 0.015517 13.736
8.90600000 0.015511 18.469 0.999874 -73.93 0.999874 -73.93 0.015508 13.708
8.90610000 0.015502 18.493 0.999875 -73.93 0.999875 -73.93 0.015499 13.680
8.90620000 0.015493 18.518 0.999875 -73.93 0.999875 -73.93 0.015490 13.652
8.90630000 0.015484 18.544 0.999875 -73.93 0.999875 -73.93 0.015481 13.624
8.90640000 0.015474 18.569 0.999875 -73.93 0.999875 -73.93 0.015471 13.596
8.90650000 0.015465 18.594 0.999875 -73.93 0.999875 -73.93 0.015462 13.568
8.90660000 0.015456 18.620 0.999875 -73.94 0.999875 -73.94 0.015453 13.539
8.90670000 0.015447 18.645 0.999875 -73.94 0.999875 -73.94 0.015443 13.511
8.90680000 0.015437 18.671 0.999876 -73.94 0.999876 -73.94 0.015434 13.482
8.90690000 0.015428 18.697 0.999876 -73.94 0.999876 -73.94 0.015424 13.453
8.90700000 0.015418 18.723 0.999876 -73.94 0.999876 -73.94 0.015415 13.424
8.90710000 0.015409 18.749 0.999876 -73.94 0.999876 -73.94 0.015406 13.395
8.90720000 0.015399 18.776 0.999876 -73.94 0.999876 -73.94 0.015396 13.365
8.90730000 0.015390 18.802 0.999876 -73.95 0.999876 -73.95 0.015386 13.336
8.90740000 0.015380 18.829 0.999876 -73.95 0.999876 -73.95 0.015377 13.306
8.90750000 0.015371 18.856 0.999877 -73.95 0.999877 -73.95 0.015367 13.276
8.90760000 0.015361 18.883 0.999877 -73.95 0.999877 -73.95 0.015358 13.246
8.90770000 0.015351 18.910 0.999877 -73.95 0.999877 -73.95 0.015348 13.216
8.90780000 0.015342 18.937 0.999877 -73.95 0.999877 -73.95 0.015338 13.186
8.90790000 0.015332 18.964 0.999877 -73.96 0.999877 -73.96 0.015328 13.155
8.90800000 0.015322 18.992 0.999877 -73.96 0.999877 -73.96 0.015319 13.125
8.90810000 0.015312 19.019 0.999877 -73.96 0.999877 -73.96 0.015309 13.094
8.90820000 0.015302 19.047 0.999877 -73.96 0.999877 -73.96 0.015299 13.063
8.90830000 0.015292 19.075 0.999878 -73.96 0.999878 -73.96 0.015289 13.032
8.90840000 0.015283 19.103 0.999878 -73.96 0.999878 -73.96 0.015279 13.001
8.90850000 0.015273 19.132 0.999878 -73.96 0.999878 -73.96 0.015269 12.970
8.90860000 0.015263 19.160 0.999878 -73.97 0.999878 -73.97 0.015259 12.938
8.90870000 0.015253 19.189 0.999878 -73.97 0.999878 -73.97 0.015249 12.907
8.90880000 0.015243 19.217 0.999878 -73.97 0.999878 -73.97 0.015239 12.875
8.90890000 0.015232 19.246 0.999878 -73.97 0.999878 -73.97 0.015229 12.843
8.90900000 0.015222 19.275 0.999879 -73.97 0.999879 -73.97 0.015219 12.811
8.90910000 0.015212 19.305 0.999879 -73.97 0.999879 -73.97 0.015209 12.778
8.90920000 0.015202 19.334 0.999879 -73.98 0.999879 -73.98 0.015198 12.746
8.90930000 0.015192 19.363 0.999879 -73.98 0.999879 -73.98 0.015188 12.713
8.90940000 0.015181 19.393 0.999879 -73.98 0.999879 -73.98 0.015178 12.680
8.90950000 0.015171 19.423 0.999879 -73.98 0.999879 -73.98 0.015167 12.647
8.90960000 0.015161 19.453 0.999879 -73.98 0.999879 -73.98 0.015157 12.614
8.90970000 0.015150 19.483 0.999880 -73.98 0.999880 -73.98 0.015147 12.581
8.90980000 0.015140 19.514 0.999880 -73.99 0.999880 -73.99 0.015136 12.547
8.90990000 0.015129 19.544 0.999880 -73.99 0.999880 -73.99 0.015126 12.514
8.91000000 0.015119 19.575 0.999880 -73.99 0.999880 -73.99 0.015115 12.480
8.91010000 0.015108 19.606 0.999880 -73.99 0.999880 -73.99 0.015105 12.446
8.91020000 0.015098 19.637 0.999880 -73.99 0.999880 -73.99 0.015094 12.411
8.91030000 0.015087 19.668 0.999881 -73.99 0.999881 -73.99 0.015083 12.377
8.91040000 0.015077 19.700 0.999881 -74.00 0.999881 -74.00 0.015073 12.342
8.91050000 0.015066 19.731 0.999881 -74.00 0.999881 -74.00 0.015062 12.307
8.91060000 0.015055 19.763 0.999881 -74.00 0.999881 -74.00 0.015051 12.272
8.91070000 0.015044 19.795 0.999881 -74.00 0.999881 -74.00 0.015040 12.237
8.91080000 0.015034 19.827 0.999881 -74.00 0.999881 -74.00 0.015030 12.202
8.91090000 0.015023 19.859 0.999881 -74.00 0.999881 -74.00 0.015019 12.166
8.91100000 0.015012 19.892 0.999882 -74.01 0.999882 -74.01 0.015008 12.131
8.91110000 0.015001 19.925 0.999882 -74.01 0.999882 -74.01 0.014997 12.095
8.91120000 0.014990 19.958 0.999882 -74.01 0.999882 -74.01 0.014986 12.058
8.91130000 0.014979 19.991 0.999882 -74.01 0.999882 -74.01 0.014975 12.022
8.91140000 0.014968 20.024 0.999882 -74.01 0.999882 -74.01 0.014964 11.986
8.91150000 0.014957 20.058 0.999882 -74.01 0.999882 -74.01 0.014953 11.949
8.91160000 0.014946 20.091 0.999882 -74.02 0.999882 -74.02 0.014942 11.912
8.91170000 0.014935 20.125 0.999883 -74.02 0.999883 -74.02 0.014930 11.875
8.91180000 0.014923 20.159 0.999883 -74.02 0.999883 -74.02 0.014919 11.837
8.91190000 0.014912 20.194 0.999883 -74.02 0.999883 -74.02 0.014908 11.800
8.91200000 0.014901 20.228 0.999883 -74.02 0.999883 -74.02 0.014897 11.762
8.91210000 0.014889 20.263 0.999883 -74.02 0.999883 -74.02 0.014885 11.724
8.91220000 0.014878 20.298 0.999883 -74.03 0.999883 -74.03 0.014874 11.686
8.91230000 0.014867 20.333 0.999884 -74.03 0.999884 -74.03 0.014862 11.647
8.91240000 0.014855 20.368 0.999884 -74.03 0.999884 -74.03 0.014851 11.609
8.91250000 0.014844 20.404 0.999884 -74.03 0.999884 -74.03 0.014839 11.570
8.91260000 0.014832 20.439 0.999884 -74.03 0.999884 -74.03 0.014828 11.531
8.91270000 0.014820 20.475 0.999884 -74.03 0.999884 -74.03 0.014816 11.491
8.91280000 0.014809 20.512 0.999884 -74.04 0.999884 -74.04 0.014804 11.452
8.91290000 0.014797 20.548 0.999885 -74.04 0.999885 -74.04 0.014793 11.412
8.91300000 0.014785 20.585 0.999885 -74.04 0.999885 -74.04 0.014781 11.372
8.91310000 0.014774 20.622 0.999885 -74.04 0.999885 -74.04 0.014769 11.332
8.91320000 0.014762 20.659 0.999885 -74.04 0.999885 -74.04 0.014757 11.291
8.91330000 0.014750 20.696 0.999885 -74.04 0.999885 -74.04 0.014746 11.251
8.91340000 0.014738 20.734 0.999885 -74.05 0.999885 -74.05 0.014734 11.210
8.91350000 0.014726 20.771 0.999885 -74.05 0.999885 -74.05 0.014722 11.168
8.91360000 0.014714 20.809 0.999886 -74.05 0.999886 -74.05 0.014710 11.127
8.91370000 0.014702 20.848 0.999886 -74.05 0.999886 -74.05 0.014698 11.085
8.91380000 0.014690 20.886 0.999886 -74.05 0.999886 -74.05 0.014685 11.043
8.91390000 0.014678 20.925 0.999886 -74.05 0.999886 -74.05 0.014673 11.001
8.91400000 0.014666 20.964 0.999886 -74.06 0.999886 -74.06 0.014661 10.959
8.91410000 0.014654 21.003 0.999886 -74.06 0.999886 -74.06 0.014649 10.916
8.91420000 0.014641 21.043 0.999887 -74.06 0.999887 -74.06 0.014637 10.873
8.91430000 0.014629 21.082 0.999887 -74.06 0.999887 -74.06 0.014624 10.830
8.91440000 0.014617 21.122 0.999887 -74.06 0.999887 -74.06 0.014612 10.787
8.91450000 0.014604 21.163 0.999887 -74.07 0.999887 -74.07 0.014599 10.743
8.91460000 0.014592 21.203 0.999887 -74.07 0.999887 -74.07 0.014587 10.699
8.91470000 0.014579 21.244 0.999887 -74.07 0.999887 -74.07 0.014574 10.655
8.91480000 0.014567 21.285 0.999888 -74.07 0.999888 -74.07 0.014562 10.610
8.91490000 0.014554 21.326 0.999888 -74.07 0.999888 -74.07 0.014549 10.565
8.91500000 0.014541 21.368 0.999888 -74.07 0.999888 -74.07 0.014536 10.520
8.91510000 0.014529 21.410 0.999888 -74.08 0.999888 -74.08 0.014524 10.475
8.91520000 0.014516 21.452 0.999888 -74.08 0.999888 -74.08 0.014511 10.429
8.91530000 0.014503 21.494 0.999888 -74.08 0.999888 -74.08 0.014498 10.384
8.91540000 0.014490 21.537 0.999889 -74.08 0.999889 -74.08 0.014485 10.337
8.91550000 0.014477 21.580 0.999889 -74.08 0.999889 -74.08 0.014472 10.291
8.91560000 0.014464 21.623 0.999889 -74.09 0.999889 -74.09 0.014459 10.244
8.91570000 0.014451 21.666 0.999889 -74.09 0.999889 -74.09 0.014446 10.197
8.91580000 0.014438 21.710 0.999889 -74.09 0.999889 -74.09 0.014433 10.150
8.91590000 0.014425 21.754 0.999889 -74.09 0.999889 -74.09 0.014420 10.102
8.91600000 0.014412 21.798 0.999890 -74.09 0.999890 -74.09 0.014407 10.054
8.91610000 0.014399 21.843 0.999890 -74.09 0.999890 -74.09 0.014394 10.006
8.91620000 0.014386 21.888 0.999890 -74.10 0.999890 -74.10 0.014380 9.9573
8.91630000 0.014372 21.933 0.999890 -74.10 0.999890 -74.10 0.014367 9.9085
8.91640000 0.014359 21.979 0.999890 -74.10 0.999890 -74.10 0.014354 9.8593
8.91650000 0.014346 22.025 0.999891 -74.10 0.999891 -74.10 0.014340 9.8098
8.91660000 0.014332 22.071 0.999891 -74.10 0.999891 -74.10 0.014327 9.7600
8.91670000 0.014319 22.117 0.999891 -74.11 0.999891 -74.11 0.014313 9.7098
8.91680000 0.014305 22.164 0.999891 -74.11 0.999891 -74.11 0.014299 9.6594
8.91690000 0.014291 22.211 0.999891 -74.11 0.999891 -74.11 0.014286 9.6086
8.91700000 0.014278 22.259 0.999891 -74.11 0.999891 -74.11 0.014272 9.5575
8.91710000 0.014264 22.307 0.999892 -74.11 0.999892 -74.11 0.014258 9.5060
8.91720000 0.014250 22.355 0.999892 -74.12 0.999892 -74.12 0.014245 9.4542
8.91730000 0.014236 22.403 0.999892 -74.12 0.999892 -74.12 0.014231 9.4021
8.91740000 0.014222 22.452 0.999892 -74.12 0.999892 -74.12 0.014217 9.3496
8.91750000 0.014208 22.501 0.999892 -74.12 0.999892 -74.12 0.014203 9.2968
8.91760000 0.014194 22.550 0.999892 -74.12 0.999892 -74.12 0.014189 9.2436
8.91770000 0.014180 22.600 0.999893 -74.13 0.999893 -74.13 0.014175 9.1901
8.91780000 0.014166 22.650 0.999893 -74.13 0.999893 -74.13 0.014160 9.1362
8.91790000 0.014152 22.701 0.999893 -74.13 0.999893 -74.13 0.014146 9.0819
8.91800000 0.014138 22.752 0.999893 -74.13 0.999893 -74.13 0.014132 9.0273
8.91810000 0.014124 22.803 0.999893 -74.13 0.999893 -74.13 0.014118 8.9723
8.91820000 0.014109 22.854 0.999894 -74.13 0.999894 -74.13 0.014103 8.9169
8.91830000 0.014095 22.906 0.999894 -74.14 0.999894 -74.14 0.014089 8.8612
8.91840000 0.014080 22.959 0.999894 -74.14 0.999894 -74.14 0.014074 8.8051
8.91850000 0.014066 23.011 0.999894 -74.14 0.999894 -74.14 0.014060 8.7486
8.91860000 0.014051 23.064 0.999894 -74.14 0.999894 -74.14 0.014045 8.6917
8.91870000 0.014037 23.118 0.999895 -74.14 0.999895 -74.14 0.014030 8.6344
8.91880000 0.014022 23.172 0.999895 -74.15 0.999895 -74.15 0.014016 8.5767
8.91890000 0.014007 23.226 0.999895 -74.15 0.999895 -74.15 0.014001 8.5186
8.91900000 0.013992 23.281 0.999895 -74.15 0.999895 -74.15 0.013986 8.4601
8.91910000 0.013977 23.336 0.999895 -74.15 0.999895 -74.15 0.013971 8.4012
8.91920000 0.013962 23.391 0.999895 -74.15 0.999895 -74.15 0.013956 8.3419
8.91930000 0.013947 23.447 0.999896 -74.16 0.999896 -74.16 0.013941 8.2822
8.91940000 0.013932 23.503 0.999896 -74.16 0.999896 -74.16 0.013926 8.2220
8.91950000 0.013917 23.560 0.999896 -74.16 0.999896 -74.16 0.013911 8.1615
8.91960000 0.013902 23.617 0.999896 -74.16 0.999896 -74.16 0.013896 8.1005
8.91970000 0.013887 23.674 0.999896 -74.17 0.999896 -74.17 0.013880 8.0390
8.91980000 0.013871 23.732 0.999897 -74.17 0.999897 -74.17 0.013865 7.9771
8.91990000 0.013856 23.790 0.999897 -74.17 0.999897 -74.17 0.013850 7.9148
8.92000000 0.013841 23.849 0.999897 -74.17 0.999897 -74.17 0.013834 7.8520
8.92010000 0.013825 23.909 0.999897 -74.17 0.999897 -74.17 0.013819 7.7888
8.92020000 0.013810 23.968 0.999897 -74.18 0.999897 -74.18 0.013803 7.7251
8.92030000 0.013794 24.028 0.999898 -74.18 0.999898 -74.18 0.013787 7.6610
8.92040000 0.013778 24.089 0.999898 -74.18 0.999898 -74.18 0.013771 7.5964
8.92050000 0.013763 24.150 0.999898 -74.18 0.999898 -74.18 0.013756 7.5313
8.92060000 0.013747 24.211 0.999898 -74.18 0.999898 -74.18 0.013740 7.4657
8.92070000 0.013731 24.273 0.999898 -74.19 0.999898 -74.19 0.013724 7.3996
8.92080000 0.013715 24.336 0.999899 -74.19 0.999899 -74.19 0.013708 7.3331
8.92090000 0.013699 24.399 0.999899 -74.19 0.999899 -74.19 0.013692 7.2660
8.92100000 0.013683 24.462 0.999899 -74.19 0.999899 -74.19 0.013676 7.1985
8.92110000 0.013667 24.526 0.999899 -74.19 0.999899 -74.19 0.013660 7.1304
8.92120000 0.013650 24.591 0.999899 -74.20 0.999899 -74.20 0.013643 7.0619
8.92130000 0.013634 24.656 0.999899 -74.20 0.999899 -74.20 0.013627 6.9928
8.92140000 0.013618 24.721 0.999900 -74.20 0.999900 -74.20 0.013611 6.9232
8.92150000 0.013601 24.787 0.999900 -74.20 0.999900 -74.20 0.013594 6.8531
8.92160000 0.013585 24.854 0.999900 -74.21 0.999900 -74.21 0.013578 6.7824
8.92170000 0.013568 24.921 0.999900 -74.21 0.999900 -74.21 0.013561 6.7112
8.92180000 0.013552 24.988 0.999900 -74.21 0.999900 -74.21 0.013544 6.6395
8.92190000 0.013535 25.056 0.999901 -74.21 0.999901 -74.21 0.013528 6.5672
8.92200000 0.013518 25.125 0.999901 -74.21 0.999901 -74.21 0.013511 6.4943
8.92210000 0.013502 25.194 0.999901 -74.22 0.999901 -74.22 0.013494 6.4209
8.92220000 0.013485 25.264 0.999901 -74.22 0.999901 -74.22 0.013477 6.3469
8.92230000 0.013468 25.334 0.999901 -74.22 0.999901 -74.22 0.013460 6.2723
8.92240000 0.013451 25.405 0.999902 -74.22 0.999902 -74.22 0.013443 6.1971
8.92250000 0.013434 25.476 0.999902 -74.23 0.999902 -74.23 0.013426 6.1214
8.92260000 0.013416 25.548 0.999902 -74.23 0.999902 -74.23 0.013408 6.0450
8.92270000 0.013399 25.621 0.999902 -74.23 0.999902 -74.23 0.013391 5.9680
8.92280000 0.013382 25.694 0.999902 -74.23 0.999902 -74.23 0.013374 5.8905
8.92290000 0.013364 25.768 0.999903 -74.23 0.999903 -74.23 0.013356 5.8123
8.92300000 0.013347 25.843 0.999903 -74.24 0.999903 -74.24 0.013339 5.7335
8.92310000 0.013329 25.918 0.999903 -74.24 0.999903 -74.24 0.013321 5.6540
8.92320000 0.013312 25.993 0.999903 -74.24 0.999903 -74.24 0.013304 5.5739
8.92330000 0.013294 26.070 0.999904 -74.24 0.999904 -74.24 0.013286 5.4932
8.92340000 0.013276 26.147 0.999904 -74.25 0.999904 -74.25 0.013268 5.4117
8.92350000 0.013259 26.224 0.999904 -74.25 0.999904 -74.25 0.013250 5.3297
8.92360000 0.013241 26.303 0.999904 -74.25 0.999904 -74.25 0.013232 5.2469
8.92370000 0.013223 26.381 0.999904 -74.25 0.999904 -74.25 0.013214 5.1635
8.92380000 0.013205 26.461 0.999905 -74.26 0.999905 -74.26 0.013196 5.0794
8.92390000 0.013187 26.541 0.999905 -74.26 0.999905 -74.26 0.013178 4.9946
8.92400000 0.013168 26.622 0.999905 -74.26 0.999905 -74.26 0.013160 4.9091
8.92410000 0.013150 26.704 0.999905 -74.26 0.999905 -74.26 0.013141 4.8228
8.92420000 0.013132 26.787 0.999905 -74.26 0.999905 -74.26 0.013123 4.7359
8.92430000 0.013113 26.870 0.999906 -74.27 0.999906 -74.27 0.013104 4.6482
8.92440000 0.013095 26.953 0.999906 -74.27 0.999906 -74.27 0.013086 4.5597
8.92450000 0.013076 27.038 0.999906 -74.27 0.999906 -74.27 0.013067 4.4706
8.92460000 0.013058 27.123 0.999906 -74.27 0.999906 -74.27 0.013049 4.3806
8.92470000 0.013039 27.209 0.999906 -74.28 0.999906 -74.28 0.013030 4.2899
8.92480000 0.013020 27.296 0.999907 -74.28 0.999907 -74.28 0.013011 4.1984
8.92490000 0.013001 27.384 0.999907 -74.28 0.999907 -74.28 0.012992 4.1061
8.92500000 0.012982 27.472 0.999907 -74.28 0.999907 -74.28 0.012973 4.0130
8.92510000 0.012963 27.561 0.999907 -74.29 0.999907 -74.29 0.012954 3.9192
8.92520000 0.012944 27.651 0.999908 -74.29 0.999908 -74.29 0.012935 3.8244
8.92530000 0.012925 27.742 0.999908 -74.29 0.999908 -74.29 0.012915 3.7289
8.92540000 0.012906 27.834 0.999908 -74.29 0.999908 -74.29 0.012896 3.6325
8.92550000 0.012886 27.926 0.999908 -74.30 0.999908 -74.30 0.012877 3.5353
8.92560000 0.012867 28.020 0.999908 -74.30 0.999908 -74.30 0.012857 3.4372
8.92570000 0.012847 28.114 0.999909 -74.30 0.999909 -74.30 0.012837 3.3383
8.92580000 0.012828 28.209 0.999909 -74.30 0.999909 -74.30 0.012818 3.2384
8.92590000 0.012808 28.305 0.999909 -74.31 0.999909 -74.31 0.012798 3.1377
8.92600000 0.012788 28.401 0.999909 -74.31 0.999909 -74.31 0.012778 3.0360
8.92610000 0.012768 28.499 0.999909 -74.31 0.999909 -74.31 0.012758 2.9335
8.92620000 0.012749 28.598 0.999910 -74.31 0.999910 -74.31 0.012738 2.8300
8.92630000 0.012729 28.697 0.999910 -74.32 0.999910 -74.32 0.012718 2.7255
8.92640000 0.012709 28.798 0.999910 -74.32 0.999910 -74.32 0.012698 2.6201
8.92650000 0.012688 28.899 0.999910 -74.32 0.999910 -74.32 0.012678 2.5138
8.92660000 0.012668 29.001 0.999911 -74.32 0.999911 -74.32 0.012658 2.4064
8.92670000 0.012648 29.105 0.999911 -74.33 0.999911 -74.33 0.012637 2.2981
8.92680000 0.012627 29.209 0.999911 -74.33 0.999911 -74.33 0.012617 2.1888
8.92690000 0.012607 29.314 0.999911 -74.33 0.999911 -74.33 0.012596 2.0784
8.92700000 0.012586 29.421 0.999911 -74.33 0.999911 -74.33 0.012576 1.9670
8.92710000 0.012566 29.528 0.999912 -74.34 0.999912 -74.34 0.012555 1.8545
8.92720000 0.012545 29.636 0.999912 -74.34 0.999912 -74.34 0.012534 1.7410
8.92730000 0.012524 29.746 0.999912 -74.34 0.999912 -74.34 0.012513 1.6265
8.92740000 0.012503 29.856 0.999912 -74.35 0.999912 -74.35 0.012492 1.5108
8.92750000 0.012482 29.968 0.999913 -74.35 0.999913 -74.35 0.012471 1.3940
8.92760000 0.012461 30.081 0.999913 -74.35 0.999913 -74.35 0.012450 1.2761
8.92770000 0.012440 30.194 0.999913 -74.35 0.999913 -74.35 0.012429 1.1571
8.92780000 0.012419 30.309 0.999913 -74.36 0.999913 -74.36 0.012407 1.0369
8.92790000 0.012398 30.425 0.999913 -74.36 0.999913 -74.36 0.012386 0.9155
8.92800000 0.012376 30.543 0.999914 -74.36 0.999914 -74.36 0.012365 0.7930
8.92810000 0.012355 30.661 0.999914 -74.36 0.999914 -74.36 0.012343 0.6692
8.92820000 0.012333 30.781 0.999914 -74.37 0.999914 -74.37 0.012321 0.5443
8.92830000 0.012312 30.902 0.999914 -74.37 0.999914 -74.37 0.012300 0.4181
8.92840000 0.012290 31.024 0.999915 -74.37 0.999915 -74.37 0.012278 0.2906
8.92850000 0.012268 31.147 0.999915 -74.38 0.999915 -74.38 0.012256 0.1619
8.92860000 0.012246 31.271 0.999915 -74.38 0.999915 -74.38 0.012234 0.0319
8.92870000 0.012225 31.397 0.999915 -74.38 0.999915 -74.38 0.012212 -0.099
8.92880000 0.012202 31.524 0.999915 -74.38 0.999915 -74.38 0.012190 -0.232
8.92890000 0.012180 31.653 0.999916 -74.39 0.999916 -74.39 0.012168 -0.366
8.92900000 0.012158 31.783 0.999916 -74.39 0.999916 -74.39 0.012145 -0.501
8.92910000 0.012136 31.914 0.999916 -74.39 0.999916 -74.39 0.012123 -0.638
8.92920000 0.012114 32.046 0.999916 -74.40 0.999916 -74.40 0.012101 -0.776
8.92930000 0.012091 32.180 0.999916 -74.40 0.999916 -74.40 0.012078 -0.916
8.92940000 0.012069 32.316 0.999917 -74.40 0.999917 -74.40 0.012055 -1.057
8.92950000 0.012046 32.452 0.999917 -74.41 0.999917 -74.41 0.012033 -1.199
8.92960000 0.012023 32.591 0.999917 -74.41 0.999917 -74.41 0.012010 -1.343
8.92970000 0.012001 32.730 0.999917 -74.41 0.999917 -74.41 0.011987 -1.489
8.92980000 0.011978 32.872 0.999918 -74.41 0.999918 -74.41 0.011964 -1.636
8.92990000 0.011955 33.014 0.999918 -74.42 0.999918 -74.42 0.011941 -1.784
8.93000000 0.011932 33.159 0.999918 -74.42 0.999918 -74.42 0.011918 -1.934
8.93010000 0.011909 33.304 0.999918 -74.42 0.999918 -74.42 0.011895 -2.086
8.93020000 0.011886 33.452 0.999918 -74.43 0.999918 -74.43 0.011872 -2.239
8.93030000 0.011863 33.601 0.999919 -74.43 0.999919 -74.43 0.011848 -2.394
8.93040000 0.011839 33.752 0.999919 -74.43 0.999919 -74.43 0.011825 -2.551
8.93050000 0.011816 33.904 0.999919 -74.44 0.999919 -74.44 0.011801 -2.709
8.93060000 0.011792 34.058 0.999919 -74.44 0.999919 -74.44 0.011778 -2.869
8.93070000 0.011769 34.214 0.999920 -74.44 0.999920 -74.44 0.011754 -3.031
8.93080000 0.011745 34.371 0.999920 -74.45 0.999920 -74.45 0.011730 -3.195
8.93090000 0.011722 34.531 0.999920 -74.45 0.999920 -74.45 0.011707 -3.360
8.93100000 0.011698 34.692 0.999920 -74.45 0.999920 -74.45 0.011683 -3.527
8.93110000 0.011674 34.855 0.999920 -74.45 0.999920 -74.45 0.011659 -3.696
8.93120000 0.011650 35.019 0.999921 -74.46 0.999921 -74.46 0.011635 -3.867
8.93130000 0.011626 35.186 0.999921 -74.46 0.999921 -74.46 0.011611 -4.040
8.93140000 0.011602 35.355 0.999921 -74.46 0.999921 -74.46 0.011587 -4.215
8.93150000 0.011578 35.525 0.999921 -74.47 0.999921 -74.47 0.011562 -4.392
8.93160000 0.011554 35.698 0.999922 -74.47 0.999922 -74.47 0.011538 -4.571
8.93170000 0.011530 35.872 0.999922 -74.47 0.999922 -74.47 0.011514 -4.752
8.93180000 0.011506 36.048 0.999922 -74.48 0.999922 -74.48 0.011489 -4.934
8.93190000 0.011482 36.227 0.999922 -74.48 0.999922 -74.48 0.011465 -5.119
8.93200000 0.011457 36.408 0.999922 -74.48 0.999922 -74.48 0.011440 -5.307
8.93210000 0.011433 36.590 0.999923 -74.49 0.999923 -74.49 0.011416 -5.496
8.93220000 0.011408 36.775 0.999923 -74.49 0.999923 -74.49 0.011391 -5.687
8.93230000 0.011384 36.962 0.999923 -74.49 0.999923 -74.49 0.011366 -5.881
8.93240000 0.011359 37.152 0.999923 -74.50 0.999923 -74.50 0.011342 -6.077
8.93250000 0.011334 37.343 0.999923 -74.50 0.999923 -74.50 0.011317 -6.275
8.93260000 0.011310 37.537 0.999924 -74.51 0.999924 -74.51 0.011292 -6.476
8.93270000 0.011285 37.733 0.999924 -74.51 0.999924 -74.51 0.011267 -6.679
8.93280000 0.011260 37.932 0.999924 -74.51 0.999924 -74.51 0.011242 -6.885
8.93290000 0.011235 38.133 0.999924 -74.52 0.999924 -74.52 0.011217 -7.093
8.93300000 0.011210 38.337 0.999925 -74.52 0.999925 -74.52 0.011192 -7.303
8.93310000 0.011185 38.543 0.999925 -74.52 0.999925 -74.52 0.011167 -7.516
8.93320000 0.011160 38.751 0.999925 -74.53 0.999925 -74.53 0.011142 -7.731
8.93330000 0.011135 38.962 0.999925 -74.53 0.999925 -74.53 0.011117 -7.950
8.93340000 0.011110 39.176 0.999925 -74.53 0.999925 -74.53 0.011091 -8.170
8.93350000 0.011085 39.392 0.999926 -74.54 0.999926 -74.54 0.011066 -8.394
8.93360000 0.011060 39.611 0.999926 -74.54 0.999926 -74.54 0.011041 -8.620
8.93370000 0.011035 39.833 0.999926 -74.55 0.999926 -74.55 0.011015 -8.849
8.93380000 0.011010 40.058 0.999926 -74.55 0.999926 -74.55 0.010990 -9.081
8.93390000 0.010985 40.285 0.999926 -74.55 0.999926 -74.55 0.010965 -9.316
8.93400000 0.010960 40.515 0.999927 -74.56 0.999927 -74.56 0.010939 -9.553
8.93410000 0.010934 40.748 0.999927 -74.56 0.999927 -74.56 0.010914 -9.794
8.93420000 0.010909 40.984 0.999927 -74.56 0.999927 -74.56 0.010888 -10.04
8.93430000 0.010884 41.224 0.999927 -74.57 0.999927 -74.57 0.010863 -10.28
8.93440000 0.010859 41.466 0.999927 -74.57 0.999927 -74.57 0.010838 -10.53
8.93450000 0.010834 41.711 0.999927 -74.58 0.999927 -74.58 0.010812 -10.79
8.93460000 0.010808 41.960 0.999928 -74.58 0.999928 -74.58 0.010787 -11.04
8.93470000 0.010783 42.211 0.999928 -74.58 0.999928 -74.58 0.010761 -11.30
8.93480000 0.010758 42.466 0.999928 -74.59 0.999928 -74.59 0.010736 -11.57
8.93490000 0.010733 42.725 0.999928 -74.59 0.999928 -74.59 0.010711 -11.83
8.93500000 0.010708 42.987 0.999928 -74.60 0.999928 -74.60 0.010685 -12.10
8.93510000 0.010683 43.252 0.999929 -74.60 0.999929 -74.60 0.010660 -12.38
8.93520000 0.010657 43.520 0.999929 -74.60 0.999929 -74.60 0.010634 -12.65
8.93530000 0.010632 43.792 0.999929 -74.61 0.999929 -74.61 0.010609 -12.93
8.93540000 0.010607 44.068 0.999929 -74.61 0.999929 -74.61 0.010584 -13.22
8.93550000 0.010582 44.348 0.999929 -74.62 0.999929 -74.62 0.010559 -13.50
8.93560000 0.010558 44.631 0.999929 -74.62 0.999929 -74.62 0.010534 -13.80
8.93570000 0.010533 44.918 0.999930 -74.62 0.999930 -74.62 0.010508 -14.09
8.93580000 0.010508 45.208 0.999930 -74.63 0.999930 -74.63 0.010483 -14.39
8.93590000 0.010483 45.503 0.999930 -74.63 0.999930 -74.63 0.010458 -14.69
8.93600000 0.010459 45.802 0.999930 -74.64 0.999930 -74.64 0.010434 -15.00
8.93610000 0.010434 46.104 0.999930 -74.64 0.999930 -74.64 0.010409 -15.31
8.93620000 0.010410 46.411 0.999930 -74.65 0.999930 -74.65 0.010384 -15.63
8.93630000 0.010385 46.722 0.999930 -74.65 0.999930 -74.65 0.010359 -15.95
8.93640000 0.010361 47.037 0.999931 -74.66 0.999931 -74.66 0.010335 -16.27
8.93650000 0.010337 47.356 0.999931 -74.66 0.999931 -74.66 0.010310 -16.60
8.93660000 0.010313 47.680 0.999931 -74.66 0.999931 -74.66 0.010286 -16.93
8.93670000 0.010289 48.008 0.999931 -74.67 0.999931 -74.67 0.010262 -17.27
8.93680000 0.010265 48.340 0.999931 -74.67 0.999931 -74.67 0.010238 -17.61
8.93690000 0.010242 48.677 0.999931 -74.68 0.999931 -74.68 0.010214 -17.96
8.93700000 0.010218 49.019 0.999931 -74.68 0.999931 -74.68 0.010190 -18.31
8.93710000 0.010195 49.366 0.999931 -74.69 0.999931 -74.69 0.010167 -18.67
8.93720000 0.010172 49.717 0.999932 -74.69 0.999932 -74.69 0.010143 -19.03
8.93730000 0.010149 50.073 0.999932 -74.70 0.999932 -74.70 0.010120 -19.39
8.93740000 0.010126 50.434 0.999932 -74.70 0.999932 -74.70 0.010097 -19.76
8.93750000 0.010104 50.799 0.999932 -74.71 0.999932 -74.71 0.010074 -20.14
8.93760000 0.010082 51.170 0.999932 -74.71 0.999932 -74.71 0.010052 -20.52
8.93770000 0.010060 51.546 0.999932 -74.72 0.999932 -74.72 0.010030 -20.91
8.93780000 0.010038 51.927 0.999932 -74.72 0.999932 -74.72 0.010007 -21.30
8.93790000 0.010017 52.314 0.999932 -74.73 0.999932 -74.73 0.009986 -21.70
8.93800000 0.009995 52.705 0.999932 -74.73 0.999932 -74.73 0.009964 -22.10
8.93810000 0.009974 53.103 0.999932 -74.74 0.999932 -74.74 0.009943 -22.51
8.93820000 0.009954 53.505 0.999932 -74.74 0.999932 -74.74 0.009922 -22.92
8.93830000 0.009934 53.913 0.999932 -74.75 0.999932 -74.75 0.009901 -23.34
8.93840000 0.009914 54.327 0.999933 -74.75 0.999933 -74.75 0.009881 -23.76
8.93850000 0.009894 54.746 0.999933 -74.76 0.999933 -74.76 0.009861 -24.19
8.93860000 0.009875 55.171 0.999933 -74.76 0.999933 -74.76 0.009841 -24.63
8.93870000 0.009856 55.602 0.999933 -74.77 0.999933 -74.77 0.009822 -25.07
8.93880000 0.009837 56.039 0.999933 -74.77 0.999933 -74.77 0.009803 -25.52
8.93890000 0.009819 56.482 0.999933 -74.78 0.999933 -74.78 0.009785 -25.98
8.93900000 0.009802 56.931 0.999933 -74.78 0.999933 -74.78 0.009767 -26.44
8.93910000 0.009785 57.385 0.999933 -74.79 0.999933 -74.79 0.009749 -26.90
8.93920000 0.009768 57.846 0.999933 -74.79 0.999933 -74.79 0.009732 -27.38