! Sonnet Data File
! From: emgraph Version : 16.52
! From Project: Resonator2_extremeCap2
! Data is De-embedded 
! Data File Written: 10/11/2017 09:28:28
!< HDATE 10/10/2017 20:43:28
!< MDATE 10/10/2017 20:43:28
!< PARAMS
!< Pwid1 = 2000.0
!< Pwid2 = 2000.0
!< Air_gap = 18.0
!< Width = 30.0
!< Gap = 124.0
!< END PARAMS
# GHZ S MA R 43.06000
8.90000000 0.325660 -4.025 0.945478 -91.19 0.945478 -91.19 0.325656 1.6534
!< P1 F=8.9 Eeff=(5.1612639 -2.2548e-5) Z0=(43.0590329 9.5502e-5) R=0.0 C=0.0 
!< P2 F=8.9 Eeff=(5.1612639 -2.2548e-5) Z0=(43.0590329 9.5502e-5) R=0.0 C=0.0 
8.90025000 0.325720 -4.026 0.945458 -91.19 0.945458 -91.19 0.325716 1.6427
8.90050000 0.325780 -4.028 0.945437 -91.20 0.945437 -91.20 0.325776 1.6320
8.90075000 0.325841 -4.030 0.945416 -91.20 0.945416 -91.20 0.325837 1.6212
8.90100000 0.325901 -4.031 0.945395 -91.21 0.945395 -91.21 0.325897 1.6104
8.90125000 0.325962 -4.033 0.945374 -91.22 0.945374 -91.22 0.325958 1.5997
8.90150000 0.326022 -4.034 0.945354 -91.22 0.945354 -91.22 0.326018 1.5888
8.90175000 0.326083 -4.036 0.945333 -91.23 0.945333 -91.23 0.326079 1.5780
8.90200000 0.326144 -4.038 0.945312 -91.23 0.945312 -91.23 0.326140 1.5671
8.90225000 0.326205 -4.039 0.945290 -91.24 0.945290 -91.24 0.326201 1.5563
8.90250000 0.326267 -4.041 0.945269 -91.25 0.945269 -91.25 0.326262 1.5453
8.90275000 0.326328 -4.042 0.945248 -91.25 0.945248 -91.25 0.326324 1.5344
8.90300000 0.326390 -4.044 0.945227 -91.26 0.945227 -91.26 0.326385 1.5235
8.90325000 0.326451 -4.046 0.945205 -91.27 0.945205 -91.27 0.326447 1.5125
8.90350000 0.326513 -4.047 0.945184 -91.27 0.945184 -91.27 0.326509 1.5015
8.90375000 0.326575 -4.049 0.945163 -91.28 0.945163 -91.28 0.326571 1.4904
8.90400000 0.326637 -4.050 0.945141 -91.28 0.945141 -91.28 0.326633 1.4794
8.90425000 0.326700 -4.052 0.945120 -91.29 0.945120 -91.29 0.326695 1.4683
8.90450000 0.326762 -4.053 0.945098 -91.30 0.945098 -91.30 0.326758 1.4572
8.90475000 0.326825 -4.055 0.945076 -91.30 0.945076 -91.30 0.326820 1.4461
8.90500000 0.326887 -4.056 0.945055 -91.31 0.945055 -91.31 0.326883 1.4349
8.90525000 0.326950 -4.058 0.945033 -91.32 0.945033 -91.32 0.326946 1.4238
8.90550000 0.327013 -4.060 0.945011 -91.32 0.945011 -91.32 0.327009 1.4126
8.90575000 0.327076 -4.061 0.944989 -91.33 0.944989 -91.33 0.327072 1.4013
8.90600000 0.327140 -4.063 0.944967 -91.34 0.944967 -91.34 0.327135 1.3901
8.90625000 0.327203 -4.064 0.944945 -91.34 0.944945 -91.34 0.327199 1.3788
8.90650000 0.327267 -4.066 0.944923 -91.35 0.944923 -91.35 0.327262 1.3675
8.90675000 0.327331 -4.067 0.944901 -91.35 0.944901 -91.35 0.327326 1.3562
8.90700000 0.327395 -4.069 0.944879 -91.36 0.944879 -91.36 0.327390 1.3448
8.90725000 0.327459 -4.070 0.944857 -91.37 0.944857 -91.37 0.327454 1.3335
8.90750000 0.327523 -4.072 0.944834 -91.37 0.944834 -91.37 0.327518 1.3221
8.90775000 0.327587 -4.073 0.944812 -91.38 0.944812 -91.38 0.327583 1.3106
8.90800000 0.327652 -4.075 0.944790 -91.39 0.944790 -91.39 0.327647 1.2992
8.90825000 0.327717 -4.076 0.944767 -91.39 0.944767 -91.39 0.327712 1.2877
8.90850000 0.327781 -4.078 0.944745 -91.40 0.944745 -91.40 0.327777 1.2762
8.90875000 0.327846 -4.079 0.944722 -91.41 0.944722 -91.41 0.327842 1.2646
8.90900000 0.327912 -4.081 0.944700 -91.41 0.944700 -91.41 0.327907 1.2531
8.90925000 0.327977 -4.082 0.944677 -91.42 0.944677 -91.42 0.327972 1.2415
8.90950000 0.328043 -4.084 0.944654 -91.43 0.944654 -91.43 0.328038 1.2299
8.90975000 0.328108 -4.085 0.944631 -91.43 0.944631 -91.43 0.328104 1.2183
8.91000000 0.328174 -4.087 0.944608 -91.44 0.944608 -91.44 0.328170 1.2066
8.91025000 0.328240 -4.088 0.944585 -91.45 0.944585 -91.45 0.328236 1.1949
8.91050000 0.328306 -4.090 0.944562 -91.45 0.944562 -91.45 0.328302 1.1832
8.91075000 0.328373 -4.091 0.944539 -91.46 0.944539 -91.46 0.328368 1.1714
8.91100000 0.328439 -4.093 0.944516 -91.47 0.944516 -91.47 0.328435 1.1596
8.91125000 0.328506 -4.094 0.944493 -91.47 0.944493 -91.47 0.328501 1.1478
8.91150000 0.328573 -4.095 0.944470 -91.48 0.944470 -91.48 0.328568 1.1360
8.91175000 0.328640 -4.097 0.944446 -91.49 0.944446 -91.49 0.328635 1.1242
8.91200000 0.328707 -4.098 0.944423 -91.49 0.944423 -91.49 0.328702 1.1123
8.91225000 0.328774 -4.100 0.944399 -91.50 0.944399 -91.50 0.328770 1.1004
8.91250000 0.328842 -4.101 0.944376 -91.51 0.944376 -91.51 0.328837 1.0884
8.91275000 0.328910 -4.103 0.944352 -91.51 0.944352 -91.51 0.328905 1.0764
8.91300000 0.328977 -4.104 0.944329 -91.52 0.944329 -91.52 0.328973 1.0644
8.91325000 0.329045 -4.105 0.944305 -91.53 0.944305 -91.53 0.329041 1.0524
8.91350000 0.329114 -4.107 0.944281 -91.53 0.944281 -91.53 0.329109 1.0404
8.91375000 0.329182 -4.108 0.944257 -91.54 0.944257 -91.54 0.329177 1.0283
8.91400000 0.329251 -4.110 0.944233 -91.55 0.944233 -91.55 0.329246 1.0162
8.91425000 0.329319 -4.111 0.944209 -91.55 0.944209 -91.55 0.329315 1.0040
8.91450000 0.329388 -4.113 0.944185 -91.56 0.944185 -91.56 0.329383 0.9918
8.91475000 0.329458 -4.114 0.944161 -91.57 0.944161 -91.57 0.329453 0.9796
8.91500000 0.329527 -4.115 0.944137 -91.57 0.944137 -91.57 0.329522 0.9674
8.91525000 0.329596 -4.117 0.944113 -91.58 0.944113 -91.58 0.329591 0.9551
8.91550000 0.329666 -4.118 0.944088 -91.59 0.944088 -91.59 0.329661 0.9429
8.91575000 0.329736 -4.119 0.944064 -91.59 0.944064 -91.59 0.329731 0.9305
8.91600000 0.329806 -4.121 0.944040 -91.60 0.944040 -91.60 0.329801 0.9182
8.91625000 0.329876 -4.122 0.944015 -91.61 0.944015 -91.61 0.329871 0.9058
8.91650000 0.329946 -4.124 0.943990 -91.61 0.943990 -91.61 0.329941 0.8934
8.91675000 0.330017 -4.125 0.943966 -91.62 0.943966 -91.62 0.330012 0.8809
8.91700000 0.330088 -4.126 0.943941 -91.63 0.943941 -91.63 0.330083 0.8685
8.91725000 0.330159 -4.128 0.943916 -91.64 0.943916 -91.64 0.330154 0.8560
8.91750000 0.330230 -4.129 0.943891 -91.64 0.943891 -91.64 0.330225 0.8434
8.91775000 0.330301 -4.130 0.943866 -91.65 0.943866 -91.65 0.330296 0.8309
8.91800000 0.330373 -4.132 0.943841 -91.66 0.943841 -91.66 0.330368 0.8183
8.91825000 0.330445 -4.133 0.943816 -91.66 0.943816 -91.66 0.330439 0.8056
8.91850000 0.330517 -4.134 0.943791 -91.67 0.943791 -91.67 0.330511 0.7930
8.91875000 0.330589 -4.136 0.943766 -91.68 0.943766 -91.68 0.330583 0.7803
8.91900000 0.330661 -4.137 0.943740 -91.68 0.943740 -91.68 0.330656 0.7676
8.91925000 0.330734 -4.138 0.943715 -91.69 0.943715 -91.69 0.330728 0.7548
8.91950000 0.330806 -4.140 0.943689 -91.70 0.943689 -91.70 0.330801 0.7420
8.91975000 0.330879 -4.141 0.943664 -91.71 0.943664 -91.71 0.330874 0.7292
8.92000000 0.330952 -4.142 0.943638 -91.71 0.943638 -91.71 0.330947 0.7163
8.92025000 0.331026 -4.144 0.943612 -91.72 0.943612 -91.72 0.331020 0.7035
8.92050000 0.331099 -4.145 0.943586 -91.73 0.943586 -91.73 0.331094 0.6905
8.92075000 0.331173 -4.146 0.943561 -91.73 0.943561 -91.73 0.331167 0.6776
8.92100000 0.331247 -4.147 0.943535 -91.74 0.943535 -91.74 0.331241 0.6646
8.92125000 0.331321 -4.149 0.943509 -91.75 0.943509 -91.75 0.331315 0.6516
8.92150000 0.331395 -4.150 0.943482 -91.75 0.943482 -91.75 0.331390 0.6385
8.92175000 0.331470 -4.151 0.943456 -91.76 0.943456 -91.76 0.331464 0.6255
8.92200000 0.331544 -4.152 0.943430 -91.77 0.943430 -91.77 0.331539 0.6123
8.92225000 0.331619 -4.154 0.943404 -91.78 0.943404 -91.78 0.331614 0.5992
8.92250000 0.331695 -4.155 0.943377 -91.78 0.943377 -91.78 0.331689 0.5860
8.92275000 0.331770 -4.156 0.943351 -91.79 0.943351 -91.79 0.331764 0.5728
8.92300000 0.331846 -4.157 0.943324 -91.80 0.943324 -91.80 0.331840 0.5595
8.92325000 0.331921 -4.159 0.943297 -91.81 0.943297 -91.81 0.331916 0.5462
8.92350000 0.331997 -4.160 0.943271 -91.81 0.943271 -91.81 0.331992 0.5329
8.92375000 0.332074 -4.161 0.943244 -91.82 0.943244 -91.82 0.332068 0.5195
8.92400000 0.332150 -4.162 0.943217 -91.83 0.943217 -91.83 0.332144 0.5061
8.92425000 0.332227 -4.164 0.943190 -91.83 0.943190 -91.83 0.332221 0.4927
8.92450000 0.332304 -4.165 0.943163 -91.84 0.943163 -91.84 0.332298 0.4792
8.92475000 0.332381 -4.166 0.943135 -91.85 0.943135 -91.85 0.332375 0.4657
8.92500000 0.332458 -4.167 0.943108 -91.86 0.943108 -91.86 0.332452 0.4522
8.92525000 0.332536 -4.168 0.943081 -91.86 0.943081 -91.86 0.332530 0.4386
8.92550000 0.332613 -4.170 0.943053 -91.87 0.943053 -91.87 0.332608 0.4250
8.92575000 0.332692 -4.171 0.943026 -91.88 0.943026 -91.88 0.332686 0.4114
8.92600000 0.332770 -4.172 0.942998 -91.89 0.942998 -91.89 0.332764 0.3977
8.92625000 0.332848 -4.173 0.942970 -91.89 0.942970 -91.89 0.332842 0.3840
8.92650000 0.332927 -4.174 0.942943 -91.90 0.942943 -91.90 0.332921 0.3702
8.92675000 0.333006 -4.176 0.942915 -91.91 0.942915 -91.91 0.333000 0.3564
8.92700000 0.333085 -4.177 0.942887 -91.92 0.942887 -91.92 0.333079 0.3426
8.92725000 0.333164 -4.178 0.942859 -91.92 0.942859 -91.92 0.333158 0.3287
8.92750000 0.333244 -4.179 0.942831 -91.93 0.942831 -91.93 0.333238 0.3148
8.92775000 0.333324 -4.180 0.942802 -91.94 0.942802 -91.94 0.333318 0.3009
8.92800000 0.333404 -4.181 0.942774 -91.95 0.942774 -91.95 0.333398 0.2869
8.92825000 0.333484 -4.183 0.942745 -91.95 0.942745 -91.95 0.333478 0.2729
8.92850000 0.333565 -4.184 0.942717 -91.96 0.942717 -91.96 0.333559 0.2588
8.92875000 0.333646 -4.185 0.942688 -91.97 0.942688 -91.97 0.333640 0.2447
8.92900000 0.333727 -4.186 0.942660 -91.98 0.942660 -91.98 0.333721 0.2306
8.92925000 0.333808 -4.187 0.942631 -91.98 0.942631 -91.98 0.333802 0.2164
8.92950000 0.333890 -4.188 0.942602 -91.99 0.942602 -91.99 0.333884 0.2022
8.92975000 0.333971 -4.189 0.942573 -92.00 0.942573 -92.00 0.333965 0.1879
8.93000000 0.334054 -4.190 0.942544 -92.01 0.942544 -92.01 0.334047 0.1736
8.93025000 0.334136 -4.192 0.942515 -92.02 0.942515 -92.02 0.334130 0.1593
8.93050000 0.334218 -4.193 0.942485 -92.02 0.942485 -92.02 0.334212 0.1449
8.93075000 0.334301 -4.194 0.942456 -92.03 0.942456 -92.03 0.334295 0.1305
8.93100000 0.334384 -4.195 0.942426 -92.04 0.942426 -92.04 0.334378 0.1160
8.93125000 0.334468 -4.196 0.942397 -92.05 0.942397 -92.05 0.334461 0.1015
8.93150000 0.334551 -4.197 0.942367 -92.05 0.942367 -92.05 0.334545 0.0870
8.93175000 0.334635 -4.198 0.942337 -92.06 0.942337 -92.06 0.334629 0.0724
8.93200000 0.334719 -4.199 0.942307 -92.07 0.942307 -92.07 0.334713 0.0578
8.93225000 0.334803 -4.200 0.942278 -92.08 0.942278 -92.08 0.334797 0.0431
8.93250000 0.334888 -4.201 0.942247 -92.09 0.942247 -92.09 0.334881 0.0284
8.93275000 0.334973 -4.202 0.942217 -92.09 0.942217 -92.09 0.334966 0.0137
8.93300000 0.335058 -4.203 0.942187 -92.10 0.942187 -92.10 0.335051 0.0000
8.93325000 0.335143 -4.204 0.942157 -92.11 0.942157 -92.11 0.335137 -0.016
8.93350000 0.335229 -4.205 0.942126 -92.12 0.942126 -92.12 0.335222 -0.031
8.93375000 0.335315 -4.206 0.942095 -92.13 0.942095 -92.13 0.335308 -0.046
8.93400000 0.335401 -4.207 0.942065 -92.13 0.942065 -92.13 0.335395 -0.061
8.93425000 0.335488 -4.208 0.942034 -92.14 0.942034 -92.14 0.335481 -0.076
8.93450000 0.335574 -4.209 0.942003 -92.15 0.942003 -92.15 0.335568 -0.091
8.93475000 0.335661 -4.210 0.941972 -92.16 0.941972 -92.16 0.335655 -0.106
8.93500000 0.335749 -4.211 0.941941 -92.17 0.941941 -92.17 0.335742 -0.121
8.93525000 0.335836 -4.212 0.941910 -92.17 0.941910 -92.17 0.335830 -0.136
8.93550000 0.335924 -4.213 0.941878 -92.18 0.941878 -92.18 0.335917 -0.151
8.93575000 0.336012 -4.214 0.941847 -92.19 0.941847 -92.19 0.336006 -0.167
8.93600000 0.336101 -4.215 0.941815 -92.20 0.941815 -92.20 0.336094 -0.182
8.93625000 0.336190 -4.216 0.941783 -92.21 0.941783 -92.21 0.336183 -0.197
8.93650000 0.336279 -4.217 0.941752 -92.21 0.941752 -92.21 0.336272 -0.213
8.93675000 0.336368 -4.218 0.941720 -92.22 0.941720 -92.22 0.336361 -0.228
8.93700000 0.336457 -4.219 0.941688 -92.23 0.941688 -92.23 0.336450 -0.244
8.93725000 0.336547 -4.220 0.941656 -92.24 0.941656 -92.24 0.336540 -0.259
8.93750000 0.336637 -4.221 0.941623 -92.25 0.941623 -92.25 0.336630 -0.275
8.93775000 0.336728 -4.222 0.941591 -92.26 0.941591 -92.26 0.336721 -0.290
8.93800000 0.336819 -4.223 0.941558 -92.26 0.941558 -92.26 0.336812 -0.306
8.93825000 0.336910 -4.224 0.941526 -92.27 0.941526 -92.27 0.336903 -0.322
8.93850000 0.337001 -4.225 0.941493 -92.28 0.941493 -92.28 0.336994 -0.338
8.93875000 0.337093 -4.226 0.941460 -92.29 0.941460 -92.29 0.337086 -0.354
8.93900000 0.337185 -4.227 0.941427 -92.30 0.941427 -92.30 0.337178 -0.369
8.93925000 0.337277 -4.228 0.941394 -92.31 0.941394 -92.31 0.337270 -0.385
8.93950000 0.337370 -4.229 0.941361 -92.31 0.941361 -92.31 0.337362 -0.401
8.93975000 0.337463 -4.229 0.941328 -92.32 0.941328 -92.32 0.337455 -0.417
8.94000000 0.337556 -4.230 0.941294 -92.33 0.941294 -92.33 0.337549 -0.433
8.94025000 0.337649 -4.231 0.941261 -92.34 0.941261 -92.34 0.337642 -0.450
8.94050000 0.337743 -4.232 0.941227 -92.35 0.941227 -92.35 0.337736 -0.466
8.94075000 0.337837 -4.233 0.941193 -92.36 0.941193 -92.36 0.337830 -0.482
8.94100000 0.337932 -4.234 0.941159 -92.36 0.941159 -92.36 0.337924 -0.498
8.94125000 0.338027 -4.235 0.941125 -92.37 0.941125 -92.37 0.338019 -0.515
8.94150000 0.338122 -4.236 0.941091 -92.38 0.941091 -92.38 0.338114 -0.531
8.94175000 0.338217 -4.236 0.941057 -92.39 0.941057 -92.39 0.338210 -0.547
8.94200000 0.338313 -4.237 0.941022 -92.40 0.941022 -92.40 0.338306 -0.564
8.94225000 0.338409 -4.238 0.940987 -92.41 0.940987 -92.41 0.338402 -0.580
8.94250000 0.338506 -4.239 0.940953 -92.42 0.940953 -92.42 0.338498 -0.597
8.94275000 0.338602 -4.240 0.940918 -92.43 0.940918 -92.43 0.338595 -0.614
8.94300000 0.338700 -4.240 0.940883 -92.43 0.940883 -92.43 0.338692 -0.630
8.94325000 0.338797 -4.241 0.940848 -92.44 0.940848 -92.44 0.338789 -0.647
8.94350000 0.338895 -4.242 0.940813 -92.45 0.940813 -92.45 0.338887 -0.664
8.94375000 0.338993 -4.243 0.940777 -92.46 0.940777 -92.46 0.338985 -0.681
8.94400000 0.339091 -4.244 0.940742 -92.47 0.940742 -92.47 0.339084 -0.698
8.94425000 0.339190 -4.244 0.940706 -92.48 0.940706 -92.48 0.339182 -0.714
8.94450000 0.339289 -4.245 0.940670 -92.49 0.940670 -92.49 0.339282 -0.732
8.94475000 0.339389 -4.246 0.940634 -92.50 0.940634 -92.50 0.339381 -0.749
8.94500000 0.339489 -4.247 0.940598 -92.50 0.940598 -92.50 0.339481 -0.766
8.94525000 0.339589 -4.248 0.940562 -92.51 0.940562 -92.51 0.339581 -0.783
8.94550000 0.339690 -4.248 0.940526 -92.52 0.940526 -92.52 0.339682 -0.800
8.94575000 0.339791 -4.249 0.940489 -92.53 0.940489 -92.53 0.339783 -0.817
8.94600000 0.339892 -4.250 0.940452 -92.54 0.940452 -92.54 0.339884 -0.835
8.94625000 0.339994 -4.251 0.940416 -92.55 0.940416 -92.55 0.339986 -0.852
8.94650000 0.340096 -4.251 0.940379 -92.56 0.940379 -92.56 0.340088 -0.870
8.94675000 0.340198 -4.252 0.940342 -92.57 0.940342 -92.57 0.340190 -0.887
8.94700000 0.340301 -4.253 0.940304 -92.58 0.940304 -92.58 0.340293 -0.905
8.94725000 0.340404 -4.253 0.940267 -92.59 0.940267 -92.59 0.340396 -0.922
8.94750000 0.340508 -4.254 0.940229 -92.60 0.940229 -92.60 0.340499 -0.940
8.94775000 0.340612 -4.255 0.940192 -92.60 0.940192 -92.60 0.340603 -0.958
8.94800000 0.340716 -4.256 0.940154 -92.61 0.940154 -92.61 0.340708 -0.976
8.94825000 0.340821 -4.256 0.940116 -92.62 0.940116 -92.62 0.340812 -0.993
8.94850000 0.340926 -4.257 0.940078 -92.63 0.940078 -92.63 0.340917 -1.011
8.94875000 0.341031 -4.258 0.940040 -92.64 0.940040 -92.64 0.341023 -1.029
8.94900000 0.341137 -4.258 0.940001 -92.65 0.940001 -92.65 0.341128 -1.047
8.94925000 0.341243 -4.259 0.939963 -92.66 0.939963 -92.66 0.341235 -1.066
8.94950000 0.341350 -4.260 0.939924 -92.67 0.939924 -92.67 0.341341 -1.084
8.94975000 0.341457 -4.260 0.939885 -92.68 0.939885 -92.68 0.341448 -1.102
8.95000000 0.341564 -4.261 0.939846 -92.69 0.939846 -92.69 0.341556 -1.120
8.95025000 0.341672 -4.261 0.939807 -92.70 0.939807 -92.70 0.341663 -1.139
8.95050000 0.341780 -4.262 0.939767 -92.71 0.939767 -92.71 0.341772 -1.157
8.95075000 0.341889 -4.263 0.939728 -92.72 0.939728 -92.72 0.341880 -1.176
8.95100000 0.341998 -4.263 0.939688 -92.73 0.939688 -92.73 0.341989 -1.194
8.95125000 0.342108 -4.264 0.939648 -92.74 0.939648 -92.74 0.342099 -1.213
8.95150000 0.342218 -4.265 0.939608 -92.75 0.939608 -92.75 0.342209 -1.231
8.95175000 0.342328 -4.265 0.939568 -92.76 0.939568 -92.76 0.342319 -1.250
8.95200000 0.342439 -4.266 0.939527 -92.77 0.939527 -92.77 0.342430 -1.269
8.95225000 0.342550 -4.266 0.939487 -92.78 0.939487 -92.78 0.342541 -1.288
8.95250000 0.342661 -4.267 0.939446 -92.79 0.939446 -92.79 0.342652 -1.307
8.95275000 0.342773 -4.267 0.939405 -92.80 0.939405 -92.80 0.342764 -1.326
8.95300000 0.342886 -4.268 0.939364 -92.80 0.939364 -92.80 0.342877 -1.345
8.95325000 0.342999 -4.269 0.939323 -92.81 0.939323 -92.81 0.342990 -1.364
8.95350000 0.343112 -4.269 0.939281 -92.82 0.939281 -92.82 0.343103 -1.383
8.95375000 0.343226 -4.270 0.939240 -92.83 0.939240 -92.83 0.343217 -1.403
8.95400000 0.343340 -4.270 0.939198 -92.84 0.939198 -92.84 0.343331 -1.422
8.95425000 0.343455 -4.271 0.939156 -92.85 0.939156 -92.85 0.343446 -1.441
8.95450000 0.343570 -4.271 0.939114 -92.86 0.939114 -92.86 0.343561 -1.461
8.95475000 0.343686 -4.272 0.939071 -92.87 0.939071 -92.87 0.343676 -1.480
8.95500000 0.343802 -4.272 0.939029 -92.88 0.939029 -92.88 0.343792 -1.500
8.95525000 0.343918 -4.273 0.938986 -92.89 0.938986 -92.89 0.343909 -1.520
8.95550000 0.344035 -4.273 0.938943 -92.90 0.938943 -92.90 0.344026 -1.539
8.95575000 0.344153 -4.274 0.938900 -92.91 0.938900 -92.91 0.344143 -1.559
8.95600000 0.344271 -4.274 0.938857 -92.93 0.938857 -92.93 0.344261 -1.579
8.95625000 0.344389 -4.275 0.938813 -92.94 0.938813 -92.94 0.344379 -1.599
8.95650000 0.344508 -4.275 0.938770 -92.95 0.938770 -92.95 0.344498 -1.619
8.95675000 0.344627 -4.276 0.938726 -92.96 0.938726 -92.96 0.344617 -1.639
8.95700000 0.344747 -4.276 0.938682 -92.97 0.938682 -92.97 0.344737 -1.660
8.95725000 0.344867 -4.277 0.938638 -92.98 0.938638 -92.98 0.344858 -1.680
8.95750000 0.344988 -4.277 0.938593 -92.99 0.938593 -92.99 0.344978 -1.700
8.95775000 0.345110 -4.277 0.938548 -93.00 0.938548 -93.00 0.345100 -1.721
8.95800000 0.345231 -4.278 0.938504 -93.01 0.938504 -93.01 0.345221 -1.741
8.95825000 0.345354 -4.278 0.938459 -93.02 0.938459 -93.02 0.345344 -1.762
8.95850000 0.345477 -4.279 0.938413 -93.03 0.938413 -93.03 0.345466 -1.783
8.95875000 0.345600 -4.279 0.938368 -93.04 0.938368 -93.04 0.345590 -1.803
8.95900000 0.345724 -4.279 0.938322 -93.05 0.938322 -93.05 0.345714 -1.824
8.95925000 0.345848 -4.280 0.938276 -93.06 0.938276 -93.06 0.345838 -1.845
8.95950000 0.345973 -4.280 0.938230 -93.07 0.938230 -93.07 0.345963 -1.866
8.95975000 0.346098 -4.281 0.938184 -93.08 0.938184 -93.08 0.346088 -1.887
8.96000000 0.346224 -4.281 0.938137 -93.09 0.938137 -93.09 0.346214 -1.908
8.96025000 0.346351 -4.281 0.938091 -93.10 0.938091 -93.10 0.346340 -1.929
8.96050000 0.346478 -4.282 0.938044 -93.11 0.938044 -93.11 0.346467 -1.951
8.96075000 0.346605 -4.282 0.937997 -93.13 0.937997 -93.13 0.346595 -1.972
8.96100000 0.346733 -4.282 0.937949 -93.14 0.937949 -93.14 0.346723 -1.994
8.96125000 0.346862 -4.283 0.937901 -93.15 0.937901 -93.15 0.346851 -2.015
8.96150000 0.346991 -4.283 0.937854 -93.16 0.937854 -93.16 0.346981 -2.037
8.96175000 0.347121 -4.283 0.937806 -93.17 0.937806 -93.17 0.347110 -2.058
8.96200000 0.347251 -4.284 0.937757 -93.18 0.937757 -93.18 0.347241 -2.080
8.96225000 0.347382 -4.284 0.937709 -93.19 0.937709 -93.19 0.347371 -2.102
8.96250000 0.347514 -4.284 0.937660 -93.20 0.937660 -93.20 0.347503 -2.124
8.96275000 0.347646 -4.285 0.937611 -93.21 0.937611 -93.21 0.347635 -2.146
8.96300000 0.347778 -4.285 0.937562 -93.22 0.937562 -93.22 0.347767 -2.168
8.96325000 0.347911 -4.285 0.937512 -93.24 0.937512 -93.24 0.347900 -2.191
8.96350000 0.348045 -4.285 0.937463 -93.25 0.937463 -93.25 0.348034 -2.213
8.96375000 0.348179 -4.286 0.937413 -93.26 0.937413 -93.26 0.348168 -2.235
8.96400000 0.348314 -4.286 0.937363 -93.27 0.937363 -93.27 0.348303 -2.258
8.96425000 0.348450 -4.286 0.937312 -93.28 0.937312 -93.28 0.348439 -2.280
8.96450000 0.348586 -4.286 0.937261 -93.29 0.937261 -93.29 0.348575 -2.303
8.96475000 0.348723 -4.287 0.937211 -93.30 0.937211 -93.30 0.348711 -2.326
8.96500000 0.348860 -4.287 0.937159 -93.32 0.937159 -93.32 0.348849 -2.349
8.96525000 0.348998 -4.287 0.937108 -93.33 0.937108 -93.33 0.348987 -2.372
8.96550000 0.349137 -4.287 0.937056 -93.34 0.937056 -93.34 0.349125 -2.395
8.96575000 0.349276 -4.288 0.937004 -93.35 0.937004 -93.35 0.349264 -2.418
8.96600000 0.349416 -4.288 0.936952 -93.36 0.936952 -93.36 0.349404 -2.441
8.96625000 0.349556 -4.288 0.936900 -93.37 0.936900 -93.37 0.349544 -2.464
8.96650000 0.349697 -4.288 0.936847 -93.39 0.936847 -93.39 0.349686 -2.488
8.96675000 0.349839 -4.288 0.936794 -93.40 0.936794 -93.40 0.349827 -2.511
8.96700000 0.349981 -4.289 0.936741 -93.41 0.936741 -93.41 0.349970 -2.535
8.96725000 0.350125 -4.289 0.936687 -93.42 0.936687 -93.42 0.350113 -2.559
8.96750000 0.350268 -4.289 0.936633 -93.43 0.936633 -93.43 0.350256 -2.583
8.96775000 0.350413 -4.289 0.936579 -93.45 0.936579 -93.45 0.350401 -2.607
8.96800000 0.350558 -4.289 0.936525 -93.46 0.936525 -93.46 0.350546 -2.631
8.96825000 0.350703 -4.289 0.936470 -93.47 0.936470 -93.47 0.350691 -2.655
8.96850000 0.350850 -4.289 0.936415 -93.48 0.936415 -93.48 0.350838 -2.679
8.96875000 0.350997 -4.290 0.936360 -93.49 0.936360 -93.49 0.350985 -2.703
8.96900000 0.351145 -4.290 0.936305 -93.51 0.936305 -93.51 0.351132 -2.728
8.96925000 0.351293 -4.290 0.936249 -93.52 0.936249 -93.52 0.351281 -2.752
8.96950000 0.351442 -4.290 0.936193 -93.53 0.936193 -93.53 0.351430 -2.777
8.96975000 0.351592 -4.290 0.936137 -93.54 0.936137 -93.54 0.351580 -2.802
8.97000000 0.351743 -4.290 0.936080 -93.56 0.936080 -93.56 0.351730 -2.826
8.97025000 0.351894 -4.290 0.936023 -93.57 0.936023 -93.57 0.351881 -2.851
8.97050000 0.352046 -4.290 0.935966 -93.58 0.935966 -93.58 0.352033 -2.876
8.97075000 0.352199 -4.290 0.935908 -93.59 0.935908 -93.59 0.352186 -2.902
8.97100000 0.352353 -4.290 0.935850 -93.61 0.935850 -93.61 0.352340 -2.927
8.97125000 0.352507 -4.290 0.935792 -93.62 0.935792 -93.62 0.352494 -2.952
8.97150000 0.352662 -4.290 0.935734 -93.63 0.935734 -93.63 0.352649 -2.978
8.97175000 0.352818 -4.290 0.935675 -93.64 0.935675 -93.64 0.352804 -3.003
8.97200000 0.352974 -4.290 0.935616 -93.66 0.935616 -93.66 0.352961 -3.029
8.97225000 0.353131 -4.290 0.935556 -93.67 0.935556 -93.67 0.353118 -3.055
8.97250000 0.353289 -4.290 0.935497 -93.68 0.935497 -93.68 0.353276 -3.081
8.97275000 0.353448 -4.291 0.935437 -93.70 0.935437 -93.70 0.353435 -3.107
8.97300000 0.353608 -4.291 0.935376 -93.71 0.935376 -93.71 0.353594 -3.133
8.97325000 0.353768 -4.291 0.935315 -93.72 0.935315 -93.72 0.353755 -3.159
8.97350000 0.353930 -4.290 0.935254 -93.74 0.935254 -93.74 0.353916 -3.186
8.97375000 0.354092 -4.290 0.935193 -93.75 0.935193 -93.75 0.354078 -3.212
8.97400000 0.354254 -4.290 0.935131 -93.76 0.935131 -93.76 0.354241 -3.239
8.97425000 0.354418 -4.290 0.935069 -93.78 0.935069 -93.78 0.354404 -3.266
8.97450000 0.354582 -4.290 0.935007 -93.79 0.935007 -93.79 0.354569 -3.293
8.97475000 0.354748 -4.290 0.934944 -93.80 0.934944 -93.80 0.354734 -3.320
8.97500000 0.354914 -4.290 0.934881 -93.82 0.934881 -93.82 0.354900 -3.347
8.97525000 0.355081 -4.290 0.934817 -93.83 0.934817 -93.83 0.355067 -3.374
8.97550000 0.355249 -4.290 0.934753 -93.84 0.934753 -93.84 0.355235 -3.401
8.97575000 0.355417 -4.290 0.934689 -93.86 0.934689 -93.86 0.355403 -3.429
8.97600000 0.355587 -4.290 0.934625 -93.87 0.934625 -93.87 0.355573 -3.457
8.97625000 0.355757 -4.290 0.934560 -93.88 0.934560 -93.88 0.355743 -3.484
8.97650000 0.355929 -4.290 0.934494 -93.90 0.934494 -93.90 0.355914 -3.512
8.97675000 0.356101 -4.290 0.934429 -93.91 0.934429 -93.91 0.356086 -3.540
8.97700000 0.356274 -4.290 0.934363 -93.93 0.934363 -93.93 0.356259 -3.568
8.97725000 0.356448 -4.290 0.934296 -93.94 0.934296 -93.94 0.356433 -3.597
8.97750000 0.356623 -4.289 0.934229 -93.95 0.934229 -93.95 0.356608 -3.625
8.97775000 0.356799 -4.289 0.934162 -93.97 0.934162 -93.97 0.356784 -3.654
8.97800000 0.356976 -4.289 0.934095 -93.98 0.934095 -93.98 0.356961 -3.682
8.97825000 0.357153 -4.289 0.934026 -94.00 0.934026 -94.00 0.357138 -3.711
8.97850000 0.357332 -4.289 0.933958 -94.01 0.933958 -94.01 0.357317 -3.740
8.97875000 0.357512 -4.289 0.933889 -94.03 0.933889 -94.03 0.357496 -3.769
8.97900000 0.357692 -4.289 0.933820 -94.04 0.933820 -94.04 0.357677 -3.799
8.97925000 0.357874 -4.288 0.933750 -94.06 0.933750 -94.06 0.357858 -3.828
8.97950000 0.358056 -4.288 0.933680 -94.07 0.933680 -94.07 0.358041 -3.857
8.97975000 0.358240 -4.288 0.933610 -94.09 0.933610 -94.09 0.358224 -3.887
8.98000000 0.358424 -4.288 0.933539 -94.10 0.933539 -94.10 0.358409 -3.917
8.98025000 0.358610 -4.288 0.933468 -94.11 0.933468 -94.11 0.358594 -3.947
8.98050000 0.358796 -4.287 0.933396 -94.13 0.933396 -94.13 0.358781 -3.977
8.98075000 0.358984 -4.287 0.933324 -94.14 0.933324 -94.14 0.358968 -4.007
8.98100000 0.359173 -4.287 0.933251 -94.16 0.933251 -94.16 0.359156 -4.038
8.98125000 0.359362 -4.287 0.933178 -94.17 0.933178 -94.17 0.359346 -4.068
8.98150000 0.359553 -4.287 0.933104 -94.19 0.933104 -94.19 0.359537 -4.099
8.98175000 0.359745 -4.286 0.933030 -94.21 0.933030 -94.21 0.359728 -4.130
8.98200000 0.359937 -4.286 0.932956 -94.22 0.932956 -94.22 0.359921 -4.161
8.98225000 0.360131 -4.286 0.932881 -94.24 0.932881 -94.24 0.360115 -4.192
8.98250000 0.360326 -4.286 0.932805 -94.25 0.932805 -94.25 0.360310 -4.223
8.98275000 0.360522 -4.285 0.932730 -94.27 0.932730 -94.27 0.360506 -4.255
8.98300000 0.360720 -4.285 0.932653 -94.28 0.932653 -94.28 0.360703 -4.286
8.98325000 0.360918 -4.285 0.932576 -94.30 0.932576 -94.30 0.360901 -4.318
8.98350000 0.361117 -4.285 0.932499 -94.31 0.932499 -94.31 0.361100 -4.350
8.98375000 0.361318 -4.284 0.932421 -94.33 0.932421 -94.33 0.361301 -4.382
8.98400000 0.361520 -4.284 0.932343 -94.35 0.932343 -94.35 0.361502 -4.414
8.98425000 0.361722 -4.284 0.932264 -94.36 0.932264 -94.36 0.361705 -4.447
8.98450000 0.361926 -4.284 0.932185 -94.38 0.932185 -94.38 0.361909 -4.479
8.98475000 0.362132 -4.283 0.932105 -94.39 0.932105 -94.39 0.362114 -4.512
8.98500000 0.362338 -4.283 0.932025 -94.41 0.932025 -94.41 0.362320 -4.545
8.98525000 0.362546 -4.283 0.931944 -94.43 0.931944 -94.43 0.362528 -4.578
8.98550000 0.362755 -4.282 0.931863 -94.44 0.931863 -94.44 0.362737 -4.612
8.98575000 0.362965 -4.282 0.931781 -94.46 0.931781 -94.46 0.362947 -4.645
8.98600000 0.363176 -4.282 0.931698 -94.48 0.931698 -94.48 0.363158 -4.679
8.98625000 0.363389 -4.282 0.931615 -94.49 0.931615 -94.49 0.363370 -4.712
8.98650000 0.363602 -4.281 0.931532 -94.51 0.931532 -94.51 0.363584 -4.746
8.98675000 0.363818 -4.281 0.931447 -94.53 0.931447 -94.53 0.363799 -4.781
8.98700000 0.364034 -4.281 0.931363 -94.54 0.931363 -94.54 0.364015 -4.815
8.98725000 0.364252 -4.280 0.931278 -94.56 0.931278 -94.56 0.364233 -4.850
8.98750000 0.364471 -4.280 0.931192 -94.58 0.931192 -94.58 0.364452 -4.884
8.98775000 0.364691 -4.280 0.931105 -94.60 0.931105 -94.60 0.364672 -4.919
8.98800000 0.364913 -4.279 0.931018 -94.61 0.931018 -94.61 0.364894 -4.954
8.98825000 0.365136 -4.279 0.930931 -94.63 0.930931 -94.63 0.365117 -4.990
8.98850000 0.365360 -4.279 0.930843 -94.65 0.930843 -94.65 0.365341 -5.025
8.98875000 0.365586 -4.278 0.930754 -94.67 0.930754 -94.67 0.365567 -5.061
8.98900000 0.365813 -4.278 0.930664 -94.68 0.930664 -94.68 0.365794 -5.097
8.98925000 0.366042 -4.278 0.930574 -94.70 0.930574 -94.70 0.366022 -5.133
8.98950000 0.366272 -4.277 0.930484 -94.72 0.930484 -94.72 0.366252 -5.169
8.98975000 0.366503 -4.277 0.930393 -94.74 0.930393 -94.74 0.366483 -5.205
8.99000000 0.366736 -4.276 0.930301 -94.76 0.930301 -94.76 0.366716 -5.242
8.99025000 0.366970 -4.276 0.930208 -94.77 0.930208 -94.77 0.366950 -5.279
8.99050000 0.367206 -4.276 0.930115 -94.79 0.930115 -94.79 0.367186 -5.316
8.99075000 0.367443 -4.275 0.930021 -94.81 0.930021 -94.81 0.367423 -5.353
8.99100000 0.367682 -4.275 0.929927 -94.83 0.929927 -94.83 0.367662 -5.391
8.99125000 0.367923 -4.275 0.929831 -94.85 0.929831 -94.85 0.367902 -5.429
8.99150000 0.368164 -4.274 0.929735 -94.87 0.929735 -94.87 0.368144 -5.466
8.99175000 0.368408 -4.274 0.929639 -94.89 0.929639 -94.89 0.368387 -5.505
8.99200000 0.368653 -4.274 0.929542 -94.90 0.929542 -94.90 0.368632 -5.543
8.99225000 0.368900 -4.273 0.929444 -94.92 0.929444 -94.92 0.368878 -5.582
8.99250000 0.369148 -4.273 0.929345 -94.94 0.929345 -94.94 0.369126 -5.620
8.99275000 0.369398 -4.272 0.929245 -94.96 0.929245 -94.96 0.369376 -5.659
8.99300000 0.369649 -4.272 0.929145 -94.98 0.929145 -94.98 0.369627 -5.699
8.99325000 0.369902 -4.272 0.929044 -95.00 0.929044 -95.00 0.369880 -5.738
8.99350000 0.370157 -4.271 0.928943 -95.02 0.928943 -95.02 0.370135 -5.778
8.99375000 0.370413 -4.271 0.928840 -95.04 0.928840 -95.04 0.370391 -5.818
8.99400000 0.370672 -4.271 0.928737 -95.06 0.928737 -95.06 0.370649 -5.858
8.99425000 0.370931 -4.270 0.928633 -95.08 0.928633 -95.08 0.370909 -5.898
8.99450000 0.371193 -4.270 0.928529 -95.10 0.928529 -95.10 0.371171 -5.939
8.99475000 0.371456 -4.269 0.928423 -95.12 0.928423 -95.12 0.371434 -5.980
8.99500000 0.371722 -4.269 0.928317 -95.14 0.928317 -95.14 0.371699 -6.021
8.99525000 0.371989 -4.269 0.928210 -95.16 0.928210 -95.16 0.371966 -6.062
8.99550000 0.372257 -4.268 0.928102 -95.18 0.928102 -95.18 0.372234 -6.104
8.99575000 0.372528 -4.268 0.927993 -95.20 0.927993 -95.20 0.372505 -6.146
8.99600000 0.372801 -4.268 0.927883 -95.22 0.927883 -95.22 0.372777 -6.188
8.99625000 0.373075 -4.267 0.927773 -95.24 0.927773 -95.24 0.373051 -6.230
8.99650000 0.373351 -4.267 0.927662 -95.27 0.927662 -95.27 0.373328 -6.273
8.99675000 0.373629 -4.267 0.927549 -95.29 0.927549 -95.29 0.373606 -6.316
8.99700000 0.373910 -4.266 0.927436 -95.31 0.927436 -95.31 0.373886 -6.359
8.99725000 0.374192 -4.266 0.927322 -95.33 0.927322 -95.33 0.374168 -6.402
8.99750000 0.374476 -4.266 0.927207 -95.35 0.927207 -95.35 0.374451 -6.446
8.99775000 0.374762 -4.265 0.927092 -95.37 0.927092 -95.37 0.374737 -6.490
8.99800000 0.375050 -4.265 0.926975 -95.40 0.926975 -95.40 0.375025 -6.534