! Sonnet Data File
! From: emgraph Version : 16.52
! From Project: Resonator2
! Data is De-embedded 
! Data File Written: 10/09/2017 23:05:25
!< HDATE 10/09/2017 14:49:56
!< MDATE 10/09/2017 18:05:28
!< PARAMS
!< gap = 6.0
!< Length = 400.0
!< Pwid1 = 2000.0
!< Pwid2 = 2000.0
!< Airgap = 24.0
!< Width = 40.0
!< END PARAMS
# GHZ S MA R 45.40000
8.85000000 0.071508 -7.276 0.997409 -76.09 0.997409 -76.09 0.071519 35.063
!< P1 F=8.85 Eeff=(5.09005347 -2.2131e-5) Z0=(45.4117489 1.00331e-4) R=0.0 C=0.0 
!< P2 F=8.85 Eeff=(5.09005347 -2.2131e-5) Z0=(45.4117489 1.00331e-4) R=0.0 C=0.0 
8.85020000 0.071775 -7.331 0.997390 -76.10 0.997390 -76.10 0.071786 35.082
8.85040000 0.072047 -7.386 0.997370 -76.12 0.997370 -76.12 0.072058 35.102
8.85060000 0.072322 -7.441 0.997349 -76.14 0.997349 -76.14 0.072333 35.122
8.85080000 0.072600 -7.497 0.997329 -76.16 0.997329 -76.16 0.072611 35.141
8.85100000 0.072883 -7.553 0.997308 -76.17 0.997308 -76.17 0.072894 35.161
8.85120000 0.073169 -7.610 0.997286 -76.19 0.997286 -76.19 0.073180 35.180
8.85140000 0.073459 -7.667 0.997265 -76.21 0.997265 -76.21 0.073471 35.200
8.85160000 0.073754 -7.725 0.997242 -76.23 0.997242 -76.23 0.073765 35.219
8.85180000 0.074052 -7.783 0.997220 -76.25 0.997220 -76.25 0.074064 35.239
8.85200000 0.074355 -7.842 0.997197 -76.27 0.997197 -76.27 0.074367 35.258
8.85220000 0.074662 -7.901 0.997174 -76.29 0.997174 -76.29 0.074674 35.278
8.85240000 0.074973 -7.960 0.997150 -76.31 0.997150 -76.31 0.074985 35.297
8.85260000 0.075289 -8.021 0.997125 -76.33 0.997125 -76.33 0.075301 35.317
8.85280000 0.075609 -8.081 0.997101 -76.35 0.997101 -76.35 0.075622 35.336
8.85300000 0.075935 -8.142 0.997075 -76.37 0.997075 -76.37 0.075947 35.355
8.85320000 0.076265 -8.204 0.997050 -76.39 0.997050 -76.39 0.076277 35.375
8.85340000 0.076599 -8.266 0.997024 -76.41 0.997024 -76.41 0.076612 35.394
8.85360000 0.076939 -8.329 0.996997 -76.43 0.996997 -76.43 0.076952 35.413
8.85380000 0.077284 -8.392 0.996970 -76.45 0.996970 -76.45 0.077297 35.432
8.85400000 0.077634 -8.456 0.996942 -76.48 0.996942 -76.48 0.077648 35.451
8.85420000 0.077990 -8.520 0.996914 -76.50 0.996914 -76.50 0.078003 35.470
8.85440000 0.078351 -8.585 0.996885 -76.52 0.996885 -76.52 0.078364 35.489
8.85460000 0.078718 -8.650 0.996855 -76.54 0.996855 -76.54 0.078731 35.508
8.85480000 0.079090 -8.717 0.996825 -76.57 0.996825 -76.57 0.079104 35.527
8.85500000 0.079468 -8.783 0.996794 -76.59 0.996794 -76.59 0.079482 35.546
8.85520000 0.079853 -8.851 0.996763 -76.62 0.996763 -76.62 0.079867 35.564
8.85540000 0.080243 -8.919 0.996731 -76.64 0.996731 -76.64 0.080257 35.583
8.85560000 0.080640 -8.987 0.996698 -76.67 0.996698 -76.67 0.080654 35.601
8.85580000 0.081043 -9.056 0.996665 -76.69 0.996665 -76.69 0.081058 35.619
8.85600000 0.081453 -9.126 0.996631 -76.72 0.996631 -76.72 0.081468 35.638
8.85620000 0.081870 -9.197 0.996596 -76.74 0.996596 -76.74 0.081884 35.656
8.85640000 0.082293 -9.268 0.996560 -76.77 0.996560 -76.77 0.082308 35.674
8.85660000 0.082724 -9.340 0.996524 -76.79 0.996524 -76.79 0.082739 35.691
8.85680000 0.083162 -9.413 0.996487 -76.82 0.996487 -76.82 0.083177 35.709
8.85700000 0.083608 -9.486 0.996449 -76.85 0.996449 -76.85 0.083623 35.726
8.85720000 0.084061 -9.560 0.996410 -76.88 0.996410 -76.88 0.084076 35.744
8.85740000 0.084522 -9.635 0.996370 -76.91 0.996370 -76.91 0.084538 35.761
8.85760000 0.084991 -9.711 0.996329 -76.93 0.996329 -76.93 0.085007 35.778
8.85780000 0.085469 -9.787 0.996287 -76.96 0.996287 -76.96 0.085485 35.795
8.85800000 0.085955 -9.864 0.996245 -76.99 0.996245 -76.99 0.085971 35.811
8.85820000 0.086450 -9.942 0.996201 -77.02 0.996201 -77.02 0.086466 35.827
8.85840000 0.086953 -10.02 0.996156 -77.06 0.996156 -77.06 0.086970 35.844
8.85860000 0.087467 -10.10 0.996110 -77.09 0.996110 -77.09 0.087483 35.859
8.85880000 0.087989 -10.18 0.996063 -77.12 0.996063 -77.12 0.088006 35.875
8.85900000 0.088521 -10.26 0.996015 -77.15 0.996015 -77.15 0.088538 35.890
8.85920000 0.089064 -10.35 0.995965 -77.18 0.995965 -77.18 0.089081 35.905
8.85940000 0.089616 -10.43 0.995915 -77.22 0.995915 -77.22 0.089634 35.920
8.85960000 0.090180 -10.51 0.995863 -77.25 0.995863 -77.25 0.090197 35.935
8.85980000 0.090754 -10.60 0.995809 -77.29 0.995809 -77.29 0.090772 35.949
8.86000000 0.091339 -10.68 0.995755 -77.32 0.995755 -77.32 0.091357 35.963
8.86020000 0.091937 -10.77 0.995698 -77.36 0.995698 -77.36 0.091955 35.976
8.86040000 0.092546 -10.86 0.995641 -77.40 0.995641 -77.40 0.092564 35.989
8.86060000 0.093167 -10.95 0.995582 -77.43 0.995582 -77.43 0.093185 36.002
8.86080000 0.093801 -11.04 0.995521 -77.47 0.995521 -77.47 0.093820 36.014
8.86100000 0.094448 -11.13 0.995458 -77.51 0.995458 -77.51 0.094467 36.026
8.86120000 0.095108 -11.22 0.995394 -77.55 0.995394 -77.55 0.095128 36.038
8.86140000 0.095782 -11.32 0.995328 -77.59 0.995328 -77.59 0.095802 36.049
8.86160000 0.096471 -11.41 0.995260 -77.64 0.995260 -77.64 0.096491 36.059
8.86180000 0.097174 -11.51 0.995190 -77.68 0.995190 -77.68 0.097195 36.069
8.86200000 0.097893 -11.61 0.995117 -77.72 0.995117 -77.72 0.097914 36.079
8.86220000 0.098627 -11.71 0.995043 -77.77 0.995043 -77.77 0.098648 36.088
8.86240000 0.099378 -11.81 0.994967 -77.81 0.994967 -77.81 0.099399 36.096
8.86260000 0.100146 -11.91 0.994888 -77.86 0.994888 -77.86 0.100167 36.104
8.86280000 0.100930 -12.01 0.994807 -77.90 0.994807 -77.90 0.100952 36.111
8.86300000 0.101733 -12.11 0.994723 -77.95 0.994723 -77.95 0.101755 36.117
8.86320000 0.102555 -12.22 0.994637 -78.00 0.994637 -78.00 0.102577 36.123
8.86340000 0.103395 -12.33 0.994548 -78.05 0.994548 -78.05 0.103418 36.127
8.86360000 0.104256 -12.44 0.994456 -78.10 0.994456 -78.10 0.104279 36.132
8.86380000 0.105137 -12.55 0.994361 -78.16 0.994361 -78.16 0.105160 36.135
8.86400000 0.106040 -12.66 0.994263 -78.21 0.994263 -78.21 0.106063 36.137
8.86420000 0.106964 -12.77 0.994161 -78.27 0.994161 -78.27 0.106988 36.139
8.86440000 0.107912 -12.89 0.994056 -78.32 0.994056 -78.32 0.107936 36.139
8.86460000 0.108884 -13.01 0.993948 -78.38 0.993948 -78.38 0.108908 36.139
8.86480000 0.109880 -13.12 0.993835 -78.44 0.993835 -78.44 0.109905 36.138
8.86500000 0.110902 -13.25 0.993719 -78.50 0.993719 -78.50 0.110928 36.135
8.86520000 0.111951 -13.37 0.993599 -78.56 0.993599 -78.56 0.111977 36.131
8.86540000 0.113027 -13.49 0.993474 -78.63 0.993474 -78.63 0.113054 36.126
8.86560000 0.114133 -13.62 0.993344 -78.69 0.993344 -78.69 0.114159 36.120
8.86580000 0.115268 -13.75 0.993210 -78.76 0.993210 -78.76 0.115295 36.113
8.86600000 0.116435 -13.88 0.993070 -78.83 0.993070 -78.83 0.116462 36.104
8.86620000 0.117634 -14.02 0.992926 -78.90 0.992926 -78.90 0.117662 36.093
8.86640000 0.118868 -14.15 0.992775 -78.97 0.992775 -78.97 0.118896 36.081
8.86660000 0.120136 -14.29 0.992618 -79.05 0.992618 -79.05 0.120165 36.068
8.86680000 0.121442 -14.44 0.992456 -79.13 0.992456 -79.13 0.121471 36.053
8.86700000 0.122786 -14.58 0.992286 -79.21 0.992286 -79.21 0.122816 36.035
8.86720000 0.124170 -14.73 0.992109 -79.29 0.992109 -79.29 0.124201 36.016
8.86740000 0.125597 -14.88 0.991925 -79.37 0.991925 -79.37 0.125628 35.995
8.86760000 0.127068 -15.03 0.991733 -79.46 0.991733 -79.46 0.127099 35.972
8.86780000 0.128584 -15.19 0.991532 -79.55 0.991532 -79.55 0.128616 35.947
8.86800000 0.130149 -15.35 0.991323 -79.64 0.991323 -79.64 0.130182 35.919
8.86820000 0.131765 -15.51 0.991104 -79.74 0.991104 -79.74 0.131798 35.889
8.86840000 0.133434 -15.68 0.990875 -79.84 0.990875 -79.84 0.133468 35.856
8.86860000 0.135158 -15.85 0.990635 -79.94 0.990635 -79.94 0.135193 35.820
8.86880000 0.136941 -16.03 0.990384 -80.04 0.990384 -80.04 0.136976 35.782
8.86900000 0.138786 -16.21 0.990120 -80.15 0.990120 -80.15 0.138822 35.740
8.86920000 0.140695 -16.39 0.989844 -80.27 0.989844 -80.27 0.140732 35.695
8.86940000 0.142672 -16.58 0.989553 -80.38 0.989553 -80.38 0.142710 35.646
8.86960000 0.144722 -16.77 0.989248 -80.50 0.989248 -80.50 0.144760 35.594
8.86980000 0.146847 -16.97 0.988926 -80.63 0.988926 -80.63 0.146886 35.537
8.87000000 0.149053 -17.17 0.988587 -80.76 0.988587 -80.76 0.149093 35.477
8.87020000 0.151343 -17.38 0.988230 -80.89 0.988230 -80.89 0.151384 35.412
8.87040000 0.153722 -17.60 0.987852 -81.03 0.987852 -81.03 0.153764 35.342
8.87060000 0.156197 -17.82 0.987454 -81.18 0.987454 -81.18 0.156240 35.267
8.87080000 0.158772 -18.05 0.987032 -81.33 0.987032 -81.33 0.158816 35.187
8.87100000 0.161454 -18.28 0.986585 -81.49 0.986585 -81.49 0.161499 35.101
8.87120000 0.164249 -18.52 0.986111 -81.65 0.986111 -81.65 0.164295 35.009
8.87140000 0.167166 -18.77 0.985607 -81.82 0.985607 -81.82 0.167213 34.910
8.87160000 0.170211 -19.03 0.985071 -82.00 0.985071 -82.00 0.170259 34.804
8.87180000 0.173393 -19.30 0.984501 -82.19 0.984501 -82.19 0.173443 34.690
8.87200000 0.176722 -19.57 0.983892 -82.39 0.983892 -82.39 0.176773 34.568
8.87220000 0.180208 -19.86 0.983242 -82.59 0.983242 -82.59 0.180260 34.438
8.87240000 0.183862 -20.16 0.982546 -82.81 0.982546 -82.81 0.183916 34.298
8.87260000 0.187696 -20.47 0.981801 -83.03 0.981801 -83.03 0.187751 34.147
8.87280000 0.191724 -20.79 0.981000 -83.27 0.981000 -83.27 0.191781 33.986
8.87300000 0.195961 -21.12 0.980139 -83.52 0.980139 -83.52 0.196020 33.813
8.87320000 0.200423 -21.47 0.979210 -83.78 0.979210 -83.78 0.200483 33.627
8.87340000 0.205128 -21.83 0.978207 -84.06 0.978207 -84.06 0.205190 33.426
8.87360000 0.210096 -22.22 0.977122 -84.35 0.977122 -84.35 0.210160 33.211
8.87380000 0.215349 -22.61 0.975945 -84.66 0.975945 -84.66 0.215415 32.978
8.87400000 0.220913 -23.03 0.974664 -84.99 0.974664 -84.99 0.220981 32.728
8.87420000 0.226814 -23.47 0.973268 -85.34 0.973268 -85.34 0.226885 32.457
8.87440000 0.233083 -23.94 0.971743 -85.71 0.971743 -85.71 0.233157 32.165
8.87460000 0.239756 -24.42 0.970070 -86.11 0.970070 -86.11 0.239832 31.849
8.87480000 0.246872 -24.94 0.968231 -86.53 0.968231 -86.53 0.246951 31.506
8.87500000 0.254474 -25.49 0.966202 -86.98 0.966202 -86.98 0.254556 31.133
8.87520000 0.262612 -26.07 0.963957 -87.47 0.963957 -87.47 0.262697 30.728
8.87540000 0.271343 -26.69 0.961464 -87.99 0.961464 -87.99 0.271432 30.286
8.87560000 0.280732 -27.35 0.958683 -88.55 0.958683 -88.55 0.280824 29.804
8.87580000 0.290852 -28.06 0.955570 -89.16 0.955570 -89.16 0.290949 29.277
8.87600000 0.301789 -28.82 0.952069 -89.82 0.952069 -89.82 0.301890 28.698
8.87620000 0.313639 -29.64 0.948115 -90.53 0.948115 -90.53 0.313745 28.061
8.87640000 0.326516 -30.53 0.943624 -91.32 0.943624 -91.32 0.326627 27.359
8.87660000 0.340549 -31.50 0.938497 -92.17 0.938497 -92.17 0.340666 26.582
8.87680000 0.355890 -32.55 0.932611 -93.11 0.932611 -93.11 0.356013 25.719
8.87700000 0.372715 -33.70 0.925810 -94.15 0.925810 -94.15 0.372845 24.757
8.87720000 0.391228 -34.97 0.917899 -95.30 0.917899 -95.30 0.391365 23.681
8.87740000 0.411667 -36.37 0.908633 -96.58 0.908633 -96.58 0.411812 22.472
8.87760000 0.434307 -37.93 0.897696 -98.01 0.897696 -98.01 0.434462 21.107
8.87780000 0.459467 -39.68 0.884679 -99.63 0.884679 -99.63 0.459632 19.559
8.87800000 0.487506 -41.65 0.869056 -101.5 0.869056 -101.5 0.487683 17.793
8.87820000 0.518829 -43.87 0.850133 -103.5 0.850133 -103.5 0.519018 15.768
8.87840000 0.553862 -46.41 0.827003 -105.9 0.827003 -105.9 0.554067 13.433
8.87860000 0.593032 -49.32 0.798469 -108.7 0.798469 -108.7 0.593252 10.724
8.87880000 0.636687 -52.69 0.762963 -111.8 0.762963 -111.8 0.636926 7.5669
8.87900000 0.684977 -56.59 0.718462 -115.5 0.718462 -115.5 0.685236 3.8696
8.87920000 0.737620 -61.15 0.662426 -119.8 0.662426 -119.8 0.737901 -0.471
8.87940000 0.793549 -66.45 0.591858 -124.8 0.591858 -124.8 0.793854 -5.565
8.87960000 0.850411 -72.61 0.503624 -130.5 0.503624 -130.5 0.850741 -11.51
8.87980000 0.904078 -79.69 0.395247 -136.9 0.395247 -136.9 0.904432 -18.37
8.88000000 0.948530 -87.64 0.266333 -143.6 0.266333 -143.6 0.948904 -26.11
8.88020000 0.976760 -96.32 0.120487 -147.9 0.120487 -147.9 0.977148 -34.56
8.88040000 0.982992 -105.4 0.040025 -8.172 0.040025 -8.172 0.983386 -43.41
8.88060000 0.965309 -114.4 0.192106 1.8844 0.192106 1.8844 0.965699 -52.24
!< P1 F=8.8806 Eeff=(5.09061005 -2.213e-5) Z0=(45.4081828 1.00324e-4) R=0.0 C=0.0 
!< P2 F=8.8806 Eeff=(5.09061005 -2.213e-5) Z0=(45.4081828 1.00324e-4) R=0.0 C=0.0 
8.88080000 0.926713 -123.1 0.334820 -4.499 0.334820 -4.499 0.927091 -60.63
8.88100000 0.873645 -130.9 0.458951 -11.45 0.458951 -11.45 0.874004 -68.28
8.88120000 0.813248 -137.9 0.561948 -17.90 0.561948 -17.90 0.813586 -75.04
8.88140000 0.751327 -144.0 0.644844 -23.61 0.644844 -23.61 0.751641 -80.89
8.88160000 0.691661 -149.3 0.710465 -28.55 0.710465 -28.55 0.691953 -85.90
8.88180000 0.636265 -153.8 0.762085 -32.80 0.762085 -32.80 0.636537 -90.16
8.88200000 0.585936 -157.6 0.802716 -36.44 0.802716 -36.44 0.586188 -93.78
8.88220000 0.540751 -161.0 0.834857 -39.58 0.834857 -39.58 0.540986 -96.87
8.88240000 0.500419 -163.9 0.860472 -42.29 0.860472 -42.29 0.500638 -99.52
8.88260000 0.464487 -166.4 0.881064 -44.64 0.881064 -44.64 0.464692 -101.8
8.88280000 0.432461 -168.6 0.897771 -46.70 0.897771 -46.70 0.432653 -103.8
8.88300000 0.403862 -170.6 0.911451 -48.51 0.911451 -48.51 0.404043 -105.5
8.88320000 0.378252 -172.3 0.922753 -50.10 0.922753 -50.10 0.378423 -107.0
8.88340000 0.355245 -173.9 0.932171 -51.52 0.932171 -51.52 0.355407 -108.3
8.88360000 0.334504 -175.3 0.940083 -52.79 0.940083 -52.79 0.334658 -109.5
8.88380000 0.315740 -176.6 0.946780 -53.93 0.946780 -53.93 0.315887 -110.5
8.88400000 0.298704 -177.8 0.952489 -54.96 0.952489 -54.96 0.298844 -111.4
8.88420000 0.283184 -178.9 0.957387 -55.89 0.957387 -55.89 0.283319 -112.2
8.88440000 0.268999 -179.9 0.961617 -56.74 0.961617 -56.74 0.269128 -113.0
8.88460000 0.255992 179.19 0.965290 -57.52 0.965290 -57.52 0.256116 -113.6
8.88480000 0.244029 178.33 0.968497 -58.23 0.968497 -58.23 0.244149 -114.2
8.88500000 0.232995 177.52 0.971310 -58.88 0.971310 -58.88 0.233110 -114.7
8.88520000 0.222790 176.77 0.973790 -59.48 0.973790 -59.48 0.222901 -115.2
8.88540000 0.213328 176.06 0.975986 -60.04 0.975986 -60.04 0.213435 -115.6
8.88560000 0.204532 175.39 0.977937 -60.56 0.977937 -60.56 0.204636 -116.0
8.88580000 0.196337 174.75 0.979679 -61.04 0.979679 -61.04 0.196438 -116.3
8.88600000 0.188685 174.15 0.981238 -61.49 0.981238 -61.49 0.188783 -116.7
8.88620000 0.181526 173.57 0.982639 -61.91 0.982639 -61.91 0.181621 -116.9
8.88640000 0.174814 173.02 0.983902 -62.30 0.983902 -62.30 0.174907 -117.2
8.88660000 0.168510 172.49 0.985043 -62.67 0.985043 -62.67 0.168600 -117.4
8.88680000 0.162579 171.98 0.986078 -63.02 0.986078 -63.02 0.162667 -117.6
8.88700000 0.156989 171.50 0.987019 -63.35 0.987019 -63.35 0.157075 -117.8
8.88720000 0.151712 171.03 0.987876 -63.66 0.987876 -63.66 0.151796 -117.9
8.88740000 0.146724 170.57 0.988659 -63.95 0.988659 -63.95 0.146805 -118.1
8.88760000 0.142001 170.13 0.989376 -64.22 0.989376 -64.22 0.142081 -118.2
8.88780000 0.137524 169.70 0.990033 -64.49 0.990033 -64.49 0.137602 -118.3
8.88800000 0.133274 169.28 0.990638 -64.73 0.990638 -64.73 0.133350 -118.4
8.88820000 0.129234 168.88 0.991195 -64.97 0.991195 -64.97 0.129309 -118.5
8.88840000 0.125390 168.48 0.991708 -65.20 0.991708 -65.20 0.125464 -118.5
8.88860000 0.121728 168.09 0.992183 -65.41 0.992183 -65.41 0.121800 -118.6
8.88880000 0.118236 167.71 0.992623 -65.61 0.992623 -65.61 0.118307 -118.6
8.88900000 0.114902 167.34 0.993030 -65.81 0.993030 -65.81 0.114971 -118.6
8.88920000 0.111716 166.98 0.993409 -66.00 0.993409 -66.00 0.111784 -118.6
8.88940000 0.108669 166.62 0.993761 -66.17 0.993761 -66.17 0.108736 -118.6
8.88960000 0.105751 166.27 0.994089 -66.35 0.994089 -66.35 0.105817 -118.6
8.88980000 0.102955 165.92 0.994395 -66.51 0.994395 -66.51 0.103020 -118.6
8.89000000 0.100274 165.57 0.994680 -66.67 0.994680 -66.67 0.100338 -118.6
8.89020000 0.097701 165.23 0.994948 -66.82 0.994948 -66.82 0.097763 -118.6
8.89040000 0.095229 164.90 0.995198 -66.96 0.995198 -66.96 0.095290 -118.5
8.89060000 0.092852 164.57 0.995432 -67.10 0.995432 -67.10 0.092913 -118.5
8.89080000 0.090567 164.24 0.995652 -67.24 0.995652 -67.24 0.090627 -118.4
8.89100000 0.088366 163.91 0.995858 -67.37 0.995858 -67.37 0.088426 -118.4
8.89120000 0.086247 163.59 0.996052 -67.49 0.996052 -67.49 0.086305 -118.3
8.89140000 0.084204 163.27 0.996235 -67.61 0.996235 -67.61 0.084262 -118.2
8.89160000 0.082234 162.95 0.996407 -67.73 0.996407 -67.73 0.082291 -118.1
8.89180000 0.080332 162.63 0.996569 -67.84 0.996569 -67.84 0.080389 -118.0
8.89200000 0.078497 162.31 0.996722 -67.95 0.996722 -67.95 0.078552 -117.9
8.89220000 0.076723 162.00 0.996866 -68.05 0.996866 -68.05 0.076778 -117.8
8.89240000 0.075008 161.68 0.997002 -68.15 0.997002 -68.15 0.075062 -117.7
8.89260000 0.073350 161.37 0.997132 -68.25 0.997132 -68.25 0.073404 -117.6
8.89280000 0.071745 161.06 0.997254 -68.35 0.997254 -68.35 0.071798 -117.5
8.89300000 0.070192 160.74 0.997369 -68.44 0.997369 -68.44 0.070244 -117.4
8.89320000 0.068687 160.43 0.997479 -68.53 0.997479 -68.53 0.068739 -117.2
8.89340000 0.067230 160.12 0.997583 -68.62 0.997583 -68.62 0.067281 -117.1
8.89360000 0.065816 159.80 0.997682 -68.70 0.997682 -68.70 0.065867 -117.0
8.89380000 0.064446 159.49 0.997776 -68.78 0.997776 -68.78 0.064496 -116.8
8.89400000 0.063116 159.18 0.997865 -68.86 0.997865 -68.86 0.063166 -116.7
8.89420000 0.061825 158.86 0.997950 -68.94 0.997950 -68.94 0.061875 -116.5
8.89440000 0.060572 158.55 0.998030 -69.01 0.998030 -69.01 0.060621 -116.3
8.89460000 0.059355 158.23 0.998107 -69.09 0.998107 -69.09 0.059404 -116.2
8.89480000 0.058172 157.91 0.998180 -69.16 0.998180 -69.16 0.058220 -116.0
8.89500000 0.057022 157.60 0.998250 -69.23 0.998250 -69.23 0.057070 -115.8
8.89520000 0.055905 157.28 0.998316 -69.30 0.998316 -69.30 0.055952 -115.6
8.89540000 0.054817 156.95 0.998380 -69.36 0.998380 -69.36 0.054864 -115.5
8.89560000 0.053759 156.63 0.998440 -69.42 0.998440 -69.42 0.053806 -115.3
8.89580000 0.052730 156.31 0.998498 -69.49 0.998498 -69.49 0.052776 -115.1
8.89600000 0.051727 155.98 0.998553 -69.55 0.998553 -69.55 0.051773 -114.9
8.89620000 0.050751 155.65 0.998606 -69.61 0.998606 -69.61 0.050797 -114.6
8.89640000 0.049800 155.32 0.998656 -69.67 0.998656 -69.67 0.049846 -114.4
8.89660000 0.048874 154.99 0.998704 -69.72 0.998704 -69.72 0.048919 -114.2
8.89680000 0.047971 154.66 0.998751 -69.78 0.998751 -69.78 0.048016 -114.0
8.89700000 0.047090 154.32 0.998795 -69.83 0.998795 -69.83 0.047135 -113.8
8.89720000 0.046232 153.98 0.998837 -69.88 0.998837 -69.88 0.046276 -113.5
8.89740000 0.045395 153.64 0.998878 -69.94 0.998878 -69.94 0.045439 -113.3
8.89760000 0.044578 153.30 0.998916 -69.99 0.998916 -69.99 0.044622 -113.1
8.89780000 0.043781 152.95 0.998954 -70.03 0.998954 -70.03 0.043825 -112.8
8.89800000 0.043003 152.60 0.998989 -70.08 0.998989 -70.08 0.043047 -112.6
8.89820000 0.042244 152.25 0.999024 -70.13 0.999024 -70.13 0.042287 -112.3
8.89840000 0.041503 151.89 0.999056 -70.18 0.999056 -70.18 0.041546 -112.0
8.89860000 0.040779 151.53 0.999088 -70.22 0.999088 -70.22 0.040821 -111.8
8.89880000 0.040072 151.17 0.999118 -70.27 0.999118 -70.27 0.040114 -111.5
8.89900000 0.039381 150.80 0.999147 -70.31 0.999147 -70.31 0.039423 -111.2
8.89920000 0.038706 150.44 0.999175 -70.35 0.999175 -70.35 0.038748 -110.9
8.89940000 0.038046 150.06 0.999202 -70.39 0.999202 -70.39 0.038088 -110.7
8.89960000 0.037402 149.69 0.999228 -70.43 0.999228 -70.43 0.037443 -110.4
8.89980000 0.036771 149.31 0.999253 -70.47 0.999253 -70.47 0.036813 -110.1
8.90000000 0.036155 148.92 0.999277 -70.51 0.999277 -70.51 0.036197 -109.8
8.90020000 0.035553 148.54 0.999300 -70.55 0.999300 -70.55 0.035594 -109.4
8.90040000 0.034964 148.15 0.999322 -70.59 0.999322 -70.59 0.035005 -109.1
8.90060000 0.034387 147.75 0.999343 -70.63 0.999343 -70.63 0.034428 -108.8
8.90080000 0.033824 147.35 0.999363 -70.66 0.999363 -70.66 0.033864 -108.5
8.90100000 0.033272 146.95 0.999383 -70.70 0.999383 -70.70 0.033313 -108.2
8.90120000 0.032733 146.54 0.999402 -70.73 0.999402 -70.73 0.032773 -107.8
8.90140000 0.032205 146.13 0.999420 -70.77 0.999420 -70.77 0.032245 -107.5
8.90160000 0.031688 145.71 0.999438 -70.80 0.999438 -70.80 0.031728 -107.1
8.90180000 0.031182 145.29 0.999455 -70.83 0.999455 -70.83 0.031222 -106.8
8.90200000 0.030688 144.86 0.999471 -70.87 0.999471 -70.87 0.030727 -106.4
8.90220000 0.030203 144.43 0.999487 -70.90 0.999487 -70.90 0.030243 -106.0
8.90240000 0.029729 144.00 0.999502 -70.93 0.999502 -70.93 0.029769 -105.7
8.90260000 0.029265 143.56 0.999517 -70.96 0.999517 -70.96 0.029304 -105.3
8.90280000 0.028810 143.11 0.999531 -70.99 0.999531 -70.99 0.028850 -104.9
8.90300000 0.028365 142.66 0.999545 -71.02 0.999545 -71.02 0.028405 -104.5
8.90320000 0.027930 142.20 0.999558 -71.05 0.999558 -71.05 0.027969 -104.1
8.90340000 0.027503 141.74 0.999570 -71.08 0.999570 -71.08 0.027542 -103.7
8.90360000 0.027086 141.27 0.999583 -71.11 0.999583 -71.11 0.027125 -103.3
8.90380000 0.026677 140.80 0.999595 -71.14 0.999595 -71.14 0.026716 -102.9
8.90400000 0.026276 140.33 0.999606 -71.16 0.999606 -71.16 0.026315 -102.5
8.90420000 0.025884 139.84 0.999617 -71.19 0.999617 -71.19 0.025923 -102.1
8.90440000 0.025500 139.35 0.999628 -71.22 0.999628 -71.22 0.025539 -101.6
8.90460000 0.025124 138.86 0.999638 -71.24 0.999638 -71.24 0.025163 -101.2
8.90480000 0.024756 138.36 0.999648 -71.27 0.999648 -71.27 0.024794 -100.7
8.90500000 0.024395 137.85 0.999657 -71.29 0.999657 -71.29 0.024434 -100.3
8.90520000 0.024042 137.34 0.999666 -71.32 0.999666 -71.32 0.024081 -99.82
8.90540000 0.023697 136.82 0.999675 -71.34 0.999675 -71.34 0.023735 -99.35
8.90560000 0.023358 136.30 0.999684 -71.37 0.999684 -71.37 0.023396 -98.87
8.90580000 0.023027 135.77 0.999692 -71.39 0.999692 -71.39 0.023065 -98.39
8.90600000 0.022702 135.23 0.999700 -71.42 0.999700 -71.42 0.022740 -97.91
8.90620000 0.022385 134.69 0.999708 -71.44 0.999708 -71.44 0.022423 -97.41
8.90640000 0.022074 134.14 0.999716 -71.46 0.999716 -71.46 0.022112 -96.91
8.90660000 0.021770 133.59 0.999723 -71.49 0.999723 -71.49 0.021807 -96.40
8.90680000 0.021472 133.02 0.999730 -71.51 0.999730 -71.51 0.021509 -95.88
8.90700000 0.021181 132.46 0.999737 -71.53 0.999737 -71.53 0.021218 -95.36
8.90720000 0.020895 131.88 0.999743 -71.55 0.999743 -71.55 0.020933 -94.83
8.90740000 0.020616 131.30 0.999750 -71.57 0.999750 -71.57 0.020654 -94.30
8.90760000 0.020343 130.71 0.999756 -71.59 0.999756 -71.59 0.020381 -93.75
8.90780000 0.020076 130.12 0.999762 -71.62 0.999762 -71.62 0.020114 -93.20
8.90800000 0.019815 129.52 0.999767 -71.64 0.999767 -71.64 0.019852 -92.64
8.90820000 0.019560 128.91 0.999773 -71.66 0.999773 -71.66 0.019597 -92.08
8.90840000 0.019310 128.30 0.999778 -71.68 0.999778 -71.68 0.019347 -91.51
8.90860000 0.019066 127.68 0.999783 -71.70 0.999783 -71.70 0.019103 -90.93
8.90880000 0.018828 127.06 0.999788 -71.72 0.999788 -71.72 0.018864 -90.34
8.90900000 0.018594 126.42 0.999793 -71.73 0.999793 -71.73 0.018631 -89.75
8.90920000 0.018367 125.78 0.999798 -71.75 0.999798 -71.75 0.018403 -89.15
8.90940000 0.018144 125.14 0.999802 -71.77 0.999802 -71.77 0.018181 -88.55
8.90960000 0.017927 124.49 0.999806 -71.79 0.999806 -71.79 0.017963 -87.93
8.90980000 0.017715 123.83 0.999811 -71.81 0.999811 -71.81 0.017751 -87.31
8.91000000 0.017508 123.16 0.999815 -71.83 0.999815 -71.83 0.017544 -86.69
8.91020000 0.017306 122.49 0.999819 -71.85 0.999819 -71.85 0.017342 -86.05
8.91040000 0.017108 121.82 0.999822 -71.86 0.999822 -71.86 0.017145 -85.41
8.91060000 0.016916 121.13 0.999826 -71.88 0.999826 -71.88 0.016952 -84.77
8.91080000 0.016729 120.45 0.999830 -71.90 0.999830 -71.90 0.016765 -84.12
8.91100000 0.016546 119.75 0.999833 -71.91 0.999833 -71.91 0.016582 -83.46
8.91120000 0.016368 119.05 0.999836 -71.93 0.999836 -71.93 0.016404 -82.79
8.91140000 0.016195 118.34 0.999839 -71.95 0.999839 -71.95 0.016230 -82.12
8.91160000 0.016026 117.63 0.999843 -71.96 0.999843 -71.96 0.016061 -81.44
8.91180000 0.015861 116.92 0.999845 -71.98 0.999845 -71.98 0.015897 -80.76
8.91200000 0.015701 116.19 0.999848 -72.00 0.999848 -72.00 0.015737 -80.07
8.91220000 0.015546 115.47 0.999851 -72.01 0.999851 -72.01 0.015581 -79.38
8.91240000 0.015395 114.73 0.999854 -72.03 0.999854 -72.03 0.015430 -78.68
8.91260000 0.015248 114.00 0.999856 -72.04 0.999856 -72.04 0.015283 -77.98
8.91280000 0.015105 113.26 0.999859 -72.06 0.999859 -72.06 0.015140 -77.27
8.91300000 0.014967 112.51 0.999861 -72.08 0.999861 -72.08 0.015001 -76.55
8.91320000 0.014832 111.76 0.999863 -72.09 0.999863 -72.09 0.014867 -75.84
8.91340000 0.014702 111.00 0.999866 -72.11 0.999866 -72.11 0.014736 -75.11
8.91360000 0.014576 110.25 0.999868 -72.12 0.999868 -72.12 0.014610 -74.39
8.91380000 0.014453 109.48 0.999870 -72.13 0.999870 -72.13 0.014487 -73.66
8.91400000 0.014335 108.72 0.999872 -72.15 0.999872 -72.15 0.014369 -72.92
8.91420000 0.014220 107.95 0.999874 -72.16 0.999874 -72.16 0.014254 -72.19
8.91440000 0.014109 107.18 0.999876 -72.18 0.999876 -72.18 0.014143 -71.44
8.91460000 0.014002 106.41 0.999877 -72.19 0.999877 -72.19 0.014036 -70.70
8.91480000 0.013899 105.63 0.999879 -72.21 0.999879 -72.21 0.013932 -69.95
8.91500000 0.013799 104.85 0.999881 -72.22 0.999881 -72.22 0.013832 -69.20
8.91520000 0.013703 104.07 0.999882 -72.23 0.999882 -72.23 0.013736 -68.45
8.91540000 0.013610 103.29 0.999884 -72.25 0.999884 -72.25 0.013643 -67.70
8.91560000 0.013521 102.50 0.999885 -72.26 0.999885 -72.26 0.013554 -66.95
8.91580000 0.013436 101.72 0.999887 -72.27 0.999887 -72.27 0.013468 -66.19
8.91600000 0.013353 100.93 0.999888 -72.29 0.999888 -72.29 0.013386 -65.43
8.91620000 0.013274 100.15 0.999889 -72.30 0.999889 -72.30 0.013307 -64.67
8.91640000 0.013199 99.361 0.999890 -72.31 0.999890 -72.31 0.013231 -63.92
8.91660000 0.013126 98.575 0.999892 -72.32 0.999892 -72.32 0.013158 -63.16
8.91680000 0.013057 97.789 0.999893 -72.34 0.999893 -72.34 0.013089 -62.40
8.91700000 0.012991 97.004 0.999894 -72.35 0.999894 -72.35 0.013022 -61.64
8.91720000 0.012928 96.219 0.999895 -72.36 0.999895 -72.36 0.012959 -60.88
8.91740000 0.012868 95.436 0.999896 -72.37 0.999896 -72.37 0.012899 -60.13
8.91760000 0.012810 94.653 0.999897 -72.39 0.999897 -72.39 0.012841 -59.37
8.91780000 0.012756 93.873 0.999898 -72.40 0.999898 -72.40 0.012787 -58.62
8.91800000 0.012705 93.094 0.999898 -72.41 0.999898 -72.41 0.012735 -57.86
8.91820000 0.012656 92.318 0.999899 -72.42 0.999899 -72.42 0.012686 -57.11
8.91840000 0.012610 91.544 0.999900 -72.43 0.999900 -72.43 0.012640 -56.36
8.91860000 0.012567 90.773 0.999901 -72.44 0.999901 -72.44 0.012597 -55.62
8.91880000 0.012527 90.005 0.999901 -72.46 0.999901 -72.46 0.012556 -54.87
8.91900000 0.012489 89.240 0.999902 -72.47 0.999902 -72.47 0.012518 -54.13
8.91920000 0.012453 88.478 0.999903 -72.48 0.999903 -72.48 0.012482 -53.40
8.91940000 0.012421 87.720 0.999903 -72.49 0.999903 -72.49 0.012449 -52.66
8.91960000 0.012390 86.966 0.999904 -72.50 0.999904 -72.50 0.012419 -51.93
8.91980000 0.012362 86.217 0.999904 -72.51 0.999904 -72.51 0.012390 -51.21
8.92000000 0.012336 85.471 0.999905 -72.52 0.999905 -72.52 0.012364 -50.49
8.92020000 0.012313 84.730 0.999905 -72.53 0.999905 -72.53 0.012340 -49.77
8.92040000 0.012291 83.994 0.999906 -72.54 0.999906 -72.54 0.012319 -49.05
8.92060000 0.012272 83.262 0.999906 -72.55 0.999906 -72.55 0.012299 -48.35
8.92080000 0.012255 82.536 0.999907 -72.56 0.999907 -72.56 0.012282 -47.64
8.92100000 0.012240 81.815 0.999907 -72.58 0.999907 -72.58 0.012267 -46.94
8.92120000 0.012227 81.099 0.999907 -72.59 0.999907 -72.59 0.012253 -46.25
8.92140000 0.012216 80.389 0.999907 -72.60 0.999907 -72.60 0.012242 -45.56
8.92160000 0.012207 79.685 0.999908 -72.61 0.999908 -72.61 0.012233 -44.88
8.92180000 0.012199 78.986 0.999908 -72.62 0.999908 -72.62 0.012225 -44.20
8.92200000 0.012194 78.294 0.999908 -72.63 0.999908 -72.63 0.012219 -43.53
8.92220000 0.012190 77.607 0.999908 -72.64 0.999908 -72.64 0.012215 -42.87
8.92240000 0.012188 76.927 0.999909 -72.65 0.999909 -72.65 0.012213 -42.21
8.92260000 0.012188 76.253 0.999909 -72.66 0.999909 -72.66 0.012213 -41.55
8.92280000 0.012189 75.585 0.999909 -72.67 0.999909 -72.67 0.012214 -40.91
8.92300000 0.012192 74.924 0.999909 -72.68 0.999909 -72.68 0.012216 -40.27
8.92320000 0.012196 74.269 0.999909 -72.68 0.999909 -72.68 0.012220 -39.63
8.92340000 0.012202 73.621 0.999909 -72.69 0.999909 -72.69 0.012226 -39.00
8.92360000 0.012209 72.979 0.999909 -72.70 0.999909 -72.70 0.012233 -38.38
8.92380000 0.012218 72.344 0.999909 -72.71 0.999909 -72.71 0.012241 -37.77
8.92400000 0.012228 71.716 0.999909 -72.72 0.999909 -72.72 0.012251 -37.16
8.92420000 0.012239 71.095 0.999909 -72.73 0.999909 -72.73 0.012262 -36.56
8.92440000 0.012252 70.480 0.999909 -72.74 0.999909 -72.74 0.012275 -35.96
8.92460000 0.012266 69.872 0.999909 -72.75 0.999909 -72.75 0.012288 -35.37
8.92480000 0.012281 69.272 0.999909 -72.76 0.999909 -72.76 0.012303 -34.79
8.92500000 0.012297 68.677 0.999909 -72.77 0.999909 -72.77 0.012319 -34.22
8.92520000 0.012314 68.090 0.999909 -72.78 0.999909 -72.78 0.012336 -33.65
8.92540000 0.012333 67.510 0.999909 -72.79 0.999909 -72.79 0.012354 -33.09
8.92560000 0.012352 66.936 0.999909 -72.79 0.999909 -72.79 0.012373 -32.53
8.92580000 0.012373 66.369 0.999908 -72.80 0.999908 -72.80 0.012394 -31.98
8.92600000 0.012394 65.809 0.999908 -72.81 0.999908 -72.81 0.012415 -31.44
8.92620000 0.012416 65.256 0.999908 -72.82 0.999908 -72.82 0.012437 -30.90
8.92640000 0.012440 64.710 0.999908 -72.83 0.999908 -72.83 0.012460 -30.38
8.92660000 0.012464 64.170 0.999908 -72.84 0.999908 -72.84 0.012484 -29.85
8.92680000 0.012489 63.637 0.999907 -72.84 0.999907 -72.84 0.012509 -29.34
8.92700000 0.012515 63.111 0.999907 -72.85 0.999907 -72.85 0.012534 -28.83
8.92720000 0.012541 62.591 0.999907 -72.86 0.999907 -72.86 0.012561 -28.33
8.92740000 0.012569 62.078 0.999907 -72.87 0.999907 -72.87 0.012588 -27.83
8.92760000 0.012597 61.571 0.999907 -72.88 0.999907 -72.88 0.012616 -27.34
8.92780000 0.012625 61.071 0.999906 -72.89 0.999906 -72.89 0.012644 -26.86