! Sonnet Data File
! From: emgraph Version : 16.52
! From Project: Resonator2
! Data is De-embedded 
! Data File Written: 10/09/2017 23:05:25
!< HDATE 10/09/2017 14:49:56
!< MDATE 10/09/2017 18:05:28
!< PARAMS
!< gap = 16.0
!< Length = 400.0
!< Pwid1 = 2000.0
!< Pwid2 = 2000.0
!< Airgap = 24.0
!< Width = 40.0
!< END PARAMS
# GHZ S MA R 45.40000
8.85000000 0.033172 -2.150 0.999443 -73.89 0.999443 -73.89 0.033176 34.367
!< P1 F=8.85 Eeff=(5.09005347 -2.2131e-5) Z0=(45.4117489 1.00331e-4) R=0.0 C=0.0 
!< P2 F=8.85 Eeff=(5.09005347 -2.2131e-5) Z0=(45.4117489 1.00331e-4) R=0.0 C=0.0 
8.85020000 0.033209 -2.184 0.999441 -73.89 0.999441 -73.89 0.033214 34.392
8.85040000 0.033247 -2.218 0.999440 -73.90 0.999440 -73.90 0.033252 34.418
8.85060000 0.033286 -2.252 0.999439 -73.90 0.999439 -73.90 0.033290 34.443
8.85080000 0.033324 -2.286 0.999437 -73.91 0.999437 -73.91 0.033329 34.469
8.85100000 0.033363 -2.321 0.999436 -73.91 0.999436 -73.91 0.033368 34.495
8.85120000 0.033402 -2.356 0.999435 -73.91 0.999435 -73.91 0.033407 34.522
8.85140000 0.033442 -2.390 0.999433 -73.92 0.999433 -73.92 0.033447 34.548
8.85160000 0.033482 -2.425 0.999432 -73.92 0.999432 -73.92 0.033487 34.575
8.85180000 0.033522 -2.461 0.999431 -73.93 0.999431 -73.93 0.033527 34.601
8.85200000 0.033563 -2.496 0.999429 -73.93 0.999429 -73.93 0.033568 34.628
8.85220000 0.033604 -2.532 0.999428 -73.93 0.999428 -73.93 0.033609 34.655
8.85240000 0.033645 -2.568 0.999426 -73.94 0.999426 -73.94 0.033650 34.682
8.85260000 0.033687 -2.604 0.999425 -73.94 0.999425 -73.94 0.033692 34.710
8.85280000 0.033729 -2.640 0.999423 -73.95 0.999423 -73.95 0.033734 34.737
8.85300000 0.033771 -2.676 0.999422 -73.95 0.999422 -73.95 0.033777 34.765
8.85320000 0.033814 -2.713 0.999420 -73.96 0.999420 -73.96 0.033819 34.793
8.85340000 0.033857 -2.750 0.999419 -73.96 0.999419 -73.96 0.033863 34.821
8.85360000 0.033901 -2.787 0.999417 -73.96 0.999417 -73.96 0.033906 34.849
8.85380000 0.033945 -2.825 0.999416 -73.97 0.999416 -73.97 0.033950 34.877
8.85400000 0.033989 -2.862 0.999414 -73.97 0.999414 -73.97 0.033995 34.906
8.85420000 0.034034 -2.900 0.999413 -73.98 0.999413 -73.98 0.034039 34.935
8.85440000 0.034079 -2.938 0.999411 -73.98 0.999411 -73.98 0.034084 34.964
8.85460000 0.034125 -2.976 0.999410 -73.99 0.999410 -73.99 0.034130 34.993
8.85480000 0.034171 -3.015 0.999408 -73.99 0.999408 -73.99 0.034176 35.022
8.85500000 0.034217 -3.054 0.999406 -74.00 0.999406 -74.00 0.034222 35.051
8.85520000 0.034264 -3.093 0.999405 -74.00 0.999405 -74.00 0.034269 35.081
8.85540000 0.034311 -3.132 0.999403 -74.01 0.999403 -74.01 0.034317 35.111
8.85560000 0.034359 -3.171 0.999401 -74.01 0.999401 -74.01 0.034364 35.141
8.85580000 0.034407 -3.211 0.999400 -74.01 0.999400 -74.01 0.034412 35.171
8.85600000 0.034455 -3.251 0.999398 -74.02 0.999398 -74.02 0.034461 35.201
8.85620000 0.034504 -3.291 0.999396 -74.02 0.999396 -74.02 0.034510 35.232
8.85640000 0.034554 -3.332 0.999394 -74.03 0.999394 -74.03 0.034560 35.263
8.85660000 0.034604 -3.372 0.999393 -74.03 0.999393 -74.03 0.034610 35.294
8.85680000 0.034654 -3.413 0.999391 -74.04 0.999391 -74.04 0.034660 35.325
8.85700000 0.034705 -3.454 0.999389 -74.04 0.999389 -74.04 0.034711 35.356
8.85720000 0.034757 -3.496 0.999387 -74.05 0.999387 -74.05 0.034763 35.388
8.85740000 0.034809 -3.538 0.999385 -74.05 0.999385 -74.05 0.034815 35.420
8.85760000 0.034861 -3.580 0.999383 -74.06 0.999383 -74.06 0.034867 35.452
8.85780000 0.034914 -3.622 0.999381 -74.06 0.999381 -74.06 0.034920 35.484
8.85800000 0.034967 -3.665 0.999380 -74.07 0.999380 -74.07 0.034973 35.516
8.85820000 0.035021 -3.707 0.999378 -74.07 0.999378 -74.07 0.035027 35.549
8.85840000 0.035076 -3.751 0.999376 -74.08 0.999376 -74.08 0.035082 35.582
8.85860000 0.035131 -3.794 0.999374 -74.08 0.999374 -74.08 0.035137 35.615
8.85880000 0.035187 -3.838 0.999372 -74.09 0.999372 -74.09 0.035193 35.648
8.85900000 0.035243 -3.882 0.999370 -74.09 0.999370 -74.09 0.035249 35.681
8.85920000 0.035299 -3.926 0.999367 -74.10 0.999367 -74.10 0.035306 35.715
8.85940000 0.035357 -3.971 0.999365 -74.10 0.999365 -74.10 0.035363 35.749
8.85960000 0.035415 -4.015 0.999363 -74.11 0.999363 -74.11 0.035421 35.783
8.85980000 0.035473 -4.061 0.999361 -74.11 0.999361 -74.11 0.035480 35.817
8.86000000 0.035532 -4.106 0.999359 -74.12 0.999359 -74.12 0.035539 35.852
8.86020000 0.035592 -4.152 0.999357 -74.13 0.999357 -74.13 0.035598 35.887
8.86040000 0.035652 -4.198 0.999355 -74.13 0.999355 -74.13 0.035659 35.922
8.86060000 0.035713 -4.244 0.999352 -74.14 0.999352 -74.14 0.035720 35.957
8.86080000 0.035775 -4.291 0.999350 -74.14 0.999350 -74.14 0.035781 35.993
8.86100000 0.035837 -4.338 0.999348 -74.15 0.999348 -74.15 0.035844 36.028
8.86120000 0.035900 -4.385 0.999345 -74.15 0.999345 -74.15 0.035907 36.064
8.86140000 0.035963 -4.433 0.999343 -74.16 0.999343 -74.16 0.035970 36.101
8.86160000 0.036028 -4.481 0.999341 -74.16 0.999341 -74.16 0.036035 36.137
8.86180000 0.036093 -4.529 0.999338 -74.17 0.999338 -74.17 0.036100 36.174
8.86200000 0.036158 -4.578 0.999336 -74.18 0.999336 -74.18 0.036165 36.211
8.86220000 0.036225 -4.627 0.999333 -74.18 0.999333 -74.18 0.036232 36.248
8.86240000 0.036292 -4.676 0.999331 -74.19 0.999331 -74.19 0.036299 36.285
8.86260000 0.036360 -4.726 0.999328 -74.19 0.999328 -74.19 0.036367 36.323
8.86280000 0.036428 -4.776 0.999326 -74.20 0.999326 -74.20 0.036436 36.361
8.86300000 0.036498 -4.827 0.999323 -74.21 0.999323 -74.21 0.036505 36.399
8.86320000 0.036568 -4.877 0.999320 -74.21 0.999320 -74.21 0.036575 36.438
8.86340000 0.036639 -4.929 0.999318 -74.22 0.999318 -74.22 0.036646 36.477
8.86360000 0.036711 -4.980 0.999315 -74.22 0.999315 -74.22 0.036718 36.516
8.86380000 0.036783 -5.032 0.999312 -74.23 0.999312 -74.23 0.036791 36.555
8.86400000 0.036856 -5.084 0.999309 -74.24 0.999309 -74.24 0.036864 36.595
8.86420000 0.036931 -5.137 0.999307 -74.24 0.999307 -74.24 0.036938 36.635
8.86440000 0.037006 -5.190 0.999304 -74.25 0.999304 -74.25 0.037013 36.675
8.86460000 0.037082 -5.243 0.999301 -74.25 0.999301 -74.25 0.037090 36.715
8.86480000 0.037159 -5.297 0.999298 -74.26 0.999298 -74.26 0.037166 36.756
8.86500000 0.037236 -5.351 0.999295 -74.27 0.999295 -74.27 0.037244 36.797
8.86520000 0.037315 -5.406 0.999292 -74.27 0.999292 -74.27 0.037323 36.838
8.86540000 0.037395 -5.461 0.999289 -74.28 0.999289 -74.28 0.037403 36.880
8.86560000 0.037475 -5.517 0.999286 -74.29 0.999286 -74.29 0.037483 36.922
8.86580000 0.037557 -5.572 0.999282 -74.29 0.999282 -74.29 0.037565 36.964
8.86599149 0.037636 -5.626 0.999279 -74.30 0.999279 -74.30 0.037644 37.005
8.86600000 0.037640 -5.629 0.999279 -74.30 0.999279 -74.30 0.037648 37.006
8.86620000 0.037723 -5.685 0.999276 -74.31 0.999276 -74.31 0.037731 37.049
8.86640000 0.037808 -5.743 0.999273 -74.31 0.999273 -74.31 0.037816 37.092
8.86660000 0.037893 -5.800 0.999269 -74.32 0.999269 -74.32 0.037902 37.136
8.86676484 0.037965 -5.848 0.999266 -74.33 0.999266 -74.33 0.037973 37.172
8.86680000 0.037980 -5.858 0.999266 -74.33 0.999266 -74.33 0.037989 37.180
8.86700000 0.038068 -5.917 0.999262 -74.34 0.999262 -74.34 0.038076 37.224
8.86720000 0.038157 -5.976 0.999259 -74.34 0.999259 -74.34 0.038165 37.268
8.86740000 0.038247 -6.035 0.999255 -74.35 0.999255 -74.35 0.038255 37.313
8.86752047 0.038302 -6.071 0.999253 -74.35 0.999253 -74.35 0.038310 37.340
8.86760000 0.038338 -6.095 0.999252 -74.36 0.999252 -74.36 0.038347 37.358
8.86780000 0.038430 -6.155 0.999248 -74.36 0.999248 -74.36 0.038439 37.403
8.86800000 0.038524 -6.216 0.999244 -74.37 0.999244 -74.37 0.038533 37.449
8.86820000 0.038619 -6.278 0.999241 -74.38 0.999241 -74.38 0.038628 37.495
8.86825879 0.038647 -6.296 0.999239 -74.38 0.999239 -74.38 0.038656 37.508
8.86840000 0.038715 -6.339 0.999237 -74.39 0.999237 -74.39 0.038724 37.541
8.86860000 0.038812 -6.402 0.999233 -74.39 0.999233 -74.39 0.038821 37.588
8.86880000 0.038910 -6.464 0.999229 -74.40 0.999229 -74.40 0.038920 37.635
8.86898019 0.039000 -6.522 0.999225 -74.41 0.999225 -74.41 0.039010 37.678
8.86900000 0.039010 -6.528 0.999225 -74.41 0.999225 -74.41 0.039020 37.682
8.86920000 0.039112 -6.592 0.999221 -74.42 0.999221 -74.42 0.039121 37.730
8.86940000 0.039214 -6.656 0.999216 -74.43 0.999216 -74.43 0.039224 37.778
8.86960000 0.039318 -6.721 0.999212 -74.43 0.999212 -74.43 0.039328 37.827
8.86968506 0.039363 -6.749 0.999210 -74.44 0.999210 -74.44 0.039372 37.847
8.86980000 0.039423 -6.786 0.999208 -74.44 0.999208 -74.44 0.039433 37.875
8.87000000 0.039530 -6.852 0.999204 -74.45 0.999204 -74.45 0.039540 37.925
8.87020000 0.039639 -6.919 0.999199 -74.46 0.999199 -74.46 0.039648 37.974
8.87037378 0.039734 -6.977 0.999195 -74.47 0.999195 -74.47 0.039744 38.017
8.87040000 0.039748 -6.986 0.999195 -74.47 0.999195 -74.47 0.039758 38.024
8.87060000 0.039860 -7.054 0.999190 -74.48 0.999190 -74.48 0.039870 38.074
8.87080000 0.039973 -7.122 0.999185 -74.48 0.999185 -74.48 0.039983 38.125
8.87100000 0.040087 -7.191 0.999180 -74.49 0.999180 -74.49 0.040098 38.176
8.87104671 0.040114 -7.207 0.999179 -74.49 0.999179 -74.49 0.040125 38.188
8.87120000 0.040204 -7.260 0.999176 -74.50 0.999176 -74.50 0.040214 38.228
8.87140000 0.040322 -7.330 0.999171 -74.51 0.999171 -74.51 0.040332 38.279
8.87160000 0.040441 -7.401 0.999166 -74.52 0.999166 -74.52 0.040452 38.332
8.87170423 0.040504 -7.438 0.999163 -74.52 0.999163 -74.52 0.040515 38.359
8.87180000 0.040562 -7.472 0.999161 -74.53 0.999161 -74.53 0.040573 38.384
8.87200000 0.040686 -7.544 0.999155 -74.54 0.999155 -74.54 0.040696 38.437
8.87220000 0.040811 -7.616 0.999150 -74.55 0.999150 -74.55 0.040821 38.491
8.87234668 0.040904 -7.670 0.999146 -74.55 0.999146 -74.55 0.040914 38.530
8.87240000 0.040938 -7.689 0.999145 -74.56 0.999145 -74.56 0.040948 38.545
8.87260000 0.041066 -7.763 0.999139 -74.57 0.999139 -74.57 0.041077 38.599
8.87280000 0.041197 -7.838 0.999134 -74.58 0.999134 -74.58 0.041208 38.654
8.87297441 0.041313 -7.903 0.999129 -74.58 0.999129 -74.58 0.041324 38.702
8.87300000 0.041330 -7.913 0.999128 -74.59 0.999128 -74.59 0.041341 38.709
8.87320000 0.041465 -7.988 0.999122 -74.60 0.999122 -74.60 0.041476 38.764
8.87340000 0.041601 -8.065 0.999116 -74.61 0.999116 -74.61 0.041613 38.820
8.87358776 0.041732 -8.137 0.999110 -74.61 0.999110 -74.61 0.041744 38.873
8.87360000 0.041741 -8.142 0.999110 -74.62 0.999110 -74.62 0.041752 38.877
8.87380000 0.041882 -8.220 0.999104 -74.63 0.999104 -74.63 0.041894 38.933
8.87400000 0.042025 -8.299 0.999098 -74.64 0.999098 -74.64 0.042037 38.991
8.87418705 0.042162 -8.373 0.999092 -74.65 0.999092 -74.65 0.042174 39.045
8.87420000 0.042171 -8.378 0.999091 -74.65 0.999091 -74.65 0.042183 39.049
8.87440000 0.042319 -8.458 0.999085 -74.66 0.999085 -74.66 0.042331 39.107
8.87460000 0.042470 -8.539 0.999078 -74.67 0.999078 -74.67 0.042482 39.165
8.87477262 0.042602 -8.609 0.999072 -74.68 0.999072 -74.68 0.042614 39.216
8.87480000 0.042623 -8.620 0.999071 -74.68 0.999071 -74.68 0.042635 39.224
8.87500000 0.042778 -8.703 0.999064 -74.69 0.999064 -74.69 0.042791 39.284
8.87520000 0.042936 -8.786 0.999057 -74.70 0.999057 -74.70 0.042949 39.344
8.87534476 0.043053 -8.847 0.999052 -74.71 0.999052 -74.71 0.043065 39.388
8.87540000 0.043097 -8.870 0.999050 -74.71 0.999050 -74.71 0.043110 39.405
8.87560000 0.043261 -8.955 0.999043 -74.72 0.999043 -74.72 0.043274 39.466
8.87580000 0.043427 -9.040 0.999035 -74.74 0.999035 -74.74 0.043440 39.527
8.87590379 0.043515 -9.085 0.999031 -74.74 0.999031 -74.74 0.043528 39.559
8.87600000 0.043596 -9.126 0.999028 -74.75 0.999028 -74.75 0.043610 39.589
8.87620000 0.043768 -9.214 0.999020 -74.76 0.999020 -74.76 0.043782 39.651
8.87640000 0.043944 -9.302 0.999012 -74.77 0.999012 -74.77 0.043957 39.714
8.87645002 0.043988 -9.324 0.999010 -74.78 0.999010 -74.78 0.044002 39.730
8.87660000 0.044122 -9.391 0.999004 -74.78 0.999004 -74.78 0.044136 39.778
8.87680000 0.044303 -9.481 0.998995 -74.80 0.998995 -74.80 0.044317 39.842
8.87698372 0.044473 -9.564 0.998987 -74.81 0.998987 -74.81 0.044487 39.901
8.87700000 0.044488 -9.572 0.998987 -74.81 0.998987 -74.81 0.044502 39.906
8.87720000 0.044676 -9.663 0.998978 -74.82 0.998978 -74.82 0.044690 39.971
8.87740000 0.044868 -9.756 0.998969 -74.84 0.998969 -74.84 0.044882 40.037
8.87750520 0.044970 -9.805 0.998964 -74.84 0.998964 -74.84 0.044984 40.071
8.87760000 0.045063 -9.849 0.998960 -74.85 0.998960 -74.85 0.045077 40.103
8.87780000 0.045261 -9.944 0.998950 -74.86 0.998950 -74.86 0.045276 40.169
8.87800000 0.045464 -10.04 0.998941 -74.88 0.998941 -74.88 0.045479 40.236
8.87801473 0.045479 -10.05 0.998940 -74.88 0.998940 -74.88 0.045494 40.241
8.87820000 0.045670 -10.14 0.998931 -74.89 0.998931 -74.89 0.045685 40.304
8.87840000 0.045880 -10.23 0.998921 -74.91 0.998921 -74.91 0.045896 40.372
8.87851259 0.046000 -10.29 0.998915 -74.91 0.998915 -74.91 0.046016 40.410
8.87860000 0.046094 -10.33 0.998911 -74.92 0.998911 -74.92 0.046110 40.441
8.87880000 0.046313 -10.43 0.998900 -74.94 0.998900 -74.94 0.046329 40.510
8.87899903 0.046535 -10.53 0.998889 -74.95 0.998889 -74.95 0.046551 40.579
8.87900000 0.046536 -10.53 0.998889 -74.95 0.998889 -74.95 0.046552 40.579
8.87920000 0.046763 -10.63 0.998878 -74.97 0.998878 -74.97 0.046779 40.650
8.87940000 0.046995 -10.74 0.998867 -74.98 0.998867 -74.98 0.047011 40.721
8.87947433 0.047082 -10.78 0.998862 -74.99 0.998862 -74.99 0.047099 40.747
8.87960000 0.047231 -10.84 0.998855 -75.00 0.998855 -75.00 0.047248 40.792
8.87980000 0.047472 -10.95 0.998843 -75.01 0.998843 -75.01 0.047489 40.864
8.87993874 0.047643 -11.02 0.998835 -75.02 0.998835 -75.02 0.047660 40.914
8.88000000 0.047719 -11.05 0.998831 -75.03 0.998831 -75.03 0.047736 40.937
8.88020000 0.047970 -11.16 0.998818 -75.05 0.998818 -75.05 0.047988 41.010
8.88039251 0.048217 -11.27 0.998806 -75.06 0.998806 -75.06 0.048235 41.081
8.88040000 0.048227 -11.27 0.998805 -75.06 0.998805 -75.06 0.048245 41.083
8.88060000 0.048489 -11.38 0.998792 -75.08 0.998792 -75.08 0.048507 41.158
8.88080000 0.048757 -11.49 0.998778 -75.10 0.998778 -75.10 0.048775 41.232
8.88083588 0.048806 -11.51 0.998776 -75.10 0.998776 -75.10 0.048824 41.246
8.88100000 0.049031 -11.60 0.998764 -75.12 0.998764 -75.12 0.049049 41.308
8.88120000 0.049310 -11.72 0.998750 -75.13 0.998750 -75.13 0.049329 41.384
8.88126909 0.049409 -11.76 0.998745 -75.14 0.998745 -75.14 0.049427 41.410
8.88140000 0.049596 -11.83 0.998735 -75.15 0.998735 -75.15 0.049615 41.460
8.88160000 0.049889 -11.95 0.998720 -75.17 0.998720 -75.17 0.049908 41.537
8.88169237 0.050026 -12.00 0.998713 -75.18 0.998713 -75.18 0.050045 41.573
8.88180000 0.050188 -12.07 0.998704 -75.19 0.998704 -75.19 0.050207 41.615
8.88200000 0.050494 -12.19 0.998688 -75.21 0.998688 -75.21 0.050514 41.693
8.88210596 0.050659 -12.25 0.998679 -75.22 0.998679 -75.22 0.050679 41.735
8.88220000 0.050807 -12.31 0.998671 -75.23 0.998671 -75.23 0.050827 41.772
8.88240000 0.051127 -12.43 0.998654 -75.25 0.998654 -75.25 0.051148 41.852
8.88251007 0.051307 -12.50 0.998644 -75.26 0.998644 -75.26 0.051327 41.896
8.88260000 0.051455 -12.55 0.998636 -75.27 0.998636 -75.27 0.051476 41.932
8.88280000 0.051791 -12.68 0.998618 -75.30 0.998618 -75.30 0.051812 42.013
8.88290492 0.051971 -12.75 0.998608 -75.31 0.998608 -75.31 0.051992 42.055
8.88300000 0.052135 -12.81 0.998599 -75.32 0.998599 -75.32 0.052157 42.094
8.88320000 0.052488 -12.93 0.998580 -75.34 0.998580 -75.34 0.052509 42.176
8.88329072 0.052650 -12.99 0.998571 -75.35 0.998571 -75.35 0.052672 42.213
8.88340000 0.052849 -13.06 0.998560 -75.36 0.998560 -75.36 0.052871 42.258
8.88360000 0.053219 -13.20 0.998539 -75.39 0.998539 -75.39 0.053242 42.341
8.88366768 0.053347 -13.24 0.998532 -75.40 0.998532 -75.40 0.053370 42.369
8.88380000 0.053599 -13.33 0.998518 -75.41 0.998518 -75.41 0.053622 42.425
8.88400000 0.053989 -13.47 0.998496 -75.44 0.998496 -75.44 0.054012 42.509
8.88403600 0.054060 -13.49 0.998492 -75.44 0.998492 -75.44 0.054084 42.524
8.88420000 0.054389 -13.60 0.998473 -75.46 0.998473 -75.46 0.054413 42.593
8.88439589 0.054791 -13.74 0.998450 -75.49 0.998450 -75.49 0.054815 42.677
8.88440000 0.054800 -13.74 0.998450 -75.49 0.998450 -75.49 0.054824 42.679
8.88460000 0.055221 -13.88 0.998425 -75.52 0.998425 -75.52 0.055246 42.765
8.88474753 0.055539 -13.99 0.998407 -75.54 0.998407 -75.54 0.055564 42.828
8.88480000 0.055654 -14.03 0.998400 -75.54 0.998400 -75.54 0.055679 42.851
8.88500000 0.056099 -14.17 0.998374 -75.57 0.998374 -75.57 0.056125 42.938
8.88509111 0.056306 -14.24 0.998361 -75.58 0.998361 -75.58 0.056332 42.978
8.88520000 0.056557 -14.32 0.998346 -75.60 0.998346 -75.60 0.056583 43.025
8.88540000 0.057027 -14.47 0.998318 -75.63 0.998318 -75.63 0.057053 43.113
8.88542681 0.057091 -14.49 0.998314 -75.63 0.998314 -75.63 0.057118 43.125
8.88560000 0.057511 -14.62 0.998289 -75.66 0.998289 -75.66 0.057538 43.202
8.88575483 0.057895 -14.74 0.998266 -75.68 0.998266 -75.68 0.057922 43.271
8.88580000 0.058009 -14.77 0.998259 -75.69 0.998259 -75.69 0.058036 43.291
8.88600000 0.058522 -14.93 0.998227 -75.72 0.998227 -75.72 0.058550 43.380
8.88607533 0.058719 -14.99 0.998215 -75.73 0.998215 -75.73 0.058747 43.414
8.88620000 0.059050 -15.08 0.998194 -75.75 0.998194 -75.75 0.059078 43.470
8.88638848 0.059562 -15.23 0.998162 -75.79 0.998162 -75.79 0.059591 43.555
8.88640000 0.059594 -15.24 0.998160 -75.79 0.998160 -75.79 0.059623 43.560
8.88660000 0.060155 -15.41 0.998125 -75.82 0.998125 -75.82 0.060185 43.651
8.88669446 0.060426 -15.48 0.998108 -75.84 0.998108 -75.84 0.060456 43.694
8.88680000 0.060734 -15.57 0.998088 -75.86 0.998088 -75.86 0.060764 43.742
8.88699343 0.061311 -15.73 0.998051 -75.89 0.998051 -75.89 0.061341 43.831
8.88700000 0.061331 -15.74 0.998049 -75.90 0.998049 -75.90 0.061361 43.834
8.88720000 0.061947 -15.91 0.998009 -75.93 0.998009 -75.93 0.061978 43.926
8.88728555 0.062217 -15.98 0.997992 -75.95 0.997992 -75.95 0.062248 43.965
8.88740000 0.062583 -16.08 0.997967 -75.97 0.997967 -75.97 0.062615 44.018
8.88757098 0.063144 -16.23 0.997930 -76.01 0.997930 -76.01 0.063177 44.097
8.88760000 0.063241 -16.26 0.997924 -76.01 0.997924 -76.01 0.063274 44.110
8.88780000 0.063921 -16.44 0.997878 -76.06 0.997878 -76.06 0.063955 44.203
8.88784986 0.064094 -16.48 0.997866 -76.07 0.997866 -76.07 0.064128 44.226
8.88800000 0.064625 -16.62 0.997830 -76.10 0.997830 -76.10 0.064659 44.296
8.88812235 0.065067 -16.73 0.997800 -76.13 0.997800 -76.13 0.065102 44.353
8.88820000 0.065353 -16.81 0.997780 -76.14 0.997780 -76.14 0.065388 44.389
8.88838860 0.066063 -16.98 0.997730 -76.19 0.997730 -76.19 0.066099 44.477
8.88840000 0.066107 -16.99 0.997727 -76.19 0.997727 -76.19 0.066143 44.482
8.88860000 0.066888 -17.19 0.997672 -76.24 0.997672 -76.24 0.066925 44.575
8.88864875 0.067083 -17.23 0.997659 -76.25 0.997659 -76.25 0.067120 44.598
8.88880000 0.067699 -17.38 0.997615 -76.29 0.997615 -76.29 0.067736 44.668
8.88890294 0.068128 -17.48 0.997584 -76.31 0.997584 -76.31 0.068166 44.716
8.88900000 0.068540 -17.58 0.997554 -76.34 0.997554 -76.34 0.068578 44.761
8.88915131 0.069197 -17.73 0.997506 -76.38 0.997506 -76.38 0.069236 44.832
8.88920000 0.069413 -17.78 0.997490 -76.39 0.997490 -76.39 0.069452 44.854
8.88939398 0.070292 -17.98 0.997425 -76.44 0.997425 -76.44 0.070332 44.944
8.88940000 0.070320 -17.99 0.997423 -76.44 0.997423 -76.44 0.070360 44.947
8.88960000 0.071263 -18.20 0.997352 -76.50 0.997352 -76.50 0.071304 45.039
8.88963109 0.071413 -18.23 0.997340 -76.51 0.997340 -76.51 0.071455 45.054
8.88980000 0.072245 -18.41 0.997277 -76.56 0.997277 -76.56 0.072287 45.131
8.88986277 0.072561 -18.48 0.997253 -76.58 0.997253 -76.58 0.072604 45.160
8.89000000 0.073267 -18.63 0.997198 -76.62 0.997198 -76.62 0.073310 45.223
8.89008914 0.073737 -18.73 0.997161 -76.65 0.997161 -76.65 0.073780 45.263
8.89020000 0.074333 -18.86 0.997114 -76.69 0.997114 -76.69 0.074377 45.313
8.89031033 0.074940 -18.98 0.997066 -76.72 0.997066 -76.72 0.074985 45.363
8.89040000 0.075444 -19.08 0.997026 -76.75 0.997026 -76.75 0.075490 45.403
8.89052644 0.076172 -19.23 0.996967 -76.80 0.996967 -76.80 0.076218 45.460
8.89060000 0.076604 -19.32 0.996932 -76.82 0.996932 -76.82 0.076651 45.492
8.89073760 0.077433 -19.48 0.996864 -76.87 0.996864 -76.87 0.077480 45.553
8.89080000 0.077817 -19.56 0.996833 -76.89 0.996833 -76.89 0.077865 45.580
8.89094393 0.078724 -19.73 0.996757 -76.95 0.996757 -76.95 0.078773 45.643
8.89100000 0.079085 -19.80 0.996727 -76.97 0.996727 -76.97 0.079135 45.667
8.89114553 0.080045 -19.98 0.996645 -77.03 0.996645 -77.03 0.080096 45.729
8.89120000 0.080413 -20.05 0.996614 -77.05 0.996614 -77.05 0.080464 45.752
8.89134251 0.081398 -20.23 0.996529 -77.11 0.996529 -77.11 0.081450 45.812
8.89140000 0.081805 -20.31 0.996493 -77.13 0.996493 -77.13 0.081858 45.835
8.89153497 0.082783 -20.48 0.996408 -77.19 0.996408 -77.19 0.082837 45.891
8.89160000 0.083266 -20.57 0.996365 -77.22 0.996365 -77.22 0.083320 45.917
8.89172302 0.084201 -20.73 0.996282 -77.28 0.996282 -77.28 0.084256 45.966
8.89180000 0.084801 -20.84 0.996227 -77.31 0.996227 -77.31 0.084856 45.996
8.89190677 0.085652 -20.98 0.996150 -77.36 0.996150 -77.36 0.085708 46.038
8.89200000 0.086415 -21.11 0.996080 -77.41 0.996080 -77.41 0.086472 46.073
8.89208630 0.087137 -21.23 0.996013 -77.45 0.996013 -77.45 0.087195 46.105
8.89220000 0.088114 -21.39 0.995922 -77.51 0.995922 -77.51 0.088173 46.147
8.89226173 0.088657 -21.48 0.995870 -77.54 0.995870 -77.54 0.088717 46.169
8.89240000 0.089907 -21.69 0.995751 -77.61 0.995751 -77.61 0.089968 46.218
8.89243313 0.090213 -21.73 0.995722 -77.63 0.995722 -77.63 0.090275 46.229
8.89260000 0.091800 -21.99 0.995567 -77.73 0.995567 -77.73 0.091863 46.285
8.89260060 0.091806 -21.99 0.995567 -77.73 0.995567 -77.73 0.091869 46.285
8.89276424 0.093436 -22.24 0.995405 -77.82 0.995405 -77.82 0.093500 46.337
8.89280000 0.093802 -22.29 0.995369 -77.84 0.995369 -77.84 0.093867 46.348
8.89292412 0.095103 -22.49 0.995237 -77.92 0.995237 -77.92 0.095170 46.385
8.89300000 0.095923 -22.61 0.995153 -77.97 0.995153 -77.97 0.095990 46.406
8.89308035 0.096810 -22.74 0.995062 -78.02 0.995062 -78.02 0.096879 46.428
8.89320000 0.098173 -22.94 0.994920 -78.10 0.994920 -78.10 0.098243 46.459
8.89323299 0.098557 -23.00 0.994879 -78.12 0.994879 -78.12 0.098628 46.467
8.89338214 0.100345 -23.25 0.994689 -78.23 0.994689 -78.23 0.100417 46.502
8.89340000 0.100565 -23.28 0.994665 -78.24 0.994665 -78.24 0.100637 46.506
8.89352787 0.102174 -23.50 0.994490 -78.34 0.994490 -78.34 0.102248 46.533
8.89360000 0.103111 -23.63 0.994387 -78.39 0.994387 -78.39 0.103187 46.547
8.89367026 0.104046 -23.76 0.994283 -78.45 0.994283 -78.45 0.104122 46.559
8.89380000 0.105829 -24.00 0.994082 -78.55 0.994082 -78.55 0.105907 46.579
8.89380938 0.105961 -24.01 0.994067 -78.56 0.994067 -78.56 0.106039 46.581
8.89394532 0.107920 -24.27 0.993842 -78.67 0.993842 -78.67 0.108001 46.598
8.89400000 0.108735 -24.38 0.993748 -78.72 0.993748 -78.72 0.108816 46.604
8.89407815 0.109925 -24.53 0.993608 -78.79 0.993608 -78.79 0.110008 46.610
8.89420000 0.111849 -24.77 0.993379 -78.90 0.993379 -78.90 0.111934 46.618
8.89420793 0.111977 -24.79 0.993363 -78.91 0.993363 -78.91 0.112062 46.618
8.89433473 0.114075 -25.05 0.993108 -79.04 0.993108 -79.04 0.114163 46.621
8.89440000 0.115194 -25.18 0.992970 -79.10 0.992970 -79.10 0.115282 46.621
8.89445863 0.116222 -25.31 0.992842 -79.16 0.992842 -79.16 0.116312 46.620
8.89457970 0.118418 -25.57 0.992565 -79.29 0.992565 -79.29 0.118510 46.613
8.89460000 0.118797 -25.61 0.992517 -79.31 0.992517 -79.31 0.118889 46.612
8.89469799 0.120665 -25.83 0.992276 -79.42 0.992276 -79.42 0.120760 46.602
8.89480000 0.122688 -26.06 0.992011 -79.54 0.992011 -79.54 0.122785 46.588
8.89481356 0.122963 -26.09 0.991974 -79.56 0.991974 -79.56 0.123060 46.586
8.89492649 0.125313 -26.36 0.991660 -79.69 0.991660 -79.69 0.125413 46.564
8.89500000 0.126903 -26.53 0.991443 -79.79 0.991443 -79.79 0.127004 46.547
8.89503683 0.127718 -26.62 0.991332 -79.83 0.991332 -79.83 0.127820 46.538
8.89514465 0.130176 -26.89 0.990989 -79.98 0.990989 -79.98 0.130282 46.506
8.89520000 0.131483 -27.03 0.990805 -80.05 0.990805 -80.05 0.131590 46.488
8.89524999 0.132691 -27.16 0.990632 -80.13 0.990632 -80.13 0.132799 46.469
8.89535292 0.135263 -27.43 0.990260 -80.28 0.990260 -80.28 0.135374 46.427
8.89540000 0.136479 -27.56 0.990081 -80.35 0.990081 -80.35 0.136591 46.406
8.89545349 0.137893 -27.70 0.989872 -80.43 0.989872 -80.43 0.138006 46.380
8.89555176 0.140582 -27.98 0.989467 -80.59 0.989467 -80.59 0.140699 46.327
8.89560000 0.141948 -28.12 0.989258 -80.67 0.989258 -80.67 0.142066 46.299
8.89564777 0.143331 -28.25 0.989044 -80.75 0.989044 -80.75 0.143451 46.269
8.89574159 0.146143 -28.53 0.988603 -80.91 0.988603 -80.91 0.146266 46.205
8.89580000 0.147959 -28.71 0.988314 -81.02 0.988314 -81.02 0.148084 46.161
8.89583325 0.149017 -28.81 0.988143 -81.08 0.988143 -81.08 0.149143 46.135
8.89592281 0.151955 -29.10 0.987664 -81.25 0.987664 -81.25 0.152084 46.060
8.89600000 0.154597 -29.35 0.987224 -81.41 0.987224 -81.41 0.154729 45.989
8.89601033 0.154959 -29.38 0.987163 -81.43 0.987163 -81.43 0.155091 45.979
8.89609583 0.158029 -29.67 0.986641 -81.61 0.986641 -81.61 0.158165 45.893
8.89617938 0.161167 -29.96 0.986097 -81.79 0.986097 -81.79 0.161306 45.800
8.89620000 0.161963 -30.03 0.985957 -81.84 0.985957 -81.84 0.162104 45.776
8.89626101 0.164374 -30.25 0.985529 -81.98 0.985529 -81.98 0.164517 45.702
8.89634078 0.167651 -30.55 0.984936 -82.17 0.984936 -82.17 0.167798 45.597
8.89640000 0.170183 -30.77 0.984471 -82.32 0.984471 -82.32 0.170332 45.514
8.89641871 0.171001 -30.84 0.984318 -82.37 0.984318 -82.37 0.171151 45.487
8.89649486 0.174423 -31.14 0.983674 -82.57 0.983674 -82.57 0.174577 45.370
8.89656927 0.177919 -31.45 0.983001 -82.77 0.983001 -82.77 0.178077 45.247
8.89660000 0.179410 -31.58 0.982711 -82.86 0.982711 -82.86 0.179570 45.194
8.89664197 0.181491 -31.76 0.982300 -82.98 0.982300 -82.98 0.181653 45.118
8.89671300 0.185140 -32.07 0.981569 -83.19 0.981569 -83.19 0.185306 44.982
8.89678241 0.188867 -32.38 0.980806 -83.41 0.980806 -83.41 0.189037 44.840
8.89680000 0.189838 -32.46 0.980604 -83.47 0.980604 -83.47 0.190010 44.802
8.89685022 0.192673 -32.70 0.980010 -83.64 0.980010 -83.64 0.192848 44.691
8.89691648 0.196560 -33.02 0.979181 -83.87 0.979181 -83.87 0.196739 44.536
8.89698123 0.200529 -33.34 0.978316 -84.10 0.978316 -84.10 0.200713 44.374
8.89700000 0.201713 -33.44 0.978054 -84.17 0.978054 -84.17 0.201898 44.325
8.89704449 0.204581 -33.67 0.977413 -84.34 0.977413 -84.34 0.204770 44.206
8.89710630 0.208718 -34.00 0.976473 -84.58 0.976473 -84.58 0.208911 44.030
8.89716669 0.212941 -34.34 0.975492 -84.83 0.975492 -84.83 0.213138 43.848
8.89720000 0.215350 -34.53 0.974923 -84.97 0.974923 -84.97 0.215550 43.742
8.89722570 0.217250 -34.68 0.974470 -85.08 0.974470 -85.08 0.217453 43.658
8.89728336 0.221648 -35.02 0.973404 -85.34 0.973404 -85.34 0.221855 43.462
8.89733970 0.226135 -35.37 0.972294 -85.61 0.972294 -85.61 0.226348 43.258
8.89739474 0.230713 -35.72 0.971136 -85.88 0.971136 -85.88 0.230931 43.047
8.89740000 0.231161 -35.76 0.971021 -85.90 0.971021 -85.90 0.231379 43.026
8.89744853 0.235383 -36.08 0.969930 -86.15 0.969930 -86.15 0.235605 42.829
8.89750108 0.240145 -36.44 0.968673 -86.44 0.968673 -86.44 0.240373 42.603
8.89755243 0.245001 -36.81 0.967363 -86.72 0.967363 -86.72 0.245235 42.370
8.89760000 0.249690 -37.16 0.966072 -87.00 0.966072 -87.00 0.249929 42.142
8.89760260 0.249952 -37.18 0.965999 -87.02 0.965999 -87.02 0.250191 42.130
8.89765162 0.254999 -37.56 0.964578 -87.32 0.964578 -87.32 0.255244 41.881
8.89769952 0.260142 -37.94 0.963098 -87.62 0.963098 -87.62 0.260393 41.625
8.89774632 0.265384 -38.33 0.961557 -87.94 0.961557 -87.94 0.265640 41.362
8.89779205 0.270723 -38.72 0.959953 -88.25 0.959953 -88.25 0.270985 41.090
8.89780000 0.271674 -38.79 0.959663 -88.31 0.959663 -88.31 0.271938 41.042
8.89783673 0.276162 -39.12 0.958283 -88.58 0.958283 -88.58 0.276430 40.811
8.89788039 0.281700 -39.53 0.956545 -88.91 0.956545 -88.91 0.281975 40.523
8.89792304 0.287339 -39.94 0.954736 -89.25 0.954736 -89.25 0.287620 40.228
8.89796472 0.293079 -40.35 0.952854 -89.59 0.952854 -89.59 0.293366 39.924
8.89800000 0.298124 -40.72 0.951166 -89.90 0.951166 -89.90 0.298417 39.655
8.89800545 0.298920 -40.78 0.950897 -89.94 0.950897 -89.94 0.299214 39.612
8.89804524 0.304862 -41.21 0.948862 -90.30 0.948862 -90.30 0.305163 39.292
8.89808412 0.310906 -41.64 0.946746 -90.67 0.946746 -90.67 0.311214 38.964
8.89812211 0.317052 -42.08 0.944546 -91.04 0.944546 -91.04 0.317367 38.627
8.89815923 0.323300 -42.53 0.942260 -91.42 0.942260 -91.42 0.323622 38.282
8.89819549 0.329649 -42.98 0.939885 -91.80 0.939885 -91.80 0.329978 37.929
8.89820000 0.330456 -43.04 0.939580 -91.85 0.939580 -91.85 0.330786 37.884
8.89823093 0.336100 -43.44 0.937418 -92.20 0.937418 -92.20 0.336436 37.567
8.89826555 0.342652 -43.91 0.934857 -92.60 0.934857 -92.60 0.342995 37.196
8.89829939 0.349304 -44.38 0.932198 -93.00 0.932198 -93.00 0.349655 36.817
8.89833244 0.356056 -44.86 0.929438 -93.42 0.929438 -93.42 0.356414 36.430
8.89836474 0.362906 -45.34 0.926576 -93.84 0.926576 -93.84 0.363272 36.033
8.89839630 0.369854 -45.84 0.923607 -94.27 0.923607 -94.27 0.370228 35.628
8.89840000 0.370686 -45.90 0.923247 -94.32 0.923247 -94.32 0.371061 35.580
8.89842713 0.376899 -46.34 0.920529 -94.70 0.920529 -94.70 0.377281 35.215
8.89845726 0.384038 -46.84 0.917339 -95.14 0.917339 -95.14 0.384429 34.793
8.89848670 0.391271 -47.36 0.914035 -95.59 0.914035 -95.59 0.391670 34.362
8.89851546 0.398596 -47.88 0.910612 -96.05 0.910612 -96.05 0.399003 33.923
8.89854357 0.406010 -48.41 0.907070 -96.52 0.907070 -96.52 0.406426 33.475
8.89857103 0.413512 -48.94 0.903404 -96.99 0.903404 -96.99 0.413936 33.018
8.89859786 0.421099 -49.48 0.899612 -97.47 0.899612 -97.47 0.421532 32.554
8.89860000 0.421715 -49.52 0.899301 -97.51 0.899301 -97.51 0.422148 32.516
8.89862408 0.428768 -50.03 0.895693 -97.95 0.895693 -97.95 0.429210 32.080
8.89864969 0.436517 -50.58 0.891642 -98.45 0.891642 -98.45 0.436967 31.598