! Sonnet Data File
! From: emgraph Version : 16.52
! From Project: Resonator2_extremeCap2
! Data is De-embedded 
! Data File Written: 10/10/2017 13:11:39
!< HDATE 10/10/2017 08:28:44
!< MDATE 10/10/2017 08:28:44
!< PARAMS
!< Pwid1 = 2000.0
!< Pwid2 = 2000.0
!< Air_gap = 6.0
!< Width = 10.0
!< Gap = 113.0
!< END PARAMS
# GHZ S MA R 35.98000
8.98000000 0.439613 -11.90 0.898172 -100.1 0.898172 -100.1 0.439602 -8.244
!< P1 F=8.98 Eeff=(5.37116343 -2.3769e-5) Z0=(35.9716001 8.05996e-5) R=0.0 C=0.0 
!< P2 F=8.98 Eeff=(5.37116343 -2.3769e-5) Z0=(35.9716001 8.05996e-5) R=0.0 C=0.0 
8.98050000 0.439858 -11.90 0.898052 -100.1 0.898052 -100.1 0.439847 -8.283
8.98100000 0.440105 -11.91 0.897931 -100.1 0.897931 -100.1 0.440095 -8.322
8.98150000 0.440355 -11.91 0.897809 -100.1 0.897809 -100.1 0.440344 -8.361
8.98200000 0.440606 -11.92 0.897685 -100.2 0.897685 -100.2 0.440595 -8.401
8.98250000 0.440859 -11.92 0.897561 -100.2 0.897561 -100.2 0.440848 -8.441
8.98300000 0.441114 -11.93 0.897435 -100.2 0.897435 -100.2 0.441103 -8.482
8.98350000 0.441371 -11.93 0.897309 -100.2 0.897309 -100.2 0.441360 -8.522
8.98400000 0.441631 -11.94 0.897181 -100.2 0.897181 -100.2 0.441619 -8.563
8.98450000 0.441892 -11.94 0.897052 -100.3 0.897052 -100.3 0.441881 -8.604
8.98500000 0.442156 -11.95 0.896922 -100.3 0.896922 -100.3 0.442144 -8.646
8.98550000 0.442421 -11.95 0.896791 -100.3 0.896791 -100.3 0.442410 -8.688
8.98600000 0.442689 -11.96 0.896659 -100.3 0.896659 -100.3 0.442677 -8.730
8.98650000 0.442959 -11.96 0.896525 -100.4 0.896525 -100.4 0.442948 -8.773
8.98700000 0.443232 -11.97 0.896391 -100.4 0.896391 -100.4 0.443220 -8.815
8.98750000 0.443507 -11.97 0.896255 -100.4 0.896255 -100.4 0.443494 -8.859
8.98784639 0.443698 -11.98 0.896160 -100.4 0.896160 -100.4 0.443686 -8.889
8.98800000 0.443784 -11.98 0.896117 -100.4 0.896117 -100.4 0.443771 -8.902
8.98850000 0.444063 -11.98 0.895979 -100.5 0.895979 -100.5 0.444051 -8.946
8.98900000 0.444345 -11.99 0.895839 -100.5 0.895839 -100.5 0.444332 -8.990
8.98950000 0.444629 -11.99 0.895698 -100.5 0.895698 -100.5 0.444616 -9.035
8.99000000 0.444916 -12.00 0.895555 -100.5 0.895555 -100.5 0.444903 -9.080
8.99013902 0.444996 -12.00 0.895516 -100.5 0.895516 -100.5 0.444983 -9.093
8.99050000 0.445205 -12.00 0.895412 -100.6 0.895412 -100.6 0.445192 -9.125
8.99100000 0.445496 -12.01 0.895266 -100.6 0.895266 -100.6 0.445483 -9.171
8.99150000 0.445791 -12.01 0.895120 -100.6 0.895120 -100.6 0.445778 -9.217
8.99200000 0.446088 -12.02 0.894972 -100.6 0.894972 -100.6 0.446074 -9.264
8.99237911 0.446315 -12.02 0.894858 -100.7 0.894858 -100.7 0.446301 -9.299
8.99250000 0.446387 -12.02 0.894822 -100.7 0.894822 -100.7 0.446374 -9.310
8.99300000 0.446690 -12.03 0.894671 -100.7 0.894671 -100.7 0.446676 -9.358
8.99350000 0.446995 -12.03 0.894519 -100.7 0.894519 -100.7 0.446981 -9.405
8.99400000 0.447302 -12.04 0.894365 -100.7 0.894365 -100.7 0.447289 -9.453
8.99450000 0.447613 -12.04 0.894209 -100.8 0.894209 -100.8 0.447599 -9.502
8.99456788 0.447655 -12.04 0.894188 -100.8 0.894188 -100.8 0.447641 -9.509
8.99500000 0.447927 -12.05 0.894052 -100.8 0.894052 -100.8 0.447912 -9.551
8.99550000 0.448243 -12.05 0.893893 -100.8 0.893893 -100.8 0.448229 -9.600
8.99600000 0.448562 -12.06 0.893733 -100.9 0.893733 -100.9 0.448548 -9.650
8.99650000 0.448885 -12.06 0.893571 -100.9 0.893571 -100.9 0.448870 -9.700
8.99670649 0.449019 -12.07 0.893503 -100.9 0.893503 -100.9 0.449004 -9.721
8.99700000 0.449210 -12.07 0.893407 -100.9 0.893407 -100.9 0.449195 -9.751
8.99750000 0.449539 -12.07 0.893242 -100.9 0.893242 -100.9 0.449524 -9.802
8.99800000 0.449871 -12.08 0.893074 -101.0 0.893074 -101.0 0.449855 -9.853
8.99850000 0.450205 -12.08 0.892906 -101.0 0.892906 -101.0 0.450190 -9.905
8.99879610 0.450405 -12.09 0.892805 -101.0 0.892805 -101.0 0.450390 -9.936
8.99900000 0.450544 -12.09 0.892735 -101.0 0.892735 -101.0 0.450528 -9.958
8.99950000 0.450885 -12.10 0.892562 -101.1 0.892562 -101.1 0.450870 -10.01
9.00000000 0.451230 -12.10 0.892388 -101.1 0.892388 -101.1 0.451214 -10.06
9.00050000 0.451578 -12.11 0.892211 -101.1 0.892211 -101.1 0.451563 -10.12
9.00083783 0.451816 -12.11 0.892091 -101.1 0.892091 -101.1 0.451800 -10.15
9.00100000 0.451930 -12.11 0.892033 -101.1 0.892033 -101.1 0.451914 -10.17
9.00150000 0.452286 -12.12 0.891853 -101.2 0.891853 -101.2 0.452269 -10.23
9.00200000 0.452645 -12.12 0.891670 -101.2 0.891670 -101.2 0.452628 -10.28
9.00250000 0.453007 -12.13 0.891486 -101.2 0.891486 -101.2 0.452991 -10.34
9.00283277 0.453251 -12.13 0.891362 -101.3 0.891362 -101.3 0.453234 -10.38
9.00300000 0.453374 -12.13 0.891300 -101.3 0.891300 -101.3 0.453357 -10.40
9.00350000 0.453744 -12.14 0.891111 -101.3 0.891111 -101.3 0.453727 -10.45
9.00400000 0.454118 -12.14 0.890920 -101.3 0.890920 -101.3 0.454101 -10.51
9.00450000 0.454496 -12.15 0.890727 -101.4 0.890727 -101.4 0.454478 -10.57
9.00478200 0.454711 -12.15 0.890617 -101.4 0.890617 -101.4 0.454693 -10.60
9.00500000 0.454878 -12.15 0.890532 -101.4 0.890532 -101.4 0.454860 -10.63
9.00550000 0.455264 -12.16 0.890335 -101.4 0.890335 -101.4 0.455246 -10.69
9.00600000 0.455654 -12.16 0.890135 -101.5 0.890135 -101.5 0.455636 -10.75
9.00650000 0.456048 -12.17 0.889933 -101.5 0.889933 -101.5 0.456030 -10.81
9.00668657 0.456197 -12.17 0.889856 -101.5 0.889856 -101.5 0.456178 -10.83
9.00700000 0.456447 -12.18 0.889728 -101.5 0.889728 -101.5 0.456429 -10.87
9.00750000 0.456850 -12.18 0.889521 -101.6 0.889521 -101.6 0.456832 -10.93
9.00800000 0.457258 -12.19 0.889311 -101.6 0.889311 -101.6 0.457239 -10.99
9.00850000 0.457670 -12.19 0.889099 -101.6 0.889099 -101.6 0.457651 -11.05
9.00854750 0.457709 -12.19 0.889079 -101.6 0.889079 -101.6 0.457690 -11.06
9.00900000 0.458086 -12.20 0.888884 -101.7 0.888884 -101.7 0.458067 -11.12
9.00950000 0.458508 -12.20 0.888667 -101.7 0.888667 -101.7 0.458488 -11.18
9.01000000 0.458934 -12.21 0.888447 -101.7 0.888447 -101.7 0.458914 -11.25
9.01036579 0.459249 -12.21 0.888284 -101.8 0.888284 -101.8 0.459229 -11.30
9.01050000 0.459365 -12.22 0.888224 -101.8 0.888224 -101.8 0.459345 -11.31
9.01100000 0.459801 -12.22 0.887998 -101.8 0.887998 -101.8 0.459780 -11.38
9.01150000 0.460242 -12.23 0.887769 -101.8 0.887769 -101.8 0.460221 -11.45
9.01200000 0.460688 -12.23 0.887537 -101.9 0.887537 -101.9 0.460667 -11.51
9.01214241 0.460816 -12.23 0.887471 -101.9 0.887471 -101.9 0.460795 -11.53
9.01250000 0.461139 -12.24 0.887303 -101.9 0.887303 -101.9 0.461118 -11.58
9.01300000 0.461596 -12.24 0.887065 -101.9 0.887065 -101.9 0.461575 -11.65
9.01350000 0.462058 -12.25 0.886824 -102.0 0.886824 -102.0 0.462037 -11.72
9.01387832 0.462412 -12.26 0.886639 -102.0 0.886639 -102.0 0.462390 -11.78
9.01400000 0.462526 -12.26 0.886580 -102.0 0.886580 -102.0 0.462504 -11.79
9.01450000 0.463000 -12.26 0.886332 -102.1 0.886332 -102.1 0.462978 -11.86
9.01500000 0.463479 -12.27 0.886081 -102.1 0.886081 -102.1 0.463457 -11.94
9.01550000 0.463964 -12.28 0.885827 -102.1 0.885827 -102.1 0.463942 -12.01
9.01557446 0.464037 -12.28 0.885789 -102.1 0.885789 -102.1 0.464014 -12.02
9.01600000 0.464455 -12.28 0.885569 -102.2 0.885569 -102.2 0.464432 -12.08
9.01650000 0.464953 -12.29 0.885308 -102.2 0.885308 -102.2 0.464930 -12.16
9.01700000 0.465456 -12.29 0.885043 -102.3 0.885043 -102.3 0.465433 -12.24
9.01723173 0.465692 -12.30 0.884919 -102.3 0.884919 -102.3 0.465668 -12.27
9.01750000 0.465967 -12.30 0.884774 -102.3 0.884774 -102.3 0.465943 -12.31
9.01800000 0.466483 -12.31 0.884502 -102.3 0.884502 -102.3 0.466459 -12.39
9.01850000 0.467006 -12.31 0.884225 -102.4 0.884225 -102.4 0.466982 -12.47
9.01885103 0.467378 -12.32 0.884029 -102.4 0.884029 -102.4 0.467353 -12.52
9.01900000 0.467536 -12.32 0.883945 -102.4 0.883945 -102.4 0.467511 -12.55
9.01950000 0.468073 -12.33 0.883660 -102.5 0.883660 -102.5 0.468048 -12.63
9.02000000 0.468617 -12.33 0.883371 -102.5 0.883371 -102.5 0.468592 -12.71
9.02043322 0.469095 -12.34 0.883118 -102.6 0.883118 -102.6 0.469069 -12.78
9.02050000 0.469169 -12.34 0.883078 -102.6 0.883078 -102.6 0.469143 -12.79
9.02100000 0.469727 -12.35 0.882781 -102.6 0.882781 -102.6 0.469701 -12.88
9.02150000 0.470294 -12.35 0.882479 -102.7 0.882479 -102.7 0.470267 -12.96
9.02197916 0.470844 -12.36 0.882185 -102.7 0.882185 -102.7 0.470817 -13.04
9.02200000 0.470868 -12.36 0.882173 -102.7 0.882173 -102.7 0.470841 -13.05
9.02250000 0.471450 -12.37 0.881861 -102.7 0.881861 -102.7 0.471422 -13.13
9.02300000 0.472040 -12.38 0.881545 -102.8 0.881545 -102.8 0.472012 -13.22
9.02348968 0.472625 -12.38 0.881231 -102.8 0.881231 -102.8 0.472597 -13.31
9.02350000 0.472638 -12.38 0.881224 -102.8 0.881224 -102.8 0.472610 -13.31
9.02400000 0.473245 -12.39 0.880898 -102.9 0.880898 -102.9 0.473216 -13.40
9.02450000 0.473860 -12.40 0.880567 -102.9 0.880567 -102.9 0.473831 -13.49
9.02496558 0.474441 -12.41 0.880254 -103.0 0.880254 -103.0 0.474411 -13.58
9.02500000 0.474484 -12.41 0.880230 -103.0 0.880230 -103.0 0.474454 -13.58
9.02550000 0.475117 -12.41 0.879888 -103.0 0.879888 -103.0 0.475087 -13.68
9.02600000 0.475759 -12.42 0.879541 -103.1 0.879541 -103.1 0.475729 -13.77
9.02640767 0.476290 -12.43 0.879253 -103.1 0.879253 -103.1 0.476259 -13.85
9.02650000 0.476411 -12.43 0.879187 -103.1 0.879187 -103.1 0.476380 -13.87
9.02700000 0.477073 -12.44 0.878828 -103.2 0.878828 -103.2 0.477041 -13.96
9.02750000 0.477744 -12.45 0.878463 -103.3 0.878463 -103.3 0.477712 -14.06
9.02781671 0.478175 -12.45 0.878228 -103.3 0.878228 -103.3 0.478143 -14.13
9.02800000 0.478426 -12.46 0.878092 -103.3 0.878092 -103.3 0.478393 -14.16
9.02850000 0.479117 -12.46 0.877714 -103.4 0.877714 -103.4 0.479085 -14.26
9.02900000 0.479820 -12.47 0.877329 -103.4 0.877329 -103.4 0.479787 -14.37
9.02919347 0.480095 -12.48 0.877179 -103.4 0.877179 -103.4 0.480061 -14.41
9.02950000 0.480533 -12.48 0.876938 -103.5 0.876938 -103.5 0.480500 -14.47
9.03000000 0.481258 -12.49 0.876540 -103.5 0.876540 -103.5 0.481224 -14.58
9.03050000 0.481994 -12.50 0.876135 -103.6 0.876135 -103.6 0.481959 -14.68
9.03053868 0.482051 -12.50 0.876104 -103.6 0.876104 -103.6 0.482016 -14.69
9.03100000 0.482741 -12.51 0.875723 -103.6 0.875723 -103.6 0.482706 -14.79
9.03150000 0.483501 -12.52 0.875303 -103.7 0.875303 -103.7 0.483465 -14.90
9.03185306 0.484045 -12.53 0.875002 -103.7 0.875002 -103.7 0.484009 -14.98
9.03200000 0.484273 -12.53 0.874876 -103.8 0.874876 -103.8 0.484237 -15.02
9.03250000 0.485058 -12.54 0.874440 -103.8 0.874440 -103.8 0.485020 -15.13
9.03300000 0.485855 -12.55 0.873997 -103.9 0.873997 -103.9 0.485817 -15.25
9.03313733 0.486076 -12.55 0.873874 -103.9 0.873874 -103.9 0.486039 -15.28
9.03350000 0.486666 -12.56 0.873545 -104.0 0.873545 -104.0 0.486628 -15.36
9.03400000 0.487490 -12.57 0.873085 -104.0 0.873085 -104.0 0.487451 -15.48
9.03439217 0.488147 -12.58 0.872717 -104.1 0.872717 -104.1 0.488107 -15.58
9.03450000 0.488329 -12.58 0.872615 -104.1 0.872615 -104.1 0.488289 -15.60
9.03500000 0.489181 -12.59 0.872137 -104.2 0.872137 -104.2 0.489141 -15.73
9.03550000 0.490049 -12.60 0.871649 -104.2 0.871649 -104.2 0.490008 -15.85
9.03561826 0.490256 -12.61 0.871532 -104.2 0.871532 -104.2 0.490215 -15.88
9.03600000 0.490931 -12.62 0.871151 -104.3 0.871151 -104.3 0.490890 -15.98
9.03650000 0.491830 -12.63 0.870644 -104.4 0.870644 -104.4 0.491787 -16.11
9.03681625 0.492406 -12.64 0.870318 -104.4 0.870318 -104.4 0.492363 -16.19
9.03700000 0.492744 -12.64 0.870126 -104.4 0.870126 -104.4 0.492701 -16.24
9.03750000 0.493674 -12.65 0.869598 -104.5 0.869598 -104.5 0.493631 -16.37
9.03798679 0.494596 -12.67 0.869073 -104.6 0.869073 -104.6 0.494552 -16.50
9.03800000 0.494622 -12.67 0.869058 -104.6 0.869058 -104.6 0.494577 -16.50
9.03850000 0.495587 -12.68 0.868508 -104.7 0.868508 -104.7 0.495541 -16.64
9.03900000 0.496569 -12.69 0.867945 -104.7 0.867945 -104.7 0.496523 -16.78
9.03913051 0.496829 -12.70 0.867796 -104.8 0.867796 -104.8 0.496782 -16.82
9.03950000 0.497570 -12.71 0.867371 -104.8 0.867371 -104.8 0.497523 -16.92
9.04000000 0.498590 -12.72 0.866784 -104.9 0.866784 -104.9 0.498542 -17.07
9.04024803 0.499103 -12.73 0.866488 -104.9 0.866488 -104.9 0.499055 -17.14
9.04050000 0.499629 -12.74 0.866184 -105.0 0.866184 -105.0 0.499581 -17.22
9.04100000 0.500689 -12.75 0.865571 -105.1 0.865571 -105.1 0.500639 -17.36
9.04133993 0.501421 -12.76 0.865147 -105.1 0.865147 -105.1 0.501371 -17.47
9.04150000 0.501769 -12.77 0.864945 -105.1 0.864945 -105.1 0.501718 -17.52
9.04200000 0.502870 -12.79 0.864304 -105.2 0.864304 -105.2 0.502819 -17.67
9.04240682 0.503782 -12.80 0.863772 -105.3 0.863772 -105.3 0.503730 -17.80
9.04250000 0.503993 -12.80 0.863648 -105.3 0.863648 -105.3 0.503941 -17.83
9.04300000 0.505139 -12.82 0.862978 -105.4 0.862978 -105.4 0.505086 -17.99
9.04344926 0.506188 -12.84 0.862362 -105.5 0.862362 -105.5 0.506134 -18.14
9.04350000 0.506308 -12.84 0.862291 -105.5 0.862291 -105.5 0.506254 -18.15
9.04400000 0.507501 -12.86 0.861588 -105.6 0.861588 -105.6 0.507445 -18.32
9.04446782 0.508640 -12.87 0.860915 -105.7 0.860915 -105.7 0.508583 -18.48
9.04450000 0.508719 -12.88 0.860869 -105.7 0.860869 -105.7 0.508662 -18.49
9.04500000 0.509962 -12.90 0.860131 -105.8 0.860131 -105.8 0.509904 -18.66
9.04546303 0.511137 -12.91 0.859433 -105.9 0.859433 -105.9 0.511078 -18.83
9.04550000 0.511232 -12.92 0.859376 -105.9 0.859376 -105.9 0.511173 -18.84
9.04600000 0.512528 -12.94 0.858602 -106.0 0.858602 -106.0 0.512468 -19.02
9.04643544 0.513681 -12.96 0.857912 -106.1 0.857912 -106.1 0.513619 -19.18
9.04650000 0.513853 -12.96 0.857808 -106.1 0.857808 -106.1 0.513792 -19.20
9.04700000 0.515207 -12.98 0.856994 -106.2 0.856994 -106.2 0.515145 -19.39
9.04738558 0.516272 -13.00 0.856352 -106.3 0.856352 -106.3 0.516208 -19.54
9.04750000 0.516591 -13.00 0.856159 -106.3 0.856159 -106.3 0.516527 -19.58
9.04800000 0.518006 -13.03 0.855302 -106.4 0.855302 -106.4 0.517941 -19.77
9.04831393 0.518911 -13.04 0.854752 -106.5 0.854752 -106.5 0.518845 -19.90
9.04850000 0.519454 -13.05 0.854422 -106.5 0.854422 -106.5 0.519387 -19.97
9.04900000 0.520934 -13.08 0.853519 -106.6 0.853519 -106.6 0.520866 -20.18
9.04922102 0.521599 -13.09 0.853112 -106.7 0.853112 -106.7 0.521530 -20.27
9.04950000 0.522449 -13.11 0.852591 -106.7 0.852591 -106.7 0.522379 -20.38
9.05000000 0.523999 -13.13 0.851637 -106.9 0.851637 -106.9 0.523928 -20.59
9.05010732 0.524336 -13.14 0.851429 -106.9 0.851429 -106.9 0.524265 -20.64
9.05050000 0.525586 -13.16 0.850656 -107.0 0.850656 -107.0 0.525513 -20.81
9.05097332 0.527124 -13.19 0.849703 -107.1 0.849703 -107.1 0.527049 -21.02
9.05100000 0.527211 -13.19 0.849648 -107.1 0.849648 -107.1 0.527137 -21.03
9.05150000 0.528876 -13.22 0.848611 -107.2 0.848611 -107.2 0.528800 -21.26
9.05181947 0.529962 -13.24 0.847932 -107.3 0.847932 -107.3 0.529884 -21.40
9.05200000 0.530582 -13.26 0.847543 -107.4 0.847543 -107.4 0.530505 -21.49
9.05250000 0.532331 -13.29 0.846444 -107.5 0.846444 -107.5 0.532251 -21.72
9.05264623 0.532851 -13.30 0.846116 -107.5 0.846116 -107.5 0.532771 -21.79
9.05300000 0.534124 -13.33 0.845311 -107.6 0.845311 -107.6 0.534042 -21.96
9.05345405 0.535792 -13.36 0.844253 -107.8 0.844253 -107.8 0.535708 -22.19
9.05350000 0.535962 -13.36 0.844144 -107.8 0.844144 -107.8 0.535879 -22.21
9.05400000 0.537849 -13.40 0.842941 -107.9 0.842941 -107.9 0.537763 -22.46
9.05424335 0.538785 -13.42 0.842342 -108.0 0.842342 -108.0 0.538698 -22.59
9.05450000 0.539785 -13.44 0.841700 -108.1 0.841700 -108.1 0.539697 -22.72
9.05500000 0.541772 -13.48 0.840420 -108.2 0.840420 -108.2 0.541682 -22.99
9.05501458 0.541831 -13.48 0.840382 -108.2 0.840382 -108.2 0.541741 -22.99
9.05550000 0.543813 -13.52 0.839098 -108.4 0.839098 -108.4 0.543721 -23.26
9.05576812 0.544930 -13.55 0.838371 -108.5 0.838371 -108.5 0.544837 -23.41
9.05600000 0.545909 -13.57 0.837732 -108.5 0.837732 -108.5 0.545815 -23.54
9.05650000 0.548064 -13.62 0.836321 -108.7 0.836321 -108.7 0.547967 -23.82
9.05650441 0.548083 -13.62 0.836308 -108.7 0.836308 -108.7 0.547986 -23.82
9.05700000 0.550279 -13.67 0.834862 -108.9 0.834862 -108.9 0.550179 -24.11
9.05722382 0.551290 -13.69 0.834193 -109.0 0.834193 -109.0 0.551190 -24.25
9.05750000 0.552556 -13.72 0.833353 -109.1 0.833353 -109.1 0.552455 -24.41
9.05792675 0.554552 -13.76 0.832023 -109.2 0.832023 -109.2 0.554448 -24.68
9.05800000 0.554900 -13.77 0.831791 -109.2 0.831791 -109.2 0.554795 -24.72
9.05850000 0.557311 -13.83 0.830173 -109.4 0.830173 -109.4 0.557204 -25.04
9.05861357 0.557869 -13.84 0.829798 -109.5 0.829798 -109.5 0.557761 -25.11
9.05900000 0.559795 -13.89 0.828497 -109.6 0.828497 -109.6 0.559684 -25.36
9.05928465 0.561241 -13.92 0.827515 -109.7 0.827515 -109.7 0.561129 -25.55
9.05950000 0.562352 -13.95 0.826759 -109.8 0.826759 -109.8 0.562239 -25.70
9.05994036 0.564669 -14.01 0.825174 -110.0 0.825174 -110.0 0.564553 -26.00
9.06000000 0.564988 -14.02 0.824956 -110.0 0.824956 -110.0 0.564871 -26.04
9.06050000 0.567705 -14.08 0.823084 -110.2 0.823084 -110.2 0.567585 -26.39
9.06058104 0.568153 -14.10 0.822774 -110.3 0.822774 -110.3 0.568033 -26.45
9.06100000 0.570507 -14.16 0.821139 -110.4 0.821139 -110.4 0.570383 -26.75
9.06120704 0.571693 -14.19 0.820312 -110.5 0.820312 -110.5 0.571568 -26.91
9.06150000 0.573397 -14.23 0.819118 -110.7 0.819118 -110.7 0.573271 -27.13
9.06181870 0.575288 -14.28 0.817788 -110.8 0.817788 -110.8 0.575159 -27.37
9.06200000 0.576382 -14.31 0.817016 -110.9 0.817016 -110.9 0.576251 -27.51
9.06241634 0.578941 -14.38 0.815200 -111.1 0.815200 -111.1 0.578807 -27.84
9.06250000 0.579463 -14.39 0.814828 -111.1 0.814828 -111.1 0.579329 -27.91
9.06300000 0.582647 -14.48 0.812548 -111.4 0.812548 -111.4 0.582509 -28.31
9.06300029 0.582649 -14.48 0.812547 -111.4 0.812547 -111.4 0.582511 -28.31
9.06350000 0.585938 -14.58 0.810172 -111.6 0.810172 -111.6 0.585796 -28.73
9.06357085 0.586414 -14.59 0.809827 -111.7 0.809827 -111.7 0.586271 -28.79
9.06400000 0.589342 -14.67 0.807692 -111.9 0.807692 -111.9 0.589195 -29.17
9.06412835 0.590235 -14.70 0.807039 -112.0 0.807039 -112.0 0.590086 -29.28
9.06450000 0.592864 -14.78 0.805104 -112.2 0.805104 -112.2 0.592712 -29.62
9.06467307 0.594112 -14.81 0.804181 -112.3 0.804181 -112.3 0.593958 -29.77
9.06500000 0.596510 -14.88 0.802399 -112.5 0.802399 -112.5 0.596353 -30.08
9.06520530 0.598045 -14.93 0.801253 -112.6 0.801253 -112.6 0.597886 -30.27
9.06550000 0.600287 -15.00 0.799570 -112.8 0.799570 -112.8 0.600125 -30.56
9.06572534 0.602033 -15.05 0.798252 -112.9 0.798252 -112.9 0.601869 -30.78
9.06600000 0.604200 -15.12 0.796608 -113.1 0.796608 -113.1 0.604033 -31.05
9.06623347 0.606077 -15.18 0.795177 -113.2 0.795177 -113.2 0.605907 -31.29
9.06650000 0.608258 -15.25 0.793505 -113.4 0.793505 -113.4 0.608086 -31.56
9.06672995 0.610175 -15.31 0.792027 -113.5 0.792027 -113.5 0.610000 -31.80
9.06700000 0.612469 -15.39 0.790250 -113.7 0.790250 -113.7 0.612290 -32.09
9.06721506 0.614328 -15.45 0.788801 -113.9 0.788801 -113.9 0.614147 -32.32
9.06750000 0.616839 -15.53 0.786834 -114.1 0.786834 -114.1 0.616654 -32.64
9.06768905 0.618535 -15.59 0.785497 -114.2 0.785497 -114.2 0.618347 -32.85
9.06800000 0.621378 -15.69 0.783243 -114.4 0.783243 -114.4 0.621186 -33.20
9.06815218 0.622794 -15.73 0.782114 -114.5 0.782114 -114.5 0.622601 -33.38
9.06850000 0.626095 -15.85 0.779466 -114.8 0.779466 -114.8 0.625897 -33.79
9.06860470 0.627107 -15.88 0.778650 -114.9 0.778650 -114.9 0.626907 -33.92
9.06900000 0.631001 -16.02 0.775488 -115.2 0.775488 -115.2 0.630795 -34.41
9.06904684 0.631470 -16.04 0.775105 -115.2 0.775105 -115.2 0.631264 -34.46
9.06947886 0.635884 -16.20 0.771476 -115.6 0.771476 -115.6 0.635671 -35.01
9.06950000 0.636104 -16.21 0.771294 -115.6 0.771294 -115.6 0.635891 -35.04
9.06990098 0.640348 -16.36 0.767763 -115.9 0.767763 -115.9 0.640128 -35.57
9.07000000 0.641418 -16.40 0.766867 -116.0 0.766867 -116.0 0.641196 -35.70
9.07031343 0.644860 -16.53 0.763965 -116.3 0.763965 -116.3 0.644634 -36.13
9.07050000 0.646953 -16.61 0.762188 -116.5 0.762188 -116.5 0.646722 -36.39
9.07071642 0.649420 -16.71 0.760080 -116.7 0.760080 -116.7 0.649186 -36.69
9.07100000 0.652722 -16.84 0.757237 -116.9 0.757237 -116.9 0.652482 -37.10
9.07111018 0.654026 -16.89 0.756107 -117.0 0.756107 -117.0 0.653785 -37.27
9.07149492 0.658676 -17.07 0.752046 -117.4 0.752046 -117.4 0.658428 -37.84
9.07150000 0.658739 -17.07 0.751991 -117.4 0.751991 -117.4 0.658490 -37.85
9.07187084 0.663370 -17.26 0.747895 -117.8 0.747895 -117.8 0.663114 -38.42
9.07200000 0.665018 -17.33 0.746425 -117.9 0.746425 -117.9 0.664759 -38.63
9.07223815 0.668105 -17.46 0.743653 -118.2 0.743653 -118.2 0.667841 -39.01
9.07250000 0.671575 -17.60 0.740510 -118.5 0.740510 -118.5 0.671305 -39.44
9.07259704 0.672881 -17.66 0.739320 -118.6 0.739320 -118.6 0.672608 -39.60
9.07294771 0.677694 -17.86 0.734894 -119.0 0.734894 -119.0 0.677414 -40.20
9.07300000 0.678425 -17.89 0.734217 -119.0 0.734217 -119.0 0.678143 -40.29
9.07329035 0.682544 -18.07 0.730376 -119.4 0.730376 -119.4 0.682255 -40.80
9.07350000 0.685585 -18.21 0.727511 -119.6 0.727511 -119.6 0.685292 -41.18
9.07362513 0.687428 -18.29 0.725764 -119.8 0.725764 -119.8 0.687131 -41.41
9.07395224 0.692345 -18.51 0.721058 -120.2 0.721058 -120.2 0.692039 -42.02
9.07400000 0.693075 -18.54 0.720353 -120.3 0.720353 -120.3 0.692768 -42.11
9.07427186 0.697291 -18.74 0.716257 -120.6 0.716257 -120.6 0.696977 -42.63
9.07450000 0.700911 -18.91 0.712701 -120.9 0.712701 -120.9 0.700591 -43.08
9.07458415 0.702266 -18.97 0.711362 -121.1 0.711362 -121.1 0.701943 -43.25
9.07488929 0.707266 -19.21 0.706371 -121.5 0.706371 -121.5 0.706934 -43.87
9.07500000 0.709115 -19.30 0.704508 -121.6 0.704508 -121.6 0.708780 -44.11
9.07518743 0.712289 -19.45 0.701286 -121.9 0.701286 -121.9 0.711948 -44.50
9.07547875 0.717333 -19.70 0.696105 -122.4 0.696105 -122.4 0.716983 -45.13
9.07550000 0.717706 -19.72 0.695718 -122.4 0.695718 -122.4 0.717355 -45.18
9.07576338 0.722395 -19.95 0.690829 -122.8 0.690829 -122.8 0.722035 -45.77
9.07600000 0.726706 -20.17 0.686274 -123.2 0.686274 -123.2 0.726338 -46.31
9.07604150 0.727472 -20.21 0.685459 -123.2 0.685459 -123.2 0.727103 -46.41
9.07631324 0.732562 -20.47 0.679994 -123.7 0.679994 -123.7 0.732183 -47.05
9.07650000 0.736136 -20.66 0.676107 -124.0 0.676107 -124.0 0.735750 -47.51
9.07657876 0.737662 -20.74 0.674435 -124.1 0.674435 -124.1 0.737273 -47.70
9.07683819 0.742769 -21.01 0.668783 -124.6 0.668783 -124.6 0.742370 -48.35
9.07700000 0.746017 -21.19 0.665142 -124.9 0.665142 -124.9 0.745612 -48.76
9.07709168 0.747879 -21.29 0.663038 -125.1 0.663038 -125.1 0.747470 -49.00
9.07733936 0.752991 -21.57 0.657202 -125.5 0.657202 -125.5 0.752572 -49.66
9.07750000 0.756370 -21.76 0.653293 -125.8 0.653293 -125.8 0.755944 -50.09
9.07758136 0.758100 -21.86 0.651275 -126.0 0.651275 -126.0 0.757671 -50.31
9.07781782 0.763205 -22.15 0.645259 -126.5 0.645259 -126.5 0.762765 -50.97
9.07800000 0.767214 -22.39 0.640465 -126.9 0.640465 -126.9 0.766766 -51.50
9.07804886 0.768301 -22.45 0.639155 -127.0 0.639155 -127.0 0.767850 -51.64
9.07827461 0.773386 -22.75 0.632965 -127.4 0.632965 -127.4 0.772924 -52.30
9.07849519 0.778456 -23.06 0.626690 -127.9 0.626690 -127.9 0.777984 -52.97
9.07850000 0.778567 -23.06 0.626550 -127.9 0.626550 -127.9 0.778095 -52.98
9.07871071 0.783508 -23.36 0.620332 -128.4 0.620332 -128.4 0.783025 -53.64
9.07892129 0.788540 -23.68 0.613892 -128.9 0.613892 -128.9 0.788046 -54.31
9.07900000 0.790444 -23.80 0.611426 -129.1 0.611426 -129.1 0.789947 -54.56
9.07912704 0.793547 -23.99 0.607374 -129.4 0.607374 -129.4 0.793042 -54.98
9.07932809 0.798527 -24.31 0.600780 -129.9 0.600780 -129.9 0.798011 -55.65
9.07950000 0.802854 -24.60 0.594956 -130.3 0.594956 -130.3 0.802329 -56.24
9.07952452 0.803477 -24.64 0.594111 -130.4 0.594111 -130.4 0.802950 -56.32
9.07971646 0.808393 -24.97 0.587370 -130.9 0.587370 -130.9 0.807855 -56.99
9.07990399 0.813273 -25.30 0.580560 -131.4 0.580560 -131.4 0.812724 -57.67
9.08000000 0.815800 -25.47 0.576985 -131.6 0.576985 -131.6 0.815245 -58.02
9.08008723 0.818113 -25.63 0.573684 -131.9 0.573684 -131.9 0.817553 -58.34
9.08026627 0.822911 -25.97 0.566744 -132.4 0.566744 -132.4 0.822339 -59.02
9.08044121 0.827663 -26.31 0.559744 -132.9 0.559744 -132.9 0.827080 -59.69
9.08050000 0.829274 -26.42 0.557342 -133.0 0.557342 -133.0 0.828687 -59.92
9.08061214 0.832367 -26.65 0.552687 -133.4 0.552687 -133.4 0.831772 -60.36
9.08077915 0.837020 -26.99 0.545577 -133.9 0.545577 -133.9 0.836414 -61.03
9.08094234 0.841619 -27.34 0.538415 -134.4 0.538415 -134.4 0.841002 -61.70
9.08100000 0.843257 -27.46 0.535833 -134.6 0.535833 -134.6 0.842635 -61.94
9.08110178 0.846162 -27.69 0.531207 -134.9 0.531207 -134.9 0.845534 -62.37
9.08125758 0.850647 -28.04 0.523955 -135.4 0.523955 -135.4 0.850006 -63.04
9.08140980 0.855070 -28.39 0.516663 -135.9 0.516663 -135.9 0.854418 -63.71
9.08150000 0.857710 -28.60 0.512243 -136.2 0.512243 -136.2 0.857051 -64.11
9.08155853 0.859430 -28.74 0.509335 -136.4 0.509335 -136.4 0.858767 -64.37
9.08170386 0.863725 -29.10 0.501975 -136.9 0.501975 -136.9 0.863050 -65.03
9.08184586 0.867952 -29.45 0.494586 -137.4 0.494586 -137.4 0.867266 -65.69
9.08198460 0.872110 -29.81 0.487173 -137.9 0.487173 -137.9 0.871412 -66.35
9.08200000 0.872573 -29.85 0.486338 -138.0 0.486338 -138.0 0.871874 -66.42
9.08212017 0.876196 -30.16 0.479738 -138.4 0.479738 -138.4 0.875488 -67.00
9.08225263 0.880210 -30.52 0.472287 -138.9 0.472287 -138.9 0.879490 -67.65
9.08238205 0.884150 -30.88 0.464823 -139.4 0.464823 -139.4 0.883419 -68.30
9.08250000 0.887754 -31.21 0.457858 -139.9 0.457858 -139.9 0.887013 -68.90
9.08250851 0.888014 -31.23 0.457350 -139.9 0.457350 -139.9 0.887272 -68.94
9.08263207 0.891802 -31.59 0.449872 -140.4 0.449872 -140.4 0.891049 -69.58
9.08275279 0.895511 -31.95 0.442393 -140.9 0.442393 -140.9 0.894747 -70.22
9.08287076 0.899142 -32.30 0.434916 -141.4 0.434916 -141.4 0.898367 -70.85
9.08298602 0.902694 -32.66 0.427447 -141.8 0.427447 -141.8 0.901907 -71.48
9.08300000 0.903125 -32.70 0.426529 -141.9 0.426529 -141.9 0.902337 -71.55
9.08309863 0.906165 -33.01 0.419987 -142.3 0.419987 -142.3 0.905368 -72.10
9.08320867 0.909555 -33.36 0.412542 -142.8 0.412542 -142.8 0.908747 -72.72
9.08331619 0.912864 -33.72 0.405115 -143.3 0.405115 -143.3 0.912046 -73.33
9.08342124 0.916092 -34.07 0.397709 -143.7 0.397709 -143.7 0.915263 -73.94
9.08350000 0.918507 -34.33 0.392059 -144.1 0.392059 -144.1 0.917670 -74.40
9.08352389 0.919238 -34.41 0.390329 -144.2 0.390329 -144.2 0.918399 -74.54
9.08362418 0.922303 -34.76 0.382977 -144.7 0.382977 -144.7 0.921454 -75.14
9.08372217 0.925287 -35.11 0.375658 -145.1 0.375658 -145.1 0.924427 -75.73
9.08381792 0.928189 -35.45 0.368373 -145.6 0.368373 -145.6 0.927319 -76.32
9.08391148 0.931010 -35.79 0.361128 -146.0 0.361128 -146.0 0.930130 -76.90
9.08400000 0.933665 -36.12 0.354154 -146.5 0.354154 -146.5 0.932776 -77.46
9.08400289 0.933751 -36.13 0.353924 -146.5 0.353924 -146.5 0.932862 -77.47
9.08409221 0.936413 -36.46 0.346765 -146.9 0.346765 -146.9 0.935513 -78.04
9.08417948 0.938995 -36.80 0.339654 -147.4 0.339654 -147.4 0.938086 -78.61
9.08426475 0.941499 -37.13 0.332593 -147.8 0.332593 -147.8 0.940580 -79.16
9.08434807 0.943925 -37.45 0.325585 -148.2 0.325585 -148.2 0.942997 -79.71
9.08442948 0.946275 -37.78 0.318633 -148.7 0.318633 -148.7 0.945338 -80.26
9.08450000 0.948292 -38.06 0.312526 -149.0 0.312526 -149.0 0.947347 -80.73
9.08450902 0.948549 -38.10 0.311739 -149.1 0.311739 -149.1 0.947603 -80.79
9.08458674 0.950749 -38.42 0.304906 -149.5 0.304906 -149.5 0.949793 -81.32
9.08466268 0.952875 -38.73 0.298135 -149.9 0.298135 -149.9 0.951911 -81.85
9.08473688 0.954929 -39.04 0.291429 -150.3 0.291429 -150.3 0.953956 -82.37
9.08480938 0.956912 -39.35 0.284789 -150.7 0.284789 -150.7 0.955931 -82.88
9.08488022 0.958825 -39.66 0.278218 -151.1 0.278218 -151.1 0.957836 -83.38
9.08494943 0.960671 -39.96 0.271717 -151.5 0.271717 -151.5 0.959673 -83.88
9.08500000 0.962003 -40.18 0.266917 -151.8 0.266917 -151.8 0.960999 -84.24
9.08501706 0.962449 -40.26 0.265288 -151.8 0.265288 -151.8 0.961443 -84.37
9.08508314 0.964162 -40.55 0.258932 -152.2 0.258932 -152.2 0.963148 -84.85
9.08514771 0.965810 -40.84 0.252651 -152.6 0.252651 -152.6 0.964788 -85.33
9.08521079 0.967397 -41.13 0.246445 -152.9 0.246445 -152.9 0.966367 -85.80
9.08527243 0.968922 -41.41 0.240316 -153.3 0.240316 -153.3 0.967884 -86.26
9.08533266 0.970387 -41.69 0.234264 -153.7 0.234264 -153.7 0.969342 -86.72
9.08539151 0.971794 -41.97 0.228292 -154.0 0.228292 -154.0 0.970742 -87.16
9.08544901 0.973145 -42.24 0.222398 -154.3 0.222398 -154.3 0.972086 -87.61
9.08550000 0.974323 -42.48 0.217124 -154.6 0.217124 -154.6 0.973257 -88.00
9.08550519 0.974441 -42.51 0.216585 -154.7 0.216585 -154.7 0.973375 -88.04
9.08556008 0.975684 -42.77 0.210853 -155.0 0.210853 -155.0 0.974610 -88.47
9.08561372 0.976874 -43.03 0.205202 -155.3 0.205202 -155.3 0.975794 -88.89
9.08566613 0.978014 -43.29 0.199632 -155.6 0.199632 -155.6 0.976927 -89.31
9.08571733 0.979105 -43.54 0.194144 -155.9 0.194144 -155.9 0.978012 -89.71
9.08576737 0.980149 -43.79 0.188738 -156.2 0.188738 -156.2 0.979049 -90.12
9.08581625 0.981146 -44.03 0.183414 -156.5 0.183414 -156.5 0.980040 -90.51
9.08586402 0.982099 -44.27 0.178172 -156.8 0.178172 -156.8 0.980987 -90.90
9.08591069 0.983010 -44.51 0.173013 -157.1 0.173013 -157.1 0.981892 -91.28
9.08595630 0.983878 -44.74 0.167935 -157.4 0.167935 -157.4 0.982754 -91.65
9.08600000 0.984691 -44.97 0.163035 -157.6 0.163035 -157.6 0.983561 -92.02
9.08600085 0.984706 -44.97 0.162939 -157.6 0.162939 -157.6 0.983577 -92.02
9.08604439 0.985496 -45.20 0.158025 -157.9 0.158025 -157.9 0.984360 -92.38
9.08608693 0.986248 -45.42 0.153192 -158.2 0.153192 -158.2 0.985107 -92.74
9.08612849 0.986963 -45.64 0.148440 -158.4 0.148440 -158.4 0.985817 -93.09
9.08616911 0.987644 -45.85 0.143769 -158.7 0.143769 -158.7 0.986493 -93.43
9.08620879 0.988292 -46.06 0.139177 -158.9 0.139177 -158.9 0.987135 -93.77
9.08624756 0.988907 -46.27 0.134665 -159.1 0.134665 -159.1 0.987745 -94.10
9.08628544 0.989491 -46.47 0.130232 -159.3 0.130232 -159.3 0.988324 -94.42
9.08632246 0.990045 -46.67 0.125877 -159.6 0.125877 -159.6 0.988873 -94.74