! Sonnet Data File
! From: emgraph Version : 16.52
! From Emgraph Data: Resonator2_extremeCap
! Data File Written: 10/12/2017 12:53:34
!< HDATE 10/11/2017 21:06:01
!< MDATE 10/11/2017 21:06:01
!< PARAMS
!< Pwid1 = 2000.0
!< Air_gap = 12.0
!< Width = 20.0
!< Gap = 68.0
!< END PARAMS
# GHZ S MA R 40.13000
8.95000000 0.345057 -5.415 0.938571 -93.90 0.938571 -93.90 0.345048 -2.390
!< P1 F=8.95 Eeff=(5.24886392 -2.3057e-5) Z0=(40.1292442 8.94105e-5) R=0.0 C=0.0 
!< P2 F=8.95 Eeff=(5.24886392 -2.3057e-5) Z0=(40.1292442 8.94105e-5) R=0.0 C=0.0 
8.95020000 0.345117 -5.414 0.938549 -93.91 0.938549 -93.91 0.345108 -2.404
8.95040000 0.345178 -5.413 0.938527 -93.91 0.938527 -93.91 0.345169 -2.417
8.95060000 0.345238 -5.412 0.938505 -93.92 0.938505 -93.92 0.345229 -2.431
8.95080000 0.345299 -5.411 0.938482 -93.93 0.938482 -93.93 0.345290 -2.445
8.95100000 0.345360 -5.410 0.938460 -93.93 0.938460 -93.93 0.345351 -2.459
8.95120000 0.345421 -5.409 0.938437 -93.94 0.938437 -93.94 0.345412 -2.473
8.95140000 0.345482 -5.408 0.938415 -93.95 0.938415 -93.95 0.345473 -2.487
8.95160000 0.345543 -5.407 0.938392 -93.95 0.938392 -93.95 0.345534 -2.501
8.95180000 0.345605 -5.406 0.938370 -93.96 0.938370 -93.96 0.345596 -2.515
8.95200000 0.345666 -5.405 0.938347 -93.97 0.938347 -93.97 0.345657 -2.529
8.95220000 0.345728 -5.404 0.938324 -93.97 0.938324 -93.97 0.345719 -2.543
8.95240000 0.345790 -5.403 0.938301 -93.98 0.938301 -93.98 0.345781 -2.557
8.95260000 0.345852 -5.402 0.938278 -93.99 0.938278 -93.99 0.345843 -2.571
8.95280000 0.345914 -5.401 0.938256 -93.99 0.938256 -93.99 0.345905 -2.585
8.95300000 0.345977 -5.400 0.938233 -94.00 0.938233 -94.00 0.345967 -2.599
8.95320000 0.346039 -5.399 0.938209 -94.01 0.938209 -94.01 0.346030 -2.614
8.95340000 0.346102 -5.398 0.938186 -94.01 0.938186 -94.01 0.346093 -2.628
8.95360000 0.346165 -5.397 0.938163 -94.02 0.938163 -94.02 0.346156 -2.642
8.95380000 0.346228 -5.396 0.938140 -94.03 0.938140 -94.03 0.346219 -2.656
8.95400000 0.346291 -5.394 0.938116 -94.03 0.938116 -94.03 0.346282 -2.671
8.95420000 0.346355 -5.393 0.938093 -94.04 0.938093 -94.04 0.346345 -2.685
8.95440000 0.346418 -5.392 0.938070 -94.05 0.938070 -94.05 0.346409 -2.700
8.95460000 0.346482 -5.391 0.938046 -94.05 0.938046 -94.05 0.346472 -2.714
8.95480000 0.346546 -5.390 0.938022 -94.06 0.938022 -94.06 0.346536 -2.729
8.95500000 0.346610 -5.389 0.937999 -94.07 0.937999 -94.07 0.346600 -2.743
8.95520000 0.346674 -5.388 0.937975 -94.07 0.937975 -94.07 0.346664 -2.758
8.95540000 0.346739 -5.386 0.937951 -94.08 0.937951 -94.08 0.346729 -2.773
8.95560000 0.346803 -5.385 0.937927 -94.09 0.937927 -94.09 0.346793 -2.787
8.95580000 0.346868 -5.384 0.937903 -94.09 0.937903 -94.09 0.346858 -2.802
8.95600000 0.346933 -5.383 0.937879 -94.10 0.937879 -94.10 0.346923 -2.817
8.95620000 0.346998 -5.382 0.937855 -94.11 0.937855 -94.11 0.346988 -2.832
8.95640000 0.347063 -5.380 0.937831 -94.11 0.937831 -94.11 0.347053 -2.846
8.95660000 0.347128 -5.379 0.937807 -94.12 0.937807 -94.12 0.347119 -2.861
8.95680000 0.347194 -5.378 0.937782 -94.13 0.937782 -94.13 0.347184 -2.876
8.95700000 0.347260 -5.377 0.937758 -94.13 0.937758 -94.13 0.347250 -2.891
8.95720000 0.347326 -5.375 0.937734 -94.14 0.937734 -94.14 0.347316 -2.906
8.95740000 0.347392 -5.374 0.937709 -94.15 0.937709 -94.15 0.347382 -2.921
8.95760000 0.347458 -5.373 0.937685 -94.15 0.937685 -94.15 0.347448 -2.936
8.95780000 0.347525 -5.372 0.937660 -94.16 0.937660 -94.16 0.347515 -2.951
8.95800000 0.347591 -5.370 0.937635 -94.17 0.937635 -94.17 0.347581 -2.966
8.95820000 0.347658 -5.369 0.937610 -94.17 0.937610 -94.17 0.347648 -2.982
8.95840000 0.347725 -5.368 0.937585 -94.18 0.937585 -94.18 0.347715 -2.997
8.95860000 0.347793 -5.366 0.937561 -94.19 0.937561 -94.19 0.347782 -3.012
8.95880000 0.347860 -5.365 0.937536 -94.20 0.937536 -94.20 0.347850 -3.027
8.95900000 0.347928 -5.364 0.937510 -94.20 0.937510 -94.20 0.347917 -3.043
8.95920000 0.347995 -5.362 0.937485 -94.21 0.937485 -94.21 0.347985 -3.058
8.95940000 0.348063 -5.361 0.937460 -94.22 0.937460 -94.22 0.348053 -3.074
8.95960000 0.348131 -5.359 0.937435 -94.22 0.937435 -94.22 0.348121 -3.089
8.95980000 0.348200 -5.358 0.937409 -94.23 0.937409 -94.23 0.348189 -3.105
8.96000000 0.348268 -5.357 0.937384 -94.24 0.937384 -94.24 0.348258 -3.120
8.96020000 0.348337 -5.355 0.937358 -94.24 0.937358 -94.24 0.348327 -3.136
8.96040000 0.348406 -5.354 0.937333 -94.25 0.937333 -94.25 0.348395 -3.151
8.96060000 0.348475 -5.352 0.937307 -94.26 0.937307 -94.26 0.348464 -3.167
8.96080000 0.348544 -5.351 0.937281 -94.27 0.937281 -94.27 0.348534 -3.183
8.96100000 0.348614 -5.349 0.937255 -94.27 0.937255 -94.27 0.348603 -3.198
8.96120000 0.348684 -5.348 0.937229 -94.28 0.937229 -94.28 0.348673 -3.214
8.96140000 0.348753 -5.346 0.937203 -94.29 0.937203 -94.29 0.348743 -3.230
8.96160000 0.348824 -5.345 0.937177 -94.29 0.937177 -94.29 0.348813 -3.246
8.96180000 0.348894 -5.343 0.937151 -94.30 0.937151 -94.30 0.348883 -3.262
8.96200000 0.348964 -5.342 0.937125 -94.31 0.937125 -94.31 0.348953 -3.278
8.96220000 0.349035 -5.340 0.937098 -94.32 0.937098 -94.32 0.349024 -3.294
8.96240000 0.349106 -5.339 0.937072 -94.32 0.937072 -94.32 0.349095 -3.310
8.96260000 0.349177 -5.337 0.937045 -94.33 0.937045 -94.33 0.349166 -3.326
8.96280000 0.349248 -5.336 0.937019 -94.34 0.937019 -94.34 0.349237 -3.342
8.96300000 0.349320 -5.334 0.936992 -94.35 0.936992 -94.35 0.349309 -3.358
8.96320000 0.349392 -5.333 0.936965 -94.35 0.936965 -94.35 0.349380 -3.375
8.96340000 0.349463 -5.331 0.936939 -94.36 0.936939 -94.36 0.349452 -3.391
8.96360000 0.349536 -5.329 0.936912 -94.37 0.936912 -94.37 0.349524 -3.407
8.96380000 0.349608 -5.328 0.936885 -94.37 0.936885 -94.37 0.349597 -3.424
8.96400000 0.349680 -5.326 0.936858 -94.38 0.936858 -94.38 0.349669 -3.440
8.96420000 0.349753 -5.324 0.936830 -94.39 0.936830 -94.39 0.349742 -3.456
8.96440000 0.349826 -5.323 0.936803 -94.40 0.936803 -94.40 0.349815 -3.473
8.96460000 0.349899 -5.321 0.936776 -94.40 0.936776 -94.40 0.349888 -3.490
8.96480000 0.349973 -5.319 0.936748 -94.41 0.936748 -94.41 0.349961 -3.506
8.96500000 0.350046 -5.318 0.936721 -94.42 0.936721 -94.42 0.350035 -3.523
8.96520000 0.350120 -5.316 0.936693 -94.43 0.936693 -94.43 0.350109 -3.539
8.96540000 0.350194 -5.314 0.936665 -94.43 0.936665 -94.43 0.350183 -3.556
8.96560000 0.350269 -5.313 0.936638 -94.44 0.936638 -94.44 0.350257 -3.573
8.96580000 0.350343 -5.311 0.936610 -94.45 0.936610 -94.45 0.350332 -3.590
8.96600000 0.350418 -5.309 0.936582 -94.46 0.936582 -94.46 0.350406 -3.607
8.96620000 0.350493 -5.307 0.936554 -94.46 0.936554 -94.46 0.350481 -3.624
8.96640000 0.350568 -5.306 0.936526 -94.47 0.936526 -94.47 0.350556 -3.641
8.96660000 0.350643 -5.304 0.936497 -94.48 0.936497 -94.48 0.350632 -3.658
8.96680000 0.350719 -5.302 0.936469 -94.49 0.936469 -94.49 0.350707 -3.675
8.96700000 0.350795 -5.300 0.936440 -94.49 0.936440 -94.49 0.350783 -3.692
8.96720000 0.350871 -5.298 0.936412 -94.50 0.936412 -94.50 0.350859 -3.709
8.96740000 0.350947 -5.296 0.936383 -94.51 0.936383 -94.51 0.350935 -3.726
8.96760000 0.351024 -5.295 0.936355 -94.52 0.936355 -94.52 0.351012 -3.743
8.96780000 0.351101 -5.293 0.936326 -94.53 0.936326 -94.53 0.351089 -3.761
8.96800000 0.351178 -5.291 0.936297 -94.53 0.936297 -94.53 0.351166 -3.778
8.96820000 0.351255 -5.289 0.936268 -94.54 0.936268 -94.54 0.351243 -3.796
8.96840000 0.351332 -5.287 0.936239 -94.55 0.936239 -94.55 0.351320 -3.813
8.96860000 0.351410 -5.285 0.936210 -94.56 0.936210 -94.56 0.351398 -3.831
8.96880000 0.351488 -5.283 0.936180 -94.56 0.936180 -94.56 0.351476 -3.848
8.96900000 0.351566 -5.281 0.936151 -94.57 0.936151 -94.57 0.351554 -3.866
8.96920000 0.351645 -5.279 0.936121 -94.58 0.936121 -94.58 0.351632 -3.883
8.96940000 0.351723 -5.277 0.936092 -94.59 0.936092 -94.59 0.351711 -3.901
8.96960000 0.351802 -5.275 0.936062 -94.60 0.936062 -94.60 0.351790 -3.919
8.96980000 0.351881 -5.273 0.936032 -94.60 0.936032 -94.60 0.351869 -3.937
8.97000000 0.351961 -5.271 0.936002 -94.61 0.936002 -94.61 0.351949 -3.955
8.97020000 0.352041 -5.269 0.935972 -94.62 0.935972 -94.62 0.352028 -3.973
8.97040000 0.352121 -5.267 0.935942 -94.63 0.935942 -94.63 0.352108 -3.991
8.97060000 0.352201 -5.265 0.935912 -94.64 0.935912 -94.64 0.352188 -4.009
8.97080000 0.352281 -5.263 0.935882 -94.64 0.935882 -94.64 0.352269 -4.027
8.97100000 0.352362 -5.261 0.935851 -94.65 0.935851 -94.65 0.352349 -4.045
8.97120000 0.352443 -5.259 0.935821 -94.66 0.935821 -94.66 0.352430 -4.063
8.97140000 0.352524 -5.257 0.935790 -94.67 0.935790 -94.67 0.352511 -4.081
8.97160000 0.352606 -5.255 0.935760 -94.68 0.935760 -94.68 0.352593 -4.100
8.97180000 0.352687 -5.253 0.935729 -94.68 0.935729 -94.68 0.352674 -4.118
8.97200000 0.352769 -5.251 0.935698 -94.69 0.935698 -94.69 0.352756 -4.137
8.97220000 0.352852 -5.248 0.935667 -94.70 0.935667 -94.70 0.352839 -4.155
8.97240000 0.352934 -5.246 0.935636 -94.71 0.935636 -94.71 0.352921 -4.174
8.97260000 0.353017 -5.244 0.935604 -94.72 0.935604 -94.72 0.353004 -4.192
8.97280000 0.353100 -5.242 0.935573 -94.73 0.935573 -94.73 0.353087 -4.211
8.97300000 0.353183 -5.240 0.935541 -94.73 0.935541 -94.73 0.353170 -4.229
8.97320000 0.353267 -5.238 0.935510 -94.74 0.935510 -94.74 0.353254 -4.248
8.97340000 0.353351 -5.235 0.935478 -94.75 0.935478 -94.75 0.353338 -4.267
8.97360000 0.353435 -5.233 0.935446 -94.76 0.935446 -94.76 0.353422 -4.286
8.97380000 0.353519 -5.231 0.935414 -94.77 0.935414 -94.77 0.353506 -4.305
8.97400000 0.353604 -5.228 0.935382 -94.77 0.935382 -94.77 0.353591 -4.324
8.97420000 0.353689 -5.226 0.935350 -94.78 0.935350 -94.78 0.353676 -4.343
8.97440000 0.353774 -5.224 0.935318 -94.79 0.935318 -94.79 0.353761 -4.362
8.97460000 0.353860 -5.222 0.935286 -94.80 0.935286 -94.80 0.353846 -4.381
8.97480000 0.353946 -5.219 0.935253 -94.81 0.935253 -94.81 0.353932 -4.400
8.97500000 0.354032 -5.217 0.935220 -94.82 0.935220 -94.82 0.354018 -4.420
8.97520000 0.354118 -5.215 0.935188 -94.83 0.935188 -94.83 0.354105 -4.439
8.97540000 0.354205 -5.212 0.935155 -94.83 0.935155 -94.83 0.354191 -4.459
8.97560000 0.354292 -5.210 0.935122 -94.84 0.935122 -94.84 0.354278 -4.478
8.97580000 0.354379 -5.207 0.935089 -94.85 0.935089 -94.85 0.354365 -4.498
8.97600000 0.354467 -5.205 0.935055 -94.86 0.935055 -94.86 0.354453 -4.517
8.97620000 0.354555 -5.202 0.935022 -94.87 0.935022 -94.87 0.354541 -4.537
8.97640000 0.354643 -5.200 0.934989 -94.88 0.934989 -94.88 0.354629 -4.557
8.97660000 0.354731 -5.198 0.934955 -94.89 0.934955 -94.89 0.354717 -4.576
8.97680000 0.354820 -5.195 0.934921 -94.89 0.934921 -94.89 0.354806 -4.596
8.97700000 0.354909 -5.193 0.934887 -94.90 0.934887 -94.90 0.354895 -4.616
8.97720000 0.354999 -5.190 0.934853 -94.91 0.934853 -94.91 0.354984 -4.636
8.97740000 0.355088 -5.188 0.934819 -94.92 0.934819 -94.92 0.355074 -4.656
8.97760000 0.355178 -5.185 0.934785 -94.93 0.934785 -94.93 0.355164 -4.676
8.97780000 0.355269 -5.182 0.934751 -94.94 0.934751 -94.94 0.355254 -4.696
8.97800000 0.355359 -5.180 0.934716 -94.95 0.934716 -94.95 0.355345 -4.717
8.97820000 0.355450 -5.177 0.934682 -94.96 0.934682 -94.96 0.355436 -4.737
8.97840000 0.355541 -5.175 0.934647 -94.96 0.934647 -94.96 0.355527 -4.757
8.97860000 0.355633 -5.172 0.934612 -94.97 0.934612 -94.97 0.355618 -4.778
8.97880000 0.355725 -5.169 0.934577 -94.98 0.934577 -94.98 0.355710 -4.798
8.97900000 0.355817 -5.167 0.934542 -94.99 0.934542 -94.99 0.355802 -4.819
8.97920000 0.355910 -5.164 0.934507 -95.00 0.934507 -95.00 0.355895 -4.839
8.97940000 0.356002 -5.161 0.934471 -95.01 0.934471 -95.01 0.355988 -4.860
8.97960000 0.356096 -5.159 0.934436 -95.02 0.934436 -95.02 0.356081 -4.881
8.97980000 0.356189 -5.156 0.934400 -95.03 0.934400 -95.03 0.356174 -4.902
8.98000000 0.356283 -5.153 0.934364 -95.04 0.934364 -95.04 0.356268 -4.923
8.98020000 0.356377 -5.151 0.934328 -95.05 0.934328 -95.05 0.356362 -4.944
8.98040000 0.356472 -5.148 0.934292 -95.05 0.934292 -95.05 0.356457 -4.965
8.98060000 0.356567 -5.145 0.934256 -95.06 0.934256 -95.06 0.356551 -4.986
8.98080000 0.356662 -5.142 0.934220 -95.07 0.934220 -95.07 0.356647 -5.007
8.98100000 0.356757 -5.139 0.934183 -95.08 0.934183 -95.08 0.356742 -5.028
8.98120000 0.356853 -5.137 0.934146 -95.09 0.934146 -95.09 0.356838 -5.050
8.98140000 0.356949 -5.134 0.934110 -95.10 0.934110 -95.10 0.356934 -5.071
8.98160000 0.357046 -5.131 0.934073 -95.11 0.934073 -95.11 0.357031 -5.092
8.98180000 0.357143 -5.128 0.934035 -95.12 0.934035 -95.12 0.357128 -5.114
8.98200000 0.357240 -5.125 0.933998 -95.13 0.933998 -95.13 0.357225 -5.136
8.98220000 0.357338 -5.122 0.933961 -95.14 0.933961 -95.14 0.357322 -5.157
8.98240000 0.357436 -5.119 0.933923 -95.15 0.933923 -95.15 0.357420 -5.179
8.98260000 0.357534 -5.116 0.933886 -95.16 0.933886 -95.16 0.357519 -5.201
8.98280000 0.357633 -5.113 0.933848 -95.17 0.933848 -95.17 0.357617 -5.223
8.98300000 0.357732 -5.110 0.933810 -95.18 0.933810 -95.18 0.357716 -5.245
8.98320000 0.357832 -5.107 0.933772 -95.19 0.933772 -95.19 0.357816 -5.267
8.98340000 0.357931 -5.104 0.933733 -95.20 0.933733 -95.20 0.357915 -5.289
8.98360000 0.358032 -5.101 0.933695 -95.20 0.933695 -95.20 0.358016 -5.311
8.98380000 0.358132 -5.098 0.933656 -95.21 0.933656 -95.21 0.358116 -5.333
8.98400000 0.358233 -5.095 0.933617 -95.22 0.933617 -95.22 0.358217 -5.356
8.98420000 0.358335 -5.092 0.933578 -95.23 0.933578 -95.23 0.358318 -5.378
8.98440000 0.358436 -5.089 0.933539 -95.24 0.933539 -95.24 0.358420 -5.401
8.98460000 0.358538 -5.086 0.933500 -95.25 0.933500 -95.25 0.358522 -5.423
8.98480000 0.358641 -5.083 0.933461 -95.26 0.933461 -95.26 0.358624 -5.446
8.98500000 0.358744 -5.080 0.933421 -95.27 0.933421 -95.27 0.358727 -5.469
8.98520000 0.358847 -5.077 0.933381 -95.28 0.933381 -95.28 0.358830 -5.492
8.98540000 0.358951 -5.073 0.933341 -95.29 0.933341 -95.29 0.358934 -5.514
8.98560000 0.359055 -5.070 0.933301 -95.30 0.933301 -95.30 0.359038 -5.537
8.98580000 0.359159 -5.067 0.933261 -95.31 0.933261 -95.31 0.359142 -5.561
8.98600000 0.359264 -5.064 0.933221 -95.32 0.933221 -95.32 0.359247 -5.584
8.98620000 0.359369 -5.060 0.933180 -95.33 0.933180 -95.33 0.359352 -5.607
8.98640000 0.359475 -5.057 0.933139 -95.34 0.933139 -95.34 0.359458 -5.630
8.98660000 0.359581 -5.054 0.933099 -95.35 0.933099 -95.35 0.359564 -5.654
8.98680000 0.359687 -5.051 0.933057 -95.36 0.933057 -95.36 0.359670 -5.677
8.98700000 0.359794 -5.047 0.933016 -95.37 0.933016 -95.37 0.359777 -5.701
8.98720000 0.359902 -5.044 0.932975 -95.38 0.932975 -95.38 0.359884 -5.724
8.98740000 0.360009 -5.040 0.932933 -95.39 0.932933 -95.39 0.359992 -5.748
8.98760000 0.360118 -5.037 0.932891 -95.40 0.932891 -95.40 0.360100 -5.772
8.98780000 0.360226 -5.034 0.932849 -95.41 0.932849 -95.41 0.360209 -5.796
8.98800000 0.360335 -5.030 0.932807 -95.42 0.932807 -95.42 0.360318 -5.820
8.98820000 0.360445 -5.027 0.932765 -95.43 0.932765 -95.43 0.360427 -5.844
8.98840000 0.360555 -5.023 0.932722 -95.44 0.932722 -95.44 0.360537 -5.868
8.98860000 0.360665 -5.020 0.932680 -95.45 0.932680 -95.45 0.360647 -5.892
8.98880000 0.360776 -5.016 0.932637 -95.46 0.932637 -95.46 0.360758 -5.917
8.98900000 0.360887 -5.013 0.932594 -95.48 0.932594 -95.48 0.360869 -5.941
8.98920000 0.360999 -5.009 0.932550 -95.49 0.932550 -95.49 0.360980 -5.966
8.98940000 0.361111 -5.006 0.932507 -95.50 0.932507 -95.50 0.361092 -5.990
8.98960000 0.361223 -5.002 0.932463 -95.51 0.932463 -95.51 0.361205 -6.015
8.98980000 0.361336 -4.999 0.932419 -95.52 0.932419 -95.52 0.361318 -6.040
8.99000000 0.361450 -4.995 0.932375 -95.53 0.932375 -95.53 0.361431 -6.065
8.99020000 0.361564 -4.991 0.932331 -95.54 0.932331 -95.54 0.361545 -6.090
8.99040000 0.361678 -4.988 0.932287 -95.55 0.932287 -95.55 0.361659 -6.115
8.99060000 0.361793 -4.984 0.932242 -95.56 0.932242 -95.56 0.361774 -6.140
8.99080000 0.361908 -4.980 0.932197 -95.57 0.932197 -95.57 0.361889 -6.165
8.99100000 0.362024 -4.976 0.932152 -95.58 0.932152 -95.58 0.362005 -6.191
8.99120000 0.362140 -4.973 0.932107 -95.59 0.932107 -95.59 0.362121 -6.216
8.99140000 0.362257 -4.969 0.932062 -95.60 0.932062 -95.60 0.362238 -6.242
8.99160000 0.362374 -4.965 0.932016 -95.61 0.932016 -95.61 0.362355 -6.267
8.99180000 0.362492 -4.961 0.931970 -95.63 0.931970 -95.63 0.362473 -6.293
8.99200000 0.362610 -4.958 0.931924 -95.64 0.931924 -95.64 0.362591 -6.319
8.99220000 0.362729 -4.954 0.931878 -95.65 0.931878 -95.65 0.362710 -6.345
8.99240000 0.362848 -4.950 0.931831 -95.66 0.931831 -95.66 0.362829 -6.371
8.99260000 0.362968 -4.946 0.931785 -95.67 0.931785 -95.67 0.362948 -6.397
8.99280000 0.363088 -4.942 0.931738 -95.68 0.931738 -95.68 0.363069 -6.423
8.99300000 0.363209 -4.938 0.931691 -95.69 0.931691 -95.69 0.363189 -6.449
8.99320000 0.363330 -4.934 0.931643 -95.70 0.931643 -95.70 0.363310 -6.476
8.99340000 0.363452 -4.930 0.931596 -95.71 0.931596 -95.71 0.363432 -6.502
8.99360000 0.363574 -4.926 0.931548 -95.73 0.931548 -95.73 0.363554 -6.529
8.99380000 0.363697 -4.922 0.931500 -95.74 0.931500 -95.74 0.363677 -6.556
8.99400000 0.363820 -4.918 0.931452 -95.75 0.931452 -95.75 0.363800 -6.583
8.99420000 0.363944 -4.914 0.931403 -95.76 0.931403 -95.76 0.363924 -6.610
8.99440000 0.364069 -4.910 0.931355 -95.77 0.931355 -95.77 0.364048 -6.637
8.99460000 0.364194 -4.906 0.931306 -95.78 0.931306 -95.78 0.364173 -6.664
8.99480000 0.364319 -4.902 0.931257 -95.79 0.931257 -95.79 0.364299 -6.691
8.99500000 0.364445 -4.898 0.931207 -95.81 0.931207 -95.81 0.364424 -6.719
8.99520000 0.364572 -4.893 0.931158 -95.82 0.931158 -95.82 0.364551 -6.746
8.99540000 0.364699 -4.889 0.931108 -95.83 0.931108 -95.83 0.364678 -6.774
8.99560000 0.364826 -4.885 0.931058 -95.84 0.931058 -95.84 0.364806 -6.801
8.99580000 0.364955 -4.881 0.931007 -95.85 0.931007 -95.85 0.364934 -6.829
8.99600000 0.365084 -4.877 0.930957 -95.86 0.930957 -95.86 0.365062 -6.857
8.99620000 0.365213 -4.872 0.930906 -95.88 0.930906 -95.88 0.365192 -6.885
8.99640000 0.365343 -4.868 0.930855 -95.89 0.930855 -95.89 0.365322 -6.913
8.99660000 0.365473 -4.864 0.930804 -95.90 0.930804 -95.90 0.365452 -6.942
8.99680000 0.365605 -4.859 0.930752 -95.91 0.930752 -95.91 0.365583 -6.970
8.99700000 0.365736 -4.855 0.930700 -95.92 0.930700 -95.92 0.365715 -6.998
8.99720000 0.365869 -4.851 0.930648 -95.94 0.930648 -95.94 0.365847 -7.027
8.99740000 0.366002 -4.846 0.930596 -95.95 0.930596 -95.95 0.365980 -7.056
8.99760000 0.366135 -4.842 0.930543 -95.96 0.930543 -95.96 0.366113 -7.085
8.99780000 0.366269 -4.837 0.930490 -95.97 0.930490 -95.97 0.366247 -7.114
8.99800000 0.366404 -4.833 0.930437 -95.99 0.930437 -95.99 0.366382 -7.143
8.99820000 0.366539 -4.828 0.930384 -96.00 0.930384 -96.00 0.366517 -7.172
8.99840000 0.366675 -4.824 0.930330 -96.01 0.930330 -96.01 0.366653 -7.201
8.99860000 0.366812 -4.819 0.930276 -96.02 0.930276 -96.02 0.366789 -7.231
8.99880000 0.366949 -4.815 0.930222 -96.04 0.930222 -96.04 0.366926 -7.260
8.99900000 0.367087 -4.810 0.930168 -96.05 0.930168 -96.05 0.367064 -7.290
8.99920000 0.367225 -4.805 0.930113 -96.06 0.930113 -96.06 0.367202 -7.320
8.99940000 0.367364 -4.801 0.930058 -96.07 0.930058 -96.07 0.367341 -7.350
8.99960000 0.367504 -4.796 0.930003 -96.09 0.930003 -96.09 0.367481 -7.380
8.99980000 0.367645 -4.791 0.929947 -96.10 0.929947 -96.10 0.367621 -7.410
9.00000000 0.367786 -4.787 0.929891 -96.11 0.929891 -96.11 0.367762 -7.440
9.00020000 0.367927 -4.782 0.929835 -96.12 0.929835 -96.12 0.367904 -7.471
9.00040000 0.368070 -4.777 0.929779 -96.14 0.929779 -96.14 0.368046 -7.501
9.00060000 0.368213 -4.772 0.929722 -96.15 0.929722 -96.15 0.368189 -7.532
9.00080000 0.368357 -4.767 0.929665 -96.16 0.929665 -96.16 0.368333 -7.563
9.00100000 0.368501 -4.763 0.929607 -96.18 0.929607 -96.18 0.368477 -7.594
9.00120000 0.368646 -4.758 0.929550 -96.19 0.929550 -96.19 0.368622 -7.625
9.00140000 0.368792 -4.753 0.929492 -96.20 0.929492 -96.20 0.368768 -7.656
9.00160000 0.368938 -4.748 0.929434 -96.22 0.929434 -96.22 0.368914 -7.687
9.00180000 0.369086 -4.743 0.929375 -96.23 0.929375 -96.23 0.369061 -7.719
9.00200000 0.369234 -4.738 0.929316 -96.24 0.929316 -96.24 0.369209 -7.750
9.00220000 0.369382 -4.733 0.929257 -96.26 0.929257 -96.26 0.369358 -7.782
9.00240000 0.369532 -4.728 0.929198 -96.27 0.929198 -96.27 0.369507 -7.814
9.00260000 0.369682 -4.723 0.929138 -96.28 0.929138 -96.28 0.369657 -7.846
9.00280000 0.369833 -4.718 0.929078 -96.30 0.929078 -96.30 0.369808 -7.878
9.00300000 0.369984 -4.713 0.929017 -96.31 0.929017 -96.31 0.369959 -7.911
9.00320000 0.370136 -4.708 0.928957 -96.32 0.928957 -96.32 0.370111 -7.943
9.00340000 0.370290 -4.702 0.928895 -96.34 0.928895 -96.34 0.370264 -7.976
9.00360000 0.370443 -4.697 0.928834 -96.35 0.928834 -96.35 0.370418 -8.008
9.00380000 0.370598 -4.692 0.928772 -96.36 0.928772 -96.36 0.370572 -8.041
9.00400000 0.370753 -4.687 0.928710 -96.38 0.928710 -96.38 0.370728 -8.074
9.00420000 0.370909 -4.681 0.928648 -96.39 0.928648 -96.39 0.370884 -8.108
9.00440000 0.371066 -4.676 0.928585 -96.41 0.928585 -96.41 0.371040 -8.141
9.00460000 0.371224 -4.671 0.928522 -96.42 0.928522 -96.42 0.371198 -8.174
9.00480000 0.371383 -4.666 0.928458 -96.43 0.928458 -96.43 0.371356 -8.208
9.00500000 0.371542 -4.660 0.928395 -96.45 0.928395 -96.45 0.371516 -8.242
9.00520000 0.371702 -4.655 0.928330 -96.46 0.928330 -96.46 0.371675 -8.276
9.00540000 0.371863 -4.649 0.928266 -96.48 0.928266 -96.48 0.371836 -8.310
9.00560000 0.372025 -4.644 0.928201 -96.49 0.928201 -96.49 0.371998 -8.344
9.00580000 0.372187 -4.638 0.928136 -96.51 0.928136 -96.51 0.372160 -8.378
9.00600000 0.372351 -4.633 0.928070 -96.52 0.928070 -96.52 0.372324 -8.413
9.00620000 0.372515 -4.627 0.928004 -96.53 0.928004 -96.53 0.372488 -8.448
9.00640000 0.372680 -4.622 0.927938 -96.55 0.927938 -96.55 0.372653 -8.483
9.00660000 0.372846 -4.616 0.927871 -96.56 0.927871 -96.56 0.372818 -8.518
9.00680000 0.373013 -4.611 0.927804 -96.58 0.927804 -96.58 0.372985 -8.553
9.00700000 0.373180 -4.605 0.927736 -96.59 0.927736 -96.59 0.373153 -8.588
9.00720000 0.373349 -4.599 0.927668 -96.61 0.927668 -96.61 0.373321 -8.624
9.00740000 0.373518 -4.593 0.927600 -96.62 0.927600 -96.62 0.373490 -8.659
9.00760000 0.373689 -4.588 0.927531 -96.64 0.927531 -96.64 0.373660 -8.695
9.00780000 0.373860 -4.582 0.927462 -96.65 0.927462 -96.65 0.373831 -8.731
9.00800000 0.374032 -4.576 0.927393 -96.67 0.927393 -96.67 0.374003 -8.767
9.00820000 0.374205 -4.570 0.927323 -96.68 0.927323 -96.68 0.374176 -8.804
9.00840000 0.374379 -4.565 0.927252 -96.70 0.927252 -96.70 0.374350 -8.840
9.00860000 0.374554 -4.559 0.927182 -96.71 0.927182 -96.71 0.374525 -8.877
9.00880000 0.374730 -4.553 0.927110 -96.73 0.927110 -96.73 0.374701 -8.914
9.00900000 0.374906 -4.547 0.927039 -96.75 0.927039 -96.75 0.374877 -8.951
9.00920000 0.375084 -4.541 0.926967 -96.76 0.926967 -96.76 0.375055 -8.988
9.00940000 0.375263 -4.535 0.926894 -96.78 0.926894 -96.78 0.375233 -9.026
9.00960000 0.375442 -4.529 0.926822 -96.79 0.926822 -96.79 0.375413 -9.063
9.00980000 0.375623 -4.523 0.926748 -96.81 0.926748 -96.81 0.375593 -9.101
9.01000000 0.375805 -4.517 0.926675 -96.82 0.926675 -96.82 0.375775 -9.139
9.01020000 0.375987 -4.511 0.926600 -96.84 0.926600 -96.84 0.375957 -9.177
9.01040000 0.376171 -4.504 0.926526 -96.86 0.926526 -96.86 0.376141 -9.215
9.01060000 0.376356 -4.498 0.926451 -96.87 0.926451 -96.87 0.376325 -9.254
9.01080000 0.376541 -4.492 0.926375 -96.89 0.926375 -96.89 0.376511 -9.292
9.01100000 0.376728 -4.486 0.926299 -96.91 0.926299 -96.91 0.376697 -9.331
9.01120000 0.376916 -4.480 0.926222 -96.92 0.926222 -96.92 0.376885 -9.370
9.01140000 0.377105 -4.473 0.926145 -96.94 0.926145 -96.94 0.377073 -9.410
9.01160000 0.377294 -4.467 0.926068 -96.95 0.926068 -96.95 0.377263 -9.449
9.01180000 0.377485 -4.461 0.925990 -96.97 0.925990 -96.97 0.377454 -9.489
9.01200000 0.377677 -4.454 0.925912 -96.99 0.925912 -96.99 0.377646 -9.529
9.01220000 0.377870 -4.448 0.925833 -97.00 0.925833 -97.00 0.377839 -9.569
9.01240000 0.378065 -4.441 0.925753 -97.02 0.925753 -97.02 0.378033 -9.609
9.01260000 0.378260 -4.435 0.925673 -97.04 0.925673 -97.04 0.378228 -9.649
9.01280000 0.378456 -4.428 0.925593 -97.06 0.925593 -97.06 0.378424 -9.690
9.01300000 0.378654 -4.422 0.925512 -97.07 0.925512 -97.07 0.378621 -9.731
9.01320000 0.378853 -4.415 0.925431 -97.09 0.925431 -97.09 0.378820 -9.772
9.01340000 0.379052 -4.409 0.925349 -97.11 0.925349 -97.11 0.379019 -9.813
9.01360000 0.379253 -4.402 0.925266 -97.12 0.925266 -97.12 0.379220 -9.855
9.01380000 0.379456 -4.395 0.925183 -97.14 0.925183 -97.14 0.379422 -9.896
9.01400000 0.379659 -4.388 0.925100 -97.16 0.925100 -97.16 0.379625 -9.938
9.01420000 0.379864 -4.382 0.925015 -97.18 0.925015 -97.18 0.379830 -9.980
9.01440000 0.380069 -4.375 0.924931 -97.20 0.924931 -97.20 0.380035 -10.02
9.01460000 0.380276 -4.368 0.924846 -97.21 0.924846 -97.21 0.380242 -10.07
9.01480000 0.380484 -4.361 0.924760 -97.23 0.924760 -97.23 0.380450 -10.11
9.01500000 0.380694 -4.354 0.924673 -97.25 0.924673 -97.25 0.380659 -10.15
9.01520000 0.380904 -4.348 0.924587 -97.27 0.924587 -97.27 0.380870 -10.19
9.01540000 0.381116 -4.341 0.924499 -97.29 0.924499 -97.29 0.381081 -10.24
9.01560000 0.381330 -4.334 0.924411 -97.30 0.924411 -97.30 0.381294 -10.28
9.01580000 0.381544 -4.327 0.924322 -97.32 0.924322 -97.32 0.381509 -10.33
9.01600000 0.381760 -4.320 0.924233 -97.34 0.924233 -97.34 0.381724 -10.37
9.01620000 0.381977 -4.313 0.924143 -97.36 0.924143 -97.36 0.381941 -10.41
9.01640000 0.382195 -4.305 0.924053 -97.38 0.924053 -97.38 0.382159 -10.46
9.01660000 0.382415 -4.298 0.923962 -97.40 0.923962 -97.40 0.382379 -10.50
9.01680000 0.382636 -4.291 0.923870 -97.42 0.923870 -97.42 0.382600 -10.55
9.01700000 0.382859 -4.284 0.923778 -97.44 0.923778 -97.44 0.382822 -10.59
9.01720000 0.383083 -4.277 0.923685 -97.45 0.923685 -97.45 0.383046 -10.64
9.01740000 0.383308 -4.269 0.923591 -97.47 0.923591 -97.47 0.383271 -10.68
9.01760000 0.383534 -4.262 0.923497 -97.49 0.923497 -97.49 0.383497 -10.73
9.01780000 0.383762 -4.255 0.923402 -97.51 0.923402 -97.51 0.383725 -10.78
9.01800000 0.383992 -4.247 0.923306 -97.53 0.923306 -97.53 0.383954 -10.82
9.01820000 0.384223 -4.240 0.923210 -97.55 0.923210 -97.55 0.384185 -10.87
9.01840000 0.384455 -4.233 0.923113 -97.57 0.923113 -97.57 0.384417 -10.92
9.01860000 0.384689 -4.225 0.923016 -97.59 0.923016 -97.59 0.384651 -10.97
9.01880000 0.384924 -4.218 0.922917 -97.61 0.922917 -97.61 0.384886 -11.01
9.01900000 0.385161 -4.210 0.922818 -97.63 0.922818 -97.63 0.385122 -11.06
9.01920000 0.385400 -4.203 0.922719 -97.65 0.922719 -97.65 0.385360 -11.11
9.01940000 0.385639 -4.195 0.922618 -97.67 0.922618 -97.67 0.385600 -11.16
9.01960000 0.385881 -4.187 0.922517 -97.69 0.922517 -97.69 0.385841 -11.21
9.01980000 0.386124 -4.180 0.922415 -97.71 0.922415 -97.71 0.386084 -11.25
9.02000000 0.386368 -4.172 0.922313 -97.73 0.922313 -97.73 0.386328 -11.30
9.02020000 0.386615 -4.164 0.922209 -97.75 0.922209 -97.75 0.386574 -11.35
9.02040000 0.386862 -4.156 0.922105 -97.78 0.922105 -97.78 0.386822 -11.40
9.02060000 0.387112 -4.149 0.922000 -97.80 0.922000 -97.80 0.387071 -11.45
9.02080000 0.387363 -4.141 0.921895 -97.82 0.921895 -97.82 0.387322 -11.50
9.02100000 0.387615 -4.133 0.921788 -97.84 0.921788 -97.84 0.387574 -11.55
9.02120000 0.387870 -4.125 0.921681 -97.86 0.921681 -97.86 0.387828 -11.60
9.02140000 0.388126 -4.117 0.921573 -97.88 0.921573 -97.88 0.388084 -11.66
9.02160000 0.388384 -4.109 0.921464 -97.90 0.921464 -97.90 0.388342 -11.71
9.02180000 0.388643 -4.101 0.921355 -97.93 0.921355 -97.93 0.388601 -11.76
9.02200000 0.388904 -4.093 0.921244 -97.95 0.921244 -97.95 0.388862 -11.81
9.02220000 0.389167 -4.085 0.921133 -97.97 0.921133 -97.97 0.389125 -11.86
9.02240000 0.389432 -4.077 0.921021 -97.99 0.921021 -97.99 0.389389 -11.92
9.02260000 0.389699 -4.069 0.920908 -98.01 0.920908 -98.01 0.389655 -11.97
9.02280000 0.389967 -4.060 0.920794 -98.04 0.920794 -98.04 0.389924 -12.02
9.02300000 0.390238 -4.052 0.920679 -98.06 0.920679 -98.06 0.390194 -12.08
9.02320000 0.390510 -4.044 0.920564 -98.08 0.920564 -98.08 0.390465 -12.13
9.02340000 0.390784 -4.036 0.920447 -98.11 0.920447 -98.11 0.390739 -12.18
9.02360000 0.391060 -4.027 0.920330 -98.13 0.920330 -98.13 0.391015 -12.24
9.02380000 0.391338 -4.019 0.920211 -98.15 0.920211 -98.15 0.391292 -12.29
9.02400000 0.391617 -4.011 0.920092 -98.18 0.920092 -98.18 0.391572 -12.35
9.02420000 0.391899 -4.002 0.919972 -98.20 0.919972 -98.20 0.391853 -12.40
9.02440000 0.392183 -3.994 0.919851 -98.22 0.919851 -98.22 0.392137 -12.46
9.02460000 0.392469 -3.985 0.919729 -98.25 0.919729 -98.25 0.392422 -12.52
9.02480000 0.392756 -3.977 0.919606 -98.27 0.919606 -98.27 0.392710 -12.57
9.02500000 0.393046 -3.968 0.919482 -98.29 0.919482 -98.29 0.392999 -12.63
9.02520000 0.393338 -3.959 0.919356 -98.32 0.919356 -98.32 0.393291 -12.69
9.02540000 0.393632 -3.951 0.919230 -98.34 0.919230 -98.34 0.393584 -12.75
9.02560000 0.393928 -3.942 0.919103 -98.37 0.919103 -98.37 0.393880 -12.80
9.02580000 0.394227 -3.933 0.918975 -98.39 0.918975 -98.39 0.394178 -12.86
9.02600000 0.394527 -3.925 0.918846 -98.42 0.918846 -98.42 0.394478 -12.92
9.02620000 0.394830 -3.916 0.918716 -98.44 0.918716 -98.44 0.394781 -12.98
9.02640000 0.395135 -3.907 0.918584 -98.47 0.918584 -98.47 0.395085 -13.04
9.02660000 0.395442 -3.898 0.918452 -98.49 0.918452 -98.49 0.395392 -13.10
9.02680000 0.395751 -3.889 0.918318 -98.52 0.918318 -98.52 0.395701 -13.16
9.02700000 0.396063 -3.880 0.918184 -98.54 0.918184 -98.54 0.396012 -13.22
9.02720000 0.396377 -3.871 0.918048 -98.57 0.918048 -98.57 0.396326 -13.28
9.02740000 0.396693 -3.862 0.917911 -98.60 0.917911 -98.60 0.396642 -13.34
9.02760000 0.397012 -3.853 0.917773 -98.62 0.917773 -98.62 0.396960 -13.40
9.02780000 0.397333 -3.844 0.917634 -98.65 0.917634 -98.65 0.397281 -13.47
9.02800000 0.397656 -3.835 0.917493 -98.68 0.917493 -98.68 0.397604 -13.53
9.02820000 0.397982 -3.826 0.917352 -98.70 0.917352 -98.70 0.397930 -13.59
9.02840000 0.398311 -3.817 0.917209 -98.73 0.917209 -98.73 0.398258 -13.65