! Sonnet Data File
! From: emgraph Version : 16.52
! From Emgraph Data: Resonator2_cp
! Data File Written: 10/09/2017 14:45:42
!< HDATE 10/09/2017 13:27:58
!< MDATE 10/09/2017 13:27:58
!< PARAMS
!< Length = 400.0
!< Pwid1 = 2000.0
!< Width = 50.0
!< gap = 16.0
!< END PARAMS
# GHZ S MA R 47.40000
8.90000000 0.017777 17.905 0.999837 -73.64 0.999837 -73.64 0.017774 14.846
!< P1 F=8.9 Eeff=(5.03074334 -2.1789e-5) Z0=(47.3979938 1.04427e-4) R=0.0 C=0.0 
!< P2 F=8.9 Eeff=(5.03074334 -2.1789e-5) Z0=(47.3979938 1.04427e-4) R=0.0 C=0.0 
8.90010000 0.017768 17.925 0.999837 -73.64 0.999837 -73.64 0.017765 14.824
8.90020000 0.017759 17.945 0.999837 -73.64 0.999837 -73.64 0.017756 14.801
8.90030000 0.017750 17.965 0.999837 -73.64 0.999837 -73.64 0.017747 14.778
8.90040000 0.017741 17.985 0.999838 -73.64 0.999838 -73.64 0.017739 14.755
8.90050000 0.017733 18.005 0.999838 -73.64 0.999838 -73.64 0.017730 14.732
8.90060000 0.017724 18.025 0.999838 -73.65 0.999838 -73.65 0.017721 14.709
8.90070000 0.017715 18.045 0.999838 -73.65 0.999838 -73.65 0.017712 14.686
8.90080000 0.017706 18.066 0.999838 -73.65 0.999838 -73.65 0.017703 14.662
8.90090000 0.017697 18.086 0.999838 -73.65 0.999838 -73.65 0.017694 14.639
8.90100000 0.017688 18.107 0.999838 -73.65 0.999838 -73.65 0.017685 14.615
8.90110000 0.017678 18.128 0.999839 -73.65 0.999839 -73.65 0.017676 14.592
8.90120000 0.017669 18.148 0.999839 -73.65 0.999839 -73.65 0.017666 14.568
8.90130000 0.017660 18.169 0.999839 -73.66 0.999839 -73.66 0.017657 14.544
8.90140000 0.017651 18.190 0.999839 -73.66 0.999839 -73.66 0.017648 14.520
8.90150000 0.017642 18.211 0.999839 -73.66 0.999839 -73.66 0.017639 14.496
8.90160000 0.017633 18.233 0.999839 -73.66 0.999839 -73.66 0.017630 14.472
8.90170000 0.017623 18.254 0.999840 -73.66 0.999840 -73.66 0.017620 14.448
8.90180000 0.017614 18.275 0.999840 -73.66 0.999840 -73.66 0.017611 14.423
8.90190000 0.017605 18.297 0.999840 -73.67 0.999840 -73.67 0.017602 14.399
8.90200000 0.017596 18.318 0.999840 -73.67 0.999840 -73.67 0.017592 14.374
8.90210000 0.017586 18.340 0.999840 -73.67 0.999840 -73.67 0.017583 14.350
8.90220000 0.017577 18.362 0.999840 -73.67 0.999840 -73.67 0.017574 14.325
8.90230000 0.017567 18.384 0.999841 -73.67 0.999841 -73.67 0.017564 14.300
8.90240000 0.017558 18.406 0.999841 -73.67 0.999841 -73.67 0.017555 14.275
8.90250000 0.017548 18.428 0.999841 -73.67 0.999841 -73.67 0.017545 14.250
8.90260000 0.017539 18.450 0.999841 -73.68 0.999841 -73.68 0.017536 14.225
8.90270000 0.017529 18.472 0.999841 -73.68 0.999841 -73.68 0.017526 14.199
8.90280000 0.017520 18.495 0.999841 -73.68 0.999841 -73.68 0.017517 14.174
8.90290000 0.017510 18.517 0.999841 -73.68 0.999841 -73.68 0.017507 14.148
8.90300000 0.017501 18.540 0.999842 -73.68 0.999842 -73.68 0.017497 14.123
8.90310000 0.017491 18.563 0.999842 -73.68 0.999842 -73.68 0.017488 14.097
8.90320000 0.017481 18.585 0.999842 -73.69 0.999842 -73.69 0.017478 14.071
8.90330000 0.017471 18.608 0.999842 -73.69 0.999842 -73.69 0.017468 14.045
8.90340000 0.017462 18.631 0.999842 -73.69 0.999842 -73.69 0.017458 14.019
8.90350000 0.017452 18.655 0.999842 -73.69 0.999842 -73.69 0.017449 13.993
8.90360000 0.017442 18.678 0.999843 -73.69 0.999843 -73.69 0.017439 13.966
8.90370000 0.017432 18.701 0.999843 -73.69 0.999843 -73.69 0.017429 13.940
8.90380000 0.017422 18.725 0.999843 -73.69 0.999843 -73.69 0.017419 13.913
8.90390000 0.017412 18.748 0.999843 -73.70 0.999843 -73.70 0.017409 13.886
8.90400000 0.017403 18.772 0.999843 -73.70 0.999843 -73.70 0.017399 13.860
8.90410000 0.017393 18.796 0.999843 -73.70 0.999843 -73.70 0.017389 13.833
8.90420000 0.017383 18.820 0.999844 -73.70 0.999844 -73.70 0.017379 13.806
8.90430000 0.017372 18.844 0.999844 -73.70 0.999844 -73.70 0.017369 13.778
8.90440000 0.017362 18.868 0.999844 -73.70 0.999844 -73.70 0.017359 13.751
8.90450000 0.017352 18.893 0.999844 -73.71 0.999844 -73.71 0.017349 13.723
8.90460000 0.017342 18.917 0.999844 -73.71 0.999844 -73.71 0.017339 13.696
8.90470000 0.017332 18.942 0.999844 -73.71 0.999844 -73.71 0.017329 13.668
8.90480000 0.017322 18.967 0.999845 -73.71 0.999845 -73.71 0.017318 13.640
8.90490000 0.017312 18.991 0.999845 -73.71 0.999845 -73.71 0.017308 13.612
8.90500000 0.017301 19.016 0.999845 -73.71 0.999845 -73.71 0.017298 13.584
8.90510000 0.017291 19.042 0.999845 -73.71 0.999845 -73.71 0.017287 13.556
8.90520000 0.017281 19.067 0.999845 -73.72 0.999845 -73.72 0.017277 13.528
8.90530000 0.017270 19.092 0.999845 -73.72 0.999845 -73.72 0.017267 13.499
8.90540000 0.017260 19.118 0.999846 -73.72 0.999846 -73.72 0.017256 13.470
8.90550000 0.017249 19.143 0.999846 -73.72 0.999846 -73.72 0.017246 13.442
8.90560000 0.017239 19.169 0.999846 -73.72 0.999846 -73.72 0.017235 13.413
8.90570000 0.017228 19.195 0.999846 -73.72 0.999846 -73.72 0.017225 13.384
8.90580000 0.017218 19.221 0.999846 -73.73 0.999846 -73.73 0.017214 13.355
8.90590000 0.017207 19.247 0.999846 -73.73 0.999846 -73.73 0.017204 13.325
8.90600000 0.017197 19.273 0.999847 -73.73 0.999847 -73.73 0.017193 13.296
8.90610000 0.017186 19.300 0.999847 -73.73 0.999847 -73.73 0.017182 13.266
8.90620000 0.017175 19.326 0.999847 -73.73 0.999847 -73.73 0.017172 13.236
8.90630000 0.017165 19.353 0.999847 -73.73 0.999847 -73.73 0.017161 13.207
8.90640000 0.017154 19.380 0.999847 -73.74 0.999847 -73.74 0.017150 13.177
8.90650000 0.017143 19.407 0.999848 -73.74 0.999848 -73.74 0.017139 13.146
8.90660000 0.017132 19.434 0.999848 -73.74 0.999848 -73.74 0.017128 13.116
8.90670000 0.017121 19.461 0.999848 -73.74 0.999848 -73.74 0.017118 13.086
8.90680000 0.017110 19.488 0.999848 -73.74 0.999848 -73.74 0.017107 13.055
8.90690000 0.017100 19.516 0.999848 -73.74 0.999848 -73.74 0.017096 13.024
8.90700000 0.017089 19.544 0.999848 -73.75 0.999848 -73.75 0.017085 12.993
8.90710000 0.017078 19.571 0.999849 -73.75 0.999849 -73.75 0.017074 12.962
8.90720000 0.017066 19.599 0.999849 -73.75 0.999849 -73.75 0.017063 12.931
8.90730000 0.017055 19.627 0.999849 -73.75 0.999849 -73.75 0.017052 12.900
8.90740000 0.017044 19.656 0.999849 -73.75 0.999849 -73.75 0.017040 12.868
8.90750000 0.017033 19.684 0.999849 -73.75 0.999849 -73.75 0.017029 12.836
8.90760000 0.017022 19.713 0.999849 -73.76 0.999849 -73.76 0.017018 12.805
8.90770000 0.017011 19.741 0.999850 -73.76 0.999850 -73.76 0.017007 12.773
8.90780000 0.016999 19.770 0.999850 -73.76 0.999850 -73.76 0.016995 12.740
8.90790000 0.016988 19.799 0.999850 -73.76 0.999850 -73.76 0.016984 12.708
8.90800000 0.016977 19.829 0.999850 -73.76 0.999850 -73.76 0.016973 12.676
8.90810000 0.016965 19.858 0.999850 -73.76 0.999850 -73.76 0.016961 12.643
8.90820000 0.016954 19.887 0.999851 -73.77 0.999851 -73.77 0.016950 12.610
8.90830000 0.016942 19.917 0.999851 -73.77 0.999851 -73.77 0.016938 12.577
8.90840000 0.016931 19.947 0.999851 -73.77 0.999851 -73.77 0.016927 12.544
8.90850000 0.016919 19.977 0.999851 -73.77 0.999851 -73.77 0.016915 12.511
8.90860000 0.016908 20.007 0.999851 -73.77 0.999851 -73.77 0.016904 12.477
8.90870000 0.016896 20.037 0.999852 -73.77 0.999852 -73.77 0.016892 12.444
8.90880000 0.016885 20.068 0.999852 -73.78 0.999852 -73.78 0.016880 12.410
8.90890000 0.016873 20.098 0.999852 -73.78 0.999852 -73.78 0.016869 12.376
8.90900000 0.016861 20.129 0.999852 -73.78 0.999852 -73.78 0.016857 12.342
8.90910000 0.016849 20.160 0.999852 -73.78 0.999852 -73.78 0.016845 12.307
8.90920000 0.016838 20.191 0.999852 -73.78 0.999852 -73.78 0.016833 12.273
8.90930000 0.016826 20.223 0.999853 -73.78 0.999853 -73.78 0.016821 12.238
8.90940000 0.016814 20.254 0.999853 -73.79 0.999853 -73.79 0.016809 12.203
8.90950000 0.016802 20.286 0.999853 -73.79 0.999853 -73.79 0.016797 12.168
8.90960000 0.016790 20.318 0.999853 -73.79 0.999853 -73.79 0.016785 12.133
8.90970000 0.016778 20.350 0.999853 -73.79 0.999853 -73.79 0.016773 12.098
8.90980000 0.016766 20.382 0.999854 -73.79 0.999854 -73.79 0.016761 12.062
8.90990000 0.016754 20.414 0.999854 -73.80 0.999854 -73.80 0.016749 12.026
8.91000000 0.016741 20.447 0.999854 -73.80 0.999854 -73.80 0.016737 11.990
8.91010000 0.016729 20.480 0.999854 -73.80 0.999854 -73.80 0.016725 11.954
8.91020000 0.016717 20.512 0.999854 -73.80 0.999854 -73.80 0.016713 11.918
8.91030000 0.016705 20.546 0.999855 -73.80 0.999855 -73.80 0.016700 11.881
8.91040000 0.016692 20.579 0.999855 -73.80 0.999855 -73.80 0.016688 11.844
8.91050000 0.016680 20.612 0.999855 -73.81 0.999855 -73.81 0.016675 11.807
8.91060000 0.016668 20.646 0.999855 -73.81 0.999855 -73.81 0.016663 11.770
8.91070000 0.016655 20.680 0.999855 -73.81 0.999855 -73.81 0.016651 11.733
8.91080000 0.016643 20.714 0.999856 -73.81 0.999856 -73.81 0.016638 11.695
8.91090000 0.016630 20.748 0.999856 -73.81 0.999856 -73.81 0.016625 11.657
8.91100000 0.016618 20.783 0.999856 -73.81 0.999856 -73.81 0.016613 11.619
8.91110000 0.016605 20.817 0.999856 -73.82 0.999856 -73.82 0.016600 11.581
8.91120000 0.016592 20.852 0.999856 -73.82 0.999856 -73.82 0.016587 11.543
8.91130000 0.016579 20.887 0.999856 -73.82 0.999856 -73.82 0.016575 11.504
8.91140000 0.016567 20.923 0.999857 -73.82 0.999857 -73.82 0.016562 11.466
8.91150000 0.016554 20.958 0.999857 -73.82 0.999857 -73.82 0.016549 11.426
8.91160000 0.016541 20.994 0.999857 -73.83 0.999857 -73.83 0.016536 11.387
8.91170000 0.016528 21.030 0.999857 -73.83 0.999857 -73.83 0.016523 11.348
8.91180000 0.016515 21.066 0.999857 -73.83 0.999857 -73.83 0.016510 11.308
8.91190000 0.016502 21.102 0.999858 -73.83 0.999858 -73.83 0.016497 11.268
8.91200000 0.016489 21.139 0.999858 -73.83 0.999858 -73.83 0.016484 11.228
8.91210000 0.016476 21.175 0.999858 -73.83 0.999858 -73.83 0.016471 11.188
8.91220000 0.016463 21.212 0.999858 -73.84 0.999858 -73.84 0.016458 11.147
8.91230000 0.016450 21.250 0.999859 -73.84 0.999859 -73.84 0.016445 11.106
8.91240000 0.016437 21.287 0.999859 -73.84 0.999859 -73.84 0.016431 11.065
8.91250000 0.016423 21.325 0.999859 -73.84 0.999859 -73.84 0.016418 11.024
8.91260000 0.016410 21.363 0.999859 -73.84 0.999859 -73.84 0.016405 10.983
8.91270000 0.016397 21.401 0.999859 -73.85 0.999859 -73.85 0.016391 10.941
8.91280000 0.016383 21.439 0.999860 -73.85 0.999860 -73.85 0.016378 10.899
8.91290000 0.016370 21.478 0.999860 -73.85 0.999860 -73.85 0.016364 10.857
8.91300000 0.016356 21.516 0.999860 -73.85 0.999860 -73.85 0.016351 10.814
8.91310000 0.016343 21.555 0.999860 -73.85 0.999860 -73.85 0.016337 10.772
8.91320000 0.016329 21.595 0.999860 -73.85 0.999860 -73.85 0.016324 10.729
8.91330000 0.016315 21.634 0.999861 -73.86 0.999861 -73.86 0.016310 10.686
8.91340000 0.016302 21.674 0.999861 -73.86 0.999861 -73.86 0.016296 10.642
8.91350000 0.016288 21.714 0.999861 -73.86 0.999861 -73.86 0.016282 10.599
8.91360000 0.016274 21.754 0.999861 -73.86 0.999861 -73.86 0.016269 10.555
8.91370000 0.016260 21.795 0.999861 -73.86 0.999861 -73.86 0.016255 10.510
8.91380000 0.016246 21.835 0.999862 -73.87 0.999862 -73.87 0.016241 10.466
8.91390000 0.016232 21.876 0.999862 -73.87 0.999862 -73.87 0.016227 10.421
8.91400000 0.016218 21.918 0.999862 -73.87 0.999862 -73.87 0.016213 10.376
8.91410000 0.016204 21.959 0.999862 -73.87 0.999862 -73.87 0.016199 10.331
8.91420000 0.016190 22.001 0.999862 -73.87 0.999862 -73.87 0.016184 10.286
8.91430000 0.016176 22.043 0.999863 -73.88 0.999863 -73.88 0.016170 10.240
8.91440000 0.016162 22.085 0.999863 -73.88 0.999863 -73.88 0.016156 10.194
8.91450000 0.016147 22.128 0.999863 -73.88 0.999863 -73.88 0.016142 10.147
8.91460000 0.016133 22.171 0.999863 -73.88 0.999863 -73.88 0.016127 10.101
8.91470000 0.016119 22.214 0.999864 -73.88 0.999864 -73.88 0.016113 10.054
8.91480000 0.016104 22.257 0.999864 -73.89 0.999864 -73.89 0.016098 10.007
8.91490000 0.016090 22.301 0.999864 -73.89 0.999864 -73.89 0.016084 9.9592
8.91500000 0.016075 22.345 0.999864 -73.89 0.999864 -73.89 0.016069 9.9115
8.91510000 0.016061 22.389 0.999864 -73.89 0.999864 -73.89 0.016055 9.8635
8.91520000 0.016046 22.433 0.999865 -73.89 0.999865 -73.89 0.016040 9.8151
8.91530000 0.016031 22.478 0.999865 -73.90 0.999865 -73.90 0.016025 9.7665
8.91540000 0.016016 22.523 0.999865 -73.90 0.999865 -73.90 0.016011 9.7176
8.91550000 0.016002 22.569 0.999865 -73.90 0.999865 -73.90 0.015996 9.6684
8.91560000 0.015987 22.614 0.999865 -73.90 0.999865 -73.90 0.015981 9.6188
8.91570000 0.015972 22.660 0.999866 -73.90 0.999866 -73.90 0.015966 9.5690
8.91580000 0.015957 22.706 0.999866 -73.91 0.999866 -73.91 0.015951 9.5188
8.91590000 0.015942 22.753 0.999866 -73.91 0.999866 -73.91 0.015936 9.4684
8.91600000 0.015927 22.800 0.999866 -73.91 0.999866 -73.91 0.015921 9.4176
8.91610000 0.015912 22.847 0.999867 -73.91 0.999867 -73.91 0.015905 9.3665
8.91620000 0.015896 22.894 0.999867 -73.91 0.999867 -73.91 0.015890 9.3151
8.91630000 0.015881 22.942 0.999867 -73.92 0.999867 -73.92 0.015875 9.2633
8.91640000 0.015866 22.990 0.999867 -73.92 0.999867 -73.92 0.015860 9.2112
8.91650000 0.015850 23.039 0.999868 -73.92 0.999868 -73.92 0.015844 9.1588
8.91660000 0.015835 23.088 0.999868 -73.92 0.999868 -73.92 0.015829 9.1061
8.91670000 0.015819 23.137 0.999868 -73.92 0.999868 -73.92 0.015813 9.0530
8.91680000 0.015804 23.186 0.999868 -73.93 0.999868 -73.93 0.015798 8.9996
8.91690000 0.015788 23.236 0.999868 -73.93 0.999868 -73.93 0.015782 8.9458
8.91700000 0.015773 23.286 0.999869 -73.93 0.999869 -73.93 0.015766 8.8917
8.91710000 0.015757 23.336 0.999869 -73.93 0.999869 -73.93 0.015750 8.8373
8.91720000 0.015741 23.387 0.999869 -73.93 0.999869 -73.93 0.015735 8.7825
8.91730000 0.015725 23.438 0.999869 -73.94 0.999869 -73.94 0.015719 8.7273
8.91740000 0.015709 23.490 0.999870 -73.94 0.999870 -73.94 0.015703 8.6718
8.91750000 0.015693 23.542 0.999870 -73.94 0.999870 -73.94 0.015687 8.6159
8.91760000 0.015677 23.594 0.999870 -73.94 0.999870 -73.94 0.015671 8.5596
8.91770000 0.015661 23.646 0.999870 -73.94 0.999870 -73.94 0.015655 8.5030
8.91780000 0.015645 23.699 0.999870 -73.95 0.999870 -73.95 0.015638 8.4460
8.91790000 0.015629 23.753 0.999871 -73.95 0.999871 -73.95 0.015622 8.3886
8.91800000 0.015613 23.806 0.999871 -73.95 0.999871 -73.95 0.015606 8.3308
8.91810000 0.015596 23.860 0.999871 -73.95 0.999871 -73.95 0.015590 8.2726
8.91820000 0.015580 23.915 0.999871 -73.96 0.999871 -73.96 0.015573 8.2141
8.91830000 0.015564 23.969 0.999872 -73.96 0.999872 -73.96 0.015557 8.1551
8.91840000 0.015547 24.025 0.999872 -73.96 0.999872 -73.96 0.015540 8.0958
8.91850000 0.015530 24.080 0.999872 -73.96 0.999872 -73.96 0.015523 8.0361
8.91860000 0.015514 24.136 0.999872 -73.96 0.999872 -73.96 0.015507 7.9759
8.91870000 0.015497 24.193 0.999873 -73.97 0.999873 -73.97 0.015490 7.9153
8.91880000 0.015480 24.249 0.999873 -73.97 0.999873 -73.97 0.015473 7.8544
8.91890000 0.015463 24.306 0.999873 -73.97 0.999873 -73.97 0.015456 7.7930
8.91900000 0.015447 24.364 0.999873 -73.97 0.999873 -73.97 0.015439 7.7312
8.91910000 0.015430 24.422 0.999874 -73.97 0.999874 -73.97 0.015422 7.6689
8.91920000 0.015413 24.480 0.999874 -73.98 0.999874 -73.98 0.015405 7.6062
8.91930000 0.015395 24.539 0.999874 -73.98 0.999874 -73.98 0.015388 7.5431
8.91940000 0.015378 24.599 0.999874 -73.98 0.999874 -73.98 0.015371 7.4796
8.91950000 0.015361 24.658 0.999875 -73.98 0.999875 -73.98 0.015354 7.4156
8.91960000 0.015344 24.718 0.999875 -73.99 0.999875 -73.99 0.015336 7.3511
8.91970000 0.015326 24.779 0.999875 -73.99 0.999875 -73.99 0.015319 7.2862
8.91980000 0.015309 24.840 0.999875 -73.99 0.999875 -73.99 0.015301 7.2209
8.91990000 0.015291 24.901 0.999875 -73.99 0.999875 -73.99 0.015284 7.1551
8.92000000 0.015274 24.963 0.999876 -73.99 0.999876 -73.99 0.015266 7.0888
8.92010000 0.015256 25.026 0.999876 -74.00 0.999876 -74.00 0.015249 7.0220
8.92020000 0.015239 25.089 0.999876 -74.00 0.999876 -74.00 0.015231 6.9548
8.92030000 0.015221 25.152 0.999876 -74.00 0.999876 -74.00 0.015213 6.8870
8.92040000 0.015203 25.216 0.999877 -74.00 0.999877 -74.00 0.015195 6.8188
8.92050000 0.015185 25.280 0.999877 -74.01 0.999877 -74.01 0.015177 6.7501
8.92060000 0.015167 25.345 0.999877 -74.01 0.999877 -74.01 0.015159 6.6809
8.92070000 0.015149 25.410 0.999877 -74.01 0.999877 -74.01 0.015141 6.6112
8.92080000 0.015131 25.476 0.999878 -74.01 0.999878 -74.01 0.015123 6.5410
8.92090000 0.015113 25.542 0.999878 -74.02 0.999878 -74.02 0.015105 6.4702
8.92100000 0.015095 25.609 0.999878 -74.02 0.999878 -74.02 0.015086 6.3990
8.92110000 0.015076 25.676 0.999878 -74.02 0.999878 -74.02 0.015068 6.3272
8.92120000 0.015058 25.744 0.999879 -74.02 0.999879 -74.02 0.015050 6.2549
8.92130000 0.015039 25.812 0.999879 -74.02 0.999879 -74.02 0.015031 6.1820
8.92140000 0.015021 25.881 0.999879 -74.03 0.999879 -74.03 0.015012 6.1086
8.92150000 0.015002 25.951 0.999879 -74.03 0.999879 -74.03 0.014994 6.0347
8.92160000 0.014984 26.020 0.999880 -74.03 0.999880 -74.03 0.014975 5.9602
8.92170000 0.014965 26.091 0.999880 -74.03 0.999880 -74.03 0.014956 5.8851
8.92180000 0.014946 26.162 0.999880 -74.04 0.999880 -74.04 0.014937 5.8094
8.92190000 0.014927 26.234 0.999880 -74.04 0.999880 -74.04 0.014918 5.7332
8.92200000 0.014908 26.306 0.999881 -74.04 0.999881 -74.04 0.014899 5.6564
8.92210000 0.014889 26.378 0.999881 -74.04 0.999881 -74.04 0.014880 5.5791
8.92220000 0.014870 26.452 0.999881 -74.05 0.999881 -74.05 0.014861 5.5011
8.92230000 0.014851 26.526 0.999881 -74.05 0.999881 -74.05 0.014842 5.4225
8.92240000 0.014831 26.600 0.999882 -74.05 0.999882 -74.05 0.014822 5.3433
8.92250000 0.014812 26.675 0.999882 -74.05 0.999882 -74.05 0.014803 5.2635
8.92260000 0.014793 26.751 0.999882 -74.06 0.999882 -74.06 0.014784 5.1831
8.92270000 0.014773 26.827 0.999883 -74.06 0.999883 -74.06 0.014764 5.1021
8.92280000 0.014754 26.904 0.999883 -74.06 0.999883 -74.06 0.014744 5.0204
8.92290000 0.014734 26.982 0.999883 -74.06 0.999883 -74.06 0.014725 4.9381
8.92300000 0.014714 27.060 0.999883 -74.07 0.999883 -74.07 0.014705 4.8551
8.92310000 0.014695 27.139 0.999884 -74.07 0.999884 -74.07 0.014685 4.7715
8.92320000 0.014675 27.218 0.999884 -74.07 0.999884 -74.07 0.014665 4.6872
8.92330000 0.014655 27.298 0.999884 -74.07 0.999884 -74.07 0.014645 4.6022
8.92340000 0.014635 27.379 0.999884 -74.08 0.999884 -74.08 0.014625 4.5165
8.92350000 0.014615 27.460 0.999885 -74.08 0.999885 -74.08 0.014605 4.4302
8.92360000 0.014594 27.543 0.999885 -74.08 0.999885 -74.08 0.014585 4.3432
8.92370000 0.014574 27.625 0.999885 -74.08 0.999885 -74.08 0.014564 4.2554
8.92380000 0.014554 27.709 0.999885 -74.09 0.999885 -74.09 0.014544 4.1670
8.92390000 0.014533 27.793 0.999886 -74.09 0.999886 -74.09 0.014524 4.0778
8.92400000 0.014513 27.878 0.999886 -74.09 0.999886 -74.09 0.014503 3.9879
8.92410000 0.014492 27.964 0.999886 -74.09 0.999886 -74.09 0.014482 3.8972
8.92420000 0.014472 28.050 0.999886 -74.10 0.999886 -74.10 0.014462 3.8058
8.92430000 0.014451 28.137 0.999887 -74.10 0.999887 -74.10 0.014441 3.7137
8.92440000 0.014430 28.225 0.999887 -74.10 0.999887 -74.10 0.014420 3.6207
8.92450000 0.014409 28.314 0.999887 -74.10 0.999887 -74.10 0.014399 3.5270
8.92460000 0.014388 28.403 0.999888 -74.11 0.999888 -74.11 0.014378 3.4326
8.92470000 0.014367 28.493 0.999888 -74.11 0.999888 -74.11 0.014357 3.3373
8.92480000 0.014346 28.584 0.999888 -74.11 0.999888 -74.11 0.014336 3.2412
8.92490000 0.014325 28.676 0.999888 -74.11 0.999888 -74.11 0.014314 3.1443
8.92500000 0.014304 28.769 0.999889 -74.12 0.999889 -74.12 0.014293 3.0466
8.92510000 0.014282 28.862 0.999889 -74.12 0.999889 -74.12 0.014272 2.9481
8.92520000 0.014261 28.956 0.999889 -74.12 0.999889 -74.12 0.014250 2.8487
8.92530000 0.014240 29.051 0.999889 -74.13 0.999889 -74.13 0.014229 2.7484
8.92540000 0.014218 29.147 0.999890 -74.13 0.999890 -74.13 0.014207 2.6473
8.92550000 0.014196 29.244 0.999890 -74.13 0.999890 -74.13 0.014185 2.5453
8.92560000 0.014174 29.342 0.999890 -74.13 0.999890 -74.13 0.014163 2.4424
8.92570000 0.014153 29.440 0.999890 -74.14 0.999890 -74.14 0.014141 2.3387
8.92580000 0.014131 29.539 0.999891 -74.14 0.999891 -74.14 0.014119 2.2340
8.92590000 0.014109 29.640 0.999891 -74.14 0.999891 -74.14 0.014097 2.1284
8.92600000 0.014087 29.741 0.999891 -74.14 0.999891 -74.14 0.014075 2.0218
8.92610000 0.014064 29.843 0.999892 -74.15 0.999892 -74.15 0.014053 1.9144
8.92620000 0.014042 29.946 0.999892 -74.15 0.999892 -74.15 0.014031 1.8059
8.92630000 0.014020 30.050 0.999892 -74.15 0.999892 -74.15 0.014008 1.6965
8.92640000 0.013998 30.155 0.999892 -74.16 0.999892 -74.16 0.013986 1.5862
8.92650000 0.013975 30.261 0.999893 -74.16 0.999893 -74.16 0.013963 1.4748
8.92660000 0.013952 30.368 0.999893 -74.16 0.999893 -74.16 0.013940 1.3624
8.92670000 0.013930 30.476 0.999893 -74.16 0.999893 -74.16 0.013918 1.2490
8.92680000 0.013907 30.584 0.999893 -74.17 0.999893 -74.17 0.013895 1.1346
8.92690000 0.013884 30.694 0.999894 -74.17 0.999894 -74.17 0.013872 1.0191
8.92700000 0.013861 30.805 0.999894 -74.17 0.999894 -74.17 0.013849 0.9025
8.92710000 0.013838 30.917 0.999894 -74.18 0.999894 -74.18 0.013826 0.7849
8.92720000 0.013815 31.030 0.999895 -74.18 0.999895 -74.18 0.013803 0.6662
8.92730000 0.013792 31.145 0.999895 -74.18 0.999895 -74.18 0.013780 0.5464
8.92740000 0.013769 31.260 0.999895 -74.18 0.999895 -74.18 0.013756 0.4255
8.92750000 0.013746 31.376 0.999895 -74.19 0.999895 -74.19 0.013733 0.3035
8.92760000 0.013722 31.494 0.999896 -74.19 0.999896 -74.19 0.013709 0.1803
8.92770000 0.013699 31.612 0.999896 -74.19 0.999896 -74.19 0.013686 0.0559
8.92780000 0.013675 31.732 0.999896 -74.20 0.999896 -74.20 0.013662 -0.070
8.92790000 0.013652 31.853 0.999896 -74.20 0.999896 -74.20 0.013638 -0.196
8.92800000 0.013628 31.975 0.999897 -74.20 0.999897 -74.20 0.013615 -0.324
8.92810000 0.013604 32.098 0.999897 -74.21 0.999897 -74.21 0.013591 -0.453
8.92820000 0.013580 32.223 0.999897 -74.21 0.999897 -74.21 0.013567 -0.584
8.92830000 0.013556 32.349 0.999898 -74.21 0.999898 -74.21 0.013543 -0.715
8.92840000 0.013532 32.476 0.999898 -74.22 0.999898 -74.22 0.013519 -0.848
8.92850000 0.013508 32.604 0.999898 -74.22 0.999898 -74.22 0.013494 -0.983
8.92860000 0.013484 32.733 0.999898 -74.22 0.999898 -74.22 0.013470 -1.118
8.92870000 0.013460 32.864 0.999899 -74.22 0.999899 -74.22 0.013446 -1.255
8.92880000 0.013436 32.996 0.999899 -74.23 0.999899 -74.23 0.013421 -1.393
8.92890000 0.013411 33.130 0.999899 -74.23 0.999899 -74.23 0.013397 -1.533
8.92900000 0.013387 33.265 0.999900 -74.23 0.999900 -74.23 0.013372 -1.674
8.92910000 0.013362 33.401 0.999900 -74.24 0.999900 -74.24 0.013347 -1.816
8.92920000 0.013337 33.538 0.999900 -74.24 0.999900 -74.24 0.013323 -1.960
8.92930000 0.013313 33.678 0.999900 -74.24 0.999900 -74.24 0.013298 -2.105
8.92940000 0.013288 33.818 0.999901 -74.25 0.999901 -74.25 0.013273 -2.252
8.92950000 0.013263 33.960 0.999901 -74.25 0.999901 -74.25 0.013248 -2.400
8.92960000 0.013238 34.103 0.999901 -74.25 0.999901 -74.25 0.013223 -2.550
8.92970000 0.013213 34.248 0.999901 -74.26 0.999901 -74.26 0.013198 -2.701
8.92980000 0.013188 34.395 0.999902 -74.26 0.999902 -74.26 0.013172 -2.854
8.92990000 0.013163 34.542 0.999902 -74.26 0.999902 -74.26 0.013147 -3.008
8.93000000 0.013138 34.692 0.999902 -74.27 0.999902 -74.27 0.013122 -3.164
8.93010000 0.013112 34.843 0.999903 -74.27 0.999903 -74.27 0.013096 -3.321
8.93020000 0.013087 34.996 0.999903 -74.27 0.999903 -74.27 0.013071 -3.480
8.93030000 0.013061 35.150 0.999903 -74.28 0.999903 -74.28 0.013045 -3.641
8.93040000 0.013036 35.306 0.999903 -74.28 0.999903 -74.28 0.013020 -3.804
8.93050000 0.013010 35.464 0.999904 -74.28 0.999904 -74.28 0.012994 -3.968
8.93060000 0.012985 35.623 0.999904 -74.29 0.999904 -74.29 0.012968 -4.134
8.93070000 0.012959 35.784 0.999904 -74.29 0.999904 -74.29 0.012942 -4.302
8.93080000 0.012933 35.947 0.999904 -74.29 0.999904 -74.29 0.012916 -4.471
8.93090000 0.012907 36.111 0.999905 -74.30 0.999905 -74.30 0.012890 -4.642
8.93100000 0.012881 36.278 0.999905 -74.30 0.999905 -74.30 0.012864 -4.816
8.93110000 0.012856 36.446 0.999905 -74.30 0.999905 -74.30 0.012838 -4.991
8.93120000 0.012830 36.616 0.999906 -74.31 0.999906 -74.31 0.012812 -5.167
8.93130000 0.012803 36.788 0.999906 -74.31 0.999906 -74.31 0.012786 -5.346
8.93140000 0.012777 36.962 0.999906 -74.31 0.999906 -74.31 0.012760 -5.527
8.93150000 0.012751 37.137 0.999906 -74.32 0.999906 -74.32 0.012733 -5.710
8.93160000 0.012725 37.315 0.999907 -74.32 0.999907 -74.32 0.012707 -5.894
8.93170000 0.012699 37.495 0.999907 -74.33 0.999907 -74.33 0.012680 -6.081
8.93180000 0.012672 37.677 0.999907 -74.33 0.999907 -74.33 0.012654 -6.270
8.93190000 0.012646 37.860 0.999907 -74.33 0.999907 -74.33 0.012627 -6.461
8.93200000 0.012619 38.046 0.999908 -74.34 0.999908 -74.34 0.012601 -6.654
8.93210000 0.012593 38.234 0.999908 -74.34 0.999908 -74.34 0.012574 -6.849
8.93220000 0.012566 38.425 0.999908 -74.34 0.999908 -74.34 0.012547 -7.047
8.93230000 0.012540 38.617 0.999908 -74.35 0.999908 -74.35 0.012521 -7.246
8.93240000 0.012513 38.811 0.999909 -74.35 0.999909 -74.35 0.012494 -7.448
8.93250000 0.012487 39.008 0.999909 -74.36 0.999909 -74.36 0.012467 -7.652
8.93260000 0.012460 39.207 0.999909 -74.36 0.999909 -74.36 0.012440 -7.859
8.93270000 0.012433 39.409 0.999909 -74.36 0.999909 -74.36 0.012413 -8.068
8.93280000 0.012406 39.612 0.999910 -74.37 0.999910 -74.37 0.012386 -8.279
8.93290000 0.012380 39.818 0.999910 -74.37 0.999910 -74.37 0.012359 -8.492
8.93300000 0.012353 40.027 0.999910 -74.37 0.999910 -74.37 0.012332 -8.709
8.93310000 0.012326 40.238 0.999910 -74.38 0.999910 -74.38 0.012305 -8.927
8.93320000 0.012299 40.451 0.999911 -74.38 0.999911 -74.38 0.012278 -9.148
8.93330000 0.012272 40.667 0.999911 -74.39 0.999911 -74.39 0.012251 -9.372
8.93340000 0.012245 40.886 0.999911 -74.39 0.999911 -74.39 0.012224 -9.599
8.93350000 0.012219 41.107 0.999911 -74.39 0.999911 -74.39 0.012197 -9.828
8.93360000 0.012192 41.331 0.999912 -74.40 0.999912 -74.40 0.012170 -10.06
8.93370000 0.012165 41.558 0.999912 -74.40 0.999912 -74.40 0.012143 -10.29
8.93380000 0.012138 41.787 0.999912 -74.41 0.999912 -74.41 0.012116 -10.53
8.93390000 0.012111 42.019 0.999912 -74.41 0.999912 -74.41 0.012089 -10.77
8.93400000 0.012084 42.254 0.999913 -74.41 0.999913 -74.41 0.012061 -11.01
8.93410000 0.012057 42.491 0.999913 -74.42 0.999913 -74.42 0.012034 -11.26
8.93420000 0.012030 42.732 0.999913 -74.42 0.999913 -74.42 0.012007 -11.51
8.93430000 0.012004 42.975 0.999913 -74.43 0.999913 -74.43 0.011980 -11.76
8.93440000 0.011977 43.222 0.999914 -74.43 0.999914 -74.43 0.011953 -12.02
8.93450000 0.011950 43.471 0.999914 -74.44 0.999914 -74.44 0.011926 -12.27
8.93460000 0.011923 43.724 0.999914 -74.44 0.999914 -74.44 0.011899 -12.53
8.93470000 0.011896 43.980 0.999914 -74.44 0.999914 -74.44 0.011872 -12.80
8.93480000 0.011870 44.239 0.999915 -74.45 0.999915 -74.45 0.011845 -13.07
8.93490000 0.011843 44.501 0.999915 -74.45 0.999915 -74.45 0.011818 -13.34
8.93500000 0.011817 44.766 0.999915 -74.46 0.999915 -74.46 0.011792 -13.61
8.93510000 0.011790 45.035 0.999915 -74.46 0.999915 -74.46 0.011765 -13.89
8.93520000 0.011764 45.307 0.999915 -74.47 0.999915 -74.47 0.011738 -14.17
8.93530000 0.011737 45.582 0.999916 -74.47 0.999916 -74.47 0.011712 -14.45
8.93540000 0.011711 45.861 0.999916 -74.48 0.999916 -74.48 0.011685 -14.74
8.93550000 0.011685 46.144 0.999916 -74.48 0.999916 -74.48 0.011658 -15.03
8.93560000 0.011659 46.430 0.999916 -74.48 0.999916 -74.48 0.011632 -15.33
8.93570000 0.011633 46.720 0.999916 -74.49 0.999916 -74.49 0.011606 -15.63
8.93580000 0.011607 47.013 0.999917 -74.49 0.999917 -74.49 0.011580 -15.93
8.93590000 0.011581 47.310 0.999917 -74.50 0.999917 -74.50 0.011553 -16.24
8.93600000 0.011555 47.611 0.999917 -74.50 0.999917 -74.50 0.011527 -16.55
8.93610000 0.011530 47.915 0.999917 -74.51 0.999917 -74.51 0.011502 -16.86
8.93620000 0.011504 48.224 0.999917 -74.51 0.999917 -74.51 0.011476 -17.18
8.93630000 0.011479 48.536 0.999917 -74.52 0.999917 -74.52 0.011450 -17.50
8.93640000 0.011454 48.853 0.999918 -74.52 0.999918 -74.52 0.011425 -17.83
8.93650000 0.011429 49.174 0.999918 -74.53 0.999918 -74.53 0.011400 -18.16
8.93660000 0.011404 49.498 0.999918 -74.53 0.999918 -74.53 0.011374 -18.49
8.93670000 0.011379 49.827 0.999918 -74.54 0.999918 -74.54 0.011349 -18.83
8.93680000 0.011355 50.160 0.999918 -74.54 0.999918 -74.54 0.011325 -19.18
8.93690000 0.011330 50.497 0.999918 -74.55 0.999918 -74.55 0.011300 -19.52
8.93700000 0.011306 50.839 0.999919 -74.55 0.999919 -74.55 0.011276 -19.88
8.93710000 0.011282 51.185 0.999919 -74.56 0.999919 -74.56 0.011251 -20.23
8.93720000 0.011259 51.536 0.999919 -74.56 0.999919 -74.56 0.011228 -20.59
8.93730000 0.011235 51.891 0.999919 -74.57 0.999919 -74.57 0.011204 -20.96
8.93740000 0.011212 52.250 0.999919 -74.57 0.999919 -74.57 0.011180 -21.33
8.93750000 0.011189 52.615 0.999919 -74.58 0.999919 -74.58 0.011157 -21.70
8.93760000 0.011167 52.984 0.999919 -74.58 0.999919 -74.58 0.011134 -22.08
8.93770000 0.011144 53.357 0.999919 -74.59 0.999919 -74.59 0.011111 -22.47
8.93780000 0.011122 53.736 0.999920 -74.59 0.999920 -74.59 0.011089 -22.86
8.93790000 0.011101 54.119 0.999920 -74.60 0.999920 -74.60 0.011067 -23.25
8.93800000 0.011079 54.508 0.999920 -74.60 0.999920 -74.60 0.011045 -23.65
8.93810000 0.011058 54.901 0.999920 -74.61 0.999920 -74.61 0.011024 -24.06
8.93820000 0.011038 55.299 0.999920 -74.61 0.999920 -74.61 0.011003 -24.47
8.93830000 0.011017 55.703 0.999920 -74.62 0.999920 -74.62 0.010982 -24.88
8.93840000 0.010998 56.111 0.999920 -74.63 0.999920 -74.63 0.010962 -25.30
8.93850000 0.010978 56.525 0.999920 -74.63 0.999920 -74.63 0.010942 -25.73
8.93860000 0.010959 56.944 0.999920 -74.64 0.999920 -74.64 0.010923 -26.16
8.93870000 0.010940 57.369 0.999920 -74.64 0.999920 -74.64 0.010904 -26.60
8.93880000 0.010922 57.798 0.999920 -74.65 0.999920 -74.65 0.010885 -27.04
8.93890000 0.010904 58.233 0.999920 -74.65 0.999920 -74.65 0.010867 -27.49
8.93900000 0.010887 58.674 0.999920 -74.66 0.999920 -74.66 0.010849 -27.94
8.93910000 0.010871 59.120 0.999920 -74.67 0.999920 -74.67 0.010832 -28.40
8.93920000 0.010854 59.572 0.999920 -74.67 0.999920 -74.67 0.010816 -28.87