! Sonnet Data File
! From: emgraph Version : 16.52
! From Project: Resonator2_cp_varyW
! Data is De-embedded 
! Data File Written: 10/09/2017 07:41:30
!< HDATE 10/08/2017 22:10:33
!< MDATE 10/08/2017 22:10:33
!< PARAMS
!< Length = 400.0
!< Pwid1 = 2000.0
!< Pwid2 = 2000.0
!< Air_gap = 18.0
!< Width = 30.0
!< gap = 6.0
!< END PARAMS
# GHZ S MA R 43.05000
8.90000000 0.024341 17.796 0.999697 -75.45 0.999697 -75.45 0.024336 11.336
!< P1 F=8.9 Eeff=(5.1612639 -2.2548e-5) Z0=(43.0590329 9.5502e-5) R=0.0 C=0.0 
!< P2 F=8.9 Eeff=(5.1612639 -2.2548e-5) Z0=(43.0590329 9.5502e-5) R=0.0 C=0.0 
8.90010000 0.024326 17.819 0.999698 -75.45 0.999698 -75.45 0.024321 11.309
8.90020000 0.024312 17.843 0.999698 -75.45 0.999698 -75.45 0.024307 11.282
8.90030000 0.024297 17.867 0.999698 -75.45 0.999698 -75.45 0.024293 11.254
8.90040000 0.024283 17.891 0.999699 -75.45 0.999699 -75.45 0.024278 11.226
8.90050000 0.024268 17.915 0.999699 -75.46 0.999699 -75.46 0.024263 11.199
8.90060000 0.024254 17.939 0.999699 -75.46 0.999699 -75.46 0.024249 11.171
8.90070000 0.024239 17.963 0.999700 -75.46 0.999700 -75.46 0.024234 11.143
8.90080000 0.024224 17.987 0.999700 -75.46 0.999700 -75.46 0.024220 11.115
8.90090000 0.024210 18.012 0.999700 -75.46 0.999700 -75.46 0.024205 11.086
8.90100000 0.024195 18.036 0.999701 -75.47 0.999701 -75.47 0.024190 11.058
8.90110000 0.024180 18.061 0.999701 -75.47 0.999701 -75.47 0.024175 11.030
8.90120000 0.024165 18.086 0.999701 -75.47 0.999701 -75.47 0.024160 11.001
8.90130000 0.024150 18.111 0.999702 -75.47 0.999702 -75.47 0.024145 10.972
8.90140000 0.024135 18.136 0.999702 -75.47 0.999702 -75.47 0.024130 10.943
8.90150000 0.024120 18.161 0.999702 -75.47 0.999702 -75.47 0.024115 10.914
8.90160000 0.024105 18.186 0.999703 -75.48 0.999703 -75.48 0.024100 10.885
8.90170000 0.024090 18.211 0.999703 -75.48 0.999703 -75.48 0.024085 10.856
8.90180000 0.024075 18.237 0.999703 -75.48 0.999703 -75.48 0.024070 10.827
8.90190000 0.024060 18.262 0.999704 -75.48 0.999704 -75.48 0.024055 10.797
8.90200000 0.024045 18.288 0.999704 -75.48 0.999704 -75.48 0.024040 10.768
8.90210000 0.024030 18.314 0.999704 -75.49 0.999704 -75.49 0.024025 10.738
8.90220000 0.024014 18.340 0.999705 -75.49 0.999705 -75.49 0.024009 10.708
8.90230000 0.023999 18.366 0.999705 -75.49 0.999705 -75.49 0.023994 10.678
8.90240000 0.023984 18.392 0.999705 -75.49 0.999705 -75.49 0.023979 10.648
8.90250000 0.023968 18.419 0.999706 -75.49 0.999706 -75.49 0.023963 10.618
8.90260000 0.023953 18.445 0.999706 -75.50 0.999706 -75.50 0.023948 10.587
8.90270000 0.023937 18.472 0.999707 -75.50 0.999707 -75.50 0.023932 10.557
8.90280000 0.023922 18.498 0.999707 -75.50 0.999707 -75.50 0.023917 10.526
8.90290000 0.023906 18.525 0.999707 -75.50 0.999707 -75.50 0.023901 10.495
8.90300000 0.023891 18.552 0.999708 -75.50 0.999708 -75.50 0.023885 10.464
8.90310000 0.023875 18.579 0.999708 -75.51 0.999708 -75.51 0.023870 10.433
8.90320000 0.023859 18.606 0.999708 -75.51 0.999708 -75.51 0.023854 10.402
8.90330000 0.023843 18.634 0.999709 -75.51 0.999709 -75.51 0.023838 10.371
8.90340000 0.023828 18.661 0.999709 -75.51 0.999709 -75.51 0.023822 10.339
8.90350000 0.023812 18.689 0.999709 -75.51 0.999709 -75.51 0.023806 10.308
8.90360000 0.023796 18.717 0.999710 -75.52 0.999710 -75.52 0.023790 10.276
8.90370000 0.023780 18.745 0.999710 -75.52 0.999710 -75.52 0.023774 10.244
8.90380000 0.023764 18.773 0.999711 -75.52 0.999711 -75.52 0.023758 10.212
8.90390000 0.023748 18.801 0.999711 -75.52 0.999711 -75.52 0.023742 10.180
8.90400000 0.023732 18.829 0.999711 -75.52 0.999711 -75.52 0.023726 10.147
8.90410000 0.023716 18.858 0.999712 -75.53 0.999712 -75.53 0.023710 10.115
8.90420000 0.023699 18.886 0.999712 -75.53 0.999712 -75.53 0.023694 10.082
8.90430000 0.023683 18.915 0.999712 -75.53 0.999712 -75.53 0.023678 10.050
8.90440000 0.023667 18.944 0.999713 -75.53 0.999713 -75.53 0.023661 10.017
8.90450000 0.023651 18.973 0.999713 -75.54 0.999713 -75.54 0.023645 9.9835
8.90460000 0.023634 19.002 0.999713 -75.54 0.999713 -75.54 0.023628 9.9503
8.90470000 0.023618 19.031 0.999714 -75.54 0.999714 -75.54 0.023612 9.9169
8.90480000 0.023601 19.061 0.999714 -75.54 0.999714 -75.54 0.023596 9.8833
8.90490000 0.023585 19.090 0.999715 -75.54 0.999715 -75.54 0.023579 9.8496
8.90500000 0.023568 19.120 0.999715 -75.55 0.999715 -75.55 0.023562 9.8157
8.90510000 0.023551 19.150 0.999715 -75.55 0.999715 -75.55 0.023546 9.7817
8.90520000 0.023535 19.180 0.999716 -75.55 0.999716 -75.55 0.023529 9.7475
8.90530000 0.023518 19.210 0.999716 -75.55 0.999716 -75.55 0.023512 9.7132
8.90540000 0.023501 19.241 0.999716 -75.55 0.999716 -75.55 0.023495 9.6787
8.90550000 0.023484 19.271 0.999717 -75.56 0.999717 -75.56 0.023479 9.6440
8.90560000 0.023468 19.302 0.999717 -75.56 0.999717 -75.56 0.023462 9.6092
8.90570000 0.023451 19.333 0.999718 -75.56 0.999718 -75.56 0.023445 9.5742
8.90580000 0.023434 19.364 0.999718 -75.56 0.999718 -75.56 0.023428 9.5391
8.90590000 0.023417 19.395 0.999718 -75.56 0.999718 -75.56 0.023411 9.5037
8.90600000 0.023400 19.426 0.999719 -75.57 0.999719 -75.57 0.023394 9.4683
8.90610000 0.023382 19.458 0.999719 -75.57 0.999719 -75.57 0.023376 9.4326
8.90620000 0.023365 19.489 0.999720 -75.57 0.999720 -75.57 0.023359 9.3968
8.90630000 0.023348 19.521 0.999720 -75.57 0.999720 -75.57 0.023342 9.3608
8.90640000 0.023331 19.553 0.999720 -75.58 0.999720 -75.58 0.023325 9.3246
8.90650000 0.023313 19.585 0.999721 -75.58 0.999721 -75.58 0.023307 9.2882
8.90660000 0.023296 19.618 0.999721 -75.58 0.999721 -75.58 0.023290 9.2517
8.90670000 0.023278 19.650 0.999721 -75.58 0.999721 -75.58 0.023272 9.2150
8.90680000 0.023261 19.683 0.999722 -75.58 0.999722 -75.58 0.023255 9.1781
8.90690000 0.023243 19.715 0.999722 -75.59 0.999722 -75.59 0.023237 9.1411
8.90700000 0.023226 19.748 0.999723 -75.59 0.999723 -75.59 0.023220 9.1038
8.90710000 0.023208 19.782 0.999723 -75.59 0.999723 -75.59 0.023202 9.0664
8.90720000 0.023190 19.815 0.999723 -75.59 0.999723 -75.59 0.023184 9.0288
8.90730000 0.023173 19.848 0.999724 -75.59 0.999724 -75.59 0.023166 8.9910
8.90740000 0.023155 19.882 0.999724 -75.60 0.999724 -75.60 0.023148 8.9531
8.90750000 0.023137 19.916 0.999725 -75.60 0.999725 -75.60 0.023131 8.9149
8.90760000 0.023119 19.950 0.999725 -75.60 0.999725 -75.60 0.023113 8.8765
8.90770000 0.023101 19.984 0.999725 -75.60 0.999725 -75.60 0.023095 8.8380
8.90780000 0.023083 20.018 0.999726 -75.61 0.999726 -75.61 0.023076 8.7993
8.90790000 0.023065 20.053 0.999726 -75.61 0.999726 -75.61 0.023058 8.7603
8.90800000 0.023047 20.088 0.999727 -75.61 0.999727 -75.61 0.023040 8.7212
8.90810000 0.023028 20.123 0.999727 -75.61 0.999727 -75.61 0.023022 8.6819
8.90820000 0.023010 20.158 0.999727 -75.61 0.999727 -75.61 0.023004 8.6424
8.90830000 0.022992 20.193 0.999728 -75.62 0.999728 -75.62 0.022985 8.6027
8.90840000 0.022973 20.229 0.999728 -75.62 0.999728 -75.62 0.022967 8.5628
8.90850000 0.022955 20.264 0.999729 -75.62 0.999729 -75.62 0.022948 8.5226
8.90860000 0.022937 20.300 0.999729 -75.62 0.999729 -75.62 0.022930 8.4823
8.90870000 0.022918 20.336 0.999729 -75.63 0.999729 -75.63 0.022911 8.4418
8.90880000 0.022899 20.373 0.999730 -75.63 0.999730 -75.63 0.022893 8.4011
8.90890000 0.022881 20.409 0.999730 -75.63 0.999730 -75.63 0.022874 8.3601
8.90900000 0.022862 20.446 0.999731 -75.63 0.999731 -75.63 0.022855 8.3190
8.90910000 0.022843 20.483 0.999731 -75.63 0.999731 -75.63 0.022836 8.2776
8.90920000 0.022824 20.520 0.999731 -75.64 0.999731 -75.64 0.022817 8.2361
8.90930000 0.022805 20.557 0.999732 -75.64 0.999732 -75.64 0.022799 8.1943
8.90940000 0.022787 20.595 0.999732 -75.64 0.999732 -75.64 0.022780 8.1523
8.90950000 0.022768 20.632 0.999733 -75.64 0.999733 -75.64 0.022760 8.1100
8.90960000 0.022748 20.670 0.999733 -75.65 0.999733 -75.65 0.022741 8.0676
8.90970000 0.022729 20.708 0.999734 -75.65 0.999734 -75.65 0.022722 8.0249
8.90980000 0.022710 20.747 0.999734 -75.65 0.999734 -75.65 0.022703 7.9821
8.90990000 0.022691 20.785 0.999734 -75.65 0.999734 -75.65 0.022684 7.9389
8.91000000 0.022672 20.824 0.999735 -75.66 0.999735 -75.66 0.022664 7.8956
8.91010000 0.022652 20.863 0.999735 -75.66 0.999735 -75.66 0.022645 7.8520
8.91020000 0.022633 20.902 0.999736 -75.66 0.999736 -75.66 0.022625 7.8082
8.91030000 0.022613 20.942 0.999736 -75.66 0.999736 -75.66 0.022606 7.7642
8.91040000 0.022594 20.982 0.999736 -75.66 0.999736 -75.66 0.022586 7.7200
8.91050000 0.022574 21.021 0.999737 -75.67 0.999737 -75.67 0.022567 7.6755
8.91060000 0.022554 21.062 0.999737 -75.67 0.999737 -75.67 0.022547 7.6307
8.91070000 0.022535 21.102 0.999738 -75.67 0.999738 -75.67 0.022527 7.5857
8.91080000 0.022515 21.142 0.999738 -75.67 0.999738 -75.67 0.022507 7.5405
8.91090000 0.022495 21.183 0.999739 -75.68 0.999739 -75.68 0.022487 7.4951
8.91100000 0.022475 21.224 0.999739 -75.68 0.999739 -75.68 0.022467 7.4494
8.91110000 0.022455 21.266 0.999739 -75.68 0.999739 -75.68 0.022447 7.4034
8.91120000 0.022435 21.307 0.999740 -75.68 0.999740 -75.68 0.022427 7.3572
8.91130000 0.022415 21.349 0.999740 -75.69 0.999740 -75.69 0.022407 7.3108
8.91140000 0.022395 21.391 0.999741 -75.69 0.999741 -75.69 0.022387 7.2640
8.91150000 0.022374 21.433 0.999741 -75.69 0.999741 -75.69 0.022367 7.2171
8.91160000 0.022354 21.476 0.999742 -75.69 0.999742 -75.69 0.022346 7.1699
8.91170000 0.022334 21.518 0.999742 -75.70 0.999742 -75.70 0.022326 7.1224
8.91180000 0.022313 21.561 0.999742 -75.70 0.999742 -75.70 0.022305 7.0746
8.91190000 0.022293 21.605 0.999743 -75.70 0.999743 -75.70 0.022285 7.0266
8.91200000 0.022272 21.648 0.999743 -75.70 0.999743 -75.70 0.022264 6.9784
8.91210000 0.022252 21.692 0.999744 -75.71 0.999744 -75.71 0.022244 6.9298
8.91220000 0.022231 21.736 0.999744 -75.71 0.999744 -75.71 0.022223 6.8810
8.91230000 0.022210 21.780 0.999745 -75.71 0.999745 -75.71 0.022202 6.8319
8.91240000 0.022189 21.825 0.999745 -75.71 0.999745 -75.71 0.022181 6.7826
8.91250000 0.022168 21.869 0.999746 -75.72 0.999746 -75.72 0.022160 6.7329
8.91260000 0.022147 21.915 0.999746 -75.72 0.999746 -75.72 0.022139 6.6830
8.91270000 0.022126 21.960 0.999746 -75.72 0.999746 -75.72 0.022118 6.6328
8.91280000 0.022105 22.005 0.999747 -75.72 0.999747 -75.72 0.022097 6.5823
8.91290000 0.022084 22.051 0.999747 -75.73 0.999747 -75.73 0.022076 6.5316
8.91300000 0.022063 22.098 0.999748 -75.73 0.999748 -75.73 0.022055 6.4805
8.91310000 0.022042 22.144 0.999748 -75.73 0.999748 -75.73 0.022033 6.4292
8.91320000 0.022020 22.191 0.999749 -75.73 0.999749 -75.73 0.022012 6.3775
8.91330000 0.021999 22.238 0.999749 -75.74 0.999749 -75.74 0.021990 6.3256
8.91340000 0.021977 22.285 0.999750 -75.74 0.999750 -75.74 0.021969 6.2733
8.91350000 0.021956 22.333 0.999750 -75.74 0.999750 -75.74 0.021947 6.2208
8.91360000 0.021934 22.381 0.999750 -75.74 0.999750 -75.74 0.021926 6.1679
8.91370000 0.021912 22.429 0.999751 -75.75 0.999751 -75.75 0.021904 6.1148
8.91380000 0.021891 22.477 0.999751 -75.75 0.999751 -75.75 0.021882 6.0613
8.91390000 0.021869 22.526 0.999752 -75.75 0.999752 -75.75 0.021860 6.0075
8.91400000 0.021847 22.575 0.999752 -75.75 0.999752 -75.75 0.021838 5.9534
8.91410000 0.021825 22.624 0.999753 -75.76 0.999753 -75.76 0.021816 5.8990
8.91420000 0.021803 22.674 0.999753 -75.76 0.999753 -75.76 0.021794 5.8443
8.91430000 0.021781 22.724 0.999754 -75.76 0.999754 -75.76 0.021772 5.7893
8.91440000 0.021759 22.774 0.999754 -75.76 0.999754 -75.76 0.021750 5.7339
8.91450000 0.021736 22.825 0.999755 -75.77 0.999755 -75.77 0.021727 5.6782
8.91460000 0.021714 22.876 0.999755 -75.77 0.999755 -75.77 0.021705 5.6221
8.91470000 0.021691 22.927 0.999755 -75.77 0.999755 -75.77 0.021682 5.5657
8.91480000 0.021669 22.979 0.999756 -75.77 0.999756 -75.77 0.021660 5.5090
8.91490000 0.021646 23.031 0.999756 -75.78 0.999756 -75.78 0.021637 5.4520
8.91500000 0.021624 23.083 0.999757 -75.78 0.999757 -75.78 0.021615 5.3946
8.91510000 0.021601 23.136 0.999757 -75.78 0.999757 -75.78 0.021592 5.3368
8.91520000 0.021578 23.188 0.999758 -75.78 0.999758 -75.78 0.021569 5.2787
8.91530000 0.021555 23.242 0.999758 -75.79 0.999758 -75.79 0.021546 5.2203
8.91540000 0.021533 23.295 0.999759 -75.79 0.999759 -75.79 0.021523 5.1615
8.91550000 0.021510 23.349 0.999759 -75.79 0.999759 -75.79 0.021500 5.1023
8.91560000 0.021486 23.404 0.999760 -75.80 0.999760 -75.80 0.021477 5.0428
8.91570000 0.021463 23.458 0.999760 -75.80 0.999760 -75.80 0.021454 4.9829
8.91580000 0.021440 23.513 0.999761 -75.80 0.999761 -75.80 0.021430 4.9226
8.91590000 0.021417 23.569 0.999761 -75.80 0.999761 -75.80 0.021407 4.8620
8.91600000 0.021393 23.624 0.999762 -75.81 0.999762 -75.81 0.021384 4.8010
8.91610000 0.021370 23.680 0.999762 -75.81 0.999762 -75.81 0.021360 4.7396
8.91620000 0.021346 23.737 0.999762 -75.81 0.999762 -75.81 0.021337 4.6778
8.91630000 0.021323 23.794 0.999763 -75.81 0.999763 -75.81 0.021313 4.6157
8.91640000 0.021299 23.851 0.999763 -75.82 0.999763 -75.82 0.021289 4.5531
8.91650000 0.021275 23.908 0.999764 -75.82 0.999764 -75.82 0.021265 4.4902
8.91660000 0.021252 23.966 0.999764 -75.82 0.999764 -75.82 0.021242 4.4268
8.91670000 0.021228 24.025 0.999765 -75.83 0.999765 -75.83 0.021218 4.3631
8.91680000 0.021204 24.083 0.999765 -75.83 0.999765 -75.83 0.021194 4.2989
8.91690000 0.021180 24.143 0.999766 -75.83 0.999766 -75.83 0.021169 4.2344
8.91700000 0.021156 24.202 0.999766 -75.83 0.999766 -75.83 0.021145 4.1694
8.91710000 0.021131 24.262 0.999767 -75.84 0.999767 -75.84 0.021121 4.1040
8.91720000 0.021107 24.322 0.999767 -75.84 0.999767 -75.84 0.021097 4.0382
8.91730000 0.021083 24.383 0.999768 -75.84 0.999768 -75.84 0.021072 3.9719
8.91740000 0.021058 24.444 0.999768 -75.84 0.999768 -75.84 0.021048 3.9053
8.91750000 0.021034 24.506 0.999769 -75.85 0.999769 -75.85 0.021023 3.8382
8.91760000 0.021009 24.568 0.999769 -75.85 0.999769 -75.85 0.020998 3.7707
8.91770000 0.020984 24.630 0.999770 -75.85 0.999770 -75.85 0.020974 3.7027
8.91780000 0.020960 24.693 0.999770 -75.86 0.999770 -75.86 0.020949 3.6343
8.91790000 0.020935 24.756 0.999771 -75.86 0.999771 -75.86 0.020924 3.5654
8.91800000 0.020910 24.820 0.999771 -75.86 0.999771 -75.86 0.020899 3.4961
8.91810000 0.020885 24.884 0.999772 -75.86 0.999772 -75.86 0.020874 3.4263
8.91820000 0.020860 24.949 0.999772 -75.87 0.999772 -75.87 0.020849 3.3561
8.91830000 0.020835 25.014 0.999773 -75.87 0.999773 -75.87 0.020823 3.2854
8.91840000 0.020809 25.079 0.999773 -75.87 0.999773 -75.87 0.020798 3.2142
8.91850000 0.020784 25.145 0.999774 -75.88 0.999774 -75.88 0.020773 3.1425
8.91860000 0.020759 25.212 0.999774 -75.88 0.999774 -75.88 0.020747 3.0704
8.91870000 0.020733 25.279 0.999775 -75.88 0.999775 -75.88 0.020722 2.9978
8.91880000 0.020707 25.346 0.999775 -75.89 0.999775 -75.89 0.020696 2.9247
8.91890000 0.020682 25.414 0.999776 -75.89 0.999776 -75.89 0.020670 2.8510
8.91900000 0.020656 25.482 0.999776 -75.89 0.999776 -75.89 0.020645 2.7769
8.91910000 0.020630 25.551 0.999777 -75.89 0.999777 -75.89 0.020619 2.7023
8.91920000 0.020604 25.620 0.999777 -75.90 0.999777 -75.90 0.020593 2.6272
8.91930000 0.020578 25.690 0.999778 -75.90 0.999778 -75.90 0.020567 2.5516
8.91940000 0.020552 25.760 0.999778 -75.90 0.999778 -75.90 0.020541 2.4754
8.91950000 0.020526 25.831 0.999779 -75.91 0.999779 -75.91 0.020514 2.3987
8.91960000 0.020500 25.903 0.999779 -75.91 0.999779 -75.91 0.020488 2.3215
8.91970000 0.020474 25.974 0.999780 -75.91 0.999780 -75.91 0.020462 2.2438
8.91980000 0.020447 26.047 0.999780 -75.92 0.999780 -75.92 0.020435 2.1655
8.91990000 0.020421 26.120 0.999781 -75.92 0.999781 -75.92 0.020409 2.0866
8.92000000 0.020394 26.193 0.999781 -75.92 0.999781 -75.92 0.020382 2.0073
8.92010000 0.020367 26.267 0.999782 -75.92 0.999782 -75.92 0.020355 1.9273
8.92020000 0.020341 26.342 0.999782 -75.93 0.999782 -75.93 0.020328 1.8468
8.92030000 0.020314 26.417 0.999783 -75.93 0.999783 -75.93 0.020301 1.7657
8.92040000 0.020287 26.492 0.999783 -75.93 0.999783 -75.93 0.020274 1.6841
8.92050000 0.020260 26.568 0.999784 -75.94 0.999784 -75.94 0.020247 1.6018
8.92060000 0.020233 26.645 0.999784 -75.94 0.999784 -75.94 0.020220 1.5190
8.92070000 0.020206 26.723 0.999785 -75.94 0.999785 -75.94 0.020193 1.4356
8.92080000 0.020178 26.800 0.999785 -75.95 0.999785 -75.95 0.020166 1.3516
8.92090000 0.020151 26.879 0.999786 -75.95 0.999786 -75.95 0.020138 1.2669
8.92100000 0.020124 26.958 0.999786 -75.95 0.999786 -75.95 0.020111 1.1817
8.92110000 0.020096 27.038 0.999787 -75.96 0.999787 -75.96 0.020083 1.0958
8.92120000 0.020069 27.118 0.999787 -75.96 0.999787 -75.96 0.020055 1.0094
8.92130000 0.020041 27.199 0.999788 -75.96 0.999788 -75.96 0.020028 0.9222
8.92140000 0.020013 27.280 0.999788 -75.97 0.999788 -75.97 0.020000 0.8345
8.92150000 0.019985 27.363 0.999789 -75.97 0.999789 -75.97 0.019972 0.7461
8.92160000 0.019957 27.445 0.999789 -75.97 0.999789 -75.97 0.019944 0.6570
8.92170000 0.019929 27.529 0.999790 -75.97 0.999790 -75.97 0.019916 0.5673
8.92180000 0.019901 27.613 0.999790 -75.98 0.999790 -75.98 0.019888 0.4770
8.92190000 0.019873 27.697 0.999791 -75.98 0.999791 -75.98 0.019859 0.3859
8.92200000 0.019845 27.783 0.999791 -75.98 0.999791 -75.98 0.019831 0.2942
8.92210000 0.019816 27.869 0.999792 -75.99 0.999792 -75.99 0.019802 0.2018
8.92220000 0.019788 27.955 0.999792 -75.99 0.999792 -75.99 0.019774 0.1087
8.92230000 0.019759 28.043 0.999793 -75.99 0.999793 -75.99 0.019745 0.0149
8.92240000 0.019731 28.131 0.999794 -76.00 0.999794 -76.00 0.019717 -0.080
8.92250000 0.019702 28.220 0.999794 -76.00 0.999794 -76.00 0.019688 -0.175
8.92260000 0.019673 28.309 0.999795 -76.00 0.999795 -76.00 0.019659 -0.271
8.92270000 0.019644 28.399 0.999795 -76.01 0.999795 -76.01 0.019630 -0.368
8.92280000 0.019615 28.490 0.999796 -76.01 0.999796 -76.01 0.019601 -0.465
8.92290000 0.019586 28.582 0.999796 -76.01 0.999796 -76.01 0.019572 -0.563
8.92300000 0.019557 28.674 0.999797 -76.02 0.999797 -76.02 0.019542 -0.662
8.92310000 0.019528 28.767 0.999797 -76.02 0.999797 -76.02 0.019513 -0.762
8.92320000 0.019498 28.861 0.999798 -76.02 0.999798 -76.02 0.019484 -0.862
8.92330000 0.019469 28.956 0.999798 -76.03 0.999798 -76.03 0.019454 -0.964
8.92340000 0.019439 29.051 0.999799 -76.03 0.999799 -76.03 0.019424 -1.066
8.92350000 0.019410 29.147 0.999799 -76.04 0.999799 -76.04 0.019395 -1.169
8.92360000 0.019380 29.244 0.999800 -76.04 0.999800 -76.04 0.019365 -1.272
8.92370000 0.019350 29.342 0.999800 -76.04 0.999800 -76.04 0.019335 -1.377
8.92380000 0.019321 29.440 0.999801 -76.05 0.999801 -76.05 0.019305 -1.482
8.92390000 0.019291 29.540 0.999801 -76.05 0.999801 -76.05 0.019275 -1.588
8.92400000 0.019261 29.640 0.999802 -76.05 0.999802 -76.05 0.019245 -1.695
8.92410000 0.019230 29.741 0.999803 -76.06 0.999803 -76.06 0.019215 -1.803
8.92420000 0.019200 29.843 0.999803 -76.06 0.999803 -76.06 0.019184 -1.912
8.92430000 0.019170 29.945 0.999804 -76.06 0.999804 -76.06 0.019154 -2.021
8.92440000 0.019140 30.049 0.999804 -76.07 0.999804 -76.07 0.019124 -2.132
8.92450000 0.019109 30.153 0.999805 -76.07 0.999805 -76.07 0.019093 -2.243
8.92460000 0.019079 30.259 0.999805 -76.07 0.999805 -76.07 0.019062 -2.356
8.92470000 0.019048 30.365 0.999806 -76.08 0.999806 -76.08 0.019032 -2.469
8.92480000 0.019017 30.472 0.999806 -76.08 0.999806 -76.08 0.019001 -2.583
8.92490000 0.018986 30.580 0.999807 -76.08 0.999807 -76.08 0.018970 -2.698
8.92500000 0.018956 30.689 0.999807 -76.09 0.999807 -76.09 0.018939 -2.814
8.92510000 0.018925 30.799 0.999808 -76.09 0.999808 -76.09 0.018908 -2.931
8.92520000 0.018894 30.909 0.999808 -76.10 0.999808 -76.10 0.018877 -3.049
8.92530000 0.018862 31.021 0.999809 -76.10 0.999809 -76.10 0.018845 -3.168
8.92540000 0.018831 31.134 0.999809 -76.10 0.999809 -76.10 0.018814 -3.288
8.92550000 0.018800 31.248 0.999810 -76.11 0.999810 -76.11 0.018783 -3.409
8.92560000 0.018768 31.362 0.999811 -76.11 0.999811 -76.11 0.018751 -3.531
8.92570000 0.018737 31.478 0.999811 -76.11 0.999811 -76.11 0.018719 -3.654
8.92580000 0.018705 31.595 0.999812 -76.12 0.999812 -76.12 0.018688 -3.778
8.92590000 0.018674 31.712 0.999812 -76.12 0.999812 -76.12 0.018656 -3.903
8.92600000 0.018642 31.831 0.999813 -76.13 0.999813 -76.13 0.018624 -4.029
8.92610000 0.018610 31.951 0.999813 -76.13 0.999813 -76.13 0.018592 -4.156
8.92620000 0.018578 32.072 0.999814 -76.13 0.999814 -76.13 0.018560 -4.285
8.92630000 0.018546 32.194 0.999814 -76.14 0.999814 -76.14 0.018528 -4.414
8.92640000 0.018514 32.317 0.999815 -76.14 0.999815 -76.14 0.018496 -4.545
8.92650000 0.018482 32.441 0.999815 -76.14 0.999815 -76.14 0.018464 -4.676
8.92660000 0.018450 32.566 0.999816 -76.15 0.999816 -76.15 0.018431 -4.809
8.92670000 0.018418 32.692 0.999816 -76.15 0.999816 -76.15 0.018399 -4.943
8.92680000 0.018385 32.820 0.999817 -76.16 0.999817 -76.16 0.018367 -5.078
8.92690000 0.018353 32.949 0.999818 -76.16 0.999818 -76.16 0.018334 -5.215
8.92700000 0.018321 33.078 0.999818 -76.16 0.999818 -76.16 0.018301 -5.352
8.92710000 0.018288 33.209 0.999819 -76.17 0.999819 -76.17 0.018269 -5.491
8.92720000 0.018255 33.342 0.999819 -76.17 0.999819 -76.17 0.018236 -5.631
8.92730000 0.018223 33.475 0.999820 -76.18 0.999820 -76.18 0.018203 -5.772
8.92740000 0.018190 33.610 0.999820 -76.18 0.999820 -76.18 0.018170 -5.915
8.92750000 0.018157 33.746 0.999821 -76.18 0.999821 -76.18 0.018137 -6.059
8.92760000 0.018124 33.883 0.999821 -76.19 0.999821 -76.19 0.018104 -6.204
8.92770000 0.018091 34.021 0.999822 -76.19 0.999822 -76.19 0.018071 -6.350
8.92780000 0.018058 34.161 0.999822 -76.20 0.999822 -76.20 0.018038 -6.498
8.92790000 0.018025 34.302 0.999823 -76.20 0.999823 -76.20 0.018004 -6.647
8.92800000 0.017992 34.444 0.999823 -76.21 0.999823 -76.21 0.017971 -6.797
8.92810000 0.017958 34.588 0.999824 -76.21 0.999824 -76.21 0.017938 -6.949
8.92820000 0.017925 34.733 0.999824 -76.21 0.999824 -76.21 0.017904 -7.102
8.92830000 0.017892 34.879 0.999825 -76.22 0.999825 -76.22 0.017871 -7.257
8.92840000 0.017858 35.027 0.999826 -76.22 0.999826 -76.22 0.017837 -7.413
8.92850000 0.017825 35.177 0.999826 -76.23 0.999826 -76.23 0.017803 -7.570
8.92860000 0.017791 35.327 0.999827 -76.23 0.999827 -76.23 0.017770 -7.729
8.92870000 0.017757 35.479 0.999827 -76.23 0.999827 -76.23 0.017736 -7.890
8.92880000 0.017724 35.633 0.999828 -76.24 0.999828 -76.24 0.017702 -8.052
8.92890000 0.017690 35.788 0.999828 -76.24 0.999828 -76.24 0.017668 -8.215
8.92900000 0.017656 35.944 0.999829 -76.25 0.999829 -76.25 0.017634 -8.380
8.92910000 0.017622 36.102 0.999829 -76.25 0.999829 -76.25 0.017600 -8.547
8.92920000 0.017588 36.262 0.999830 -76.26 0.999830 -76.26 0.017566 -8.715
8.92930000 0.017555 36.423 0.999830 -76.26 0.999830 -76.26 0.017532 -8.885
8.92940000 0.017521 36.586 0.999831 -76.26 0.999831 -76.26 0.017498 -9.056
8.92950000 0.017487 36.750 0.999831 -76.27 0.999831 -76.27 0.017463 -9.229
8.92960000 0.017452 36.916 0.999832 -76.27 0.999832 -76.27 0.017429 -9.404
8.92970000 0.017418 37.084 0.999832 -76.28 0.999832 -76.28 0.017395 -9.580
8.92980000 0.017384 37.253 0.999833 -76.28 0.999833 -76.28 0.017361 -9.758
8.92990000 0.017350 37.424 0.999833 -76.29 0.999833 -76.29 0.017326 -9.938
8.93000000 0.017316 37.596 0.999834 -76.29 0.999834 -76.29 0.017292 -10.12
8.93010000 0.017281 37.771 0.999834 -76.30 0.999834 -76.30 0.017257 -10.30
8.93020000 0.017247 37.947 0.999835 -76.30 0.999835 -76.30 0.017223 -10.49
8.93030000 0.017213 38.125 0.999836 -76.31 0.999836 -76.31 0.017188 -10.67
8.93040000 0.017178 38.304 0.999836 -76.31 0.999836 -76.31 0.017154 -10.86
8.93050000 0.017144 38.486 0.999837 -76.31 0.999837 -76.31 0.017119 -11.05
8.93060000 0.017110 38.669 0.999837 -76.32 0.999837 -76.32 0.017085 -11.25
8.93070000 0.017075 38.854 0.999838 -76.32 0.999838 -76.32 0.017050 -11.44
8.93080000 0.017041 39.041 0.999838 -76.33 0.999838 -76.33 0.017015 -11.64
8.93090000 0.017006 39.230 0.999839 -76.33 0.999839 -76.33 0.016981 -11.84
8.93100000 0.016972 39.421 0.999839 -76.34 0.999839 -76.34 0.016946 -12.04
8.93110000 0.016937 39.614 0.999840 -76.34 0.999840 -76.34 0.016911 -12.24
8.93120000 0.016903 39.809 0.999840 -76.35 0.999840 -76.35 0.016877 -12.44
8.93130000 0.016868 40.006 0.999841 -76.35 0.999841 -76.35 0.016842 -12.65
8.93140000 0.016834 40.204 0.999841 -76.36 0.999841 -76.36 0.016807 -12.86
8.93150000 0.016800 40.405 0.999842 -76.36 0.999842 -76.36 0.016773 -13.07
8.93160000 0.016765 40.608 0.999842 -76.37 0.999842 -76.37 0.016738 -13.28
8.93170000 0.016731 40.814 0.999843 -76.37 0.999843 -76.37 0.016703 -13.49
8.93180000 0.016696 41.021 0.999843 -76.38 0.999843 -76.38 0.016669 -13.71
8.93190000 0.016662 41.230 0.999844 -76.38 0.999844 -76.38 0.016634 -13.93
8.93200000 0.016627 41.442 0.999844 -76.39 0.999844 -76.39 0.016599 -14.15
8.93210000 0.016593 41.656 0.999844 -76.39 0.999844 -76.39 0.016565 -14.38
8.93220000 0.016559 41.872 0.999845 -76.40 0.999845 -76.40 0.016530 -14.60
8.93230000 0.016524 42.090 0.999845 -76.40 0.999845 -76.40 0.016496 -14.83
8.93240000 0.016490 42.311 0.999846 -76.41 0.999846 -76.41 0.016461 -15.06
8.93250000 0.016456 42.534 0.999846 -76.41 0.999846 -76.41 0.016427 -15.30
8.93260000 0.016422 42.760 0.999847 -76.42 0.999847 -76.42 0.016392 -15.53
8.93270000 0.016388 42.987 0.999847 -76.42 0.999847 -76.42 0.016358 -15.77
8.93280000 0.016354 43.218 0.999848 -76.43 0.999848 -76.43 0.016324 -16.01
8.93290000 0.016320 43.450 0.999848 -76.43 0.999848 -76.43 0.016289 -16.25
8.93300000 0.016286 43.686 0.999849 -76.44 0.999849 -76.44 0.016255 -16.50
8.93310000 0.016252 43.923 0.999849 -76.44 0.999849 -76.44 0.016221 -16.75
8.93320000 0.016218 44.164 0.999850 -76.45 0.999850 -76.45 0.016187 -17.00
8.93330000 0.016184 44.407 0.999850 -76.45 0.999850 -76.45 0.016153 -17.25
8.93340000 0.016151 44.652 0.999850 -76.46 0.999850 -76.46 0.016119 -17.51
8.93350000 0.016117 44.900 0.999851 -76.46 0.999851 -76.46 0.016085 -17.77
8.93360000 0.016084 45.151 0.999851 -76.47 0.999851 -76.47 0.016052 -18.03
8.93370000 0.016051 45.405 0.999852 -76.48 0.999852 -76.48 0.016018 -18.29
8.93380000 0.016017 45.661 0.999852 -76.48 0.999852 -76.48 0.015985 -18.56
8.93390000 0.015984 45.920 0.999853 -76.49 0.999853 -76.49 0.015951 -18.83
8.93400000 0.015951 46.182 0.999853 -76.49 0.999853 -76.49 0.015918 -19.10
8.93410000 0.015919 46.447 0.999853 -76.50 0.999853 -76.50 0.015885 -19.38
8.93420000 0.015886 46.715 0.999854 -76.50 0.999854 -76.50 0.015852 -19.66
8.93430000 0.015853 46.985 0.999854 -76.51 0.999854 -76.51 0.015819 -19.94
8.93440000 0.015821 47.259 0.999855 -76.51 0.999855 -76.51 0.015787 -20.23
8.93450000 0.015789 47.536 0.999855 -76.52 0.999855 -76.52 0.015754 -20.51
8.93460000 0.015757 47.815 0.999855 -76.53 0.999855 -76.53 0.015722 -20.81
8.93470000 0.015725 48.098 0.999856 -76.53 0.999856 -76.53 0.015690 -21.10
8.93480000 0.015693 48.384 0.999856 -76.54 0.999856 -76.54 0.015658 -21.40
8.93490000 0.015662 48.673 0.999857 -76.54 0.999857 -76.54 0.015626 -21.70
8.93500000 0.015631 48.965 0.999857 -76.55 0.999857 -76.55 0.015594 -22.00
8.93510000 0.015600 49.260 0.999857 -76.56 0.999857 -76.56 0.015563 -22.31
8.93520000 0.015569 49.558 0.999858 -76.56 0.999858 -76.56 0.015532 -22.62
8.93530000 0.015538 49.860 0.999858 -76.57 0.999858 -76.57 0.015501 -22.93
8.93540000 0.015508 50.165 0.999858 -76.57 0.999858 -76.57 0.015470 -23.25
8.93550000 0.015478 50.474 0.999859 -76.58 0.999859 -76.58 0.015440 -23.57
8.93560000 0.015448 50.786 0.999859 -76.59 0.999859 -76.59 0.015410 -23.90
8.93570000 0.015418 51.101 0.999859 -76.59 0.999859 -76.59 0.015380 -24.23
8.93580000 0.015389 51.420 0.999860 -76.60 0.999860 -76.60 0.015350 -24.56
8.93590000 0.015360 51.742 0.999860 -76.60 0.999860 -76.60 0.015321 -24.89
8.93600000 0.015332 52.068 0.999860 -76.61 0.999860 -76.61 0.015292 -25.23
8.93610000 0.015303 52.397 0.999861 -76.62 0.999861 -76.62 0.015263 -25.57
8.93620000 0.015275 52.730 0.999861 -76.62 0.999861 -76.62 0.015235 -25.92
8.93630000 0.015248 53.066 0.999861 -76.63 0.999861 -76.63 0.015207 -26.27
8.93640000 0.015220 53.407 0.999861 -76.64 0.999861 -76.64 0.015179 -26.62
8.93650000 0.015193 53.751 0.999862 -76.64 0.999862 -76.64 0.015152 -26.98
8.93660000 0.015167 54.098 0.999862 -76.65 0.999862 -76.65 0.015125 -27.34
8.93670000 0.015141 54.450 0.999862 -76.65 0.999862 -76.65 0.015098 -27.71
8.93680000 0.015115 54.805 0.999862 -76.66 0.999862 -76.66 0.015072 -28.07
8.93690000 0.015090 55.164 0.999863 -76.67 0.999863 -76.67 0.015047 -28.45
8.93700000 0.015065 55.527 0.999863 -76.67 0.999863 -76.67 0.015021 -28.82
8.93710000 0.015040 55.894 0.999863 -76.68 0.999863 -76.68 0.014997 -29.21
8.93720000 0.015016 56.265 0.999863 -76.69 0.999863 -76.69 0.014972 -29.59
8.93730000 0.014993 56.639 0.999864 -76.69 0.999864 -76.69 0.014948 -29.98
8.93740000 0.014970 57.018 0.999864 -76.70 0.999864 -76.70 0.014925 -30.37
8.93750000 0.014947 57.401 0.999864 -76.71 0.999864 -76.71 0.014902 -30.77
8.93760000 0.014925 57.787 0.999864 -76.72 0.999864 -76.72 0.014880 -31.17
8.93770000 0.014904 58.178 0.999864 -76.72 0.999864 -76.72 0.014858 -31.58
8.93780000 0.014883 58.573 0.999864 -76.73 0.999864 -76.73 0.014837 -31.99
8.93790000 0.014863 58.972 0.999865 -76.74 0.999865 -76.74 0.014816 -32.40
8.93800000 0.014843 59.375 0.999865 -76.74 0.999865 -76.74 0.014796 -32.82
8.93810000 0.014824 59.783 0.999865 -76.75 0.999865 -76.75 0.014777 -33.24
8.93820000 0.014806 60.194 0.999865 -76.76 0.999865 -76.76 0.014758 -33.67
8.93830000 0.014788 60.610 0.999865 -76.76 0.999865 -76.76 0.014740 -34.10
8.93840000 0.014771 61.030 0.999865 -76.77 0.999865 -76.77 0.014722 -34.54
8.93850000 0.014755 61.454 0.999865 -76.78 0.999865 -76.78 0.014705 -34.98
8.93860000 0.014739 61.883 0.999865 -76.79 0.999865 -76.79 0.014689 -35.42
8.93870000 0.014724 62.315 0.999865 -76.79 0.999865 -76.79 0.014674 -35.87
8.93880000 0.014710 62.752 0.999865 -76.80 0.999865 -76.80 0.014660 -36.32
8.93890000 0.014697 63.194 0.999865 -76.81 0.999865 -76.81 0.014646 -36.78
8.93900000 0.014684 63.639 0.999865 -76.82 0.999865 -76.82 0.014633 -37.24
8.93910000 0.014673 64.089 0.999865 -76.82 0.999865 -76.82 0.014621 -37.71
8.93920000 0.014662 64.543 0.999865 -76.83 0.999865 -76.83 0.014609 -38.18