! Sonnet Data File
! From: emgraph Version : 16.52
! From Project: Resonator2_extremeCap2
! Data is De-embedded 
! Data File Written: 10/10/2017 08:27:13
!< HDATE 10/10/2017 01:06:54
!< MDATE 10/10/2017 01:06:54
!< PARAMS
!< Pwid1 = 2000.0
!< Pwid2 = 2000.0
!< Air_gap = 6.0
!< Width = 10.0
!< Gap = 23.0
!< END PARAMS
# GHZ S MA R 35.98000
8.98000000 0.394710 -5.789 0.918783 -100.3 0.918783 -100.3 0.394671 -14.82
!< P1 F=8.98 Eeff=(5.37116343 -2.3769e-5) Z0=(35.9716001 8.05996e-5) R=0.0 C=0.0 
!< P2 F=8.98 Eeff=(5.37116343 -2.3769e-5) Z0=(35.9716001 8.05996e-5) R=0.0 C=0.0 
8.98010000 0.394775 -5.784 0.918755 -100.3 0.918755 -100.3 0.394736 -14.84
8.98020000 0.394840 -5.778 0.918727 -100.3 0.918727 -100.3 0.394801 -14.86
8.98030000 0.394906 -5.772 0.918699 -100.3 0.918699 -100.3 0.394866 -14.88
8.98040000 0.394971 -5.766 0.918671 -100.3 0.918671 -100.3 0.394932 -14.90
8.98050000 0.395037 -5.761 0.918643 -100.3 0.918643 -100.3 0.394997 -14.93
8.98060000 0.395102 -5.755 0.918614 -100.3 0.918614 -100.3 0.395063 -14.95
8.98070000 0.395168 -5.749 0.918586 -100.4 0.918586 -100.4 0.395129 -14.97
8.98080000 0.395235 -5.743 0.918557 -100.4 0.918557 -100.4 0.395195 -14.99
8.98090000 0.395301 -5.737 0.918529 -100.4 0.918529 -100.4 0.395261 -15.01
8.98100000 0.395367 -5.731 0.918500 -100.4 0.918500 -100.4 0.395327 -15.04
8.98110000 0.395434 -5.725 0.918472 -100.4 0.918472 -100.4 0.395394 -15.06
8.98120000 0.395501 -5.719 0.918443 -100.4 0.918443 -100.4 0.395460 -15.08
8.98130000 0.395568 -5.713 0.918414 -100.4 0.918414 -100.4 0.395527 -15.10
8.98140000 0.395635 -5.708 0.918385 -100.4 0.918385 -100.4 0.395594 -15.12
8.98150000 0.395702 -5.702 0.918356 -100.4 0.918356 -100.4 0.395661 -15.15
8.98160000 0.395769 -5.696 0.918327 -100.4 0.918327 -100.4 0.395729 -15.17
8.98170000 0.395837 -5.690 0.918298 -100.4 0.918298 -100.4 0.395796 -15.19
8.98180000 0.395905 -5.684 0.918268 -100.4 0.918268 -100.4 0.395864 -15.21
8.98190000 0.395973 -5.678 0.918239 -100.5 0.918239 -100.5 0.395932 -15.24
8.98200000 0.396041 -5.672 0.918209 -100.5 0.918209 -100.5 0.396000 -15.26
8.98210000 0.396109 -5.666 0.918180 -100.5 0.918180 -100.5 0.396068 -15.28
8.98220000 0.396178 -5.659 0.918150 -100.5 0.918150 -100.5 0.396137 -15.30
8.98230000 0.396247 -5.653 0.918121 -100.5 0.918121 -100.5 0.396205 -15.33
8.98240000 0.396316 -5.647 0.918091 -100.5 0.918091 -100.5 0.396274 -15.35
8.98250000 0.396385 -5.641 0.918061 -100.5 0.918061 -100.5 0.396343 -15.37
8.98260000 0.396454 -5.635 0.918031 -100.5 0.918031 -100.5 0.396412 -15.39
8.98270000 0.396523 -5.629 0.918001 -100.5 0.918001 -100.5 0.396481 -15.42
8.98280000 0.396593 -5.623 0.917971 -100.5 0.917971 -100.5 0.396551 -15.44
8.98290000 0.396663 -5.617 0.917941 -100.5 0.917941 -100.5 0.396621 -15.46
8.98300000 0.396733 -5.610 0.917910 -100.5 0.917910 -100.5 0.396691 -15.49
8.98310000 0.396803 -5.604 0.917880 -100.6 0.917880 -100.6 0.396761 -15.51
8.98320000 0.396873 -5.598 0.917849 -100.6 0.917849 -100.6 0.396831 -15.53
8.98330000 0.396944 -5.592 0.917819 -100.6 0.917819 -100.6 0.396901 -15.55
8.98340000 0.397015 -5.585 0.917788 -100.6 0.917788 -100.6 0.396972 -15.58
8.98350000 0.397086 -5.579 0.917757 -100.6 0.917757 -100.6 0.397043 -15.60
8.98360000 0.397157 -5.573 0.917727 -100.6 0.917727 -100.6 0.397114 -15.62
8.98370000 0.397228 -5.567 0.917696 -100.6 0.917696 -100.6 0.397185 -15.65
8.98380000 0.397300 -5.560 0.917665 -100.6 0.917665 -100.6 0.397257 -15.67
8.98390000 0.397371 -5.554 0.917634 -100.6 0.917634 -100.6 0.397328 -15.69
8.98400000 0.397443 -5.548 0.917602 -100.6 0.917602 -100.6 0.397400 -15.72
8.98410000 0.397515 -5.541 0.917571 -100.6 0.917571 -100.6 0.397472 -15.74
8.98420000 0.397588 -5.535 0.917540 -100.6 0.917540 -100.6 0.397544 -15.77
8.98430000 0.397660 -5.529 0.917508 -100.7 0.917508 -100.7 0.397616 -15.79
8.98440000 0.397733 -5.522 0.917477 -100.7 0.917477 -100.7 0.397689 -15.81
8.98450000 0.397806 -5.516 0.917445 -100.7 0.917445 -100.7 0.397762 -15.84
8.98460000 0.397879 -5.509 0.917413 -100.7 0.917413 -100.7 0.397835 -15.86
8.98470000 0.397952 -5.503 0.917381 -100.7 0.917381 -100.7 0.397908 -15.88
8.98480000 0.398026 -5.496 0.917350 -100.7 0.917350 -100.7 0.397981 -15.91
8.98490000 0.398099 -5.490 0.917318 -100.7 0.917318 -100.7 0.398055 -15.93
8.98500000 0.398173 -5.483 0.917285 -100.7 0.917285 -100.7 0.398129 -15.96
8.98510000 0.398247 -5.477 0.917253 -100.7 0.917253 -100.7 0.398203 -15.98
8.98520000 0.398322 -5.470 0.917221 -100.7 0.917221 -100.7 0.398277 -16.00
8.98530000 0.398396 -5.464 0.917188 -100.7 0.917188 -100.7 0.398351 -16.03
8.98540000 0.398471 -5.457 0.917156 -100.8 0.917156 -100.8 0.398426 -16.05
8.98550000 0.398546 -5.451 0.917123 -100.8 0.917123 -100.8 0.398501 -16.08
8.98560000 0.398621 -5.444 0.917091 -100.8 0.917091 -100.8 0.398576 -16.10
8.98570000 0.398696 -5.437 0.917058 -100.8 0.917058 -100.8 0.398651 -16.13
8.98580000 0.398772 -5.431 0.917025 -100.8 0.917025 -100.8 0.398726 -16.15
8.98590000 0.398847 -5.424 0.916992 -100.8 0.916992 -100.8 0.398802 -16.18
8.98600000 0.398923 -5.417 0.916959 -100.8 0.916959 -100.8 0.398878 -16.20
8.98610000 0.399000 -5.411 0.916926 -100.8 0.916926 -100.8 0.398954 -16.22
8.98620000 0.399076 -5.404 0.916892 -100.8 0.916892 -100.8 0.399030 -16.25
8.98630000 0.399153 -5.397 0.916859 -100.8 0.916859 -100.8 0.399107 -16.27
8.98640000 0.399229 -5.391 0.916825 -100.8 0.916825 -100.8 0.399183 -16.30
8.98650000 0.399306 -5.384 0.916792 -100.9 0.916792 -100.9 0.399260 -16.32
8.98660000 0.399384 -5.377 0.916758 -100.9 0.916758 -100.9 0.399337 -16.35
8.98670000 0.399461 -5.370 0.916724 -100.9 0.916724 -100.9 0.399415 -16.37
8.98680000 0.399539 -5.364 0.916690 -100.9 0.916690 -100.9 0.399492 -16.40
8.98690000 0.399617 -5.357 0.916656 -100.9 0.916656 -100.9 0.399570 -16.42
8.98700000 0.399695 -5.350 0.916622 -100.9 0.916622 -100.9 0.399648 -16.45
8.98710000 0.399773 -5.343 0.916588 -100.9 0.916588 -100.9 0.399726 -16.47
8.98720000 0.399852 -5.336 0.916554 -100.9 0.916554 -100.9 0.399805 -16.50
8.98730000 0.399931 -5.329 0.916519 -100.9 0.916519 -100.9 0.399883 -16.53
8.98740000 0.400010 -5.322 0.916485 -100.9 0.916485 -100.9 0.399962 -16.55
8.98750000 0.400089 -5.316 0.916450 -100.9 0.916450 -100.9 0.400041 -16.58
8.98760000 0.400168 -5.309 0.916415 -101.0 0.916415 -101.0 0.400121 -16.60
8.98770000 0.400248 -5.302 0.916380 -101.0 0.916380 -101.0 0.400200 -16.63
8.98780000 0.400328 -5.295 0.916345 -101.0 0.916345 -101.0 0.400280 -16.65
8.98790000 0.400408 -5.288 0.916310 -101.0 0.916310 -101.0 0.400360 -16.68
8.98800000 0.400489 -5.281 0.916275 -101.0 0.916275 -101.0 0.400441 -16.71
8.98810000 0.400569 -5.274 0.916240 -101.0 0.916240 -101.0 0.400521 -16.73
8.98820000 0.400650 -5.267 0.916204 -101.0 0.916204 -101.0 0.400602 -16.76
8.98830000 0.400731 -5.260 0.916169 -101.0 0.916169 -101.0 0.400683 -16.78
8.98840000 0.400813 -5.252 0.916133 -101.0 0.916133 -101.0 0.400764 -16.81
8.98850000 0.400894 -5.245 0.916097 -101.0 0.916097 -101.0 0.400845 -16.84
8.98860000 0.400976 -5.238 0.916062 -101.0 0.916062 -101.0 0.400927 -16.86
8.98870000 0.401058 -5.231 0.916026 -101.1 0.916026 -101.1 0.401009 -16.89
8.98880000 0.401140 -5.224 0.915989 -101.1 0.915989 -101.1 0.401091 -16.91
8.98890000 0.401223 -5.217 0.915953 -101.1 0.915953 -101.1 0.401174 -16.94
8.98900000 0.401306 -5.210 0.915917 -101.1 0.915917 -101.1 0.401256 -16.97
8.98910000 0.401389 -5.202 0.915880 -101.1 0.915880 -101.1 0.401339 -16.99
8.98920000 0.401472 -5.195 0.915844 -101.1 0.915844 -101.1 0.401422 -17.02
8.98930000 0.401556 -5.188 0.915807 -101.1 0.915807 -101.1 0.401506 -17.05
8.98940000 0.401639 -5.181 0.915770 -101.1 0.915770 -101.1 0.401589 -17.07
8.98950000 0.401723 -5.173 0.915733 -101.1 0.915733 -101.1 0.401673 -17.10
8.98960000 0.401808 -5.166 0.915696 -101.1 0.915696 -101.1 0.401757 -17.13
8.98970000 0.401892 -5.159 0.915659 -101.2 0.915659 -101.2 0.401842 -17.16
8.98980000 0.401977 -5.151 0.915622 -101.2 0.915622 -101.2 0.401926 -17.18
8.98990000 0.402062 -5.144 0.915585 -101.2 0.915585 -101.2 0.402011 -17.21
8.99000000 0.402147 -5.137 0.915547 -101.2 0.915547 -101.2 0.402096 -17.24
8.99010000 0.402233 -5.129 0.915509 -101.2 0.915509 -101.2 0.402182 -17.26
8.99020000 0.402319 -5.122 0.915472 -101.2 0.915472 -101.2 0.402267 -17.29
8.99030000 0.402405 -5.115 0.915434 -101.2 0.915434 -101.2 0.402353 -17.32
8.99040000 0.402491 -5.107 0.915396 -101.2 0.915396 -101.2 0.402440 -17.35
8.99050000 0.402578 -5.100 0.915358 -101.2 0.915358 -101.2 0.402526 -17.37
8.99060000 0.402664 -5.092 0.915319 -101.2 0.915319 -101.2 0.402613 -17.40
8.99070000 0.402752 -5.085 0.915281 -101.3 0.915281 -101.3 0.402700 -17.43
8.99080000 0.402839 -5.077 0.915243 -101.3 0.915243 -101.3 0.402787 -17.46
8.99090000 0.402927 -5.070 0.915204 -101.3 0.915204 -101.3 0.402874 -17.48
8.99100000 0.403014 -5.062 0.915165 -101.3 0.915165 -101.3 0.402962 -17.51
8.99110000 0.403103 -5.054 0.915126 -101.3 0.915126 -101.3 0.403050 -17.54
8.99120000 0.403191 -5.047 0.915087 -101.3 0.915087 -101.3 0.403138 -17.57
8.99130000 0.403280 -5.039 0.915048 -101.3 0.915048 -101.3 0.403227 -17.60
8.99140000 0.403369 -5.032 0.915009 -101.3 0.915009 -101.3 0.403316 -17.62
8.99150000 0.403458 -5.024 0.914969 -101.3 0.914969 -101.3 0.403405 -17.65
8.99160000 0.403547 -5.016 0.914930 -101.3 0.914930 -101.3 0.403494 -17.68
8.99170000 0.403637 -5.009 0.914890 -101.4 0.914890 -101.4 0.403584 -17.71
8.99180000 0.403727 -5.001 0.914850 -101.4 0.914850 -101.4 0.403674 -17.74
8.99190000 0.403818 -4.993 0.914810 -101.4 0.914810 -101.4 0.403764 -17.77
8.99200000 0.403908 -4.985 0.914770 -101.4 0.914770 -101.4 0.403854 -17.80
8.99210000 0.403999 -4.978 0.914730 -101.4 0.914730 -101.4 0.403945 -17.82
8.99220000 0.404090 -4.970 0.914690 -101.4 0.914690 -101.4 0.404036 -17.85
8.99230000 0.404182 -4.962 0.914649 -101.4 0.914649 -101.4 0.404128 -17.88
8.99240000 0.404274 -4.954 0.914609 -101.4 0.914609 -101.4 0.404219 -17.91
8.99250000 0.404366 -4.946 0.914568 -101.4 0.914568 -101.4 0.404311 -17.94
8.99260000 0.404458 -4.938 0.914527 -101.5 0.914527 -101.5 0.404403 -17.97
8.99270000 0.404551 -4.930 0.914486 -101.5 0.914486 -101.5 0.404496 -18.00
8.99280000 0.404644 -4.923 0.914445 -101.5 0.914445 -101.5 0.404589 -18.03
8.99290000 0.404737 -4.915 0.914403 -101.5 0.914403 -101.5 0.404682 -18.06
8.99300000 0.404830 -4.907 0.914362 -101.5 0.914362 -101.5 0.404775 -18.09
8.99310000 0.404924 -4.899 0.914320 -101.5 0.914320 -101.5 0.404869 -18.11
8.99320000 0.405018 -4.891 0.914278 -101.5 0.914278 -101.5 0.404963 -18.14
8.99330000 0.405113 -4.883 0.914237 -101.5 0.914237 -101.5 0.405057 -18.17
8.99340000 0.405207 -4.875 0.914194 -101.5 0.914194 -101.5 0.405151 -18.20
8.99350000 0.405302 -4.867 0.914152 -101.5 0.914152 -101.5 0.405246 -18.23
8.99360000 0.405398 -4.859 0.914110 -101.6 0.914110 -101.6 0.405341 -18.26
8.99370000 0.405493 -4.850 0.914067 -101.6 0.914067 -101.6 0.405437 -18.29
8.99380000 0.405589 -4.842 0.914025 -101.6 0.914025 -101.6 0.405533 -18.32
8.99390000 0.405685 -4.834 0.913982 -101.6 0.913982 -101.6 0.405629 -18.35
8.99400000 0.405782 -4.826 0.913939 -101.6 0.913939 -101.6 0.405725 -18.38
8.99410000 0.405879 -4.818 0.913896 -101.6 0.913896 -101.6 0.405822 -18.41
8.99420000 0.405976 -4.810 0.913853 -101.6 0.913853 -101.6 0.405919 -18.44
8.99430000 0.406073 -4.801 0.913809 -101.6 0.913809 -101.6 0.406016 -18.47
8.99440000 0.406171 -4.793 0.913766 -101.6 0.913766 -101.6 0.406114 -18.51
8.99450000 0.406269 -4.785 0.913722 -101.7 0.913722 -101.7 0.406211 -18.54
8.99460000 0.406368 -4.777 0.913678 -101.7 0.913678 -101.7 0.406310 -18.57
8.99470000 0.406466 -4.768 0.913634 -101.7 0.913634 -101.7 0.406408 -18.60
8.99480000 0.406566 -4.760 0.913590 -101.7 0.913590 -101.7 0.406507 -18.63
8.99490000 0.406665 -4.752 0.913546 -101.7 0.913546 -101.7 0.406606 -18.66
8.99500000 0.406765 -4.743 0.913501 -101.7 0.913501 -101.7 0.406706 -18.69
8.99510000 0.406865 -4.735 0.913457 -101.7 0.913457 -101.7 0.406806 -18.72
8.99520000 0.406965 -4.726 0.913412 -101.7 0.913412 -101.7 0.406906 -18.75
8.99530000 0.407066 -4.718 0.913367 -101.7 0.913367 -101.7 0.407007 -18.78
8.99540000 0.407167 -4.710 0.913322 -101.8 0.913322 -101.8 0.407107 -18.81
8.99550000 0.407268 -4.701 0.913277 -101.8 0.913277 -101.8 0.407209 -18.85
8.99560000 0.407370 -4.693 0.913231 -101.8 0.913231 -101.8 0.407310 -18.88
8.99570000 0.407472 -4.684 0.913186 -101.8 0.913186 -101.8 0.407412 -18.91
8.99580000 0.407574 -4.675 0.913140 -101.8 0.913140 -101.8 0.407514 -18.94
8.99590000 0.407677 -4.667 0.913094 -101.8 0.913094 -101.8 0.407617 -18.97
8.99600000 0.407780 -4.658 0.913048 -101.8 0.913048 -101.8 0.407720 -19.00
8.99610000 0.407883 -4.650 0.913001 -101.8 0.913001 -101.8 0.407823 -19.04
8.99620000 0.407987 -4.641 0.912955 -101.9 0.912955 -101.9 0.407926 -19.07
8.99630000 0.408091 -4.632 0.912908 -101.9 0.912908 -101.9 0.408030 -19.10
8.99640000 0.408196 -4.624 0.912862 -101.9 0.912862 -101.9 0.408134 -19.13
8.99650000 0.408300 -4.615 0.912815 -101.9 0.912815 -101.9 0.408239 -19.17
8.99660000 0.408406 -4.606 0.912768 -101.9 0.912768 -101.9 0.408344 -19.20
8.99670000 0.408511 -4.598 0.912720 -101.9 0.912720 -101.9 0.408449 -19.23
8.99680000 0.408617 -4.589 0.912673 -101.9 0.912673 -101.9 0.408555 -19.26
8.99690000 0.408723 -4.580 0.912625 -101.9 0.912625 -101.9 0.408661 -19.30
8.99700000 0.408830 -4.571 0.912577 -101.9 0.912577 -101.9 0.408767 -19.33
8.99710000 0.408937 -4.562 0.912529 -102.0 0.912529 -102.0 0.408874 -19.36
8.99720000 0.409044 -4.553 0.912481 -102.0 0.912481 -102.0 0.408981 -19.39
8.99730000 0.409152 -4.545 0.912433 -102.0 0.912433 -102.0 0.409089 -19.43
8.99740000 0.409260 -4.536 0.912384 -102.0 0.912384 -102.0 0.409197 -19.46
8.99750000 0.409368 -4.527 0.912335 -102.0 0.912335 -102.0 0.409305 -19.49
8.99760000 0.409477 -4.518 0.912287 -102.0 0.912287 -102.0 0.409413 -19.53
8.99770000 0.409586 -4.509 0.912237 -102.0 0.912237 -102.0 0.409522 -19.56
8.99780000 0.409696 -4.500 0.912188 -102.0 0.912188 -102.0 0.409632 -19.59
8.99790000 0.409805 -4.491 0.912139 -102.1 0.912139 -102.1 0.409741 -19.63
8.99800000 0.409916 -4.482 0.912089 -102.1 0.912089 -102.1 0.409851 -19.66
8.99810000 0.410026 -4.473 0.912039 -102.1 0.912039 -102.1 0.409962 -19.69
8.99820000 0.410137 -4.464 0.911989 -102.1 0.911989 -102.1 0.410073 -19.73
8.99830000 0.410249 -4.454 0.911939 -102.1 0.911939 -102.1 0.410184 -19.76
8.99840000 0.410361 -4.445 0.911889 -102.1 0.911889 -102.1 0.410296 -19.80
8.99850000 0.410473 -4.436 0.911838 -102.1 0.911838 -102.1 0.410408 -19.83
8.99860000 0.410586 -4.427 0.911787 -102.1 0.911787 -102.1 0.410520 -19.86
8.99870000 0.410699 -4.418 0.911736 -102.2 0.911736 -102.2 0.410633 -19.90
8.99880000 0.410812 -4.409 0.911685 -102.2 0.911685 -102.2 0.410746 -19.93
8.99890000 0.410926 -4.399 0.911634 -102.2 0.911634 -102.2 0.410860 -19.97
8.99900000 0.411040 -4.390 0.911582 -102.2 0.911582 -102.2 0.410974 -20.00
8.99910000 0.411155 -4.381 0.911530 -102.2 0.911530 -102.2 0.411088 -20.04
8.99920000 0.411270 -4.371 0.911478 -102.2 0.911478 -102.2 0.411203 -20.07
8.99930000 0.411385 -4.362 0.911426 -102.2 0.911426 -102.2 0.411318 -20.11
8.99940000 0.411501 -4.353 0.911374 -102.2 0.911374 -102.2 0.411434 -20.14
8.99950000 0.411617 -4.343 0.911321 -102.3 0.911321 -102.3 0.411550 -20.18
8.99960000 0.411734 -4.334 0.911268 -102.3 0.911268 -102.3 0.411666 -20.21
8.99970000 0.411851 -4.324 0.911215 -102.3 0.911215 -102.3 0.411783 -20.25
8.99980000 0.411968 -4.315 0.911162 -102.3 0.911162 -102.3 0.411900 -20.28
8.99990000 0.412086 -4.305 0.911109 -102.3 0.911109 -102.3 0.412018 -20.32
9.00000000 0.412204 -4.296 0.911055 -102.3 0.911055 -102.3 0.412136 -20.35
9.00010000 0.412323 -4.286 0.911001 -102.3 0.911001 -102.3 0.412255 -20.39
9.00020000 0.412442 -4.277 0.910947 -102.3 0.910947 -102.3 0.412374 -20.43
9.00030000 0.412562 -4.267 0.910893 -102.4 0.910893 -102.4 0.412493 -20.46
9.00040000 0.412682 -4.257 0.910838 -102.4 0.910838 -102.4 0.412613 -20.50
9.00050000 0.412803 -4.248 0.910784 -102.4 0.910784 -102.4 0.412733 -20.53
9.00060000 0.412923 -4.238 0.910729 -102.4 0.910729 -102.4 0.412854 -20.57
9.00070000 0.413045 -4.228 0.910674 -102.4 0.910674 -102.4 0.412975 -20.61
9.00080000 0.413167 -4.219 0.910618 -102.4 0.910618 -102.4 0.413096 -20.64
9.00090000 0.413289 -4.209 0.910563 -102.4 0.910563 -102.4 0.413218 -20.68
9.00100000 0.413412 -4.199 0.910507 -102.5 0.910507 -102.5 0.413341 -20.72
9.00110000 0.413535 -4.189 0.910451 -102.5 0.910451 -102.5 0.413464 -20.75
9.00120000 0.413658 -4.180 0.910394 -102.5 0.910394 -102.5 0.413587 -20.79
9.00130000 0.413782 -4.170 0.910338 -102.5 0.910338 -102.5 0.413711 -20.83
9.00140000 0.413907 -4.160 0.910281 -102.5 0.910281 -102.5 0.413835 -20.87
9.00150000 0.414032 -4.150 0.910224 -102.5 0.910224 -102.5 0.413960 -20.90
9.00160000 0.414157 -4.140 0.910167 -102.5 0.910167 -102.5 0.414085 -20.94
9.00170000 0.414283 -4.130 0.910110 -102.5 0.910110 -102.5 0.414211 -20.98
9.00180000 0.414409 -4.120 0.910052 -102.6 0.910052 -102.6 0.414337 -21.02
9.00190000 0.414536 -4.110 0.909994 -102.6 0.909994 -102.6 0.414464 -21.05
9.00200000 0.414664 -4.100 0.909936 -102.6 0.909936 -102.6 0.414591 -21.09
9.00210000 0.414791 -4.090 0.909878 -102.6 0.909878 -102.6 0.414718 -21.13
9.00220000 0.414920 -4.080 0.909819 -102.6 0.909819 -102.6 0.414846 -21.17
9.00230000 0.415048 -4.070 0.909760 -102.6 0.909760 -102.6 0.414975 -21.21
9.00240000 0.415178 -4.060 0.909701 -102.6 0.909701 -102.6 0.415104 -21.24
9.00250000 0.415307 -4.049 0.909642 -102.7 0.909642 -102.7 0.415233 -21.28
9.00260000 0.415437 -4.039 0.909582 -102.7 0.909582 -102.7 0.415363 -21.32
9.00270000 0.415568 -4.029 0.909522 -102.7 0.909522 -102.7 0.415494 -21.36
9.00280000 0.415699 -4.019 0.909462 -102.7 0.909462 -102.7 0.415624 -21.40
9.00290000 0.415831 -4.008 0.909402 -102.7 0.909402 -102.7 0.415756 -21.44
9.00300000 0.415963 -3.998 0.909341 -102.7 0.909341 -102.7 0.415888 -21.48
9.00310000 0.416096 -3.988 0.909281 -102.7 0.909281 -102.7 0.416020 -21.52
9.00320000 0.416229 -3.977 0.909220 -102.8 0.909220 -102.8 0.416153 -21.56
9.00330000 0.416363 -3.967 0.909158 -102.8 0.909158 -102.8 0.416287 -21.59
9.00340000 0.416497 -3.957 0.909097 -102.8 0.909097 -102.8 0.416421 -21.63
9.00350000 0.416632 -3.946 0.909035 -102.8 0.909035 -102.8 0.416555 -21.67
9.00360000 0.416767 -3.936 0.908973 -102.8 0.908973 -102.8 0.416690 -21.71
9.00370000 0.416903 -3.925 0.908910 -102.8 0.908910 -102.8 0.416826 -21.75
9.00380000 0.417039 -3.915 0.908848 -102.8 0.908848 -102.8 0.416962 -21.79
9.00390000 0.417176 -3.904 0.908785 -102.9 0.908785 -102.9 0.417098 -21.83
9.00400000 0.417313 -3.894 0.908721 -102.9 0.908721 -102.9 0.417235 -21.87
9.00410000 0.417451 -3.883 0.908658 -102.9 0.908658 -102.9 0.417373 -21.91
9.00420000 0.417590 -3.872 0.908594 -102.9 0.908594 -102.9 0.417511 -21.95
9.00430000 0.417729 -3.862 0.908530 -102.9 0.908530 -102.9 0.417650 -22.00
9.00440000 0.417868 -3.851 0.908466 -102.9 0.908466 -102.9 0.417789 -22.04
9.00450000 0.418008 -3.840 0.908401 -103.0 0.908401 -103.0 0.417929 -22.08
9.00460000 0.418149 -3.830 0.908336 -103.0 0.908336 -103.0 0.418069 -22.12
9.00470000 0.418290 -3.819 0.908271 -103.0 0.908271 -103.0 0.418210 -22.16
9.00480000 0.418432 -3.808 0.908206 -103.0 0.908206 -103.0 0.418352 -22.20
9.00490000 0.418574 -3.797 0.908140 -103.0 0.908140 -103.0 0.418494 -22.24
9.00500000 0.418717 -3.786 0.908074 -103.0 0.908074 -103.0 0.418636 -22.28
9.00510000 0.418860 -3.775 0.908008 -103.0 0.908008 -103.0 0.418779 -22.33
9.00520000 0.419004 -3.765 0.907941 -103.1 0.907941 -103.1 0.418923 -22.37
9.00530000 0.419149 -3.754 0.907875 -103.1 0.907875 -103.1 0.419067 -22.41
9.00540000 0.419294 -3.743 0.907807 -103.1 0.907807 -103.1 0.419212 -22.45
9.00550000 0.419439 -3.732 0.907740 -103.1 0.907740 -103.1 0.419358 -22.49
9.00560000 0.419586 -3.721 0.907672 -103.1 0.907672 -103.1 0.419504 -22.54
9.00570000 0.419733 -3.710 0.907604 -103.1 0.907604 -103.1 0.419650 -22.58
9.00580000 0.419880 -3.699 0.907536 -103.2 0.907536 -103.2 0.419797 -22.62
9.00590000 0.420028 -3.687 0.907467 -103.2 0.907467 -103.2 0.419945 -22.66
9.00600000 0.420177 -3.676 0.907398 -103.2 0.907398 -103.2 0.420093 -22.71
9.00610000 0.420326 -3.665 0.907329 -103.2 0.907329 -103.2 0.420242 -22.75
9.00620000 0.420476 -3.654 0.907259 -103.2 0.907259 -103.2 0.420392 -22.79
9.00630000 0.420626 -3.643 0.907189 -103.2 0.907189 -103.2 0.420542 -22.84
9.00640000 0.420778 -3.631 0.907119 -103.3 0.907119 -103.3 0.420693 -22.88
9.00650000 0.420929 -3.620 0.907049 -103.3 0.907049 -103.3 0.420844 -22.92
9.00660000 0.421082 -3.609 0.906978 -103.3 0.906978 -103.3 0.420996 -22.97
9.00670000 0.421235 -3.598 0.906907 -103.3 0.906907 -103.3 0.421149 -23.01
9.00680000 0.421388 -3.586 0.906835 -103.3 0.906835 -103.3 0.421302 -23.06
9.00690000 0.421542 -3.575 0.906763 -103.3 0.906763 -103.3 0.421456 -23.10
9.00700000 0.421697 -3.563 0.906691 -103.3 0.906691 -103.3 0.421611 -23.14
9.00710000 0.421853 -3.552 0.906619 -103.4 0.906619 -103.4 0.421766 -23.19
9.00720000 0.422009 -3.540 0.906546 -103.4 0.906546 -103.4 0.421922 -23.23
9.00730000 0.422166 -3.529 0.906473 -103.4 0.906473 -103.4 0.422078 -23.28
9.00740000 0.422323 -3.517 0.906399 -103.4 0.906399 -103.4 0.422235 -23.32
9.00750000 0.422481 -3.506 0.906325 -103.4 0.906325 -103.4 0.422393 -23.37
9.00760000 0.422640 -3.494 0.906251 -103.4 0.906251 -103.4 0.422552 -23.41
9.00770000 0.422799 -3.482 0.906177 -103.5 0.906177 -103.5 0.422711 -23.46
9.00780000 0.422959 -3.471 0.906102 -103.5 0.906102 -103.5 0.422871 -23.50
9.00790000 0.423120 -3.459 0.906026 -103.5 0.906026 -103.5 0.423031 -23.55
9.00800000 0.423282 -3.447 0.905951 -103.5 0.905951 -103.5 0.423192 -23.60
9.00810000 0.423444 -3.436 0.905875 -103.5 0.905875 -103.5 0.423354 -23.64
9.00820000 0.423606 -3.424 0.905799 -103.6 0.905799 -103.6 0.423516 -23.69
9.00830000 0.423770 -3.412 0.905722 -103.6 0.905722 -103.6 0.423679 -23.73
9.00840000 0.423934 -3.400 0.905645 -103.6 0.905645 -103.6 0.423843 -23.78
9.00850000 0.424099 -3.388 0.905568 -103.6 0.905568 -103.6 0.424008 -23.83
9.00860000 0.424265 -3.376 0.905490 -103.6 0.905490 -103.6 0.424173 -23.87
9.00870000 0.424431 -3.364 0.905412 -103.6 0.905412 -103.6 0.424339 -23.92
9.00880000 0.424598 -3.352 0.905333 -103.7 0.905333 -103.7 0.424506 -23.97
9.00890000 0.424766 -3.340 0.905255 -103.7 0.905255 -103.7 0.424673 -24.02
9.00900000 0.424934 -3.328 0.905175 -103.7 0.905175 -103.7 0.424841 -24.06
9.00910000 0.425103 -3.316 0.905096 -103.7 0.905096 -103.7 0.425010 -24.11
9.00920000 0.425273 -3.304 0.905016 -103.7 0.905016 -103.7 0.425180 -24.16
9.00930000 0.425444 -3.292 0.904935 -103.7 0.904935 -103.7 0.425350 -24.21
9.00940000 0.425615 -3.280 0.904855 -103.8 0.904855 -103.8 0.425521 -24.25
9.00950000 0.425787 -3.268 0.904773 -103.8 0.904773 -103.8 0.425693 -24.30
9.00960000 0.425960 -3.256 0.904692 -103.8 0.904692 -103.8 0.425865 -24.35
9.00970000 0.426134 -3.243 0.904610 -103.8 0.904610 -103.8 0.426038 -24.40
9.00980000 0.426308 -3.231 0.904528 -103.8 0.904528 -103.8 0.426212 -24.45
9.00990000 0.426483 -3.219 0.904445 -103.9 0.904445 -103.9 0.426387 -24.50
9.01000000 0.426659 -3.206 0.904362 -103.9 0.904362 -103.9 0.426563 -24.55
9.01010000 0.426836 -3.194 0.904278 -103.9 0.904278 -103.9 0.426739 -24.59
9.01020000 0.427013 -3.182 0.904194 -103.9 0.904194 -103.9 0.426916 -24.64
9.01030000 0.427191 -3.169 0.904110 -103.9 0.904110 -103.9 0.427094 -24.69
9.01040000 0.427370 -3.157 0.904025 -103.9 0.904025 -103.9 0.427273 -24.74
9.01050000 0.427550 -3.144 0.903940 -104.0 0.903940 -104.0 0.427452 -24.79
9.01060000 0.427731 -3.132 0.903854 -104.0 0.903854 -104.0 0.427632 -24.84
9.01070000 0.427912 -3.119 0.903768 -104.0 0.903768 -104.0 0.427814 -24.89
9.01080000 0.428095 -3.106 0.903681 -104.0 0.903681 -104.0 0.427995 -24.94
9.01090000 0.428278 -3.094 0.903595 -104.0 0.903595 -104.0 0.428178 -25.00
9.01100000 0.428461 -3.081 0.903507 -104.1 0.903507 -104.1 0.428362 -25.05
9.01110000 0.428646 -3.068 0.903419 -104.1 0.903419 -104.1 0.428546 -25.10
9.01120000 0.428832 -3.056 0.903331 -104.1 0.903331 -104.1 0.428731 -25.15
9.01130000 0.429018 -3.043 0.903242 -104.1 0.903242 -104.1 0.428917 -25.20
9.01140000 0.429205 -3.030 0.903153 -104.1 0.903153 -104.1 0.429104 -25.25
9.01150000 0.429393 -3.017 0.903064 -104.2 0.903064 -104.2 0.429292 -25.30
9.01160000 0.429582 -3.004 0.902974 -104.2 0.902974 -104.2 0.429480 -25.35
9.01170000 0.429772 -2.992 0.902883 -104.2 0.902883 -104.2 0.429670 -25.41
9.01180000 0.429963 -2.979 0.902792 -104.2 0.902792 -104.2 0.429860 -25.46
9.01190000 0.430154 -2.966 0.902701 -104.2 0.902701 -104.2 0.430051 -25.51
9.01200000 0.430347 -2.953 0.902609 -104.3 0.902609 -104.3 0.430243 -25.56
9.01210000 0.430540 -2.940 0.902516 -104.3 0.902516 -104.3 0.430436 -25.62
9.01220000 0.430734 -2.927 0.902423 -104.3 0.902423 -104.3 0.430630 -25.67
9.01230000 0.430929 -2.914 0.902330 -104.3 0.902330 -104.3 0.430824 -25.72
9.01240000 0.431125 -2.900 0.902236 -104.3 0.902236 -104.3 0.431020 -25.78
9.01250000 0.431322 -2.887 0.902142 -104.4 0.902142 -104.4 0.431216 -25.83
9.01260000 0.431520 -2.874 0.902047 -104.4 0.902047 -104.4 0.431414 -25.88
9.01270000 0.431719 -2.861 0.901952 -104.4 0.901952 -104.4 0.431612 -25.94
9.01280000 0.431918 -2.848 0.901856 -104.4 0.901856 -104.4 0.431811 -25.99
9.01290000 0.432119 -2.834 0.901760 -104.4 0.901760 -104.4 0.432011 -26.05
9.01300000 0.432320 -2.821 0.901663 -104.5 0.901663 -104.5 0.432212 -26.10
9.01310000 0.432523 -2.808 0.901566 -104.5 0.901566 -104.5 0.432414 -26.16
9.01320000 0.432726 -2.794 0.901468 -104.5 0.901468 -104.5 0.432617 -26.21
9.01330000 0.432931 -2.781 0.901369 -104.5 0.901369 -104.5 0.432821 -26.27
9.01340000 0.433136 -2.767 0.901270 -104.5 0.901270 -104.5 0.433026 -26.32
9.01350000 0.433342 -2.754 0.901171 -104.6 0.901171 -104.6 0.433232 -26.38
9.01360000 0.433549 -2.740 0.901071 -104.6 0.901071 -104.6 0.433439 -26.43
9.01370000 0.433758 -2.727 0.900971 -104.6 0.900971 -104.6 0.433647 -26.49
9.01380000 0.433967 -2.713 0.900870 -104.6 0.900870 -104.6 0.433856 -26.55
9.01390000 0.434177 -2.700 0.900768 -104.6 0.900768 -104.6 0.434066 -26.60
9.01400000 0.434389 -2.686 0.900666 -104.7 0.900666 -104.7 0.434276 -26.66
9.01410000 0.434601 -2.672 0.900563 -104.7 0.900563 -104.7 0.434488 -26.72
9.01420000 0.434814 -2.659 0.900460 -104.7 0.900460 -104.7 0.434701 -26.77
9.01430000 0.435029 -2.645 0.900356 -104.7 0.900356 -104.7 0.434915 -26.83
9.01440000 0.435244 -2.631 0.900252 -104.8 0.900252 -104.8 0.435130 -26.89
9.01450000 0.435460 -2.617 0.900147 -104.8 0.900147 -104.8 0.435346 -26.95
9.01460000 0.435678 -2.604 0.900041 -104.8 0.900041 -104.8 0.435563 -27.00
9.01470000 0.435896 -2.590 0.899935 -104.8 0.899935 -104.8 0.435781 -27.06
9.01480000 0.436116 -2.576 0.899829 -104.8 0.899829 -104.8 0.436000 -27.12
9.01490000 0.436337 -2.562 0.899722 -104.9 0.899722 -104.9 0.436220 -27.18
9.01500000 0.436559 -2.548 0.899614 -104.9 0.899614 -104.9 0.436442 -27.24
9.01510000 0.436781 -2.534 0.899505 -104.9 0.899505 -104.9 0.436664 -27.30
9.01520000 0.437005 -2.520 0.899396 -104.9 0.899396 -104.9 0.436888 -27.36
9.01530000 0.437230 -2.506 0.899287 -105.0 0.899287 -105.0 0.437112 -27.42
9.01540000 0.437457 -2.492 0.899176 -105.0 0.899176 -105.0 0.437338 -27.48
9.01550000 0.437684 -2.477 0.899065 -105.0 0.899065 -105.0 0.437565 -27.54
9.01560000 0.437912 -2.463 0.898954 -105.0 0.898954 -105.0 0.437793 -27.60
9.01570000 0.438142 -2.449 0.898842 -105.0 0.898842 -105.0 0.438022 -27.66
9.01580000 0.438373 -2.435 0.898729 -105.1 0.898729 -105.1 0.438252 -27.72
9.01590000 0.438604 -2.420 0.898616 -105.1 0.898616 -105.1 0.438483 -27.78
9.01600000 0.438837 -2.406 0.898502 -105.1 0.898502 -105.1 0.438716 -27.84
9.01610000 0.439072 -2.392 0.898387 -105.1 0.898387 -105.1 0.438950 -27.90
9.01620000 0.439307 -2.377 0.898271 -105.2 0.898271 -105.2 0.439184 -27.96
9.01630000 0.439544 -2.363 0.898155 -105.2 0.898155 -105.2 0.439420 -28.02
9.01640000 0.439781 -2.349 0.898039 -105.2 0.898039 -105.2 0.439658 -28.09
9.01650000 0.440020 -2.334 0.897921 -105.2 0.897921 -105.2 0.439896 -28.15
9.01660000 0.440261 -2.320 0.897803 -105.3 0.897803 -105.3 0.440136 -28.21
9.01670000 0.440502 -2.305 0.897685 -105.3 0.897685 -105.3 0.440377 -28.27
9.01680000 0.440745 -2.290 0.897565 -105.3 0.897565 -105.3 0.440619 -28.34
9.01690000 0.440988 -2.276 0.897445 -105.3 0.897445 -105.3 0.440862 -28.40
9.01700000 0.441234 -2.261 0.897324 -105.4 0.897324 -105.4 0.441107 -28.46
9.01710000 0.441480 -2.246 0.897203 -105.4 0.897203 -105.4 0.441353 -28.53
9.01720000 0.441728 -2.232 0.897081 -105.4 0.897081 -105.4 0.441600 -28.59
9.01730000 0.441977 -2.217 0.896958 -105.4 0.896958 -105.4 0.441848 -28.66
9.01740000 0.442227 -2.202 0.896834 -105.5 0.896834 -105.5 0.442098 -28.72
9.01750000 0.442478 -2.187 0.896710 -105.5 0.896710 -105.5 0.442349 -28.79
9.01760000 0.442731 -2.173 0.896585 -105.5 0.896585 -105.5 0.442601 -28.85
9.01770000 0.442985 -2.158 0.896459 -105.5 0.896459 -105.5 0.442855 -28.92
9.01780000 0.443241 -2.143 0.896332 -105.6 0.896332 -105.6 0.443110 -28.98
9.01790000 0.443498 -2.128 0.896205 -105.6 0.896205 -105.6 0.443366 -29.05
9.01800000 0.443756 -2.113 0.896077 -105.6 0.896077 -105.6 0.443624 -29.11
9.01810000 0.444016 -2.098 0.895948 -105.6 0.895948 -105.6 0.443883 -29.18
9.01820000 0.444277 -2.083 0.895818 -105.7 0.895818 -105.7 0.444143 -29.25
9.01830000 0.444539 -2.068 0.895688 -105.7 0.895688 -105.7 0.444405 -29.31
9.01840000 0.444803 -2.053 0.895556 -105.7 0.895556 -105.7 0.444668 -29.38
9.01850000 0.445068 -2.037 0.895424 -105.7 0.895424 -105.7 0.444933 -29.45
9.01860000 0.445334 -2.022 0.895291 -105.8 0.895291 -105.8 0.445198 -29.52
9.01870000 0.445602 -2.007 0.895158 -105.8 0.895158 -105.8 0.445466 -29.58
9.01880000 0.445872 -1.992 0.895023 -105.8 0.895023 -105.8 0.445735 -29.65
9.01890000 0.446142 -1.977 0.894888 -105.8 0.894888 -105.8 0.446005 -29.72
9.01900000 0.446415 -1.961 0.894752 -105.9 0.894752 -105.9 0.446277 -29.79
9.01910000 0.446688 -1.946 0.894615 -105.9 0.894615 -105.9 0.446550 -29.86
9.01920000 0.446964 -1.930 0.894477 -105.9 0.894477 -105.9 0.446824 -29.93