! Sonnet Data File
! From: emgraph Version : 16.52
! From Project: Resonator2_extremeCap2
! Data is De-embedded 
! Data File Written: 10/11/2017 20:35:06
!< HDATE 10/11/2017 16:33:44
!< MDATE 10/11/2017 16:33:44
!< PARAMS
!< Pwid1 = 2000.0
!< Pwid2 = 2000.0
!< Air_gap = 30.0
!< Width = 50.0
!< Gap = 136.0
!< END PARAMS
# GHZ S MA R 47.40000
8.90000000 0.279061 -0.422 0.960266 -87.64 0.960266 -87.64 0.279057 5.1495
!< P1 F=8.9 Eeff=(5.03074334 -2.1789e-5) Z0=(47.3979938 1.04427e-4) R=0.0 C=0.0 
!< P2 F=8.9 Eeff=(5.03074334 -2.1789e-5) Z0=(47.3979938 1.04427e-4) R=0.0 C=0.0 
8.90025000 0.279115 -0.423 0.960250 -87.64 0.960250 -87.64 0.279111 5.1391
8.90050000 0.279169 -0.424 0.960234 -87.65 0.960234 -87.65 0.279165 5.1287
8.90075000 0.279223 -0.425 0.960219 -87.65 0.960219 -87.65 0.279219 5.1182
8.90100000 0.279277 -0.426 0.960203 -87.66 0.960203 -87.66 0.279273 5.1077
8.90125000 0.279331 -0.426 0.960187 -87.66 0.960187 -87.66 0.279327 5.0972
8.90150000 0.279385 -0.427 0.960171 -87.67 0.960171 -87.67 0.279382 5.0867
8.90175000 0.279440 -0.428 0.960156 -87.68 0.960156 -87.68 0.279436 5.0762
8.90200000 0.279494 -0.429 0.960140 -87.68 0.960140 -87.68 0.279491 5.0656
8.90225000 0.279549 -0.430 0.960124 -87.69 0.960124 -87.69 0.279546 5.0550
8.90250000 0.279604 -0.431 0.960108 -87.69 0.960108 -87.69 0.279600 5.0444
8.90275000 0.279659 -0.432 0.960092 -87.70 0.960092 -87.70 0.279655 5.0338
8.90300000 0.279714 -0.433 0.960076 -87.70 0.960076 -87.70 0.279711 5.0232
8.90325000 0.279770 -0.434 0.960059 -87.71 0.960059 -87.71 0.279766 5.0125
8.90350000 0.279825 -0.434 0.960043 -87.72 0.960043 -87.72 0.279821 5.0018
8.90375000 0.279881 -0.435 0.960027 -87.72 0.960027 -87.72 0.279877 4.9910
8.90400000 0.279936 -0.436 0.960011 -87.73 0.960011 -87.73 0.279932 4.9803
8.90425000 0.279992 -0.437 0.959995 -87.73 0.959995 -87.73 0.279988 4.9695
8.90450000 0.280048 -0.438 0.959978 -87.74 0.959978 -87.74 0.280044 4.9587
8.90475000 0.280104 -0.439 0.959962 -87.74 0.959962 -87.74 0.280100 4.9479
8.90500000 0.280160 -0.440 0.959945 -87.75 0.959945 -87.75 0.280156 4.9371
8.90525000 0.280217 -0.440 0.959929 -87.76 0.959929 -87.76 0.280213 4.9262
8.90550000 0.280273 -0.441 0.959912 -87.76 0.959912 -87.76 0.280269 4.9153
8.90575000 0.280330 -0.442 0.959896 -87.77 0.959896 -87.77 0.280326 4.9044
8.90600000 0.280386 -0.443 0.959879 -87.77 0.959879 -87.77 0.280383 4.8935
8.90625000 0.280443 -0.444 0.959863 -87.78 0.959863 -87.78 0.280439 4.8825
8.90650000 0.280500 -0.444 0.959846 -87.79 0.959846 -87.79 0.280496 4.8715
8.90675000 0.280558 -0.445 0.959829 -87.79 0.959829 -87.79 0.280554 4.8605
8.90700000 0.280615 -0.446 0.959812 -87.80 0.959812 -87.80 0.280611 4.8494
8.90725000 0.280672 -0.447 0.959796 -87.80 0.959796 -87.80 0.280668 4.8384
8.90750000 0.280730 -0.448 0.959779 -87.81 0.959779 -87.81 0.280726 4.8273
8.90775000 0.280788 -0.448 0.959762 -87.82 0.959762 -87.82 0.280784 4.8162
8.90800000 0.280846 -0.449 0.959745 -87.82 0.959745 -87.82 0.280842 4.8050
8.90825000 0.280904 -0.450 0.959728 -87.83 0.959728 -87.83 0.280900 4.7939
8.90850000 0.280962 -0.451 0.959711 -87.83 0.959711 -87.83 0.280958 4.7827
8.90875000 0.281020 -0.451 0.959694 -87.84 0.959694 -87.84 0.281016 4.7715
8.90900000 0.281079 -0.452 0.959677 -87.85 0.959677 -87.85 0.281074 4.7602
8.90925000 0.281137 -0.453 0.959660 -87.85 0.959660 -87.85 0.281133 4.7490
8.90950000 0.281196 -0.454 0.959642 -87.86 0.959642 -87.86 0.281192 4.7377
8.90975000 0.281255 -0.454 0.959625 -87.86 0.959625 -87.86 0.281251 4.7263
8.91000000 0.281314 -0.455 0.959608 -87.87 0.959608 -87.87 0.281310 4.7150
8.91025000 0.281373 -0.456 0.959590 -87.88 0.959590 -87.88 0.281369 4.7036
8.91050000 0.281432 -0.457 0.959573 -87.88 0.959573 -87.88 0.281428 4.6922
8.91075000 0.281492 -0.457 0.959555 -87.89 0.959555 -87.89 0.281488 4.6808
8.91100000 0.281552 -0.458 0.959538 -87.89 0.959538 -87.89 0.281547 4.6693
8.91125000 0.281611 -0.459 0.959520 -87.90 0.959520 -87.90 0.281607 4.6579
8.91150000 0.281671 -0.459 0.959503 -87.91 0.959503 -87.91 0.281667 4.6464
8.91175000 0.281731 -0.460 0.959485 -87.91 0.959485 -87.91 0.281727 4.6348
8.91200000 0.281792 -0.461 0.959467 -87.92 0.959467 -87.92 0.281787 4.6233
8.91225000 0.281852 -0.461 0.959450 -87.92 0.959450 -87.92 0.281848 4.6117
8.91250000 0.281913 -0.462 0.959432 -87.93 0.959432 -87.93 0.281908 4.6001
8.91275000 0.281973 -0.463 0.959414 -87.94 0.959414 -87.94 0.281969 4.5884
8.91300000 0.282034 -0.463 0.959396 -87.94 0.959396 -87.94 0.282030 4.5767
8.91325000 0.282095 -0.464 0.959378 -87.95 0.959378 -87.95 0.282091 4.5650
8.91350000 0.282156 -0.465 0.959360 -87.96 0.959360 -87.96 0.282152 4.5533
8.91375000 0.282218 -0.465 0.959342 -87.96 0.959342 -87.96 0.282214 4.5416
8.91400000 0.282279 -0.466 0.959324 -87.97 0.959324 -87.97 0.282275 4.5298
8.91425000 0.282341 -0.467 0.959306 -87.97 0.959306 -87.97 0.282337 4.5180
8.91450000 0.282403 -0.467 0.959288 -87.98 0.959288 -87.98 0.282399 4.5061
8.91475000 0.282465 -0.468 0.959269 -87.99 0.959269 -87.99 0.282461 4.4942
8.91500000 0.282527 -0.468 0.959251 -87.99 0.959251 -87.99 0.282523 4.4823
8.91525000 0.282589 -0.469 0.959233 -88.00 0.959233 -88.00 0.282585 4.4704
8.91550000 0.282652 -0.470 0.959214 -88.00 0.959214 -88.00 0.282648 4.4585
8.91575000 0.282715 -0.470 0.959196 -88.01 0.959196 -88.01 0.282710 4.4465
8.91600000 0.282777 -0.471 0.959177 -88.02 0.959177 -88.02 0.282773 4.4345
8.91625000 0.282840 -0.471 0.959158 -88.02 0.959158 -88.02 0.282836 4.4224
8.91650000 0.282904 -0.472 0.959140 -88.03 0.959140 -88.03 0.282899 4.4103
8.91675000 0.282967 -0.472 0.959121 -88.04 0.959121 -88.04 0.282963 4.3982
8.91700000 0.283031 -0.473 0.959102 -88.04 0.959102 -88.04 0.283026 4.3861
8.91725000 0.283094 -0.474 0.959084 -88.05 0.959084 -88.05 0.283090 4.3739
8.91750000 0.283158 -0.474 0.959065 -88.06 0.959065 -88.06 0.283154 4.3617
8.91775000 0.283222 -0.475 0.959046 -88.06 0.959046 -88.06 0.283218 4.3495
8.91800000 0.283286 -0.475 0.959027 -88.07 0.959027 -88.07 0.283282 4.3373
8.91825000 0.283351 -0.476 0.959008 -88.07 0.959008 -88.07 0.283346 4.3250
8.91850000 0.283415 -0.476 0.958989 -88.08 0.958989 -88.08 0.283411 4.3127
8.91875000 0.283480 -0.477 0.958970 -88.09 0.958970 -88.09 0.283475 4.3003
8.91900000 0.283545 -0.477 0.958950 -88.09 0.958950 -88.09 0.283540 4.2879
8.91925000 0.283610 -0.478 0.958931 -88.10 0.958931 -88.10 0.283605 4.2755
8.91950000 0.283675 -0.478 0.958912 -88.11 0.958912 -88.11 0.283671 4.2631
8.91975000 0.283741 -0.479 0.958892 -88.11 0.958892 -88.11 0.283736 4.2506
8.92000000 0.283806 -0.479 0.958873 -88.12 0.958873 -88.12 0.283802 4.2381
8.92025000 0.283872 -0.480 0.958853 -88.13 0.958853 -88.13 0.283867 4.2256
8.92050000 0.283938 -0.480 0.958834 -88.13 0.958834 -88.13 0.283933 4.2130
8.92075000 0.284004 -0.480 0.958814 -88.14 0.958814 -88.14 0.284000 4.2004
8.92100000 0.284071 -0.481 0.958795 -88.15 0.958795 -88.15 0.284066 4.1878
8.92125000 0.284137 -0.481 0.958775 -88.15 0.958775 -88.15 0.284132 4.1751
8.92150000 0.284204 -0.482 0.958755 -88.16 0.958755 -88.16 0.284199 4.1624
8.92175000 0.284271 -0.482 0.958735 -88.17 0.958735 -88.17 0.284266 4.1497
8.92200000 0.284338 -0.483 0.958715 -88.17 0.958715 -88.17 0.284333 4.1369
8.92225000 0.284405 -0.483 0.958695 -88.18 0.958695 -88.18 0.284401 4.1241
8.92250000 0.284473 -0.483 0.958675 -88.19 0.958675 -88.19 0.284468 4.1113
8.92275000 0.284541 -0.484 0.958655 -88.19 0.958655 -88.19 0.284536 4.0984
8.92300000 0.284608 -0.484 0.958635 -88.20 0.958635 -88.20 0.284604 4.0855
8.92325000 0.284677 -0.485 0.958615 -88.21 0.958615 -88.21 0.284672 4.0726
8.92350000 0.284745 -0.485 0.958594 -88.21 0.958594 -88.21 0.284740 4.0596
!< P1 F=8.9235 Eeff=(5.03117877 -2.1795e-5) Z0=(47.3950201 1.04447e-4) R=0.0 C=0.0 
!< P2 F=8.9235 Eeff=(5.03117877 -2.1795e-5) Z0=(47.3950201 1.04447e-4) R=0.0 C=0.0 
8.92375000 0.284813 -0.485 0.958574 -88.22 0.958574 -88.22 0.284808 4.0466
8.92400000 0.284882 -0.486 0.958554 -88.23 0.958554 -88.23 0.284877 4.0336
8.92425000 0.284951 -0.486 0.958533 -88.23 0.958533 -88.23 0.284946 4.0205
8.92450000 0.285020 -0.486 0.958513 -88.24 0.958513 -88.24 0.285015 4.0074
8.92475000 0.285089 -0.487 0.958492 -88.25 0.958492 -88.25 0.285084 3.9943
8.92500000 0.285159 -0.487 0.958471 -88.25 0.958471 -88.25 0.285154 3.9811
8.92525000 0.285228 -0.487 0.958451 -88.26 0.958451 -88.26 0.285223 3.9679
8.92550000 0.285298 -0.488 0.958430 -88.27 0.958430 -88.27 0.285293 3.9547
8.92575000 0.285368 -0.488 0.958409 -88.27 0.958409 -88.27 0.285363 3.9414
8.92600000 0.285439 -0.488 0.958388 -88.28 0.958388 -88.28 0.285433 3.9281
8.92625000 0.285509 -0.489 0.958367 -88.29 0.958367 -88.29 0.285504 3.9147
8.92650000 0.285580 -0.489 0.958346 -88.29 0.958346 -88.29 0.285575 3.9013
8.92675000 0.285651 -0.489 0.958325 -88.30 0.958325 -88.30 0.285645 3.8879
8.92700000 0.285722 -0.489 0.958303 -88.31 0.958303 -88.31 0.285717 3.8745
8.92725000 0.285793 -0.490 0.958282 -88.31 0.958282 -88.31 0.285788 3.8610
8.92750000 0.285865 -0.490 0.958261 -88.32 0.958261 -88.32 0.285859 3.8474
8.92775000 0.285936 -0.490 0.958239 -88.33 0.958239 -88.33 0.285931 3.8339
8.92800000 0.286008 -0.490 0.958218 -88.33 0.958218 -88.33 0.286003 3.8203
8.92825000 0.286081 -0.491 0.958196 -88.34 0.958196 -88.34 0.286075 3.8066
8.92850000 0.286153 -0.491 0.958175 -88.35 0.958175 -88.35 0.286148 3.7929
8.92875000 0.286226 -0.491 0.958153 -88.36 0.958153 -88.36 0.286220 3.7792
8.92900000 0.286299 -0.491 0.958131 -88.36 0.958131 -88.36 0.286293 3.7655
8.92925000 0.286372 -0.492 0.958109 -88.37 0.958109 -88.37 0.286366 3.7517
8.92950000 0.286445 -0.492 0.958087 -88.38 0.958087 -88.38 0.286439 3.7378
8.92975000 0.286518 -0.492 0.958065 -88.38 0.958065 -88.38 0.286513 3.7240
8.93000000 0.286592 -0.492 0.958043 -88.39 0.958043 -88.39 0.286587 3.7101
8.93025000 0.286666 -0.492 0.958021 -88.40 0.958021 -88.40 0.286661 3.6961
8.93050000 0.286740 -0.492 0.957999 -88.40 0.957999 -88.40 0.286735 3.6821
8.93075000 0.286815 -0.493 0.957977 -88.41 0.957977 -88.41 0.286809 3.6681
8.93100000 0.286889 -0.493 0.957954 -88.42 0.957954 -88.42 0.286884 3.6540
8.93125000 0.286964 -0.493 0.957932 -88.43 0.957932 -88.43 0.286959 3.6399
8.93150000 0.287039 -0.493 0.957909 -88.43 0.957909 -88.43 0.287034 3.6258
8.93175000 0.287115 -0.493 0.957887 -88.44 0.957887 -88.44 0.287109 3.6116
8.93200000 0.287190 -0.493 0.957864 -88.45 0.957864 -88.45 0.287185 3.5974
8.93225000 0.287266 -0.493 0.957841 -88.45 0.957841 -88.45 0.287261 3.5831
8.93250000 0.287342 -0.493 0.957818 -88.46 0.957818 -88.46 0.287337 3.5688
8.93275000 0.287419 -0.494 0.957795 -88.47 0.957795 -88.47 0.287413 3.5544
8.93300000 0.287495 -0.494 0.957772 -88.48 0.957772 -88.48 0.287489 3.5400
8.93325000 0.287572 -0.494 0.957749 -88.48 0.957749 -88.48 0.287566 3.5256
8.93350000 0.287649 -0.494 0.957726 -88.49 0.957726 -88.49 0.287643 3.5111
8.93375000 0.287726 -0.494 0.957703 -88.50 0.957703 -88.50 0.287720 3.4966
8.93400000 0.287804 -0.494 0.957680 -88.50 0.957680 -88.50 0.287798 3.4821
8.93425000 0.287882 -0.494 0.957656 -88.51 0.957656 -88.51 0.287876 3.4675
8.93450000 0.287960 -0.494 0.957633 -88.52 0.957633 -88.52 0.287954 3.4528
8.93475000 0.288038 -0.494 0.957609 -88.53 0.957609 -88.53 0.288032 3.4381
8.93500000 0.288116 -0.494 0.957586 -88.53 0.957586 -88.53 0.288110 3.4234
8.93525000 0.288195 -0.494 0.957562 -88.54 0.957562 -88.54 0.288189 3.4086
8.93550000 0.288274 -0.494 0.957538 -88.55 0.957538 -88.55 0.288268 3.3938
8.93575000 0.288353 -0.494 0.957514 -88.56 0.957514 -88.56 0.288347 3.3789
8.93600000 0.288433 -0.494 0.957490 -88.56 0.957490 -88.56 0.288427 3.3640
8.93625000 0.288513 -0.494 0.957466 -88.57 0.957466 -88.57 0.288507 3.3491
8.93650000 0.288593 -0.494 0.957442 -88.58 0.957442 -88.58 0.288587 3.3341
8.93675000 0.288673 -0.494 0.957418 -88.59 0.957418 -88.59 0.288667 3.3191
8.93700000 0.288754 -0.494 0.957393 -88.59 0.957393 -88.59 0.288748 3.3040
8.93725000 0.288835 -0.494 0.957369 -88.60 0.957369 -88.60 0.288829 3.2889
8.93750000 0.288916 -0.494 0.957344 -88.61 0.957344 -88.61 0.288910 3.2737
8.93775000 0.288997 -0.494 0.957320 -88.62 0.957320 -88.62 0.288991 3.2585
8.93800000 0.289079 -0.494 0.957295 -88.62 0.957295 -88.62 0.289073 3.2432
8.93825000 0.289161 -0.493 0.957270 -88.63 0.957270 -88.63 0.289155 3.2279
8.93850000 0.289243 -0.493 0.957245 -88.64 0.957245 -88.64 0.289237 3.2125
8.93875000 0.289326 -0.493 0.957221 -88.65 0.957221 -88.65 0.289319 3.1971
8.93900000 0.289408 -0.493 0.957195 -88.65 0.957195 -88.65 0.289402 3.1817
8.93925000 0.289491 -0.493 0.957170 -88.66 0.957170 -88.66 0.289485 3.1662
8.93950000 0.289575 -0.493 0.957145 -88.67 0.957145 -88.67 0.289568 3.1506
8.93975000 0.289658 -0.493 0.957120 -88.68 0.957120 -88.68 0.289652 3.1351
8.94000000 0.289742 -0.492 0.957094 -88.69 0.957094 -88.69 0.289736 3.1194
8.94025000 0.289826 -0.492 0.957069 -88.69 0.957069 -88.69 0.289820 3.1037
8.94050000 0.289911 -0.492 0.957043 -88.70 0.957043 -88.70 0.289904 3.0880
8.94075000 0.289996 -0.492 0.957018 -88.71 0.957018 -88.71 0.289989 3.0722
8.94100000 0.290081 -0.492 0.956992 -88.72 0.956992 -88.72 0.290074 3.0564
8.94125000 0.290166 -0.492 0.956966 -88.72 0.956966 -88.72 0.290159 3.0405
8.94150000 0.290252 -0.491 0.956940 -88.73 0.956940 -88.73 0.290245 3.0245
8.94175000 0.290338 -0.491 0.956914 -88.74 0.956914 -88.74 0.290331 3.0086
8.94200000 0.290424 -0.491 0.956888 -88.75 0.956888 -88.75 0.290417 2.9925
8.94225000 0.290510 -0.491 0.956861 -88.76 0.956861 -88.76 0.290504 2.9764
8.94250000 0.290597 -0.490 0.956835 -88.76 0.956835 -88.76 0.290590 2.9603
8.94275000 0.290684 -0.490 0.956808 -88.77 0.956808 -88.77 0.290678 2.9441
8.94300000 0.290772 -0.490 0.956782 -88.78 0.956782 -88.78 0.290765 2.9279
8.94325000 0.290860 -0.490 0.956755 -88.79 0.956755 -88.79 0.290853 2.9116
8.94350000 0.290948 -0.489 0.956728 -88.80 0.956728 -88.80 0.290941 2.8953
8.94375000 0.291036 -0.489 0.956701 -88.80 0.956701 -88.80 0.291029 2.8789
8.94400000 0.291125 -0.489 0.956674 -88.81 0.956674 -88.81 0.291118 2.8624
8.94425000 0.291214 -0.488 0.956647 -88.82 0.956647 -88.82 0.291207 2.8459
8.94450000 0.291303 -0.488 0.956620 -88.83 0.956620 -88.83 0.291296 2.8294
8.94475000 0.291393 -0.488 0.956593 -88.84 0.956593 -88.84 0.291386 2.8128
8.94500000 0.291483 -0.487 0.956565 -88.84 0.956565 -88.84 0.291476 2.7961
8.94525000 0.291573 -0.487 0.956538 -88.85 0.956538 -88.85 0.291566 2.7794
8.94550000 0.291663 -0.487 0.956510 -88.86 0.956510 -88.86 0.291656 2.7626
8.94575000 0.291754 -0.486 0.956482 -88.87 0.956482 -88.87 0.291747 2.7458
8.94600000 0.291846 -0.486 0.956454 -88.88 0.956454 -88.88 0.291839 2.7289
8.94625000 0.291937 -0.485 0.956426 -88.89 0.956426 -88.89 0.291930 2.7120
8.94650000 0.292029 -0.485 0.956398 -88.89 0.956398 -88.89 0.292022 2.6950
8.94675000 0.292121 -0.485 0.956370 -88.90 0.956370 -88.90 0.292114 2.6779
8.94700000 0.292214 -0.484 0.956342 -88.91 0.956342 -88.91 0.292207 2.6608
8.94725000 0.292307 -0.484 0.956313 -88.92 0.956313 -88.92 0.292300 2.6437
8.94750000 0.292400 -0.483 0.956285 -88.93 0.956285 -88.93 0.292393 2.6265
8.94775000 0.292494 -0.483 0.956256 -88.94 0.956256 -88.94 0.292487 2.6092
8.94800000 0.292588 -0.482 0.956227 -88.94 0.956227 -88.94 0.292581 2.5919
8.94825000 0.292682 -0.482 0.956198 -88.95 0.956198 -88.95 0.292675 2.5745
8.94850000 0.292777 -0.481 0.956169 -88.96 0.956169 -88.96 0.292769 2.5570
8.94875000 0.292872 -0.481 0.956140 -88.97 0.956140 -88.97 0.292864 2.5395
8.94900000 0.292967 -0.480 0.956111 -88.98 0.956111 -88.98 0.292960 2.5220
8.94925000 0.293063 -0.480 0.956082 -88.99 0.956082 -88.99 0.293056 2.5043
8.94950000 0.293159 -0.479 0.956052 -89.00 0.956052 -89.00 0.293152 2.4867
8.94975000 0.293256 -0.479 0.956023 -89.00 0.956023 -89.00 0.293248 2.4689
8.95000000 0.293353 -0.478 0.955993 -89.01 0.955993 -89.01 0.293345 2.4511
8.95025000 0.293450 -0.478 0.955963 -89.02 0.955963 -89.02 0.293442 2.4333
8.95050000 0.293547 -0.477 0.955933 -89.03 0.955933 -89.03 0.293540 2.4153
8.95075000 0.293645 -0.476 0.955903 -89.04 0.955903 -89.04 0.293637 2.3973
8.95100000 0.293744 -0.476 0.955873 -89.05 0.955873 -89.05 0.293736 2.3793
8.95125000 0.293842 -0.475 0.955842 -89.06 0.955842 -89.06 0.293834 2.3612
8.95150000 0.293941 -0.475 0.955812 -89.06 0.955812 -89.06 0.293933 2.3430
8.95175000 0.294041 -0.474 0.955781 -89.07 0.955781 -89.07 0.294033 2.3248
8.95200000 0.294141 -0.473 0.955750 -89.08 0.955750 -89.08 0.294133 2.3065
8.95225000 0.294241 -0.473 0.955719 -89.09 0.955719 -89.09 0.294233 2.2881
8.95250000 0.294342 -0.472 0.955688 -89.10 0.955688 -89.10 0.294334 2.2697
8.95275000 0.294443 -0.471 0.955657 -89.11 0.955657 -89.11 0.294435 2.2512
8.95300000 0.294544 -0.471 0.955626 -89.12 0.955626 -89.12 0.294536 2.2326
8.95325000 0.294646 -0.470 0.955595 -89.13 0.955595 -89.13 0.294638 2.2140
8.95350000 0.294748 -0.469 0.955563 -89.14 0.955563 -89.14 0.294740 2.1953
8.95375000 0.294851 -0.468 0.955531 -89.14 0.955531 -89.14 0.294842 2.1765
8.95400000 0.294954 -0.468 0.955500 -89.15 0.955500 -89.15 0.294945 2.1577
8.95425000 0.295057 -0.467 0.955468 -89.16 0.955468 -89.16 0.295049 2.1388
8.95450000 0.295161 -0.466 0.955435 -89.17 0.955435 -89.17 0.295153 2.1199
8.95475000 0.295265 -0.465 0.955403 -89.18 0.955403 -89.18 0.295257 2.1008
8.95500000 0.295370 -0.465 0.955371 -89.19 0.955371 -89.19 0.295362 2.0817
8.95525000 0.295475 -0.464 0.955338 -89.20 0.955338 -89.20 0.295467 2.0626
8.95550000 0.295581 -0.463 0.955306 -89.21 0.955306 -89.21 0.295572 2.0433
8.95575000 0.295686 -0.462 0.955273 -89.22 0.955273 -89.22 0.295678 2.0240
8.95600000 0.295793 -0.461 0.955240 -89.23 0.955240 -89.23 0.295784 2.0047
8.95625000 0.295900 -0.461 0.955207 -89.24 0.955207 -89.24 0.295891 1.9852
8.95650000 0.296007 -0.460 0.955173 -89.25 0.955173 -89.25 0.295998 1.9657
8.95675000 0.296115 -0.459 0.955140 -89.25 0.955140 -89.25 0.296106 1.9461
8.95700000 0.296223 -0.458 0.955106 -89.26 0.955106 -89.26 0.296214 1.9265
8.95725000 0.296331 -0.457 0.955073 -89.27 0.955073 -89.27 0.296323 1.9067
8.95750000 0.296440 -0.456 0.955039 -89.28 0.955039 -89.28 0.296432 1.8869
8.95775000 0.296550 -0.455 0.955005 -89.29 0.955005 -89.29 0.296541 1.8670
8.95800000 0.296660 -0.454 0.954971 -89.30 0.954971 -89.30 0.296651 1.8471
8.95825000 0.296770 -0.453 0.954936 -89.31 0.954936 -89.31 0.296761 1.8271
8.95850000 0.296881 -0.453 0.954902 -89.32 0.954902 -89.32 0.296872 1.8070
8.95875000 0.296992 -0.452 0.954867 -89.33 0.954867 -89.33 0.296983 1.7868
8.95900000 0.297104 -0.451 0.954832 -89.34 0.954832 -89.34 0.297095 1.7665
8.95925000 0.297216 -0.450 0.954797 -89.35 0.954797 -89.35 0.297207 1.7462
8.95950000 0.297329 -0.449 0.954762 -89.36 0.954762 -89.36 0.297320 1.7258
8.95975000 0.297442 -0.448 0.954727 -89.37 0.954727 -89.37 0.297433 1.7053
8.96000000 0.297556 -0.447 0.954691 -89.38 0.954691 -89.38 0.297547 1.6848
8.96025000 0.297670 -0.446 0.954656 -89.39 0.954656 -89.39 0.297661 1.6641
8.96050000 0.297785 -0.445 0.954620 -89.40 0.954620 -89.40 0.297776 1.6434
8.96075000 0.297900 -0.443 0.954584 -89.41 0.954584 -89.41 0.297891 1.6226
8.96100000 0.298016 -0.442 0.954548 -89.42 0.954548 -89.42 0.298006 1.6017
8.96125000 0.298132 -0.441 0.954512 -89.43 0.954512 -89.43 0.298122 1.5808
8.96150000 0.298248 -0.440 0.954475 -89.44 0.954475 -89.44 0.298239 1.5597
8.96175000 0.298366 -0.439 0.954438 -89.45 0.954438 -89.45 0.298356 1.5386
8.96200000 0.298483 -0.438 0.954402 -89.46 0.954402 -89.46 0.298474 1.5174
8.96225000 0.298601 -0.437 0.954365 -89.47 0.954365 -89.47 0.298592 1.4961
8.96250000 0.298720 -0.436 0.954327 -89.48 0.954327 -89.48 0.298710 1.4748
8.96275000 0.298839 -0.435 0.954290 -89.49 0.954290 -89.49 0.298830 1.4533
8.96300000 0.298959 -0.433 0.954252 -89.50 0.954252 -89.50 0.298949 1.4318
8.96325000 0.299079 -0.432 0.954215 -89.51 0.954215 -89.51 0.299070 1.4102
8.96350000 0.299200 -0.431 0.954177 -89.52 0.954177 -89.52 0.299190 1.3885
8.96375000 0.299322 -0.430 0.954139 -89.53 0.954139 -89.53 0.299312 1.3667
8.96400000 0.299443 -0.429 0.954100 -89.54 0.954100 -89.54 0.299433 1.3448
8.96425000 0.299566 -0.427 0.954062 -89.55 0.954062 -89.55 0.299556 1.3228
8.96450000 0.299689 -0.426 0.954023 -89.56 0.954023 -89.56 0.299679 1.3008
8.96475000 0.299812 -0.425 0.953984 -89.57 0.953984 -89.57 0.299802 1.2786
8.96500000 0.299936 -0.424 0.953945 -89.58 0.953945 -89.58 0.299926 1.2564
8.96525000 0.300061 -0.422 0.953906 -89.59 0.953906 -89.59 0.300051 1.2341
8.96550000 0.300186 -0.421 0.953867 -89.60 0.953867 -89.60 0.300176 1.2117
8.96575000 0.300312 -0.420 0.953827 -89.61 0.953827 -89.61 0.300302 1.1892
8.96600000 0.300438 -0.418 0.953787 -89.62 0.953787 -89.62 0.300428 1.1666
8.96625000 0.300565 -0.417 0.953747 -89.63 0.953747 -89.63 0.300555 1.1439
8.96650000 0.300693 -0.416 0.953707 -89.65 0.953707 -89.65 0.300683 1.1211
8.96675000 0.300821 -0.414 0.953666 -89.66 0.953666 -89.66 0.300811 1.0983
8.96700000 0.300950 -0.413 0.953626 -89.67 0.953626 -89.67 0.300939 1.0753
8.96725000 0.301079 -0.412 0.953585 -89.68 0.953585 -89.68 0.301068 1.0522
8.96750000 0.301209 -0.410 0.953544 -89.69 0.953544 -89.69 0.301198 1.0291
8.96775000 0.301339 -0.409 0.953502 -89.70 0.953502 -89.70 0.301329 1.0058
8.96800000 0.301471 -0.407 0.953461 -89.71 0.953461 -89.71 0.301460 0.9825
8.96825000 0.301602 -0.406 0.953419 -89.72 0.953419 -89.72 0.301592 0.9590
8.96850000 0.301735 -0.404 0.953377 -89.73 0.953377 -89.73 0.301724 0.9355
8.96875000 0.301868 -0.403 0.953335 -89.74 0.953335 -89.74 0.301857 0.9118
8.96900000 0.302001 -0.401 0.953293 -89.75 0.953293 -89.75 0.301990 0.8881
8.96925000 0.302136 -0.400 0.953250 -89.77 0.953250 -89.77 0.302125 0.8643
8.96950000 0.302270 -0.398 0.953207 -89.78 0.953207 -89.78 0.302259 0.8403
8.96975000 0.302406 -0.397 0.953164 -89.79 0.953164 -89.79 0.302395 0.8163
8.97000000 0.302542 -0.395 0.953121 -89.80 0.953121 -89.80 0.302531 0.7921
8.97025000 0.302679 -0.394 0.953077 -89.81 0.953077 -89.81 0.302668 0.7679
8.97050000 0.302817 -0.392 0.953034 -89.82 0.953034 -89.82 0.302805 0.7435
8.97075000 0.302955 -0.391 0.952990 -89.83 0.952990 -89.83 0.302943 0.7191
8.97100000 0.303094 -0.389 0.952946 -89.85 0.952946 -89.85 0.303082 0.6945
8.97125000 0.303233 -0.387 0.952901 -89.86 0.952901 -89.86 0.303222 0.6698
8.97150000 0.303373 -0.386 0.952856 -89.87 0.952856 -89.87 0.303362 0.6451
8.97175000 0.303514 -0.384 0.952811 -89.88 0.952811 -89.88 0.303503 0.6202
8.97200000 0.303656 -0.382 0.952766 -89.89 0.952766 -89.89 0.303644 0.5952
8.97225000 0.303798 -0.381 0.952721 -89.90 0.952721 -89.90 0.303786 0.5701
8.97250000 0.303941 -0.379 0.952675 -89.92 0.952675 -89.92 0.303929 0.5449
8.97275000 0.304085 -0.377 0.952629 -89.93 0.952629 -89.93 0.304073 0.5195
8.97300000 0.304229 -0.376 0.952583 -89.94 0.952583 -89.94 0.304217 0.4941
8.97325000 0.304374 -0.374 0.952537 -89.95 0.952537 -89.95 0.304363 0.4685
8.97350000 0.304520 -0.372 0.952490 -89.96 0.952490 -89.96 0.304508 0.4429
8.97375000 0.304667 -0.370 0.952443 -89.97 0.952443 -89.97 0.304655 0.4171
8.97400000 0.304814 -0.369 0.952396 -89.99 0.952396 -89.99 0.304802 0.3912
8.97425000 0.304962 -0.367 0.952348 -90.00 0.952348 -90.00 0.304950 0.3652
8.97450000 0.305111 -0.365 0.952301 -90.01 0.952301 -90.01 0.305099 0.3391
8.97475000 0.305261 -0.363 0.952253 -90.02 0.952253 -90.02 0.305249 0.3128
8.97500000 0.305411 -0.361 0.952204 -90.04 0.952204 -90.04 0.305399 0.2865
8.97525000 0.305563 -0.359 0.952156 -90.05 0.952156 -90.05 0.305550 0.2600
8.97550000 0.305714 -0.358 0.952107 -90.06 0.952107 -90.06 0.305702 0.2334
8.97575000 0.305867 -0.356 0.952058 -90.07 0.952058 -90.07 0.305855 0.2067
8.97600000 0.306021 -0.354 0.952008 -90.08 0.952008 -90.08 0.306008 0.1798
8.97625000 0.306175 -0.352 0.951959 -90.10 0.951959 -90.10 0.306162 0.1529
8.97650000 0.306330 -0.350 0.951909 -90.11 0.951909 -90.11 0.306317 0.1258
8.97675000 0.306486 -0.348 0.951858 -90.12 0.951858 -90.12 0.306473 0.0985
8.97700000 0.306643 -0.346 0.951808 -90.14 0.951808 -90.14 0.306630 0.0712
8.97725000 0.306801 -0.344 0.951757 -90.15 0.951757 -90.15 0.306787 0.0437
8.97750000 0.306959 -0.342 0.951706 -90.16 0.951706 -90.16 0.306946 0.0161
8.97775000 0.307118 -0.340 0.951654 -90.17 0.951654 -90.17 0.307105 -0.012
8.97800000 0.307278 -0.338 0.951603 -90.19 0.951603 -90.19 0.307265 -0.039
8.97825000 0.307439 -0.336 0.951550 -90.20 0.951550 -90.20 0.307426 -0.067
8.97850000 0.307601 -0.334 0.951498 -90.21 0.951498 -90.21 0.307588 -0.096
8.97875000 0.307764 -0.332 0.951445 -90.23 0.951445 -90.23 0.307750 -0.124
8.97900000 0.307928 -0.330 0.951392 -90.24 0.951392 -90.24 0.307914 -0.152
8.97925000 0.308092 -0.328 0.951339 -90.25 0.951339 -90.25 0.308078 -0.181
8.97950000 0.308257 -0.326 0.951285 -90.27 0.951285 -90.27 0.308244 -0.209
8.97975000 0.308424 -0.323 0.951231 -90.28 0.951231 -90.28 0.308410 -0.238
8.98000000 0.308591 -0.321 0.951177 -90.29 0.951177 -90.29 0.308577 -0.267
8.98025000 0.308759 -0.319 0.951122 -90.31 0.951122 -90.31 0.308745 -0.296
8.98050000 0.308928 -0.317 0.951067 -90.32 0.951067 -90.32 0.308914 -0.325
8.98075000 0.309098 -0.315 0.951012 -90.33 0.951012 -90.33 0.309084 -0.355
8.98100000 0.309269 -0.313 0.950957 -90.35 0.950957 -90.35 0.309255 -0.384
8.98125000 0.309441 -0.310 0.950901 -90.36 0.950901 -90.36 0.309427 -0.414
8.98150000 0.309614 -0.308 0.950844 -90.37 0.950844 -90.37 0.309599 -0.444
8.98175000 0.309787 -0.306 0.950787 -90.39 0.950787 -90.39 0.309773 -0.474
8.98200000 0.309962 -0.304 0.950730 -90.40 0.950730 -90.40 0.309948 -0.504
8.98225000 0.310138 -0.301 0.950673 -90.42 0.950673 -90.42 0.310123 -0.534
8.98250000 0.310315 -0.299 0.950615 -90.43 0.950615 -90.43 0.310300 -0.564
8.98275000 0.310493 -0.297 0.950557 -90.44 0.950557 -90.44 0.310478 -0.595
8.98300000 0.310671 -0.294 0.950499 -90.46 0.950499 -90.46 0.310657 -0.626
8.98325000 0.310851 -0.292 0.950440 -90.47 0.950440 -90.47 0.310836 -0.657
8.98350000 0.311032 -0.290 0.950380 -90.49 0.950380 -90.49 0.311017 -0.688
8.98375000 0.311214 -0.287 0.950321 -90.50 0.950321 -90.50 0.311199 -0.719
8.98400000 0.311397 -0.285 0.950261 -90.51 0.950261 -90.51 0.311382 -0.750
8.98425000 0.311581 -0.282 0.950200 -90.53 0.950200 -90.53 0.311566 -0.781
8.98450000 0.311766 -0.280 0.950140 -90.54 0.950140 -90.54 0.311751 -0.813
8.98475000 0.311952 -0.278 0.950078 -90.56 0.950078 -90.56 0.311937 -0.845
8.98500000 0.312140 -0.275 0.950017 -90.57 0.950017 -90.57 0.312124 -0.877
8.98525000 0.312328 -0.273 0.949955 -90.59 0.949955 -90.59 0.312312 -0.909
8.98550000 0.312517 -0.270 0.949892 -90.60 0.949892 -90.60 0.312502 -0.941
8.98575000 0.312708 -0.268 0.949829 -90.62 0.949829 -90.62 0.312692 -0.974
8.98600000 0.312900 -0.265 0.949766 -90.63 0.949766 -90.63 0.312884 -1.006
8.98625000 0.313093 -0.263 0.949703 -90.65 0.949703 -90.65 0.313077 -1.039
8.98650000 0.313287 -0.260 0.949638 -90.66 0.949638 -90.66 0.313271 -1.072
8.98675000 0.313482 -0.258 0.949574 -90.68 0.949574 -90.68 0.313466 -1.105
8.98700000 0.313679 -0.255 0.949509 -90.69 0.949509 -90.69 0.313662 -1.139
8.98725000 0.313876 -0.252 0.949443 -90.71 0.949443 -90.71 0.313860 -1.172
8.98750000 0.314075 -0.250 0.949378 -90.72 0.949378 -90.72 0.314058 -1.206
8.98775000 0.314275 -0.247 0.949311 -90.74 0.949311 -90.74 0.314258 -1.240
8.98800000 0.314476 -0.244 0.949245 -90.76 0.949245 -90.76 0.314460 -1.274
8.98825000 0.314679 -0.242 0.949177 -90.77 0.949177 -90.77 0.314662 -1.308
8.98850000 0.314883 -0.239 0.949110 -90.79 0.949110 -90.79 0.314866 -1.342
8.98875000 0.315088 -0.236 0.949041 -90.80 0.949041 -90.80 0.315071 -1.377
8.98900000 0.315294 -0.234 0.948973 -90.82 0.948973 -90.82 0.315277 -1.412
8.98925000 0.315501 -0.231 0.948904 -90.84 0.948904 -90.84 0.315484 -1.447
8.98950000 0.315710 -0.228 0.948834 -90.85 0.948834 -90.85 0.315693 -1.482
8.98975000 0.315921 -0.225 0.948764 -90.87 0.948764 -90.87 0.315903 -1.517
8.99000000 0.316132 -0.223 0.948693 -90.88 0.948693 -90.88 0.316115 -1.553
8.99025000 0.316345 -0.220 0.948622 -90.90 0.948622 -90.90 0.316327 -1.589
8.99050000 0.316559 -0.217 0.948551 -90.92 0.948551 -90.92 0.316541 -1.624
8.99075000 0.316775 -0.214 0.948479 -90.93 0.948479 -90.93 0.316757 -1.661
8.99100000 0.316992 -0.211 0.948406 -90.95 0.948406 -90.95 0.316974 -1.697
8.99125000 0.317210 -0.209 0.948333 -90.97 0.948333 -90.97 0.317192 -1.734
8.99150000 0.317430 -0.206 0.948259 -90.98 0.948259 -90.98 0.317412 -1.770
8.99175000 0.317651 -0.203 0.948185 -91.00 0.948185 -91.00 0.317633 -1.807
8.99200000 0.317874 -0.200 0.948110 -91.02 0.948110 -91.02 0.317856 -1.844
8.99225000 0.318098 -0.197 0.948035 -91.04 0.948035 -91.04 0.318080 -1.882
8.99250000 0.318324 -0.194 0.947959 -91.05 0.947959 -91.05 0.318305 -1.919
8.99275000 0.318551 -0.191 0.947883 -91.07 0.947883 -91.07 0.318532 -1.957
8.99300000 0.318780 -0.188 0.947806 -91.09 0.947806 -91.09 0.318761 -1.995
8.99325000 0.319010 -0.185 0.947728 -91.11 0.947728 -91.11 0.318991 -2.033
8.99350000 0.319241 -0.182 0.947650 -91.12 0.947650 -91.12 0.319222 -2.072
8.99375000 0.319475 -0.179 0.947571 -91.14 0.947571 -91.14 0.319455 -2.111
8.99400000 0.319709 -0.176 0.947492 -91.16 0.947492 -91.16 0.319690 -2.150
8.99425000 0.319946 -0.173 0.947412 -91.18 0.947412 -91.18 0.319926 -2.189
8.99450000 0.320184 -0.170 0.947331 -91.20 0.947331 -91.20 0.320164 -2.228
8.99475000 0.320423 -0.167 0.947250 -91.21 0.947250 -91.21 0.320403 -2.268
8.99500000 0.320665 -0.164 0.947168 -91.23 0.947168 -91.23 0.320645 -2.307
8.99525000 0.320907 -0.161 0.947086 -91.25 0.947086 -91.25 0.320887 -2.348
8.99550000 0.321152 -0.158 0.947003 -91.27 0.947003 -91.27 0.321132 -2.388
8.99575000 0.321398 -0.155 0.946919 -91.29 0.946919 -91.29 0.321378 -2.428
8.99600000 0.321646 -0.152 0.946835 -91.31 0.946835 -91.31 0.321626 -2.469
8.99625000 0.321896 -0.149 0.946750 -91.33 0.946750 -91.33 0.321875 -2.510
8.99650000 0.322147 -0.146 0.946664 -91.34 0.946664 -91.34 0.322127 -2.552
8.99675000 0.322401 -0.142 0.946578 -91.36 0.946578 -91.36 0.322380 -2.593
8.99700000 0.322656 -0.139 0.946491 -91.38 0.946491 -91.38 0.322635 -2.635
8.99725000 0.322912 -0.136 0.946403 -91.40 0.946403 -91.40 0.322891 -2.677
8.99750000 0.323171 -0.133 0.946315 -91.42 0.946315 -91.42 0.323150 -2.719