! Sonnet Data File
! From: emgraph Version : 16.52
! From Project: Resonator2_cp_varyW
! Data is De-embedded 
! Data File Written: 10/09/2017 07:41:30
!< HDATE 10/08/2017 22:10:33
!< MDATE 10/08/2017 22:10:33
!< PARAMS
!< Length = 400.0
!< Pwid1 = 2000.0
!< Pwid2 = 2000.0
!< Air_gap = 18.0
!< Width = 30.0
!< gap = 16.0
!< END PARAMS
# GHZ S MA R 43.05000
8.90000000 0.018821 17.297 0.999817 -74.75 0.999817 -74.75 0.018817 13.234
!< P1 F=8.9 Eeff=(5.1612639 -2.2548e-5) Z0=(43.0590329 9.5502e-5) R=0.0 C=0.0 
!< P2 F=8.9 Eeff=(5.1612639 -2.2548e-5) Z0=(43.0590329 9.5502e-5) R=0.0 C=0.0 
8.90010000 0.018810 17.319 0.999818 -74.75 0.999818 -74.75 0.018807 13.209
8.90020000 0.018799 17.341 0.999818 -74.75 0.999818 -74.75 0.018796 13.184
8.90030000 0.018788 17.363 0.999818 -74.75 0.999818 -74.75 0.018785 13.159
8.90040000 0.018778 17.385 0.999818 -74.75 0.999818 -74.75 0.018774 13.134
8.90050000 0.018767 17.407 0.999818 -74.76 0.999818 -74.76 0.018763 13.109
8.90060000 0.018756 17.430 0.999818 -74.76 0.999818 -74.76 0.018753 13.083
8.90070000 0.018745 17.452 0.999819 -74.76 0.999819 -74.76 0.018742 13.057
8.90080000 0.018734 17.475 0.999819 -74.76 0.999819 -74.76 0.018731 13.032
8.90090000 0.018723 17.497 0.999819 -74.76 0.999819 -74.76 0.018720 13.006
8.90100000 0.018712 17.520 0.999819 -74.76 0.999819 -74.76 0.018709 12.980
8.90110000 0.018701 17.543 0.999819 -74.77 0.999819 -74.77 0.018698 12.954
8.90120000 0.018690 17.566 0.999820 -74.77 0.999820 -74.77 0.018687 12.928
8.90130000 0.018679 17.589 0.999820 -74.77 0.999820 -74.77 0.018676 12.901
8.90140000 0.018668 17.612 0.999820 -74.77 0.999820 -74.77 0.018664 12.875
8.90150000 0.018657 17.635 0.999820 -74.77 0.999820 -74.77 0.018653 12.849
8.90160000 0.018646 17.659 0.999820 -74.77 0.999820 -74.77 0.018642 12.822
8.90170000 0.018634 17.682 0.999821 -74.78 0.999821 -74.78 0.018631 12.795
8.90180000 0.018623 17.706 0.999821 -74.78 0.999821 -74.78 0.018619 12.768
8.90190000 0.018612 17.730 0.999821 -74.78 0.999821 -74.78 0.018608 12.741
8.90200000 0.018600 17.754 0.999821 -74.78 0.999821 -74.78 0.018597 12.714
8.90210000 0.018589 17.778 0.999821 -74.78 0.999821 -74.78 0.018585 12.687
8.90220000 0.018578 17.802 0.999821 -74.78 0.999821 -74.78 0.018574 12.659
8.90230000 0.018566 17.826 0.999822 -74.79 0.999822 -74.79 0.018562 12.632
8.90240000 0.018555 17.850 0.999822 -74.79 0.999822 -74.79 0.018551 12.604
8.90250000 0.018543 17.875 0.999822 -74.79 0.999822 -74.79 0.018539 12.577
8.90260000 0.018532 17.900 0.999822 -74.79 0.999822 -74.79 0.018528 12.549
8.90270000 0.018520 17.924 0.999822 -74.79 0.999822 -74.79 0.018516 12.521
8.90280000 0.018508 17.949 0.999823 -74.79 0.999823 -74.79 0.018505 12.493
8.90290000 0.018497 17.974 0.999823 -74.80 0.999823 -74.80 0.018493 12.464
8.90300000 0.018485 17.999 0.999823 -74.80 0.999823 -74.80 0.018481 12.436
8.90310000 0.018473 18.025 0.999823 -74.80 0.999823 -74.80 0.018469 12.407
8.90320000 0.018462 18.050 0.999823 -74.80 0.999823 -74.80 0.018458 12.379
8.90330000 0.018450 18.075 0.999824 -74.80 0.999824 -74.80 0.018446 12.350
8.90340000 0.018438 18.101 0.999824 -74.80 0.999824 -74.80 0.018434 12.321
8.90350000 0.018426 18.127 0.999824 -74.81 0.999824 -74.81 0.018422 12.292
8.90360000 0.018414 18.153 0.999824 -74.81 0.999824 -74.81 0.018410 12.263
8.90370000 0.018402 18.179 0.999824 -74.81 0.999824 -74.81 0.018398 12.233
8.90380000 0.018390 18.205 0.999825 -74.81 0.999825 -74.81 0.018386 12.204
8.90390000 0.018378 18.231 0.999825 -74.81 0.999825 -74.81 0.018374 12.174
8.90400000 0.018366 18.257 0.999825 -74.81 0.999825 -74.81 0.018362 12.144
8.90410000 0.018354 18.284 0.999825 -74.82 0.999825 -74.82 0.018350 12.115
8.90420000 0.018342 18.311 0.999825 -74.82 0.999825 -74.82 0.018338 12.084
8.90430000 0.018329 18.338 0.999826 -74.82 0.999826 -74.82 0.018325 12.054
8.90440000 0.018317 18.365 0.999826 -74.82 0.999826 -74.82 0.018313 12.024
8.90450000 0.018305 18.392 0.999826 -74.82 0.999826 -74.82 0.018301 11.993
8.90460000 0.018293 18.419 0.999826 -74.82 0.999826 -74.82 0.018288 11.963
8.90470000 0.018280 18.446 0.999826 -74.83 0.999826 -74.83 0.018276 11.932
8.90480000 0.018268 18.474 0.999827 -74.83 0.999827 -74.83 0.018264 11.901
8.90490000 0.018255 18.501 0.999827 -74.83 0.999827 -74.83 0.018251 11.870
8.90500000 0.018243 18.529 0.999827 -74.83 0.999827 -74.83 0.018239 11.839
8.90510000 0.018230 18.557 0.999827 -74.83 0.999827 -74.83 0.018226 11.807
8.90520000 0.018218 18.585 0.999827 -74.83 0.999827 -74.83 0.018213 11.776
8.90530000 0.018205 18.614 0.999828 -74.84 0.999828 -74.84 0.018201 11.744
8.90540000 0.018192 18.642 0.999828 -74.84 0.999828 -74.84 0.018188 11.712
8.90550000 0.018180 18.671 0.999828 -74.84 0.999828 -74.84 0.018175 11.680
8.90560000 0.018167 18.699 0.999828 -74.84 0.999828 -74.84 0.018163 11.648
8.90570000 0.018154 18.728 0.999829 -74.84 0.999829 -74.84 0.018150 11.616
8.90580000 0.018141 18.757 0.999829 -74.85 0.999829 -74.85 0.018137 11.583
8.90590000 0.018129 18.786 0.999829 -74.85 0.999829 -74.85 0.018124 11.551
8.90600000 0.018116 18.816 0.999829 -74.85 0.999829 -74.85 0.018111 11.518
8.90610000 0.018103 18.845 0.999829 -74.85 0.999829 -74.85 0.018098 11.485
8.90620000 0.018090 18.875 0.999830 -74.85 0.999830 -74.85 0.018085 11.452
8.90630000 0.018077 18.905 0.999830 -74.85 0.999830 -74.85 0.018072 11.419
8.90640000 0.018064 18.935 0.999830 -74.86 0.999830 -74.86 0.018059 11.385
8.90650000 0.018050 18.965 0.999830 -74.86 0.999830 -74.86 0.018046 11.351
8.90660000 0.018037 18.995 0.999830 -74.86 0.999830 -74.86 0.018033 11.318
8.90670000 0.018024 19.026 0.999831 -74.86 0.999831 -74.86 0.018020 11.284
8.90680000 0.018011 19.056 0.999831 -74.86 0.999831 -74.86 0.018006 11.249
8.90690000 0.017998 19.087 0.999831 -74.87 0.999831 -74.87 0.017993 11.215
8.90700000 0.017984 19.118 0.999831 -74.87 0.999831 -74.87 0.017980 11.181
8.90710000 0.017971 19.149 0.999832 -74.87 0.999832 -74.87 0.017966 11.146
8.90720000 0.017957 19.180 0.999832 -74.87 0.999832 -74.87 0.017953 11.111
8.90730000 0.017944 19.212 0.999832 -74.87 0.999832 -74.87 0.017939 11.076
8.90740000 0.017930 19.244 0.999832 -74.87 0.999832 -74.87 0.017926 11.041
8.90750000 0.017917 19.275 0.999832 -74.88 0.999832 -74.88 0.017912 11.005
8.90760000 0.017903 19.307 0.999833 -74.88 0.999833 -74.88 0.017898 10.970
8.90770000 0.017890 19.340 0.999833 -74.88 0.999833 -74.88 0.017885 10.934
8.90780000 0.017876 19.372 0.999833 -74.88 0.999833 -74.88 0.017871 10.898
8.90790000 0.017862 19.404 0.999833 -74.88 0.999833 -74.88 0.017857 10.862
8.90800000 0.017848 19.437 0.999834 -74.89 0.999834 -74.89 0.017843 10.826
8.90810000 0.017834 19.470 0.999834 -74.89 0.999834 -74.89 0.017830 10.789
8.90820000 0.017821 19.503 0.999834 -74.89 0.999834 -74.89 0.017816 10.752
8.90830000 0.017807 19.537 0.999834 -74.89 0.999834 -74.89 0.017802 10.715
8.90840000 0.017793 19.570 0.999834 -74.89 0.999834 -74.89 0.017788 10.678
8.90850000 0.017779 19.604 0.999835 -74.90 0.999835 -74.90 0.017774 10.641
8.90860000 0.017764 19.638 0.999835 -74.90 0.999835 -74.90 0.017759 10.603
8.90870000 0.017750 19.672 0.999835 -74.90 0.999835 -74.90 0.017745 10.566
8.90880000 0.017736 19.706 0.999835 -74.90 0.999835 -74.90 0.017731 10.528
8.90890000 0.017722 19.740 0.999836 -74.90 0.999836 -74.90 0.017717 10.490
8.90900000 0.017708 19.775 0.999836 -74.90 0.999836 -74.90 0.017702 10.451
8.90910000 0.017693 19.810 0.999836 -74.91 0.999836 -74.91 0.017688 10.413
8.90920000 0.017679 19.845 0.999836 -74.91 0.999836 -74.91 0.017674 10.374
8.90930000 0.017664 19.880 0.999837 -74.91 0.999837 -74.91 0.017659 10.335
8.90940000 0.017650 19.916 0.999837 -74.91 0.999837 -74.91 0.017645 10.296
8.90950000 0.017635 19.951 0.999837 -74.91 0.999837 -74.91 0.017630 10.256
8.90960000 0.017621 19.987 0.999837 -74.92 0.999837 -74.92 0.017616 10.217
8.90970000 0.017606 20.023 0.999837 -74.92 0.999837 -74.92 0.017601 10.177
8.90980000 0.017592 20.059 0.999838 -74.92 0.999838 -74.92 0.017586 10.137
8.90990000 0.017577 20.096 0.999838 -74.92 0.999838 -74.92 0.017571 10.097
8.91000000 0.017562 20.133 0.999838 -74.92 0.999838 -74.92 0.017557 10.056
8.91010000 0.017547 20.170 0.999838 -74.93 0.999838 -74.93 0.017542 10.015
8.91020000 0.017532 20.207 0.999839 -74.93 0.999839 -74.93 0.017527 9.9745
8.91030000 0.017517 20.244 0.999839 -74.93 0.999839 -74.93 0.017512 9.9333
8.91040000 0.017502 20.282 0.999839 -74.93 0.999839 -74.93 0.017497 9.8919
8.91050000 0.017487 20.320 0.999839 -74.93 0.999839 -74.93 0.017482 9.8502
8.91060000 0.017472 20.358 0.999840 -74.94 0.999840 -74.94 0.017467 9.8083
8.91070000 0.017457 20.396 0.999840 -74.94 0.999840 -74.94 0.017451 9.7662
8.91080000 0.017442 20.434 0.999840 -74.94 0.999840 -74.94 0.017436 9.7239
8.91090000 0.017427 20.473 0.999840 -74.94 0.999840 -74.94 0.017421 9.6813
8.91100000 0.017411 20.512 0.999841 -74.94 0.999841 -74.94 0.017406 9.6384
8.91110000 0.017396 20.551 0.999841 -74.95 0.999841 -74.95 0.017390 9.5954
8.91120000 0.017381 20.591 0.999841 -74.95 0.999841 -74.95 0.017375 9.5520
8.91130000 0.017365 20.631 0.999841 -74.95 0.999841 -74.95 0.017359 9.5084
8.91140000 0.017350 20.671 0.999842 -74.95 0.999842 -74.95 0.017344 9.4646
8.91150000 0.017334 20.711 0.999842 -74.95 0.999842 -74.95 0.017328 9.4205
8.91160000 0.017318 20.751 0.999842 -74.96 0.999842 -74.96 0.017312 9.3762
8.91170000 0.017303 20.792 0.999842 -74.96 0.999842 -74.96 0.017297 9.3316
8.91180000 0.017287 20.833 0.999843 -74.96 0.999843 -74.96 0.017281 9.2867
8.91190000 0.017271 20.874 0.999843 -74.96 0.999843 -74.96 0.017265 9.2416
8.91200000 0.017255 20.915 0.999843 -74.96 0.999843 -74.96 0.017249 9.1962
8.91210000 0.017239 20.957 0.999843 -74.97 0.999843 -74.97 0.017233 9.1505
8.91220000 0.017223 20.999 0.999844 -74.97 0.999844 -74.97 0.017217 9.1046
8.91230000 0.017207 21.041 0.999844 -74.97 0.999844 -74.97 0.017201 9.0584
8.91240000 0.017191 21.084 0.999844 -74.97 0.999844 -74.97 0.017185 9.0119
8.91250000 0.017175 21.127 0.999844 -74.97 0.999844 -74.97 0.017169 8.9651
8.91260000 0.017159 21.170 0.999845 -74.98 0.999845 -74.98 0.017153 8.9181
8.91270000 0.017143 21.213 0.999845 -74.98 0.999845 -74.98 0.017136 8.8708
8.91280000 0.017126 21.257 0.999845 -74.98 0.999845 -74.98 0.017120 8.8232
8.91290000 0.017110 21.300 0.999845 -74.98 0.999845 -74.98 0.017104 8.7753
8.91300000 0.017093 21.345 0.999846 -74.98 0.999846 -74.98 0.017087 8.7271
8.91310000 0.017077 21.389 0.999846 -74.99 0.999846 -74.99 0.017071 8.6786
8.91320000 0.017060 21.434 0.999846 -74.99 0.999846 -74.99 0.017054 8.6298
8.91330000 0.017044 21.479 0.999846 -74.99 0.999846 -74.99 0.017037 8.5808
8.91340000 0.017027 21.524 0.999847 -74.99 0.999847 -74.99 0.017021 8.5314
8.91350000 0.017010 21.570 0.999847 -74.99 0.999847 -74.99 0.017004 8.4817
8.91360000 0.016994 21.615 0.999847 -75.00 0.999847 -75.00 0.016987 8.4318
8.91370000 0.016977 21.662 0.999847 -75.00 0.999847 -75.00 0.016970 8.3815
8.91380000 0.016960 21.708 0.999848 -75.00 0.999848 -75.00 0.016953 8.3309
8.91390000 0.016943 21.755 0.999848 -75.00 0.999848 -75.00 0.016936 8.2799
8.91400000 0.016926 21.802 0.999848 -75.01 0.999848 -75.01 0.016919 8.2287
8.91410000 0.016909 21.849 0.999848 -75.01 0.999848 -75.01 0.016902 8.1772
8.91420000 0.016891 21.897 0.999849 -75.01 0.999849 -75.01 0.016885 8.1253
8.91430000 0.016874 21.945 0.999849 -75.01 0.999849 -75.01 0.016867 8.0731
8.91440000 0.016857 21.993 0.999849 -75.01 0.999849 -75.01 0.016850 8.0205
8.91450000 0.016840 22.042 0.999850 -75.02 0.999850 -75.02 0.016833 7.9677
8.91460000 0.016822 22.091 0.999850 -75.02 0.999850 -75.02 0.016815 7.9145
8.91470000 0.016805 22.140 0.999850 -75.02 0.999850 -75.02 0.016798 7.8609
8.91480000 0.016787 22.190 0.999850 -75.02 0.999850 -75.02 0.016780 7.8070
8.91490000 0.016769 22.240 0.999851 -75.03 0.999851 -75.03 0.016762 7.7528
8.91500000 0.016752 22.290 0.999851 -75.03 0.999851 -75.03 0.016745 7.6982
8.91510000 0.016734 22.341 0.999851 -75.03 0.999851 -75.03 0.016727 7.6433
8.91520000 0.016716 22.392 0.999851 -75.03 0.999851 -75.03 0.016709 7.5880
8.91530000 0.016698 22.444 0.999852 -75.03 0.999852 -75.03 0.016691 7.5323
8.91540000 0.016680 22.495 0.999852 -75.04 0.999852 -75.04 0.016673 7.4763
8.91550000 0.016662 22.547 0.999852 -75.04 0.999852 -75.04 0.016655 7.4199
8.91560000 0.016644 22.600 0.999853 -75.04 0.999853 -75.04 0.016637 7.3632
8.91570000 0.016626 22.653 0.999853 -75.04 0.999853 -75.04 0.016619 7.3061
8.91580000 0.016608 22.706 0.999853 -75.05 0.999853 -75.05 0.016601 7.2486
8.91590000 0.016590 22.759 0.999853 -75.05 0.999853 -75.05 0.016582 7.1907
8.91600000 0.016571 22.813 0.999854 -75.05 0.999854 -75.05 0.016564 7.1324
8.91610000 0.016553 22.867 0.999854 -75.05 0.999854 -75.05 0.016545 7.0737
8.91620000 0.016535 22.922 0.999854 -75.05 0.999854 -75.05 0.016527 7.0147
8.91630000 0.016516 22.977 0.999854 -75.06 0.999854 -75.06 0.016508 6.9553
8.91640000 0.016497 23.032 0.999855 -75.06 0.999855 -75.06 0.016490 6.8954
8.91650000 0.016479 23.088 0.999855 -75.06 0.999855 -75.06 0.016471 6.8352
8.91660000 0.016460 23.145 0.999855 -75.06 0.999855 -75.06 0.016452 6.7745
8.91670000 0.016441 23.201 0.999856 -75.07 0.999856 -75.07 0.016433 6.7134
8.91680000 0.016422 23.258 0.999856 -75.07 0.999856 -75.07 0.016414 6.6520
8.91690000 0.016403 23.316 0.999856 -75.07 0.999856 -75.07 0.016395 6.5901
8.91700000 0.016384 23.373 0.999856 -75.07 0.999856 -75.07 0.016376 6.5277
8.91710000 0.016365 23.432 0.999857 -75.08 0.999857 -75.08 0.016357 6.4650
8.91720000 0.016346 23.490 0.999857 -75.08 0.999857 -75.08 0.016338 6.4018
8.91730000 0.016327 23.549 0.999857 -75.08 0.999857 -75.08 0.016318 6.3381
8.91740000 0.016307 23.609 0.999858 -75.08 0.999858 -75.08 0.016299 6.2741
8.91750000 0.016288 23.669 0.999858 -75.08 0.999858 -75.08 0.016280 6.2095
8.91760000 0.016269 23.729 0.999858 -75.09 0.999858 -75.09 0.016260 6.1446
8.91770000 0.016249 23.790 0.999858 -75.09 0.999858 -75.09 0.016241 6.0792
8.91780000 0.016229 23.851 0.999859 -75.09 0.999859 -75.09 0.016221 6.0133
8.91790000 0.016210 23.913 0.999859 -75.09 0.999859 -75.09 0.016201 5.9469
8.91800000 0.016190 23.975 0.999859 -75.10 0.999859 -75.10 0.016181 5.8801
8.91810000 0.016170 24.038 0.999860 -75.10 0.999860 -75.10 0.016162 5.8128
8.91820000 0.016150 24.101 0.999860 -75.10 0.999860 -75.10 0.016142 5.7450
8.91830000 0.016130 24.165 0.999860 -75.10 0.999860 -75.10 0.016122 5.6767
8.91840000 0.016110 24.229 0.999860 -75.11 0.999860 -75.11 0.016101 5.6080
8.91850000 0.016090 24.293 0.999861 -75.11 0.999861 -75.11 0.016081 5.5387
8.91860000 0.016070 24.358 0.999861 -75.11 0.999861 -75.11 0.016061 5.4690
8.91870000 0.016050 24.424 0.999861 -75.11 0.999861 -75.11 0.016041 5.3987
8.91880000 0.016029 24.490 0.999862 -75.12 0.999862 -75.12 0.016020 5.3279
8.91890000 0.016009 24.557 0.999862 -75.12 0.999862 -75.12 0.016000 5.2566
8.91900000 0.015988 24.624 0.999862 -75.12 0.999862 -75.12 0.015979 5.1848
8.91910000 0.015968 24.691 0.999863 -75.12 0.999863 -75.12 0.015959 5.1125
8.91920000 0.015947 24.759 0.999863 -75.13 0.999863 -75.13 0.015938 5.0396
8.91930000 0.015926 24.828 0.999863 -75.13 0.999863 -75.13 0.015917 4.9662
8.91940000 0.015905 24.897 0.999863 -75.13 0.999863 -75.13 0.015896 4.8922
8.91950000 0.015885 24.967 0.999864 -75.13 0.999864 -75.13 0.015875 4.8177
8.91960000 0.015864 25.037 0.999864 -75.14 0.999864 -75.14 0.015854 4.7426
8.91970000 0.015843 25.108 0.999864 -75.14 0.999864 -75.14 0.015833 4.6670
8.91980000 0.015821 25.179 0.999865 -75.14 0.999865 -75.14 0.015812 4.5908
8.91990000 0.015800 25.251 0.999865 -75.14 0.999865 -75.14 0.015791 4.5140
8.92000000 0.015779 25.323 0.999865 -75.15 0.999865 -75.15 0.015769 4.4367
8.92010000 0.015758 25.396 0.999866 -75.15 0.999866 -75.15 0.015748 4.3587
8.92020000 0.015736 25.470 0.999866 -75.15 0.999866 -75.15 0.015726 4.2801
8.92030000 0.015715 25.544 0.999866 -75.15 0.999866 -75.15 0.015705 4.2010
8.92040000 0.015693 25.619 0.999866 -75.16 0.999866 -75.16 0.015683 4.1212
8.92050000 0.015671 25.694 0.999867 -75.16 0.999867 -75.16 0.015661 4.0408
8.92060000 0.015649 25.770 0.999867 -75.16 0.999867 -75.16 0.015639 3.9598
8.92070000 0.015628 25.847 0.999867 -75.16 0.999867 -75.16 0.015617 3.8782
8.92080000 0.015606 25.924 0.999868 -75.17 0.999868 -75.17 0.015595 3.7959
8.92090000 0.015584 26.002 0.999868 -75.17 0.999868 -75.17 0.015573 3.7130
8.92100000 0.015562 26.080 0.999868 -75.17 0.999868 -75.17 0.015551 3.6294
8.92110000 0.015539 26.159 0.999869 -75.17 0.999869 -75.17 0.015529 3.5452
8.92120000 0.015517 26.239 0.999869 -75.18 0.999869 -75.18 0.015507 3.4603
8.92130000 0.015495 26.320 0.999869 -75.18 0.999869 -75.18 0.015484 3.3747
8.92140000 0.015472 26.401 0.999870 -75.18 0.999870 -75.18 0.015462 3.2885
8.92150000 0.015450 26.482 0.999870 -75.19 0.999870 -75.19 0.015439 3.2015
8.92160000 0.015427 26.565 0.999870 -75.19 0.999870 -75.19 0.015416 3.1139
8.92170000 0.015405 26.648 0.999870 -75.19 0.999870 -75.19 0.015394 3.0255
8.92180000 0.015382 26.732 0.999871 -75.19 0.999871 -75.19 0.015371 2.9365
8.92190000 0.015359 26.816 0.999871 -75.20 0.999871 -75.20 0.015348 2.8467
8.92200000 0.015336 26.902 0.999871 -75.20 0.999871 -75.20 0.015325 2.7562
8.92210000 0.015313 26.988 0.999872 -75.20 0.999872 -75.20 0.015302 2.6649
8.92220000 0.015290 27.074 0.999872 -75.20 0.999872 -75.20 0.015279 2.5729
8.92230000 0.015267 27.162 0.999872 -75.21 0.999872 -75.21 0.015255 2.4801
8.92240000 0.015243 27.250 0.999873 -75.21 0.999873 -75.21 0.015232 2.3866
8.92250000 0.015220 27.339 0.999873 -75.21 0.999873 -75.21 0.015209 2.2923
8.92260000 0.015197 27.429 0.999873 -75.22 0.999873 -75.22 0.015185 2.1972
8.92270000 0.015173 27.519 0.999874 -75.22 0.999874 -75.22 0.015161 2.1013
8.92280000 0.015149 27.610 0.999874 -75.22 0.999874 -75.22 0.015138 2.0046
8.92290000 0.015126 27.702 0.999874 -75.22 0.999874 -75.22 0.015114 1.9070
8.92300000 0.015102 27.795 0.999875 -75.23 0.999875 -75.23 0.015090 1.8087
8.92310000 0.015078 27.889 0.999875 -75.23 0.999875 -75.23 0.015066 1.7095
8.92320000 0.015054 27.984 0.999875 -75.23 0.999875 -75.23 0.015042 1.6095
8.92330000 0.015030 28.079 0.999876 -75.24 0.999876 -75.24 0.015018 1.5086
8.92340000 0.015006 28.175 0.999876 -75.24 0.999876 -75.24 0.014994 1.4069
8.92350000 0.014982 28.272 0.999876 -75.24 0.999876 -75.24 0.014969 1.3042
8.92360000 0.014957 28.370 0.999876 -75.24 0.999876 -75.24 0.014945 1.2007
8.92370000 0.014933 28.469 0.999877 -75.25 0.999877 -75.25 0.014920 1.0963
8.92380000 0.014908 28.569 0.999877 -75.25 0.999877 -75.25 0.014896 0.9910
8.92390000 0.014884 28.669 0.999877 -75.25 0.999877 -75.25 0.014871 0.8847
8.92400000 0.014859 28.771 0.999878 -75.26 0.999878 -75.26 0.014846 0.7776
8.92410000 0.014834 28.873 0.999878 -75.26 0.999878 -75.26 0.014822 0.6694
8.92420000 0.014810 28.976 0.999878 -75.26 0.999878 -75.26 0.014797 0.5604
8.92430000 0.014785 29.081 0.999879 -75.27 0.999879 -75.27 0.014772 0.4503
8.92440000 0.014760 29.186 0.999879 -75.27 0.999879 -75.27 0.014747 0.3393
8.92450000 0.014735 29.292 0.999879 -75.27 0.999879 -75.27 0.014721 0.2273
8.92460000 0.014709 29.399 0.999880 -75.27 0.999880 -75.27 0.014696 0.1142
8.92470000 0.014684 29.508 0.999880 -75.28 0.999880 -75.28 0.014671 1.9e-4
8.92480000 0.014659 29.617 0.999880 -75.28 0.999880 -75.28 0.014645 -0.115
8.92490000 0.014633 29.727 0.999881 -75.28 0.999881 -75.28 0.014620 -0.231
8.92500000 0.014608 29.838 0.999881 -75.29 0.999881 -75.29 0.014594 -0.348
8.92510000 0.014582 29.951 0.999881 -75.29 0.999881 -75.29 0.014568 -0.466
8.92520000 0.014556 30.064 0.999882 -75.29 0.999882 -75.29 0.014542 -0.586
8.92530000 0.014531 30.178 0.999882 -75.30 0.999882 -75.30 0.014517 -0.706
8.92540000 0.014505 30.294 0.999882 -75.30 0.999882 -75.30 0.014491 -0.828
8.92550000 0.014479 30.411 0.999883 -75.30 0.999883 -75.30 0.014464 -0.951
8.92560000 0.014453 30.528 0.999883 -75.31 0.999883 -75.31 0.014438 -1.074
8.92570000 0.014426 30.647 0.999883 -75.31 0.999883 -75.31 0.014412 -1.199
8.92580000 0.014400 30.767 0.999884 -75.31 0.999884 -75.31 0.014386 -1.326
8.92590000 0.014374 30.889 0.999884 -75.32 0.999884 -75.32 0.014359 -1.453
8.92600000 0.014347 31.011 0.999884 -75.32 0.999884 -75.32 0.014333 -1.581
8.92610000 0.014321 31.135 0.999885 -75.32 0.999885 -75.32 0.014306 -1.711
8.92620000 0.014294 31.259 0.999885 -75.32 0.999885 -75.32 0.014279 -1.842
8.92630000 0.014268 31.385 0.999885 -75.33 0.999885 -75.33 0.014253 -1.975
8.92640000 0.014241 31.513 0.999886 -75.33 0.999886 -75.33 0.014226 -2.108
8.92650000 0.014214 31.641 0.999886 -75.33 0.999886 -75.33 0.014199 -2.243
8.92660000 0.014187 31.771 0.999886 -75.34 0.999886 -75.34 0.014172 -2.379
8.92670000 0.014160 31.902 0.999887 -75.34 0.999887 -75.34 0.014145 -2.517
8.92680000 0.014133 32.035 0.999887 -75.34 0.999887 -75.34 0.014117 -2.656
8.92690000 0.014106 32.168 0.999887 -75.35 0.999887 -75.35 0.014090 -2.796
8.92700000 0.014079 32.304 0.999888 -75.35 0.999888 -75.35 0.014063 -2.937
8.92710000 0.014051 32.440 0.999888 -75.35 0.999888 -75.35 0.014035 -3.080
8.92720000 0.014024 32.578 0.999888 -75.36 0.999888 -75.36 0.014008 -3.225
8.92730000 0.013996 32.717 0.999889 -75.36 0.999889 -75.36 0.013980 -3.371
8.92740000 0.013969 32.858 0.999889 -75.36 0.999889 -75.36 0.013952 -3.518
8.92750000 0.013941 33.000 0.999889 -75.37 0.999889 -75.37 0.013924 -3.667
8.92760000 0.013913 33.144 0.999890 -75.37 0.999890 -75.37 0.013897 -3.817
8.92770000 0.013885 33.289 0.999890 -75.38 0.999890 -75.38 0.013869 -3.969
8.92780000 0.013858 33.436 0.999890 -75.38 0.999890 -75.38 0.013840 -4.122
8.92790000 0.013830 33.584 0.999891 -75.38 0.999891 -75.38 0.013812 -4.277
8.92800000 0.013802 33.733 0.999891 -75.39 0.999891 -75.39 0.013784 -4.434
8.92810000 0.013773 33.885 0.999891 -75.39 0.999891 -75.39 0.013756 -4.592
8.92820000 0.013745 34.038 0.999892 -75.39 0.999892 -75.39 0.013728 -4.752
8.92830000 0.013717 34.192 0.999892 -75.40 0.999892 -75.40 0.013699 -4.913
8.92840000 0.013688 34.348 0.999892 -75.40 0.999892 -75.40 0.013671 -5.076
8.92850000 0.013660 34.506 0.999892 -75.40 0.999892 -75.40 0.013642 -5.241
8.92860000 0.013632 34.666 0.999893 -75.41 0.999893 -75.41 0.013613 -5.407
8.92870000 0.013603 34.827 0.999893 -75.41 0.999893 -75.41 0.013585 -5.576
8.92880000 0.013574 34.990 0.999893 -75.41 0.999893 -75.41 0.013556 -5.746
8.92890000 0.013546 35.155 0.999894 -75.42 0.999894 -75.42 0.013527 -5.918
8.92900000 0.013517 35.321 0.999894 -75.42 0.999894 -75.42 0.013498 -6.091
8.92910000 0.013488 35.490 0.999894 -75.43 0.999894 -75.43 0.013469 -6.267
8.92920000 0.013459 35.660 0.999895 -75.43 0.999895 -75.43 0.013440 -6.444
8.92930000 0.013430 35.832 0.999895 -75.43 0.999895 -75.43 0.013411 -6.624
8.92940000 0.013401 36.006 0.999895 -75.44 0.999895 -75.44 0.013382 -6.805
8.92950000 0.013372 36.182 0.999896 -75.44 0.999896 -75.44 0.013352 -6.988
8.92960000 0.013343 36.360 0.999896 -75.44 0.999896 -75.44 0.013323 -7.173
8.92970000 0.013314 36.540 0.999896 -75.45 0.999896 -75.45 0.013294 -7.361
8.92980000 0.013284 36.721 0.999897 -75.45 0.999897 -75.45 0.013264 -7.550
8.92990000 0.013255 36.905 0.999897 -75.46 0.999897 -75.46 0.013235 -7.741
8.93000000 0.013226 37.091 0.999897 -75.46 0.999897 -75.46 0.013205 -7.935
8.93010000 0.013196 37.279 0.999898 -75.46 0.999898 -75.46 0.013176 -8.131
8.93020000 0.013167 37.470 0.999898 -75.47 0.999898 -75.47 0.013146 -8.328
8.93030000 0.013137 37.662 0.999898 -75.47 0.999898 -75.47 0.013116 -8.529
8.93040000 0.013108 37.857 0.999899 -75.48 0.999899 -75.48 0.013086 -8.731
8.93050000 0.013078 38.053 0.999899 -75.48 0.999899 -75.48 0.013057 -8.935
8.93060000 0.013048 38.252 0.999899 -75.48 0.999899 -75.48 0.013027 -9.142
8.93070000 0.013019 38.454 0.999900 -75.49 0.999900 -75.49 0.012997 -9.352
8.93080000 0.012989 38.658 0.999900 -75.49 0.999900 -75.49 0.012967 -9.563
8.93090000 0.012959 38.864 0.999900 -75.50 0.999900 -75.50 0.012937 -9.777
8.93100000 0.012930 39.072 0.999900 -75.50 0.999900 -75.50 0.012907 -9.994
8.93110000 0.012900 39.283 0.999901 -75.50 0.999901 -75.50 0.012877 -10.21
8.93120000 0.012870 39.497 0.999901 -75.51 0.999901 -75.51 0.012847 -10.43
8.93130000 0.012840 39.712 0.999901 -75.51 0.999901 -75.51 0.012817 -10.66
8.93140000 0.012810 39.931 0.999902 -75.52 0.999902 -75.52 0.012787 -10.89
8.93150000 0.012781 40.152 0.999902 -75.52 0.999902 -75.52 0.012757 -11.11
8.93160000 0.012751 40.376 0.999902 -75.52 0.999902 -75.52 0.012727 -11.35
8.93170000 0.012721 40.602 0.999903 -75.53 0.999903 -75.53 0.012697 -11.58
8.93180000 0.012691 40.831 0.999903 -75.53 0.999903 -75.53 0.012667 -11.82
8.93190000 0.012661 41.063 0.999903 -75.54 0.999903 -75.54 0.012637 -12.06
8.93200000 0.012631 41.297 0.999903 -75.54 0.999903 -75.54 0.012607 -12.30
8.93210000 0.012601 41.535 0.999904 -75.55 0.999904 -75.55 0.012576 -12.55
8.93220000 0.012571 41.775 0.999904 -75.55 0.999904 -75.55 0.012546 -12.80
8.93230000 0.012542 42.018 0.999904 -75.56 0.999904 -75.56 0.012516 -13.05
8.93240000 0.012512 42.265 0.999905 -75.56 0.999905 -75.56 0.012486 -13.30
8.93250000 0.012482 42.514 0.999905 -75.56 0.999905 -75.56 0.012456 -13.56
8.93260000 0.012452 42.766 0.999905 -75.57 0.999905 -75.57 0.012426 -13.82
8.93270000 0.012423 43.021 0.999905 -75.57 0.999905 -75.57 0.012396 -14.09
8.93280000 0.012393 43.280 0.999906 -75.58 0.999906 -75.58 0.012366 -14.36
8.93290000 0.012363 43.542 0.999906 -75.58 0.999906 -75.58 0.012337 -14.63
8.93300000 0.012334 43.806 0.999906 -75.59 0.999906 -75.59 0.012307 -14.90
8.93310000 0.012304 44.075 0.999906 -75.59 0.999906 -75.59 0.012277 -15.18
8.93320000 0.012275 44.346 0.999907 -75.60 0.999907 -75.60 0.012247 -15.46
8.93330000 0.012245 44.621 0.999907 -75.60 0.999907 -75.60 0.012218 -15.74
8.93340000 0.012216 44.899 0.999907 -75.61 0.999907 -75.61 0.012188 -16.03
8.93350000 0.012187 45.181 0.999908 -75.61 0.999908 -75.61 0.012158 -16.32
8.93360000 0.012158 45.466 0.999908 -75.62 0.999908 -75.62 0.012129 -16.62
8.93370000 0.012129 45.755 0.999908 -75.62 0.999908 -75.62 0.012100 -16.92
8.93380000 0.012100 46.048 0.999908 -75.62 0.999908 -75.62 0.012070 -17.22
8.93390000 0.012071 46.344 0.999908 -75.63 0.999908 -75.63 0.012041 -17.52
8.93400000 0.012042 46.644 0.999909 -75.63 0.999909 -75.63 0.012012 -17.83
8.93410000 0.012014 46.948 0.999909 -75.64 0.999909 -75.64 0.011983 -18.15
8.93420000 0.011985 47.255 0.999909 -75.64 0.999909 -75.64 0.011955 -18.46
8.93430000 0.011957 47.567 0.999909 -75.65 0.999909 -75.65 0.011926 -18.79
8.93440000 0.011929 47.882 0.999910 -75.65 0.999910 -75.65 0.011898 -19.11
8.93450000 0.011901 48.202 0.999910 -75.66 0.999910 -75.66 0.011869 -19.44
8.93460000 0.011873 48.525 0.999910 -75.66 0.999910 -75.66 0.011841 -19.78
8.93470000 0.011845 48.853 0.999910 -75.67 0.999910 -75.67 0.011813 -20.11
8.93480000 0.011818 49.185 0.999910 -75.67 0.999910 -75.67 0.011785 -20.46
8.93490000 0.011790 49.521 0.999911 -75.68 0.999911 -75.68 0.011758 -20.80
8.93500000 0.011763 49.861 0.999911 -75.69 0.999911 -75.69 0.011730 -21.15
8.93510000 0.011737 50.206 0.999911 -75.69 0.999911 -75.69 0.011703 -21.51
8.93520000 0.011710 50.555 0.999911 -75.70 0.999911 -75.70 0.011676 -21.87
8.93530000 0.011684 50.909 0.999911 -75.70 0.999911 -75.70 0.011650 -22.23
8.93540000 0.011657 51.267 0.999912 -75.71 0.999912 -75.71 0.011623 -22.60
8.93550000 0.011632 51.629 0.999912 -75.71 0.999912 -75.71 0.011597 -22.98
8.93560000 0.011606 51.996 0.999912 -75.72 0.999912 -75.72 0.011571 -23.36
8.93570000 0.011581 52.368 0.999912 -75.72 0.999912 -75.72 0.011545 -23.74
8.93580000 0.011556 52.745 0.999912 -75.73 0.999912 -75.73 0.011520 -24.13
8.93590000 0.011531 53.126 0.999912 -75.73 0.999912 -75.73 0.011495 -24.52
8.93600000 0.011507 53.513 0.999913 -75.74 0.999913 -75.74 0.011470 -24.92
8.93610000 0.011483 53.904 0.999913 -75.74 0.999913 -75.74 0.011446 -25.32
8.93620000 0.011459 54.300 0.999913 -75.75 0.999913 -75.75 0.011422 -25.73
8.93630000 0.011436 54.701 0.999913 -75.76 0.999913 -75.76 0.011398 -26.14
8.93640000 0.011413 55.108 0.999913 -75.76 0.999913 -75.76 0.011375 -26.56
8.93650000 0.011390 55.519 0.999913 -75.77 0.999913 -75.77 0.011352 -26.99
8.93660000 0.011368 55.936 0.999913 -75.77 0.999913 -75.77 0.011330 -27.42
8.93670000 0.011347 56.357 0.999913 -75.78 0.999913 -75.78 0.011308 -27.85
8.93680000 0.011326 56.784 0.999913 -75.79 0.999913 -75.79 0.011286 -28.29
8.93690000 0.011305 57.217 0.999914 -75.79 0.999914 -75.79 0.011265 -28.74
8.93700000 0.011285 57.654 0.999914 -75.80 0.999914 -75.80 0.011244 -29.19
8.93710000 0.011265 58.098 0.999914 -75.80 0.999914 -75.80 0.011224 -29.64
8.93720000 0.011246 58.546 0.999914 -75.81 0.999914 -75.81 0.011205 -30.10
8.93730000 0.011227 59.000 0.999914 -75.82 0.999914 -75.82 0.011186 -30.57
8.93740000 0.011209 59.460 0.999914 -75.82 0.999914 -75.82 0.011167 -31.05
8.93750000 0.011192 59.925 0.999914 -75.83 0.999914 -75.83 0.011149 -31.52
8.93760000 0.011175 60.396 0.999914 -75.83 0.999914 -75.83 0.011132 -32.01
8.93770000 0.011159 60.873 0.999914 -75.84 0.999914 -75.84 0.011116 -32.50
8.93780000 0.011143 61.355 0.999914 -75.85 0.999914 -75.85 0.011100 -33.00
8.93790000 0.011128 61.843 0.999914 -75.85 0.999914 -75.85 0.011084 -33.50
8.93800000 0.011114 62.336 0.999914 -75.86 0.999914 -75.86 0.011070 -34.01
8.93810000 0.011101 62.836 0.999914 -75.87 0.999914 -75.87 0.011056 -34.52
8.93820000 0.011088 63.341 0.999914 -75.87 0.999914 -75.87 0.011043 -35.04
8.93830000 0.011077 63.852 0.999914 -75.88 0.999914 -75.88 0.011031 -35.57
8.93840000 0.011065 64.369 0.999914 -75.89 0.999914 -75.89 0.011019 -36.10
8.93850000 0.011055 64.892 0.999914 -75.89 0.999914 -75.89 0.011008 -36.64
8.93860000 0.011046 65.420 0.999914 -75.90 0.999914 -75.90 0.010999 -37.18
8.93870000 0.011038 65.954 0.999913 -75.91 0.999913 -75.91 0.010990 -37.73
8.93880000 0.011030 66.495 0.999913 -75.91 0.999913 -75.91 0.010982 -38.29
8.93890000 0.011023 67.041 0.999913 -75.92 0.999913 -75.92 0.010975 -38.85
8.93900000 0.011018 67.592 0.999913 -75.93 0.999913 -75.93 0.010969 -39.42
8.93910000 0.011013 68.150 0.999913 -75.93 0.999913 -75.93 0.010964 -39.99
8.93920000 0.011010 68.713 0.999913 -75.94 0.999913 -75.94 0.010960 -40.57