! Sonnet Data File
! From: emgraph Version : 16.52
! From Project: Resonator2_cp_varyW
! Data is De-embedded 
! Data File Written: 10/09/2017 13:24:46
!< HDATE 10/09/2017 09:18:07
!< MDATE 10/09/2017 09:18:07
!< PARAMS
!< Length = 400.0
!< Pwid1 = 2000.0
!< Pwid2 = 2000.0
!< Air_gap = 6.0
!< Width = 10.0
!< gap = 16.0
!< END PARAMS
# GHZ S MA R 35.98000
8.90000000 0.018296 17.255 0.999826 -76.44 0.999826 -76.44 0.018292 9.8896
!< P1 F=8.9 Eeff=(5.36982967 -2.3752e-5) Z0=(35.9777542 8.05608e-5) R=0.0 C=0.0 
!< P2 F=8.9 Eeff=(5.36982967 -2.3752e-5) Z0=(35.9777542 8.05608e-5) R=0.0 C=0.0 
8.90010000 0.018282 17.284 0.999826 -76.45 0.999826 -76.45 0.018278 9.8572
8.90020000 0.018268 17.313 0.999827 -76.45 0.999827 -76.45 0.018264 9.8246
8.90030000 0.018254 17.342 0.999827 -76.45 0.999827 -76.45 0.018249 9.7918
8.90040000 0.018239 17.371 0.999827 -76.45 0.999827 -76.45 0.018235 9.7589
8.90050000 0.018225 17.400 0.999827 -76.45 0.999827 -76.45 0.018221 9.7259
8.90060000 0.018210 17.430 0.999828 -76.45 0.999828 -76.45 0.018206 9.6927
8.90070000 0.018196 17.460 0.999828 -76.46 0.999828 -76.46 0.018192 9.6593
8.90080000 0.018182 17.489 0.999828 -76.46 0.999828 -76.46 0.018177 9.6257
8.90090000 0.018167 17.519 0.999828 -76.46 0.999828 -76.46 0.018163 9.5920
8.90100000 0.018152 17.550 0.999829 -76.46 0.999829 -76.46 0.018148 9.5582
8.90110000 0.018138 17.580 0.999829 -76.46 0.999829 -76.46 0.018133 9.5241
8.90120000 0.018123 17.610 0.999829 -76.47 0.999829 -76.47 0.018119 9.4899
8.90130000 0.018108 17.641 0.999829 -76.47 0.999829 -76.47 0.018104 9.4555
8.90140000 0.018094 17.672 0.999830 -76.47 0.999830 -76.47 0.018089 9.4210
8.90150000 0.018079 17.703 0.999830 -76.47 0.999830 -76.47 0.018074 9.3863
8.90160000 0.018064 17.734 0.999830 -76.47 0.999830 -76.47 0.018059 9.3514
8.90170000 0.018049 17.765 0.999830 -76.48 0.999830 -76.48 0.018044 9.3163
8.90180000 0.018034 17.797 0.999831 -76.48 0.999831 -76.48 0.018029 9.2811
8.90190000 0.018019 17.828 0.999831 -76.48 0.999831 -76.48 0.018014 9.2457
8.90200000 0.018004 17.860 0.999831 -76.48 0.999831 -76.48 0.017999 9.2101
8.90210000 0.017989 17.892 0.999831 -76.48 0.999831 -76.48 0.017984 9.1743
8.90220000 0.017974 17.924 0.999832 -76.49 0.999832 -76.49 0.017969 9.1383
8.90230000 0.017959 17.957 0.999832 -76.49 0.999832 -76.49 0.017954 9.1022
8.90240000 0.017943 17.989 0.999832 -76.49 0.999832 -76.49 0.017939 9.0659
8.90250000 0.017928 18.022 0.999832 -76.49 0.999832 -76.49 0.017923 9.0294
8.90260000 0.017913 18.055 0.999833 -76.49 0.999833 -76.49 0.017908 8.9927
8.90270000 0.017897 18.088 0.999833 -76.50 0.999833 -76.50 0.017893 8.9558
8.90280000 0.017882 18.121 0.999833 -76.50 0.999833 -76.50 0.017877 8.9188
8.90290000 0.017866 18.154 0.999834 -76.50 0.999834 -76.50 0.017862 8.8815
8.90300000 0.017851 18.188 0.999834 -76.50 0.999834 -76.50 0.017846 8.8441
8.90310000 0.017835 18.222 0.999834 -76.50 0.999834 -76.50 0.017830 8.8064
8.90320000 0.017820 18.256 0.999834 -76.51 0.999834 -76.51 0.017815 8.7686
8.90330000 0.017804 18.290 0.999835 -76.51 0.999835 -76.51 0.017799 8.7305
8.90340000 0.017788 18.324 0.999835 -76.51 0.999835 -76.51 0.017783 8.6923
8.90350000 0.017773 18.359 0.999835 -76.51 0.999835 -76.51 0.017768 8.6539
8.90360000 0.017757 18.393 0.999835 -76.51 0.999835 -76.51 0.017752 8.6152
8.90370000 0.017741 18.428 0.999836 -76.52 0.999836 -76.52 0.017736 8.5764
8.90380000 0.017725 18.464 0.999836 -76.52 0.999836 -76.52 0.017720 8.5374
8.90390000 0.017709 18.499 0.999836 -76.52 0.999836 -76.52 0.017704 8.4981
8.90400000 0.017693 18.534 0.999836 -76.52 0.999836 -76.52 0.017688 8.4587
8.90410000 0.017677 18.570 0.999837 -76.52 0.999837 -76.52 0.017672 8.4190
8.90420000 0.017661 18.606 0.999837 -76.53 0.999837 -76.53 0.017656 8.3791
8.90430000 0.017645 18.642 0.999837 -76.53 0.999837 -76.53 0.017639 8.3390
8.90440000 0.017628 18.679 0.999838 -76.53 0.999838 -76.53 0.017623 8.2987
8.90450000 0.017612 18.715 0.999838 -76.53 0.999838 -76.53 0.017607 8.2582
8.90460000 0.017596 18.752 0.999838 -76.53 0.999838 -76.53 0.017590 8.2175
8.90470000 0.017579 18.789 0.999838 -76.54 0.999838 -76.54 0.017574 8.1765
8.90480000 0.017563 18.826 0.999839 -76.54 0.999839 -76.54 0.017558 8.1353
8.90490000 0.017546 18.863 0.999839 -76.54 0.999839 -76.54 0.017541 8.0939
8.90500000 0.017530 18.901 0.999839 -76.54 0.999839 -76.54 0.017525 8.0523
8.90510000 0.017513 18.939 0.999839 -76.54 0.999839 -76.54 0.017508 8.0105
8.90520000 0.017497 18.977 0.999840 -76.55 0.999840 -76.55 0.017491 7.9684
8.90530000 0.017480 19.015 0.999840 -76.55 0.999840 -76.55 0.017475 7.9261
8.90540000 0.017463 19.054 0.999840 -76.55 0.999840 -76.55 0.017458 7.8835
8.90550000 0.017446 19.092 0.999841 -76.55 0.999841 -76.55 0.017441 7.8407
8.90560000 0.017430 19.131 0.999841 -76.55 0.999841 -76.55 0.017424 7.7977
8.90570000 0.017413 19.171 0.999841 -76.56 0.999841 -76.56 0.017407 7.7545
8.90580000 0.017396 19.210 0.999841 -76.56 0.999841 -76.56 0.017390 7.7110
8.90590000 0.017379 19.250 0.999842 -76.56 0.999842 -76.56 0.017373 7.6672
8.90600000 0.017362 19.290 0.999842 -76.56 0.999842 -76.56 0.017356 7.6232
8.90610000 0.017344 19.330 0.999842 -76.56 0.999842 -76.56 0.017339 7.5790
8.90620000 0.017327 19.370 0.999843 -76.57 0.999843 -76.57 0.017321 7.5345
8.90630000 0.017310 19.411 0.999843 -76.57 0.999843 -76.57 0.017304 7.4898
8.90640000 0.017293 19.452 0.999843 -76.57 0.999843 -76.57 0.017287 7.4448
8.90650000 0.017275 19.493 0.999843 -76.57 0.999843 -76.57 0.017269 7.3996
8.90660000 0.017258 19.534 0.999844 -76.57 0.999844 -76.57 0.017252 7.3541
8.90670000 0.017240 19.576 0.999844 -76.58 0.999844 -76.58 0.017235 7.3083
8.90680000 0.017223 19.617 0.999844 -76.58 0.999844 -76.58 0.017217 7.2623
8.90690000 0.017205 19.660 0.999844 -76.58 0.999844 -76.58 0.017199 7.2161
8.90700000 0.017188 19.702 0.999845 -76.58 0.999845 -76.58 0.017182 7.1695
8.90710000 0.017170 19.745 0.999845 -76.59 0.999845 -76.59 0.017164 7.1227
8.90720000 0.017152 19.787 0.999845 -76.59 0.999845 -76.59 0.017146 7.0756
8.90730000 0.017134 19.831 0.999846 -76.59 0.999846 -76.59 0.017128 7.0283
8.90740000 0.017116 19.874 0.999846 -76.59 0.999846 -76.59 0.017110 6.9806
8.90750000 0.017099 19.918 0.999846 -76.59 0.999846 -76.59 0.017092 6.9327
8.90760000 0.017081 19.962 0.999847 -76.60 0.999847 -76.60 0.017074 6.8845
8.90770000 0.017062 20.006 0.999847 -76.60 0.999847 -76.60 0.017056 6.8361
8.90780000 0.017044 20.050 0.999847 -76.60 0.999847 -76.60 0.017038 6.7873
8.90790000 0.017026 20.095 0.999847 -76.60 0.999847 -76.60 0.017020 6.7383
8.90800000 0.017008 20.140 0.999848 -76.61 0.999848 -76.61 0.017002 6.6889
8.90810000 0.016990 20.186 0.999848 -76.61 0.999848 -76.61 0.016983 6.6393
8.90820000 0.016971 20.231 0.999848 -76.61 0.999848 -76.61 0.016965 6.5894
8.90830000 0.016953 20.277 0.999849 -76.61 0.999849 -76.61 0.016946 6.5391
8.90840000 0.016934 20.323 0.999849 -76.61 0.999849 -76.61 0.016928 6.4886
8.90850000 0.016916 20.370 0.999849 -76.62 0.999849 -76.62 0.016909 6.4378
8.90860000 0.016897 20.417 0.999849 -76.62 0.999849 -76.62 0.016891 6.3867
8.90870000 0.016879 20.464 0.999850 -76.62 0.999850 -76.62 0.016872 6.3352
8.90880000 0.016860 20.511 0.999850 -76.62 0.999850 -76.62 0.016853 6.2835
8.90890000 0.016841 20.559 0.999850 -76.63 0.999850 -76.63 0.016835 6.2314
8.90900000 0.016822 20.607 0.999851 -76.63 0.999851 -76.63 0.016816 6.1790
8.90910000 0.016803 20.655 0.999851 -76.63 0.999851 -76.63 0.016797 6.1263
8.90920000 0.016784 20.704 0.999851 -76.63 0.999851 -76.63 0.016778 6.0733
8.90930000 0.016765 20.753 0.999852 -76.63 0.999852 -76.63 0.016759 6.0199
8.90940000 0.016746 20.802 0.999852 -76.64 0.999852 -76.64 0.016739 5.9663
8.90950000 0.016727 20.852 0.999852 -76.64 0.999852 -76.64 0.016720 5.9122
8.90960000 0.016708 20.902 0.999852 -76.64 0.999852 -76.64 0.016701 5.8579
8.90970000 0.016689 20.952 0.999853 -76.64 0.999853 -76.64 0.016682 5.8032
8.90980000 0.016669 21.002 0.999853 -76.65 0.999853 -76.65 0.016662 5.7482
8.90990000 0.016650 21.053 0.999853 -76.65 0.999853 -76.65 0.016643 5.6928
8.91000000 0.016630 21.105 0.999854 -76.65 0.999854 -76.65 0.016623 5.6371
8.91010000 0.016611 21.156 0.999854 -76.65 0.999854 -76.65 0.016604 5.5810
8.91020000 0.016591 21.208 0.999854 -76.66 0.999854 -76.66 0.016584 5.5246
8.91030000 0.016571 21.260 0.999855 -76.66 0.999855 -76.66 0.016564 5.4678
8.91040000 0.016552 21.313 0.999855 -76.66 0.999855 -76.66 0.016545 5.4107
8.91050000 0.016532 21.366 0.999855 -76.66 0.999855 -76.66 0.016525 5.3532
8.91060000 0.016512 21.419 0.999855 -76.66 0.999855 -76.66 0.016505 5.2953
8.91070000 0.016492 21.473 0.999856 -76.67 0.999856 -76.67 0.016485 5.2370
8.91080000 0.016472 21.527 0.999856 -76.67 0.999856 -76.67 0.016465 5.1784
8.91090000 0.016452 21.581 0.999856 -76.67 0.999856 -76.67 0.016445 5.1194
8.91100000 0.016432 21.636 0.999857 -76.67 0.999857 -76.67 0.016424 5.0600
8.91110000 0.016412 21.691 0.999857 -76.68 0.999857 -76.68 0.016404 5.0003
8.91120000 0.016391 21.747 0.999857 -76.68 0.999857 -76.68 0.016384 4.9401
8.91130000 0.016371 21.803 0.999858 -76.68 0.999858 -76.68 0.016363 4.8796
8.91140000 0.016350 21.859 0.999858 -76.68 0.999858 -76.68 0.016343 4.8186
8.91150000 0.016330 21.916 0.999858 -76.69 0.999858 -76.69 0.016322 4.7573
8.91160000 0.016309 21.973 0.999859 -76.69 0.999859 -76.69 0.016302 4.6955
8.91170000 0.016289 22.030 0.999859 -76.69 0.999859 -76.69 0.016281 4.6334
8.91180000 0.016268 22.088 0.999859 -76.69 0.999859 -76.69 0.016260 4.5708
8.91190000 0.016247 22.147 0.999859 -76.70 0.999859 -76.70 0.016240 4.5078
8.91200000 0.016226 22.205 0.999860 -76.70 0.999860 -76.70 0.016219 4.4444
8.91210000 0.016206 22.264 0.999860 -76.70 0.999860 -76.70 0.016198 4.3806
8.91220000 0.016185 22.324 0.999860 -76.70 0.999860 -76.70 0.016177 4.3163
8.91230000 0.016164 22.384 0.999861 -76.71 0.999861 -76.71 0.016156 4.2516
8.91240000 0.016142 22.444 0.999861 -76.71 0.999861 -76.71 0.016134 4.1865
8.91250000 0.016121 22.505 0.999861 -76.71 0.999861 -76.71 0.016113 4.1209
8.91260000 0.016100 22.566 0.999862 -76.71 0.999862 -76.71 0.016092 4.0549
8.91270000 0.016079 22.628 0.999862 -76.72 0.999862 -76.72 0.016071 3.9884
8.91280000 0.016057 22.690 0.999862 -76.72 0.999862 -76.72 0.016049 3.9215
8.91290000 0.016036 22.753 0.999863 -76.72 0.999863 -76.72 0.016028 3.8541
8.91300000 0.016014 22.816 0.999863 -76.72 0.999863 -76.72 0.016006 3.7862
8.91310000 0.015993 22.879 0.999863 -76.73 0.999863 -76.73 0.015984 3.7179
8.91320000 0.015971 22.943 0.999864 -76.73 0.999864 -76.73 0.015963 3.6491
8.91330000 0.015949 23.008 0.999864 -76.73 0.999864 -76.73 0.015941 3.5798
8.91340000 0.015927 23.072 0.999864 -76.73 0.999864 -76.73 0.015919 3.5101
8.91350000 0.015905 23.138 0.999865 -76.74 0.999865 -76.74 0.015897 3.4398
8.91360000 0.015883 23.204 0.999865 -76.74 0.999865 -76.74 0.015875 3.3691
8.91370000 0.015861 23.270 0.999865 -76.74 0.999865 -76.74 0.015853 3.2978
8.91380000 0.015839 23.337 0.999866 -76.74 0.999866 -76.74 0.015830 3.2261
8.91390000 0.015817 23.404 0.999866 -76.75 0.999866 -76.75 0.015808 3.1538
8.91400000 0.015795 23.472 0.999866 -76.75 0.999866 -76.75 0.015786 3.0810
8.91410000 0.015772 23.540 0.999867 -76.75 0.999867 -76.75 0.015763 3.0078
8.91420000 0.015750 23.609 0.999867 -76.75 0.999867 -76.75 0.015741 2.9339
8.91430000 0.015727 23.678 0.999867 -76.76 0.999867 -76.76 0.015718 2.8596
8.91440000 0.015705 23.748 0.999868 -76.76 0.999868 -76.76 0.015696 2.7847
8.91450000 0.015682 23.819 0.999868 -76.76 0.999868 -76.76 0.015673 2.7093
8.91460000 0.015659 23.889 0.999868 -76.76 0.999868 -76.76 0.015650 2.6333
8.91470000 0.015636 23.961 0.999869 -76.77 0.999869 -76.77 0.015627 2.5568
8.91480000 0.015614 24.033 0.999869 -76.77 0.999869 -76.77 0.015604 2.4797
8.91490000 0.015591 24.105 0.999869 -76.77 0.999869 -76.77 0.015581 2.4020
8.91500000 0.015568 24.179 0.999869 -76.77 0.999869 -76.77 0.015558 2.3238
8.91510000 0.015544 24.252 0.999870 -76.78 0.999870 -76.78 0.015535 2.2450
8.91520000 0.015521 24.327 0.999870 -76.78 0.999870 -76.78 0.015512 2.1656
8.91530000 0.015498 24.401 0.999870 -76.78 0.999870 -76.78 0.015488 2.0856
8.91540000 0.015475 24.477 0.999871 -76.78 0.999871 -76.78 0.015465 2.0050
8.91550000 0.015451 24.553 0.999871 -76.79 0.999871 -76.79 0.015442 1.9239
8.91560000 0.015428 24.629 0.999871 -76.79 0.999871 -76.79 0.015418 1.8421
8.91570000 0.015404 24.707 0.999872 -76.79 0.999872 -76.79 0.015394 1.7596
8.91580000 0.015380 24.784 0.999872 -76.80 0.999872 -76.80 0.015371 1.6766
8.91590000 0.015357 24.863 0.999872 -76.80 0.999872 -76.80 0.015347 1.5930
8.91600000 0.015333 24.942 0.999873 -76.80 0.999873 -76.80 0.015323 1.5086
8.91610000 0.015309 25.021 0.999873 -76.80 0.999873 -76.80 0.015299 1.4237
8.91620000 0.015285 25.102 0.999873 -76.81 0.999873 -76.81 0.015275 1.3381
8.91630000 0.015261 25.183 0.999874 -76.81 0.999874 -76.81 0.015251 1.2518
8.91640000 0.015237 25.264 0.999874 -76.81 0.999874 -76.81 0.015226 1.1649
8.91650000 0.015212 25.346 0.999875 -76.81 0.999875 -76.81 0.015202 1.0773
8.91660000 0.015188 25.429 0.999875 -76.82 0.999875 -76.82 0.015178 0.9890
8.91670000 0.015164 25.513 0.999875 -76.82 0.999875 -76.82 0.015153 0.9001
8.91680000 0.015139 25.597 0.999876 -76.82 0.999876 -76.82 0.015129 0.8104
8.91690000 0.015115 25.682 0.999876 -76.83 0.999876 -76.83 0.015104 0.7200
8.91700000 0.015090 25.768 0.999876 -76.83 0.999876 -76.83 0.015079 0.6290
8.91710000 0.015065 25.854 0.999877 -76.83 0.999877 -76.83 0.015055 0.5371
8.91720000 0.015040 25.941 0.999877 -76.83 0.999877 -76.83 0.015030 0.4446
8.91730000 0.015016 26.029 0.999877 -76.84 0.999877 -76.84 0.015005 0.3513
8.91740000 0.014991 26.118 0.999878 -76.84 0.999878 -76.84 0.014980 0.2573
8.91750000 0.014966 26.207 0.999878 -76.84 0.999878 -76.84 0.014955 0.1625
8.91760000 0.014940 26.297 0.999878 -76.85 0.999878 -76.85 0.014929 0.0670
8.91770000 0.014915 26.388 0.999879 -76.85 0.999879 -76.85 0.014904 -0.029
8.91780000 0.014890 26.479 0.999879 -76.85 0.999879 -76.85 0.014879 -0.126
8.91790000 0.014864 26.571 0.999879 -76.85 0.999879 -76.85 0.014853 -0.224
8.91800000 0.014839 26.664 0.999880 -76.86 0.999880 -76.86 0.014828 -0.323
8.91810000 0.014814 26.758 0.999880 -76.86 0.999880 -76.86 0.014802 -0.422
8.91820000 0.014788 26.853 0.999880 -76.86 0.999880 -76.86 0.014776 -0.523
8.91830000 0.014762 26.948 0.999881 -76.87 0.999881 -76.87 0.014751 -0.624
8.91840000 0.014736 27.045 0.999881 -76.87 0.999881 -76.87 0.014725 -0.726
8.91850000 0.014711 27.142 0.999881 -76.87 0.999881 -76.87 0.014699 -0.829
8.91860000 0.014685 27.240 0.999882 -76.88 0.999882 -76.88 0.014673 -0.932
8.91870000 0.014659 27.339 0.999882 -76.88 0.999882 -76.88 0.014647 -1.037
8.91880000 0.014632 27.438 0.999882 -76.88 0.999882 -76.88 0.014621 -1.142
8.91890000 0.014606 27.539 0.999883 -76.88 0.999883 -76.88 0.014594 -1.249
8.91900000 0.014580 27.640 0.999883 -76.89 0.999883 -76.89 0.014568 -1.356
8.91910000 0.014554 27.742 0.999883 -76.89 0.999883 -76.89 0.014541 -1.464
8.91920000 0.014527 27.846 0.999884 -76.89 0.999884 -76.89 0.014515 -1.573
8.91930000 0.014501 27.950 0.999884 -76.90 0.999884 -76.90 0.014488 -1.683
8.91940000 0.014474 28.055 0.999884 -76.90 0.999884 -76.90 0.014462 -1.794
8.91950000 0.014447 28.161 0.999885 -76.90 0.999885 -76.90 0.014435 -1.906
8.91960000 0.014421 28.268 0.999885 -76.91 0.999885 -76.91 0.014408 -2.019
8.91970000 0.014394 28.376 0.999885 -76.91 0.999885 -76.91 0.014381 -2.133
8.91980000 0.014367 28.485 0.999886 -76.91 0.999886 -76.91 0.014354 -2.248
8.91990000 0.014340 28.594 0.999886 -76.92 0.999886 -76.92 0.014327 -2.363
8.92000000 0.014313 28.705 0.999887 -76.92 0.999887 -76.92 0.014300 -2.480
8.92010000 0.014285 28.817 0.999887 -76.92 0.999887 -76.92 0.014272 -2.598
8.92020000 0.014258 28.930 0.999887 -76.92 0.999887 -76.92 0.014245 -2.717
8.92030000 0.014231 29.044 0.999888 -76.93 0.999888 -76.93 0.014218 -2.837
8.92040000 0.014203 29.159 0.999888 -76.93 0.999888 -76.93 0.014190 -2.958
8.92050000 0.014176 29.275 0.999888 -76.93 0.999888 -76.93 0.014163 -3.080
8.92060000 0.014148 29.392 0.999889 -76.94 0.999889 -76.94 0.014135 -3.203
8.92070000 0.014121 29.510 0.999889 -76.94 0.999889 -76.94 0.014107 -3.328
8.92080000 0.014093 29.629 0.999889 -76.94 0.999889 -76.94 0.014079 -3.453
8.92090000 0.014065 29.750 0.999890 -76.95 0.999890 -76.95 0.014051 -3.580
8.92100000 0.014037 29.871 0.999890 -76.95 0.999890 -76.95 0.014023 -3.708
8.92110000 0.014009 29.994 0.999890 -76.95 0.999890 -76.95 0.013995 -3.837
8.92120000 0.013981 30.118 0.999891 -76.96 0.999891 -76.96 0.013967 -3.967
8.92130000 0.013953 30.243 0.999891 -76.96 0.999891 -76.96 0.013939 -4.098
8.92140000 0.013925 30.369 0.999891 -76.96 0.999891 -76.96 0.013910 -4.231
8.92150000 0.013896 30.496 0.999892 -76.97 0.999892 -76.97 0.013882 -4.364
8.92160000 0.013868 30.625 0.999892 -76.97 0.999892 -76.97 0.013854 -4.499
8.92170000 0.013840 30.755 0.999892 -76.97 0.999892 -76.97 0.013825 -4.636
8.92180000 0.013811 30.886 0.999893 -76.98 0.999893 -76.98 0.013796 -4.773
8.92190000 0.013783 31.018 0.999893 -76.98 0.999893 -76.98 0.013768 -4.912
8.92200000 0.013754 31.152 0.999893 -76.98 0.999893 -76.98 0.013739 -5.052
8.92210000 0.013725 31.287 0.999894 -76.99 0.999894 -76.99 0.013710 -5.194
8.92220000 0.013696 31.423 0.999894 -76.99 0.999894 -76.99 0.013681 -5.337
8.92230000 0.013667 31.561 0.999895 -76.99 0.999895 -76.99 0.013652 -5.481
8.92240000 0.013638 31.700 0.999895 -77.00 0.999895 -77.00 0.013623 -5.626
8.92250000 0.013609 31.840 0.999895 -77.00 0.999895 -77.00 0.013594 -5.773
8.92260000 0.013580 31.982 0.999896 -77.00 0.999896 -77.00 0.013565 -5.922
8.92270000 0.013551 32.125 0.999896 -77.01 0.999896 -77.01 0.013535 -6.072
8.92280000 0.013522 32.269 0.999896 -77.01 0.999896 -77.01 0.013506 -6.223
8.92290000 0.013492 32.415 0.999897 -77.01 0.999897 -77.01 0.013476 -6.376
8.92300000 0.013463 32.563 0.999897 -77.02 0.999897 -77.02 0.013447 -6.530
8.92310000 0.013433 32.712 0.999897 -77.02 0.999897 -77.02 0.013417 -6.686
8.92320000 0.013404 32.862 0.999898 -77.03 0.999898 -77.03 0.013388 -6.843
8.92330000 0.013374 33.014 0.999898 -77.03 0.999898 -77.03 0.013358 -7.002
8.92340000 0.013345 33.168 0.999898 -77.03 0.999898 -77.03 0.013328 -7.163
8.92350000 0.013315 33.323 0.999899 -77.04 0.999899 -77.04 0.013298 -7.325
8.92360000 0.013285 33.480 0.999899 -77.04 0.999899 -77.04 0.013268 -7.488
8.92370000 0.013255 33.638 0.999899 -77.04 0.999899 -77.04 0.013238 -7.654
8.92380000 0.013225 33.798 0.999900 -77.05 0.999900 -77.05 0.013208 -7.821
8.92390000 0.013195 33.960 0.999900 -77.05 0.999900 -77.05 0.013178 -7.989
8.92400000 0.013165 34.123 0.999900 -77.05 0.999900 -77.05 0.013148 -8.160
8.92410000 0.013135 34.288 0.999901 -77.06 0.999901 -77.06 0.013118 -8.332
8.92420000 0.013105 34.455 0.999901 -77.06 0.999901 -77.06 0.013087 -8.506
8.92430000 0.013075 34.624 0.999901 -77.07 0.999901 -77.07 0.013057 -8.682
8.92440000 0.013045 34.794 0.999902 -77.07 0.999902 -77.07 0.013027 -8.859
8.92450000 0.013014 34.966 0.999902 -77.07 0.999902 -77.07 0.012996 -9.039
8.92460000 0.012984 35.140 0.999902 -77.08 0.999902 -77.08 0.012966 -9.220
8.92470000 0.012953 35.316 0.999903 -77.08 0.999903 -77.08 0.012935 -9.403
8.92480000 0.012923 35.493 0.999903 -77.08 0.999903 -77.08 0.012904 -9.588
8.92490000 0.012892 35.673 0.999903 -77.09 0.999903 -77.09 0.012874 -9.775
8.92500000 0.012862 35.854 0.999904 -77.09 0.999904 -77.09 0.012843 -9.964
8.92510000 0.012831 36.038 0.999904 -77.10 0.999904 -77.10 0.012812 -10.15
8.92520000 0.012801 36.223 0.999904 -77.10 0.999904 -77.10 0.012781 -10.35
8.92530000 0.012770 36.411 0.999905 -77.10 0.999905 -77.10 0.012751 -10.54
8.92540000 0.012739 36.600 0.999905 -77.11 0.999905 -77.11 0.012720 -10.74
8.92550000 0.012708 36.792 0.999905 -77.11 0.999905 -77.11 0.012689 -10.94
8.92560000 0.012678 36.986 0.999906 -77.12 0.999906 -77.12 0.012658 -11.14
8.92570000 0.012647 37.181 0.999906 -77.12 0.999906 -77.12 0.012627 -11.34
8.92580000 0.012616 37.379 0.999906 -77.12 0.999906 -77.12 0.012596 -11.55
8.92590000 0.012585 37.579 0.999907 -77.13 0.999907 -77.13 0.012565 -11.76
8.92600000 0.012554 37.782 0.999907 -77.13 0.999907 -77.13 0.012534 -11.97
8.92610000 0.012523 37.987 0.999907 -77.14 0.999907 -77.14 0.012503 -12.18
8.92620000 0.012492 38.193 0.999908 -77.14 0.999908 -77.14 0.012471 -12.40
8.92630000 0.012461 38.403 0.999908 -77.14 0.999908 -77.14 0.012440 -12.61
8.92640000 0.012430 38.614 0.999908 -77.15 0.999908 -77.15 0.012409 -12.83
8.92650000 0.012399 38.828 0.999909 -77.15 0.999909 -77.15 0.012378 -13.05
8.92660000 0.012368 39.045 0.999909 -77.16 0.999909 -77.16 0.012347 -13.28
8.92670000 0.012338 39.263 0.999909 -77.16 0.999909 -77.16 0.012316 -13.51
8.92680000 0.012307 39.485 0.999909 -77.16 0.999909 -77.16 0.012285 -13.74
8.92690000 0.012276 39.709 0.999910 -77.17 0.999910 -77.17 0.012253 -13.97
8.92700000 0.012245 39.935 0.999910 -77.17 0.999910 -77.17 0.012222 -14.20
8.92710000 0.012214 40.164 0.999910 -77.18 0.999910 -77.18 0.012191 -14.44
8.92720000 0.012183 40.396 0.999911 -77.18 0.999911 -77.18 0.012160 -14.68
8.92730000 0.012152 40.630 0.999911 -77.19 0.999911 -77.19 0.012129 -14.92
8.92740000 0.012121 40.867 0.999911 -77.19 0.999911 -77.19 0.012098 -15.17
8.92750000 0.012090 41.107 0.999912 -77.19 0.999912 -77.19 0.012066 -15.42
8.92760000 0.012059 41.349 0.999912 -77.20 0.999912 -77.20 0.012035 -15.67
8.92770000 0.012028 41.595 0.999912 -77.20 0.999912 -77.20 0.012004 -15.92
8.92780000 0.011997 41.843 0.999912 -77.21 0.999912 -77.21 0.011973 -16.18
8.92790000 0.011966 42.094 0.999913 -77.21 0.999913 -77.21 0.011942 -16.44
8.92800000 0.011936 42.348 0.999913 -77.22 0.999913 -77.22 0.011911 -16.70
8.92810000 0.011905 42.605 0.999913 -77.22 0.999913 -77.22 0.011880 -16.97
8.92820000 0.011874 42.865 0.999914 -77.22 0.999914 -77.22 0.011850 -17.24
8.92830000 0.011844 43.128 0.999914 -77.23 0.999914 -77.23 0.011819 -17.51
8.92840000 0.011813 43.394 0.999914 -77.23 0.999914 -77.23 0.011788 -17.78
8.92850000 0.011783 43.664 0.999914 -77.24 0.999914 -77.24 0.011757 -18.06
8.92860000 0.011753 43.936 0.999915 -77.24 0.999915 -77.24 0.011727 -18.34
8.92870000 0.011722 44.212 0.999915 -77.25 0.999915 -77.25 0.011696 -18.63
8.92880000 0.011692 44.491 0.999915 -77.25 0.999915 -77.25 0.011666 -18.92
8.92890000 0.011662 44.774 0.999916 -77.26 0.999916 -77.26 0.011636 -19.21
8.92900000 0.011632 45.059 0.999916 -77.26 0.999916 -77.26 0.011605 -19.50
8.92910000 0.011602 45.349 0.999916 -77.27 0.999916 -77.27 0.011575 -19.80
8.92920000 0.011572 45.641 0.999916 -77.27 0.999916 -77.27 0.011545 -20.10
8.92930000 0.011543 45.937 0.999917 -77.28 0.999917 -77.28 0.011515 -20.41
8.92940000 0.011513 46.237 0.999917 -77.28 0.999917 -77.28 0.011485 -20.72
8.92950000 0.011484 46.540 0.999917 -77.29 0.999917 -77.29 0.011456 -21.03
8.92960000 0.011454 46.847 0.999917 -77.29 0.999917 -77.29 0.011426 -21.35
8.92970000 0.011425 47.158 0.999917 -77.30 0.999917 -77.30 0.011397 -21.67
8.92980000 0.011396 47.472 0.999918 -77.30 0.999918 -77.30 0.011368 -21.99
8.92990000 0.011368 47.790 0.999918 -77.30 0.999918 -77.30 0.011338 -22.32
8.93000000 0.011339 48.112 0.999918 -77.31 0.999918 -77.31 0.011310 -22.65
8.93010000 0.011310 48.438 0.999918 -77.31 0.999918 -77.31 0.011281 -22.99
8.93020000 0.011282 48.768 0.999919 -77.32 0.999919 -77.32 0.011252 -23.33
8.93030000 0.011254 49.102 0.999919 -77.32 0.999919 -77.32 0.011224 -23.67
8.93040000 0.011226 49.440 0.999919 -77.33 0.999919 -77.33 0.011196 -24.02
8.93050000 0.011199 49.781 0.999919 -77.33 0.999919 -77.33 0.011168 -24.37
8.93060000 0.011171 50.127 0.999919 -77.34 0.999919 -77.34 0.011140 -24.73
8.93070000 0.011144 50.477 0.999920 -77.35 0.999920 -77.35 0.011113 -25.09
8.93080000 0.011117 50.832 0.999920 -77.35 0.999920 -77.35 0.011085 -25.46
8.93090000 0.011090 51.190 0.999920 -77.36 0.999920 -77.36 0.011058 -25.83
8.93100000 0.011064 51.553 0.999920 -77.36 0.999920 -77.36 0.011032 -26.20
8.93110000 0.011038 51.921 0.999920 -77.37 0.999920 -77.37 0.011005 -26.58
8.93120000 0.011012 52.292 0.999921 -77.37 0.999921 -77.37 0.010979 -26.96
8.93130000 0.010986 52.668 0.999921 -77.38 0.999921 -77.38 0.010953 -27.35
8.93140000 0.010961 53.049 0.999921 -77.38 0.999921 -77.38 0.010927 -27.74
8.93150000 0.010936 53.434 0.999921 -77.39 0.999921 -77.39 0.010902 -28.14
8.93160000 0.010911 53.824 0.999921 -77.39 0.999921 -77.39 0.010877 -28.54
8.93170000 0.010887 54.218 0.999921 -77.40 0.999921 -77.40 0.010853 -28.94
8.93180000 0.010863 54.617 0.999922 -77.40 0.999922 -77.40 0.010829 -29.36
8.93190000 0.010840 55.021 0.999922 -77.41 0.999922 -77.41 0.010805 -29.77
8.93200000 0.010817 55.429 0.999922 -77.41 0.999922 -77.41 0.010781 -30.19
8.93210000 0.010794 55.842 0.999922 -77.42 0.999922 -77.42 0.010758 -30.62
8.93220000 0.010772 56.260 0.999922 -77.43 0.999922 -77.43 0.010735 -31.05
8.93230000 0.010750 56.683 0.999922 -77.43 0.999922 -77.43 0.010713 -31.48
8.93240000 0.010728 57.111 0.999922 -77.44 0.999922 -77.44 0.010692 -31.92
8.93250000 0.010707 57.544 0.999922 -77.44 0.999922 -77.44 0.010670 -32.37
8.93260000 0.010687 57.982 0.999922 -77.45 0.999922 -77.45 0.010649 -32.82
8.93270000 0.010667 58.424 0.999922 -77.45 0.999922 -77.45 0.010629 -33.27
8.93280000 0.010647 58.872 0.999923 -77.46 0.999923 -77.46 0.010609 -33.73
8.93290000 0.010628 59.325 0.999923 -77.47 0.999923 -77.47 0.010590 -34.20
8.93300000 0.010610 59.783 0.999923 -77.47 0.999923 -77.47 0.010571 -34.67
8.93310000 0.010592 60.246 0.999923 -77.48 0.999923 -77.48 0.010553 -35.15
8.93320000 0.010575 60.714 0.999923 -77.48 0.999923 -77.48 0.010535 -35.63
8.93330000 0.010558 61.187 0.999923 -77.49 0.999923 -77.49 0.010518 -36.11
8.93340000 0.010542 61.665 0.999923 -77.50 0.999923 -77.50 0.010502 -36.61
8.93350000 0.010527 62.149 0.999923 -77.50 0.999923 -77.50 0.010486 -37.10
8.93360000 0.010512 62.638 0.999923 -77.51 0.999923 -77.51 0.010471 -37.61
8.93370000 0.010498 63.132 0.999923 -77.51 0.999923 -77.51 0.010457 -38.11
8.93380000 0.010485 63.631 0.999923 -77.52 0.999923 -77.52 0.010443 -38.63
8.93390000 0.010472 64.135 0.999923 -77.53 0.999923 -77.53 0.010430 -39.15
8.93400000 0.010460 64.645 0.999923 -77.53 0.999923 -77.53 0.010418 -39.67
8.93410000 0.010449 65.160 0.999923 -77.54 0.999923 -77.54 0.010406 -40.20
8.93420000 0.010439 65.680 0.999923 -77.55 0.999923 -77.55 0.010396 -40.74
8.93430000 0.010429 66.205 0.999923 -77.55 0.999923 -77.55 0.010386 -41.28
8.93440000 0.010421 66.735 0.999923 -77.56 0.999923 -77.56 0.010377 -41.82
8.93450000 0.010413 67.271 0.999923 -77.57 0.999923 -77.57 0.010368 -42.37
8.93460000 0.010406 67.811 0.999922 -77.57 0.999922 -77.57 0.010361 -42.93
8.93470000 0.010400 68.357 0.999922 -77.58 0.999922 -77.58 0.010355 -43.49
8.93480000 0.010395 68.908 0.999922 -77.59 0.999922 -77.59 0.010349 -44.06
8.93490000 0.010391 69.463 0.999922 -77.59 0.999922 -77.59 0.010345 -44.63
8.93500000 0.010387 70.024 0.999922 -77.60 0.999922 -77.60 0.010341 -45.20
8.93510000 0.010385 70.590 0.999922 -77.61 0.999922 -77.61 0.010339 -45.79
8.93520000 0.010384 71.161 0.999922 -77.61 0.999922 -77.61 0.010337 -46.37
8.93530000 0.010384 71.736 0.999921 -77.62 0.999921 -77.62 0.010337 -46.96
8.93540000 0.010385 72.316 0.999921 -77.63 0.999921 -77.63 0.010337 -47.56
8.93550000 0.010387 72.901 0.999921 -77.63 0.999921 -77.63 0.010339 -48.16
8.93560000 0.010391 73.491 0.999921 -77.64 0.999921 -77.64 0.010342 -48.77
8.93570000 0.010395 74.085 0.999921 -77.65 0.999921 -77.65 0.010346 -49.38
8.93580000 0.010401 74.683 0.999920 -77.66 0.999920 -77.66 0.010351 -50.00
8.93590000 0.010408 75.286 0.999920 -77.66 0.999920 -77.66 0.010358 -50.62
8.93600000 0.010416 75.893 0.999920 -77.67 0.999920 -77.67 0.010366 -51.24
8.93610000 0.010425 76.505 0.999919 -77.68 0.999919 -77.68 0.010375 -51.87
8.93620000 0.010436 77.121 0.999919 -77.68 0.999919 -77.68 0.010385 -52.51
8.93630000 0.010448 77.740 0.999919 -77.69 0.999919 -77.69 0.010397 -53.14
8.93640000 0.010461 78.364 0.999918 -77.70 0.999918 -77.70 0.010410 -53.78
8.93650000 0.010476 78.991 0.999918 -77.71 0.999918 -77.71 0.010424 -54.43
8.93660000 0.010492 79.622 0.999918 -77.71 0.999918 -77.71 0.010440 -55.08
8.93670000 0.010510 80.256 0.999917 -77.72 0.999917 -77.72 0.010457 -55.73
8.93680000 0.010529 80.894 0.999917 -77.73 0.999917 -77.73 0.010476 -56.39
8.93690000 0.010550 81.535 0.999916 -77.74 0.999916 -77.74 0.010497 -57.05
8.93700000 0.010572 82.179 0.999916 -77.75 0.999916 -77.75 0.010518 -57.71
8.93710000 0.010596 82.826 0.999916 -77.75 0.999916 -77.75 0.010542 -58.38
8.93720000 0.010622 83.475 0.999915 -77.76 0.999915 -77.76 0.010567 -59.05
8.93730000 0.010649 84.128 0.999915 -77.77 0.999915 -77.77 0.010594 -59.72
8.93740000 0.010678 84.783 0.999914 -77.78 0.999914 -77.78 0.010622 -60.40
8.93750000 0.010708 85.440 0.999913 -77.79 0.999913 -77.79 0.010653 -61.08
8.93760000 0.010740 86.099 0.999913 -77.79 0.999913 -77.79 0.010684 -61.76
8.93770000 0.010774 86.761 0.999912 -77.80 0.999912 -77.80 0.010718 -62.44
8.93780000 0.010810 87.424 0.999912 -77.81 0.999912 -77.81 0.010754 -63.12
8.93790000 0.010848 88.089 0.999911 -77.82 0.999911 -77.82 0.010791 -63.81
8.93800000 0.010887 88.755 0.999910 -77.83 0.999910 -77.83 0.010830 -64.49
8.93810000 0.010929 89.422 0.999910 -77.84 0.999910 -77.84 0.010871 -65.18
8.93820000 0.010972 90.091 0.999909 -77.85 0.999909 -77.85 0.010914 -65.87
8.93830000 0.011017 90.760 0.999908 -77.85 0.999908 -77.85 0.010959 -66.56
8.93840000 0.011065 91.430 0.999907 -77.86 0.999907 -77.86 0.011006 -67.26
8.93850000 0.011114 92.101 0.999906 -77.87 0.999906 -77.87 0.011055 -67.95
8.93860000 0.011165 92.771 0.999906 -77.88 0.999906 -77.88 0.011106 -68.64
8.93870000 0.011219 93.442 0.999905 -77.89 0.999905 -77.89 0.011160 -69.33
8.93880000 0.011274 94.113 0.999904 -77.90 0.999904 -77.90 0.011215 -70.03
8.93890000 0.011332 94.784 0.999903 -77.91 0.999903 -77.91 0.011272 -70.72
8.93900000 0.011392 95.454 0.999902 -77.92 0.999902 -77.92 0.011332 -71.41
8.93910000 0.011454 96.123 0.999901 -77.93 0.999901 -77.93 0.011394 -72.11
8.93920000 0.011518 96.792 0.999900 -77.94 0.999900 -77.94 0.011458 -72.80