! Sonnet Data File
! From: emgraph Version : 16.52
! From Project: Resonator2_extremeCap2
! Data is De-embedded 
! Data File Written: 10/10/2017 08:27:13
!< HDATE 10/10/2017 01:06:54
!< MDATE 10/10/2017 01:06:54
!< PARAMS
!< Pwid1 = 2000.0
!< Pwid2 = 2000.0
!< Air_gap = 6.0
!< Width = 10.0
!< Gap = 43.0
!< END PARAMS
# GHZ S MA R 35.98000
8.98000000 0.404995 -8.503 0.914302 -99.35 0.914302 -99.35 0.404974 -10.20
!< P1 F=8.98 Eeff=(5.37116343 -2.3769e-5) Z0=(35.9716001 8.05996e-5) R=0.0 C=0.0 
!< P2 F=8.98 Eeff=(5.37116343 -2.3769e-5) Z0=(35.9716001 8.05996e-5) R=0.0 C=0.0 
8.98010000 0.405046 -8.501 0.914280 -99.35 0.914280 -99.35 0.405025 -10.21
8.98020000 0.405096 -8.499 0.914258 -99.36 0.914258 -99.36 0.405075 -10.22
8.98030000 0.405147 -8.498 0.914235 -99.37 0.914235 -99.37 0.405126 -10.24
8.98040000 0.405198 -8.496 0.914213 -99.37 0.914213 -99.37 0.405177 -10.25
8.98050000 0.405249 -8.494 0.914190 -99.38 0.914190 -99.38 0.405228 -10.26
8.98060000 0.405300 -8.492 0.914167 -99.38 0.914167 -99.38 0.405279 -10.27
8.98070000 0.405351 -8.490 0.914145 -99.39 0.914145 -99.39 0.405330 -10.29
8.98080000 0.405402 -8.488 0.914122 -99.39 0.914122 -99.39 0.405381 -10.30
8.98090000 0.405453 -8.486 0.914099 -99.40 0.914099 -99.40 0.405432 -10.31
8.98100000 0.405505 -8.485 0.914076 -99.40 0.914076 -99.40 0.405483 -10.32
8.98110000 0.405556 -8.483 0.914053 -99.41 0.914053 -99.41 0.405535 -10.34
8.98120000 0.405608 -8.481 0.914030 -99.41 0.914030 -99.41 0.405586 -10.35
8.98130000 0.405660 -8.479 0.914008 -99.42 0.914008 -99.42 0.405638 -10.36
8.98140000 0.405711 -8.477 0.913985 -99.42 0.913985 -99.42 0.405690 -10.38
8.98150000 0.405763 -8.475 0.913961 -99.43 0.913961 -99.43 0.405742 -10.39
8.98160000 0.405815 -8.473 0.913938 -99.44 0.913938 -99.44 0.405794 -10.40
8.98170000 0.405867 -8.471 0.913915 -99.44 0.913915 -99.44 0.405846 -10.41
8.98180000 0.405920 -8.469 0.913892 -99.45 0.913892 -99.45 0.405898 -10.43
8.98190000 0.405972 -8.467 0.913869 -99.45 0.913869 -99.45 0.405950 -10.44
8.98200000 0.406024 -8.465 0.913845 -99.46 0.913845 -99.46 0.406002 -10.45
8.98210000 0.406077 -8.464 0.913822 -99.46 0.913822 -99.46 0.406055 -10.47
8.98220000 0.406129 -8.462 0.913799 -99.47 0.913799 -99.47 0.406107 -10.48
8.98230000 0.406182 -8.460 0.913775 -99.47 0.913775 -99.47 0.406160 -10.49
8.98240000 0.406235 -8.458 0.913752 -99.48 0.913752 -99.48 0.406213 -10.51
8.98250000 0.406288 -8.456 0.913728 -99.49 0.913728 -99.49 0.406265 -10.52
8.98260000 0.406341 -8.454 0.913705 -99.49 0.913705 -99.49 0.406318 -10.53
8.98270000 0.406394 -8.452 0.913681 -99.50 0.913681 -99.50 0.406371 -10.54
8.98280000 0.406447 -8.450 0.913657 -99.50 0.913657 -99.50 0.406425 -10.56
8.98290000 0.406500 -8.448 0.913634 -99.51 0.913634 -99.51 0.406478 -10.57
8.98300000 0.406554 -8.446 0.913610 -99.51 0.913610 -99.51 0.406531 -10.58
8.98310000 0.406607 -8.444 0.913586 -99.52 0.913586 -99.52 0.406585 -10.60
8.98320000 0.406661 -8.442 0.913562 -99.52 0.913562 -99.52 0.406638 -10.61
8.98330000 0.406714 -8.440 0.913538 -99.53 0.913538 -99.53 0.406692 -10.62
8.98340000 0.406768 -8.438 0.913514 -99.54 0.913514 -99.54 0.406746 -10.64
8.98350000 0.406822 -8.436 0.913490 -99.54 0.913490 -99.54 0.406799 -10.65
8.98360000 0.406876 -8.434 0.913466 -99.55 0.913466 -99.55 0.406853 -10.66
8.98370000 0.406930 -8.432 0.913442 -99.55 0.913442 -99.55 0.406907 -10.68
8.98380000 0.406984 -8.430 0.913418 -99.56 0.913418 -99.56 0.406962 -10.69
8.98390000 0.407039 -8.428 0.913394 -99.56 0.913394 -99.56 0.407016 -10.70
8.98400000 0.407093 -8.426 0.913369 -99.57 0.913369 -99.57 0.407070 -10.72
8.98410000 0.407148 -8.424 0.913345 -99.58 0.913345 -99.58 0.407125 -10.73
8.98420000 0.407202 -8.422 0.913321 -99.58 0.913321 -99.58 0.407179 -10.74
8.98430000 0.407257 -8.420 0.913296 -99.59 0.913296 -99.59 0.407234 -10.76
8.98440000 0.407312 -8.418 0.913272 -99.59 0.913272 -99.59 0.407289 -10.77
8.98450000 0.407367 -8.415 0.913247 -99.60 0.913247 -99.60 0.407344 -10.78
8.98460000 0.407422 -8.413 0.913222 -99.60 0.913222 -99.60 0.407399 -10.80
8.98470000 0.407477 -8.411 0.913198 -99.61 0.913198 -99.61 0.407454 -10.81
8.98480000 0.407533 -8.409 0.913173 -99.62 0.913173 -99.62 0.407509 -10.83
8.98490000 0.407588 -8.407 0.913148 -99.62 0.913148 -99.62 0.407565 -10.84
8.98500000 0.407643 -8.405 0.913124 -99.63 0.913124 -99.63 0.407620 -10.85
8.98510000 0.407699 -8.403 0.913099 -99.63 0.913099 -99.63 0.407676 -10.87
8.98520000 0.407755 -8.401 0.913074 -99.64 0.913074 -99.64 0.407731 -10.88
8.98530000 0.407811 -8.399 0.913049 -99.64 0.913049 -99.64 0.407787 -10.89
8.98540000 0.407867 -8.397 0.913024 -99.65 0.913024 -99.65 0.407843 -10.91
8.98550000 0.407923 -8.395 0.912999 -99.66 0.912999 -99.66 0.407899 -10.92
8.98560000 0.407979 -8.392 0.912974 -99.66 0.912974 -99.66 0.407955 -10.94
8.98570000 0.408035 -8.390 0.912948 -99.67 0.912948 -99.67 0.408011 -10.95
8.98580000 0.408092 -8.388 0.912923 -99.67 0.912923 -99.67 0.408068 -10.96
8.98590000 0.408148 -8.386 0.912898 -99.68 0.912898 -99.68 0.408124 -10.98
8.98600000 0.408205 -8.384 0.912873 -99.69 0.912873 -99.69 0.408181 -10.99
8.98610000 0.408261 -8.382 0.912847 -99.69 0.912847 -99.69 0.408238 -11.00
8.98620000 0.408318 -8.380 0.912822 -99.70 0.912822 -99.70 0.408294 -11.02
8.98630000 0.408375 -8.377 0.912796 -99.70 0.912796 -99.70 0.408351 -11.03
8.98640000 0.408432 -8.375 0.912771 -99.71 0.912771 -99.71 0.408408 -11.05
8.98650000 0.408490 -8.373 0.912745 -99.72 0.912745 -99.72 0.408465 -11.06
8.98660000 0.408547 -8.371 0.912719 -99.72 0.912719 -99.72 0.408523 -11.07
8.98670000 0.408604 -8.369 0.912694 -99.73 0.912694 -99.73 0.408580 -11.09
8.98680000 0.408662 -8.366 0.912668 -99.73 0.912668 -99.73 0.408638 -11.10
8.98690000 0.408720 -8.364 0.912642 -99.74 0.912642 -99.74 0.408695 -11.12
8.98700000 0.408777 -8.362 0.912616 -99.75 0.912616 -99.75 0.408753 -11.13
8.98710000 0.408835 -8.360 0.912590 -99.75 0.912590 -99.75 0.408811 -11.15
8.98720000 0.408893 -8.358 0.912564 -99.76 0.912564 -99.76 0.408869 -11.16
8.98730000 0.408951 -8.355 0.912538 -99.76 0.912538 -99.76 0.408927 -11.17
8.98740000 0.409010 -8.353 0.912512 -99.77 0.912512 -99.77 0.408985 -11.19
8.98750000 0.409068 -8.351 0.912486 -99.78 0.912486 -99.78 0.409043 -11.20
8.98760000 0.409126 -8.349 0.912459 -99.78 0.912459 -99.78 0.409102 -11.22
8.98770000 0.409185 -8.346 0.912433 -99.79 0.912433 -99.79 0.409160 -11.23
8.98780000 0.409244 -8.344 0.912407 -99.79 0.912407 -99.79 0.409219 -11.25
8.98790000 0.409303 -8.342 0.912380 -99.80 0.912380 -99.80 0.409278 -11.26
8.98800000 0.409362 -8.340 0.912354 -99.81 0.912354 -99.81 0.409337 -11.27
8.98810000 0.409421 -8.337 0.912327 -99.81 0.912327 -99.81 0.409396 -11.29
8.98820000 0.409480 -8.335 0.912301 -99.82 0.912301 -99.82 0.409455 -11.30
8.98830000 0.409539 -8.333 0.912274 -99.82 0.912274 -99.82 0.409514 -11.32
8.98840000 0.409599 -8.331 0.912247 -99.83 0.912247 -99.83 0.409574 -11.33
8.98850000 0.409658 -8.328 0.912220 -99.84 0.912220 -99.84 0.409633 -11.35
8.98860000 0.409718 -8.326 0.912193 -99.84 0.912193 -99.84 0.409693 -11.36
8.98870000 0.409778 -8.324 0.912167 -99.85 0.912167 -99.85 0.409753 -11.38
8.98880000 0.409838 -8.321 0.912140 -99.85 0.912140 -99.85 0.409813 -11.39
8.98890000 0.409898 -8.319 0.912113 -99.86 0.912113 -99.86 0.409873 -11.41
8.98900000 0.409958 -8.317 0.912085 -99.87 0.912085 -99.87 0.409933 -11.42
8.98910000 0.410019 -8.314 0.912058 -99.87 0.912058 -99.87 0.409993 -11.44
8.98920000 0.410079 -8.312 0.912031 -99.88 0.912031 -99.88 0.410053 -11.45
8.98930000 0.410140 -8.310 0.912004 -99.89 0.912004 -99.89 0.410114 -11.47
8.98940000 0.410200 -8.307 0.911976 -99.89 0.911976 -99.89 0.410175 -11.48
8.98950000 0.410261 -8.305 0.911949 -99.90 0.911949 -99.90 0.410235 -11.50
8.98960000 0.410322 -8.303 0.911922 -99.90 0.911922 -99.90 0.410296 -11.51
8.98970000 0.410383 -8.300 0.911894 -99.91 0.911894 -99.91 0.410357 -11.52
8.98980000 0.410444 -8.298 0.911867 -99.92 0.911867 -99.92 0.410419 -11.54
8.98990000 0.410506 -8.295 0.911839 -99.92 0.911839 -99.92 0.410480 -11.55
8.99000000 0.410567 -8.293 0.911811 -99.93 0.911811 -99.93 0.410541 -11.57
8.99010000 0.410629 -8.291 0.911783 -99.94 0.911783 -99.94 0.410603 -11.58
8.99020000 0.410691 -8.288 0.911756 -99.94 0.911756 -99.94 0.410665 -11.60
8.99030000 0.410753 -8.286 0.911728 -99.95 0.911728 -99.95 0.410726 -11.62
8.99040000 0.410815 -8.283 0.911700 -99.95 0.911700 -99.95 0.410788 -11.63
8.99050000 0.410877 -8.281 0.911672 -99.96 0.911672 -99.96 0.410850 -11.65
8.99060000 0.410939 -8.279 0.911643 -99.97 0.911643 -99.97 0.410913 -11.66
8.99070000 0.411001 -8.276 0.911615 -99.97 0.911615 -99.97 0.410975 -11.68
8.99080000 0.411064 -8.274 0.911587 -99.98 0.911587 -99.98 0.411038 -11.69
8.99090000 0.411127 -8.271 0.911559 -99.99 0.911559 -99.99 0.411100 -11.71
8.99100000 0.411190 -8.269 0.911530 -99.99 0.911530 -99.99 0.411163 -11.72
8.99110000 0.411252 -8.266 0.911502 -100.00 0.911502 -100.00 0.411226 -11.74
8.99120000 0.411316 -8.264 0.911473 -100.0 0.911473 -100.0 0.411289 -11.75
8.99130000 0.411379 -8.261 0.911445 -100.0 0.911445 -100.0 0.411352 -11.77
8.99140000 0.411442 -8.259 0.911416 -100.0 0.911416 -100.0 0.411415 -11.78
8.99150000 0.411506 -8.256 0.911388 -100.0 0.911388 -100.0 0.411479 -11.80
8.99160000 0.411569 -8.254 0.911359 -100.0 0.911359 -100.0 0.411542 -11.81
8.99170000 0.411633 -8.251 0.911330 -100.0 0.911330 -100.0 0.411606 -11.83
8.99180000 0.411697 -8.249 0.911301 -100.0 0.911301 -100.0 0.411670 -11.85
8.99190000 0.411761 -8.246 0.911272 -100.1 0.911272 -100.1 0.411734 -11.86
8.99200000 0.411825 -8.244 0.911243 -100.1 0.911243 -100.1 0.411798 -11.88
8.99210000 0.411890 -8.241 0.911214 -100.1 0.911214 -100.1 0.411862 -11.89
8.99220000 0.411954 -8.239 0.911185 -100.1 0.911185 -100.1 0.411927 -11.91
8.99230000 0.412019 -8.236 0.911155 -100.1 0.911155 -100.1 0.411991 -11.92
8.99240000 0.412083 -8.234 0.911126 -100.1 0.911126 -100.1 0.412056 -11.94
8.99250000 0.412148 -8.231 0.911097 -100.1 0.911097 -100.1 0.412121 -11.96
8.99260000 0.412213 -8.229 0.911067 -100.1 0.911067 -100.1 0.412186 -11.97
8.99270000 0.412279 -8.226 0.911038 -100.1 0.911038 -100.1 0.412251 -11.99
8.99280000 0.412344 -8.223 0.911008 -100.1 0.911008 -100.1 0.412316 -12.00
8.99290000 0.412409 -8.221 0.910978 -100.1 0.910978 -100.1 0.412382 -12.02
8.99300000 0.412475 -8.218 0.910949 -100.1 0.910949 -100.1 0.412447 -12.03
8.99310000 0.412541 -8.216 0.910919 -100.1 0.910919 -100.1 0.412513 -12.05
8.99320000 0.412607 -8.213 0.910889 -100.1 0.910889 -100.1 0.412579 -12.07
8.99330000 0.412673 -8.211 0.910859 -100.1 0.910859 -100.1 0.412645 -12.08
8.99340000 0.412739 -8.208 0.910829 -100.2 0.910829 -100.2 0.412711 -12.10
8.99350000 0.412805 -8.205 0.910799 -100.2 0.910799 -100.2 0.412777 -12.11
8.99360000 0.412872 -8.203 0.910769 -100.2 0.910769 -100.2 0.412844 -12.13
8.99370000 0.412939 -8.200 0.910738 -100.2 0.910738 -100.2 0.412910 -12.15
8.99380000 0.413005 -8.197 0.910708 -100.2 0.910708 -100.2 0.412977 -12.16
8.99390000 0.413072 -8.195 0.910678 -100.2 0.910678 -100.2 0.413044 -12.18
8.99400000 0.413139 -8.192 0.910647 -100.2 0.910647 -100.2 0.413111 -12.20
8.99410000 0.413207 -8.189 0.910617 -100.2 0.910617 -100.2 0.413178 -12.21
8.99420000 0.413274 -8.187 0.910586 -100.2 0.910586 -100.2 0.413245 -12.23
8.99430000 0.413342 -8.184 0.910555 -100.2 0.910555 -100.2 0.413313 -12.24
8.99440000 0.413409 -8.181 0.910525 -100.2 0.910525 -100.2 0.413381 -12.26
8.99450000 0.413477 -8.179 0.910494 -100.2 0.910494 -100.2 0.413448 -12.28
8.99460000 0.413545 -8.176 0.910463 -100.2 0.910463 -100.2 0.413516 -12.29
8.99470000 0.413613 -8.173 0.910432 -100.2 0.910432 -100.2 0.413584 -12.31
8.99480000 0.413682 -8.171 0.910401 -100.2 0.910401 -100.2 0.413653 -12.33
8.99490000 0.413750 -8.168 0.910370 -100.3 0.910370 -100.3 0.413721 -12.34
8.99500000 0.413819 -8.165 0.910338 -100.3 0.910338 -100.3 0.413790 -12.36
8.99510000 0.413888 -8.162 0.910307 -100.3 0.910307 -100.3 0.413858 -12.38
8.99520000 0.413957 -8.160 0.910276 -100.3 0.910276 -100.3 0.413927 -12.39
8.99530000 0.414026 -8.157 0.910244 -100.3 0.910244 -100.3 0.413996 -12.41
8.99540000 0.414095 -8.154 0.910213 -100.3 0.910213 -100.3 0.414066 -12.43
8.99550000 0.414164 -8.151 0.910181 -100.3 0.910181 -100.3 0.414135 -12.44
8.99560000 0.414234 -8.149 0.910149 -100.3 0.910149 -100.3 0.414204 -12.46
8.99570000 0.414304 -8.146 0.910117 -100.3 0.910117 -100.3 0.414274 -12.48
8.99580000 0.414374 -8.143 0.910086 -100.3 0.910086 -100.3 0.414344 -12.49
8.99590000 0.414444 -8.140 0.910054 -100.3 0.910054 -100.3 0.414414 -12.51
8.99600000 0.414514 -8.138 0.910022 -100.3 0.910022 -100.3 0.414484 -12.53
8.99610000 0.414584 -8.135 0.909990 -100.3 0.909990 -100.3 0.414554 -12.55
!< P1 F=8.9961 Eeff=(5.37143333 -2.3774e-5) Z0=(35.9703566 8.06123e-5) R=0.0 C=0.0 
!< P2 F=8.9961 Eeff=(5.37143333 -2.3774e-5) Z0=(35.9703566 8.06123e-5) R=0.0 C=0.0 
8.99620000 0.414655 -8.132 0.909957 -100.3 0.909957 -100.3 0.414625 -12.56
8.99630000 0.414726 -8.129 0.909925 -100.4 0.909925 -100.4 0.414696 -12.58
8.99640000 0.414796 -8.126 0.909893 -100.4 0.909893 -100.4 0.414766 -12.60
8.99650000 0.414868 -8.124 0.909860 -100.4 0.909860 -100.4 0.414837 -12.61
8.99660000 0.414939 -8.121 0.909828 -100.4 0.909828 -100.4 0.414909 -12.63
8.99670000 0.415010 -8.118 0.909795 -100.4 0.909795 -100.4 0.414980 -12.65
8.99680000 0.415082 -8.115 0.909762 -100.4 0.909762 -100.4 0.415051 -12.67
8.99690000 0.415153 -8.112 0.909730 -100.4 0.909730 -100.4 0.415123 -12.68
8.99700000 0.415225 -8.109 0.909697 -100.4 0.909697 -100.4 0.415195 -12.70
8.99710000 0.415297 -8.106 0.909664 -100.4 0.909664 -100.4 0.415267 -12.72
8.99720000 0.415370 -8.103 0.909631 -100.4 0.909631 -100.4 0.415339 -12.73
8.99730000 0.415442 -8.101 0.909598 -100.4 0.909598 -100.4 0.415411 -12.75
8.99740000 0.415515 -8.098 0.909565 -100.4 0.909565 -100.4 0.415484 -12.77
8.99750000 0.415587 -8.095 0.909531 -100.4 0.909531 -100.4 0.415556 -12.79
8.99760000 0.415660 -8.092 0.909498 -100.4 0.909498 -100.4 0.415629 -12.80
8.99770000 0.415733 -8.089 0.909465 -100.5 0.909465 -100.5 0.415702 -12.82
8.99780000 0.415807 -8.086 0.909431 -100.5 0.909431 -100.5 0.415775 -12.84
8.99790000 0.415880 -8.083 0.909397 -100.5 0.909397 -100.5 0.415849 -12.86
8.99800000 0.415954 -8.080 0.909364 -100.5 0.909364 -100.5 0.415922 -12.87
8.99810000 0.416027 -8.077 0.909330 -100.5 0.909330 -100.5 0.415996 -12.89
8.99820000 0.416101 -8.074 0.909296 -100.5 0.909296 -100.5 0.416070 -12.91
8.99830000 0.416176 -8.071 0.909262 -100.5 0.909262 -100.5 0.416144 -12.93
8.99840000 0.416250 -8.068 0.909228 -100.5 0.909228 -100.5 0.416218 -12.95
8.99850000 0.416324 -8.065 0.909194 -100.5 0.909194 -100.5 0.416293 -12.96
8.99860000 0.416399 -8.062 0.909160 -100.5 0.909160 -100.5 0.416367 -12.98
8.99870000 0.416474 -8.059 0.909125 -100.5 0.909125 -100.5 0.416442 -13.00
8.99880000 0.416549 -8.056 0.909091 -100.5 0.909091 -100.5 0.416517 -13.02
8.99890000 0.416624 -8.053 0.909056 -100.5 0.909056 -100.5 0.416592 -13.04
8.99900000 0.416700 -8.050 0.909022 -100.5 0.909022 -100.5 0.416667 -13.05
8.99910000 0.416775 -8.047 0.908987 -100.6 0.908987 -100.6 0.416743 -13.07
8.99920000 0.416851 -8.044 0.908952 -100.6 0.908952 -100.6 0.416819 -13.09
8.99930000 0.416927 -8.041 0.908917 -100.6 0.908917 -100.6 0.416895 -13.11
8.99940000 0.417003 -8.038 0.908882 -100.6 0.908882 -100.6 0.416971 -13.13
8.99950000 0.417079 -8.035 0.908847 -100.6 0.908847 -100.6 0.417047 -13.14
8.99960000 0.417156 -8.032 0.908812 -100.6 0.908812 -100.6 0.417123 -13.16
8.99970000 0.417233 -8.029 0.908777 -100.6 0.908777 -100.6 0.417200 -13.18
8.99980000 0.417309 -8.026 0.908741 -100.6 0.908741 -100.6 0.417277 -13.20
8.99990000 0.417386 -8.023 0.908706 -100.6 0.908706 -100.6 0.417354 -13.22
9.00000000 0.417464 -8.020 0.908670 -100.6 0.908670 -100.6 0.417431 -13.24
9.00010000 0.417541 -8.017 0.908635 -100.6 0.908635 -100.6 0.417508 -13.26
9.00020000 0.417619 -8.014 0.908599 -100.6 0.908599 -100.6 0.417586 -13.27
9.00030000 0.417697 -8.010 0.908563 -100.6 0.908563 -100.6 0.417664 -13.29
9.00040000 0.417775 -8.007 0.908527 -100.7 0.908527 -100.7 0.417742 -13.31
9.00050000 0.417853 -8.004 0.908491 -100.7 0.908491 -100.7 0.417820 -13.33
9.00060000 0.417931 -8.001 0.908455 -100.7 0.908455 -100.7 0.417898 -13.35
9.00070000 0.418010 -7.998 0.908419 -100.7 0.908419 -100.7 0.417977 -13.37
9.00080000 0.418089 -7.995 0.908383 -100.7 0.908383 -100.7 0.418055 -13.39
9.00090000 0.418168 -7.992 0.908346 -100.7 0.908346 -100.7 0.418134 -13.40
9.00100000 0.418247 -7.988 0.908310 -100.7 0.908310 -100.7 0.418213 -13.42
9.00110000 0.418326 -7.985 0.908273 -100.7 0.908273 -100.7 0.418293 -13.44
9.00120000 0.418406 -7.982 0.908236 -100.7 0.908236 -100.7 0.418372 -13.46
9.00130000 0.418486 -7.979 0.908200 -100.7 0.908200 -100.7 0.418452 -13.48
9.00140000 0.418566 -7.976 0.908163 -100.7 0.908163 -100.7 0.418532 -13.50
9.00150000 0.418646 -7.972 0.908126 -100.7 0.908126 -100.7 0.418612 -13.52
9.00160000 0.418726 -7.969 0.908089 -100.8 0.908089 -100.8 0.418692 -13.54
9.00170000 0.418807 -7.966 0.908051 -100.8 0.908051 -100.8 0.418773 -13.56
9.00180000 0.418888 -7.963 0.908014 -100.8 0.908014 -100.8 0.418853 -13.58
9.00190000 0.418969 -7.959 0.907977 -100.8 0.907977 -100.8 0.418934 -13.60
9.00200000 0.419050 -7.956 0.907939 -100.8 0.907939 -100.8 0.419015 -13.62
9.00210000 0.419131 -7.953 0.907901 -100.8 0.907901 -100.8 0.419097 -13.63
9.00220000 0.419213 -7.950 0.907864 -100.8 0.907864 -100.8 0.419178 -13.65
9.00230000 0.419295 -7.946 0.907826 -100.8 0.907826 -100.8 0.419260 -13.67
9.00240000 0.419377 -7.943 0.907788 -100.8 0.907788 -100.8 0.419342 -13.69
9.00250000 0.419459 -7.940 0.907750 -100.8 0.907750 -100.8 0.419424 -13.71
9.00260000 0.419542 -7.936 0.907712 -100.8 0.907712 -100.8 0.419507 -13.73
9.00270000 0.419624 -7.933 0.907673 -100.8 0.907673 -100.8 0.419589 -13.75
9.00280000 0.419707 -7.930 0.907635 -100.8 0.907635 -100.8 0.419672 -13.77
9.00290000 0.419790 -7.926 0.907597 -100.9 0.907597 -100.9 0.419755 -13.79
9.00300000 0.419874 -7.923 0.907558 -100.9 0.907558 -100.9 0.419838 -13.81
9.00310000 0.419957 -7.920 0.907519 -100.9 0.907519 -100.9 0.419922 -13.83
9.00320000 0.420041 -7.916 0.907480 -100.9 0.907480 -100.9 0.420005 -13.85
9.00330000 0.420125 -7.913 0.907442 -100.9 0.907442 -100.9 0.420089 -13.87
9.00340000 0.420209 -7.910 0.907402 -100.9 0.907402 -100.9 0.420173 -13.89
9.00350000 0.420294 -7.906 0.907363 -100.9 0.907363 -100.9 0.420258 -13.91
9.00360000 0.420378 -7.903 0.907324 -100.9 0.907324 -100.9 0.420342 -13.93
9.00370000 0.420463 -7.899 0.907285 -100.9 0.907285 -100.9 0.420427 -13.95
9.00380000 0.420548 -7.896 0.907245 -100.9 0.907245 -100.9 0.420512 -13.97
9.00390000 0.420633 -7.893 0.907206 -100.9 0.907206 -100.9 0.420597 -13.99
9.00400000 0.420719 -7.889 0.907166 -100.9 0.907166 -100.9 0.420683 -14.01
9.00410000 0.420805 -7.886 0.907126 -101.0 0.907126 -101.0 0.420768 -14.03
9.00420000 0.420891 -7.882 0.907086 -101.0 0.907086 -101.0 0.420854 -14.05
9.00430000 0.420977 -7.879 0.907046 -101.0 0.907046 -101.0 0.420940 -14.07
9.00440000 0.421063 -7.875 0.907006 -101.0 0.907006 -101.0 0.421026 -14.09
9.00450000 0.421150 -7.872 0.906966 -101.0 0.906966 -101.0 0.421113 -14.11
9.00460000 0.421237 -7.869 0.906925 -101.0 0.906925 -101.0 0.421200 -14.13
9.00470000 0.421324 -7.865 0.906885 -101.0 0.906885 -101.0 0.421287 -14.15
9.00480000 0.421411 -7.862 0.906844 -101.0 0.906844 -101.0 0.421374 -14.17
9.00490000 0.421499 -7.858 0.906803 -101.0 0.906803 -101.0 0.421462 -14.20
9.00500000 0.421587 -7.855 0.906762 -101.0 0.906762 -101.0 0.421549 -14.22
9.00510000 0.421675 -7.851 0.906721 -101.0 0.906721 -101.0 0.421637 -14.24
9.00520000 0.421763 -7.847 0.906680 -101.0 0.906680 -101.0 0.421725 -14.26
9.00530000 0.421851 -7.844 0.906639 -101.1 0.906639 -101.1 0.421814 -14.28
9.00540000 0.421940 -7.840 0.906598 -101.1 0.906598 -101.1 0.421902 -14.30
9.00550000 0.422029 -7.837 0.906556 -101.1 0.906556 -101.1 0.421991 -14.32
9.00560000 0.422118 -7.833 0.906515 -101.1 0.906515 -101.1 0.422080 -14.34
9.00570000 0.422208 -7.830 0.906473 -101.1 0.906473 -101.1 0.422170 -14.36
9.00580000 0.422297 -7.826 0.906431 -101.1 0.906431 -101.1 0.422259 -14.38
9.00590000 0.422387 -7.823 0.906389 -101.1 0.906389 -101.1 0.422349 -14.40
9.00600000 0.422478 -7.819 0.906347 -101.1 0.906347 -101.1 0.422439 -14.43
9.00610000 0.422568 -7.815 0.906305 -101.1 0.906305 -101.1 0.422530 -14.45
9.00620000 0.422659 -7.812 0.906263 -101.1 0.906263 -101.1 0.422620 -14.47
9.00630000 0.422750 -7.808 0.906220 -101.1 0.906220 -101.1 0.422711 -14.49
9.00640000 0.422841 -7.804 0.906177 -101.2 0.906177 -101.2 0.422802 -14.51
9.00650000 0.422932 -7.801 0.906135 -101.2 0.906135 -101.2 0.422893 -14.53
9.00660000 0.423024 -7.797 0.906092 -101.2 0.906092 -101.2 0.422985 -14.55
9.00670000 0.423116 -7.793 0.906049 -101.2 0.906049 -101.2 0.423077 -14.58
9.00680000 0.423208 -7.790 0.906006 -101.2 0.906006 -101.2 0.423169 -14.60
9.00690000 0.423300 -7.786 0.905963 -101.2 0.905963 -101.2 0.423261 -14.62
9.00700000 0.423393 -7.782 0.905919 -101.2 0.905919 -101.2 0.423354 -14.64
9.00710000 0.423486 -7.779 0.905876 -101.2 0.905876 -101.2 0.423447 -14.66
9.00720000 0.423579 -7.775 0.905832 -101.2 0.905832 -101.2 0.423540 -14.68
9.00730000 0.423673 -7.771 0.905788 -101.2 0.905788 -101.2 0.423633 -14.71
9.00740000 0.423766 -7.768 0.905744 -101.2 0.905744 -101.2 0.423727 -14.73
9.00750000 0.423860 -7.764 0.905700 -101.3 0.905700 -101.3 0.423820 -14.75
9.00760000 0.423954 -7.760 0.905656 -101.3 0.905656 -101.3 0.423915 -14.77
9.00770000 0.424049 -7.756 0.905612 -101.3 0.905612 -101.3 0.424009 -14.79
9.00780000 0.424144 -7.753 0.905567 -101.3 0.905567 -101.3 0.424104 -14.82
9.00790000 0.424239 -7.749 0.905523 -101.3 0.905523 -101.3 0.424198 -14.84
9.00800000 0.424334 -7.745 0.905478 -101.3 0.905478 -101.3 0.424294 -14.86
9.00810000 0.424430 -7.741 0.905433 -101.3 0.905433 -101.3 0.424389 -14.88
9.00820000 0.424525 -7.737 0.905388 -101.3 0.905388 -101.3 0.424485 -14.91
9.00830000 0.424621 -7.734 0.905343 -101.3 0.905343 -101.3 0.424581 -14.93
9.00840000 0.424718 -7.730 0.905298 -101.3 0.905298 -101.3 0.424677 -14.95
9.00850000 0.424814 -7.726 0.905253 -101.3 0.905253 -101.3 0.424774 -14.97
9.00860000 0.424911 -7.722 0.905207 -101.4 0.905207 -101.4 0.424870 -15.00
9.00870000 0.425009 -7.718 0.905161 -101.4 0.905161 -101.4 0.424967 -15.02
9.00880000 0.425106 -7.714 0.905116 -101.4 0.905116 -101.4 0.425065 -15.04
9.00890000 0.425204 -7.710 0.905070 -101.4 0.905070 -101.4 0.425162 -15.06
9.00900000 0.425302 -7.707 0.905023 -101.4 0.905023 -101.4 0.425260 -15.09
9.00910000 0.425400 -7.703 0.904977 -101.4 0.904977 -101.4 0.425358 -15.11
9.00920000 0.425499 -7.699 0.904931 -101.4 0.904931 -101.4 0.425457 -15.13
9.00930000 0.425597 -7.695 0.904884 -101.4 0.904884 -101.4 0.425556 -15.16
9.00940000 0.425697 -7.691 0.904838 -101.4 0.904838 -101.4 0.425655 -15.18
9.00950000 0.425796 -7.687 0.904791 -101.4 0.904791 -101.4 0.425754 -15.20
9.00960000 0.425896 -7.683 0.904744 -101.5 0.904744 -101.5 0.425853 -15.22
9.00970000 0.425996 -7.679 0.904697 -101.5 0.904697 -101.5 0.425953 -15.25
9.00980000 0.426096 -7.675 0.904649 -101.5 0.904649 -101.5 0.426053 -15.27
9.00990000 0.426196 -7.671 0.904602 -101.5 0.904602 -101.5 0.426154 -15.29
9.01000000 0.426297 -7.667 0.904554 -101.5 0.904554 -101.5 0.426255 -15.32
9.01010000 0.426398 -7.663 0.904506 -101.5 0.904506 -101.5 0.426356 -15.34
9.01020000 0.426500 -7.659 0.904459 -101.5 0.904459 -101.5 0.426457 -15.36
9.01030000 0.426602 -7.655 0.904411 -101.5 0.904411 -101.5 0.426559 -15.39
9.01040000 0.426704 -7.651 0.904362 -101.5 0.904362 -101.5 0.426660 -15.41
9.01050000 0.426806 -7.647 0.904314 -101.5 0.904314 -101.5 0.426763 -15.44
9.01060000 0.426909 -7.643 0.904265 -101.5 0.904265 -101.5 0.426865 -15.46
9.01070000 0.427011 -7.639 0.904217 -101.6 0.904217 -101.6 0.426968 -15.48
9.01080000 0.427115 -7.635 0.904168 -101.6 0.904168 -101.6 0.427071 -15.51
9.01090000 0.427218 -7.631 0.904119 -101.6 0.904119 -101.6 0.427174 -15.53
9.01100000 0.427322 -7.627 0.904070 -101.6 0.904070 -101.6 0.427278 -15.56
9.01110000 0.427426 -7.623 0.904021 -101.6 0.904021 -101.6 0.427382 -15.58
9.01120000 0.427531 -7.619 0.903971 -101.6 0.903971 -101.6 0.427486 -15.60
9.01130000 0.427635 -7.615 0.903921 -101.6 0.903921 -101.6 0.427591 -15.63
9.01140000 0.427740 -7.611 0.903872 -101.6 0.903872 -101.6 0.427696 -15.65
9.01150000 0.427846 -7.606 0.903822 -101.6 0.903822 -101.6 0.427801 -15.68
9.01160000 0.427951 -7.602 0.903772 -101.6 0.903772 -101.6 0.427907 -15.70
9.01170000 0.428057 -7.598 0.903721 -101.7 0.903721 -101.7 0.428013 -15.73
9.01180000 0.428164 -7.594 0.903671 -101.7 0.903671 -101.7 0.428119 -15.75
9.01190000 0.428270 -7.590 0.903620 -101.7 0.903620 -101.7 0.428225 -15.77
9.01200000 0.428377 -7.586 0.903570 -101.7 0.903570 -101.7 0.428332 -15.80
9.01210000 0.428485 -7.581 0.903519 -101.7 0.903519 -101.7 0.428439 -15.82
9.01220000 0.428592 -7.577 0.903467 -101.7 0.903467 -101.7 0.428547 -15.85
9.01230000 0.428700 -7.573 0.903416 -101.7 0.903416 -101.7 0.428655 -15.87
9.01240000 0.428808 -7.569 0.903365 -101.7 0.903365 -101.7 0.428763 -15.90
9.01250000 0.428917 -7.565 0.903313 -101.7 0.903313 -101.7 0.428871 -15.92
9.01260000 0.429026 -7.560 0.903261 -101.8 0.903261 -101.8 0.428980 -15.95
9.01270000 0.429135 -7.556 0.903209 -101.8 0.903209 -101.8 0.429089 -15.97
9.01280000 0.429245 -7.552 0.903157 -101.8 0.903157 -101.8 0.429198 -16.00
9.01290000 0.429355 -7.548 0.903105 -101.8 0.903105 -101.8 0.429308 -16.02
9.01300000 0.429465 -7.543 0.903052 -101.8 0.903052 -101.8 0.429418 -16.05
9.01310000 0.429575 -7.539 0.903000 -101.8 0.903000 -101.8 0.429529 -16.07
9.01320000 0.429686 -7.535 0.902947 -101.8 0.902947 -101.8 0.429639 -16.10
9.01330000 0.429797 -7.530 0.902894 -101.8 0.902894 -101.8 0.429751 -16.13
9.01340000 0.429909 -7.526 0.902841 -101.8 0.902841 -101.8 0.429862 -16.15
9.01350000 0.430021 -7.522 0.902787 -101.8 0.902787 -101.8 0.429974 -16.18
9.01360000 0.430133 -7.517 0.902734 -101.9 0.902734 -101.9 0.430086 -16.20
9.01370000 0.430246 -7.513 0.902680 -101.9 0.902680 -101.9 0.430198 -16.23
9.01380000 0.430359 -7.509 0.902626 -101.9 0.902626 -101.9 0.430311 -16.25
9.01390000 0.430472 -7.504 0.902572 -101.9 0.902572 -101.9 0.430424 -16.28
9.01400000 0.430586 -7.500 0.902518 -101.9 0.902518 -101.9 0.430538 -16.31
9.01410000 0.430700 -7.496 0.902463 -101.9 0.902463 -101.9 0.430652 -16.33
9.01420000 0.430814 -7.491 0.902408 -101.9 0.902408 -101.9 0.430766 -16.36
9.01430000 0.430929 -7.487 0.902354 -101.9 0.902354 -101.9 0.430881 -16.38
9.01440000 0.431044 -7.482 0.902299 -101.9 0.902299 -101.9 0.430996 -16.41
9.01450000 0.431159 -7.478 0.902243 -102.0 0.902243 -102.0 0.431111 -16.44
9.01460000 0.431275 -7.473 0.902188 -102.0 0.902188 -102.0 0.431226 -16.46
9.01470000 0.431391 -7.469 0.902132 -102.0 0.902132 -102.0 0.431342 -16.49
9.01480000 0.431508 -7.464 0.902076 -102.0 0.902076 -102.0 0.431459 -16.52
9.01490000 0.431625 -7.460 0.902020 -102.0 0.902020 -102.0 0.431576 -16.54
9.01500000 0.431742 -7.456 0.901964 -102.0 0.901964 -102.0 0.431693 -16.57
9.01510000 0.431860 -7.451 0.901908 -102.0 0.901908 -102.0 0.431810 -16.60
9.01520000 0.431978 -7.446 0.901851 -102.0 0.901851 -102.0 0.431928 -16.62
9.01530000 0.432096 -7.442 0.901794 -102.0 0.901794 -102.0 0.432046 -16.65
9.01540000 0.432215 -7.437 0.901737 -102.1 0.901737 -102.1 0.432165 -16.68
9.01550000 0.432334 -7.433 0.901680 -102.1 0.901680 -102.1 0.432284 -16.70
9.01560000 0.432453 -7.428 0.901623 -102.1 0.901623 -102.1 0.432403 -16.73
9.01570000 0.432573 -7.424 0.901565 -102.1 0.901565 -102.1 0.432523 -16.76
9.01580000 0.432694 -7.419 0.901507 -102.1 0.901507 -102.1 0.432643 -16.79
9.01590000 0.432814 -7.415 0.901449 -102.1 0.901449 -102.1 0.432764 -16.81
9.01600000 0.432935 -7.410 0.901391 -102.1 0.901391 -102.1 0.432885 -16.84
9.01610000 0.433057 -7.405 0.901333 -102.1 0.901333 -102.1 0.433006 -16.87
9.01620000 0.433179 -7.401 0.901274 -102.1 0.901274 -102.1 0.433127 -16.90
9.01630000 0.433301 -7.396 0.901215 -102.2 0.901215 -102.2 0.433250 -16.92
9.01640000 0.433423 -7.392 0.901156 -102.2 0.901156 -102.2 0.433372 -16.95
9.01650000 0.433546 -7.387 0.901097 -102.2 0.901097 -102.2 0.433495 -16.98
9.01660000 0.433670 -7.382 0.901037 -102.2 0.901037 -102.2 0.433618 -17.01
9.01670000 0.433794 -7.378 0.900978 -102.2 0.900978 -102.2 0.433742 -17.03
9.01680000 0.433918 -7.373 0.900918 -102.2 0.900918 -102.2 0.433866 -17.06
9.01690000 0.434042 -7.368 0.900858 -102.2 0.900858 -102.2 0.433990 -17.09
9.01700000 0.434167 -7.363 0.900797 -102.2 0.900797 -102.2 0.434115 -17.12
9.01710000 0.434293 -7.359 0.900737 -102.2 0.900737 -102.2 0.434240 -17.15
9.01720000 0.434419 -7.354 0.900676 -102.3 0.900676 -102.3 0.434366 -17.18
9.01730000 0.434545 -7.349 0.900615 -102.3 0.900615 -102.3 0.434492 -17.20
9.01740000 0.434672 -7.344 0.900554 -102.3 0.900554 -102.3 0.434619 -17.23
9.01750000 0.434799 -7.340 0.900492 -102.3 0.900492 -102.3 0.434746 -17.26
9.01760000 0.434926 -7.335 0.900431 -102.3 0.900431 -102.3 0.434873 -17.29
9.01770000 0.435054 -7.330 0.900369 -102.3 0.900369 -102.3 0.435001 -17.32
9.01780000 0.435183 -7.325 0.900307 -102.3 0.900307 -102.3 0.435129 -17.35
9.01790000 0.435311 -7.321 0.900244 -102.3 0.900244 -102.3 0.435258 -17.38
9.01800000 0.435441 -7.316 0.900182 -102.4 0.900182 -102.4 0.435387 -17.41
9.01810000 0.435570 -7.311 0.900119 -102.4 0.900119 -102.4 0.435516 -17.44
9.01820000 0.435700 -7.306 0.900056 -102.4 0.900056 -102.4 0.435646 -17.46
9.01830000 0.435831 -7.301 0.899992 -102.4 0.899992 -102.4 0.435776 -17.49
9.01840000 0.435962 -7.296 0.899929 -102.4 0.899929 -102.4 0.435907 -17.52
9.01850000 0.436093 -7.291 0.899865 -102.4 0.899865 -102.4 0.436038 -17.55
9.01860000 0.436225 -7.287 0.899801 -102.4 0.899801 -102.4 0.436170 -17.58
9.01870000 0.436357 -7.282 0.899737 -102.4 0.899737 -102.4 0.436302 -17.61
9.01880000 0.436490 -7.277 0.899672 -102.5 0.899672 -102.5 0.436435 -17.64
9.01890000 0.436623 -7.272 0.899608 -102.5 0.899608 -102.5 0.436568 -17.67
9.01900000 0.436757 -7.267 0.899543 -102.5 0.899543 -102.5 0.436701 -17.70