! Sonnet Data File
! From: emgraph Version : 16.52
! From Project: Resonator2_extremeCap2
! Data is De-embedded 
! Data File Written: 10/10/2017 08:27:13
!< HDATE 10/10/2017 01:06:54
!< MDATE 10/10/2017 01:06:54
!< PARAMS
!< Pwid1 = 2000.0
!< Pwid2 = 2000.0
!< Air_gap = 6.0
!< Width = 10.0
!< Gap = 33.0
!< END PARAMS
# GHZ S MA R 35.98000
8.98000000 0.399423 -7.523 0.916749 -99.58 0.916749 -99.58 0.399396 -11.63
!< P1 F=8.98 Eeff=(5.37116343 -2.3769e-5) Z0=(35.9716001 8.05996e-5) R=0.0 C=0.0 
!< P2 F=8.98 Eeff=(5.37116343 -2.3769e-5) Z0=(35.9716001 8.05996e-5) R=0.0 C=0.0 
8.98010000 0.399477 -7.520 0.916725 -99.58 0.916725 -99.58 0.399450 -11.65
8.98020000 0.399531 -7.517 0.916702 -99.59 0.916702 -99.59 0.399504 -11.67
8.98030000 0.399585 -7.514 0.916678 -99.60 0.916678 -99.60 0.399558 -11.68
8.98040000 0.399639 -7.511 0.916655 -99.60 0.916655 -99.60 0.399612 -11.70
8.98050000 0.399693 -7.507 0.916631 -99.61 0.916631 -99.61 0.399667 -11.71
8.98060000 0.399748 -7.504 0.916607 -99.61 0.916607 -99.61 0.399721 -11.73
8.98070000 0.399802 -7.501 0.916583 -99.62 0.916583 -99.62 0.399775 -11.74
8.98080000 0.399857 -7.498 0.916559 -99.63 0.916559 -99.63 0.399830 -11.76
8.98090000 0.399912 -7.495 0.916535 -99.63 0.916535 -99.63 0.399885 -11.77
8.98100000 0.399967 -7.492 0.916511 -99.64 0.916511 -99.64 0.399940 -11.79
8.98110000 0.400022 -7.489 0.916487 -99.64 0.916487 -99.64 0.399995 -11.80
8.98120000 0.400077 -7.485 0.916463 -99.65 0.916463 -99.65 0.400050 -11.82
8.98130000 0.400132 -7.482 0.916439 -99.66 0.916439 -99.66 0.400105 -11.83
8.98140000 0.400188 -7.479 0.916415 -99.66 0.916415 -99.66 0.400160 -11.85
8.98150000 0.400243 -7.476 0.916391 -99.67 0.916391 -99.67 0.400216 -11.87
8.98160000 0.400299 -7.473 0.916366 -99.68 0.916366 -99.68 0.400271 -11.88
8.98170000 0.400354 -7.470 0.916342 -99.68 0.916342 -99.68 0.400327 -11.90
8.98180000 0.400410 -7.466 0.916317 -99.69 0.916317 -99.69 0.400383 -11.91
8.98190000 0.400466 -7.463 0.916293 -99.69 0.916293 -99.69 0.400439 -11.93
8.98200000 0.400522 -7.460 0.916268 -99.70 0.916268 -99.70 0.400495 -11.94
8.98210000 0.400578 -7.457 0.916244 -99.71 0.916244 -99.71 0.400551 -11.96
8.98220000 0.400635 -7.453 0.916219 -99.71 0.916219 -99.71 0.400607 -11.98
8.98230000 0.400691 -7.450 0.916194 -99.72 0.916194 -99.72 0.400663 -11.99
8.98240000 0.400748 -7.447 0.916170 -99.73 0.916170 -99.73 0.400720 -12.01
8.98250000 0.400804 -7.444 0.916145 -99.73 0.916145 -99.73 0.400777 -12.02
8.98260000 0.400861 -7.440 0.916120 -99.74 0.916120 -99.74 0.400833 -12.04
8.98270000 0.400918 -7.437 0.916095 -99.74 0.916095 -99.74 0.400890 -12.05
8.98280000 0.400975 -7.434 0.916070 -99.75 0.916070 -99.75 0.400947 -12.07
8.98290000 0.401032 -7.431 0.916045 -99.76 0.916045 -99.76 0.401004 -12.09
8.98300000 0.401090 -7.427 0.916020 -99.76 0.916020 -99.76 0.401061 -12.10
8.98310000 0.401147 -7.424 0.915995 -99.77 0.915995 -99.77 0.401119 -12.12
8.98320000 0.401205 -7.421 0.915970 -99.78 0.915970 -99.78 0.401176 -12.14
8.98330000 0.401262 -7.417 0.915944 -99.78 0.915944 -99.78 0.401234 -12.15
8.98340000 0.401320 -7.414 0.915919 -99.79 0.915919 -99.79 0.401292 -12.17
8.98350000 0.401378 -7.411 0.915894 -99.80 0.915894 -99.80 0.401349 -12.18
8.98360000 0.401436 -7.407 0.915868 -99.80 0.915868 -99.80 0.401407 -12.20
8.98370000 0.401494 -7.404 0.915843 -99.81 0.915843 -99.81 0.401465 -12.22
8.98380000 0.401552 -7.400 0.915817 -99.81 0.915817 -99.81 0.401524 -12.23
8.98390000 0.401611 -7.397 0.915791 -99.82 0.915791 -99.82 0.401582 -12.25
8.98400000 0.401669 -7.394 0.915766 -99.83 0.915766 -99.83 0.401640 -12.27
8.98410000 0.401728 -7.390 0.915740 -99.83 0.915740 -99.83 0.401699 -12.28
8.98420000 0.401787 -7.387 0.915714 -99.84 0.915714 -99.84 0.401758 -12.30
8.98430000 0.401846 -7.383 0.915688 -99.85 0.915688 -99.85 0.401817 -12.31
8.98440000 0.401905 -7.380 0.915662 -99.85 0.915662 -99.85 0.401876 -12.33
8.98450000 0.401964 -7.377 0.915636 -99.86 0.915636 -99.86 0.401935 -12.35
8.98460000 0.402023 -7.373 0.915610 -99.87 0.915610 -99.87 0.401994 -12.36
8.98470000 0.402083 -7.370 0.915584 -99.87 0.915584 -99.87 0.402053 -12.38
8.98480000 0.402142 -7.366 0.915558 -99.88 0.915558 -99.88 0.402113 -12.40
8.98490000 0.402202 -7.363 0.915532 -99.89 0.915532 -99.89 0.402172 -12.41
8.98500000 0.402262 -7.359 0.915505 -99.89 0.915505 -99.89 0.402232 -12.43
8.98510000 0.402322 -7.356 0.915479 -99.90 0.915479 -99.90 0.402292 -12.45
8.98520000 0.402382 -7.352 0.915452 -99.91 0.915452 -99.91 0.402352 -12.46
8.98530000 0.402442 -7.349 0.915426 -99.91 0.915426 -99.91 0.402412 -12.48
8.98540000 0.402502 -7.345 0.915399 -99.92 0.915399 -99.92 0.402472 -12.50
8.98550000 0.402563 -7.342 0.915373 -99.93 0.915373 -99.93 0.402533 -12.51
8.98560000 0.402623 -7.338 0.915346 -99.93 0.915346 -99.93 0.402593 -12.53
8.98570000 0.402684 -7.335 0.915319 -99.94 0.915319 -99.94 0.402654 -12.55
8.98580000 0.402745 -7.331 0.915292 -99.95 0.915292 -99.95 0.402715 -12.57
8.98590000 0.402806 -7.328 0.915266 -99.95 0.915266 -99.95 0.402776 -12.58
8.98600000 0.402867 -7.324 0.915239 -99.96 0.915239 -99.96 0.402837 -12.60
8.98610000 0.402929 -7.321 0.915212 -99.97 0.915212 -99.97 0.402898 -12.62
8.98620000 0.402990 -7.317 0.915184 -99.97 0.915184 -99.97 0.402960 -12.63
8.98630000 0.403052 -7.313 0.915157 -99.98 0.915157 -99.98 0.403021 -12.65
8.98640000 0.403113 -7.310 0.915130 -99.99 0.915130 -99.99 0.403083 -12.67
8.98650000 0.403175 -7.306 0.915103 -99.99 0.915103 -99.99 0.403145 -12.68
8.98660000 0.403237 -7.303 0.915075 -100.0 0.915075 -100.0 0.403206 -12.70
8.98670000 0.403299 -7.299 0.915048 -100.0 0.915048 -100.0 0.403269 -12.72
8.98680000 0.403362 -7.295 0.915021 -100.0 0.915021 -100.0 0.403331 -12.74
8.98690000 0.403424 -7.292 0.914993 -100.0 0.914993 -100.0 0.403393 -12.75
8.98700000 0.403486 -7.288 0.914965 -100.0 0.914965 -100.0 0.403456 -12.77
8.98710000 0.403549 -7.284 0.914938 -100.0 0.914938 -100.0 0.403518 -12.79
8.98720000 0.403612 -7.281 0.914910 -100.0 0.914910 -100.0 0.403581 -12.81
8.98730000 0.403675 -7.277 0.914882 -100.0 0.914882 -100.0 0.403644 -12.82
8.98740000 0.403738 -7.273 0.914854 -100.1 0.914854 -100.1 0.403707 -12.84
8.98750000 0.403801 -7.270 0.914826 -100.1 0.914826 -100.1 0.403770 -12.86
8.98760000 0.403865 -7.266 0.914798 -100.1 0.914798 -100.1 0.403834 -12.88
8.98770000 0.403928 -7.262 0.914770 -100.1 0.914770 -100.1 0.403897 -12.89
8.98780000 0.403992 -7.259 0.914742 -100.1 0.914742 -100.1 0.403961 -12.91
8.98790000 0.404056 -7.255 0.914714 -100.1 0.914714 -100.1 0.404024 -12.93
8.98800000 0.404120 -7.251 0.914685 -100.1 0.914685 -100.1 0.404088 -12.95
8.98810000 0.404184 -7.247 0.914657 -100.1 0.914657 -100.1 0.404152 -12.97
8.98820000 0.404248 -7.244 0.914629 -100.1 0.914629 -100.1 0.404217 -12.98
8.98830000 0.404313 -7.240 0.914600 -100.1 0.914600 -100.1 0.404281 -13.00
8.98840000 0.404377 -7.236 0.914571 -100.1 0.914571 -100.1 0.404346 -13.02
8.98850000 0.404442 -7.232 0.914543 -100.1 0.914543 -100.1 0.404410 -13.04
8.98860000 0.404507 -7.228 0.914514 -100.1 0.914514 -100.1 0.404475 -13.05
8.98870000 0.404572 -7.225 0.914485 -100.1 0.914485 -100.1 0.404540 -13.07
8.98880000 0.404637 -7.221 0.914456 -100.2 0.914456 -100.2 0.404605 -13.09
8.98890000 0.404703 -7.217 0.914427 -100.2 0.914427 -100.2 0.404670 -13.11
8.98900000 0.404768 -7.213 0.914398 -100.2 0.914398 -100.2 0.404736 -13.13
8.98910000 0.404834 -7.209 0.914369 -100.2 0.914369 -100.2 0.404801 -13.14
8.98920000 0.404900 -7.205 0.914340 -100.2 0.914340 -100.2 0.404867 -13.16
8.98930000 0.404966 -7.202 0.914311 -100.2 0.914311 -100.2 0.404933 -13.18
8.98940000 0.405032 -7.198 0.914281 -100.2 0.914281 -100.2 0.404999 -13.20
8.98950000 0.405098 -7.194 0.914252 -100.2 0.914252 -100.2 0.405065 -13.22
8.98960000 0.405165 -7.190 0.914223 -100.2 0.914223 -100.2 0.405132 -13.24
8.98970000 0.405231 -7.186 0.914193 -100.2 0.914193 -100.2 0.405198 -13.25
8.98980000 0.405298 -7.182 0.914163 -100.2 0.914163 -100.2 0.405265 -13.27
8.98990000 0.405365 -7.178 0.914134 -100.2 0.914134 -100.2 0.405332 -13.29
8.99000000 0.405432 -7.174 0.914104 -100.2 0.914104 -100.2 0.405399 -13.31
8.99010000 0.405499 -7.170 0.914074 -100.2 0.914074 -100.2 0.405466 -13.33
8.99020000 0.405566 -7.166 0.914044 -100.3 0.914044 -100.3 0.405533 -13.35
8.99030000 0.405634 -7.162 0.914014 -100.3 0.914014 -100.3 0.405601 -13.37
8.99040000 0.405702 -7.158 0.913984 -100.3 0.913984 -100.3 0.405668 -13.38
8.99050000 0.405770 -7.154 0.913954 -100.3 0.913954 -100.3 0.405736 -13.40
8.99060000 0.405838 -7.150 0.913924 -100.3 0.913924 -100.3 0.405804 -13.42
8.99070000 0.405906 -7.146 0.913893 -100.3 0.913893 -100.3 0.405872 -13.44
8.99080000 0.405974 -7.142 0.913863 -100.3 0.913863 -100.3 0.405940 -13.46
8.99090000 0.406043 -7.138 0.913832 -100.3 0.913832 -100.3 0.406009 -13.48
8.99100000 0.406111 -7.134 0.913802 -100.3 0.913802 -100.3 0.406077 -13.50
8.99110000 0.406180 -7.130 0.913771 -100.3 0.913771 -100.3 0.406146 -13.52
8.99120000 0.406249 -7.126 0.913740 -100.3 0.913740 -100.3 0.406215 -13.54
8.99130000 0.406318 -7.122 0.913710 -100.3 0.913710 -100.3 0.406284 -13.55
8.99140000 0.406388 -7.118 0.913679 -100.3 0.913679 -100.3 0.406354 -13.57
8.99150000 0.406457 -7.114 0.913648 -100.4 0.913648 -100.4 0.406423 -13.59
8.99160000 0.406527 -7.110 0.913617 -100.4 0.913617 -100.4 0.406493 -13.61
8.99170000 0.406597 -7.106 0.913586 -100.4 0.913586 -100.4 0.406562 -13.63
8.99180000 0.406667 -7.102 0.913554 -100.4 0.913554 -100.4 0.406632 -13.65
8.99190000 0.406737 -7.098 0.913523 -100.4 0.913523 -100.4 0.406702 -13.67
8.99200000 0.406808 -7.093 0.913492 -100.4 0.913492 -100.4 0.406773 -13.69
8.99210000 0.406878 -7.089 0.913460 -100.4 0.913460 -100.4 0.406843 -13.71
8.99220000 0.406949 -7.085 0.913429 -100.4 0.913429 -100.4 0.406914 -13.73
8.99230000 0.407020 -7.081 0.913397 -100.4 0.913397 -100.4 0.406985 -13.75
8.99240000 0.407091 -7.077 0.913365 -100.4 0.913365 -100.4 0.407056 -13.77
8.99250000 0.407162 -7.073 0.913333 -100.4 0.913333 -100.4 0.407127 -13.79
8.99260000 0.407234 -7.068 0.913302 -100.4 0.913302 -100.4 0.407198 -13.81
8.99270000 0.407305 -7.064 0.913270 -100.4 0.913270 -100.4 0.407270 -13.82
8.99280000 0.407377 -7.060 0.913238 -100.5 0.913238 -100.5 0.407341 -13.84
8.99290000 0.407449 -7.056 0.913205 -100.5 0.913205 -100.5 0.407413 -13.86
8.99300000 0.407521 -7.052 0.913173 -100.5 0.913173 -100.5 0.407485 -13.88
8.99310000 0.407593 -7.047 0.913141 -100.5 0.913141 -100.5 0.407558 -13.90
8.99320000 0.407666 -7.043 0.913108 -100.5 0.913108 -100.5 0.407630 -13.92
8.99330000 0.407739 -7.039 0.913076 -100.5 0.913076 -100.5 0.407703 -13.94
8.99340000 0.407811 -7.035 0.913043 -100.5 0.913043 -100.5 0.407775 -13.96
8.99350000 0.407884 -7.030 0.913011 -100.5 0.913011 -100.5 0.407848 -13.98
8.99360000 0.407958 -7.026 0.912978 -100.5 0.912978 -100.5 0.407921 -14.00
8.99370000 0.408031 -7.022 0.912945 -100.5 0.912945 -100.5 0.407995 -14.02
8.99380000 0.408105 -7.017 0.912912 -100.5 0.912912 -100.5 0.408068 -14.04
8.99390000 0.408178 -7.013 0.912879 -100.5 0.912879 -100.5 0.408142 -14.06
8.99400000 0.408252 -7.009 0.912846 -100.5 0.912846 -100.5 0.408216 -14.08
8.99410000 0.408327 -7.004 0.912813 -100.6 0.912813 -100.6 0.408290 -14.10
8.99420000 0.408401 -7.000 0.912779 -100.6 0.912779 -100.6 0.408364 -14.12
8.99430000 0.408475 -6.996 0.912746 -100.6 0.912746 -100.6 0.408439 -14.14
8.99440000 0.408550 -6.991 0.912713 -100.6 0.912713 -100.6 0.408513 -14.17
8.99450000 0.408625 -6.987 0.912679 -100.6 0.912679 -100.6 0.408588 -14.19
8.99460000 0.408700 -6.982 0.912645 -100.6 0.912645 -100.6 0.408663 -14.21
8.99470000 0.408775 -6.978 0.912612 -100.6 0.912612 -100.6 0.408738 -14.23
8.99480000 0.408851 -6.973 0.912578 -100.6 0.912578 -100.6 0.408814 -14.25
8.99490000 0.408927 -6.969 0.912544 -100.6 0.912544 -100.6 0.408889 -14.27
8.99500000 0.409003 -6.965 0.912510 -100.6 0.912510 -100.6 0.408965 -14.29
8.99510000 0.409079 -6.960 0.912475 -100.6 0.912475 -100.6 0.409041 -14.31
8.99520000 0.409155 -6.956 0.912441 -100.6 0.912441 -100.6 0.409117 -14.33
8.99530000 0.409231 -6.951 0.912407 -100.6 0.912407 -100.6 0.409194 -14.35
8.99540000 0.409308 -6.947 0.912372 -100.7 0.912372 -100.7 0.409270 -14.37
8.99550000 0.409385 -6.942 0.912338 -100.7 0.912338 -100.7 0.409347 -14.39
8.99560000 0.409462 -6.938 0.912303 -100.7 0.912303 -100.7 0.409424 -14.41
8.99570000 0.409539 -6.933 0.912269 -100.7 0.912269 -100.7 0.409501 -14.43
8.99580000 0.409617 -6.929 0.912234 -100.7 0.912234 -100.7 0.409578 -14.46
8.99590000 0.409694 -6.924 0.912199 -100.7 0.912199 -100.7 0.409656 -14.48
8.99600000 0.409772 -6.919 0.912164 -100.7 0.912164 -100.7 0.409734 -14.50
8.99610000 0.409850 -6.915 0.912129 -100.7 0.912129 -100.7 0.409812 -14.52
8.99620000 0.409929 -6.910 0.912093 -100.7 0.912093 -100.7 0.409890 -14.54
8.99630000 0.410007 -6.906 0.912058 -100.7 0.912058 -100.7 0.409968 -14.56
8.99640000 0.410086 -6.901 0.912023 -100.7 0.912023 -100.7 0.410047 -14.58
8.99650000 0.410165 -6.896 0.911987 -100.7 0.911987 -100.7 0.410126 -14.60
8.99660000 0.410244 -6.892 0.911952 -100.8 0.911952 -100.8 0.410205 -14.63
8.99670000 0.410323 -6.887 0.911916 -100.8 0.911916 -100.8 0.410284 -14.65
8.99680000 0.410403 -6.882 0.911880 -100.8 0.911880 -100.8 0.410363 -14.67
8.99690000 0.410482 -6.878 0.911844 -100.8 0.911844 -100.8 0.410443 -14.69
8.99700000 0.410562 -6.873 0.911808 -100.8 0.911808 -100.8 0.410523 -14.71
8.99710000 0.410642 -6.868 0.911772 -100.8 0.911772 -100.8 0.410603 -14.73
8.99720000 0.410723 -6.864 0.911736 -100.8 0.911736 -100.8 0.410683 -14.75
8.99730000 0.410803 -6.859 0.911699 -100.8 0.911699 -100.8 0.410764 -14.78
8.99740000 0.410884 -6.854 0.911663 -100.8 0.911663 -100.8 0.410844 -14.80
8.99750000 0.410965 -6.850 0.911626 -100.8 0.911626 -100.8 0.410925 -14.82
8.99760000 0.411046 -6.845 0.911589 -100.8 0.911589 -100.8 0.411006 -14.84
8.99770000 0.411128 -6.840 0.911553 -100.8 0.911553 -100.8 0.411088 -14.86
8.99780000 0.411209 -6.835 0.911516 -100.9 0.911516 -100.9 0.411169 -14.89
8.99790000 0.411291 -6.830 0.911479 -100.9 0.911479 -100.9 0.411251 -14.91
8.99800000 0.411373 -6.826 0.911442 -100.9 0.911442 -100.9 0.411333 -14.93
8.99810000 0.411456 -6.821 0.911404 -100.9 0.911404 -100.9 0.411415 -14.95
8.99820000 0.411538 -6.816 0.911367 -100.9 0.911367 -100.9 0.411498 -14.97
8.99830000 0.411621 -6.811 0.911330 -100.9 0.911330 -100.9 0.411580 -15.00
8.99840000 0.411704 -6.806 0.911292 -100.9 0.911292 -100.9 0.411663 -15.02
8.99850000 0.411787 -6.802 0.911255 -100.9 0.911255 -100.9 0.411746 -15.04
8.99860000 0.411871 -6.797 0.911217 -100.9 0.911217 -100.9 0.411830 -15.06
8.99870000 0.411954 -6.792 0.911179 -100.9 0.911179 -100.9 0.411913 -15.09
8.99880000 0.412038 -6.787 0.911141 -100.9 0.911141 -100.9 0.411997 -15.11
8.99890000 0.412122 -6.782 0.911103 -101.0 0.911103 -101.0 0.412081 -15.13
8.99900000 0.412207 -6.777 0.911065 -101.0 0.911065 -101.0 0.412165 -15.15
8.99910000 0.412291 -6.772 0.911026 -101.0 0.911026 -101.0 0.412250 -15.18
8.99920000 0.412376 -6.767 0.910988 -101.0 0.910988 -101.0 0.412335 -15.20
8.99930000 0.412461 -6.762 0.910949 -101.0 0.910949 -101.0 0.412419 -15.22
8.99940000 0.412547 -6.757 0.910910 -101.0 0.910910 -101.0 0.412505 -15.25
8.99950000 0.412632 -6.752 0.910872 -101.0 0.910872 -101.0 0.412590 -15.27
8.99960000 0.412718 -6.747 0.910833 -101.0 0.910833 -101.0 0.412676 -15.29
8.99970000 0.412804 -6.742 0.910794 -101.0 0.910794 -101.0 0.412762 -15.31
8.99980000 0.412890 -6.737 0.910755 -101.0 0.910755 -101.0 0.412848 -15.34
8.99990000 0.412977 -6.732 0.910715 -101.0 0.910715 -101.0 0.412934 -15.36
9.00000000 0.413063 -6.727 0.910676 -101.1 0.910676 -101.1 0.413021 -15.38
9.00010000 0.413150 -6.722 0.910636 -101.1 0.910636 -101.1 0.413108 -15.41
9.00020000 0.413238 -6.717 0.910597 -101.1 0.910597 -101.1 0.413195 -15.43
9.00030000 0.413325 -6.712 0.910557 -101.1 0.910557 -101.1 0.413282 -15.45
9.00040000 0.413413 -6.707 0.910517 -101.1 0.910517 -101.1 0.413370 -15.48
9.00050000 0.413501 -6.702 0.910477 -101.1 0.910477 -101.1 0.413457 -15.50
9.00060000 0.413589 -6.697 0.910437 -101.1 0.910437 -101.1 0.413546 -15.52
9.00070000 0.413677 -6.691 0.910397 -101.1 0.910397 -101.1 0.413634 -15.55
9.00080000 0.413766 -6.686 0.910356 -101.1 0.910356 -101.1 0.413722 -15.57
9.00090000 0.413855 -6.681 0.910316 -101.1 0.910316 -101.1 0.413811 -15.60
9.00100000 0.413944 -6.676 0.910275 -101.1 0.910275 -101.1 0.413900 -15.62
9.00110000 0.414034 -6.671 0.910235 -101.2 0.910235 -101.2 0.413990 -15.64
9.00120000 0.414123 -6.666 0.910194 -101.2 0.910194 -101.2 0.414079 -15.67
9.00130000 0.414213 -6.660 0.910153 -101.2 0.910153 -101.2 0.414169 -15.69
9.00140000 0.414303 -6.655 0.910112 -101.2 0.910112 -101.2 0.414259 -15.72
9.00150000 0.414394 -6.650 0.910070 -101.2 0.910070 -101.2 0.414350 -15.74
9.00160000 0.414485 -6.645 0.910029 -101.2 0.910029 -101.2 0.414440 -15.76
9.00170000 0.414576 -6.639 0.909987 -101.2 0.909987 -101.2 0.414531 -15.79
9.00180000 0.414667 -6.634 0.909946 -101.2 0.909946 -101.2 0.414622 -15.81
9.00190000 0.414758 -6.629 0.909904 -101.2 0.909904 -101.2 0.414714 -15.84
9.00200000 0.414850 -6.624 0.909862 -101.2 0.909862 -101.2 0.414805 -15.86
9.00210000 0.414942 -6.618 0.909820 -101.2 0.909820 -101.2 0.414897 -15.89
9.00220000 0.415035 -6.613 0.909778 -101.3 0.909778 -101.3 0.414989 -15.91
9.00230000 0.415127 -6.608 0.909736 -101.3 0.909736 -101.3 0.415082 -15.93
9.00240000 0.415220 -6.602 0.909693 -101.3 0.909693 -101.3 0.415174 -15.96
9.00250000 0.415313 -6.597 0.909651 -101.3 0.909651 -101.3 0.415267 -15.98
9.00260000 0.415406 -6.591 0.909608 -101.3 0.909608 -101.3 0.415361 -16.01
9.00270000 0.415500 -6.586 0.909565 -101.3 0.909565 -101.3 0.415454 -16.03
9.00280000 0.415594 -6.581 0.909522 -101.3 0.909522 -101.3 0.415548 -16.06
9.00290000 0.415688 -6.575 0.909479 -101.3 0.909479 -101.3 0.415642 -16.08
9.00300000 0.415783 -6.570 0.909436 -101.3 0.909436 -101.3 0.415736 -16.11
9.00310000 0.415878 -6.564 0.909392 -101.3 0.909392 -101.3 0.415831 -16.13
9.00320000 0.415973 -6.559 0.909349 -101.4 0.909349 -101.4 0.415926 -16.16
9.00330000 0.416068 -6.553 0.909305 -101.4 0.909305 -101.4 0.416021 -16.18
9.00340000 0.416163 -6.548 0.909261 -101.4 0.909261 -101.4 0.416117 -16.21
9.00350000 0.416259 -6.542 0.909217 -101.4 0.909217 -101.4 0.416212 -16.23
9.00360000 0.416356 -6.537 0.909173 -101.4 0.909173 -101.4 0.416308 -16.26
9.00370000 0.416452 -6.531 0.909129 -101.4 0.909129 -101.4 0.416405 -16.28
9.00380000 0.416549 -6.526 0.909085 -101.4 0.909085 -101.4 0.416501 -16.31
9.00390000 0.416646 -6.520 0.909040 -101.4 0.909040 -101.4 0.416598 -16.34
9.00400000 0.416743 -6.515 0.908995 -101.4 0.908995 -101.4 0.416695 -16.36
9.00410000 0.416841 -6.509 0.908950 -101.4 0.908950 -101.4 0.416793 -16.39
9.00420000 0.416939 -6.503 0.908906 -101.5 0.908906 -101.5 0.416891 -16.41
9.00430000 0.417037 -6.498 0.908860 -101.5 0.908860 -101.5 0.416989 -16.44
9.00440000 0.417135 -6.492 0.908815 -101.5 0.908815 -101.5 0.417087 -16.46
9.00450000 0.417234 -6.487 0.908770 -101.5 0.908770 -101.5 0.417186 -16.49
9.00460000 0.417333 -6.481 0.908724 -101.5 0.908724 -101.5 0.417285 -16.52
9.00470000 0.417432 -6.475 0.908678 -101.5 0.908678 -101.5 0.417384 -16.54
9.00480000 0.417532 -6.470 0.908633 -101.5 0.908633 -101.5 0.417483 -16.57
9.00490000 0.417632 -6.464 0.908587 -101.5 0.908587 -101.5 0.417583 -16.60
9.00500000 0.417732 -6.458 0.908540 -101.5 0.908540 -101.5 0.417683 -16.62
9.00510000 0.417833 -6.452 0.908494 -101.5 0.908494 -101.5 0.417784 -16.65
9.00520000 0.417934 -6.447 0.908448 -101.6 0.908448 -101.6 0.417885 -16.67
9.00530000 0.418035 -6.441 0.908401 -101.6 0.908401 -101.6 0.417986 -16.70
9.00540000 0.418137 -6.435 0.908354 -101.6 0.908354 -101.6 0.418087 -16.73
9.00550000 0.418238 -6.429 0.908307 -101.6 0.908307 -101.6 0.418189 -16.75
9.00560000 0.418340 -6.424 0.908260 -101.6 0.908260 -101.6 0.418291 -16.78
9.00570000 0.418443 -6.418 0.908213 -101.6 0.908213 -101.6 0.418393 -16.81
9.00580000 0.418546 -6.412 0.908165 -101.6 0.908165 -101.6 0.418496 -16.84
9.00590000 0.418649 -6.406 0.908118 -101.6 0.908118 -101.6 0.418599 -16.86
9.00600000 0.418752 -6.400 0.908070 -101.6 0.908070 -101.6 0.418702 -16.89
9.00610000 0.418856 -6.394 0.908022 -101.7 0.908022 -101.7 0.418805 -16.92
9.00620000 0.418960 -6.388 0.907974 -101.7 0.907974 -101.7 0.418909 -16.94
9.00630000 0.419064 -6.383 0.907926 -101.7 0.907926 -101.7 0.419013 -16.97
9.00640000 0.419169 -6.377 0.907877 -101.7 0.907877 -101.7 0.419118 -17.00
9.00650000 0.419274 -6.371 0.907829 -101.7 0.907829 -101.7 0.419223 -17.03
9.00660000 0.419379 -6.365 0.907780 -101.7 0.907780 -101.7 0.419328 -17.05
9.00670000 0.419485 -6.359 0.907731 -101.7 0.907731 -101.7 0.419434 -17.08
9.00680000 0.419591 -6.353 0.907682 -101.7 0.907682 -101.7 0.419539 -17.11
9.00690000 0.419697 -6.347 0.907633 -101.7 0.907633 -101.7 0.419646 -17.14
9.00700000 0.419804 -6.341 0.907583 -101.7 0.907583 -101.7 0.419752 -17.16
9.00710000 0.419911 -6.335 0.907534 -101.8 0.907534 -101.8 0.419859 -17.19
9.00720000 0.420018 -6.329 0.907484 -101.8 0.907484 -101.8 0.419966 -17.22
9.00730000 0.420126 -6.323 0.907434 -101.8 0.907434 -101.8 0.420074 -17.25
9.00740000 0.420234 -6.317 0.907384 -101.8 0.907384 -101.8 0.420181 -17.28
9.00750000 0.420342 -6.310 0.907334 -101.8 0.907334 -101.8 0.420290 -17.30
9.00760000 0.420451 -6.304 0.907283 -101.8 0.907283 -101.8 0.420398 -17.33
9.00770000 0.420560 -6.298 0.907233 -101.8 0.907233 -101.8 0.420507 -17.36
9.00780000 0.420669 -6.292 0.907182 -101.8 0.907182 -101.8 0.420616 -17.39
9.00790000 0.420779 -6.286 0.907131 -101.8 0.907131 -101.8 0.420726 -17.42
9.00800000 0.420889 -6.280 0.907080 -101.9 0.907080 -101.9 0.420836 -17.45
9.00810000 0.421000 -6.274 0.907028 -101.9 0.907028 -101.9 0.420946 -17.47
9.00820000 0.421110 -6.267 0.906977 -101.9 0.906977 -101.9 0.421057 -17.50
9.00830000 0.421222 -6.261 0.906925 -101.9 0.906925 -101.9 0.421168 -17.53
9.00840000 0.421333 -6.255 0.906873 -101.9 0.906873 -101.9 0.421279 -17.56
9.00850000 0.421445 -6.249 0.906821 -101.9 0.906821 -101.9 0.421391 -17.59
9.00860000 0.421557 -6.243 0.906769 -101.9 0.906769 -101.9 0.421503 -17.62
9.00870000 0.421670 -6.236 0.906717 -101.9 0.906717 -101.9 0.421615 -17.65
9.00880000 0.421783 -6.230 0.906664 -101.9 0.906664 -101.9 0.421728 -17.68
9.00890000 0.421896 -6.224 0.906611 -102.0 0.906611 -102.0 0.421841 -17.71
9.00900000 0.422010 -6.217 0.906558 -102.0 0.906558 -102.0 0.421955 -17.73
9.00910000 0.422124 -6.211 0.906505 -102.0 0.906505 -102.0 0.422069 -17.76
9.00920000 0.422238 -6.205 0.906452 -102.0 0.906452 -102.0 0.422183 -17.79
9.00930000 0.422353 -6.198 0.906398 -102.0 0.906398 -102.0 0.422298 -17.82
9.00940000 0.422468 -6.192 0.906344 -102.0 0.906344 -102.0 0.422413 -17.85
9.00950000 0.422584 -6.186 0.906290 -102.0 0.906290 -102.0 0.422528 -17.88
9.00960000 0.422700 -6.179 0.906236 -102.0 0.906236 -102.0 0.422644 -17.91
9.00970000 0.422816 -6.173 0.906182 -102.1 0.906182 -102.1 0.422760 -17.94
9.00980000 0.422933 -6.166 0.906127 -102.1 0.906127 -102.1 0.422877 -17.97
9.00990000 0.423050 -6.160 0.906072 -102.1 0.906072 -102.1 0.422993 -18.00
9.01000000 0.423167 -6.153 0.906017 -102.1 0.906017 -102.1 0.423111 -18.03
9.01010000 0.423285 -6.147 0.905962 -102.1 0.905962 -102.1 0.423228 -18.06
9.01020000 0.423404 -6.140 0.905907 -102.1 0.905907 -102.1 0.423347 -18.09
9.01030000 0.423522 -6.134 0.905851 -102.1 0.905851 -102.1 0.423465 -18.12
9.01040000 0.423641 -6.127 0.905796 -102.1 0.905796 -102.1 0.423584 -18.15
9.01050000 0.423761 -6.121 0.905740 -102.1 0.905740 -102.1 0.423703 -18.18
9.01060000 0.423881 -6.114 0.905683 -102.2 0.905683 -102.2 0.423823 -18.22
9.01070000 0.424001 -6.108 0.905627 -102.2 0.905627 -102.2 0.423943 -18.25
9.01080000 0.424122 -6.101 0.905570 -102.2 0.905570 -102.2 0.424064 -18.28
9.01090000 0.424243 -6.094 0.905514 -102.2 0.905514 -102.2 0.424184 -18.31
9.01100000 0.424364 -6.088 0.905457 -102.2 0.905457 -102.2 0.424306 -18.34
9.01110000 0.424486 -6.081 0.905399 -102.2 0.905399 -102.2 0.424427 -18.37
9.01120000 0.424608 -6.074 0.905342 -102.2 0.905342 -102.2 0.424550 -18.40
9.01130000 0.424731 -6.068 0.905284 -102.2 0.905284 -102.2 0.424672 -18.43
9.01140000 0.424854 -6.061 0.905226 -102.3 0.905226 -102.3 0.424795 -18.46
9.01150000 0.424978 -6.054 0.905168 -102.3 0.905168 -102.3 0.424918 -18.50
9.01160000 0.425102 -6.048 0.905110 -102.3 0.905110 -102.3 0.425042 -18.53
9.01170000 0.425226 -6.041 0.905051 -102.3 0.905051 -102.3 0.425166 -18.56
9.01180000 0.425351 -6.034 0.904993 -102.3 0.904993 -102.3 0.425291 -18.59
9.01190000 0.425476 -6.027 0.904934 -102.3 0.904934 -102.3 0.425416 -18.62
9.01200000 0.425602 -6.020 0.904874 -102.3 0.904874 -102.3 0.425542 -18.65
9.01210000 0.425728 -6.014 0.904815 -102.3 0.904815 -102.3 0.425668 -18.69
9.01220000 0.425855 -6.007 0.904755 -102.4 0.904755 -102.4 0.425794 -18.72
9.01230000 0.425982 -6.000 0.904695 -102.4 0.904695 -102.4 0.425921 -18.75
9.01240000 0.426109 -5.993 0.904635 -102.4 0.904635 -102.4 0.426048 -18.78
9.01250000 0.426237 -5.986 0.904575 -102.4 0.904575 -102.4 0.426176 -18.81
9.01260000 0.426365 -5.979 0.904514 -102.4 0.904514 -102.4 0.426304 -18.85
9.01270000 0.426494 -5.972 0.904453 -102.4 0.904453 -102.4 0.426432 -18.88
9.01280000 0.426623 -5.965 0.904392 -102.4 0.904392 -102.4 0.426561 -18.91
9.01290000 0.426753 -5.958 0.904331 -102.4 0.904331 -102.4 0.426691 -18.95
9.01300000 0.426883 -5.951 0.904270 -102.5 0.904270 -102.5 0.426821 -18.98
9.01310000 0.427014 -5.944 0.904208 -102.5 0.904208 -102.5 0.426951 -19.01
9.01320000 0.427145 -5.937 0.904146 -102.5 0.904146 -102.5 0.427082 -19.04
9.01330000 0.427276 -5.930 0.904084 -102.5 0.904084 -102.5 0.427213 -19.08
9.01340000 0.427408 -5.923 0.904021 -102.5 0.904021 -102.5 0.427345 -19.11
9.01350000 0.427541 -5.916 0.903958 -102.5 0.903958 -102.5 0.427477 -19.14
9.01360000 0.427674 -5.909 0.903895 -102.5 0.903895 -102.5 0.427610 -19.18
9.01370000 0.427807 -5.902 0.903832 -102.6 0.903832 -102.6 0.427743 -19.21
9.01380000 0.427941 -5.895 0.903769 -102.6 0.903769 -102.6 0.427877 -19.24
9.01390000 0.428075 -5.888 0.903705 -102.6 0.903705 -102.6 0.428011 -19.28
9.01400000 0.428210 -5.881 0.903641 -102.6 0.903641 -102.6 0.428146 -19.31
9.01410000 0.428345 -5.874 0.903577 -102.6 0.903577 -102.6 0.428281 -19.35
9.01420000 0.428481 -5.866 0.903512 -102.6 0.903512 -102.6 0.428416 -19.38
9.01430000 0.428617 -5.859 0.903447 -102.6 0.903447 -102.6 0.428552 -19.41
9.01440000 0.428754 -5.852 0.903382 -102.6 0.903382 -102.6 0.428689 -19.45
9.01450000 0.428891 -5.845 0.903317 -102.7 0.903317 -102.7 0.428826 -19.48
9.01460000 0.429029 -5.838 0.903252 -102.7 0.903252 -102.7 0.428964 -19.52
9.01470000 0.429167 -5.830 0.903186 -102.7 0.903186 -102.7 0.429102 -19.55
9.01480000 0.429306 -5.823 0.903120 -102.7 0.903120 -102.7 0.429240 -19.59
9.01490000 0.429445 -5.816 0.903053 -102.7 0.903053 -102.7 0.429379 -19.62
9.01500000 0.429585 -5.808 0.902987 -102.7 0.902987 -102.7 0.429519 -19.66
9.01510000 0.429725 -5.801 0.902920 -102.7 0.902920 -102.7 0.429659 -19.69
9.01520000 0.429866 -5.794 0.902853 -102.8 0.902853 -102.8 0.429799 -19.73
9.01530000 0.430008 -5.786 0.902785 -102.8 0.902785 -102.8 0.429940 -19.76
9.01540000 0.430149 -5.779 0.902718 -102.8 0.902718 -102.8 0.430082 -19.80
9.01550000 0.430292 -5.771 0.902650 -102.8 0.902650 -102.8 0.430224 -19.83
9.01560000 0.430435 -5.764 0.902581 -102.8 0.902581 -102.8 0.430367 -19.87
9.01570000 0.430578 -5.757 0.902513 -102.8 0.902513 -102.8 0.430510 -19.90
9.01580000 0.430722 -5.749 0.902444 -102.8 0.902444 -102.8 0.430654 -19.94
9.01590000 0.430866 -5.742 0.902375 -102.9 0.902375 -102.9 0.430798 -19.98
9.01600000 0.431011 -5.734 0.902306 -102.9 0.902306 -102.9 0.430943 -20.01
9.01610000 0.431157 -5.727 0.902236 -102.9 0.902236 -102.9 0.431088 -20.05
9.01620000 0.431303 -5.719 0.902166 -102.9 0.902166 -102.9 0.431234 -20.08
9.01630000 0.431450 -5.712 0.902096 -102.9 0.902096 -102.9 0.431380 -20.12
9.01640000 0.431597 -5.704 0.902025 -102.9 0.902025 -102.9 0.431527 -20.16
9.01650000 0.431744 -5.696 0.901954 -102.9 0.901954 -102.9 0.431675 -20.19
9.01660000 0.431893 -5.689 0.901883 -103.0 0.901883 -103.0 0.431823 -20.23
9.01670000 0.432042 -5.681 0.901812 -103.0 0.901812 -103.0 0.431971 -20.27
9.01680000 0.432191 -5.673 0.901740 -103.0 0.901740 -103.0 0.432120 -20.30
9.01690000 0.432341 -5.666 0.901668 -103.0 0.901668 -103.0 0.432270 -20.34
9.01700000 0.432491 -5.658 0.901596 -103.0 0.901596 -103.0 0.432420 -20.38
9.01710000 0.432643 -5.650 0.901523 -103.0 0.901523 -103.0 0.432571 -20.42
9.01720000 0.432794 -5.643 0.901450 -103.0 0.901450 -103.0 0.432723 -20.45
9.01730000 0.432947 -5.635 0.901377 -103.1 0.901377 -103.1 0.432875 -20.49
9.01740000 0.433099 -5.627 0.901303 -103.1 0.901303 -103.1 0.433027 -20.53
9.01750000 0.433253 -5.619 0.901229 -103.1 0.901229 -103.1 0.433181 -20.57
9.01760000 0.433407 -5.612 0.901155 -103.1 0.901155 -103.1 0.433334 -20.60
9.01770000 0.433561 -5.604 0.901081 -103.1 0.901081 -103.1 0.433489 -20.64
9.01780000 0.433717 -5.596 0.901006 -103.1 0.901006 -103.1 0.433644 -20.68
9.01790000 0.433872 -5.588 0.900931 -103.1 0.900931 -103.1 0.433799 -20.72
9.01800000 0.434029 -5.580 0.900855 -103.2 0.900855 -103.2 0.433955 -20.76
9.01810000 0.434186 -5.572 0.900779 -103.2 0.900779 -103.2 0.434112 -20.79
9.01820000 0.434343 -5.564 0.900703 -103.2 0.900703 -103.2 0.434269 -20.83
9.01830000 0.434502 -5.556 0.900627 -103.2 0.900627 -103.2 0.434427 -20.87
9.01840000 0.434660 -5.549 0.900550 -103.2 0.900550 -103.2 0.434586 -20.91
9.01850000 0.434820 -5.541 0.900473 -103.2 0.900473 -103.2 0.434745 -20.95
9.01860000 0.434980 -5.533 0.900395 -103.3 0.900395 -103.3 0.434905 -20.99
9.01870000 0.435141 -5.525 0.900318 -103.3 0.900318 -103.3 0.435065 -21.03
9.01880000 0.435302 -5.517 0.900240 -103.3 0.900240 -103.3 0.435226 -21.07
9.01890000 0.435464 -5.508 0.900161 -103.3 0.900161 -103.3 0.435388 -21.11
9.01900000 0.435627 -5.500 0.900082 -103.3 0.900082 -103.3 0.435551 -21.15
9.01910000 0.435790 -5.492 0.900003 -103.3 0.900003 -103.3 0.435714 -21.19
9.01920000 0.435954 -5.484 0.899923 -103.3 0.899923 -103.3 0.435877 -21.23