! Sonnet Data File
! From: emgraph Version : 16.52
! From Project: Resonator2_extremeCap2
! Data is De-embedded 
! Data File Written: 10/11/2017 16:32:17
!< HDATE 10/11/2017 09:31:16
!< MDATE 10/11/2017 09:31:16
!< PARAMS
!< Pwid1 = 2000.0
!< Pwid2 = 2000.0
!< Air_gap = 24.0
!< Width = 40.0
!< Gap = 30.0
!< END PARAMS
# GHZ S MA R 45.40000
8.90000000 0.249773 1.0040 0.968297 -87.73 0.968297 -87.73 0.249766 3.5354
!< P1 F=8.9 Eeff=(5.09096395 -2.214e-5) Z0=(45.4059169 1.00354e-4) R=0.0 C=0.0 
!< P2 F=8.9 Eeff=(5.09096395 -2.214e-5) Z0=(45.4059169 1.00354e-4) R=0.0 C=0.0 
8.90025000 0.249808 1.0080 0.968288 -87.74 0.968288 -87.74 0.249801 3.5200
8.90050000 0.249843 1.0119 0.968279 -87.74 0.968279 -87.74 0.249836 3.5046
8.90075000 0.249878 1.0159 0.968270 -87.75 0.968270 -87.75 0.249871 3.4891
8.90100000 0.249913 1.0199 0.968261 -87.75 0.968261 -87.75 0.249906 3.4735
8.90125000 0.249949 1.0239 0.968252 -87.76 0.968252 -87.76 0.249942 3.4580
8.90150000 0.249984 1.0279 0.968243 -87.76 0.968243 -87.76 0.249977 3.4423
8.90175000 0.250020 1.0320 0.968233 -87.77 0.968233 -87.77 0.250013 3.4267
8.90200000 0.250055 1.0361 0.968224 -87.78 0.968224 -87.78 0.250048 3.4110
8.90225000 0.250091 1.0402 0.968215 -87.78 0.968215 -87.78 0.250084 3.3953
8.90250000 0.250127 1.0443 0.968206 -87.79 0.968206 -87.79 0.250119 3.3795
8.90275000 0.250162 1.0485 0.968196 -87.79 0.968196 -87.79 0.250155 3.3637
8.90300000 0.250198 1.0526 0.968187 -87.80 0.968187 -87.80 0.250191 3.3478
8.90325000 0.250234 1.0568 0.968178 -87.81 0.968178 -87.81 0.250227 3.3320
8.90350000 0.250270 1.0610 0.968169 -87.81 0.968169 -87.81 0.250263 3.3160
8.90375000 0.250306 1.0652 0.968159 -87.82 0.968159 -87.82 0.250299 3.3001
8.90400000 0.250343 1.0695 0.968150 -87.82 0.968150 -87.82 0.250335 3.2841
8.90425000 0.250379 1.0738 0.968140 -87.83 0.968140 -87.83 0.250372 3.2680
8.90450000 0.250415 1.0780 0.968131 -87.83 0.968131 -87.83 0.250408 3.2519
8.90475000 0.250452 1.0824 0.968121 -87.84 0.968121 -87.84 0.250445 3.2358
8.90500000 0.250488 1.0867 0.968112 -87.85 0.968112 -87.85 0.250481 3.2196
8.90525000 0.250525 1.0910 0.968103 -87.85 0.968103 -87.85 0.250518 3.2034
8.90550000 0.250562 1.0954 0.968093 -87.86 0.968093 -87.86 0.250554 3.1872
8.90575000 0.250599 1.0998 0.968083 -87.86 0.968083 -87.86 0.250591 3.1709
8.90600000 0.250636 1.1042 0.968074 -87.87 0.968074 -87.87 0.250628 3.1545
8.90625000 0.250673 1.1087 0.968064 -87.88 0.968064 -87.88 0.250665 3.1381
8.90650000 0.250710 1.1131 0.968055 -87.88 0.968055 -87.88 0.250702 3.1217
8.90675000 0.250747 1.1176 0.968045 -87.89 0.968045 -87.89 0.250739 3.1053
8.90700000 0.250784 1.1221 0.968035 -87.89 0.968035 -87.89 0.250776 3.0888
8.90725000 0.250821 1.1267 0.968026 -87.90 0.968026 -87.90 0.250814 3.0722
8.90750000 0.250859 1.1312 0.968016 -87.91 0.968016 -87.91 0.250851 3.0556
8.90775000 0.250896 1.1358 0.968006 -87.91 0.968006 -87.91 0.250889 3.0390
8.90800000 0.250934 1.1404 0.967997 -87.92 0.967997 -87.92 0.250926 3.0223
8.90825000 0.250972 1.1450 0.967987 -87.92 0.967987 -87.92 0.250964 3.0056
8.90850000 0.251009 1.1497 0.967977 -87.93 0.967977 -87.93 0.251002 2.9888
8.90875000 0.251047 1.1543 0.967967 -87.94 0.967967 -87.94 0.251040 2.9720
8.90900000 0.251085 1.1590 0.967957 -87.94 0.967957 -87.94 0.251077 2.9552
8.90925000 0.251123 1.1637 0.967947 -87.95 0.967947 -87.95 0.251115 2.9383
8.90950000 0.251161 1.1685 0.967937 -87.95 0.967937 -87.95 0.251154 2.9213
8.90975000 0.251200 1.1732 0.967928 -87.96 0.967928 -87.96 0.251192 2.9043
8.91000000 0.251238 1.1780 0.967918 -87.97 0.967918 -87.97 0.251230 2.8873
8.91025000 0.251276 1.1828 0.967908 -87.97 0.967908 -87.97 0.251269 2.8702
8.91050000 0.251315 1.1876 0.967898 -87.98 0.967898 -87.98 0.251307 2.8531
8.91075000 0.251354 1.1925 0.967887 -87.99 0.967887 -87.99 0.251346 2.8359
8.91100000 0.251392 1.1974 0.967877 -87.99 0.967877 -87.99 0.251384 2.8187
8.91125000 0.251431 1.2023 0.967867 -88.00 0.967867 -88.00 0.251423 2.8014
8.91150000 0.251470 1.2072 0.967857 -88.00 0.967857 -88.00 0.251462 2.7841
8.91175000 0.251509 1.2122 0.967847 -88.01 0.967847 -88.01 0.251501 2.7668
8.91200000 0.251548 1.2171 0.967837 -88.02 0.967837 -88.02 0.251540 2.7494
8.91225000 0.251587 1.2221 0.967827 -88.02 0.967827 -88.02 0.251579 2.7319
8.91250000 0.251627 1.2272 0.967816 -88.03 0.967816 -88.03 0.251618 2.7144
8.91275000 0.251666 1.2322 0.967806 -88.04 0.967806 -88.04 0.251658 2.6969
8.91300000 0.251705 1.2373 0.967796 -88.04 0.967796 -88.04 0.251697 2.6793
8.91325000 0.251745 1.2424 0.967786 -88.05 0.967786 -88.05 0.251737 2.6617
8.91350000 0.251785 1.2475 0.967775 -88.05 0.967775 -88.05 0.251776 2.6440
8.91375000 0.251825 1.2527 0.967765 -88.06 0.967765 -88.06 0.251816 2.6263
8.91400000 0.251864 1.2578 0.967755 -88.07 0.967755 -88.07 0.251856 2.6085
8.91425000 0.251904 1.2630 0.967744 -88.07 0.967744 -88.07 0.251896 2.5906
8.91450000 0.251945 1.2683 0.967734 -88.08 0.967734 -88.08 0.251936 2.5728
8.91475000 0.251985 1.2735 0.967723 -88.09 0.967723 -88.09 0.251976 2.5548
8.91500000 0.252025 1.2788 0.967713 -88.09 0.967713 -88.09 0.252017 2.5369
8.91525000 0.252065 1.2841 0.967702 -88.10 0.967702 -88.10 0.252057 2.5188
8.91550000 0.252106 1.2894 0.967692 -88.10 0.967692 -88.10 0.252097 2.5008
8.91575000 0.252147 1.2948 0.967681 -88.11 0.967681 -88.11 0.252138 2.4826
8.91600000 0.252187 1.3001 0.967670 -88.12 0.967670 -88.12 0.252179 2.4644
8.91625000 0.252228 1.3056 0.967660 -88.12 0.967660 -88.12 0.252220 2.4462
8.91650000 0.252269 1.3110 0.967649 -88.13 0.967649 -88.13 0.252260 2.4279
8.91675000 0.252310 1.3165 0.967638 -88.14 0.967638 -88.14 0.252302 2.4096
8.91700000 0.252351 1.3219 0.967627 -88.14 0.967627 -88.14 0.252343 2.3912
8.91725000 0.252393 1.3275 0.967617 -88.15 0.967617 -88.15 0.252384 2.3728
8.91750000 0.252434 1.3330 0.967606 -88.16 0.967606 -88.16 0.252425 2.3543
8.91775000 0.252475 1.3386 0.967595 -88.16 0.967595 -88.16 0.252467 2.3358
8.91800000 0.252517 1.3442 0.967584 -88.17 0.967584 -88.17 0.252508 2.3172
8.91825000 0.252559 1.3498 0.967573 -88.18 0.967573 -88.18 0.252550 2.2985
8.91850000 0.252601 1.3554 0.967562 -88.18 0.967562 -88.18 0.252592 2.2798
8.91875000 0.252642 1.3611 0.967551 -88.19 0.967551 -88.19 0.252634 2.2611
8.91900000 0.252685 1.3668 0.967540 -88.20 0.967540 -88.20 0.252676 2.2423
8.91925000 0.252727 1.3725 0.967529 -88.20 0.967529 -88.20 0.252718 2.2234
8.91950000 0.252769 1.3783 0.967518 -88.21 0.967518 -88.21 0.252760 2.2045
8.91975000 0.252811 1.3841 0.967507 -88.21 0.967507 -88.21 0.252802 2.1855
8.92000000 0.252854 1.3899 0.967496 -88.22 0.967496 -88.22 0.252845 2.1665
8.92025000 0.252896 1.3957 0.967485 -88.23 0.967485 -88.23 0.252887 2.1475
8.92050000 0.252939 1.4016 0.967474 -88.23 0.967474 -88.23 0.252930 2.1283
8.92075000 0.252982 1.4075 0.967463 -88.24 0.967463 -88.24 0.252973 2.1091
8.92100000 0.253025 1.4135 0.967451 -88.25 0.967451 -88.25 0.253016 2.0899
8.92125000 0.253068 1.4194 0.967440 -88.25 0.967440 -88.25 0.253059 2.0706
8.92150000 0.253111 1.4254 0.967429 -88.26 0.967429 -88.26 0.253102 2.0512
8.92175000 0.253155 1.4314 0.967417 -88.27 0.967417 -88.27 0.253145 2.0318
8.92200000 0.253198 1.4375 0.967406 -88.27 0.967406 -88.27 0.253189 2.0124
8.92225000 0.253242 1.4435 0.967395 -88.28 0.967395 -88.28 0.253232 1.9928
8.92250000 0.253285 1.4497 0.967383 -88.29 0.967383 -88.29 0.253276 1.9733
8.92275000 0.253329 1.4558 0.967372 -88.29 0.967372 -88.29 0.253320 1.9536
8.92300000 0.253373 1.4620 0.967360 -88.30 0.967360 -88.30 0.253364 1.9339
8.92325000 0.253417 1.4682 0.967348 -88.31 0.967348 -88.31 0.253408 1.9142
8.92350000 0.253462 1.4744 0.967337 -88.32 0.967337 -88.32 0.253452 1.8944
8.92375000 0.253506 1.4806 0.967325 -88.32 0.967325 -88.32 0.253496 1.8745
8.92400000 0.253550 1.4869 0.967314 -88.33 0.967314 -88.33 0.253541 1.8546
8.92425000 0.253595 1.4932 0.967302 -88.34 0.967302 -88.34 0.253585 1.8346
8.92450000 0.253640 1.4996 0.967290 -88.34 0.967290 -88.34 0.253630 1.8145
8.92475000 0.253684 1.5060 0.967278 -88.35 0.967278 -88.35 0.253675 1.7944
8.92500000 0.253729 1.5124 0.967267 -88.36 0.967267 -88.36 0.253720 1.7742
8.92525000 0.253775 1.5188 0.967255 -88.36 0.967255 -88.36 0.253765 1.7540
8.92550000 0.253820 1.5253 0.967243 -88.37 0.967243 -88.37 0.253810 1.7337
8.92575000 0.253865 1.5318 0.967231 -88.38 0.967231 -88.38 0.253855 1.7134
8.92600000 0.253911 1.5383 0.967219 -88.38 0.967219 -88.38 0.253901 1.6930
8.92625000 0.253956 1.5449 0.967207 -88.39 0.967207 -88.39 0.253946 1.6725
8.92650000 0.254002 1.5515 0.967195 -88.40 0.967195 -88.40 0.253992 1.6519
8.92675000 0.254048 1.5581 0.967183 -88.40 0.967183 -88.40 0.254038 1.6313
8.92700000 0.254094 1.5648 0.967171 -88.41 0.967171 -88.41 0.254084 1.6107
8.92725000 0.254140 1.5715 0.967159 -88.42 0.967159 -88.42 0.254130 1.5899
8.92750000 0.254187 1.5782 0.967146 -88.43 0.967146 -88.43 0.254176 1.5692
8.92775000 0.254233 1.5850 0.967134 -88.43 0.967134 -88.43 0.254223 1.5483
8.92800000 0.254280 1.5918 0.967122 -88.44 0.967122 -88.44 0.254269 1.5274
8.92825000 0.254326 1.5986 0.967110 -88.45 0.967110 -88.45 0.254316 1.5064
8.92850000 0.254373 1.6055 0.967097 -88.45 0.967097 -88.45 0.254363 1.4854
8.92875000 0.254420 1.6124 0.967085 -88.46 0.967085 -88.46 0.254410 1.4642
8.92900000 0.254467 1.6193 0.967072 -88.47 0.967072 -88.47 0.254457 1.4431
8.92925000 0.254515 1.6263 0.967060 -88.48 0.967060 -88.48 0.254504 1.4218
8.92950000 0.254562 1.6333 0.967047 -88.48 0.967047 -88.48 0.254552 1.4005
8.92975000 0.254610 1.6403 0.967035 -88.49 0.967035 -88.49 0.254599 1.3791
8.93000000 0.254658 1.6473 0.967022 -88.50 0.967022 -88.50 0.254647 1.3577
8.93025000 0.254705 1.6544 0.967010 -88.50 0.967010 -88.50 0.254695 1.3362
8.93050000 0.254754 1.6616 0.966997 -88.51 0.966997 -88.51 0.254743 1.3146
8.93075000 0.254802 1.6688 0.966984 -88.52 0.966984 -88.52 0.254791 1.2929
8.93100000 0.254850 1.6760 0.966971 -88.53 0.966971 -88.53 0.254839 1.2712
8.93125000 0.254899 1.6832 0.966959 -88.53 0.966959 -88.53 0.254888 1.2494
8.93150000 0.254947 1.6905 0.966946 -88.54 0.966946 -88.54 0.254936 1.2276
8.93175000 0.254996 1.6978 0.966933 -88.55 0.966933 -88.55 0.254985 1.2057
8.93200000 0.255045 1.7051 0.966920 -88.56 0.966920 -88.56 0.255034 1.1837
8.93225000 0.255094 1.7125 0.966907 -88.56 0.966907 -88.56 0.255083 1.1616
8.93250000 0.255143 1.7199 0.966894 -88.57 0.966894 -88.57 0.255132 1.1395
8.93275000 0.255193 1.7274 0.966881 -88.58 0.966881 -88.58 0.255182 1.1173
8.93300000 0.255242 1.7349 0.966868 -88.58 0.966868 -88.58 0.255231 1.0950
8.93325000 0.255292 1.7424 0.966855 -88.59 0.966855 -88.59 0.255281 1.0726
8.93350000 0.255342 1.7500 0.966841 -88.60 0.966841 -88.60 0.255331 1.0502
8.93375000 0.255392 1.7576 0.966828 -88.61 0.966828 -88.61 0.255381 1.0277
8.93400000 0.255442 1.7652 0.966815 -88.61 0.966815 -88.61 0.255431 1.0052
8.93425000 0.255493 1.7729 0.966802 -88.62 0.966802 -88.62 0.255481 0.9825
8.93450000 0.255543 1.7806 0.966788 -88.63 0.966788 -88.63 0.255532 0.9598
!< P1 F=8.9345 Eeff=(5.09159523 -2.215e-5) Z0=(45.4018778 1.00397e-4) R=0.0 C=0.0 
!< P2 F=8.9345 Eeff=(5.09159523 -2.215e-5) Z0=(45.4018778 1.00397e-4) R=0.0 C=0.0 
8.93475000 0.255594 1.7883 0.966775 -88.64 0.966775 -88.64 0.255583 0.9370
8.93500000 0.255645 1.7961 0.966761 -88.64 0.966761 -88.64 0.255634 0.9142
8.93525000 0.255696 1.8039 0.966748 -88.65 0.966748 -88.65 0.255685 0.8912
8.93550000 0.255747 1.8118 0.966734 -88.66 0.966734 -88.66 0.255736 0.8682
8.93575000 0.255799 1.8197 0.966721 -88.67 0.966721 -88.67 0.255787 0.8451
8.93600000 0.255850 1.8277 0.966707 -88.67 0.966707 -88.67 0.255839 0.8220
8.93625000 0.255902 1.8356 0.966693 -88.68 0.966693 -88.68 0.255890 0.7987
8.93650000 0.255954 1.8437 0.966679 -88.69 0.966679 -88.69 0.255942 0.7754
8.93675000 0.256006 1.8517 0.966666 -88.70 0.966666 -88.70 0.255994 0.7520
8.93700000 0.256058 1.8598 0.966652 -88.71 0.966652 -88.71 0.256046 0.7285
8.93725000 0.256111 1.8680 0.966638 -88.71 0.966638 -88.71 0.256099 0.7050
8.93750000 0.256163 1.8761 0.966624 -88.72 0.966624 -88.72 0.256151 0.6813
8.93775000 0.256216 1.8844 0.966610 -88.73 0.966610 -88.73 0.256204 0.6576
8.93800000 0.256269 1.8926 0.966596 -88.74 0.966596 -88.74 0.256257 0.6338
8.93825000 0.256322 1.9009 0.966582 -88.74 0.966582 -88.74 0.256310 0.6100
8.93850000 0.256376 1.9093 0.966567 -88.75 0.966567 -88.75 0.256363 0.5860
8.93875000 0.256429 1.9176 0.966553 -88.76 0.966553 -88.76 0.256417 0.5620
8.93900000 0.256483 1.9261 0.966539 -88.77 0.966539 -88.77 0.256471 0.5379
8.93925000 0.256537 1.9345 0.966525 -88.78 0.966525 -88.78 0.256524 0.5137
8.93950000 0.256591 1.9430 0.966510 -88.78 0.966510 -88.78 0.256579 0.4894
8.93975000 0.256645 1.9516 0.966496 -88.79 0.966496 -88.79 0.256633 0.4650
8.94000000 0.256700 1.9602 0.966481 -88.80 0.966481 -88.80 0.256687 0.4406
8.94025000 0.256754 1.9688 0.966467 -88.81 0.966467 -88.81 0.256742 0.4161
8.94050000 0.256809 1.9775 0.966452 -88.81 0.966452 -88.81 0.256797 0.3914
8.94075000 0.256864 1.9862 0.966438 -88.82 0.966438 -88.82 0.256852 0.3667
8.94100000 0.256919 1.9950 0.966423 -88.83 0.966423 -88.83 0.256907 0.3420
8.94125000 0.256975 2.0038 0.966408 -88.84 0.966408 -88.84 0.256962 0.3171
8.94150000 0.257030 2.0126 0.966393 -88.85 0.966393 -88.85 0.257018 0.2921
8.94175000 0.257086 2.0215 0.966378 -88.86 0.966378 -88.86 0.257073 0.2671
8.94200000 0.257142 2.0304 0.966363 -88.86 0.966363 -88.86 0.257129 0.2420
8.94225000 0.257198 2.0394 0.966348 -88.87 0.966348 -88.87 0.257186 0.2167
8.94250000 0.257255 2.0484 0.966333 -88.88 0.966333 -88.88 0.257242 0.1914
8.94275000 0.257312 2.0575 0.966318 -88.89 0.966318 -88.89 0.257299 0.1660
8.94300000 0.257368 2.0666 0.966303 -88.90 0.966303 -88.90 0.257355 0.1406
8.94325000 0.257425 2.0758 0.966288 -88.90 0.966288 -88.90 0.257412 0.1150
8.94350000 0.257483 2.0850 0.966273 -88.91 0.966273 -88.91 0.257470 0.0893
8.94375000 0.257540 2.0942 0.966257 -88.92 0.966257 -88.92 0.257527 0.0636
8.94400000 0.257598 2.1035 0.966242 -88.93 0.966242 -88.93 0.257585 0.0377
8.94425000 0.257656 2.1129 0.966226 -88.94 0.966226 -88.94 0.257642 0.0118
8.94450000 0.257714 2.1223 0.966211 -88.95 0.966211 -88.95 0.257701 -0.014
8.94475000 0.257772 2.1317 0.966195 -88.95 0.966195 -88.95 0.257759 -0.040
8.94500000 0.257831 2.1412 0.966180 -88.96 0.966180 -88.96 0.257817 -0.067
8.94525000 0.257889 2.1507 0.966164 -88.97 0.966164 -88.97 0.257876 -0.093
8.94550000 0.257948 2.1603 0.966148 -88.98 0.966148 -88.98 0.257935 -0.119
8.94575000 0.258008 2.1699 0.966132 -88.99 0.966132 -88.99 0.257994 -0.146
8.94600000 0.258067 2.1796 0.966116 -89.00 0.966116 -89.00 0.258053 -0.172
8.94625000 0.258127 2.1893 0.966100 -89.00 0.966100 -89.00 0.258113 -0.199
8.94650000 0.258187 2.1991 0.966084 -89.01 0.966084 -89.01 0.258173 -0.226
8.94675000 0.258247 2.2089 0.966068 -89.02 0.966068 -89.02 0.258233 -0.253
8.94700000 0.258307 2.2188 0.966052 -89.03 0.966052 -89.03 0.258293 -0.280
8.94725000 0.258368 2.2287 0.966036 -89.04 0.966036 -89.04 0.258354 -0.307
8.94750000 0.258428 2.2387 0.966020 -89.05 0.966020 -89.05 0.258414 -0.334
8.94775000 0.258490 2.2487 0.966003 -89.06 0.966003 -89.06 0.258475 -0.361
8.94800000 0.258551 2.2588 0.965987 -89.06 0.965987 -89.06 0.258537 -0.389
8.94825000 0.258612 2.2689 0.965970 -89.07 0.965970 -89.07 0.258598 -0.416
8.94850000 0.258674 2.2791 0.965954 -89.08 0.965954 -89.08 0.258660 -0.444
8.94875000 0.258736 2.2893 0.965937 -89.09 0.965937 -89.09 0.258722 -0.472
8.94900000 0.258798 2.2995 0.965920 -89.10 0.965920 -89.10 0.258784 -0.499
8.94925000 0.258861 2.3099 0.965904 -89.11 0.965904 -89.11 0.258846 -0.527
8.94950000 0.258924 2.3202 0.965887 -89.12 0.965887 -89.12 0.258909 -0.555
8.94975000 0.258987 2.3307 0.965870 -89.13 0.965870 -89.13 0.258972 -0.583
8.95000000 0.259050 2.3412 0.965853 -89.13 0.965853 -89.13 0.259035 -0.612
8.95025000 0.259113 2.3517 0.965836 -89.14 0.965836 -89.14 0.259099 -0.640
8.95050000 0.259177 2.3623 0.965819 -89.15 0.965819 -89.15 0.259162 -0.668
8.95075000 0.259241 2.3729 0.965801 -89.16 0.965801 -89.16 0.259226 -0.697
8.95100000 0.259305 2.3836 0.965784 -89.17 0.965784 -89.17 0.259290 -0.726
8.95125000 0.259370 2.3944 0.965767 -89.18 0.965767 -89.18 0.259355 -0.754
8.95150000 0.259435 2.4052 0.965749 -89.19 0.965749 -89.19 0.259419 -0.783
8.95175000 0.259500 2.4160 0.965732 -89.20 0.965732 -89.20 0.259484 -0.812
8.95200000 0.259565 2.4269 0.965714 -89.21 0.965714 -89.21 0.259550 -0.841
8.95225000 0.259631 2.4379 0.965697 -89.22 0.965697 -89.22 0.259615 -0.870
8.95250000 0.259696 2.4489 0.965679 -89.22 0.965679 -89.22 0.259681 -0.900
8.95275000 0.259762 2.4600 0.965661 -89.23 0.965661 -89.23 0.259747 -0.929
8.95300000 0.259829 2.4711 0.965643 -89.24 0.965643 -89.24 0.259813 -0.959
8.95325000 0.259896 2.4823 0.965625 -89.25 0.965625 -89.25 0.259880 -0.988
8.95350000 0.259963 2.4936 0.965607 -89.26 0.965607 -89.26 0.259947 -1.018
8.95375000 0.260030 2.5049 0.965589 -89.27 0.965589 -89.27 0.260014 -1.048
8.95400000 0.260097 2.5163 0.965571 -89.28 0.965571 -89.28 0.260081 -1.078
8.95425000 0.260165 2.5277 0.965553 -89.29 0.965553 -89.29 0.260149 -1.108
8.95450000 0.260233 2.5392 0.965534 -89.30 0.965534 -89.30 0.260217 -1.138
8.95475000 0.260302 2.5507 0.965516 -89.31 0.965516 -89.31 0.260286 -1.169
8.95500000 0.260370 2.5623 0.965497 -89.32 0.965497 -89.32 0.260354 -1.199
8.95525000 0.260439 2.5740 0.965478 -89.33 0.965478 -89.33 0.260423 -1.230
8.95550000 0.260508 2.5857 0.965460 -89.34 0.965460 -89.34 0.260492 -1.261
8.95575000 0.260578 2.5975 0.965441 -89.35 0.965441 -89.35 0.260562 -1.291
8.95600000 0.260648 2.6093 0.965422 -89.36 0.965422 -89.36 0.260631 -1.322
8.95625000 0.260718 2.6212 0.965403 -89.37 0.965403 -89.37 0.260702 -1.353
8.95650000 0.260788 2.6332 0.965384 -89.37 0.965384 -89.37 0.260772 -1.385
8.95675000 0.260859 2.6452 0.965365 -89.38 0.965365 -89.38 0.260843 -1.416
8.95700000 0.260930 2.6573 0.965346 -89.39 0.965346 -89.39 0.260914 -1.447
8.95725000 0.261002 2.6694 0.965326 -89.40 0.965326 -89.40 0.260985 -1.479
8.95750000 0.261073 2.6816 0.965307 -89.41 0.965307 -89.41 0.261057 -1.511
8.95775000 0.261145 2.6939 0.965287 -89.42 0.965287 -89.42 0.261128 -1.543
8.95800000 0.261218 2.7062 0.965268 -89.43 0.965268 -89.43 0.261201 -1.575
8.95825000 0.261290 2.7186 0.965248 -89.44 0.965248 -89.44 0.261273 -1.607
8.95850000 0.261363 2.7311 0.965228 -89.45 0.965228 -89.45 0.261346 -1.639
8.95875000 0.261437 2.7436 0.965208 -89.46 0.965208 -89.46 0.261419 -1.671
8.95900000 0.261510 2.7562 0.965188 -89.47 0.965188 -89.47 0.261493 -1.704
8.95925000 0.261584 2.7689 0.965168 -89.48 0.965168 -89.48 0.261567 -1.737
8.95950000 0.261659 2.7816 0.965148 -89.49 0.965148 -89.49 0.261641 -1.769
8.95975000 0.261733 2.7944 0.965128 -89.50 0.965128 -89.50 0.261716 -1.802
8.96000000 0.261808 2.8072 0.965107 -89.51 0.965107 -89.51 0.261791 -1.835
8.96025000 0.261884 2.8202 0.965087 -89.52 0.965087 -89.52 0.261866 -1.868
8.96050000 0.261959 2.8332 0.965066 -89.53 0.965066 -89.53 0.261942 -1.902
8.96075000 0.262035 2.8462 0.965046 -89.54 0.965046 -89.54 0.262017 -1.935
8.96100000 0.262112 2.8593 0.965025 -89.55 0.965025 -89.55 0.262094 -1.969
8.96125000 0.262189 2.8725 0.965004 -89.56 0.965004 -89.56 0.262170 -2.003
8.96150000 0.262266 2.8858 0.964983 -89.57 0.964983 -89.57 0.262247 -2.036
8.96175000 0.262343 2.8991 0.964962 -89.58 0.964962 -89.58 0.262325 -2.071
8.96200000 0.262421 2.9125 0.964941 -89.60 0.964941 -89.60 0.262403 -2.105
8.96225000 0.262499 2.9260 0.964919 -89.61 0.964919 -89.61 0.262481 -2.139
8.96250000 0.262578 2.9396 0.964898 -89.62 0.964898 -89.62 0.262559 -2.174
8.96275000 0.262657 2.9532 0.964876 -89.63 0.964876 -89.63 0.262638 -2.208
8.96300000 0.262736 2.9669 0.964855 -89.64 0.964855 -89.64 0.262717 -2.243
8.96325000 0.262816 2.9806 0.964833 -89.65 0.964833 -89.65 0.262797 -2.278
8.96350000 0.262896 2.9945 0.964811 -89.66 0.964811 -89.66 0.262877 -2.313
8.96375000 0.262976 3.0084 0.964789 -89.67 0.964789 -89.67 0.262957 -2.348
8.96400000 0.263057 3.0224 0.964767 -89.68 0.964767 -89.68 0.263038 -2.383
8.96425000 0.263138 3.0364 0.964745 -89.69 0.964745 -89.69 0.263119 -2.419
8.96450000 0.263220 3.0506 0.964723 -89.70 0.964723 -89.70 0.263200 -2.455
8.96475000 0.263302 3.0648 0.964700 -89.71 0.964700 -89.71 0.263282 -2.491
8.96500000 0.263384 3.0790 0.964678 -89.72 0.964678 -89.72 0.263365 -2.527
8.96525000 0.263467 3.0934 0.964655 -89.73 0.964655 -89.73 0.263447 -2.563
8.96550000 0.263550 3.1078 0.964632 -89.74 0.964632 -89.74 0.263531 -2.599
8.96575000 0.263634 3.1223 0.964609 -89.76 0.964609 -89.76 0.263614 -2.635
8.96600000 0.263718 3.1369 0.964586 -89.77 0.964586 -89.77 0.263698 -2.672
8.96625000 0.263803 3.1516 0.964563 -89.78 0.964563 -89.78 0.263783 -2.709
8.96650000 0.263887 3.1663 0.964540 -89.79 0.964540 -89.79 0.263867 -2.746
8.96675000 0.263973 3.1812 0.964516 -89.80 0.964516 -89.80 0.263953 -2.783
8.96700000 0.264059 3.1961 0.964493 -89.81 0.964493 -89.81 0.264038 -2.820
8.96725000 0.264145 3.2110 0.964469 -89.82 0.964469 -89.82 0.264124 -2.858
8.96750000 0.264231 3.2261 0.964445 -89.83 0.964445 -89.83 0.264211 -2.895
8.96775000 0.264318 3.2412 0.964421 -89.84 0.964421 -89.84 0.264298 -2.933
8.96800000 0.264406 3.2565 0.964397 -89.86 0.964397 -89.86 0.264385 -2.971
8.96825000 0.264494 3.2718 0.964373 -89.87 0.964373 -89.87 0.264473 -3.009
8.96850000 0.264582 3.2872 0.964349 -89.88 0.964349 -89.88 0.264561 -3.048
8.96875000 0.264671 3.3026 0.964325 -89.89 0.964325 -89.89 0.264650 -3.086
8.96900000 0.264761 3.3182 0.964300 -89.90 0.964300 -89.90 0.264739 -3.125
8.96925000 0.264850 3.3338 0.964275 -89.91 0.964275 -89.91 0.264829 -3.164
8.96950000 0.264941 3.3496 0.964250 -89.93 0.964250 -89.93 0.264919 -3.203
8.96975000 0.265031 3.3654 0.964225 -89.94 0.964225 -89.94 0.265010 -3.242
8.97000000 0.265123 3.3813 0.964200 -89.95 0.964200 -89.95 0.265101 -3.281
8.97025000 0.265214 3.3972 0.964175 -89.96 0.964175 -89.96 0.265193 -3.321
8.97050000 0.265307 3.4133 0.964150 -89.97 0.964150 -89.97 0.265285 -3.360
8.97075000 0.265399 3.4295 0.964124 -89.98 0.964124 -89.98 0.265377 -3.400
8.97100000 0.265492 3.4457 0.964098 -90.00 0.964098 -90.00 0.265470 -3.441
8.97125000 0.265586 3.4620 0.964072 -90.01 0.964072 -90.01 0.265564 -3.481
8.97150000 0.265680 3.4785 0.964046 -90.02 0.964046 -90.02 0.265658 -3.521
8.97175000 0.265775 3.4950 0.964020 -90.03 0.964020 -90.03 0.265753 -3.562
8.97200000 0.265870 3.5116 0.963994 -90.04 0.963994 -90.04 0.265848 -3.603
8.97225000 0.265966 3.5283 0.963967 -90.06 0.963967 -90.06 0.265943 -3.644
8.97250000 0.266062 3.5451 0.963941 -90.07 0.963941 -90.07 0.266039 -3.685
8.97275000 0.266159 3.5619 0.963914 -90.08 0.963914 -90.08 0.266136 -3.727
8.97300000 0.266256 3.5789 0.963887 -90.09 0.963887 -90.09 0.266233 -3.768
8.97325000 0.266354 3.5960 0.963860 -90.11 0.963860 -90.11 0.266331 -3.810
8.97350000 0.266452 3.6131 0.963833 -90.12 0.963833 -90.12 0.266429 -3.852
8.97375000 0.266551 3.6304 0.963805 -90.13 0.963805 -90.13 0.266528 -3.895
8.97400000 0.266651 3.6477 0.963778 -90.14 0.963778 -90.14 0.266627 -3.937
8.97425000 0.266751 3.6652 0.963750 -90.16 0.963750 -90.16 0.266727 -3.980
8.97450000 0.266852 3.6827 0.963722 -90.17 0.963722 -90.17 0.266828 -4.023
8.97475000 0.266953 3.7004 0.963694 -90.18 0.963694 -90.18 0.266929 -4.066
8.97500000 0.267054 3.7181 0.963666 -90.19 0.963666 -90.19 0.267030 -4.109
8.97525000 0.267157 3.7360 0.963637 -90.21 0.963637 -90.21 0.267133 -4.153
8.97550000 0.267260 3.7539 0.963609 -90.22 0.963609 -90.22 0.267235 -4.196
8.97575000 0.267363 3.7719 0.963580 -90.23 0.963580 -90.23 0.267339 -4.240
8.97600000 0.267467 3.7901 0.963551 -90.25 0.963551 -90.25 0.267443 -4.284
8.97625000 0.267572 3.8083 0.963522 -90.26 0.963522 -90.26 0.267547 -4.329
8.97650000 0.267677 3.8266 0.963493 -90.27 0.963493 -90.27 0.267652 -4.373
8.97675000 0.267783 3.8451 0.963463 -90.28 0.963463 -90.28 0.267758 -4.418
8.97700000 0.267890 3.8636 0.963433 -90.30 0.963433 -90.30 0.267865 -4.463
8.97725000 0.267997 3.8823 0.963403 -90.31 0.963403 -90.31 0.267972 -4.509
8.97750000 0.268105 3.9011 0.963373 -90.32 0.963373 -90.32 0.268079 -4.554
8.97775000 0.268213 3.9199 0.963343 -90.34 0.963343 -90.34 0.268187 -4.600
8.97800000 0.268322 3.9389 0.963313 -90.35 0.963313 -90.35 0.268296 -4.646
8.97825000 0.268432 3.9580 0.963282 -90.37 0.963282 -90.37 0.268406 -4.692
8.97850000 0.268542 3.9772 0.963251 -90.38 0.963251 -90.38 0.268516 -4.738
8.97875000 0.268653 3.9965 0.963220 -90.39 0.963220 -90.39 0.268627 -4.785
8.97900000 0.268765 4.0159 0.963189 -90.41 0.963189 -90.41 0.268739 -4.832
8.97925000 0.268877 4.0354 0.963157 -90.42 0.963157 -90.42 0.268851 -4.879
8.97950000 0.268990 4.0550 0.963126 -90.43 0.963126 -90.43 0.268964 -4.926
8.97975000 0.269104 4.0747 0.963094 -90.45 0.963094 -90.45 0.269077 -4.974
8.98000000 0.269219 4.0946 0.963062 -90.46 0.963062 -90.46 0.269192 -5.022
8.98025000 0.269334 4.1146 0.963030 -90.48 0.963030 -90.48 0.269307 -5.070
8.98050000 0.269450 4.1346 0.962997 -90.49 0.962997 -90.49 0.269422 -5.119
8.98075000 0.269566 4.1548 0.962964 -90.50 0.962964 -90.50 0.269539 -5.167
8.98100000 0.269684 4.1751 0.962932 -90.52 0.962932 -90.52 0.269656 -5.216
8.98125000 0.269802 4.1956 0.962898 -90.53 0.962898 -90.53 0.269774 -5.265
8.98150000 0.269920 4.2161 0.962865 -90.55 0.962865 -90.55 0.269892 -5.315
8.98175000 0.270040 4.2368 0.962831 -90.56 0.962831 -90.56 0.270012 -5.364
8.98200000 0.270160 4.2576 0.962798 -90.58 0.962798 -90.58 0.270132 -5.414
8.98225000 0.270281 4.2785 0.962764 -90.59 0.962764 -90.59 0.270253 -5.464
8.98250000 0.270403 4.2995 0.962729 -90.61 0.962729 -90.61 0.270374 -5.515
8.98275000 0.270526 4.3206 0.962695 -90.62 0.962695 -90.62 0.270497 -5.566
8.98300000 0.270649 4.3419 0.962660 -90.64 0.962660 -90.64 0.270620 -5.617
8.98325000 0.270773 4.3633 0.962625 -90.65 0.962625 -90.65 0.270744 -5.668
8.98350000 0.270898 4.3848 0.962590 -90.67 0.962590 -90.67 0.270869 -5.720
8.98375000 0.271024 4.4065 0.962554 -90.68 0.962554 -90.68 0.270994 -5.771
8.98400000 0.271150 4.4282 0.962518 -90.70 0.962518 -90.70 0.271121 -5.824
8.98425000 0.271278 4.4501 0.962482 -90.71 0.962482 -90.71 0.271248 -5.876
8.98450000 0.271406 4.4721 0.962446 -90.73 0.962446 -90.73 0.271376 -5.929
8.98475000 0.271535 4.4943 0.962410 -90.74 0.962410 -90.74 0.271505 -5.982
8.98500000 0.271665 4.5166 0.962373 -90.76 0.962373 -90.76 0.271635 -6.035
8.98525000 0.271796 4.5390 0.962336 -90.77 0.962336 -90.77 0.271765 -6.088
8.98550000 0.271928 4.5615 0.962299 -90.79 0.962299 -90.79 0.271897 -6.142
8.98575000 0.272060 4.5842 0.962261 -90.80 0.962261 -90.80 0.272029 -6.197
8.98600000 0.272194 4.6070 0.962223 -90.82 0.962223 -90.82 0.272163 -6.251
8.98625000 0.272328 4.6300 0.962185 -90.84 0.962185 -90.84 0.272297 -6.306
8.98650000 0.272463 4.6531 0.962147 -90.85 0.962147 -90.85 0.272432 -6.361
8.98675000 0.272600 4.6763 0.962108 -90.87 0.962108 -90.87 0.272568 -6.416
8.98700000 0.272737 4.6997 0.962069 -90.88 0.962069 -90.88 0.272705 -6.472
8.98725000 0.272875 4.7232 0.962030 -90.90 0.962030 -90.90 0.272843 -6.528
8.98750000 0.273014 4.7468 0.961990 -90.92 0.961990 -90.92 0.272982 -6.584
8.98775000 0.273154 4.7706 0.961950 -90.93 0.961950 -90.93 0.273121 -6.641
8.98800000 0.273295 4.7945 0.961910 -90.95 0.961910 -90.95 0.273262 -6.698
8.98825000 0.273437 4.8186 0.961870 -90.97 0.961870 -90.97 0.273404 -6.755
8.98850000 0.273580 4.8428 0.961829 -90.98 0.961829 -90.98 0.273547 -6.813
8.98875000 0.273724 4.8672 0.961788 -91.00 0.961788 -91.00 0.273690 -6.871
8.98900000 0.273869 4.8917 0.961746 -91.02 0.961746 -91.02 0.273835 -6.929
8.98925000 0.274015 4.9163 0.961705 -91.03 0.961705 -91.03 0.273981 -6.988
8.98950000 0.274162 4.9411 0.961663 -91.05 0.961663 -91.05 0.274128 -7.047
8.98975000 0.274310 4.9661 0.961620 -91.07 0.961620 -91.07 0.274276 -7.106
8.99000000 0.274459 4.9912 0.961578 -91.08 0.961578 -91.08 0.274425 -7.166
8.99025000 0.274609 5.0164 0.961535 -91.10 0.961535 -91.10 0.274575 -7.226
8.99050000 0.274761 5.0418 0.961491 -91.12 0.961491 -91.12 0.274726 -7.286
8.99075000 0.274913 5.0674 0.961448 -91.14 0.961448 -91.14 0.274878 -7.347
8.99100000 0.275067 5.0931 0.961404 -91.16 0.961404 -91.16 0.275031 -7.408
8.99125000 0.275221 5.1190 0.961359 -91.17 0.961359 -91.17 0.275186 -7.470
8.99150000 0.275377 5.1450 0.961314 -91.19 0.961314 -91.19 0.275341 -7.531
8.99175000 0.275534 5.1712 0.961269 -91.21 0.961269 -91.21 0.275498 -7.594
8.99200000 0.275692 5.1976 0.961224 -91.23 0.961224 -91.23 0.275656 -7.656
8.99225000 0.275852 5.2241 0.961178 -91.25 0.961178 -91.25 0.275815 -7.719
8.99250000 0.276012 5.2508 0.961132 -91.26 0.961132 -91.26 0.275975 -7.783
8.99275000 0.276174 5.2776 0.961085 -91.28 0.961085 -91.28 0.276137 -7.846
8.99300000 0.276337 5.3046 0.961038 -91.30 0.961038 -91.30 0.276300 -7.910
8.99325000 0.276501 5.3318 0.960991 -91.32 0.960991 -91.32 0.276463 -7.975
8.99350000 0.276666 5.3591 0.960943 -91.34 0.960943 -91.34 0.276629 -8.040
8.99375000 0.276833 5.3866 0.960895 -91.36 0.960895 -91.36 0.276795 -8.105
8.99400000 0.277001 5.4143 0.960846 -91.38 0.960846 -91.38 0.276963 -8.171
8.99425000 0.277170 5.4422 0.960798 -91.39 0.960798 -91.39 0.277132 -8.237
8.99450000 0.277341 5.4702 0.960748 -91.41 0.960748 -91.41 0.277302 -8.304
8.99475000 0.277513 5.4984 0.960698 -91.43 0.960698 -91.43 0.277474 -8.370
8.99500000 0.277686 5.5268 0.960648 -91.45 0.960648 -91.45 0.277647 -8.438
8.99525000 0.277861 5.5554 0.960597 -91.47 0.960597 -91.47 0.277821 -8.506
8.99550000 0.278037 5.5841 0.960546 -91.49 0.960546 -91.49 0.277997 -8.574
8.99575000 0.278214 5.6130 0.960495 -91.51 0.960495 -91.51 0.278174 -8.643
8.99600000 0.278393 5.6421 0.960443 -91.53 0.960443 -91.53 0.278353 -8.712
8.99625000 0.278573 5.6714 0.960391 -91.55 0.960391 -91.55 0.278533 -8.781
8.99650000 0.278755 5.7009 0.960338 -91.57 0.960338 -91.57 0.278714 -8.851
8.99675000 0.278938 5.7305 0.960284 -91.59 0.960284 -91.59 0.278897 -8.922
8.99700000 0.279123 5.7603 0.960230 -91.61 0.960230 -91.61 0.279081 -8.992
8.99725000 0.279309 5.7904 0.960176 -91.63 0.960176 -91.63 0.279267 -9.064
8.99750000 0.279497 5.8206 0.960121 -91.65 0.960121 -91.65 0.279455 -9.136