! Sonnet Data File
! From: emgraph Version : 16.52
! From Project: Resonator2_extremeCap2
! Data is De-embedded 
! Data File Written: 10/11/2017 20:35:05
!< HDATE 10/11/2017 16:33:44
!< MDATE 10/11/2017 16:33:44
!< PARAMS
!< Pwid1 = 2000.0
!< Pwid2 = 2000.0
!< Air_gap = 30.0
!< Width = 50.0
!< Gap = 36.0
!< END PARAMS
# GHZ S MA R 47.40000
8.90000000 0.232037 2.3232 0.972700 -86.14 0.972700 -86.14 0.232031 5.3925
!< P1 F=8.9 Eeff=(5.03074334 -2.1789e-5) Z0=(47.3979938 1.04427e-4) R=0.0 C=0.0 
!< P2 F=8.9 Eeff=(5.03074334 -2.1789e-5) Z0=(47.3979938 1.04427e-4) R=0.0 C=0.0 
8.90025000 0.232070 2.3269 0.972692 -86.15 0.972692 -86.15 0.232064 5.3781
8.90050000 0.232102 2.3306 0.972685 -86.15 0.972685 -86.15 0.232096 5.3638
8.90075000 0.232135 2.3343 0.972677 -86.16 0.972677 -86.16 0.232129 5.3494
8.90100000 0.232168 2.3380 0.972669 -86.16 0.972669 -86.16 0.232162 5.3349
8.90125000 0.232201 2.3418 0.972661 -86.17 0.972661 -86.17 0.232195 5.3204
8.90150000 0.232234 2.3456 0.972653 -86.17 0.972653 -86.17 0.232228 5.3059
8.90175000 0.232267 2.3493 0.972645 -86.18 0.972645 -86.18 0.232261 5.2914
8.90200000 0.232300 2.3531 0.972637 -86.18 0.972637 -86.18 0.232294 5.2768
8.90225000 0.232333 2.3570 0.972629 -86.19 0.972629 -86.19 0.232327 5.2622
8.90250000 0.232366 2.3608 0.972622 -86.20 0.972622 -86.20 0.232360 5.2475
8.90275000 0.232399 2.3647 0.972614 -86.20 0.972614 -86.20 0.232393 5.2329
8.90300000 0.232433 2.3686 0.972606 -86.21 0.972606 -86.21 0.232427 5.2181
8.90325000 0.232466 2.3725 0.972598 -86.21 0.972598 -86.21 0.232460 5.2034
8.90350000 0.232500 2.3764 0.972590 -86.22 0.972590 -86.22 0.232493 5.1886
8.90375000 0.232533 2.3803 0.972582 -86.22 0.972582 -86.22 0.232527 5.1738
8.90400000 0.232567 2.3843 0.972573 -86.23 0.972573 -86.23 0.232561 5.1589
8.90425000 0.232601 2.3883 0.972565 -86.23 0.972565 -86.23 0.232594 5.1440
8.90450000 0.232634 2.3923 0.972557 -86.24 0.972557 -86.24 0.232628 5.1291
8.90475000 0.232668 2.3963 0.972549 -86.24 0.972549 -86.24 0.232662 5.1141
8.90500000 0.232702 2.4003 0.972541 -86.25 0.972541 -86.25 0.232696 5.0991
8.90525000 0.232736 2.4044 0.972533 -86.26 0.972533 -86.26 0.232730 5.0841
8.90550000 0.232770 2.4085 0.972525 -86.26 0.972525 -86.26 0.232764 5.0690
8.90575000 0.232804 2.4126 0.972517 -86.27 0.972517 -86.27 0.232798 5.0539
8.90600000 0.232839 2.4167 0.972508 -86.27 0.972508 -86.27 0.232832 5.0387
8.90625000 0.232873 2.4208 0.972500 -86.28 0.972500 -86.28 0.232867 5.0235
8.90650000 0.232907 2.4250 0.972492 -86.28 0.972492 -86.28 0.232901 5.0083
8.90675000 0.232942 2.4292 0.972484 -86.29 0.972484 -86.29 0.232936 4.9930
8.90700000 0.232977 2.4334 0.972475 -86.29 0.972475 -86.29 0.232970 4.9777
8.90725000 0.233011 2.4376 0.972467 -86.30 0.972467 -86.30 0.233005 4.9624
8.90750000 0.233046 2.4418 0.972459 -86.31 0.972459 -86.31 0.233040 4.9470
8.90775000 0.233081 2.4461 0.972450 -86.31 0.972450 -86.31 0.233074 4.9316
8.90800000 0.233116 2.4504 0.972442 -86.32 0.972442 -86.32 0.233109 4.9161
8.90825000 0.233151 2.4547 0.972434 -86.32 0.972434 -86.32 0.233144 4.9006
8.90850000 0.233186 2.4590 0.972425 -86.33 0.972425 -86.33 0.233179 4.8851
8.90875000 0.233221 2.4633 0.972417 -86.33 0.972417 -86.33 0.233214 4.8695
8.90900000 0.233256 2.4677 0.972408 -86.34 0.972408 -86.34 0.233249 4.8539
8.90925000 0.233291 2.4721 0.972400 -86.34 0.972400 -86.34 0.233285 4.8383
8.90950000 0.233327 2.4765 0.972391 -86.35 0.972391 -86.35 0.233320 4.8226
8.90975000 0.233362 2.4809 0.972383 -86.36 0.972383 -86.36 0.233355 4.8068
8.91000000 0.233398 2.4854 0.972374 -86.36 0.972374 -86.36 0.233391 4.7911
8.91025000 0.233433 2.4899 0.972366 -86.37 0.972366 -86.37 0.233426 4.7753
8.91050000 0.233469 2.4944 0.972357 -86.37 0.972357 -86.37 0.233462 4.7594
8.91075000 0.233505 2.4989 0.972348 -86.38 0.972348 -86.38 0.233498 4.7435
8.91100000 0.233540 2.5034 0.972340 -86.38 0.972340 -86.38 0.233534 4.7276
8.91125000 0.233576 2.5080 0.972331 -86.39 0.972331 -86.39 0.233570 4.7116
8.91150000 0.233612 2.5126 0.972323 -86.40 0.972323 -86.40 0.233606 4.6956
8.91175000 0.233649 2.5172 0.972314 -86.40 0.972314 -86.40 0.233642 4.6795
8.91200000 0.233685 2.5218 0.972305 -86.41 0.972305 -86.41 0.233678 4.6635
8.91225000 0.233721 2.5265 0.972296 -86.41 0.972296 -86.41 0.233714 4.6473
8.91250000 0.233757 2.5311 0.972288 -86.42 0.972288 -86.42 0.233751 4.6311
8.91275000 0.233794 2.5358 0.972279 -86.42 0.972279 -86.42 0.233787 4.6149
8.91300000 0.233830 2.5406 0.972270 -86.43 0.972270 -86.43 0.233824 4.5987
8.91325000 0.233867 2.5453 0.972261 -86.44 0.972261 -86.44 0.233860 4.5823
8.91350000 0.233904 2.5501 0.972252 -86.44 0.972252 -86.44 0.233897 4.5660
8.91375000 0.233941 2.5549 0.972244 -86.45 0.972244 -86.45 0.233934 4.5496
8.91400000 0.233978 2.5597 0.972235 -86.45 0.972235 -86.45 0.233971 4.5332
8.91425000 0.234015 2.5645 0.972226 -86.46 0.972226 -86.46 0.234008 4.5167
8.91450000 0.234052 2.5694 0.972217 -86.46 0.972217 -86.46 0.234045 4.5002
8.91475000 0.234089 2.5743 0.972208 -86.47 0.972208 -86.47 0.234082 4.4836
8.91500000 0.234126 2.5792 0.972199 -86.48 0.972199 -86.48 0.234119 4.4670
8.91525000 0.234163 2.5841 0.972190 -86.48 0.972190 -86.48 0.234156 4.4504
8.91550000 0.234201 2.5891 0.972181 -86.49 0.972181 -86.49 0.234194 4.4337
8.91575000 0.234238 2.5940 0.972172 -86.49 0.972172 -86.49 0.234231 4.4169
8.91600000 0.234276 2.5990 0.972163 -86.50 0.972163 -86.50 0.234269 4.4001
8.91625000 0.234314 2.6041 0.972154 -86.51 0.972154 -86.51 0.234307 4.3833
8.91650000 0.234352 2.6091 0.972144 -86.51 0.972144 -86.51 0.234344 4.3664
8.91675000 0.234390 2.6142 0.972135 -86.52 0.972135 -86.52 0.234382 4.3495
8.91700000 0.234428 2.6193 0.972126 -86.52 0.972126 -86.52 0.234420 4.3326
8.91725000 0.234466 2.6244 0.972117 -86.53 0.972117 -86.53 0.234458 4.3156
8.91750000 0.234504 2.6296 0.972108 -86.54 0.972108 -86.54 0.234497 4.2985
8.91775000 0.234542 2.6347 0.972098 -86.54 0.972098 -86.54 0.234535 4.2814
8.91800000 0.234581 2.6399 0.972089 -86.55 0.972089 -86.55 0.234573 4.2643
8.91825000 0.234619 2.6452 0.972080 -86.55 0.972080 -86.55 0.234612 4.2471
8.91850000 0.234658 2.6504 0.972070 -86.56 0.972070 -86.56 0.234650 4.2298
8.91875000 0.234696 2.6557 0.972061 -86.57 0.972061 -86.57 0.234689 4.2125
8.91900000 0.234735 2.6610 0.972052 -86.57 0.972052 -86.57 0.234728 4.1952
8.91925000 0.234774 2.6663 0.972042 -86.58 0.972042 -86.58 0.234767 4.1778
8.91950000 0.234813 2.6716 0.972033 -86.58 0.972033 -86.58 0.234806 4.1604
8.91975000 0.234852 2.6770 0.972023 -86.59 0.972023 -86.59 0.234845 4.1429
8.92000000 0.234891 2.6824 0.972014 -86.60 0.972014 -86.60 0.234884 4.1254
8.92025000 0.234931 2.6879 0.972004 -86.60 0.972004 -86.60 0.234923 4.1078
8.92050000 0.234970 2.6933 0.971995 -86.61 0.971995 -86.61 0.234963 4.0902
8.92075000 0.235010 2.6988 0.971985 -86.61 0.971985 -86.61 0.235002 4.0725
8.92100000 0.235049 2.7043 0.971976 -86.62 0.971976 -86.62 0.235042 4.0548
8.92125000 0.235089 2.7098 0.971966 -86.63 0.971966 -86.63 0.235081 4.0371
8.92150000 0.235129 2.7154 0.971956 -86.63 0.971956 -86.63 0.235121 4.0192
8.92175000 0.235169 2.7210 0.971947 -86.64 0.971947 -86.64 0.235161 4.0014
8.92200000 0.235209 2.7266 0.971937 -86.64 0.971937 -86.64 0.235201 3.9835
8.92225000 0.235249 2.7322 0.971927 -86.65 0.971927 -86.65 0.235241 3.9655
8.92250000 0.235289 2.7379 0.971918 -86.66 0.971918 -86.66 0.235281 3.9475
8.92275000 0.235330 2.7436 0.971908 -86.66 0.971908 -86.66 0.235322 3.9294
8.92300000 0.235370 2.7493 0.971898 -86.67 0.971898 -86.67 0.235362 3.9113
8.92325000 0.235411 2.7550 0.971888 -86.68 0.971888 -86.68 0.235403 3.8931
8.92350000 0.235451 2.7608 0.971878 -86.68 0.971878 -86.68 0.235443 3.8749
8.92375000 0.235492 2.7666 0.971868 -86.69 0.971868 -86.69 0.235484 3.8566
8.92400000 0.235533 2.7725 0.971858 -86.69 0.971858 -86.69 0.235525 3.8383
8.92425000 0.235574 2.7783 0.971848 -86.70 0.971848 -86.70 0.235566 3.8199
8.92450000 0.235615 2.7842 0.971839 -86.71 0.971839 -86.71 0.235607 3.8015
8.92475000 0.235657 2.7901 0.971828 -86.71 0.971828 -86.71 0.235648 3.7830
8.92500000 0.235698 2.7961 0.971818 -86.72 0.971818 -86.72 0.235690 3.7645
8.92525000 0.235739 2.8020 0.971808 -86.73 0.971808 -86.73 0.235731 3.7459
8.92550000 0.235781 2.8080 0.971798 -86.73 0.971798 -86.73 0.235773 3.7273
8.92575000 0.235823 2.8141 0.971788 -86.74 0.971788 -86.74 0.235815 3.7086
8.92600000 0.235865 2.8201 0.971778 -86.74 0.971778 -86.74 0.235856 3.6898
8.92625000 0.235906 2.8262 0.971768 -86.75 0.971768 -86.75 0.235898 3.6710
8.92650000 0.235949 2.8323 0.971758 -86.76 0.971758 -86.76 0.235940 3.6522
8.92675000 0.235991 2.8385 0.971747 -86.76 0.971747 -86.76 0.235982 3.6333
8.92700000 0.236033 2.8446 0.971737 -86.77 0.971737 -86.77 0.236025 3.6143
8.92725000 0.236075 2.8508 0.971727 -86.78 0.971727 -86.78 0.236067 3.5953
8.92750000 0.236118 2.8571 0.971716 -86.78 0.971716 -86.78 0.236110 3.5762
8.92775000 0.236161 2.8633 0.971706 -86.79 0.971706 -86.79 0.236152 3.5571
8.92800000 0.236203 2.8696 0.971696 -86.80 0.971696 -86.80 0.236195 3.5379
8.92825000 0.236246 2.8760 0.971685 -86.80 0.971685 -86.80 0.236238 3.5186
8.92850000 0.236289 2.8823 0.971675 -86.81 0.971675 -86.81 0.236281 3.4993
8.92875000 0.236333 2.8887 0.971664 -86.82 0.971664 -86.82 0.236324 3.4800
8.92900000 0.236376 2.8951 0.971654 -86.82 0.971654 -86.82 0.236367 3.4605
8.92925000 0.236419 2.9016 0.971643 -86.83 0.971643 -86.83 0.236411 3.4411
8.92950000 0.236463 2.9080 0.971632 -86.83 0.971632 -86.83 0.236454 3.4215
8.92975000 0.236506 2.9145 0.971622 -86.84 0.971622 -86.84 0.236498 3.4020
8.93000000 0.236550 2.9211 0.971611 -86.85 0.971611 -86.85 0.236541 3.3823
8.93025000 0.236594 2.9277 0.971600 -86.85 0.971600 -86.85 0.236585 3.3626
8.93050000 0.236638 2.9343 0.971590 -86.86 0.971590 -86.86 0.236629 3.3428
8.93075000 0.236682 2.9409 0.971579 -86.87 0.971579 -86.87 0.236674 3.3230
8.93100000 0.236727 2.9476 0.971568 -86.87 0.971568 -86.87 0.236718 3.3031
8.93125000 0.236771 2.9543 0.971557 -86.88 0.971557 -86.88 0.236762 3.2832
8.93150000 0.236816 2.9610 0.971546 -86.89 0.971546 -86.89 0.236807 3.2632
8.93175000 0.236860 2.9677 0.971535 -86.89 0.971535 -86.89 0.236851 3.2431
8.93200000 0.236905 2.9745 0.971524 -86.90 0.971524 -86.90 0.236896 3.2230
8.93225000 0.236950 2.9814 0.971513 -86.91 0.971513 -86.91 0.236941 3.2028
8.93250000 0.236995 2.9882 0.971502 -86.91 0.971502 -86.91 0.236986 3.1825
8.93275000 0.237040 2.9951 0.971491 -86.92 0.971491 -86.92 0.237031 3.1622
8.93300000 0.237086 3.0020 0.971480 -86.93 0.971480 -86.93 0.237077 3.1419
8.93325000 0.237131 3.0090 0.971469 -86.93 0.971469 -86.93 0.237122 3.1214
8.93350000 0.237177 3.0160 0.971458 -86.94 0.971458 -86.94 0.237168 3.1009
8.93375000 0.237223 3.0230 0.971447 -86.95 0.971447 -86.95 0.237214 3.0804
8.93400000 0.237269 3.0301 0.971436 -86.95 0.971436 -86.95 0.237260 3.0597
8.93425000 0.237315 3.0372 0.971424 -86.96 0.971424 -86.96 0.237306 3.0390
8.93450000 0.237361 3.0443 0.971413 -86.97 0.971413 -86.97 0.237352 3.0183
8.93475000 0.237407 3.0514 0.971402 -86.97 0.971402 -86.97 0.237398 2.9975
8.93500000 0.237454 3.0586 0.971390 -86.98 0.971390 -86.98 0.237445 2.9766
8.93525000 0.237501 3.0659 0.971379 -86.99 0.971379 -86.99 0.237491 2.9556
8.93550000 0.237547 3.0731 0.971367 -87.00 0.971367 -87.00 0.237538 2.9346
8.93575000 0.237594 3.0804 0.971356 -87.00 0.971356 -87.00 0.237585 2.9136
8.93600000 0.237641 3.0878 0.971344 -87.01 0.971344 -87.01 0.237632 2.8924
8.93625000 0.237689 3.0951 0.971333 -87.02 0.971333 -87.02 0.237679 2.8712
8.93650000 0.237736 3.1025 0.971321 -87.02 0.971321 -87.02 0.237726 2.8499
8.93675000 0.237784 3.1100 0.971309 -87.03 0.971309 -87.03 0.237774 2.8286
8.93700000 0.237831 3.1175 0.971298 -87.04 0.971298 -87.04 0.237822 2.8072
8.93725000 0.237879 3.1250 0.971286 -87.04 0.971286 -87.04 0.237869 2.7857
8.93750000 0.237927 3.1325 0.971274 -87.05 0.971274 -87.05 0.237917 2.7641
8.93775000 0.237975 3.1401 0.971262 -87.06 0.971262 -87.06 0.237966 2.7425
8.93800000 0.238024 3.1477 0.971251 -87.07 0.971251 -87.07 0.238014 2.7208
8.93825000 0.238072 3.1554 0.971239 -87.07 0.971239 -87.07 0.238062 2.6991
8.93850000 0.238121 3.1631 0.971227 -87.08 0.971227 -87.08 0.238111 2.6772
8.93875000 0.238169 3.1708 0.971215 -87.09 0.971215 -87.09 0.238160 2.6553
8.93900000 0.238218 3.1786 0.971203 -87.09 0.971203 -87.09 0.238208 2.6334
8.93925000 0.238268 3.1864 0.971191 -87.10 0.971191 -87.10 0.238257 2.6113
8.93950000 0.238317 3.1942 0.971179 -87.11 0.971179 -87.11 0.238307 2.5892
8.93975000 0.238366 3.2021 0.971166 -87.11 0.971166 -87.11 0.238356 2.5670
8.94000000 0.238416 3.2100 0.971154 -87.12 0.971154 -87.12 0.238406 2.5448
8.94025000 0.238466 3.2180 0.971142 -87.13 0.971142 -87.13 0.238455 2.5224
8.94050000 0.238515 3.2260 0.971130 -87.14 0.971130 -87.14 0.238505 2.5000
8.94075000 0.238566 3.2340 0.971117 -87.14 0.971117 -87.14 0.238555 2.4776
8.94100000 0.238616 3.2421 0.971105 -87.15 0.971105 -87.15 0.238605 2.4550
8.94125000 0.238666 3.2502 0.971093 -87.16 0.971093 -87.16 0.238656 2.4324
8.94150000 0.238717 3.2584 0.971080 -87.17 0.971080 -87.17 0.238706 2.4097
8.94175000 0.238768 3.2665 0.971068 -87.17 0.971068 -87.17 0.238757 2.3869
8.94200000 0.238818 3.2748 0.971055 -87.18 0.971055 -87.18 0.238808 2.3641
8.94225000 0.238870 3.2830 0.971043 -87.19 0.971043 -87.19 0.238859 2.3412
8.94250000 0.238921 3.2914 0.971030 -87.19 0.971030 -87.19 0.238910 2.3182
8.94275000 0.238972 3.2997 0.971017 -87.20 0.971017 -87.20 0.238962 2.2951
8.94300000 0.239024 3.3081 0.971004 -87.21 0.971004 -87.21 0.239013 2.2719
8.94325000 0.239076 3.3165 0.970992 -87.22 0.970992 -87.22 0.239065 2.2487
8.94350000 0.239128 3.3250 0.970979 -87.22 0.970979 -87.22 0.239117 2.2254
8.94375000 0.239180 3.3335 0.970966 -87.23 0.970966 -87.23 0.239169 2.2020
8.94400000 0.239232 3.3421 0.970953 -87.24 0.970953 -87.24 0.239221 2.1785
8.94425000 0.239285 3.3507 0.970940 -87.25 0.970940 -87.25 0.239274 2.1550
8.94450000 0.239337 3.3593 0.970927 -87.25 0.970927 -87.25 0.239326 2.1314
8.94475000 0.239390 3.3680 0.970914 -87.26 0.970914 -87.26 0.239379 2.1077
8.94500000 0.239443 3.3767 0.970901 -87.27 0.970901 -87.27 0.239432 2.0839
8.94525000 0.239497 3.3855 0.970888 -87.28 0.970888 -87.28 0.239486 2.0600
8.94550000 0.239550 3.3943 0.970875 -87.28 0.970875 -87.28 0.239539 2.0360
8.94575000 0.239604 3.4031 0.970861 -87.29 0.970861 -87.29 0.239593 2.0120
8.94600000 0.239658 3.4120 0.970848 -87.30 0.970848 -87.30 0.239646 1.9879
8.94625000 0.239712 3.4210 0.970835 -87.31 0.970835 -87.31 0.239700 1.9637
8.94650000 0.239766 3.4300 0.970821 -87.31 0.970821 -87.31 0.239755 1.9394
8.94675000 0.239820 3.4390 0.970808 -87.32 0.970808 -87.32 0.239809 1.9151
8.94700000 0.239875 3.4480 0.970794 -87.33 0.970794 -87.33 0.239863 1.8906
8.94725000 0.239930 3.4572 0.970781 -87.34 0.970781 -87.34 0.239918 1.8661
8.94750000 0.239985 3.4663 0.970767 -87.35 0.970767 -87.35 0.239973 1.8414
8.94775000 0.240040 3.4755 0.970753 -87.35 0.970753 -87.35 0.240028 1.8167
8.94800000 0.240095 3.4848 0.970740 -87.36 0.970740 -87.36 0.240084 1.7919
8.94825000 0.240151 3.4941 0.970726 -87.37 0.970726 -87.37 0.240139 1.7671
8.94850000 0.240207 3.5034 0.970712 -87.38 0.970712 -87.38 0.240195 1.7421
8.94875000 0.240263 3.5128 0.970698 -87.38 0.970698 -87.38 0.240251 1.7170
8.94900000 0.240319 3.5222 0.970684 -87.39 0.970684 -87.39 0.240307 1.6919
8.94925000 0.240375 3.5317 0.970670 -87.40 0.970670 -87.40 0.240363 1.6667
8.94950000 0.240432 3.5412 0.970656 -87.41 0.970656 -87.41 0.240420 1.6413
8.94975000 0.240489 3.5508 0.970642 -87.42 0.970642 -87.42 0.240477 1.6159
8.95000000 0.240546 3.5604 0.970628 -87.42 0.970628 -87.42 0.240534 1.5904
8.95025000 0.240603 3.5701 0.970614 -87.43 0.970614 -87.43 0.240591 1.5648
8.95050000 0.240661 3.5798 0.970599 -87.44 0.970599 -87.44 0.240649 1.5392
8.95075000 0.240718 3.5895 0.970585 -87.45 0.970585 -87.45 0.240706 1.5134
8.95100000 0.240776 3.5993 0.970571 -87.46 0.970571 -87.46 0.240764 1.4875
8.95125000 0.240834 3.6092 0.970556 -87.46 0.970556 -87.46 0.240822 1.4615
8.95150000 0.240893 3.6191 0.970542 -87.47 0.970542 -87.47 0.240881 1.4355
8.95175000 0.240951 3.6291 0.970527 -87.48 0.970527 -87.48 0.240939 1.4093
8.95200000 0.241010 3.6391 0.970512 -87.49 0.970512 -87.49 0.240998 1.3831
8.95225000 0.241069 3.6491 0.970498 -87.50 0.970498 -87.50 0.241057 1.3567
8.95250000 0.241129 3.6592 0.970483 -87.50 0.970483 -87.50 0.241116 1.3303
8.95275000 0.241188 3.6694 0.970468 -87.51 0.970468 -87.51 0.241175 1.3038
8.95300000 0.241248 3.6796 0.970453 -87.52 0.970453 -87.52 0.241235 1.2771
8.95325000 0.241308 3.6898 0.970438 -87.53 0.970438 -87.53 0.241295 1.2504
8.95350000 0.241368 3.7001 0.970423 -87.54 0.970423 -87.54 0.241355 1.2236
8.95375000 0.241428 3.7105 0.970408 -87.55 0.970408 -87.55 0.241416 1.1966
8.95400000 0.241489 3.7209 0.970393 -87.55 0.970393 -87.55 0.241476 1.1696
8.95425000 0.241550 3.7313 0.970378 -87.56 0.970378 -87.56 0.241537 1.1425
8.95450000 0.241611 3.7419 0.970363 -87.57 0.970363 -87.57 0.241598 1.1152
8.95475000 0.241673 3.7524 0.970347 -87.58 0.970347 -87.58 0.241660 1.0879
8.95500000 0.241734 3.7630 0.970332 -87.59 0.970332 -87.59 0.241721 1.0605
8.95525000 0.241796 3.7737 0.970317 -87.60 0.970317 -87.60 0.241783 1.0329
8.95550000 0.241858 3.7844 0.970301 -87.60 0.970301 -87.60 0.241845 1.0053
8.95575000 0.241921 3.7952 0.970285 -87.61 0.970285 -87.61 0.241907 0.9775
8.95600000 0.241983 3.8060 0.970270 -87.62 0.970270 -87.62 0.241970 0.9497
8.95625000 0.242046 3.8169 0.970254 -87.63 0.970254 -87.63 0.242033 0.9217
8.95650000 0.242109 3.8278 0.970238 -87.64 0.970238 -87.64 0.242096 0.8937
8.95675000 0.242173 3.8388 0.970222 -87.65 0.970222 -87.65 0.242159 0.8655
8.95700000 0.242236 3.8499 0.970207 -87.66 0.970207 -87.66 0.242223 0.8372
8.95725000 0.242300 3.8610 0.970191 -87.66 0.970191 -87.66 0.242287 0.8088
8.95750000 0.242365 3.8721 0.970174 -87.67 0.970174 -87.67 0.242351 0.7804
8.95775000 0.242429 3.8833 0.970158 -87.68 0.970158 -87.68 0.242415 0.7518
8.95800000 0.242494 3.8946 0.970142 -87.69 0.970142 -87.69 0.242480 0.7230
8.95825000 0.242559 3.9059 0.970126 -87.70 0.970126 -87.70 0.242545 0.6942
8.95850000 0.242624 3.9173 0.970109 -87.71 0.970109 -87.71 0.242610 0.6653
8.95875000 0.242690 3.9288 0.970093 -87.72 0.970093 -87.72 0.242676 0.6362
8.95900000 0.242755 3.9403 0.970077 -87.73 0.970077 -87.73 0.242741 0.6071
8.95925000 0.242822 3.9518 0.970060 -87.73 0.970060 -87.73 0.242807 0.5778
8.95950000 0.242888 3.9634 0.970043 -87.74 0.970043 -87.74 0.242874 0.5484
8.95975000 0.242955 3.9751 0.970027 -87.75 0.970027 -87.75 0.242940 0.5189
8.96000000 0.243021 3.9868 0.970010 -87.76 0.970010 -87.76 0.243007 0.4893
8.96025000 0.243089 3.9986 0.969993 -87.77 0.969993 -87.77 0.243074 0.4596
8.96050000 0.243156 4.0105 0.969976 -87.78 0.969976 -87.78 0.243142 0.4297
8.96075000 0.243224 4.0224 0.969959 -87.79 0.969959 -87.79 0.243209 0.3997
8.96100000 0.243292 4.0344 0.969942 -87.80 0.969942 -87.80 0.243278 0.3696
8.96125000 0.243361 4.0464 0.969925 -87.81 0.969925 -87.81 0.243346 0.3394
8.96150000 0.243429 4.0585 0.969907 -87.82 0.969907 -87.82 0.243414 0.3091
8.96175000 0.243498 4.0706 0.969890 -87.82 0.969890 -87.82 0.243483 0.2786
8.96200000 0.243568 4.0829 0.969873 -87.83 0.969873 -87.83 0.243553 0.2481
8.96225000 0.243637 4.0951 0.969855 -87.84 0.969855 -87.84 0.243622 0.2174
8.96250000 0.243707 4.1075 0.969837 -87.85 0.969837 -87.85 0.243692 0.1866
8.96275000 0.243777 4.1199 0.969820 -87.86 0.969820 -87.86 0.243762 0.1556
8.96300000 0.243848 4.1324 0.969802 -87.87 0.969802 -87.87 0.243833 0.1245
8.96325000 0.243919 4.1449 0.969784 -87.88 0.969784 -87.88 0.243903 0.0933
8.96350000 0.243990 4.1575 0.969766 -87.89 0.969766 -87.89 0.243974 0.0620
8.96375000 0.244061 4.1701 0.969748 -87.90 0.969748 -87.90 0.244046 0.0306
8.96400000 0.244133 4.1829 0.969730 -87.91 0.969730 -87.91 0.244118 0.0000
8.96425000 0.244205 4.1957 0.969712 -87.92 0.969712 -87.92 0.244190 -0.033
8.96450000 0.244278 4.2085 0.969694 -87.93 0.969694 -87.93 0.244262 -0.065
8.96475000 0.244350 4.2214 0.969675 -87.94 0.969675 -87.94 0.244335 -0.097
8.96500000 0.244424 4.2344 0.969657 -87.95 0.969657 -87.95 0.244408 -0.129
8.96525000 0.244497 4.2475 0.969638 -87.96 0.969638 -87.96 0.244481 -0.161
8.96550000 0.244571 4.2606 0.969620 -87.97 0.969620 -87.97 0.244555 -0.193
8.96575000 0.244645 4.2738 0.969601 -87.97 0.969601 -87.97 0.244629 -0.226
8.96600000 0.244719 4.2871 0.969582 -87.98 0.969582 -87.98 0.244703 -0.258
8.96625000 0.244794 4.3004 0.969563 -87.99 0.969563 -87.99 0.244778 -0.291
8.96650000 0.244869 4.3138 0.969544 -88.00 0.969544 -88.00 0.244853 -0.324
8.96675000 0.244945 4.3272 0.969525 -88.01 0.969525 -88.01 0.244928 -0.357
8.96700000 0.245021 4.3408 0.969506 -88.02 0.969506 -88.02 0.245004 -0.390
8.96725000 0.245097 4.3544 0.969486 -88.03 0.969486 -88.03 0.245080 -0.424
8.96750000 0.245173 4.3681 0.969467 -88.04 0.969467 -88.04 0.245157 -0.457
8.96775000 0.245250 4.3818 0.969448 -88.05 0.969448 -88.05 0.245234 -0.491
8.96800000 0.245328 4.3956 0.969428 -88.06 0.969428 -88.06 0.245311 -0.524
8.96825000 0.245405 4.4095 0.969408 -88.07 0.969408 -88.07 0.245388 -0.558
8.96850000 0.245483 4.4235 0.969388 -88.08 0.969388 -88.08 0.245466 -0.592
8.96875000 0.245562 4.4375 0.969368 -88.09 0.969368 -88.09 0.245545 -0.627
8.96900000 0.245641 4.4516 0.969348 -88.10 0.969348 -88.10 0.245623 -0.661
8.96925000 0.245720 4.4658 0.969328 -88.11 0.969328 -88.11 0.245703 -0.695
8.96950000 0.245799 4.4801 0.969308 -88.12 0.969308 -88.12 0.245782 -0.730
8.96975000 0.245879 4.4944 0.969288 -88.13 0.969288 -88.13 0.245862 -0.765
8.97000000 0.245960 4.5088 0.969267 -88.14 0.969267 -88.14 0.245942 -0.800
8.97025000 0.246040 4.5233 0.969247 -88.15 0.969247 -88.15 0.246023 -0.835
8.97050000 0.246121 4.5379 0.969226 -88.16 0.969226 -88.16 0.246104 -0.870
8.97075000 0.246203 4.5525 0.969205 -88.18 0.969205 -88.18 0.246185 -0.906
8.97100000 0.246285 4.5672 0.969185 -88.19 0.969185 -88.19 0.246267 -0.941
8.97125000 0.246367 4.5820 0.969164 -88.20 0.969164 -88.20 0.246349 -0.977
8.97150000 0.246450 4.5969 0.969143 -88.21 0.969143 -88.21 0.246432 -1.013
8.97175000 0.246533 4.6119 0.969121 -88.22 0.969121 -88.22 0.246515 -1.049
8.97200000 0.246617 4.6269 0.969100 -88.23 0.969100 -88.23 0.246599 -1.085
8.97225000 0.246701 4.6420 0.969079 -88.24 0.969079 -88.24 0.246682 -1.121
8.97250000 0.246785 4.6572 0.969057 -88.25 0.969057 -88.25 0.246767 -1.158
8.97275000 0.246870 4.6725 0.969035 -88.26 0.969035 -88.26 0.246852 -1.194
8.97300000 0.246955 4.6878 0.969014 -88.27 0.969014 -88.27 0.246937 -1.231
8.97325000 0.247041 4.7032 0.968992 -88.28 0.968992 -88.28 0.247022 -1.268
8.97350000 0.247127 4.7188 0.968970 -88.29 0.968970 -88.29 0.247108 -1.305
8.97375000 0.247214 4.7344 0.968948 -88.30 0.968948 -88.30 0.247195 -1.343
8.97400000 0.247301 4.7500 0.968925 -88.31 0.968925 -88.31 0.247282 -1.380
8.97425000 0.247388 4.7658 0.968903 -88.32 0.968903 -88.32 0.247369 -1.418
8.97450000 0.247476 4.7816 0.968880 -88.34 0.968880 -88.34 0.247457 -1.456
8.97475000 0.247565 4.7976 0.968858 -88.35 0.968858 -88.35 0.247546 -1.494
8.97500000 0.247654 4.8136 0.968835 -88.36 0.968835 -88.36 0.247634 -1.532
8.97525000 0.247743 4.8297 0.968812 -88.37 0.968812 -88.37 0.247724 -1.570
8.97550000 0.247833 4.8459 0.968789 -88.38 0.968789 -88.38 0.247813 -1.609
8.97575000 0.247923 4.8622 0.968766 -88.39 0.968766 -88.39 0.247904 -1.648
8.97600000 0.248014 4.8786 0.968743 -88.40 0.968743 -88.40 0.247994 -1.687
8.97625000 0.248105 4.8950 0.968719 -88.41 0.968719 -88.41 0.248085 -1.726
8.97650000 0.248197 4.9116 0.968696 -88.43 0.968696 -88.43 0.248177 -1.765
8.97675000 0.248289 4.9282 0.968672 -88.44 0.968672 -88.44 0.248269 -1.805
8.97700000 0.248382 4.9449 0.968648 -88.45 0.968648 -88.45 0.248362 -1.844
8.97725000 0.248475 4.9617 0.968624 -88.46 0.968624 -88.46 0.248455 -1.884
8.97750000 0.248569 4.9787 0.968600 -88.47 0.968600 -88.47 0.248549 -1.924
8.97775000 0.248663 4.9957 0.968576 -88.48 0.968576 -88.48 0.248643 -1.964
8.97800000 0.248758 5.0128 0.968551 -88.49 0.968551 -88.49 0.248737 -2.005
8.97825000 0.248853 5.0299 0.968527 -88.51 0.968527 -88.51 0.248833 -2.045
8.97850000 0.248949 5.0472 0.968502 -88.52 0.968502 -88.52 0.248928 -2.086
8.97875000 0.249046 5.0646 0.968477 -88.53 0.968477 -88.53 0.249025 -2.127
8.97900000 0.249143 5.0821 0.968452 -88.54 0.968452 -88.54 0.249121 -2.168
8.97925000 0.249240 5.0996 0.968427 -88.55 0.968427 -88.55 0.249219 -2.210
8.97950000 0.249338 5.1173 0.968402 -88.57 0.968402 -88.57 0.249317 -2.251
8.97975000 0.249437 5.1351 0.968376 -88.58 0.968376 -88.58 0.249415 -2.293
8.98000000 0.249536 5.1529 0.968351 -88.59 0.968351 -88.59 0.249514 -2.335
8.98025000 0.249635 5.1709 0.968325 -88.60 0.968325 -88.60 0.249614 -2.377
8.98050000 0.249736 5.1889 0.968299 -88.61 0.968299 -88.61 0.249714 -2.419
8.98075000 0.249836 5.2071 0.968273 -88.63 0.968273 -88.63 0.249814 -2.462
8.98100000 0.249938 5.2253 0.968247 -88.64 0.968247 -88.64 0.249916 -2.505
8.98125000 0.250040 5.2437 0.968220 -88.65 0.968220 -88.65 0.250017 -2.548
8.98150000 0.250142 5.2622 0.968194 -88.66 0.968194 -88.66 0.250120 -2.591
8.98175000 0.250245 5.2807 0.968167 -88.68 0.968167 -88.68 0.250223 -2.635
8.98200000 0.250349 5.2994 0.968140 -88.69 0.968140 -88.69 0.250326 -2.678
8.98225000 0.250453 5.3182 0.968113 -88.70 0.968113 -88.70 0.250431 -2.722
8.98250000 0.250558 5.3370 0.968086 -88.71 0.968086 -88.71 0.250536 -2.766
8.98275000 0.250664 5.3560 0.968059 -88.73 0.968059 -88.73 0.250641 -2.811
8.98300000 0.250770 5.3751 0.968031 -88.74 0.968031 -88.74 0.250747 -2.855
8.98325000 0.250877 5.3943 0.968003 -88.75 0.968003 -88.75 0.250854 -2.900
8.98350000 0.250984 5.4136 0.967975 -88.76 0.967975 -88.76 0.250961 -2.945
8.98375000 0.251093 5.4330 0.967947 -88.78 0.967947 -88.78 0.251069 -2.990
8.98400000 0.251201 5.4525 0.967919 -88.79 0.967919 -88.79 0.251178 -3.035
8.98425000 0.251311 5.4721 0.967890 -88.80 0.967890 -88.80 0.251287 -3.081
8.98450000 0.251421 5.4919 0.967862 -88.82 0.967862 -88.82 0.251397 -3.127
8.98475000 0.251532 5.5117 0.967833 -88.83 0.967833 -88.83 0.251507 -3.173
8.98500000 0.251643 5.5317 0.967804 -88.84 0.967804 -88.84 0.251619 -3.220
8.98525000 0.251755 5.5518 0.967775 -88.86 0.967775 -88.86 0.251731 -3.266
8.98550000 0.251868 5.5720 0.967745 -88.87 0.967745 -88.87 0.251843 -3.313
8.98575000 0.251981 5.5923 0.967716 -88.88 0.967716 -88.88 0.251957 -3.360
8.98600000 0.252095 5.6127 0.967686 -88.90 0.967686 -88.90 0.252071 -3.408
8.98625000 0.252210 5.6332 0.967656 -88.91 0.967656 -88.91 0.252185 -3.455
8.98650000 0.252326 5.6539 0.967626 -88.92 0.967626 -88.92 0.252301 -3.503
8.98675000 0.252442 5.6747 0.967595 -88.94 0.967595 -88.94 0.252417 -3.551
8.98700000 0.252559 5.6955 0.967565 -88.95 0.967565 -88.95 0.252534 -3.600
8.98725000 0.252677 5.7166 0.967534 -88.96 0.967534 -88.96 0.252652 -3.648
8.98750000 0.252796 5.7377 0.967503 -88.98 0.967503 -88.98 0.252770 -3.697
8.98775000 0.252915 5.7589 0.967471 -88.99 0.967471 -88.99 0.252889 -3.746
8.98800000 0.253035 5.7803 0.967440 -89.01 0.967440 -89.01 0.253009 -3.796
8.98825000 0.253156 5.8018 0.967408 -89.02 0.967408 -89.02 0.253130 -3.845
8.98850000 0.253277 5.8234 0.967376 -89.03 0.967376 -89.03 0.253251 -3.895
8.98875000 0.253400 5.8452 0.967344 -89.05 0.967344 -89.05 0.253373 -3.945
8.98900000 0.253523 5.8670 0.967312 -89.06 0.967312 -89.06 0.253496 -3.996
8.98925000 0.253647 5.8890 0.967279 -89.08 0.967279 -89.08 0.253620 -4.046
8.98950000 0.253772 5.9112 0.967246 -89.09 0.967246 -89.09 0.253745 -4.097
8.98975000 0.253897 5.9334 0.967213 -89.11 0.967213 -89.11 0.253870 -4.149
8.99000000 0.254024 5.9558 0.967180 -89.12 0.967180 -89.12 0.253996 -4.200
8.99025000 0.254151 5.9783 0.967147 -89.13 0.967147 -89.13 0.254123 -4.252
8.99050000 0.254279 6.0010 0.967113 -89.15 0.967113 -89.15 0.254251 -4.304
8.99075000 0.254408 6.0238 0.967079 -89.16 0.967079 -89.16 0.254380 -4.357
8.99100000 0.254538 6.0467 0.967045 -89.18 0.967045 -89.18 0.254510 -4.409
8.99125000 0.254669 6.0697 0.967010 -89.19 0.967010 -89.19 0.254640 -4.462
8.99150000 0.254800 6.0929 0.966975 -89.21 0.966975 -89.21 0.254772 -4.516
8.99175000 0.254933 6.1162 0.966940 -89.22 0.966940 -89.22 0.254904 -4.569
8.99200000 0.255066 6.1397 0.966905 -89.24 0.966905 -89.24 0.255037 -4.623
8.99225000 0.255200 6.1633 0.966869 -89.25 0.966869 -89.25 0.255171 -4.677
8.99250000 0.255335 6.1870 0.966834 -89.27 0.966834 -89.27 0.255306 -4.732
8.99275000 0.255472 6.2109 0.966798 -89.29 0.966798 -89.29 0.255442 -4.787
8.99300000 0.255609 6.2349 0.966761 -89.30 0.966761 -89.30 0.255579 -4.842
8.99325000 0.255747 6.2591 0.966725 -89.32 0.966725 -89.32 0.255717 -4.897
8.99350000 0.255886 6.2834 0.966688 -89.33 0.966688 -89.33 0.255856 -4.953
8.99375000 0.256026 6.3078 0.966651 -89.35 0.966651 -89.35 0.255995 -5.009
8.99400000 0.256166 6.3324 0.966613 -89.36 0.966613 -89.36 0.256136 -5.066
8.99425000 0.256308 6.3571 0.966575 -89.38 0.966575 -89.38 0.256278 -5.122
8.99450000 0.256451 6.3820 0.966537 -89.40 0.966537 -89.40 0.256421 -5.179
8.99475000 0.256595 6.4071 0.966499 -89.41 0.966499 -89.41 0.256564 -5.237
8.99500000 0.256740 6.4323 0.966461 -89.43 0.966461 -89.43 0.256709 -5.294
8.99525000 0.256886 6.4576 0.966422 -89.44 0.966422 -89.44 0.256855 -5.353
8.99550000 0.257033 6.4831 0.966382 -89.46 0.966382 -89.46 0.257002 -5.411
8.99575000 0.257181 6.5087 0.966343 -89.48 0.966343 -89.48 0.257150 -5.470
8.99600000 0.257331 6.5345 0.966303 -89.49 0.966303 -89.49 0.257299 -5.529
8.99625000 0.257481 6.5605 0.966263 -89.51 0.966263 -89.51 0.257449 -5.588
8.99650000 0.257632 6.5866 0.966222 -89.53 0.966222 -89.53 0.257600 -5.648
8.99675000 0.257785 6.6129 0.966182 -89.54 0.966182 -89.54 0.257752 -5.708
8.99700000 0.257938 6.6393 0.966141 -89.56 0.966141 -89.56 0.257906 -5.769
8.99725000 0.258093 6.6659 0.966099 -89.58 0.966099 -89.58 0.258060 -5.829
8.99750000 0.258249 6.6926 0.966057 -89.60 0.966057 -89.60 0.258216 -5.891
8.99775000 0.258406 6.7196 0.966015 -89.61 0.966015 -89.61 0.258373 -5.952
8.99800000 0.258565 6.7466 0.965973 -89.63 0.965973 -89.63 0.258531 -6.014