! Sonnet Data File
! From: emgraph Version : 16.52
! From Project: Resonator2_cp
! Data is De-embedded 
! Data File Written: 10/07/2017 20:46:09
!< HDATE 10/07/2017 17:10:37
!< MDATE 10/07/2017 17:10:37
!< PARAMS
!< gap = 16.0
!< Length = 400.0
!< Pwid1 = 2000.0
!< Pwid2 = 2000.0
!< Air_gap = 30.0
!< Width = 50.0
!< END PARAMS
# GHZ S MA R 47.50000
8.80000000 0.025165 2.2491 0.999680 -72.67 0.999680 -72.67 0.025167 32.406
!< P1 F=8.8 Eeff=(5.02890353 -2.1766e-5) Z0=(47.410578 1.04358e-4) R=0.0 C=0.0 
!< P2 F=8.8 Eeff=(5.02890353 -2.1766e-5) Z0=(47.410578 1.04358e-4) R=0.0 C=0.0 
8.80020000 0.025173 2.2362 0.999679 -72.68 0.999679 -72.68 0.025175 32.415
8.80040000 0.025182 2.2232 0.999679 -72.68 0.999679 -72.68 0.025184 32.423
8.80060000 0.025190 2.2102 0.999679 -72.68 0.999679 -72.68 0.025192 32.432
8.80080000 0.025199 2.1972 0.999679 -72.68 0.999679 -72.68 0.025201 32.441
8.80100000 0.025208 2.1841 0.999678 -72.69 0.999678 -72.69 0.025210 32.449
8.80120000 0.025216 2.1710 0.999678 -72.69 0.999678 -72.69 0.025218 32.458
8.80140000 0.025225 2.1578 0.999678 -72.69 0.999678 -72.69 0.025227 32.466
8.80160000 0.025234 2.1446 0.999678 -72.69 0.999678 -72.69 0.025236 32.475
8.80180000 0.025242 2.1314 0.999678 -72.69 0.999678 -72.69 0.025244 32.484
8.80200000 0.025251 2.1181 0.999677 -72.70 0.999677 -72.70 0.025253 32.493
8.80220000 0.025260 2.1048 0.999677 -72.70 0.999677 -72.70 0.025262 32.501
8.80240000 0.025269 2.0915 0.999677 -72.70 0.999677 -72.70 0.025271 32.510
8.80260000 0.025278 2.0781 0.999677 -72.70 0.999677 -72.70 0.025280 32.519
8.80280000 0.025287 2.0647 0.999676 -72.71 0.999676 -72.71 0.025289 32.528
8.80300000 0.025296 2.0512 0.999676 -72.71 0.999676 -72.71 0.025298 32.537
8.80320000 0.025305 2.0377 0.999676 -72.71 0.999676 -72.71 0.025307 32.546
8.80340000 0.025314 2.0241 0.999676 -72.71 0.999676 -72.71 0.025316 32.555
8.80360000 0.025323 2.0106 0.999676 -72.72 0.999676 -72.72 0.025325 32.564
8.80380000 0.025332 1.9969 0.999675 -72.72 0.999675 -72.72 0.025334 32.573
8.80400000 0.025341 1.9833 0.999675 -72.72 0.999675 -72.72 0.025343 32.582
8.80420000 0.025350 1.9696 0.999675 -72.72 0.999675 -72.72 0.025352 32.591
8.80440000 0.025360 1.9558 0.999675 -72.72 0.999675 -72.72 0.025362 32.600
8.80460000 0.025369 1.9420 0.999674 -72.73 0.999674 -72.73 0.025371 32.610
8.80480000 0.025378 1.9282 0.999674 -72.73 0.999674 -72.73 0.025380 32.619
8.80500000 0.025388 1.9143 0.999674 -72.73 0.999674 -72.73 0.025390 32.628
8.80520000 0.025397 1.9004 0.999674 -72.73 0.999674 -72.73 0.025399 32.638
8.80540000 0.025406 1.8865 0.999673 -72.74 0.999673 -72.74 0.025408 32.647
8.80560000 0.025416 1.8725 0.999673 -72.74 0.999673 -72.74 0.025418 32.656
8.80580000 0.025425 1.8584 0.999673 -72.74 0.999673 -72.74 0.025428 32.666
8.80600000 0.025435 1.8443 0.999673 -72.74 0.999673 -72.74 0.025437 32.675
8.80620000 0.025445 1.8302 0.999672 -72.74 0.999672 -72.74 0.025447 32.685
8.80640000 0.025454 1.8160 0.999672 -72.75 0.999672 -72.75 0.025456 32.694
8.80660000 0.025464 1.8018 0.999672 -72.75 0.999672 -72.75 0.025466 32.704
8.80680000 0.025474 1.7876 0.999672 -72.75 0.999672 -72.75 0.025476 32.713
8.80700000 0.025483 1.7733 0.999671 -72.75 0.999671 -72.75 0.025486 32.723
8.80720000 0.025493 1.7589 0.999671 -72.76 0.999671 -72.76 0.025495 32.733
8.80740000 0.025503 1.7445 0.999671 -72.76 0.999671 -72.76 0.025505 32.743
8.80760000 0.025513 1.7301 0.999671 -72.76 0.999671 -72.76 0.025515 32.752
8.80780000 0.025523 1.7156 0.999670 -72.76 0.999670 -72.76 0.025525 32.762
8.80800000 0.025533 1.7011 0.999670 -72.77 0.999670 -72.77 0.025535 32.772
8.80820000 0.025543 1.6865 0.999670 -72.77 0.999670 -72.77 0.025545 32.782
8.80840000 0.025553 1.6719 0.999670 -72.77 0.999670 -72.77 0.025555 32.792
8.80860000 0.025563 1.6573 0.999669 -72.77 0.999669 -72.77 0.025565 32.802
8.80880000 0.025573 1.6426 0.999669 -72.77 0.999669 -72.77 0.025575 32.812
8.80900000 0.025583 1.6278 0.999669 -72.78 0.999669 -72.78 0.025586 32.822
8.80920000 0.025594 1.6130 0.999668 -72.78 0.999668 -72.78 0.025596 32.832
8.80940000 0.025604 1.5982 0.999668 -72.78 0.999668 -72.78 0.025606 32.842
8.80960000 0.025614 1.5833 0.999668 -72.78 0.999668 -72.78 0.025617 32.852
8.80980000 0.025625 1.5683 0.999668 -72.79 0.999668 -72.79 0.025627 32.863
8.81000000 0.025635 1.5534 0.999667 -72.79 0.999667 -72.79 0.025637 32.873
8.81020000 0.025646 1.5383 0.999667 -72.79 0.999667 -72.79 0.025648 32.883
8.81040000 0.025656 1.5232 0.999667 -72.79 0.999667 -72.79 0.025659 32.894
8.81060000 0.025667 1.5081 0.999667 -72.80 0.999667 -72.80 0.025669 32.904
8.81080000 0.025677 1.4929 0.999666 -72.80 0.999666 -72.80 0.025680 32.914
8.81100000 0.025688 1.4777 0.999666 -72.80 0.999666 -72.80 0.025690 32.925
8.81120000 0.025699 1.4624 0.999666 -72.80 0.999666 -72.80 0.025701 32.935
8.81140000 0.025710 1.4471 0.999665 -72.81 0.999665 -72.81 0.025712 32.946
8.81160000 0.025720 1.4317 0.999665 -72.81 0.999665 -72.81 0.025723 32.957
8.81180000 0.025731 1.4163 0.999665 -72.81 0.999665 -72.81 0.025734 32.967
8.81200000 0.025742 1.4008 0.999665 -72.81 0.999665 -72.81 0.025745 32.978
8.81220000 0.025753 1.3853 0.999664 -72.81 0.999664 -72.81 0.025756 32.989
8.81240000 0.025764 1.3697 0.999664 -72.82 0.999664 -72.82 0.025767 32.999
8.81260000 0.025775 1.3541 0.999664 -72.82 0.999664 -72.82 0.025778 33.010
8.81280000 0.025787 1.3384 0.999663 -72.82 0.999663 -72.82 0.025789 33.021
8.81300000 0.025798 1.3227 0.999663 -72.82 0.999663 -72.82 0.025800 33.032
8.81320000 0.025809 1.3069 0.999663 -72.83 0.999663 -72.83 0.025811 33.043
8.81340000 0.025820 1.2910 0.999663 -72.83 0.999663 -72.83 0.025823 33.054
8.81360000 0.025832 1.2752 0.999662 -72.83 0.999662 -72.83 0.025834 33.065
8.81380000 0.025843 1.2592 0.999662 -72.83 0.999662 -72.83 0.025845 33.076
8.81400000 0.025854 1.2432 0.999662 -72.84 0.999662 -72.84 0.025857 33.087
8.81420000 0.025866 1.2272 0.999661 -72.84 0.999661 -72.84 0.025868 33.098
8.81440000 0.025877 1.2111 0.999661 -72.84 0.999661 -72.84 0.025880 33.110
8.81460000 0.025889 1.1949 0.999661 -72.84 0.999661 -72.84 0.025891 33.121
8.81480000 0.025901 1.1787 0.999660 -72.85 0.999660 -72.85 0.025903 33.132
8.81500000 0.025912 1.1624 0.999660 -72.85 0.999660 -72.85 0.025915 33.144
8.81520000 0.025924 1.1461 0.999660 -72.85 0.999660 -72.85 0.025927 33.155
8.81540000 0.025936 1.1297 0.999659 -72.85 0.999659 -72.85 0.025938 33.167
8.81560000 0.025948 1.1133 0.999659 -72.86 0.999659 -72.86 0.025950 33.178
8.81580000 0.025960 1.0968 0.999659 -72.86 0.999659 -72.86 0.025962 33.190
8.81600000 0.025972 1.0803 0.999658 -72.86 0.999658 -72.86 0.025974 33.201
8.81620000 0.025984 1.0637 0.999658 -72.86 0.999658 -72.86 0.025986 33.213
8.81640000 0.025996 1.0470 0.999658 -72.87 0.999658 -72.87 0.025999 33.225
8.81660000 0.026008 1.0303 0.999658 -72.87 0.999658 -72.87 0.026011 33.236
8.81680000 0.026021 1.0135 0.999657 -72.87 0.999657 -72.87 0.026023 33.248
8.81700000 0.026033 0.9967 0.999657 -72.87 0.999657 -72.87 0.026035 33.260
8.81720000 0.026045 0.9798 0.999657 -72.88 0.999657 -72.88 0.026048 33.272
8.81740000 0.026058 0.9628 0.999656 -72.88 0.999656 -72.88 0.026060 33.284
8.81760000 0.026070 0.9458 0.999656 -72.88 0.999656 -72.88 0.026073 33.296
8.81780000 0.026083 0.9287 0.999656 -72.88 0.999656 -72.88 0.026085 33.308
8.81800000 0.026095 0.9116 0.999655 -72.89 0.999655 -72.89 0.026098 33.320
8.81820000 0.026108 0.8944 0.999655 -72.89 0.999655 -72.89 0.026110 33.332
8.81840000 0.026121 0.8772 0.999655 -72.89 0.999655 -72.89 0.026123 33.345
8.81860000 0.026133 0.8599 0.999654 -72.89 0.999654 -72.89 0.026136 33.357
8.81880000 0.026146 0.8425 0.999654 -72.90 0.999654 -72.90 0.026149 33.369
8.81900000 0.026159 0.8251 0.999654 -72.90 0.999654 -72.90 0.026162 33.382
8.81920000 0.026172 0.8076 0.999653 -72.90 0.999653 -72.90 0.026175 33.394
8.81940000 0.026185 0.7900 0.999653 -72.90 0.999653 -72.90 0.026188 33.407
8.81960000 0.026198 0.7724 0.999652 -72.91 0.999652 -72.91 0.026201 33.419
8.81980000 0.026212 0.7547 0.999652 -72.91 0.999652 -72.91 0.026214 33.432
8.82000000 0.026225 0.7369 0.999652 -72.91 0.999652 -72.91 0.026227 33.445
8.82020000 0.026238 0.7191 0.999651 -72.91 0.999651 -72.91 0.026241 33.457
8.82040000 0.026252 0.7013 0.999651 -72.92 0.999651 -72.92 0.026254 33.470
8.82060000 0.026265 0.6833 0.999651 -72.92 0.999651 -72.92 0.026268 33.483
8.82080000 0.026279 0.6653 0.999650 -72.92 0.999650 -72.92 0.026281 33.496
8.82100000 0.026292 0.6472 0.999650 -72.92 0.999650 -72.92 0.026295 33.509
8.82120000 0.026306 0.6291 0.999650 -72.93 0.999650 -72.93 0.026308 33.522
8.82140000 0.026320 0.6109 0.999649 -72.93 0.999649 -72.93 0.026322 33.535
8.82160000 0.026333 0.5926 0.999649 -72.93 0.999649 -72.93 0.026336 33.548
8.82180000 0.026347 0.5743 0.999648 -72.93 0.999648 -72.93 0.026350 33.561
8.82200000 0.026361 0.5559 0.999648 -72.94 0.999648 -72.94 0.026364 33.574
8.82220000 0.026375 0.5374 0.999648 -72.94 0.999648 -72.94 0.026378 33.588
8.82240000 0.026389 0.5189 0.999647 -72.94 0.999647 -72.94 0.026392 33.601
8.82260000 0.026404 0.5003 0.999647 -72.94 0.999647 -72.94 0.026406 33.614
8.82280000 0.026418 0.4816 0.999647 -72.95 0.999647 -72.95 0.026420 33.628
8.82300000 0.026432 0.4628 0.999646 -72.95 0.999646 -72.95 0.026435 33.641
8.82320000 0.026447 0.4440 0.999646 -72.95 0.999646 -72.95 0.026449 33.655
8.82340000 0.026461 0.4251 0.999645 -72.95 0.999645 -72.95 0.026464 33.669
8.82360000 0.026476 0.4061 0.999645 -72.96 0.999645 -72.96 0.026478 33.682
8.82380000 0.026490 0.3871 0.999645 -72.96 0.999645 -72.96 0.026493 33.696
8.82400000 0.026505 0.3680 0.999644 -72.96 0.999644 -72.96 0.026508 33.710
8.82420000 0.026520 0.3488 0.999644 -72.96 0.999644 -72.96 0.026522 33.724
8.82440000 0.026535 0.3296 0.999643 -72.97 0.999643 -72.97 0.026537 33.738
8.82460000 0.026550 0.3102 0.999643 -72.97 0.999643 -72.97 0.026552 33.752
8.82480000 0.026565 0.2908 0.999643 -72.97 0.999643 -72.97 0.026567 33.766
8.82500000 0.026580 0.2714 0.999642 -72.98 0.999642 -72.98 0.026582 33.780
8.82520000 0.026595 0.2518 0.999642 -72.98 0.999642 -72.98 0.026598 33.794
8.82540000 0.026610 0.2322 0.999641 -72.98 0.999641 -72.98 0.026613 33.808
8.82560000 0.026626 0.2125 0.999641 -72.98 0.999641 -72.98 0.026628 33.823
8.82580000 0.026641 0.1927 0.999640 -72.99 0.999640 -72.99 0.026644 33.837
8.82600000 0.026657 0.1729 0.999640 -72.99 0.999640 -72.99 0.026659 33.852
8.82620000 0.026672 0.1529 0.999640 -72.99 0.999640 -72.99 0.026675 33.866
8.82640000 0.026688 0.1329 0.999639 -72.99 0.999639 -72.99 0.026691 33.881
8.82660000 0.026704 0.1129 0.999639 -73.00 0.999639 -73.00 0.026706 33.895
8.82680000 0.026720 0.0927 0.999638 -73.00 0.999638 -73.00 0.026722 33.910
8.82700000 0.026735 0.0724 0.999638 -73.00 0.999638 -73.00 0.026738 33.925
8.82720000 0.026752 0.0521 0.999637 -73.00 0.999637 -73.00 0.026754 33.940
8.82740000 0.026768 0.0317 0.999637 -73.01 0.999637 -73.01 0.026771 33.955
8.82760000 0.026784 0.0112 0.999637 -73.01 0.999637 -73.01 0.026787 33.970
8.82780000 0.026800 0.0000 0.999636 -73.01 0.999636 -73.01 0.026803 33.985
8.82800000 0.026817 -0.030 0.999636 -73.02 0.999636 -73.02 0.026820 34.000
8.82820000 0.026833 -0.051 0.999635 -73.02 0.999635 -73.02 0.026836 34.015
8.82840000 0.026850 -0.072 0.999635 -73.02 0.999635 -73.02 0.026853 34.031
8.82860000 0.026867 -0.092 0.999634 -73.02 0.999634 -73.02 0.026869 34.046
8.82880000 0.026883 -0.113 0.999634 -73.03 0.999634 -73.03 0.026886 34.061
8.82900000 0.026900 -0.134 0.999633 -73.03 0.999633 -73.03 0.026903 34.077
8.82920000 0.026917 -0.156 0.999633 -73.03 0.999633 -73.03 0.026920 34.093
8.82940000 0.026934 -0.177 0.999632 -73.03 0.999632 -73.03 0.026937 34.108
8.82960000 0.026952 -0.198 0.999632 -73.04 0.999632 -73.04 0.026954 34.124
8.82980000 0.026969 -0.220 0.999631 -73.04 0.999631 -73.04 0.026972 34.140
8.83000000 0.026986 -0.241 0.999631 -73.04 0.999631 -73.04 0.026989 34.156
8.83020000 0.027004 -0.263 0.999631 -73.05 0.999631 -73.05 0.027007 34.172
8.83040000 0.027021 -0.284 0.999630 -73.05 0.999630 -73.05 0.027024 34.188
8.83060000 0.027039 -0.306 0.999630 -73.05 0.999630 -73.05 0.027042 34.204
8.83080000 0.027057 -0.328 0.999629 -73.05 0.999629 -73.05 0.027060 34.220
8.83100000 0.027075 -0.350 0.999629 -73.06 0.999629 -73.06 0.027078 34.236
8.83120000 0.027093 -0.372 0.999628 -73.06 0.999628 -73.06 0.027096 34.253
8.83140000 0.027111 -0.394 0.999628 -73.06 0.999628 -73.06 0.027114 34.269
8.83160000 0.027129 -0.416 0.999627 -73.07 0.999627 -73.07 0.027132 34.285
8.83180000 0.027148 -0.439 0.999627 -73.07 0.999627 -73.07 0.027151 34.302
8.83200000 0.027166 -0.461 0.999626 -73.07 0.999626 -73.07 0.027169 34.319
8.83220000 0.027185 -0.484 0.999625 -73.07 0.999625 -73.07 0.027188 34.335
8.83240000 0.027203 -0.506 0.999625 -73.08 0.999625 -73.08 0.027206 34.352
8.83260000 0.027222 -0.529 0.999624 -73.08 0.999624 -73.08 0.027225 34.369
8.83280000 0.027241 -0.552 0.999624 -73.08 0.999624 -73.08 0.027244 34.386
8.83300000 0.027260 -0.575 0.999623 -73.09 0.999623 -73.09 0.027263 34.403
8.83320000 0.027279 -0.598 0.999623 -73.09 0.999623 -73.09 0.027282 34.420
8.83340000 0.027298 -0.621 0.999622 -73.09 0.999622 -73.09 0.027302 34.438
8.83360000 0.027318 -0.644 0.999622 -73.09 0.999622 -73.09 0.027321 34.455
8.83380000 0.027337 -0.667 0.999621 -73.10 0.999621 -73.10 0.027340 34.472
8.83400000 0.027357 -0.690 0.999621 -73.10 0.999621 -73.10 0.027360 34.490
8.83420000 0.027377 -0.714 0.999620 -73.10 0.999620 -73.10 0.027380 34.507
8.83440000 0.027396 -0.738 0.999620 -73.11 0.999620 -73.11 0.027400 34.525
8.83460000 0.027416 -0.761 0.999619 -73.11 0.999619 -73.11 0.027420 34.543
8.83480000 0.027437 -0.785 0.999618 -73.11 0.999618 -73.11 0.027440 34.561
8.83500000 0.027457 -0.809 0.999618 -73.11 0.999618 -73.11 0.027460 34.578
8.83520000 0.027477 -0.833 0.999617 -73.12 0.999617 -73.12 0.027480 34.596
8.83540000 0.027498 -0.857 0.999617 -73.12 0.999617 -73.12 0.027501 34.615
8.83560000 0.027518 -0.881 0.999616 -73.12 0.999616 -73.12 0.027522 34.633
8.83580000 0.027539 -0.906 0.999616 -73.13 0.999616 -73.13 0.027542 34.651
8.83600000 0.027560 -0.930 0.999615 -73.13 0.999615 -73.13 0.027563 34.669
8.83620000 0.027581 -0.955 0.999614 -73.13 0.999614 -73.13 0.027584 34.688
8.83640000 0.027602 -0.979 0.999614 -73.14 0.999614 -73.14 0.027605 34.706
8.83660000 0.027623 -1.004 0.999613 -73.14 0.999613 -73.14 0.027627 34.725
8.83680000 0.027645 -1.029 0.999613 -73.14 0.999613 -73.14 0.027648 34.744
8.83700000 0.027666 -1.054 0.999612 -73.15 0.999612 -73.15 0.027670 34.763
8.83720000 0.027688 -1.079 0.999611 -73.15 0.999611 -73.15 0.027692 34.782
8.83740000 0.027710 -1.104 0.999611 -73.15 0.999611 -73.15 0.027713 34.801
8.83760000 0.027732 -1.129 0.999610 -73.15 0.999610 -73.15 0.027735 34.820
8.83780000 0.027754 -1.155 0.999609 -73.16 0.999609 -73.16 0.027758 34.839
8.83800000 0.027776 -1.180 0.999609 -73.16 0.999609 -73.16 0.027780 34.858
8.83820000 0.027799 -1.206 0.999608 -73.16 0.999608 -73.16 0.027802 34.878
8.83840000 0.027822 -1.232 0.999608 -73.17 0.999608 -73.17 0.027825 34.897
8.83860000 0.027844 -1.258 0.999607 -73.17 0.999607 -73.17 0.027848 34.917
8.83880000 0.027867 -1.284 0.999606 -73.17 0.999606 -73.17 0.027871 34.937
8.83900000 0.027890 -1.310 0.999606 -73.18 0.999606 -73.18 0.027894 34.956
8.83920000 0.027913 -1.336 0.999605 -73.18 0.999605 -73.18 0.027917 34.976
8.83940000 0.027937 -1.363 0.999604 -73.18 0.999604 -73.18 0.027940 34.996
8.83960000 0.027960 -1.389 0.999604 -73.19 0.999604 -73.19 0.027964 35.016
8.83980000 0.027984 -1.416 0.999603 -73.19 0.999603 -73.19 0.027988 35.037
8.84000000 0.028008 -1.443 0.999602 -73.19 0.999602 -73.19 0.028011 35.057
8.84020000 0.028032 -1.470 0.999601 -73.20 0.999601 -73.20 0.028035 35.077
8.84040000 0.028056 -1.497 0.999601 -73.20 0.999601 -73.20 0.028060 35.098
8.84060000 0.028080 -1.524 0.999600 -73.20 0.999600 -73.20 0.028084 35.119
8.84080000 0.028105 -1.551 0.999599 -73.20 0.999599 -73.20 0.028109 35.139
8.84100000 0.028130 -1.578 0.999599 -73.21 0.999599 -73.21 0.028133 35.160
8.84120000 0.028154 -1.606 0.999598 -73.21 0.999598 -73.21 0.028158 35.181
8.84140000 0.028179 -1.634 0.999597 -73.21 0.999597 -73.21 0.028183 35.202
8.84160000 0.028205 -1.662 0.999596 -73.22 0.999596 -73.22 0.028208 35.224
8.84180000 0.028230 -1.689 0.999596 -73.22 0.999596 -73.22 0.028234 35.245
8.84200000 0.028256 -1.718 0.999595 -73.22 0.999595 -73.22 0.028259 35.266
8.84220000 0.028281 -1.746 0.999594 -73.23 0.999594 -73.23 0.028285 35.288
8.84240000 0.028307 -1.774 0.999593 -73.23 0.999593 -73.23 0.028311 35.309
8.84260000 0.028333 -1.803 0.999593 -73.23 0.999593 -73.23 0.028337 35.331
8.84280000 0.028360 -1.831 0.999592 -73.24 0.999592 -73.24 0.028363 35.353
8.84300000 0.028386 -1.860 0.999591 -73.24 0.999591 -73.24 0.028390 35.375
8.84320000 0.028413 -1.889 0.999590 -73.24 0.999590 -73.24 0.028417 35.397
8.84340000 0.028440 -1.918 0.999590 -73.25 0.999590 -73.25 0.028444 35.419
8.84360000 0.028467 -1.947 0.999589 -73.25 0.999589 -73.25 0.028471 35.442
8.84380000 0.028494 -1.977 0.999588 -73.25 0.999588 -73.25 0.028498 35.464
8.84400000 0.028521 -2.006 0.999587 -73.26 0.999587 -73.26 0.028525 35.487
8.84420000 0.028549 -2.036 0.999586 -73.26 0.999586 -73.26 0.028553 35.510
8.84440000 0.028577 -2.066 0.999586 -73.26 0.999586 -73.26 0.028581 35.532
8.84460000 0.028605 -2.096 0.999585 -73.27 0.999585 -73.27 0.028609 35.555
8.84480000 0.028633 -2.126 0.999584 -73.27 0.999584 -73.27 0.028637 35.579
8.84500000 0.028662 -2.156 0.999583 -73.28 0.999583 -73.28 0.028666 35.602
8.84520000 0.028691 -2.186 0.999582 -73.28 0.999582 -73.28 0.028695 35.625
8.84540000 0.028720 -2.217 0.999581 -73.28 0.999581 -73.28 0.028724 35.649
8.84560000 0.028749 -2.248 0.999581 -73.29 0.999581 -73.29 0.028753 35.672
8.84580000 0.028778 -2.278 0.999580 -73.29 0.999580 -73.29 0.028782 35.696
8.84600000 0.028808 -2.309 0.999579 -73.29 0.999579 -73.29 0.028812 35.720
8.84620000 0.028837 -2.341 0.999578 -73.30 0.999578 -73.30 0.028842 35.744
8.84640000 0.028868 -2.372 0.999577 -73.30 0.999577 -73.30 0.028872 35.768
8.84660000 0.028898 -2.404 0.999576 -73.30 0.999576 -73.30 0.028902 35.792
8.84680000 0.028928 -2.435 0.999575 -73.31 0.999575 -73.31 0.028933 35.817
8.84700000 0.028959 -2.467 0.999574 -73.31 0.999574 -73.31 0.028963 35.841
8.84720000 0.028990 -2.499 0.999573 -73.31 0.999573 -73.31 0.028994 35.866
8.84740000 0.029021 -2.531 0.999572 -73.32 0.999572 -73.32 0.029026 35.891
8.84760000 0.029053 -2.564 0.999571 -73.32 0.999571 -73.32 0.029057 35.916
8.84780000 0.029085 -2.596 0.999571 -73.33 0.999571 -73.33 0.029089 35.941
8.84800000 0.029116 -2.629 0.999570 -73.33 0.999570 -73.33 0.029121 35.966
8.84820000 0.029149 -2.662 0.999569 -73.33 0.999569 -73.33 0.029153 35.991
8.84840000 0.029181 -2.695 0.999568 -73.34 0.999568 -73.34 0.029186 36.017
8.84860000 0.029214 -2.728 0.999567 -73.34 0.999567 -73.34 0.029218 36.043
8.84880000 0.029247 -2.762 0.999566 -73.34 0.999566 -73.34 0.029251 36.068
8.84900000 0.029280 -2.795 0.999565 -73.35 0.999565 -73.35 0.029285 36.094
8.84920000 0.029314 -2.829 0.999564 -73.35 0.999564 -73.35 0.029318 36.120
8.84940000 0.029348 -2.863 0.999563 -73.36 0.999563 -73.36 0.029352 36.147
8.84960000 0.029382 -2.897 0.999562 -73.36 0.999562 -73.36 0.029386 36.173
8.84980000 0.029416 -2.931 0.999561 -73.36 0.999561 -73.36 0.029421 36.200
8.85000000 0.029451 -2.966 0.999559 -73.37 0.999559 -73.37 0.029455 36.226
8.85020000 0.029486 -3.001 0.999558 -73.37 0.999558 -73.37 0.029490 36.253
8.85040000 0.029521 -3.036 0.999557 -73.37 0.999557 -73.37 0.029526 36.280
8.85060000 0.029557 -3.071 0.999556 -73.38 0.999556 -73.38 0.029561 36.307
8.85080000 0.029592 -3.106 0.999555 -73.38 0.999555 -73.38 0.029597 36.335
8.85100000 0.029629 -3.141 0.999554 -73.39 0.999554 -73.39 0.029633 36.362
8.85120000 0.029665 -3.177 0.999553 -73.39 0.999553 -73.39 0.029670 36.390
8.85140000 0.029702 -3.213 0.999552 -73.39 0.999552 -73.39 0.029706 36.418
8.85160000 0.029739 -3.249 0.999551 -73.40 0.999551 -73.40 0.029744 36.446
8.85180000 0.029776 -3.285 0.999550 -73.40 0.999550 -73.40 0.029781 36.474
8.85200000 0.029814 -3.322 0.999548 -73.41 0.999548 -73.41 0.029819 36.502
8.85220000 0.029852 -3.359 0.999547 -73.41 0.999547 -73.41 0.029857 36.531
8.85240000 0.029890 -3.396 0.999546 -73.41 0.999546 -73.41 0.029895 36.559
8.85260000 0.029929 -3.433 0.999545 -73.42 0.999545 -73.42 0.029934 36.588
8.85280000 0.029968 -3.470 0.999544 -73.42 0.999544 -73.42 0.029973 36.617
8.85300000 0.030007 -3.508 0.999542 -73.43 0.999542 -73.43 0.030012 36.646
8.85320000 0.030047 -3.545 0.999541 -73.43 0.999541 -73.43 0.030052 36.676
8.85340000 0.030087 -3.584 0.999540 -73.43 0.999540 -73.43 0.030092 36.705
8.85360000 0.030128 -3.622 0.999539 -73.44 0.999539 -73.44 0.030133 36.735
8.85380000 0.030168 -3.660 0.999537 -73.44 0.999537 -73.44 0.030173 36.765
8.85400000 0.030209 -3.699 0.999536 -73.45 0.999536 -73.45 0.030215 36.795
8.85420000 0.030251 -3.738 0.999535 -73.45 0.999535 -73.45 0.030256 36.825
8.85440000 0.030293 -3.777 0.999534 -73.46 0.999534 -73.46 0.030298 36.856
8.85460000 0.030335 -3.816 0.999532 -73.46 0.999532 -73.46 0.030340 36.886
8.85480000 0.030378 -3.856 0.999531 -73.46 0.999531 -73.46 0.030383 36.917
8.85500000 0.030421 -3.896 0.999529 -73.47 0.999529 -73.47 0.030426 36.948
8.85520000 0.030464 -3.936 0.999528 -73.47 0.999528 -73.47 0.030470 36.979
8.85540000 0.030508 -3.976 0.999527 -73.48 0.999527 -73.48 0.030514 37.011
8.85560000 0.030552 -4.017 0.999525 -73.48 0.999525 -73.48 0.030558 37.042
8.85580000 0.030597 -4.058 0.999524 -73.49 0.999524 -73.49 0.030603 37.074
8.85600000 0.030642 -4.099 0.999523 -73.49 0.999523 -73.49 0.030648 37.106
8.85620000 0.030688 -4.140 0.999521 -73.50 0.999521 -73.50 0.030693 37.138
8.85640000 0.030734 -4.182 0.999520 -73.50 0.999520 -73.50 0.030739 37.170
8.85660000 0.030780 -4.223 0.999518 -73.50 0.999518 -73.50 0.030786 37.203
8.85680000 0.030827 -4.266 0.999517 -73.51 0.999517 -73.51 0.030832 37.236
8.85700000 0.030874 -4.308 0.999515 -73.51 0.999515 -73.51 0.030880 37.269
8.85720000 0.030922 -4.350 0.999514 -73.52 0.999514 -73.52 0.030928 37.302
8.85740000 0.030970 -4.393 0.999512 -73.52 0.999512 -73.52 0.030976 37.335
8.85760000 0.031019 -4.437 0.999510 -73.53 0.999510 -73.53 0.031025 37.369
8.85780000 0.031068 -4.480 0.999509 -73.53 0.999509 -73.53 0.031074 37.403
8.85800000 0.031118 -4.524 0.999507 -73.54 0.999507 -73.54 0.031123 37.437
8.85820000 0.031168 -4.568 0.999506 -73.54 0.999506 -73.54 0.031174 37.471
8.85840000 0.031218 -4.612 0.999504 -73.55 0.999504 -73.55 0.031224 37.505
8.85860000 0.031269 -4.656 0.999502 -73.55 0.999502 -73.55 0.031275 37.540
8.85880000 0.031321 -4.701 0.999501 -73.56 0.999501 -73.56 0.031327 37.575
8.85900000 0.031373 -4.746 0.999499 -73.56 0.999499 -73.56 0.031379 37.610
8.85920000 0.031426 -4.792 0.999497 -73.57 0.999497 -73.57 0.031432 37.645
8.85940000 0.031479 -4.838 0.999496 -73.57 0.999496 -73.57 0.031485 37.681
8.85960000 0.031533 -4.884 0.999494 -73.58 0.999494 -73.58 0.031539 37.717
8.85980000 0.031587 -4.930 0.999492 -73.58 0.999492 -73.58 0.031593 37.753
8.86000000 0.031642 -4.976 0.999490 -73.59 0.999490 -73.59 0.031648 37.789
8.86020000 0.031698 -5.023 0.999488 -73.59 0.999488 -73.59 0.031704 37.825
8.86040000 0.031754 -5.071 0.999487 -73.60 0.999487 -73.60 0.031760 37.862
8.86060000 0.031810 -5.118 0.999485 -73.60 0.999485 -73.60 0.031817 37.899
8.86080000 0.031867 -5.166 0.999483 -73.61 0.999483 -73.61 0.031874 37.936
8.86100000 0.031925 -5.214 0.999481 -73.61 0.999481 -73.61 0.031932 37.974
8.86120000 0.031984 -5.263 0.999479 -73.62 0.999479 -73.62 0.031990 38.011
8.86140000 0.032043 -5.311 0.999477 -73.62 0.999477 -73.62 0.032049 38.049
8.86160000 0.032102 -5.361 0.999475 -73.63 0.999475 -73.63 0.032109 38.088
8.86180000 0.032163 -5.410 0.999473 -73.63 0.999473 -73.63 0.032169 38.126
8.86200000 0.032224 -5.460 0.999471 -73.64 0.999471 -73.64 0.032230 38.165
8.86220000 0.032285 -5.510 0.999469 -73.65 0.999469 -73.65 0.032292 38.204
8.86240000 0.032348 -5.561 0.999467 -73.65 0.999467 -73.65 0.032355 38.243
8.86260000 0.032411 -5.611 0.999465 -73.66 0.999465 -73.66 0.032418 38.283
8.86280000 0.032475 -5.663 0.999463 -73.66 0.999463 -73.66 0.032481 38.322
8.86300000 0.032539 -5.714 0.999460 -73.67 0.999460 -73.67 0.032546 38.362
8.86320000 0.032604 -5.766 0.999458 -73.67 0.999458 -73.67 0.032611 38.403
8.86340000 0.032670 -5.818 0.999456 -73.68 0.999456 -73.68 0.032677 38.443
8.86360000 0.032737 -5.871 0.999454 -73.68 0.999454 -73.68 0.032744 38.484
8.86380000 0.032804 -5.924 0.999451 -73.69 0.999451 -73.69 0.032811 38.525
8.86400000 0.032872 -5.978 0.999449 -73.70 0.999449 -73.70 0.032880 38.567
8.86420000 0.032941 -6.031 0.999447 -73.70 0.999447 -73.70 0.032949 38.608
8.86440000 0.033011 -6.086 0.999444 -73.71 0.999444 -73.71 0.033018 38.650
8.86460000 0.033082 -6.140 0.999442 -73.71 0.999442 -73.71 0.033089 38.693
8.86480000 0.033153 -6.195 0.999439 -73.72 0.999439 -73.72 0.033161 38.735
8.86500000 0.033225 -6.250 0.999437 -73.73 0.999437 -73.73 0.033233 38.778
8.86520000 0.033299 -6.306 0.999434 -73.73 0.999434 -73.73 0.033306 38.821
8.86540000 0.033373 -6.362 0.999432 -73.74 0.999432 -73.74 0.033380 38.865
8.86560000 0.033448 -6.419 0.999429 -73.75 0.999429 -73.75 0.033455 38.908
8.86580000 0.033523 -6.476 0.999427 -73.75 0.999427 -73.75 0.033531 38.952
8.86600000 0.033600 -6.533 0.999424 -73.76 0.999424 -73.76 0.033608 38.997
8.86620000 0.033678 -6.591 0.999421 -73.76 0.999421 -73.76 0.033686 39.041
8.86640000 0.033756 -6.650 0.999419 -73.77 0.999419 -73.77 0.033764 39.086
8.86660000 0.033836 -6.708 0.999416 -73.78 0.999416 -73.78 0.033844 39.132
8.86680000 0.033917 -6.767 0.999413 -73.78 0.999413 -73.78 0.033925 39.177
8.86700000 0.033998 -6.827 0.999410 -73.79 0.999410 -73.79 0.034006 39.223
8.86720000 0.034081 -6.887 0.999407 -73.80 0.999407 -73.80 0.034089 39.270
8.86740000 0.034165 -6.948 0.999404 -73.80 0.999404 -73.80 0.034173 39.316
8.86760000 0.034249 -7.009 0.999401 -73.81 0.999401 -73.81 0.034257 39.363
8.86780000 0.034335 -7.070 0.999398 -73.82 0.999398 -73.82 0.034343 39.410
8.86800000 0.034422 -7.132 0.999395 -73.83 0.999395 -73.83 0.034430 39.458
8.86820000 0.034510 -7.194 0.999392 -73.83 0.999392 -73.83 0.034519 39.506
8.86840000 0.034599 -7.257 0.999389 -73.84 0.999389 -73.84 0.034608 39.554
8.86860000 0.034690 -7.321 0.999385 -73.85 0.999385 -73.85 0.034698 39.603
8.86880000 0.034781 -7.385 0.999382 -73.85 0.999382 -73.85 0.034790 39.652
8.86900000 0.034874 -7.449 0.999379 -73.86 0.999379 -73.86 0.034883 39.701
8.86920000 0.034968 -7.514 0.999375 -73.87 0.999375 -73.87 0.034977 39.751
8.86940000 0.035064 -7.579 0.999372 -73.88 0.999372 -73.88 0.035073 39.801
8.86960000 0.035160 -7.645 0.999368 -73.88 0.999368 -73.88 0.035169 39.851
8.86980000 0.035258 -7.712 0.999365 -73.89 0.999365 -73.89 0.035267 39.902
8.86989961 0.035308 -7.745 0.999363 -73.90 0.999363 -73.90 0.035317 39.928
8.87000000 0.035358 -7.779 0.999361 -73.90 0.999361 -73.90 0.035367 39.953
8.87020000 0.035458 -7.846 0.999357 -73.91 0.999357 -73.91 0.035468 40.005
8.87040000 0.035561 -7.915 0.999353 -73.91 0.999353 -73.91 0.035570 40.057
8.87058319 0.035655 -7.977 0.999350 -73.92 0.999350 -73.92 0.035665 40.105
8.87060000 0.035664 -7.983 0.999350 -73.92 0.999350 -73.92 0.035673 40.109
8.87080000 0.035769 -8.052 0.999346 -73.93 0.999346 -73.93 0.035779 40.162
8.87100000 0.035876 -8.122 0.999342 -73.94 0.999342 -73.94 0.035885 40.215
8.87120000 0.035984 -8.193 0.999338 -73.95 0.999338 -73.95 0.035993 40.268
8.87125110 0.036012 -8.211 0.999337 -73.95 0.999337 -73.95 0.036021 40.282
8.87140000 0.036093 -8.264 0.999333 -73.96 0.999333 -73.96 0.036103 40.322
8.87160000 0.036205 -8.335 0.999329 -73.96 0.999329 -73.96 0.036214 40.377
8.87180000 0.036317 -8.407 0.999325 -73.97 0.999325 -73.97 0.036327 40.431
8.87190371 0.036377 -8.445 0.999323 -73.98 0.999323 -73.98 0.036387 40.460
8.87200000 0.036432 -8.480 0.999321 -73.98 0.999321 -73.98 0.036442 40.486
8.87220000 0.036548 -8.554 0.999316 -73.99 0.999316 -73.99 0.036558 40.542
8.87240000 0.036666 -8.628 0.999312 -74.00 0.999312 -74.00 0.036676 40.598
8.87254137 0.036751 -8.681 0.999308 -74.01 0.999308 -74.01 0.036761 40.638
8.87260000 0.036786 -8.702 0.999307 -74.01 0.999307 -74.01 0.036796 40.654
8.87280000 0.036908 -8.778 0.999302 -74.02 0.999302 -74.02 0.036918 40.711
8.87300000 0.037031 -8.854 0.999298 -74.03 0.999298 -74.03 0.037042 40.768
8.87316442 0.037134 -8.917 0.999294 -74.03 0.999294 -74.03 0.037145 40.815
8.87320000 0.037156 -8.931 0.999293 -74.04 0.999293 -74.04 0.037167 40.826
8.87340000 0.037284 -9.008 0.999288 -74.04 0.999288 -74.04 0.037295 40.884
8.87360000 0.037413 -9.086 0.999283 -74.05 0.999283 -74.05 0.037424 40.942
8.87377319 0.037527 -9.154 0.999278 -74.06 0.999278 -74.06 0.037538 40.993
8.87380000 0.037544 -9.165 0.999278 -74.06 0.999278 -74.06 0.037555 41.001
8.87400000 0.037678 -9.244 0.999272 -74.07 0.999272 -74.07 0.037689 41.061
8.87420000 0.037814 -9.324 0.999267 -74.08 0.999267 -74.08 0.037825 41.120
8.87436801 0.037929 -9.392 0.999262 -74.09 0.999262 -74.09 0.037940 41.171
8.87440000 0.037951 -9.405 0.999262 -74.09 0.999262 -74.09 0.037963 41.181
8.87460000 0.038091 -9.487 0.999256 -74.10 0.999256 -74.10 0.038103 41.241
8.87480000 0.038234 -9.569 0.999250 -74.11 0.999250 -74.11 0.038245 41.303
8.87494920 0.038341 -9.631 0.999246 -74.12 0.999246 -74.12 0.038353 41.349
8.87500000 0.038378 -9.652 0.999245 -74.12 0.999245 -74.12 0.038390 41.364
8.87520000 0.038526 -9.736 0.999239 -74.13 0.999239 -74.13 0.038537 41.426
8.87540000 0.038675 -9.821 0.999233 -74.15 0.999233 -74.15 0.038687 41.489
8.87551707 0.038764 -9.871 0.999229 -74.15 0.999229 -74.15 0.038776 41.526
8.87560000 0.038827 -9.906 0.999226 -74.16 0.999226 -74.16 0.038839 41.552
8.87580000 0.038982 -9.992 0.999220 -74.17 0.999220 -74.17 0.038994 41.616
8.87600000 0.039139 -10.08 0.999214 -74.18 0.999214 -74.18 0.039152 41.680
8.87607193 0.039197 -10.11 0.999211 -74.18 0.999211 -74.18 0.039209 41.703
8.87620000 0.039300 -10.17 0.999207 -74.19 0.999207 -74.19 0.039312 41.745