! Sonnet Data File
! From: emgraph Version : 16.52
! From Project: Resonator2_cp_varyW
! Data is De-embedded 
! Data File Written: 10/08/2017 22:08:32
!< HDATE 10/08/2017 15:20:13
!< MDATE 10/08/2017 15:20:13
!< PARAMS
!< Length = 400.0
!< Pwid1 = 2000.0
!< Pwid2 = 2000.0
!< Air_gap = 24.0
!< Width = 40.0
!< gap = 16.0
!< END PARAMS
# GHZ S MA R 45.40000
8.90000000 0.018370 17.584 0.999826 -74.15 0.999826 -74.15 0.018367 14.140
!< P1 F=8.9 Eeff=(5.09096395 -2.214e-5) Z0=(45.4059169 1.00354e-4) R=0.0 C=0.0 
!< P2 F=8.9 Eeff=(5.09096395 -2.214e-5) Z0=(45.4059169 1.00354e-4) R=0.0 C=0.0 
8.90010000 0.018360 17.605 0.999826 -74.15 0.999826 -74.15 0.018357 14.116
8.90020000 0.018351 17.625 0.999826 -74.15 0.999826 -74.15 0.018348 14.093
8.90030000 0.018341 17.646 0.999827 -74.16 0.999827 -74.16 0.018338 14.069
8.90040000 0.018331 17.667 0.999827 -74.16 0.999827 -74.16 0.018328 14.045
8.90050000 0.018321 17.688 0.999827 -74.16 0.999827 -74.16 0.018318 14.021
8.90060000 0.018312 17.709 0.999827 -74.16 0.999827 -74.16 0.018309 13.997
8.90070000 0.018302 17.730 0.999827 -74.16 0.999827 -74.16 0.018299 13.973
8.90080000 0.018292 17.751 0.999827 -74.16 0.999827 -74.16 0.018289 13.948
8.90090000 0.018282 17.773 0.999828 -74.16 0.999828 -74.16 0.018279 13.924
8.90100000 0.018272 17.794 0.999828 -74.17 0.999828 -74.17 0.018269 13.900
8.90110000 0.018262 17.816 0.999828 -74.17 0.999828 -74.17 0.018259 13.875
8.90120000 0.018252 17.837 0.999828 -74.17 0.999828 -74.17 0.018249 13.850
8.90130000 0.018242 17.859 0.999828 -74.17 0.999828 -74.17 0.018239 13.825
8.90140000 0.018232 17.881 0.999828 -74.17 0.999828 -74.17 0.018229 13.801
8.90150000 0.018222 17.903 0.999829 -74.17 0.999829 -74.17 0.018219 13.776
8.90160000 0.018212 17.925 0.999829 -74.18 0.999829 -74.18 0.018209 13.750
8.90170000 0.018202 17.947 0.999829 -74.18 0.999829 -74.18 0.018199 13.725
8.90180000 0.018192 17.969 0.999829 -74.18 0.999829 -74.18 0.018189 13.700
8.90190000 0.018182 17.991 0.999829 -74.18 0.999829 -74.18 0.018178 13.674
8.90200000 0.018172 18.014 0.999829 -74.18 0.999829 -74.18 0.018168 13.649
8.90210000 0.018161 18.036 0.999830 -74.18 0.999830 -74.18 0.018158 13.623
8.90220000 0.018151 18.059 0.999830 -74.19 0.999830 -74.19 0.018148 13.597
8.90230000 0.018141 18.082 0.999830 -74.19 0.999830 -74.19 0.018137 13.571
8.90240000 0.018130 18.105 0.999830 -74.19 0.999830 -74.19 0.018127 13.545
8.90250000 0.018120 18.128 0.999830 -74.19 0.999830 -74.19 0.018117 13.519
8.90260000 0.018110 18.151 0.999831 -74.19 0.999831 -74.19 0.018106 13.493
8.90270000 0.018099 18.174 0.999831 -74.19 0.999831 -74.19 0.018096 13.467
8.90280000 0.018089 18.198 0.999831 -74.19 0.999831 -74.19 0.018085 13.440
8.90290000 0.018078 18.221 0.999831 -74.20 0.999831 -74.20 0.018075 13.413
8.90300000 0.018068 18.245 0.999831 -74.20 0.999831 -74.20 0.018064 13.387
8.90310000 0.018057 18.268 0.999831 -74.20 0.999831 -74.20 0.018054 13.360
8.90320000 0.018046 18.292 0.999832 -74.20 0.999832 -74.20 0.018043 13.333
8.90330000 0.018036 18.316 0.999832 -74.20 0.999832 -74.20 0.018032 13.306
8.90340000 0.018025 18.340 0.999832 -74.20 0.999832 -74.20 0.018022 13.278
8.90350000 0.018014 18.364 0.999832 -74.21 0.999832 -74.21 0.018011 13.251
8.90360000 0.018004 18.389 0.999832 -74.21 0.999832 -74.21 0.018000 13.224
8.90370000 0.017993 18.413 0.999833 -74.21 0.999833 -74.21 0.017989 13.196
8.90380000 0.017982 18.438 0.999833 -74.21 0.999833 -74.21 0.017978 13.168
8.90390000 0.017971 18.462 0.999833 -74.21 0.999833 -74.21 0.017968 13.140
8.90400000 0.017960 18.487 0.999833 -74.21 0.999833 -74.21 0.017957 13.112
8.90410000 0.017949 18.512 0.999833 -74.22 0.999833 -74.22 0.017946 13.084
8.90420000 0.017938 18.537 0.999833 -74.22 0.999833 -74.22 0.017935 13.056
8.90430000 0.017927 18.562 0.999834 -74.22 0.999834 -74.22 0.017924 13.028
8.90440000 0.017916 18.587 0.999834 -74.22 0.999834 -74.22 0.017913 12.999
8.90450000 0.017905 18.613 0.999834 -74.22 0.999834 -74.22 0.017902 12.971
8.90460000 0.017894 18.638 0.999834 -74.22 0.999834 -74.22 0.017891 12.942
8.90470000 0.017883 18.664 0.999834 -74.23 0.999834 -74.23 0.017879 12.913
8.90480000 0.017872 18.690 0.999835 -74.23 0.999835 -74.23 0.017868 12.884
8.90490000 0.017861 18.716 0.999835 -74.23 0.999835 -74.23 0.017857 12.855
8.90500000 0.017849 18.742 0.999835 -74.23 0.999835 -74.23 0.017846 12.825
8.90510000 0.017838 18.768 0.999835 -74.23 0.999835 -74.23 0.017834 12.796
8.90520000 0.017827 18.794 0.999835 -74.23 0.999835 -74.23 0.017823 12.766
8.90530000 0.017816 18.821 0.999836 -74.24 0.999836 -74.24 0.017812 12.736
8.90540000 0.017804 18.847 0.999836 -74.24 0.999836 -74.24 0.017800 12.707
8.90550000 0.017793 18.874 0.999836 -74.24 0.999836 -74.24 0.017789 12.677
8.90560000 0.017781 18.901 0.999836 -74.24 0.999836 -74.24 0.017777 12.646
8.90570000 0.017770 18.928 0.999836 -74.24 0.999836 -74.24 0.017766 12.616
8.90580000 0.017758 18.955 0.999836 -74.24 0.999836 -74.24 0.017754 12.586
8.90590000 0.017747 18.982 0.999837 -74.25 0.999837 -74.25 0.017743 12.555
8.90600000 0.017735 19.010 0.999837 -74.25 0.999837 -74.25 0.017731 12.524
8.90610000 0.017723 19.037 0.999837 -74.25 0.999837 -74.25 0.017719 12.493
8.90620000 0.017712 19.065 0.999837 -74.25 0.999837 -74.25 0.017708 12.462
8.90630000 0.017700 19.093 0.999837 -74.25 0.999837 -74.25 0.017696 12.431
8.90640000 0.017688 19.121 0.999838 -74.25 0.999838 -74.25 0.017684 12.400
8.90650000 0.017676 19.149 0.999838 -74.26 0.999838 -74.26 0.017672 12.368
8.90660000 0.017664 19.178 0.999838 -74.26 0.999838 -74.26 0.017660 12.336
8.90670000 0.017653 19.206 0.999838 -74.26 0.999838 -74.26 0.017648 12.305
8.90680000 0.017641 19.235 0.999838 -74.26 0.999838 -74.26 0.017636 12.273
8.90690000 0.017629 19.263 0.999839 -74.26 0.999839 -74.26 0.017624 12.240
8.90700000 0.017617 19.292 0.999839 -74.26 0.999839 -74.26 0.017612 12.208
8.90710000 0.017605 19.321 0.999839 -74.27 0.999839 -74.27 0.017600 12.176
8.90720000 0.017592 19.351 0.999839 -74.27 0.999839 -74.27 0.017588 12.143
8.90730000 0.017580 19.380 0.999839 -74.27 0.999839 -74.27 0.017576 12.110
8.90740000 0.017568 19.410 0.999840 -74.27 0.999840 -74.27 0.017564 12.077
8.90750000 0.017556 19.439 0.999840 -74.27 0.999840 -74.27 0.017552 12.044
8.90760000 0.017544 19.469 0.999840 -74.28 0.999840 -74.28 0.017539 12.011
8.90770000 0.017531 19.499 0.999840 -74.28 0.999840 -74.28 0.017527 11.977
8.90780000 0.017519 19.530 0.999840 -74.28 0.999840 -74.28 0.017515 11.944
8.90790000 0.017507 19.560 0.999841 -74.28 0.999841 -74.28 0.017502 11.910
8.90800000 0.017494 19.590 0.999841 -74.28 0.999841 -74.28 0.017490 11.876
8.90810000 0.017482 19.621 0.999841 -74.28 0.999841 -74.28 0.017477 11.842
8.90820000 0.017469 19.652 0.999841 -74.29 0.999841 -74.29 0.017465 11.807
8.90830000 0.017457 19.683 0.999841 -74.29 0.999841 -74.29 0.017452 11.773
8.90840000 0.017444 19.714 0.999842 -74.29 0.999842 -74.29 0.017440 11.738
8.90850000 0.017431 19.746 0.999842 -74.29 0.999842 -74.29 0.017427 11.703
8.90860000 0.017419 19.777 0.999842 -74.29 0.999842 -74.29 0.017414 11.668
8.90870000 0.017406 19.809 0.999842 -74.29 0.999842 -74.29 0.017401 11.633
8.90880000 0.017393 19.841 0.999843 -74.30 0.999843 -74.30 0.017389 11.597
8.90890000 0.017380 19.873 0.999843 -74.30 0.999843 -74.30 0.017376 11.562
8.90900000 0.017368 19.905 0.999843 -74.30 0.999843 -74.30 0.017363 11.526
8.90910000 0.017355 19.938 0.999843 -74.30 0.999843 -74.30 0.017350 11.490
8.90920000 0.017342 19.970 0.999843 -74.30 0.999843 -74.30 0.017337 11.454
8.90930000 0.017329 20.003 0.999844 -74.31 0.999844 -74.31 0.017324 11.418
8.90940000 0.017316 20.036 0.999844 -74.31 0.999844 -74.31 0.017311 11.381
8.90950000 0.017303 20.069 0.999844 -74.31 0.999844 -74.31 0.017298 11.344
8.90960000 0.017289 20.103 0.999844 -74.31 0.999844 -74.31 0.017285 11.307
8.90970000 0.017276 20.136 0.999844 -74.31 0.999844 -74.31 0.017272 11.270
8.90980000 0.017263 20.170 0.999845 -74.31 0.999845 -74.31 0.017258 11.233
8.90990000 0.017250 20.204 0.999845 -74.32 0.999845 -74.32 0.017245 11.195
8.91000000 0.017236 20.238 0.999845 -74.32 0.999845 -74.32 0.017232 11.158
8.91010000 0.017223 20.273 0.999845 -74.32 0.999845 -74.32 0.017218 11.120
8.91020000 0.017210 20.307 0.999846 -74.32 0.999846 -74.32 0.017205 11.081
8.91030000 0.017196 20.342 0.999846 -74.32 0.999846 -74.32 0.017191 11.043
8.91040000 0.017183 20.377 0.999846 -74.33 0.999846 -74.33 0.017178 11.004
8.91050000 0.017169 20.412 0.999846 -74.33 0.999846 -74.33 0.017164 10.966
8.91060000 0.017156 20.447 0.999846 -74.33 0.999846 -74.33 0.017151 10.927
8.91070000 0.017142 20.483 0.999847 -74.33 0.999847 -74.33 0.017137 10.887
8.91080000 0.017128 20.519 0.999847 -74.33 0.999847 -74.33 0.017123 10.848
8.91090000 0.017114 20.555 0.999847 -74.33 0.999847 -74.33 0.017109 10.808
8.91100000 0.017101 20.591 0.999847 -74.34 0.999847 -74.34 0.017096 10.769
8.91110000 0.017087 20.627 0.999847 -74.34 0.999847 -74.34 0.017082 10.728
8.91120000 0.017073 20.664 0.999848 -74.34 0.999848 -74.34 0.017068 10.688
8.91130000 0.017059 20.701 0.999848 -74.34 0.999848 -74.34 0.017054 10.648
8.91140000 0.017045 20.738 0.999848 -74.34 0.999848 -74.34 0.017040 10.607
8.91150000 0.017031 20.775 0.999848 -74.35 0.999848 -74.35 0.017026 10.566
8.91160000 0.017017 20.813 0.999849 -74.35 0.999849 -74.35 0.017012 10.525
8.91170000 0.017003 20.850 0.999849 -74.35 0.999849 -74.35 0.016998 10.483
8.91180000 0.016989 20.888 0.999849 -74.35 0.999849 -74.35 0.016983 10.442
8.91190000 0.016974 20.927 0.999849 -74.35 0.999849 -74.35 0.016969 10.400
8.91200000 0.016960 20.965 0.999849 -74.36 0.999849 -74.36 0.016955 10.357
8.91210000 0.016946 21.004 0.999850 -74.36 0.999850 -74.36 0.016940 10.315
8.91220000 0.016931 21.043 0.999850 -74.36 0.999850 -74.36 0.016926 10.272
8.91230000 0.016917 21.082 0.999850 -74.36 0.999850 -74.36 0.016911 10.229
8.91240000 0.016902 21.121 0.999850 -74.36 0.999850 -74.36 0.016897 10.186
8.91250000 0.016888 21.161 0.999851 -74.37 0.999851 -74.37 0.016882 10.143
8.91260000 0.016873 21.201 0.999851 -74.37 0.999851 -74.37 0.016868 10.099
8.91270000 0.016859 21.241 0.999851 -74.37 0.999851 -74.37 0.016853 10.055
8.91280000 0.016844 21.281 0.999851 -74.37 0.999851 -74.37 0.016838 10.011
8.91290000 0.016829 21.322 0.999852 -74.37 0.999852 -74.37 0.016824 9.9669
8.91300000 0.016814 21.362 0.999852 -74.38 0.999852 -74.38 0.016809 9.9222
8.91310000 0.016799 21.404 0.999852 -74.38 0.999852 -74.38 0.016794 9.8772
8.91320000 0.016785 21.445 0.999852 -74.38 0.999852 -74.38 0.016779 9.8320
8.91330000 0.016770 21.486 0.999852 -74.38 0.999852 -74.38 0.016764 9.7866
8.91340000 0.016755 21.528 0.999853 -74.38 0.999853 -74.38 0.016749 9.7408
8.91350000 0.016739 21.570 0.999853 -74.39 0.999853 -74.39 0.016734 9.6948
8.91360000 0.016724 21.613 0.999853 -74.39 0.999853 -74.39 0.016719 9.6486
8.91370000 0.016709 21.656 0.999853 -74.39 0.999853 -74.39 0.016703 9.6020
8.91380000 0.016694 21.698 0.999854 -74.39 0.999854 -74.39 0.016688 9.5552
8.91390000 0.016679 21.742 0.999854 -74.39 0.999854 -74.39 0.016673 9.5080
8.91400000 0.016663 21.785 0.999854 -74.40 0.999854 -74.40 0.016657 9.4606
8.91410000 0.016648 21.829 0.999854 -74.40 0.999854 -74.40 0.016642 9.4129
8.91420000 0.016632 21.873 0.999855 -74.40 0.999855 -74.40 0.016626 9.3650
8.91430000 0.016617 21.917 0.999855 -74.40 0.999855 -74.40 0.016611 9.3167
8.91440000 0.016601 21.962 0.999855 -74.40 0.999855 -74.40 0.016595 9.2681
8.91450000 0.016586 22.007 0.999855 -74.41 0.999855 -74.41 0.016580 9.2192
8.91460000 0.016570 22.052 0.999856 -74.41 0.999856 -74.41 0.016564 9.1701
8.91470000 0.016554 22.098 0.999856 -74.41 0.999856 -74.41 0.016548 9.1206
8.91480000 0.016538 22.143 0.999856 -74.41 0.999856 -74.41 0.016532 9.0708
8.91490000 0.016522 22.189 0.999856 -74.41 0.999856 -74.41 0.016516 9.0207
8.91500000 0.016507 22.236 0.999857 -74.42 0.999857 -74.42 0.016500 8.9703
8.91510000 0.016491 22.282 0.999857 -74.42 0.999857 -74.42 0.016484 8.9196
8.91520000 0.016474 22.329 0.999857 -74.42 0.999857 -74.42 0.016468 8.8686
8.91530000 0.016458 22.377 0.999857 -74.42 0.999857 -74.42 0.016452 8.8172
8.91540000 0.016442 22.424 0.999858 -74.42 0.999858 -74.42 0.016436 8.7656
8.91550000 0.016426 22.472 0.999858 -74.43 0.999858 -74.43 0.016420 8.7136
8.91560000 0.016410 22.521 0.999858 -74.43 0.999858 -74.43 0.016403 8.6612
8.91570000 0.016393 22.569 0.999858 -74.43 0.999858 -74.43 0.016387 8.6086
8.91580000 0.016377 22.618 0.999859 -74.43 0.999859 -74.43 0.016370 8.5556
8.91590000 0.016360 22.667 0.999859 -74.43 0.999859 -74.43 0.016354 8.5022
8.91600000 0.016344 22.717 0.999859 -74.44 0.999859 -74.44 0.016337 8.4485
8.91610000 0.016327 22.767 0.999859 -74.44 0.999859 -74.44 0.016321 8.3945
8.91620000 0.016311 22.817 0.999860 -74.44 0.999860 -74.44 0.016304 8.3401
8.91630000 0.016294 22.868 0.999860 -74.44 0.999860 -74.44 0.016287 8.2854
8.91640000 0.016277 22.918 0.999860 -74.45 0.999860 -74.45 0.016270 8.2303
8.91650000 0.016260 22.970 0.999860 -74.45 0.999860 -74.45 0.016254 8.1749
8.91660000 0.016243 23.021 0.999861 -74.45 0.999861 -74.45 0.016237 8.1191
8.91670000 0.016226 23.073 0.999861 -74.45 0.999861 -74.45 0.016220 8.0629
8.91680000 0.016209 23.126 0.999861 -74.45 0.999861 -74.45 0.016202 8.0063
8.91690000 0.016192 23.178 0.999861 -74.46 0.999861 -74.46 0.016185 7.9494
8.91700000 0.016175 23.231 0.999862 -74.46 0.999862 -74.46 0.016168 7.8921
8.91710000 0.016158 23.285 0.999862 -74.46 0.999862 -74.46 0.016151 7.8345
8.91720000 0.016141 23.339 0.999862 -74.46 0.999862 -74.46 0.016134 7.7764
8.91730000 0.016123 23.393 0.999862 -74.46 0.999862 -74.46 0.016116 7.7180
8.91740000 0.016106 23.447 0.999863 -74.47 0.999863 -74.47 0.016099 7.6591
8.91750000 0.016088 23.502 0.999863 -74.47 0.999863 -74.47 0.016081 7.5999
8.91760000 0.016071 23.558 0.999863 -74.47 0.999863 -74.47 0.016064 7.5402
8.91770000 0.016053 23.613 0.999863 -74.47 0.999863 -74.47 0.016046 7.4802
8.91780000 0.016035 23.669 0.999864 -74.48 0.999864 -74.48 0.016028 7.4198
8.91790000 0.016018 23.726 0.999864 -74.48 0.999864 -74.48 0.016010 7.3589
8.91800000 0.016000 23.783 0.999864 -74.48 0.999864 -74.48 0.015992 7.2976
8.91810000 0.015982 23.840 0.999864 -74.48 0.999864 -74.48 0.015975 7.2359
8.91820000 0.015964 23.898 0.999865 -74.48 0.999865 -74.48 0.015957 7.1738
8.91830000 0.015946 23.956 0.999865 -74.49 0.999865 -74.49 0.015938 7.1113
8.91840000 0.015928 24.015 0.999865 -74.49 0.999865 -74.49 0.015920 7.0483
8.91850000 0.015910 24.074 0.999865 -74.49 0.999865 -74.49 0.015902 6.9849
8.91860000 0.015892 24.133 0.999866 -74.49 0.999866 -74.49 0.015884 6.9210
8.91870000 0.015873 24.193 0.999866 -74.50 0.999866 -74.50 0.015865 6.8567
8.91880000 0.015855 24.253 0.999866 -74.50 0.999866 -74.50 0.015847 6.7919
8.91890000 0.015836 24.314 0.999867 -74.50 0.999867 -74.50 0.015829 6.7267
8.91900000 0.015818 24.375 0.999867 -74.50 0.999867 -74.50 0.015810 6.6610
8.91910000 0.015799 24.437 0.999867 -74.51 0.999867 -74.51 0.015791 6.5949
8.91920000 0.015781 24.499 0.999867 -74.51 0.999867 -74.51 0.015773 6.5282
8.91930000 0.015762 24.562 0.999868 -74.51 0.999868 -74.51 0.015754 6.4612
8.91940000 0.015743 24.625 0.999868 -74.51 0.999868 -74.51 0.015735 6.3936
8.91950000 0.015724 24.688 0.999868 -74.51 0.999868 -74.51 0.015716 6.3255
8.91960000 0.015705 24.752 0.999868 -74.52 0.999868 -74.52 0.015697 6.2570
8.91970000 0.015686 24.817 0.999869 -74.52 0.999869 -74.52 0.015678 6.1879
8.91980000 0.015667 24.882 0.999869 -74.52 0.999869 -74.52 0.015659 6.1184
8.91990000 0.015648 24.947 0.999869 -74.52 0.999869 -74.52 0.015640 6.0483
8.92000000 0.015629 25.013 0.999869 -74.53 0.999869 -74.53 0.015620 5.9777
8.92010000 0.015610 25.080 0.999870 -74.53 0.999870 -74.53 0.015601 5.9067
8.92020000 0.015590 25.147 0.999870 -74.53 0.999870 -74.53 0.015582 5.8351
8.92030000 0.015571 25.214 0.999870 -74.53 0.999870 -74.53 0.015562 5.7629
8.92040000 0.015551 25.282 0.999871 -74.54 0.999871 -74.54 0.015543 5.6902
8.92050000 0.015532 25.351 0.999871 -74.54 0.999871 -74.54 0.015523 5.6170
8.92060000 0.015512 25.420 0.999871 -74.54 0.999871 -74.54 0.015503 5.5433
8.92070000 0.015492 25.489 0.999871 -74.54 0.999871 -74.54 0.015483 5.4689
8.92080000 0.015472 25.559 0.999872 -74.55 0.999872 -74.55 0.015464 5.3941
8.92090000 0.015452 25.630 0.999872 -74.55 0.999872 -74.55 0.015444 5.3186
8.92100000 0.015433 25.701 0.999872 -74.55 0.999872 -74.55 0.015424 5.2426
8.92110000 0.015412 25.773 0.999873 -74.55 0.999873 -74.55 0.015403 5.1660
8.92120000 0.015392 25.845 0.999873 -74.56 0.999873 -74.56 0.015383 5.0889
8.92130000 0.015372 25.918 0.999873 -74.56 0.999873 -74.56 0.015363 5.0111
8.92140000 0.015352 25.992 0.999873 -74.56 0.999873 -74.56 0.015343 4.9328
8.92150000 0.015331 26.066 0.999874 -74.56 0.999874 -74.56 0.015322 4.8538
8.92160000 0.015311 26.141 0.999874 -74.57 0.999874 -74.57 0.015302 4.7742
8.92170000 0.015291 26.216 0.999874 -74.57 0.999874 -74.57 0.015281 4.6940
8.92180000 0.015270 26.292 0.999875 -74.57 0.999875 -74.57 0.015260 4.6132
8.92190000 0.015249 26.369 0.999875 -74.57 0.999875 -74.57 0.015240 4.5318
8.92200000 0.015228 26.446 0.999875 -74.58 0.999875 -74.58 0.015219 4.4497
8.92210000 0.015208 26.523 0.999875 -74.58 0.999875 -74.58 0.015198 4.3670
8.92220000 0.015187 26.602 0.999876 -74.58 0.999876 -74.58 0.015177 4.2836
8.92230000 0.015166 26.681 0.999876 -74.58 0.999876 -74.58 0.015156 4.1995
8.92240000 0.015145 26.761 0.999876 -74.59 0.999876 -74.59 0.015135 4.1148
8.92250000 0.015124 26.841 0.999877 -74.59 0.999877 -74.59 0.015114 4.0294
8.92260000 0.015102 26.922 0.999877 -74.59 0.999877 -74.59 0.015092 3.9434
8.92270000 0.015081 27.004 0.999877 -74.59 0.999877 -74.59 0.015071 3.8566
8.92280000 0.015060 27.086 0.999877 -74.60 0.999877 -74.60 0.015049 3.7691
8.92290000 0.015038 27.169 0.999878 -74.60 0.999878 -74.60 0.015028 3.6810
8.92300000 0.015017 27.253 0.999878 -74.60 0.999878 -74.60 0.015006 3.5921
8.92310000 0.014995 27.338 0.999878 -74.60 0.999878 -74.60 0.014985 3.5024
8.92320000 0.014973 27.423 0.999879 -74.61 0.999879 -74.61 0.014963 3.4121
8.92330000 0.014951 27.509 0.999879 -74.61 0.999879 -74.61 0.014941 3.3210
8.92340000 0.014930 27.595 0.999879 -74.61 0.999879 -74.61 0.014919 3.2292
8.92350000 0.014908 27.683 0.999879 -74.62 0.999879 -74.62 0.014897 3.1366
8.92360000 0.014885 27.771 0.999880 -74.62 0.999880 -74.62 0.014875 3.0432
8.92370000 0.014863 27.860 0.999880 -74.62 0.999880 -74.62 0.014853 2.9490
8.92380000 0.014841 27.950 0.999880 -74.62 0.999880 -74.62 0.014830 2.8541
8.92390000 0.014819 28.040 0.999881 -74.63 0.999881 -74.63 0.014808 2.7583
8.92400000 0.014796 28.131 0.999881 -74.63 0.999881 -74.63 0.014785 2.6618
8.92410000 0.014774 28.223 0.999881 -74.63 0.999881 -74.63 0.014763 2.5644
8.92420000 0.014751 28.316 0.999881 -74.63 0.999881 -74.63 0.014740 2.4662
8.92430000 0.014729 28.410 0.999882 -74.64 0.999882 -74.64 0.014718 2.3672
8.92440000 0.014706 28.504 0.999882 -74.64 0.999882 -74.64 0.014695 2.2673
8.92450000 0.014683 28.600 0.999882 -74.64 0.999882 -74.64 0.014672 2.1666
8.92460000 0.014660 28.696 0.999883 -74.65 0.999883 -74.65 0.014649 2.0650
8.92470000 0.014637 28.793 0.999883 -74.65 0.999883 -74.65 0.014626 1.9625
8.92480000 0.014614 28.891 0.999883 -74.65 0.999883 -74.65 0.014603 1.8591
8.92490000 0.014591 28.990 0.999884 -74.65 0.999884 -74.65 0.014580 1.7548
8.92500000 0.014568 29.090 0.999884 -74.66 0.999884 -74.66 0.014556 1.6496
8.92510000 0.014545 29.190 0.999884 -74.66 0.999884 -74.66 0.014533 1.5435
8.92520000 0.014521 29.292 0.999884 -74.66 0.999884 -74.66 0.014509 1.4365
8.92530000 0.014498 29.394 0.999885 -74.67 0.999885 -74.67 0.014486 1.3284
8.92540000 0.014474 29.497 0.999885 -74.67 0.999885 -74.67 0.014462 1.2195
8.92550000 0.014451 29.602 0.999885 -74.67 0.999885 -74.67 0.014438 1.1095
8.92560000 0.014427 29.707 0.999886 -74.67 0.999886 -74.67 0.014415 0.9986
8.92570000 0.014403 29.813 0.999886 -74.68 0.999886 -74.68 0.014391 0.8867
8.92580000 0.014379 29.921 0.999886 -74.68 0.999886 -74.68 0.014367 0.7738
8.92590000 0.014355 30.029 0.999887 -74.68 0.999887 -74.68 0.014343 0.6598
8.92600000 0.014331 30.138 0.999887 -74.69 0.999887 -74.69 0.014318 0.5448
8.92610000 0.014307 30.248 0.999887 -74.69 0.999887 -74.69 0.014294 0.4288
8.92620000 0.014283 30.360 0.999887 -74.69 0.999887 -74.69 0.014270 0.3117
8.92630000 0.014258 30.472 0.999888 -74.70 0.999888 -74.70 0.014245 0.1935
8.92640000 0.014234 30.586 0.999888 -74.70 0.999888 -74.70 0.014221 0.0742
8.92650000 0.014209 30.700 0.999888 -74.70 0.999888 -74.70 0.014196 -0.046
8.92660000 0.014185 30.816 0.999889 -74.70 0.999889 -74.70 0.014172 -0.168
8.92670000 0.014160 30.933 0.999889 -74.71 0.999889 -74.71 0.014147 -0.290
8.92680000 0.014135 31.050 0.999889 -74.71 0.999889 -74.71 0.014122 -0.414
8.92690000 0.014111 31.169 0.999890 -74.71 0.999890 -74.71 0.014097 -0.539
8.92700000 0.014086 31.290 0.999890 -74.72 0.999890 -74.72 0.014072 -0.665
8.92710000 0.014061 31.411 0.999890 -74.72 0.999890 -74.72 0.014047 -0.793
8.92720000 0.014036 31.533 0.999890 -74.72 0.999890 -74.72 0.014022 -0.921
8.92730000 0.014010 31.657 0.999891 -74.73 0.999891 -74.73 0.013996 -1.051
8.92740000 0.013985 31.782 0.999891 -74.73 0.999891 -74.73 0.013971 -1.182
8.92750000 0.013960 31.908 0.999891 -74.73 0.999891 -74.73 0.013945 -1.314
8.92760000 0.013934 32.036 0.999892 -74.74 0.999892 -74.74 0.013920 -1.448
8.92770000 0.013909 32.164 0.999892 -74.74 0.999892 -74.74 0.013894 -1.583
8.92780000 0.013883 32.294 0.999892 -74.74 0.999892 -74.74 0.013869 -1.719
8.92790000 0.013858 32.426 0.999893 -74.75 0.999893 -74.75 0.013843 -1.856
8.92800000 0.013832 32.558 0.999893 -74.75 0.999893 -74.75 0.013817 -1.995
8.92810000 0.013806 32.692 0.999893 -74.75 0.999893 -74.75 0.013791 -2.135
8.92820000 0.013780 32.828 0.999893 -74.76 0.999893 -74.76 0.013765 -2.277
8.92830000 0.013754 32.964 0.999894 -74.76 0.999894 -74.76 0.013739 -2.420
8.92840000 0.013728 33.103 0.999894 -74.76 0.999894 -74.76 0.013713 -2.565
8.92850000 0.013702 33.242 0.999894 -74.77 0.999894 -74.77 0.013686 -2.711
8.92860000 0.013676 33.383 0.999895 -74.77 0.999895 -74.77 0.013660 -2.858
8.92870000 0.013649 33.525 0.999895 -74.77 0.999895 -74.77 0.013634 -3.007
8.92880000 0.013623 33.669 0.999895 -74.78 0.999895 -74.78 0.013607 -3.157
8.92890000 0.013596 33.815 0.999896 -74.78 0.999896 -74.78 0.013580 -3.309
8.92900000 0.013570 33.962 0.999896 -74.78 0.999896 -74.78 0.013554 -3.463
8.92910000 0.013543 34.110 0.999896 -74.79 0.999896 -74.79 0.013527 -3.618
8.92920000 0.013517 34.260 0.999897 -74.79 0.999897 -74.79 0.013500 -3.774
8.92930000 0.013490 34.412 0.999897 -74.79 0.999897 -74.79 0.013473 -3.933
8.92940000 0.013463 34.565 0.999897 -74.80 0.999897 -74.80 0.013446 -4.093
8.92950000 0.013436 34.720 0.999897 -74.80 0.999897 -74.80 0.013419 -4.254
8.92960000 0.013409 34.876 0.999898 -74.80 0.999898 -74.80 0.013392 -4.417
8.92970000 0.013382 35.035 0.999898 -74.81 0.999898 -74.81 0.013365 -4.582
8.92980000 0.013355 35.195 0.999898 -74.81 0.999898 -74.81 0.013338 -4.749
8.92990000 0.013328 35.356 0.999899 -74.81 0.999899 -74.81 0.013310 -4.918
8.93000000 0.013300 35.520 0.999899 -74.82 0.999899 -74.82 0.013283 -5.088
8.93010000 0.013273 35.685 0.999899 -74.82 0.999899 -74.82 0.013255 -5.260
8.93020000 0.013246 35.852 0.999900 -74.82 0.999900 -74.82 0.013228 -5.434
8.93030000 0.013218 36.020 0.999900 -74.83 0.999900 -74.83 0.013200 -5.610
8.93040000 0.013191 36.191 0.999900 -74.83 0.999900 -74.83 0.013173 -5.788
8.93050000 0.013163 36.364 0.999900 -74.84 0.999900 -74.84 0.013145 -5.967
8.93060000 0.013136 36.538 0.999901 -74.84 0.999901 -74.84 0.013117 -6.149
8.93070000 0.013108 36.715 0.999901 -74.84 0.999901 -74.84 0.013089 -6.332
8.93080000 0.013080 36.893 0.999901 -74.85 0.999901 -74.85 0.013061 -6.518
8.93090000 0.013052 37.073 0.999902 -74.85 0.999902 -74.85 0.013033 -6.706
8.93100000 0.013024 37.256 0.999902 -74.85 0.999902 -74.85 0.013005 -6.895
8.93110000 0.012997 37.440 0.999902 -74.86 0.999902 -74.86 0.012977 -7.087
8.93120000 0.012969 37.627 0.999902 -74.86 0.999902 -74.86 0.012949 -7.281
8.93130000 0.012941 37.816 0.999903 -74.87 0.999903 -74.87 0.012921 -7.477
8.93140000 0.012912 38.006 0.999903 -74.87 0.999903 -74.87 0.012893 -7.676
8.93150000 0.012884 38.199 0.999903 -74.87 0.999903 -74.87 0.012864 -7.876
8.93160000 0.012856 38.395 0.999904 -74.88 0.999904 -74.88 0.012836 -8.079
8.93170000 0.012828 38.592 0.999904 -74.88 0.999904 -74.88 0.012808 -8.284
8.93180000 0.012800 38.792 0.999904 -74.88 0.999904 -74.88 0.012779 -8.492
8.93190000 0.012772 38.994 0.999904 -74.89 0.999904 -74.89 0.012751 -8.702
8.93200000 0.012743 39.199 0.999905 -74.89 0.999905 -74.89 0.012722 -8.914
8.93210000 0.012715 39.406 0.999905 -74.90 0.999905 -74.90 0.012694 -9.128
8.93220000 0.012687 39.615 0.999905 -74.90 0.999905 -74.90 0.012665 -9.346
8.93230000 0.012658 39.827 0.999906 -74.90 0.999906 -74.90 0.012637 -9.565
8.93240000 0.012630 40.041 0.999906 -74.91 0.999906 -74.91 0.012608 -9.787
8.93250000 0.012602 40.258 0.999906 -74.91 0.999906 -74.91 0.012580 -10.01
8.93260000 0.012573 40.477 0.999906 -74.92 0.999906 -74.92 0.012551 -10.24
8.93270000 0.012545 40.699 0.999907 -74.92 0.999907 -74.92 0.012522 -10.47
8.93280000 0.012516 40.924 0.999907 -74.93 0.999907 -74.93 0.012494 -10.70
8.93290000 0.012488 41.151 0.999907 -74.93 0.999907 -74.93 0.012465 -10.94
8.93300000 0.012459 41.381 0.999908 -74.93 0.999908 -74.93 0.012436 -11.18
8.93310000 0.012431 41.614 0.999908 -74.94 0.999908 -74.94 0.012408 -11.42
8.93320000 0.012403 41.850 0.999908 -74.94 0.999908 -74.94 0.012379 -11.66
8.93330000 0.012374 42.088 0.999908 -74.95 0.999908 -74.95 0.012350 -11.91
8.93340000 0.012346 42.330 0.999909 -74.95 0.999909 -74.95 0.012322 -12.16
8.93350000 0.012317 42.574 0.999909 -74.95 0.999909 -74.95 0.012293 -12.41
8.93360000 0.012289 42.822 0.999909 -74.96 0.999909 -74.96 0.012265 -12.67
8.93370000 0.012261 43.072 0.999909 -74.96 0.999909 -74.96 0.012236 -12.93
8.93380000 0.012232 43.326 0.999910 -74.97 0.999910 -74.97 0.012208 -13.19
8.93390000 0.012204 43.582 0.999910 -74.97 0.999910 -74.97 0.012179 -13.45
8.93400000 0.012176 43.842 0.999910 -74.98 0.999910 -74.98 0.012151 -13.72
8.93410000 0.012148 44.105 0.999910 -74.98 0.999910 -74.98 0.012122 -14.00
8.93420000 0.012120 44.372 0.999911 -74.99 0.999911 -74.99 0.012094 -14.27
8.93430000 0.012092 44.641 0.999911 -74.99 0.999911 -74.99 0.012066 -14.55
8.93440000 0.012064 44.914 0.999911 -74.99 0.999911 -74.99 0.012037 -14.83
8.93450000 0.012036 45.191 0.999911 -75.00 0.999911 -75.00 0.012009 -15.12
8.93460000 0.012008 45.471 0.999911 -75.00 0.999911 -75.00 0.011981 -15.41
8.93470000 0.011980 45.754 0.999912 -75.01 0.999912 -75.01 0.011953 -15.70
8.93480000 0.011952 46.041 0.999912 -75.01 0.999912 -75.01 0.011925 -16.00
8.93490000 0.011925 46.332 0.999912 -75.02 0.999912 -75.02 0.011897 -16.30
8.93500000 0.011897 46.626 0.999912 -75.02 0.999912 -75.02 0.011869 -16.60
8.93510000 0.011870 46.924 0.999913 -75.03 0.999913 -75.03 0.011842 -16.91
8.93520000 0.011843 47.226 0.999913 -75.03 0.999913 -75.03 0.011814 -17.22
8.93530000 0.011816 47.532 0.999913 -75.04 0.999913 -75.04 0.011787 -17.54
8.93540000 0.011789 47.842 0.999913 -75.04 0.999913 -75.04 0.011760 -17.85
8.93550000 0.011762 48.155 0.999913 -75.05 0.999913 -75.05 0.011733 -18.18
8.93560000 0.011735 48.473 0.999914 -75.05 0.999914 -75.05 0.011706 -18.51
8.93570000 0.011709 48.794 0.999914 -75.06 0.999914 -75.06 0.011679 -18.84
8.93580000 0.011682 49.120 0.999914 -75.06 0.999914 -75.06 0.011652 -19.17
8.93590000 0.011656 49.450 0.999914 -75.07 0.999914 -75.07 0.011626 -19.51
8.93600000 0.011630 49.784 0.999914 -75.07 0.999914 -75.07 0.011599 -19.86
8.93610000 0.011605 50.123 0.999915 -75.08 0.999915 -75.08 0.011573 -20.21
8.93620000 0.011579 50.466 0.999915 -75.08 0.999915 -75.08 0.011547 -20.56
8.93630000 0.011554 50.813 0.999915 -75.09 0.999915 -75.09 0.011522 -20.92
8.93640000 0.011529 51.165 0.999915 -75.09 0.999915 -75.09 0.011496 -21.28
8.93650000 0.011504 51.521 0.999915 -75.10 0.999915 -75.10 0.011471 -21.65
8.93660000 0.011479 51.882 0.999915 -75.10 0.999915 -75.10 0.011446 -22.02
8.93670000 0.011455 52.247 0.999915 -75.11 0.999915 -75.11 0.011421 -22.40
8.93680000 0.011431 52.617 0.999916 -75.11 0.999916 -75.11 0.011397 -22.78
8.93690000 0.011407 52.992 0.999916 -75.12 0.999916 -75.12 0.011373 -23.17
8.93700000 0.011384 53.372 0.999916 -75.13 0.999916 -75.13 0.011349 -23.56
8.93710000 0.011361 53.757 0.999916 -75.13 0.999916 -75.13 0.011326 -23.95
8.93720000 0.011338 54.146 0.999916 -75.14 0.999916 -75.14 0.011303 -24.35
8.93730000 0.011315 54.541 0.999916 -75.14 0.999916 -75.14 0.011280 -24.76
8.93740000 0.011293 54.940 0.999916 -75.15 0.999916 -75.15 0.011257 -25.17
8.93750000 0.011272 55.345 0.999916 -75.15 0.999916 -75.15 0.011235 -25.59
8.93760000 0.011250 55.755 0.999917 -75.16 0.999917 -75.16 0.011214 -26.01
8.93770000 0.011229 56.170 0.999917 -75.16 0.999917 -75.16 0.011192 -26.44
8.93780000 0.011209 56.590 0.999917 -75.17 0.999917 -75.17 0.011172 -26.87
8.93790000 0.011189 57.015 0.999917 -75.18 0.999917 -75.18 0.011151 -27.31
8.93800000 0.011169 57.446 0.999917 -75.18 0.999917 -75.18 0.011131 -27.75
8.93810000 0.011150 57.883 0.999917 -75.19 0.999917 -75.19 0.011112 -28.20
8.93820000 0.011132 58.325 0.999917 -75.19 0.999917 -75.19 0.011093 -28.66
8.93830000 0.011114 58.772 0.999917 -75.20 0.999917 -75.20 0.011074 -29.12
8.93840000 0.011096 59.225 0.999917 -75.21 0.999917 -75.21 0.011057 -29.58
8.93850000 0.011079 59.683 0.999917 -75.21 0.999917 -75.21 0.011039 -30.06
8.93860000 0.011063 60.147 0.999917 -75.22 0.999917 -75.22 0.011022 -30.53
8.93870000 0.011047 60.617 0.999917 -75.22 0.999917 -75.22 0.011006 -31.02
8.93880000 0.011032 61.092 0.999917 -75.23 0.999917 -75.23 0.010991 -31.51
8.93890000 0.011018 61.574 0.999917 -75.24 0.999917 -75.24 0.010976 -32.00
8.93900000 0.011004 62.061 0.999917 -75.24 0.999917 -75.24 0.010962 -32.50
8.93910000 0.010991 62.554 0.999917 -75.25 0.999917 -75.25 0.010948 -33.01
8.93920000 0.010979 63.052 0.999917 -75.26 0.999917 -75.26 0.010935 -33.52