! Sonnet Data File
! From: emgraph Version : 16.52
! From Project: Resonator2_extremeCap2
! Data is De-embedded 
! Data File Written: 10/10/2017 17:29:14
!< HDATE 10/10/2017 13:14:23
!< MDATE 10/10/2017 13:14:23
!< PARAMS
!< Pwid1 = 2000.0
!< Pwid2 = 2000.0
!< Air_gap = 12.0
!< Width = 20.0
!< Gap = 103.0
!< END PARAMS
# GHZ S MA R 40.14000
8.98000000 0.370562 -6.725 0.928794 -95.37 0.928794 -95.37 0.370551 -4.010
!< P1 F=8.98 Eeff=(5.24939097 -2.3069e-5) Z0=(40.1264257 8.94314e-5) R=0.0 C=0.0 
!< P2 F=8.98 Eeff=(5.24939097 -2.3069e-5) Z0=(40.1264257 8.94314e-5) R=0.0 C=0.0 
8.98050000 0.370787 -6.725 0.928704 -95.39 0.928704 -95.39 0.370776 -4.051
8.98100000 0.371014 -6.725 0.928614 -95.41 0.928614 -95.41 0.371003 -4.092
8.98150000 0.371243 -6.725 0.928522 -95.43 0.928522 -95.43 0.371232 -4.133
8.98200000 0.371474 -6.725 0.928430 -95.45 0.928430 -95.45 0.371463 -4.175
8.98250000 0.371706 -6.725 0.928336 -95.47 0.928336 -95.47 0.371695 -4.217
8.98300000 0.371941 -6.725 0.928242 -95.49 0.928242 -95.49 0.371930 -4.259
8.98350000 0.372177 -6.725 0.928147 -95.51 0.928147 -95.51 0.372166 -4.302
8.98400000 0.372416 -6.725 0.928052 -95.53 0.928052 -95.53 0.372404 -4.345
8.98450000 0.372656 -6.725 0.927955 -95.56 0.927955 -95.56 0.372645 -4.389
8.98500000 0.372899 -6.724 0.927858 -95.58 0.927858 -95.58 0.372887 -4.432
8.98550000 0.373143 -6.724 0.927759 -95.60 0.927759 -95.60 0.373131 -4.476
8.98600000 0.373390 -6.724 0.927660 -95.62 0.927660 -95.62 0.373378 -4.521
8.98650000 0.373639 -6.723 0.927560 -95.64 0.927560 -95.64 0.373627 -4.565
8.98685819 0.373818 -6.723 0.927487 -95.66 0.927487 -95.66 0.373806 -4.598
8.98700000 0.373890 -6.723 0.927458 -95.67 0.927458 -95.67 0.373877 -4.611
8.98750000 0.374143 -6.723 0.927356 -95.69 0.927356 -95.69 0.374130 -4.656
8.98800000 0.374398 -6.722 0.927253 -95.71 0.927253 -95.71 0.374385 -4.702
8.98850000 0.374655 -6.722 0.927149 -95.73 0.927149 -95.73 0.374643 -4.748
8.98900000 0.374915 -6.721 0.927044 -95.76 0.927044 -95.76 0.374902 -4.795
8.98916234 0.375000 -6.721 0.927009 -95.76 0.927009 -95.76 0.374987 -4.810
8.98950000 0.375177 -6.720 0.926938 -95.78 0.926938 -95.78 0.375164 -4.842
8.99000000 0.375442 -6.720 0.926831 -95.80 0.926831 -95.80 0.375429 -4.889
8.99050000 0.375709 -6.719 0.926722 -95.83 0.926722 -95.83 0.375695 -4.937
8.99100000 0.375978 -6.718 0.926613 -95.85 0.926613 -95.85 0.375964 -4.985
8.99141370 0.376202 -6.718 0.926522 -95.87 0.926522 -95.87 0.376189 -5.025
8.99150000 0.376249 -6.718 0.926503 -95.87 0.926503 -95.87 0.376236 -5.033
8.99200000 0.376524 -6.717 0.926391 -95.90 0.926391 -95.90 0.376510 -5.082
8.99250000 0.376800 -6.716 0.926278 -95.92 0.926278 -95.92 0.376787 -5.132
8.99300000 0.377080 -6.715 0.926165 -95.95 0.926165 -95.95 0.377066 -5.181
8.99350000 0.377362 -6.714 0.926050 -95.97 0.926050 -95.97 0.377347 -5.232
8.99361347 0.377426 -6.714 0.926023 -95.98 0.926023 -95.98 0.377412 -5.243
8.99400000 0.377646 -6.713 0.925934 -96.00 0.925934 -96.00 0.377632 -5.282
8.99450000 0.377933 -6.712 0.925816 -96.02 0.925816 -96.02 0.377919 -5.333
8.99500000 0.378223 -6.711 0.925698 -96.05 0.925698 -96.05 0.378209 -5.385
8.99550000 0.378516 -6.710 0.925578 -96.07 0.925578 -96.07 0.378501 -5.437
8.99576284 0.378671 -6.709 0.925514 -96.08 0.925514 -96.08 0.378656 -5.464
8.99600000 0.378812 -6.708 0.925457 -96.10 0.925457 -96.10 0.378797 -5.489
8.99650000 0.379110 -6.707 0.925334 -96.12 0.925334 -96.12 0.379095 -5.542
8.99700000 0.379412 -6.706 0.925211 -96.15 0.925211 -96.15 0.379397 -5.596
8.99750000 0.379716 -6.704 0.925086 -96.18 0.925086 -96.18 0.379701 -5.650
8.99786295 0.379939 -6.703 0.924994 -96.19 0.924994 -96.19 0.379924 -5.689
8.99800000 0.380023 -6.703 0.924959 -96.20 0.924959 -96.20 0.380008 -5.704
8.99850000 0.380334 -6.702 0.924832 -96.23 0.924832 -96.23 0.380318 -5.759
8.99900000 0.380648 -6.700 0.924702 -96.26 0.924702 -96.26 0.380632 -5.814
8.99950000 0.380964 -6.699 0.924572 -96.28 0.924572 -96.28 0.380948 -5.870
8.99991494 0.381230 -6.697 0.924462 -96.30 0.924462 -96.30 0.381214 -5.917
9.00000000 0.381284 -6.697 0.924440 -96.31 0.924440 -96.31 0.381268 -5.926
9.00050000 0.381608 -6.695 0.924306 -96.34 0.924306 -96.34 0.381591 -5.983
9.00100000 0.381934 -6.694 0.924171 -96.37 0.924171 -96.37 0.381918 -6.041
9.00150000 0.382265 -6.692 0.924034 -96.39 0.924034 -96.39 0.382248 -6.099
9.00191992 0.382544 -6.690 0.923918 -96.42 0.923918 -96.42 0.382528 -6.148
9.00200000 0.382598 -6.690 0.923896 -96.42 0.923896 -96.42 0.382581 -6.157
9.00250000 0.382935 -6.688 0.923756 -96.45 0.923756 -96.45 0.382918 -6.216
9.00300000 0.383276 -6.686 0.923615 -96.48 0.923615 -96.48 0.383258 -6.276
9.00350000 0.383620 -6.684 0.923472 -96.51 0.923472 -96.51 0.383603 -6.336
9.00387895 0.383883 -6.683 0.923362 -96.53 0.923362 -96.53 0.383866 -6.383
9.00400000 0.383968 -6.682 0.923327 -96.54 0.923327 -96.54 0.383950 -6.397
9.00450000 0.384320 -6.680 0.923180 -96.57 0.923180 -96.57 0.384302 -6.459
9.00500000 0.384675 -6.678 0.923032 -96.60 0.923032 -96.60 0.384657 -6.521
9.00550000 0.385035 -6.676 0.922882 -96.63 0.922882 -96.63 0.385017 -6.584
9.00579309 0.385248 -6.675 0.922793 -96.65 0.922793 -96.65 0.385229 -6.621
9.00600000 0.385399 -6.674 0.922730 -96.66 0.922730 -96.66 0.385380 -6.647
9.00650000 0.385766 -6.672 0.922576 -96.69 0.922576 -96.69 0.385747 -6.711
9.00700000 0.386138 -6.669 0.922421 -96.72 0.922421 -96.72 0.386119 -6.775
9.00750000 0.386514 -6.667 0.922263 -96.75 0.922263 -96.75 0.386495 -6.841
9.00766338 0.386638 -6.666 0.922211 -96.76 0.922211 -96.76 0.386618 -6.862
9.00800000 0.386894 -6.665 0.922103 -96.78 0.922103 -96.78 0.386875 -6.907
9.00850000 0.387279 -6.662 0.921942 -96.82 0.921942 -96.82 0.387259 -6.973
9.00900000 0.387668 -6.660 0.921778 -96.85 0.921778 -96.85 0.387648 -7.041
9.00949081 0.388054 -6.657 0.921615 -96.88 0.921615 -96.88 0.388034 -7.108
9.00950000 0.388062 -6.657 0.921612 -96.88 0.921612 -96.88 0.388041 -7.109
9.01000000 0.388460 -6.654 0.921444 -96.91 0.921444 -96.91 0.388439 -7.178
9.01050000 0.388863 -6.652 0.921274 -96.95 0.921274 -96.95 0.388842 -7.247
9.01100000 0.389271 -6.649 0.921101 -96.98 0.921101 -96.98 0.389250 -7.317
9.01127636 0.389498 -6.648 0.921005 -97.00 0.921005 -97.00 0.389477 -7.357
9.01150000 0.389683 -6.646 0.920926 -97.01 0.920926 -97.01 0.389662 -7.388
9.01200000 0.390101 -6.644 0.920749 -97.05 0.920749 -97.05 0.390080 -7.460
9.01250000 0.390524 -6.641 0.920570 -97.08 0.920570 -97.08 0.390502 -7.533
9.01300000 0.390952 -6.638 0.920388 -97.12 0.920388 -97.12 0.390930 -7.606
9.01302100 0.390970 -6.638 0.920380 -97.12 0.920380 -97.12 0.390948 -7.609
9.01350000 0.391385 -6.635 0.920204 -97.15 0.920204 -97.15 0.391363 -7.680
9.01400000 0.391824 -6.632 0.920017 -97.19 0.920017 -97.19 0.391801 -7.755
9.01450000 0.392268 -6.629 0.919827 -97.23 0.919827 -97.23 0.392245 -7.831
9.01472567 0.392470 -6.627 0.919741 -97.24 0.919741 -97.24 0.392447 -7.866
9.01500000 0.392718 -6.626 0.919635 -97.26 0.919635 -97.26 0.392695 -7.908
9.01550000 0.393173 -6.623 0.919440 -97.30 0.919440 -97.30 0.393150 -7.986
9.01600000 0.393635 -6.619 0.919242 -97.34 0.919242 -97.34 0.393611 -8.064
9.01639127 0.394000 -6.617 0.919085 -97.37 0.919085 -97.37 0.393976 -8.126
9.01650000 0.394102 -6.616 0.919041 -97.38 0.919041 -97.38 0.394078 -8.144
9.01700000 0.394576 -6.613 0.918838 -97.42 0.918838 -97.42 0.394552 -8.224
9.01750000 0.395056 -6.610 0.918631 -97.45 0.918631 -97.45 0.395031 -8.305
9.01800000 0.395542 -6.606 0.918422 -97.49 0.918422 -97.49 0.395517 -8.388
9.01801871 0.395560 -6.606 0.918414 -97.50 0.918414 -97.50 0.395536 -8.391
9.01850000 0.396035 -6.603 0.918209 -97.53 0.918209 -97.53 0.396010 -8.471
9.01900000 0.396534 -6.599 0.917993 -97.57 0.917993 -97.57 0.396509 -8.555
9.01950000 0.397040 -6.596 0.917774 -97.61 0.917774 -97.61 0.397015 -8.641
9.01960886 0.397152 -6.595 0.917726 -97.62 0.917726 -97.62 0.397126 -8.659
9.02000000 0.397554 -6.592 0.917552 -97.66 0.917552 -97.66 0.397527 -8.727
9.02050000 0.398074 -6.589 0.917326 -97.70 0.917326 -97.70 0.398047 -8.814
9.02100000 0.398601 -6.585 0.917096 -97.74 0.917096 -97.74 0.398574 -8.903
9.02116257 0.398775 -6.584 0.917021 -97.75 0.917021 -97.75 0.398747 -8.932
9.02150000 0.399136 -6.581 0.916863 -97.78 0.916863 -97.78 0.399109 -8.993
9.02200000 0.399679 -6.578 0.916627 -97.83 0.916627 -97.83 0.399651 -9.083
9.02250000 0.400229 -6.574 0.916386 -97.87 0.916386 -97.87 0.400201 -9.175
9.02268068 0.400430 -6.573 0.916298 -97.89 0.916298 -97.89 0.400402 -9.209
9.02300000 0.400787 -6.570 0.916142 -97.92 0.916142 -97.92 0.400759 -9.268
9.02350000 0.401354 -6.567 0.915893 -97.96 0.915893 -97.96 0.401325 -9.363
9.02400000 0.401928 -6.563 0.915641 -98.01 0.915641 -98.01 0.401899 -9.458
9.02416401 0.402119 -6.562 0.915557 -98.02 0.915557 -98.02 0.402089 -9.490
9.02450000 0.402512 -6.559 0.915384 -98.05 0.915384 -98.05 0.402482 -9.555
9.02500000 0.403103 -6.555 0.915124 -98.10 0.915124 -98.10 0.403073 -9.653
9.02550000 0.403704 -6.551 0.914858 -98.15 0.914858 -98.15 0.403673 -9.752
9.02561334 0.403842 -6.550 0.914797 -98.16 0.914797 -98.16 0.403811 -9.775
9.02600000 0.404314 -6.547 0.914588 -98.20 0.914588 -98.20 0.404283 -9.853
9.02650000 0.404933 -6.543 0.914314 -98.25 0.914314 -98.25 0.404902 -9.955
9.02700000 0.405562 -6.539 0.914035 -98.29 0.914035 -98.29 0.405530 -10.06
9.02702947 0.405600 -6.539 0.914018 -98.30 0.914018 -98.30 0.405567 -10.06
9.02750000 0.406201 -6.535 0.913751 -98.35 0.913751 -98.35 0.406168 -10.16
9.02800000 0.406850 -6.532 0.913462 -98.40 0.913462 -98.40 0.406816 -10.27
9.02841315 0.407393 -6.528 0.913219 -98.44 0.913219 -98.44 0.407360 -10.36
9.02850000 0.407508 -6.528 0.913167 -98.45 0.913167 -98.45 0.407475 -10.38
9.02900000 0.408178 -6.524 0.912868 -98.50 0.912868 -98.50 0.408144 -10.49
9.02950000 0.408858 -6.520 0.912563 -98.55 0.912563 -98.55 0.408824 -10.60
9.02976512 0.409224 -6.518 0.912399 -98.58 0.912399 -98.58 0.409189 -10.66
9.03000000 0.409550 -6.516 0.912252 -98.61 0.912252 -98.61 0.409515 -10.71
9.03050000 0.410253 -6.512 0.911936 -98.66 0.911936 -98.66 0.410217 -10.82
9.03100000 0.410967 -6.508 0.911613 -98.72 0.911613 -98.72 0.410931 -10.94
9.03108612 0.411091 -6.507 0.911557 -98.73 0.911557 -98.73 0.411055 -10.96
9.03150000 0.411694 -6.504 0.911285 -98.78 0.911285 -98.78 0.411657 -11.06
9.03200000 0.412432 -6.500 0.910950 -98.83 0.910950 -98.83 0.412395 -11.18
9.03237684 0.412997 -6.497 0.910694 -98.88 0.910694 -98.88 0.412959 -11.27
9.03250000 0.413184 -6.496 0.910609 -98.89 0.910609 -98.89 0.413146 -11.30
9.03300000 0.413948 -6.492 0.910261 -98.95 0.910261 -98.95 0.413909 -11.42
9.03350000 0.414726 -6.489 0.909907 -99.01 0.909907 -99.01 0.414686 -11.55
9.03363799 0.414943 -6.487 0.909808 -99.03 0.909808 -99.03 0.414903 -11.58
9.03400000 0.415517 -6.485 0.909545 -99.07 0.909545 -99.07 0.415477 -11.67
9.03450000 0.416322 -6.481 0.909176 -99.14 0.909176 -99.14 0.416282 -11.80
9.03487024 0.416928 -6.478 0.908898 -99.18 0.908898 -99.18 0.416887 -11.90
9.03500000 0.417142 -6.477 0.908799 -99.20 0.908799 -99.20 0.417101 -11.93
9.03550000 0.417977 -6.474 0.908415 -99.26 0.908415 -99.26 0.417935 -12.07
9.03600000 0.418827 -6.470 0.908023 -99.33 0.908023 -99.33 0.418784 -12.20
9.03607426 0.418954 -6.470 0.907964 -99.34 0.907964 -99.34 0.418911 -12.22
9.03650000 0.419692 -6.467 0.907622 -99.40 0.907622 -99.40 0.419649 -12.34
9.03700000 0.420574 -6.464 0.907214 -99.46 0.907214 -99.46 0.420530 -12.48
9.03725069 0.421022 -6.462 0.907005 -99.50 0.907005 -99.50 0.420978 -12.55
9.03750000 0.421472 -6.460 0.906796 -99.53 0.906796 -99.53 0.421427 -12.62
9.03800000 0.422388 -6.457 0.906369 -99.60 0.906369 -99.60 0.422342 -12.76
9.03840016 0.423133 -6.455 0.906021 -99.66 0.906021 -99.66 0.423087 -12.88
9.03850000 0.423321 -6.454 0.905933 -99.68 0.905933 -99.68 0.423274 -12.91
9.03900000 0.424272 -6.451 0.905487 -99.75 0.905487 -99.75 0.424224 -13.06
9.03950000 0.425242 -6.449 0.905031 -99.82 0.905031 -99.82 0.425193 -13.21
9.03952329 0.425287 -6.449 0.905009 -99.83 0.905009 -99.83 0.425239 -13.22
9.04000000 0.426231 -6.446 0.904565 -99.90 0.904565 -99.90 0.426181 -13.36
9.04050000 0.427240 -6.444 0.904088 -99.98 0.904088 -99.98 0.427189 -13.52
9.04062069 0.427486 -6.443 0.903971 -99.99 0.903971 -99.99 0.427436 -13.56
9.04100000 0.428269 -6.442 0.903600 -100.1 0.903600 -100.1 0.428218 -13.68
9.04150000 0.429319 -6.440 0.903100 -100.1 0.903100 -100.1 0.429267 -13.84
9.04169294 0.429730 -6.439 0.902904 -100.2 0.902904 -100.2 0.429678 -13.91
9.04200000 0.430392 -6.438 0.902588 -100.2 0.902588 -100.2 0.430338 -14.01
9.04250000 0.431486 -6.436 0.902065 -100.3 0.902065 -100.3 0.431432 -14.18
9.04274062 0.432021 -6.435 0.901808 -100.3 0.901808 -100.3 0.431966 -14.26
9.04300000 0.432604 -6.435 0.901528 -100.4 0.901528 -100.4 0.432548 -14.35
9.04350000 0.433745 -6.434 0.900978 -100.5 0.900978 -100.5 0.433689 -14.52
9.04376430 0.434359 -6.433 0.900682 -100.5 0.900682 -100.5 0.434302 -14.62
9.04400000 0.434912 -6.433 0.900415 -100.6 0.900415 -100.6 0.434854 -14.70
9.04450000 0.436103 -6.433 0.899837 -100.6 0.899837 -100.6 0.436045 -14.88
9.04476452 0.436745 -6.432 0.899525 -100.7 0.899525 -100.7 0.436685 -14.98
9.04500000 0.437322 -6.432 0.899244 -100.7 0.899244 -100.7 0.437262 -15.07
9.04550000 0.438567 -6.433 0.898636 -100.8 0.898636 -100.8 0.438506 -15.25
9.04574182 0.439179 -6.433 0.898336 -100.9 0.898336 -100.9 0.439118 -15.35
9.04600000 0.439841 -6.433 0.898012 -100.9 0.898012 -100.9 0.439778 -15.45
9.04650000 0.441143 -6.434 0.897372 -101.0 0.897372 -101.0 0.441080 -15.64
9.04669672 0.441664 -6.435 0.897115 -101.1 0.897115 -101.1 0.441600 -15.72
9.04700000 0.442476 -6.436 0.896714 -101.1 0.896714 -101.1 0.442412 -15.84
9.04750000 0.443841 -6.438 0.896038 -101.2 0.896038 -101.2 0.443774 -16.05
9.04762975 0.444200 -6.438 0.895859 -101.3 0.895859 -101.3 0.444133 -16.10
9.04800000 0.445237 -6.440 0.895343 -101.3 0.895343 -101.3 0.445170 -16.25
9.04850000 0.446667 -6.443 0.894629 -101.4 0.894629 -101.4 0.446598 -16.47
9.04854140 0.446787 -6.444 0.894569 -101.5 0.894569 -101.5 0.446718 -16.48
9.04900000 0.448132 -6.447 0.893894 -101.6 0.893894 -101.6 0.448062 -16.68
9.04943216 0.449428 -6.451 0.893242 -101.7 0.893242 -101.7 0.449355 -16.87
9.04950000 0.449633 -6.451 0.893138 -101.7 0.893138 -101.7 0.449561 -16.90
9.05000000 0.451172 -6.456 0.892360 -101.8 0.892360 -101.8 0.451098 -17.13
9.05030250 0.452121 -6.459 0.891879 -101.9 0.891879 -101.9 0.452046 -17.27
9.05050000 0.452749 -6.462 0.891559 -101.9 0.891559 -101.9 0.452673 -17.36
9.05100000 0.454366 -6.468 0.890734 -102.0 0.890734 -102.0 0.454289 -17.60
9.05115291 0.454869 -6.470 0.890477 -102.1 0.890477 -102.1 0.454792 -17.67
9.05150000 0.456026 -6.475 0.889884 -102.1 0.889884 -102.1 0.455947 -17.84
9.05198383 0.457673 -6.483 0.889036 -102.3 0.889036 -102.3 0.457592 -18.08
9.05200000 0.457729 -6.483 0.889007 -102.3 0.889007 -102.3 0.457648 -18.09
9.05250000 0.459477 -6.492 0.888103 -102.4 0.888103 -102.4 0.459394 -18.34
9.05279571 0.460533 -6.498 0.887554 -102.5 0.887554 -102.5 0.460449 -18.49
9.05300000 0.461272 -6.502 0.887169 -102.5 0.887169 -102.5 0.461187 -18.60
9.05350000 0.463116 -6.513 0.886206 -102.7 0.886206 -102.7 0.463029 -18.86
9.05358898 0.463450 -6.515 0.886031 -102.7 0.886031 -102.7 0.463362 -18.91
9.05400000 0.465011 -6.526 0.885210 -102.8 0.885210 -102.8 0.464922 -19.13
9.05436408 0.466424 -6.535 0.884465 -102.9 0.884465 -102.9 0.466334 -19.33
9.05450000 0.466959 -6.539 0.884182 -103.0 0.884182 -103.0 0.466868 -19.41
9.05500000 0.468963 -6.554 0.883118 -103.1 0.883118 -103.1 0.468869 -19.69
9.05512142 0.469458 -6.558 0.882854 -103.1 0.882854 -103.1 0.469364 -19.76
9.05550000 0.471024 -6.570 0.882017 -103.3 0.882017 -103.3 0.470928 -19.98
9.05586140 0.472551 -6.583 0.881198 -103.4 0.881198 -103.4 0.472454 -20.20
9.05600000 0.473145 -6.588 0.880878 -103.4 0.880878 -103.4 0.473047 -20.28
9.05650000 0.475330 -6.607 0.879698 -103.6 0.879698 -103.6 0.475229 -20.59
9.05658443 0.475705 -6.610 0.879495 -103.6 0.879495 -103.6 0.475603 -20.64
9.05700000 0.477579 -6.628 0.878476 -103.8 0.878476 -103.8 0.477476 -20.90
9.05729090 0.478920 -6.641 0.877744 -103.8 0.877744 -103.8 0.478815 -21.09
9.05750000 0.479898 -6.651 0.877208 -103.9 0.877208 -103.9 0.479791 -21.22
9.05798117 0.482197 -6.675 0.875943 -104.1 0.875943 -104.1 0.482087 -21.54
9.05800000 0.482288 -6.676 0.875893 -104.1 0.875893 -104.1 0.482179 -21.55
9.05850000 0.484753 -6.703 0.874527 -104.3 0.874527 -104.3 0.484641 -21.89
9.05865563 0.485536 -6.712 0.874091 -104.3 0.874091 -104.3 0.485423 -22.00
9.05900000 0.487297 -6.732 0.873109 -104.5 0.873109 -104.5 0.487181 -22.24
9.05931463 0.488939 -6.752 0.872187 -104.6 0.872187 -104.6 0.488821 -22.47
9.05950000 0.489922 -6.764 0.871634 -104.7 0.871634 -104.7 0.489804 -22.60
9.05995853 0.492406 -6.796 0.870229 -104.8 0.870229 -104.8 0.492284 -22.94
9.06000000 0.492634 -6.799 0.870100 -104.9 0.870100 -104.9 0.492512 -22.97
9.06050000 0.495437 -6.836 0.868502 -105.1 0.868502 -105.1 0.495311 -23.35
9.06058768 0.495938 -6.843 0.868216 -105.1 0.868216 -105.1 0.495811 -23.42
9.06100000 0.498334 -6.876 0.866838 -105.3 0.866838 -105.3 0.498204 -23.74
9.06120241 0.499535 -6.894 0.866145 -105.4 0.866145 -105.4 0.499404 -23.90
9.06150000 0.501330 -6.920 0.865104 -105.5 0.865104 -105.5 0.501197 -24.14
9.06180306 0.503197 -6.948 0.864016 -105.6 0.864016 -105.6 0.503062 -24.39
9.06200000 0.504432 -6.967 0.863294 -105.7 0.863294 -105.7 0.504295 -24.55
9.06238994 0.506927 -7.007 0.861827 -105.9 0.861827 -105.9 0.506786 -24.89
9.06250000 0.507643 -7.018 0.861403 -106.0 0.861403 -106.0 0.507502 -24.98
9.06296338 0.510723 -7.069 0.859576 -106.2 0.859576 -106.2 0.510577 -25.39
9.06300000 0.510970 -7.073 0.859428 -106.2 0.859428 -106.2 0.510825 -25.42
9.06350000 0.514420 -7.133 0.857362 -106.5 0.857362 -106.5 0.514269 -25.87
9.06352367 0.514586 -7.136 0.857261 -106.5 0.857261 -106.5 0.514435 -25.90
9.06400000 0.517997 -7.197 0.855198 -106.7 0.855198 -106.7 0.517842 -26.34
9.06407113 0.518517 -7.207 0.854882 -106.8 0.854882 -106.8 0.518361 -26.41
9.06450000 0.521710 -7.267 0.852931 -107.0 0.852931 -107.0 0.521550 -26.83
9.06460605 0.522516 -7.282 0.852436 -107.1 0.852436 -107.1 0.522354 -26.93
9.06500000 0.525567 -7.342 0.850552 -107.3 0.850552 -107.3 0.525401 -27.33
9.06512870 0.526583 -7.362 0.849921 -107.4 0.849921 -107.4 0.526416 -27.46
9.06550000 0.529574 -7.423 0.848055 -107.6 0.848055 -107.6 0.529402 -27.84
9.06563938 0.530719 -7.447 0.847337 -107.7 0.847337 -107.7 0.530546 -27.99
9.06600000 0.533741 -7.511 0.845430 -107.9 0.845430 -107.9 0.533563 -28.38
9.06613836 0.534923 -7.537 0.844680 -108.0 0.844680 -108.0 0.534744 -28.53
9.06650000 0.538076 -7.606 0.842668 -108.2 0.842668 -108.2 0.537893 -28.93
9.06662591 0.539196 -7.631 0.841950 -108.3 0.841950 -108.3 0.539011 -29.08
9.06700000 0.542591 -7.709 0.839759 -108.6 0.839759 -108.6 0.542401 -29.51
9.06710228 0.543537 -7.731 0.839144 -108.6 0.839144 -108.6 0.543346 -29.63
9.06750000 0.547295 -7.820 0.836690 -108.9 0.836690 -108.9 0.547098 -30.10
9.06756774 0.547947 -7.836 0.836262 -109.0 0.836262 -109.0 0.547749 -30.18
9.06800000 0.552199 -7.940 0.833450 -109.3 0.833450 -109.3 0.551995 -30.72
9.06802253 0.552425 -7.946 0.833300 -109.3 0.833300 -109.3 0.552221 -30.75
9.06846690 0.556971 -8.061 0.830257 -109.7 0.830257 -109.7 0.556760 -31.32
9.06850000 0.557317 -8.070 0.830025 -109.7 0.830025 -109.7 0.557105 -31.36
9.06890109 0.561585 -8.182 0.827132 -110.0 0.827132 -110.0 0.561367 -31.89
9.06900000 0.562661 -8.211 0.826398 -110.1 0.826398 -110.1 0.562441 -32.03
9.06932533 0.566266 -8.309 0.823923 -110.4 0.823923 -110.4 0.566041 -32.48
9.06950000 0.568245 -8.363 0.822554 -110.5 0.822554 -110.5 0.568017 -32.72
9.06973985 0.571014 -8.441 0.820628 -110.7 0.820628 -110.7 0.570781 -33.06
9.07000000 0.574086 -8.529 0.818474 -110.9 0.818474 -110.9 0.573848 -33.44
9.07014487 0.575828 -8.579 0.817244 -111.1 0.817244 -111.1 0.575588 -33.66
9.07050000 0.580198 -8.708 0.814136 -111.4 0.814136 -111.4 0.579951 -34.19
9.07054061 0.580707 -8.723 0.813772 -111.5 0.813772 -111.5 0.580459 -34.26
9.07092729 0.585651 -8.874 0.810208 -111.8 0.810208 -111.8 0.585395 -34.86
9.07100000 0.586600 -8.903 0.809518 -111.9 0.809518 -111.9 0.586343 -34.98
9.07130510 0.590658 -9.030 0.806551 -112.2 0.806551 -112.2 0.590394 -35.47
9.07150000 0.593312 -9.114 0.804593 -112.4 0.804593 -112.4 0.593044 -35.80
9.07167425 0.595727 -9.192 0.802799 -112.6 0.802799 -112.6 0.595455 -36.09
9.07200000 0.600353 -9.344 0.799332 -113.0 0.799332 -113.0 0.600073 -36.65
9.07203495 0.600858 -9.361 0.798951 -113.0 0.798951 -113.0 0.600577 -36.71
9.07238738 0.606048 -9.536 0.795005 -113.4 0.795005 -113.4 0.605759 -37.34
9.07250000 0.607745 -9.595 0.793703 -113.5 0.793703 -113.5 0.607453 -37.55
9.07273174 0.611297 -9.718 0.790960 -113.8 0.790960 -113.8 0.611000 -37.98
9.07300000 0.615513 -9.867 0.787670 -114.1 0.787670 -114.1 0.615208 -38.49
9.07306821 0.616603 -9.906 0.786814 -114.2 0.786814 -114.2 0.616297 -38.62
9.07339696 0.621964 -10.10 0.782565 -114.6 0.782565 -114.6 0.621648 -39.26
9.07350000 0.623682 -10.16 0.781191 -114.8 0.781191 -114.8 0.623363 -39.47
9.07371819 0.627378 -10.30 0.778213 -115.1 0.778213 -115.1 0.627053 -39.91
9.07400000 0.632278 -10.49 0.774221 -115.4 0.774221 -115.4 0.631945 -40.50
9.07403205 0.632844 -10.51 0.773756 -115.5 0.773756 -115.5 0.632510 -40.57
9.07433872 0.638359 -10.72 0.769192 -115.9 0.769192 -115.9 0.638015 -41.23
9.07450000 0.641331 -10.84 0.766705 -116.2 0.766705 -116.2 0.640982 -41.59
9.07463836 0.643921 -10.94 0.764522 -116.4 0.764522 -116.4 0.643568 -41.90
9.07493114 0.649528 -11.17 0.759743 -116.8 0.759743 -116.8 0.649165 -42.57
9.07500000 0.650873 -11.23 0.758587 -116.9 0.758587 -116.9 0.650506 -42.73
9.07521721 0.655178 -11.41 0.754855 -117.3 0.754855 -117.3 0.654804 -43.24
9.07549672 0.660867 -11.65 0.749857 -117.7 0.749857 -117.7 0.660482 -43.92
9.07550000 0.660934 -11.65 0.749797 -117.7 0.749797 -117.7 0.660550 -43.93
9.07576983 0.666593 -11.90 0.744748 -118.2 0.744748 -118.2 0.666198 -44.61
9.07600000 0.671551 -12.11 0.740260 -118.6 0.740260 -118.6 0.671147 -45.20
9.07603669 0.672353 -12.15 0.739528 -118.7 0.739528 -118.7 0.671947 -45.30
9.07629742 0.678144 -12.41 0.734196 -119.1 0.734196 -119.1 0.677728 -45.99
9.07650000 0.682758 -12.62 0.729887 -119.5 0.729887 -119.5 0.682333 -46.55
9.07655219 0.683963 -12.68 0.728753 -119.6 0.728753 -119.6 0.683536 -46.69
9.07680111 0.689807 -12.95 0.723197 -120.1 0.723197 -120.1 0.689369 -47.39
9.07700000 0.694592 -13.18 0.718580 -120.5 0.718580 -120.5 0.694145 -47.97
9.07704433 0.695673 -13.23 0.717529 -120.6 0.717529 -120.6 0.695224 -48.10
9.07728198 0.701557 -13.52 0.711749 -121.1 0.711749 -121.1 0.701096 -48.81
9.07750000 0.707091 -13.79 0.706224 -121.5 0.706224 -121.5 0.706619 -49.48
9.07751418 0.707455 -13.81 0.705857 -121.6 0.705857 -121.6 0.706983 -49.52
9.07774106 0.713365 -14.11 0.699855 -122.1 0.699855 -122.1 0.712881 -50.24
9.07796275 0.719282 -14.42 0.693742 -122.6 0.693742 -122.6 0.718786 -50.96
9.07800000 0.720290 -14.47 0.692689 -122.7 0.692689 -122.7 0.719792 -51.08
9.07817935 0.725202 -14.73 0.687519 -123.1 0.687519 -123.1 0.724694 -51.68
9.07839099 0.731122 -15.05 0.681188 -123.6 0.681188 -123.6 0.730602 -52.40
9.07850000 0.734224 -15.22 0.677825 -123.9 0.677825 -123.9 0.733698 -52.79
9.07859778 0.737037 -15.37 0.674749 -124.1 0.674749 -124.1 0.736506 -53.13
9.07879984 0.742945 -15.70 0.668204 -124.7 0.668204 -124.7 0.742401 -53.86
9.07899726 0.748840 -16.03 0.661556 -125.2 0.661556 -125.2 0.748284 -54.59
9.07900000 0.748923 -16.04 0.661461 -125.2 0.661461 -125.2 0.748367 -54.60
9.07919016 0.754719 -16.37 0.654804 -125.7 0.654804 -125.7 0.754151 -55.33
9.07937864 0.760578 -16.72 0.647952 -126.3 0.647952 -126.3 0.759997 -56.06
9.07950000 0.764411 -16.95 0.643401 -126.6 0.643401 -126.6 0.763822 -56.55
9.07956280 0.766413 -17.07 0.641002 -126.8 0.641002 -126.8 0.765819 -56.80
9.07974274 0.772219 -17.42 0.633956 -127.4 0.633956 -127.4 0.771613 -57.54
9.07991855 0.777993 -17.78 0.626817 -127.9 0.626817 -127.9 0.777374 -58.28
9.08000000 0.780702 -17.95 0.623421 -128.2 0.623421 -128.2 0.780077 -58.62
9.08009034 0.783731 -18.14 0.619587 -128.4 0.619587 -128.4 0.783099 -59.01
9.08025820 0.789428 -18.51 0.612270 -129.0 0.612270 -129.0 0.788784 -59.75
9.08042220 0.795081 -18.88 0.604868 -129.5 0.604868 -129.5 0.794424 -60.49
9.08050000 0.797792 -19.06 0.601266 -129.8 0.601266 -129.8 0.797129 -60.85
9.08058245 0.800686 -19.26 0.597385 -130.1 0.597385 -130.1 0.800016 -61.23
9.08073903 0.806239 -19.64 0.589824 -130.7 0.589824 -130.7 0.805556 -61.97
9.08089202 0.811736 -20.02 0.582189 -131.2 0.582189 -131.2 0.811041 -62.71
9.08100000 0.815658 -20.30 0.576648 -131.6 0.576648 -131.6 0.814953 -63.24
9.08104150 0.817174 -20.41 0.574484 -131.8 0.574484 -131.8 0.816466 -63.45
9.08118756 0.822550 -20.79 0.566713 -132.3 0.566713 -132.3 0.821829 -64.18
9.08133027 0.827859 -21.19 0.558880 -132.9 0.558880 -132.9 0.827125 -64.92
9.08146971 0.833099 -21.58 0.550989 -133.4 0.550989 -133.4 0.832353 -65.65
9.08150000 0.834244 -21.67 0.549243 -133.6 0.549243 -133.6 0.833495 -65.81
9.08160595 0.838267 -21.97 0.543044 -134.0 0.543044 -134.0 0.837507 -66.38
9.08173908 0.843359 -22.37 0.535051 -134.5 0.535051 -134.5 0.842587 -67.11
9.08186915 0.848373 -22.77 0.527012 -135.1 0.527012 -135.1 0.847588 -67.83
9.08199625 0.853306 -23.17 0.518934 -135.7 0.518934 -135.7 0.852509 -68.56
9.08200000 0.853452 -23.18 0.518692 -135.7 0.518692 -135.7 0.852655 -68.58
9.08212043 0.858156 -23.57 0.510820 -136.2 0.510820 -136.2 0.857346 -69.28
9.08224176 0.862920 -23.97 0.502675 -136.8 0.502675 -136.8 0.862098 -69.99
9.08236032 0.867596 -24.37 0.494505 -137.3 0.494505 -137.3 0.866761 -70.71
9.08247616 0.872183 -24.78 0.486314 -137.9 0.486314 -137.9 0.871336 -71.42
9.08250000 0.873128 -24.86 0.484602 -138.0 0.484602 -138.0 0.872279 -71.56
9.08258934 0.876677 -25.18 0.478107 -138.4 0.478107 -138.4 0.875818 -72.12
9.08269993 0.881079 -25.58 0.469888 -139.0 0.469888 -139.0 0.880208 -72.82
9.08280799 0.885386 -25.99 0.461663 -139.5 0.461663 -139.5 0.884503 -73.52
9.08291357 0.889597 -26.39 0.453436 -140.0 0.453436 -140.0 0.888702 -74.21
9.08300000 0.893044 -26.72 0.446558 -140.5 0.446558 -140.5 0.892139 -74.78
9.08301673 0.893711 -26.79 0.445211 -140.6 0.445211 -140.6 0.892805 -74.89
9.08311753 0.897728 -27.19 0.436995 -141.1 0.436995 -141.1 0.896809 -75.57
9.08321602 0.901646 -27.59 0.428791 -141.6 0.428791 -141.6 0.900716 -76.25
9.08331225 0.905466 -27.99 0.420604 -142.2 0.420604 -142.2 0.904524 -76.92
9.08340627 0.909186 -28.38 0.412438 -142.7 0.412438 -142.7 0.908233 -77.58
9.08349815 0.912806 -28.77 0.404298 -143.2 0.404298 -143.2 0.911842 -78.24
9.08350000 0.912879 -28.78 0.404133 -143.2 0.404133 -143.2 0.911915 -78.25
9.08358791 0.916328 -29.17 0.396189 -143.7 0.396189 -143.7 0.915353 -78.89
9.08367562 0.919750 -29.56 0.388113 -144.2 0.388113 -144.2 0.918764 -79.54
9.08376132 0.923073 -29.94 0.380076 -144.7 0.380076 -144.7 0.922077 -80.18
9.08384506 0.926299 -30.33 0.372082 -145.2 0.372082 -145.2 0.925292 -80.81
9.08392688 0.929426 -30.71 0.364133 -145.7 0.364133 -145.7 0.928409 -81.43
9.08400000 0.932199 -31.06 0.356914 -146.1 0.356914 -146.1 0.931172 -82.00
9.08400682 0.932456 -31.09 0.356235 -146.2 0.356235 -146.2 0.931429 -82.05
9.08408493 0.935391 -31.46 0.348390 -146.7 0.348390 -146.7 0.934354 -82.67
9.08416125 0.938230 -31.84 0.340601 -147.1 0.340601 -147.1 0.937183 -83.27
9.08423583 0.940976 -32.20 0.332873 -147.6 0.332873 -147.6 0.939919 -83.87
9.08430869 0.943629 -32.57 0.325208 -148.1 0.325208 -148.1 0.942562 -84.46
9.08437988 0.946191 -32.93 0.317609 -148.5 0.317609 -148.5 0.945115 -85.04
9.08444945 0.948663 -33.29 0.310079 -149.0 0.310079 -149.0 0.947577 -85.61
9.08450000 0.950438 -33.55 0.304541 -149.3 0.304541 -149.3 0.949347 -86.04
9.08451741 0.951046 -33.64 0.302620 -149.4 0.302620 -149.4 0.949952 -86.18
9.08458383 0.953343 -33.99 0.295235 -149.9 0.295235 -149.9 0.952240 -86.74
9.08464872 0.955554 -34.34 0.287927 -150.3 0.287927 -150.3 0.954442 -87.29
9.08471212 0.957682 -34.68 0.280697 -150.7 0.280697 -150.7 0.956562 -87.84
9.08477407 0.959729 -35.02 0.273547 -151.1 0.273547 -151.1 0.958600 -88.38
9.08483460 0.961695 -35.36 0.266479 -151.6 0.266479 -151.6 0.960558 -88.90
9.08489374 0.963584 -35.69 0.259496 -152.0 0.259496 -152.0 0.962439 -89.43
9.08495153 0.965396 -36.01 0.252598 -152.4 0.252598 -152.4 0.964243 -89.94
9.08500000 0.966890 -36.29 0.246755 -152.7 0.246755 -152.7 0.965731 -90.37
9.08500800 0.967134 -36.33 0.245786 -152.8 0.245786 -152.8 0.965974 -90.45
9.08506317 0.968800 -36.65 0.239063 -153.1 0.239063 -153.1 0.967632 -90.94
9.08511707 0.970396 -36.96 0.232429 -153.5 0.232429 -153.5 0.969220 -91.43
9.08516974 0.971923 -37.27 0.225885 -153.9 0.225885 -153.9 0.970740 -91.92
9.08522121 0.973383 -37.57 0.219432 -154.3 0.219432 -154.3 0.972193 -92.39
9.08527149 0.974779 -37.87 0.213071 -154.6 0.213071 -154.6 0.973583 -92.86
9.08532063 0.976113 -38.16 0.206802 -155.0 0.206802 -155.0 0.974909 -93.32
9.08536863 0.977385 -38.45 0.200625 -155.3 0.200625 -155.3 0.976175 -93.77
9.08541554 0.978599 -38.74 0.194542 -155.6 0.194542 -155.6 0.977383 -94.21
9.08546137 0.979757 -39.02 0.188552 -156.0 0.188552 -156.0 0.978534 -94.65
9.08550000 0.980709 -39.26 0.183469 -156.2 0.183469 -156.2 0.979481 -95.02
9.08550615 0.980859 -39.29 0.182656 -156.3 0.182656 -156.3 0.979630 -95.08
9.08554991 0.981908 -39.57 0.176853 -156.6 0.176853 -156.6 0.980673 -95.50
9.08559266 0.982906 -39.83 0.171144 -156.9 0.171144 -156.9 0.981665 -95.91
9.08563444 0.983854 -40.09 0.165528 -157.2 0.165528 -157.2 0.982607 -96.32
9.08567525 0.984754 -40.35 0.160005 -157.5 0.160005 -157.5 0.983502 -96.72
9.08571513 0.985609 -40.61 0.154576 -157.8 0.154576 -157.8 0.984351 -97.11
9.08575410 0.986419 -40.86 0.149238 -158.0 0.149238 -158.0 0.985156 -97.50
9.08579217 0.987187 -41.10 0.143992 -158.3 0.143992 -158.3 0.985919 -97.88
9.08582938 0.987914 -41.34 0.138838 -158.6 0.138838 -158.6 0.986640 -98.25
9.08586573 0.988601 -41.58 0.133775 -158.8 0.133775 -158.8 0.987323 -98.61