! Sonnet Data File
! From: emgraph Version : 16.52
! From Project: Resonator2_extremeCap2
! Data is De-embedded 
! Data File Written: 10/11/2017 09:28:27
!< HDATE 10/10/2017 20:43:28
!< MDATE 10/10/2017 20:43:28
!< PARAMS
!< Pwid1 = 2000.0
!< Pwid2 = 2000.0
!< Air_gap = 18.0
!< Width = 30.0
!< Gap = 24.0
!< END PARAMS
# GHZ S MA R 43.06000
8.90000000 0.272560 -0.623 0.962131 -89.77 0.962131 -89.77 0.272552 1.0800
!< P1 F=8.9 Eeff=(5.1612639 -2.2548e-5) Z0=(43.0590329 9.5502e-5) R=0.0 C=0.0 
!< P2 F=8.9 Eeff=(5.1612639 -2.2548e-5) Z0=(43.0590329 9.5502e-5) R=0.0 C=0.0 
8.90025000 0.272598 -0.619 0.962120 -89.78 0.962120 -89.78 0.272590 1.0629
8.90050000 0.272637 -0.614 0.962109 -89.78 0.962109 -89.78 0.272628 1.0457
8.90075000 0.272675 -0.610 0.962098 -89.79 0.962098 -89.79 0.272667 1.0285
8.90100000 0.272714 -0.605 0.962087 -89.80 0.962087 -89.80 0.272706 1.0113
8.90125000 0.272753 -0.601 0.962076 -89.80 0.962076 -89.80 0.272744 0.9940
8.90150000 0.272792 -0.596 0.962065 -89.81 0.962065 -89.81 0.272783 0.9766
8.90175000 0.272830 -0.592 0.962054 -89.82 0.962054 -89.82 0.272822 0.9592
8.90200000 0.272869 -0.587 0.962043 -89.82 0.962043 -89.82 0.272861 0.9418
8.90225000 0.272909 -0.583 0.962032 -89.83 0.962032 -89.83 0.272900 0.9243
8.90250000 0.272948 -0.578 0.962021 -89.84 0.962021 -89.84 0.272939 0.9068
8.90275000 0.272987 -0.573 0.962010 -89.84 0.962010 -89.84 0.272978 0.8892
8.90300000 0.273026 -0.569 0.961998 -89.85 0.961998 -89.85 0.273018 0.8716
8.90325000 0.273066 -0.564 0.961987 -89.85 0.961987 -89.85 0.273057 0.8539
8.90350000 0.273106 -0.559 0.961976 -89.86 0.961976 -89.86 0.273097 0.8362
8.90375000 0.273145 -0.555 0.961965 -89.87 0.961965 -89.87 0.273136 0.8184
8.90400000 0.273185 -0.550 0.961953 -89.87 0.961953 -89.87 0.273176 0.8006
8.90425000 0.273225 -0.545 0.961942 -89.88 0.961942 -89.88 0.273216 0.7828
8.90450000 0.273265 -0.540 0.961931 -89.89 0.961931 -89.89 0.273256 0.7649
8.90475000 0.273305 -0.535 0.961919 -89.89 0.961919 -89.89 0.273296 0.7469
8.90500000 0.273345 -0.531 0.961908 -89.90 0.961908 -89.90 0.273336 0.7289
8.90525000 0.273385 -0.526 0.961896 -89.91 0.961896 -89.91 0.273376 0.7108
8.90550000 0.273426 -0.521 0.961885 -89.91 0.961885 -89.91 0.273417 0.6927
8.90575000 0.273466 -0.516 0.961873 -89.92 0.961873 -89.92 0.273457 0.6746
8.90600000 0.273507 -0.511 0.961862 -89.93 0.961862 -89.93 0.273498 0.6564
8.90625000 0.273547 -0.506 0.961850 -89.93 0.961850 -89.93 0.273538 0.6381
8.90650000 0.273588 -0.501 0.961839 -89.94 0.961839 -89.94 0.273579 0.6198
8.90675000 0.273629 -0.496 0.961827 -89.95 0.961827 -89.95 0.273620 0.6015
8.90700000 0.273670 -0.491 0.961815 -89.95 0.961815 -89.95 0.273661 0.5831
8.90725000 0.273711 -0.486 0.961804 -89.96 0.961804 -89.96 0.273702 0.5646
8.90750000 0.273752 -0.481 0.961792 -89.97 0.961792 -89.97 0.273743 0.5461
8.90775000 0.273793 -0.476 0.961780 -89.97 0.961780 -89.97 0.273784 0.5276
8.90800000 0.273835 -0.471 0.961768 -89.98 0.961768 -89.98 0.273825 0.5089
8.90825000 0.273876 -0.465 0.961757 -89.99 0.961757 -89.99 0.273867 0.4903
8.90850000 0.273918 -0.460 0.961745 -89.99 0.961745 -89.99 0.273908 0.4716
8.90875000 0.273960 -0.455 0.961733 -90.00 0.961733 -90.00 0.273950 0.4528
8.90900000 0.274001 -0.450 0.961721 -90.01 0.961721 -90.01 0.273992 0.4340
8.90925000 0.274043 -0.444 0.961709 -90.01 0.961709 -90.01 0.274034 0.4151
8.90950000 0.274085 -0.439 0.961697 -90.02 0.961697 -90.02 0.274076 0.3962
8.90975000 0.274127 -0.434 0.961685 -90.03 0.961685 -90.03 0.274118 0.3772
8.91000000 0.274170 -0.428 0.961673 -90.03 0.961673 -90.03 0.274160 0.3582
8.91025000 0.274212 -0.423 0.961661 -90.04 0.961661 -90.04 0.274202 0.3391
8.91050000 0.274255 -0.418 0.961649 -90.05 0.961649 -90.05 0.274245 0.3200
8.91075000 0.274297 -0.412 0.961636 -90.06 0.961636 -90.06 0.274287 0.3008
8.91100000 0.274340 -0.407 0.961624 -90.06 0.961624 -90.06 0.274330 0.2815
8.91125000 0.274383 -0.401 0.961612 -90.07 0.961612 -90.07 0.274373 0.2622
8.91150000 0.274426 -0.396 0.961600 -90.08 0.961600 -90.08 0.274416 0.2429
8.91175000 0.274469 -0.390 0.961587 -90.08 0.961587 -90.08 0.274459 0.2235
8.91200000 0.274512 -0.385 0.961575 -90.09 0.961575 -90.09 0.274502 0.2040
8.91225000 0.274555 -0.379 0.961563 -90.10 0.961563 -90.10 0.274545 0.1845
8.91250000 0.274598 -0.373 0.961550 -90.10 0.961550 -90.10 0.274588 0.1649
8.91275000 0.274642 -0.368 0.961538 -90.11 0.961538 -90.11 0.274632 0.1453
8.91300000 0.274686 -0.362 0.961525 -90.12 0.961525 -90.12 0.274676 0.1256
8.91325000 0.274729 -0.356 0.961513 -90.12 0.961513 -90.12 0.274719 0.1058
8.91350000 0.274773 -0.351 0.961500 -90.13 0.961500 -90.13 0.274763 0.0860
8.91375000 0.274817 -0.345 0.961488 -90.14 0.961488 -90.14 0.274807 0.0661
8.91400000 0.274861 -0.339 0.961475 -90.15 0.961475 -90.15 0.274851 0.0462
8.91425000 0.274905 -0.333 0.961463 -90.15 0.961463 -90.15 0.274895 0.0262
8.91450000 0.274950 -0.327 0.961450 -90.16 0.961450 -90.16 0.274940 0.0062
8.91475000 0.274994 -0.322 0.961437 -90.17 0.961437 -90.17 0.274984 -0.014
8.91500000 0.275039 -0.316 0.961424 -90.17 0.961424 -90.17 0.275029 -0.034
8.91525000 0.275084 -0.310 0.961412 -90.18 0.961412 -90.18 0.275073 -0.054
8.91550000 0.275128 -0.304 0.961399 -90.19 0.961399 -90.19 0.275118 -0.075
8.91575000 0.275173 -0.298 0.961386 -90.20 0.961386 -90.20 0.275163 -0.095
8.91600000 0.275218 -0.292 0.961373 -90.20 0.961373 -90.20 0.275208 -0.115
8.91625000 0.275264 -0.286 0.961360 -90.21 0.961360 -90.21 0.275253 -0.136
8.91650000 0.275309 -0.279 0.961347 -90.22 0.961347 -90.22 0.275298 -0.156
8.91675000 0.275354 -0.273 0.961334 -90.22 0.961334 -90.22 0.275344 -0.177
8.91700000 0.275400 -0.267 0.961321 -90.23 0.961321 -90.23 0.275389 -0.197
8.91725000 0.275446 -0.261 0.961308 -90.24 0.961308 -90.24 0.275435 -0.218
8.91750000 0.275492 -0.255 0.961295 -90.25 0.961295 -90.25 0.275481 -0.239
8.91775000 0.275538 -0.249 0.961281 -90.25 0.961281 -90.25 0.275527 -0.260
8.91800000 0.275584 -0.242 0.961268 -90.26 0.961268 -90.26 0.275573 -0.281
8.91825000 0.275630 -0.236 0.961255 -90.27 0.961255 -90.27 0.275619 -0.302
8.91850000 0.275676 -0.230 0.961241 -90.28 0.961241 -90.28 0.275666 -0.323
8.91875000 0.275723 -0.223 0.961228 -90.28 0.961228 -90.28 0.275712 -0.344
8.91900000 0.275770 -0.217 0.961215 -90.29 0.961215 -90.29 0.275759 -0.365
8.91925000 0.275816 -0.210 0.961201 -90.30 0.961201 -90.30 0.275805 -0.386
8.91950000 0.275863 -0.204 0.961188 -90.31 0.961188 -90.31 0.275852 -0.407
8.91975000 0.275911 -0.197 0.961174 -90.31 0.961174 -90.31 0.275899 -0.429
8.92000000 0.275958 -0.191 0.961161 -90.32 0.961161 -90.32 0.275947 -0.450
8.92025000 0.276005 -0.184 0.961147 -90.33 0.961147 -90.33 0.275994 -0.472
8.92050000 0.276053 -0.178 0.961133 -90.34 0.961133 -90.34 0.276041 -0.493
8.92075000 0.276100 -0.171 0.961120 -90.34 0.961120 -90.34 0.276089 -0.515
8.92100000 0.276148 -0.164 0.961106 -90.35 0.961106 -90.35 0.276137 -0.536
8.92125000 0.276196 -0.158 0.961092 -90.36 0.961092 -90.36 0.276185 -0.558
8.92150000 0.276244 -0.151 0.961078 -90.37 0.961078 -90.37 0.276233 -0.580
8.92175000 0.276292 -0.144 0.961064 -90.37 0.961064 -90.37 0.276281 -0.602
8.92200000 0.276341 -0.138 0.961051 -90.38 0.961051 -90.38 0.276329 -0.624
8.92225000 0.276389 -0.131 0.961037 -90.39 0.961037 -90.39 0.276378 -0.646
8.92250000 0.276438 -0.124 0.961023 -90.40 0.961023 -90.40 0.276426 -0.668
8.92275000 0.276487 -0.117 0.961008 -90.40 0.961008 -90.40 0.276475 -0.690
8.92300000 0.276536 -0.110 0.960994 -90.41 0.960994 -90.41 0.276524 -0.712
8.92325000 0.276585 -0.103 0.960980 -90.42 0.960980 -90.42 0.276573 -0.735
8.92350000 0.276634 -0.096 0.960966 -90.43 0.960966 -90.43 0.276622 -0.757
8.92375000 0.276683 -0.089 0.960952 -90.43 0.960952 -90.43 0.276671 -0.779
8.92400000 0.276733 -0.082 0.960938 -90.44 0.960938 -90.44 0.276721 -0.802
8.92425000 0.276783 -0.075 0.960923 -90.45 0.960923 -90.45 0.276771 -0.824
8.92450000 0.276832 -0.068 0.960909 -90.46 0.960909 -90.46 0.276820 -0.847
8.92475000 0.276882 -0.060 0.960894 -90.46 0.960894 -90.46 0.276870 -0.870
8.92500000 0.276933 -0.053 0.960880 -90.47 0.960880 -90.47 0.276921 -0.893
8.92525000 0.276983 -0.046 0.960865 -90.48 0.960865 -90.48 0.276971 -0.916
8.92550000 0.277034 -0.039 0.960851 -90.49 0.960851 -90.49 0.277021 -0.938
8.92575000 0.277084 -0.031 0.960836 -90.50 0.960836 -90.50 0.277072 -0.961
8.92600000 0.277135 -0.024 0.960821 -90.50 0.960821 -90.50 0.277123 -0.985
8.92625000 0.277186 -0.017 0.960807 -90.51 0.960807 -90.51 0.277174 -1.008
8.92650000 0.277237 0.0000 0.960792 -90.52 0.960792 -90.52 0.277225 -1.031
8.92675000 0.277288 0.0000 0.960777 -90.53 0.960777 -90.53 0.277276 -1.054
8.92700000 0.277340 0.0057 0.960762 -90.54 0.960762 -90.54 0.277328 -1.078
8.92725000 0.277392 0.0133 0.960747 -90.54 0.960747 -90.54 0.277379 -1.101
8.92750000 0.277443 0.0208 0.960732 -90.55 0.960732 -90.55 0.277431 -1.125
8.92775000 0.277495 0.0285 0.960717 -90.56 0.960717 -90.56 0.277483 -1.148
8.92800000 0.277548 0.0361 0.960702 -90.57 0.960702 -90.57 0.277535 -1.172
8.92825000 0.277600 0.0438 0.960687 -90.58 0.960687 -90.58 0.277587 -1.196
8.92850000 0.277652 0.0515 0.960672 -90.58 0.960672 -90.58 0.277640 -1.220
8.92875000 0.277705 0.0593 0.960657 -90.59 0.960657 -90.59 0.277692 -1.244
8.92900000 0.277758 0.0671 0.960641 -90.60 0.960641 -90.60 0.277745 -1.268
8.92925000 0.277811 0.0750 0.960626 -90.61 0.960626 -90.61 0.277798 -1.292
8.92950000 0.277864 0.0829 0.960611 -90.62 0.960611 -90.62 0.277851 -1.316
8.92975000 0.277918 0.0908 0.960595 -90.62 0.960595 -90.62 0.277905 -1.340
8.93000000 0.277971 0.0988 0.960580 -90.63 0.960580 -90.63 0.277958 -1.365
8.93025000 0.278025 0.1068 0.960564 -90.64 0.960564 -90.64 0.278012 -1.389
8.93050000 0.278079 0.1148 0.960548 -90.65 0.960548 -90.65 0.278066 -1.413
8.93075000 0.278133 0.1229 0.960533 -90.66 0.960533 -90.66 0.278120 -1.438
8.93100000 0.278187 0.1310 0.960517 -90.67 0.960517 -90.67 0.278174 -1.463
8.93125000 0.278242 0.1392 0.960501 -90.67 0.960501 -90.67 0.278228 -1.488
8.93150000 0.278296 0.1474 0.960485 -90.68 0.960485 -90.68 0.278283 -1.512
8.93175000 0.278351 0.1557 0.960469 -90.69 0.960469 -90.69 0.278338 -1.537
8.93200000 0.278406 0.1640 0.960453 -90.70 0.960453 -90.70 0.278393 -1.562
8.93225000 0.278461 0.1723 0.960437 -90.71 0.960437 -90.71 0.278448 -1.587
8.93250000 0.278517 0.1807 0.960421 -90.72 0.960421 -90.72 0.278503 -1.613
8.93275000 0.278572 0.1891 0.960405 -90.72 0.960405 -90.72 0.278559 -1.638
8.93300000 0.278628 0.1975 0.960389 -90.73 0.960389 -90.73 0.278615 -1.663
8.93325000 0.278684 0.2060 0.960373 -90.74 0.960373 -90.74 0.278670 -1.689
8.93350000 0.278740 0.2146 0.960356 -90.75 0.960356 -90.75 0.278727 -1.714
8.93375000 0.278797 0.2232 0.960340 -90.76 0.960340 -90.76 0.278783 -1.740
8.93400000 0.278853 0.2318 0.960323 -90.77 0.960323 -90.77 0.278839 -1.766
8.93425000 0.278910 0.2405 0.960307 -90.77 0.960307 -90.77 0.278896 -1.791
8.93450000 0.278967 0.2492 0.960290 -90.78 0.960290 -90.78 0.278953 -1.817
8.93475000 0.279024 0.2580 0.960274 -90.79 0.960274 -90.79 0.279010 -1.843
8.93500000 0.279082 0.2668 0.960257 -90.80 0.960257 -90.80 0.279068 -1.869
8.93525000 0.279139 0.2756 0.960240 -90.81 0.960240 -90.81 0.279125 -1.895
8.93550000 0.279197 0.2845 0.960223 -90.82 0.960223 -90.82 0.279183 -1.922
8.93575000 0.279255 0.2935 0.960206 -90.83 0.960206 -90.83 0.279241 -1.948
8.93600000 0.279313 0.3025 0.960189 -90.84 0.960189 -90.84 0.279299 -1.975
8.93625000 0.279372 0.3115 0.960172 -90.84 0.960172 -90.84 0.279357 -2.001
8.93650000 0.279431 0.3206 0.960155 -90.85 0.960155 -90.85 0.279416 -2.028
8.93675000 0.279489 0.3297 0.960138 -90.86 0.960138 -90.86 0.279475 -2.054
8.93700000 0.279549 0.3389 0.960121 -90.87 0.960121 -90.87 0.279534 -2.081
8.93725000 0.279608 0.3481 0.960104 -90.88 0.960104 -90.88 0.279593 -2.108
8.93750000 0.279667 0.3573 0.960086 -90.89 0.960086 -90.89 0.279653 -2.135
8.93775000 0.279727 0.3666 0.960069 -90.90 0.960069 -90.90 0.279712 -2.162
8.93800000 0.279787 0.3760 0.960051 -90.91 0.960051 -90.91 0.279772 -2.190
8.93825000 0.279847 0.3854 0.960034 -90.92 0.960034 -90.92 0.279832 -2.217
8.93850000 0.279908 0.3949 0.960016 -90.92 0.960016 -90.92 0.279893 -2.244
8.93875000 0.279968 0.4043 0.959998 -90.93 0.959998 -90.93 0.279953 -2.272
8.93900000 0.280029 0.4139 0.959981 -90.94 0.959981 -90.94 0.280014 -2.299
8.93925000 0.280090 0.4235 0.959963 -90.95 0.959963 -90.95 0.280075 -2.327
8.93950000 0.280152 0.4331 0.959945 -90.96 0.959945 -90.96 0.280136 -2.355
8.93975000 0.280213 0.4428 0.959927 -90.97 0.959927 -90.97 0.280198 -2.383
8.94000000 0.280275 0.4526 0.959909 -90.98 0.959909 -90.98 0.280260 -2.411
8.94025000 0.280337 0.4624 0.959891 -90.99 0.959891 -90.99 0.280322 -2.439
8.94050000 0.280400 0.4722 0.959872 -91.00 0.959872 -91.00 0.280384 -2.467
8.94075000 0.280462 0.4821 0.959854 -91.01 0.959854 -91.01 0.280446 -2.496
8.94100000 0.280525 0.4920 0.959836 -91.02 0.959836 -91.02 0.280509 -2.524
8.94125000 0.280588 0.5020 0.959817 -91.02 0.959817 -91.02 0.280572 -2.553
8.94150000 0.280651 0.5121 0.959799 -91.03 0.959799 -91.03 0.280635 -2.581
8.94175000 0.280715 0.5222 0.959780 -91.04 0.959780 -91.04 0.280699 -2.610
8.94200000 0.280778 0.5323 0.959761 -91.05 0.959761 -91.05 0.280762 -2.639
8.94225000 0.280842 0.5425 0.959743 -91.06 0.959743 -91.06 0.280826 -2.668
8.94250000 0.280907 0.5528 0.959724 -91.07 0.959724 -91.07 0.280891 -2.697
8.94275000 0.280971 0.5631 0.959705 -91.08 0.959705 -91.08 0.280955 -2.726
8.94300000 0.281036 0.5734 0.959686 -91.09 0.959686 -91.09 0.281020 -2.755
8.94325000 0.281101 0.5839 0.959667 -91.10 0.959667 -91.10 0.281085 -2.785
8.94350000 0.281166 0.5943 0.959648 -91.11 0.959648 -91.11 0.281150 -2.814
8.94375000 0.281232 0.6048 0.959628 -91.12 0.959628 -91.12 0.281215 -2.844
8.94400000 0.281298 0.6154 0.959609 -91.13 0.959609 -91.13 0.281281 -2.874
8.94425000 0.281364 0.6260 0.959590 -91.14 0.959590 -91.14 0.281347 -2.904
8.94450000 0.281430 0.6367 0.959570 -91.15 0.959570 -91.15 0.281413 -2.934
8.94475000 0.281497 0.6475 0.959551 -91.16 0.959551 -91.16 0.281480 -2.964
8.94500000 0.281564 0.6582 0.959531 -91.17 0.959531 -91.17 0.281547 -2.994
8.94525000 0.281631 0.6691 0.959511 -91.18 0.959511 -91.18 0.281614 -3.024
8.94550000 0.281698 0.6800 0.959491 -91.19 0.959491 -91.19 0.281681 -3.055
8.94575000 0.281766 0.6910 0.959471 -91.20 0.959471 -91.20 0.281749 -3.085
8.94600000 0.281834 0.7020 0.959451 -91.21 0.959451 -91.21 0.281817 -3.116
8.94625000 0.281902 0.7130 0.959431 -91.22 0.959431 -91.22 0.281885 -3.147
8.94650000 0.281971 0.7242 0.959411 -91.23 0.959411 -91.23 0.281954 -3.178
8.94675000 0.282040 0.7354 0.959391 -91.24 0.959391 -91.24 0.282022 -3.209
8.94700000 0.282109 0.7466 0.959370 -91.25 0.959370 -91.25 0.282092 -3.240
8.94725000 0.282179 0.7579 0.959350 -91.26 0.959350 -91.26 0.282161 -3.271
8.94750000 0.282248 0.7693 0.959329 -91.27 0.959329 -91.27 0.282231 -3.303
8.94775000 0.282318 0.7807 0.959309 -91.28 0.959309 -91.28 0.282301 -3.334
8.94800000 0.282389 0.7922 0.959288 -91.29 0.959288 -91.29 0.282371 -3.366
8.94825000 0.282459 0.8037 0.959267 -91.30 0.959267 -91.30 0.282441 -3.398
8.94850000 0.282530 0.8153 0.959246 -91.31 0.959246 -91.31 0.282512 -3.430
8.94875000 0.282602 0.8270 0.959225 -91.32 0.959225 -91.32 0.282583 -3.462
8.94900000 0.282673 0.8387 0.959204 -91.33 0.959204 -91.33 0.282655 -3.494
8.94925000 0.282745 0.8505 0.959183 -91.34 0.959183 -91.34 0.282727 -3.526
8.94950000 0.282817 0.8623 0.959162 -91.35 0.959162 -91.35 0.282799 -3.559
8.94975000 0.282890 0.8742 0.959140 -91.36 0.959140 -91.36 0.282871 -3.591
8.95000000 0.282963 0.8862 0.959119 -91.37 0.959119 -91.37 0.282944 -3.624
8.95025000 0.283036 0.8982 0.959097 -91.38 0.959097 -91.38 0.283017 -3.657
8.95050000 0.283109 0.9103 0.959075 -91.39 0.959075 -91.39 0.283090 -3.690
8.95075000 0.283183 0.9225 0.959053 -91.40 0.959053 -91.40 0.283164 -3.723
8.95100000 0.283257 0.9347 0.959031 -91.41 0.959031 -91.41 0.283238 -3.756
8.95125000 0.283332 0.9470 0.959009 -91.42 0.959009 -91.42 0.283313 -3.790
8.95150000 0.283406 0.9593 0.958987 -91.43 0.958987 -91.43 0.283387 -3.823
8.95175000 0.283481 0.9718 0.958965 -91.44 0.958965 -91.44 0.283462 -3.857
8.95200000 0.283557 0.9842 0.958943 -91.45 0.958943 -91.45 0.283538 -3.891
8.95225000 0.283633 0.9968 0.958920 -91.46 0.958920 -91.46 0.283613 -3.925
8.95250000 0.283709 1.0094 0.958898 -91.47 0.958898 -91.47 0.283689 -3.959
8.95275000 0.283785 1.0221 0.958875 -91.48 0.958875 -91.48 0.283766 -3.993
8.95300000 0.283862 1.0348 0.958852 -91.50 0.958852 -91.50 0.283843 -4.027
8.95325000 0.283939 1.0476 0.958829 -91.51 0.958829 -91.51 0.283920 -4.062
8.95350000 0.284017 1.0605 0.958806 -91.52 0.958806 -91.52 0.283997 -4.097
8.95375000 0.284095 1.0735 0.958783 -91.53 0.958783 -91.53 0.284075 -4.131
8.95400000 0.284173 1.0865 0.958760 -91.54 0.958760 -91.54 0.284153 -4.166
8.95425000 0.284252 1.0996 0.958737 -91.55 0.958737 -91.55 0.284232 -4.201
8.95450000 0.284331 1.1127 0.958713 -91.56 0.958713 -91.56 0.284311 -4.237
8.95475000 0.284410 1.1260 0.958689 -91.57 0.958689 -91.57 0.284390 -4.272
8.95500000 0.284490 1.1393 0.958666 -91.58 0.958666 -91.58 0.284470 -4.308
8.95525000 0.284570 1.1526 0.958642 -91.59 0.958642 -91.59 0.284550 -4.343
8.95550000 0.284651 1.1661 0.958618 -91.61 0.958618 -91.61 0.284630 -4.379
8.95575000 0.284732 1.1796 0.958594 -91.62 0.958594 -91.62 0.284711 -4.415
8.95600000 0.284813 1.1932 0.958570 -91.63 0.958570 -91.63 0.284792 -4.451
8.95625000 0.284895 1.2068 0.958545 -91.64 0.958545 -91.64 0.284874 -4.488
8.95650000 0.284977 1.2206 0.958521 -91.65 0.958521 -91.65 0.284956 -4.524
8.95675000 0.285059 1.2344 0.958496 -91.66 0.958496 -91.66 0.285038 -4.561
8.95700000 0.285142 1.2483 0.958472 -91.67 0.958472 -91.67 0.285121 -4.598
8.95725000 0.285225 1.2622 0.958447 -91.69 0.958447 -91.69 0.285204 -4.635
8.95750000 0.285309 1.2762 0.958422 -91.70 0.958422 -91.70 0.285288 -4.672
8.95775000 0.285393 1.2903 0.958397 -91.71 0.958397 -91.71 0.285371 -4.709
8.95800000 0.285478 1.3045 0.958372 -91.72 0.958372 -91.72 0.285456 -4.747
8.95825000 0.285562 1.3188 0.958346 -91.73 0.958346 -91.73 0.285541 -4.784
8.95850000 0.285648 1.3331 0.958321 -91.74 0.958321 -91.74 0.285626 -4.822
8.95875000 0.285734 1.3475 0.958295 -91.76 0.958295 -91.76 0.285712 -4.860
8.95900000 0.285820 1.3620 0.958269 -91.77 0.958269 -91.77 0.285798 -4.898
8.95925000 0.285906 1.3766 0.958243 -91.78 0.958243 -91.78 0.285884 -4.937
8.95950000 0.285993 1.3912 0.958217 -91.79 0.958217 -91.79 0.285971 -4.975
8.95975000 0.286081 1.4059 0.958191 -91.80 0.958191 -91.80 0.286059 -5.014
8.96000000 0.286169 1.4208 0.958165 -91.81 0.958165 -91.81 0.286146 -5.053
8.96025000 0.286257 1.4356 0.958138 -91.83 0.958138 -91.83 0.286235 -5.092
8.96050000 0.286346 1.4506 0.958112 -91.84 0.958112 -91.84 0.286323 -5.131
8.96075000 0.286435 1.4657 0.958085 -91.85 0.958085 -91.85 0.286413 -5.170
8.96100000 0.286525 1.4808 0.958058 -91.86 0.958058 -91.86 0.286502 -5.210
8.96125000 0.286615 1.4960 0.958031 -91.88 0.958031 -91.88 0.286592 -5.249
8.96150000 0.286706 1.5113 0.958004 -91.89 0.958004 -91.89 0.286683 -5.289
8.96175000 0.286797 1.5267 0.957977 -91.90 0.957977 -91.90 0.286774 -5.329
8.96200000 0.286889 1.5421 0.957949 -91.91 0.957949 -91.91 0.286865 -5.370
8.96225000 0.286981 1.5577 0.957922 -91.92 0.957922 -91.92 0.286957 -5.410
8.96250000 0.287074 1.5733 0.957894 -91.94 0.957894 -91.94 0.287050 -5.451
8.96275000 0.287167 1.5891 0.957866 -91.95 0.957866 -91.95 0.287143 -5.492
8.96300000 0.287260 1.6049 0.957838 -91.96 0.957838 -91.96 0.287236 -5.533
8.96325000 0.287354 1.6208 0.957809 -91.98 0.957809 -91.98 0.287330 -5.574
8.96350000 0.287449 1.6367 0.957781 -91.99 0.957781 -91.99 0.287425 -5.615
8.96375000 0.287544 1.6528 0.957752 -92.00 0.957752 -92.00 0.287520 -5.657
8.96400000 0.287640 1.6690 0.957724 -92.01 0.957724 -92.01 0.287615 -5.699
8.96425000 0.287736 1.6852 0.957695 -92.03 0.957695 -92.03 0.287711 -5.741
8.96450000 0.287832 1.7016 0.957665 -92.04 0.957665 -92.04 0.287808 -5.783
8.96475000 0.287930 1.7180 0.957636 -92.05 0.957636 -92.05 0.287905 -5.825
8.96500000 0.288027 1.7345 0.957607 -92.07 0.957607 -92.07 0.288002 -5.868
8.96525000 0.288125 1.7511 0.957577 -92.08 0.957577 -92.08 0.288100 -5.911
8.96550000 0.288224 1.7678 0.957547 -92.09 0.957547 -92.09 0.288199 -5.954
8.96575000 0.288323 1.7846 0.957517 -92.10 0.957517 -92.10 0.288298 -5.997
8.96600000 0.288423 1.8015 0.957487 -92.12 0.957487 -92.12 0.288398 -6.040
8.96625000 0.288524 1.8185 0.957457 -92.13 0.957457 -92.13 0.288498 -6.084
8.96650000 0.288625 1.8356 0.957426 -92.14 0.957426 -92.14 0.288599 -6.128
8.96675000 0.288726 1.8528 0.957396 -92.16 0.957396 -92.16 0.288700 -6.172
8.96700000 0.288828 1.8701 0.957365 -92.17 0.957365 -92.17 0.288802 -6.216
8.96725000 0.288931 1.8874 0.957334 -92.19 0.957334 -92.19 0.288905 -6.261
8.96750000 0.289034 1.9049 0.957303 -92.20 0.957303 -92.20 0.289008 -6.306
8.96775000 0.289138 1.9225 0.957271 -92.21 0.957271 -92.21 0.289112 -6.350
8.96800000 0.289243 1.9401 0.957240 -92.23 0.957240 -92.23 0.289216 -6.396
8.96825000 0.289348 1.9579 0.957208 -92.24 0.957208 -92.24 0.289321 -6.441
8.96850000 0.289453 1.9758 0.957176 -92.25 0.957176 -92.25 0.289426 -6.487
8.96875000 0.289560 1.9937 0.957143 -92.27 0.957143 -92.27 0.289532 -6.532
8.96900000 0.289667 2.0118 0.957111 -92.28 0.957111 -92.28 0.289639 -6.579
8.96925000 0.289774 2.0300 0.957078 -92.30 0.957078 -92.30 0.289747 -6.625
8.96950000 0.289882 2.0483 0.957046 -92.31 0.957046 -92.31 0.289855 -6.671
8.96975000 0.289991 2.0666 0.957013 -92.32 0.957013 -92.32 0.289963 -6.718
8.97000000 0.290100 2.0851 0.956979 -92.34 0.956979 -92.34 0.290072 -6.765
8.97025000 0.290210 2.1037 0.956946 -92.35 0.956946 -92.35 0.290182 -6.812
8.97050000 0.290321 2.1224 0.956912 -92.37 0.956912 -92.37 0.290293 -6.860
8.97075000 0.290432 2.1412 0.956878 -92.38 0.956878 -92.38 0.290404 -6.908
8.97100000 0.290545 2.1601 0.956844 -92.40 0.956844 -92.40 0.290516 -6.956
8.97125000 0.290657 2.1792 0.956810 -92.41 0.956810 -92.41 0.290628 -7.004
8.97150000 0.290771 2.1983 0.956775 -92.43 0.956775 -92.43 0.290742 -7.052
8.97175000 0.290885 2.2175 0.956741 -92.44 0.956741 -92.44 0.290856 -7.101
8.97200000 0.290999 2.2369 0.956706 -92.45 0.956706 -92.45 0.290970 -7.150
8.97225000 0.291115 2.2563 0.956671 -92.47 0.956671 -92.47 0.291086 -7.199
8.97250000 0.291231 2.2759 0.956635 -92.48 0.956635 -92.48 0.291202 -7.249
8.97275000 0.291348 2.2956 0.956599 -92.50 0.956599 -92.50 0.291318 -7.298
8.97300000 0.291466 2.3154 0.956563 -92.51 0.956563 -92.51 0.291436 -7.348
8.97325000 0.291584 2.3353 0.956527 -92.53 0.956527 -92.53 0.291554 -7.399
8.97350000 0.291703 2.3554 0.956491 -92.55 0.956491 -92.55 0.291673 -7.449
8.97375000 0.291823 2.3755 0.956454 -92.56 0.956454 -92.56 0.291792 -7.500
8.97400000 0.291943 2.3958 0.956417 -92.58 0.956417 -92.58 0.291913 -7.551
8.97425000 0.292065 2.4162 0.956380 -92.59 0.956380 -92.59 0.292034 -7.602
8.97450000 0.292187 2.4367 0.956343 -92.61 0.956343 -92.61 0.292156 -7.654
8.97475000 0.292310 2.4573 0.956305 -92.62 0.956305 -92.62 0.292279 -7.706
8.97500000 0.292433 2.4780 0.956267 -92.64 0.956267 -92.64 0.292402 -7.758
8.97525000 0.292558 2.4989 0.956229 -92.65 0.956229 -92.65 0.292526 -7.810
8.97550000 0.292683 2.5199 0.956191 -92.67 0.956191 -92.67 0.292651 -7.863
8.97575000 0.292809 2.5410 0.956152 -92.69 0.956152 -92.69 0.292777 -7.916
8.97600000 0.292936 2.5622 0.956113 -92.70 0.956113 -92.70 0.292904 -7.969
8.97625000 0.293064 2.5836 0.956074 -92.72 0.956074 -92.72 0.293031 -8.023
8.97650000 0.293192 2.6051 0.956034 -92.73 0.956034 -92.73 0.293160 -8.077
8.97675000 0.293322 2.6267 0.955995 -92.75 0.955995 -92.75 0.293289 -8.131
8.97700000 0.293452 2.6484 0.955955 -92.77 0.955955 -92.77 0.293419 -8.186
8.97725000 0.293583 2.6703 0.955914 -92.78 0.955914 -92.78 0.293550 -8.240
8.97750000 0.293715 2.6923 0.955874 -92.80 0.955874 -92.80 0.293682 -8.295
8.97775000 0.293848 2.7144 0.955833 -92.82 0.955833 -92.82 0.293814 -8.351
8.97800000 0.293982 2.7367 0.955791 -92.83 0.955791 -92.83 0.293948 -8.407
8.97825000 0.294116 2.7591 0.955750 -92.85 0.955750 -92.85 0.294082 -8.463
8.97850000 0.294252 2.7816 0.955708 -92.87 0.955708 -92.87 0.294218 -8.519
8.97875000 0.294388 2.8043 0.955666 -92.88 0.955666 -92.88 0.294354 -8.575
8.97900000 0.294526 2.8271 0.955623 -92.90 0.955623 -92.90 0.294491 -8.632
8.97925000 0.294664 2.8500 0.955581 -92.92 0.955581 -92.92 0.294629 -8.690
8.97950000 0.294803 2.8731 0.955538 -92.94 0.955538 -92.94 0.294768 -8.747
8.97975000 0.294943 2.8963 0.955494 -92.95 0.955494 -92.95 0.294908 -8.805
8.98000000 0.295085 2.9197 0.955451 -92.97 0.955451 -92.97 0.295049 -8.864
8.98025000 0.295227 2.9432 0.955407 -92.99 0.955407 -92.99 0.295191 -8.922
8.98050000 0.295370 2.9668 0.955362 -93.00 0.955362 -93.00 0.295334 -8.981
8.98075000 0.295514 2.9906 0.955317 -93.02 0.955317 -93.02 0.295478 -9.040
8.98100000 0.295659 3.0145 0.955272 -93.04 0.955272 -93.04 0.295623 -9.100
8.98125000 0.295806 3.0386 0.955227 -93.06 0.955227 -93.06 0.295769 -9.160
8.98150000 0.295953 3.0628 0.955181 -93.08 0.955181 -93.08 0.295916 -9.220
8.98175000 0.296101 3.0872 0.955135 -93.09 0.955135 -93.09 0.296064 -9.281
8.98200000 0.296250 3.1117 0.955089 -93.11 0.955089 -93.11 0.296213 -9.342
8.98225000 0.296401 3.1363 0.955042 -93.13 0.955042 -93.13 0.296363 -9.403
8.98250000 0.296552 3.1611 0.954995 -93.15 0.954995 -93.15 0.296515 -9.465
8.98275000 0.296705 3.1861 0.954947 -93.17 0.954947 -93.17 0.296667 -9.527
8.98300000 0.296859 3.2112 0.954899 -93.19 0.954899 -93.19 0.296820 -9.590
8.98325000 0.297014 3.2365 0.954851 -93.21 0.954851 -93.21 0.296975 -9.652
8.98350000 0.297170 3.2619 0.954802 -93.22 0.954802 -93.22 0.297131 -9.716
8.98375000 0.297327 3.2875 0.954753 -93.24 0.954753 -93.24 0.297288 -9.779
8.98400000 0.297485 3.3132 0.954704 -93.26 0.954704 -93.26 0.297446 -9.843
8.98425000 0.297645 3.3391 0.954654 -93.28 0.954654 -93.28 0.297605 -9.908
8.98450000 0.297805 3.3652 0.954604 -93.30 0.954604 -93.30 0.297765 -9.972
8.98475000 0.297967 3.3914 0.954553 -93.32 0.954553 -93.32 0.297927 -10.04
8.98500000 0.298130 3.4178 0.954502 -93.34 0.954502 -93.34 0.298090 -10.10
8.98525000 0.298294 3.4444 0.954451 -93.36 0.954451 -93.36 0.298254 -10.17
8.98550000 0.298460 3.4711 0.954399 -93.38 0.954399 -93.38 0.298419 -10.24
8.98575000 0.298627 3.4980 0.954347 -93.40 0.954347 -93.40 0.298586 -10.30
8.98600000 0.298795 3.5250 0.954294 -93.42 0.954294 -93.42 0.298753 -10.37
8.98625000 0.298964 3.5522 0.954241 -93.44 0.954241 -93.44 0.298923 -10.44
8.98650000 0.299135 3.5796 0.954187 -93.46 0.954187 -93.46 0.299093 -10.50
8.98675000 0.299307 3.6072 0.954133 -93.48 0.954133 -93.48 0.299265 -10.57
8.98700000 0.299480 3.6349 0.954078 -93.50 0.954078 -93.50 0.299438 -10.64
8.98725000 0.299655 3.6628 0.954023 -93.52 0.954023 -93.52 0.299612 -10.71
8.98750000 0.299831 3.6909 0.953968 -93.54 0.953968 -93.54 0.299788 -10.78
8.98775000 0.300009 3.7192 0.953912 -93.56 0.953912 -93.56 0.299965 -10.85
8.98800000 0.300188 3.7476 0.953855 -93.58 0.953855 -93.58 0.300144 -10.92
8.98825000 0.300368 3.7762 0.953798 -93.61 0.953798 -93.61 0.300324 -10.99
8.98850000 0.300550 3.8050 0.953741 -93.63 0.953741 -93.63 0.300505 -11.06
8.98875000 0.300733 3.8340 0.953683 -93.65 0.953683 -93.65 0.300688 -11.14
8.98900000 0.300918 3.8632 0.953625 -93.67 0.953625 -93.67 0.300873 -11.21
8.98925000 0.301104 3.8925 0.953566 -93.69 0.953566 -93.69 0.301059 -11.28
8.98950000 0.301292 3.9221 0.953506 -93.71 0.953506 -93.71 0.301246 -11.36
8.98975000 0.301481 3.9518 0.953446 -93.74 0.953446 -93.74 0.301435 -11.43
8.99000000 0.301672 3.9817 0.953386 -93.76 0.953386 -93.76 0.301625 -11.50
8.99025000 0.301864 4.0118 0.953325 -93.78 0.953325 -93.78 0.301817 -11.58
8.99050000 0.302058 4.0421 0.953263 -93.80 0.953263 -93.80 0.302011 -11.65
8.99075000 0.302254 4.0726 0.953201 -93.83 0.953201 -93.83 0.302206 -11.73
8.99100000 0.302451 4.1033 0.953138 -93.85 0.953138 -93.85 0.302403 -11.81
8.99125000 0.302650 4.1342 0.953075 -93.87 0.953075 -93.87 0.302602 -11.88
8.99150000 0.302850 4.1653 0.953011 -93.89 0.953011 -93.89 0.302802 -11.96
8.99175000 0.303053 4.1966 0.952946 -93.92 0.952946 -93.92 0.303004 -12.04
8.99200000 0.303257 4.2281 0.952881 -93.94 0.952881 -93.94 0.303208 -12.12
8.99225000 0.303463 4.2598 0.952816 -93.96 0.952816 -93.96 0.303413 -12.19
8.99250000 0.303670 4.2917 0.952749 -93.99 0.952749 -93.99 0.303620 -12.27
8.99275000 0.303879 4.3238 0.952682 -94.01 0.952682 -94.01 0.303829 -12.35
8.99300000 0.304091 4.3562 0.952615 -94.04 0.952615 -94.04 0.304040 -12.43
8.99325000 0.304304 4.3887 0.952547 -94.06 0.952547 -94.06 0.304253 -12.52
8.99350000 0.304518 4.4215 0.952478 -94.08 0.952478 -94.08 0.304467 -12.60
8.99375000 0.304735 4.4544 0.952408 -94.11 0.952408 -94.11 0.304683 -12.68
8.99400000 0.304954 4.4876 0.952338 -94.13 0.952338 -94.13 0.304902 -12.76
8.99425000 0.305174 4.5210 0.952267 -94.16 0.952267 -94.16 0.305122 -12.85
8.99450000 0.305397 4.5546 0.952196 -94.18 0.952196 -94.18 0.305344 -12.93
8.99475000 0.305621 4.5885 0.952123 -94.21 0.952123 -94.21 0.305568 -13.01
8.99490462 0.305761 4.6095 0.952078 -94.23 0.952078 -94.23 0.305708 -13.07
8.99500000 0.305848 4.6225 0.952050 -94.23 0.952050 -94.23 0.305794 -13.10
8.99525000 0.306077 4.6568 0.951977 -94.26 0.951977 -94.26 0.306023 -13.18
8.99550000 0.306307 4.6913 0.951902 -94.29 0.951902 -94.29 0.306253 -13.27
8.99575000 0.306540 4.7261 0.951827 -94.31 0.951827 -94.31 0.306485 -13.36
8.99600000 0.306775 4.7610 0.951751 -94.34 0.951751 -94.34 0.306720 -13.45
8.99625000 0.307012 4.7962 0.951674 -94.37 0.951674 -94.37 0.306957 -13.53
8.99627706 0.307038 4.8001 0.951666 -94.37 0.951666 -94.37 0.306982 -13.54
8.99650000 0.307252 4.8317 0.951597 -94.39 0.951597 -94.39 0.307195 -13.62
8.99675000 0.307493 4.8673 0.951519 -94.42 0.951519 -94.42 0.307437 -13.71
8.99700000 0.307737 4.9033 0.951440 -94.45 0.951440 -94.45 0.307680 -13.80
8.99725000 0.307983 4.9394 0.951360 -94.47 0.951360 -94.47 0.307926 -13.89
8.99750000 0.308232 4.9758 0.951279 -94.50 0.951279 -94.50 0.308174 -13.98