! Sonnet Data File
! From: emgraph Version : 16.52
! From Project: Resonator2_extremeCap2
! Data is De-embedded 
! Data File Written: 10/10/2017 13:11:39
!< HDATE 10/10/2017 08:28:44
!< MDATE 10/10/2017 08:28:44
!< PARAMS
!< Pwid1 = 2000.0
!< Pwid2 = 2000.0
!< Air_gap = 6.0
!< Width = 10.0
!< Gap = 93.0
!< END PARAMS
# GHZ S MA R 35.98000
8.98000000 0.430510 -11.15 0.902571 -99.72 0.902571 -99.72 0.430498 -8.297
!< P1 F=8.98 Eeff=(5.37116343 -2.3769e-5) Z0=(35.9716001 8.05996e-5) R=0.0 C=0.0 
!< P2 F=8.98 Eeff=(5.37116343 -2.3769e-5) Z0=(35.9716001 8.05996e-5) R=0.0 C=0.0 
8.98050000 0.430753 -11.15 0.902455 -99.74 0.902455 -99.74 0.430741 -8.339
8.98100000 0.430998 -11.16 0.902338 -99.77 0.902338 -99.77 0.430986 -8.381
8.98150000 0.431245 -11.16 0.902220 -99.79 0.902220 -99.79 0.431233 -8.424
8.98200000 0.431494 -11.16 0.902100 -99.81 0.902100 -99.81 0.431482 -8.467
8.98250000 0.431745 -11.16 0.901980 -99.84 0.901980 -99.84 0.431732 -8.510
8.98300000 0.431998 -11.17 0.901859 -99.86 0.901859 -99.86 0.431985 -8.554
8.98350000 0.432253 -11.17 0.901737 -99.88 0.901737 -99.88 0.432240 -8.598
8.98400000 0.432510 -11.17 0.901613 -99.91 0.901613 -99.91 0.432497 -8.642
8.98450000 0.432769 -11.17 0.901489 -99.93 0.901489 -99.93 0.432756 -8.687
8.98500000 0.433031 -11.18 0.901363 -99.95 0.901363 -99.95 0.433018 -8.731
8.98550000 0.433294 -11.18 0.901236 -99.98 0.901236 -99.98 0.433281 -8.777
8.98586626 0.433489 -11.18 0.901143 -99.99 0.901143 -99.99 0.433475 -8.810
8.98600000 0.433560 -11.18 0.901109 -100.0 0.901109 -100.0 0.433547 -8.822
8.98650000 0.433828 -11.18 0.900979 -100.0 0.900979 -100.0 0.433815 -8.868
8.98700000 0.434099 -11.19 0.900849 -100.0 0.900849 -100.0 0.434085 -8.915
8.98750000 0.434371 -11.19 0.900718 -100.1 0.900718 -100.1 0.434357 -8.962
8.98800000 0.434646 -11.19 0.900585 -100.1 0.900585 -100.1 0.434632 -9.009
8.98817831 0.434745 -11.19 0.900537 -100.1 0.900537 -100.1 0.434731 -9.026
8.98850000 0.434924 -11.19 0.900451 -100.1 0.900451 -100.1 0.434909 -9.056
8.98900000 0.435203 -11.20 0.900315 -100.1 0.900315 -100.1 0.435189 -9.104
8.98950000 0.435486 -11.20 0.900179 -100.2 0.900179 -100.2 0.435471 -9.152
8.99000000 0.435771 -11.20 0.900041 -100.2 0.900041 -100.2 0.435756 -9.201
8.99043737 0.436022 -11.20 0.899919 -100.2 0.899919 -100.2 0.436007 -9.244
8.99050000 0.436058 -11.20 0.899902 -100.2 0.899902 -100.2 0.436043 -9.250
8.99100000 0.436348 -11.21 0.899761 -100.3 0.899761 -100.3 0.436333 -9.300
8.99150000 0.436640 -11.21 0.899619 -100.3 0.899619 -100.3 0.436625 -9.350
8.99200000 0.436935 -11.21 0.899475 -100.3 0.899475 -100.3 0.436920 -9.400
8.99250000 0.437233 -11.21 0.899330 -100.3 0.899330 -100.3 0.437218 -9.451
8.99264467 0.437320 -11.21 0.899288 -100.3 0.899288 -100.3 0.437305 -9.466
8.99300000 0.437534 -11.21 0.899184 -100.4 0.899184 -100.4 0.437518 -9.502
8.99350000 0.437837 -11.22 0.899036 -100.4 0.899036 -100.4 0.437822 -9.554
8.99400000 0.438144 -11.22 0.898887 -100.4 0.898887 -100.4 0.438128 -9.606
8.99450000 0.438453 -11.22 0.898736 -100.4 0.898736 -100.4 0.438437 -9.659
8.99480140 0.438640 -11.22 0.898644 -100.5 0.898644 -100.5 0.438624 -9.690
8.99500000 0.438765 -11.22 0.898584 -100.5 0.898584 -100.5 0.438749 -9.712
8.99550000 0.439080 -11.23 0.898430 -100.5 0.898430 -100.5 0.439063 -9.765
8.99600000 0.439398 -11.23 0.898274 -100.5 0.898274 -100.5 0.439381 -9.819
8.99650000 0.439719 -11.23 0.898117 -100.5 0.898117 -100.5 0.439702 -9.874
8.99690870 0.439984 -11.23 0.897987 -100.6 0.897987 -100.6 0.439967 -9.918
8.99700000 0.440043 -11.23 0.897958 -100.6 0.897958 -100.6 0.440026 -9.929
8.99750000 0.440370 -11.23 0.897797 -100.6 0.897797 -100.6 0.440353 -9.984
8.99800000 0.440701 -11.24 0.897635 -100.6 0.897635 -100.6 0.440684 -10.04
8.99850000 0.441035 -11.24 0.897471 -100.7 0.897471 -100.7 0.441017 -10.10
8.99896772 0.441350 -11.24 0.897315 -100.7 0.897315 -100.7 0.441333 -10.15
8.99900000 0.441372 -11.24 0.897305 -100.7 0.897305 -100.7 0.441354 -10.15
8.99950000 0.441713 -11.24 0.897137 -100.7 0.897137 -100.7 0.441695 -10.21
9.00000000 0.442057 -11.24 0.896967 -100.8 0.896967 -100.8 0.442039 -10.27
9.00050000 0.442404 -11.25 0.896796 -100.8 0.896796 -100.8 0.442386 -10.33
9.00097956 0.442741 -11.25 0.896629 -100.8 0.896629 -100.8 0.442722 -10.38
9.00100000 0.442755 -11.25 0.896622 -100.8 0.896622 -100.8 0.442737 -10.39
9.00150000 0.443110 -11.25 0.896447 -100.8 0.896447 -100.8 0.443091 -10.45
9.00200000 0.443468 -11.25 0.896270 -100.9 0.896270 -100.9 0.443449 -10.51
9.00250000 0.443830 -11.25 0.896090 -100.9 0.896090 -100.9 0.443811 -10.57
9.00294530 0.444156 -11.25 0.895929 -100.9 0.895929 -100.9 0.444137 -10.62
9.00300000 0.444196 -11.25 0.895909 -100.9 0.895909 -100.9 0.444177 -10.63
9.00350000 0.444566 -11.26 0.895725 -101.0 0.895725 -101.0 0.444547 -10.69
9.00400000 0.444940 -11.26 0.895539 -101.0 0.895539 -101.0 0.444920 -10.75
9.00450000 0.445318 -11.26 0.895351 -101.0 0.895351 -101.0 0.445298 -10.82
9.00486600 0.445597 -11.26 0.895212 -101.1 0.895212 -101.1 0.445577 -10.86
9.00500000 0.445699 -11.26 0.895161 -101.1 0.895161 -101.1 0.445679 -10.88
9.00550000 0.446085 -11.26 0.894968 -101.1 0.894968 -101.1 0.446065 -10.95
9.00600000 0.446476 -11.27 0.894774 -101.1 0.894774 -101.1 0.446455 -11.01
9.00650000 0.446870 -11.27 0.894576 -101.2 0.894576 -101.2 0.446849 -11.08
9.00674268 0.447063 -11.27 0.894480 -101.2 0.894480 -101.2 0.447042 -11.11
9.00700000 0.447269 -11.27 0.894377 -101.2 0.894377 -101.2 0.447248 -11.14
9.00750000 0.447673 -11.27 0.894175 -101.2 0.894175 -101.2 0.447651 -11.21
9.00800000 0.448081 -11.27 0.893970 -101.3 0.893970 -101.3 0.448059 -11.28
9.00850000 0.448493 -11.27 0.893763 -101.3 0.893763 -101.3 0.448471 -11.35
9.00857637 0.448557 -11.27 0.893731 -101.3 0.893731 -101.3 0.448535 -11.36
9.00900000 0.448911 -11.28 0.893553 -101.3 0.893553 -101.3 0.448889 -11.42
9.00950000 0.449333 -11.28 0.893341 -101.4 0.893341 -101.4 0.449311 -11.49
9.01000000 0.449760 -11.28 0.893126 -101.4 0.893126 -101.4 0.449737 -11.56
9.01036804 0.450078 -11.28 0.892965 -101.4 0.892965 -101.4 0.450055 -11.61
9.01050000 0.450192 -11.28 0.892908 -101.5 0.892908 -101.5 0.450169 -11.63
9.01100000 0.450629 -11.28 0.892687 -101.5 0.892687 -101.5 0.450606 -11.70
9.01150000 0.451072 -11.28 0.892463 -101.5 0.892463 -101.5 0.451048 -11.78
9.01200000 0.451520 -11.29 0.892236 -101.6 0.892236 -101.6 0.451496 -11.85
9.01211865 0.451627 -11.29 0.892182 -101.6 0.892182 -101.6 0.451603 -11.87
9.01250000 0.451973 -11.29 0.892007 -101.6 0.892007 -101.6 0.451948 -11.92
9.01300000 0.452431 -11.29 0.891774 -101.6 0.891774 -101.6 0.452407 -12.00
9.01350000 0.452896 -11.29 0.891538 -101.7 0.891538 -101.7 0.452871 -12.08
9.01382915 0.453204 -11.29 0.891381 -101.7 0.891381 -101.7 0.453179 -12.13
9.01400000 0.453366 -11.29 0.891299 -101.7 0.891299 -101.7 0.453340 -12.15
9.01450000 0.453841 -11.29 0.891056 -101.8 0.891056 -101.8 0.453816 -12.23
9.01500000 0.454323 -11.30 0.890810 -101.8 0.890810 -101.8 0.454297 -12.31
9.01550000 0.454811 -11.30 0.890561 -101.8 0.890561 -101.8 0.454785 -12.39
9.01550046 0.454812 -11.30 0.890561 -101.8 0.890561 -101.8 0.454786 -12.39
9.01600000 0.455305 -11.30 0.890308 -101.9 0.890308 -101.9 0.455279 -12.47
9.01650000 0.455806 -11.30 0.890052 -101.9 0.890052 -101.9 0.455779 -12.56
9.01700000 0.456313 -11.30 0.889792 -102.0 0.889792 -102.0 0.456286 -12.64
9.01713347 0.456449 -11.30 0.889722 -102.0 0.889722 -102.0 0.456422 -12.66
9.01750000 0.456826 -11.30 0.889528 -102.0 0.889528 -102.0 0.456799 -12.72
9.01800000 0.457347 -11.31 0.889260 -102.1 0.889260 -102.1 0.457319 -12.81
9.01850000 0.457874 -11.31 0.888988 -102.1 0.888988 -102.1 0.457846 -12.89
9.01872906 0.458118 -11.31 0.888863 -102.1 0.888863 -102.1 0.458089 -12.93
9.01900000 0.458408 -11.31 0.888713 -102.1 0.888713 -102.1 0.458379 -12.98
9.01950000 0.458949 -11.31 0.888433 -102.2 0.888433 -102.2 0.458920 -13.07
9.02000000 0.459498 -11.31 0.888149 -102.2 0.888149 -102.2 0.459469 -13.16
9.02028809 0.459818 -11.31 0.887983 -102.3 0.887983 -102.3 0.459788 -13.21
9.02050000 0.460055 -11.31 0.887860 -102.3 0.887860 -102.3 0.460025 -13.25
9.02100000 0.460619 -11.32 0.887568 -102.3 0.887568 -102.3 0.460588 -13.34
9.02150000 0.461190 -11.32 0.887270 -102.4 0.887270 -102.4 0.461160 -13.43
9.02181140 0.461550 -11.32 0.887083 -102.4 0.887083 -102.4 0.461520 -13.49
9.02200000 0.461770 -11.32 0.886968 -102.4 0.886968 -102.4 0.461739 -13.53
9.02250000 0.462358 -11.32 0.886662 -102.5 0.886662 -102.5 0.462327 -13.62
9.02300000 0.462955 -11.32 0.886350 -102.5 0.886350 -102.5 0.462923 -13.72
9.02329980 0.463316 -11.33 0.886161 -102.5 0.886161 -102.5 0.463284 -13.78
9.02350000 0.463560 -11.33 0.886033 -102.6 0.886033 -102.6 0.463527 -13.81
9.02400000 0.464173 -11.33 0.885711 -102.6 0.885711 -102.6 0.464140 -13.91
9.02450000 0.464796 -11.33 0.885384 -102.7 0.885384 -102.7 0.464763 -14.01
9.02475410 0.465116 -11.33 0.885216 -102.7 0.885216 -102.7 0.465083 -14.06
9.02500000 0.465428 -11.33 0.885052 -102.7 0.885052 -102.7 0.465394 -14.11
9.02550000 0.466069 -11.34 0.884714 -102.8 0.884714 -102.8 0.466035 -14.22
9.02600000 0.466720 -11.34 0.884370 -102.8 0.884370 -102.8 0.466685 -14.32
9.02617508 0.466951 -11.34 0.884248 -102.8 0.884248 -102.8 0.466916 -14.36
9.02650000 0.467381 -11.34 0.884021 -102.9 0.884021 -102.9 0.467346 -14.43
9.02700000 0.468052 -11.34 0.883665 -102.9 0.883665 -102.9 0.468016 -14.53
9.02750000 0.468733 -11.34 0.883303 -103.0 0.883303 -103.0 0.468697 -14.64
9.02756349 0.468821 -11.34 0.883257 -103.0 0.883257 -103.0 0.468784 -14.66
9.02800000 0.469425 -11.35 0.882935 -103.0 0.882935 -103.0 0.469388 -14.75
9.02850000 0.470128 -11.35 0.882561 -103.1 0.882561 -103.1 0.470090 -14.86
9.02892009 0.470727 -11.35 0.882241 -103.2 0.882241 -103.2 0.470689 -14.96
9.02900000 0.470842 -11.35 0.882180 -103.2 0.882180 -103.2 0.470803 -14.98
9.02950000 0.471567 -11.36 0.881792 -103.2 0.881792 -103.2 0.471528 -15.09
9.03000000 0.472304 -11.36 0.881397 -103.3 0.881397 -103.3 0.472264 -15.21
9.03024561 0.472670 -11.36 0.881200 -103.3 0.881200 -103.3 0.472630 -15.27
9.03050000 0.473052 -11.36 0.880995 -103.3 0.880995 -103.3 0.473012 -15.33
9.03100000 0.473813 -11.36 0.880585 -103.4 0.880585 -103.4 0.473773 -15.45
9.03150000 0.474587 -11.37 0.880168 -103.5 0.880168 -103.5 0.474546 -15.57
9.03154076 0.474651 -11.37 0.880133 -103.5 0.880133 -103.5 0.474609 -15.58
9.03200000 0.475374 -11.37 0.879742 -103.5 0.879742 -103.5 0.475332 -15.69
9.03250000 0.476174 -11.37 0.879309 -103.6 0.879309 -103.6 0.476131 -15.82
9.03280622 0.476670 -11.38 0.879040 -103.6 0.879040 -103.6 0.476627 -15.90
9.03300000 0.476987 -11.38 0.878867 -103.7 0.878867 -103.7 0.476944 -15.95
9.03350000 0.477814 -11.38 0.878417 -103.7 0.878417 -103.7 0.477770 -16.08
9.03400000 0.478656 -11.39 0.877958 -103.8 0.877958 -103.8 0.478611 -16.21
9.03404269 0.478729 -11.39 0.877918 -103.8 0.877918 -103.8 0.478684 -16.22
9.03450000 0.479513 -11.39 0.877490 -103.9 0.877490 -103.9 0.479467 -16.34
9.03500000 0.480384 -11.39 0.877012 -103.9 0.877012 -103.9 0.480338 -16.48
9.03525083 0.480828 -11.40 0.876769 -104.0 0.876769 -104.0 0.480781 -16.55
9.03550000 0.481272 -11.40 0.876525 -104.0 0.876525 -104.0 0.481224 -16.61
9.03600000 0.482175 -11.40 0.876028 -104.1 0.876028 -104.1 0.482127 -16.75
9.03643129 0.482967 -11.41 0.875590 -104.1 0.875590 -104.1 0.482918 -16.88
9.03650000 0.483095 -11.41 0.875520 -104.1 0.875520 -104.1 0.483046 -16.90
9.03700000 0.484031 -11.41 0.875002 -104.2 0.875002 -104.2 0.483981 -17.04
9.03750000 0.484985 -11.42 0.874473 -104.3 0.874473 -104.3 0.484934 -17.19
9.03758469 0.485148 -11.42 0.874382 -104.3 0.874382 -104.3 0.485098 -17.21
9.03800000 0.485957 -11.42 0.873932 -104.4 0.873932 -104.4 0.485905 -17.34
9.03850000 0.486947 -11.43 0.873380 -104.5 0.873380 -104.5 0.486895 -17.49
9.03871167 0.487372 -11.43 0.873142 -104.5 0.873142 -104.5 0.487319 -17.56
9.03900000 0.487956 -11.44 0.872815 -104.5 0.872815 -104.5 0.487903 -17.64
9.03950000 0.488985 -11.44 0.872238 -104.6 0.872238 -104.6 0.488931 -17.80
9.03981283 0.489639 -11.45 0.871871 -104.7 0.871871 -104.7 0.489584 -17.90
9.04000000 0.490034 -11.45 0.871649 -104.7 0.871649 -104.7 0.489979 -17.96
9.04050000 0.491103 -11.46 0.871046 -104.8 0.871046 -104.8 0.491047 -18.13
9.04088875 0.491950 -11.46 0.870567 -104.9 0.870567 -104.9 0.491892 -18.25
9.04100000 0.492194 -11.46 0.870429 -104.9 0.870429 -104.9 0.492137 -18.29
9.04150000 0.493307 -11.47 0.869797 -105.0 0.869797 -105.0 0.493248 -18.46
9.04194002 0.494305 -11.48 0.869229 -105.0 0.869229 -105.0 0.494246 -18.61
9.04200000 0.494443 -11.48 0.869151 -105.0 0.869151 -105.0 0.494383 -18.63
9.04250000 0.495602 -11.49 0.868490 -105.1 0.868490 -105.1 0.495541 -18.81
9.04296720 0.496706 -11.50 0.867857 -105.2 0.867857 -105.2 0.496644 -18.97
9.04300000 0.496785 -11.50 0.867812 -105.2 0.867812 -105.2 0.496722 -18.99
9.04350000 0.497992 -11.51 0.867119 -105.3 0.867119 -105.3 0.497929 -19.17
9.04397084 0.499153 -11.51 0.866450 -105.4 0.866450 -105.4 0.499089 -19.34
9.04400000 0.499226 -11.51 0.866408 -105.4 0.866408 -105.4 0.499161 -19.35
9.04450000 0.500486 -11.53 0.865679 -105.5 0.865679 -105.5 0.500420 -19.54
9.04495149 0.501648 -11.53 0.865005 -105.6 0.865005 -105.6 0.501580 -19.71
9.04500000 0.501774 -11.54 0.864932 -105.6 0.864932 -105.6 0.501706 -19.73
9.04550000 0.503090 -11.55 0.864166 -105.7 0.864166 -105.7 0.503021 -19.93
9.04590967 0.504189 -11.56 0.863523 -105.8 0.863523 -105.8 0.504120 -20.09
9.04600000 0.504435 -11.56 0.863380 -105.8 0.863380 -105.8 0.504365 -20.13
9.04650000 0.505810 -11.57 0.862573 -105.9 0.862573 -105.9 0.505739 -20.33
9.04684589 0.506780 -11.58 0.862003 -106.0 0.862003 -106.0 0.506707 -20.48
9.04700000 0.507217 -11.58 0.861745 -106.1 0.861745 -106.1 0.507144 -20.54
9.04750000 0.508656 -11.60 0.860895 -106.2 0.860895 -106.2 0.508581 -20.75
9.04776065 0.509419 -11.61 0.860443 -106.2 0.860443 -106.2 0.509344 -20.87
9.04800000 0.510128 -11.61 0.860022 -106.3 0.860022 -106.3 0.510052 -20.97
9.04850000 0.511636 -11.63 0.859124 -106.4 0.859124 -106.4 0.511558 -21.19
9.04865446 0.512109 -11.63 0.858842 -106.4 0.858842 -106.4 0.512030 -21.26
9.04900000 0.513179 -11.64 0.858201 -106.5 0.858201 -106.5 0.513099 -21.42
9.04950000 0.514760 -11.66 0.857252 -106.6 0.857252 -106.6 0.514678 -21.65
9.04952779 0.514849 -11.66 0.857199 -106.7 0.857199 -106.7 0.514767 -21.66
9.05000000 0.516379 -11.68 0.856276 -106.8 0.856276 -106.8 0.516296 -21.89
9.05038111 0.517640 -11.69 0.855513 -106.9 0.855513 -106.9 0.517555 -22.07
9.05050000 0.518038 -11.70 0.855271 -106.9 0.855271 -106.9 0.517953 -22.13
9.05100000 0.519739 -11.72 0.854237 -107.0 0.854237 -107.0 0.519652 -22.37
9.05121487 0.520483 -11.73 0.853783 -107.1 0.853783 -107.1 0.520395 -22.48
9.05150000 0.521483 -11.74 0.853171 -107.2 0.853171 -107.2 0.521394 -22.63
9.05200000 0.523271 -11.76 0.852073 -107.3 0.852073 -107.3 0.523180 -22.88
9.05202953 0.523378 -11.76 0.852007 -107.3 0.852007 -107.3 0.523287 -22.90
9.05250000 0.525106 -11.79 0.850941 -107.5 0.850941 -107.5 0.525013 -23.15
9.05282552 0.526327 -11.80 0.850185 -107.6 0.850185 -107.6 0.526232 -23.32
9.05300000 0.526990 -11.81 0.849773 -107.6 0.849773 -107.6 0.526894 -23.42
9.05350000 0.528924 -11.84 0.848568 -107.8 0.848568 -107.8 0.528826 -23.69
9.05360327 0.529330 -11.84 0.848315 -107.8 0.848315 -107.8 0.529231 -23.75
9.05400000 0.530910 -11.86 0.847324 -107.9 0.847324 -107.9 0.530809 -23.98
9.05436320 0.532386 -11.88 0.846395 -108.0 0.846395 -108.0 0.532284 -24.19
9.05450000 0.532950 -11.89 0.846040 -108.1 0.846040 -108.1 0.532847 -24.27
9.05500000 0.535047 -11.92 0.844712 -108.2 0.844712 -108.2 0.534941 -24.57
9.05510572 0.535498 -11.93 0.844426 -108.3 0.844426 -108.3 0.535392 -24.63
9.05550000 0.537203 -11.96 0.843340 -108.4 0.843340 -108.4 0.537095 -24.87
9.05583123 0.538665 -11.98 0.842405 -108.5 0.842405 -108.5 0.538555 -25.08
9.05600000 0.539420 -11.99 0.841920 -108.6 0.841920 -108.6 0.539309 -25.18
9.05650000 0.541702 -12.03 0.840451 -108.8 0.840451 -108.8 0.541588 -25.50
9.05654011 0.541887 -12.03 0.840330 -108.8 0.840330 -108.8 0.541773 -25.53
9.05700000 0.544050 -12.07 0.838929 -108.9 0.838929 -108.9 0.543933 -25.83
9.05723275 0.545166 -12.08 0.838202 -109.0 0.838202 -109.0 0.545048 -25.99
9.05750000 0.546468 -12.11 0.837352 -109.1 0.837352 -109.1 0.546348 -26.17
9.05790951 0.548502 -12.14 0.836018 -109.3 0.836018 -109.3 0.548379 -26.45
9.05800000 0.548958 -12.15 0.835718 -109.3 0.835718 -109.3 0.548835 -26.52
9.05850000 0.551525 -12.19 0.834022 -109.5 0.834022 -109.5 0.551398 -26.87
9.05857077 0.551895 -12.20 0.833777 -109.5 0.833777 -109.5 0.551767 -26.92
9.05900000 0.554171 -12.24 0.832262 -109.7 0.832262 -109.7 0.554041 -27.24
9.05921688 0.555345 -12.27 0.831477 -109.8 0.831477 -109.8 0.555213 -27.40
9.05950000 0.556901 -12.29 0.830433 -109.9 0.830433 -109.9 0.556767 -27.61
9.05984818 0.558852 -12.33 0.829118 -110.1 0.829118 -110.1 0.558716 -27.88
9.06000000 0.559717 -12.35 0.828533 -110.2 0.828533 -110.2 0.559579 -28.00
9.06046502 0.562418 -12.40 0.826698 -110.4 0.826698 -110.4 0.562276 -28.37
9.06050000 0.562624 -12.41 0.826557 -110.4 0.826557 -110.4 0.562482 -28.40
9.06100000 0.565627 -12.47 0.824500 -110.6 0.824500 -110.6 0.565481 -28.81
9.06106772 0.566041 -12.48 0.824214 -110.7 0.824214 -110.7 0.565894 -28.87
9.06150000 0.568729 -12.53 0.822357 -110.9 0.822357 -110.9 0.568579 -29.23
9.06165661 0.569723 -12.56 0.821667 -110.9 0.821667 -110.9 0.569571 -29.37
9.06200000 0.571937 -12.60 0.820124 -111.1 0.820124 -111.1 0.571782 -29.67
9.06223201 0.573462 -12.64 0.819055 -111.2 0.819055 -111.2 0.573305 -29.87
9.06250000 0.575254 -12.68 0.817794 -111.4 0.817794 -111.4 0.575095 -30.11
9.06279423 0.577260 -12.72 0.816375 -111.5 0.816375 -111.5 0.577098 -30.38
9.06300000 0.578688 -12.76 0.815362 -111.6 0.815362 -111.6 0.578523 -30.58
9.06334356 0.581116 -12.81 0.813628 -111.8 0.813628 -111.8 0.580948 -30.90
9.06350000 0.582242 -12.84 0.812820 -111.9 0.812820 -111.9 0.582072 -31.05
9.06388030 0.585031 -12.91 0.810810 -112.1 0.810810 -112.1 0.584856 -31.43
9.06400000 0.585924 -12.93 0.810163 -112.2 0.810163 -112.2 0.585748 -31.55
9.06440475 0.589002 -13.00 0.807921 -112.5 0.807921 -112.5 0.588822 -31.96
9.06450000 0.589740 -13.02 0.807381 -112.5 0.807381 -112.5 0.589559 -32.06
9.06491718 0.593032 -13.11 0.804960 -112.8 0.804960 -112.8 0.592846 -32.49
9.06500000 0.593698 -13.12 0.804467 -112.8 0.804467 -112.8 0.593510 -32.58
9.06541786 0.597119 -13.21 0.801924 -113.1 0.801924 -113.1 0.596926 -33.04
9.06550000 0.597804 -13.23 0.801412 -113.2 0.801412 -113.2 0.597610 -33.13
9.06590708 0.601262 -13.32 0.798813 -113.4 0.798813 -113.4 0.601063 -33.58
9.06600000 0.602067 -13.35 0.798205 -113.5 0.798205 -113.5 0.601866 -33.69
9.06638508 0.605462 -13.44 0.795625 -113.8 0.795625 -113.8 0.605257 -34.14
9.06650000 0.606495 -13.47 0.794835 -113.8 0.794835 -113.8 0.606288 -34.27
9.06685213 0.609718 -13.56 0.792359 -114.1 0.792359 -114.1 0.609506 -34.70
9.06700000 0.611098 -13.60 0.791292 -114.2 0.791292 -114.2 0.610883 -34.88
9.06730848 0.614029 -13.69 0.789012 -114.4 0.789012 -114.4 0.613809 -35.26
9.06750000 0.615885 -13.74 0.787560 -114.6 0.787560 -114.6 0.615662 -35.51
9.06775438 0.618394 -13.82 0.785585 -114.8 0.785585 -114.8 0.618168 -35.83
9.06800000 0.620866 -13.89 0.783627 -115.0 0.783627 -115.0 0.620636 -36.16
9.06819005 0.622813 -13.95 0.782076 -115.1 0.782076 -115.1 0.622579 -36.41
9.06850000 0.626053 -14.05 0.779476 -115.4 0.779476 -115.4 0.625814 -36.83
9.06861575 0.627284 -14.09 0.778482 -115.5 0.778482 -115.5 0.627043 -36.99
9.06900000 0.631457 -14.22 0.775091 -115.8 0.775091 -115.8 0.631209 -37.54
9.06903169 0.631808 -14.24 0.774804 -115.9 0.774804 -115.9 0.631558 -37.58
9.06943809 0.636381 -14.39 0.771040 -116.2 0.771040 -116.2 0.636124 -38.17
9.06950000 0.637092 -14.41 0.770451 -116.3 0.770451 -116.3 0.636833 -38.27
9.06983519 0.641004 -14.54 0.767188 -116.6 0.767188 -116.6 0.640739 -38.77
9.07000000 0.642969 -14.61 0.765537 -116.8 0.765537 -116.8 0.642701 -39.03
9.07022319 0.645675 -14.70 0.763248 -117.0 0.763248 -117.0 0.645402 -39.38
9.07050000 0.649104 -14.82 0.760324 -117.3 0.760324 -117.3 0.648825 -39.82
9.07060229 0.650392 -14.87 0.759219 -117.4 0.759219 -117.4 0.650111 -39.99
9.07097271 0.655155 -15.04 0.755099 -117.8 0.755099 -117.8 0.654865 -40.60
9.07100000 0.655512 -15.05 0.754788 -117.8 0.754788 -117.8 0.655221 -40.65
9.07133464 0.659961 -15.22 0.750888 -118.2 0.750888 -118.2 0.659662 -41.22
9.07150000 0.662208 -15.30 0.748899 -118.4 0.748899 -118.4 0.661905 -41.51
9.07168828 0.664808 -15.40 0.746584 -118.6 0.746584 -118.6 0.664501 -41.84
9.07200000 0.669211 -15.57 0.742626 -118.9 0.742626 -118.9 0.668895 -42.41
9.07203382 0.669696 -15.59 0.742187 -119.0 0.742187 -119.0 0.669379 -42.47
9.07237143 0.674621 -15.78 0.737697 -119.4 0.737697 -119.4 0.674296 -43.11
9.07250000 0.676537 -15.86 0.735934 -119.6 0.735934 -119.6 0.676208 -43.35
9.07270132 0.679583 -15.98 0.733112 -119.8 0.733112 -119.8 0.679248 -43.74
9.07300000 0.684207 -16.17 0.728782 -120.2 0.728782 -120.2 0.683863 -44.34
9.07302364 0.684578 -16.18 0.728432 -120.2 0.728432 -120.2 0.684234 -44.39
9.07333858 0.689605 -16.39 0.723657 -120.7 0.723657 -120.7 0.689251 -45.03
9.07350000 0.692240 -16.50 0.721127 -120.9 0.721127 -120.9 0.691880 -45.37
9.07364630 0.694662 -16.61 0.718786 -121.1 0.718786 -121.1 0.694298 -45.69
9.07394697 0.699745 -16.83 0.713819 -121.5 0.713819 -121.5 0.699371 -46.34
9.07400000 0.700657 -16.87 0.712921 -121.6 0.712921 -121.6 0.700281 -46.46
9.07424075 0.704853 -17.05 0.708756 -122.0 0.708756 -122.0 0.704468 -47.00
9.07450000 0.709480 -17.26 0.704106 -122.4 0.704106 -122.4 0.709086 -47.60
9.07452780 0.709983 -17.29 0.703597 -122.4 0.703597 -122.4 0.709588 -47.66
9.07480827 0.715131 -17.52 0.698342 -122.9 0.698342 -122.9 0.714726 -48.33
9.07500000 0.718731 -17.69 0.694622 -123.2 0.694622 -123.2 0.718318 -48.80
9.07508231 0.720296 -17.76 0.692992 -123.3 0.692992 -123.3 0.719881 -49.00
9.07535008 0.725475 -18.01 0.687546 -123.8 0.687546 -123.8 0.725048 -49.67
9.07550000 0.728433 -18.16 0.684399 -124.0 0.684399 -124.0 0.728000 -50.06
9.07561171 0.730664 -18.26 0.682006 -124.2 0.682006 -124.2 0.730227 -50.35
9.07586734 0.735861 -18.52 0.676372 -124.7 0.676372 -124.7 0.735413 -51.03
9.07600000 0.738609 -18.66 0.673358 -125.0 0.673358 -125.0 0.738154 -51.39
9.07611712 0.741063 -18.79 0.670644 -125.2 0.670644 -125.2 0.740603 -51.71
9.07636117 0.746266 -19.05 0.664824 -125.6 0.664824 -125.6 0.745795 -52.40
9.07650000 0.749280 -19.21 0.661411 -125.9 0.661411 -125.9 0.748803 -52.80
9.07659964 0.751468 -19.33 0.658913 -126.1 0.658913 -126.1 0.750986 -53.09
9.07683263 0.756665 -19.60 0.652912 -126.6 0.652912 -126.6 0.756171 -53.78
9.07700000 0.760469 -19.81 0.648458 -127.0 0.648458 -127.0 0.759966 -54.28
9.07706029 0.761854 -19.89 0.646823 -127.1 0.646823 -127.1 0.761348 -54.47
9.07728273 0.767032 -20.17 0.640647 -127.6 0.640647 -127.6 0.766514 -55.16
9.07750000 0.772193 -20.46 0.634387 -128.1 0.634387 -128.1 0.771664 -55.86
9.07750008 0.772195 -20.46 0.634385 -128.1 0.634385 -128.1 0.771666 -55.86
9.07771244 0.777340 -20.76 0.628040 -128.6 0.628040 -128.6 0.776799 -56.55
9.07791994 0.782465 -21.06 0.621614 -129.1 0.621614 -129.1 0.781912 -57.25
9.07800000 0.784468 -21.18 0.619072 -129.3 0.619072 -129.3 0.783910 -57.52
9.07812269 0.787565 -21.36 0.615108 -129.6 0.615108 -129.6 0.787000 -57.95
9.07832079 0.792638 -21.67 0.608526 -130.1 0.608526 -130.1 0.792061 -58.65
9.07850000 0.797304 -21.96 0.602370 -130.5 0.602370 -130.5 0.796715 -59.29
9.07851435 0.797680 -21.98 0.601869 -130.6 0.601869 -130.6 0.797091 -59.35
9.07870347 0.802688 -22.30 0.595140 -131.1 0.595140 -131.1 0.802086 -60.05
9.07888826 0.807659 -22.61 0.588342 -131.6 0.588342 -131.6 0.807045 -60.74
9.07900000 0.810703 -22.81 0.584121 -131.9 0.584121 -131.9 0.810081 -61.18
9.07906882 0.812591 -22.94 0.581478 -132.1 0.581478 -132.1 0.811964 -61.44
9.07924524 0.817478 -23.26 0.574551 -132.6 0.574551 -132.6 0.816839 -62.14
9.07941761 0.822320 -23.59 0.567563 -133.1 0.567563 -133.1 0.821669 -62.84
9.07950000 0.824657 -23.75 0.564145 -133.3 0.564145 -133.3 0.824000 -63.18
9.07958604 0.827113 -23.92 0.560519 -133.6 0.560519 -133.6 0.826449 -63.54
9.07975061 0.831854 -24.25 0.553421 -134.1 0.553421 -134.1 0.831178 -64.23
9.07991141 0.836540 -24.58 0.546273 -134.6 0.546273 -134.6 0.835851 -64.93
9.08000000 0.839145 -24.77 0.542242 -134.9 0.542242 -134.9 0.838449 -65.32
9.08006852 0.841169 -24.92 0.539079 -135.1 0.539079 -135.1 0.840468 -65.62
9.08022203 0.845739 -25.26 0.531842 -135.6 0.531842 -135.6 0.845025 -66.31
9.08037203 0.850247 -25.60 0.524565 -136.1 0.524565 -136.1 0.849520 -67.00
9.08050000 0.854124 -25.90 0.518191 -136.6 0.518191 -136.6 0.853387 -67.60
9.08051858 0.854690 -25.94 0.517253 -136.7 0.517253 -136.7 0.853951 -67.68
9.08066178 0.859066 -26.28 0.509909 -137.2 0.509909 -137.2 0.858315 -68.37
9.08080170 0.863374 -26.63 0.502538 -137.7 0.502538 -137.7 0.862611 -69.05
9.08093841 0.867612 -26.97 0.495143 -138.2 0.495143 -138.2 0.866837 -69.72
9.08100000 0.869530 -27.13 0.491748 -138.4 0.491748 -138.4 0.868748 -70.03
9.08107199 0.871777 -27.32 0.487728 -138.7 0.487728 -138.7 0.870990 -70.40
9.08120251 0.875869 -27.67 0.480297 -139.2 0.480297 -139.2 0.875069 -71.07
9.08133004 0.879885 -28.01 0.472854 -139.7 0.472854 -139.7 0.879073 -71.73
9.08145465 0.883825 -28.36 0.465403 -140.2 0.465403 -140.2 0.883001 -72.40
9.08150000 0.885262 -28.49 0.462647 -140.4 0.462647 -140.4 0.884433 -72.64
9.08157640 0.887686 -28.70 0.457949 -140.7 0.457949 -140.7 0.886850 -73.05
9.08169536 0.891469 -29.05 0.450494 -141.2 0.450494 -141.2 0.890621 -73.71
9.08181159 0.895172 -29.40 0.443044 -141.7 0.443044 -141.7 0.894312 -74.36
9.08192517 0.898794 -29.74 0.435601 -142.1 0.435601 -142.1 0.897922 -75.00
9.08200000 0.901181 -29.97 0.430607 -142.5 0.430607 -142.5 0.900302 -75.43
9.08203614 0.902334 -30.08 0.428170 -142.6 0.428170 -142.6 0.901451 -75.64
9.08214456 0.905793 -30.43 0.420754 -143.1 0.420754 -143.1 0.904899 -76.27
9.08225051 0.909170 -30.77 0.413357 -143.6 0.413357 -143.6 0.908264 -76.90
9.08235402 0.912464 -31.11 0.405984 -144.1 0.405984 -144.1 0.911547 -77.53
9.08245516 0.915675 -31.45 0.398637 -144.5 0.398637 -144.5 0.914747 -78.14
9.08250000 0.917096 -31.60 0.395334 -144.7 0.395334 -144.7 0.916163 -78.42
9.08255399 0.918805 -31.78 0.391319 -145.0 0.391319 -145.0 0.917865 -78.76
9.08265055 0.921851 -32.12 0.384035 -145.5 0.384035 -145.5 0.920901 -79.36
9.08274490 0.924816 -32.45 0.376788 -145.9 0.376788 -145.9 0.923855 -79.96
9.08283708 0.927699 -32.78 0.369581 -146.4 0.369581 -146.4 0.926727 -80.56
9.08292716 0.930500 -33.11 0.362416 -146.8 0.362416 -146.8 0.929518 -81.14
9.08300000 0.932754 -33.38 0.356533 -147.2 0.356533 -147.2 0.931763 -81.62
9.08301517 0.933221 -33.44 0.355297 -147.3 0.355297 -147.3 0.932229 -81.72
9.08310116 0.935863 -33.76 0.348228 -147.7 0.348228 -147.7 0.934860 -82.30
9.08318518 0.938424 -34.08 0.341209 -148.1 0.341209 -148.1 0.937412 -82.87
9.08326728 0.940908 -34.40 0.334245 -148.6 0.334245 -148.6 0.939885 -83.43
9.08334750 0.943314 -34.72 0.327338 -149.0 0.327338 -149.0 0.942282 -83.98
9.08342588 0.945644 -35.03 0.320490 -149.4 0.320490 -149.4 0.944602 -84.53
9.08350000 0.947827 -35.33 0.313923 -149.8 0.313923 -149.8 0.946775 -85.06
9.08350246 0.947899 -35.34 0.313703 -149.8 0.313703 -149.8 0.946847 -85.07
9.08357729 0.950079 -35.65 0.306980 -150.2 0.306980 -150.2 0.949018 -85.61
9.08365040 0.952187 -35.95 0.300322 -150.6 0.300322 -150.6 0.951117 -86.13
9.08372184 0.954223 -36.25 0.293732 -151.0 0.293732 -151.0 0.953144 -86.65
9.08379164 0.956189 -36.54 0.287211 -151.4 0.287211 -151.4 0.955101 -87.17
9.08385984 0.958086 -36.84 0.280761 -151.8 0.280761 -151.8 0.956989 -87.67
9.08392648 0.959916 -37.13 0.274383 -152.2 0.274383 -152.2 0.958810 -88.17
9.08399159 0.961679 -37.41 0.268079 -152.6 0.268079 -152.6 0.960565 -88.66
9.08400000 0.961905 -37.45 0.267260 -152.6 0.267260 -152.6 0.960790 -88.73
9.08405521 0.963378 -37.70 0.261850 -152.9 0.261850 -152.9 0.962256 -89.15
9.08411737 0.965014 -37.97 0.255698 -153.3 0.255698 -153.3 0.963884 -89.62
9.08417811 0.966588 -38.25 0.249622 -153.7 0.249622 -153.7 0.965450 -90.09
9.08423746 0.968103 -38.52 0.243625 -154.0 0.243625 -154.0 0.966957 -90.56
9.08429544 0.969558 -38.79 0.237707 -154.4 0.237707 -154.4 0.968405 -91.01
9.08435210 0.970957 -39.05 0.231868 -154.7 0.231868 -154.7 0.969796 -91.46
9.08440746 0.972300 -39.31 0.226110 -155.0 0.226110 -155.0 0.971132 -91.90
9.08446155 0.973590 -39.57 0.220433 -155.3 0.220433 -155.3 0.972414 -92.34
9.08450000 0.974492 -39.75 0.216367 -155.6 0.216367 -155.6 0.973311 -92.65
9.08451440 0.974827 -39.82 0.214837 -155.7 0.214837 -155.7 0.973644 -92.77
9.08456604 0.976013 -40.07 0.209323 -156.0 0.209323 -156.0 0.974823 -93.19
9.08461650 0.977149 -40.31 0.203890 -156.3 0.203890 -156.3 0.975953 -93.60
9.08466580 0.978238 -40.56 0.198540 -156.6 0.198540 -156.6 0.977035 -94.01
9.08471397 0.979281 -40.79 0.193272 -156.9 0.193272 -156.9 0.978071 -94.41
9.08476104 0.980278 -41.03 0.188086 -157.2 0.188086 -157.2 0.979062 -94.80
9.08480703 0.981232 -41.26 0.182981 -157.5 0.182981 -157.5 0.980010 -95.18
9.08485196 0.982145 -41.48 0.177959 -157.7 0.177959 -157.7 0.980916 -95.56
9.08489587 0.983016 -41.70 0.173018 -158.0 0.173018 -158.0 0.981781 -95.94
9.08493877 0.983848 -41.92 0.168159 -158.3 0.168159 -158.3 0.982608 -96.30
9.08498069 0.984643 -42.14 0.163381 -158.5 0.163381 -158.5 0.983396 -96.66
9.08500000 0.985003 -42.24 0.161169 -158.7 0.161169 -158.7 0.983754 -96.83
9.08502164 0.985401 -42.35 0.158683 -158.8 0.158683 -158.8 0.984149 -97.01
9.08506166 0.986123 -42.56 0.154066 -159.0 0.154066 -159.0 0.984866 -97.36
9.08510076 0.986812 -42.76 0.149528 -159.3 0.149528 -159.3 0.985549 -97.70
9.08513897 0.987468 -42.96 0.145070 -159.5 0.145070 -159.5 0.986200 -98.04
9.08517629 0.988093 -43.16 0.140689 -159.7 0.140689 -159.7 0.986819 -98.36
9.08521277 0.988687 -43.35 0.136387 -160.0 0.136387 -160.0 0.987408 -98.68
9.08524841 0.989252 -43.54 0.132162 -160.2 0.132162 -160.2 0.987968 -99.00