! Sonnet Data File
! From: emgraph Version : 16.52
! From Project: Resonator2_cp
! Data is De-embedded 
! Data File Written: 10/07/2017 00:08:07
!< HDATE 10/06/2017 20:18:08
!< MDATE 10/06/2017 20:18:08
!< PARAMS
!< gap = 16.0
!< Length = 400.0
!< Pwid1 = 2000.0
!< Pwid2 = 2000.0
!< Air_gap = 12.0
!< Width = 20.0
!< END PARAMS
# GHZ S MA R 40.13000
8.80000000 0.031665 1.4344 0.999494 -74.45 0.999494 -74.45 0.031667 29.674
!< P1 F=8.8 Eeff=(5.24625567 -2.3027e-5) Z0=(40.1432274 8.93341e-5) R=0.0 C=0.0 
!< P2 F=8.8 Eeff=(5.24625567 -2.3027e-5) Z0=(40.1432274 8.93341e-5) R=0.0 C=0.0 
8.80020000 0.031677 1.4222 0.999494 -74.45 0.999494 -74.45 0.031679 29.681
8.80040000 0.031688 1.4100 0.999494 -74.45 0.999494 -74.45 0.031690 29.689
8.80060000 0.031700 1.3977 0.999493 -74.45 0.999493 -74.45 0.031702 29.696
8.80080000 0.031712 1.3854 0.999493 -74.46 0.999493 -74.46 0.031714 29.703
8.80100000 0.031723 1.3731 0.999493 -74.46 0.999493 -74.46 0.031725 29.711
8.80120000 0.031735 1.3607 0.999492 -74.46 0.999492 -74.46 0.031737 29.718
8.80140000 0.031747 1.3483 0.999492 -74.46 0.999492 -74.46 0.031749 29.726
8.80160000 0.031759 1.3359 0.999491 -74.47 0.999491 -74.47 0.031761 29.733
8.80180000 0.031771 1.3234 0.999491 -74.47 0.999491 -74.47 0.031773 29.741
8.80200000 0.031783 1.3109 0.999491 -74.47 0.999491 -74.47 0.031785 29.748
8.80220000 0.031795 1.2984 0.999490 -74.47 0.999490 -74.47 0.031797 29.756
8.80240000 0.031807 1.2858 0.999490 -74.48 0.999490 -74.48 0.031809 29.764
8.80260000 0.031819 1.2732 0.999489 -74.48 0.999489 -74.48 0.031821 29.771
8.80280000 0.031831 1.2605 0.999489 -74.48 0.999489 -74.48 0.031833 29.779
8.80300000 0.031843 1.2478 0.999489 -74.48 0.999489 -74.48 0.031845 29.787
8.80320000 0.031855 1.2351 0.999488 -74.49 0.999488 -74.49 0.031858 29.795
8.80340000 0.031868 1.2223 0.999488 -74.49 0.999488 -74.49 0.031870 29.802
8.80360000 0.031880 1.2095 0.999487 -74.49 0.999487 -74.49 0.031882 29.810
8.80380000 0.031892 1.1967 0.999487 -74.49 0.999487 -74.49 0.031895 29.818
8.80400000 0.031905 1.1838 0.999487 -74.50 0.999487 -74.50 0.031907 29.826
8.80420000 0.031917 1.1709 0.999486 -74.50 0.999486 -74.50 0.031920 29.834
8.80440000 0.031930 1.1580 0.999486 -74.50 0.999486 -74.50 0.031932 29.842
8.80460000 0.031943 1.1450 0.999485 -74.50 0.999485 -74.50 0.031945 29.850
8.80480000 0.031955 1.1320 0.999485 -74.51 0.999485 -74.51 0.031957 29.858
8.80500000 0.031968 1.1189 0.999485 -74.51 0.999485 -74.51 0.031970 29.866
8.80520000 0.031981 1.1058 0.999484 -74.51 0.999484 -74.51 0.031983 29.874
8.80540000 0.031994 1.0926 0.999484 -74.51 0.999484 -74.51 0.031996 29.882
8.80560000 0.032006 1.0795 0.999483 -74.52 0.999483 -74.52 0.032009 29.890
8.80580000 0.032019 1.0662 0.999483 -74.52 0.999483 -74.52 0.032022 29.898
8.80600000 0.032032 1.0530 0.999483 -74.52 0.999483 -74.52 0.032035 29.906
8.80620000 0.032045 1.0397 0.999482 -74.52 0.999482 -74.52 0.032048 29.915
8.80640000 0.032058 1.0263 0.999482 -74.53 0.999482 -74.53 0.032061 29.923
8.80660000 0.032072 1.0130 0.999481 -74.53 0.999481 -74.53 0.032074 29.931
8.80680000 0.032085 0.9996 0.999481 -74.53 0.999481 -74.53 0.032087 29.940
8.80700000 0.032098 0.9861 0.999480 -74.53 0.999480 -74.53 0.032100 29.948
8.80720000 0.032111 0.9726 0.999480 -74.54 0.999480 -74.54 0.032114 29.956
8.80740000 0.032125 0.9591 0.999479 -74.54 0.999479 -74.54 0.032127 29.965
8.80760000 0.032138 0.9455 0.999479 -74.54 0.999479 -74.54 0.032141 29.973
8.80780000 0.032152 0.9318 0.999479 -74.54 0.999479 -74.54 0.032154 29.982
8.80800000 0.032165 0.9182 0.999478 -74.55 0.999478 -74.55 0.032168 29.990
8.80820000 0.032179 0.9045 0.999478 -74.55 0.999478 -74.55 0.032181 29.999
8.80840000 0.032193 0.8907 0.999477 -74.55 0.999477 -74.55 0.032195 30.007
8.80860000 0.032206 0.8769 0.999477 -74.55 0.999477 -74.55 0.032209 30.016
8.80880000 0.032220 0.8631 0.999476 -74.56 0.999476 -74.56 0.032222 30.025
8.80900000 0.032234 0.8492 0.999476 -74.56 0.999476 -74.56 0.032236 30.034
8.80920000 0.032248 0.8353 0.999475 -74.56 0.999475 -74.56 0.032250 30.042
8.80940000 0.032262 0.8213 0.999475 -74.56 0.999475 -74.56 0.032264 30.051
8.80960000 0.032276 0.8073 0.999475 -74.57 0.999475 -74.57 0.032278 30.060
8.80980000 0.032290 0.7933 0.999474 -74.57 0.999474 -74.57 0.032292 30.069
8.81000000 0.032304 0.7792 0.999474 -74.57 0.999474 -74.57 0.032307 30.078
8.81020000 0.032318 0.7651 0.999473 -74.58 0.999473 -74.58 0.032321 30.087
8.81040000 0.032333 0.7509 0.999473 -74.58 0.999473 -74.58 0.032335 30.095
8.81060000 0.032347 0.7366 0.999472 -74.58 0.999472 -74.58 0.032349 30.104
8.81080000 0.032362 0.7224 0.999472 -74.58 0.999472 -74.58 0.032364 30.114
8.81100000 0.032376 0.7081 0.999471 -74.59 0.999471 -74.59 0.032378 30.123
8.81120000 0.032391 0.6937 0.999471 -74.59 0.999471 -74.59 0.032393 30.132
8.81140000 0.032405 0.6793 0.999470 -74.59 0.999470 -74.59 0.032408 30.141
8.81160000 0.032420 0.6648 0.999470 -74.59 0.999470 -74.59 0.032422 30.150
8.81180000 0.032435 0.6503 0.999469 -74.60 0.999469 -74.60 0.032437 30.159
8.81200000 0.032449 0.6358 0.999469 -74.60 0.999469 -74.60 0.032452 30.169
8.81220000 0.032464 0.6212 0.999468 -74.60 0.999468 -74.60 0.032467 30.178
8.81240000 0.032479 0.6065 0.999468 -74.60 0.999468 -74.60 0.032482 30.187
8.81260000 0.032494 0.5919 0.999467 -74.61 0.999467 -74.61 0.032497 30.197
8.81280000 0.032509 0.5771 0.999467 -74.61 0.999467 -74.61 0.032512 30.206
8.81300000 0.032524 0.5623 0.999466 -74.61 0.999466 -74.61 0.032527 30.215
8.81320000 0.032540 0.5475 0.999466 -74.61 0.999466 -74.61 0.032542 30.225
8.81340000 0.032555 0.5326 0.999465 -74.62 0.999465 -74.62 0.032557 30.234
8.81360000 0.032570 0.5177 0.999465 -74.62 0.999465 -74.62 0.032573 30.244
8.81380000 0.032586 0.5027 0.999464 -74.62 0.999464 -74.62 0.032588 30.254
8.81400000 0.032601 0.4877 0.999464 -74.63 0.999464 -74.63 0.032604 30.263
8.81420000 0.032617 0.4726 0.999463 -74.63 0.999463 -74.63 0.032619 30.273
8.81440000 0.032633 0.4575 0.999463 -74.63 0.999463 -74.63 0.032635 30.283
8.81460000 0.032648 0.4423 0.999462 -74.63 0.999462 -74.63 0.032651 30.292
8.81480000 0.032664 0.4271 0.999462 -74.64 0.999462 -74.64 0.032667 30.302
8.81500000 0.032680 0.4118 0.999461 -74.64 0.999461 -74.64 0.032683 30.312
8.81520000 0.032696 0.3965 0.999461 -74.64 0.999461 -74.64 0.032698 30.322
8.81540000 0.032712 0.3811 0.999460 -74.64 0.999460 -74.64 0.032715 30.332
8.81560000 0.032728 0.3657 0.999460 -74.65 0.999460 -74.65 0.032731 30.342
8.81580000 0.032744 0.3502 0.999459 -74.65 0.999459 -74.65 0.032747 30.352
8.81600000 0.032761 0.3347 0.999458 -74.65 0.999458 -74.65 0.032763 30.362
8.81620000 0.032777 0.3191 0.999458 -74.66 0.999458 -74.66 0.032779 30.372
8.81640000 0.032793 0.3035 0.999457 -74.66 0.999457 -74.66 0.032796 30.382
8.81660000 0.032810 0.2878 0.999457 -74.66 0.999457 -74.66 0.032812 30.392
8.81680000 0.032826 0.2720 0.999456 -74.66 0.999456 -74.66 0.032829 30.403
8.81700000 0.032843 0.2562 0.999456 -74.67 0.999456 -74.67 0.032846 30.413
8.81720000 0.032860 0.2404 0.999455 -74.67 0.999455 -74.67 0.032862 30.423
8.81740000 0.032877 0.2245 0.999455 -74.67 0.999455 -74.67 0.032879 30.434
8.81760000 0.032893 0.2085 0.999454 -74.67 0.999454 -74.67 0.032896 30.444
8.81780000 0.032910 0.1925 0.999453 -74.68 0.999453 -74.68 0.032913 30.455
8.81800000 0.032927 0.1764 0.999453 -74.68 0.999453 -74.68 0.032930 30.465
8.81820000 0.032945 0.1603 0.999452 -74.68 0.999452 -74.68 0.032947 30.476
8.81840000 0.032962 0.1441 0.999452 -74.69 0.999452 -74.69 0.032965 30.486
8.81860000 0.032979 0.1279 0.999451 -74.69 0.999451 -74.69 0.032982 30.497
8.81880000 0.032997 0.1116 0.999451 -74.69 0.999451 -74.69 0.032999 30.508
8.81900000 0.033014 0.0952 0.999450 -74.69 0.999450 -74.69 0.033017 30.518
8.81920000 0.033032 0.0788 0.999449 -74.70 0.999449 -74.70 0.033034 30.529
8.81940000 0.033049 0.0624 0.999449 -74.70 0.999449 -74.70 0.033052 30.540
8.81960000 0.033067 0.0458 0.999448 -74.70 0.999448 -74.70 0.033070 30.551
8.81980000 0.033085 0.0293 0.999448 -74.70 0.999448 -74.70 0.033088 30.562
8.82000000 0.033103 0.0126 0.999447 -74.71 0.999447 -74.71 0.033106 30.573
8.82020000 0.033121 0.0000 0.999446 -74.71 0.999446 -74.71 0.033124 30.584
8.82040000 0.033139 -0.021 0.999446 -74.71 0.999446 -74.71 0.033142 30.595
8.82060000 0.033157 -0.038 0.999445 -74.72 0.999445 -74.72 0.033160 30.606
8.82080000 0.033175 -0.055 0.999445 -74.72 0.999445 -74.72 0.033178 30.617
8.82100000 0.033194 -0.071 0.999444 -74.72 0.999444 -74.72 0.033197 30.628
8.82120000 0.033212 -0.088 0.999443 -74.72 0.999443 -74.72 0.033215 30.639
8.82140000 0.033231 -0.106 0.999443 -74.73 0.999443 -74.73 0.033234 30.651
8.82160000 0.033250 -0.123 0.999442 -74.73 0.999442 -74.73 0.033252 30.662
8.82180000 0.033268 -0.140 0.999441 -74.73 0.999441 -74.73 0.033271 30.673
8.82200000 0.033287 -0.157 0.999441 -74.74 0.999441 -74.74 0.033290 30.685
8.82220000 0.033306 -0.174 0.999440 -74.74 0.999440 -74.74 0.033309 30.696
8.82240000 0.033325 -0.192 0.999439 -74.74 0.999439 -74.74 0.033328 30.708
8.82260000 0.033344 -0.209 0.999439 -74.74 0.999439 -74.74 0.033347 30.720
8.82280000 0.033364 -0.227 0.999438 -74.75 0.999438 -74.75 0.033366 30.731
8.82300000 0.033383 -0.244 0.999438 -74.75 0.999438 -74.75 0.033386 30.743
8.82320000 0.033402 -0.262 0.999437 -74.75 0.999437 -74.75 0.033405 30.755
8.82340000 0.033422 -0.280 0.999436 -74.76 0.999436 -74.76 0.033425 30.766
8.82360000 0.033442 -0.297 0.999436 -74.76 0.999436 -74.76 0.033445 30.778
8.82380000 0.033461 -0.315 0.999435 -74.76 0.999435 -74.76 0.033464 30.790
8.82400000 0.033481 -0.333 0.999434 -74.77 0.999434 -74.77 0.033484 30.802
8.82420000 0.033501 -0.351 0.999434 -74.77 0.999434 -74.77 0.033504 30.814
8.82440000 0.033521 -0.369 0.999433 -74.77 0.999433 -74.77 0.033524 30.826
8.82460000 0.033542 -0.387 0.999432 -74.77 0.999432 -74.77 0.033544 30.838
8.82480000 0.033562 -0.405 0.999431 -74.78 0.999431 -74.78 0.033565 30.851
8.82500000 0.033582 -0.424 0.999431 -74.78 0.999431 -74.78 0.033585 30.863
8.82520000 0.033603 -0.442 0.999430 -74.78 0.999430 -74.78 0.033606 30.875
8.82540000 0.033623 -0.460 0.999429 -74.79 0.999429 -74.79 0.033626 30.888
8.82560000 0.033644 -0.479 0.999429 -74.79 0.999429 -74.79 0.033647 30.900
8.82580000 0.033665 -0.497 0.999428 -74.79 0.999428 -74.79 0.033668 30.912
8.82600000 0.033686 -0.516 0.999427 -74.80 0.999427 -74.80 0.033689 30.925
8.82620000 0.033707 -0.534 0.999426 -74.80 0.999426 -74.80 0.033710 30.937
8.82640000 0.033728 -0.553 0.999426 -74.80 0.999426 -74.80 0.033731 30.950
8.82660000 0.033750 -0.572 0.999425 -74.80 0.999425 -74.80 0.033753 30.963
8.82680000 0.033771 -0.591 0.999424 -74.81 0.999424 -74.81 0.033774 30.976
8.82700000 0.033793 -0.610 0.999424 -74.81 0.999424 -74.81 0.033796 30.988
8.82720000 0.033814 -0.629 0.999423 -74.81 0.999423 -74.81 0.033817 31.001
8.82740000 0.033836 -0.648 0.999422 -74.82 0.999422 -74.82 0.033839 31.014
8.82760000 0.033858 -0.667 0.999421 -74.82 0.999421 -74.82 0.033861 31.027
8.82780000 0.033880 -0.686 0.999421 -74.82 0.999421 -74.82 0.033883 31.040
8.82800000 0.033902 -0.705 0.999420 -74.83 0.999420 -74.83 0.033905 31.053
8.82820000 0.033924 -0.725 0.999419 -74.83 0.999419 -74.83 0.033927 31.066
8.82840000 0.033947 -0.744 0.999418 -74.83 0.999418 -74.83 0.033950 31.080
8.82860000 0.033969 -0.764 0.999417 -74.83 0.999417 -74.83 0.033972 31.093
8.82880000 0.033992 -0.783 0.999417 -74.84 0.999417 -74.84 0.033995 31.106
8.82900000 0.034015 -0.803 0.999416 -74.84 0.999416 -74.84 0.034018 31.120
8.82920000 0.034038 -0.823 0.999415 -74.84 0.999415 -74.84 0.034041 31.133
8.82940000 0.034061 -0.843 0.999414 -74.85 0.999414 -74.85 0.034064 31.147
8.82960000 0.034084 -0.863 0.999413 -74.85 0.999413 -74.85 0.034087 31.160
8.82980000 0.034107 -0.883 0.999413 -74.85 0.999413 -74.85 0.034110 31.174
8.83000000 0.034131 -0.903 0.999412 -74.86 0.999412 -74.86 0.034134 31.188
8.83020000 0.034154 -0.923 0.999411 -74.86 0.999411 -74.86 0.034157 31.201
8.83040000 0.034178 -0.943 0.999410 -74.86 0.999410 -74.86 0.034181 31.215
8.83060000 0.034202 -0.964 0.999409 -74.87 0.999409 -74.87 0.034205 31.229
8.83080000 0.034226 -0.984 0.999408 -74.87 0.999408 -74.87 0.034229 31.243
8.83100000 0.034250 -1.004 0.999408 -74.87 0.999408 -74.87 0.034253 31.257
8.83120000 0.034274 -1.025 0.999407 -74.88 0.999407 -74.88 0.034278 31.271
8.83140000 0.034299 -1.046 0.999406 -74.88 0.999406 -74.88 0.034302 31.286
8.83160000 0.034323 -1.067 0.999405 -74.88 0.999405 -74.88 0.034327 31.300
8.83180000 0.034348 -1.087 0.999404 -74.89 0.999404 -74.89 0.034351 31.314
8.83200000 0.034373 -1.108 0.999403 -74.89 0.999403 -74.89 0.034376 31.329
8.83220000 0.034398 -1.129 0.999402 -74.89 0.999402 -74.89 0.034401 31.343
8.83240000 0.034423 -1.150 0.999402 -74.90 0.999402 -74.90 0.034426 31.358
8.83260000 0.034448 -1.172 0.999401 -74.90 0.999401 -74.90 0.034452 31.372
8.83280000 0.034474 -1.193 0.999400 -74.90 0.999400 -74.90 0.034477 31.387
8.83300000 0.034499 -1.214 0.999399 -74.91 0.999399 -74.91 0.034503 31.401
8.83320000 0.034525 -1.236 0.999398 -74.91 0.999398 -74.91 0.034529 31.416
8.83340000 0.034551 -1.257 0.999397 -74.91 0.999397 -74.91 0.034555 31.431
8.83360000 0.034577 -1.279 0.999396 -74.92 0.999396 -74.92 0.034581 31.446
8.83380000 0.034603 -1.301 0.999395 -74.92 0.999395 -74.92 0.034607 31.461
8.83400000 0.034630 -1.322 0.999394 -74.92 0.999394 -74.92 0.034633 31.476
8.83420000 0.034656 -1.344 0.999393 -74.93 0.999393 -74.93 0.034660 31.491
8.83440000 0.034683 -1.366 0.999392 -74.93 0.999392 -74.93 0.034687 31.507
8.83460000 0.034710 -1.388 0.999391 -74.93 0.999391 -74.93 0.034714 31.522
8.83480000 0.034737 -1.411 0.999391 -74.94 0.999391 -74.94 0.034741 31.537
8.83500000 0.034764 -1.433 0.999390 -74.94 0.999390 -74.94 0.034768 31.553
8.83520000 0.034792 -1.455 0.999389 -74.94 0.999389 -74.94 0.034795 31.568
8.83540000 0.034819 -1.478 0.999388 -74.95 0.999388 -74.95 0.034823 31.584
8.83560000 0.034847 -1.500 0.999387 -74.95 0.999387 -74.95 0.034851 31.600
8.83580000 0.034875 -1.523 0.999386 -74.95 0.999386 -74.95 0.034879 31.615
8.83600000 0.034903 -1.546 0.999385 -74.96 0.999385 -74.96 0.034907 31.631
8.83620000 0.034931 -1.569 0.999384 -74.96 0.999384 -74.96 0.034935 31.647
8.83640000 0.034960 -1.592 0.999383 -74.96 0.999383 -74.96 0.034964 31.663
8.83660000 0.034989 -1.615 0.999382 -74.97 0.999382 -74.97 0.034992 31.679
8.83680000 0.035017 -1.638 0.999381 -74.97 0.999381 -74.97 0.035021 31.695
8.83700000 0.035046 -1.661 0.999379 -74.97 0.999379 -74.97 0.035050 31.712
8.83720000 0.035076 -1.685 0.999378 -74.98 0.999378 -74.98 0.035079 31.728
8.83740000 0.035105 -1.708 0.999377 -74.98 0.999377 -74.98 0.035109 31.744
8.83760000 0.035135 -1.732 0.999376 -74.98 0.999376 -74.98 0.035138 31.761
8.83780000 0.035164 -1.756 0.999375 -74.99 0.999375 -74.99 0.035168 31.777
8.83800000 0.035194 -1.779 0.999374 -74.99 0.999374 -74.99 0.035198 31.794
8.83820000 0.035224 -1.803 0.999373 -74.99 0.999373 -74.99 0.035228 31.811
8.83840000 0.035255 -1.827 0.999372 -75.00 0.999372 -75.00 0.035259 31.827
8.83860000 0.035285 -1.851 0.999371 -75.00 0.999371 -75.00 0.035289 31.844
8.83880000 0.035316 -1.876 0.999370 -75.01 0.999370 -75.01 0.035320 31.861
8.83900000 0.035347 -1.900 0.999369 -75.01 0.999369 -75.01 0.035351 31.878
8.83920000 0.035378 -1.925 0.999368 -75.01 0.999368 -75.01 0.035382 31.896
8.83940000 0.035410 -1.949 0.999366 -75.02 0.999366 -75.02 0.035414 31.913
8.83960000 0.035441 -1.974 0.999365 -75.02 0.999365 -75.02 0.035445 31.930
8.83980000 0.035473 -1.999 0.999364 -75.02 0.999364 -75.02 0.035477 31.947
8.84000000 0.035505 -2.024 0.999363 -75.03 0.999363 -75.03 0.035509 31.965
8.84020000 0.035537 -2.049 0.999362 -75.03 0.999362 -75.03 0.035541 31.983
8.84040000 0.035570 -2.074 0.999361 -75.03 0.999361 -75.03 0.035574 32.000
8.84060000 0.035603 -2.099 0.999359 -75.04 0.999359 -75.04 0.035606 32.018
8.84080000 0.035635 -2.124 0.999358 -75.04 0.999358 -75.04 0.035639 32.036
8.84100000 0.035669 -2.150 0.999357 -75.05 0.999357 -75.05 0.035673 32.054
8.84120000 0.035702 -2.176 0.999356 -75.05 0.999356 -75.05 0.035706 32.072
8.84140000 0.035736 -2.201 0.999355 -75.05 0.999355 -75.05 0.035740 32.090
8.84160000 0.035769 -2.227 0.999353 -75.06 0.999353 -75.06 0.035773 32.108
8.84180000 0.035803 -2.253 0.999352 -75.06 0.999352 -75.06 0.035807 32.127
8.84200000 0.035838 -2.279 0.999351 -75.06 0.999351 -75.06 0.035842 32.145
8.84220000 0.035872 -2.306 0.999350 -75.07 0.999350 -75.07 0.035876 32.163
8.84240000 0.035907 -2.332 0.999348 -75.07 0.999348 -75.07 0.035911 32.182
8.84260000 0.035942 -2.359 0.999347 -75.08 0.999347 -75.08 0.035946 32.201
8.84280000 0.035977 -2.385 0.999346 -75.08 0.999346 -75.08 0.035982 32.220
8.84300000 0.036013 -2.412 0.999344 -75.08 0.999344 -75.08 0.036017 32.238
8.84320000 0.036049 -2.439 0.999343 -75.09 0.999343 -75.09 0.036053 32.257
8.84340000 0.036085 -2.466 0.999342 -75.09 0.999342 -75.09 0.036089 32.277
8.84360000 0.036121 -2.493 0.999340 -75.10 0.999340 -75.10 0.036125 32.296
8.84380000 0.036158 -2.520 0.999339 -75.10 0.999339 -75.10 0.036162 32.315
8.84400000 0.036194 -2.548 0.999338 -75.10 0.999338 -75.10 0.036199 32.334
8.84420000 0.036232 -2.575 0.999336 -75.11 0.999336 -75.11 0.036236 32.354
8.84440000 0.036269 -2.603 0.999335 -75.11 0.999335 -75.11 0.036273 32.374
8.84460000 0.036307 -2.631 0.999334 -75.12 0.999334 -75.12 0.036311 32.393
8.84480000 0.036344 -2.659 0.999332 -75.12 0.999332 -75.12 0.036349 32.413
8.84500000 0.036383 -2.687 0.999331 -75.12 0.999331 -75.12 0.036387 32.433
8.84520000 0.036421 -2.715 0.999329 -75.13 0.999329 -75.13 0.036426 32.453
8.84540000 0.036460 -2.744 0.999328 -75.13 0.999328 -75.13 0.036464 32.473
8.84560000 0.036499 -2.772 0.999326 -75.14 0.999326 -75.14 0.036503 32.493
8.84580000 0.036538 -2.801 0.999325 -75.14 0.999325 -75.14 0.036543 32.514
8.84600000 0.036578 -2.830 0.999323 -75.14 0.999323 -75.14 0.036583 32.534
8.84620000 0.036618 -2.859 0.999322 -75.15 0.999322 -75.15 0.036622 32.555
8.84640000 0.036658 -2.888 0.999320 -75.15 0.999320 -75.15 0.036663 32.575
8.84660000 0.036699 -2.917 0.999319 -75.16 0.999319 -75.16 0.036703 32.596
8.84680000 0.036740 -2.947 0.999317 -75.16 0.999317 -75.16 0.036744 32.617
8.84700000 0.036781 -2.976 0.999316 -75.17 0.999316 -75.17 0.036785 32.638
8.84720000 0.036822 -3.006 0.999314 -75.17 0.999314 -75.17 0.036827 32.659
8.84740000 0.036864 -3.036 0.999313 -75.17 0.999313 -75.17 0.036869 32.681
8.84760000 0.036906 -3.066 0.999311 -75.18 0.999311 -75.18 0.036911 32.702
8.84780000 0.036949 -3.096 0.999309 -75.18 0.999309 -75.18 0.036954 32.723
8.84800000 0.036992 -3.126 0.999308 -75.19 0.999308 -75.19 0.036996 32.745
8.84820000 0.037035 -3.157 0.999306 -75.19 0.999306 -75.19 0.037040 32.767
8.84840000 0.037078 -3.188 0.999305 -75.20 0.999305 -75.20 0.037083 32.789
8.84860000 0.037122 -3.218 0.999303 -75.20 0.999303 -75.20 0.037127 32.811
8.84880000 0.037166 -3.250 0.999301 -75.20 0.999301 -75.20 0.037171 32.833
8.84900000 0.037211 -3.281 0.999300 -75.21 0.999300 -75.21 0.037216 32.855
8.84920000 0.037256 -3.312 0.999298 -75.21 0.999298 -75.21 0.037261 32.877
8.84940000 0.037301 -3.344 0.999296 -75.22 0.999296 -75.22 0.037306 32.900
8.84960000 0.037347 -3.375 0.999294 -75.22 0.999294 -75.22 0.037352 32.922
8.84980000 0.037393 -3.407 0.999293 -75.23 0.999293 -75.23 0.037398 32.945
8.85000000 0.037439 -3.439 0.999291 -75.23 0.999291 -75.23 0.037444 32.968
8.85020000 0.037486 -3.471 0.999289 -75.24 0.999289 -75.24 0.037491 32.991
8.85040000 0.037533 -3.504 0.999287 -75.24 0.999287 -75.24 0.037538 33.014
8.85060000 0.037580 -3.536 0.999285 -75.25 0.999285 -75.25 0.037585 33.037
8.85080000 0.037628 -3.569 0.999284 -75.25 0.999284 -75.25 0.037633 33.060
8.85100000 0.037677 -3.602 0.999282 -75.25 0.999282 -75.25 0.037682 33.084
8.85120000 0.037725 -3.635 0.999280 -75.26 0.999280 -75.26 0.037730 33.107
8.85140000 0.037774 -3.668 0.999278 -75.26 0.999278 -75.26 0.037780 33.131
8.85160000 0.037824 -3.702 0.999276 -75.27 0.999276 -75.27 0.037829 33.155
8.85180000 0.037874 -3.735 0.999274 -75.27 0.999274 -75.27 0.037879 33.179
8.85200000 0.037924 -3.769 0.999272 -75.28 0.999272 -75.28 0.037930 33.203
8.85220000 0.037975 -3.803 0.999270 -75.28 0.999270 -75.28 0.037980 33.227
8.85240000 0.038026 -3.838 0.999268 -75.29 0.999268 -75.29 0.038032 33.252
8.85260000 0.038078 -3.872 0.999266 -75.29 0.999266 -75.29 0.038083 33.276
8.85280000 0.038130 -3.907 0.999264 -75.30 0.999264 -75.30 0.038135 33.301
8.85300000 0.038183 -3.941 0.999262 -75.30 0.999262 -75.30 0.038188 33.326
8.85320000 0.038236 -3.976 0.999260 -75.31 0.999260 -75.31 0.038241 33.351
8.85340000 0.038289 -4.012 0.999258 -75.31 0.999258 -75.31 0.038295 33.376
8.85360000 0.038343 -4.047 0.999256 -75.32 0.999256 -75.32 0.038349 33.401
8.85380000 0.038398 -4.083 0.999254 -75.32 0.999254 -75.32 0.038403 33.427
8.85400000 0.038453 -4.119 0.999251 -75.33 0.999251 -75.33 0.038458 33.452
8.85420000 0.038508 -4.155 0.999249 -75.33 0.999249 -75.33 0.038514 33.478
8.85440000 0.038564 -4.191 0.999247 -75.34 0.999247 -75.34 0.038570 33.504
8.85460000 0.038620 -4.227 0.999245 -75.34 0.999245 -75.34 0.038626 33.530
8.85480000 0.038677 -4.264 0.999242 -75.35 0.999242 -75.35 0.038683 33.556
8.85500000 0.038735 -4.301 0.999240 -75.35 0.999240 -75.35 0.038741 33.583
8.85520000 0.038793 -4.338 0.999238 -75.36 0.999238 -75.36 0.038799 33.609
8.85540000 0.038851 -4.375 0.999236 -75.36 0.999236 -75.36 0.038857 33.636
8.85560000 0.038910 -4.413 0.999233 -75.37 0.999233 -75.37 0.038916 33.662
8.85580000 0.038970 -4.451 0.999231 -75.37 0.999231 -75.37 0.038976 33.689
8.85600000 0.039030 -4.489 0.999228 -75.38 0.999228 -75.38 0.039036 33.717
8.85620000 0.039091 -4.527 0.999226 -75.39 0.999226 -75.39 0.039097 33.744
8.85640000 0.039152 -4.565 0.999224 -75.39 0.999224 -75.39 0.039158 33.771
8.85660000 0.039214 -4.604 0.999221 -75.40 0.999221 -75.40 0.039220 33.799
8.85680000 0.039276 -4.643 0.999219 -75.40 0.999219 -75.40 0.039282 33.827
8.85700000 0.039339 -4.682 0.999216 -75.41 0.999216 -75.41 0.039345 33.855
8.85720000 0.039403 -4.722 0.999213 -75.41 0.999213 -75.41 0.039409 33.883
8.85740000 0.039467 -4.761 0.999211 -75.42 0.999211 -75.42 0.039473 33.911
8.85760000 0.039532 -4.801 0.999208 -75.42 0.999208 -75.42 0.039538 33.939
8.85780000 0.039597 -4.841 0.999206 -75.43 0.999206 -75.43 0.039604 33.968
8.85800000 0.039664 -4.882 0.999203 -75.44 0.999203 -75.44 0.039670 33.997
8.85820000 0.039730 -4.923 0.999200 -75.44 0.999200 -75.44 0.039737 34.026
8.85840000 0.039798 -4.964 0.999197 -75.45 0.999197 -75.45 0.039804 34.055
8.85860000 0.039866 -5.005 0.999195 -75.45 0.999195 -75.45 0.039872 34.084
8.85880000 0.039935 -5.046 0.999192 -75.46 0.999192 -75.46 0.039941 34.114
8.85900000 0.040004 -5.088 0.999189 -75.46 0.999189 -75.46 0.040011 34.143
8.85920000 0.040074 -5.130 0.999186 -75.47 0.999186 -75.47 0.040081 34.173
8.85940000 0.040145 -5.172 0.999183 -75.48 0.999183 -75.48 0.040152 34.203
8.85960000 0.040217 -5.215 0.999180 -75.48 0.999180 -75.48 0.040223 34.234
8.85980000 0.040289 -5.257 0.999177 -75.49 0.999177 -75.49 0.040296 34.264
8.86000000 0.040362 -5.301 0.999174 -75.50 0.999174 -75.50 0.040369 34.295
8.86020000 0.040436 -5.344 0.999171 -75.50 0.999171 -75.50 0.040442 34.325
8.86040000 0.040510 -5.388 0.999168 -75.51 0.999168 -75.51 0.040517 34.356
8.86060000 0.040586 -5.431 0.999165 -75.51 0.999165 -75.51 0.040592 34.388
8.86080000 0.040662 -5.476 0.999162 -75.52 0.999162 -75.52 0.040669 34.419
8.86100000 0.040739 -5.520 0.999158 -75.53 0.999158 -75.53 0.040746 34.450
8.86120000 0.040816 -5.565 0.999155 -75.53 0.999155 -75.53 0.040823 34.482
8.86140000 0.040895 -5.610 0.999152 -75.54 0.999152 -75.54 0.040902 34.514
8.86160000 0.040974 -5.656 0.999148 -75.55 0.999148 -75.55 0.040981 34.546
8.86180000 0.041054 -5.701 0.999145 -75.55 0.999145 -75.55 0.041062 34.579
8.86200000 0.041135 -5.747 0.999142 -75.56 0.999142 -75.56 0.041143 34.611
8.86220000 0.041217 -5.794 0.999138 -75.57 0.999138 -75.57 0.041225 34.644
8.86240000 0.041300 -5.840 0.999135 -75.57 0.999135 -75.57 0.041308 34.677
8.86260000 0.041384 -5.887 0.999131 -75.58 0.999131 -75.58 0.041391 34.710
8.86280000 0.041469 -5.935 0.999128 -75.59 0.999128 -75.59 0.041476 34.744
8.86300000 0.041554 -5.982 0.999124 -75.59 0.999124 -75.59 0.041562 34.777
8.86320000 0.041641 -6.030 0.999120 -75.60 0.999120 -75.60 0.041648 34.811
8.86340000 0.041728 -6.078 0.999116 -75.61 0.999116 -75.61 0.041736 34.845
8.86360000 0.041817 -6.127 0.999113 -75.61 0.999113 -75.61 0.041825 34.879
8.86380000 0.041906 -6.176 0.999109 -75.62 0.999109 -75.62 0.041914 34.914
8.86400000 0.041997 -6.225 0.999105 -75.63 0.999105 -75.63 0.042005 34.949
8.86420000 0.042088 -6.275 0.999101 -75.64 0.999101 -75.64 0.042096 34.984
8.86440000 0.042181 -6.325 0.999097 -75.64 0.999097 -75.64 0.042189 35.019
8.86460000 0.042275 -6.375 0.999093 -75.65 0.999093 -75.65 0.042283 35.054
8.86480000 0.042370 -6.426 0.999089 -75.66 0.999089 -75.66 0.042378 35.090
8.86500000 0.042465 -6.477 0.999084 -75.67 0.999084 -75.67 0.042474 35.126
8.86520000 0.042562 -6.529 0.999080 -75.67 0.999080 -75.67 0.042571 35.162
8.86540000 0.042661 -6.581 0.999076 -75.68 0.999076 -75.68 0.042669 35.198
8.86560000 0.042760 -6.633 0.999071 -75.69 0.999071 -75.69 0.042768 35.235
8.86580000 0.042860 -6.685 0.999067 -75.70 0.999067 -75.70 0.042869 35.271
8.86600000 0.042962 -6.738 0.999063 -75.70 0.999063 -75.70 0.042971 35.308
8.86620000 0.043065 -6.792 0.999058 -75.71 0.999058 -75.71 0.043074 35.346
8.86640000 0.043169 -6.846 0.999053 -75.72 0.999053 -75.72 0.043178 35.383
8.86660000 0.043275 -6.900 0.999049 -75.73 0.999049 -75.73 0.043283 35.421
8.86680000 0.043382 -6.954 0.999044 -75.74 0.999044 -75.74 0.043390 35.459
8.86700000 0.043490 -7.009 0.999039 -75.74 0.999039 -75.74 0.043499 35.497
8.86720000 0.043599 -7.065 0.999034 -75.75 0.999034 -75.75 0.043608 35.536
8.86740000 0.043710 -7.121 0.999029 -75.76 0.999029 -75.76 0.043719 35.574
8.86760000 0.043822 -7.177 0.999024 -75.77 0.999024 -75.77 0.043831 35.613
8.86780000 0.043936 -7.234 0.999019 -75.78 0.999019 -75.78 0.043945 35.653
8.86800000 0.044051 -7.291 0.999014 -75.79 0.999014 -75.79 0.044060 35.692
8.86820000 0.044168 -7.348 0.999008 -75.80 0.999008 -75.80 0.044177 35.732
8.86840000 0.044286 -7.406 0.999003 -75.80 0.999003 -75.80 0.044295 35.772
8.86860000 0.044405 -7.465 0.998998 -75.81 0.998998 -75.81 0.044415 35.812
8.86880000 0.044527 -7.524 0.998992 -75.82 0.998992 -75.82 0.044536 35.853
8.86900000 0.044649 -7.583 0.998986 -75.83 0.998986 -75.83 0.044659 35.894
8.86920000 0.044774 -7.643 0.998981 -75.84 0.998981 -75.84 0.044784 35.935
8.86940000 0.044900 -7.704 0.998975 -75.85 0.998975 -75.85 0.044910 35.977
8.86960000 0.045028 -7.764 0.998969 -75.86 0.998969 -75.86 0.045038 36.018
8.86980000 0.045157 -7.826 0.998963 -75.87 0.998963 -75.87 0.045167 36.060
8.86990043 0.045223 -7.857 0.998960 -75.87 0.998960 -75.87 0.045233 36.081
8.87000000 0.045289 -7.888 0.998957 -75.88 0.998957 -75.88 0.045299 36.103
8.87020000 0.045422 -7.950 0.998950 -75.89 0.998950 -75.89 0.045432 36.145
8.87040000 0.045557 -8.013 0.998944 -75.90 0.998944 -75.90 0.045567 36.188
8.87058481 0.045683 -8.071 0.998938 -75.91 0.998938 -75.91 0.045693 36.228
8.87060000 0.045694 -8.076 0.998938 -75.91 0.998938 -75.91 0.045704 36.231
8.87080000 0.045832 -8.140 0.998931 -75.92 0.998931 -75.92 0.045843 36.274
8.87100000 0.045973 -8.204 0.998924 -75.93 0.998924 -75.93 0.045984 36.318
8.87120000 0.046116 -8.269 0.998918 -75.94 0.998918 -75.94 0.046126 36.362
8.87125351 0.046154 -8.287 0.998916 -75.94 0.998916 -75.94 0.046165 36.374
8.87140000 0.046260 -8.335 0.998911 -75.95 0.998911 -75.95 0.046271 36.406
8.87160000 0.046407 -8.401 0.998904 -75.96 0.998904 -75.96 0.046418 36.451
8.87180000 0.046556 -8.468 0.998896 -75.97 0.998896 -75.97 0.046567 36.496
8.87190689 0.046637 -8.503 0.998893 -75.97 0.998893 -75.97 0.046648 36.520
8.87200000 0.046707 -8.535 0.998889 -75.98 0.998889 -75.98 0.046718 36.541
8.87220000 0.046861 -8.602 0.998882 -75.99 0.998882 -75.99 0.046872 36.587
8.87240000 0.047016 -8.671 0.998874 -76.00 0.998874 -76.00 0.047028 36.633
8.87254529 0.047131 -8.721 0.998869 -76.01 0.998869 -76.01 0.047142 36.666
8.87260000 0.047174 -8.740 0.998866 -76.01 0.998866 -76.01 0.047186 36.679
8.87280000 0.047335 -8.809 0.998859 -76.02 0.998859 -76.02 0.047346 36.725
8.87300000 0.047498 -8.879 0.998851 -76.04 0.998851 -76.04 0.047509 36.772
8.87316907 0.047637 -8.939 0.998844 -76.05 0.998844 -76.05 0.047649 36.812
8.87320000 0.047663 -8.950 0.998842 -76.05 0.998842 -76.05 0.047675 36.819
8.87340000 0.047831 -9.022 0.998834 -76.06 0.998834 -76.06 0.047843 36.866
8.87360000 0.048001 -9.094 0.998826 -76.07 0.998826 -76.07 0.048013 36.914
8.87377855 0.048156 -9.158 0.998818 -76.08 0.998818 -76.08 0.048168 36.957
8.87380000 0.048174 -9.166 0.998817 -76.08 0.998817 -76.08 0.048186 36.962
8.87400000 0.048350 -9.240 0.998808 -76.10 0.998808 -76.10 0.048362 37.011
8.87420000 0.048529 -9.314 0.998799 -76.11 0.998799 -76.11 0.048541 37.059
8.87437407 0.048686 -9.379 0.998791 -76.12 0.998791 -76.12 0.048699 37.102
8.87440000 0.048710 -9.388 0.998790 -76.12 0.998790 -76.12 0.048723 37.108
8.87460000 0.048894 -9.464 0.998781 -76.13 0.998781 -76.13 0.048907 37.158
8.87480000 0.049082 -9.540 0.998771 -76.15 0.998771 -76.15 0.049095 37.207
8.87495594 0.049230 -9.599 0.998764 -76.16 0.998764 -76.16 0.049243 37.246
8.87500000 0.049272 -9.616 0.998762 -76.16 0.998762 -76.16 0.049285 37.257
8.87520000 0.049466 -9.694 0.998752 -76.17 0.998752 -76.17 0.049479 37.308
8.87540000 0.049663 -9.772 0.998742 -76.19 0.998742 -76.19 0.049676 37.359
8.87552448 0.049787 -9.821 0.998735 -76.19 0.998735 -76.19 0.049800 37.390
8.87560000 0.049863 -9.851 0.998731 -76.20 0.998731 -76.20 0.049876 37.410
8.87580000 0.050066 -9.931 0.998721 -76.21 0.998721 -76.21 0.050080 37.461
8.87600000 0.050273 -10.01 0.998710 -76.23 0.998710 -76.23 0.050287 37.513
8.87607999 0.050357 -10.04 0.998706 -76.23 0.998706 -76.23 0.050371 37.534
8.87620000 0.050484 -10.09 0.998699 -76.24 0.998699 -76.24 0.050498 37.565