! Sonnet Data File
! From: emgraph Version : 16.52
! From Project: Resonator2_cp
! Data is De-embedded 
! Data File Written: 10/07/2017 20:46:09
!< HDATE 10/07/2017 17:10:37
!< MDATE 10/07/2017 17:10:37
!< PARAMS
!< gap = 6.0
!< Length = 400.0
!< Pwid1 = 2000.0
!< Pwid2 = 2000.0
!< Air_gap = 30.0
!< Width = 50.0
!< END PARAMS
# GHZ S MA R 47.50000
8.80000000 0.041586 -0.227 0.999129 -73.61 0.999129 -73.61 0.041589 32.998
!< P1 F=8.8 Eeff=(5.02890353 -2.1766e-5) Z0=(47.410578 1.04358e-4) R=0.0 C=0.0 
!< P2 F=8.8 Eeff=(5.02890353 -2.1766e-5) Z0=(47.410578 1.04358e-4) R=0.0 C=0.0 
8.80020000 0.041620 -0.244 0.999127 -73.62 0.999127 -73.62 0.041623 33.008
8.80040000 0.041655 -0.261 0.999126 -73.62 0.999126 -73.62 0.041658 33.017
8.80060000 0.041690 -0.278 0.999124 -73.62 0.999124 -73.62 0.041693 33.026
8.80080000 0.041725 -0.294 0.999123 -73.63 0.999123 -73.63 0.041728 33.036
8.80100000 0.041761 -0.311 0.999121 -73.63 0.999121 -73.63 0.041764 33.045
8.80120000 0.041796 -0.329 0.999120 -73.63 0.999120 -73.63 0.041799 33.055
8.80140000 0.041832 -0.346 0.999118 -73.64 0.999118 -73.64 0.041835 33.064
8.80160000 0.041868 -0.363 0.999117 -73.64 0.999117 -73.64 0.041871 33.074
8.80180000 0.041904 -0.380 0.999115 -73.65 0.999115 -73.65 0.041907 33.083
8.80200000 0.041940 -0.397 0.999114 -73.65 0.999114 -73.65 0.041943 33.093
8.80220000 0.041977 -0.415 0.999112 -73.65 0.999112 -73.65 0.041980 33.102
8.80240000 0.042013 -0.432 0.999110 -73.66 0.999110 -73.66 0.042017 33.112
8.80260000 0.042050 -0.450 0.999109 -73.66 0.999109 -73.66 0.042053 33.122
8.80280000 0.042087 -0.467 0.999107 -73.67 0.999107 -73.67 0.042091 33.131
8.80300000 0.042125 -0.485 0.999106 -73.67 0.999106 -73.67 0.042128 33.141
8.80320000 0.042162 -0.502 0.999104 -73.67 0.999104 -73.67 0.042165 33.151
8.80340000 0.042200 -0.520 0.999102 -73.68 0.999102 -73.68 0.042203 33.161
8.80360000 0.042237 -0.538 0.999101 -73.68 0.999101 -73.68 0.042241 33.171
8.80380000 0.042275 -0.556 0.999099 -73.68 0.999099 -73.68 0.042279 33.181
8.80400000 0.042314 -0.573 0.999098 -73.69 0.999098 -73.69 0.042317 33.191
8.80420000 0.042352 -0.591 0.999096 -73.69 0.999096 -73.69 0.042355 33.201
8.80440000 0.042391 -0.609 0.999094 -73.70 0.999094 -73.70 0.042394 33.211
8.80460000 0.042429 -0.627 0.999093 -73.70 0.999093 -73.70 0.042433 33.221
8.80480000 0.042469 -0.645 0.999091 -73.70 0.999091 -73.70 0.042472 33.231
8.80500000 0.042508 -0.664 0.999089 -73.71 0.999089 -73.71 0.042511 33.241
8.80520000 0.042547 -0.682 0.999088 -73.71 0.999088 -73.71 0.042551 33.251
8.80540000 0.042587 -0.700 0.999086 -73.72 0.999086 -73.72 0.042590 33.261
8.80560000 0.042627 -0.718 0.999084 -73.72 0.999084 -73.72 0.042630 33.271
8.80580000 0.042667 -0.737 0.999082 -73.72 0.999082 -73.72 0.042670 33.282
8.80600000 0.042707 -0.755 0.999081 -73.73 0.999081 -73.73 0.042710 33.292
8.80620000 0.042748 -0.774 0.999079 -73.73 0.999079 -73.73 0.042751 33.302
8.80640000 0.042788 -0.792 0.999077 -73.74 0.999077 -73.74 0.042792 33.312
8.80660000 0.042829 -0.811 0.999075 -73.74 0.999075 -73.74 0.042833 33.323
8.80680000 0.042870 -0.830 0.999073 -73.75 0.999073 -73.75 0.042874 33.333
8.80700000 0.042912 -0.849 0.999072 -73.75 0.999072 -73.75 0.042915 33.344
8.80720000 0.042954 -0.867 0.999070 -73.75 0.999070 -73.75 0.042957 33.354
8.80740000 0.042995 -0.886 0.999068 -73.76 0.999068 -73.76 0.042999 33.365
8.80760000 0.043037 -0.905 0.999066 -73.76 0.999066 -73.76 0.043041 33.375
8.80780000 0.043080 -0.924 0.999064 -73.77 0.999064 -73.77 0.043083 33.386
8.80800000 0.043122 -0.943 0.999063 -73.77 0.999063 -73.77 0.043126 33.397
8.80820000 0.043165 -0.963 0.999061 -73.77 0.999061 -73.77 0.043169 33.407
8.80840000 0.043208 -0.982 0.999059 -73.78 0.999059 -73.78 0.043212 33.418
8.80860000 0.043251 -1.001 0.999057 -73.78 0.999057 -73.78 0.043255 33.429
8.80880000 0.043295 -1.020 0.999055 -73.79 0.999055 -73.79 0.043299 33.440
8.80900000 0.043339 -1.040 0.999053 -73.79 0.999053 -73.79 0.043342 33.451
8.80920000 0.043383 -1.059 0.999051 -73.80 0.999051 -73.80 0.043386 33.461
8.80940000 0.043427 -1.079 0.999049 -73.80 0.999049 -73.80 0.043431 33.472
8.80960000 0.043471 -1.099 0.999047 -73.80 0.999047 -73.80 0.043475 33.483
8.80980000 0.043516 -1.118 0.999045 -73.81 0.999045 -73.81 0.043520 33.494
8.81000000 0.043561 -1.138 0.999043 -73.81 0.999043 -73.81 0.043565 33.505
8.81020000 0.043607 -1.158 0.999041 -73.82 0.999041 -73.82 0.043610 33.516
8.81040000 0.043652 -1.178 0.999039 -73.82 0.999039 -73.82 0.043656 33.528
8.81060000 0.043698 -1.198 0.999037 -73.83 0.999037 -73.83 0.043702 33.539
8.81080000 0.043744 -1.218 0.999035 -73.83 0.999035 -73.83 0.043748 33.550
8.81100000 0.043790 -1.238 0.999033 -73.83 0.999033 -73.83 0.043794 33.561
8.81120000 0.043837 -1.258 0.999031 -73.84 0.999031 -73.84 0.043841 33.572
8.81140000 0.043884 -1.279 0.999029 -73.84 0.999029 -73.84 0.043887 33.584
8.81160000 0.043931 -1.299 0.999027 -73.85 0.999027 -73.85 0.043935 33.595
8.81180000 0.043978 -1.319 0.999025 -73.85 0.999025 -73.85 0.043982 33.607
8.81200000 0.044026 -1.340 0.999023 -73.86 0.999023 -73.86 0.044030 33.618
8.81220000 0.044074 -1.360 0.999020 -73.86 0.999020 -73.86 0.044078 33.630
8.81240000 0.044122 -1.381 0.999018 -73.87 0.999018 -73.87 0.044126 33.641
8.81260000 0.044171 -1.402 0.999016 -73.87 0.999016 -73.87 0.044174 33.653
8.81280000 0.044220 -1.423 0.999014 -73.88 0.999014 -73.88 0.044223 33.664
8.81300000 0.044269 -1.443 0.999012 -73.88 0.999012 -73.88 0.044272 33.676
8.81320000 0.044318 -1.464 0.999009 -73.88 0.999009 -73.88 0.044322 33.688
8.81340000 0.044368 -1.485 0.999007 -73.89 0.999007 -73.89 0.044372 33.699
8.81360000 0.044418 -1.507 0.999005 -73.89 0.999005 -73.89 0.044422 33.711
8.81380000 0.044468 -1.528 0.999003 -73.90 0.999003 -73.90 0.044472 33.723
8.81400000 0.044519 -1.549 0.999000 -73.90 0.999000 -73.90 0.044523 33.735
8.81420000 0.044570 -1.570 0.998998 -73.91 0.998998 -73.91 0.044574 33.747
8.81440000 0.044621 -1.592 0.998996 -73.91 0.998996 -73.91 0.044625 33.759
8.81460000 0.044672 -1.613 0.998993 -73.92 0.998993 -73.92 0.044676 33.771
8.81480000 0.044724 -1.635 0.998991 -73.92 0.998991 -73.92 0.044728 33.783
8.81500000 0.044776 -1.657 0.998989 -73.93 0.998989 -73.93 0.044780 33.795
8.81520000 0.044829 -1.678 0.998986 -73.93 0.998986 -73.93 0.044833 33.807
8.81540000 0.044882 -1.700 0.998984 -73.94 0.998984 -73.94 0.044886 33.819
8.81560000 0.044935 -1.722 0.998981 -73.94 0.998981 -73.94 0.044939 33.831
8.81580000 0.044988 -1.744 0.998979 -73.95 0.998979 -73.95 0.044992 33.844
8.81600000 0.045042 -1.766 0.998977 -73.95 0.998977 -73.95 0.045046 33.856
8.81620000 0.045096 -1.788 0.998974 -73.96 0.998974 -73.96 0.045100 33.868
8.81640000 0.045151 -1.811 0.998972 -73.96 0.998972 -73.96 0.045155 33.881
8.81660000 0.045206 -1.833 0.998969 -73.97 0.998969 -73.97 0.045210 33.893
8.81680000 0.045261 -1.855 0.998967 -73.97 0.998967 -73.97 0.045265 33.906
8.81700000 0.045316 -1.878 0.998964 -73.98 0.998964 -73.98 0.045321 33.918
8.81720000 0.045372 -1.901 0.998961 -73.98 0.998961 -73.98 0.045376 33.931
8.81740000 0.045429 -1.923 0.998959 -73.99 0.998959 -73.99 0.045433 33.943
8.81760000 0.045485 -1.946 0.998956 -73.99 0.998956 -73.99 0.045489 33.956
8.81780000 0.045542 -1.969 0.998954 -74.00 0.998954 -74.00 0.045546 33.969
8.81800000 0.045599 -1.992 0.998951 -74.00 0.998951 -74.00 0.045604 33.982
8.81820000 0.045657 -2.015 0.998948 -74.01 0.998948 -74.01 0.045661 33.994
8.81840000 0.045715 -2.038 0.998946 -74.01 0.998946 -74.01 0.045719 34.007
8.81860000 0.045774 -2.061 0.998943 -74.02 0.998943 -74.02 0.045778 34.020
8.81880000 0.045833 -2.085 0.998940 -74.02 0.998940 -74.02 0.045837 34.033
8.81900000 0.045892 -2.108 0.998937 -74.03 0.998937 -74.03 0.045896 34.046
8.81920000 0.045951 -2.132 0.998935 -74.03 0.998935 -74.03 0.045956 34.059
8.81940000 0.046011 -2.155 0.998932 -74.04 0.998932 -74.04 0.046016 34.072
8.81960000 0.046072 -2.179 0.998929 -74.04 0.998929 -74.04 0.046076 34.085
8.81980000 0.046133 -2.203 0.998926 -74.05 0.998926 -74.05 0.046137 34.099
8.82000000 0.046194 -2.227 0.998923 -74.05 0.998923 -74.05 0.046198 34.112
8.82020000 0.046255 -2.251 0.998920 -74.06 0.998920 -74.06 0.046260 34.125
8.82040000 0.046317 -2.275 0.998917 -74.06 0.998917 -74.06 0.046322 34.138
8.82060000 0.046380 -2.299 0.998914 -74.07 0.998914 -74.07 0.046384 34.152
8.82080000 0.046443 -2.323 0.998911 -74.07 0.998911 -74.07 0.046447 34.165
8.82100000 0.046506 -2.348 0.998908 -74.08 0.998908 -74.08 0.046510 34.179
8.82120000 0.046570 -2.372 0.998905 -74.08 0.998905 -74.08 0.046574 34.192
8.82140000 0.046634 -2.397 0.998902 -74.09 0.998902 -74.09 0.046638 34.206
8.82160000 0.046699 -2.421 0.998899 -74.10 0.998899 -74.10 0.046703 34.219
8.82180000 0.046764 -2.446 0.998896 -74.10 0.998896 -74.10 0.046768 34.233
8.82200000 0.046829 -2.471 0.998893 -74.11 0.998893 -74.11 0.046834 34.247
8.82220000 0.046895 -2.496 0.998890 -74.11 0.998890 -74.11 0.046900 34.261
8.82240000 0.046961 -2.521 0.998887 -74.12 0.998887 -74.12 0.046966 34.275
8.82260000 0.047028 -2.546 0.998884 -74.12 0.998884 -74.12 0.047033 34.288
8.82280000 0.047096 -2.572 0.998880 -74.13 0.998880 -74.13 0.047100 34.302
8.82300000 0.047163 -2.597 0.998877 -74.13 0.998877 -74.13 0.047168 34.316
8.82320000 0.047232 -2.623 0.998874 -74.14 0.998874 -74.14 0.047236 34.330
8.82340000 0.047300 -2.648 0.998871 -74.15 0.998871 -74.15 0.047305 34.345
8.82360000 0.047370 -2.674 0.998867 -74.15 0.998867 -74.15 0.047374 34.359
8.82380000 0.047439 -2.700 0.998864 -74.16 0.998864 -74.16 0.047444 34.373
8.82400000 0.047510 -2.726 0.998861 -74.16 0.998861 -74.16 0.047514 34.387
8.82420000 0.047580 -2.752 0.998857 -74.17 0.998857 -74.17 0.047585 34.401
8.82440000 0.047652 -2.778 0.998854 -74.17 0.998854 -74.17 0.047656 34.416
8.82460000 0.047723 -2.805 0.998850 -74.18 0.998850 -74.18 0.047728 34.430
8.82480000 0.047796 -2.831 0.998847 -74.19 0.998847 -74.19 0.047800 34.445
8.82500000 0.047868 -2.858 0.998843 -74.19 0.998843 -74.19 0.047873 34.459
8.82520000 0.047942 -2.884 0.998840 -74.20 0.998840 -74.20 0.047947 34.474
8.82540000 0.048016 -2.911 0.998836 -74.20 0.998836 -74.20 0.048020 34.488
8.82560000 0.048090 -2.938 0.998832 -74.21 0.998832 -74.21 0.048095 34.503
8.82580000 0.048165 -2.965 0.998829 -74.22 0.998829 -74.22 0.048170 34.518
8.82600000 0.048240 -2.992 0.998825 -74.22 0.998825 -74.22 0.048245 34.533
8.82620000 0.048317 -3.019 0.998821 -74.23 0.998821 -74.23 0.048322 34.547
8.82640000 0.048393 -3.047 0.998817 -74.24 0.998817 -74.24 0.048398 34.562
8.82660000 0.048470 -3.074 0.998814 -74.24 0.998814 -74.24 0.048475 34.577
8.82680000 0.048548 -3.102 0.998810 -74.25 0.998810 -74.25 0.048553 34.592
8.82700000 0.048627 -3.130 0.998806 -74.25 0.998806 -74.25 0.048632 34.607
8.82720000 0.048706 -3.157 0.998802 -74.26 0.998802 -74.26 0.048711 34.622
8.82740000 0.048785 -3.185 0.998798 -74.27 0.998798 -74.27 0.048790 34.638
8.82760000 0.048865 -3.214 0.998794 -74.27 0.998794 -74.27 0.048870 34.653
8.82780000 0.048946 -3.242 0.998790 -74.28 0.998790 -74.28 0.048951 34.668
8.82800000 0.049028 -3.270 0.998786 -74.29 0.998786 -74.29 0.049033 34.683
8.82820000 0.049110 -3.299 0.998782 -74.29 0.998782 -74.29 0.049115 34.699
8.82840000 0.049192 -3.327 0.998778 -74.30 0.998778 -74.30 0.049197 34.714
8.82860000 0.049276 -3.356 0.998774 -74.31 0.998774 -74.31 0.049281 34.730
8.82880000 0.049360 -3.385 0.998769 -74.31 0.998769 -74.31 0.049365 34.745
8.82900000 0.049444 -3.414 0.998765 -74.32 0.998765 -74.32 0.049449 34.761
8.82920000 0.049529 -3.443 0.998761 -74.33 0.998761 -74.33 0.049535 34.777
8.82940000 0.049615 -3.473 0.998756 -74.33 0.998756 -74.33 0.049621 34.792
8.82960000 0.049702 -3.502 0.998752 -74.34 0.998752 -74.34 0.049707 34.808
8.82980000 0.049789 -3.532 0.998748 -74.35 0.998748 -74.35 0.049795 34.824
8.83000000 0.049877 -3.561 0.998743 -74.35 0.998743 -74.35 0.049883 34.840
8.83020000 0.049966 -3.591 0.998739 -74.36 0.998739 -74.36 0.049972 34.856
8.83040000 0.050056 -3.621 0.998734 -74.37 0.998734 -74.37 0.050061 34.872
8.83060000 0.050146 -3.652 0.998730 -74.37 0.998730 -74.37 0.050151 34.888
8.83080000 0.050237 -3.682 0.998725 -74.38 0.998725 -74.38 0.050242 34.904
8.83100000 0.050328 -3.712 0.998720 -74.39 0.998720 -74.39 0.050334 34.920
8.83120000 0.050421 -3.743 0.998715 -74.39 0.998715 -74.39 0.050426 34.937
8.83140000 0.050514 -3.774 0.998711 -74.40 0.998711 -74.40 0.050520 34.953
8.83160000 0.050608 -3.805 0.998706 -74.41 0.998706 -74.41 0.050614 34.969
8.83180000 0.050703 -3.836 0.998701 -74.42 0.998701 -74.42 0.050708 34.986
8.83200000 0.050798 -3.867 0.998696 -74.42 0.998696 -74.42 0.050804 35.002
8.83220000 0.050894 -3.898 0.998691 -74.43 0.998691 -74.43 0.050900 35.019
8.83240000 0.050992 -3.930 0.998686 -74.44 0.998686 -74.44 0.050997 35.035
8.83260000 0.051089 -3.961 0.998681 -74.45 0.998681 -74.45 0.051095 35.052
8.83280000 0.051188 -3.993 0.998676 -74.45 0.998676 -74.45 0.051194 35.069
8.83300000 0.051288 -4.025 0.998671 -74.46 0.998671 -74.46 0.051294 35.086
8.83320000 0.051388 -4.057 0.998665 -74.47 0.998665 -74.47 0.051394 35.102
8.83340000 0.051489 -4.090 0.998660 -74.48 0.998660 -74.48 0.051495 35.119
8.83360000 0.051592 -4.122 0.998655 -74.48 0.998655 -74.48 0.051598 35.136
8.83380000 0.051695 -4.155 0.998649 -74.49 0.998649 -74.49 0.051701 35.153
8.83400000 0.051799 -4.188 0.998644 -74.50 0.998644 -74.50 0.051805 35.170
8.83420000 0.051904 -4.221 0.998638 -74.51 0.998638 -74.51 0.051910 35.188
8.83440000 0.052009 -4.254 0.998633 -74.51 0.998633 -74.51 0.052015 35.205
8.83460000 0.052116 -4.287 0.998627 -74.52 0.998627 -74.52 0.052122 35.222
8.83480000 0.052224 -4.320 0.998621 -74.53 0.998621 -74.53 0.052230 35.239
8.83500000 0.052332 -4.354 0.998615 -74.54 0.998615 -74.54 0.052338 35.257
8.83520000 0.052442 -4.388 0.998610 -74.55 0.998610 -74.55 0.052448 35.274
8.83540000 0.052552 -4.422 0.998604 -74.55 0.998604 -74.55 0.052559 35.292
8.83560000 0.052664 -4.456 0.998598 -74.56 0.998598 -74.56 0.052670 35.309
8.83580000 0.052776 -4.491 0.998592 -74.57 0.998592 -74.57 0.052783 35.327
8.83600000 0.052890 -4.525 0.998585 -74.58 0.998585 -74.58 0.052896 35.345
8.83620000 0.053005 -4.560 0.998579 -74.59 0.998579 -74.59 0.053011 35.363
8.83640000 0.053120 -4.595 0.998573 -74.60 0.998573 -74.60 0.053127 35.380
8.83660000 0.053237 -4.630 0.998567 -74.60 0.998567 -74.60 0.053243 35.398
8.83680000 0.053355 -4.665 0.998560 -74.61 0.998560 -74.61 0.053361 35.416
8.83700000 0.053474 -4.701 0.998554 -74.62 0.998554 -74.62 0.053480 35.434
8.83720000 0.053594 -4.736 0.998547 -74.63 0.998547 -74.63 0.053600 35.452
8.83740000 0.053715 -4.772 0.998541 -74.64 0.998541 -74.64 0.053721 35.470
8.83760000 0.053837 -4.808 0.998534 -74.65 0.998534 -74.65 0.053844 35.489
8.83780000 0.053960 -4.844 0.998527 -74.66 0.998527 -74.66 0.053967 35.507
8.83800000 0.054085 -4.881 0.998520 -74.67 0.998520 -74.67 0.054092 35.525
8.83820000 0.054211 -4.918 0.998513 -74.68 0.998513 -74.68 0.054218 35.543
8.83840000 0.054338 -4.954 0.998506 -74.68 0.998506 -74.68 0.054345 35.562
8.83860000 0.054466 -4.992 0.998499 -74.69 0.998499 -74.69 0.054473 35.580
8.83880000 0.054595 -5.029 0.998492 -74.70 0.998492 -74.70 0.054602 35.599
8.83900000 0.054726 -5.066 0.998485 -74.71 0.998485 -74.71 0.054733 35.618
8.83920000 0.054858 -5.104 0.998477 -74.72 0.998477 -74.72 0.054865 35.636
8.83940000 0.054991 -5.142 0.998470 -74.73 0.998470 -74.73 0.054998 35.655
8.83960000 0.055126 -5.180 0.998462 -74.74 0.998462 -74.74 0.055133 35.674
8.83980000 0.055262 -5.218 0.998455 -74.75 0.998455 -74.75 0.055269 35.693
8.84000000 0.055399 -5.257 0.998447 -74.76 0.998447 -74.76 0.055406 35.712
8.84020000 0.055538 -5.296 0.998439 -74.77 0.998439 -74.77 0.055545 35.731
8.84040000 0.055678 -5.335 0.998431 -74.78 0.998431 -74.78 0.055685 35.750
8.84060000 0.055819 -5.374 0.998423 -74.79 0.998423 -74.79 0.055827 35.769
8.84080000 0.055962 -5.413 0.998415 -74.80 0.998415 -74.80 0.055970 35.788
8.84100000 0.056107 -5.453 0.998407 -74.81 0.998407 -74.81 0.056114 35.807
8.84120000 0.056253 -5.493 0.998398 -74.82 0.998398 -74.82 0.056260 35.826
8.84140000 0.056400 -5.533 0.998390 -74.83 0.998390 -74.83 0.056407 35.846
8.84160000 0.056549 -5.574 0.998381 -74.84 0.998381 -74.84 0.056556 35.865
8.84180000 0.056699 -5.614 0.998372 -74.85 0.998372 -74.85 0.056707 35.884
8.84200000 0.056851 -5.655 0.998364 -74.86 0.998364 -74.86 0.056859 35.904
8.84220000 0.057005 -5.696 0.998355 -74.87 0.998355 -74.87 0.057013 35.924
8.84240000 0.057160 -5.738 0.998346 -74.88 0.998346 -74.88 0.057168 35.943
8.84260000 0.057317 -5.779 0.998337 -74.89 0.998337 -74.89 0.057325 35.963
8.84280000 0.057476 -5.821 0.998327 -74.90 0.998327 -74.90 0.057483 35.983
8.84300000 0.057636 -5.863 0.998318 -74.92 0.998318 -74.92 0.057644 36.002
8.84320000 0.057798 -5.906 0.998308 -74.93 0.998308 -74.93 0.057806 36.022
8.84340000 0.057962 -5.948 0.998299 -74.94 0.998299 -74.94 0.057970 36.042
8.84360000 0.058127 -5.991 0.998289 -74.95 0.998289 -74.95 0.058135 36.062
8.84380000 0.058295 -6.034 0.998279 -74.96 0.998279 -74.96 0.058303 36.082
8.84400000 0.058464 -6.078 0.998269 -74.97 0.998269 -74.97 0.058472 36.102
8.84420000 0.058635 -6.122 0.998258 -74.98 0.998258 -74.98 0.058643 36.122
8.84440000 0.058808 -6.166 0.998248 -75.00 0.998248 -75.00 0.058816 36.142
8.84460000 0.058983 -6.210 0.998238 -75.01 0.998238 -75.01 0.058992 36.163
8.84480000 0.059160 -6.255 0.998227 -75.02 0.998227 -75.02 0.059169 36.183
8.84500000 0.059339 -6.299 0.998216 -75.03 0.998216 -75.03 0.059348 36.203
8.84520000 0.059520 -6.345 0.998205 -75.04 0.998205 -75.04 0.059529 36.224
8.84540000 0.059703 -6.390 0.998194 -75.06 0.998194 -75.06 0.059712 36.244
8.84560000 0.059889 -6.436 0.998183 -75.07 0.998183 -75.07 0.059897 36.264
8.84580000 0.060076 -6.482 0.998171 -75.08 0.998171 -75.08 0.060085 36.285
8.84600000 0.060266 -6.528 0.998159 -75.09 0.998159 -75.09 0.060274 36.305
8.84620000 0.060457 -6.575 0.998148 -75.11 0.998148 -75.11 0.060466 36.326
8.84640000 0.060652 -6.622 0.998136 -75.12 0.998136 -75.12 0.060660 36.347
8.84660000 0.060848 -6.669 0.998123 -75.13 0.998123 -75.13 0.060857 36.367
8.84680000 0.061047 -6.717 0.998111 -75.15 0.998111 -75.15 0.061056 36.388
8.84700000 0.061248 -6.765 0.998098 -75.16 0.998098 -75.16 0.061257 36.409
8.84720000 0.061451 -6.813 0.998086 -75.17 0.998086 -75.17 0.061461 36.430
8.84740000 0.061658 -6.862 0.998073 -75.19 0.998073 -75.19 0.061667 36.451
8.84760000 0.061866 -6.911 0.998059 -75.20 0.998059 -75.20 0.061875 36.472
8.84780000 0.062077 -6.960 0.998046 -75.22 0.998046 -75.22 0.062087 36.492
8.84800000 0.062291 -7.009 0.998032 -75.23 0.998032 -75.23 0.062301 36.513
8.84820000 0.062508 -7.059 0.998019 -75.24 0.998019 -75.24 0.062517 36.534
8.84840000 0.062727 -7.110 0.998005 -75.26 0.998005 -75.26 0.062736 36.555
8.84860000 0.062949 -7.160 0.997990 -75.27 0.997990 -75.27 0.062958 36.577
8.84880000 0.063174 -7.212 0.997976 -75.29 0.997976 -75.29 0.063183 36.598
8.84900000 0.063401 -7.263 0.997961 -75.30 0.997961 -75.30 0.063411 36.619
8.84920000 0.063632 -7.315 0.997946 -75.32 0.997946 -75.32 0.063642 36.640
8.84940000 0.063866 -7.367 0.997931 -75.33 0.997931 -75.33 0.063875 36.661
8.84960000 0.064102 -7.419 0.997915 -75.35 0.997915 -75.35 0.064112 36.682
8.84980000 0.064342 -7.472 0.997900 -75.36 0.997900 -75.36 0.064352 36.703
8.85000000 0.064585 -7.526 0.997884 -75.38 0.997884 -75.38 0.064595 36.725
8.85020000 0.064831 -7.579 0.997867 -75.40 0.997867 -75.40 0.064841 36.746
8.85030418 0.064961 -7.608 0.997859 -75.40 0.997859 -75.40 0.064971 36.757
8.85040000 0.065081 -7.634 0.997851 -75.41 0.997851 -75.41 0.065091 36.767
8.85060000 0.065333 -7.688 0.997834 -75.43 0.997834 -75.43 0.065344 36.789
8.85080000 0.065590 -7.743 0.997817 -75.45 0.997817 -75.45 0.065600 36.810
8.85099223 0.065839 -7.796 0.997800 -75.46 0.997800 -75.46 0.065850 36.830
8.85100000 0.065850 -7.798 0.997799 -75.46 0.997799 -75.46 0.065860 36.831
8.85120000 0.066113 -7.854 0.997781 -75.48 0.997781 -75.48 0.066124 36.852
8.85140000 0.066380 -7.910 0.997763 -75.50 0.997763 -75.50 0.066391 36.874
8.85160000 0.066651 -7.967 0.997745 -75.51 0.997745 -75.51 0.066662 36.895
8.85166451 0.066739 -7.985 0.997739 -75.52 0.997739 -75.52 0.066750 36.902
8.85180000 0.066925 -8.024 0.997726 -75.53 0.997726 -75.53 0.066936 36.916
8.85200000 0.067204 -8.082 0.997707 -75.55 0.997707 -75.55 0.067215 36.938
8.85220000 0.067486 -8.140 0.997687 -75.57 0.997687 -75.57 0.067497 36.959
8.85232138 0.067660 -8.175 0.997675 -75.58 0.997675 -75.58 0.067671 36.972
8.85240000 0.067773 -8.198 0.997668 -75.59 0.997668 -75.59 0.067784 36.980
8.85260000 0.068063 -8.257 0.997647 -75.60 0.997647 -75.60 0.068075 37.002
8.85280000 0.068358 -8.317 0.997627 -75.62 0.997627 -75.62 0.068370 37.023
8.85296321 0.068602 -8.366 0.997610 -75.64 0.997610 -75.64 0.068614 37.040
8.85300000 0.068657 -8.377 0.997606 -75.64 0.997606 -75.64 0.068669 37.044
8.85320000 0.068961 -8.437 0.997584 -75.66 0.997584 -75.66 0.068973 37.065
8.85340000 0.069269 -8.498 0.997562 -75.68 0.997562 -75.68 0.069281 37.086
8.85359032 0.069567 -8.557 0.997541 -75.70 0.997541 -75.70 0.069578 37.107
8.85360000 0.069582 -8.560 0.997540 -75.70 0.997540 -75.70 0.069594 37.108
8.85380000 0.069899 -8.621 0.997518 -75.72 0.997518 -75.72 0.069911 37.129
8.85400000 0.070222 -8.684 0.997494 -75.74 0.997494 -75.74 0.070234 37.150
8.85420000 0.070549 -8.747 0.997471 -75.76 0.997471 -75.76 0.070561 37.171
8.85420307 0.070554 -8.748 0.997470 -75.76 0.997470 -75.76 0.070566 37.171
8.85440000 0.070881 -8.811 0.997447 -75.78 0.997447 -75.78 0.070893 37.192
8.85460000 0.071219 -8.875 0.997422 -75.80 0.997422 -75.80 0.071231 37.213
8.85480000 0.071561 -8.939 0.997397 -75.83 0.997397 -75.83 0.071574 37.234
8.85480178 0.071564 -8.940 0.997397 -75.83 0.997397 -75.83 0.071577 37.234
8.85500000 0.071910 -9.005 0.997371 -75.85 0.997371 -75.85 0.071922 37.254
8.85520000 0.072263 -9.071 0.997345 -75.87 0.997345 -75.87 0.072276 37.275
8.85538677 0.072599 -9.133 0.997320 -75.89 0.997320 -75.89 0.072612 37.295
8.85540000 0.072623 -9.137 0.997318 -75.89 0.997318 -75.89 0.072636 37.296
8.85560000 0.072988 -9.204 0.997291 -75.92 0.997291 -75.92 0.073001 37.316
8.85580000 0.073359 -9.272 0.997263 -75.94 0.997263 -75.94 0.073373 37.337
8.85595835 0.073658 -9.326 0.997241 -75.96 0.997241 -75.96 0.073671 37.353
8.85600000 0.073737 -9.340 0.997235 -75.96 0.997235 -75.96 0.073750 37.357
8.85620000 0.074120 -9.409 0.997206 -75.99 0.997206 -75.99 0.074134 37.378
8.85640000 0.074510 -9.479 0.997176 -76.01 0.997176 -76.01 0.074524 37.398
8.85651684 0.074741 -9.520 0.997158 -76.03 0.997158 -76.03 0.074755 37.410
8.85660000 0.074907 -9.549 0.997146 -76.04 0.997146 -76.04 0.074921 37.418
8.85680000 0.075310 -9.620 0.997114 -76.06 0.997114 -76.06 0.075324 37.438
8.85700000 0.075720 -9.691 0.997083 -76.09 0.997083 -76.09 0.075735 37.458
8.85706253 0.075850 -9.714 0.997073 -76.09 0.997073 -76.09 0.075864 37.464
8.85720000 0.076138 -9.764 0.997050 -76.11 0.997050 -76.11 0.076152 37.477
8.85740000 0.076562 -9.837 0.997017 -76.14 0.997017 -76.14 0.076577 37.497
8.85759572 0.076985 -9.909 0.996984 -76.16 0.996984 -76.16 0.077000 37.516
8.85760000 0.076995 -9.910 0.996983 -76.16 0.996983 -76.16 0.077009 37.516
8.85780000 0.077434 -9.985 0.996948 -76.19 0.996948 -76.19 0.077449 37.536
8.85800000 0.077882 -10.06 0.996912 -76.22 0.996912 -76.22 0.077897 37.555
8.85811669 0.078147 -10.10 0.996891 -76.24 0.996891 -76.24 0.078162 37.566
8.85820000 0.078338 -10.14 0.996876 -76.25 0.996876 -76.25 0.078353 37.574
8.85840000 0.078802 -10.21 0.996838 -76.28 0.996838 -76.28 0.078817 37.592
8.85860000 0.079275 -10.29 0.996800 -76.31 0.996800 -76.31 0.079290 37.611
8.85862572 0.079336 -10.30 0.996795 -76.31 0.996795 -76.31 0.079351 37.613
8.85880000 0.079756 -10.37 0.996760 -76.34 0.996760 -76.34 0.079772 37.629
8.85900000 0.080246 -10.45 0.996720 -76.37 0.996720 -76.37 0.080262 37.647
8.85912309 0.080553 -10.50 0.996695 -76.38 0.996695 -76.38 0.080569 37.658
8.85920000 0.080746 -10.53 0.996679 -76.40 0.996679 -76.40 0.080762 37.665
8.85940000 0.081255 -10.61 0.996636 -76.43 0.996636 -76.43 0.081271 37.683
8.85960000 0.081774 -10.69 0.996593 -76.46 0.996593 -76.46 0.081791 37.700
8.85960906 0.081798 -10.70 0.996591 -76.46 0.996591 -76.46 0.081814 37.701
8.85980000 0.082304 -10.77 0.996548 -76.49 0.996548 -76.49 0.082320 37.717
8.86000000 0.082843 -10.86 0.996502 -76.52 0.996502 -76.52 0.082860 37.734
8.86008389 0.083073 -10.89 0.996483 -76.54 0.996483 -76.54 0.083089 37.741
8.86020000 0.083393 -10.94 0.996455 -76.56 0.996455 -76.56 0.083410 37.750
8.86040000 0.083955 -11.03 0.996407 -76.59 0.996407 -76.59 0.083972 37.766
8.86054785 0.084377 -11.09 0.996371 -76.62 0.996371 -76.62 0.084394 37.778
8.86060000 0.084527 -11.11 0.996357 -76.63 0.996357 -76.63 0.084545 37.782
8.86080000 0.085112 -11.20 0.996306 -76.66 0.996306 -76.66 0.085129 37.797
8.86100000 0.085708 -11.29 0.996254 -76.70 0.996254 -76.70 0.085726 37.813
8.86100117 0.085712 -11.29 0.996254 -76.70 0.996254 -76.70 0.085729 37.813
8.86120000 0.086317 -11.38 0.996200 -76.74 0.996200 -76.74 0.086335 37.827
8.86140000 0.086939 -11.47 0.996145 -76.77 0.996145 -76.77 0.086957 37.841
8.86144411 0.087078 -11.49 0.996132 -76.78 0.996132 -76.78 0.087096 37.845
8.86160000 0.087574 -11.56 0.996088 -76.81 0.996088 -76.81 0.087592 37.855
8.86180000 0.088222 -11.66 0.996029 -76.85 0.996029 -76.85 0.088241 37.869
8.86187690 0.088475 -11.69 0.996006 -76.87 0.996006 -76.87 0.088494 37.874
8.86200000 0.088885 -11.75 0.995969 -76.89 0.995969 -76.89 0.088904 37.881
8.86220000 0.089562 -11.85 0.995906 -76.93 0.995906 -76.93 0.089581 37.894
8.86229977 0.089906 -11.90 0.995875 -76.95 0.995875 -76.95 0.089925 37.900
8.86240000 0.090255 -11.94 0.995842 -76.97 0.995842 -76.97 0.090274 37.906
8.86260000 0.090963 -12.04 0.995776 -77.02 0.995776 -77.02 0.090982 37.917
8.86271295 0.091369 -12.10 0.995738 -77.04 0.995738 -77.04 0.091389 37.923
8.86280000 0.091687 -12.14 0.995708 -77.06 0.995708 -77.06 0.091706 37.928
8.86300000 0.092427 -12.24 0.995638 -77.11 0.995638 -77.11 0.092447 37.938
8.86311666 0.092867 -12.30 0.995596 -77.13 0.995596 -77.13 0.092888 37.943
8.86320000 0.093185 -12.34 0.995565 -77.15 0.995565 -77.15 0.093206 37.947
8.86340000 0.093961 -12.45 0.995490 -77.20 0.995490 -77.20 0.093982 37.956
8.86351113 0.094400 -12.51 0.995448 -77.22 0.995448 -77.22 0.094421 37.961
8.86360000 0.094755 -12.55 0.995413 -77.25 0.995413 -77.25 0.094776 37.964
8.86380000 0.095568 -12.66 0.995333 -77.29 0.995333 -77.29 0.095590 37.972
8.86389655 0.095968 -12.71 0.995294 -77.32 0.995294 -77.32 0.095989 37.975
8.86400000 0.096401 -12.77 0.995251 -77.34 0.995251 -77.34 0.096423 37.978
8.86420000 0.097255 -12.88 0.995166 -77.39 0.995166 -77.39 0.097277 37.984
8.86427315 0.097572 -12.92 0.995134 -77.41 0.995134 -77.41 0.097595 37.986
8.86440000 0.098130 -12.99 0.995077 -77.45 0.995077 -77.45 0.098152 37.989
8.86460000 0.099027 -13.10 0.994986 -77.50 0.994986 -77.50 0.099050 37.993
8.86464111 0.099214 -13.12 0.994967 -77.51 0.994967 -77.51 0.099237 37.993
8.86480000 0.099947 -13.22 0.994892 -77.56 0.994892 -77.56 0.099970 37.996
8.86500000 0.100891 -13.33 0.994794 -77.61 0.994794 -77.61 0.100914 37.998
8.86500064 0.100894 -13.33 0.994794 -77.61 0.994794 -77.61 0.100917 37.998
8.86520000 0.101860 -13.45 0.994693 -77.67 0.994693 -77.67 0.101883 37.999
8.86535194 0.102613 -13.54 0.994613 -77.72 0.994613 -77.72 0.102636 37.999
8.86540000 0.102854 -13.57 0.994587 -77.73 0.994587 -77.73 0.102878 37.999
8.86560000 0.103875 -13.69 0.994478 -77.79 0.994478 -77.79 0.103900 37.997
8.86569518 0.104371 -13.75 0.994425 -77.82 0.994425 -77.82 0.104395 37.996
8.86580000 0.104924 -13.82 0.994365 -77.85 0.994365 -77.85 0.104949 37.995
8.86600000 0.106002 -13.95 0.994248 -77.92 0.994248 -77.92 0.106028 37.991
8.86603056 0.106170 -13.97 0.994229 -77.93 0.994229 -77.93 0.106195 37.991
8.86620000 0.107111 -14.07 0.994126 -77.98 0.994126 -77.98 0.107136 37.986
8.86635826 0.108010 -14.18 0.994026 -78.04 0.994026 -78.04 0.108036 37.981
8.86640000 0.108251 -14.21 0.993999 -78.05 0.993999 -78.05 0.108277 37.980
8.86660000 0.109423 -14.34 0.993867 -78.12 0.993867 -78.12 0.109450 37.972
8.86667844 0.109893 -14.39 0.993814 -78.15 0.993814 -78.15 0.109919 37.968
8.86680000 0.110631 -14.48 0.993730 -78.19 0.993730 -78.19 0.110657 37.962
8.86699129 0.111819 -14.61 0.993593 -78.26 0.993593 -78.26 0.111846 37.951
8.86700000 0.111874 -14.61 0.993587 -78.27 0.993587 -78.27 0.111901 37.951
8.86720000 0.113154 -14.76 0.993437 -78.34 0.993437 -78.34 0.113182 37.938
8.86729697 0.113789 -14.82 0.993363 -78.38 0.993363 -78.38 0.113817 37.931
8.86740000 0.114474 -14.90 0.993282 -78.42 0.993282 -78.42 0.114502 37.923
8.86759565 0.115804 -15.04 0.993123 -78.50 0.993123 -78.50 0.115833 37.906
8.86760000 0.115834 -15.05 0.993120 -78.50 0.993120 -78.50 0.115863 37.906
8.86780000 0.117238 -15.20 0.992951 -78.58 0.992951 -78.58 0.117267 37.887
8.86788748 0.117866 -15.26 0.992874 -78.62 0.992874 -78.62 0.117895 37.878
8.86800000 0.118686 -15.35 0.992774 -78.67 0.992774 -78.67 0.118716 37.866
8.86817263 0.119974 -15.48 0.992614 -78.74 0.992614 -78.74 0.120005 37.846
8.86820000 0.120182 -15.51 0.992588 -78.76 0.992588 -78.76 0.120212 37.843
8.86840000 0.121727 -15.67 0.992395 -78.85 0.992395 -78.85 0.121758 37.817
8.86845124 0.122131 -15.71 0.992344 -78.87 0.992344 -78.87 0.122162 37.810
8.86860000 0.123324 -15.83 0.992192 -78.94 0.992192 -78.94 0.123355 37.788
8.86872347 0.124337 -15.93 0.992062 -79.00 0.992062 -79.00 0.124369 37.770
8.86880000 0.124975 -16.00 0.991979 -79.04 0.991979 -79.04 0.125008 37.757
8.86898946 0.126593 -16.16 0.991768 -79.14 0.991768 -79.14 0.126626 37.725
8.86900000 0.126684 -16.17 0.991756 -79.14 0.991756 -79.14 0.126717 37.723
8.86920000 0.128454 -16.34 0.991522 -79.24 0.991522 -79.24 0.128487 37.686
8.86924935 0.128900 -16.39 0.991463 -79.27 0.991463 -79.27 0.128934 37.677
8.86940000 0.130287 -16.52 0.991276 -79.35 0.991276 -79.35 0.130321 37.646
8.86950329 0.131259 -16.62 0.991144 -79.41 0.991144 -79.41 0.131294 37.624