! Sonnet Data File
! From: emgraph Version : 16.52
! From Project: Resonator2_cp
! Data is De-embedded 
! Data File Written: 10/09/2017 11:12:09
!< HDATE 10/09/2017 07:45:37
!< MDATE 10/09/2017 07:45:37
!< PARAMS
!< Length = 400.0
!< Pwid1 = 2000.0
!< Pwid2 = 2000.0
!< Air_gap = 12.0
!< Width = 20.0
!< gap = 16.0
!< END PARAMS
# GHZ S MA R 40.14000
8.90000000 0.018665 17.152 0.999820 -75.47 0.999820 -75.47 0.018662 11.933
!< P1 F=8.9 Eeff=(5.24798951 -2.3049e-5) Z0=(40.1339254 8.93825e-5) R=0.0 C=0.0 
!< P2 F=8.9 Eeff=(5.24798951 -2.3049e-5) Z0=(40.1339254 8.93825e-5) R=0.0 C=0.0 
8.90010000 0.018653 17.176 0.999820 -75.47 0.999820 -75.47 0.018650 11.905
8.90020000 0.018641 17.201 0.999820 -75.48 0.999820 -75.48 0.018637 11.877
8.90030000 0.018629 17.226 0.999820 -75.48 0.999820 -75.48 0.018625 11.849
8.90040000 0.018617 17.250 0.999821 -75.48 0.999821 -75.48 0.018613 11.821
8.90050000 0.018604 17.275 0.999821 -75.48 0.999821 -75.48 0.018601 11.792
8.90060000 0.018592 17.301 0.999821 -75.48 0.999821 -75.48 0.018588 11.764
8.90070000 0.018580 17.326 0.999821 -75.48 0.999821 -75.48 0.018576 11.735
8.90080000 0.018567 17.351 0.999822 -75.49 0.999822 -75.49 0.018563 11.706
8.90090000 0.018555 17.377 0.999822 -75.49 0.999822 -75.49 0.018551 11.677
8.90100000 0.018542 17.402 0.999822 -75.49 0.999822 -75.49 0.018539 11.648
8.90110000 0.018530 17.428 0.999822 -75.49 0.999822 -75.49 0.018526 11.619
8.90120000 0.018517 17.454 0.999822 -75.49 0.999822 -75.49 0.018513 11.589
8.90130000 0.018505 17.480 0.999823 -75.49 0.999823 -75.49 0.018501 11.560
8.90140000 0.018492 17.506 0.999823 -75.50 0.999823 -75.50 0.018488 11.530
8.90150000 0.018479 17.533 0.999823 -75.50 0.999823 -75.50 0.018475 11.501
8.90160000 0.018467 17.559 0.999823 -75.50 0.999823 -75.50 0.018463 11.471
8.90170000 0.018454 17.586 0.999824 -75.50 0.999824 -75.50 0.018450 11.441
8.90180000 0.018441 17.612 0.999824 -75.50 0.999824 -75.50 0.018437 11.410
8.90190000 0.018428 17.639 0.999824 -75.51 0.999824 -75.51 0.018424 11.380
8.90200000 0.018416 17.666 0.999824 -75.51 0.999824 -75.51 0.018411 11.350
8.90210000 0.018403 17.693 0.999824 -75.51 0.999824 -75.51 0.018398 11.319
8.90220000 0.018390 17.721 0.999825 -75.51 0.999825 -75.51 0.018386 11.288
8.90230000 0.018377 17.748 0.999825 -75.51 0.999825 -75.51 0.018373 11.257
8.90240000 0.018364 17.776 0.999825 -75.51 0.999825 -75.51 0.018359 11.226
8.90250000 0.018351 17.803 0.999825 -75.52 0.999825 -75.52 0.018346 11.195
8.90260000 0.018337 17.831 0.999826 -75.52 0.999826 -75.52 0.018333 11.164
8.90270000 0.018324 17.859 0.999826 -75.52 0.999826 -75.52 0.018320 11.132
8.90280000 0.018311 17.887 0.999826 -75.52 0.999826 -75.52 0.018307 11.101
8.90290000 0.018298 17.916 0.999826 -75.52 0.999826 -75.52 0.018294 11.069
8.90300000 0.018285 17.944 0.999827 -75.52 0.999827 -75.52 0.018280 11.037
8.90310000 0.018271 17.973 0.999827 -75.53 0.999827 -75.53 0.018267 11.005
8.90320000 0.018258 18.001 0.999827 -75.53 0.999827 -75.53 0.018254 10.972
8.90330000 0.018244 18.030 0.999827 -75.53 0.999827 -75.53 0.018240 10.940
8.90340000 0.018231 18.059 0.999827 -75.53 0.999827 -75.53 0.018227 10.907
8.90350000 0.018217 18.088 0.999828 -75.53 0.999828 -75.53 0.018213 10.875
8.90360000 0.018204 18.118 0.999828 -75.54 0.999828 -75.54 0.018200 10.842
8.90370000 0.018190 18.147 0.999828 -75.54 0.999828 -75.54 0.018186 10.809
8.90380000 0.018177 18.177 0.999828 -75.54 0.999828 -75.54 0.018172 10.775
8.90390000 0.018163 18.207 0.999829 -75.54 0.999829 -75.54 0.018159 10.742
8.90400000 0.018149 18.237 0.999829 -75.54 0.999829 -75.54 0.018145 10.708
8.90410000 0.018136 18.267 0.999829 -75.55 0.999829 -75.55 0.018131 10.675
8.90420000 0.018122 18.297 0.999829 -75.55 0.999829 -75.55 0.018117 10.641
8.90430000 0.018108 18.327 0.999830 -75.55 0.999830 -75.55 0.018103 10.607
8.90440000 0.018094 18.358 0.999830 -75.55 0.999830 -75.55 0.018089 10.572
8.90450000 0.018080 18.389 0.999830 -75.55 0.999830 -75.55 0.018075 10.538
8.90460000 0.018066 18.420 0.999830 -75.55 0.999830 -75.55 0.018061 10.503
8.90470000 0.018052 18.451 0.999831 -75.56 0.999831 -75.56 0.018047 10.469
8.90480000 0.018038 18.482 0.999831 -75.56 0.999831 -75.56 0.018033 10.434
8.90490000 0.018024 18.514 0.999831 -75.56 0.999831 -75.56 0.018019 10.399
8.90500000 0.018010 18.545 0.999831 -75.56 0.999831 -75.56 0.018005 10.363
8.90510000 0.017995 18.577 0.999831 -75.56 0.999831 -75.56 0.017991 10.328
8.90520000 0.017981 18.609 0.999832 -75.57 0.999832 -75.57 0.017976 10.292
8.90530000 0.017967 18.641 0.999832 -75.57 0.999832 -75.57 0.017962 10.256
8.90540000 0.017953 18.674 0.999832 -75.57 0.999832 -75.57 0.017948 10.220
8.90550000 0.017938 18.706 0.999832 -75.57 0.999832 -75.57 0.017933 10.184
8.90560000 0.017924 18.739 0.999833 -75.57 0.999833 -75.57 0.017919 10.148
8.90570000 0.017909 18.772 0.999833 -75.58 0.999833 -75.58 0.017904 10.111
8.90580000 0.017895 18.805 0.999833 -75.58 0.999833 -75.58 0.017890 10.074
8.90590000 0.017880 18.838 0.999833 -75.58 0.999833 -75.58 0.017875 10.037
8.90600000 0.017865 18.871 0.999834 -75.58 0.999834 -75.58 0.017860 10.000
8.90610000 0.017851 18.905 0.999834 -75.58 0.999834 -75.58 0.017846 9.9627
8.90620000 0.017836 18.939 0.999834 -75.58 0.999834 -75.58 0.017831 9.9251
8.90630000 0.017821 18.973 0.999834 -75.59 0.999834 -75.59 0.017816 9.8873
8.90640000 0.017806 19.007 0.999835 -75.59 0.999835 -75.59 0.017801 9.8494
8.90650000 0.017791 19.041 0.999835 -75.59 0.999835 -75.59 0.017786 9.8112
8.90660000 0.017777 19.076 0.999835 -75.59 0.999835 -75.59 0.017771 9.7729
8.90670000 0.017762 19.111 0.999835 -75.59 0.999835 -75.59 0.017756 9.7343
8.90680000 0.017747 19.146 0.999836 -75.60 0.999836 -75.60 0.017741 9.6955
8.90690000 0.017731 19.181 0.999836 -75.60 0.999836 -75.60 0.017726 9.6565
8.90700000 0.017716 19.216 0.999836 -75.60 0.999836 -75.60 0.017711 9.6173
8.90710000 0.017701 19.252 0.999836 -75.60 0.999836 -75.60 0.017696 9.5779
8.90720000 0.017686 19.287 0.999837 -75.60 0.999837 -75.60 0.017681 9.5383
8.90730000 0.017671 19.323 0.999837 -75.61 0.999837 -75.61 0.017665 9.4985
8.90740000 0.017655 19.360 0.999837 -75.61 0.999837 -75.61 0.017650 9.4584
8.90750000 0.017640 19.396 0.999837 -75.61 0.999837 -75.61 0.017635 9.4182
8.90760000 0.017624 19.433 0.999838 -75.61 0.999838 -75.61 0.017619 9.3777
8.90770000 0.017609 19.469 0.999838 -75.61 0.999838 -75.61 0.017604 9.3370
8.90780000 0.017593 19.507 0.999838 -75.62 0.999838 -75.62 0.017588 9.2960
8.90790000 0.017578 19.544 0.999838 -75.62 0.999838 -75.62 0.017572 9.2549
8.90800000 0.017562 19.581 0.999839 -75.62 0.999839 -75.62 0.017557 9.2135
8.90810000 0.017546 19.619 0.999839 -75.62 0.999839 -75.62 0.017541 9.1719
8.90820000 0.017531 19.657 0.999839 -75.62 0.999839 -75.62 0.017525 9.1300
8.90830000 0.017515 19.695 0.999840 -75.63 0.999840 -75.63 0.017509 9.0879
8.90840000 0.017499 19.733 0.999840 -75.63 0.999840 -75.63 0.017493 9.0456
8.90850000 0.017483 19.772 0.999840 -75.63 0.999840 -75.63 0.017477 9.0031
8.90860000 0.017467 19.811 0.999840 -75.63 0.999840 -75.63 0.017461 8.9603
8.90870000 0.017451 19.850 0.999841 -75.63 0.999841 -75.63 0.017445 8.9172
8.90880000 0.017435 19.889 0.999841 -75.64 0.999841 -75.64 0.017429 8.8740
8.90890000 0.017419 19.929 0.999841 -75.64 0.999841 -75.64 0.017413 8.8304
8.90900000 0.017403 19.969 0.999841 -75.64 0.999841 -75.64 0.017397 8.7867
8.90910000 0.017386 20.009 0.999842 -75.64 0.999842 -75.64 0.017381 8.7427
8.90920000 0.017370 20.049 0.999842 -75.64 0.999842 -75.64 0.017364 8.6984
8.90930000 0.017354 20.089 0.999842 -75.65 0.999842 -75.65 0.017348 8.6539
8.90940000 0.017337 20.130 0.999842 -75.65 0.999842 -75.65 0.017332 8.6091
8.90950000 0.017321 20.171 0.999843 -75.65 0.999843 -75.65 0.017315 8.5640
8.90960000 0.017304 20.212 0.999843 -75.65 0.999843 -75.65 0.017298 8.5187
8.90970000 0.017288 20.254 0.999843 -75.65 0.999843 -75.65 0.017282 8.4732
8.90980000 0.017271 20.296 0.999844 -75.66 0.999844 -75.66 0.017265 8.4274
8.90990000 0.017255 20.338 0.999844 -75.66 0.999844 -75.66 0.017248 8.3813
8.91000000 0.017238 20.380 0.999844 -75.66 0.999844 -75.66 0.017232 8.3349
8.91010000 0.017221 20.422 0.999844 -75.66 0.999844 -75.66 0.017215 8.2883
8.91020000 0.017204 20.465 0.999845 -75.67 0.999845 -75.67 0.017198 8.2414
8.91030000 0.017187 20.508 0.999845 -75.67 0.999845 -75.67 0.017181 8.1942
8.91040000 0.017170 20.552 0.999845 -75.67 0.999845 -75.67 0.017164 8.1467
8.91050000 0.017153 20.595 0.999845 -75.67 0.999845 -75.67 0.017147 8.0990
8.91060000 0.017136 20.639 0.999846 -75.67 0.999846 -75.67 0.017130 8.0509
8.91070000 0.017119 20.683 0.999846 -75.68 0.999846 -75.68 0.017113 8.0026
8.91080000 0.017102 20.728 0.999846 -75.68 0.999846 -75.68 0.017095 7.9540
8.91090000 0.017084 20.773 0.999847 -75.68 0.999847 -75.68 0.017078 7.9051
8.91100000 0.017067 20.818 0.999847 -75.68 0.999847 -75.68 0.017061 7.8559
8.91110000 0.017050 20.863 0.999847 -75.68 0.999847 -75.68 0.017043 7.8065
8.91120000 0.017032 20.908 0.999847 -75.69 0.999847 -75.69 0.017026 7.7567
8.91130000 0.017015 20.954 0.999848 -75.69 0.999848 -75.69 0.017008 7.7066
8.91140000 0.016997 21.000 0.999848 -75.69 0.999848 -75.69 0.016991 7.6562
8.91150000 0.016979 21.047 0.999848 -75.69 0.999848 -75.69 0.016973 7.6055
8.91160000 0.016962 21.094 0.999848 -75.70 0.999848 -75.70 0.016955 7.5545
8.91170000 0.016944 21.141 0.999849 -75.70 0.999849 -75.70 0.016937 7.5031
8.91180000 0.016926 21.188 0.999849 -75.70 0.999849 -75.70 0.016919 7.4515
8.91190000 0.016908 21.236 0.999849 -75.70 0.999849 -75.70 0.016901 7.3995
8.91200000 0.016890 21.284 0.999850 -75.70 0.999850 -75.70 0.016883 7.3473
8.91210000 0.016872 21.332 0.999850 -75.71 0.999850 -75.71 0.016865 7.2946
8.91220000 0.016854 21.381 0.999850 -75.71 0.999850 -75.71 0.016847 7.2417
8.91230000 0.016836 21.430 0.999850 -75.71 0.999850 -75.71 0.016829 7.1884
8.91240000 0.016818 21.479 0.999851 -75.71 0.999851 -75.71 0.016811 7.1348
8.91250000 0.016800 21.529 0.999851 -75.72 0.999851 -75.72 0.016793 7.0809
8.91260000 0.016781 21.579 0.999851 -75.72 0.999851 -75.72 0.016774 7.0266
8.91270000 0.016763 21.629 0.999852 -75.72 0.999852 -75.72 0.016756 6.9720
8.91280000 0.016744 21.680 0.999852 -75.72 0.999852 -75.72 0.016737 6.9170
8.91290000 0.016726 21.730 0.999852 -75.72 0.999852 -75.72 0.016719 6.8617
8.91300000 0.016707 21.782 0.999852 -75.73 0.999852 -75.73 0.016700 6.8060
8.91310000 0.016689 21.833 0.999853 -75.73 0.999853 -75.73 0.016681 6.7500
8.91320000 0.016670 21.885 0.999853 -75.73 0.999853 -75.73 0.016663 6.6936
8.91330000 0.016651 21.938 0.999853 -75.73 0.999853 -75.73 0.016644 6.6368
8.91340000 0.016632 21.990 0.999854 -75.74 0.999854 -75.74 0.016625 6.5797
8.91350000 0.016613 22.043 0.999854 -75.74 0.999854 -75.74 0.016606 6.5222
8.91360000 0.016594 22.097 0.999854 -75.74 0.999854 -75.74 0.016587 6.4643
8.91370000 0.016575 22.151 0.999855 -75.74 0.999855 -75.74 0.016568 6.4061
8.91380000 0.016556 22.205 0.999855 -75.74 0.999855 -75.74 0.016549 6.3475
8.91390000 0.016537 22.259 0.999855 -75.75 0.999855 -75.75 0.016529 6.2884
8.91400000 0.016518 22.314 0.999855 -75.75 0.999855 -75.75 0.016510 6.2290
8.91410000 0.016498 22.370 0.999856 -75.75 0.999856 -75.75 0.016491 6.1692
8.91420000 0.016479 22.425 0.999856 -75.75 0.999856 -75.75 0.016471 6.1090
8.91430000 0.016459 22.481 0.999856 -75.76 0.999856 -75.76 0.016452 6.0484
8.91440000 0.016440 22.538 0.999857 -75.76 0.999857 -75.76 0.016432 5.9874
8.91450000 0.016420 22.595 0.999857 -75.76 0.999857 -75.76 0.016412 5.9260
8.91460000 0.016401 22.652 0.999857 -75.76 0.999857 -75.76 0.016393 5.8642
8.91470000 0.016381 22.709 0.999857 -75.77 0.999857 -75.77 0.016373 5.8020
8.91480000 0.016361 22.768 0.999858 -75.77 0.999858 -75.77 0.016353 5.7393
8.91490000 0.016341 22.826 0.999858 -75.77 0.999858 -75.77 0.016333 5.6762
8.91500000 0.016321 22.885 0.999858 -75.77 0.999858 -75.77 0.016313 5.6127
8.91510000 0.016301 22.944 0.999859 -75.78 0.999859 -75.78 0.016293 5.5487
8.91520000 0.016281 23.004 0.999859 -75.78 0.999859 -75.78 0.016273 5.4844
8.91530000 0.016261 23.064 0.999859 -75.78 0.999859 -75.78 0.016253 5.4195
8.91540000 0.016241 23.125 0.999860 -75.78 0.999860 -75.78 0.016232 5.3542
8.91550000 0.016220 23.186 0.999860 -75.79 0.999860 -75.79 0.016212 5.2885
8.91560000 0.016200 23.247 0.999860 -75.79 0.999860 -75.79 0.016191 5.2223
8.91570000 0.016179 23.309 0.999860 -75.79 0.999860 -75.79 0.016171 5.1557
8.91580000 0.016159 23.372 0.999861 -75.79 0.999861 -75.79 0.016150 5.0886
8.91590000 0.016138 23.434 0.999861 -75.79 0.999861 -75.79 0.016130 5.0210
8.91600000 0.016117 23.498 0.999861 -75.80 0.999861 -75.80 0.016109 4.9529
8.91610000 0.016097 23.561 0.999862 -75.80 0.999862 -75.80 0.016088 4.8844
8.91620000 0.016076 23.626 0.999862 -75.80 0.999862 -75.80 0.016067 4.8154
8.91630000 0.016055 23.690 0.999862 -75.80 0.999862 -75.80 0.016046 4.7458
8.91640000 0.016034 23.756 0.999863 -75.81 0.999863 -75.81 0.016025 4.6758
8.91650000 0.016013 23.821 0.999863 -75.81 0.999863 -75.81 0.016004 4.6053
8.91660000 0.015992 23.888 0.999863 -75.81 0.999863 -75.81 0.015983 4.5343
8.91670000 0.015971 23.954 0.999864 -75.81 0.999864 -75.81 0.015962 4.4628
8.91680000 0.015949 24.021 0.999864 -75.82 0.999864 -75.82 0.015940 4.3907
8.91690000 0.015928 24.089 0.999864 -75.82 0.999864 -75.82 0.015919 4.3181
8.91700000 0.015906 24.157 0.999865 -75.82 0.999865 -75.82 0.015897 4.2450
8.91710000 0.015885 24.226 0.999865 -75.82 0.999865 -75.82 0.015876 4.1714
8.91720000 0.015863 24.295 0.999865 -75.83 0.999865 -75.83 0.015854 4.0972
8.91730000 0.015842 24.365 0.999865 -75.83 0.999865 -75.83 0.015832 4.0225
8.91740000 0.015820 24.435 0.999866 -75.83 0.999866 -75.83 0.015811 3.9473
8.91750000 0.015798 24.506 0.999866 -75.84 0.999866 -75.84 0.015789 3.8714
8.91760000 0.015776 24.578 0.999866 -75.84 0.999866 -75.84 0.015767 3.7950
8.91770000 0.015754 24.649 0.999867 -75.84 0.999867 -75.84 0.015745 3.7181
8.91780000 0.015732 24.722 0.999867 -75.84 0.999867 -75.84 0.015723 3.6406
8.91790000 0.015710 24.795 0.999867 -75.85 0.999867 -75.85 0.015700 3.5624
8.91800000 0.015688 24.869 0.999868 -75.85 0.999868 -75.85 0.015678 3.4837
8.91810000 0.015665 24.943 0.999868 -75.85 0.999868 -75.85 0.015656 3.4044
8.91820000 0.015643 25.018 0.999868 -75.85 0.999868 -75.85 0.015633 3.3246
8.91830000 0.015621 25.093 0.999869 -75.86 0.999869 -75.86 0.015611 3.2440
8.91840000 0.015598 25.169 0.999869 -75.86 0.999869 -75.86 0.015588 3.1629
8.91850000 0.015575 25.246 0.999869 -75.86 0.999869 -75.86 0.015566 3.0812
8.91860000 0.015553 25.323 0.999870 -75.86 0.999870 -75.86 0.015543 2.9988
8.91870000 0.015530 25.401 0.999870 -75.87 0.999870 -75.87 0.015520 2.9158
8.91880000 0.015507 25.479 0.999870 -75.87 0.999870 -75.87 0.015497 2.8322
8.91890000 0.015484 25.558 0.999871 -75.87 0.999871 -75.87 0.015474 2.7479
8.91900000 0.015461 25.638 0.999871 -75.87 0.999871 -75.87 0.015451 2.6629
8.91910000 0.015438 25.719 0.999871 -75.88 0.999871 -75.88 0.015428 2.5773
8.91920000 0.015415 25.800 0.999872 -75.88 0.999872 -75.88 0.015404 2.4910
8.91930000 0.015392 25.881 0.999872 -75.88 0.999872 -75.88 0.015381 2.4040
8.91940000 0.015368 25.964 0.999872 -75.89 0.999872 -75.89 0.015358 2.3164
8.91950000 0.015345 26.047 0.999873 -75.89 0.999873 -75.89 0.015334 2.2280
8.91960000 0.015321 26.130 0.999873 -75.89 0.999873 -75.89 0.015311 2.1390
8.91970000 0.015298 26.215 0.999873 -75.89 0.999873 -75.89 0.015287 2.0492
8.91980000 0.015274 26.300 0.999874 -75.90 0.999874 -75.90 0.015263 1.9587
8.91990000 0.015250 26.386 0.999874 -75.90 0.999874 -75.90 0.015239 1.8675
8.92000000 0.015226 26.472 0.999874 -75.90 0.999874 -75.90 0.015215 1.7756
8.92010000 0.015202 26.560 0.999874 -75.91 0.999874 -75.91 0.015191 1.6829
8.92020000 0.015178 26.648 0.999875 -75.91 0.999875 -75.91 0.015167 1.5894
8.92030000 0.015154 26.736 0.999875 -75.91 0.999875 -75.91 0.015143 1.4952
8.92040000 0.015130 26.826 0.999875 -75.91 0.999875 -75.91 0.015119 1.4002
8.92050000 0.015106 26.916 0.999876 -75.92 0.999876 -75.92 0.015094 1.3044
8.92060000 0.015081 27.007 0.999876 -75.92 0.999876 -75.92 0.015070 1.2079
8.92070000 0.015057 27.099 0.999876 -75.92 0.999876 -75.92 0.015045 1.1105
8.92080000 0.015032 27.192 0.999877 -75.93 0.999877 -75.93 0.015021 1.0124
8.92090000 0.015008 27.285 0.999877 -75.93 0.999877 -75.93 0.014996 0.9134
8.92100000 0.014983 27.379 0.999877 -75.93 0.999877 -75.93 0.014971 0.8136
8.92110000 0.014958 27.475 0.999878 -75.93 0.999878 -75.93 0.014947 0.7129
8.92120000 0.014933 27.570 0.999878 -75.94 0.999878 -75.94 0.014922 0.6114
8.92130000 0.014909 27.667 0.999878 -75.94 0.999878 -75.94 0.014897 0.5091
8.92140000 0.014883 27.765 0.999879 -75.94 0.999879 -75.94 0.014871 0.4058
8.92150000 0.014858 27.863 0.999879 -75.95 0.999879 -75.95 0.014846 0.3017
8.92160000 0.014833 27.962 0.999879 -75.95 0.999879 -75.95 0.014821 0.1967
8.92170000 0.014808 28.063 0.999880 -75.95 0.999880 -75.95 0.014796 0.0908
8.92180000 0.014782 28.164 0.999880 -75.95 0.999880 -75.95 0.014770 -0.016
8.92190000 0.014757 28.266 0.999880 -75.96 0.999880 -75.96 0.014745 -0.124
8.92200000 0.014731 28.368 0.999881 -75.96 0.999881 -75.96 0.014719 -0.232
8.92210000 0.014706 28.472 0.999881 -75.96 0.999881 -75.96 0.014693 -0.342
8.92220000 0.014680 28.577 0.999881 -75.97 0.999881 -75.97 0.014667 -0.453
8.92230000 0.014654 28.683 0.999882 -75.97 0.999882 -75.97 0.014641 -0.564
8.92240000 0.014628 28.789 0.999882 -75.97 0.999882 -75.97 0.014615 -0.677
8.92250000 0.014602 28.897 0.999882 -75.98 0.999882 -75.98 0.014589 -0.790
8.92260000 0.014576 29.006 0.999883 -75.98 0.999883 -75.98 0.014563 -0.905
8.92270000 0.014550 29.115 0.999883 -75.98 0.999883 -75.98 0.014537 -1.020
8.92280000 0.014524 29.226 0.999884 -75.99 0.999884 -75.99 0.014511 -1.137
8.92290000 0.014498 29.338 0.999884 -75.99 0.999884 -75.99 0.014484 -1.255
8.92300000 0.014471 29.450 0.999884 -75.99 0.999884 -75.99 0.014458 -1.373
8.92310000 0.014445 29.564 0.999885 -75.99 0.999885 -75.99 0.014431 -1.493
8.92320000 0.014418 29.679 0.999885 -76.00 0.999885 -76.00 0.014404 -1.614
8.92330000 0.014391 29.795 0.999885 -76.00 0.999885 -76.00 0.014378 -1.736
8.92340000 0.014365 29.912 0.999886 -76.00 0.999886 -76.00 0.014351 -1.859
8.92350000 0.014338 30.030 0.999886 -76.01 0.999886 -76.01 0.014324 -1.983
8.92360000 0.014311 30.149 0.999886 -76.01 0.999886 -76.01 0.014297 -2.109
8.92370000 0.014284 30.269 0.999887 -76.01 0.999887 -76.01 0.014270 -2.235
8.92380000 0.014257 30.391 0.999887 -76.02 0.999887 -76.02 0.014243 -2.363
8.92390000 0.014230 30.513 0.999887 -76.02 0.999887 -76.02 0.014215 -2.492
8.92400000 0.014202 30.637 0.999888 -76.02 0.999888 -76.02 0.014188 -2.622
8.92410000 0.014175 30.762 0.999888 -76.03 0.999888 -76.03 0.014160 -2.753
8.92420000 0.014148 30.889 0.999888 -76.03 0.999888 -76.03 0.014133 -2.886
8.92430000 0.014120 31.016 0.999889 -76.03 0.999889 -76.03 0.014105 -3.020
8.92440000 0.014093 31.145 0.999889 -76.04 0.999889 -76.04 0.014078 -3.155
8.92450000 0.014065 31.275 0.999889 -76.04 0.999889 -76.04 0.014050 -3.291
8.92460000 0.014037 31.406 0.999890 -76.04 0.999890 -76.04 0.014022 -3.429
8.92470000 0.014009 31.539 0.999890 -76.05 0.999890 -76.05 0.013994 -3.568
8.92480000 0.013981 31.672 0.999890 -76.05 0.999890 -76.05 0.013966 -3.708
8.92490000 0.013953 31.808 0.999891 -76.05 0.999891 -76.05 0.013938 -3.850
8.92500000 0.013925 31.944 0.999891 -76.06 0.999891 -76.06 0.013910 -3.993
8.92510000 0.013897 32.082 0.999891 -76.06 0.999891 -76.06 0.013882 -4.137
8.92520000 0.013869 32.221 0.999892 -76.06 0.999892 -76.06 0.013853 -4.283
8.92530000 0.013841 32.362 0.999892 -76.07 0.999892 -76.07 0.013825 -4.431
8.92540000 0.013812 32.504 0.999892 -76.07 0.999892 -76.07 0.013796 -4.579
8.92550000 0.013784 32.648 0.999893 -76.07 0.999893 -76.07 0.013768 -4.730
8.92560000 0.013755 32.793 0.999893 -76.08 0.999893 -76.08 0.013739 -4.881
8.92570000 0.013727 32.939 0.999893 -76.08 0.999893 -76.08 0.013710 -5.035
8.92580000 0.013698 33.087 0.999894 -76.08 0.999894 -76.08 0.013681 -5.190
8.92590000 0.013669 33.237 0.999894 -76.09 0.999894 -76.09 0.013653 -5.346
8.92600000 0.013641 33.388 0.999894 -76.09 0.999894 -76.09 0.013624 -5.504
8.92610000 0.013612 33.541 0.999895 -76.10 0.999895 -76.10 0.013595 -5.663
8.92620000 0.013583 33.695 0.999895 -76.10 0.999895 -76.10 0.013565 -5.825
8.92630000 0.013554 33.851 0.999895 -76.10 0.999895 -76.10 0.013536 -5.987
8.92640000 0.013525 34.008 0.999896 -76.11 0.999896 -76.11 0.013507 -6.152
8.92650000 0.013495 34.167 0.999896 -76.11 0.999896 -76.11 0.013478 -6.318
8.92660000 0.013466 34.328 0.999896 -76.11 0.999896 -76.11 0.013448 -6.486
8.92670000 0.013437 34.491 0.999897 -76.12 0.999897 -76.12 0.013419 -6.656
8.92680000 0.013407 34.655 0.999897 -76.12 0.999897 -76.12 0.013389 -6.827
8.92690000 0.013378 34.821 0.999897 -76.12 0.999897 -76.12 0.013360 -7.000
8.92700000 0.013349 34.989 0.999898 -76.13 0.999898 -76.13 0.013330 -7.175
8.92710000 0.013319 35.159 0.999898 -76.13 0.999898 -76.13 0.013300 -7.352
8.92720000 0.013289 35.330 0.999898 -76.14 0.999898 -76.14 0.013271 -7.531
8.92730000 0.013260 35.503 0.999899 -76.14 0.999899 -76.14 0.013241 -7.712
8.92740000 0.013230 35.679 0.999899 -76.14 0.999899 -76.14 0.013211 -7.894
8.92750000 0.013200 35.856 0.999899 -76.15 0.999899 -76.15 0.013181 -8.079
8.92760000 0.013170 36.035 0.999900 -76.15 0.999900 -76.15 0.013151 -8.265
8.92770000 0.013141 36.216 0.999900 -76.15 0.999900 -76.15 0.013121 -8.453
8.92780000 0.013111 36.399 0.999900 -76.16 0.999900 -76.16 0.013091 -8.644
8.92790000 0.013081 36.584 0.999901 -76.16 0.999901 -76.16 0.013061 -8.837
8.92800000 0.013051 36.771 0.999901 -76.17 0.999901 -76.17 0.013031 -9.031
8.92810000 0.013021 36.960 0.999901 -76.17 0.999901 -76.17 0.013000 -9.228
8.92820000 0.012990 37.151 0.999902 -76.17 0.999902 -76.17 0.012970 -9.427
8.92830000 0.012960 37.345 0.999902 -76.18 0.999902 -76.18 0.012940 -9.628
8.92840000 0.012930 37.540 0.999902 -76.18 0.999902 -76.18 0.012909 -9.831
8.92850000 0.012900 37.738 0.999903 -76.19 0.999903 -76.19 0.012879 -10.04
8.92860000 0.012870 37.938 0.999903 -76.19 0.999903 -76.19 0.012849 -10.24
8.92870000 0.012839 38.140 0.999903 -76.19 0.999903 -76.19 0.012818 -10.45
8.92880000 0.012809 38.345 0.999904 -76.20 0.999904 -76.20 0.012788 -10.67
8.92890000 0.012779 38.552 0.999904 -76.20 0.999904 -76.20 0.012757 -10.88
8.92900000 0.012748 38.761 0.999904 -76.21 0.999904 -76.21 0.012727 -11.10
8.92910000 0.012718 38.973 0.999904 -76.21 0.999904 -76.21 0.012696 -11.32
8.92920000 0.012688 39.187 0.999905 -76.21 0.999905 -76.21 0.012665 -11.54
8.92930000 0.012657 39.404 0.999905 -76.22 0.999905 -76.22 0.012635 -11.77
8.92940000 0.012627 39.623 0.999905 -76.22 0.999905 -76.22 0.012604 -11.99
8.92950000 0.012596 39.845 0.999906 -76.23 0.999906 -76.23 0.012574 -12.22
8.92960000 0.012566 40.069 0.999906 -76.23 0.999906 -76.23 0.012543 -12.46
8.92970000 0.012535 40.296 0.999906 -76.24 0.999906 -76.24 0.012512 -12.69
8.92980000 0.012505 40.525 0.999907 -76.24 0.999907 -76.24 0.012482 -12.93
8.92990000 0.012475 40.758 0.999907 -76.24 0.999907 -76.24 0.012451 -13.17
8.93000000 0.012444 40.993 0.999907 -76.25 0.999907 -76.25 0.012420 -13.41
8.93010000 0.012414 41.230 0.999907 -76.25 0.999907 -76.25 0.012390 -13.66
8.93020000 0.012383 41.471 0.999908 -76.26 0.999908 -76.26 0.012359 -13.91
8.93030000 0.012353 41.715 0.999908 -76.26 0.999908 -76.26 0.012329 -14.16
8.93040000 0.012323 41.961 0.999908 -76.27 0.999908 -76.27 0.012298 -14.42
8.93050000 0.012292 42.210 0.999909 -76.27 0.999909 -76.27 0.012268 -14.68
8.93060000 0.012262 42.463 0.999909 -76.27 0.999909 -76.27 0.012237 -14.94
8.93070000 0.012232 42.718 0.999909 -76.28 0.999909 -76.28 0.012207 -15.20
8.93080000 0.012202 42.976 0.999909 -76.28 0.999909 -76.28 0.012176 -15.47
8.93090000 0.012172 43.238 0.999910 -76.29 0.999910 -76.29 0.012146 -15.74
8.93100000 0.012142 43.502 0.999910 -76.29 0.999910 -76.29 0.012116 -16.01
8.93110000 0.012112 43.770 0.999910 -76.30 0.999910 -76.30 0.012085 -16.29
8.93120000 0.012082 44.042 0.999911 -76.30 0.999911 -76.30 0.012055 -16.57
8.93130000 0.012052 44.316 0.999911 -76.31 0.999911 -76.31 0.012025 -16.85
8.93140000 0.012022 44.594 0.999911 -76.31 0.999911 -76.31 0.011995 -17.14
8.93150000 0.011992 44.875 0.999911 -76.32 0.999911 -76.32 0.011965 -17.43
8.93160000 0.011963 45.160 0.999912 -76.32 0.999912 -76.32 0.011935 -17.73
8.93170000 0.011933 45.448 0.999912 -76.33 0.999912 -76.33 0.011905 -18.02
8.93180000 0.011904 45.739 0.999912 -76.33 0.999912 -76.33 0.011876 -18.32
8.93190000 0.011875 46.035 0.999912 -76.34 0.999912 -76.34 0.011846 -18.63
8.93200000 0.011845 46.334 0.999913 -76.34 0.999913 -76.34 0.011817 -18.94
8.93210000 0.011816 46.636 0.999913 -76.35 0.999913 -76.35 0.011787 -19.25
8.93220000 0.011787 46.942 0.999913 -76.35 0.999913 -76.35 0.011758 -19.57
8.93230000 0.011759 47.253 0.999913 -76.35 0.999913 -76.35 0.011729 -19.89
8.93240000 0.011730 47.567 0.999914 -76.36 0.999914 -76.36 0.011700 -20.21
8.93250000 0.011702 47.884 0.999914 -76.36 0.999914 -76.36 0.011671 -20.54
8.93260000 0.011673 48.206 0.999914 -76.37 0.999914 -76.37 0.011643 -20.87
8.93270000 0.011645 48.532 0.999914 -76.37 0.999914 -76.37 0.011614 -21.21
8.93280000 0.011617 48.862 0.999914 -76.38 0.999914 -76.38 0.011586 -21.55
8.93290000 0.011589 49.196 0.999915 -76.39 0.999915 -76.39 0.011558 -21.89
8.93300000 0.011562 49.534 0.999915 -76.39 0.999915 -76.39 0.011530 -22.24
8.93310000 0.011535 49.876 0.999915 -76.40 0.999915 -76.40 0.011503 -22.59
8.93320000 0.011507 50.223 0.999915 -76.40 0.999915 -76.40 0.011475 -22.95
8.93330000 0.011481 50.573 0.999915 -76.41 0.999915 -76.41 0.011448 -23.31
8.93340000 0.011454 50.929 0.999916 -76.41 0.999916 -76.41 0.011421 -23.68
8.93350000 0.011428 51.288 0.999916 -76.42 0.999916 -76.42 0.011395 -24.05
8.93360000 0.011402 51.652 0.999916 -76.42 0.999916 -76.42 0.011368 -24.42
8.93370000 0.011376 52.021 0.999916 -76.43 0.999916 -76.43 0.011342 -24.80
8.93380000 0.011350 52.394 0.999916 -76.43 0.999916 -76.43 0.011316 -25.19
8.93390000 0.011325 52.772 0.999916 -76.44 0.999916 -76.44 0.011291 -25.58
8.93400000 0.011300 53.154 0.999917 -76.44 0.999917 -76.44 0.011265 -25.97
8.93410000 0.011276 53.541 0.999917 -76.45 0.999917 -76.45 0.011240 -26.37
8.93420000 0.011251 53.933 0.999917 -76.45 0.999917 -76.45 0.011216 -26.77
8.93430000 0.011228 54.330 0.999917 -76.46 0.999917 -76.46 0.011192 -27.18
8.93440000 0.011204 54.731 0.999917 -76.47 0.999917 -76.47 0.011168 -27.60
8.93450000 0.011181 55.138 0.999917 -76.47 0.999917 -76.47 0.011144 -28.02
8.93460000 0.011158 55.549 0.999917 -76.48 0.999917 -76.48 0.011121 -28.44
8.93470000 0.011136 55.966 0.999917 -76.48 0.999917 -76.48 0.011099 -28.87
8.93480000 0.011114 56.387 0.999918 -76.49 0.999918 -76.49 0.011077 -29.30
8.93490000 0.011093 56.814 0.999918 -76.49 0.999918 -76.49 0.011055 -29.74
8.93500000 0.011072 57.246 0.999918 -76.50 0.999918 -76.50 0.011034 -30.19
8.93510000 0.011051 57.683 0.999918 -76.51 0.999918 -76.51 0.011013 -30.64
8.93520000 0.011032 58.125 0.999918 -76.51 0.999918 -76.51 0.010992 -31.09
8.93530000 0.011012 58.572 0.999918 -76.52 0.999918 -76.52 0.010973 -31.55
8.93540000 0.010993 59.025 0.999918 -76.52 0.999918 -76.52 0.010953 -32.02
8.93550000 0.010975 59.483 0.999918 -76.53 0.999918 -76.53 0.010935 -32.49
8.93560000 0.010957 59.946 0.999918 -76.54 0.999918 -76.54 0.010917 -32.97
8.93570000 0.010940 60.415 0.999918 -76.54 0.999918 -76.54 0.010899 -33.45
8.93580000 0.010924 60.889 0.999918 -76.55 0.999918 -76.55 0.010882 -33.94
8.93590000 0.010908 61.369 0.999918 -76.56 0.999918 -76.56 0.010866 -34.43
8.93600000 0.010893 61.854 0.999918 -76.56 0.999918 -76.56 0.010850 -34.93
8.93610000 0.010878 62.344 0.999918 -76.57 0.999918 -76.57 0.010835 -35.43
8.93620000 0.010864 62.840 0.999918 -76.57 0.999918 -76.57 0.010821 -35.94
8.93630000 0.010851 63.342 0.999918 -76.58 0.999918 -76.58 0.010808 -36.46
8.93640000 0.010839 63.849 0.999918 -76.59 0.999918 -76.59 0.010795 -36.98
8.93650000 0.010827 64.361 0.999918 -76.59 0.999918 -76.59 0.010783 -37.51
8.93660000 0.010817 64.880 0.999918 -76.60 0.999918 -76.60 0.010772 -38.04
8.93670000 0.010807 65.403 0.999918 -76.61 0.999918 -76.61 0.010762 -38.58
8.93680000 0.010798 65.933 0.999918 -76.61 0.999918 -76.61 0.010752 -39.13
8.93690000 0.010790 66.467 0.999918 -76.62 0.999918 -76.62 0.010743 -39.68
8.93700000 0.010782 67.007 0.999918 -76.63 0.999918 -76.63 0.010736 -40.23
8.93710000 0.010776 67.553 0.999917 -76.63 0.999917 -76.63 0.010729 -40.79
8.93720000 0.010771 68.104 0.999917 -76.64 0.999917 -76.64 0.010723 -41.36
8.93730000 0.010766 68.661 0.999917 -76.65 0.999917 -76.65 0.010718 -41.94
8.93740000 0.010763 69.223 0.999917 -76.65 0.999917 -76.65 0.010715 -42.51
8.93750000 0.010760 69.791 0.999917 -76.66 0.999917 -76.66 0.010712 -43.10
8.93760000 0.010759 70.363 0.999917 -76.67 0.999917 -76.67 0.010710 -43.69
8.93770000 0.010759 70.942 0.999916 -76.68 0.999916 -76.68 0.010710 -44.28
8.93780000 0.010760 71.525 0.999916 -76.68 0.999916 -76.68 0.010710 -44.88
8.93790000 0.010762 72.113 0.999916 -76.69 0.999916 -76.69 0.010712 -45.49
8.93800000 0.010766 72.707 0.999916 -76.70 0.999916 -76.70 0.010715 -46.10
8.93810000 0.010770 73.306 0.999916 -76.71 0.999916 -76.71 0.010719 -46.72
8.93820000 0.010776 73.910 0.999915 -76.71 0.999915 -76.71 0.010724 -47.34
8.93830000 0.010783 74.518 0.999915 -76.72 0.999915 -76.72 0.010731 -47.97
8.93840000 0.010792 75.132 0.999915 -76.73 0.999915 -76.73 0.010739 -48.60
8.93850000 0.010802 75.750 0.999914 -76.74 0.999914 -76.74 0.010749 -49.23
8.93860000 0.010813 76.373 0.999914 -76.74 0.999914 -76.74 0.010759 -49.88
8.93870000 0.010826 77.000 0.999914 -76.75 0.999914 -76.75 0.010772 -50.52
8.93880000 0.010840 77.632 0.999913 -76.76 0.999913 -76.76 0.010785 -51.17
8.93890000 0.010856 78.268 0.999913 -76.77 0.999913 -76.77 0.010801 -51.83
8.93900000 0.010873 78.909 0.999912 -76.77 0.999912 -76.77 0.010818 -52.49
8.93910000 0.010892 79.553 0.999912 -76.78 0.999912 -76.78 0.010836 -53.15
8.93920000 0.010912 80.202 0.999911 -76.79 0.999911 -76.79 0.010856 -53.82