! Sonnet Data File
! From: emgraph Version : 16.52
! From Emgraph Data: Resonator2_cp
! Data File Written: 10/08/2017 10:04:02
!< HDATE 10/07/2017 20:48:38
!< MDATE 10/07/2017 23:34:59
!< PARAMS
!< gap = 6.0
!< Length = 400.0
!< Pwid1 = 2000.0
!< Width = 50.0
!< END PARAMS
# GHZ S MA R 47.40000
8.80000000 0.027350 12.217 0.999623 -73.02 0.999623 -73.02 0.027350 21.745
!< P1 F=8.8 Eeff=(5.02890353 -2.1766e-5) Z0=(47.410578 1.04358e-4) R=0.0 C=0.0 
!< P2 F=8.8 Eeff=(5.02890353 -2.1766e-5) Z0=(47.410578 1.04358e-4) R=0.0 C=0.0 
8.80020000 0.027347 12.220 0.999623 -73.03 0.999623 -73.03 0.027347 21.739
8.80040000 0.027343 12.222 0.999623 -73.03 0.999623 -73.03 0.027343 21.733
8.80060000 0.027340 12.225 0.999623 -73.03 0.999623 -73.03 0.027340 21.726
8.80080000 0.027336 12.227 0.999623 -73.03 0.999623 -73.03 0.027336 21.720
8.80100000 0.027333 12.230 0.999623 -73.03 0.999623 -73.03 0.027333 21.714
8.80120000 0.027329 12.232 0.999623 -73.04 0.999623 -73.04 0.027329 21.707
8.80140000 0.027326 12.235 0.999623 -73.04 0.999623 -73.04 0.027326 21.701
8.80160000 0.027322 12.237 0.999623 -73.04 0.999623 -73.04 0.027322 21.694
8.80180000 0.027319 12.240 0.999624 -73.04 0.999624 -73.04 0.027319 21.688
8.80200000 0.027315 12.242 0.999624 -73.04 0.999624 -73.04 0.027315 21.682
8.80220000 0.027312 12.245 0.999624 -73.05 0.999624 -73.05 0.027312 21.675
8.80240000 0.027308 12.247 0.999624 -73.05 0.999624 -73.05 0.027308 21.669
8.80260000 0.027305 12.250 0.999624 -73.05 0.999624 -73.05 0.027305 21.662
8.80280000 0.027301 12.253 0.999624 -73.05 0.999624 -73.05 0.027301 21.656
8.80300000 0.027298 12.255 0.999624 -73.05 0.999624 -73.05 0.027298 21.649
8.80320000 0.027294 12.258 0.999624 -73.05 0.999624 -73.05 0.027294 21.643
8.80340000 0.027290 12.260 0.999624 -73.06 0.999624 -73.06 0.027290 21.636
8.80360000 0.027287 12.263 0.999624 -73.06 0.999624 -73.06 0.027287 21.630
8.80380000 0.027283 12.266 0.999624 -73.06 0.999624 -73.06 0.027283 21.623
8.80400000 0.027280 12.268 0.999625 -73.06 0.999625 -73.06 0.027280 21.616
8.80420000 0.027276 12.271 0.999625 -73.06 0.999625 -73.06 0.027276 21.610
8.80440000 0.027272 12.274 0.999625 -73.07 0.999625 -73.07 0.027272 21.603
8.80460000 0.027269 12.276 0.999625 -73.07 0.999625 -73.07 0.027269 21.597
8.80480000 0.027265 12.279 0.999625 -73.07 0.999625 -73.07 0.027265 21.590
8.80500000 0.027261 12.282 0.999625 -73.07 0.999625 -73.07 0.027261 21.583
8.80520000 0.027258 12.285 0.999625 -73.07 0.999625 -73.07 0.027258 21.577
8.80540000 0.027254 12.287 0.999625 -73.08 0.999625 -73.08 0.027254 21.570
8.80560000 0.027250 12.290 0.999625 -73.08 0.999625 -73.08 0.027250 21.563
8.80580000 0.027247 12.293 0.999625 -73.08 0.999625 -73.08 0.027246 21.556
8.80600000 0.027243 12.296 0.999626 -73.08 0.999626 -73.08 0.027243 21.550
8.80620000 0.027239 12.299 0.999626 -73.08 0.999626 -73.08 0.027239 21.543
8.80640000 0.027235 12.301 0.999626 -73.09 0.999626 -73.09 0.027235 21.536
8.80660000 0.027232 12.304 0.999626 -73.09 0.999626 -73.09 0.027232 21.529
8.80680000 0.027228 12.307 0.999626 -73.09 0.999626 -73.09 0.027228 21.523
8.80700000 0.027224 12.310 0.999626 -73.09 0.999626 -73.09 0.027224 21.516
8.80720000 0.027220 12.313 0.999626 -73.09 0.999626 -73.09 0.027220 21.509
8.80740000 0.027217 12.316 0.999626 -73.10 0.999626 -73.10 0.027216 21.502
8.80760000 0.027213 12.319 0.999626 -73.10 0.999626 -73.10 0.027213 21.495
8.80780000 0.027209 12.322 0.999626 -73.10 0.999626 -73.10 0.027209 21.489
8.80800000 0.027205 12.324 0.999627 -73.10 0.999627 -73.10 0.027205 21.482
8.80820000 0.027201 12.327 0.999627 -73.10 0.999627 -73.10 0.027201 21.475
8.80840000 0.027197 12.330 0.999627 -73.11 0.999627 -73.11 0.027197 21.468
8.80860000 0.027194 12.333 0.999627 -73.11 0.999627 -73.11 0.027193 21.461
8.80880000 0.027190 12.336 0.999627 -73.11 0.999627 -73.11 0.027190 21.454
8.80900000 0.027186 12.339 0.999627 -73.11 0.999627 -73.11 0.027186 21.447
8.80920000 0.027182 12.342 0.999627 -73.11 0.999627 -73.11 0.027182 21.440
8.80940000 0.027178 12.345 0.999627 -73.12 0.999627 -73.12 0.027178 21.433
8.80960000 0.027174 12.348 0.999627 -73.12 0.999627 -73.12 0.027174 21.426
8.80980000 0.027170 12.352 0.999627 -73.12 0.999627 -73.12 0.027170 21.419
8.81000000 0.027166 12.355 0.999628 -73.12 0.999628 -73.12 0.027166 21.412
8.81020000 0.027162 12.358 0.999628 -73.12 0.999628 -73.12 0.027162 21.405
8.81040000 0.027158 12.361 0.999628 -73.13 0.999628 -73.13 0.027158 21.398
8.81060000 0.027155 12.364 0.999628 -73.13 0.999628 -73.13 0.027154 21.391
8.81080000 0.027151 12.367 0.999628 -73.13 0.999628 -73.13 0.027150 21.384
8.81100000 0.027147 12.370 0.999628 -73.13 0.999628 -73.13 0.027146 21.376
8.81120000 0.027143 12.373 0.999628 -73.13 0.999628 -73.13 0.027142 21.369
8.81140000 0.027139 12.377 0.999628 -73.14 0.999628 -73.14 0.027138 21.362
8.81160000 0.027135 12.380 0.999628 -73.14 0.999628 -73.14 0.027134 21.355
8.81180000 0.027131 12.383 0.999629 -73.14 0.999629 -73.14 0.027130 21.348
8.81200000 0.027126 12.386 0.999629 -73.14 0.999629 -73.14 0.027126 21.341
8.81220000 0.027122 12.390 0.999629 -73.14 0.999629 -73.14 0.027122 21.333
8.81240000 0.027118 12.393 0.999629 -73.15 0.999629 -73.15 0.027118 21.326
8.81260000 0.027114 12.396 0.999629 -73.15 0.999629 -73.15 0.027114 21.319
8.81280000 0.027110 12.399 0.999629 -73.15 0.999629 -73.15 0.027110 21.312
8.81300000 0.027106 12.403 0.999629 -73.15 0.999629 -73.15 0.027106 21.304
8.81320000 0.027102 12.406 0.999629 -73.15 0.999629 -73.15 0.027102 21.297
8.81340000 0.027098 12.409 0.999629 -73.16 0.999629 -73.16 0.027098 21.290
8.81360000 0.027094 12.413 0.999630 -73.16 0.999630 -73.16 0.027094 21.282
8.81380000 0.027090 12.416 0.999630 -73.16 0.999630 -73.16 0.027089 21.275
8.81400000 0.027085 12.419 0.999630 -73.16 0.999630 -73.16 0.027085 21.268
8.81420000 0.027081 12.423 0.999630 -73.16 0.999630 -73.16 0.027081 21.260
8.81440000 0.027077 12.426 0.999630 -73.17 0.999630 -73.17 0.027077 21.253
8.81460000 0.027073 12.430 0.999630 -73.17 0.999630 -73.17 0.027073 21.245
8.81480000 0.027069 12.433 0.999630 -73.17 0.999630 -73.17 0.027069 21.238
8.81500000 0.027065 12.437 0.999630 -73.17 0.999630 -73.17 0.027064 21.230
8.81520000 0.027060 12.440 0.999630 -73.17 0.999630 -73.17 0.027060 21.223
8.81540000 0.027056 12.444 0.999631 -73.18 0.999631 -73.18 0.027056 21.215
8.81560000 0.027052 12.447 0.999631 -73.18 0.999631 -73.18 0.027052 21.208
8.81580000 0.027048 12.451 0.999631 -73.18 0.999631 -73.18 0.027047 21.200
8.81600000 0.027043 12.454 0.999631 -73.18 0.999631 -73.18 0.027043 21.193
8.81620000 0.027039 12.458 0.999631 -73.18 0.999631 -73.18 0.027039 21.185
8.81640000 0.027035 12.461 0.999631 -73.19 0.999631 -73.19 0.027034 21.178
8.81660000 0.027030 12.465 0.999631 -73.19 0.999631 -73.19 0.027030 21.170
8.81680000 0.027026 12.469 0.999631 -73.19 0.999631 -73.19 0.027026 21.162
8.81700000 0.027022 12.472 0.999631 -73.19 0.999631 -73.19 0.027021 21.155
8.81720000 0.027017 12.476 0.999632 -73.19 0.999632 -73.19 0.027017 21.147
8.81740000 0.027013 12.480 0.999632 -73.20 0.999632 -73.20 0.027013 21.139
8.81760000 0.027009 12.483 0.999632 -73.20 0.999632 -73.20 0.027008 21.132
8.81780000 0.027004 12.487 0.999632 -73.20 0.999632 -73.20 0.027004 21.124
8.81800000 0.027000 12.491 0.999632 -73.20 0.999632 -73.20 0.027000 21.116
8.81820000 0.026995 12.494 0.999632 -73.20 0.999632 -73.20 0.026995 21.108
8.81840000 0.026991 12.498 0.999632 -73.21 0.999632 -73.21 0.026991 21.101
8.81860000 0.026987 12.502 0.999632 -73.21 0.999632 -73.21 0.026986 21.093
8.81880000 0.026982 12.506 0.999632 -73.21 0.999632 -73.21 0.026982 21.085
8.81900000 0.026978 12.510 0.999633 -73.21 0.999633 -73.21 0.026977 21.077
8.81920000 0.026973 12.513 0.999633 -73.21 0.999633 -73.21 0.026973 21.069
8.81940000 0.026969 12.517 0.999633 -73.22 0.999633 -73.22 0.026968 21.061
8.81960000 0.026964 12.521 0.999633 -73.22 0.999633 -73.22 0.026964 21.054
8.81980000 0.026960 12.525 0.999633 -73.22 0.999633 -73.22 0.026959 21.046
8.82000000 0.026955 12.529 0.999633 -73.22 0.999633 -73.22 0.026955 21.038
8.82020000 0.026951 12.533 0.999633 -73.22 0.999633 -73.22 0.026950 21.030
8.82040000 0.026946 12.537 0.999633 -73.23 0.999633 -73.23 0.026946 21.022
8.82060000 0.026942 12.541 0.999634 -73.23 0.999634 -73.23 0.026941 21.014
8.82080000 0.026937 12.545 0.999634 -73.23 0.999634 -73.23 0.026937 21.006
8.82100000 0.026932 12.549 0.999634 -73.23 0.999634 -73.23 0.026932 20.998
8.82120000 0.026928 12.553 0.999634 -73.23 0.999634 -73.23 0.026927 20.990
8.82140000 0.026923 12.557 0.999634 -73.24 0.999634 -73.24 0.026923 20.981
8.82160000 0.026918 12.561 0.999634 -73.24 0.999634 -73.24 0.026918 20.973
8.82180000 0.026914 12.565 0.999634 -73.24 0.999634 -73.24 0.026914 20.965
8.82200000 0.026909 12.569 0.999634 -73.24 0.999634 -73.24 0.026909 20.957
8.82220000 0.026905 12.573 0.999635 -73.24 0.999635 -73.24 0.026904 20.949
8.82240000 0.026900 12.577 0.999635 -73.25 0.999635 -73.25 0.026900 20.941
8.82260000 0.026895 12.581 0.999635 -73.25 0.999635 -73.25 0.026895 20.932
8.82280000 0.026890 12.586 0.999635 -73.25 0.999635 -73.25 0.026890 20.924
8.82300000 0.026886 12.590 0.999635 -73.25 0.999635 -73.25 0.026885 20.916
8.82320000 0.026881 12.594 0.999635 -73.25 0.999635 -73.25 0.026881 20.908
8.82340000 0.026876 12.598 0.999635 -73.26 0.999635 -73.26 0.026876 20.899
8.82360000 0.026871 12.602 0.999635 -73.26 0.999635 -73.26 0.026871 20.891
8.82380000 0.026867 12.607 0.999636 -73.26 0.999636 -73.26 0.026866 20.883
8.82400000 0.026862 12.611 0.999636 -73.26 0.999636 -73.26 0.026861 20.874
8.82420000 0.026857 12.615 0.999636 -73.26 0.999636 -73.26 0.026857 20.866
8.82440000 0.026852 12.620 0.999636 -73.27 0.999636 -73.27 0.026852 20.858
8.82460000 0.026847 12.624 0.999636 -73.27 0.999636 -73.27 0.026847 20.849
8.82480000 0.026842 12.628 0.999636 -73.27 0.999636 -73.27 0.026842 20.841
8.82500000 0.026838 12.633 0.999636 -73.27 0.999636 -73.27 0.026837 20.832
8.82520000 0.026833 12.637 0.999636 -73.28 0.999636 -73.28 0.026832 20.824
8.82540000 0.026828 12.642 0.999637 -73.28 0.999637 -73.28 0.026827 20.815
8.82560000 0.026823 12.646 0.999637 -73.28 0.999637 -73.28 0.026823 20.807
8.82580000 0.026818 12.651 0.999637 -73.28 0.999637 -73.28 0.026818 20.798
8.82600000 0.026813 12.655 0.999637 -73.28 0.999637 -73.28 0.026813 20.789
8.82620000 0.026808 12.660 0.999637 -73.29 0.999637 -73.29 0.026808 20.781
8.82640000 0.026803 12.664 0.999637 -73.29 0.999637 -73.29 0.026803 20.772
8.82660000 0.026798 12.669 0.999637 -73.29 0.999637 -73.29 0.026798 20.763
8.82680000 0.026793 12.673 0.999637 -73.29 0.999637 -73.29 0.026793 20.755
8.82700000 0.026788 12.678 0.999638 -73.29 0.999638 -73.29 0.026788 20.746
8.82720000 0.026783 12.682 0.999638 -73.30 0.999638 -73.30 0.026783 20.737
8.82740000 0.026778 12.687 0.999638 -73.30 0.999638 -73.30 0.026778 20.729
8.82760000 0.026773 12.692 0.999638 -73.30 0.999638 -73.30 0.026772 20.720
8.82780000 0.026768 12.696 0.999638 -73.30 0.999638 -73.30 0.026767 20.711
8.82800000 0.026763 12.701 0.999638 -73.30 0.999638 -73.30 0.026762 20.702
8.82820000 0.026758 12.706 0.999638 -73.31 0.999638 -73.31 0.026757 20.693
8.82840000 0.026752 12.711 0.999639 -73.31 0.999639 -73.31 0.026752 20.684
8.82860000 0.026747 12.715 0.999639 -73.31 0.999639 -73.31 0.026747 20.676
8.82880000 0.026742 12.720 0.999639 -73.31 0.999639 -73.31 0.026742 20.667
8.82900000 0.026737 12.725 0.999639 -73.31 0.999639 -73.31 0.026737 20.658
8.82920000 0.026732 12.730 0.999639 -73.32 0.999639 -73.32 0.026731 20.649
8.82940000 0.026727 12.735 0.999639 -73.32 0.999639 -73.32 0.026726 20.640
8.82960000 0.026721 12.740 0.999639 -73.32 0.999639 -73.32 0.026721 20.631
8.82980000 0.026716 12.745 0.999639 -73.32 0.999639 -73.32 0.026716 20.622
8.83000000 0.026711 12.750 0.999640 -73.32 0.999640 -73.32 0.026710 20.612
8.83020000 0.026706 12.755 0.999640 -73.33 0.999640 -73.33 0.026705 20.603
8.83040000 0.026700 12.760 0.999640 -73.33 0.999640 -73.33 0.026700 20.594
8.83060000 0.026695 12.765 0.999640 -73.33 0.999640 -73.33 0.026695 20.585
8.83080000 0.026690 12.770 0.999640 -73.33 0.999640 -73.33 0.026689 20.576
8.83100000 0.026684 12.775 0.999640 -73.33 0.999640 -73.33 0.026684 20.567
8.83120000 0.026679 12.780 0.999640 -73.34 0.999640 -73.34 0.026679 20.557
8.83140000 0.026674 12.785 0.999641 -73.34 0.999641 -73.34 0.026673 20.548
8.83160000 0.026668 12.790 0.999641 -73.34 0.999641 -73.34 0.026668 20.539
8.83180000 0.026663 12.795 0.999641 -73.34 0.999641 -73.34 0.026662 20.529
8.83200000 0.026657 12.800 0.999641 -73.35 0.999641 -73.35 0.026657 20.520
8.83220000 0.026652 12.806 0.999641 -73.35 0.999641 -73.35 0.026651 20.511
8.83240000 0.026646 12.811 0.999641 -73.35 0.999641 -73.35 0.026646 20.501
8.83260000 0.026641 12.816 0.999641 -73.35 0.999641 -73.35 0.026641 20.492
8.83280000 0.026635 12.821 0.999642 -73.35 0.999642 -73.35 0.026635 20.482
8.83300000 0.026630 12.827 0.999642 -73.36 0.999642 -73.36 0.026630 20.473
8.83320000 0.026624 12.832 0.999642 -73.36 0.999642 -73.36 0.026624 20.463
8.83340000 0.026619 12.837 0.999642 -73.36 0.999642 -73.36 0.026618 20.454
8.83360000 0.026613 12.843 0.999642 -73.36 0.999642 -73.36 0.026613 20.444
8.83380000 0.026608 12.848 0.999642 -73.36 0.999642 -73.36 0.026607 20.435
8.83400000 0.026602 12.854 0.999642 -73.37 0.999642 -73.37 0.026602 20.425
8.83420000 0.026597 12.859 0.999643 -73.37 0.999643 -73.37 0.026596 20.415
8.83440000 0.026591 12.865 0.999643 -73.37 0.999643 -73.37 0.026590 20.406
8.83460000 0.026585 12.870 0.999643 -73.37 0.999643 -73.37 0.026585 20.396
8.83480000 0.026580 12.876 0.999643 -73.37 0.999643 -73.37 0.026579 20.386
8.83500000 0.026574 12.881 0.999643 -73.38 0.999643 -73.38 0.026573 20.377
8.83520000 0.026568 12.887 0.999643 -73.38 0.999643 -73.38 0.026568 20.367
8.83540000 0.026562 12.892 0.999643 -73.38 0.999643 -73.38 0.026562 20.357
8.83560000 0.026557 12.898 0.999644 -73.38 0.999644 -73.38 0.026556 20.347
8.83580000 0.026551 12.904 0.999644 -73.39 0.999644 -73.39 0.026550 20.337
8.83600000 0.026545 12.910 0.999644 -73.39 0.999644 -73.39 0.026545 20.327
8.83620000 0.026539 12.915 0.999644 -73.39 0.999644 -73.39 0.026539 20.317
8.83640000 0.026534 12.921 0.999644 -73.39 0.999644 -73.39 0.026533 20.307
8.83660000 0.026528 12.927 0.999644 -73.39 0.999644 -73.39 0.026527 20.297
8.83680000 0.026522 12.933 0.999645 -73.40 0.999645 -73.40 0.026521 20.287
8.83700000 0.026516 12.938 0.999645 -73.40 0.999645 -73.40 0.026516 20.277
8.83720000 0.026510 12.944 0.999645 -73.40 0.999645 -73.40 0.026510 20.267
8.83740000 0.026504 12.950 0.999645 -73.40 0.999645 -73.40 0.026504 20.257
8.83760000 0.026498 12.956 0.999645 -73.40 0.999645 -73.40 0.026498 20.247
8.83780000 0.026492 12.962 0.999645 -73.41 0.999645 -73.41 0.026492 20.237
8.83800000 0.026486 12.968 0.999645 -73.41 0.999645 -73.41 0.026486 20.226
8.83820000 0.026480 12.974 0.999646 -73.41 0.999646 -73.41 0.026480 20.216
8.83840000 0.026474 12.980 0.999646 -73.41 0.999646 -73.41 0.026474 20.206
8.83860000 0.026468 12.986 0.999646 -73.41 0.999646 -73.41 0.026468 20.195
8.83880000 0.026462 12.992 0.999646 -73.42 0.999646 -73.42 0.026462 20.185
8.83900000 0.026456 12.999 0.999646 -73.42 0.999646 -73.42 0.026456 20.175
8.83920000 0.026450 13.005 0.999646 -73.42 0.999646 -73.42 0.026450 20.164
8.83940000 0.026444 13.011 0.999647 -73.42 0.999647 -73.42 0.026444 20.154
8.83960000 0.026438 13.017 0.999647 -73.43 0.999647 -73.43 0.026437 20.143
8.83980000 0.026432 13.023 0.999647 -73.43 0.999647 -73.43 0.026431 20.133
8.84000000 0.026426 13.030 0.999647 -73.43 0.999647 -73.43 0.026425 20.122
8.84020000 0.026419 13.036 0.999647 -73.43 0.999647 -73.43 0.026419 20.112
8.84040000 0.026413 13.042 0.999647 -73.43 0.999647 -73.43 0.026413 20.101
8.84060000 0.026407 13.049 0.999648 -73.44 0.999648 -73.44 0.026406 20.090
8.84080000 0.026401 13.055 0.999648 -73.44 0.999648 -73.44 0.026400 20.080
8.84100000 0.026395 13.062 0.999648 -73.44 0.999648 -73.44 0.026394 20.069
8.84120000 0.026388 13.068 0.999648 -73.44 0.999648 -73.44 0.026388 20.058
8.84140000 0.026382 13.075 0.999648 -73.44 0.999648 -73.44 0.026381 20.048
8.84160000 0.026376 13.081 0.999648 -73.45 0.999648 -73.45 0.026375 20.037
8.84180000 0.026369 13.088 0.999649 -73.45 0.999649 -73.45 0.026369 20.026
8.84200000 0.026363 13.094 0.999649 -73.45 0.999649 -73.45 0.026362 20.015
8.84220000 0.026357 13.101 0.999649 -73.45 0.999649 -73.45 0.026356 20.004
8.84240000 0.026350 13.108 0.999649 -73.46 0.999649 -73.46 0.026349 19.993
8.84260000 0.026344 13.114 0.999649 -73.46 0.999649 -73.46 0.026343 19.982
8.84280000 0.026337 13.121 0.999649 -73.46 0.999649 -73.46 0.026337 19.971
8.84300000 0.026331 13.128 0.999650 -73.46 0.999650 -73.46 0.026330 19.960
8.84320000 0.026324 13.135 0.999650 -73.46 0.999650 -73.46 0.026324 19.949
8.84340000 0.026318 13.141 0.999650 -73.47 0.999650 -73.47 0.026317 19.938
8.84360000 0.026311 13.148 0.999650 -73.47 0.999650 -73.47 0.026311 19.926
8.84380000 0.026305 13.155 0.999650 -73.47 0.999650 -73.47 0.026304 19.915
8.84400000 0.026298 13.162 0.999650 -73.47 0.999650 -73.47 0.026297 19.904
8.84420000 0.026291 13.169 0.999651 -73.48 0.999651 -73.48 0.026291 19.893
8.84440000 0.026285 13.176 0.999651 -73.48 0.999651 -73.48 0.026284 19.881
8.84460000 0.026278 13.183 0.999651 -73.48 0.999651 -73.48 0.026277 19.870
8.84480000 0.026271 13.190 0.999651 -73.48 0.999651 -73.48 0.026271 19.859
8.84500000 0.026265 13.197 0.999651 -73.48 0.999651 -73.48 0.026264 19.847
8.84520000 0.026258 13.204 0.999651 -73.49 0.999651 -73.49 0.026257 19.836
8.84540000 0.026251 13.212 0.999652 -73.49 0.999652 -73.49 0.026251 19.824
8.84560000 0.026245 13.219 0.999652 -73.49 0.999652 -73.49 0.026244 19.813
8.84580000 0.026238 13.226 0.999652 -73.49 0.999652 -73.49 0.026237 19.801
8.84600000 0.026231 13.233 0.999652 -73.49 0.999652 -73.49 0.026230 19.789
8.84620000 0.026224 13.241 0.999652 -73.50 0.999652 -73.50 0.026223 19.778
8.84640000 0.026217 13.248 0.999652 -73.50 0.999652 -73.50 0.026217 19.766
8.84660000 0.026210 13.256 0.999653 -73.50 0.999653 -73.50 0.026210 19.754
8.84680000 0.026203 13.263 0.999653 -73.50 0.999653 -73.50 0.026203 19.742
8.84700000 0.026196 13.270 0.999653 -73.51 0.999653 -73.51 0.026196 19.731
8.84720000 0.026190 13.278 0.999653 -73.51 0.999653 -73.51 0.026189 19.719
8.84740000 0.026183 13.285 0.999653 -73.51 0.999653 -73.51 0.026182 19.707
8.84760000 0.026176 13.293 0.999654 -73.51 0.999654 -73.51 0.026175 19.695
8.84780000 0.026169 13.301 0.999654 -73.51 0.999654 -73.51 0.026168 19.683
8.84800000 0.026161 13.308 0.999654 -73.52 0.999654 -73.52 0.026161 19.671
8.84820000 0.026154 13.316 0.999654 -73.52 0.999654 -73.52 0.026154 19.659
8.84840000 0.026147 13.324 0.999654 -73.52 0.999654 -73.52 0.026147 19.646
8.84860000 0.026140 13.332 0.999654 -73.52 0.999654 -73.52 0.026139 19.634
8.84880000 0.026133 13.339 0.999655 -73.53 0.999655 -73.53 0.026132 19.622
8.84900000 0.026126 13.347 0.999655 -73.53 0.999655 -73.53 0.026125 19.610
8.84920000 0.026119 13.355 0.999655 -73.53 0.999655 -73.53 0.026118 19.598
8.84940000 0.026111 13.363 0.999655 -73.53 0.999655 -73.53 0.026111 19.585
8.84960000 0.026104 13.371 0.999655 -73.53 0.999655 -73.53 0.026103 19.573
8.84980000 0.026097 13.379 0.999656 -73.54 0.999656 -73.54 0.026096 19.560
8.85000000 0.026090 13.387 0.999656 -73.54 0.999656 -73.54 0.026089 19.548
8.85020000 0.026082 13.395 0.999656 -73.54 0.999656 -73.54 0.026081 19.535
8.85040000 0.026075 13.403 0.999656 -73.54 0.999656 -73.54 0.026074 19.523
8.85060000 0.026068 13.412 0.999656 -73.55 0.999656 -73.55 0.026067 19.510
8.85080000 0.026060 13.420 0.999656 -73.55 0.999656 -73.55 0.026059 19.498
8.85100000 0.026053 13.428 0.999657 -73.55 0.999657 -73.55 0.026052 19.485
8.85120000 0.026045 13.436 0.999657 -73.55 0.999657 -73.55 0.026044 19.472
8.85140000 0.026038 13.445 0.999657 -73.55 0.999657 -73.55 0.026037 19.459
8.85160000 0.026030 13.453 0.999657 -73.56 0.999657 -73.56 0.026029 19.446
8.85180000 0.026023 13.462 0.999657 -73.56 0.999657 -73.56 0.026022 19.434
8.85200000 0.026015 13.470 0.999658 -73.56 0.999658 -73.56 0.026014 19.421
8.85220000 0.026008 13.479 0.999658 -73.56 0.999658 -73.56 0.026007 19.408
8.85240000 0.026000 13.487 0.999658 -73.57 0.999658 -73.57 0.025999 19.395
8.85260000 0.025992 13.496 0.999658 -73.57 0.999658 -73.57 0.025991 19.382
8.85280000 0.025985 13.504 0.999658 -73.57 0.999658 -73.57 0.025984 19.368
8.85300000 0.025977 13.513 0.999659 -73.57 0.999659 -73.57 0.025976 19.355
8.85320000 0.025969 13.522 0.999659 -73.57 0.999659 -73.57 0.025968 19.342
8.85340000 0.025961 13.531 0.999659 -73.58 0.999659 -73.58 0.025961 19.329
8.85360000 0.025954 13.539 0.999659 -73.58 0.999659 -73.58 0.025953 19.315
8.85380000 0.025946 13.548 0.999659 -73.58 0.999659 -73.58 0.025945 19.302
8.85400000 0.025938 13.557 0.999660 -73.58 0.999660 -73.58 0.025937 19.289
8.85420000 0.025930 13.566 0.999660 -73.59 0.999660 -73.59 0.025929 19.275
8.85440000 0.025922 13.575 0.999660 -73.59 0.999660 -73.59 0.025921 19.262
8.85460000 0.025914 13.584 0.999660 -73.59 0.999660 -73.59 0.025913 19.248
8.85480000 0.025906 13.593 0.999660 -73.59 0.999660 -73.59 0.025905 19.234
8.85500000 0.025898 13.603 0.999661 -73.59 0.999661 -73.59 0.025897 19.221
8.85520000 0.025890 13.612 0.999661 -73.60 0.999661 -73.60 0.025889 19.207
8.85540000 0.025882 13.621 0.999661 -73.60 0.999661 -73.60 0.025881 19.193
8.85560000 0.025874 13.630 0.999661 -73.60 0.999661 -73.60 0.025873 19.179
8.85580000 0.025866 13.640 0.999661 -73.60 0.999661 -73.60 0.025865 19.166
8.85600000 0.025858 13.649 0.999662 -73.61 0.999662 -73.61 0.025857 19.152
8.85620000 0.025850 13.659 0.999662 -73.61 0.999662 -73.61 0.025849 19.138
8.85640000 0.025842 13.668 0.999662 -73.61 0.999662 -73.61 0.025841 19.124
8.85660000 0.025833 13.678 0.999662 -73.61 0.999662 -73.61 0.025832 19.109
8.85680000 0.025825 13.687 0.999662 -73.62 0.999662 -73.62 0.025824 19.095
8.85700000 0.025817 13.697 0.999663 -73.62 0.999663 -73.62 0.025816 19.081
8.85720000 0.025809 13.707 0.999663 -73.62 0.999663 -73.62 0.025808 19.067
8.85740000 0.025800 13.716 0.999663 -73.62 0.999663 -73.62 0.025799 19.052
8.85760000 0.025792 13.726 0.999663 -73.62 0.999663 -73.62 0.025791 19.038
8.85780000 0.025783 13.736 0.999664 -73.63 0.999664 -73.63 0.025782 19.024
8.85800000 0.025775 13.746 0.999664 -73.63 0.999664 -73.63 0.025774 19.009
8.85820000 0.025767 13.756 0.999664 -73.63 0.999664 -73.63 0.025766 18.995
8.85840000 0.025758 13.766 0.999664 -73.63 0.999664 -73.63 0.025757 18.980
8.85860000 0.025749 13.776 0.999664 -73.64 0.999664 -73.64 0.025748 18.965
8.85880000 0.025741 13.786 0.999665 -73.64 0.999665 -73.64 0.025740 18.951
8.85900000 0.025732 13.796 0.999665 -73.64 0.999665 -73.64 0.025731 18.936
8.85920000 0.025724 13.807 0.999665 -73.64 0.999665 -73.64 0.025723 18.921
8.85940000 0.025715 13.817 0.999665 -73.65 0.999665 -73.65 0.025714 18.906
8.85960000 0.025706 13.827 0.999665 -73.65 0.999665 -73.65 0.025705 18.891
8.85980000 0.025698 13.838 0.999666 -73.65 0.999666 -73.65 0.025697 18.876
8.86000000 0.025689 13.848 0.999666 -73.65 0.999666 -73.65 0.025688 18.861
8.86020000 0.025680 13.859 0.999666 -73.65 0.999666 -73.65 0.025679 18.846
8.86040000 0.025671 13.869 0.999666 -73.66 0.999666 -73.66 0.025670 18.831
8.86060000 0.025662 13.880 0.999667 -73.66 0.999667 -73.66 0.025661 18.815
8.86080000 0.025653 13.890 0.999667 -73.66 0.999667 -73.66 0.025652 18.800
8.86100000 0.025645 13.901 0.999667 -73.66 0.999667 -73.66 0.025643 18.785
8.86120000 0.025636 13.912 0.999667 -73.67 0.999667 -73.67 0.025634 18.769
8.86140000 0.025627 13.923 0.999667 -73.67 0.999667 -73.67 0.025625 18.754
8.86160000 0.025618 13.934 0.999668 -73.67 0.999668 -73.67 0.025616 18.738
8.86180000 0.025608 13.945 0.999668 -73.67 0.999668 -73.67 0.025607 18.723
8.86200000 0.025599 13.956 0.999668 -73.68 0.999668 -73.68 0.025598 18.707
8.86220000 0.025590 13.967 0.999668 -73.68 0.999668 -73.68 0.025589 18.691
8.86240000 0.025581 13.978 0.999669 -73.68 0.999669 -73.68 0.025580 18.675
8.86260000 0.025572 13.989 0.999669 -73.68 0.999669 -73.68 0.025571 18.659
8.86280000 0.025563 14.001 0.999669 -73.68 0.999669 -73.68 0.025561 18.643
8.86300000 0.025553 14.012 0.999669 -73.69 0.999669 -73.69 0.025552 18.627
8.86320000 0.025544 14.023 0.999670 -73.69 0.999670 -73.69 0.025543 18.611
8.86340000 0.025535 14.035 0.999670 -73.69 0.999670 -73.69 0.025534 18.595
8.86360000 0.025525 14.046 0.999670 -73.69 0.999670 -73.69 0.025524 18.579
8.86380000 0.025516 14.058 0.999670 -73.70 0.999670 -73.70 0.025515 18.563
8.86400000 0.025506 14.070 0.999670 -73.70 0.999670 -73.70 0.025505 18.546
8.86420000 0.025497 14.081 0.999671 -73.70 0.999671 -73.70 0.025496 18.530
8.86440000 0.025487 14.093 0.999671 -73.70 0.999671 -73.70 0.025486 18.513
8.86460000 0.025478 14.105 0.999671 -73.71 0.999671 -73.71 0.025477 18.497
8.86480000 0.025468 14.117 0.999671 -73.71 0.999671 -73.71 0.025467 18.480
8.86500000 0.025459 14.129 0.999672 -73.71 0.999672 -73.71 0.025457 18.463
8.86520000 0.025449 14.141 0.999672 -73.71 0.999672 -73.71 0.025448 18.446
8.86540000 0.025439 14.153 0.999672 -73.72 0.999672 -73.72 0.025438 18.429
8.86560000 0.025429 14.165 0.999672 -73.72 0.999672 -73.72 0.025428 18.413
8.86580000 0.025420 14.178 0.999673 -73.72 0.999673 -73.72 0.025418 18.396
8.86600000 0.025410 14.190 0.999673 -73.72 0.999673 -73.72 0.025408 18.378
8.86620000 0.025400 14.202 0.999673 -73.73 0.999673 -73.73 0.025399 18.361
8.86640000 0.025390 14.215 0.999673 -73.73 0.999673 -73.73 0.025389 18.344
8.86660000 0.025380 14.227 0.999674 -73.73 0.999674 -73.73 0.025379 18.327
8.86680000 0.025370 14.240 0.999674 -73.73 0.999674 -73.73 0.025369 18.309
8.86700000 0.025360 14.253 0.999674 -73.73 0.999674 -73.73 0.025359 18.292
8.86720000 0.025350 14.265 0.999674 -73.74 0.999674 -73.74 0.025349 18.274
8.86740000 0.025340 14.278 0.999675 -73.74 0.999675 -73.74 0.025338 18.257
8.86760000 0.025330 14.291 0.999675 -73.74 0.999675 -73.74 0.025328 18.239
8.86780000 0.025319 14.304 0.999675 -73.74 0.999675 -73.74 0.025318 18.221
8.86800000 0.025309 14.317 0.999675 -73.75 0.999675 -73.75 0.025308 18.203
8.86820000 0.025299 14.330 0.999676 -73.75 0.999676 -73.75 0.025297 18.185
8.86840000 0.025288 14.343 0.999676 -73.75 0.999676 -73.75 0.025287 18.167
8.86860000 0.025278 14.357 0.999676 -73.75 0.999676 -73.75 0.025277 18.149
8.86880000 0.025268 14.370 0.999676 -73.76 0.999676 -73.76 0.025266 18.131
8.86900000 0.025257 14.383 0.999677 -73.76 0.999677 -73.76 0.025256 18.113
8.86920000 0.025247 14.397 0.999677 -73.76 0.999677 -73.76 0.025245 18.094
8.86940000 0.025236 14.411 0.999677 -73.76 0.999677 -73.76 0.025235 18.076
8.86960000 0.025226 14.424 0.999677 -73.77 0.999677 -73.77 0.025224 18.057
8.86980000 0.025215 14.438 0.999678 -73.77 0.999678 -73.77 0.025214 18.039
8.87000000 0.025204 14.452 0.999678 -73.77 0.999678 -73.77 0.025203 18.020
8.87020000 0.025194 14.466 0.999678 -73.77 0.999678 -73.77 0.025192 18.001
8.87040000 0.025183 14.480 0.999679 -73.78 0.999679 -73.78 0.025181 17.982
8.87060000 0.025172 14.494 0.999679 -73.78 0.999679 -73.78 0.025171 17.963
8.87080000 0.025161 14.508 0.999679 -73.78 0.999679 -73.78 0.025160 17.944
8.87100000 0.025150 14.522 0.999679 -73.78 0.999679 -73.78 0.025149 17.925
8.87120000 0.025139 14.536 0.999680 -73.79 0.999680 -73.79 0.025138 17.906
8.87140000 0.025128 14.551 0.999680 -73.79 0.999680 -73.79 0.025127 17.886
8.87160000 0.025117 14.565 0.999680 -73.79 0.999680 -73.79 0.025116 17.867
8.87180000 0.025106 14.580 0.999680 -73.79 0.999680 -73.79 0.025105 17.848
8.87200000 0.025095 14.595 0.999681 -73.80 0.999681 -73.80 0.025094 17.828
8.87220000 0.025084 14.609 0.999681 -73.80 0.999681 -73.80 0.025082 17.808
8.87240000 0.025073 14.624 0.999681 -73.80 0.999681 -73.80 0.025071 17.788
8.87260000 0.025061 14.639 0.999682 -73.80 0.999682 -73.80 0.025060 17.769
8.87280000 0.025050 14.654 0.999682 -73.81 0.999682 -73.81 0.025049 17.749
8.87300000 0.025039 14.669 0.999682 -73.81 0.999682 -73.81 0.025037 17.728
8.87320000 0.025027 14.684 0.999682 -73.81 0.999682 -73.81 0.025026 17.708
8.87340000 0.025016 14.700 0.999683 -73.81 0.999683 -73.81 0.025014 17.688
8.87360000 0.025004 14.715 0.999683 -73.82 0.999683 -73.82 0.025003 17.668
8.87380000 0.024993 14.730 0.999683 -73.82 0.999683 -73.82 0.024991 17.647
8.87400000 0.024981 14.746 0.999683 -73.82 0.999683 -73.82 0.024980 17.627
8.87420000 0.024970 14.762 0.999684 -73.82 0.999684 -73.82 0.024968 17.606
8.87440000 0.024958 14.777 0.999684 -73.83 0.999684 -73.83 0.024956 17.585
8.87460000 0.024946 14.793 0.999684 -73.83 0.999684 -73.83 0.024945 17.564
8.87480000 0.024934 14.809 0.999685 -73.83 0.999685 -73.83 0.024933 17.543
8.87500000 0.024923 14.825 0.999685 -73.83 0.999685 -73.83 0.024921 17.522
8.87520000 0.024911 14.841 0.999685 -73.84 0.999685 -73.84 0.024909 17.501
8.87540000 0.024899 14.858 0.999685 -73.84 0.999685 -73.84 0.024897 17.480
8.87560000 0.024887 14.874 0.999686 -73.84 0.999686 -73.84 0.024885 17.458
8.87580000 0.024875 14.890 0.999686 -73.84 0.999686 -73.84 0.024873 17.437
8.87600000 0.024862 14.907 0.999686 -73.85 0.999686 -73.85 0.024861 17.415
8.87620000 0.024850 14.924 0.999687 -73.85 0.999687 -73.85 0.024849 17.393
8.87640000 0.024838 14.940 0.999687 -73.85 0.999687 -73.85 0.024836 17.372
8.87660000 0.024826 14.957 0.999687 -73.85 0.999687 -73.85 0.024824 17.350
8.87680000 0.024813 14.974 0.999688 -73.86 0.999688 -73.86 0.024812 17.328
8.87700000 0.024801 14.991 0.999688 -73.86 0.999688 -73.86 0.024799 17.305
8.87720000 0.024789 15.008 0.999688 -73.86 0.999688 -73.86 0.024787 17.283
8.87740000 0.024776 15.026 0.999688 -73.86 0.999688 -73.86 0.024774 17.261
8.87760000 0.024764 15.043 0.999689 -73.87 0.999689 -73.87 0.024762 17.238
8.87780000 0.024751 15.060 0.999689 -73.87 0.999689 -73.87 0.024749 17.215
8.87800000 0.024738 15.078 0.999689 -73.87 0.999689 -73.87 0.024737 17.193
8.87820000 0.024726 15.096 0.999690 -73.88 0.999690 -73.88 0.024724 17.170
8.87840000 0.024713 15.113 0.999690 -73.88 0.999690 -73.88 0.024711 17.147