! Sonnet Data File
! From: emgraph Version : 16.52
! From Project: Resonator2_cp_varyW
! Data is De-embedded 
! Data File Written: 10/08/2017 22:08:32
!< HDATE 10/08/2017 15:20:13
!< MDATE 10/08/2017 15:20:13
!< PARAMS
!< Length = 400.0
!< Pwid1 = 2000.0
!< Pwid2 = 2000.0
!< Air_gap = 24.0
!< Width = 40.0
!< gap = 6.0
!< END PARAMS
# GHZ S MA R 45.40000
8.90000000 0.023703 17.824 0.999713 -74.77 0.999713 -74.77 0.023699 12.665
!< P1 F=8.9 Eeff=(5.09096395 -2.214e-5) Z0=(45.4059169 1.00354e-4) R=0.0 C=0.0 
!< P2 F=8.9 Eeff=(5.09096395 -2.214e-5) Z0=(45.4059169 1.00354e-4) R=0.0 C=0.0 
8.90010000 0.023690 17.846 0.999713 -74.77 0.999713 -74.77 0.023686 12.640
8.90020000 0.023678 17.867 0.999714 -74.77 0.999714 -74.77 0.023674 12.616
8.90030000 0.023665 17.888 0.999714 -74.77 0.999714 -74.77 0.023661 12.591
8.90040000 0.023653 17.909 0.999714 -74.77 0.999714 -74.77 0.023649 12.566
8.90050000 0.023640 17.931 0.999714 -74.78 0.999714 -74.78 0.023636 12.541
8.90060000 0.023628 17.952 0.999715 -74.78 0.999715 -74.78 0.023624 12.516
8.90070000 0.023615 17.974 0.999715 -74.78 0.999715 -74.78 0.023611 12.491
8.90080000 0.023603 17.996 0.999715 -74.78 0.999715 -74.78 0.023598 12.466
8.90090000 0.023590 18.018 0.999716 -74.78 0.999716 -74.78 0.023586 12.440
8.90100000 0.023577 18.040 0.999716 -74.78 0.999716 -74.78 0.023573 12.415
8.90110000 0.023564 18.062 0.999716 -74.79 0.999716 -74.79 0.023560 12.389
8.90120000 0.023552 18.084 0.999716 -74.79 0.999716 -74.79 0.023547 12.364
8.90130000 0.023539 18.106 0.999717 -74.79 0.999717 -74.79 0.023535 12.338
8.90140000 0.023526 18.128 0.999717 -74.79 0.999717 -74.79 0.023522 12.312
8.90150000 0.023513 18.151 0.999717 -74.79 0.999717 -74.79 0.023509 12.286
8.90160000 0.023500 18.173 0.999718 -74.79 0.999718 -74.79 0.023496 12.260
8.90170000 0.023487 18.196 0.999718 -74.80 0.999718 -74.80 0.023483 12.234
8.90180000 0.023474 18.219 0.999718 -74.80 0.999718 -74.80 0.023470 12.207
8.90190000 0.023461 18.241 0.999719 -74.80 0.999719 -74.80 0.023457 12.181
8.90200000 0.023448 18.264 0.999719 -74.80 0.999719 -74.80 0.023444 12.155
8.90210000 0.023435 18.287 0.999719 -74.80 0.999719 -74.80 0.023431 12.128
8.90220000 0.023422 18.311 0.999719 -74.81 0.999719 -74.81 0.023417 12.101
8.90230000 0.023409 18.334 0.999720 -74.81 0.999720 -74.81 0.023404 12.074
8.90240000 0.023395 18.357 0.999720 -74.81 0.999720 -74.81 0.023391 12.047
8.90250000 0.023382 18.381 0.999720 -74.81 0.999720 -74.81 0.023378 12.020
8.90260000 0.023369 18.404 0.999721 -74.81 0.999721 -74.81 0.023364 11.993
8.90270000 0.023356 18.428 0.999721 -74.82 0.999721 -74.82 0.023351 11.966
8.90280000 0.023342 18.452 0.999721 -74.82 0.999721 -74.82 0.023338 11.938
8.90290000 0.023329 18.476 0.999722 -74.82 0.999722 -74.82 0.023324 11.911
8.90300000 0.023315 18.500 0.999722 -74.82 0.999722 -74.82 0.023311 11.883
8.90310000 0.023302 18.524 0.999722 -74.82 0.999722 -74.82 0.023297 11.855
8.90320000 0.023288 18.548 0.999722 -74.82 0.999722 -74.82 0.023284 11.828
8.90330000 0.023275 18.572 0.999723 -74.83 0.999723 -74.83 0.023270 11.800
8.90340000 0.023261 18.597 0.999723 -74.83 0.999723 -74.83 0.023256 11.771
8.90350000 0.023247 18.621 0.999723 -74.83 0.999723 -74.83 0.023243 11.743
8.90360000 0.023234 18.646 0.999724 -74.83 0.999724 -74.83 0.023229 11.715
8.90370000 0.023220 18.671 0.999724 -74.83 0.999724 -74.83 0.023215 11.686
8.90380000 0.023206 18.696 0.999724 -74.84 0.999724 -74.84 0.023202 11.658
8.90390000 0.023192 18.721 0.999725 -74.84 0.999725 -74.84 0.023188 11.629
8.90400000 0.023179 18.746 0.999725 -74.84 0.999725 -74.84 0.023174 11.600
8.90410000 0.023165 18.771 0.999725 -74.84 0.999725 -74.84 0.023160 11.571
8.90420000 0.023151 18.797 0.999726 -74.84 0.999726 -74.84 0.023146 11.542
8.90430000 0.023137 18.822 0.999726 -74.84 0.999726 -74.84 0.023132 11.513
8.90440000 0.023123 18.848 0.999726 -74.85 0.999726 -74.85 0.023118 11.483
8.90450000 0.023109 18.873 0.999726 -74.85 0.999726 -74.85 0.023104 11.454
8.90460000 0.023095 18.899 0.999727 -74.85 0.999727 -74.85 0.023090 11.424
8.90470000 0.023081 18.925 0.999727 -74.85 0.999727 -74.85 0.023076 11.395
8.90480000 0.023066 18.951 0.999727 -74.85 0.999727 -74.85 0.023061 11.365
8.90490000 0.023052 18.978 0.999728 -74.86 0.999728 -74.86 0.023047 11.335
8.90500000 0.023038 19.004 0.999728 -74.86 0.999728 -74.86 0.023033 11.305
8.90510000 0.023024 19.031 0.999728 -74.86 0.999728 -74.86 0.023019 11.274
8.90520000 0.023009 19.057 0.999729 -74.86 0.999729 -74.86 0.023004 11.244
8.90530000 0.022995 19.084 0.999729 -74.86 0.999729 -74.86 0.022990 11.213
8.90540000 0.022980 19.111 0.999729 -74.87 0.999729 -74.87 0.022975 11.183
8.90550000 0.022966 19.138 0.999730 -74.87 0.999730 -74.87 0.022961 11.152
8.90560000 0.022951 19.165 0.999730 -74.87 0.999730 -74.87 0.022946 11.121
8.90570000 0.022937 19.192 0.999730 -74.87 0.999730 -74.87 0.022932 11.090
8.90580000 0.022922 19.220 0.999731 -74.87 0.999731 -74.87 0.022917 11.059
8.90590000 0.022908 19.247 0.999731 -74.88 0.999731 -74.88 0.022902 11.027
8.90600000 0.022893 19.275 0.999731 -74.88 0.999731 -74.88 0.022888 10.996
8.90610000 0.022878 19.303 0.999732 -74.88 0.999732 -74.88 0.022873 10.964
8.90620000 0.022863 19.331 0.999732 -74.88 0.999732 -74.88 0.022858 10.932
8.90630000 0.022849 19.359 0.999732 -74.88 0.999732 -74.88 0.022843 10.900
8.90640000 0.022834 19.387 0.999733 -74.89 0.999733 -74.89 0.022828 10.868
8.90650000 0.022819 19.415 0.999733 -74.89 0.999733 -74.89 0.022813 10.836
8.90660000 0.022804 19.444 0.999733 -74.89 0.999733 -74.89 0.022798 10.804
8.90670000 0.022789 19.473 0.999734 -74.89 0.999734 -74.89 0.022783 10.771
8.90680000 0.022774 19.501 0.999734 -74.89 0.999734 -74.89 0.022768 10.738
8.90690000 0.022759 19.530 0.999734 -74.90 0.999734 -74.90 0.022753 10.705
8.90700000 0.022743 19.559 0.999735 -74.90 0.999735 -74.90 0.022738 10.672
8.90710000 0.022728 19.589 0.999735 -74.90 0.999735 -74.90 0.022723 10.639
8.90720000 0.022713 19.618 0.999735 -74.90 0.999735 -74.90 0.022708 10.606
8.90730000 0.022698 19.647 0.999736 -74.90 0.999736 -74.90 0.022692 10.573
8.90740000 0.022682 19.677 0.999736 -74.91 0.999736 -74.91 0.022677 10.539
8.90750000 0.022667 19.707 0.999736 -74.91 0.999736 -74.91 0.022661 10.505
8.90760000 0.022652 19.737 0.999737 -74.91 0.999737 -74.91 0.022646 10.471
8.90770000 0.022636 19.767 0.999737 -74.91 0.999737 -74.91 0.022631 10.437
8.90780000 0.022621 19.797 0.999737 -74.91 0.999737 -74.91 0.022615 10.403
8.90790000 0.022605 19.828 0.999738 -74.92 0.999738 -74.92 0.022599 10.369
8.90800000 0.022589 19.858 0.999738 -74.92 0.999738 -74.92 0.022584 10.334
8.90810000 0.022574 19.889 0.999738 -74.92 0.999738 -74.92 0.022568 10.299
8.90820000 0.022558 19.920 0.999739 -74.92 0.999739 -74.92 0.022552 10.264
8.90830000 0.022542 19.951 0.999739 -74.92 0.999739 -74.92 0.022537 10.229
8.90840000 0.022526 19.982 0.999739 -74.93 0.999739 -74.93 0.022521 10.194
8.90850000 0.022511 20.014 0.999740 -74.93 0.999740 -74.93 0.022505 10.159
8.90860000 0.022495 20.045 0.999740 -74.93 0.999740 -74.93 0.022489 10.123
8.90870000 0.022479 20.077 0.999740 -74.93 0.999740 -74.93 0.022473 10.087
8.90880000 0.022463 20.109 0.999741 -74.93 0.999741 -74.93 0.022457 10.051
8.90890000 0.022447 20.141 0.999741 -74.94 0.999741 -74.94 0.022441 10.015
8.90900000 0.022431 20.173 0.999741 -74.94 0.999741 -74.94 0.022425 9.9791
8.90910000 0.022414 20.205 0.999742 -74.94 0.999742 -74.94 0.022409 9.9426
8.90920000 0.022398 20.238 0.999742 -74.94 0.999742 -74.94 0.022392 9.9060
8.90930000 0.022382 20.270 0.999742 -74.94 0.999742 -74.94 0.022376 9.8692
8.90940000 0.022366 20.303 0.999743 -74.95 0.999743 -74.95 0.022360 9.8322
8.90950000 0.022349 20.336 0.999743 -74.95 0.999743 -74.95 0.022343 9.7951
8.90960000 0.022333 20.370 0.999743 -74.95 0.999743 -74.95 0.022327 9.7577
8.90970000 0.022317 20.403 0.999744 -74.95 0.999744 -74.95 0.022310 9.7202
8.90980000 0.022300 20.437 0.999744 -74.95 0.999744 -74.95 0.022294 9.6825
8.90990000 0.022283 20.470 0.999744 -74.96 0.999744 -74.96 0.022277 9.6446
8.91000000 0.022267 20.504 0.999745 -74.96 0.999745 -74.96 0.022261 9.6065
8.91010000 0.022250 20.538 0.999745 -74.96 0.999745 -74.96 0.022244 9.5682
8.91020000 0.022233 20.573 0.999746 -74.96 0.999746 -74.96 0.022227 9.5298
8.91030000 0.022217 20.607 0.999746 -74.97 0.999746 -74.97 0.022210 9.4911
8.91040000 0.022200 20.642 0.999746 -74.97 0.999746 -74.97 0.022194 9.4522
8.91050000 0.022183 20.677 0.999747 -74.97 0.999747 -74.97 0.022177 9.4132
8.91060000 0.022166 20.712 0.999747 -74.97 0.999747 -74.97 0.022160 9.3739
8.91070000 0.022149 20.747 0.999747 -74.97 0.999747 -74.97 0.022143 9.3345
8.91080000 0.022132 20.782 0.999748 -74.98 0.999748 -74.98 0.022126 9.2949
8.91090000 0.022115 20.818 0.999748 -74.98 0.999748 -74.98 0.022109 9.2550
8.91100000 0.022098 20.854 0.999748 -74.98 0.999748 -74.98 0.022091 9.2149
8.91110000 0.022081 20.890 0.999749 -74.98 0.999749 -74.98 0.022074 9.1747
8.91120000 0.022063 20.926 0.999749 -74.98 0.999749 -74.98 0.022057 9.1342
8.91130000 0.022046 20.962 0.999750 -74.99 0.999750 -74.99 0.022040 9.0936
8.91140000 0.022029 20.999 0.999750 -74.99 0.999750 -74.99 0.022022 9.0527
8.91150000 0.022011 21.036 0.999750 -74.99 0.999750 -74.99 0.022005 9.0116
8.91160000 0.021994 21.073 0.999751 -74.99 0.999751 -74.99 0.021987 8.9703
8.91170000 0.021976 21.110 0.999751 -75.00 0.999751 -75.00 0.021970 8.9288
8.91180000 0.021959 21.148 0.999751 -75.00 0.999751 -75.00 0.021952 8.8870
8.91190000 0.021941 21.185 0.999752 -75.00 0.999752 -75.00 0.021934 8.8451
8.91200000 0.021923 21.223 0.999752 -75.00 0.999752 -75.00 0.021917 8.8029
8.91210000 0.021906 21.261 0.999752 -75.00 0.999752 -75.00 0.021899 8.7605
8.91220000 0.021888 21.299 0.999753 -75.01 0.999753 -75.01 0.021881 8.7179
8.91230000 0.021870 21.338 0.999753 -75.01 0.999753 -75.01 0.021863 8.6750
8.91240000 0.021852 21.377 0.999754 -75.01 0.999754 -75.01 0.021845 8.6320
8.91250000 0.021834 21.415 0.999754 -75.01 0.999754 -75.01 0.021827 8.5887
8.91260000 0.021816 21.455 0.999754 -75.02 0.999754 -75.02 0.021809 8.5451
8.91270000 0.021798 21.494 0.999755 -75.02 0.999755 -75.02 0.021791 8.5014
8.91280000 0.021780 21.534 0.999755 -75.02 0.999755 -75.02 0.021773 8.4574
8.91290000 0.021762 21.573 0.999755 -75.02 0.999755 -75.02 0.021755 8.4131
8.91300000 0.021743 21.613 0.999756 -75.02 0.999756 -75.02 0.021736 8.3687
8.91310000 0.021725 21.654 0.999756 -75.03 0.999756 -75.03 0.021718 8.3240
8.91320000 0.021707 21.694 0.999757 -75.03 0.999757 -75.03 0.021700 8.2790
8.91330000 0.021688 21.735 0.999757 -75.03 0.999757 -75.03 0.021681 8.2338
8.91340000 0.021670 21.776 0.999757 -75.03 0.999757 -75.03 0.021663 8.1884
8.91350000 0.021651 21.817 0.999758 -75.04 0.999758 -75.04 0.021644 8.1427
8.91360000 0.021633 21.858 0.999758 -75.04 0.999758 -75.04 0.021625 8.0968
8.91370000 0.021614 21.900 0.999759 -75.04 0.999759 -75.04 0.021607 8.0506
8.91380000 0.021595 21.942 0.999759 -75.04 0.999759 -75.04 0.021588 8.0041
8.91390000 0.021576 21.984 0.999759 -75.04 0.999759 -75.04 0.021569 7.9574
8.91400000 0.021558 22.027 0.999760 -75.05 0.999760 -75.05 0.021550 7.9105
8.91410000 0.021539 22.069 0.999760 -75.05 0.999760 -75.05 0.021531 7.8633
8.91420000 0.021520 22.112 0.999760 -75.05 0.999760 -75.05 0.021512 7.8158
8.91430000 0.021501 22.155 0.999761 -75.05 0.999761 -75.05 0.021493 7.7681
8.91440000 0.021482 22.199 0.999761 -75.06 0.999761 -75.06 0.021474 7.7201
8.91450000 0.021462 22.242 0.999762 -75.06 0.999762 -75.06 0.021455 7.6718
8.91460000 0.021443 22.286 0.999762 -75.06 0.999762 -75.06 0.021435 7.6232
8.91470000 0.021424 22.331 0.999762 -75.06 0.999762 -75.06 0.021416 7.5744
8.91480000 0.021405 22.375 0.999763 -75.07 0.999763 -75.07 0.021397 7.5253
8.91490000 0.021385 22.420 0.999763 -75.07 0.999763 -75.07 0.021377 7.4759
8.91500000 0.021366 22.465 0.999764 -75.07 0.999764 -75.07 0.021358 7.4263
8.91510000 0.021346 22.510 0.999764 -75.07 0.999764 -75.07 0.021338 7.3764
8.91520000 0.021326 22.556 0.999764 -75.08 0.999764 -75.08 0.021319 7.3261
8.91530000 0.021307 22.601 0.999765 -75.08 0.999765 -75.08 0.021299 7.2756
8.91540000 0.021287 22.648 0.999765 -75.08 0.999765 -75.08 0.021279 7.2248
8.91550000 0.021267 22.694 0.999766 -75.08 0.999766 -75.08 0.021259 7.1738
8.91560000 0.021247 22.741 0.999766 -75.09 0.999766 -75.09 0.021239 7.1224
8.91570000 0.021227 22.788 0.999766 -75.09 0.999766 -75.09 0.021219 7.0707
8.91580000 0.021207 22.835 0.999767 -75.09 0.999767 -75.09 0.021199 7.0187
8.91590000 0.021187 22.882 0.999767 -75.09 0.999767 -75.09 0.021179 6.9664
8.91600000 0.021167 22.930 0.999768 -75.09 0.999768 -75.09 0.021159 6.9138
8.91610000 0.021147 22.978 0.999768 -75.10 0.999768 -75.10 0.021139 6.8609
8.91620000 0.021127 23.027 0.999768 -75.10 0.999768 -75.10 0.021118 6.8077
8.91630000 0.021107 23.075 0.999769 -75.10 0.999769 -75.10 0.021098 6.7542
8.91640000 0.021086 23.124 0.999769 -75.10 0.999769 -75.10 0.021078 6.7004
8.91650000 0.021066 23.174 0.999770 -75.11 0.999770 -75.11 0.021057 6.6462
8.91660000 0.021045 23.223 0.999770 -75.11 0.999770 -75.11 0.021037 6.5918
8.91670000 0.021025 23.273 0.999770 -75.11 0.999770 -75.11 0.021016 6.5370
8.91680000 0.021004 23.323 0.999771 -75.11 0.999771 -75.11 0.020995 6.4818
8.91690000 0.020983 23.374 0.999771 -75.12 0.999771 -75.12 0.020974 6.4264
8.91700000 0.020962 23.425 0.999772 -75.12 0.999772 -75.12 0.020954 6.3706
8.91710000 0.020942 23.476 0.999772 -75.12 0.999772 -75.12 0.020933 6.3145
8.91720000 0.020921 23.528 0.999773 -75.12 0.999773 -75.12 0.020912 6.2580
8.91730000 0.020900 23.580 0.999773 -75.13 0.999773 -75.13 0.020891 6.2012
8.91740000 0.020879 23.632 0.999773 -75.13 0.999773 -75.13 0.020870 6.1441
8.91750000 0.020857 23.684 0.999774 -75.13 0.999774 -75.13 0.020848 6.0866
8.91760000 0.020836 23.737 0.999774 -75.13 0.999774 -75.13 0.020827 6.0287
8.91770000 0.020815 23.790 0.999775 -75.14 0.999775 -75.14 0.020806 5.9705
8.91780000 0.020794 23.844 0.999775 -75.14 0.999775 -75.14 0.020784 5.9120
8.91790000 0.020772 23.898 0.999775 -75.14 0.999775 -75.14 0.020763 5.8531
8.91800000 0.020751 23.952 0.999776 -75.15 0.999776 -75.15 0.020741 5.7938
8.91810000 0.020729 24.007 0.999776 -75.15 0.999776 -75.15 0.020720 5.7341
8.91820000 0.020707 24.062 0.999777 -75.15 0.999777 -75.15 0.020698 5.6741
8.91830000 0.020686 24.117 0.999777 -75.15 0.999777 -75.15 0.020676 5.6137
8.91840000 0.020664 24.173 0.999778 -75.16 0.999778 -75.16 0.020654 5.5529
8.91850000 0.020642 24.229 0.999778 -75.16 0.999778 -75.16 0.020633 5.4918
8.91860000 0.020620 24.285 0.999778 -75.16 0.999778 -75.16 0.020611 5.4303
8.91870000 0.020598 24.342 0.999779 -75.16 0.999779 -75.16 0.020589 5.3683
8.91880000 0.020576 24.399 0.999779 -75.17 0.999779 -75.17 0.020566 5.3060
8.91890000 0.020554 24.457 0.999780 -75.17 0.999780 -75.17 0.020544 5.2433
8.91900000 0.020532 24.515 0.999780 -75.17 0.999780 -75.17 0.020522 5.1802
8.91910000 0.020509 24.573 0.999781 -75.17 0.999781 -75.17 0.020500 5.1167
8.91920000 0.020487 24.632 0.999781 -75.18 0.999781 -75.18 0.020477 5.0528
8.91930000 0.020465 24.691 0.999781 -75.18 0.999781 -75.18 0.020455 4.9884
8.91940000 0.020442 24.750 0.999782 -75.18 0.999782 -75.18 0.020432 4.9237
8.91950000 0.020420 24.810 0.999782 -75.18 0.999782 -75.18 0.020410 4.8585
8.91960000 0.020397 24.870 0.999783 -75.19 0.999783 -75.19 0.020387 4.7930
8.91970000 0.020374 24.931 0.999783 -75.19 0.999783 -75.19 0.020364 4.7269
8.91980000 0.020351 24.992 0.999784 -75.19 0.999784 -75.19 0.020341 4.6605
8.91990000 0.020328 25.054 0.999784 -75.20 0.999784 -75.20 0.020318 4.5936
8.92000000 0.020305 25.116 0.999784 -75.20 0.999784 -75.20 0.020295 4.5263
8.92010000 0.020282 25.178 0.999785 -75.20 0.999785 -75.20 0.020272 4.4586
8.92020000 0.020259 25.241 0.999785 -75.20 0.999785 -75.20 0.020249 4.3904
8.92030000 0.020236 25.304 0.999786 -75.21 0.999786 -75.21 0.020226 4.3217
8.92040000 0.020213 25.368 0.999786 -75.21 0.999786 -75.21 0.020202 4.2526
8.92050000 0.020190 25.432 0.999787 -75.21 0.999787 -75.21 0.020179 4.1830
8.92060000 0.020166 25.497 0.999787 -75.21 0.999787 -75.21 0.020155 4.1130
8.92070000 0.020143 25.562 0.999788 -75.22 0.999788 -75.22 0.020132 4.0425
8.92080000 0.020119 25.627 0.999788 -75.22 0.999788 -75.22 0.020108 3.9715
8.92090000 0.020095 25.693 0.999788 -75.22 0.999788 -75.22 0.020085 3.9001
8.92100000 0.020072 25.760 0.999789 -75.23 0.999789 -75.23 0.020061 3.8281
8.92110000 0.020048 25.827 0.999789 -75.23 0.999789 -75.23 0.020037 3.7557
8.92120000 0.020024 25.894 0.999790 -75.23 0.999790 -75.23 0.020013 3.6828
8.92130000 0.020000 25.962 0.999790 -75.23 0.999790 -75.23 0.019989 3.6094
8.92140000 0.019976 26.030 0.999791 -75.24 0.999791 -75.24 0.019965 3.5355
8.92150000 0.019952 26.099 0.999791 -75.24 0.999791 -75.24 0.019941 3.4610
8.92160000 0.019928 26.169 0.999792 -75.24 0.999792 -75.24 0.019916 3.3861
8.92170000 0.019903 26.238 0.999792 -75.25 0.999792 -75.25 0.019892 3.3106
8.92180000 0.019879 26.309 0.999792 -75.25 0.999792 -75.25 0.019868 3.2347
8.92190000 0.019854 26.380 0.999793 -75.25 0.999793 -75.25 0.019843 3.1581
8.92200000 0.019830 26.451 0.999793 -75.25 0.999793 -75.25 0.019818 3.0811
8.92210000 0.019805 26.523 0.999794 -75.26 0.999794 -75.26 0.019794 3.0035
8.92220000 0.019781 26.595 0.999794 -75.26 0.999794 -75.26 0.019769 2.9254
8.92230000 0.019756 26.668 0.999795 -75.26 0.999795 -75.26 0.019744 2.8467
8.92240000 0.019731 26.742 0.999795 -75.27 0.999795 -75.27 0.019719 2.7675
8.92250000 0.019706 26.816 0.999796 -75.27 0.999796 -75.27 0.019694 2.6877
8.92260000 0.019681 26.890 0.999796 -75.27 0.999796 -75.27 0.019669 2.6073
8.92270000 0.019656 26.966 0.999797 -75.28 0.999797 -75.28 0.019644 2.5264
8.92280000 0.019631 27.041 0.999797 -75.28 0.999797 -75.28 0.019619 2.4449
8.92290000 0.019606 27.118 0.999797 -75.28 0.999797 -75.28 0.019593 2.3628
8.92300000 0.019580 27.194 0.999798 -75.28 0.999798 -75.28 0.019568 2.2801
8.92310000 0.019555 27.272 0.999798 -75.29 0.999798 -75.29 0.019542 2.1968
8.92320000 0.019529 27.350 0.999799 -75.29 0.999799 -75.29 0.019517 2.1129
8.92330000 0.019504 27.428 0.999799 -75.29 0.999799 -75.29 0.019491 2.0284
8.92340000 0.019478 27.508 0.999800 -75.30 0.999800 -75.30 0.019466 1.9433
8.92350000 0.019452 27.587 0.999800 -75.30 0.999800 -75.30 0.019440 1.8576
8.92360000 0.019426 27.668 0.999801 -75.30 0.999801 -75.30 0.019414 1.7712
8.92370000 0.019401 27.749 0.999801 -75.31 0.999801 -75.31 0.019388 1.6842
8.92380000 0.019375 27.830 0.999802 -75.31 0.999802 -75.31 0.019362 1.5966
8.92390000 0.019348 27.913 0.999802 -75.31 0.999802 -75.31 0.019336 1.5083
8.92400000 0.019322 27.996 0.999803 -75.31 0.999803 -75.31 0.019309 1.4193
8.92410000 0.019296 28.079 0.999803 -75.32 0.999803 -75.32 0.019283 1.3297
8.92420000 0.019270 28.163 0.999804 -75.32 0.999804 -75.32 0.019257 1.2394
8.92430000 0.019243 28.248 0.999804 -75.32 0.999804 -75.32 0.019230 1.1485
8.92440000 0.019217 28.334 0.999804 -75.33 0.999804 -75.33 0.019203 1.0568
8.92450000 0.019190 28.420 0.999805 -75.33 0.999805 -75.33 0.019177 0.9645
8.92460000 0.019164 28.507 0.999805 -75.33 0.999805 -75.33 0.019150 0.8714
8.92470000 0.019137 28.594 0.999806 -75.34 0.999806 -75.34 0.019123 0.7777
8.92480000 0.019110 28.682 0.999806 -75.34 0.999806 -75.34 0.019096 0.6832
8.92490000 0.019083 28.771 0.999807 -75.34 0.999807 -75.34 0.019069 0.5880
8.92500000 0.019056 28.861 0.999807 -75.35 0.999807 -75.35 0.019042 0.4921
8.92510000 0.019029 28.951 0.999808 -75.35 0.999808 -75.35 0.019015 0.3954
8.92520000 0.019002 29.042 0.999808 -75.35 0.999808 -75.35 0.018988 0.2980
8.92530000 0.018975 29.134 0.999809 -75.36 0.999809 -75.36 0.018960 0.1999
8.92540000 0.018947 29.227 0.999809 -75.36 0.999809 -75.36 0.018933 0.1009
8.92550000 0.018920 29.320 0.999810 -75.36 0.999810 -75.36 0.018905 0.0012
8.92560000 0.018892 29.414 0.999810 -75.37 0.999810 -75.37 0.018878 -0.099
8.92570000 0.018865 29.509 0.999811 -75.37 0.999811 -75.37 0.018850 -0.201
8.92580000 0.018837 29.605 0.999811 -75.37 0.999811 -75.37 0.018822 -0.303
8.92590000 0.018809 29.701 0.999812 -75.38 0.999812 -75.38 0.018794 -0.405
8.92600000 0.018781 29.798 0.999812 -75.38 0.999812 -75.38 0.018767 -0.509
8.92610000 0.018753 29.896 0.999813 -75.38 0.999813 -75.38 0.018739 -0.614
8.92620000 0.018725 29.995 0.999813 -75.39 0.999813 -75.39 0.018710 -0.719
8.92630000 0.018697 30.095 0.999814 -75.39 0.999814 -75.39 0.018682 -0.825
8.92640000 0.018669 30.195 0.999814 -75.39 0.999814 -75.39 0.018654 -0.932
8.92650000 0.018641 30.296 0.999814 -75.40 0.999814 -75.40 0.018626 -1.040
8.92660000 0.018613 30.399 0.999815 -75.40 0.999815 -75.40 0.018597 -1.149
8.92670000 0.018584 30.502 0.999815 -75.40 0.999815 -75.40 0.018569 -1.259
8.92680000 0.018556 30.605 0.999816 -75.41 0.999816 -75.41 0.018540 -1.369
8.92690000 0.018527 30.710 0.999816 -75.41 0.999816 -75.41 0.018511 -1.481
8.92700000 0.018498 30.816 0.999817 -75.41 0.999817 -75.41 0.018482 -1.593
8.92710000 0.018470 30.922 0.999817 -75.42 0.999817 -75.42 0.018454 -1.707
8.92720000 0.018441 31.030 0.999818 -75.42 0.999818 -75.42 0.018425 -1.821
8.92730000 0.018412 31.138 0.999818 -75.42 0.999818 -75.42 0.018396 -1.936
8.92740000 0.018383 31.247 0.999819 -75.43 0.999819 -75.43 0.018366 -2.052
8.92750000 0.018354 31.358 0.999819 -75.43 0.999819 -75.43 0.018337 -2.169
8.92760000 0.018324 31.469 0.999820 -75.43 0.999820 -75.43 0.018308 -2.288
8.92770000 0.018295 31.581 0.999820 -75.44 0.999820 -75.44 0.018279 -2.407
8.92780000 0.018266 31.694 0.999821 -75.44 0.999821 -75.44 0.018249 -2.527
8.92790000 0.018236 31.808 0.999821 -75.45 0.999821 -75.45 0.018220 -2.648
8.92800000 0.018207 31.924 0.999822 -75.45 0.999822 -75.45 0.018190 -2.770
8.92810000 0.018177 32.040 0.999822 -75.45 0.999822 -75.45 0.018160 -2.893
8.92820000 0.018148 32.157 0.999823 -75.46 0.999823 -75.46 0.018131 -3.018
8.92830000 0.018118 32.275 0.999823 -75.46 0.999823 -75.46 0.018101 -3.143
8.92840000 0.018088 32.394 0.999824 -75.46 0.999824 -75.46 0.018071 -3.269
8.92850000 0.018058 32.515 0.999824 -75.47 0.999824 -75.47 0.018041 -3.397
8.92860000 0.018028 32.636 0.999825 -75.47 0.999825 -75.47 0.018011 -3.526
8.92870000 0.017998 32.758 0.999825 -75.47 0.999825 -75.47 0.017980 -3.655
8.92880000 0.017968 32.882 0.999826 -75.48 0.999826 -75.48 0.017950 -3.786
8.92890000 0.017938 33.007 0.999826 -75.48 0.999826 -75.48 0.017920 -3.918
8.92900000 0.017908 33.133 0.999827 -75.49 0.999827 -75.49 0.017889 -4.051
8.92910000 0.017877 33.260 0.999827 -75.49 0.999827 -75.49 0.017859 -4.186
8.92920000 0.017847 33.388 0.999828 -75.49 0.999828 -75.49 0.017828 -4.321
8.92930000 0.017816 33.517 0.999828 -75.50 0.999828 -75.50 0.017798 -4.458
8.92940000 0.017786 33.647 0.999829 -75.50 0.999829 -75.50 0.017767 -4.596
8.92950000 0.017755 33.779 0.999829 -75.50 0.999829 -75.50 0.017736 -4.735
8.92960000 0.017724 33.912 0.999829 -75.51 0.999829 -75.51 0.017705 -4.876
8.92970000 0.017694 34.046 0.999830 -75.51 0.999830 -75.51 0.017675 -5.017
8.92980000 0.017663 34.182 0.999830 -75.52 0.999830 -75.52 0.017644 -5.160
8.92990000 0.017632 34.318 0.999831 -75.52 0.999831 -75.52 0.017612 -5.305
8.93000000 0.017601 34.456 0.999831 -75.52 0.999831 -75.52 0.017581 -5.450
8.93010000 0.017570 34.595 0.999832 -75.53 0.999832 -75.53 0.017550 -5.597
8.93020000 0.017539 34.736 0.999832 -75.53 0.999832 -75.53 0.017519 -5.745
8.93030000 0.017508 34.878 0.999833 -75.54 0.999833 -75.54 0.017488 -5.895
8.93040000 0.017476 35.021 0.999833 -75.54 0.999833 -75.54 0.017456 -6.046
8.93050000 0.017445 35.165 0.999834 -75.54 0.999834 -75.54 0.017425 -6.199
8.93060000 0.017414 35.311 0.999834 -75.55 0.999834 -75.55 0.017393 -6.352
8.93070000 0.017382 35.459 0.999835 -75.55 0.999835 -75.55 0.017362 -6.508
8.93080000 0.017351 35.607 0.999835 -75.56 0.999835 -75.56 0.017330 -6.664
8.93090000 0.017319 35.758 0.999836 -75.56 0.999836 -75.56 0.017298 -6.823
8.93100000 0.017287 35.909 0.999836 -75.56 0.999836 -75.56 0.017266 -6.982
8.93110000 0.017256 36.062 0.999837 -75.57 0.999837 -75.57 0.017235 -7.143
8.93120000 0.017224 36.217 0.999837 -75.57 0.999837 -75.57 0.017203 -7.306
8.93130000 0.017192 36.373 0.999838 -75.58 0.999838 -75.58 0.017171 -7.470
8.93140000 0.017160 36.530 0.999838 -75.58 0.999838 -75.58 0.017139 -7.636
8.93150000 0.017129 36.690 0.999839 -75.59 0.999839 -75.59 0.017107 -7.804
8.93160000 0.017097 36.850 0.999839 -75.59 0.999839 -75.59 0.017075 -7.973
8.93170000 0.017065 37.013 0.999840 -75.59 0.999840 -75.59 0.017042 -8.143
8.93180000 0.017033 37.176 0.999840 -75.60 0.999840 -75.60 0.017010 -8.315
8.93190000 0.017001 37.342 0.999841 -75.60 0.999841 -75.60 0.016978 -8.489
8.93200000 0.016968 37.509 0.999841 -75.61 0.999841 -75.61 0.016946 -8.665
8.93210000 0.016936 37.678 0.999841 -75.61 0.999841 -75.61 0.016913 -8.842
8.93220000 0.016904 37.848 0.999842 -75.62 0.999842 -75.62 0.016881 -9.021
8.93230000 0.016872 38.021 0.999842 -75.62 0.999842 -75.62 0.016849 -9.202
8.93240000 0.016840 38.195 0.999843 -75.62 0.999843 -75.62 0.016816 -9.385
8.93250000 0.016807 38.370 0.999843 -75.63 0.999843 -75.63 0.016784 -9.569
8.93260000 0.016775 38.548 0.999844 -75.63 0.999844 -75.63 0.016751 -9.755
8.93270000 0.016743 38.727 0.999844 -75.64 0.999844 -75.64 0.016719 -9.944
8.93280000 0.016710 38.908 0.999845 -75.64 0.999845 -75.64 0.016686 -10.13
8.93290000 0.016678 39.091 0.999845 -75.65 0.999845 -75.65 0.016654 -10.33
8.93300000 0.016646 39.276 0.999846 -75.65 0.999846 -75.65 0.016621 -10.52
8.93310000 0.016613 39.463 0.999846 -75.66 0.999846 -75.66 0.016588 -10.71
8.93320000 0.016581 39.651 0.999847 -75.66 0.999847 -75.66 0.016556 -10.91
8.93330000 0.016548 39.842 0.999847 -75.66 0.999847 -75.66 0.016523 -11.11
8.93340000 0.016516 40.034 0.999847 -75.67 0.999847 -75.67 0.016490 -11.31
8.93350000 0.016483 40.229 0.999848 -75.67 0.999848 -75.67 0.016458 -11.52
8.93360000 0.016451 40.426 0.999848 -75.68 0.999848 -75.68 0.016425 -11.72
8.93370000 0.016418 40.624 0.999849 -75.68 0.999849 -75.68 0.016392 -11.93
8.93380000 0.016386 40.825 0.999849 -75.69 0.999849 -75.69 0.016360 -12.14
8.93390000 0.016354 41.028 0.999850 -75.69 0.999850 -75.69 0.016327 -12.35
8.93400000 0.016321 41.233 0.999850 -75.70 0.999850 -75.70 0.016294 -12.57
8.93410000 0.016289 41.440 0.999851 -75.70 0.999851 -75.70 0.016262 -12.78
8.93420000 0.016256 41.649 0.999851 -75.71 0.999851 -75.71 0.016229 -13.00
8.93430000 0.016224 41.861 0.999851 -75.71 0.999851 -75.71 0.016196 -13.22
8.93440000 0.016192 42.074 0.999852 -75.72 0.999852 -75.72 0.016164 -13.45
8.93450000 0.016159 42.290 0.999852 -75.72 0.999852 -75.72 0.016131 -13.67
8.93460000 0.016127 42.509 0.999853 -75.73 0.999853 -75.73 0.016099 -13.90
8.93470000 0.016095 42.729 0.999853 -75.73 0.999853 -75.73 0.016066 -14.13
8.93480000 0.016062 42.952 0.999854 -75.74 0.999854 -75.74 0.016034 -14.37
8.93490000 0.016030 43.178 0.999854 -75.74 0.999854 -75.74 0.016001 -14.60
8.93500000 0.015998 43.406 0.999854 -75.75 0.999854 -75.75 0.015969 -14.84
8.93510000 0.015966 43.636 0.999855 -75.75 0.999855 -75.75 0.015937 -15.08
8.93520000 0.015934 43.869 0.999855 -75.76 0.999855 -75.76 0.015904 -15.32
8.93530000 0.015902 44.104 0.999856 -75.76 0.999856 -75.76 0.015872 -15.57
8.93540000 0.015870 44.342 0.999856 -75.77 0.999856 -75.77 0.015840 -15.82
8.93550000 0.015838 44.582 0.999856 -75.77 0.999856 -75.77 0.015808 -16.07
8.93560000 0.015807 44.825 0.999857 -75.78 0.999857 -75.78 0.015776 -16.32
8.93570000 0.015775 45.071 0.999857 -75.78 0.999857 -75.78 0.015744 -16.58
8.93580000 0.015744 45.319 0.999858 -75.79 0.999858 -75.79 0.015712 -16.84
8.93590000 0.015712 45.571 0.999858 -75.79 0.999858 -75.79 0.015681 -17.10
8.93600000 0.015681 45.824 0.999858 -75.80 0.999858 -75.80 0.015649 -17.36
8.93610000 0.015650 46.081 0.999859 -75.80 0.999859 -75.80 0.015618 -17.63
8.93620000 0.015618 46.340 0.999859 -75.81 0.999859 -75.81 0.015586 -17.90
8.93630000 0.015587 46.603 0.999860 -75.81 0.999860 -75.81 0.015555 -18.17
8.93640000 0.015557 46.868 0.999860 -75.82 0.999860 -75.82 0.015524 -18.45
8.93650000 0.015526 47.136 0.999860 -75.83 0.999860 -75.83 0.015493 -18.73
8.93660000 0.015495 47.407 0.999861 -75.83 0.999861 -75.83 0.015462 -19.01
8.93670000 0.015465 47.681 0.999861 -75.84 0.999861 -75.84 0.015431 -19.30
8.93680000 0.015435 47.958 0.999861 -75.84 0.999861 -75.84 0.015401 -19.58
8.93690000 0.015405 48.239 0.999862 -75.85 0.999862 -75.85 0.015370 -19.88
8.93700000 0.015375 48.522 0.999862 -75.85 0.999862 -75.85 0.015340 -20.17
8.93710000 0.015345 48.808 0.999862 -75.86 0.999862 -75.86 0.015310 -20.47
8.93720000 0.015315 49.098 0.999863 -75.86 0.999863 -75.86 0.015280 -20.77
8.93730000 0.015286 49.391 0.999863 -75.87 0.999863 -75.87 0.015251 -21.07
8.93740000 0.015257 49.687 0.999863 -75.88 0.999863 -75.88 0.015221 -21.38
8.93750000 0.015228 49.986 0.999864 -75.88 0.999864 -75.88 0.015192 -21.69
8.93760000 0.015199 50.289 0.999864 -75.89 0.999864 -75.89 0.015163 -22.01
8.93770000 0.015171 50.595 0.999864 -75.89 0.999864 -75.89 0.015134 -22.33
8.93780000 0.015143 50.905 0.999865 -75.90 0.999865 -75.90 0.015106 -22.65
8.93790000 0.015115 51.217 0.999865 -75.91 0.999865 -75.91 0.015077 -22.97
8.93800000 0.015087 51.534 0.999865 -75.91 0.999865 -75.91 0.015049 -23.30
8.93810000 0.015060 51.854 0.999865 -75.92 0.999865 -75.92 0.015022 -23.63
8.93820000 0.015033 52.177 0.999866 -75.92 0.999866 -75.92 0.014994 -23.97
8.93830000 0.015006 52.504 0.999866 -75.93 0.999866 -75.93 0.014967 -24.31
8.93840000 0.014980 52.835 0.999866 -75.94 0.999866 -75.94 0.014940 -24.65
8.93850000 0.014954 53.169 0.999866 -75.94 0.999866 -75.94 0.014914 -25.00
8.93860000 0.014928 53.507 0.999867 -75.95 0.999867 -75.95 0.014888 -25.35
8.93870000 0.014902 53.849 0.999867 -75.95 0.999867 -75.95 0.014862 -25.71
8.93880000 0.014877 54.194 0.999867 -75.96 0.999867 -75.96 0.014837 -26.06
8.93890000 0.014853 54.544 0.999867 -75.97 0.999867 -75.97 0.014812 -26.43
8.93900000 0.014828 54.897 0.999868 -75.97 0.999868 -75.97 0.014787 -26.79
8.93910000 0.014805 55.254 0.999868 -75.98 0.999868 -75.98 0.014763 -27.16
8.93920000 0.014781 55.615 0.999868 -75.99 0.999868 -75.99 0.014739 -27.54