! Sonnet Data File
! From: emgraph Version : 16.52
! From Project: Resonator2_cp
! Data is De-embedded 
! Data File Written: 10/07/2017 00:08:08
!< HDATE 10/06/2017 20:18:08
!< MDATE 10/06/2017 20:18:08
!< PARAMS
!< gap = 26.0
!< Length = 400.0
!< Pwid1 = 2000.0
!< Pwid2 = 2000.0
!< Air_gap = 12.0
!< Width = 20.0
!< END PARAMS
# GHZ S MA R 40.13000
8.80000000 0.024662 2.5542 0.999692 -74.05 0.999692 -74.05 0.024664 29.357
!< P1 F=8.8 Eeff=(5.24625567 -2.3027e-5) Z0=(40.1432274 8.93341e-5) R=0.0 C=0.0 
!< P2 F=8.8 Eeff=(5.24625567 -2.3027e-5) Z0=(40.1432274 8.93341e-5) R=0.0 C=0.0 
8.80020000 0.024668 2.5430 0.999692 -74.05 0.999692 -74.05 0.024669 29.364
8.80040000 0.024674 2.5318 0.999692 -74.05 0.999692 -74.05 0.024675 29.371
8.80060000 0.024680 2.5205 0.999692 -74.05 0.999692 -74.05 0.024681 29.378
8.80080000 0.024685 2.5092 0.999692 -74.06 0.999692 -74.06 0.024687 29.385
8.80100000 0.024691 2.4979 0.999692 -74.06 0.999692 -74.06 0.024693 29.393
8.80120000 0.024697 2.4865 0.999691 -74.06 0.999691 -74.06 0.024699 29.400
8.80140000 0.024704 2.4751 0.999691 -74.06 0.999691 -74.06 0.024705 29.407
8.80160000 0.024710 2.4637 0.999691 -74.06 0.999691 -74.06 0.024711 29.414
8.80180000 0.024716 2.4522 0.999691 -74.07 0.999691 -74.07 0.024717 29.421
8.80200000 0.024722 2.4407 0.999691 -74.07 0.999691 -74.07 0.024724 29.428
8.80220000 0.024728 2.4292 0.999691 -74.07 0.999691 -74.07 0.024730 29.436
8.80240000 0.024734 2.4176 0.999690 -74.07 0.999690 -74.07 0.024736 29.443
8.80260000 0.024740 2.4061 0.999690 -74.08 0.999690 -74.08 0.024742 29.450
8.80280000 0.024746 2.3944 0.999690 -74.08 0.999690 -74.08 0.024748 29.458
8.80300000 0.024753 2.3828 0.999690 -74.08 0.999690 -74.08 0.024754 29.465
8.80320000 0.024759 2.3711 0.999690 -74.08 0.999690 -74.08 0.024761 29.473
8.80340000 0.024765 2.3594 0.999690 -74.08 0.999690 -74.08 0.024767 29.480
8.80360000 0.024771 2.3476 0.999690 -74.09 0.999690 -74.09 0.024773 29.488
8.80380000 0.024778 2.3358 0.999689 -74.09 0.999689 -74.09 0.024780 29.495
8.80400000 0.024784 2.3240 0.999689 -74.09 0.999689 -74.09 0.024786 29.503
8.80420000 0.024790 2.3121 0.999689 -74.09 0.999689 -74.09 0.024792 29.510
8.80440000 0.024797 2.3002 0.999689 -74.09 0.999689 -74.09 0.024799 29.518
8.80460000 0.024803 2.2883 0.999689 -74.10 0.999689 -74.10 0.024805 29.525
8.80480000 0.024810 2.2763 0.999689 -74.10 0.999689 -74.10 0.024812 29.533
8.80500000 0.024816 2.2643 0.999688 -74.10 0.999688 -74.10 0.024818 29.541
8.80520000 0.024823 2.2523 0.999688 -74.10 0.999688 -74.10 0.024825 29.549
8.80540000 0.024829 2.2402 0.999688 -74.10 0.999688 -74.10 0.024831 29.556
8.80560000 0.024836 2.2281 0.999688 -74.11 0.999688 -74.11 0.024838 29.564
8.80580000 0.024842 2.2160 0.999688 -74.11 0.999688 -74.11 0.024844 29.572
8.80600000 0.024849 2.2038 0.999688 -74.11 0.999688 -74.11 0.024851 29.580
8.80620000 0.024856 2.1916 0.999687 -74.11 0.999687 -74.11 0.024857 29.588
8.80640000 0.024862 2.1793 0.999687 -74.12 0.999687 -74.12 0.024864 29.596
8.80660000 0.024869 2.1670 0.999687 -74.12 0.999687 -74.12 0.024871 29.604
8.80680000 0.024876 2.1547 0.999687 -74.12 0.999687 -74.12 0.024878 29.612
8.80700000 0.024882 2.1424 0.999687 -74.12 0.999687 -74.12 0.024884 29.620
8.80720000 0.024889 2.1300 0.999687 -74.12 0.999687 -74.12 0.024891 29.628
8.80740000 0.024896 2.1175 0.999686 -74.13 0.999686 -74.13 0.024898 29.636
8.80760000 0.024903 2.1051 0.999686 -74.13 0.999686 -74.13 0.024905 29.644
8.80780000 0.024910 2.0925 0.999686 -74.13 0.999686 -74.13 0.024912 29.652
8.80800000 0.024917 2.0800 0.999686 -74.13 0.999686 -74.13 0.024918 29.660
8.80820000 0.024923 2.0674 0.999686 -74.14 0.999686 -74.14 0.024925 29.668
8.80840000 0.024930 2.0548 0.999685 -74.14 0.999685 -74.14 0.024932 29.677
8.80860000 0.024937 2.0421 0.999685 -74.14 0.999685 -74.14 0.024939 29.685
8.80880000 0.024944 2.0294 0.999685 -74.14 0.999685 -74.14 0.024946 29.693
8.80900000 0.024951 2.0167 0.999685 -74.14 0.999685 -74.14 0.024953 29.702
8.80920000 0.024958 2.0039 0.999685 -74.15 0.999685 -74.15 0.024960 29.710
8.80940000 0.024966 1.9911 0.999685 -74.15 0.999685 -74.15 0.024967 29.719
8.80960000 0.024973 1.9782 0.999684 -74.15 0.999684 -74.15 0.024975 29.727
8.80980000 0.024980 1.9653 0.999684 -74.15 0.999684 -74.15 0.024982 29.736
8.81000000 0.024987 1.9524 0.999684 -74.15 0.999684 -74.15 0.024989 29.744
8.81020000 0.024994 1.9394 0.999684 -74.16 0.999684 -74.16 0.024996 29.753
8.81040000 0.025001 1.9264 0.999684 -74.16 0.999684 -74.16 0.025003 29.761
8.81060000 0.025009 1.9133 0.999683 -74.16 0.999683 -74.16 0.025011 29.770
8.81080000 0.025016 1.9002 0.999683 -74.16 0.999683 -74.16 0.025018 29.779
8.81100000 0.025023 1.8871 0.999683 -74.17 0.999683 -74.17 0.025025 29.787
8.81120000 0.025031 1.8739 0.999683 -74.17 0.999683 -74.17 0.025033 29.796
8.81140000 0.025038 1.8606 0.999683 -74.17 0.999683 -74.17 0.025040 29.805
8.81160000 0.025045 1.8474 0.999683 -74.17 0.999683 -74.17 0.025047 29.814
8.81180000 0.025053 1.8341 0.999682 -74.17 0.999682 -74.17 0.025055 29.823
8.81200000 0.025060 1.8207 0.999682 -74.18 0.999682 -74.18 0.025062 29.832
8.81220000 0.025068 1.8073 0.999682 -74.18 0.999682 -74.18 0.025070 29.841
8.81240000 0.025075 1.7939 0.999682 -74.18 0.999682 -74.18 0.025078 29.850
8.81260000 0.025083 1.7804 0.999682 -74.18 0.999682 -74.18 0.025085 29.859
8.81280000 0.025091 1.7669 0.999681 -74.19 0.999681 -74.19 0.025093 29.868
8.81300000 0.025098 1.7533 0.999681 -74.19 0.999681 -74.19 0.025100 29.877
8.81320000 0.025106 1.7397 0.999681 -74.19 0.999681 -74.19 0.025108 29.886
8.81340000 0.025114 1.7260 0.999681 -74.19 0.999681 -74.19 0.025116 29.895
8.81360000 0.025122 1.7123 0.999681 -74.19 0.999681 -74.19 0.025124 29.904
8.81380000 0.025129 1.6986 0.999680 -74.20 0.999680 -74.20 0.025131 29.914
8.81400000 0.025137 1.6848 0.999680 -74.20 0.999680 -74.20 0.025139 29.923
8.81420000 0.025145 1.6709 0.999680 -74.20 0.999680 -74.20 0.025147 29.932
8.81440000 0.025153 1.6571 0.999680 -74.20 0.999680 -74.20 0.025155 29.942
8.81460000 0.025161 1.6431 0.999680 -74.21 0.999680 -74.21 0.025163 29.951
8.81480000 0.025169 1.6292 0.999679 -74.21 0.999679 -74.21 0.025171 29.961
8.81500000 0.025177 1.6151 0.999679 -74.21 0.999679 -74.21 0.025179 29.970
8.81520000 0.025185 1.6011 0.999679 -74.21 0.999679 -74.21 0.025187 29.980
8.81540000 0.025193 1.5870 0.999679 -74.21 0.999679 -74.21 0.025195 29.989
8.81560000 0.025201 1.5728 0.999679 -74.22 0.999679 -74.22 0.025203 29.999
8.81580000 0.025209 1.5586 0.999678 -74.22 0.999678 -74.22 0.025211 30.009
8.81600000 0.025217 1.5443 0.999678 -74.22 0.999678 -74.22 0.025219 30.018
8.81620000 0.025226 1.5300 0.999678 -74.22 0.999678 -74.22 0.025228 30.028
8.81640000 0.025234 1.5157 0.999678 -74.23 0.999678 -74.23 0.025236 30.038
8.81660000 0.025242 1.5013 0.999677 -74.23 0.999677 -74.23 0.025244 30.048
8.81680000 0.025250 1.4868 0.999677 -74.23 0.999677 -74.23 0.025253 30.058
8.81700000 0.025259 1.4723 0.999677 -74.23 0.999677 -74.23 0.025261 30.068
8.81720000 0.025267 1.4578 0.999677 -74.23 0.999677 -74.23 0.025269 30.078
8.81740000 0.025276 1.4432 0.999677 -74.24 0.999677 -74.24 0.025278 30.088
8.81760000 0.025284 1.4286 0.999676 -74.24 0.999676 -74.24 0.025286 30.098
8.81780000 0.025293 1.4139 0.999676 -74.24 0.999676 -74.24 0.025295 30.108
8.81800000 0.025301 1.3991 0.999676 -74.24 0.999676 -74.24 0.025303 30.118
8.81820000 0.025310 1.3843 0.999676 -74.25 0.999676 -74.25 0.025312 30.128
8.81840000 0.025318 1.3695 0.999675 -74.25 0.999675 -74.25 0.025321 30.138
8.81860000 0.025327 1.3546 0.999675 -74.25 0.999675 -74.25 0.025329 30.149
8.81880000 0.025336 1.3396 0.999675 -74.25 0.999675 -74.25 0.025338 30.159
8.81900000 0.025345 1.3246 0.999675 -74.26 0.999675 -74.26 0.025347 30.170
8.81920000 0.025353 1.3096 0.999675 -74.26 0.999675 -74.26 0.025356 30.180
8.81940000 0.025362 1.2944 0.999674 -74.26 0.999674 -74.26 0.025365 30.190
8.81960000 0.025371 1.2793 0.999674 -74.26 0.999674 -74.26 0.025373 30.201
8.81980000 0.025380 1.2641 0.999674 -74.26 0.999674 -74.26 0.025382 30.212
8.82000000 0.025389 1.2488 0.999674 -74.27 0.999674 -74.27 0.025391 30.222
8.82020000 0.025398 1.2335 0.999673 -74.27 0.999673 -74.27 0.025400 30.233
8.82040000 0.025407 1.2181 0.999673 -74.27 0.999673 -74.27 0.025410 30.244
8.82060000 0.025416 1.2027 0.999673 -74.27 0.999673 -74.27 0.025419 30.254
8.82080000 0.025426 1.1872 0.999673 -74.28 0.999673 -74.28 0.025428 30.265
8.82100000 0.025435 1.1716 0.999672 -74.28 0.999672 -74.28 0.025437 30.276
8.82120000 0.025444 1.1560 0.999672 -74.28 0.999672 -74.28 0.025446 30.287
8.82140000 0.025453 1.1404 0.999672 -74.28 0.999672 -74.28 0.025456 30.298
8.82160000 0.025463 1.1247 0.999672 -74.29 0.999672 -74.29 0.025465 30.309
8.82180000 0.025472 1.1089 0.999671 -74.29 0.999671 -74.29 0.025474 30.320
8.82200000 0.025481 1.0931 0.999671 -74.29 0.999671 -74.29 0.025484 30.331
8.82220000 0.025491 1.0772 0.999671 -74.29 0.999671 -74.29 0.025493 30.342
8.82240000 0.025500 1.0613 0.999671 -74.29 0.999671 -74.29 0.025503 30.354
8.82260000 0.025510 1.0453 0.999670 -74.30 0.999670 -74.30 0.025512 30.365
8.82280000 0.025520 1.0292 0.999670 -74.30 0.999670 -74.30 0.025522 30.376
8.82300000 0.025529 1.0131 0.999670 -74.30 0.999670 -74.30 0.025532 30.388
8.82320000 0.025539 0.9969 0.999670 -74.30 0.999670 -74.30 0.025541 30.399
8.82340000 0.025549 0.9807 0.999669 -74.31 0.999669 -74.31 0.025551 30.411
8.82360000 0.025558 0.9644 0.999669 -74.31 0.999669 -74.31 0.025561 30.422
8.82380000 0.025568 0.9481 0.999669 -74.31 0.999669 -74.31 0.025571 30.434
8.82400000 0.025578 0.9316 0.999669 -74.31 0.999669 -74.31 0.025581 30.445
8.82420000 0.025588 0.9152 0.999668 -74.32 0.999668 -74.32 0.025591 30.457
8.82440000 0.025598 0.8986 0.999668 -74.32 0.999668 -74.32 0.025601 30.469
8.82460000 0.025608 0.8820 0.999668 -74.32 0.999668 -74.32 0.025611 30.481
8.82480000 0.025618 0.8654 0.999668 -74.32 0.999668 -74.32 0.025621 30.492
8.82500000 0.025628 0.8486 0.999667 -74.33 0.999667 -74.33 0.025631 30.504
8.82520000 0.025639 0.8319 0.999667 -74.33 0.999667 -74.33 0.025641 30.516
8.82540000 0.025649 0.8150 0.999667 -74.33 0.999667 -74.33 0.025651 30.528
8.82560000 0.025659 0.7981 0.999667 -74.33 0.999667 -74.33 0.025662 30.541
8.82580000 0.025670 0.7811 0.999666 -74.34 0.999666 -74.34 0.025672 30.553
8.82600000 0.025680 0.7641 0.999666 -74.34 0.999666 -74.34 0.025683 30.565
8.82620000 0.025691 0.7470 0.999666 -74.34 0.999666 -74.34 0.025693 30.577
8.82640000 0.025701 0.7298 0.999665 -74.34 0.999665 -74.34 0.025704 30.589
8.82660000 0.025712 0.7126 0.999665 -74.34 0.999665 -74.34 0.025714 30.602
8.82680000 0.025722 0.6952 0.999665 -74.35 0.999665 -74.35 0.025725 30.614
8.82700000 0.025733 0.6779 0.999665 -74.35 0.999665 -74.35 0.025735 30.627
8.82720000 0.025744 0.6604 0.999664 -74.35 0.999664 -74.35 0.025746 30.639
8.82740000 0.025755 0.6429 0.999664 -74.35 0.999664 -74.35 0.025757 30.652
8.82760000 0.025765 0.6254 0.999664 -74.36 0.999664 -74.36 0.025768 30.665
8.82780000 0.025776 0.6077 0.999663 -74.36 0.999663 -74.36 0.025779 30.677
8.82800000 0.025787 0.5900 0.999663 -74.36 0.999663 -74.36 0.025790 30.690
8.82820000 0.025798 0.5722 0.999663 -74.36 0.999663 -74.36 0.025801 30.703
8.82840000 0.025809 0.5544 0.999663 -74.37 0.999663 -74.37 0.025812 30.716
8.82860000 0.025821 0.5364 0.999662 -74.37 0.999662 -74.37 0.025823 30.729
8.82880000 0.025832 0.5184 0.999662 -74.37 0.999662 -74.37 0.025834 30.742
8.82900000 0.025843 0.5004 0.999662 -74.37 0.999662 -74.37 0.025846 30.755
8.82920000 0.025854 0.4822 0.999661 -74.38 0.999661 -74.38 0.025857 30.768
8.82940000 0.025866 0.4640 0.999661 -74.38 0.999661 -74.38 0.025868 30.782
8.82960000 0.025877 0.4457 0.999661 -74.38 0.999661 -74.38 0.025880 30.795
8.82980000 0.025889 0.4274 0.999660 -74.38 0.999660 -74.38 0.025891 30.808
8.83000000 0.025900 0.4090 0.999660 -74.39 0.999660 -74.39 0.025903 30.822
8.83020000 0.025912 0.3904 0.999660 -74.39 0.999660 -74.39 0.025915 30.835
8.83040000 0.025924 0.3719 0.999660 -74.39 0.999660 -74.39 0.025926 30.849
8.83060000 0.025935 0.3532 0.999659 -74.39 0.999659 -74.39 0.025938 30.862
8.83080000 0.025947 0.3345 0.999659 -74.40 0.999659 -74.40 0.025950 30.876
8.83100000 0.025959 0.3157 0.999659 -74.40 0.999659 -74.40 0.025962 30.890
8.83120000 0.025971 0.2968 0.999658 -74.40 0.999658 -74.40 0.025974 30.904
8.83140000 0.025983 0.2778 0.999658 -74.40 0.999658 -74.40 0.025986 30.918
8.83160000 0.025995 0.2588 0.999658 -74.41 0.999658 -74.41 0.025998 30.932
8.83180000 0.026008 0.2397 0.999657 -74.41 0.999657 -74.41 0.026010 30.946
8.83200000 0.026020 0.2205 0.999657 -74.41 0.999657 -74.41 0.026022 30.960
8.83220000 0.026032 0.2012 0.999657 -74.41 0.999657 -74.41 0.026035 30.974
8.83240000 0.026044 0.1818 0.999656 -74.42 0.999656 -74.42 0.026047 30.988
8.83260000 0.026057 0.1624 0.999656 -74.42 0.999656 -74.42 0.026060 31.003
8.83280000 0.026069 0.1429 0.999656 -74.42 0.999656 -74.42 0.026072 31.017
8.83300000 0.026082 0.1233 0.999655 -74.42 0.999655 -74.42 0.026085 31.032
8.83320000 0.026095 0.1036 0.999655 -74.43 0.999655 -74.43 0.026097 31.046
8.83340000 0.026107 0.0838 0.999655 -74.43 0.999655 -74.43 0.026110 31.061
8.83360000 0.026120 0.0640 0.999654 -74.43 0.999654 -74.43 0.026123 31.075
8.83380000 0.026133 0.0440 0.999654 -74.43 0.999654 -74.43 0.026136 31.090
8.83400000 0.026146 0.0240 0.999654 -74.44 0.999654 -74.44 0.026149 31.105
8.83420000 0.026159 0.0039 0.999653 -74.44 0.999653 -74.44 0.026162 31.120
8.83440000 0.026172 -0.016 0.999653 -74.44 0.999653 -74.44 0.026175 31.135
8.83460000 0.026185 -0.037 0.999653 -74.44 0.999653 -74.44 0.026188 31.150
8.83480000 0.026199 -0.057 0.999652 -74.45 0.999652 -74.45 0.026201 31.165
8.83500000 0.026212 -0.077 0.999652 -74.45 0.999652 -74.45 0.026215 31.180
8.83520000 0.026225 -0.098 0.999651 -74.45 0.999651 -74.45 0.026228 31.196
8.83540000 0.026239 -0.119 0.999651 -74.46 0.999651 -74.46 0.026242 31.211
8.83560000 0.026252 -0.139 0.999651 -74.46 0.999651 -74.46 0.026255 31.227
8.83580000 0.026266 -0.160 0.999650 -74.46 0.999650 -74.46 0.026269 31.242
8.83600000 0.026280 -0.181 0.999650 -74.46 0.999650 -74.46 0.026283 31.258
8.83620000 0.026294 -0.202 0.999650 -74.47 0.999650 -74.47 0.026297 31.273
8.83640000 0.026308 -0.223 0.999649 -74.47 0.999649 -74.47 0.026310 31.289
8.83660000 0.026322 -0.244 0.999649 -74.47 0.999649 -74.47 0.026324 31.305
8.83680000 0.026336 -0.266 0.999649 -74.47 0.999649 -74.47 0.026339 31.321
8.83700000 0.026350 -0.287 0.999648 -74.48 0.999648 -74.48 0.026353 31.337
8.83720000 0.026364 -0.308 0.999648 -74.48 0.999648 -74.48 0.026367 31.353
8.83740000 0.026378 -0.330 0.999647 -74.48 0.999647 -74.48 0.026381 31.369
8.83760000 0.026393 -0.352 0.999647 -74.48 0.999647 -74.48 0.026396 31.386
8.83780000 0.026407 -0.373 0.999647 -74.49 0.999647 -74.49 0.026410 31.402
8.83800000 0.026422 -0.395 0.999646 -74.49 0.999646 -74.49 0.026425 31.419
8.83820000 0.026437 -0.417 0.999646 -74.49 0.999646 -74.49 0.026440 31.435
8.83840000 0.026451 -0.439 0.999645 -74.49 0.999645 -74.49 0.026454 31.452
8.83860000 0.026466 -0.461 0.999645 -74.50 0.999645 -74.50 0.026469 31.468
8.83880000 0.026481 -0.484 0.999645 -74.50 0.999645 -74.50 0.026484 31.485
8.83900000 0.026496 -0.506 0.999644 -74.50 0.999644 -74.50 0.026499 31.502
8.83920000 0.026511 -0.528 0.999644 -74.51 0.999644 -74.51 0.026514 31.519
8.83940000 0.026527 -0.551 0.999643 -74.51 0.999643 -74.51 0.026530 31.536
8.83960000 0.026542 -0.574 0.999643 -74.51 0.999643 -74.51 0.026545 31.553
8.83980000 0.026557 -0.596 0.999642 -74.51 0.999642 -74.51 0.026560 31.571
8.84000000 0.026573 -0.619 0.999642 -74.52 0.999642 -74.52 0.026576 31.588
8.84020000 0.026588 -0.642 0.999642 -74.52 0.999642 -74.52 0.026592 31.605
8.84040000 0.026604 -0.665 0.999641 -74.52 0.999641 -74.52 0.026607 31.623
8.84060000 0.026620 -0.689 0.999641 -74.52 0.999641 -74.52 0.026623 31.641
8.84080000 0.026636 -0.712 0.999640 -74.53 0.999640 -74.53 0.026639 31.658
8.84100000 0.026652 -0.735 0.999640 -74.53 0.999640 -74.53 0.026655 31.676
8.84120000 0.026668 -0.759 0.999639 -74.53 0.999639 -74.53 0.026671 31.694
8.84140000 0.026684 -0.782 0.999639 -74.54 0.999639 -74.54 0.026688 31.712
8.84160000 0.026701 -0.806 0.999639 -74.54 0.999639 -74.54 0.026704 31.730
8.84180000 0.026717 -0.830 0.999638 -74.54 0.999638 -74.54 0.026720 31.749
8.84200000 0.026734 -0.854 0.999638 -74.54 0.999638 -74.54 0.026737 31.767
8.84220000 0.026750 -0.878 0.999637 -74.55 0.999637 -74.55 0.026754 31.785
8.84240000 0.026767 -0.902 0.999637 -74.55 0.999637 -74.55 0.026770 31.804
8.84260000 0.026784 -0.927 0.999636 -74.55 0.999636 -74.55 0.026787 31.822
8.84280000 0.026801 -0.951 0.999636 -74.56 0.999636 -74.56 0.026804 31.841
8.84300000 0.026818 -0.976 0.999635 -74.56 0.999635 -74.56 0.026821 31.860
8.84320000 0.026835 -1.000 0.999635 -74.56 0.999635 -74.56 0.026839 31.879
8.84340000 0.026853 -1.025 0.999634 -74.56 0.999634 -74.56 0.026856 31.898
8.84360000 0.026870 -1.050 0.999634 -74.57 0.999634 -74.57 0.026873 31.917
8.84380000 0.026888 -1.075 0.999633 -74.57 0.999633 -74.57 0.026891 31.936
8.84400000 0.026905 -1.100 0.999633 -74.57 0.999633 -74.57 0.026909 31.956
8.84420000 0.026923 -1.126 0.999632 -74.58 0.999632 -74.58 0.026927 31.975
8.84440000 0.026941 -1.151 0.999632 -74.58 0.999632 -74.58 0.026945 31.995
8.84460000 0.026959 -1.177 0.999631 -74.58 0.999631 -74.58 0.026963 32.015
8.84480000 0.026977 -1.202 0.999631 -74.58 0.999631 -74.58 0.026981 32.034
8.84500000 0.026996 -1.228 0.999630 -74.59 0.999630 -74.59 0.026999 32.054
8.84520000 0.027014 -1.254 0.999630 -74.59 0.999630 -74.59 0.027018 32.074
8.84540000 0.027033 -1.280 0.999629 -74.59 0.999629 -74.59 0.027036 32.095
8.84560000 0.027051 -1.306 0.999629 -74.60 0.999629 -74.60 0.027055 32.115
8.84580000 0.027070 -1.333 0.999628 -74.60 0.999628 -74.60 0.027074 32.135
8.84600000 0.027089 -1.359 0.999628 -74.60 0.999628 -74.60 0.027093 32.156
8.84620000 0.027108 -1.386 0.999627 -74.60 0.999627 -74.60 0.027112 32.176
8.84640000 0.027127 -1.413 0.999627 -74.61 0.999627 -74.61 0.027131 32.197
8.84660000 0.027147 -1.439 0.999626 -74.61 0.999626 -74.61 0.027150 32.218
8.84680000 0.027166 -1.466 0.999626 -74.61 0.999626 -74.61 0.027170 32.239
8.84700000 0.027186 -1.494 0.999625 -74.62 0.999625 -74.62 0.027190 32.260
8.84720000 0.027206 -1.521 0.999625 -74.62 0.999625 -74.62 0.027209 32.281
8.84740000 0.027226 -1.548 0.999624 -74.62 0.999624 -74.62 0.027229 32.302
8.84760000 0.027246 -1.576 0.999623 -74.63 0.999623 -74.63 0.027249 32.324
8.84780000 0.027266 -1.604 0.999623 -74.63 0.999623 -74.63 0.027270 32.346
8.84800000 0.027286 -1.631 0.999622 -74.63 0.999622 -74.63 0.027290 32.367
8.84820000 0.027307 -1.660 0.999622 -74.63 0.999622 -74.63 0.027311 32.389
8.84840000 0.027327 -1.688 0.999621 -74.64 0.999621 -74.64 0.027331 32.411
8.84860000 0.027348 -1.716 0.999621 -74.64 0.999621 -74.64 0.027352 32.433
8.84880000 0.027369 -1.744 0.999620 -74.64 0.999620 -74.64 0.027373 32.455
8.84900000 0.027390 -1.773 0.999619 -74.65 0.999619 -74.65 0.027394 32.478
8.84920000 0.027412 -1.802 0.999619 -74.65 0.999619 -74.65 0.027415 32.500
8.84940000 0.027433 -1.831 0.999618 -74.65 0.999618 -74.65 0.027437 32.523
8.84960000 0.027455 -1.860 0.999617 -74.66 0.999617 -74.66 0.027458 32.546
8.84980000 0.027476 -1.889 0.999617 -74.66 0.999617 -74.66 0.027480 32.569
8.85000000 0.027498 -1.919 0.999616 -74.66 0.999616 -74.66 0.027502 32.592
8.85020000 0.027520 -1.948 0.999616 -74.67 0.999616 -74.67 0.027524 32.615
8.85040000 0.027543 -1.978 0.999615 -74.67 0.999615 -74.67 0.027546 32.638
8.85060000 0.027565 -2.008 0.999614 -74.67 0.999614 -74.67 0.027569 32.662
8.85080000 0.027588 -2.038 0.999614 -74.68 0.999614 -74.68 0.027592 32.685
8.85100000 0.027610 -2.068 0.999613 -74.68 0.999613 -74.68 0.027614 32.709
8.85120000 0.027633 -2.098 0.999612 -74.68 0.999612 -74.68 0.027637 32.733
8.85140000 0.027656 -2.129 0.999612 -74.69 0.999612 -74.69 0.027660 32.757
8.85160000 0.027680 -2.160 0.999611 -74.69 0.999611 -74.69 0.027684 32.781
8.85180000 0.027703 -2.191 0.999610 -74.69 0.999610 -74.69 0.027707 32.805
8.85200000 0.027727 -2.222 0.999610 -74.69 0.999610 -74.69 0.027731 32.830
8.85220000 0.027751 -2.253 0.999609 -74.70 0.999609 -74.70 0.027755 32.854
8.85240000 0.027775 -2.284 0.999608 -74.70 0.999608 -74.70 0.027779 32.879
8.85260000 0.027799 -2.316 0.999608 -74.70 0.999608 -74.70 0.027803 32.904
8.85280000 0.027823 -2.348 0.999607 -74.71 0.999607 -74.71 0.027828 32.929
8.85300000 0.027848 -2.380 0.999606 -74.71 0.999606 -74.71 0.027852 32.955
8.85320000 0.027873 -2.412 0.999606 -74.71 0.999606 -74.71 0.027877 32.980
8.85340000 0.027898 -2.444 0.999605 -74.72 0.999605 -74.72 0.027902 33.006
8.85360000 0.027923 -2.477 0.999604 -74.72 0.999604 -74.72 0.027927 33.031
8.85380000 0.027948 -2.509 0.999603 -74.72 0.999603 -74.72 0.027953 33.057
8.85400000 0.027974 -2.542 0.999603 -74.73 0.999603 -74.73 0.027978 33.083
8.85420000 0.028000 -2.575 0.999602 -74.73 0.999602 -74.73 0.028004 33.109
8.85440000 0.028026 -2.609 0.999601 -74.74 0.999601 -74.74 0.028030 33.136
8.85460000 0.028052 -2.642 0.999600 -74.74 0.999600 -74.74 0.028057 33.162
8.85480000 0.028079 -2.676 0.999600 -74.74 0.999600 -74.74 0.028083 33.189
8.85500000 0.028105 -2.710 0.999599 -74.75 0.999599 -74.75 0.028110 33.216
8.85520000 0.028132 -2.744 0.999598 -74.75 0.999598 -74.75 0.028137 33.243
8.85540000 0.028159 -2.778 0.999597 -74.75 0.999597 -74.75 0.028164 33.270
8.85560000 0.028187 -2.813 0.999596 -74.76 0.999596 -74.76 0.028191 33.298
8.85580000 0.028214 -2.847 0.999596 -74.76 0.999596 -74.76 0.028219 33.325
8.85600000 0.028242 -2.882 0.999595 -74.76 0.999595 -74.76 0.028247 33.353
8.85620000 0.028270 -2.917 0.999594 -74.77 0.999594 -74.77 0.028275 33.381
8.85640000 0.028299 -2.953 0.999593 -74.77 0.999593 -74.77 0.028303 33.409
8.85660000 0.028327 -2.988 0.999592 -74.77 0.999592 -74.77 0.028332 33.437
8.85680000 0.028356 -3.024 0.999591 -74.78 0.999591 -74.78 0.028361 33.466
8.85700000 0.028385 -3.060 0.999591 -74.78 0.999591 -74.78 0.028390 33.495
8.85720000 0.028414 -3.096 0.999590 -74.78 0.999590 -74.78 0.028419 33.523
8.85740000 0.028444 -3.133 0.999589 -74.79 0.999589 -74.79 0.028449 33.552
8.85760000 0.028474 -3.169 0.999588 -74.79 0.999588 -74.79 0.028479 33.582
8.85780000 0.028504 -3.206 0.999587 -74.80 0.999587 -74.80 0.028509 33.611
8.85800000 0.028534 -3.243 0.999586 -74.80 0.999586 -74.80 0.028539 33.641
8.85820000 0.028565 -3.281 0.999585 -74.80 0.999585 -74.80 0.028570 33.671
8.85840000 0.028596 -3.318 0.999584 -74.81 0.999584 -74.81 0.028601 33.701
8.85860000 0.028627 -3.356 0.999583 -74.81 0.999583 -74.81 0.028632 33.731
8.85880000 0.028658 -3.394 0.999583 -74.81 0.999583 -74.81 0.028663 33.761
8.85900000 0.028690 -3.432 0.999582 -74.82 0.999582 -74.82 0.028695 33.792
8.85920000 0.028722 -3.471 0.999581 -74.82 0.999581 -74.82 0.028727 33.823
8.85940000 0.028755 -3.510 0.999580 -74.83 0.999580 -74.83 0.028760 33.854
8.85960000 0.028787 -3.549 0.999579 -74.83 0.999579 -74.83 0.028792 33.885
8.85980000 0.028820 -3.588 0.999578 -74.83 0.999578 -74.83 0.028825 33.917
8.86000000 0.028853 -3.628 0.999577 -74.84 0.999577 -74.84 0.028858 33.948
8.86020000 0.028887 -3.667 0.999576 -74.84 0.999576 -74.84 0.028892 33.980
8.86040000 0.028921 -3.707 0.999575 -74.84 0.999575 -74.84 0.028926 34.012
8.86060000 0.028955 -3.748 0.999574 -74.85 0.999574 -74.85 0.028960 34.045
8.86080000 0.028989 -3.788 0.999573 -74.85 0.999573 -74.85 0.028995 34.077
8.86100000 0.029024 -3.829 0.999572 -74.86 0.999572 -74.86 0.029029 34.110
8.86120000 0.029059 -3.870 0.999571 -74.86 0.999571 -74.86 0.029065 34.143
8.86140000 0.029095 -3.912 0.999569 -74.86 0.999569 -74.86 0.029100 34.176
8.86160000 0.029131 -3.953 0.999568 -74.87 0.999568 -74.87 0.029136 34.210
8.86180000 0.029167 -3.995 0.999567 -74.87 0.999567 -74.87 0.029172 34.244
8.86200000 0.029203 -4.038 0.999566 -74.88 0.999566 -74.88 0.029209 34.278
8.86220000 0.029240 -4.080 0.999565 -74.88 0.999565 -74.88 0.029246 34.312
8.86240000 0.029278 -4.123 0.999564 -74.88 0.999564 -74.88 0.029283 34.346
8.86260000 0.029315 -4.166 0.999563 -74.89 0.999563 -74.89 0.029321 34.381
8.86280000 0.029353 -4.209 0.999562 -74.89 0.999562 -74.89 0.029359 34.416
8.86300000 0.029392 -4.253 0.999560 -74.90 0.999560 -74.90 0.029397 34.451
8.86320000 0.029430 -4.297 0.999559 -74.90 0.999559 -74.90 0.029436 34.487
8.86340000 0.029470 -4.341 0.999558 -74.91 0.999558 -74.91 0.029475 34.522
8.86360000 0.029509 -4.386 0.999557 -74.91 0.999557 -74.91 0.029515 34.558
8.86380000 0.029549 -4.431 0.999556 -74.91 0.999556 -74.91 0.029555 34.594
8.86400000 0.029589 -4.476 0.999554 -74.92 0.999554 -74.92 0.029595 34.631
8.86420000 0.029630 -4.522 0.999553 -74.92 0.999553 -74.92 0.029636 34.668
8.86440000 0.029671 -4.568 0.999552 -74.93 0.999552 -74.93 0.029677 34.705
8.86460000 0.029713 -4.614 0.999551 -74.93 0.999551 -74.93 0.029719 34.742
8.86480000 0.029755 -4.660 0.999549 -74.94 0.999549 -74.94 0.029761 34.779
8.86500000 0.029797 -4.707 0.999548 -74.94 0.999548 -74.94 0.029803 34.817
8.86520000 0.029840 -4.754 0.999547 -74.94 0.999547 -74.94 0.029846 34.855
8.86540000 0.029884 -4.802 0.999545 -74.95 0.999545 -74.95 0.029890 34.894
8.86560000 0.029928 -4.850 0.999544 -74.95 0.999544 -74.95 0.029934 34.932
8.86580000 0.029972 -4.898 0.999543 -74.96 0.999543 -74.96 0.029978 34.971
8.86600000 0.030017 -4.947 0.999541 -74.96 0.999541 -74.96 0.030023 35.011
8.86620000 0.030062 -4.996 0.999540 -74.97 0.999540 -74.97 0.030068 35.050
8.86640000 0.030108 -5.045 0.999538 -74.97 0.999538 -74.97 0.030114 35.090
8.86660000 0.030154 -5.095 0.999537 -74.98 0.999537 -74.98 0.030160 35.130
8.86680000 0.030201 -5.145 0.999535 -74.98 0.999535 -74.98 0.030207 35.171
8.86700000 0.030248 -5.195 0.999534 -74.99 0.999534 -74.99 0.030255 35.211
8.86720000 0.030296 -5.246 0.999532 -74.99 0.999532 -74.99 0.030303 35.252
8.86740000 0.030344 -5.297 0.999531 -75.00 0.999531 -75.00 0.030351 35.294
8.86760000 0.030393 -5.349 0.999529 -75.00 0.999529 -75.00 0.030400 35.335
8.86780000 0.030443 -5.400 0.999528 -75.01 0.999528 -75.01 0.030449 35.377
8.86800000 0.030493 -5.453 0.999526 -75.01 0.999526 -75.01 0.030499 35.420
8.86820000 0.030543 -5.506 0.999525 -75.02 0.999525 -75.02 0.030550 35.462
8.86840000 0.030594 -5.559 0.999523 -75.02 0.999523 -75.02 0.030601 35.505
8.86860000 0.030646 -5.612 0.999521 -75.03 0.999521 -75.03 0.030653 35.549
8.86880000 0.030699 -5.666 0.999520 -75.03 0.999520 -75.03 0.030705 35.592
8.86900000 0.030752 -5.721 0.999518 -75.04 0.999518 -75.04 0.030758 35.636
8.86920000 0.030805 -5.775 0.999516 -75.04 0.999516 -75.04 0.030812 35.680
8.86940000 0.030859 -5.831 0.999514 -75.05 0.999514 -75.05 0.030866 35.725
8.86960000 0.030914 -5.886 0.999513 -75.05 0.999513 -75.05 0.030921 35.770
8.86980000 0.030970 -5.942 0.999511 -75.06 0.999511 -75.06 0.030977 35.816
8.87000000 0.031026 -5.999 0.999509 -75.06 0.999509 -75.06 0.031033 35.861
8.87020000 0.031083 -6.056 0.999507 -75.07 0.999507 -75.07 0.031090 35.907
8.87040000 0.031140 -6.113 0.999505 -75.07 0.999505 -75.07 0.031148 35.954
8.87060000 0.031199 -6.171 0.999503 -75.08 0.999503 -75.08 0.031206 36.001
8.87080000 0.031257 -6.230 0.999502 -75.08 0.999502 -75.08 0.031265 36.048
8.87100000 0.031317 -6.288 0.999500 -75.09 0.999500 -75.09 0.031325 36.095
8.87120000 0.031378 -6.348 0.999498 -75.09 0.999498 -75.09 0.031385 36.143
8.87140000 0.031439 -6.408 0.999496 -75.10 0.999496 -75.10 0.031447 36.192
8.87160000 0.031501 -6.468 0.999494 -75.11 0.999494 -75.11 0.031509 36.241
8.87180000 0.031564 -6.529 0.999491 -75.11 0.999491 -75.11 0.031571 36.290
8.87200000 0.031627 -6.590 0.999489 -75.12 0.999489 -75.12 0.031635 36.339
8.87220000 0.031691 -6.652 0.999487 -75.12 0.999487 -75.12 0.031699 36.389
8.87240000 0.031757 -6.714 0.999485 -75.13 0.999485 -75.13 0.031765 36.440
8.87260000 0.031823 -6.777 0.999483 -75.13 0.999483 -75.13 0.031831 36.490
8.87280000 0.031890 -6.841 0.999481 -75.14 0.999481 -75.14 0.031898 36.542
8.87300000 0.031957 -6.904 0.999478 -75.15 0.999478 -75.15 0.031966 36.593
8.87320000 0.032026 -6.969 0.999476 -75.15 0.999476 -75.15 0.032034 36.645
8.87340000 0.032096 -7.034 0.999474 -75.16 0.999474 -75.16 0.032104 36.698
8.87360000 0.032166 -7.100 0.999471 -75.16 0.999471 -75.16 0.032175 36.751
8.87380000 0.032238 -7.166 0.999469 -75.17 0.999469 -75.17 0.032246 36.804
8.87400000 0.032310 -7.232 0.999467 -75.18 0.999467 -75.18 0.032319 36.858
8.87420000 0.032384 -7.300 0.999464 -75.18 0.999464 -75.18 0.032392 36.912
8.87440000 0.032458 -7.368 0.999462 -75.19 0.999462 -75.19 0.032467 36.967
8.87450174 0.032496 -7.402 0.999460 -75.19 0.999460 -75.19 0.032505 36.995
8.87460000 0.032534 -7.436 0.999459 -75.20 0.999459 -75.20 0.032542 37.022
8.87480000 0.032610 -7.505 0.999456 -75.20 0.999456 -75.20 0.032619 37.078
8.87500000 0.032688 -7.575 0.999454 -75.21 0.999454 -75.21 0.032697 37.134
8.87518740 0.032761 -7.641 0.999451 -75.22 0.999451 -75.22 0.032771 37.187
8.87520000 0.032766 -7.645 0.999451 -75.22 0.999451 -75.22 0.032776 37.191
8.87540000 0.032846 -7.716 0.999448 -75.22 0.999448 -75.22 0.032856 37.248
8.87560000 0.032927 -7.788 0.999445 -75.23 0.999445 -75.23 0.032937 37.306
8.87580000 0.033009 -7.860 0.999443 -75.24 0.999443 -75.24 0.033019 37.364
8.87585735 0.033033 -7.881 0.999442 -75.24 0.999442 -75.24 0.033043 37.381
8.87600000 0.033093 -7.933 0.999440 -75.24 0.999440 -75.24 0.033102 37.423
8.87620000 0.033177 -8.007 0.999437 -75.25 0.999437 -75.25 0.033187 37.482
8.87640000 0.033263 -8.081 0.999434 -75.26 0.999434 -75.26 0.033273 37.542
8.87651194 0.033312 -8.123 0.999432 -75.26 0.999432 -75.26 0.033322 37.575
8.87660000 0.033350 -8.156 0.999431 -75.27 0.999431 -75.27 0.033360 37.602
8.87680000 0.033439 -8.232 0.999428 -75.27 0.999428 -75.27 0.033449 37.663
8.87700000 0.033528 -8.308 0.999424 -75.28 0.999424 -75.28 0.033538 37.724
8.87715154 0.033597 -8.367 0.999422 -75.29 0.999422 -75.29 0.033607 37.771
8.87720000 0.033620 -8.385 0.999421 -75.29 0.999421 -75.29 0.033630 37.786
8.87740000 0.033712 -8.463 0.999418 -75.29 0.999418 -75.29 0.033722 37.848