! Sonnet Data File
! From: emgraph Version : 16.52
! From Project: Resonator2_cp
! Data is De-embedded 
! Data File Written: 10/07/2017 13:01:14
!< HDATE 10/07/2017 09:22:27
!< MDATE 10/07/2017 09:22:27
!< PARAMS
!< gap = 16.0
!< Length = 400.0
!< Pwid1 = 2000.0
!< Pwid2 = 2000.0
!< Air_gap = 18.0
!< Width = 30.0
!< END PARAMS
# GHZ S MA R 43.07000
8.80000000 0.029654 2.0506 0.999556 -73.75 0.999556 -73.75 0.029656 30.455
!< P1 F=8.8 Eeff=(5.15948137 -2.2525e-5) Z0=(43.0696006 9.54461e-5) R=0.0 C=0.0 
!< P2 F=8.8 Eeff=(5.15948137 -2.2525e-5) Z0=(43.0696006 9.54461e-5) R=0.0 C=0.0 
8.80020000 0.029664 2.0383 0.999556 -73.75 0.999556 -73.75 0.029666 30.463
8.80040000 0.029674 2.0259 0.999556 -73.75 0.999556 -73.75 0.029676 30.470
8.80060000 0.029685 2.0135 0.999555 -73.76 0.999555 -73.76 0.029687 30.478
8.80080000 0.029695 2.0010 0.999555 -73.76 0.999555 -73.76 0.029697 30.486
8.80100000 0.029705 1.9885 0.999555 -73.76 0.999555 -73.76 0.029707 30.494
8.80120000 0.029716 1.9759 0.999554 -73.76 0.999554 -73.76 0.029718 30.501
8.80140000 0.029726 1.9634 0.999554 -73.77 0.999554 -73.77 0.029728 30.509
8.80160000 0.029737 1.9507 0.999554 -73.77 0.999554 -73.77 0.029739 30.517
8.80180000 0.029747 1.9381 0.999553 -73.77 0.999553 -73.77 0.029749 30.525
8.80200000 0.029758 1.9254 0.999553 -73.77 0.999553 -73.77 0.029760 30.533
8.80220000 0.029768 1.9127 0.999553 -73.78 0.999553 -73.78 0.029770 30.541
8.80240000 0.029779 1.8999 0.999553 -73.78 0.999553 -73.78 0.029781 30.549
8.80260000 0.029790 1.8871 0.999552 -73.78 0.999552 -73.78 0.029792 30.557
8.80280000 0.029800 1.8743 0.999552 -73.78 0.999552 -73.78 0.029803 30.565
8.80300000 0.029811 1.8614 0.999552 -73.78 0.999552 -73.78 0.029813 30.573
8.80320000 0.029822 1.8485 0.999551 -73.79 0.999551 -73.79 0.029824 30.581
8.80340000 0.029833 1.8356 0.999551 -73.79 0.999551 -73.79 0.029835 30.589
8.80360000 0.029844 1.8226 0.999551 -73.79 0.999551 -73.79 0.029846 30.598
8.80380000 0.029855 1.8095 0.999550 -73.79 0.999550 -73.79 0.029857 30.606
8.80400000 0.029866 1.7965 0.999550 -73.80 0.999550 -73.80 0.029868 30.614
8.80420000 0.029877 1.7834 0.999550 -73.80 0.999550 -73.80 0.029879 30.622
8.80440000 0.029888 1.7702 0.999549 -73.80 0.999549 -73.80 0.029890 30.631
8.80460000 0.029899 1.7571 0.999549 -73.80 0.999549 -73.80 0.029901 30.639
8.80480000 0.029910 1.7438 0.999549 -73.81 0.999549 -73.81 0.029913 30.647
8.80500000 0.029922 1.7306 0.999548 -73.81 0.999548 -73.81 0.029924 30.656
8.80520000 0.029933 1.7173 0.999548 -73.81 0.999548 -73.81 0.029935 30.664
8.80540000 0.029944 1.7040 0.999547 -73.81 0.999547 -73.81 0.029946 30.673
8.80560000 0.029956 1.6906 0.999547 -73.82 0.999547 -73.82 0.029958 30.681
8.80580000 0.029967 1.6772 0.999547 -73.82 0.999547 -73.82 0.029969 30.690
8.80600000 0.029979 1.6637 0.999546 -73.82 0.999546 -73.82 0.029981 30.699
8.80620000 0.029990 1.6502 0.999546 -73.82 0.999546 -73.82 0.029992 30.707
8.80640000 0.030002 1.6367 0.999546 -73.83 0.999546 -73.83 0.030004 30.716
8.80660000 0.030013 1.6231 0.999545 -73.83 0.999545 -73.83 0.030016 30.725
8.80680000 0.030025 1.6095 0.999545 -73.83 0.999545 -73.83 0.030027 30.733
8.80700000 0.030037 1.5958 0.999545 -73.83 0.999545 -73.83 0.030039 30.742
8.80720000 0.030049 1.5821 0.999544 -73.84 0.999544 -73.84 0.030051 30.751
8.80740000 0.030060 1.5683 0.999544 -73.84 0.999544 -73.84 0.030063 30.760
8.80760000 0.030072 1.5545 0.999544 -73.84 0.999544 -73.84 0.030075 30.769
8.80780000 0.030084 1.5407 0.999543 -73.84 0.999543 -73.84 0.030087 30.777
8.80800000 0.030096 1.5268 0.999543 -73.84 0.999543 -73.84 0.030099 30.786
8.80820000 0.030108 1.5129 0.999542 -73.85 0.999542 -73.85 0.030111 30.795
8.80840000 0.030120 1.4989 0.999542 -73.85 0.999542 -73.85 0.030123 30.804
8.80860000 0.030133 1.4849 0.999542 -73.85 0.999542 -73.85 0.030135 30.813
8.80880000 0.030145 1.4709 0.999541 -73.85 0.999541 -73.85 0.030147 30.823
8.80900000 0.030157 1.4568 0.999541 -73.86 0.999541 -73.86 0.030159 30.832
8.80920000 0.030169 1.4427 0.999541 -73.86 0.999541 -73.86 0.030172 30.841
8.80940000 0.030182 1.4285 0.999540 -73.86 0.999540 -73.86 0.030184 30.850
8.80960000 0.030194 1.4143 0.999540 -73.86 0.999540 -73.86 0.030196 30.859
8.80980000 0.030207 1.4000 0.999539 -73.87 0.999539 -73.87 0.030209 30.869
8.81000000 0.030219 1.3857 0.999539 -73.87 0.999539 -73.87 0.030222 30.878
8.81020000 0.030232 1.3713 0.999539 -73.87 0.999539 -73.87 0.030234 30.887
8.81040000 0.030244 1.3569 0.999538 -73.87 0.999538 -73.87 0.030247 30.897
8.81060000 0.030257 1.3424 0.999538 -73.88 0.999538 -73.88 0.030259 30.906
8.81080000 0.030270 1.3279 0.999538 -73.88 0.999538 -73.88 0.030272 30.916
8.81100000 0.030283 1.3134 0.999537 -73.88 0.999537 -73.88 0.030285 30.925
8.81120000 0.030296 1.2988 0.999537 -73.88 0.999537 -73.88 0.030298 30.935
8.81140000 0.030309 1.2842 0.999536 -73.89 0.999536 -73.89 0.030311 30.944
8.81160000 0.030322 1.2695 0.999536 -73.89 0.999536 -73.89 0.030324 30.954
8.81180000 0.030335 1.2547 0.999536 -73.89 0.999536 -73.89 0.030337 30.963
8.81200000 0.030348 1.2399 0.999535 -73.89 0.999535 -73.89 0.030350 30.973
8.81220000 0.030361 1.2251 0.999535 -73.90 0.999535 -73.90 0.030363 30.983
8.81240000 0.030374 1.2102 0.999534 -73.90 0.999534 -73.90 0.030377 30.993
8.81260000 0.030387 1.1953 0.999534 -73.90 0.999534 -73.90 0.030390 31.003
8.81280000 0.030401 1.1803 0.999533 -73.90 0.999533 -73.90 0.030403 31.012
8.81300000 0.030414 1.1653 0.999533 -73.91 0.999533 -73.91 0.030417 31.022
8.81320000 0.030428 1.1502 0.999533 -73.91 0.999533 -73.91 0.030430 31.032
8.81340000 0.030441 1.1351 0.999532 -73.91 0.999532 -73.91 0.030444 31.042
8.81360000 0.030455 1.1199 0.999532 -73.92 0.999532 -73.92 0.030457 31.052
8.81380000 0.030469 1.1047 0.999531 -73.92 0.999531 -73.92 0.030471 31.062
8.81400000 0.030482 1.0894 0.999531 -73.92 0.999531 -73.92 0.030485 31.073
8.81420000 0.030496 1.0741 0.999531 -73.92 0.999531 -73.92 0.030498 31.083
8.81440000 0.030510 1.0587 0.999530 -73.93 0.999530 -73.93 0.030512 31.093
8.81460000 0.030524 1.0433 0.999530 -73.93 0.999530 -73.93 0.030526 31.103
8.81480000 0.030538 1.0278 0.999529 -73.93 0.999529 -73.93 0.030540 31.113
8.81500000 0.030552 1.0123 0.999529 -73.93 0.999529 -73.93 0.030554 31.124
8.81520000 0.030566 0.9967 0.999528 -73.94 0.999528 -73.94 0.030568 31.134
8.81540000 0.030580 0.9810 0.999528 -73.94 0.999528 -73.94 0.030583 31.145
8.81560000 0.030594 0.9653 0.999527 -73.94 0.999527 -73.94 0.030597 31.155
8.81580000 0.030609 0.9496 0.999527 -73.94 0.999527 -73.94 0.030611 31.166
8.81600000 0.030623 0.9338 0.999527 -73.95 0.999527 -73.95 0.030626 31.176
8.81620000 0.030638 0.9180 0.999526 -73.95 0.999526 -73.95 0.030640 31.187
8.81640000 0.030652 0.9020 0.999526 -73.95 0.999526 -73.95 0.030655 31.197
8.81660000 0.030667 0.8861 0.999525 -73.95 0.999525 -73.95 0.030669 31.208
8.81680000 0.030681 0.8701 0.999525 -73.96 0.999525 -73.96 0.030684 31.219
8.81700000 0.030696 0.8540 0.999524 -73.96 0.999524 -73.96 0.030699 31.230
8.81720000 0.030711 0.8379 0.999524 -73.96 0.999524 -73.96 0.030714 31.240
8.81740000 0.030726 0.8217 0.999523 -73.96 0.999523 -73.96 0.030728 31.251
8.81760000 0.030741 0.8054 0.999523 -73.97 0.999523 -73.97 0.030743 31.262
8.81780000 0.030756 0.7891 0.999522 -73.97 0.999522 -73.97 0.030759 31.273
8.81800000 0.030771 0.7728 0.999522 -73.97 0.999522 -73.97 0.030774 31.284
8.81820000 0.030786 0.7564 0.999521 -73.98 0.999521 -73.98 0.030789 31.295
8.81840000 0.030802 0.7399 0.999521 -73.98 0.999521 -73.98 0.030804 31.307
8.81860000 0.030817 0.7234 0.999520 -73.98 0.999520 -73.98 0.030819 31.318
8.81880000 0.030832 0.7068 0.999520 -73.98 0.999520 -73.98 0.030835 31.329
8.81900000 0.030848 0.6902 0.999520 -73.99 0.999520 -73.99 0.030850 31.340
8.81920000 0.030863 0.6735 0.999519 -73.99 0.999519 -73.99 0.030866 31.351
8.81940000 0.030879 0.6567 0.999519 -73.99 0.999519 -73.99 0.030882 31.363
8.81960000 0.030895 0.6399 0.999518 -73.99 0.999518 -73.99 0.030897 31.374
8.81980000 0.030910 0.6230 0.999518 -74.00 0.999518 -74.00 0.030913 31.386
8.82000000 0.030926 0.6061 0.999517 -74.00 0.999517 -74.00 0.030929 31.397
8.82020000 0.030942 0.5891 0.999517 -74.00 0.999517 -74.00 0.030945 31.409
8.82040000 0.030958 0.5720 0.999516 -74.00 0.999516 -74.00 0.030961 31.420
8.82060000 0.030975 0.5549 0.999516 -74.01 0.999516 -74.01 0.030977 31.432
8.82080000 0.030991 0.5377 0.999515 -74.01 0.999515 -74.01 0.030993 31.444
8.82100000 0.031007 0.5204 0.999514 -74.01 0.999514 -74.01 0.031010 31.456
8.82120000 0.031023 0.5031 0.999514 -74.02 0.999514 -74.02 0.031026 31.467
8.82140000 0.031040 0.4857 0.999513 -74.02 0.999513 -74.02 0.031043 31.479
8.82160000 0.031056 0.4683 0.999513 -74.02 0.999513 -74.02 0.031059 31.491
8.82180000 0.031073 0.4508 0.999512 -74.02 0.999512 -74.02 0.031076 31.503
8.82200000 0.031090 0.4332 0.999512 -74.03 0.999512 -74.03 0.031092 31.515
8.82220000 0.031107 0.4156 0.999511 -74.03 0.999511 -74.03 0.031109 31.527
8.82240000 0.031123 0.3979 0.999511 -74.03 0.999511 -74.03 0.031126 31.539
8.82260000 0.031140 0.3801 0.999510 -74.03 0.999510 -74.03 0.031143 31.552
8.82280000 0.031157 0.3623 0.999510 -74.04 0.999510 -74.04 0.031160 31.564
8.82300000 0.031175 0.3444 0.999509 -74.04 0.999509 -74.04 0.031177 31.576
8.82320000 0.031192 0.3265 0.999509 -74.04 0.999509 -74.04 0.031195 31.589
8.82340000 0.031209 0.3084 0.999508 -74.05 0.999508 -74.05 0.031212 31.601
8.82360000 0.031227 0.2903 0.999508 -74.05 0.999508 -74.05 0.031229 31.613
8.82380000 0.031244 0.2722 0.999507 -74.05 0.999507 -74.05 0.031247 31.626
8.82400000 0.031262 0.2539 0.999506 -74.05 0.999506 -74.05 0.031265 31.639
8.82420000 0.031279 0.2356 0.999506 -74.06 0.999506 -74.06 0.031282 31.651
8.82440000 0.031297 0.2173 0.999505 -74.06 0.999505 -74.06 0.031300 31.664
8.82460000 0.031315 0.1988 0.999505 -74.06 0.999505 -74.06 0.031318 31.677
8.82480000 0.031333 0.1803 0.999504 -74.07 0.999504 -74.07 0.031336 31.689
8.82500000 0.031351 0.1617 0.999504 -74.07 0.999504 -74.07 0.031354 31.702
8.82520000 0.031369 0.1431 0.999503 -74.07 0.999503 -74.07 0.031372 31.715
8.82540000 0.031388 0.1244 0.999502 -74.07 0.999502 -74.07 0.031391 31.728
8.82560000 0.031406 0.1056 0.999502 -74.08 0.999502 -74.08 0.031409 31.741
8.82580000 0.031425 0.0867 0.999501 -74.08 0.999501 -74.08 0.031428 31.754
8.82600000 0.031443 0.0678 0.999501 -74.08 0.999501 -74.08 0.031446 31.768
8.82620000 0.031462 0.0487 0.999500 -74.09 0.999500 -74.09 0.031465 31.781
8.82640000 0.031481 0.0297 0.999499 -74.09 0.999499 -74.09 0.031484 31.794
8.82660000 0.031500 0.0105 0.999499 -74.09 0.999499 -74.09 0.031503 31.808
8.82680000 0.031519 0.0000 0.999498 -74.09 0.999498 -74.09 0.031522 31.821
8.82700000 0.031538 -0.028 0.999498 -74.10 0.999498 -74.10 0.031541 31.834
8.82720000 0.031557 -0.047 0.999497 -74.10 0.999497 -74.10 0.031560 31.848
8.82740000 0.031576 -0.067 0.999496 -74.10 0.999496 -74.10 0.031579 31.862
8.82760000 0.031596 -0.086 0.999496 -74.11 0.999496 -74.11 0.031599 31.875
8.82780000 0.031615 -0.106 0.999495 -74.11 0.999495 -74.11 0.031618 31.889
8.82800000 0.031635 -0.126 0.999494 -74.11 0.999494 -74.11 0.031638 31.903
8.82820000 0.031655 -0.146 0.999494 -74.11 0.999494 -74.11 0.031658 31.917
8.82840000 0.031674 -0.165 0.999493 -74.12 0.999493 -74.12 0.031678 31.931
8.82860000 0.031694 -0.185 0.999493 -74.12 0.999493 -74.12 0.031698 31.945
8.82880000 0.031715 -0.205 0.999492 -74.12 0.999492 -74.12 0.031718 31.959
8.82900000 0.031735 -0.225 0.999491 -74.13 0.999491 -74.13 0.031738 31.973
8.82920000 0.031755 -0.246 0.999491 -74.13 0.999491 -74.13 0.031758 31.987
8.82940000 0.031776 -0.266 0.999490 -74.13 0.999490 -74.13 0.031779 32.001
8.82960000 0.031796 -0.286 0.999489 -74.14 0.999489 -74.14 0.031799 32.015
8.82980000 0.031817 -0.307 0.999489 -74.14 0.999489 -74.14 0.031820 32.030
8.83000000 0.031838 -0.327 0.999488 -74.14 0.999488 -74.14 0.031841 32.044
8.83020000 0.031859 -0.348 0.999487 -74.14 0.999487 -74.14 0.031862 32.059
8.83040000 0.031880 -0.368 0.999487 -74.15 0.999487 -74.15 0.031883 32.073
8.83060000 0.031901 -0.389 0.999486 -74.15 0.999486 -74.15 0.031904 32.088
8.83080000 0.031922 -0.410 0.999485 -74.15 0.999485 -74.15 0.031925 32.103
8.83100000 0.031943 -0.431 0.999484 -74.16 0.999484 -74.16 0.031947 32.118
8.83120000 0.031965 -0.452 0.999484 -74.16 0.999484 -74.16 0.031968 32.133
8.83140000 0.031987 -0.473 0.999483 -74.16 0.999483 -74.16 0.031990 32.147
8.83160000 0.032008 -0.494 0.999482 -74.17 0.999482 -74.17 0.032012 32.162
8.83180000 0.032030 -0.516 0.999482 -74.17 0.999482 -74.17 0.032034 32.178
8.83200000 0.032052 -0.537 0.999481 -74.17 0.999481 -74.17 0.032056 32.193
8.83220000 0.032075 -0.558 0.999480 -74.17 0.999480 -74.17 0.032078 32.208
8.83240000 0.032097 -0.580 0.999479 -74.18 0.999479 -74.18 0.032100 32.223
8.83260000 0.032119 -0.602 0.999479 -74.18 0.999479 -74.18 0.032123 32.239
8.83280000 0.032142 -0.623 0.999478 -74.18 0.999478 -74.18 0.032145 32.254
8.83300000 0.032165 -0.645 0.999477 -74.19 0.999477 -74.19 0.032168 32.270
8.83320000 0.032188 -0.667 0.999476 -74.19 0.999476 -74.19 0.032191 32.285
8.83340000 0.032211 -0.689 0.999476 -74.19 0.999476 -74.19 0.032214 32.301
8.83360000 0.032234 -0.711 0.999475 -74.20 0.999475 -74.20 0.032237 32.317
8.83380000 0.032257 -0.733 0.999474 -74.20 0.999474 -74.20 0.032260 32.333
8.83400000 0.032280 -0.756 0.999473 -74.20 0.999473 -74.20 0.032284 32.348
8.83420000 0.032304 -0.778 0.999473 -74.21 0.999473 -74.21 0.032307 32.364
8.83440000 0.032328 -0.801 0.999472 -74.21 0.999472 -74.21 0.032331 32.381
8.83460000 0.032352 -0.823 0.999471 -74.21 0.999471 -74.21 0.032355 32.397
8.83480000 0.032376 -0.846 0.999470 -74.22 0.999470 -74.22 0.032379 32.413
8.83500000 0.032400 -0.869 0.999469 -74.22 0.999469 -74.22 0.032403 32.429
8.83520000 0.032424 -0.892 0.999469 -74.22 0.999469 -74.22 0.032428 32.446
8.83540000 0.032449 -0.915 0.999468 -74.23 0.999468 -74.23 0.032452 32.462
8.83560000 0.032473 -0.938 0.999467 -74.23 0.999467 -74.23 0.032477 32.479
8.83580000 0.032498 -0.961 0.999466 -74.23 0.999466 -74.23 0.032502 32.495
8.83600000 0.032523 -0.984 0.999465 -74.24 0.999465 -74.24 0.032527 32.512
8.83620000 0.032548 -1.008 0.999464 -74.24 0.999464 -74.24 0.032552 32.529
8.83640000 0.032573 -1.031 0.999464 -74.24 0.999464 -74.24 0.032577 32.546
8.83660000 0.032599 -1.055 0.999463 -74.24 0.999463 -74.24 0.032602 32.563
8.83680000 0.032624 -1.078 0.999462 -74.25 0.999462 -74.25 0.032628 32.580
8.83700000 0.032650 -1.102 0.999461 -74.25 0.999461 -74.25 0.032654 32.597
8.83720000 0.032676 -1.126 0.999460 -74.25 0.999460 -74.25 0.032680 32.614
8.83740000 0.032702 -1.150 0.999459 -74.26 0.999459 -74.26 0.032706 32.632
8.83760000 0.032728 -1.174 0.999458 -74.26 0.999458 -74.26 0.032732 32.649
8.83780000 0.032755 -1.199 0.999458 -74.26 0.999458 -74.26 0.032759 32.666
8.83800000 0.032782 -1.223 0.999457 -74.27 0.999457 -74.27 0.032785 32.684
8.83820000 0.032808 -1.247 0.999456 -74.27 0.999456 -74.27 0.032812 32.702
8.83840000 0.032835 -1.272 0.999455 -74.27 0.999455 -74.27 0.032839 32.719
8.83860000 0.032862 -1.297 0.999454 -74.28 0.999454 -74.28 0.032866 32.737
8.83880000 0.032890 -1.322 0.999453 -74.28 0.999453 -74.28 0.032893 32.755
8.83900000 0.032917 -1.346 0.999452 -74.29 0.999452 -74.29 0.032921 32.773
8.83920000 0.032945 -1.372 0.999451 -74.29 0.999451 -74.29 0.032949 32.791
8.83940000 0.032973 -1.397 0.999450 -74.29 0.999450 -74.29 0.032977 32.810
8.83960000 0.033001 -1.422 0.999449 -74.30 0.999449 -74.30 0.033005 32.828
8.83980000 0.033029 -1.447 0.999448 -74.30 0.999448 -74.30 0.033033 32.846
8.84000000 0.033058 -1.473 0.999447 -74.30 0.999447 -74.30 0.033061 32.865
8.84020000 0.033086 -1.499 0.999446 -74.31 0.999446 -74.31 0.033090 32.884
8.84040000 0.033115 -1.524 0.999445 -74.31 0.999445 -74.31 0.033119 32.902
8.84060000 0.033144 -1.550 0.999444 -74.31 0.999444 -74.31 0.033148 32.921
8.84080000 0.033173 -1.576 0.999443 -74.32 0.999443 -74.32 0.033177 32.940
8.84100000 0.033203 -1.602 0.999442 -74.32 0.999442 -74.32 0.033207 32.959
8.84120000 0.033232 -1.629 0.999441 -74.32 0.999441 -74.32 0.033236 32.978
8.84140000 0.033262 -1.655 0.999440 -74.33 0.999440 -74.33 0.033266 32.997
8.84160000 0.033292 -1.682 0.999439 -74.33 0.999439 -74.33 0.033296 33.017
8.84180000 0.033322 -1.708 0.999438 -74.33 0.999438 -74.33 0.033326 33.036
8.84200000 0.033353 -1.735 0.999437 -74.34 0.999437 -74.34 0.033357 33.055
8.84220000 0.033384 -1.762 0.999436 -74.34 0.999436 -74.34 0.033388 33.075
8.84240000 0.033415 -1.789 0.999435 -74.35 0.999435 -74.35 0.033419 33.095
8.84260000 0.033446 -1.816 0.999434 -74.35 0.999434 -74.35 0.033450 33.115
8.84280000 0.033477 -1.843 0.999433 -74.35 0.999433 -74.35 0.033481 33.135
8.84300000 0.033509 -1.871 0.999432 -74.36 0.999432 -74.36 0.033513 33.155
8.84320000 0.033540 -1.898 0.999431 -74.36 0.999431 -74.36 0.033545 33.175
8.84340000 0.033572 -1.926 0.999430 -74.36 0.999430 -74.36 0.033577 33.195
8.84360000 0.033605 -1.954 0.999429 -74.37 0.999429 -74.37 0.033609 33.215
8.84380000 0.033637 -1.982 0.999428 -74.37 0.999428 -74.37 0.033641 33.236
8.84400000 0.033670 -2.010 0.999426 -74.37 0.999426 -74.37 0.033674 33.256
8.84420000 0.033703 -2.038 0.999425 -74.38 0.999425 -74.38 0.033707 33.277
8.84440000 0.033736 -2.067 0.999424 -74.38 0.999424 -74.38 0.033740 33.298
8.84460000 0.033770 -2.095 0.999423 -74.39 0.999423 -74.39 0.033774 33.319
8.84480000 0.033803 -2.124 0.999422 -74.39 0.999422 -74.39 0.033808 33.340
8.84500000 0.033837 -2.153 0.999421 -74.39 0.999421 -74.39 0.033842 33.361
8.84520000 0.033871 -2.182 0.999420 -74.40 0.999420 -74.40 0.033876 33.382
8.84540000 0.033906 -2.211 0.999418 -74.40 0.999418 -74.40 0.033910 33.404
8.84560000 0.033941 -2.240 0.999417 -74.40 0.999417 -74.40 0.033945 33.425
8.84580000 0.033976 -2.270 0.999416 -74.41 0.999416 -74.41 0.033980 33.447
8.84600000 0.034011 -2.299 0.999415 -74.41 0.999415 -74.41 0.034015 33.468
8.84620000 0.034046 -2.329 0.999413 -74.42 0.999413 -74.42 0.034051 33.490
8.84640000 0.034082 -2.359 0.999412 -74.42 0.999412 -74.42 0.034087 33.512
8.84660000 0.034118 -2.389 0.999411 -74.42 0.999411 -74.42 0.034123 33.534
8.84680000 0.034155 -2.419 0.999410 -74.43 0.999410 -74.43 0.034159 33.556
8.84700000 0.034191 -2.449 0.999408 -74.43 0.999408 -74.43 0.034196 33.579
8.84720000 0.034228 -2.480 0.999407 -74.44 0.999407 -74.44 0.034233 33.601
8.84740000 0.034265 -2.511 0.999406 -74.44 0.999406 -74.44 0.034270 33.624
8.84760000 0.034303 -2.542 0.999404 -74.44 0.999404 -74.44 0.034307 33.647
8.84780000 0.034341 -2.573 0.999403 -74.45 0.999403 -74.45 0.034345 33.669
8.84800000 0.034379 -2.604 0.999402 -74.45 0.999402 -74.45 0.034383 33.692
8.84820000 0.034417 -2.635 0.999400 -74.46 0.999400 -74.46 0.034422 33.715
8.84840000 0.034456 -2.667 0.999399 -74.46 0.999399 -74.46 0.034460 33.739
8.84860000 0.034495 -2.698 0.999398 -74.46 0.999398 -74.46 0.034499 33.762
8.84880000 0.034534 -2.730 0.999396 -74.47 0.999396 -74.47 0.034539 33.786
8.84900000 0.034574 -2.762 0.999395 -74.47 0.999395 -74.47 0.034578 33.809
8.84920000 0.034614 -2.794 0.999393 -74.48 0.999393 -74.48 0.034618 33.833
8.84940000 0.034654 -2.827 0.999392 -74.48 0.999392 -74.48 0.034659 33.857
8.84960000 0.034694 -2.859 0.999391 -74.49 0.999391 -74.49 0.034699 33.881
8.84980000 0.034735 -2.892 0.999389 -74.49 0.999389 -74.49 0.034740 33.905
8.85000000 0.034777 -2.925 0.999388 -74.49 0.999388 -74.49 0.034781 33.929
8.85020000 0.034818 -2.958 0.999386 -74.50 0.999386 -74.50 0.034823 33.954
8.85040000 0.034860 -2.991 0.999385 -74.50 0.999385 -74.50 0.034865 33.978
8.85060000 0.034902 -3.025 0.999383 -74.51 0.999383 -74.51 0.034907 34.003
8.85080000 0.034945 -3.058 0.999382 -74.51 0.999382 -74.51 0.034950 34.028
8.85100000 0.034988 -3.092 0.999380 -74.52 0.999380 -74.52 0.034993 34.053
8.85120000 0.035031 -3.126 0.999379 -74.52 0.999379 -74.52 0.035036 34.078
8.85140000 0.035075 -3.160 0.999377 -74.52 0.999377 -74.52 0.035080 34.103
8.85160000 0.035119 -3.195 0.999375 -74.53 0.999375 -74.53 0.035124 34.129
8.85180000 0.035164 -3.229 0.999374 -74.53 0.999374 -74.53 0.035169 34.154
8.85200000 0.035208 -3.264 0.999372 -74.54 0.999372 -74.54 0.035214 34.180
8.85220000 0.035254 -3.299 0.999370 -74.54 0.999370 -74.54 0.035259 34.206
8.85240000 0.035299 -3.335 0.999369 -74.55 0.999369 -74.55 0.035304 34.232
8.85260000 0.035345 -3.370 0.999367 -74.55 0.999367 -74.55 0.035350 34.258
8.85280000 0.035392 -3.406 0.999365 -74.56 0.999365 -74.56 0.035397 34.285
8.85300000 0.035438 -3.441 0.999364 -74.56 0.999364 -74.56 0.035444 34.311
8.85320000 0.035486 -3.477 0.999362 -74.57 0.999362 -74.57 0.035491 34.338
8.85340000 0.035533 -3.514 0.999360 -74.57 0.999360 -74.57 0.035539 34.365
8.85360000 0.035581 -3.550 0.999359 -74.57 0.999359 -74.57 0.035587 34.392
8.85380000 0.035630 -3.587 0.999357 -74.58 0.999357 -74.58 0.035635 34.419
8.85400000 0.035679 -3.624 0.999355 -74.58 0.999355 -74.58 0.035684 34.446
8.85420000 0.035728 -3.661 0.999353 -74.59 0.999353 -74.59 0.035734 34.474
8.85440000 0.035778 -3.698 0.999351 -74.59 0.999351 -74.59 0.035783 34.501
8.85460000 0.035828 -3.736 0.999350 -74.60 0.999350 -74.60 0.035834 34.529
8.85480000 0.035879 -3.773 0.999348 -74.60 0.999348 -74.60 0.035884 34.557
8.85500000 0.035930 -3.811 0.999346 -74.61 0.999346 -74.61 0.035936 34.585
8.85520000 0.035982 -3.850 0.999344 -74.61 0.999344 -74.61 0.035987 34.614
8.85540000 0.036034 -3.888 0.999342 -74.62 0.999342 -74.62 0.036039 34.642
8.85560000 0.036086 -3.927 0.999340 -74.62 0.999340 -74.62 0.036092 34.671
8.85580000 0.036139 -3.966 0.999338 -74.63 0.999338 -74.63 0.036145 34.700
8.85600000 0.036193 -4.005 0.999336 -74.63 0.999336 -74.63 0.036199 34.729
8.85620000 0.036247 -4.044 0.999334 -74.64 0.999334 -74.64 0.036253 34.758
8.85640000 0.036302 -4.084 0.999332 -74.64 0.999332 -74.64 0.036308 34.787
8.85660000 0.036357 -4.124 0.999330 -74.65 0.999330 -74.65 0.036363 34.817
8.85680000 0.036412 -4.164 0.999328 -74.65 0.999328 -74.65 0.036418 34.846
8.85700000 0.036469 -4.204 0.999326 -74.66 0.999326 -74.66 0.036475 34.876
8.85720000 0.036525 -4.245 0.999324 -74.66 0.999324 -74.66 0.036531 34.907
8.85740000 0.036582 -4.286 0.999321 -74.67 0.999321 -74.67 0.036589 34.937
8.85760000 0.036640 -4.327 0.999319 -74.67 0.999319 -74.67 0.036646 34.967
8.85780000 0.036699 -4.368 0.999317 -74.68 0.999317 -74.68 0.036705 34.998
8.85800000 0.036758 -4.410 0.999315 -74.68 0.999315 -74.68 0.036764 35.029
8.85820000 0.036817 -4.452 0.999313 -74.69 0.999313 -74.69 0.036823 35.060
8.85840000 0.036877 -4.494 0.999310 -74.69 0.999310 -74.69 0.036883 35.091
8.85860000 0.036938 -4.537 0.999308 -74.70 0.999308 -74.70 0.036944 35.123
8.85880000 0.036999 -4.579 0.999306 -74.71 0.999306 -74.71 0.037005 35.154
8.85900000 0.037061 -4.622 0.999303 -74.71 0.999303 -74.71 0.037067 35.186
8.85920000 0.037124 -4.666 0.999301 -74.72 0.999301 -74.72 0.037130 35.218
8.85940000 0.037187 -4.709 0.999298 -74.72 0.999298 -74.72 0.037193 35.251
8.85960000 0.037250 -4.753 0.999296 -74.73 0.999296 -74.73 0.037257 35.283
8.85980000 0.037315 -4.797 0.999294 -74.73 0.999294 -74.73 0.037321 35.316
8.86000000 0.037380 -4.842 0.999291 -74.74 0.999291 -74.74 0.037387 35.349
8.86020000 0.037446 -4.887 0.999288 -74.75 0.999288 -74.75 0.037452 35.382
8.86040000 0.037512 -4.932 0.999286 -74.75 0.999286 -74.75 0.037519 35.415
8.86060000 0.037579 -4.977 0.999283 -74.76 0.999283 -74.76 0.037586 35.448
8.86080000 0.037647 -5.023 0.999281 -74.76 0.999281 -74.76 0.037654 35.482
8.86100000 0.037716 -5.069 0.999278 -74.77 0.999278 -74.77 0.037723 35.516
8.86120000 0.037785 -5.115 0.999275 -74.77 0.999275 -74.77 0.037792 35.550
8.86140000 0.037855 -5.161 0.999273 -74.78 0.999273 -74.78 0.037862 35.585
8.86160000 0.037926 -5.208 0.999270 -74.79 0.999270 -74.79 0.037933 35.619
8.86180000 0.037998 -5.256 0.999267 -74.79 0.999267 -74.79 0.038005 35.654
8.86200000 0.038070 -5.303 0.999264 -74.80 0.999264 -74.80 0.038077 35.689
8.86220000 0.038143 -5.351 0.999261 -74.80 0.999261 -74.80 0.038150 35.725
8.86240000 0.038217 -5.399 0.999258 -74.81 0.999258 -74.81 0.038224 35.760
8.86260000 0.038292 -5.448 0.999255 -74.82 0.999255 -74.82 0.038299 35.796
8.86280000 0.038367 -5.497 0.999252 -74.82 0.999252 -74.82 0.038375 35.832
8.86300000 0.038444 -5.546 0.999249 -74.83 0.999249 -74.83 0.038451 35.868
8.86320000 0.038521 -5.595 0.999246 -74.84 0.999246 -74.84 0.038528 35.905
8.86340000 0.038599 -5.645 0.999243 -74.84 0.999243 -74.84 0.038606 35.942
8.86360000 0.038678 -5.696 0.999240 -74.85 0.999240 -74.85 0.038685 35.979
8.86380000 0.038758 -5.746 0.999237 -74.86 0.999237 -74.86 0.038765 36.016
8.86400000 0.038839 -5.797 0.999234 -74.86 0.999234 -74.86 0.038846 36.053
8.86420000 0.038920 -5.849 0.999230 -74.87 0.999230 -74.87 0.038928 36.091
8.86440000 0.039003 -5.900 0.999227 -74.88 0.999227 -74.88 0.039011 36.129
8.86460000 0.039087 -5.952 0.999224 -74.88 0.999224 -74.88 0.039095 36.167
8.86480000 0.039171 -6.005 0.999220 -74.89 0.999220 -74.89 0.039179 36.206
8.86500000 0.039257 -6.058 0.999217 -74.90 0.999217 -74.90 0.039265 36.245
8.86520000 0.039344 -6.111 0.999213 -74.90 0.999213 -74.90 0.039352 36.284
8.86540000 0.039431 -6.165 0.999210 -74.91 0.999210 -74.91 0.039439 36.323
8.86560000 0.039520 -6.219 0.999206 -74.92 0.999206 -74.92 0.039528 36.362
8.86580000 0.039610 -6.273 0.999202 -74.92 0.999202 -74.92 0.039618 36.402
8.86600000 0.039701 -6.328 0.999199 -74.93 0.999199 -74.93 0.039709 36.442
8.86620000 0.039792 -6.383 0.999195 -74.94 0.999195 -74.94 0.039801 36.483
8.86640000 0.039886 -6.439 0.999191 -74.95 0.999191 -74.95 0.039894 36.523
8.86660000 0.039980 -6.495 0.999187 -74.95 0.999187 -74.95 0.039988 36.564
8.86680000 0.040075 -6.551 0.999183 -74.96 0.999183 -74.96 0.040084 36.606
8.86700000 0.040172 -6.608 0.999179 -74.97 0.999179 -74.97 0.040180 36.647
8.86720000 0.040270 -6.666 0.999175 -74.98 0.999175 -74.98 0.040278 36.689
8.86740000 0.040369 -6.724 0.999171 -74.98 0.999171 -74.98 0.040377 36.731
8.86760000 0.040469 -6.782 0.999167 -74.99 0.999167 -74.99 0.040478 36.773
8.86780000 0.040570 -6.841 0.999163 -75.00 0.999163 -75.00 0.040579 36.816
8.86800000 0.040673 -6.900 0.999158 -75.01 0.999158 -75.01 0.040682 36.859
8.86820000 0.040778 -6.959 0.999154 -75.02 0.999154 -75.02 0.040787 36.902
8.86840000 0.040883 -7.020 0.999149 -75.02 0.999149 -75.02 0.040892 36.946
8.86860000 0.040990 -7.080 0.999145 -75.03 0.999145 -75.03 0.040999 36.990
8.86880000 0.041098 -7.141 0.999140 -75.04 0.999140 -75.04 0.041108 37.034
8.86900000 0.041208 -7.203 0.999136 -75.05 0.999136 -75.05 0.041218 37.078
8.86920000 0.041319 -7.265 0.999131 -75.06 0.999131 -75.06 0.041329 37.123
8.86940000 0.041432 -7.327 0.999126 -75.07 0.999126 -75.07 0.041442 37.168
8.86960000 0.041547 -7.390 0.999121 -75.07 0.999121 -75.07 0.041556 37.214
8.86980000 0.041662 -7.454 0.999116 -75.08 0.999116 -75.08 0.041672 37.260
8.86989999 0.041721 -7.486 0.999114 -75.09 0.999114 -75.09 0.041731 37.283
8.87000000 0.041780 -7.518 0.999111 -75.09 0.999111 -75.09 0.041790 37.306
8.87020000 0.041899 -7.583 0.999106 -75.10 0.999106 -75.10 0.041909 37.352
8.87040000 0.042020 -7.648 0.999101 -75.11 0.999101 -75.11 0.042030 37.399
8.87058394 0.042132 -7.708 0.999096 -75.12 0.999096 -75.12 0.042142 37.442
8.87060000 0.042142 -7.714 0.999095 -75.12 0.999095 -75.12 0.042152 37.446
8.87080000 0.042266 -7.780 0.999090 -75.13 0.999090 -75.13 0.042276 37.494
8.87100000 0.042392 -7.847 0.999084 -75.14 0.999084 -75.14 0.042402 37.541
8.87120000 0.042520 -7.914 0.999079 -75.15 0.999079 -75.15 0.042530 37.590
8.87125222 0.042553 -7.932 0.999077 -75.15 0.999077 -75.15 0.042564 37.602
8.87140000 0.042649 -7.982 0.999073 -75.16 0.999073 -75.16 0.042660 37.638
8.87160000 0.042781 -8.050 0.999067 -75.17 0.999067 -75.17 0.042791 37.687
8.87180000 0.042914 -8.120 0.999061 -75.18 0.999061 -75.18 0.042925 37.736
8.87190518 0.042985 -8.156 0.999058 -75.18 0.999058 -75.18 0.042996 37.762
8.87200000 0.043049 -8.189 0.999055 -75.19 0.999055 -75.19 0.043060 37.786
8.87220000 0.043187 -8.260 0.999049 -75.20 0.999049 -75.20 0.043197 37.835
8.87240000 0.043326 -8.331 0.999043 -75.21 0.999043 -75.21 0.043337 37.886
8.87254319 0.043427 -8.382 0.999038 -75.21 0.999038 -75.21 0.043438 37.922
8.87260000 0.043467 -8.402 0.999036 -75.22 0.999036 -75.22 0.043478 37.936
8.87280000 0.043611 -8.474 0.999030 -75.23 0.999030 -75.23 0.043622 37.987
8.87300000 0.043757 -8.547 0.999023 -75.24 0.999023 -75.24 0.043768 38.039
8.87316657 0.043880 -8.608 0.999018 -75.25 0.999018 -75.25 0.043891 38.082
8.87320000 0.043905 -8.620 0.999017 -75.25 0.999017 -75.25 0.043916 38.090
8.87340000 0.044055 -8.695 0.999010 -75.26 0.999010 -75.26 0.044067 38.143
8.87360000 0.044208 -8.769 0.999003 -75.27 0.999003 -75.27 0.044219 38.195
8.87377567 0.044344 -8.836 0.998996 -75.28 0.998996 -75.28 0.044356 38.241
8.87380000 0.044363 -8.845 0.998996 -75.28 0.998996 -75.28 0.044375 38.248
8.87400000 0.044520 -8.921 0.998988 -75.29 0.998988 -75.29 0.044532 38.301
8.87420000 0.044680 -8.998 0.998981 -75.30 0.998981 -75.30 0.044692 38.355
8.87437082 0.044819 -9.064 0.998974 -75.31 0.998974 -75.31 0.044831 38.401
8.87440000 0.044843 -9.075 0.998973 -75.31 0.998973 -75.31 0.044855 38.409
8.87460000 0.045008 -9.154 0.998966 -75.33 0.998966 -75.33 0.045020 38.463
8.87480000 0.045176 -9.233 0.998958 -75.34 0.998958 -75.34 0.045188 38.518
8.87495232 0.045306 -9.293 0.998952 -75.35 0.998952 -75.35 0.045318 38.560
8.87500000 0.045347 -9.312 0.998950 -75.35 0.998950 -75.35 0.045359 38.573
8.87520000 0.045520 -9.393 0.998942 -75.36 0.998942 -75.36 0.045533 38.629
8.87540000 0.045696 -9.474 0.998933 -75.37 0.998933 -75.37 0.045709 38.685
8.87552051 0.045804 -9.523 0.998928 -75.38 0.998928 -75.38 0.045817 38.719
8.87560000 0.045876 -9.556 0.998925 -75.39 0.998925 -75.39 0.045889 38.742
8.87580000 0.046058 -9.639 0.998916 -75.40 0.998916 -75.40 0.046072 38.798
8.87600000 0.046244 -9.722 0.998907 -75.41 0.998907 -75.41 0.046257 38.856
8.87607567 0.046315 -9.754 0.998904 -75.42 0.998904 -75.42 0.046328 38.878
8.87620000 0.046433 -9.807 0.998898 -75.42 0.998898 -75.42 0.046446 38.914