! Sonnet Data File
! From: emgraph Version : 16.52
! From Project: Resonator2_cp
! Data is De-embedded 
! Data File Written: 10/07/2017 20:46:09
!< HDATE 10/07/2017 17:10:37
!< MDATE 10/07/2017 17:10:37
!< PARAMS
!< gap = 26.0
!< Length = 400.0
!< Pwid1 = 2000.0
!< Pwid2 = 2000.0
!< Air_gap = 30.0
!< Width = 50.0
!< END PARAMS
# GHZ S MA R 47.50000
8.80000000 0.019904 3.1318 0.999799 -72.37 0.999799 -72.37 0.019906 32.129
!< P1 F=8.8 Eeff=(5.02890353 -2.1766e-5) Z0=(47.410578 1.04358e-4) R=0.0 C=0.0 
!< P2 F=8.8 Eeff=(5.02890353 -2.1766e-5) Z0=(47.410578 1.04358e-4) R=0.0 C=0.0 
8.80020000 0.019908 3.1198 0.999799 -72.38 0.999799 -72.38 0.019910 32.137
8.80040000 0.019913 3.1078 0.999798 -72.38 0.999798 -72.38 0.019914 32.146
8.80060000 0.019917 3.0957 0.999798 -72.38 0.999798 -72.38 0.019919 32.154
8.80080000 0.019922 3.0836 0.999798 -72.38 0.999798 -72.38 0.019923 32.162
8.80100000 0.019926 3.0715 0.999798 -72.38 0.999798 -72.38 0.019928 32.170
8.80120000 0.019931 3.0594 0.999798 -72.39 0.999798 -72.39 0.019932 32.178
8.80140000 0.019935 3.0472 0.999798 -72.39 0.999798 -72.39 0.019937 32.186
8.80160000 0.019940 3.0349 0.999798 -72.39 0.999798 -72.39 0.019941 32.194
8.80180000 0.019944 3.0227 0.999798 -72.39 0.999798 -72.39 0.019946 32.203
8.80200000 0.019949 3.0104 0.999798 -72.39 0.999798 -72.39 0.019951 32.211
8.80220000 0.019953 2.9980 0.999798 -72.40 0.999798 -72.40 0.019955 32.219
8.80240000 0.019958 2.9857 0.999797 -72.40 0.999797 -72.40 0.019960 32.228
8.80260000 0.019963 2.9733 0.999797 -72.40 0.999797 -72.40 0.019964 32.236
8.80280000 0.019967 2.9608 0.999797 -72.40 0.999797 -72.40 0.019969 32.244
8.80300000 0.019972 2.9483 0.999797 -72.40 0.999797 -72.40 0.019974 32.253
8.80320000 0.019977 2.9358 0.999797 -72.41 0.999797 -72.41 0.019978 32.261
8.80340000 0.019981 2.9233 0.999797 -72.41 0.999797 -72.41 0.019983 32.270
8.80360000 0.019986 2.9107 0.999797 -72.41 0.999797 -72.41 0.019988 32.278
8.80380000 0.019991 2.8981 0.999797 -72.41 0.999797 -72.41 0.019993 32.287
8.80400000 0.019996 2.8854 0.999797 -72.41 0.999797 -72.41 0.019997 32.296
8.80420000 0.020000 2.8727 0.999797 -72.42 0.999797 -72.42 0.020002 32.304
8.80440000 0.020005 2.8600 0.999797 -72.42 0.999797 -72.42 0.020007 32.313
8.80460000 0.020010 2.8472 0.999796 -72.42 0.999796 -72.42 0.020012 32.322
8.80480000 0.020015 2.8344 0.999796 -72.42 0.999796 -72.42 0.020017 32.330
8.80500000 0.020020 2.8215 0.999796 -72.42 0.999796 -72.42 0.020021 32.339
8.80520000 0.020025 2.8086 0.999796 -72.43 0.999796 -72.43 0.020026 32.348
8.80540000 0.020029 2.7957 0.999796 -72.43 0.999796 -72.43 0.020031 32.357
8.80560000 0.020034 2.7828 0.999796 -72.43 0.999796 -72.43 0.020036 32.366
8.80580000 0.020039 2.7697 0.999796 -72.43 0.999796 -72.43 0.020041 32.375
8.80600000 0.020044 2.7567 0.999796 -72.43 0.999796 -72.43 0.020046 32.384
8.80620000 0.020049 2.7436 0.999796 -72.44 0.999796 -72.44 0.020051 32.393
8.80640000 0.020054 2.7305 0.999795 -72.44 0.999795 -72.44 0.020056 32.402
8.80660000 0.020059 2.7173 0.999795 -72.44 0.999795 -72.44 0.020061 32.411
8.80680000 0.020064 2.7041 0.999795 -72.44 0.999795 -72.44 0.020066 32.420
8.80700000 0.020069 2.6909 0.999795 -72.44 0.999795 -72.44 0.020071 32.429
8.80720000 0.020074 2.6776 0.999795 -72.45 0.999795 -72.45 0.020076 32.438
8.80740000 0.020080 2.6643 0.999795 -72.45 0.999795 -72.45 0.020081 32.448
8.80760000 0.020085 2.6509 0.999795 -72.45 0.999795 -72.45 0.020087 32.457
8.80780000 0.020090 2.6375 0.999795 -72.45 0.999795 -72.45 0.020092 32.466
8.80800000 0.020095 2.6241 0.999795 -72.45 0.999795 -72.45 0.020097 32.476
8.80820000 0.020100 2.6106 0.999795 -72.46 0.999795 -72.46 0.020102 32.485
8.80840000 0.020105 2.5970 0.999794 -72.46 0.999794 -72.46 0.020107 32.494
8.80860000 0.020111 2.5835 0.999794 -72.46 0.999794 -72.46 0.020113 32.504
8.80880000 0.020116 2.5699 0.999794 -72.46 0.999794 -72.46 0.020118 32.513
8.80900000 0.020121 2.5562 0.999794 -72.46 0.999794 -72.46 0.020123 32.523
8.80920000 0.020127 2.5425 0.999794 -72.47 0.999794 -72.47 0.020128 32.533
8.80940000 0.020132 2.5288 0.999794 -72.47 0.999794 -72.47 0.020134 32.542
8.80960000 0.020137 2.5150 0.999794 -72.47 0.999794 -72.47 0.020139 32.552
8.80980000 0.020143 2.5011 0.999794 -72.47 0.999794 -72.47 0.020144 32.562
8.81000000 0.020148 2.4873 0.999794 -72.47 0.999794 -72.47 0.020150 32.571
8.81020000 0.020153 2.4733 0.999793 -72.48 0.999793 -72.48 0.020155 32.581
8.81040000 0.020159 2.4594 0.999793 -72.48 0.999793 -72.48 0.020161 32.591
8.81060000 0.020164 2.4454 0.999793 -72.48 0.999793 -72.48 0.020166 32.601
8.81080000 0.020170 2.4313 0.999793 -72.48 0.999793 -72.48 0.020172 32.611
8.81100000 0.020175 2.4172 0.999793 -72.49 0.999793 -72.49 0.020177 32.621
8.81120000 0.020181 2.4031 0.999793 -72.49 0.999793 -72.49 0.020183 32.631
8.81140000 0.020186 2.3889 0.999793 -72.49 0.999793 -72.49 0.020188 32.641
8.81160000 0.020192 2.3747 0.999793 -72.49 0.999793 -72.49 0.020194 32.651
8.81180000 0.020198 2.3604 0.999792 -72.49 0.999792 -72.49 0.020200 32.661
8.81200000 0.020203 2.3461 0.999792 -72.50 0.999792 -72.50 0.020205 32.671
8.81220000 0.020209 2.3317 0.999792 -72.50 0.999792 -72.50 0.020211 32.681
8.81240000 0.020215 2.3173 0.999792 -72.50 0.999792 -72.50 0.020217 32.691
8.81260000 0.020220 2.3028 0.999792 -72.50 0.999792 -72.50 0.020222 32.702
8.81280000 0.020226 2.2883 0.999792 -72.50 0.999792 -72.50 0.020228 32.712
8.81300000 0.020232 2.2737 0.999792 -72.51 0.999792 -72.51 0.020234 32.722
8.81320000 0.020238 2.2591 0.999792 -72.51 0.999792 -72.51 0.020240 32.733
8.81340000 0.020243 2.2445 0.999792 -72.51 0.999792 -72.51 0.020245 32.743
8.81360000 0.020249 2.2298 0.999791 -72.51 0.999791 -72.51 0.020251 32.754
8.81380000 0.020255 2.2150 0.999791 -72.51 0.999791 -72.51 0.020257 32.764
8.81400000 0.020261 2.2002 0.999791 -72.52 0.999791 -72.52 0.020263 32.775
8.81420000 0.020267 2.1854 0.999791 -72.52 0.999791 -72.52 0.020269 32.786
8.81440000 0.020273 2.1705 0.999791 -72.52 0.999791 -72.52 0.020275 32.796
8.81460000 0.020279 2.1555 0.999791 -72.52 0.999791 -72.52 0.020281 32.807
8.81480000 0.020285 2.1405 0.999791 -72.52 0.999791 -72.52 0.020287 32.818
8.81500000 0.020291 2.1255 0.999791 -72.53 0.999791 -72.53 0.020293 32.829
8.81520000 0.020297 2.1104 0.999790 -72.53 0.999790 -72.53 0.020299 32.840
8.81540000 0.020303 2.0952 0.999790 -72.53 0.999790 -72.53 0.020305 32.851
8.81560000 0.020309 2.0800 0.999790 -72.53 0.999790 -72.53 0.020311 32.862
8.81580000 0.020315 2.0647 0.999790 -72.54 0.999790 -72.54 0.020317 32.873
8.81600000 0.020322 2.0494 0.999790 -72.54 0.999790 -72.54 0.020324 32.884
8.81620000 0.020328 2.0341 0.999790 -72.54 0.999790 -72.54 0.020330 32.895
8.81640000 0.020334 2.0187 0.999790 -72.54 0.999790 -72.54 0.020336 32.906
8.81660000 0.020340 2.0032 0.999790 -72.54 0.999790 -72.54 0.020342 32.917
8.81680000 0.020347 1.9877 0.999789 -72.55 0.999789 -72.55 0.020349 32.928
8.81700000 0.020353 1.9721 0.999789 -72.55 0.999789 -72.55 0.020355 32.940
8.81720000 0.020359 1.9565 0.999789 -72.55 0.999789 -72.55 0.020361 32.951
8.81740000 0.020366 1.9408 0.999789 -72.55 0.999789 -72.55 0.020368 32.962
8.81760000 0.020372 1.9251 0.999789 -72.55 0.999789 -72.55 0.020374 32.974
8.81780000 0.020378 1.9093 0.999789 -72.56 0.999789 -72.56 0.020381 32.985
8.81800000 0.020385 1.8934 0.999789 -72.56 0.999789 -72.56 0.020387 32.997
8.81820000 0.020391 1.8775 0.999788 -72.56 0.999788 -72.56 0.020394 33.009
8.81840000 0.020398 1.8616 0.999788 -72.56 0.999788 -72.56 0.020400 33.020
8.81860000 0.020405 1.8456 0.999788 -72.56 0.999788 -72.56 0.020407 33.032
8.81880000 0.020411 1.8295 0.999788 -72.57 0.999788 -72.57 0.020413 33.044
8.81900000 0.020418 1.8134 0.999788 -72.57 0.999788 -72.57 0.020420 33.056
8.81920000 0.020424 1.7972 0.999788 -72.57 0.999788 -72.57 0.020427 33.067
8.81940000 0.020431 1.7810 0.999788 -72.57 0.999788 -72.57 0.020433 33.079
8.81960000 0.020438 1.7647 0.999787 -72.58 0.999787 -72.58 0.020440 33.091
8.81980000 0.020445 1.7483 0.999787 -72.58 0.999787 -72.58 0.020447 33.103
8.82000000 0.020451 1.7319 0.999787 -72.58 0.999787 -72.58 0.020454 33.115
8.82020000 0.020458 1.7154 0.999787 -72.58 0.999787 -72.58 0.020460 33.128
8.82040000 0.020465 1.6989 0.999787 -72.58 0.999787 -72.58 0.020467 33.140
8.82060000 0.020472 1.6823 0.999787 -72.59 0.999787 -72.59 0.020474 33.152
8.82080000 0.020479 1.6657 0.999787 -72.59 0.999787 -72.59 0.020481 33.164
8.82100000 0.020486 1.6490 0.999786 -72.59 0.999786 -72.59 0.020488 33.177
8.82120000 0.020493 1.6322 0.999786 -72.59 0.999786 -72.59 0.020495 33.189
8.82140000 0.020500 1.6154 0.999786 -72.60 0.999786 -72.60 0.020502 33.202
8.82160000 0.020507 1.5985 0.999786 -72.60 0.999786 -72.60 0.020509 33.214
8.82180000 0.020514 1.5815 0.999786 -72.60 0.999786 -72.60 0.020516 33.227
8.82200000 0.020521 1.5645 0.999786 -72.60 0.999786 -72.60 0.020523 33.239
8.82220000 0.020528 1.5474 0.999786 -72.60 0.999786 -72.60 0.020531 33.252
8.82240000 0.020536 1.5303 0.999785 -72.61 0.999785 -72.61 0.020538 33.265
8.82260000 0.020543 1.5131 0.999785 -72.61 0.999785 -72.61 0.020545 33.278
8.82280000 0.020550 1.4958 0.999785 -72.61 0.999785 -72.61 0.020552 33.290
8.82300000 0.020557 1.4785 0.999785 -72.61 0.999785 -72.61 0.020560 33.303
8.82320000 0.020565 1.4611 0.999785 -72.61 0.999785 -72.61 0.020567 33.316
8.82340000 0.020572 1.4436 0.999785 -72.62 0.999785 -72.62 0.020574 33.329
8.82360000 0.020580 1.4261 0.999784 -72.62 0.999784 -72.62 0.020582 33.343
8.82380000 0.020587 1.4085 0.999784 -72.62 0.999784 -72.62 0.020589 33.356
8.82400000 0.020595 1.3908 0.999784 -72.62 0.999784 -72.62 0.020597 33.369
8.82420000 0.020602 1.3731 0.999784 -72.63 0.999784 -72.63 0.020604 33.382
8.82440000 0.020610 1.3553 0.999784 -72.63 0.999784 -72.63 0.020612 33.396
8.82460000 0.020617 1.3374 0.999784 -72.63 0.999784 -72.63 0.020620 33.409
8.82480000 0.020625 1.3195 0.999783 -72.63 0.999783 -72.63 0.020627 33.423
8.82500000 0.020633 1.3015 0.999783 -72.63 0.999783 -72.63 0.020635 33.436
8.82520000 0.020640 1.2834 0.999783 -72.64 0.999783 -72.64 0.020643 33.450
8.82540000 0.020648 1.2653 0.999783 -72.64 0.999783 -72.64 0.020650 33.463
8.82560000 0.020656 1.2471 0.999783 -72.64 0.999783 -72.64 0.020658 33.477
8.82580000 0.020664 1.2288 0.999783 -72.64 0.999783 -72.64 0.020666 33.491
8.82600000 0.020672 1.2104 0.999782 -72.65 0.999782 -72.65 0.020674 33.505
8.82620000 0.020680 1.1920 0.999782 -72.65 0.999782 -72.65 0.020682 33.519
8.82640000 0.020688 1.1735 0.999782 -72.65 0.999782 -72.65 0.020690 33.533
8.82660000 0.020696 1.1550 0.999782 -72.65 0.999782 -72.65 0.020698 33.547
8.82680000 0.020704 1.1363 0.999782 -72.65 0.999782 -72.65 0.020706 33.561
8.82700000 0.020712 1.1176 0.999782 -72.66 0.999782 -72.66 0.020714 33.575
8.82720000 0.020720 1.0988 0.999781 -72.66 0.999781 -72.66 0.020722 33.589
8.82740000 0.020728 1.0800 0.999781 -72.66 0.999781 -72.66 0.020731 33.604
8.82760000 0.020736 1.0610 0.999781 -72.66 0.999781 -72.66 0.020739 33.618
8.82780000 0.020745 1.0420 0.999781 -72.67 0.999781 -72.67 0.020747 33.632
8.82800000 0.020753 1.0230 0.999781 -72.67 0.999781 -72.67 0.020756 33.647
8.82820000 0.020762 1.0038 0.999781 -72.67 0.999781 -72.67 0.020764 33.662
8.82840000 0.020770 0.9846 0.999780 -72.67 0.999780 -72.67 0.020772 33.676
8.82860000 0.020778 0.9653 0.999780 -72.67 0.999780 -72.67 0.020781 33.691
8.82880000 0.020787 0.9459 0.999780 -72.68 0.999780 -72.68 0.020789 33.706
8.82900000 0.020795 0.9264 0.999780 -72.68 0.999780 -72.68 0.020798 33.721
8.82920000 0.020804 0.9068 0.999780 -72.68 0.999780 -72.68 0.020807 33.736
8.82940000 0.020813 0.8872 0.999779 -72.68 0.999779 -72.68 0.020815 33.751
8.82960000 0.020821 0.8675 0.999779 -72.69 0.999779 -72.69 0.020824 33.766
8.82980000 0.020830 0.8477 0.999779 -72.69 0.999779 -72.69 0.020833 33.781
8.83000000 0.020839 0.8279 0.999779 -72.69 0.999779 -72.69 0.020841 33.796
8.83020000 0.020848 0.8079 0.999779 -72.69 0.999779 -72.69 0.020850 33.812
8.83040000 0.020857 0.7879 0.999778 -72.70 0.999778 -72.70 0.020859 33.827
8.83060000 0.020866 0.7678 0.999778 -72.70 0.999778 -72.70 0.020868 33.843
8.83080000 0.020875 0.7476 0.999778 -72.70 0.999778 -72.70 0.020877 33.858
8.83100000 0.020884 0.7273 0.999778 -72.70 0.999778 -72.70 0.020886 33.874
8.83120000 0.020893 0.7069 0.999778 -72.70 0.999778 -72.70 0.020895 33.889
8.83140000 0.020902 0.6865 0.999778 -72.71 0.999778 -72.71 0.020905 33.905
8.83160000 0.020911 0.6660 0.999777 -72.71 0.999777 -72.71 0.020914 33.921
8.83180000 0.020920 0.6453 0.999777 -72.71 0.999777 -72.71 0.020923 33.937
8.83200000 0.020930 0.6246 0.999777 -72.71 0.999777 -72.71 0.020932 33.953
8.83220000 0.020939 0.6039 0.999777 -72.72 0.999777 -72.72 0.020942 33.969
8.83240000 0.020949 0.5830 0.999777 -72.72 0.999777 -72.72 0.020951 33.985
8.83260000 0.020958 0.5620 0.999776 -72.72 0.999776 -72.72 0.020961 34.002
8.83280000 0.020968 0.5409 0.999776 -72.72 0.999776 -72.72 0.020970 34.018
8.83300000 0.020977 0.5198 0.999776 -72.73 0.999776 -72.73 0.020980 34.034
8.83320000 0.020987 0.4986 0.999776 -72.73 0.999776 -72.73 0.020989 34.051
8.83340000 0.020996 0.4772 0.999775 -72.73 0.999775 -72.73 0.020999 34.067
8.83360000 0.021006 0.4558 0.999775 -72.73 0.999775 -72.73 0.021009 34.084
8.83380000 0.021016 0.4343 0.999775 -72.74 0.999775 -72.74 0.021019 34.101
8.83400000 0.021026 0.4127 0.999775 -72.74 0.999775 -72.74 0.021029 34.118
8.83420000 0.021036 0.3910 0.999775 -72.74 0.999775 -72.74 0.021038 34.135
8.83440000 0.021046 0.3692 0.999774 -72.74 0.999774 -72.74 0.021048 34.152
8.83460000 0.021056 0.3473 0.999774 -72.74 0.999774 -72.74 0.021059 34.169
8.83480000 0.021066 0.3253 0.999774 -72.75 0.999774 -72.75 0.021069 34.186
8.83500000 0.021076 0.3033 0.999774 -72.75 0.999774 -72.75 0.021079 34.203
8.83520000 0.021086 0.2811 0.999774 -72.75 0.999774 -72.75 0.021089 34.221
8.83540000 0.021097 0.2588 0.999773 -72.75 0.999773 -72.75 0.021099 34.238
8.83560000 0.021107 0.2364 0.999773 -72.76 0.999773 -72.76 0.021110 34.256
8.83580000 0.021117 0.2140 0.999773 -72.76 0.999773 -72.76 0.021120 34.273
8.83600000 0.021128 0.1914 0.999773 -72.76 0.999773 -72.76 0.021131 34.291
8.83620000 0.021138 0.1687 0.999772 -72.76 0.999772 -72.76 0.021141 34.309
8.83640000 0.021149 0.1460 0.999772 -72.77 0.999772 -72.77 0.021152 34.327
8.83660000 0.021160 0.1231 0.999772 -72.77 0.999772 -72.77 0.021162 34.345
8.83680000 0.021170 0.1001 0.999772 -72.77 0.999772 -72.77 0.021173 34.363
8.83700000 0.021181 0.0770 0.999771 -72.77 0.999771 -72.77 0.021184 34.381
8.83720000 0.021192 0.0538 0.999771 -72.78 0.999771 -72.78 0.021195 34.399
8.83740000 0.021203 0.0306 0.999771 -72.78 0.999771 -72.78 0.021206 34.418
8.83760000 0.021214 0.0072 0.999771 -72.78 0.999771 -72.78 0.021217 34.436
8.83780000 0.021225 -0.016 0.999770 -72.78 0.999770 -72.78 0.021228 34.455
8.83800000 0.021236 -0.040 0.999770 -72.79 0.999770 -72.79 0.021239 34.473
8.83820000 0.021247 -0.064 0.999770 -72.79 0.999770 -72.79 0.021250 34.492
8.83840000 0.021259 -0.088 0.999770 -72.79 0.999770 -72.79 0.021261 34.511
8.83860000 0.021270 -0.111 0.999769 -72.79 0.999769 -72.79 0.021273 34.530
8.83880000 0.021281 -0.135 0.999769 -72.80 0.999769 -72.80 0.021284 34.549
8.83900000 0.021293 -0.160 0.999769 -72.80 0.999769 -72.80 0.021296 34.568
8.83920000 0.021304 -0.184 0.999769 -72.80 0.999769 -72.80 0.021307 34.587
8.83940000 0.021316 -0.208 0.999768 -72.80 0.999768 -72.80 0.021319 34.607
8.83960000 0.021328 -0.233 0.999768 -72.81 0.999768 -72.81 0.021331 34.626
8.83980000 0.021340 -0.257 0.999768 -72.81 0.999768 -72.81 0.021343 34.646
8.84000000 0.021351 -0.282 0.999768 -72.81 0.999768 -72.81 0.021354 34.666
8.84020000 0.021363 -0.307 0.999767 -72.81 0.999767 -72.81 0.021366 34.685
8.84040000 0.021375 -0.332 0.999767 -72.82 0.999767 -72.82 0.021378 34.705
8.84060000 0.021388 -0.357 0.999767 -72.82 0.999767 -72.82 0.021390 34.725
8.84080000 0.021400 -0.382 0.999767 -72.82 0.999767 -72.82 0.021403 34.745
8.84100000 0.021412 -0.408 0.999766 -72.82 0.999766 -72.82 0.021415 34.766
8.84120000 0.021424 -0.433 0.999766 -72.83 0.999766 -72.83 0.021427 34.786
8.84140000 0.021437 -0.459 0.999766 -72.83 0.999766 -72.83 0.021440 34.806
8.84160000 0.021449 -0.484 0.999766 -72.83 0.999766 -72.83 0.021452 34.827
8.84180000 0.021462 -0.510 0.999765 -72.83 0.999765 -72.83 0.021465 34.848
8.84200000 0.021474 -0.536 0.999765 -72.84 0.999765 -72.84 0.021477 34.869
8.84220000 0.021487 -0.562 0.999765 -72.84 0.999765 -72.84 0.021490 34.889
8.84240000 0.021500 -0.588 0.999764 -72.84 0.999764 -72.84 0.021503 34.910
8.84260000 0.021513 -0.615 0.999764 -72.84 0.999764 -72.84 0.021516 34.932
8.84280000 0.021526 -0.641 0.999764 -72.85 0.999764 -72.85 0.021529 34.953
8.84300000 0.021539 -0.668 0.999763 -72.85 0.999763 -72.85 0.021542 34.974
8.84320000 0.021552 -0.694 0.999763 -72.85 0.999763 -72.85 0.021555 34.996
8.84340000 0.021565 -0.721 0.999763 -72.85 0.999763 -72.85 0.021569 35.017
8.84360000 0.021579 -0.748 0.999763 -72.86 0.999763 -72.86 0.021582 35.039
8.84380000 0.021592 -0.775 0.999762 -72.86 0.999762 -72.86 0.021595 35.061
8.84400000 0.021606 -0.803 0.999762 -72.86 0.999762 -72.86 0.021609 35.083
8.84420000 0.021619 -0.830 0.999762 -72.86 0.999762 -72.86 0.021623 35.105
8.84440000 0.021633 -0.857 0.999761 -72.87 0.999761 -72.87 0.021636 35.127
8.84460000 0.021647 -0.885 0.999761 -72.87 0.999761 -72.87 0.021650 35.150
8.84480000 0.021661 -0.913 0.999761 -72.87 0.999761 -72.87 0.021664 35.172
8.84500000 0.021675 -0.941 0.999760 -72.87 0.999760 -72.87 0.021678 35.195
8.84520000 0.021689 -0.969 0.999760 -72.88 0.999760 -72.88 0.021692 35.217
8.84540000 0.021703 -0.997 0.999760 -72.88 0.999760 -72.88 0.021707 35.240
8.84560000 0.021718 -1.026 0.999759 -72.88 0.999759 -72.88 0.021721 35.263
8.84580000 0.021732 -1.054 0.999759 -72.89 0.999759 -72.89 0.021735 35.286
8.84600000 0.021747 -1.083 0.999759 -72.89 0.999759 -72.89 0.021750 35.310
8.84620000 0.021761 -1.112 0.999758 -72.89 0.999758 -72.89 0.021765 35.333
8.84640000 0.021776 -1.141 0.999758 -72.89 0.999758 -72.89 0.021779 35.357
8.84660000 0.021791 -1.170 0.999758 -72.90 0.999758 -72.90 0.021794 35.380
8.84680000 0.021806 -1.199 0.999757 -72.90 0.999757 -72.90 0.021809 35.404
8.84700000 0.021821 -1.228 0.999757 -72.90 0.999757 -72.90 0.021824 35.428
8.84720000 0.021836 -1.258 0.999757 -72.90 0.999757 -72.90 0.021839 35.452
8.84740000 0.021851 -1.288 0.999756 -72.91 0.999756 -72.91 0.021855 35.476
8.84760000 0.021867 -1.318 0.999756 -72.91 0.999756 -72.91 0.021870 35.501
8.84780000 0.021882 -1.348 0.999756 -72.91 0.999756 -72.91 0.021886 35.525
8.84800000 0.021898 -1.378 0.999755 -72.91 0.999755 -72.91 0.021901 35.550
8.84820000 0.021914 -1.408 0.999755 -72.92 0.999755 -72.92 0.021917 35.575
8.84840000 0.021929 -1.439 0.999755 -72.92 0.999755 -72.92 0.021933 35.600
8.84860000 0.021945 -1.469 0.999754 -72.92 0.999754 -72.92 0.021949 35.625
8.84880000 0.021961 -1.500 0.999754 -72.93 0.999754 -72.93 0.021965 35.650
8.84900000 0.021978 -1.531 0.999754 -72.93 0.999754 -72.93 0.021981 35.675
8.84920000 0.021994 -1.562 0.999753 -72.93 0.999753 -72.93 0.021997 35.701
8.84940000 0.022010 -1.594 0.999753 -72.93 0.999753 -72.93 0.022014 35.727
8.84960000 0.022027 -1.625 0.999752 -72.94 0.999752 -72.94 0.022031 35.752
8.84980000 0.022044 -1.657 0.999752 -72.94 0.999752 -72.94 0.022047 35.778
8.85000000 0.022061 -1.689 0.999752 -72.94 0.999752 -72.94 0.022064 35.805
8.85020000 0.022077 -1.721 0.999751 -72.95 0.999751 -72.95 0.022081 35.831
8.85040000 0.022095 -1.753 0.999751 -72.95 0.999751 -72.95 0.022098 35.857
8.85060000 0.022112 -1.786 0.999750 -72.95 0.999750 -72.95 0.022115 35.884
8.85080000 0.022129 -1.818 0.999750 -72.95 0.999750 -72.95 0.022133 35.911
8.85100000 0.022147 -1.851 0.999750 -72.96 0.999750 -72.96 0.022150 35.938
8.85120000 0.022164 -1.884 0.999749 -72.96 0.999749 -72.96 0.022168 35.965
8.85140000 0.022182 -1.917 0.999749 -72.96 0.999749 -72.96 0.022186 35.992
8.85160000 0.022200 -1.951 0.999748 -72.97 0.999748 -72.97 0.022204 36.020
8.85180000 0.022218 -1.984 0.999748 -72.97 0.999748 -72.97 0.022222 36.047
8.85200000 0.022236 -2.018 0.999748 -72.97 0.999748 -72.97 0.022240 36.075
8.85220000 0.022255 -2.052 0.999747 -72.97 0.999747 -72.97 0.022258 36.103
8.85240000 0.022273 -2.086 0.999747 -72.98 0.999747 -72.98 0.022277 36.131
8.85260000 0.022292 -2.120 0.999746 -72.98 0.999746 -72.98 0.022296 36.160
8.85280000 0.022310 -2.155 0.999746 -72.98 0.999746 -72.98 0.022314 36.188
8.85300000 0.022329 -2.189 0.999745 -72.99 0.999745 -72.99 0.022333 36.217
8.85320000 0.022349 -2.224 0.999745 -72.99 0.999745 -72.99 0.022352 36.246
8.85340000 0.022368 -2.259 0.999745 -72.99 0.999745 -72.99 0.022372 36.275
8.85360000 0.022387 -2.295 0.999744 -73.00 0.999744 -73.00 0.022391 36.304
8.85380000 0.022407 -2.330 0.999744 -73.00 0.999744 -73.00 0.022411 36.333
8.85400000 0.022426 -2.366 0.999743 -73.00 0.999743 -73.00 0.022430 36.363
8.85420000 0.022446 -2.402 0.999743 -73.00 0.999743 -73.00 0.022450 36.393
8.85440000 0.022466 -2.438 0.999742 -73.01 0.999742 -73.01 0.022470 36.423
8.85460000 0.022487 -2.474 0.999742 -73.01 0.999742 -73.01 0.022491 36.453
8.85480000 0.022507 -2.511 0.999741 -73.01 0.999741 -73.01 0.022511 36.483
8.85500000 0.022528 -2.548 0.999741 -73.02 0.999741 -73.02 0.022532 36.514
8.85520000 0.022548 -2.585 0.999740 -73.02 0.999740 -73.02 0.022552 36.545
8.85540000 0.022569 -2.622 0.999740 -73.02 0.999740 -73.02 0.022573 36.576
8.85560000 0.022590 -2.659 0.999739 -73.03 0.999739 -73.03 0.022595 36.607
8.85580000 0.022612 -2.697 0.999739 -73.03 0.999739 -73.03 0.022616 36.638
8.85600000 0.022633 -2.735 0.999738 -73.03 0.999738 -73.03 0.022637 36.670
8.85620000 0.022655 -2.773 0.999738 -73.04 0.999738 -73.04 0.022659 36.702
8.85640000 0.022677 -2.812 0.999737 -73.04 0.999737 -73.04 0.022681 36.734
8.85660000 0.022699 -2.850 0.999737 -73.04 0.999737 -73.04 0.022703 36.766
8.85680000 0.022721 -2.889 0.999736 -73.04 0.999736 -73.04 0.022725 36.798
8.85700000 0.022743 -2.928 0.999736 -73.05 0.999736 -73.05 0.022748 36.831
8.85720000 0.022766 -2.968 0.999735 -73.05 0.999735 -73.05 0.022770 36.864
8.85740000 0.022789 -3.007 0.999735 -73.05 0.999735 -73.05 0.022793 36.897
8.85760000 0.022812 -3.047 0.999734 -73.06 0.999734 -73.06 0.022816 36.930
8.85780000 0.022835 -3.087 0.999734 -73.06 0.999734 -73.06 0.022839 36.963
8.85800000 0.022858 -3.128 0.999733 -73.06 0.999733 -73.06 0.022863 36.997
8.85820000 0.022882 -3.168 0.999732 -73.07 0.999732 -73.07 0.022887 37.031
8.85840000 0.022906 -3.209 0.999732 -73.07 0.999732 -73.07 0.022910 37.065
8.85860000 0.022930 -3.250 0.999731 -73.07 0.999731 -73.07 0.022935 37.100
8.85880000 0.022954 -3.292 0.999731 -73.08 0.999731 -73.08 0.022959 37.134
8.85900000 0.022979 -3.333 0.999730 -73.08 0.999730 -73.08 0.022983 37.169
8.85920000 0.023004 -3.375 0.999729 -73.08 0.999729 -73.08 0.023008 37.204
8.85940000 0.023029 -3.417 0.999729 -73.09 0.999729 -73.09 0.023033 37.240
8.85960000 0.023054 -3.460 0.999728 -73.09 0.999728 -73.09 0.023059 37.275
8.85980000 0.023079 -3.503 0.999728 -73.09 0.999728 -73.09 0.023084 37.311
8.86000000 0.023105 -3.546 0.999727 -73.10 0.999727 -73.10 0.023110 37.347
8.86020000 0.023131 -3.589 0.999726 -73.10 0.999726 -73.10 0.023136 37.384
8.86040000 0.023157 -3.632 0.999726 -73.10 0.999726 -73.10 0.023162 37.420
8.86060000 0.023184 -3.676 0.999725 -73.11 0.999725 -73.11 0.023188 37.457
8.86080000 0.023210 -3.721 0.999724 -73.11 0.999724 -73.11 0.023215 37.494
8.86100000 0.023237 -3.765 0.999724 -73.11 0.999724 -73.11 0.023242 37.532
8.86120000 0.023264 -3.810 0.999723 -73.12 0.999723 -73.12 0.023269 37.569
8.86140000 0.023292 -3.855 0.999722 -73.12 0.999722 -73.12 0.023297 37.607
8.86160000 0.023320 -3.900 0.999722 -73.13 0.999722 -73.13 0.023325 37.645
8.86180000 0.023348 -3.946 0.999721 -73.13 0.999721 -73.13 0.023353 37.684
8.86200000 0.023376 -3.992 0.999720 -73.13 0.999720 -73.13 0.023381 37.723
8.86220000 0.023404 -4.038 0.999720 -73.14 0.999720 -73.14 0.023409 37.762
8.86240000 0.023433 -4.085 0.999719 -73.14 0.999719 -73.14 0.023438 37.801
8.86260000 0.023462 -4.132 0.999718 -73.14 0.999718 -73.14 0.023468 37.840
8.86280000 0.023492 -4.179 0.999718 -73.15 0.999718 -73.15 0.023497 37.880
8.86300000 0.023522 -4.227 0.999717 -73.15 0.999717 -73.15 0.023527 37.920
8.86320000 0.023552 -4.275 0.999716 -73.15 0.999716 -73.15 0.023557 37.961
8.86340000 0.023582 -4.323 0.999715 -73.16 0.999715 -73.16 0.023587 38.002
8.86360000 0.023613 -4.371 0.999715 -73.16 0.999715 -73.16 0.023618 38.043
8.86380000 0.023644 -4.420 0.999714 -73.17 0.999714 -73.17 0.023649 38.084
8.86400000 0.023675 -4.470 0.999713 -73.17 0.999713 -73.17 0.023680 38.125
8.86420000 0.023706 -4.519 0.999712 -73.17 0.999712 -73.17 0.023712 38.167
8.86440000 0.023738 -4.569 0.999711 -73.18 0.999711 -73.18 0.023744 38.210
8.86460000 0.023771 -4.620 0.999711 -73.18 0.999711 -73.18 0.023776 38.252
8.86480000 0.023803 -4.670 0.999710 -73.18 0.999710 -73.18 0.023809 38.295
8.86500000 0.023836 -4.721 0.999709 -73.19 0.999709 -73.19 0.023842 38.338
8.86520000 0.023870 -4.773 0.999708 -73.19 0.999708 -73.19 0.023875 38.382
8.86540000 0.023903 -4.825 0.999707 -73.20 0.999707 -73.20 0.023909 38.426
8.86560000 0.023937 -4.877 0.999706 -73.20 0.999706 -73.20 0.023943 38.470
8.86580000 0.023972 -4.929 0.999706 -73.20 0.999706 -73.20 0.023977 38.514
8.86600000 0.024007 -4.982 0.999705 -73.21 0.999705 -73.21 0.024012 38.559
8.86620000 0.024042 -5.036 0.999704 -73.21 0.999704 -73.21 0.024047 38.604
8.86640000 0.024077 -5.090 0.999703 -73.22 0.999703 -73.22 0.024083 38.650
8.86660000 0.024113 -5.144 0.999702 -73.22 0.999702 -73.22 0.024119 38.696
8.86680000 0.024150 -5.198 0.999701 -73.22 0.999701 -73.22 0.024155 38.742
8.86700000 0.024186 -5.253 0.999700 -73.23 0.999700 -73.23 0.024192 38.788
8.86720000 0.024223 -5.309 0.999699 -73.23 0.999699 -73.23 0.024229 38.835
8.86740000 0.024261 -5.364 0.999698 -73.24 0.999698 -73.24 0.024267 38.883
8.86760000 0.024299 -5.421 0.999697 -73.24 0.999697 -73.24 0.024305 38.930
8.86780000 0.024337 -5.477 0.999696 -73.24 0.999696 -73.24 0.024344 38.978
8.86800000 0.024376 -5.534 0.999695 -73.25 0.999695 -73.25 0.024383 39.027
8.86820000 0.024416 -5.592 0.999694 -73.25 0.999694 -73.25 0.024422 39.075
8.86840000 0.024456 -5.650 0.999693 -73.26 0.999693 -73.26 0.024462 39.125
8.86860000 0.024496 -5.708 0.999692 -73.26 0.999692 -73.26 0.024502 39.174
8.86880000 0.024537 -5.767 0.999691 -73.27 0.999691 -73.27 0.024543 39.224
8.86900000 0.024578 -5.827 0.999690 -73.27 0.999690 -73.27 0.024584 39.274
8.86920000 0.024619 -5.886 0.999689 -73.28 0.999689 -73.28 0.024626 39.325
8.86940000 0.024662 -5.947 0.999688 -73.28 0.999688 -73.28 0.024668 39.376
8.86960000 0.024704 -6.007 0.999687 -73.28 0.999687 -73.28 0.024711 39.428
8.86980000 0.024748 -6.069 0.999686 -73.29 0.999686 -73.29 0.024754 39.480
8.87000000 0.024791 -6.130 0.999685 -73.29 0.999685 -73.29 0.024798 39.532
8.87020000 0.024836 -6.193 0.999683 -73.30 0.999683 -73.30 0.024842 39.585
8.87040000 0.024881 -6.255 0.999682 -73.30 0.999682 -73.30 0.024887 39.638
8.87060000 0.024926 -6.319 0.999681 -73.31 0.999681 -73.31 0.024933 39.692
8.87080000 0.024972 -6.382 0.999680 -73.31 0.999680 -73.31 0.024979 39.746
8.87100000 0.025018 -6.447 0.999679 -73.32 0.999679 -73.32 0.025025 39.801
8.87120000 0.025066 -6.511 0.999677 -73.32 0.999677 -73.32 0.025073 39.856
8.87140000 0.025113 -6.577 0.999676 -73.33 0.999676 -73.33 0.025120 39.911
8.87160000 0.025162 -6.643 0.999675 -73.33 0.999675 -73.33 0.025169 39.967
8.87180000 0.025211 -6.709 0.999673 -73.34 0.999673 -73.34 0.025218 40.023
8.87200000 0.025260 -6.776 0.999672 -73.34 0.999672 -73.34 0.025267 40.080
8.87220000 0.025310 -6.843 0.999671 -73.35 0.999671 -73.35 0.025318 40.138
8.87240000 0.025361 -6.912 0.999669 -73.35 0.999669 -73.35 0.025369 40.196
8.87260000 0.025413 -6.980 0.999668 -73.36 0.999668 -73.36 0.025420 40.254
8.87280000 0.025465 -7.050 0.999667 -73.36 0.999667 -73.36 0.025473 40.313
8.87300000 0.025518 -7.119 0.999665 -73.37 0.999665 -73.37 0.025526 40.372
8.87320000 0.025572 -7.190 0.999664 -73.37 0.999664 -73.37 0.025579 40.432
8.87340000 0.025626 -7.261 0.999662 -73.38 0.999662 -73.38 0.025634 40.492
8.87360000 0.025681 -7.333 0.999661 -73.38 0.999661 -73.38 0.025689 40.553
8.87380000 0.025737 -7.405 0.999659 -73.39 0.999659 -73.39 0.025745 40.614
8.87400000 0.025794 -7.478 0.999658 -73.39 0.999658 -73.39 0.025802 40.676
8.87420000 0.025851 -7.551 0.999656 -73.40 0.999656 -73.40 0.025859 40.739
8.87440000 0.025909 -7.626 0.999655 -73.40 0.999655 -73.40 0.025917 40.802
8.87450075 0.025939 -7.663 0.999654 -73.41 0.999654 -73.41 0.025947 40.834
8.87460000 0.025968 -7.700 0.999653 -73.41 0.999653 -73.41 0.025977 40.865
8.87480000 0.026028 -7.776 0.999651 -73.41 0.999651 -73.41 0.026037 40.929
8.87500000 0.026089 -7.852 0.999650 -73.42 0.999650 -73.42 0.026097 40.994
8.87518545 0.026146 -7.924 0.999648 -73.42 0.999648 -73.42 0.026155 41.054
8.87520000 0.026151 -7.929 0.999648 -73.43 0.999648 -73.43 0.026159 41.059
8.87540000 0.026213 -8.007 0.999646 -73.43 0.999646 -73.43 0.026222 41.125
8.87560000 0.026277 -8.085 0.999644 -73.44 0.999644 -73.44 0.026285 41.191
8.87580000 0.026341 -8.164 0.999643 -73.44 0.999643 -73.44 0.026350 41.258
8.87585445 0.026359 -8.186 0.999642 -73.44 0.999642 -73.44 0.026367 41.277
8.87600000 0.026406 -8.244 0.999641 -73.45 0.999641 -73.45 0.026415 41.326
8.87620000 0.026473 -8.324 0.999639 -73.45 0.999639 -73.45 0.026481 41.394
8.87640000 0.026540 -8.406 0.999637 -73.46 0.999637 -73.46 0.026549 41.463
8.87650813 0.026577 -8.450 0.999636 -73.46 0.999636 -73.46 0.026586 41.501
8.87660000 0.026608 -8.488 0.999635 -73.47 0.999635 -73.47 0.026617 41.532
8.87680000 0.026677 -8.570 0.999633 -73.47 0.999633 -73.47 0.026686 41.603
8.87700000 0.026748 -8.654 0.999631 -73.48 0.999631 -73.48 0.026757 41.673
8.87714683 0.026800 -8.716 0.999630 -73.48 0.999630 -73.48 0.026809 41.726
8.87720000 0.026819 -8.738 0.999629 -73.48 0.999629 -73.48 0.026828 41.745
8.87740000 0.026892 -8.823 0.999627 -73.49 0.999627 -73.49 0.026901 41.817