! Sonnet Data File
! From: emgraph Version : 16.52
! From Emgraph Data: Resonator2_extremeCap
! Data File Written: 10/11/2017 20:21:07
!< HDATE 10/11/2017 18:29:07
!< MDATE 10/11/2017 18:29:07
!< PARAMS
!< Pwid1 = 2000.0
!< Width = 20.0
!< Gap = 18.0
!< END PARAMS
# GHZ S MA R 40.13000
8.90000000 0.305035 -2.769 0.952332 -92.63 0.952332 -92.63 0.305024 -2.489
!< P1 F=8.9 Eeff=(5.24798951 -2.3049e-5) Z0=(40.1339254 8.93825e-5) R=0.0 C=0.0 
!< P2 F=8.9 Eeff=(5.24798951 -2.3049e-5) Z0=(40.1339254 8.93825e-5) R=0.0 C=0.0 
8.90020000 0.305069 -2.765 0.952321 -92.63 0.952321 -92.63 0.305058 -2.505
8.90040000 0.305104 -2.761 0.952310 -92.64 0.952310 -92.64 0.305093 -2.521
8.90060000 0.305139 -2.757 0.952299 -92.65 0.952299 -92.65 0.305128 -2.537
8.90080000 0.305174 -2.752 0.952287 -92.65 0.952287 -92.65 0.305163 -2.553
8.90100000 0.305209 -2.748 0.952276 -92.66 0.952276 -92.66 0.305198 -2.569
8.90120000 0.305244 -2.744 0.952265 -92.66 0.952265 -92.66 0.305233 -2.586
8.90140000 0.305279 -2.739 0.952254 -92.67 0.952254 -92.67 0.305268 -2.602
8.90160000 0.305315 -2.735 0.952242 -92.68 0.952242 -92.68 0.305303 -2.618
8.90180000 0.305350 -2.731 0.952231 -92.68 0.952231 -92.68 0.305339 -2.635
8.90200000 0.305385 -2.727 0.952220 -92.69 0.952220 -92.69 0.305374 -2.651
8.90220000 0.305421 -2.722 0.952208 -92.69 0.952208 -92.69 0.305409 -2.668
8.90240000 0.305456 -2.718 0.952197 -92.70 0.952197 -92.70 0.305445 -2.684
8.90260000 0.305492 -2.713 0.952185 -92.71 0.952185 -92.71 0.305481 -2.701
8.90280000 0.305528 -2.709 0.952174 -92.71 0.952174 -92.71 0.305516 -2.717
8.90300000 0.305563 -2.705 0.952162 -92.72 0.952162 -92.72 0.305552 -2.734
8.90320000 0.305599 -2.700 0.952151 -92.72 0.952151 -92.72 0.305588 -2.751
8.90340000 0.305635 -2.696 0.952139 -92.73 0.952139 -92.73 0.305624 -2.767
8.90360000 0.305671 -2.691 0.952128 -92.74 0.952128 -92.74 0.305660 -2.784
8.90380000 0.305707 -2.687 0.952116 -92.74 0.952116 -92.74 0.305696 -2.801
8.90400000 0.305744 -2.682 0.952104 -92.75 0.952104 -92.75 0.305732 -2.818
8.90420000 0.305780 -2.678 0.952093 -92.76 0.952093 -92.76 0.305768 -2.834
8.90440000 0.305816 -2.673 0.952081 -92.76 0.952081 -92.76 0.305804 -2.851
8.90460000 0.305853 -2.668 0.952069 -92.77 0.952069 -92.77 0.305841 -2.868
8.90480000 0.305889 -2.664 0.952058 -92.77 0.952058 -92.77 0.305877 -2.885
8.90500000 0.305926 -2.659 0.952046 -92.78 0.952046 -92.78 0.305914 -2.902
8.90520000 0.305962 -2.654 0.952034 -92.79 0.952034 -92.79 0.305950 -2.919
8.90540000 0.305999 -2.650 0.952022 -92.79 0.952022 -92.79 0.305987 -2.936
8.90560000 0.306036 -2.645 0.952010 -92.80 0.952010 -92.80 0.306024 -2.954
8.90580000 0.306073 -2.640 0.951998 -92.81 0.951998 -92.81 0.306061 -2.971
8.90600000 0.306110 -2.636 0.951987 -92.81 0.951987 -92.81 0.306098 -2.988
8.90620000 0.306147 -2.631 0.951975 -92.82 0.951975 -92.82 0.306135 -3.005
8.90640000 0.306184 -2.626 0.951963 -92.82 0.951963 -92.82 0.306172 -3.023
8.90660000 0.306221 -2.621 0.951951 -92.83 0.951951 -92.83 0.306209 -3.040
8.90680000 0.306259 -2.617 0.951939 -92.84 0.951939 -92.84 0.306246 -3.057
8.90700000 0.306296 -2.612 0.951927 -92.84 0.951927 -92.84 0.306284 -3.075
8.90720000 0.306334 -2.607 0.951915 -92.85 0.951915 -92.85 0.306321 -3.092
8.90740000 0.306371 -2.602 0.951902 -92.86 0.951902 -92.86 0.306359 -3.110
8.90760000 0.306409 -2.597 0.951890 -92.86 0.951890 -92.86 0.306396 -3.127
8.90780000 0.306447 -2.592 0.951878 -92.87 0.951878 -92.87 0.306434 -3.145
8.90800000 0.306484 -2.587 0.951866 -92.87 0.951866 -92.87 0.306472 -3.162
8.90820000 0.306522 -2.583 0.951854 -92.88 0.951854 -92.88 0.306510 -3.180
8.90840000 0.306560 -2.578 0.951841 -92.89 0.951841 -92.89 0.306548 -3.198
8.90860000 0.306598 -2.573 0.951829 -92.89 0.951829 -92.89 0.306586 -3.216
8.90880000 0.306637 -2.568 0.951817 -92.90 0.951817 -92.90 0.306624 -3.233
8.90900000 0.306675 -2.563 0.951804 -92.91 0.951804 -92.91 0.306662 -3.251
8.90920000 0.306713 -2.558 0.951792 -92.91 0.951792 -92.91 0.306701 -3.269
8.90940000 0.306752 -2.552 0.951780 -92.92 0.951780 -92.92 0.306739 -3.287
8.90960000 0.306790 -2.547 0.951767 -92.93 0.951767 -92.93 0.306777 -3.305
8.90980000 0.306829 -2.542 0.951755 -92.93 0.951755 -92.93 0.306816 -3.323
8.91000000 0.306868 -2.537 0.951742 -92.94 0.951742 -92.94 0.306855 -3.341
8.91020000 0.306906 -2.532 0.951730 -92.95 0.951730 -92.95 0.306894 -3.359
8.91040000 0.306945 -2.527 0.951717 -92.95 0.951717 -92.95 0.306932 -3.378
8.91060000 0.306984 -2.522 0.951705 -92.96 0.951705 -92.96 0.306971 -3.396
8.91080000 0.307023 -2.516 0.951692 -92.96 0.951692 -92.96 0.307010 -3.414
8.91100000 0.307063 -2.511 0.951679 -92.97 0.951679 -92.97 0.307050 -3.432
8.91120000 0.307102 -2.506 0.951667 -92.98 0.951667 -92.98 0.307089 -3.451
8.91140000 0.307141 -2.501 0.951654 -92.98 0.951654 -92.98 0.307128 -3.469
8.91160000 0.307181 -2.495 0.951641 -92.99 0.951641 -92.99 0.307168 -3.488
8.91180000 0.307220 -2.490 0.951628 -93.00 0.951628 -93.00 0.307207 -3.506
8.91200000 0.307260 -2.485 0.951616 -93.00 0.951616 -93.00 0.307247 -3.525
8.91220000 0.307300 -2.479 0.951603 -93.01 0.951603 -93.01 0.307286 -3.543
8.91240000 0.307340 -2.474 0.951590 -93.02 0.951590 -93.02 0.307326 -3.562
8.91260000 0.307379 -2.469 0.951577 -93.02 0.951577 -93.02 0.307366 -3.581
8.91280000 0.307420 -2.463 0.951564 -93.03 0.951564 -93.03 0.307406 -3.599
8.91300000 0.307460 -2.458 0.951551 -93.04 0.951551 -93.04 0.307446 -3.618
8.91320000 0.307500 -2.452 0.951538 -93.04 0.951538 -93.04 0.307486 -3.637
8.91340000 0.307540 -2.447 0.951525 -93.05 0.951525 -93.05 0.307527 -3.656
8.91360000 0.307581 -2.441 0.951512 -93.06 0.951512 -93.06 0.307567 -3.675
8.91380000 0.307621 -2.436 0.951499 -93.06 0.951499 -93.06 0.307608 -3.694
8.91400000 0.307662 -2.430 0.951485 -93.07 0.951485 -93.07 0.307648 -3.713
8.91420000 0.307703 -2.425 0.951472 -93.08 0.951472 -93.08 0.307689 -3.732
8.91440000 0.307744 -2.419 0.951459 -93.08 0.951459 -93.08 0.307730 -3.751
8.91460000 0.307784 -2.413 0.951446 -93.09 0.951446 -93.09 0.307771 -3.770
8.91480000 0.307826 -2.408 0.951432 -93.10 0.951432 -93.10 0.307812 -3.790
8.91500000 0.307867 -2.402 0.951419 -93.10 0.951419 -93.10 0.307853 -3.809
8.91520000 0.307908 -2.396 0.951406 -93.11 0.951406 -93.11 0.307894 -3.828
8.91540000 0.307949 -2.391 0.951392 -93.12 0.951392 -93.12 0.307935 -3.848
8.91560000 0.307991 -2.385 0.951379 -93.13 0.951379 -93.13 0.307977 -3.867
8.91580000 0.308032 -2.379 0.951365 -93.13 0.951365 -93.13 0.308018 -3.886
8.91600000 0.308074 -2.373 0.951352 -93.14 0.951352 -93.14 0.308060 -3.906
8.91620000 0.308116 -2.368 0.951338 -93.15 0.951338 -93.15 0.308102 -3.926
8.91640000 0.308158 -2.362 0.951325 -93.15 0.951325 -93.15 0.308144 -3.945
8.91660000 0.308200 -2.356 0.951311 -93.16 0.951311 -93.16 0.308186 -3.965
8.91680000 0.308242 -2.350 0.951297 -93.17 0.951297 -93.17 0.308228 -3.985
8.91700000 0.308284 -2.344 0.951284 -93.17 0.951284 -93.17 0.308270 -4.004
8.91720000 0.308326 -2.338 0.951270 -93.18 0.951270 -93.18 0.308312 -4.024
8.91740000 0.308369 -2.332 0.951256 -93.19 0.951256 -93.19 0.308354 -4.044
8.91760000 0.308411 -2.326 0.951242 -93.19 0.951242 -93.19 0.308397 -4.064
8.91780000 0.308454 -2.320 0.951229 -93.20 0.951229 -93.20 0.308440 -4.084
8.91800000 0.308497 -2.314 0.951215 -93.21 0.951215 -93.21 0.308482 -4.104
8.91820000 0.308540 -2.308 0.951201 -93.22 0.951201 -93.22 0.308525 -4.124
8.91840000 0.308583 -2.302 0.951187 -93.22 0.951187 -93.22 0.308568 -4.144
8.91860000 0.308626 -2.296 0.951173 -93.23 0.951173 -93.23 0.308611 -4.165
8.91880000 0.308669 -2.290 0.951159 -93.24 0.951159 -93.24 0.308654 -4.185
8.91900000 0.308712 -2.284 0.951145 -93.24 0.951145 -93.24 0.308698 -4.205
8.91920000 0.308756 -2.277 0.951131 -93.25 0.951131 -93.25 0.308741 -4.226
8.91940000 0.308799 -2.271 0.951116 -93.26 0.951116 -93.26 0.308785 -4.246
8.91960000 0.308843 -2.265 0.951102 -93.27 0.951102 -93.27 0.308828 -4.267
8.91980000 0.308887 -2.259 0.951088 -93.27 0.951088 -93.27 0.308872 -4.287
8.92000000 0.308931 -2.252 0.951074 -93.28 0.951074 -93.28 0.308916 -4.308
8.92020000 0.308975 -2.246 0.951059 -93.29 0.951059 -93.29 0.308960 -4.328
8.92040000 0.309019 -2.240 0.951045 -93.29 0.951045 -93.29 0.309004 -4.349
8.92060000 0.309063 -2.233 0.951031 -93.30 0.951031 -93.30 0.309048 -4.370
8.92080000 0.309108 -2.227 0.951016 -93.31 0.951016 -93.31 0.309093 -4.391
8.92100000 0.309152 -2.221 0.951002 -93.32 0.951002 -93.32 0.309137 -4.412
8.92120000 0.309197 -2.214 0.950987 -93.32 0.950987 -93.32 0.309182 -4.433
8.92140000 0.309242 -2.208 0.950972 -93.33 0.950972 -93.33 0.309226 -4.454
8.92160000 0.309287 -2.201 0.950958 -93.34 0.950958 -93.34 0.309271 -4.475
8.92180000 0.309332 -2.195 0.950943 -93.34 0.950943 -93.34 0.309316 -4.496
8.92200000 0.309377 -2.188 0.950928 -93.35 0.950928 -93.35 0.309361 -4.517
8.92220000 0.309422 -2.182 0.950914 -93.36 0.950914 -93.36 0.309406 -4.538
8.92240000 0.309467 -2.175 0.950899 -93.37 0.950899 -93.37 0.309452 -4.560
8.92260000 0.309513 -2.168 0.950884 -93.37 0.950884 -93.37 0.309497 -4.581
8.92280000 0.309559 -2.162 0.950869 -93.38 0.950869 -93.38 0.309543 -4.602
8.92300000 0.309604 -2.155 0.950854 -93.39 0.950854 -93.39 0.309589 -4.624
8.92320000 0.309650 -2.148 0.950839 -93.40 0.950839 -93.40 0.309634 -4.645
8.92340000 0.309696 -2.142 0.950824 -93.40 0.950824 -93.40 0.309680 -4.667
8.92360000 0.309742 -2.135 0.950809 -93.41 0.950809 -93.41 0.309726 -4.689
8.92380000 0.309789 -2.128 0.950794 -93.42 0.950794 -93.42 0.309773 -4.710
8.92400000 0.309835 -2.121 0.950779 -93.43 0.950779 -93.43 0.309819 -4.732
8.92420000 0.309882 -2.114 0.950764 -93.43 0.950764 -93.43 0.309866 -4.754
8.92440000 0.309928 -2.107 0.950749 -93.44 0.950749 -93.44 0.309912 -4.776
8.92460000 0.309975 -2.100 0.950733 -93.45 0.950733 -93.45 0.309959 -4.798
8.92480000 0.310022 -2.094 0.950718 -93.46 0.950718 -93.46 0.310006 -4.820
8.92500000 0.310069 -2.087 0.950703 -93.46 0.950703 -93.46 0.310053 -4.842
8.92520000 0.310116 -2.080 0.950687 -93.47 0.950687 -93.47 0.310100 -4.864
8.92540000 0.310164 -2.073 0.950672 -93.48 0.950672 -93.48 0.310147 -4.887
8.92560000 0.310211 -2.065 0.950656 -93.49 0.950656 -93.49 0.310195 -4.909
8.92580000 0.310259 -2.058 0.950641 -93.49 0.950641 -93.49 0.310242 -4.931
8.92600000 0.310307 -2.051 0.950625 -93.50 0.950625 -93.50 0.310290 -4.954
8.92620000 0.310355 -2.044 0.950609 -93.51 0.950609 -93.51 0.310338 -4.976
8.92640000 0.310403 -2.037 0.950594 -93.52 0.950594 -93.52 0.310386 -4.999
8.92660000 0.310451 -2.030 0.950578 -93.52 0.950578 -93.52 0.310434 -5.021
8.92680000 0.310499 -2.023 0.950562 -93.53 0.950562 -93.53 0.310482 -5.044
8.92700000 0.310548 -2.015 0.950546 -93.54 0.950546 -93.54 0.310531 -5.067
8.92720000 0.310596 -2.008 0.950530 -93.55 0.950530 -93.55 0.310579 -5.090
8.92740000 0.310645 -2.001 0.950514 -93.56 0.950514 -93.56 0.310628 -5.112
8.92760000 0.310694 -1.993 0.950498 -93.56 0.950498 -93.56 0.310677 -5.135
8.92780000 0.310743 -1.986 0.950482 -93.57 0.950482 -93.57 0.310726 -5.158
8.92800000 0.310792 -1.979 0.950466 -93.58 0.950466 -93.58 0.310775 -5.182
8.92820000 0.310842 -1.971 0.950450 -93.59 0.950450 -93.59 0.310824 -5.205
8.92840000 0.310891 -1.964 0.950434 -93.60 0.950434 -93.60 0.310874 -5.228
8.92860000 0.310941 -1.956 0.950417 -93.60 0.950417 -93.60 0.310923 -5.251
8.92880000 0.310991 -1.949 0.950401 -93.61 0.950401 -93.61 0.310973 -5.275
8.92900000 0.311041 -1.941 0.950385 -93.62 0.950385 -93.62 0.311023 -5.298
8.92920000 0.311091 -1.933 0.950368 -93.63 0.950368 -93.63 0.311073 -5.322
8.92940000 0.311141 -1.926 0.950352 -93.63 0.950352 -93.63 0.311123 -5.345
8.92960000 0.311191 -1.918 0.950335 -93.64 0.950335 -93.64 0.311174 -5.369
8.92980000 0.311242 -1.910 0.950319 -93.65 0.950319 -93.65 0.311224 -5.392
8.93000000 0.311293 -1.903 0.950302 -93.66 0.950302 -93.66 0.311275 -5.416
8.93020000 0.311344 -1.895 0.950285 -93.67 0.950285 -93.67 0.311326 -5.440
8.93040000 0.311395 -1.887 0.950269 -93.67 0.950269 -93.67 0.311377 -5.464
8.93060000 0.311446 -1.879 0.950252 -93.68 0.950252 -93.68 0.311428 -5.488
8.93080000 0.311497 -1.871 0.950235 -93.69 0.950235 -93.69 0.311479 -5.512
8.93100000 0.311549 -1.864 0.950218 -93.70 0.950218 -93.70 0.311531 -5.536
8.93120000 0.311600 -1.856 0.950201 -93.71 0.950201 -93.71 0.311582 -5.560
8.93140000 0.311652 -1.848 0.950184 -93.72 0.950184 -93.72 0.311634 -5.585
8.93160000 0.311704 -1.840 0.950167 -93.72 0.950167 -93.72 0.311686 -5.609
8.93180000 0.311757 -1.832 0.950150 -93.73 0.950150 -93.73 0.311738 -5.634
8.93200000 0.311809 -1.824 0.950132 -93.74 0.950132 -93.74 0.311790 -5.658
8.93220000 0.311861 -1.815 0.950115 -93.75 0.950115 -93.75 0.311843 -5.683
8.93240000 0.311914 -1.807 0.950098 -93.76 0.950098 -93.76 0.311896 -5.707
8.93260000 0.311967 -1.799 0.950081 -93.76 0.950081 -93.76 0.311948 -5.732
8.93280000 0.312020 -1.791 0.950063 -93.77 0.950063 -93.77 0.312001 -5.757
8.93300000 0.312073 -1.783 0.950046 -93.78 0.950046 -93.78 0.312054 -5.782
8.93320000 0.312126 -1.774 0.950028 -93.79 0.950028 -93.79 0.312108 -5.807
8.93340000 0.312180 -1.766 0.950010 -93.80 0.950010 -93.80 0.312161 -5.832
8.93360000 0.312234 -1.758 0.949993 -93.81 0.949993 -93.81 0.312215 -5.857
8.93380000 0.312288 -1.749 0.949975 -93.82 0.949975 -93.82 0.312269 -5.882
8.93400000 0.312342 -1.741 0.949957 -93.82 0.949957 -93.82 0.312323 -5.907
8.93420000 0.312396 -1.733 0.949939 -93.83 0.949939 -93.83 0.312377 -5.933
8.93440000 0.312450 -1.724 0.949921 -93.84 0.949921 -93.84 0.312431 -5.958
8.93460000 0.312505 -1.716 0.949903 -93.85 0.949903 -93.85 0.312486 -5.984
8.93480000 0.312560 -1.707 0.949885 -93.86 0.949885 -93.86 0.312540 -6.009
8.93500000 0.312615 -1.698 0.949867 -93.87 0.949867 -93.87 0.312595 -6.035
8.93520000 0.312670 -1.690 0.949849 -93.87 0.949849 -93.87 0.312650 -6.061
8.93540000 0.312725 -1.681 0.949831 -93.88 0.949831 -93.88 0.312705 -6.087
8.93560000 0.312781 -1.673 0.949812 -93.89 0.949812 -93.89 0.312761 -6.113
8.93580000 0.312836 -1.664 0.949794 -93.90 0.949794 -93.90 0.312817 -6.139
8.93600000 0.312892 -1.655 0.949776 -93.91 0.949776 -93.91 0.312872 -6.165
8.93620000 0.312948 -1.646 0.949757 -93.92 0.949757 -93.92 0.312928 -6.191
8.93640000 0.313004 -1.637 0.949739 -93.93 0.949739 -93.93 0.312985 -6.217
8.93660000 0.313061 -1.629 0.949720 -93.94 0.949720 -93.94 0.313041 -6.244
!< P1 F=8.9366 Eeff=(5.24862908 -2.3057e-5) Z0=(40.1305007 8.94238e-5) R=0.0 C=0.0 
!< P2 F=8.9366 Eeff=(5.24862908 -2.3057e-5) Z0=(40.1305007 8.94238e-5) R=0.0 C=0.0 
8.93680000 0.313118 -1.620 0.949701 -93.94 0.949701 -93.94 0.313097 -6.270
8.93700000 0.313174 -1.611 0.949682 -93.95 0.949682 -93.95 0.313154 -6.297
8.93720000 0.313231 -1.602 0.949664 -93.96 0.949664 -93.96 0.313211 -6.323
8.93740000 0.313289 -1.593 0.949645 -93.97 0.949645 -93.97 0.313268 -6.350
8.93760000 0.313346 -1.584 0.949626 -93.98 0.949626 -93.98 0.313326 -6.377
8.93780000 0.313404 -1.574 0.949607 -93.99 0.949607 -93.99 0.313383 -6.403
8.93800000 0.313462 -1.565 0.949588 -94.00 0.949588 -94.00 0.313441 -6.430
8.93820000 0.313520 -1.556 0.949568 -94.01 0.949568 -94.01 0.313499 -6.457
8.93840000 0.313578 -1.547 0.949549 -94.01 0.949549 -94.01 0.313557 -6.485
8.93860000 0.313636 -1.538 0.949530 -94.02 0.949530 -94.02 0.313615 -6.512
8.93880000 0.313695 -1.528 0.949510 -94.03 0.949510 -94.03 0.313674 -6.539
8.93900000 0.313754 -1.519 0.949491 -94.04 0.949491 -94.04 0.313733 -6.566
8.93920000 0.313813 -1.510 0.949471 -94.05 0.949471 -94.05 0.313792 -6.594
8.93940000 0.313872 -1.500 0.949452 -94.06 0.949452 -94.06 0.313851 -6.622
8.93960000 0.313931 -1.491 0.949432 -94.07 0.949432 -94.07 0.313910 -6.649
8.93980000 0.313991 -1.481 0.949412 -94.08 0.949412 -94.08 0.313970 -6.677
8.94000000 0.314051 -1.472 0.949392 -94.09 0.949392 -94.09 0.314030 -6.705
8.94020000 0.314111 -1.462 0.949373 -94.10 0.949373 -94.10 0.314090 -6.733
8.94040000 0.314171 -1.452 0.949353 -94.11 0.949353 -94.11 0.314150 -6.761
8.94060000 0.314232 -1.443 0.949333 -94.11 0.949333 -94.11 0.314210 -6.789
8.94080000 0.314293 -1.433 0.949312 -94.12 0.949312 -94.12 0.314271 -6.817
8.94100000 0.314354 -1.423 0.949292 -94.13 0.949292 -94.13 0.314332 -6.845
8.94120000 0.314415 -1.413 0.949272 -94.14 0.949272 -94.14 0.314393 -6.874
8.94140000 0.314476 -1.404 0.949251 -94.15 0.949251 -94.15 0.314454 -6.902
8.94160000 0.314538 -1.394 0.949231 -94.16 0.949231 -94.16 0.314516 -6.931
8.94180000 0.314600 -1.384 0.949210 -94.17 0.949210 -94.17 0.314577 -6.960
8.94200000 0.314662 -1.374 0.949190 -94.18 0.949190 -94.18 0.314639 -6.988
8.94220000 0.314724 -1.364 0.949169 -94.19 0.949169 -94.19 0.314702 -7.017
8.94240000 0.314787 -1.354 0.949148 -94.20 0.949148 -94.20 0.314764 -7.046
8.94260000 0.314849 -1.344 0.949128 -94.21 0.949128 -94.21 0.314827 -7.075
8.94280000 0.314912 -1.334 0.949107 -94.22 0.949107 -94.22 0.314890 -7.105
8.94300000 0.314976 -1.323 0.949086 -94.23 0.949086 -94.23 0.314953 -7.134
8.94320000 0.315039 -1.313 0.949064 -94.24 0.949064 -94.24 0.315016 -7.163
8.94340000 0.315103 -1.303 0.949043 -94.25 0.949043 -94.25 0.315080 -7.193
8.94360000 0.315167 -1.293 0.949022 -94.26 0.949022 -94.26 0.315144 -7.222
8.94380000 0.315231 -1.282 0.949001 -94.27 0.949001 -94.27 0.315208 -7.252
8.94400000 0.315295 -1.272 0.948979 -94.28 0.948979 -94.28 0.315272 -7.282
8.94420000 0.315360 -1.261 0.948958 -94.29 0.948958 -94.29 0.315337 -7.312
8.94440000 0.315425 -1.251 0.948936 -94.30 0.948936 -94.30 0.315402 -7.342
8.94460000 0.315490 -1.240 0.948914 -94.31 0.948914 -94.31 0.315467 -7.372
8.94480000 0.315555 -1.230 0.948893 -94.32 0.948893 -94.32 0.315532 -7.402
8.94500000 0.315621 -1.219 0.948871 -94.32 0.948871 -94.32 0.315598 -7.432
8.94520000 0.315687 -1.208 0.948849 -94.33 0.948849 -94.33 0.315663 -7.463
8.94540000 0.315753 -1.198 0.948827 -94.34 0.948827 -94.34 0.315729 -7.493
8.94560000 0.315820 -1.187 0.948805 -94.35 0.948805 -94.35 0.315796 -7.524
8.94580000 0.315886 -1.176 0.948782 -94.36 0.948782 -94.36 0.315862 -7.555
8.94600000 0.315953 -1.165 0.948760 -94.37 0.948760 -94.37 0.315929 -7.586
8.94620000 0.316020 -1.154 0.948738 -94.38 0.948738 -94.38 0.315996 -7.617
8.94640000 0.316088 -1.143 0.948715 -94.39 0.948715 -94.39 0.316064 -7.648
8.94660000 0.316156 -1.132 0.948692 -94.40 0.948692 -94.40 0.316131 -7.679
8.94680000 0.316224 -1.121 0.948670 -94.41 0.948670 -94.41 0.316199 -7.710
8.94700000 0.316292 -1.110 0.948647 -94.42 0.948647 -94.42 0.316267 -7.742
8.94720000 0.316360 -1.099 0.948624 -94.44 0.948624 -94.44 0.316336 -7.773
8.94740000 0.316429 -1.088 0.948601 -94.45 0.948601 -94.45 0.316405 -7.805
8.94760000 0.316498 -1.077 0.948578 -94.46 0.948578 -94.46 0.316474 -7.837
8.94780000 0.316568 -1.065 0.948555 -94.47 0.948555 -94.47 0.316543 -7.868
8.94800000 0.316637 -1.054 0.948531 -94.48 0.948531 -94.48 0.316612 -7.900
8.94820000 0.316707 -1.043 0.948508 -94.49 0.948508 -94.49 0.316682 -7.932
8.94840000 0.316777 -1.031 0.948485 -94.50 0.948485 -94.50 0.316752 -7.965
8.94860000 0.316848 -1.020 0.948461 -94.51 0.948461 -94.51 0.316823 -7.997
8.94880000 0.316919 -1.008 0.948437 -94.52 0.948437 -94.52 0.316893 -8.029
8.94900000 0.316990 -0.996 0.948413 -94.53 0.948413 -94.53 0.316964 -8.062
8.94920000 0.317061 -0.985 0.948390 -94.54 0.948390 -94.54 0.317035 -8.095
8.94940000 0.317133 -0.973 0.948366 -94.55 0.948366 -94.55 0.317107 -8.128
8.94960000 0.317205 -0.961 0.948341 -94.56 0.948341 -94.56 0.317179 -8.160
8.94980000 0.317277 -0.949 0.948317 -94.57 0.948317 -94.57 0.317251 -8.193
8.95000000 0.317349 -0.938 0.948293 -94.58 0.948293 -94.58 0.317323 -8.227
8.95020000 0.317422 -0.926 0.948269 -94.59 0.948269 -94.59 0.317396 -8.260
8.95040000 0.317495 -0.914 0.948244 -94.60 0.948244 -94.60 0.317469 -8.293
8.95060000 0.317569 -0.902 0.948219 -94.61 0.948219 -94.61 0.317542 -8.327
8.95080000 0.317643 -0.890 0.948195 -94.62 0.948195 -94.62 0.317616 -8.361
8.95100000 0.317717 -0.877 0.948170 -94.63 0.948170 -94.63 0.317690 -8.394
8.95120000 0.317791 -0.865 0.948145 -94.65 0.948145 -94.65 0.317764 -8.428
8.95140000 0.317866 -0.853 0.948120 -94.66 0.948120 -94.66 0.317839 -8.462
8.95160000 0.317941 -0.841 0.948095 -94.67 0.948095 -94.67 0.317914 -8.496
8.95180000 0.318016 -0.828 0.948069 -94.68 0.948069 -94.68 0.317989 -8.531
8.95200000 0.318092 -0.816 0.948044 -94.69 0.948044 -94.69 0.318064 -8.565
8.95220000 0.318168 -0.803 0.948018 -94.70 0.948018 -94.70 0.318140 -8.600
8.95240000 0.318244 -0.791 0.947993 -94.71 0.947993 -94.71 0.318216 -8.634
8.95260000 0.318320 -0.778 0.947967 -94.72 0.947967 -94.72 0.318293 -8.669
8.95280000 0.318397 -0.766 0.947941 -94.73 0.947941 -94.73 0.318370 -8.704
8.95300000 0.318475 -0.753 0.947915 -94.74 0.947915 -94.74 0.318447 -8.739
8.95320000 0.318552 -0.740 0.947889 -94.76 0.947889 -94.76 0.318524 -8.775
8.95340000 0.318630 -0.727 0.947863 -94.77 0.947863 -94.77 0.318602 -8.810
8.95360000 0.318708 -0.715 0.947836 -94.78 0.947836 -94.78 0.318680 -8.845
8.95380000 0.318787 -0.702 0.947810 -94.79 0.947810 -94.79 0.318759 -8.881
8.95400000 0.318866 -0.689 0.947783 -94.80 0.947783 -94.80 0.318838 -8.917
8.95420000 0.318945 -0.676 0.947756 -94.81 0.947756 -94.81 0.318917 -8.953
8.95440000 0.319025 -0.663 0.947729 -94.82 0.947729 -94.82 0.318996 -8.989
8.95460000 0.319105 -0.649 0.947702 -94.84 0.947702 -94.84 0.319076 -9.025
8.95480000 0.319185 -0.636 0.947675 -94.85 0.947675 -94.85 0.319156 -9.061
8.95500000 0.319266 -0.623 0.947648 -94.86 0.947648 -94.86 0.319237 -9.098
8.95520000 0.319347 -0.610 0.947621 -94.87 0.947621 -94.87 0.319318 -9.134
8.95540000 0.319429 -0.596 0.947593 -94.88 0.947593 -94.88 0.319399 -9.171
8.95560000 0.319510 -0.583 0.947566 -94.89 0.947566 -94.89 0.319481 -9.208
8.95580000 0.319593 -0.569 0.947538 -94.91 0.947538 -94.91 0.319563 -9.245
8.95600000 0.319675 -0.556 0.947510 -94.92 0.947510 -94.92 0.319646 -9.282
8.95620000 0.319758 -0.542 0.947482 -94.93 0.947482 -94.93 0.319728 -9.319
8.95640000 0.319841 -0.528 0.947454 -94.94 0.947454 -94.94 0.319812 -9.357
8.95660000 0.319925 -0.514 0.947425 -94.95 0.947425 -94.95 0.319895 -9.395
8.95680000 0.320009 -0.501 0.947397 -94.97 0.947397 -94.97 0.319979 -9.432
8.95700000 0.320094 -0.487 0.947368 -94.98 0.947368 -94.98 0.320063 -9.470
8.95720000 0.320179 -0.473 0.947340 -94.99 0.947340 -94.99 0.320148 -9.508
8.95740000 0.320264 -0.459 0.947311 -95.00 0.947311 -95.00 0.320233 -9.547
8.95760000 0.320349 -0.445 0.947282 -95.01 0.947282 -95.01 0.320319 -9.585
8.95780000 0.320435 -0.430 0.947252 -95.03 0.947252 -95.03 0.320405 -9.624
8.95800000 0.320522 -0.416 0.947223 -95.04 0.947223 -95.04 0.320491 -9.662
8.95820000 0.320609 -0.402 0.947194 -95.05 0.947194 -95.05 0.320578 -9.701
8.95840000 0.320696 -0.388 0.947164 -95.06 0.947164 -95.06 0.320665 -9.740
8.95860000 0.320784 -0.373 0.947134 -95.07 0.947134 -95.07 0.320752 -9.779
8.95880000 0.320872 -0.359 0.947104 -95.09 0.947104 -95.09 0.320840 -9.819
8.95900000 0.320960 -0.344 0.947074 -95.10 0.947074 -95.10 0.320929 -9.858
8.95920000 0.321049 -0.330 0.947044 -95.11 0.947044 -95.11 0.321017 -9.898
8.95940000 0.321139 -0.315 0.947014 -95.12 0.947014 -95.12 0.321107 -9.938
8.95960000 0.321228 -0.300 0.946983 -95.14 0.946983 -95.14 0.321196 -9.978
8.95980000 0.321319 -0.285 0.946953 -95.15 0.946953 -95.15 0.321286 -10.02
8.96000000 0.321409 -0.270 0.946922 -95.16 0.946922 -95.16 0.321377 -10.06
8.96020000 0.321500 -0.255 0.946891 -95.18 0.946891 -95.18 0.321468 -10.10
8.96040000 0.321592 -0.240 0.946860 -95.19 0.946860 -95.19 0.321559 -10.14
8.96060000 0.321684 -0.225 0.946828 -95.20 0.946828 -95.20 0.321651 -10.18
8.96080000 0.321776 -0.210 0.946797 -95.21 0.946797 -95.21 0.321743 -10.22
8.96100000 0.321869 -0.195 0.946765 -95.23 0.946765 -95.23 0.321836 -10.26
8.96120000 0.321962 -0.180 0.946733 -95.24 0.946733 -95.24 0.321929 -10.30
8.96140000 0.322056 -0.164 0.946702 -95.25 0.946702 -95.25 0.322023 -10.34
8.96160000 0.322150 -0.149 0.946669 -95.27 0.946669 -95.27 0.322117 -10.39
8.96180000 0.322245 -0.133 0.946637 -95.28 0.946637 -95.28 0.322211 -10.43
8.96200000 0.322340 -0.118 0.946605 -95.29 0.946605 -95.29 0.322306 -10.47
8.96220000 0.322436 -0.102 0.946572 -95.31 0.946572 -95.31 0.322402 -10.51
8.96240000 0.322532 -0.086 0.946539 -95.32 0.946539 -95.32 0.322498 -10.56
8.96260000 0.322629 -0.070 0.946506 -95.33 0.946506 -95.33 0.322594 -10.60
8.96280000 0.322726 -0.054 0.946473 -95.35 0.946473 -95.35 0.322691 -10.64
8.96300000 0.322824 -0.038 0.946440 -95.36 0.946440 -95.36 0.322789 -10.68
8.96320000 0.322922 -0.022 0.946406 -95.37 0.946406 -95.37 0.322887 -10.73
8.96340000 0.323020 0.0000 0.946372 -95.39 0.946372 -95.39 0.322985 -10.77
8.96360000 0.323119 0.0101 0.946338 -95.40 0.946338 -95.40 0.323084 -10.81
8.96380000 0.323219 0.0263 0.946304 -95.41 0.946304 -95.41 0.323184 -10.86
8.96400000 0.323319 0.0427 0.946270 -95.43 0.946270 -95.43 0.323283 -10.90
8.96420000 0.323420 0.0592 0.946236 -95.44 0.946236 -95.44 0.323384 -10.94
8.96440000 0.323521 0.0757 0.946201 -95.46 0.946201 -95.46 0.323485 -10.99
8.96460000 0.323623 0.0923 0.946166 -95.47 0.946166 -95.47 0.323586 -11.03
8.96480000 0.323725 0.1090 0.946131 -95.48 0.946131 -95.48 0.323689 -11.08
8.96500000 0.323828 0.1257 0.946096 -95.50 0.946096 -95.50 0.323791 -11.12
8.96520000 0.323931 0.1426 0.946060 -95.51 0.946060 -95.51 0.323894 -11.17
8.96540000 0.324035 0.1595 0.946025 -95.53 0.946025 -95.53 0.323998 -11.21
8.96560000 0.324139 0.1765 0.945989 -95.54 0.945989 -95.54 0.324102 -11.26
8.96580000 0.324244 0.1936 0.945953 -95.55 0.945953 -95.55 0.324207 -11.30
8.96600000 0.324350 0.2107 0.945916 -95.57 0.945916 -95.57 0.324312 -11.35
8.96620000 0.324456 0.2280 0.945880 -95.58 0.945880 -95.58 0.324418 -11.40
8.96640000 0.324562 0.2453 0.945843 -95.60 0.945843 -95.60 0.324525 -11.44
8.96660000 0.324669 0.2627 0.945806 -95.61 0.945806 -95.61 0.324632 -11.49
8.96680000 0.324777 0.2802 0.945769 -95.63 0.945769 -95.63 0.324739 -11.54
8.96700000 0.324886 0.2978 0.945732 -95.64 0.945732 -95.64 0.324847 -11.58
8.96720000 0.324995 0.3155 0.945695 -95.66 0.945695 -95.66 0.324956 -11.63
8.96740000 0.325104 0.3333 0.945657 -95.67 0.945657 -95.67 0.325065 -11.68
8.96760000 0.325214 0.3511 0.945619 -95.68 0.945619 -95.68 0.325175 -11.72
8.96780000 0.325325 0.3690 0.945581 -95.70 0.945581 -95.70 0.325286 -11.77
8.96800000 0.325436 0.3871 0.945542 -95.71 0.945542 -95.71 0.325397 -11.82
8.96820000 0.325548 0.4052 0.945504 -95.73 0.945504 -95.73 0.325509 -11.87
8.96840000 0.325661 0.4234 0.945465 -95.74 0.945465 -95.74 0.325621 -11.92
8.96860000 0.325774 0.4416 0.945426 -95.76 0.945426 -95.76 0.325734 -11.97
8.96880000 0.325888 0.4600 0.945386 -95.78 0.945386 -95.78 0.325848 -12.01
8.96900000 0.326003 0.4785 0.945347 -95.79 0.945347 -95.79 0.325962 -12.06
8.96920000 0.326118 0.4970 0.945307 -95.81 0.945307 -95.81 0.326077 -12.11
8.96940000 0.326233 0.5157 0.945267 -95.82 0.945267 -95.82 0.326193 -12.16
8.96960000 0.326350 0.5344 0.945227 -95.84 0.945227 -95.84 0.326309 -12.21
8.96980000 0.326467 0.5532 0.945186 -95.85 0.945186 -95.85 0.326426 -12.26
8.97000000 0.326585 0.5722 0.945145 -95.87 0.945145 -95.87 0.326543 -12.31
8.97020000 0.326703 0.5912 0.945104 -95.88 0.945104 -95.88 0.326662 -12.36
8.97040000 0.326822 0.6103 0.945063 -95.90 0.945063 -95.90 0.326780 -12.41
8.97060000 0.326942 0.6295 0.945021 -95.92 0.945021 -95.92 0.326900 -12.46
8.97080000 0.327062 0.6488 0.944980 -95.93 0.944980 -95.93 0.327020 -12.51
8.97100000 0.327184 0.6682 0.944938 -95.95 0.944938 -95.95 0.327141 -12.57
8.97120000 0.327306 0.6877 0.944895 -95.96 0.944895 -95.96 0.327263 -12.62
8.97140000 0.327428 0.7072 0.944853 -95.98 0.944853 -95.98 0.327385 -12.67
8.97160000 0.327551 0.7269 0.944810 -96.00 0.944810 -96.00 0.327508 -12.72
8.97180000 0.327675 0.7467 0.944767 -96.01 0.944767 -96.01 0.327632 -12.77
8.97200000 0.327800 0.7666 0.944723 -96.03 0.944723 -96.03 0.327757 -12.83
8.97220000 0.327926 0.7866 0.944680 -96.04 0.944680 -96.04 0.327882 -12.88
8.97240000 0.328052 0.8067 0.944636 -96.06 0.944636 -96.06 0.328008 -12.93
8.97260000 0.328179 0.8268 0.944592 -96.08 0.944592 -96.08 0.328135 -12.99
8.97280000 0.328307 0.8471 0.944547 -96.09 0.944547 -96.09 0.328262 -13.04
8.97300000 0.328435 0.8675 0.944502 -96.11 0.944502 -96.11 0.328390 -13.09
8.97320000 0.328564 0.8880 0.944457 -96.13 0.944457 -96.13 0.328519 -13.15
8.97340000 0.328694 0.9086 0.944412 -96.14 0.944412 -96.14 0.328649 -13.20
8.97360000 0.328825 0.9293 0.944366 -96.16 0.944366 -96.16 0.328780 -13.26
8.97380000 0.328957 0.9501 0.944320 -96.18 0.944320 -96.18 0.328911 -13.31
8.97400000 0.329089 0.9710 0.944274 -96.20 0.944274 -96.20 0.329044 -13.37
8.97420000 0.329223 0.9920 0.944227 -96.21 0.944227 -96.21 0.329177 -13.42
8.97440000 0.329357 1.0131 0.944181 -96.23 0.944181 -96.23 0.329310 -13.48
8.97460000 0.329492 1.0343 0.944133 -96.25 0.944133 -96.25 0.329445 -13.53
8.97480000 0.329627 1.0556 0.944086 -96.27 0.944086 -96.27 0.329580 -13.59
8.97500000 0.329764 1.0771 0.944038 -96.28 0.944038 -96.28 0.329717 -13.65
8.97520000 0.329901 1.0986 0.943990 -96.30 0.943990 -96.30 0.329854 -13.70
8.97540000 0.330040 1.1203 0.943941 -96.32 0.943941 -96.32 0.329992 -13.76
8.97560000 0.330179 1.1420 0.943893 -96.34 0.943893 -96.34 0.330131 -13.82
8.97580000 0.330319 1.1639 0.943844 -96.35 0.943844 -96.35 0.330271 -13.88
8.97600000 0.330460 1.1859 0.943794 -96.37 0.943794 -96.37 0.330411 -13.94
8.97620000 0.330602 1.2080 0.943744 -96.39 0.943744 -96.39 0.330553 -13.99
8.97640000 0.330744 1.2302 0.943694 -96.41 0.943694 -96.41 0.330695 -14.05
8.97660000 0.330888 1.2525 0.943644 -96.43 0.943644 -96.43 0.330839 -14.11
8.97680000 0.331032 1.2750 0.943593 -96.45 0.943593 -96.45 0.330983 -14.17
8.97700000 0.331178 1.2975 0.943542 -96.46 0.943542 -96.46 0.331128 -14.23
8.97720000 0.331324 1.3202 0.943490 -96.48 0.943490 -96.48 0.331274 -14.29
8.97740000 0.331472 1.3430 0.943438 -96.50 0.943438 -96.50 0.331421 -14.35
8.97760000 0.331620 1.3659 0.943386 -96.52 0.943386 -96.52 0.331569 -14.41
8.97780000 0.331769 1.3889 0.943333 -96.54 0.943333 -96.54 0.331718 -14.47
8.97800000 0.331919 1.4121 0.943280 -96.56 0.943280 -96.56 0.331868 -14.53