! Sonnet Data File
! From: emgraph Version : 16.52
! From Project: Resonator2_extremeCap2
! Data is De-embedded 
! Data File Written: 10/11/2017 16:32:17
!< HDATE 10/11/2017 09:31:16
!< MDATE 10/11/2017 09:31:16
!< PARAMS
!< Pwid1 = 2000.0
!< Pwid2 = 2000.0
!< Air_gap = 24.0
!< Width = 40.0
!< Gap = 130.0
!< END PARAMS
# GHZ S MA R 45.40000
8.90000000 0.299498 -2.014 0.954089 -89.21 0.954089 -89.21 0.299494 3.6023
!< P1 F=8.9 Eeff=(5.09096395 -2.214e-5) Z0=(45.4059169 1.00354e-4) R=0.0 C=0.0 
!< P2 F=8.9 Eeff=(5.09096395 -2.214e-5) Z0=(45.4059169 1.00354e-4) R=0.0 C=0.0 
8.90025000 0.299554 -2.015 0.954071 -89.21 0.954071 -89.21 0.299550 3.5917
8.90050000 0.299611 -2.017 0.954053 -89.22 0.954053 -89.22 0.299607 3.5812
8.90075000 0.299668 -2.018 0.954036 -89.22 0.954036 -89.22 0.299664 3.5706
8.90100000 0.299725 -2.019 0.954018 -89.23 0.954018 -89.23 0.299721 3.5600
8.90125000 0.299782 -2.020 0.954000 -89.23 0.954000 -89.23 0.299778 3.5493
8.90150000 0.299839 -2.021 0.953982 -89.24 0.953982 -89.24 0.299835 3.5387
8.90175000 0.299897 -2.023 0.953964 -89.25 0.953964 -89.25 0.299893 3.5280
8.90200000 0.299954 -2.024 0.953946 -89.25 0.953946 -89.25 0.299950 3.5173
8.90225000 0.300012 -2.025 0.953927 -89.26 0.953927 -89.26 0.300008 3.5066
8.90250000 0.300069 -2.026 0.953909 -89.26 0.953909 -89.26 0.300066 3.4958
8.90275000 0.300127 -2.027 0.953891 -89.27 0.953891 -89.27 0.300124 3.4851
8.90300000 0.300185 -2.029 0.953873 -89.28 0.953873 -89.28 0.300182 3.4743
8.90325000 0.300244 -2.030 0.953854 -89.28 0.953854 -89.28 0.300240 3.4634
8.90350000 0.300302 -2.031 0.953836 -89.29 0.953836 -89.29 0.300298 3.4526
8.90375000 0.300360 -2.032 0.953818 -89.29 0.953818 -89.29 0.300357 3.4417
8.90400000 0.300419 -2.033 0.953799 -89.30 0.953799 -89.30 0.300415 3.4308
8.90425000 0.300478 -2.035 0.953781 -89.31 0.953781 -89.31 0.300474 3.4199
8.90450000 0.300537 -2.036 0.953762 -89.31 0.953762 -89.31 0.300533 3.4090
8.90475000 0.300596 -2.037 0.953743 -89.32 0.953743 -89.32 0.300592 3.3980
8.90500000 0.300655 -2.038 0.953725 -89.32 0.953725 -89.32 0.300651 3.3870
8.90525000 0.300714 -2.039 0.953706 -89.33 0.953706 -89.33 0.300710 3.3760
8.90550000 0.300774 -2.040 0.953687 -89.34 0.953687 -89.34 0.300770 3.3650
8.90575000 0.300833 -2.041 0.953669 -89.34 0.953669 -89.34 0.300829 3.3539
8.90600000 0.300893 -2.043 0.953650 -89.35 0.953650 -89.35 0.300889 3.3428
8.90625000 0.300953 -2.044 0.953631 -89.36 0.953631 -89.36 0.300949 3.3317
8.90650000 0.301013 -2.045 0.953612 -89.36 0.953612 -89.36 0.301009 3.3206
8.90675000 0.301073 -2.046 0.953593 -89.37 0.953593 -89.37 0.301069 3.3094
8.90700000 0.301133 -2.047 0.953574 -89.37 0.953574 -89.37 0.301129 3.2983
8.90725000 0.301194 -2.048 0.953555 -89.38 0.953555 -89.38 0.301190 3.2870
8.90750000 0.301254 -2.049 0.953535 -89.39 0.953535 -89.39 0.301250 3.2758
8.90775000 0.301315 -2.050 0.953516 -89.39 0.953516 -89.39 0.301311 3.2646
8.90800000 0.301376 -2.051 0.953497 -89.40 0.953497 -89.40 0.301372 3.2533
8.90825000 0.301437 -2.053 0.953478 -89.40 0.953478 -89.40 0.301433 3.2420
8.90850000 0.301498 -2.054 0.953458 -89.41 0.953458 -89.41 0.301494 3.2306
8.90875000 0.301560 -2.055 0.953439 -89.42 0.953439 -89.42 0.301556 3.2192
8.90900000 0.301621 -2.056 0.953419 -89.42 0.953419 -89.42 0.301617 3.2079
8.90925000 0.301683 -2.057 0.953400 -89.43 0.953400 -89.43 0.301679 3.1964
8.90950000 0.301745 -2.058 0.953380 -89.44 0.953380 -89.44 0.301741 3.1850
8.90975000 0.301807 -2.059 0.953361 -89.44 0.953361 -89.44 0.301803 3.1735
8.91000000 0.301869 -2.060 0.953341 -89.45 0.953341 -89.45 0.301865 3.1620
8.91025000 0.301931 -2.061 0.953321 -89.45 0.953321 -89.45 0.301927 3.1505
8.91050000 0.301994 -2.062 0.953301 -89.46 0.953301 -89.46 0.301989 3.1390
8.91075000 0.302056 -2.063 0.953282 -89.47 0.953282 -89.47 0.302052 3.1274
8.91100000 0.302119 -2.064 0.953262 -89.47 0.953262 -89.47 0.302115 3.1158
8.91125000 0.302182 -2.065 0.953242 -89.48 0.953242 -89.48 0.302178 3.1041
8.91150000 0.302245 -2.066 0.953222 -89.49 0.953222 -89.49 0.302241 3.0925
8.91175000 0.302308 -2.067 0.953202 -89.49 0.953202 -89.49 0.302304 3.0808
8.91200000 0.302372 -2.068 0.953182 -89.50 0.953182 -89.50 0.302367 3.0691
8.91225000 0.302435 -2.069 0.953161 -89.51 0.953161 -89.51 0.302431 3.0573
8.91250000 0.302499 -2.070 0.953141 -89.51 0.953141 -89.51 0.302495 3.0456
8.91275000 0.302563 -2.071 0.953121 -89.52 0.953121 -89.52 0.302559 3.0338
8.91300000 0.302627 -2.072 0.953100 -89.52 0.953100 -89.52 0.302623 3.0220
8.91325000 0.302691 -2.073 0.953080 -89.53 0.953080 -89.53 0.302687 3.0101
8.91350000 0.302756 -2.074 0.953060 -89.54 0.953060 -89.54 0.302751 2.9982
8.91375000 0.302820 -2.075 0.953039 -89.54 0.953039 -89.54 0.302816 2.9863
8.91400000 0.302885 -2.076 0.953018 -89.55 0.953018 -89.55 0.302880 2.9744
8.91425000 0.302950 -2.077 0.952998 -89.56 0.952998 -89.56 0.302945 2.9624
8.91450000 0.303015 -2.078 0.952977 -89.56 0.952977 -89.56 0.303010 2.9504
8.91475000 0.303080 -2.079 0.952956 -89.57 0.952956 -89.57 0.303076 2.9384
8.91500000 0.303146 -2.080 0.952936 -89.58 0.952936 -89.58 0.303141 2.9263
8.91525000 0.303211 -2.081 0.952915 -89.58 0.952915 -89.58 0.303207 2.9142
8.91550000 0.303277 -2.082 0.952894 -89.59 0.952894 -89.59 0.303272 2.9021
8.91575000 0.303343 -2.083 0.952873 -89.60 0.952873 -89.60 0.303338 2.8900
8.91600000 0.303409 -2.084 0.952852 -89.60 0.952852 -89.60 0.303404 2.8778
8.91625000 0.303475 -2.085 0.952831 -89.61 0.952831 -89.61 0.303471 2.8656
8.91650000 0.303542 -2.086 0.952809 -89.62 0.952809 -89.62 0.303537 2.8534
8.91675000 0.303608 -2.087 0.952788 -89.62 0.952788 -89.62 0.303604 2.8411
8.91700000 0.303675 -2.088 0.952767 -89.63 0.952767 -89.63 0.303670 2.8288
8.91725000 0.303742 -2.088 0.952745 -89.64 0.952745 -89.64 0.303737 2.8165
8.91750000 0.303809 -2.089 0.952724 -89.64 0.952724 -89.64 0.303805 2.8042
8.91775000 0.303877 -2.090 0.952703 -89.65 0.952703 -89.65 0.303872 2.7918
8.91800000 0.303944 -2.091 0.952681 -89.66 0.952681 -89.66 0.303939 2.7794
8.91825000 0.304012 -2.092 0.952659 -89.66 0.952659 -89.66 0.304007 2.7669
8.91850000 0.304080 -2.093 0.952638 -89.67 0.952638 -89.67 0.304075 2.7544
8.91875000 0.304148 -2.094 0.952616 -89.68 0.952616 -89.68 0.304143 2.7419
8.91900000 0.304216 -2.095 0.952594 -89.68 0.952594 -89.68 0.304211 2.7294
8.91925000 0.304285 -2.095 0.952572 -89.69 0.952572 -89.69 0.304280 2.7168
8.91950000 0.304353 -2.096 0.952550 -89.70 0.952550 -89.70 0.304348 2.7042
8.91975000 0.304422 -2.097 0.952528 -89.70 0.952528 -89.70 0.304417 2.6916
8.92000000 0.304491 -2.098 0.952506 -89.71 0.952506 -89.71 0.304486 2.6789
8.92025000 0.304560 -2.099 0.952484 -89.72 0.952484 -89.72 0.304556 2.6662
8.92050000 0.304630 -2.100 0.952462 -89.72 0.952462 -89.72 0.304625 2.6535
8.92075000 0.304699 -2.100 0.952439 -89.73 0.952439 -89.73 0.304695 2.6407
8.92100000 0.304769 -2.101 0.952417 -89.74 0.952417 -89.74 0.304764 2.6279
8.92125000 0.304839 -2.102 0.952395 -89.74 0.952395 -89.74 0.304834 2.6151
8.92150000 0.304909 -2.103 0.952372 -89.75 0.952372 -89.75 0.304904 2.6022
8.92175000 0.304980 -2.104 0.952350 -89.76 0.952350 -89.76 0.304975 2.5893
8.92200000 0.305050 -2.104 0.952327 -89.76 0.952327 -89.76 0.305045 2.5764
8.92225000 0.305121 -2.105 0.952304 -89.77 0.952304 -89.77 0.305116 2.5634
8.92250000 0.305192 -2.106 0.952282 -89.78 0.952282 -89.78 0.305187 2.5504
8.92275000 0.305263 -2.107 0.952259 -89.78 0.952259 -89.78 0.305258 2.5374
8.92300000 0.305335 -2.108 0.952236 -89.79 0.952236 -89.79 0.305330 2.5243
8.92325000 0.305406 -2.108 0.952213 -89.80 0.952213 -89.80 0.305401 2.5112
8.92350000 0.305478 -2.109 0.952190 -89.80 0.952190 -89.80 0.305473 2.4981
8.92375000 0.305550 -2.110 0.952167 -89.81 0.952167 -89.81 0.305545 2.4849
8.92400000 0.305622 -2.111 0.952144 -89.82 0.952144 -89.82 0.305617 2.4717
8.92425000 0.305695 -2.111 0.952120 -89.83 0.952120 -89.83 0.305690 2.4585
8.92450000 0.305768 -2.112 0.952097 -89.83 0.952097 -89.83 0.305762 2.4452
8.92475000 0.305840 -2.113 0.952073 -89.84 0.952073 -89.84 0.305835 2.4319
8.92500000 0.305913 -2.114 0.952050 -89.85 0.952050 -89.85 0.305908 2.4186
8.92525000 0.305987 -2.114 0.952026 -89.85 0.952026 -89.85 0.305981 2.4052
8.92550000 0.306060 -2.115 0.952003 -89.86 0.952003 -89.86 0.306055 2.3918
8.92575000 0.306134 -2.116 0.951979 -89.87 0.951979 -89.87 0.306129 2.3783
8.92600000 0.306208 -2.116 0.951955 -89.87 0.951955 -89.87 0.306202 2.3648
8.92625000 0.306282 -2.117 0.951931 -89.88 0.951931 -89.88 0.306276 2.3513
8.92650000 0.306356 -2.118 0.951907 -89.89 0.951907 -89.89 0.306351 2.3377
8.92675000 0.306431 -2.118 0.951883 -89.90 0.951883 -89.90 0.306425 2.3242
8.92700000 0.306506 -2.119 0.951859 -89.90 0.951859 -89.90 0.306500 2.3105
8.92725000 0.306581 -2.120 0.951835 -89.91 0.951835 -89.91 0.306575 2.2968
8.92750000 0.306656 -2.120 0.951811 -89.92 0.951811 -89.92 0.306650 2.2831
8.92775000 0.306731 -2.121 0.951787 -89.92 0.951787 -89.92 0.306726 2.2694
8.92800000 0.306807 -2.122 0.951762 -89.93 0.951762 -89.93 0.306801 2.2556
8.92825000 0.306883 -2.122 0.951738 -89.94 0.951738 -89.94 0.306877 2.2418
8.92850000 0.306959 -2.123 0.951713 -89.95 0.951713 -89.95 0.306953 2.2279
8.92875000 0.307035 -2.124 0.951688 -89.95 0.951688 -89.95 0.307030 2.2140
8.92900000 0.307112 -2.124 0.951664 -89.96 0.951664 -89.96 0.307106 2.2001
8.92925000 0.307189 -2.125 0.951639 -89.97 0.951639 -89.97 0.307183 2.1861
8.92950000 0.307266 -2.125 0.951614 -89.98 0.951614 -89.98 0.307260 2.1721
8.92975000 0.307343 -2.126 0.951589 -89.98 0.951589 -89.98 0.307337 2.1581
8.93000000 0.307421 -2.127 0.951564 -89.99 0.951564 -89.99 0.307415 2.1440
8.93025000 0.307498 -2.127 0.951539 -90.00 0.951539 -90.00 0.307493 2.1298
8.93050000 0.307576 -2.128 0.951514 -90.00 0.951514 -90.00 0.307571 2.1157
8.93075000 0.307655 -2.128 0.951488 -90.01 0.951488 -90.01 0.307649 2.1015
8.93100000 0.307733 -2.129 0.951463 -90.02 0.951463 -90.02 0.307727 2.0872
8.93125000 0.307812 -2.129 0.951437 -90.03 0.951437 -90.03 0.307806 2.0729
8.93150000 0.307891 -2.130 0.951412 -90.03 0.951412 -90.03 0.307885 2.0586
8.93175000 0.307970 -2.131 0.951386 -90.04 0.951386 -90.04 0.307964 2.0442
8.93200000 0.308049 -2.131 0.951360 -90.05 0.951360 -90.05 0.308044 2.0298
8.93225000 0.308129 -2.132 0.951335 -90.06 0.951335 -90.06 0.308123 2.0154
8.93250000 0.308209 -2.132 0.951309 -90.06 0.951309 -90.06 0.308203 2.0009
8.93275000 0.308289 -2.133 0.951283 -90.07 0.951283 -90.07 0.308283 1.9863
8.93300000 0.308370 -2.133 0.951257 -90.08 0.951257 -90.08 0.308364 1.9717
8.93325000 0.308450 -2.134 0.951230 -90.09 0.951230 -90.09 0.308445 1.9571
8.93350000 0.308531 -2.134 0.951204 -90.09 0.951204 -90.09 0.308525 1.9425
8.93375000 0.308613 -2.135 0.951178 -90.10 0.951178 -90.10 0.308607 1.9278
8.93400000 0.308694 -2.135 0.951151 -90.11 0.951151 -90.11 0.308688 1.9130
8.93425000 0.308776 -2.136 0.951125 -90.12 0.951125 -90.12 0.308770 1.8982
8.93450000 0.308858 -2.136 0.951098 -90.13 0.951098 -90.13 0.308852 1.8834
8.93475000 0.308940 -2.136 0.951071 -90.13 0.951071 -90.13 0.308934 1.8685
8.93500000 0.309023 -2.137 0.951044 -90.14 0.951044 -90.14 0.309017 1.8536
8.93525000 0.309106 -2.137 0.951018 -90.15 0.951018 -90.15 0.309099 1.8386
8.93550000 0.309189 -2.138 0.950991 -90.16 0.950991 -90.16 0.309182 1.8236
8.93575000 0.309272 -2.138 0.950963 -90.16 0.950963 -90.16 0.309266 1.8086
8.93600000 0.309356 -2.139 0.950936 -90.17 0.950936 -90.17 0.309349 1.7935
8.93625000 0.309439 -2.139 0.950909 -90.18 0.950909 -90.18 0.309433 1.7783
8.93650000 0.309524 -2.139 0.950881 -90.19 0.950881 -90.19 0.309517 1.7631
8.93675000 0.309608 -2.140 0.950854 -90.19 0.950854 -90.19 0.309602 1.7479
8.93700000 0.309693 -2.140 0.950826 -90.20 0.950826 -90.20 0.309686 1.7326
8.93725000 0.309778 -2.141 0.950799 -90.21 0.950799 -90.21 0.309771 1.7173
8.93750000 0.309863 -2.141 0.950771 -90.22 0.950771 -90.22 0.309856 1.7019
8.93775000 0.309948 -2.141 0.950743 -90.23 0.950743 -90.23 0.309942 1.6865
8.93800000 0.310034 -2.142 0.950715 -90.23 0.950715 -90.23 0.310028 1.6711
8.93825000 0.310120 -2.142 0.950687 -90.24 0.950687 -90.24 0.310114 1.6556
8.93850000 0.310207 -2.142 0.950659 -90.25 0.950659 -90.25 0.310200 1.6400
8.93875000 0.310293 -2.143 0.950630 -90.26 0.950630 -90.26 0.310287 1.6244
8.93900000 0.310380 -2.143 0.950602 -90.27 0.950602 -90.27 0.310374 1.6087
8.93925000 0.310468 -2.143 0.950573 -90.27 0.950573 -90.27 0.310461 1.5931
8.93950000 0.310555 -2.144 0.950545 -90.28 0.950545 -90.28 0.310549 1.5773
8.93975000 0.310643 -2.144 0.950516 -90.29 0.950516 -90.29 0.310636 1.5615
8.94000000 0.310731 -2.144 0.950487 -90.30 0.950487 -90.30 0.310725 1.5457
8.94025000 0.310820 -2.145 0.950458 -90.31 0.950458 -90.31 0.310813 1.5298
8.94050000 0.310908 -2.145 0.950429 -90.31 0.950429 -90.31 0.310902 1.5138
8.94075000 0.310997 -2.145 0.950400 -90.32 0.950400 -90.32 0.310991 1.4978
8.94100000 0.311087 -2.146 0.950371 -90.33 0.950371 -90.33 0.311080 1.4818
8.94125000 0.311176 -2.146 0.950341 -90.34 0.950341 -90.34 0.311170 1.4657
8.94150000 0.311266 -2.146 0.950312 -90.35 0.950312 -90.35 0.311260 1.4496
8.94175000 0.311357 -2.146 0.950282 -90.36 0.950282 -90.36 0.311350 1.4334
8.94200000 0.311447 -2.147 0.950253 -90.36 0.950253 -90.36 0.311440 1.4171
8.94225000 0.311538 -2.147 0.950223 -90.37 0.950223 -90.37 0.311531 1.4008
8.94250000 0.311629 -2.147 0.950193 -90.38 0.950193 -90.38 0.311623 1.3845
8.94275000 0.311721 -2.147 0.950163 -90.39 0.950163 -90.39 0.311714 1.3681
8.94300000 0.311813 -2.147 0.950133 -90.40 0.950133 -90.40 0.311806 1.3516
8.94325000 0.311905 -2.148 0.950102 -90.40 0.950102 -90.40 0.311898 1.3351
8.94350000 0.311998 -2.148 0.950072 -90.41 0.950072 -90.41 0.311990 1.3186
8.94375000 0.312090 -2.148 0.950041 -90.42 0.950041 -90.42 0.312083 1.3020
8.94400000 0.312184 -2.148 0.950011 -90.43 0.950011 -90.43 0.312176 1.2853
8.94425000 0.312277 -2.148 0.949980 -90.44 0.949980 -90.44 0.312270 1.2686
8.94450000 0.312371 -2.149 0.949949 -90.45 0.949949 -90.45 0.312364 1.2518
8.94475000 0.312465 -2.149 0.949918 -90.46 0.949918 -90.46 0.312458 1.2350
8.94500000 0.312560 -2.149 0.949887 -90.46 0.949887 -90.46 0.312552 1.2181
8.94525000 0.312654 -2.149 0.949856 -90.47 0.949856 -90.47 0.312647 1.2012
8.94550000 0.312750 -2.149 0.949824 -90.48 0.949824 -90.48 0.312742 1.1842
8.94575000 0.312845 -2.149 0.949793 -90.49 0.949793 -90.49 0.312838 1.1672
8.94600000 0.312941 -2.149 0.949761 -90.50 0.949761 -90.50 0.312933 1.1501
8.94625000 0.313037 -2.149 0.949730 -90.51 0.949730 -90.51 0.313030 1.1329
8.94650000 0.313134 -2.150 0.949698 -90.52 0.949698 -90.52 0.313126 1.1157
8.94675000 0.313231 -2.150 0.949666 -90.52 0.949666 -90.52 0.313223 1.0984
8.94700000 0.313328 -2.150 0.949634 -90.53 0.949634 -90.53 0.313320 1.0811
8.94725000 0.313425 -2.150 0.949601 -90.54 0.949601 -90.54 0.313418 1.0637
8.94750000 0.313523 -2.150 0.949569 -90.55 0.949569 -90.55 0.313516 1.0463
8.94775000 0.313622 -2.150 0.949536 -90.56 0.949536 -90.56 0.313614 1.0288
8.94800000 0.313720 -2.150 0.949504 -90.57 0.949504 -90.57 0.313713 1.0112
8.94825000 0.313819 -2.150 0.949471 -90.58 0.949471 -90.58 0.313812 0.9936
8.94850000 0.313919 -2.150 0.949438 -90.59 0.949438 -90.59 0.313911 0.9760
8.94875000 0.314019 -2.150 0.949405 -90.59 0.949405 -90.59 0.314011 0.9582
8.94900000 0.314119 -2.150 0.949372 -90.60 0.949372 -90.60 0.314111 0.9404
8.94925000 0.314219 -2.150 0.949339 -90.61 0.949339 -90.61 0.314212 0.9226
8.94950000 0.314320 -2.150 0.949305 -90.62 0.949305 -90.62 0.314313 0.9047
8.94975000 0.314422 -2.150 0.949272 -90.63 0.949272 -90.63 0.314414 0.8867
8.95000000 0.314523 -2.150 0.949238 -90.64 0.949238 -90.64 0.314515 0.8686
8.95025000 0.314625 -2.150 0.949204 -90.65 0.949204 -90.65 0.314617 0.8505
8.95050000 0.314728 -2.150 0.949170 -90.66 0.949170 -90.66 0.314720 0.8324
8.95075000 0.314831 -2.150 0.949136 -90.67 0.949136 -90.67 0.314823 0.8142
8.95100000 0.314934 -2.150 0.949102 -90.68 0.949102 -90.68 0.314926 0.7959
8.95125000 0.315038 -2.150 0.949067 -90.68 0.949067 -90.68 0.315029 0.7775
8.95150000 0.315142 -2.150 0.949033 -90.69 0.949033 -90.69 0.315133 0.7591
8.95175000 0.315246 -2.149 0.948998 -90.70 0.948998 -90.70 0.315238 0.7406
8.95200000 0.315351 -2.149 0.948963 -90.71 0.948963 -90.71 0.315343 0.7221
8.95225000 0.315456 -2.149 0.948928 -90.72 0.948928 -90.72 0.315448 0.7035
8.95250000 0.315562 -2.149 0.948893 -90.73 0.948893 -90.73 0.315553 0.6848
8.95275000 0.315668 -2.149 0.948857 -90.74 0.948857 -90.74 0.315660 0.6661
8.95300000 0.315774 -2.149 0.948822 -90.75 0.948822 -90.75 0.315766 0.6473
8.95325000 0.315881 -2.149 0.948786 -90.76 0.948786 -90.76 0.315873 0.6284
8.95350000 0.315989 -2.149 0.948751 -90.77 0.948751 -90.77 0.315980 0.6095
8.95375000 0.316096 -2.148 0.948715 -90.78 0.948715 -90.78 0.316088 0.5904
8.95400000 0.316204 -2.148 0.948679 -90.79 0.948679 -90.79 0.316196 0.5714
8.95425000 0.316313 -2.148 0.948642 -90.80 0.948642 -90.80 0.316304 0.5522
8.95450000 0.316422 -2.148 0.948606 -90.81 0.948606 -90.81 0.316413 0.5330
8.95475000 0.316531 -2.148 0.948569 -90.82 0.948569 -90.82 0.316523 0.5137
8.95500000 0.316641 -2.147 0.948533 -90.82 0.948533 -90.82 0.316633 0.4944
8.95525000 0.316752 -2.147 0.948496 -90.83 0.948496 -90.83 0.316743 0.4750
8.95550000 0.316862 -2.147 0.948459 -90.84 0.948459 -90.84 0.316854 0.4555
8.95575000 0.316974 -2.147 0.948422 -90.85 0.948422 -90.85 0.316965 0.4359
8.95600000 0.317085 -2.147 0.948384 -90.86 0.948384 -90.86 0.317077 0.4163
8.95625000 0.317197 -2.146 0.948347 -90.87 0.948347 -90.87 0.317189 0.3966
8.95650000 0.317310 -2.146 0.948309 -90.88 0.948309 -90.88 0.317301 0.3768
8.95675000 0.317423 -2.146 0.948271 -90.89 0.948271 -90.89 0.317414 0.3570
8.95700000 0.317537 -2.145 0.948233 -90.90 0.948233 -90.90 0.317528 0.3371
8.95725000 0.317651 -2.145 0.948195 -90.91 0.948195 -90.91 0.317641 0.3171
8.95750000 0.317765 -2.145 0.948156 -90.92 0.948156 -90.92 0.317756 0.2970
8.95775000 0.317880 -2.145 0.948118 -90.93 0.948118 -90.93 0.317871 0.2769
8.95800000 0.317995 -2.144 0.948079 -90.94 0.948079 -90.94 0.317986 0.2566
8.95825000 0.318111 -2.144 0.948040 -90.95 0.948040 -90.95 0.318102 0.2364
8.95850000 0.318227 -2.144 0.948001 -90.96 0.948001 -90.96 0.318218 0.2160
8.95875000 0.318344 -2.143 0.947962 -90.97 0.947962 -90.97 0.318335 0.1955
8.95900000 0.318462 -2.143 0.947922 -90.98 0.947922 -90.98 0.318452 0.1750
8.95925000 0.318579 -2.142 0.947883 -90.99 0.947883 -90.99 0.318570 0.1544
8.95950000 0.318698 -2.142 0.947843 -91.00 0.947843 -91.00 0.318688 0.1337
8.95975000 0.318816 -2.142 0.947803 -91.01 0.947803 -91.01 0.318807 0.1130
8.96000000 0.318936 -2.141 0.947763 -91.02 0.947763 -91.02 0.318926 0.0922
8.96025000 0.319056 -2.141 0.947722 -91.03 0.947722 -91.03 0.319046 0.0712
8.96050000 0.319176 -2.140 0.947682 -91.04 0.947682 -91.04 0.319166 0.0502
8.96075000 0.319297 -2.140 0.947641 -91.05 0.947641 -91.05 0.319287 0.0292
8.96100000 0.319418 -2.140 0.947600 -91.06 0.947600 -91.06 0.319408 0.0080
8.96125000 0.319540 -2.139 0.947559 -91.07 0.947559 -91.07 0.319530 -0.013
8.96150000 0.319662 -2.139 0.947518 -91.08 0.947518 -91.08 0.319653 -0.035
8.96175000 0.319785 -2.138 0.947476 -91.10 0.947476 -91.10 0.319775 -0.056
8.96200000 0.319909 -2.138 0.947435 -91.11 0.947435 -91.11 0.319899 -0.077
8.96225000 0.320033 -2.137 0.947393 -91.12 0.947393 -91.12 0.320023 -0.099
8.96250000 0.320157 -2.137 0.947350 -91.13 0.947350 -91.13 0.320147 -0.121
8.96275000 0.320282 -2.136 0.947308 -91.14 0.947308 -91.14 0.320272 -0.142
8.96300000 0.320408 -2.136 0.947266 -91.15 0.947266 -91.15 0.320398 -0.164
8.96325000 0.320534 -2.135 0.947223 -91.16 0.947223 -91.16 0.320524 -0.186
8.96350000 0.320661 -2.134 0.947180 -91.17 0.947180 -91.17 0.320651 -0.208
8.96375000 0.320788 -2.134 0.947137 -91.18 0.947137 -91.18 0.320778 -0.230
8.96400000 0.320916 -2.133 0.947093 -91.19 0.947093 -91.19 0.320906 -0.252
8.96425000 0.321045 -2.133 0.947050 -91.20 0.947050 -91.20 0.321034 -0.275
8.96450000 0.321174 -2.132 0.947006 -91.21 0.947006 -91.21 0.321163 -0.297
8.96475000 0.321303 -2.132 0.946962 -91.22 0.946962 -91.22 0.321293 -0.319
8.96500000 0.321433 -2.131 0.946918 -91.23 0.946918 -91.23 0.321423 -0.342
8.96525000 0.321564 -2.130 0.946873 -91.25 0.946873 -91.25 0.321553 -0.365
8.96550000 0.321695 -2.130 0.946829 -91.26 0.946829 -91.26 0.321685 -0.387
8.96575000 0.321827 -2.129 0.946784 -91.27 0.946784 -91.27 0.321817 -0.410
8.96600000 0.321960 -2.128 0.946739 -91.28 0.946739 -91.28 0.321949 -0.433
8.96625000 0.322093 -2.128 0.946693 -91.29 0.946693 -91.29 0.322082 -0.456
8.96650000 0.322227 -2.127 0.946648 -91.30 0.946648 -91.30 0.322216 -0.479
8.96675000 0.322361 -2.126 0.946602 -91.31 0.946602 -91.31 0.322350 -0.502
8.96700000 0.322496 -2.126 0.946556 -91.32 0.946556 -91.32 0.322485 -0.526
8.96725000 0.322632 -2.125 0.946510 -91.33 0.946510 -91.33 0.322621 -0.549
8.96750000 0.322768 -2.124 0.946463 -91.35 0.946463 -91.35 0.322757 -0.572
8.96775000 0.322905 -2.124 0.946416 -91.36 0.946416 -91.36 0.322894 -0.596
8.96800000 0.323042 -2.123 0.946369 -91.37 0.946369 -91.37 0.323031 -0.620
8.96825000 0.323181 -2.122 0.946322 -91.38 0.946322 -91.38 0.323169 -0.643
8.96850000 0.323319 -2.121 0.946275 -91.39 0.946275 -91.39 0.323308 -0.667
8.96875000 0.323459 -2.121 0.946227 -91.40 0.946227 -91.40 0.323448 -0.691
8.96900000 0.323599 -2.120 0.946179 -91.42 0.946179 -91.42 0.323588 -0.715
8.96925000 0.323740 -2.119 0.946131 -91.43 0.946131 -91.43 0.323728 -0.739
8.96950000 0.323881 -2.118 0.946082 -91.44 0.946082 -91.44 0.323870 -0.764
8.96975000 0.324023 -2.117 0.946034 -91.45 0.946034 -91.45 0.324012 -0.788
8.97000000 0.324166 -2.117 0.945985 -91.46 0.945985 -91.46 0.324155 -0.813
8.97025000 0.324310 -2.116 0.945935 -91.47 0.945935 -91.47 0.324298 -0.837
8.97050000 0.324454 -2.115 0.945886 -91.49 0.945886 -91.49 0.324442 -0.862
8.97075000 0.324599 -2.114 0.945836 -91.50 0.945836 -91.50 0.324587 -0.887
8.97100000 0.324744 -2.113 0.945786 -91.51 0.945786 -91.51 0.324733 -0.912
8.97125000 0.324891 -2.112 0.945736 -91.52 0.945736 -91.52 0.324879 -0.937
8.97150000 0.325038 -2.111 0.945685 -91.53 0.945685 -91.53 0.325026 -0.962
8.97175000 0.325185 -2.110 0.945634 -91.55 0.945634 -91.55 0.325173 -0.987
8.97200000 0.325334 -2.110 0.945583 -91.56 0.945583 -91.56 0.325322 -1.012
8.97225000 0.325483 -2.109 0.945532 -91.57 0.945532 -91.57 0.325471 -1.038
8.97250000 0.325633 -2.108 0.945480 -91.58 0.945480 -91.58 0.325621 -1.063
8.97275000 0.325784 -2.107 0.945428 -91.60 0.945428 -91.60 0.325771 -1.089
8.97300000 0.325935 -2.106 0.945376 -91.61 0.945376 -91.61 0.325923 -1.115
8.97325000 0.326087 -2.105 0.945323 -91.62 0.945323 -91.62 0.326075 -1.141
8.97350000 0.326240 -2.104 0.945270 -91.63 0.945270 -91.63 0.326228 -1.167
8.97375000 0.326394 -2.103 0.945217 -91.65 0.945217 -91.65 0.326381 -1.193
8.97400000 0.326548 -2.102 0.945164 -91.66 0.945164 -91.66 0.326536 -1.219
8.97425000 0.326704 -2.101 0.945110 -91.67 0.945110 -91.67 0.326691 -1.245
8.97450000 0.326860 -2.100 0.945056 -91.68 0.945056 -91.68 0.326847 -1.272
8.97475000 0.327017 -2.099 0.945002 -91.70 0.945002 -91.70 0.327004 -1.298
8.97500000 0.327174 -2.098 0.944947 -91.71 0.944947 -91.71 0.327161 -1.325
8.97525000 0.327333 -2.097 0.944892 -91.72 0.944892 -91.72 0.327320 -1.352
8.97550000 0.327492 -2.096 0.944837 -91.73 0.944837 -91.73 0.327479 -1.379
8.97575000 0.327652 -2.094 0.944781 -91.75 0.944781 -91.75 0.327639 -1.406
8.97600000 0.327813 -2.093 0.944725 -91.76 0.944725 -91.76 0.327800 -1.433
8.97625000 0.327975 -2.092 0.944669 -91.77 0.944669 -91.77 0.327961 -1.461
8.97650000 0.328137 -2.091 0.944613 -91.79 0.944613 -91.79 0.328124 -1.488
8.97675000 0.328301 -2.090 0.944556 -91.80 0.944556 -91.80 0.328287 -1.516
8.97700000 0.328465 -2.089 0.944499 -91.81 0.944499 -91.81 0.328451 -1.543
8.97725000 0.328630 -2.088 0.944441 -91.83 0.944441 -91.83 0.328617 -1.571
8.97750000 0.328796 -2.087 0.944383 -91.84 0.944383 -91.84 0.328782 -1.599
8.97775000 0.328963 -2.085 0.944325 -91.85 0.944325 -91.85 0.328949 -1.627
8.97800000 0.329131 -2.084 0.944266 -91.87 0.944266 -91.87 0.329117 -1.656
8.97825000 0.329300 -2.083 0.944208 -91.88 0.944208 -91.88 0.329286 -1.684
8.97850000 0.329469 -2.082 0.944148 -91.89 0.944148 -91.89 0.329455 -1.713
8.97875000 0.329640 -2.081 0.944089 -91.91 0.944089 -91.91 0.329626 -1.741
8.97900000 0.329811 -2.079 0.944029 -91.92 0.944029 -91.92 0.329797 -1.770
8.97925000 0.329983 -2.078 0.943968 -91.94 0.943968 -91.94 0.329969 -1.799
8.97950000 0.330157 -2.077 0.943908 -91.95 0.943908 -91.95 0.330142 -1.828
8.97975000 0.330331 -2.076 0.943847 -91.96 0.943847 -91.96 0.330317 -1.857
8.98000000 0.330506 -2.074 0.943785 -91.98 0.943785 -91.98 0.330492 -1.887
8.98025000 0.330682 -2.073 0.943724 -91.99 0.943724 -91.99 0.330668 -1.916
8.98050000 0.330859 -2.072 0.943661 -92.01 0.943661 -92.01 0.330845 -1.946
8.98075000 0.331037 -2.070 0.943599 -92.02 0.943599 -92.02 0.331023 -1.976
8.98100000 0.331217 -2.069 0.943536 -92.03 0.943536 -92.03 0.331202 -2.005
8.98125000 0.331397 -2.068 0.943473 -92.05 0.943473 -92.05 0.331382 -2.036
8.98150000 0.331578 -2.066 0.943409 -92.06 0.943409 -92.06 0.331563 -2.066
8.98175000 0.331760 -2.065 0.943345 -92.08 0.943345 -92.08 0.331745 -2.096
8.98200000 0.331943 -2.064 0.943280 -92.09 0.943280 -92.09 0.331928 -2.127
8.98225000 0.332127 -2.062 0.943215 -92.11 0.943215 -92.11 0.332112 -2.157
8.98250000 0.332312 -2.061 0.943150 -92.12 0.943150 -92.12 0.332297 -2.188
8.98275000 0.332498 -2.059 0.943084 -92.14 0.943084 -92.14 0.332483 -2.219
8.98300000 0.332686 -2.058 0.943018 -92.15 0.943018 -92.15 0.332670 -2.250
8.98325000 0.332874 -2.057 0.942952 -92.17 0.942952 -92.17 0.332858 -2.282
8.98350000 0.333063 -2.055 0.942885 -92.18 0.942885 -92.18 0.333048 -2.313
8.98375000 0.333254 -2.054 0.942817 -92.20 0.942817 -92.20 0.333238 -2.345
8.98400000 0.333446 -2.052 0.942749 -92.21 0.942749 -92.21 0.333430 -2.376
8.98425000 0.333638 -2.051 0.942681 -92.23 0.942681 -92.23 0.333622 -2.408
8.98450000 0.333832 -2.049 0.942612 -92.24 0.942612 -92.24 0.333816 -2.440
8.98475000 0.334027 -2.048 0.942543 -92.26 0.942543 -92.26 0.334011 -2.473
8.98500000 0.334223 -2.046 0.942473 -92.27 0.942473 -92.27 0.334207 -2.505
8.98525000 0.334421 -2.045 0.942403 -92.29 0.942403 -92.29 0.334404 -2.538
8.98550000 0.334619 -2.043 0.942333 -92.30 0.942333 -92.30 0.334603 -2.570
8.98575000 0.334819 -2.042 0.942262 -92.32 0.942262 -92.32 0.334802 -2.603
8.98600000 0.335019 -2.040 0.942190 -92.34 0.942190 -92.34 0.335003 -2.637
8.98625000 0.335221 -2.039 0.942118 -92.35 0.942118 -92.35 0.335205 -2.670
8.98650000 0.335425 -2.037 0.942046 -92.37 0.942046 -92.37 0.335408 -2.703
8.98675000 0.335629 -2.036 0.941973 -92.38 0.941973 -92.38 0.335612 -2.737
8.98700000 0.335835 -2.034 0.941900 -92.40 0.941900 -92.40 0.335818 -2.771
8.98725000 0.336042 -2.032 0.941826 -92.42 0.941826 -92.42 0.336024 -2.805
8.98750000 0.336250 -2.031 0.941751 -92.43 0.941751 -92.43 0.336232 -2.839
8.98775000 0.336459 -2.029 0.941676 -92.45 0.941676 -92.45 0.336442 -2.873
8.98800000 0.336670 -2.028 0.941601 -92.46 0.941601 -92.46 0.336652 -2.908
8.98825000 0.336882 -2.026 0.941525 -92.48 0.941525 -92.48 0.336864 -2.943
8.98850000 0.337095 -2.024 0.941449 -92.50 0.941449 -92.50 0.337077 -2.977
8.98875000 0.337310 -2.023 0.941372 -92.51 0.941372 -92.51 0.337292 -3.013
8.98900000 0.337526 -2.021 0.941294 -92.53 0.941294 -92.53 0.337508 -3.048
8.98925000 0.337743 -2.019 0.941216 -92.55 0.941216 -92.55 0.337725 -3.083
8.98950000 0.337962 -2.018 0.941137 -92.57 0.941137 -92.57 0.337944 -3.119
8.98975000 0.338182 -2.016 0.941058 -92.58 0.941058 -92.58 0.338164 -3.155
8.99000000 0.338403 -2.014 0.940978 -92.60 0.940978 -92.60 0.338385 -3.191
8.99025000 0.338626 -2.012 0.940898 -92.62 0.940898 -92.62 0.338608 -3.227
8.99050000 0.338850 -2.011 0.940817 -92.63 0.940817 -92.63 0.338832 -3.264
8.99075000 0.339076 -2.009 0.940736 -92.65 0.940736 -92.65 0.339057 -3.300
8.99100000 0.339303 -2.007 0.940654 -92.67 0.940654 -92.67 0.339284 -3.337
8.99125000 0.339532 -2.006 0.940571 -92.69 0.940571 -92.69 0.339513 -3.374
8.99150000 0.339762 -2.004 0.940488 -92.70 0.940488 -92.70 0.339743 -3.412
8.99175000 0.339993 -2.002 0.940404 -92.72 0.940404 -92.72 0.339974 -3.449
8.99200000 0.340226 -2.000 0.940320 -92.74 0.940320 -92.74 0.340207 -3.487
8.99225000 0.340461 -1.998 0.940235 -92.76 0.940235 -92.76 0.340441 -3.525
8.99250000 0.340697 -1.997 0.940149 -92.78 0.940149 -92.78 0.340677 -3.563
8.99275000 0.340935 -1.995 0.940063 -92.79 0.940063 -92.79 0.340915 -3.601
8.99300000 0.341174 -1.993 0.939976 -92.81 0.939976 -92.81 0.341154 -3.640
8.99325000 0.341415 -1.991 0.939888 -92.83 0.939888 -92.83 0.341394 -3.679
8.99350000 0.341657 -1.989 0.939800 -92.85 0.939800 -92.85 0.341637 -3.718
8.99375000 0.341901 -1.988 0.939711 -92.87 0.939711 -92.87 0.341881 -3.757
8.99400000 0.342147 -1.986 0.939622 -92.89 0.939622 -92.89 0.342126 -3.797
8.99425000 0.342394 -1.984 0.939531 -92.91 0.939531 -92.91 0.342373 -3.837
8.99450000 0.342643 -1.982 0.939440 -92.93 0.939440 -92.93 0.342622 -3.876
8.99475000 0.342893 -1.980 0.939349 -92.94 0.939349 -92.94 0.342873 -3.917
8.99500000 0.343146 -1.978 0.939257 -92.96 0.939257 -92.96 0.343125 -3.957
8.99525000 0.343400 -1.976 0.939164 -92.98 0.939164 -92.98 0.343379 -3.998
8.99550000 0.343656 -1.975 0.939070 -93.00 0.939070 -93.00 0.343634 -4.039
8.99575000 0.343913 -1.973 0.938975 -93.02 0.938975 -93.02 0.343892 -4.080
8.99600000 0.344173 -1.971 0.938880 -93.04 0.938880 -93.04 0.344151 -4.121
8.99625000 0.344434 -1.969 0.938784 -93.06 0.938784 -93.06 0.344412 -4.163
8.99650000 0.344697 -1.967 0.938688 -93.08 0.938688 -93.08 0.344675 -4.205
8.99675000 0.344962 -1.965 0.938590 -93.10 0.938590 -93.10 0.344940 -4.247
8.99700000 0.345228 -1.963 0.938492 -93.12 0.938492 -93.12 0.345206 -4.290
8.99725000 0.345497 -1.961 0.938393 -93.14 0.938393 -93.14 0.345475 -4.332
8.99750000 0.345767 -1.959 0.938293 -93.16 0.938293 -93.16 0.345745 -4.375
8.99775000 0.346040 -1.957 0.938192 -93.18 0.938192 -93.18 0.346017 -4.419
8.99800000 0.346314 -1.955 0.938091 -93.20 0.938091 -93.20 0.346291 -4.462