! Sonnet Data File
! From: emgraph Version : 16.52
! From Project: Resonator2_cp
! Data is De-embedded 
! Data File Written: 10/09/2017 11:12:09
!< HDATE 10/09/2017 07:45:37
!< MDATE 10/09/2017 07:45:37
!< PARAMS
!< Length = 400.0
!< Pwid1 = 2000.0
!< Pwid2 = 2000.0
!< Air_gap = 12.0
!< Width = 20.0
!< gap = 6.0
!< END PARAMS
# GHZ S MA R 40.14000
8.90000000 0.024278 18.138 0.999698 -76.29 0.999698 -76.29 0.024272 9.3025
!< P1 F=8.9 Eeff=(5.24798951 -2.3049e-5) Z0=(40.1339254 8.93825e-5) R=0.0 C=0.0 
!< P2 F=8.9 Eeff=(5.24798951 -2.3049e-5) Z0=(40.1339254 8.93825e-5) R=0.0 C=0.0 
8.90010000 0.024261 18.166 0.999698 -76.30 0.999698 -76.30 0.024255 9.2699
8.90020000 0.024243 18.195 0.999699 -76.30 0.999699 -76.30 0.024238 9.2372
8.90030000 0.024226 18.223 0.999699 -76.30 0.999699 -76.30 0.024220 9.2043
8.90040000 0.024208 18.252 0.999700 -76.30 0.999700 -76.30 0.024203 9.1712
8.90050000 0.024191 18.281 0.999700 -76.30 0.999700 -76.30 0.024185 9.1380
8.90060000 0.024173 18.310 0.999700 -76.31 0.999700 -76.31 0.024167 9.1047
8.90070000 0.024155 18.340 0.999701 -76.31 0.999701 -76.31 0.024150 9.0712
8.90080000 0.024138 18.369 0.999701 -76.31 0.999701 -76.31 0.024132 9.0375
8.90090000 0.024120 18.399 0.999702 -76.31 0.999702 -76.31 0.024114 9.0037
8.90100000 0.024102 18.428 0.999702 -76.31 0.999702 -76.31 0.024096 8.9697
8.90110000 0.024084 18.458 0.999702 -76.32 0.999702 -76.32 0.024078 8.9356
8.90120000 0.024066 18.488 0.999703 -76.32 0.999703 -76.32 0.024061 8.9014
8.90130000 0.024048 18.518 0.999703 -76.32 0.999703 -76.32 0.024043 8.8669
8.90140000 0.024030 18.549 0.999704 -76.32 0.999704 -76.32 0.024025 8.8323
8.90150000 0.024012 18.579 0.999704 -76.33 0.999704 -76.33 0.024006 8.7976
8.90160000 0.023994 18.610 0.999705 -76.33 0.999705 -76.33 0.023988 8.7627
8.90170000 0.023976 18.640 0.999705 -76.33 0.999705 -76.33 0.023970 8.7276
8.90180000 0.023958 18.671 0.999705 -76.33 0.999705 -76.33 0.023952 8.6924
8.90190000 0.023940 18.702 0.999706 -76.33 0.999706 -76.33 0.023934 8.6570
8.90200000 0.023921 18.734 0.999706 -76.34 0.999706 -76.34 0.023915 8.6214
8.90210000 0.023903 18.765 0.999707 -76.34 0.999707 -76.34 0.023897 8.5857
8.90220000 0.023885 18.797 0.999707 -76.34 0.999707 -76.34 0.023878 8.5498
8.90230000 0.023866 18.828 0.999707 -76.34 0.999707 -76.34 0.023860 8.5137
8.90240000 0.023848 18.860 0.999708 -76.35 0.999708 -76.35 0.023841 8.4775
8.90250000 0.023829 18.892 0.999708 -76.35 0.999708 -76.35 0.023823 8.4411
8.90260000 0.023810 18.924 0.999709 -76.35 0.999709 -76.35 0.023804 8.4045
8.90270000 0.023792 18.957 0.999709 -76.35 0.999709 -76.35 0.023785 8.3677
8.90280000 0.023773 18.989 0.999710 -76.35 0.999710 -76.35 0.023766 8.3308
8.90290000 0.023754 19.022 0.999710 -76.36 0.999710 -76.36 0.023748 8.2937
8.90300000 0.023735 19.055 0.999710 -76.36 0.999710 -76.36 0.023729 8.2564
8.90310000 0.023716 19.088 0.999711 -76.36 0.999711 -76.36 0.023710 8.2189
8.90320000 0.023697 19.121 0.999711 -76.36 0.999711 -76.36 0.023691 8.1813
8.90330000 0.023678 19.154 0.999712 -76.37 0.999712 -76.37 0.023672 8.1435
8.90340000 0.023659 19.188 0.999712 -76.37 0.999712 -76.37 0.023653 8.1055
8.90350000 0.023640 19.222 0.999713 -76.37 0.999713 -76.37 0.023633 8.0673
8.90360000 0.023621 19.256 0.999713 -76.37 0.999713 -76.37 0.023614 8.0289
8.90370000 0.023602 19.290 0.999714 -76.37 0.999714 -76.37 0.023595 7.9903
8.90380000 0.023582 19.324 0.999714 -76.38 0.999714 -76.38 0.023576 7.9516
8.90390000 0.023563 19.358 0.999714 -76.38 0.999714 -76.38 0.023556 7.9126
8.90400000 0.023543 19.393 0.999715 -76.38 0.999715 -76.38 0.023537 7.8735
8.90410000 0.023524 19.428 0.999715 -76.38 0.999715 -76.38 0.023517 7.8342
8.90420000 0.023504 19.463 0.999716 -76.39 0.999716 -76.39 0.023498 7.7946
8.90430000 0.023485 19.498 0.999716 -76.39 0.999716 -76.39 0.023478 7.7549
8.90440000 0.023465 19.533 0.999717 -76.39 0.999717 -76.39 0.023458 7.7150
8.90450000 0.023446 19.569 0.999717 -76.39 0.999717 -76.39 0.023439 7.6749
8.90460000 0.023426 19.605 0.999717 -76.40 0.999717 -76.40 0.023419 7.6346
8.90470000 0.023406 19.641 0.999718 -76.40 0.999718 -76.40 0.023399 7.5941
8.90480000 0.023386 19.677 0.999718 -76.40 0.999718 -76.40 0.023379 7.5534
8.90490000 0.023366 19.713 0.999719 -76.40 0.999719 -76.40 0.023359 7.5124
8.90500000 0.023346 19.750 0.999719 -76.40 0.999719 -76.40 0.023339 7.4713
8.90510000 0.023326 19.786 0.999720 -76.41 0.999720 -76.41 0.023319 7.4300
8.90520000 0.023306 19.823 0.999720 -76.41 0.999720 -76.41 0.023299 7.3884
8.90530000 0.023286 19.860 0.999721 -76.41 0.999721 -76.41 0.023279 7.3467
8.90540000 0.023266 19.898 0.999721 -76.41 0.999721 -76.41 0.023258 7.3047
8.90550000 0.023245 19.935 0.999722 -76.42 0.999722 -76.42 0.023238 7.2625
8.90560000 0.023225 19.973 0.999722 -76.42 0.999722 -76.42 0.023218 7.2201
8.90570000 0.023204 20.011 0.999722 -76.42 0.999722 -76.42 0.023197 7.1775
8.90580000 0.023184 20.049 0.999723 -76.42 0.999723 -76.42 0.023177 7.1347
8.90590000 0.023163 20.087 0.999723 -76.43 0.999723 -76.43 0.023156 7.0917
8.90600000 0.023143 20.126 0.999724 -76.43 0.999724 -76.43 0.023135 7.0484
8.90610000 0.023122 20.165 0.999724 -76.43 0.999724 -76.43 0.023115 7.0049
8.90620000 0.023101 20.204 0.999725 -76.43 0.999725 -76.43 0.023094 6.9612
8.90630000 0.023081 20.243 0.999725 -76.44 0.999725 -76.44 0.023073 6.9172
8.90640000 0.023060 20.282 0.999726 -76.44 0.999726 -76.44 0.023052 6.8730
8.90650000 0.023039 20.322 0.999726 -76.44 0.999726 -76.44 0.023031 6.8286
8.90660000 0.023018 20.362 0.999727 -76.44 0.999727 -76.44 0.023010 6.7840
8.90670000 0.022997 20.402 0.999727 -76.45 0.999727 -76.45 0.022989 6.7391
8.90680000 0.022976 20.442 0.999727 -76.45 0.999727 -76.45 0.022968 6.6940
8.90690000 0.022955 20.483 0.999728 -76.45 0.999728 -76.45 0.022947 6.6487
8.90700000 0.022933 20.523 0.999728 -76.45 0.999728 -76.45 0.022926 6.6031
8.90710000 0.022912 20.564 0.999729 -76.46 0.999729 -76.46 0.022904 6.5572
8.90720000 0.022891 20.606 0.999729 -76.46 0.999729 -76.46 0.022883 6.5112
8.90730000 0.022869 20.647 0.999730 -76.46 0.999730 -76.46 0.022861 6.4648
8.90740000 0.022848 20.689 0.999730 -76.46 0.999730 -76.46 0.022840 6.4183
8.90750000 0.022826 20.731 0.999731 -76.47 0.999731 -76.47 0.022818 6.3714
8.90760000 0.022805 20.773 0.999731 -76.47 0.999731 -76.47 0.022797 6.3244
8.90770000 0.022783 20.815 0.999732 -76.47 0.999732 -76.47 0.022775 6.2770
8.90780000 0.022761 20.858 0.999732 -76.47 0.999732 -76.47 0.022753 6.2295
8.90790000 0.022739 20.901 0.999733 -76.48 0.999733 -76.48 0.022731 6.1816
8.90800000 0.022718 20.944 0.999733 -76.48 0.999733 -76.48 0.022709 6.1335
8.90810000 0.022696 20.988 0.999734 -76.48 0.999734 -76.48 0.022687 6.0852
8.90820000 0.022674 21.031 0.999734 -76.48 0.999734 -76.48 0.022665 6.0365
8.90830000 0.022652 21.075 0.999735 -76.49 0.999735 -76.49 0.022643 5.9876
8.90840000 0.022629 21.119 0.999735 -76.49 0.999735 -76.49 0.022621 5.9385
8.90850000 0.022607 21.164 0.999736 -76.49 0.999736 -76.49 0.022599 5.8891
8.90860000 0.022585 21.209 0.999736 -76.49 0.999736 -76.49 0.022577 5.8394
8.90870000 0.022563 21.254 0.999736 -76.50 0.999736 -76.50 0.022554 5.7894
8.90880000 0.022540 21.299 0.999737 -76.50 0.999737 -76.50 0.022532 5.7391
8.90890000 0.022518 21.344 0.999737 -76.50 0.999737 -76.50 0.022509 5.6886
8.90900000 0.022495 21.390 0.999738 -76.50 0.999738 -76.50 0.022487 5.6378
8.90910000 0.022472 21.436 0.999738 -76.51 0.999738 -76.51 0.022464 5.5867
8.90920000 0.022450 21.482 0.999739 -76.51 0.999739 -76.51 0.022441 5.5353
8.90930000 0.022427 21.529 0.999739 -76.51 0.999739 -76.51 0.022418 5.4836
8.90940000 0.022404 21.576 0.999740 -76.51 0.999740 -76.51 0.022396 5.4316
8.90950000 0.022381 21.623 0.999740 -76.52 0.999740 -76.52 0.022373 5.3794
8.90960000 0.022358 21.670 0.999741 -76.52 0.999741 -76.52 0.022350 5.3268
8.90970000 0.022335 21.718 0.999741 -76.52 0.999741 -76.52 0.022327 5.2739
8.90980000 0.022312 21.766 0.999742 -76.52 0.999742 -76.52 0.022303 5.2208
8.90990000 0.022289 21.815 0.999742 -76.53 0.999742 -76.53 0.022280 5.1673
8.91000000 0.022266 21.863 0.999743 -76.53 0.999743 -76.53 0.022257 5.1135
8.91010000 0.022242 21.912 0.999743 -76.53 0.999743 -76.53 0.022234 5.0595
8.91020000 0.022219 21.961 0.999744 -76.53 0.999744 -76.53 0.022210 5.0051
8.91030000 0.022196 22.011 0.999744 -76.54 0.999744 -76.54 0.022187 4.9504
8.91040000 0.022172 22.061 0.999745 -76.54 0.999745 -76.54 0.022163 4.8953
8.91050000 0.022149 22.111 0.999745 -76.54 0.999745 -76.54 0.022139 4.8400
8.91060000 0.022125 22.161 0.999746 -76.55 0.999746 -76.55 0.022116 4.7843
8.91070000 0.022101 22.212 0.999746 -76.55 0.999746 -76.55 0.022092 4.7283
8.91080000 0.022077 22.263 0.999747 -76.55 0.999747 -76.55 0.022068 4.6720
8.91090000 0.022053 22.314 0.999747 -76.55 0.999747 -76.55 0.022044 4.6153
8.91100000 0.022029 22.366 0.999748 -76.56 0.999748 -76.56 0.022020 4.5584
8.91110000 0.022005 22.418 0.999748 -76.56 0.999748 -76.56 0.021996 4.5010
8.91120000 0.021981 22.470 0.999749 -76.56 0.999749 -76.56 0.021972 4.4434
8.91130000 0.021957 22.523 0.999749 -76.56 0.999749 -76.56 0.021948 4.3854
8.91140000 0.021933 22.576 0.999750 -76.57 0.999750 -76.57 0.021923 4.3270
8.91150000 0.021908 22.629 0.999750 -76.57 0.999750 -76.57 0.021899 4.2683
8.91160000 0.021884 22.683 0.999751 -76.57 0.999751 -76.57 0.021874 4.2092
8.91170000 0.021860 22.737 0.999751 -76.58 0.999751 -76.58 0.021850 4.1498
8.91180000 0.021835 22.791 0.999752 -76.58 0.999752 -76.58 0.021825 4.0901
8.91190000 0.021810 22.846 0.999752 -76.58 0.999752 -76.58 0.021801 4.0299
8.91200000 0.021786 22.901 0.999753 -76.58 0.999753 -76.58 0.021776 3.9694
8.91210000 0.021761 22.956 0.999753 -76.59 0.999753 -76.59 0.021751 3.9086
8.91220000 0.021736 23.012 0.999754 -76.59 0.999754 -76.59 0.021726 3.8473
8.91230000 0.021711 23.068 0.999754 -76.59 0.999754 -76.59 0.021701 3.7857
8.91240000 0.021686 23.125 0.999755 -76.59 0.999755 -76.59 0.021676 3.7237
8.91250000 0.021661 23.182 0.999755 -76.60 0.999755 -76.60 0.021651 3.6614
8.91260000 0.021636 23.239 0.999756 -76.60 0.999756 -76.60 0.021626 3.5986
8.91270000 0.021611 23.297 0.999757 -76.60 0.999757 -76.60 0.021600 3.5355
8.91280000 0.021585 23.355 0.999757 -76.61 0.999757 -76.61 0.021575 3.4719
8.91290000 0.021560 23.413 0.999758 -76.61 0.999758 -76.61 0.021550 3.4080
8.91300000 0.021534 23.472 0.999758 -76.61 0.999758 -76.61 0.021524 3.3437
8.91310000 0.021509 23.531 0.999759 -76.61 0.999759 -76.61 0.021498 3.2789
8.91320000 0.021483 23.590 0.999759 -76.62 0.999759 -76.62 0.021473 3.2138
8.91330000 0.021458 23.650 0.999760 -76.62 0.999760 -76.62 0.021447 3.1482
8.91340000 0.021432 23.711 0.999760 -76.62 0.999760 -76.62 0.021421 3.0823
8.91350000 0.021406 23.771 0.999761 -76.63 0.999761 -76.63 0.021395 3.0159
8.91360000 0.021380 23.832 0.999761 -76.63 0.999761 -76.63 0.021369 2.9491
8.91370000 0.021354 23.894 0.999762 -76.63 0.999762 -76.63 0.021343 2.8818
8.91380000 0.021328 23.956 0.999762 -76.64 0.999762 -76.64 0.021317 2.8142
8.91390000 0.021302 24.018 0.999763 -76.64 0.999763 -76.64 0.021291 2.7461
8.91400000 0.021275 24.081 0.999763 -76.64 0.999763 -76.64 0.021264 2.6775
8.91410000 0.021249 24.144 0.999764 -76.64 0.999764 -76.64 0.021238 2.6086
8.91420000 0.021223 24.208 0.999764 -76.65 0.999764 -76.65 0.021211 2.5391
8.91430000 0.021196 24.272 0.999765 -76.65 0.999765 -76.65 0.021185 2.4693
8.91440000 0.021169 24.336 0.999765 -76.65 0.999765 -76.65 0.021158 2.3989
8.91450000 0.021143 24.401 0.999766 -76.66 0.999766 -76.66 0.021132 2.3282
8.91460000 0.021116 24.467 0.999767 -76.66 0.999767 -76.66 0.021105 2.2569
8.91470000 0.021089 24.533 0.999767 -76.66 0.999767 -76.66 0.021078 2.1852
8.91480000 0.021062 24.599 0.999768 -76.66 0.999768 -76.66 0.021051 2.1130
8.91490000 0.021035 24.666 0.999768 -76.67 0.999768 -76.67 0.021024 2.0403
8.91500000 0.021008 24.733 0.999769 -76.67 0.999769 -76.67 0.020997 1.9672
8.91510000 0.020981 24.801 0.999769 -76.67 0.999769 -76.67 0.020969 1.8935
8.91520000 0.020954 24.869 0.999770 -76.68 0.999770 -76.68 0.020942 1.8194
8.91530000 0.020926 24.938 0.999770 -76.68 0.999770 -76.68 0.020915 1.7448
8.91540000 0.020899 25.007 0.999771 -76.68 0.999771 -76.68 0.020887 1.6697
8.91550000 0.020872 25.076 0.999771 -76.69 0.999771 -76.69 0.020860 1.5940
8.91560000 0.020844 25.146 0.999772 -76.69 0.999772 -76.69 0.020832 1.5179
8.91570000 0.020816 25.217 0.999772 -76.69 0.999772 -76.69 0.020804 1.4412
8.91580000 0.020789 25.288 0.999773 -76.70 0.999773 -76.70 0.020777 1.3640
8.91590000 0.020761 25.360 0.999774 -76.70 0.999774 -76.70 0.020749 1.2863
8.91600000 0.020733 25.432 0.999774 -76.70 0.999774 -76.70 0.020721 1.2081
8.91610000 0.020705 25.505 0.999775 -76.70 0.999775 -76.70 0.020693 1.1293
8.91620000 0.020677 25.578 0.999775 -76.71 0.999775 -76.71 0.020664 1.0500
8.91630000 0.020649 25.652 0.999776 -76.71 0.999776 -76.71 0.020636 0.9702
8.91640000 0.020620 25.726 0.999776 -76.71 0.999776 -76.71 0.020608 0.8898
8.91650000 0.020592 25.801 0.999777 -76.72 0.999777 -76.72 0.020579 0.8088
8.91660000 0.020564 25.876 0.999777 -76.72 0.999777 -76.72 0.020551 0.7272
8.91670000 0.020535 25.952 0.999778 -76.72 0.999778 -76.72 0.020522 0.6451
8.91680000 0.020507 26.028 0.999778 -76.73 0.999778 -76.73 0.020494 0.5625
8.91690000 0.020478 26.105 0.999779 -76.73 0.999779 -76.73 0.020465 0.4792
8.91700000 0.020449 26.183 0.999780 -76.73 0.999780 -76.73 0.020436 0.3954
8.91710000 0.020420 26.261 0.999780 -76.74 0.999780 -76.74 0.020407 0.3109
8.91720000 0.020391 26.340 0.999781 -76.74 0.999781 -76.74 0.020378 0.2259
8.91730000 0.020362 26.419 0.999781 -76.74 0.999781 -76.74 0.020349 0.1402
8.91740000 0.020333 26.499 0.999782 -76.75 0.999782 -76.75 0.020320 0.0540
8.91750000 0.020304 26.579 0.999782 -76.75 0.999782 -76.75 0.020291 -0.033
8.91760000 0.020275 26.660 0.999783 -76.75 0.999783 -76.75 0.020261 -0.120
8.91770000 0.020245 26.742 0.999783 -76.76 0.999783 -76.76 0.020232 -0.209
8.91780000 0.020216 26.824 0.999784 -76.76 0.999784 -76.76 0.020202 -0.297
8.91790000 0.020186 26.907 0.999785 -76.76 0.999785 -76.76 0.020173 -0.387
8.91800000 0.020157 26.991 0.999785 -76.77 0.999785 -76.77 0.020143 -0.477
8.91810000 0.020127 27.075 0.999786 -76.77 0.999786 -76.77 0.020113 -0.567
8.91820000 0.020097 27.160 0.999786 -76.77 0.999786 -76.77 0.020083 -0.659
8.91830000 0.020068 27.246 0.999787 -76.78 0.999787 -76.78 0.020054 -0.751
8.91840000 0.020038 27.332 0.999787 -76.78 0.999787 -76.78 0.020023 -0.844
8.91850000 0.020008 27.419 0.999788 -76.78 0.999788 -76.78 0.019993 -0.937
8.91860000 0.019977 27.506 0.999788 -76.79 0.999788 -76.79 0.019963 -1.031
8.91870000 0.019947 27.594 0.999789 -76.79 0.999789 -76.79 0.019933 -1.126
8.91880000 0.019917 27.683 0.999790 -76.79 0.999790 -76.79 0.019902 -1.221
8.91890000 0.019886 27.773 0.999790 -76.80 0.999790 -76.80 0.019872 -1.318
8.91900000 0.019856 27.863 0.999791 -76.80 0.999791 -76.80 0.019841 -1.415
8.91910000 0.019825 27.954 0.999791 -76.80 0.999791 -76.80 0.019811 -1.512
8.91920000 0.019795 28.045 0.999792 -76.81 0.999792 -76.81 0.019780 -1.611
8.91930000 0.019764 28.138 0.999792 -76.81 0.999792 -76.81 0.019749 -1.710
8.91940000 0.019733 28.231 0.999793 -76.81 0.999793 -76.81 0.019718 -1.810
8.91950000 0.019702 28.325 0.999794 -76.82 0.999794 -76.82 0.019687 -1.911
8.91960000 0.019671 28.419 0.999794 -76.82 0.999794 -76.82 0.019656 -2.012
8.91970000 0.019640 28.515 0.999795 -76.82 0.999795 -76.82 0.019625 -2.114
8.91980000 0.019609 28.611 0.999795 -76.83 0.999795 -76.83 0.019594 -2.217
8.91990000 0.019578 28.708 0.999796 -76.83 0.999796 -76.83 0.019562 -2.321
8.92000000 0.019546 28.806 0.999796 -76.84 0.999796 -76.84 0.019531 -2.426
8.92010000 0.019515 28.904 0.999797 -76.84 0.999797 -76.84 0.019499 -2.531
8.92020000 0.019484 29.003 0.999798 -76.84 0.999798 -76.84 0.019468 -2.637
8.92030000 0.019452 29.103 0.999798 -76.85 0.999798 -76.85 0.019436 -2.744
8.92040000 0.019420 29.204 0.999799 -76.85 0.999799 -76.85 0.019404 -2.852
8.92050000 0.019389 29.306 0.999799 -76.85 0.999799 -76.85 0.019373 -2.961
8.92060000 0.019357 29.408 0.999800 -76.86 0.999800 -76.86 0.019341 -3.071
8.92070000 0.019325 29.512 0.999800 -76.86 0.999800 -76.86 0.019309 -3.181
8.92080000 0.019293 29.616 0.999801 -76.86 0.999801 -76.86 0.019276 -3.293
8.92090000 0.019261 29.721 0.999802 -76.87 0.999802 -76.87 0.019244 -3.405
8.92100000 0.019228 29.827 0.999802 -76.87 0.999802 -76.87 0.019212 -3.518
8.92110000 0.019196 29.934 0.999803 -76.88 0.999803 -76.88 0.019180 -3.632
8.92120000 0.019164 30.042 0.999803 -76.88 0.999803 -76.88 0.019147 -3.747
8.92130000 0.019131 30.151 0.999804 -76.88 0.999804 -76.88 0.019115 -3.863
8.92140000 0.019099 30.260 0.999804 -76.89 0.999804 -76.89 0.019082 -3.980
8.92150000 0.019066 30.371 0.999805 -76.89 0.999805 -76.89 0.019049 -4.098
8.92160000 0.019034 30.482 0.999806 -76.89 0.999806 -76.89 0.019016 -4.217
8.92170000 0.019001 30.594 0.999806 -76.90 0.999806 -76.90 0.018984 -4.337
8.92180000 0.018968 30.708 0.999807 -76.90 0.999807 -76.90 0.018951 -4.457
8.92190000 0.018935 30.822 0.999807 -76.91 0.999807 -76.91 0.018918 -4.579
8.92200000 0.018902 30.937 0.999808 -76.91 0.999808 -76.91 0.018884 -4.702
8.92210000 0.018869 31.054 0.999808 -76.91 0.999808 -76.91 0.018851 -4.826
8.92220000 0.018836 31.171 0.999809 -76.92 0.999809 -76.92 0.018818 -4.950
8.92230000 0.018803 31.289 0.999810 -76.92 0.999810 -76.92 0.018785 -5.076
8.92240000 0.018769 31.409 0.999810 -76.92 0.999810 -76.92 0.018751 -5.203
8.92250000 0.018736 31.529 0.999811 -76.93 0.999811 -76.93 0.018718 -5.331
8.92260000 0.018702 31.650 0.999811 -76.93 0.999811 -76.93 0.018684 -5.460
8.92270000 0.018669 31.773 0.999812 -76.94 0.999812 -76.94 0.018650 -5.590
8.92280000 0.018635 31.896 0.999812 -76.94 0.999812 -76.94 0.018617 -5.722
8.92290000 0.018602 32.021 0.999813 -76.94 0.999813 -76.94 0.018583 -5.854
8.92300000 0.018568 32.147 0.999814 -76.95 0.999814 -76.95 0.018549 -5.988
8.92310000 0.018534 32.274 0.999814 -76.95 0.999814 -76.95 0.018515 -6.122
8.92320000 0.018500 32.402 0.999815 -76.96 0.999815 -76.96 0.018481 -6.258
8.92330000 0.018466 32.531 0.999815 -76.96 0.999815 -76.96 0.018447 -6.395
8.92340000 0.018432 32.661 0.999816 -76.96 0.999816 -76.96 0.018412 -6.533
8.92350000 0.018398 32.792 0.999816 -76.97 0.999816 -76.97 0.018378 -6.673
8.92360000 0.018364 32.925 0.999817 -76.97 0.999817 -76.97 0.018344 -6.813
8.92370000 0.018329 33.059 0.999818 -76.98 0.999818 -76.98 0.018309 -6.955
8.92380000 0.018295 33.194 0.999818 -76.98 0.999818 -76.98 0.018275 -7.098
8.92390000 0.018261 33.330 0.999819 -76.98 0.999819 -76.98 0.018240 -7.242
8.92400000 0.018226 33.468 0.999819 -76.99 0.999819 -76.99 0.018206 -7.388
8.92410000 0.018191 33.606 0.999820 -76.99 0.999820 -76.99 0.018171 -7.535
8.92420000 0.018157 33.746 0.999820 -77.00 0.999820 -77.00 0.018136 -7.683
8.92430000 0.018122 33.888 0.999821 -77.00 0.999821 -77.00 0.018102 -7.832
8.92440000 0.018087 34.030 0.999822 -77.01 0.999822 -77.01 0.018067 -7.983
8.92450000 0.018053 34.174 0.999822 -77.01 0.999822 -77.01 0.018032 -8.136
8.92460000 0.018018 34.320 0.999823 -77.01 0.999823 -77.01 0.017997 -8.289
8.92470000 0.017983 34.466 0.999823 -77.02 0.999823 -77.02 0.017962 -8.444
8.92480000 0.017948 34.614 0.999824 -77.02 0.999824 -77.02 0.017926 -8.600
8.92490000 0.017913 34.764 0.999824 -77.03 0.999824 -77.03 0.017891 -8.758
8.92500000 0.017878 34.914 0.999825 -77.03 0.999825 -77.03 0.017856 -8.917
8.92510000 0.017843 35.067 0.999826 -77.04 0.999826 -77.04 0.017821 -9.078
8.92520000 0.017807 35.220 0.999826 -77.04 0.999826 -77.04 0.017785 -9.240
8.92530000 0.017772 35.375 0.999827 -77.04 0.999827 -77.04 0.017750 -9.404
8.92540000 0.017737 35.532 0.999827 -77.05 0.999827 -77.05 0.017715 -9.569
8.92550000 0.017702 35.690 0.999828 -77.05 0.999828 -77.05 0.017679 -9.736
8.92560000 0.017666 35.849 0.999828 -77.06 0.999828 -77.06 0.017643 -9.904
8.92570000 0.017631 36.010 0.999829 -77.06 0.999829 -77.06 0.017608 -10.07
8.92580000 0.017595 36.173 0.999829 -77.07 0.999829 -77.07 0.017572 -10.25
8.92590000 0.017560 36.337 0.999830 -77.07 0.999830 -77.07 0.017537 -10.42
8.92600000 0.017524 36.503 0.999831 -77.08 0.999831 -77.08 0.017501 -10.59
8.92610000 0.017489 36.670 0.999831 -77.08 0.999831 -77.08 0.017465 -10.77
8.92620000 0.017453 36.839 0.999832 -77.08 0.999832 -77.08 0.017429 -10.95
8.92630000 0.017417 37.010 0.999832 -77.09 0.999832 -77.09 0.017393 -11.13
8.92640000 0.017382 37.182 0.999833 -77.09 0.999833 -77.09 0.017358 -11.31
8.92650000 0.017346 37.356 0.999833 -77.10 0.999833 -77.10 0.017322 -11.49
8.92660000 0.017310 37.532 0.999834 -77.10 0.999834 -77.10 0.017286 -11.68
8.92670000 0.017274 37.709 0.999834 -77.11 0.999834 -77.11 0.017250 -11.86
8.92680000 0.017239 37.888 0.999835 -77.11 0.999835 -77.11 0.017214 -12.05
8.92690000 0.017203 38.069 0.999835 -77.12 0.999835 -77.12 0.017178 -12.24
8.92700000 0.017167 38.252 0.999836 -77.12 0.999836 -77.12 0.017142 -12.43
8.92710000 0.017131 38.437 0.999837 -77.13 0.999837 -77.13 0.017106 -12.63
8.92720000 0.017095 38.623 0.999837 -77.13 0.999837 -77.13 0.017070 -12.82
8.92730000 0.017059 38.811 0.999838 -77.14 0.999838 -77.14 0.017034 -13.02
8.92740000 0.017023 39.001 0.999838 -77.14 0.999838 -77.14 0.016997 -13.22
8.92750000 0.016988 39.194 0.999839 -77.15 0.999839 -77.15 0.016961 -13.42
8.92760000 0.016952 39.387 0.999839 -77.15 0.999839 -77.15 0.016925 -13.62
8.92770000 0.016916 39.583 0.999840 -77.16 0.999840 -77.16 0.016889 -13.83
8.92780000 0.016880 39.781 0.999840 -77.16 0.999840 -77.16 0.016853 -14.04
8.92790000 0.016844 39.981 0.999841 -77.16 0.999841 -77.16 0.016817 -14.25
8.92800000 0.016808 40.183 0.999841 -77.17 0.999841 -77.17 0.016781 -14.46
8.92810000 0.016772 40.387 0.999842 -77.17 0.999842 -77.17 0.016745 -14.67
8.92820000 0.016737 40.593 0.999842 -77.18 0.999842 -77.18 0.016709 -14.89
8.92830000 0.016701 40.801 0.999843 -77.18 0.999843 -77.18 0.016673 -15.11
8.92840000 0.016665 41.012 0.999843 -77.19 0.999843 -77.19 0.016637 -15.33
8.92850000 0.016629 41.224 0.999844 -77.19 0.999844 -77.19 0.016601 -15.55
8.92860000 0.016594 41.439 0.999844 -77.20 0.999844 -77.20 0.016565 -15.77
8.92870000 0.016558 41.656 0.999845 -77.21 0.999845 -77.21 0.016529 -16.00
8.92880000 0.016522 41.875 0.999845 -77.21 0.999845 -77.21 0.016493 -16.23
8.92890000 0.016487 42.096 0.999846 -77.22 0.999846 -77.22 0.016458 -16.46
8.92900000 0.016451 42.320 0.999846 -77.22 0.999846 -77.22 0.016422 -16.70
8.92910000 0.016416 42.546 0.999847 -77.23 0.999847 -77.23 0.016386 -16.93
8.92920000 0.016380 42.775 0.999847 -77.23 0.999847 -77.23 0.016350 -17.17
8.92930000 0.016345 43.005 0.999848 -77.24 0.999848 -77.24 0.016315 -17.41
8.92940000 0.016310 43.238 0.999848 -77.24 0.999848 -77.24 0.016279 -17.66
8.92950000 0.016275 43.474 0.999849 -77.25 0.999849 -77.25 0.016244 -17.90
8.92960000 0.016240 43.712 0.999849 -77.25 0.999849 -77.25 0.016209 -18.15
8.92970000 0.016204 43.953 0.999850 -77.26 0.999850 -77.26 0.016173 -18.40
8.92980000 0.016170 44.196 0.999850 -77.26 0.999850 -77.26 0.016138 -18.66
8.92990000 0.016135 44.442 0.999851 -77.27 0.999851 -77.27 0.016103 -18.91
8.93000000 0.016100 44.690 0.999851 -77.27 0.999851 -77.27 0.016068 -19.17
8.93010000 0.016065 44.941 0.999852 -77.28 0.999852 -77.28 0.016033 -19.43
8.93020000 0.016031 45.194 0.999852 -77.28 0.999852 -77.28 0.015998 -19.70
8.93030000 0.015996 45.450 0.999853 -77.29 0.999853 -77.29 0.015964 -19.97
8.93040000 0.015962 45.709 0.999853 -77.30 0.999853 -77.30 0.015929 -20.24
8.93050000 0.015928 45.971 0.999853 -77.30 0.999853 -77.30 0.015895 -20.51
8.93060000 0.015894 46.236 0.999854 -77.31 0.999854 -77.31 0.015860 -20.79
8.93070000 0.015860 46.503 0.999854 -77.31 0.999854 -77.31 0.015826 -21.06
8.93080000 0.015826 46.773 0.999855 -77.32 0.999855 -77.32 0.015792 -21.35
8.93090000 0.015793 47.046 0.999855 -77.32 0.999855 -77.32 0.015759 -21.63
8.93100000 0.015760 47.322 0.999856 -77.33 0.999856 -77.33 0.015725 -21.92
8.93110000 0.015726 47.601 0.999856 -77.34 0.999856 -77.34 0.015691 -22.21
8.93120000 0.015693 47.883 0.999856 -77.34 0.999856 -77.34 0.015658 -22.50
8.93130000 0.015661 48.167 0.999857 -77.35 0.999857 -77.35 0.015625 -22.80
8.93140000 0.015628 48.455 0.999857 -77.35 0.999857 -77.35 0.015592 -23.10
8.93150000 0.015596 48.746 0.999858 -77.36 0.999858 -77.36 0.015559 -23.40
8.93160000 0.015563 49.040 0.999858 -77.36 0.999858 -77.36 0.015527 -23.71
8.93170000 0.015531 49.337 0.999858 -77.37 0.999858 -77.37 0.015495 -24.02
8.93180000 0.015500 49.638 0.999859 -77.38 0.999859 -77.38 0.015463 -24.33
8.93190000 0.015468 49.941 0.999859 -77.38 0.999859 -77.38 0.015431 -24.65
8.93200000 0.015437 50.248 0.999859 -77.39 0.999859 -77.39 0.015399 -24.96
8.93210000 0.015406 50.558 0.999860 -77.39 0.999860 -77.39 0.015368 -25.29
8.93220000 0.015375 50.872 0.999860 -77.40 0.999860 -77.40 0.015337 -25.61
8.93230000 0.015345 51.188 0.999861 -77.41 0.999861 -77.41 0.015306 -25.94
8.93240000 0.015315 51.508 0.999861 -77.41 0.999861 -77.41 0.015276 -26.28
8.93250000 0.015285 51.832 0.999861 -77.42 0.999861 -77.42 0.015246 -26.61
8.93260000 0.015255 52.159 0.999862 -77.43 0.999862 -77.43 0.015216 -26.95
8.93270000 0.015226 52.489 0.999862 -77.43 0.999862 -77.43 0.015186 -27.29
8.93280000 0.015197 52.823 0.999862 -77.44 0.999862 -77.44 0.015157 -27.64
8.93290000 0.015169 53.160 0.999862 -77.44 0.999862 -77.44 0.015128 -27.99
8.93300000 0.015141 53.501 0.999863 -77.45 0.999863 -77.45 0.015100 -28.35
8.93310000 0.015113 53.846 0.999863 -77.46 0.999863 -77.46 0.015072 -28.70
8.93320000 0.015086 54.194 0.999863 -77.46 0.999863 -77.46 0.015044 -29.07
8.93330000 0.015059 54.546 0.999864 -77.47 0.999864 -77.47 0.015017 -29.43
8.93340000 0.015032 54.901 0.999864 -77.48 0.999864 -77.48 0.014990 -29.80
8.93350000 0.015006 55.260 0.999864 -77.48 0.999864 -77.48 0.014963 -30.17
8.93360000 0.014981 55.623 0.999864 -77.49 0.999864 -77.49 0.014937 -30.55
8.93370000 0.014955 55.990 0.999865 -77.50 0.999865 -77.50 0.014912 -30.93
8.93380000 0.014931 56.360 0.999865 -77.50 0.999865 -77.50 0.014887 -31.32
8.93390000 0.014906 56.734 0.999865 -77.51 0.999865 -77.51 0.014862 -31.70
8.93400000 0.014883 57.112 0.999865 -77.52 0.999865 -77.52 0.014838 -32.10
8.93410000 0.014859 57.494 0.999865 -77.52 0.999865 -77.52 0.014814 -32.49
8.93420000 0.014837 57.880 0.999866 -77.53 0.999866 -77.53 0.014791 -32.89
8.93430000 0.014814 58.270 0.999866 -77.54 0.999866 -77.54 0.014769 -33.30
8.93440000 0.014793 58.663 0.999866 -77.54 0.999866 -77.54 0.014747 -33.71
8.93450000 0.014772 59.061 0.999866 -77.55 0.999866 -77.55 0.014725 -34.12
8.93460000 0.014751 59.462 0.999866 -77.56 0.999866 -77.56 0.014705 -34.53
8.93470000 0.014732 59.868 0.999866 -77.57 0.999866 -77.57 0.014684 -34.96
8.93480000 0.014713 60.277 0.999867 -77.57 0.999867 -77.57 0.014665 -35.38
8.93490000 0.014694 60.691 0.999867 -77.58 0.999867 -77.58 0.014646 -35.81
8.93500000 0.014676 61.108 0.999867 -77.59 0.999867 -77.59 0.014628 -36.24
8.93510000 0.014659 61.529 0.999867 -77.59 0.999867 -77.59 0.014610 -36.68
8.93520000 0.014643 61.955 0.999867 -77.60 0.999867 -77.60 0.014593 -37.12
8.93530000 0.014627 62.385 0.999867 -77.61 0.999867 -77.61 0.014577 -37.57
8.93540000 0.014612 62.818 0.999867 -77.62 0.999867 -77.62 0.014562 -38.02
8.93550000 0.014598 63.256 0.999867 -77.62 0.999867 -77.62 0.014547 -38.47
8.93560000 0.014584 63.698 0.999867 -77.63 0.999867 -77.63 0.014533 -38.93
8.93570000 0.014572 64.143 0.999867 -77.64 0.999867 -77.64 0.014520 -39.39
8.93580000 0.014560 64.593 0.999867 -77.65 0.999867 -77.65 0.014508 -39.86
8.93590000 0.014549 65.047 0.999867 -77.65 0.999867 -77.65 0.014497 -40.33
8.93600000 0.014539 65.505 0.999867 -77.66 0.999867 -77.66 0.014486 -40.80
8.93610000 0.014530 65.967 0.999867 -77.67 0.999867 -77.67 0.014477 -41.28
8.93620000 0.014522 66.433 0.999867 -77.68 0.999867 -77.68 0.014468 -41.76
8.93630000 0.014514 66.903 0.999867 -77.68 0.999867 -77.68 0.014460 -42.25
8.93640000 0.014508 67.377 0.999867 -77.69 0.999867 -77.69 0.014454 -42.74
8.93650000 0.014503 67.855 0.999867 -77.70 0.999867 -77.70 0.014448 -43.24
8.93660000 0.014498 68.337 0.999867 -77.71 0.999867 -77.71 0.014443 -43.74
8.93670000 0.014495 68.823 0.999866 -77.72 0.999866 -77.72 0.014440 -44.24
8.93680000 0.014493 69.313 0.999866 -77.72 0.999866 -77.72 0.014437 -44.75
8.93690000 0.014492 69.806 0.999866 -77.73 0.999866 -77.73 0.014435 -45.26
8.93700000 0.014492 70.304 0.999866 -77.74 0.999866 -77.74 0.014435 -45.78
8.93710000 0.014493 70.805 0.999866 -77.75 0.999866 -77.75 0.014436 -46.30
8.93720000 0.014495 71.310 0.999865 -77.76 0.999865 -77.76 0.014438 -46.82
8.93730000 0.014499 71.819 0.999865 -77.77 0.999865 -77.77 0.014441 -47.35
8.93740000 0.014503 72.332 0.999865 -77.77 0.999865 -77.77 0.014445 -47.88
8.93750000 0.014509 72.848 0.999865 -77.78 0.999865 -77.78 0.014451 -48.42
8.93760000 0.014517 73.368 0.999864 -77.79 0.999864 -77.79 0.014457 -48.96
8.93770000 0.014525 73.891 0.999864 -77.80 0.999864 -77.80 0.014466 -49.50
8.93780000 0.014535 74.418 0.999864 -77.81 0.999864 -77.81 0.014475 -50.04
8.93790000 0.014546 74.948 0.999863 -77.82 0.999863 -77.82 0.014486 -50.59
8.93800000 0.014559 75.482 0.999863 -77.83 0.999863 -77.83 0.014498 -51.15
8.93810000 0.014573 76.018 0.999862 -77.84 0.999862 -77.84 0.014512 -51.71
8.93820000 0.014589 76.559 0.999862 -77.84 0.999862 -77.84 0.014527 -52.27
8.93830000 0.014606 77.102 0.999861 -77.85 0.999861 -77.85 0.014543 -52.83
8.93840000 0.014624 77.648 0.999861 -77.86 0.999861 -77.86 0.014561 -53.40
8.93850000 0.014644 78.197 0.999860 -77.87 0.999860 -77.87 0.014581 -53.97
8.93860000 0.014666 78.750 0.999860 -77.88 0.999860 -77.88 0.014602 -54.54
8.93870000 0.014689 79.305 0.999859 -77.89 0.999859 -77.89 0.014625 -55.12
8.93880000 0.014714 79.863 0.999859 -77.90 0.999859 -77.90 0.014650 -55.70
8.93890000 0.014740 80.423 0.999858 -77.91 0.999858 -77.91 0.014676 -56.28
8.93900000 0.014769 80.986 0.999857 -77.92 0.999857 -77.92 0.014703 -56.86
8.93910000 0.014799 81.552 0.999857 -77.93 0.999857 -77.93 0.014733 -57.45
8.93920000 0.014830 82.119 0.999856 -77.94 0.999856 -77.94 0.014764 -58.04