! Sonnet Data File
! From: emgraph Version : 16.52
! From Emgraph Data: Resonator2_extremeCap
! Data File Written: 10/12/2017 21:58:49
!< HDATE 10/12/2017 14:18:48
!< MDATE 10/12/2017 14:18:48
!< PARAMS
!< Pwid1 = 2000.0
!< Air_gap = 12.0
!< Width = 20.0
!< Gap = 43.0
!< END PARAMS
# GHZ S MA R 40.13000
9.05000000 0.454497 1.5347 0.890605 -104.8 0.890605 -104.8 0.454305 -31.20
!< P1 F=9.05 Eeff=(5.25062775 -2.3085e-5) Z0=(40.1198215 8.9481e-5) R=0.0 C=0.0 
!< P2 F=9.05 Eeff=(5.25062775 -2.3085e-5) Z0=(40.1198215 8.9481e-5) R=0.0 C=0.0 
9.05005000 0.454790 1.5400 0.890455 -104.8 0.890455 -104.8 0.454597 -31.25
9.05010000 0.455084 1.5453 0.890304 -104.9 0.890304 -104.9 0.454891 -31.30
9.05015000 0.455380 1.5506 0.890153 -104.9 0.890153 -104.9 0.455186 -31.35
9.05020000 0.455676 1.5558 0.890001 -104.9 0.890001 -104.9 0.455482 -31.41
9.05025000 0.455974 1.5611 0.889848 -104.9 0.889848 -104.9 0.455779 -31.46
9.05030000 0.456273 1.5663 0.889694 -105.0 0.889694 -105.0 0.456077 -31.51
9.05035000 0.456572 1.5715 0.889540 -105.0 0.889540 -105.0 0.456376 -31.57
9.05040000 0.456873 1.5767 0.889385 -105.0 0.889385 -105.0 0.456677 -31.62
9.05045000 0.457175 1.5819 0.889229 -105.0 0.889229 -105.0 0.456978 -31.67
9.05050000 0.457478 1.5870 0.889073 -105.1 0.889073 -105.1 0.457281 -31.73
9.05055000 0.457783 1.5922 0.888915 -105.1 0.888915 -105.1 0.457584 -31.78
9.05060000 0.458088 1.5973 0.888758 -105.1 0.888758 -105.1 0.457889 -31.84
9.05065000 0.458395 1.6024 0.888599 -105.1 0.888599 -105.1 0.458195 -31.89
9.05070000 0.458702 1.6075 0.888440 -105.1 0.888440 -105.1 0.458502 -31.94
9.05075000 0.459011 1.6126 0.888280 -105.2 0.888280 -105.2 0.458811 -32.00
9.05080000 0.459321 1.6176 0.888119 -105.2 0.888119 -105.2 0.459120 -32.05
9.05085000 0.459633 1.6227 0.887957 -105.2 0.887957 -105.2 0.459431 -32.11
9.05090000 0.459945 1.6277 0.887795 -105.2 0.887795 -105.2 0.459742 -32.16
9.05095000 0.460258 1.6327 0.887632 -105.3 0.887632 -105.3 0.460055 -32.22
9.05100000 0.460573 1.6376 0.887468 -105.3 0.887468 -105.3 0.460369 -32.27
9.05105000 0.460889 1.6426 0.887303 -105.3 0.887303 -105.3 0.460685 -32.33
9.05110000 0.461206 1.6475 0.887138 -105.3 0.887138 -105.3 0.461001 -32.38
9.05115000 0.461525 1.6524 0.886972 -105.4 0.886972 -105.4 0.461319 -32.44
9.05120000 0.461844 1.6573 0.886805 -105.4 0.886805 -105.4 0.461638 -32.50
9.05125000 0.462165 1.6622 0.886637 -105.4 0.886637 -105.4 0.461958 -32.55
9.05130000 0.462487 1.6670 0.886469 -105.4 0.886469 -105.4 0.462279 -32.61
9.05135000 0.462810 1.6719 0.886300 -105.5 0.886300 -105.5 0.462602 -32.67
9.05140000 0.463134 1.6767 0.886130 -105.5 0.886130 -105.5 0.462926 -32.72
9.05145000 0.463460 1.6814 0.885959 -105.5 0.885959 -105.5 0.463251 -32.78
9.05150000 0.463787 1.6862 0.885787 -105.6 0.885787 -105.6 0.463577 -32.84
9.05155000 0.464115 1.6909 0.885615 -105.6 0.885615 -105.6 0.463905 -32.89
9.05160000 0.464445 1.6956 0.885441 -105.6 0.885441 -105.6 0.464233 -32.95
9.05165000 0.464775 1.7003 0.885267 -105.6 0.885267 -105.6 0.464563 -33.01
9.05170000 0.465107 1.7050 0.885092 -105.7 0.885092 -105.7 0.464895 -33.07
9.05175000 0.465441 1.7096 0.884916 -105.7 0.884916 -105.7 0.465227 -33.12
9.05180000 0.465775 1.7143 0.884740 -105.7 0.884740 -105.7 0.465561 -33.18
9.05185000 0.466111 1.7188 0.884562 -105.7 0.884562 -105.7 0.465897 -33.24
9.05190000 0.466448 1.7234 0.884384 -105.8 0.884384 -105.8 0.466233 -33.30
9.05195000 0.466787 1.7280 0.884205 -105.8 0.884205 -105.8 0.466571 -33.36
9.05200000 0.467127 1.7325 0.884024 -105.8 0.884024 -105.8 0.466910 -33.41
9.05205000 0.467468 1.7370 0.883843 -105.8 0.883843 -105.8 0.467251 -33.47
9.05210000 0.467810 1.7414 0.883662 -105.9 0.883662 -105.9 0.467592 -33.53
9.05215000 0.468154 1.7459 0.883479 -105.9 0.883479 -105.9 0.467936 -33.59
9.05220000 0.468499 1.7503 0.883295 -105.9 0.883295 -105.9 0.468280 -33.65
9.05225000 0.468846 1.7547 0.883111 -106.0 0.883111 -106.0 0.468626 -33.71
9.05230000 0.469194 1.7590 0.882925 -106.0 0.882925 -106.0 0.468973 -33.77
9.05235000 0.469543 1.7633 0.882739 -106.0 0.882739 -106.0 0.469322 -33.83
9.05240000 0.469894 1.7676 0.882552 -106.0 0.882552 -106.0 0.469672 -33.89
9.05245000 0.470246 1.7719 0.882363 -106.1 0.882363 -106.1 0.470023 -33.95
9.05250000 0.470599 1.7762 0.882174 -106.1 0.882174 -106.1 0.470376 -34.01
9.05255000 0.470954 1.7804 0.881984 -106.1 0.881984 -106.1 0.470730 -34.07
9.05260000 0.471310 1.7846 0.881793 -106.2 0.881793 -106.2 0.471086 -34.13
9.05265000 0.471668 1.7887 0.881601 -106.2 0.881601 -106.2 0.471443 -34.19
9.05270000 0.472027 1.7928 0.881409 -106.2 0.881409 -106.2 0.471801 -34.26
9.05275000 0.472388 1.7969 0.881215 -106.2 0.881215 -106.2 0.472161 -34.32
9.05280000 0.472750 1.8010 0.881020 -106.3 0.881020 -106.3 0.472522 -34.38
9.05285000 0.473113 1.8050 0.880824 -106.3 0.880824 -106.3 0.472885 -34.44
9.05290000 0.473478 1.8090 0.880627 -106.3 0.880627 -106.3 0.473249 -34.50
9.05295000 0.473845 1.8130 0.880429 -106.4 0.880429 -106.4 0.473615 -34.56
9.05300000 0.474212 1.8169 0.880231 -106.4 0.880231 -106.4 0.473982 -34.63
9.05305000 0.474582 1.8208 0.880031 -106.4 0.880031 -106.4 0.474350 -34.69
9.05310000 0.474953 1.8247 0.879830 -106.4 0.879830 -106.4 0.474720 -34.75
9.05315000 0.475325 1.8285 0.879628 -106.5 0.879628 -106.5 0.475092 -34.82
9.05320000 0.475699 1.8323 0.879426 -106.5 0.879426 -106.5 0.475465 -34.88
9.05325000 0.476074 1.8361 0.879222 -106.5 0.879222 -106.5 0.475840 -34.94
9.05330000 0.476451 1.8398 0.879017 -106.6 0.879017 -106.6 0.476216 -35.01
9.05335000 0.476830 1.8435 0.878811 -106.6 0.878811 -106.6 0.476594 -35.07
9.05340000 0.477210 1.8472 0.878604 -106.6 0.878604 -106.6 0.476973 -35.13
9.05345000 0.477591 1.8508 0.878396 -106.6 0.878396 -106.6 0.477354 -35.20
9.05350000 0.477974 1.8544 0.878187 -106.7 0.878187 -106.7 0.477736 -35.26
9.05355000 0.478359 1.8579 0.877976 -106.7 0.877976 -106.7 0.478120 -35.33
9.05360000 0.478745 1.8615 0.877765 -106.7 0.877765 -106.7 0.478505 -35.39
9.05365000 0.479133 1.8649 0.877553 -106.8 0.877553 -106.8 0.478892 -35.46
9.05370000 0.479522 1.8684 0.877339 -106.8 0.877339 -106.8 0.479281 -35.52
9.05375000 0.479913 1.8718 0.877125 -106.8 0.877125 -106.8 0.479671 -35.59
9.05380000 0.480306 1.8751 0.876909 -106.9 0.876909 -106.9 0.480063 -35.65
9.05385000 0.480700 1.8784 0.876692 -106.9 0.876692 -106.9 0.480457 -35.72
9.05390000 0.481096 1.8817 0.876474 -106.9 0.876474 -106.9 0.480852 -35.78
9.05395000 0.481494 1.8850 0.876255 -107.0 0.876255 -107.0 0.481248 -35.85
9.05400000 0.481893 1.8882 0.876035 -107.0 0.876035 -107.0 0.481647 -35.92
9.05405000 0.482294 1.8913 0.875813 -107.0 0.875813 -107.0 0.482047 -35.98
9.05410000 0.482697 1.8944 0.875591 -107.1 0.875591 -107.1 0.482449 -36.05
9.05415000 0.483101 1.8975 0.875367 -107.1 0.875367 -107.1 0.482852 -36.12
9.05420000 0.483507 1.9005 0.875142 -107.1 0.875142 -107.1 0.483257 -36.18
9.05425000 0.483915 1.9035 0.874916 -107.1 0.874916 -107.1 0.483664 -36.25
9.05430000 0.484324 1.9064 0.874688 -107.2 0.874688 -107.2 0.484073 -36.32
9.05435000 0.484735 1.9093 0.874460 -107.2 0.874460 -107.2 0.484483 -36.39
9.05440000 0.485148 1.9122 0.874230 -107.2 0.874230 -107.2 0.484895 -36.46
9.05445000 0.485562 1.9150 0.873999 -107.3 0.873999 -107.3 0.485309 -36.52
9.05450000 0.485979 1.9178 0.873767 -107.3 0.873767 -107.3 0.485724 -36.59
9.05455000 0.486397 1.9205 0.873533 -107.3 0.873533 -107.3 0.486142 -36.66
9.05460000 0.486817 1.9231 0.873298 -107.4 0.873298 -107.4 0.486561 -36.73
9.05465000 0.487238 1.9258 0.873062 -107.4 0.873062 -107.4 0.486981 -36.80
9.05470000 0.487662 1.9283 0.872825 -107.4 0.872825 -107.4 0.487404 -36.87
9.05475000 0.488087 1.9308 0.872586 -107.5 0.872586 -107.5 0.487828 -36.94
9.05480000 0.488514 1.9333 0.872347 -107.5 0.872347 -107.5 0.488255 -37.01
9.05485000 0.488943 1.9357 0.872105 -107.5 0.872105 -107.5 0.488683 -37.08
9.05490000 0.489374 1.9381 0.871863 -107.6 0.871863 -107.6 0.489113 -37.15
9.05495000 0.489807 1.9404 0.871619 -107.6 0.871619 -107.6 0.489544 -37.22
9.05500000 0.490241 1.9427 0.871374 -107.6 0.871374 -107.6 0.489978 -37.29
9.05505000 0.490678 1.9449 0.871127 -107.7 0.871127 -107.7 0.490413 -37.36
9.05510000 0.491116 1.9471 0.870879 -107.7 0.870879 -107.7 0.490851 -37.43
9.05515000 0.491556 1.9492 0.870630 -107.8 0.870630 -107.8 0.491290 -37.51
9.05520000 0.491998 1.9513 0.870379 -107.8 0.870379 -107.8 0.491731 -37.58
9.05525000 0.492442 1.9533 0.870127 -107.8 0.870127 -107.8 0.492174 -37.65
9.05530000 0.492888 1.9552 0.869874 -107.9 0.869874 -107.9 0.492619 -37.72
9.05535000 0.493336 1.9571 0.869619 -107.9 0.869619 -107.9 0.493066 -37.80
9.05540000 0.493786 1.9589 0.869363 -107.9 0.869363 -107.9 0.493515 -37.87
9.05545000 0.494237 1.9607 0.869105 -108.0 0.869105 -108.0 0.493966 -37.94
9.05550000 0.494691 1.9624 0.868846 -108.0 0.868846 -108.0 0.494419 -38.01
9.05555000 0.495147 1.9641 0.868585 -108.0 0.868585 -108.0 0.494873 -38.09
9.05560000 0.495605 1.9657 0.868323 -108.1 0.868323 -108.1 0.495330 -38.16
9.05565000 0.496064 1.9673 0.868060 -108.1 0.868060 -108.1 0.495789 -38.24
9.05570000 0.496526 1.9687 0.867795 -108.1 0.867795 -108.1 0.496250 -38.31
9.05575000 0.496990 1.9702 0.867528 -108.2 0.867528 -108.2 0.496713 -38.38
9.05580000 0.497456 1.9715 0.867260 -108.2 0.867260 -108.2 0.497178 -38.46
9.05585000 0.497924 1.9728 0.866991 -108.3 0.866991 -108.3 0.497645 -38.53
9.05590000 0.498394 1.9741 0.866720 -108.3 0.866720 -108.3 0.498114 -38.61
9.05595000 0.498866 1.9752 0.866447 -108.3 0.866447 -108.3 0.498585 -38.69
9.05600000 0.499340 1.9764 0.866173 -108.4 0.866173 -108.4 0.499058 -38.76
9.05605000 0.499817 1.9774 0.865897 -108.4 0.865897 -108.4 0.499534 -38.84
9.05610000 0.500295 1.9784 0.865619 -108.4 0.865619 -108.4 0.500011 -38.91
9.05615000 0.500776 1.9793 0.865340 -108.5 0.865340 -108.5 0.500491 -38.99
9.05620000 0.501258 1.9801 0.865060 -108.5 0.865060 -108.5 0.500972 -39.07
9.05625000 0.501743 1.9809 0.864778 -108.6 0.864778 -108.6 0.501456 -39.15
9.05630000 0.502230 1.9816 0.864494 -108.6 0.864494 -108.6 0.501942 -39.22
9.05635000 0.502720 1.9823 0.864208 -108.6 0.864208 -108.6 0.502431 -39.30
9.05640000 0.503211 1.9828 0.863921 -108.7 0.863921 -108.7 0.502921 -39.38
9.05645000 0.503705 1.9833 0.863632 -108.7 0.863632 -108.7 0.503414 -39.46
9.05650000 0.504201 1.9838 0.863342 -108.7 0.863342 -108.7 0.503909 -39.54
9.05655000 0.504699 1.9841 0.863049 -108.8 0.863049 -108.8 0.504406 -39.61
9.05660000 0.505200 1.9844 0.862755 -108.8 0.862755 -108.8 0.504905 -39.69
9.05665000 0.505703 1.9846 0.862460 -108.9 0.862460 -108.9 0.505407 -39.77
9.05670000 0.506208 1.9847 0.862162 -108.9 0.862162 -108.9 0.505911 -39.85
9.05675000 0.506715 1.9848 0.861863 -108.9 0.861863 -108.9 0.506418 -39.93
9.05680000 0.507225 1.9848 0.861562 -109.0 0.861562 -109.0 0.506926 -40.01
9.05685000 0.507737 1.9847 0.861259 -109.0 0.861259 -109.0 0.507437 -40.09
9.05690000 0.508251 1.9845 0.860955 -109.1 0.860955 -109.1 0.507950 -40.17
9.05695000 0.508768 1.9842 0.860648 -109.1 0.860648 -109.1 0.508466 -40.26
9.05700000 0.509287 1.9839 0.860340 -109.1 0.860340 -109.1 0.508984 -40.34
9.05705000 0.509809 1.9835 0.860030 -109.2 0.860030 -109.2 0.509505 -40.42
9.05710000 0.510333 1.9830 0.859718 -109.2 0.859718 -109.2 0.510027 -40.50
9.05715000 0.510859 1.9824 0.859404 -109.3 0.859404 -109.3 0.510553 -40.58
9.05720000 0.511388 1.9818 0.859088 -109.3 0.859088 -109.3 0.511080 -40.67
9.05725000 0.511919 1.9810 0.858771 -109.4 0.858771 -109.4 0.511611 -40.75
9.05730000 0.512453 1.9802 0.858451 -109.4 0.858451 -109.4 0.512143 -40.83
9.05735000 0.512989 1.9792 0.858129 -109.4 0.858129 -109.4 0.512678 -40.92
9.05740000 0.513528 1.9782 0.857806 -109.5 0.857806 -109.5 0.513216 -41.00
9.05745000 0.514069 1.9771 0.857480 -109.5 0.857480 -109.5 0.513756 -41.08
9.05750000 0.514613 1.9760 0.857153 -109.6 0.857153 -109.6 0.514299 -41.17
9.05755000 0.515159 1.9747 0.856823 -109.6 0.856823 -109.6 0.514844 -41.25
9.05760000 0.515708 1.9733 0.856492 -109.6 0.856492 -109.6 0.515392 -41.34
9.05765000 0.516260 1.9719 0.856158 -109.7 0.856158 -109.7 0.515942 -41.42
9.05770000 0.516814 1.9703 0.855823 -109.7 0.855823 -109.7 0.516495 -41.51
9.05775000 0.517371 1.9687 0.855485 -109.8 0.855485 -109.8 0.517051 -41.59
9.05780000 0.517930 1.9669 0.855145 -109.8 0.855145 -109.8 0.517609 -41.68
9.05785000 0.518492 1.9651 0.854803 -109.9 0.854803 -109.9 0.518170 -41.77
9.05790000 0.519057 1.9631 0.854459 -109.9 0.854459 -109.9 0.518733 -41.85
9.05795000 0.519624 1.9611 0.854113 -110.0 0.854113 -110.0 0.519299 -41.94
9.05800000 0.520194 1.9590 0.853764 -110.0 0.853764 -110.0 0.519868 -42.03
9.05805000 0.520767 1.9567 0.853414 -110.0 0.853414 -110.0 0.520440 -42.12
9.05810000 0.521343 1.9544 0.853061 -110.1 0.853061 -110.1 0.521014 -42.21
9.05815000 0.521921 1.9520 0.852706 -110.1 0.852706 -110.1 0.521591 -42.29
9.05820000 0.522502 1.9494 0.852348 -110.2 0.852348 -110.2 0.522171 -42.38
9.05825000 0.523086 1.9468 0.851989 -110.2 0.851989 -110.2 0.522754 -42.47
9.05830000 0.523673 1.9440 0.851627 -110.3 0.851627 -110.3 0.523339 -42.56
9.05835000 0.524262 1.9412 0.851263 -110.3 0.851263 -110.3 0.523927 -42.65
9.05840000 0.524855 1.9382 0.850896 -110.4 0.850896 -110.4 0.524518 -42.74
9.05845000 0.525450 1.9351 0.850527 -110.4 0.850527 -110.4 0.525112 -42.83
9.05850000 0.526048 1.9319 0.850156 -110.5 0.850156 -110.5 0.525709 -42.92
9.05855000 0.526649 1.9286 0.849782 -110.5 0.849782 -110.5 0.526309 -43.01
9.05860000 0.527253 1.9252 0.849406 -110.6 0.849406 -110.6 0.526912 -43.11
9.05865000 0.527860 1.9217 0.849028 -110.6 0.849028 -110.6 0.527517 -43.20
9.05870000 0.528470 1.9180 0.848647 -110.6 0.848647 -110.6 0.528126 -43.29
9.05875000 0.529083 1.9143 0.848263 -110.7 0.848263 -110.7 0.528737 -43.38
9.05880000 0.529698 1.9104 0.847877 -110.7 0.847877 -110.7 0.529352 -43.48
9.05885000 0.530317 1.9064 0.847489 -110.8 0.847489 -110.8 0.529970 -43.57
9.05890000 0.530939 1.9022 0.847098 -110.8 0.847098 -110.8 0.530590 -43.66
9.05895000 0.531564 1.8980 0.846704 -110.9 0.846704 -110.9 0.531214 -43.76
9.05900000 0.532192 1.8936 0.846308 -110.9 0.846308 -110.9 0.531840 -43.85
9.05905000 0.532824 1.8891 0.845909 -111.0 0.845909 -111.0 0.532470 -43.95
9.05910000 0.533458 1.8845 0.845508 -111.0 0.845508 -111.0 0.533103 -44.04
9.05915000 0.534095 1.8798 0.845104 -111.1 0.845104 -111.1 0.533739 -44.14
9.05920000 0.534736 1.8749 0.844697 -111.1 0.844697 -111.1 0.534378 -44.23
9.05925000 0.535380 1.8699 0.844287 -111.2 0.844287 -111.2 0.535021 -44.33
9.05930000 0.536027 1.8647 0.843875 -111.2 0.843875 -111.2 0.535667 -44.43
9.05935000 0.536677 1.8595 0.843460 -111.3 0.843460 -111.3 0.536315 -44.52
9.05940000 0.537331 1.8540 0.843042 -111.3 0.843042 -111.3 0.536967 -44.62
9.05945000 0.537987 1.8485 0.842621 -111.4 0.842621 -111.4 0.537623 -44.72
9.05950000 0.538647 1.8428 0.842198 -111.4 0.842198 -111.4 0.538281 -44.82
9.05955000 0.539311 1.8370 0.841772 -111.5 0.841772 -111.5 0.538943 -44.92
9.05960000 0.539977 1.8310 0.841342 -111.6 0.841342 -111.6 0.539609 -45.02
9.05965000 0.540648 1.8249 0.840910 -111.6 0.840910 -111.6 0.540277 -45.12
9.05970000 0.541321 1.8187 0.840475 -111.7 0.840475 -111.7 0.540949 -45.22
9.05975000 0.541998 1.8123 0.840037 -111.7 0.840037 -111.7 0.541625 -45.32
9.05980000 0.542678 1.8057 0.839596 -111.8 0.839596 -111.8 0.542303 -45.42
9.05985000 0.543362 1.7990 0.839152 -111.8 0.839152 -111.8 0.542986 -45.52
9.05990000 0.544049 1.7922 0.838705 -111.9 0.838705 -111.9 0.543671 -45.62
9.05995000 0.544740 1.7852 0.838254 -111.9 0.838254 -111.9 0.544361 -45.72
9.06000000 0.545434 1.7781 0.837801 -112.0 0.837801 -112.0 0.545053 -45.82
9.06005000 0.546132 1.7708 0.837344 -112.0 0.837344 -112.0 0.545750 -45.93
9.06010000 0.546833 1.7633 0.836885 -112.1 0.836885 -112.1 0.546449 -46.03
9.06015000 0.547538 1.7557 0.836422 -112.1 0.836422 -112.1 0.547153 -46.13
9.06020000 0.548247 1.7479 0.835956 -112.2 0.835956 -112.2 0.547860 -46.24
9.06025000 0.548959 1.7399 0.835486 -112.3 0.835486 -112.3 0.548570 -46.34
9.06030000 0.549675 1.7318 0.835013 -112.3 0.835013 -112.3 0.549285 -46.45
9.06035000 0.550395 1.7236 0.834537 -112.4 0.834537 -112.4 0.550003 -46.55
9.06040000 0.551118 1.7151 0.834058 -112.4 0.834058 -112.4 0.550724 -46.66
9.06045000 0.551845 1.7065 0.833575 -112.5 0.833575 -112.5 0.551450 -46.76
9.06050000 0.552576 1.6977 0.833089 -112.5 0.833089 -112.5 0.552179 -46.87
9.06055000 0.553310 1.6888 0.832599 -112.6 0.832599 -112.6 0.552912 -46.98
9.06060000 0.554049 1.6796 0.832106 -112.7 0.832106 -112.7 0.553649 -47.09
9.06065000 0.554791 1.6703 0.831609 -112.7 0.831609 -112.7 0.554389 -47.19
9.06070000 0.555537 1.6608 0.831109 -112.8 0.831109 -112.8 0.555134 -47.30
9.06075000 0.556287 1.6512 0.830605 -112.8 0.830605 -112.8 0.555882 -47.41
9.06080000 0.557041 1.6413 0.830097 -112.9 0.830097 -112.9 0.556635 -47.52
9.06085000 0.557799 1.6313 0.829586 -113.0 0.829586 -113.0 0.557391 -47.63
9.06090000 0.558561 1.6210 0.829071 -113.0 0.829071 -113.0 0.558151 -47.74
9.06095000 0.559327 1.6106 0.828552 -113.1 0.828552 -113.1 0.558915 -47.85
9.06100000 0.560097 1.6000 0.828030 -113.1 0.828030 -113.1 0.559684 -47.96
9.06105000 0.560871 1.5892 0.827504 -113.2 0.827504 -113.2 0.560456 -48.07
9.06110000 0.561649 1.5782 0.826974 -113.3 0.826974 -113.3 0.561232 -48.19
9.06115000 0.562431 1.5670 0.826440 -113.3 0.826440 -113.3 0.562013 -48.30
9.06120000 0.563218 1.5556 0.825902 -113.4 0.825902 -113.4 0.562797 -48.41
9.06125000 0.564008 1.5440 0.825360 -113.4 0.825360 -113.4 0.563586 -48.53
9.06130000 0.564803 1.5322 0.824814 -113.5 0.824814 -113.5 0.564379 -48.64
9.06135000 0.565602 1.5202 0.824264 -113.6 0.824264 -113.6 0.565176 -48.76
9.06140000 0.566405 1.5080 0.823710 -113.6 0.823710 -113.6 0.565978 -48.87
9.06145000 0.567213 1.4956 0.823152 -113.7 0.823152 -113.7 0.566783 -48.99
9.06150000 0.568025 1.4829 0.822589 -113.8 0.822589 -113.8 0.567594 -49.10
9.06155000 0.568841 1.4701 0.822023 -113.8 0.822023 -113.8 0.568408 -49.22
9.06160000 0.569661 1.4570 0.821452 -113.9 0.821452 -113.9 0.569227 -49.34
9.06165000 0.570486 1.4437 0.820877 -114.0 0.820877 -114.0 0.570050 -49.45
9.06170000 0.571316 1.4302 0.820297 -114.0 0.820297 -114.0 0.570877 -49.57
9.06175000 0.572150 1.4164 0.819713 -114.1 0.819713 -114.1 0.571709 -49.69
9.06180000 0.572988 1.4025 0.819125 -114.2 0.819125 -114.2 0.572546 -49.81
9.06185000 0.573831 1.3883 0.818532 -114.2 0.818532 -114.2 0.573387 -49.93
9.06190000 0.574679 1.3738 0.817935 -114.3 0.817935 -114.3 0.574233 -50.05
9.06195000 0.575531 1.3592 0.817333 -114.4 0.817333 -114.4 0.575083 -50.17
9.06200000 0.576388 1.3442 0.816726 -114.4 0.816726 -114.4 0.575938 -50.29
9.06205000 0.577249 1.3291 0.816115 -114.5 0.816115 -114.5 0.576797 -50.41
9.06210000 0.578115 1.3137 0.815499 -114.6 0.815499 -114.6 0.577661 -50.54
9.06215000 0.578986 1.2980 0.814878 -114.6 0.814878 -114.6 0.578530 -50.66
9.06220000 0.579862 1.2821 0.814253 -114.7 0.814253 -114.7 0.579404 -50.78
9.06225000 0.580742 1.2660 0.813623 -114.8 0.813623 -114.8 0.580282 -50.91
9.06230000 0.581627 1.2496 0.812987 -114.8 0.812987 -114.8 0.581165 -51.03
9.06235000 0.582517 1.2329 0.812347 -114.9 0.812347 -114.9 0.582053 -51.16
9.06240000 0.583412 1.2160 0.811702 -115.0 0.811702 -115.0 0.582946 -51.28
9.06245000 0.584312 1.1988 0.811051 -115.0 0.811051 -115.0 0.583844 -51.41
9.06250000 0.585217 1.1814 0.810396 -115.1 0.810396 -115.1 0.584747 -51.54
9.06255000 0.586127 1.1636 0.809735 -115.2 0.809735 -115.2 0.585654 -51.67
9.06260000 0.587042 1.1456 0.809070 -115.3 0.809070 -115.3 0.586567 -51.79
9.06265000 0.587961 1.1274 0.808398 -115.3 0.808398 -115.3 0.587485 -51.92
9.06270000 0.588886 1.1088 0.807722 -115.4 0.807722 -115.4 0.588408 -52.05
9.06275000 0.589817 1.0900 0.807040 -115.5 0.807040 -115.5 0.589336 -52.18
9.06280000 0.590752 1.0709 0.806353 -115.6 0.806353 -115.6 0.590269 -52.31
9.06285000 0.591692 1.0514 0.805660 -115.6 0.805660 -115.6 0.591207 -52.44
9.06290000 0.592638 1.0317 0.804961 -115.7 0.804961 -115.7 0.592151 -52.58
9.06295000 0.593589 1.0118 0.804257 -115.8 0.804257 -115.8 0.593100 -52.71
9.06300000 0.594546 0.9915 0.803547 -115.9 0.803547 -115.9 0.594054 -52.84
9.06305000 0.595507 0.9709 0.802832 -115.9 0.802832 -115.9 0.595013 -52.97
9.06310000 0.596474 0.9500 0.802110 -116.0 0.802110 -116.0 0.595978 -53.11
9.06315000 0.597447 0.9288 0.801383 -116.1 0.801383 -116.1 0.596949 -53.24
9.06320000 0.598425 0.9072 0.800650 -116.2 0.800650 -116.2 0.597924 -53.38
9.06325000 0.599408 0.8854 0.799911 -116.3 0.799911 -116.3 0.598905 -53.52
9.06330000 0.600397 0.8632 0.799165 -116.3 0.799165 -116.3 0.599892 -53.65
9.06335000 0.601392 0.8408 0.798414 -116.4 0.798414 -116.4 0.600884 -53.79
9.06340000 0.602392 0.8180 0.797656 -116.5 0.797656 -116.5 0.601882 -53.93
9.06345000 0.603398 0.7948 0.796892 -116.6 0.796892 -116.6 0.602886 -54.07
9.06350000 0.604409 0.7714 0.796122 -116.7 0.796122 -116.7 0.603895 -54.21
9.06355000 0.605426 0.7476 0.795345 -116.7 0.795345 -116.7 0.604910 -54.35
9.06360000 0.606449 0.7234 0.794562 -116.8 0.794562 -116.8 0.605930 -54.49
9.06365000 0.607478 0.6989 0.793772 -116.9 0.793772 -116.9 0.606957 -54.63
9.06370000 0.608513 0.6741 0.792976 -117.0 0.792976 -117.0 0.607989 -54.77
9.06375000 0.609553 0.6489 0.792173 -117.1 0.792173 -117.1 0.609027 -54.91
9.06380000 0.610600 0.6233 0.791363 -117.2 0.791363 -117.2 0.610071 -55.06
9.06385000 0.611652 0.5974 0.790546 -117.2 0.790546 -117.2 0.611121 -55.20
9.06390000 0.612711 0.5711 0.789722 -117.3 0.789722 -117.3 0.612177 -55.35
9.06395000 0.613775 0.5445 0.788892 -117.4 0.788892 -117.4 0.613239 -55.49
9.06400000 0.614845 0.5175 0.788054 -117.5 0.788054 -117.5 0.614307 -55.64
9.06405000 0.615922 0.4901 0.787209 -117.6 0.787209 -117.6 0.615381 -55.79
9.06410000 0.617005 0.4623 0.786357 -117.7 0.786357 -117.7 0.616461 -55.94
9.06415000 0.618094 0.4341 0.785497 -117.8 0.785497 -117.8 0.617548 -56.08
9.06420000 0.619189 0.4056 0.784630 -117.8 0.784630 -117.8 0.618640 -56.23
9.06425000 0.620291 0.3766 0.783756 -117.9 0.783756 -117.9 0.619739 -56.38
9.06430000 0.621399 0.3473 0.782873 -118.0 0.782873 -118.0 0.620845 -56.54
9.06435000 0.622513 0.3175 0.781984 -118.1 0.781984 -118.1 0.621956 -56.69
9.06440000 0.623634 0.2873 0.781086 -118.2 0.781086 -118.2 0.623074 -56.84
9.06445000 0.624761 0.2567 0.780181 -118.3 0.780181 -118.3 0.624199 -56.99
9.06450000 0.625894 0.2257 0.779267 -118.4 0.779267 -118.4 0.625330 -57.15
9.06455000 0.627035 0.1943 0.778346 -118.5 0.778346 -118.5 0.626467 -57.30
9.06460000 0.628181 0.1625 0.777417 -118.6 0.777417 -118.6 0.627611 -57.46
9.06465000 0.629335 0.1302 0.776479 -118.7 0.776479 -118.7 0.628762 -57.61
9.06470000 0.630495 0.0975 0.775533 -118.8 0.775533 -118.8 0.629919 -57.77
9.06475000 0.631662 0.0643 0.774579 -118.9 0.774579 -118.9 0.631083 -57.93
9.06480000 0.632835 0.0307 0.773616 -119.0 0.773616 -119.0 0.632254 -58.09
9.06485000 0.634016 0.0000 0.772644 -119.1 0.772644 -119.1 0.633432 -58.25
9.06490000 0.635203 -0.038 0.771664 -119.1 0.771664 -119.1 0.634616 -58.41
9.06495000 0.636397 -0.073 0.770675 -119.2 0.770675 -119.2 0.635807 -58.57
9.06500000 0.637598 -0.108 0.769677 -119.3 0.769677 -119.3 0.637005 -58.73
9.06505000 0.638806 -0.144 0.768670 -119.4 0.768670 -119.4 0.638211 -58.90
9.06510000 0.640021 -0.181 0.767654 -119.5 0.767654 -119.5 0.639423 -59.06
9.06515000 0.641243 -0.218 0.766628 -119.6 0.766628 -119.6 0.640642 -59.23
9.06520000 0.642472 -0.255 0.765594 -119.7 0.765594 -119.7 0.641868 -59.39
9.06525000 0.643709 -0.293 0.764550 -119.8 0.764550 -119.8 0.643102 -59.56
9.06530000 0.644952 -0.331 0.763496 -119.9 0.763496 -119.9 0.644342 -59.72
9.06535000 0.646203 -0.370 0.762433 -120.1 0.762433 -120.1 0.645590 -59.89
9.06540000 0.647461 -0.410 0.761360 -120.2 0.761360 -120.2 0.646845 -60.06
9.06545000 0.648727 -0.450 0.760277 -120.3 0.760277 -120.3 0.648108 -60.23
9.06550000 0.650000 -0.490 0.759183 -120.4 0.759183 -120.4 0.649377 -60.40
9.06555000 0.651280 -0.531 0.758080 -120.5 0.758080 -120.5 0.650655 -60.58
9.06560000 0.652568 -0.573 0.756967 -120.6 0.756967 -120.6 0.651939 -60.75
9.06565000 0.653863 -0.615 0.755843 -120.7 0.755843 -120.7 0.653231 -60.92
9.06570000 0.655166 -0.657 0.754709 -120.8 0.754709 -120.8 0.654531 -61.10
9.06575000 0.656476 -0.700 0.753564 -120.9 0.753564 -120.9 0.655838 -61.27
9.06580000 0.657794 -0.744 0.752408 -121.0 0.752408 -121.0 0.657153 -61.45
9.06585000 0.659120 -0.788 0.751241 -121.1 0.751241 -121.1 0.658476 -61.63
9.06590000 0.660454 -0.833 0.750064 -121.2 0.750064 -121.2 0.659806 -61.81
9.06595000 0.661795 -0.879 0.748875 -121.3 0.748875 -121.3 0.661144 -61.99
9.06600000 0.663144 -0.925 0.747675 -121.5 0.747675 -121.5 0.662490 -62.17
9.06605000 0.664501 -0.972 0.746463 -121.6 0.746463 -121.6 0.663843 -62.35
9.06610000 0.665866 -1.019 0.745240 -121.7 0.745240 -121.7 0.665205 -62.53
9.06615000 0.667239 -1.067 0.744005 -121.8 0.744005 -121.8 0.666574 -62.72
9.06620000 0.668620 -1.115 0.742758 -121.9 0.742758 -121.9 0.667952 -62.90
9.06625000 0.670009 -1.164 0.741500 -122.0 0.741500 -122.0 0.669337 -63.09
9.06630000 0.671406 -1.214 0.740229 -122.2 0.740229 -122.2 0.670731 -63.27
9.06635000 0.672811 -1.264 0.738946 -122.3 0.738946 -122.3 0.672133 -63.46
9.06640000 0.674224 -1.316 0.737650 -122.4 0.737650 -122.4 0.673543 -63.65
9.06645000 0.675646 -1.367 0.736342 -122.5 0.736342 -122.5 0.674961 -63.84
9.06650000 0.677075 -1.420 0.735021 -122.6 0.735021 -122.6 0.676387 -64.03
9.06655000 0.678514 -1.473 0.733687 -122.8 0.733687 -122.8 0.677822 -64.22
9.06660000 0.679960 -1.526 0.732341 -122.9 0.732341 -122.9 0.679264 -64.42
9.06665000 0.681415 -1.581 0.730980 -123.0 0.730980 -123.0 0.680716 -64.61
9.06670000 0.682878 -1.636 0.729607 -123.1 0.729607 -123.1 0.682175 -64.81
9.06675000 0.684350 -1.692 0.728220 -123.3 0.728220 -123.3 0.683644 -65.00
9.06680000 0.685830 -1.748 0.726819 -123.4 0.726819 -123.4 0.685120 -65.20
9.06685000 0.687319 -1.805 0.725404 -123.5 0.725404 -123.5 0.686605 -65.40
9.06690000 0.688817 -1.863 0.723976 -123.6 0.723976 -123.6 0.688099 -65.60
9.06695000 0.690323 -1.922 0.722533 -123.8 0.722533 -123.8 0.689601 -65.80
9.06700000 0.691837 -1.981 0.721075 -123.9 0.721075 -123.9 0.691112 -66.00
9.06705000 0.693361 -2.041 0.719603 -124.0 0.719603 -124.0 0.692632 -66.21
9.06710000 0.694893 -2.102 0.718116 -124.2 0.718116 -124.2 0.694160 -66.41
9.06715000 0.696434 -2.164 0.716614 -124.3 0.716614 -124.3 0.695697 -66.62
9.06720000 0.697984 -2.227 0.715097 -124.4 0.715097 -124.4 0.697243 -66.83
9.06725000 0.699542 -2.290 0.713565 -124.6 0.713565 -124.6 0.698798 -67.03
9.06730000 0.701110 -2.354 0.712017 -124.7 0.712017 -124.7 0.700362 -67.24
9.06735000 0.702687 -2.419 0.710454 -124.8 0.710454 -124.8 0.701934 -67.46
9.06740000 0.704272 -2.484 0.708874 -125.0 0.708874 -125.0 0.703516 -67.67
9.06745000 0.705866 -2.551 0.707279 -125.1 0.707279 -125.1 0.705106 -67.88
9.06750000 0.707470 -2.618 0.705667 -125.2 0.705667 -125.2 0.706706 -68.10
9.06755000 0.709082 -2.686 0.704038 -125.4 0.704038 -125.4 0.708314 -68.31
9.06760000 0.710704 -2.755 0.702393 -125.5 0.702393 -125.5 0.709932 -68.53
9.06765000 0.712335 -2.825 0.700731 -125.7 0.700731 -125.7 0.711558 -68.75
9.06770000 0.713975 -2.896 0.699051 -125.8 0.699051 -125.8 0.713194 -68.97
9.06775000 0.715624 -2.968 0.697354 -126.0 0.697354 -126.0 0.714839 -69.19
9.06780000 0.717282 -3.040 0.695640 -126.1 0.695640 -126.1 0.716493 -69.41
9.06785000 0.718949 -3.114 0.693908 -126.3 0.693908 -126.3 0.718156 -69.64
9.06790000 0.720626 -3.188 0.692157 -126.4 0.692157 -126.4 0.719828 -69.86
9.06795000 0.722312 -3.263 0.690389 -126.6 0.690389 -126.6 0.721510 -70.09
9.06800000 0.724007 -3.340 0.688601 -126.7 0.688601 -126.7 0.723201 -70.32
9.06805000 0.725712 -3.417 0.686796 -126.9 0.686796 -126.9 0.724901 -70.55
9.06810000 0.727426 -3.495 0.684971 -127.0 0.684971 -127.0 0.726610 -70.78
9.06815000 0.729149 -3.574 0.683127 -127.2 0.683127 -127.2 0.728329 -71.01
9.06820000 0.730882 -3.654 0.681263 -127.3 0.681263 -127.3 0.730057 -71.24
9.06825000 0.732623 -3.735 0.679380 -127.5 0.679380 -127.5 0.731795 -71.48
9.06830000 0.734375 -3.817 0.677476 -127.6 0.677476 -127.6 0.733542 -71.72
9.06835000 0.736136 -3.900 0.675553 -127.8 0.675553 -127.8 0.735298 -71.96
9.06840000 0.737906 -3.984 0.673609 -128.0 0.673609 -128.0 0.737063 -72.20
9.06845000 0.739685 -4.069 0.671644 -128.1 0.671644 -128.1 0.738838 -72.44
9.06850000 0.741474 -4.155 0.669658 -128.3 0.669658 -128.3 0.740622 -72.68
9.06855000 0.743272 -4.243 0.667651 -128.5 0.667651 -128.5 0.742416 -72.92
9.06860000 0.745080 -4.331 0.665622 -128.6 0.665622 -128.6 0.744219 -73.17
9.06865000 0.746897 -4.420 0.663572 -128.8 0.663572 -128.8 0.746031 -73.42
9.06870000 0.748724 -4.511 0.661499 -129.0 0.661499 -129.0 0.747853 -73.67
9.06875000 0.750560 -4.602 0.659405 -129.1 0.659405 -129.1 0.749684 -73.92
9.06880000 0.752405 -4.695 0.657287 -129.3 0.657287 -129.3 0.751525 -74.17
9.06885000 0.754260 -4.789 0.655147 -129.5 0.655147 -129.5 0.753375 -74.42
9.06890000 0.756124 -4.884 0.652983 -129.6 0.652983 -129.6 0.755234 -74.68
9.06895000 0.757997 -4.980 0.650796 -129.8 0.650796 -129.8 0.757102 -74.94
9.06900000 0.759880 -5.077 0.648584 -130.0 0.648584 -130.0 0.758980 -75.20
9.06905000 0.761772 -5.176 0.646349 -130.2 0.646349 -130.2 0.760867 -75.46
9.06910000 0.763673 -5.275 0.644090 -130.4 0.644090 -130.4 0.762763 -75.72
9.06915000 0.765584 -5.376 0.641805 -130.5 0.641805 -130.5 0.764669 -75.98
9.06920000 0.767504 -5.478 0.639496 -130.7 0.639496 -130.7 0.766583 -76.25
9.06925000 0.769433 -5.582 0.637161 -130.9 0.637161 -130.9 0.768507 -76.52
9.06930000 0.771371 -5.686 0.634801 -131.1 0.634801 -131.1 0.770440 -76.79
9.06935000 0.773318 -5.792 0.632414 -131.3 0.632414 -131.3 0.772382 -77.06
9.06940000 0.775274 -5.899 0.630001 -131.5 0.630001 -131.5 0.774333 -77.33
9.06945000 0.777239 -6.007 0.627562 -131.7 0.627562 -131.7 0.776293 -77.61
9.06950000 0.779214 -6.117 0.625096 -131.8 0.625096 -131.8 0.778262 -77.88
9.06955000 0.781197 -6.228 0.622602 -132.0 0.622602 -132.0 0.780239 -78.16
9.06960000 0.783189 -6.341 0.620081 -132.2 0.620081 -132.2 0.782226 -78.44