! Sonnet Data File
! From: emgraph Version : 16.52
! From Project: Resonator2_cp
! Data is De-embedded 
! Data File Written: 10/07/2017 00:08:07
!< HDATE 10/06/2017 20:18:08
!< MDATE 10/06/2017 20:18:08
!< PARAMS
!< gap = 6.0
!< Length = 400.0
!< Pwid1 = 2000.0
!< Pwid2 = 2000.0
!< Air_gap = 12.0
!< Width = 20.0
!< END PARAMS
# GHZ S MA R 40.13000
8.80000000 0.054398 -1.384 0.998511 -75.74 0.998511 -75.74 0.054401 29.895
!< P1 F=8.8 Eeff=(5.24625567 -2.3027e-5) Z0=(40.1432274 8.93341e-5) R=0.0 C=0.0 
!< P2 F=8.8 Eeff=(5.24625567 -2.3027e-5) Z0=(40.1432274 8.93341e-5) R=0.0 C=0.0 
8.80020000 0.054446 -1.400 0.998509 -75.75 0.998509 -75.75 0.054450 29.902
8.80040000 0.054495 -1.417 0.998506 -75.75 0.998506 -75.75 0.054498 29.909
8.80060000 0.054543 -1.433 0.998503 -75.76 0.998503 -75.76 0.054547 29.916
8.80080000 0.054592 -1.449 0.998501 -75.76 0.998501 -75.76 0.054596 29.923
8.80100000 0.054641 -1.465 0.998498 -75.76 0.998498 -75.76 0.054645 29.930
8.80120000 0.054691 -1.482 0.998495 -75.77 0.998495 -75.77 0.054694 29.938
8.80140000 0.054741 -1.498 0.998493 -75.77 0.998493 -75.77 0.054744 29.945
8.80160000 0.054790 -1.515 0.998490 -75.78 0.998490 -75.78 0.054794 29.952
8.80180000 0.054841 -1.531 0.998487 -75.78 0.998487 -75.78 0.054844 29.959
8.80200000 0.054891 -1.548 0.998484 -75.79 0.998484 -75.79 0.054895 29.966
8.80220000 0.054942 -1.564 0.998481 -75.79 0.998481 -75.79 0.054945 29.973
8.80240000 0.054993 -1.581 0.998479 -75.80 0.998479 -75.80 0.054996 29.981
8.80260000 0.055044 -1.598 0.998476 -75.80 0.998476 -75.80 0.055047 29.988
8.80280000 0.055095 -1.615 0.998473 -75.81 0.998473 -75.81 0.055099 29.995
8.80300000 0.055147 -1.631 0.998470 -75.81 0.998470 -75.81 0.055151 30.003
8.80320000 0.055199 -1.648 0.998467 -75.82 0.998467 -75.82 0.055203 30.010
8.80340000 0.055251 -1.665 0.998464 -75.82 0.998464 -75.82 0.055255 30.017
8.80360000 0.055304 -1.682 0.998461 -75.83 0.998461 -75.83 0.055308 30.025
8.80380000 0.055357 -1.699 0.998458 -75.83 0.998458 -75.83 0.055360 30.032
8.80400000 0.055410 -1.717 0.998455 -75.83 0.998455 -75.83 0.055414 30.040
8.80420000 0.055463 -1.734 0.998452 -75.84 0.998452 -75.84 0.055467 30.047
8.80440000 0.055517 -1.751 0.998449 -75.84 0.998449 -75.84 0.055521 30.055
8.80460000 0.055571 -1.768 0.998446 -75.85 0.998446 -75.85 0.055575 30.062
8.80480000 0.055625 -1.786 0.998443 -75.85 0.998443 -75.85 0.055629 30.070
8.80500000 0.055680 -1.803 0.998440 -75.86 0.998440 -75.86 0.055683 30.077
8.80520000 0.055734 -1.821 0.998437 -75.86 0.998437 -75.86 0.055738 30.085
8.80540000 0.055789 -1.838 0.998434 -75.87 0.998434 -75.87 0.055793 30.092
8.80560000 0.055845 -1.856 0.998431 -75.87 0.998431 -75.87 0.055849 30.100
8.80580000 0.055900 -1.873 0.998428 -75.88 0.998428 -75.88 0.055904 30.108
8.80600000 0.055956 -1.891 0.998424 -75.88 0.998424 -75.88 0.055960 30.115
8.80620000 0.056013 -1.909 0.998421 -75.89 0.998421 -75.89 0.056016 30.123
8.80640000 0.056069 -1.927 0.998418 -75.89 0.998418 -75.89 0.056073 30.131
8.80660000 0.056126 -1.945 0.998415 -75.90 0.998415 -75.90 0.056130 30.139
8.80680000 0.056183 -1.963 0.998412 -75.90 0.998412 -75.90 0.056187 30.146
8.80700000 0.056241 -1.981 0.998408 -75.91 0.998408 -75.91 0.056245 30.154
8.80720000 0.056299 -1.999 0.998405 -75.91 0.998405 -75.91 0.056302 30.162
8.80740000 0.056357 -2.017 0.998402 -75.92 0.998402 -75.92 0.056361 30.170
8.80760000 0.056415 -2.035 0.998398 -75.92 0.998398 -75.92 0.056419 30.178
8.80780000 0.056474 -2.053 0.998395 -75.93 0.998395 -75.93 0.056478 30.186
8.80800000 0.056533 -2.072 0.998392 -75.93 0.998392 -75.93 0.056537 30.193
8.80820000 0.056592 -2.090 0.998388 -75.94 0.998388 -75.94 0.056596 30.201
8.80840000 0.056652 -2.108 0.998385 -75.95 0.998385 -75.95 0.056656 30.209
8.80860000 0.056712 -2.127 0.998381 -75.95 0.998381 -75.95 0.056716 30.217
8.80880000 0.056773 -2.145 0.998378 -75.96 0.998378 -75.96 0.056777 30.225
8.80900000 0.056833 -2.164 0.998374 -75.96 0.998374 -75.96 0.056837 30.234
8.80920000 0.056894 -2.183 0.998371 -75.97 0.998371 -75.97 0.056898 30.242
8.80940000 0.056956 -2.202 0.998367 -75.97 0.998367 -75.97 0.056960 30.250
8.80960000 0.057018 -2.220 0.998364 -75.98 0.998364 -75.98 0.057022 30.258
8.80980000 0.057080 -2.239 0.998360 -75.98 0.998360 -75.98 0.057084 30.266
8.81000000 0.057142 -2.258 0.998357 -75.99 0.998357 -75.99 0.057146 30.274
8.81020000 0.057205 -2.277 0.998353 -75.99 0.998353 -75.99 0.057209 30.282
8.81040000 0.057268 -2.296 0.998349 -76.00 0.998349 -76.00 0.057272 30.291
8.81060000 0.057332 -2.316 0.998346 -76.00 0.998346 -76.00 0.057336 30.299
8.81080000 0.057396 -2.335 0.998342 -76.01 0.998342 -76.01 0.057400 30.307
8.81100000 0.057460 -2.354 0.998338 -76.01 0.998338 -76.01 0.057464 30.315
8.81120000 0.057525 -2.374 0.998334 -76.02 0.998334 -76.02 0.057529 30.324
8.81140000 0.057590 -2.393 0.998331 -76.03 0.998331 -76.03 0.057594 30.332
8.81160000 0.057655 -2.413 0.998327 -76.03 0.998327 -76.03 0.057659 30.341
8.81180000 0.057721 -2.432 0.998323 -76.04 0.998323 -76.04 0.057725 30.349
8.81200000 0.057787 -2.452 0.998319 -76.04 0.998319 -76.04 0.057791 30.357
8.81220000 0.057853 -2.472 0.998315 -76.05 0.998315 -76.05 0.057858 30.366
8.81240000 0.057920 -2.491 0.998311 -76.05 0.998311 -76.05 0.057924 30.374
8.81260000 0.057988 -2.511 0.998307 -76.06 0.998307 -76.06 0.057992 30.383
8.81280000 0.058055 -2.531 0.998303 -76.07 0.998303 -76.07 0.058060 30.391
8.81300000 0.058123 -2.551 0.998299 -76.07 0.998299 -76.07 0.058128 30.400
8.81320000 0.058192 -2.571 0.998295 -76.08 0.998295 -76.08 0.058196 30.409
8.81340000 0.058261 -2.592 0.998291 -76.08 0.998291 -76.08 0.058265 30.417
8.81360000 0.058330 -2.612 0.998287 -76.09 0.998287 -76.09 0.058334 30.426
8.81380000 0.058400 -2.632 0.998283 -76.09 0.998283 -76.09 0.058404 30.435
8.81400000 0.058470 -2.653 0.998279 -76.10 0.998279 -76.10 0.058474 30.443
8.81420000 0.058541 -2.673 0.998275 -76.11 0.998275 -76.11 0.058545 30.452
8.81440000 0.058612 -2.694 0.998270 -76.11 0.998270 -76.11 0.058616 30.461
8.81460000 0.058683 -2.714 0.998266 -76.12 0.998266 -76.12 0.058688 30.470
8.81480000 0.058755 -2.735 0.998262 -76.12 0.998262 -76.12 0.058759 30.478
8.81500000 0.058827 -2.756 0.998258 -76.13 0.998258 -76.13 0.058832 30.487
8.81520000 0.058900 -2.777 0.998253 -76.13 0.998253 -76.13 0.058905 30.496
8.81540000 0.058973 -2.798 0.998249 -76.14 0.998249 -76.14 0.058978 30.505
8.81560000 0.059047 -2.819 0.998245 -76.15 0.998245 -76.15 0.059051 30.514
8.81580000 0.059121 -2.840 0.998240 -76.15 0.998240 -76.15 0.059126 30.523
8.81600000 0.059196 -2.861 0.998236 -76.16 0.998236 -76.16 0.059200 30.532
8.81620000 0.059271 -2.882 0.998231 -76.17 0.998231 -76.17 0.059275 30.541
8.81640000 0.059346 -2.904 0.998227 -76.17 0.998227 -76.17 0.059351 30.550
8.81660000 0.059422 -2.925 0.998222 -76.18 0.998222 -76.18 0.059427 30.559
8.81680000 0.059499 -2.947 0.998217 -76.18 0.998217 -76.18 0.059503 30.568
8.81700000 0.059576 -2.968 0.998213 -76.19 0.998213 -76.19 0.059580 30.577
8.81720000 0.059653 -2.990 0.998208 -76.20 0.998208 -76.20 0.059658 30.586
8.81740000 0.059731 -3.012 0.998203 -76.20 0.998203 -76.20 0.059736 30.596
8.81760000 0.059809 -3.034 0.998199 -76.21 0.998199 -76.21 0.059814 30.605
8.81780000 0.059888 -3.056 0.998194 -76.21 0.998194 -76.21 0.059893 30.614
8.81800000 0.059968 -3.078 0.998189 -76.22 0.998189 -76.22 0.059972 30.623
8.81820000 0.060048 -3.100 0.998184 -76.23 0.998184 -76.23 0.060052 30.633
8.81840000 0.060128 -3.122 0.998179 -76.23 0.998179 -76.23 0.060133 30.642
8.81860000 0.060209 -3.144 0.998174 -76.24 0.998174 -76.24 0.060214 30.651
8.81880000 0.060290 -3.167 0.998169 -76.25 0.998169 -76.25 0.060295 30.661
8.81900000 0.060372 -3.189 0.998164 -76.25 0.998164 -76.25 0.060377 30.670
8.81920000 0.060455 -3.212 0.998159 -76.26 0.998159 -76.26 0.060460 30.679
8.81940000 0.060538 -3.235 0.998154 -76.27 0.998154 -76.27 0.060543 30.689
8.81960000 0.060622 -3.257 0.998149 -76.27 0.998149 -76.27 0.060626 30.698
8.81980000 0.060706 -3.280 0.998144 -76.28 0.998144 -76.28 0.060711 30.708
8.82000000 0.060791 -3.303 0.998139 -76.29 0.998139 -76.29 0.060795 30.717
8.82020000 0.060876 -3.326 0.998133 -76.29 0.998133 -76.29 0.060881 30.727
8.82040000 0.060962 -3.349 0.998128 -76.30 0.998128 -76.30 0.060967 30.737
8.82060000 0.061048 -3.373 0.998123 -76.31 0.998123 -76.31 0.061053 30.746
8.82080000 0.061135 -3.396 0.998117 -76.31 0.998117 -76.31 0.061140 30.756
8.82100000 0.061223 -3.419 0.998112 -76.32 0.998112 -76.32 0.061228 30.766
8.82120000 0.061311 -3.443 0.998107 -76.33 0.998107 -76.33 0.061316 30.775
8.82140000 0.061400 -3.466 0.998101 -76.33 0.998101 -76.33 0.061405 30.785
8.82160000 0.061489 -3.490 0.998095 -76.34 0.998095 -76.34 0.061494 30.795
8.82180000 0.061579 -3.514 0.998090 -76.35 0.998090 -76.35 0.061584 30.805
8.82200000 0.061670 -3.538 0.998084 -76.35 0.998084 -76.35 0.061675 30.814
8.82220000 0.061761 -3.562 0.998078 -76.36 0.998078 -76.36 0.061766 30.824
8.82240000 0.061853 -3.586 0.998073 -76.37 0.998073 -76.37 0.061858 30.834
8.82260000 0.061945 -3.610 0.998067 -76.38 0.998067 -76.38 0.061950 30.844
8.82280000 0.062038 -3.635 0.998061 -76.38 0.998061 -76.38 0.062044 30.854
8.82300000 0.062132 -3.659 0.998055 -76.39 0.998055 -76.39 0.062137 30.864
8.82320000 0.062227 -3.684 0.998049 -76.40 0.998049 -76.40 0.062232 30.874
8.82340000 0.062322 -3.708 0.998043 -76.41 0.998043 -76.41 0.062327 30.884
8.82360000 0.062418 -3.733 0.998037 -76.41 0.998037 -76.41 0.062423 30.894
8.82380000 0.062514 -3.758 0.998031 -76.42 0.998031 -76.42 0.062519 30.904
8.82400000 0.062611 -3.783 0.998025 -76.43 0.998025 -76.43 0.062616 30.914
8.82420000 0.062709 -3.808 0.998019 -76.43 0.998019 -76.43 0.062714 30.924
8.82440000 0.062807 -3.833 0.998012 -76.44 0.998012 -76.44 0.062813 30.935
8.82460000 0.062907 -3.859 0.998006 -76.45 0.998006 -76.45 0.062912 30.945
8.82480000 0.063007 -3.884 0.998000 -76.46 0.998000 -76.46 0.063012 30.955
8.82500000 0.063107 -3.910 0.997993 -76.46 0.997993 -76.46 0.063112 30.965
8.82520000 0.063209 -3.935 0.997987 -76.47 0.997987 -76.47 0.063214 30.976
8.82540000 0.063311 -3.961 0.997980 -76.48 0.997980 -76.48 0.063316 30.986
8.82560000 0.063413 -3.987 0.997974 -76.49 0.997974 -76.49 0.063419 30.996
8.82580000 0.063517 -4.013 0.997967 -76.50 0.997967 -76.50 0.063522 31.007
8.82600000 0.063621 -4.039 0.997960 -76.50 0.997960 -76.50 0.063627 31.017
8.82620000 0.063727 -4.065 0.997953 -76.51 0.997953 -76.51 0.063732 31.027
8.82640000 0.063832 -4.091 0.997947 -76.52 0.997947 -76.52 0.063838 31.038
8.82660000 0.063939 -4.118 0.997940 -76.53 0.997940 -76.53 0.063945 31.048
8.82680000 0.064047 -4.145 0.997933 -76.53 0.997933 -76.53 0.064052 31.059
8.82700000 0.064155 -4.171 0.997926 -76.54 0.997926 -76.54 0.064160 31.069
8.82720000 0.064264 -4.198 0.997919 -76.55 0.997919 -76.55 0.064270 31.080
8.82740000 0.064374 -4.225 0.997911 -76.56 0.997911 -76.56 0.064380 31.091
8.82760000 0.064485 -4.252 0.997904 -76.57 0.997904 -76.57 0.064490 31.101
8.82780000 0.064596 -4.279 0.997897 -76.58 0.997897 -76.58 0.064602 31.112
8.82800000 0.064709 -4.307 0.997889 -76.58 0.997889 -76.58 0.064714 31.122
8.82820000 0.064822 -4.334 0.997882 -76.59 0.997882 -76.59 0.064828 31.133
8.82840000 0.064936 -4.362 0.997874 -76.60 0.997874 -76.60 0.064942 31.144
8.82860000 0.065051 -4.389 0.997867 -76.61 0.997867 -76.61 0.065057 31.155
8.82880000 0.065167 -4.417 0.997859 -76.62 0.997859 -76.62 0.065173 31.165
8.82900000 0.065284 -4.445 0.997851 -76.63 0.997851 -76.63 0.065290 31.176
8.82920000 0.065402 -4.473 0.997844 -76.63 0.997844 -76.63 0.065408 31.187
8.82940000 0.065520 -4.502 0.997836 -76.64 0.997836 -76.64 0.065526 31.198
8.82960000 0.065640 -4.530 0.997828 -76.65 0.997828 -76.65 0.065646 31.209
8.82980000 0.065761 -4.559 0.997820 -76.66 0.997820 -76.66 0.065767 31.220
8.83000000 0.065882 -4.587 0.997812 -76.67 0.997812 -76.67 0.065888 31.231
8.83020000 0.066005 -4.616 0.997803 -76.68 0.997803 -76.68 0.066011 31.242
8.83040000 0.066128 -4.645 0.997795 -76.69 0.997795 -76.69 0.066134 31.253
8.83060000 0.066253 -4.674 0.997787 -76.70 0.997787 -76.70 0.066259 31.264
8.83080000 0.066378 -4.703 0.997778 -76.70 0.997778 -76.70 0.066384 31.275
8.83100000 0.066504 -4.733 0.997770 -76.71 0.997770 -76.71 0.066511 31.286
8.83120000 0.066632 -4.762 0.997761 -76.72 0.997761 -76.72 0.066638 31.297
8.83140000 0.066760 -4.792 0.997753 -76.73 0.997753 -76.73 0.066767 31.308
8.83160000 0.066890 -4.822 0.997744 -76.74 0.997744 -76.74 0.066896 31.319
8.83180000 0.067021 -4.852 0.997735 -76.75 0.997735 -76.75 0.067027 31.330
8.83200000 0.067152 -4.882 0.997726 -76.76 0.997726 -76.76 0.067159 31.341
8.83220000 0.067285 -4.912 0.997717 -76.77 0.997717 -76.77 0.067291 31.353
8.83240000 0.067419 -4.943 0.997708 -76.78 0.997708 -76.78 0.067425 31.364
8.83260000 0.067554 -4.973 0.997698 -76.79 0.997698 -76.79 0.067560 31.375
8.83280000 0.067690 -5.004 0.997689 -76.80 0.997689 -76.80 0.067697 31.386
8.83300000 0.067828 -5.035 0.997680 -76.81 0.997680 -76.81 0.067834 31.398
8.83320000 0.067966 -5.066 0.997670 -76.82 0.997670 -76.82 0.067972 31.409
8.83340000 0.068106 -5.097 0.997660 -76.83 0.997660 -76.83 0.068112 31.420
8.83360000 0.068246 -5.128 0.997651 -76.84 0.997651 -76.84 0.068253 31.432
8.83380000 0.068389 -5.160 0.997641 -76.85 0.997641 -76.85 0.068395 31.443
8.83400000 0.068532 -5.192 0.997631 -76.86 0.997631 -76.86 0.068538 31.455
8.83420000 0.068676 -5.224 0.997621 -76.87 0.997621 -76.87 0.068683 31.466
8.83440000 0.068822 -5.256 0.997611 -76.88 0.997611 -76.88 0.068829 31.478
8.83460000 0.068969 -5.288 0.997600 -76.89 0.997600 -76.89 0.068976 31.489
8.83480000 0.069117 -5.320 0.997590 -76.90 0.997590 -76.90 0.069124 31.501
8.83500000 0.069267 -5.353 0.997579 -76.91 0.997579 -76.91 0.069274 31.512
8.83520000 0.069418 -5.386 0.997569 -76.92 0.997569 -76.92 0.069425 31.524
8.83540000 0.069570 -5.418 0.997558 -76.93 0.997558 -76.93 0.069577 31.535
8.83560000 0.069724 -5.452 0.997547 -76.94 0.997547 -76.94 0.069731 31.547
8.83580000 0.069879 -5.485 0.997536 -76.95 0.997536 -76.95 0.069886 31.558
8.83600000 0.070035 -5.518 0.997525 -76.96 0.997525 -76.96 0.070042 31.570
8.83620000 0.070193 -5.552 0.997514 -76.97 0.997514 -76.97 0.070200 31.582
8.83640000 0.070352 -5.586 0.997502 -76.98 0.997502 -76.98 0.070359 31.593
8.83660000 0.070513 -5.620 0.997491 -77.00 0.997491 -77.00 0.070520 31.605
8.83680000 0.070675 -5.654 0.997479 -77.01 0.997479 -77.01 0.070682 31.617
8.83700000 0.070839 -5.688 0.997468 -77.02 0.997468 -77.02 0.070846 31.628
8.83720000 0.071004 -5.723 0.997456 -77.03 0.997456 -77.03 0.071011 31.640
8.83740000 0.071171 -5.758 0.997444 -77.04 0.997444 -77.04 0.071178 31.652
8.83760000 0.071339 -5.793 0.997431 -77.05 0.997431 -77.05 0.071346 31.664
8.83780000 0.071509 -5.828 0.997419 -77.06 0.997419 -77.06 0.071516 31.675
8.83800000 0.071680 -5.863 0.997407 -77.08 0.997407 -77.08 0.071688 31.687
8.83820000 0.071853 -5.899 0.997394 -77.09 0.997394 -77.09 0.071861 31.699
8.83840000 0.072028 -5.934 0.997381 -77.10 0.997381 -77.10 0.072035 31.711
8.83860000 0.072204 -5.970 0.997368 -77.11 0.997368 -77.11 0.072212 31.723
8.83880000 0.072382 -6.007 0.997355 -77.12 0.997355 -77.12 0.072390 31.734
8.83900000 0.072562 -6.043 0.997342 -77.14 0.997342 -77.14 0.072570 31.746
8.83920000 0.072744 -6.080 0.997329 -77.15 0.997329 -77.15 0.072751 31.758
8.83940000 0.072927 -6.116 0.997315 -77.16 0.997315 -77.16 0.072935 31.770
8.83960000 0.073112 -6.153 0.997301 -77.17 0.997301 -77.17 0.073120 31.782
8.83980000 0.073299 -6.191 0.997287 -77.18 0.997287 -77.18 0.073307 31.794
8.84000000 0.073488 -6.228 0.997273 -77.20 0.997273 -77.20 0.073495 31.806
8.84020000 0.073678 -6.266 0.997259 -77.21 0.997259 -77.21 0.073686 31.817
8.84040000 0.073871 -6.304 0.997245 -77.22 0.997245 -77.22 0.073879 31.829
8.84060000 0.074065 -6.342 0.997230 -77.24 0.997230 -77.24 0.074073 31.841
8.84080000 0.074261 -6.380 0.997215 -77.25 0.997215 -77.25 0.074270 31.853
8.84100000 0.074460 -6.419 0.997200 -77.26 0.997200 -77.26 0.074468 31.865
8.84120000 0.074660 -6.458 0.997185 -77.28 0.997185 -77.28 0.074668 31.877
8.84140000 0.074863 -6.497 0.997170 -77.29 0.997170 -77.29 0.074871 31.889
8.84160000 0.075067 -6.536 0.997154 -77.30 0.997154 -77.30 0.075075 31.901
8.84180000 0.075274 -6.576 0.997138 -77.32 0.997138 -77.32 0.075282 31.913
8.84200000 0.075483 -6.616 0.997122 -77.33 0.997122 -77.33 0.075491 31.924
8.84220000 0.075694 -6.656 0.997106 -77.34 0.997106 -77.34 0.075702 31.936
8.84240000 0.075907 -6.696 0.997089 -77.36 0.997089 -77.36 0.075915 31.948
8.84260000 0.076122 -6.737 0.997073 -77.37 0.997073 -77.37 0.076131 31.960
8.84280000 0.076340 -6.778 0.997056 -77.39 0.997056 -77.39 0.076349 31.972
8.84300000 0.076560 -6.819 0.997039 -77.40 0.997039 -77.40 0.076569 31.984
8.84320000 0.076782 -6.860 0.997021 -77.42 0.997021 -77.42 0.076791 31.996
8.84340000 0.077007 -6.902 0.997004 -77.43 0.997004 -77.43 0.077016 32.008
8.84360000 0.077234 -6.944 0.996986 -77.45 0.996986 -77.45 0.077243 32.019
8.84380000 0.077464 -6.986 0.996968 -77.46 0.996968 -77.46 0.077473 32.031
8.84400000 0.077696 -7.029 0.996950 -77.48 0.996950 -77.48 0.077705 32.043
8.84420000 0.077931 -7.072 0.996931 -77.49 0.996931 -77.49 0.077940 32.055
8.84440000 0.078168 -7.115 0.996912 -77.51 0.996912 -77.51 0.078177 32.067
8.84460000 0.078408 -7.158 0.996893 -77.52 0.996893 -77.52 0.078418 32.078
8.84480000 0.078651 -7.202 0.996874 -77.54 0.996874 -77.54 0.078660 32.090
8.84500000 0.078896 -7.246 0.996854 -77.55 0.996854 -77.55 0.078906 32.102
8.84520000 0.079145 -7.290 0.996834 -77.57 0.996834 -77.57 0.079154 32.113
8.84540000 0.079396 -7.334 0.996814 -77.59 0.996814 -77.59 0.079405 32.125
8.84560000 0.079650 -7.379 0.996793 -77.60 0.996793 -77.60 0.079659 32.137
8.84580000 0.079906 -7.425 0.996772 -77.62 0.996772 -77.62 0.079916 32.148
8.84600000 0.080166 -7.470 0.996751 -77.64 0.996751 -77.64 0.080176 32.160
8.84620000 0.080429 -7.516 0.996730 -77.65 0.996730 -77.65 0.080439 32.171
8.84640000 0.080695 -7.562 0.996708 -77.67 0.996708 -77.67 0.080705 32.183
8.84660000 0.080964 -7.608 0.996686 -77.69 0.996686 -77.69 0.080974 32.194
8.84680000 0.081236 -7.655 0.996663 -77.71 0.996663 -77.71 0.081246 32.206
8.84700000 0.081512 -7.702 0.996640 -77.72 0.996640 -77.72 0.081522 32.217
8.84720000 0.081790 -7.750 0.996617 -77.74 0.996617 -77.74 0.081801 32.228
8.84740000 0.082073 -7.798 0.996594 -77.76 0.996594 -77.76 0.082083 32.240
8.84760000 0.082358 -7.846 0.996570 -77.78 0.996570 -77.78 0.082368 32.251
8.84780000 0.082647 -7.894 0.996545 -77.80 0.996545 -77.80 0.082657 32.262
8.84800000 0.082940 -7.943 0.996521 -77.82 0.996521 -77.82 0.082950 32.273
8.84820000 0.083236 -7.993 0.996496 -77.83 0.996496 -77.83 0.083246 32.284
8.84840000 0.083536 -8.042 0.996470 -77.85 0.996470 -77.85 0.083546 32.295
8.84860000 0.083840 -8.092 0.996444 -77.87 0.996444 -77.87 0.083850 32.306
8.84880000 0.084147 -8.143 0.996418 -77.89 0.996418 -77.89 0.084158 32.317
8.84900000 0.084458 -8.194 0.996391 -77.91 0.996391 -77.91 0.084469 32.328
8.84920000 0.084774 -8.245 0.996364 -77.93 0.996364 -77.93 0.084785 32.339
8.84940000 0.085093 -8.296 0.996336 -77.95 0.996336 -77.95 0.085104 32.349
8.84960000 0.085417 -8.348 0.996308 -77.97 0.996308 -77.97 0.085428 32.360
8.84980000 0.085744 -8.401 0.996280 -77.99 0.996280 -77.99 0.085756 32.370
8.85000000 0.086076 -8.453 0.996250 -78.01 0.996250 -78.01 0.086088 32.381
8.85020000 0.086413 -8.507 0.996221 -78.04 0.996221 -78.04 0.086424 32.391
8.85030339 0.086588 -8.534 0.996205 -78.05 0.996205 -78.05 0.086600 32.396
8.85040000 0.086754 -8.560 0.996191 -78.06 0.996191 -78.06 0.086765 32.401
8.85060000 0.087099 -8.615 0.996160 -78.08 0.996160 -78.08 0.087110 32.411
8.85080000 0.087449 -8.669 0.996129 -78.10 0.996129 -78.10 0.087461 32.421
8.85099066 0.087787 -8.721 0.996099 -78.12 0.996099 -78.12 0.087799 32.431
8.85100000 0.087804 -8.724 0.996097 -78.12 0.996097 -78.12 0.087815 32.431
8.85120000 0.088163 -8.780 0.996065 -78.15 0.996065 -78.15 0.088175 32.441
8.85140000 0.088528 -8.835 0.996032 -78.17 0.996032 -78.17 0.088540 32.451
8.85160000 0.088897 -8.892 0.995999 -78.19 0.995999 -78.19 0.088909 32.460
8.85166218 0.089013 -8.909 0.995988 -78.20 0.995988 -78.20 0.089025 32.463
8.85180000 0.089272 -8.949 0.995965 -78.22 0.995965 -78.22 0.089284 32.470
8.85200000 0.089652 -9.006 0.995930 -78.24 0.995930 -78.24 0.089664 32.479
8.85220000 0.090037 -9.064 0.995895 -78.26 0.995895 -78.26 0.090050 32.488
8.85231832 0.090268 -9.098 0.995873 -78.28 0.995873 -78.28 0.090280 32.494
8.85240000 0.090428 -9.122 0.995859 -78.29 0.995859 -78.29 0.090440 32.498
8.85260000 0.090824 -9.181 0.995822 -78.31 0.995822 -78.31 0.090837 32.506
8.85280000 0.091226 -9.241 0.995785 -78.34 0.995785 -78.34 0.091239 32.515
8.85295942 0.091551 -9.288 0.995754 -78.36 0.995754 -78.36 0.091564 32.522
8.85300000 0.091634 -9.300 0.995747 -78.36 0.995747 -78.36 0.091647 32.524
8.85320000 0.092048 -9.361 0.995708 -78.39 0.995708 -78.39 0.092061 32.532
8.85340000 0.092468 -9.422 0.995668 -78.41 0.995668 -78.41 0.092481 32.541
8.85358583 0.092864 -9.479 0.995631 -78.44 0.995631 -78.44 0.092877 32.548
8.85360000 0.092894 -9.483 0.995628 -78.44 0.995628 -78.44 0.092907 32.549
8.85380000 0.093326 -9.546 0.995587 -78.47 0.995587 -78.47 0.093340 32.557
8.85400000 0.093765 -9.608 0.995545 -78.50 0.995545 -78.50 0.093779 32.564
8.85419789 0.094206 -9.671 0.995503 -78.52 0.995503 -78.52 0.094220 32.572
8.85420000 0.094211 -9.672 0.995502 -78.52 0.995502 -78.52 0.094224 32.572
8.85440000 0.094663 -9.735 0.995458 -78.55 0.995458 -78.55 0.094677 32.579
8.85460000 0.095123 -9.800 0.995414 -78.58 0.995414 -78.58 0.095136 32.587
8.85479593 0.095580 -9.864 0.995369 -78.61 0.995369 -78.61 0.095593 32.593
8.85480000 0.095589 -9.865 0.995368 -78.61 0.995368 -78.61 0.095603 32.593
8.85500000 0.096063 -9.931 0.995322 -78.64 0.995322 -78.64 0.096077 32.600
8.85520000 0.096544 -9.997 0.995275 -78.67 0.995275 -78.67 0.096558 32.607
8.85538026 0.096984 -10.06 0.995231 -78.69 0.995231 -78.69 0.096999 32.612
8.85540000 0.097033 -10.06 0.995226 -78.70 0.995226 -78.70 0.097047 32.613
8.85560000 0.097529 -10.13 0.995177 -78.73 0.995177 -78.73 0.097544 32.619
8.85580000 0.098034 -10.20 0.995127 -78.76 0.995127 -78.76 0.098049 32.625
8.85595120 0.098421 -10.25 0.995088 -78.78 0.995088 -78.78 0.098436 32.629
8.85600000 0.098547 -10.27 0.995075 -78.79 0.995075 -78.79 0.098562 32.630
8.85620000 0.099068 -10.34 0.995022 -78.82 0.995022 -78.82 0.099083 32.635
8.85640000 0.099598 -10.41 0.994969 -78.85 0.994969 -78.85 0.099613 32.640
8.85650906 0.099891 -10.45 0.994939 -78.87 0.994939 -78.87 0.099906 32.643
8.85660000 0.100137 -10.48 0.994914 -78.89 0.994914 -78.89 0.100152 32.645
8.85680000 0.100684 -10.55 0.994857 -78.92 0.994857 -78.92 0.100700 32.649
8.85700000 0.101241 -10.63 0.994800 -78.95 0.994800 -78.95 0.101257 32.653
8.85705413 0.101394 -10.65 0.994784 -78.96 0.994784 -78.96 0.101409 32.654
8.85720000 0.101808 -10.70 0.994741 -78.99 0.994741 -78.99 0.101823 32.657
8.85740000 0.102384 -10.77 0.994681 -79.02 0.994681 -79.02 0.102400 32.660
8.85758672 0.102931 -10.84 0.994623 -79.06 0.994623 -79.06 0.102947 32.663
8.85760000 0.102970 -10.85 0.994619 -79.06 0.994619 -79.06 0.102986 32.663
8.85780000 0.103566 -10.92 0.994556 -79.10 0.994556 -79.10 0.103583 32.665
8.85800000 0.104173 -11.00 0.994492 -79.13 0.994492 -79.13 0.104190 32.668
8.85810710 0.104503 -11.04 0.994457 -79.15 0.994457 -79.15 0.104519 32.669
8.85820000 0.104791 -11.08 0.994426 -79.17 0.994426 -79.17 0.104808 32.669
8.85840000 0.105420 -11.16 0.994358 -79.21 0.994358 -79.21 0.105437 32.671
8.85860000 0.106060 -11.24 0.994289 -79.25 0.994289 -79.25 0.106077 32.672
8.85861556 0.106110 -11.24 0.994283 -79.25 0.994283 -79.25 0.106127 32.672
8.85880000 0.106712 -11.32 0.994218 -79.29 0.994218 -79.29 0.106729 32.672
8.85900000 0.107376 -11.40 0.994145 -79.33 0.994145 -79.33 0.107393 32.672
8.85911237 0.107754 -11.44 0.994103 -79.35 0.994103 -79.35 0.107772 32.672
8.85920000 0.108052 -11.48 0.994070 -79.37 0.994070 -79.37 0.108070 32.672
8.85940000 0.108741 -11.56 0.993994 -79.41 0.993994 -79.41 0.108759 32.671
8.85959779 0.109436 -11.65 0.993916 -79.45 0.993916 -79.45 0.109454 32.669
8.85960000 0.109444 -11.65 0.993915 -79.45 0.993915 -79.45 0.109461 32.669
8.85980000 0.110159 -11.73 0.993835 -79.50 0.993835 -79.50 0.110177 32.667
8.86000000 0.110888 -11.82 0.993752 -79.54 0.993752 -79.54 0.110907 32.665
8.86007210 0.111155 -11.85 0.993722 -79.56 0.993722 -79.56 0.111173 32.663
8.86020000 0.111632 -11.91 0.993667 -79.58 0.993667 -79.58 0.111651 32.661
8.86040000 0.112390 -12.00 0.993580 -79.63 0.993580 -79.63 0.112409 32.658
8.86053553 0.112913 -12.06 0.993520 -79.66 0.993520 -79.66 0.112932 32.655
8.86060000 0.113164 -12.09 0.993491 -79.68 0.993491 -79.68 0.113183 32.653
8.86080000 0.113953 -12.18 0.993399 -79.72 0.993399 -79.72 0.113972 32.648
8.86098834 0.114710 -12.26 0.993310 -79.77 0.993310 -79.77 0.114730 32.643
8.86100000 0.114758 -12.27 0.993305 -79.77 0.993305 -79.77 0.114777 32.642
8.86120000 0.115579 -12.36 0.993208 -79.82 0.993208 -79.82 0.115599 32.636
8.86140000 0.116417 -12.46 0.993108 -79.87 0.993108 -79.87 0.116437 32.629
8.86143078 0.116548 -12.47 0.993092 -79.88 0.993092 -79.88 0.116568 32.628
8.86160000 0.117273 -12.55 0.993005 -79.92 0.993005 -79.92 0.117293 32.621
8.86180000 0.118147 -12.65 0.992900 -79.98 0.992900 -79.98 0.118168 32.612
8.86186308 0.118427 -12.68 0.992866 -79.99 0.992866 -79.99 0.118447 32.609
8.86200000 0.119040 -12.75 0.992791 -80.03 0.992791 -80.03 0.119061 32.602
8.86220000 0.119952 -12.85 0.992679 -80.08 0.992679 -80.08 0.119973 32.592
8.86228548 0.120348 -12.89 0.992631 -80.11 0.992631 -80.11 0.120369 32.587
8.86240000 0.120884 -12.95 0.992564 -80.14 0.992564 -80.14 0.120905 32.581
8.86260000 0.121836 -13.05 0.992445 -80.20 0.992445 -80.20 0.121858 32.569
8.86269820 0.122312 -13.11 0.992386 -80.23 0.992386 -80.23 0.122333 32.562
8.86280000 0.122810 -13.16 0.992323 -80.25 0.992323 -80.25 0.122832 32.555
8.86300000 0.123806 -13.27 0.992197 -80.31 0.992197 -80.31 0.123828 32.541
8.86310145 0.124320 -13.32 0.992132 -80.35 0.992132 -80.35 0.124342 32.534
8.86320000 0.124824 -13.37 0.992067 -80.38 0.992067 -80.38 0.124847 32.526
8.86340000 0.125866 -13.48 0.991933 -80.44 0.991933 -80.44 0.125889 32.510
8.86349547 0.126372 -13.54 0.991867 -80.47 0.991867 -80.47 0.126395 32.501
8.86360000 0.126932 -13.59 0.991794 -80.50 0.991794 -80.50 0.126955 32.492
8.86380000 0.128023 -13.71 0.991651 -80.57 0.991651 -80.57 0.128047 32.473
8.86388047 0.128470 -13.75 0.991592 -80.59 0.991592 -80.59 0.128493 32.466
8.86400000 0.129141 -13.82 0.991504 -80.63 0.991504 -80.63 0.129164 32.454
8.86420000 0.130285 -13.94 0.991351 -80.70 0.991351 -80.70 0.130309 32.432
8.86425663 0.130614 -13.97 0.991307 -80.72 0.991307 -80.72 0.130638 32.426
8.86440000 0.131457 -14.06 0.991193 -80.77 0.991193 -80.77 0.131482 32.410
8.86460000 0.132658 -14.18 0.991030 -80.84 0.991030 -80.84 0.132683 32.386
8.86462418 0.132806 -14.19 0.991010 -80.85 0.991010 -80.85 0.132830 32.383
8.86480000 0.133890 -14.30 0.990861 -80.92 0.990861 -80.92 0.133915 32.361
8.86498331 0.135046 -14.41 0.990701 -80.98 0.990701 -80.98 0.135071 32.336
8.86500000 0.135152 -14.43 0.990686 -80.99 0.990686 -80.99 0.135178 32.334
8.86520000 0.136447 -14.55 0.990505 -81.07 0.990505 -81.07 0.136473 32.305
8.86533421 0.137335 -14.64 0.990380 -81.12 0.990380 -81.12 0.137361 32.285
8.86540000 0.137776 -14.68 0.990318 -81.15 0.990318 -81.15 0.137802 32.275
8.86560000 0.139139 -14.81 0.990123 -81.23 0.990123 -81.23 0.139166 32.243
8.86567707 0.139674 -14.87 0.990046 -81.26 0.990046 -81.26 0.139701 32.231
8.86580000 0.140539 -14.95 0.989922 -81.31 0.989922 -81.31 0.140566 32.210
8.86600000 0.141977 -15.09 0.989712 -81.39 0.989712 -81.39 0.142004 32.174
8.86601207 0.142065 -15.09 0.989699 -81.40 0.989699 -81.40 0.142093 32.172
8.86620000 0.143454 -15.22 0.989495 -81.48 0.989495 -81.48 0.143482 32.136
8.86633940 0.144508 -15.32 0.989339 -81.54 0.989339 -81.54 0.144536 32.109
8.86640000 0.144972 -15.37 0.989269 -81.57 0.989269 -81.57 0.145001 32.097
8.86660000 0.146533 -15.51 0.989035 -81.66 0.989035 -81.66 0.146562 32.055
8.86665922 0.147004 -15.56 0.988963 -81.69 0.988963 -81.69 0.147033 32.042
8.86680000 0.148138 -15.66 0.988790 -81.76 0.988790 -81.76 0.148168 32.011
8.86697172 0.149554 -15.79 0.988573 -81.84 0.988573 -81.84 0.149583 31.971
8.86700000 0.149790 -15.81 0.988537 -81.86 0.988537 -81.86 0.149820 31.964
8.86720000 0.151490 -15.97 0.988272 -81.96 0.988272 -81.96 0.151521 31.915
8.86727706 0.152159 -16.03 0.988167 -82.00 0.988167 -82.00 0.152189 31.895
8.86740000 0.153241 -16.12 0.987997 -82.06 0.987997 -82.06 0.153272 31.863
8.86757540 0.154820 -16.27 0.987745 -82.16 0.987745 -82.16 0.154851 31.816
8.86760000 0.155045 -16.29 0.987709 -82.17 0.987709 -82.17 0.155076 31.809
8.86780000 0.156904 -16.45 0.987410 -82.28 0.987410 -82.28 0.156936 31.751
8.86786690 0.157538 -16.51 0.987306 -82.32 0.987306 -82.32 0.157571 31.732
8.86800000 0.158821 -16.62 0.987097 -82.39 0.987097 -82.39 0.158853 31.691
8.86815173 0.160315 -16.75 0.986850 -82.48 0.986850 -82.48 0.160348 31.643
8.86820000 0.160798 -16.79 0.986770 -82.51 0.986770 -82.51 0.160831 31.627
8.86840000 0.162839 -16.97 0.986428 -82.63 0.986428 -82.63 0.162873 31.560
8.86843003 0.163151 -17.00 0.986376 -82.65 0.986376 -82.65 0.163185 31.550
8.86860000 0.164946 -17.15 0.986071 -82.75 0.986071 -82.75 0.164981 31.489
8.86870195 0.166047 -17.25 0.985882 -82.82 0.985882 -82.82 0.166082 31.452
8.86880000 0.167123 -17.34 0.985696 -82.88 0.985696 -82.88 0.167158 31.415
8.86896764 0.169004 -17.50 0.985369 -82.99 0.985369 -82.99 0.169040 31.349
8.86900000 0.169374 -17.53 0.985304 -83.01 0.985304 -83.01 0.169409 31.336
8.86920000 0.171701 -17.72 0.984892 -83.15 0.984892 -83.15 0.171738 31.254
8.86922724 0.172024 -17.75 0.984835 -83.17 0.984835 -83.17 0.172061 31.242
8.86940000 0.174109 -17.92 0.984461 -83.29 0.984461 -83.29 0.174147 31.167
8.86948090 0.175107 -18.01 0.984280 -83.35 0.984280 -83.35 0.175145 31.130