! Sonnet Data File
! From: emgraph Version : 16.52
! From Project: Resonator2_extremeCap2
! Data is De-embedded 
! Data File Written: 10/10/2017 13:11:38
!< HDATE 10/10/2017 08:28:44
!< MDATE 10/10/2017 08:28:44
!< PARAMS
!< Pwid1 = 2000.0
!< Pwid2 = 2000.0
!< Air_gap = 6.0
!< Width = 10.0
!< Gap = 53.0
!< END PARAMS
# GHZ S MA R 35.98000
8.98000000 0.410240 -9.222 0.911962 -99.28 0.911962 -99.28 0.410222 -9.349
!< P1 F=8.98 Eeff=(5.37116343 -2.3769e-5) Z0=(35.9716001 8.05996e-5) R=0.0 C=0.0 
!< P2 F=8.98 Eeff=(5.37116343 -2.3769e-5) Z0=(35.9716001 8.05996e-5) R=0.0 C=0.0 
8.98050000 0.410485 -9.217 0.911852 -99.31 0.911852 -99.31 0.410467 -9.404
8.98100000 0.410732 -9.212 0.911741 -99.33 0.911741 -99.33 0.410713 -9.459
8.98150000 0.410981 -9.206 0.911628 -99.36 0.911628 -99.36 0.410962 -9.515
8.98200000 0.411232 -9.201 0.911515 -99.38 0.911515 -99.38 0.411214 -9.572
8.98250000 0.411486 -9.195 0.911400 -99.41 0.911400 -99.41 0.411467 -9.628
8.98300000 0.411742 -9.189 0.911284 -99.44 0.911284 -99.44 0.411723 -9.686
8.98350000 0.412000 -9.183 0.911168 -99.46 0.911168 -99.46 0.411981 -9.743
8.98400000 0.412261 -9.177 0.911050 -99.49 0.911050 -99.49 0.412241 -9.802
8.98450000 0.412524 -9.171 0.910930 -99.51 0.910930 -99.51 0.412504 -9.860
8.98500000 0.412789 -9.165 0.910810 -99.54 0.910810 -99.54 0.412769 -9.920
8.98550000 0.413057 -9.159 0.910689 -99.57 0.910689 -99.57 0.413037 -9.980
8.98600000 0.413327 -9.153 0.910566 -99.59 0.910566 -99.59 0.413307 -10.04
8.98650000 0.413600 -9.146 0.910442 -99.62 0.910442 -99.62 0.413580 -10.10
8.98700000 0.413875 -9.140 0.910316 -99.65 0.910316 -99.65 0.413855 -10.16
8.98750000 0.414154 -9.133 0.910190 -99.68 0.910190 -99.68 0.414133 -10.22
8.98800000 0.414434 -9.126 0.910062 -99.70 0.910062 -99.70 0.414413 -10.29
8.98850000 0.414718 -9.120 0.909933 -99.73 0.909933 -99.73 0.414697 -10.35
8.98900000 0.415004 -9.113 0.909802 -99.76 0.909802 -99.76 0.414983 -10.41
8.98950000 0.415293 -9.106 0.909670 -99.79 0.909670 -99.79 0.415271 -10.48
8.99000000 0.415585 -9.099 0.909536 -99.82 0.909536 -99.82 0.415563 -10.54
8.99050000 0.415880 -9.091 0.909402 -99.85 0.909402 -99.85 0.415858 -10.61
8.99100000 0.416177 -9.084 0.909265 -99.88 0.909265 -99.88 0.416155 -10.67
8.99150000 0.416478 -9.076 0.909127 -99.91 0.909127 -99.91 0.416455 -10.74
8.99200000 0.416782 -9.069 0.908988 -99.94 0.908988 -99.94 0.416759 -10.81
8.99250000 0.417089 -9.061 0.908847 -99.97 0.908847 -99.97 0.417066 -10.87
8.99300000 0.417399 -9.053 0.908705 -100.00 0.908705 -100.00 0.417375 -10.94
8.99350000 0.417712 -9.045 0.908561 -100.0 0.908561 -100.0 0.417688 -11.01
8.99400000 0.418028 -9.037 0.908415 -100.1 0.908415 -100.1 0.418004 -11.08
8.99450000 0.418348 -9.029 0.908267 -100.1 0.908267 -100.1 0.418324 -11.15
8.99500000 0.418671 -9.021 0.908118 -100.1 0.908118 -100.1 0.418647 -11.22
8.99550000 0.418998 -9.012 0.907968 -100.2 0.907968 -100.2 0.418973 -11.30
8.99600000 0.419328 -9.004 0.907815 -100.2 0.907815 -100.2 0.419303 -11.37
8.99650000 0.419661 -8.995 0.907661 -100.2 0.907661 -100.2 0.419636 -11.44
8.99700000 0.419999 -8.986 0.907504 -100.2 0.907504 -100.2 0.419973 -11.52
8.99750000 0.420340 -8.978 0.907346 -100.3 0.907346 -100.3 0.420314 -11.59
8.99800000 0.420684 -8.969 0.907186 -100.3 0.907186 -100.3 0.420658 -11.67
8.99850000 0.421033 -8.959 0.907025 -100.3 0.907025 -100.3 0.421007 -11.74
8.99900000 0.421385 -8.950 0.906861 -100.4 0.906861 -100.4 0.421359 -11.82
8.99950000 0.421742 -8.941 0.906695 -100.4 0.906695 -100.4 0.421715 -11.90
9.00000000 0.422102 -8.931 0.906527 -100.5 0.906527 -100.5 0.422075 -11.98
9.00050000 0.422467 -8.922 0.906357 -100.5 0.906357 -100.5 0.422439 -12.05
9.00100000 0.422836 -8.912 0.906185 -100.5 0.906185 -100.5 0.422808 -12.13
9.00150000 0.423209 -8.902 0.906010 -100.6 0.906010 -100.6 0.423180 -12.22
9.00200000 0.423586 -8.892 0.905834 -100.6 0.905834 -100.6 0.423558 -12.30
9.00250000 0.423968 -8.882 0.905655 -100.6 0.905655 -100.6 0.423939 -12.38
9.00300000 0.424354 -8.871 0.905474 -100.7 0.905474 -100.7 0.424325 -12.46
9.00350000 0.424745 -8.861 0.905290 -100.7 0.905290 -100.7 0.424716 -12.55
9.00400000 0.425141 -8.850 0.905104 -100.7 0.905104 -100.7 0.425111 -12.63
9.00450000 0.425542 -8.839 0.904915 -100.8 0.904915 -100.8 0.425511 -12.72
9.00500000 0.425947 -8.828 0.904724 -100.8 0.904724 -100.8 0.425916 -12.81
9.00550000 0.426358 -8.817 0.904531 -100.9 0.904531 -100.9 0.426326 -12.90
9.00600000 0.426773 -8.806 0.904335 -100.9 0.904335 -100.9 0.426742 -12.99
9.00650000 0.427194 -8.795 0.904136 -100.9 0.904136 -100.9 0.427162 -13.08
9.00700000 0.427620 -8.783 0.903934 -101.0 0.903934 -101.0 0.427588 -13.17
9.00750000 0.428051 -8.772 0.903729 -101.0 0.903729 -101.0 0.428019 -13.26
9.00800000 0.428488 -8.760 0.903522 -101.1 0.903522 -101.1 0.428455 -13.35
9.00850000 0.428931 -8.748 0.903312 -101.1 0.903312 -101.1 0.428898 -13.45
9.00900000 0.429380 -8.736 0.903098 -101.1 0.903098 -101.1 0.429346 -13.55
9.00950000 0.429834 -8.723 0.902882 -101.2 0.902882 -101.2 0.429799 -13.64
9.01000000 0.430294 -8.711 0.902662 -101.2 0.902662 -101.2 0.430259 -13.74
9.01050000 0.430761 -8.698 0.902440 -101.3 0.902440 -101.3 0.430725 -13.84
9.01100000 0.431233 -8.686 0.902213 -101.3 0.902213 -101.3 0.431198 -13.94
9.01150000 0.431713 -8.673 0.901984 -101.4 0.901984 -101.4 0.431676 -14.04
9.01200000 0.432198 -8.660 0.901751 -101.4 0.901751 -101.4 0.432161 -14.14
9.01250000 0.432691 -8.646 0.901515 -101.4 0.901515 -101.4 0.432653 -14.25
9.01300000 0.433190 -8.633 0.901274 -101.5 0.901274 -101.5 0.433152 -14.35
9.01350000 0.433696 -8.619 0.901031 -101.5 0.901031 -101.5 0.433658 -14.46
9.01400000 0.434210 -8.606 0.900783 -101.6 0.900783 -101.6 0.434171 -14.57
9.01450000 0.434730 -8.592 0.900531 -101.6 0.900531 -101.6 0.434691 -14.68
9.01500000 0.435258 -8.578 0.900276 -101.7 0.900276 -101.7 0.435218 -14.79
9.01550000 0.435794 -8.563 0.900016 -101.7 0.900016 -101.7 0.435754 -14.90
9.01600000 0.436338 -8.549 0.899752 -101.8 0.899752 -101.8 0.436297 -15.02
9.01650000 0.436890 -8.534 0.899484 -101.8 0.899484 -101.8 0.436848 -15.13
9.01700000 0.437450 -8.520 0.899212 -101.9 0.899212 -101.9 0.437407 -15.25
9.01750000 0.438018 -8.505 0.898935 -101.9 0.898935 -101.9 0.437975 -15.37
9.01800000 0.438595 -8.490 0.898653 -102.0 0.898653 -102.0 0.438551 -15.49
9.01850000 0.439180 -8.474 0.898367 -102.0 0.898367 -102.0 0.439136 -15.61
9.01900000 0.439775 -8.459 0.898075 -102.1 0.898075 -102.1 0.439730 -15.73
9.01950000 0.440379 -8.443 0.897779 -102.1 0.897779 -102.1 0.440333 -15.85
9.02000000 0.440992 -8.427 0.897477 -102.2 0.897477 -102.2 0.440946 -15.98
9.02050000 0.441615 -8.411 0.897170 -102.3 0.897170 -102.3 0.441568 -16.11
9.02100000 0.442248 -8.395 0.896858 -102.3 0.896858 -102.3 0.442201 -16.24
9.02150000 0.442892 -8.379 0.896540 -102.4 0.896540 -102.4 0.442843 -16.37
9.02200000 0.443545 -8.362 0.896216 -102.4 0.896216 -102.4 0.443496 -16.51
9.02250000 0.444209 -8.346 0.895887 -102.5 0.895887 -102.5 0.444160 -16.64
9.02300000 0.444885 -8.329 0.895551 -102.5 0.895551 -102.5 0.444834 -16.78
9.02350000 0.445571 -8.312 0.895209 -102.6 0.895209 -102.6 0.445520 -16.92
9.02400000 0.446270 -8.294 0.894861 -102.7 0.894861 -102.7 0.446217 -17.06
9.02450000 0.446980 -8.277 0.894506 -102.7 0.894506 -102.7 0.446926 -17.20
9.02500000 0.447702 -8.259 0.894144 -102.8 0.894144 -102.8 0.447648 -17.35
9.02550000 0.448436 -8.242 0.893775 -102.9 0.893775 -102.9 0.448382 -17.50
9.02600000 0.449184 -8.224 0.893399 -102.9 0.893399 -102.9 0.449128 -17.65
9.02650000 0.449945 -8.206 0.893015 -103.0 0.893015 -103.0 0.449888 -17.80
9.02700000 0.450719 -8.187 0.892624 -103.1 0.892624 -103.1 0.450661 -17.96
9.02750000 0.451507 -8.169 0.892225 -103.1 0.892225 -103.1 0.451449 -18.11
9.02800000 0.452310 -8.150 0.891818 -103.2 0.891818 -103.2 0.452250 -18.27
9.02850000 0.453127 -8.132 0.891402 -103.3 0.891402 -103.3 0.453067 -18.44
9.02900000 0.453960 -8.113 0.890978 -103.4 0.890978 -103.4 0.453898 -18.60
9.02950000 0.454808 -8.094 0.890544 -103.4 0.890544 -103.4 0.454745 -18.77
9.03000000 0.455672 -8.074 0.890102 -103.5 0.890102 -103.5 0.455608 -18.94
9.03050000 0.456553 -8.055 0.889650 -103.6 0.889650 -103.6 0.456488 -19.11
9.03100000 0.457450 -8.035 0.889188 -103.7 0.889188 -103.7 0.457384 -19.29
9.03150000 0.458365 -8.016 0.888715 -103.7 0.888715 -103.7 0.458298 -19.47
9.03200000 0.459299 -7.996 0.888233 -103.8 0.888233 -103.8 0.459230 -19.65
9.03250000 0.460250 -7.976 0.887739 -103.9 0.887739 -103.9 0.460180 -19.84
9.03300000 0.461221 -7.956 0.887234 -104.0 0.887234 -104.0 0.461150 -20.02
9.03350000 0.462212 -7.936 0.886717 -104.1 0.886717 -104.1 0.462139 -20.22
9.03400000 0.463223 -7.915 0.886189 -104.2 0.886189 -104.2 0.463149 -20.41
9.03450000 0.464255 -7.895 0.885647 -104.2 0.885647 -104.2 0.464179 -20.61
9.03500000 0.465308 -7.875 0.885093 -104.3 0.885093 -104.3 0.465232 -20.81
9.03550000 0.466384 -7.854 0.884526 -104.4 0.884526 -104.4 0.466306 -21.02
9.03600000 0.467483 -7.833 0.883944 -104.5 0.883944 -104.5 0.467404 -21.23
9.03650000 0.468606 -7.813 0.883349 -104.6 0.883349 -104.6 0.468525 -21.44
9.03700000 0.469753 -7.792 0.882738 -104.7 0.882738 -104.7 0.469671 -21.66
9.03750000 0.470926 -7.771 0.882111 -104.8 0.882111 -104.8 0.470842 -21.88
9.03800000 0.472126 -7.750 0.881469 -104.9 0.881469 -104.9 0.472039 -22.11
9.03850000 0.473352 -7.730 0.880810 -105.0 0.880810 -105.0 0.473264 -22.34
9.03900000 0.474606 -7.709 0.880133 -105.1 0.880133 -105.1 0.474517 -22.57
9.03950000 0.475890 -7.688 0.879438 -105.2 0.879438 -105.2 0.475799 -22.81
9.04000000 0.477204 -7.667 0.878724 -105.4 0.878724 -105.4 0.477110 -23.05
9.04050000 0.478549 -7.647 0.877991 -105.5 0.877991 -105.5 0.478453 -23.30
9.04100000 0.479926 -7.626 0.877238 -105.6 0.877238 -105.6 0.479829 -23.56
9.04150000 0.481337 -7.606 0.876463 -105.7 0.876463 -105.7 0.481237 -23.82
9.04200000 0.482782 -7.586 0.875666 -105.8 0.875666 -105.8 0.482680 -24.08
9.04250000 0.484264 -7.566 0.874846 -105.9 0.874846 -105.9 0.484160 -24.35
9.04300000 0.485783 -7.546 0.874001 -106.1 0.874001 -106.1 0.485676 -24.63
9.04350000 0.487340 -7.526 0.873132 -106.2 0.873132 -106.2 0.487231 -24.91
9.04400000 0.488938 -7.507 0.872236 -106.3 0.872236 -106.3 0.488827 -25.20
9.04450000 0.490578 -7.488 0.871313 -106.5 0.871313 -106.5 0.490464 -25.49
9.04500000 0.492261 -7.469 0.870361 -106.6 0.870361 -106.6 0.492144 -25.79
9.04550000 0.493989 -7.451 0.869379 -106.8 0.869379 -106.8 0.493870 -26.10
9.04600000 0.495764 -7.433 0.868366 -106.9 0.868366 -106.9 0.495642 -26.41
9.04650000 0.497588 -7.416 0.867320 -107.1 0.867320 -107.1 0.497463 -26.73
9.04700000 0.499463 -7.400 0.866239 -107.2 0.866239 -107.2 0.499335 -27.06
9.04750000 0.501391 -7.384 0.865122 -107.4 0.865122 -107.4 0.501260 -27.40
9.04800000 0.503374 -7.369 0.863967 -107.5 0.863967 -107.5 0.503240 -27.75
9.04850000 0.505415 -7.354 0.862772 -107.7 0.862772 -107.7 0.505277 -28.10
9.04900000 0.507516 -7.341 0.861535 -107.9 0.861535 -107.9 0.507374 -28.46
9.04950000 0.509679 -7.328 0.860253 -108.1 0.860253 -108.1 0.509534 -28.83
9.05000000 0.511908 -7.317 0.858926 -108.3 0.858926 -108.3 0.511759 -29.21
9.05050000 0.514205 -7.306 0.857549 -108.4 0.857549 -108.4 0.514052 -29.60
9.05100000 0.516573 -7.297 0.856121 -108.6 0.856121 -108.6 0.516416 -30.01
9.05150000 0.519016 -7.290 0.854638 -108.8 0.854638 -108.8 0.518855 -30.42
9.05200000 0.521538 -7.284 0.853098 -109.0 0.853098 -109.0 0.521372 -30.84
9.05250000 0.524141 -7.280 0.851497 -109.3 0.851497 -109.3 0.523970 -31.27
9.05300000 0.526829 -7.277 0.849832 -109.5 0.849832 -109.5 0.526654 -31.72
9.05350000 0.529608 -7.277 0.848099 -109.7 0.848099 -109.7 0.529428 -32.18
9.05400000 0.532481 -7.279 0.846294 -109.9 0.846294 -109.9 0.532295 -32.65
9.05450000 0.535452 -7.283 0.844412 -110.2 0.844412 -110.2 0.535261 -33.13
9.05500000 0.538527 -7.290 0.842449 -110.4 0.842449 -110.4 0.538330 -33.63
9.05550000 0.541711 -7.300 0.840399 -110.7 0.840399 -110.7 0.541509 -34.14
9.05600000 0.545010 -7.313 0.838258 -111.0 0.838258 -111.0 0.544801 -34.67
9.05650000 0.548429 -7.329 0.836019 -111.3 0.836019 -111.3 0.548213 -35.22
9.05700000 0.551974 -7.349 0.833675 -111.5 0.833675 -111.5 0.551752 -35.78
9.05750000 0.555654 -7.374 0.831221 -111.8 0.831221 -111.8 0.555424 -36.36
9.05800000 0.559474 -7.402 0.828647 -112.2 0.828647 -112.2 0.559237 -36.96
9.05850000 0.563442 -7.436 0.825946 -112.5 0.825946 -112.5 0.563197 -37.57
9.05900000 0.567567 -7.475 0.823108 -112.8 0.823108 -112.8 0.567314 -38.21
9.05950000 0.571857 -7.520 0.820125 -113.2 0.820125 -113.2 0.571596 -38.87
9.06000000 0.576322 -7.572 0.816984 -113.5 0.816984 -113.5 0.576051 -39.56
9.06050000 0.580971 -7.630 0.813674 -113.9 0.813674 -113.9 0.580691 -40.26
9.06100000 0.585816 -7.696 0.810182 -114.3 0.810182 -114.3 0.585526 -40.99
9.06150000 0.590867 -7.771 0.806494 -114.7 0.806494 -114.7 0.590566 -41.75
9.06200000 0.596137 -7.855 0.802594 -115.2 0.802594 -115.2 0.595825 -42.54
9.06250000 0.601639 -7.949 0.798464 -115.6 0.798464 -115.6 0.601315 -43.36
9.06300000 0.607387 -8.054 0.794086 -116.1 0.794086 -116.1 0.607051 -44.21
9.06350000 0.613395 -8.171 0.789439 -116.6 0.789439 -116.6 0.613046 -45.09
9.06400000 0.619680 -8.301 0.784498 -117.1 0.784498 -117.1 0.619317 -46.01
9.06450000 0.626259 -8.447 0.779239 -117.7 0.779239 -117.7 0.625881 -46.96
9.06500000 0.633149 -8.608 0.773631 -118.2 0.773631 -118.2 0.632756 -47.96
9.06550000 0.640370 -8.788 0.767643 -118.8 0.767643 -118.8 0.639960 -49.00
9.06600000 0.647942 -8.987 0.761240 -119.5 0.761240 -119.5 0.647515 -50.08
9.06650000 0.655887 -9.207 0.754380 -120.2 0.754380 -120.2 0.655441 -51.22
9.06700000 0.664228 -9.452 0.747019 -120.9 0.747019 -120.9 0.663762 -52.40
9.06750000 0.672988 -9.722 0.739107 -121.6 0.739107 -121.6 0.672501 -53.65
9.06800000 0.682192 -10.02 0.730587 -122.4 0.730587 -122.4 0.681683 -54.95
9.06850000 0.691867 -10.35 0.721396 -123.3 0.721396 -123.3 0.691334 -56.32
9.06900000 0.702037 -10.72 0.711462 -124.2 0.711462 -124.2 0.701479 -57.75
9.06950000 0.712731 -11.13 0.700705 -125.1 0.700705 -125.1 0.712146 -59.26
9.07000000 0.723974 -11.58 0.689034 -126.1 0.689034 -126.1 0.723360 -60.85
9.07050000 0.735791 -12.08 0.676346 -127.2 0.676346 -127.2 0.735145 -62.53
9.07100000 0.748205 -12.64 0.662527 -128.4 0.662527 -128.4 0.747526 -64.30
9.07150000 0.761236 -13.25 0.647446 -129.6 0.647446 -129.6 0.760521 -66.18
9.07200000 0.774897 -13.93 0.630956 -130.9 0.630956 -130.9 0.774145 -68.16
9.07250000 0.789195 -14.68 0.612893 -132.4 0.612893 -132.4 0.788402 -70.27
9.07300000 0.804125 -15.52 0.593073 -133.9 0.593073 -133.9 0.803288 -72.50
9.07350000 0.819667 -16.45 0.571292 -135.5 0.571292 -135.5 0.818784 -74.87
9.07400000 0.835781 -17.47 0.547323 -137.3 0.547323 -137.3 0.834848 -77.39
9.07450000 0.852401 -18.61 0.520920 -139.2 0.520920 -139.2 0.851415 -80.08
9.07500000 0.869427 -19.86 0.491816 -141.2 0.491816 -141.2 0.868384 -82.95
9.07550000 0.886714 -21.25 0.459731 -143.4 0.459731 -143.4 0.885611 -86.00
9.07600000 0.904065 -22.78 0.424375 -145.8 0.424375 -145.8 0.902900 -89.26
9.07650000 0.921221 -24.46 0.385466 -148.3 0.385466 -148.3 0.919989 -92.73
9.07700000 0.937845 -26.30 0.342742 -151.0 0.342742 -151.0 0.936544 -96.44
9.07750000 0.953522 -28.31 0.295985 -153.9 0.295985 -153.9 0.952149 -100.4
9.07800000 0.967750 -30.49 0.245057 -157.0 0.245057 -157.0 0.966305 -104.6
9.07850000 0.979950 -32.85 0.189931 -160.2 0.189931 -160.2 0.978432 -109.0
9.07900000 0.989483 -35.38 0.130736 -163.4 0.130736 -163.4 0.987892 -113.7
9.07950000 0.995680 -38.06 0.067803 -166.0 0.067803 -166.0 0.994018 -118.6
9.07951351 0.995795 -38.13 0.066055 -166.1 0.066055 -166.1 0.994132 -118.7
9.07952672 0.995904 -38.20 0.064345 -166.1 0.064345 -166.1 0.994239 -118.9
9.07953962 0.996008 -38.27 0.062673 -166.1 0.062673 -166.1 0.994342 -119.0
9.07955222 0.996108 -38.34 0.061036 -166.2 0.061036 -166.2 0.994440 -119.1
9.07956454 0.996202 -38.41 0.059436 -166.2 0.059436 -166.2 0.994532 -119.3
9.07957657 0.996292 -38.48 0.057870 -166.2 0.057870 -166.2 0.994621 -119.4
9.07958833 0.996378 -38.54 0.056339 -166.2 0.056339 -166.2 0.994705 -119.5
9.07959982 0.996460 -38.61 0.054841 -166.2 0.054841 -166.2 0.994785 -119.6
9.07961104 0.996537 -38.67 0.053375 -166.2 0.053375 -166.2 0.994861 -119.7
9.07962201 0.996611 -38.73 0.051942 -166.2 0.051942 -166.2 0.994933 -119.8
9.07963273 0.996681 -38.79 0.050541 -166.2 0.050541 -166.2 0.995002 -120.0
9.07964320 0.996748 -38.85 0.049170 -166.2 0.049170 -166.2 0.995067 -120.1
9.07965343 0.996811 -38.91 0.047830 -166.2 0.047830 -166.2 0.995129 -120.2
9.07966343 0.996872 -38.96 0.046519 -166.2 0.046519 -166.2 0.995188 -120.3
9.07967320 0.996929 -39.02 0.045238 -166.2 0.045238 -166.2 0.995244 -120.4
9.07968274 0.996983 -39.07 0.043984 -166.2 0.043984 -166.2 0.995297 -120.5
9.07969207 0.997035 -39.12 0.042759 -166.1 0.042759 -166.1 0.995348 -120.6
9.07970118 0.997084 -39.17 0.041561 -166.1 0.041561 -166.1 0.995396 -120.6
9.07971008 0.997131 -39.22 0.040389 -166.0 0.040389 -166.0 0.995441 -120.7
9.07971878 0.997175 -39.27 0.039244 -166.0 0.039244 -166.0 0.995484 -120.8
9.07972728 0.997217 -39.32 0.038124 -165.9 0.038124 -165.9 0.995525 -120.9
9.07973559 0.997257 -39.37 0.037029 -165.9 0.037029 -165.9 0.995564 -121.0
9.07974370 0.997295 -39.41 0.035958 -165.8 0.035958 -165.8 0.995601 -121.1
9.07975163 0.997330 -39.46 0.034912 -165.7 0.034912 -165.7 0.995635 -121.2
9.07975938 0.997364 -39.50 0.033889 -165.7 0.033889 -165.7 0.995668 -121.2
9.07976695 0.997397 -39.54 0.032889 -165.6 0.032889 -165.6 0.995700 -121.3
9.07977434 0.997427 -39.58 0.031912 -165.5 0.031912 -165.5 0.995729 -121.4
9.07978157 0.997456 -39.62 0.030956 -165.4 0.030956 -165.4 0.995757 -121.5
9.07978863 0.997483 -39.66 0.030023 -165.3 0.030023 -165.3 0.995783 -121.5
9.07979553 0.997509 -39.70 0.029110 -165.2 0.029110 -165.2 0.995808 -121.6
9.07980227 0.997534 -39.74 0.028218 -165.0 0.028218 -165.0 0.995832 -121.7
9.07980886 0.997557 -39.78 0.027346 -164.9 0.027346 -164.9 0.995854 -121.8
9.07981529 0.997579 -39.81 0.026494 -164.8 0.026494 -164.8 0.995876 -121.8
9.07982158 0.997600 -39.85 0.025661 -164.6 0.025661 -164.6 0.995895 -121.9
9.07982773 0.997619 -39.89 0.024847 -164.5 0.024847 -164.5 0.995914 -122.0
9.07983373 0.997638 -39.92 0.024052 -164.3 0.024052 -164.3 0.995932 -122.0
9.07983959 0.997655 -39.95 0.023275 -164.1 0.023275 -164.1 0.995949 -122.1
9.07984533 0.997672 -39.98 0.022516 -163.9 0.022516 -163.9 0.995964 -122.1
9.07985093 0.997687 -40.02 0.021775 -163.7 0.021775 -163.7 0.995979 -122.2
9.07985640 0.997702 -40.05 0.021050 -163.5 0.021050 -163.5 0.995993 -122.2
9.07986174 0.997716 -40.08 0.020342 -163.3 0.020342 -163.3 0.996006 -122.3
9.07986697 0.997729 -40.11 0.019651 -163.0 0.019651 -163.0 0.996019 -122.4
9.07987207 0.997741 -40.14 0.018976 -162.8 0.018976 -162.8 0.996030 -122.4
9.07987706 0.997752 -40.17 0.018316 -162.5 0.018316 -162.5 0.996041 -122.5
9.07988193 0.997763 -40.19 0.017672 -162.2 0.017672 -162.2 0.996051 -122.5
9.07988669 0.997773 -40.22 0.017043 -161.9 0.017043 -161.9 0.996061 -122.6
9.07989135 0.997783 -40.25 0.016428 -161.6 0.016428 -161.6 0.996070 -122.6
9.07989589 0.997792 -40.27 0.015829 -161.2 0.015829 -161.2 0.996078 -122.7
9.07990033 0.997800 -40.30 0.015243 -160.9 0.015243 -160.9 0.996086 -122.7
9.07990467 0.997808 -40.32 0.014672 -160.5 0.014672 -160.5 0.996093 -122.7
9.07990891 0.997816 -40.35 0.014114 -160.1 0.014114 -160.1 0.996100 -122.8
9.07991306 0.997823 -40.37 0.013570 -159.6 0.013570 -159.6 0.996106 -122.8
9.07991710 0.997829 -40.39 0.013039 -159.2 0.013039 -159.2 0.996112 -122.9
9.07992106 0.997835 -40.42 0.012521 -158.7 0.012521 -158.7 0.996118 -122.9
9.07992492 0.997841 -40.44 0.012016 -158.1 0.012016 -158.1 0.996123 -123.0
9.07992870 0.997846 -40.46 0.011523 -157.6 0.011523 -157.6 0.996128 -123.0
9.07993239 0.997851 -40.48 0.011043 -157.0 0.011043 -157.0 0.996132 -123.0
9.07993600 0.997855 -40.50 0.010576 -156.3 0.010576 -156.3 0.996136 -123.1
9.07993952 0.997859 -40.52 0.010120 -155.6 0.010120 -155.6 0.996140 -123.1
9.07994296 0.997863 -40.54 0.009676 -154.9 0.009676 -154.9 0.996143 -123.1
9.07994632 0.997867 -40.56 0.009245 -154.1 0.009245 -154.1 0.996146 -123.2
9.07994961 0.997870 -40.58 0.008825 -153.2 0.008825 -153.2 0.996149 -123.2
9.07995282 0.997873 -40.60 0.008417 -152.3 0.008417 -152.3 0.996152 -123.2
9.07995596 0.997876 -40.62 0.008020 -151.3 0.008020 -151.3 0.996154 -123.3
9.07995902 0.997878 -40.63 0.007635 -150.3 0.007635 -150.3 0.996156 -123.3
9.07996202 0.997881 -40.65 0.007262 -149.1 0.007262 -149.1 0.996158 -123.3
9.07996494 0.997883 -40.67 0.006901 -147.9 0.006901 -147.9 0.996160 -123.4
9.07996780 0.997885 -40.68 0.006552 -146.5 0.006552 -146.5 0.996162 -123.4
9.07997060 0.997886 -40.70 0.006214 -145.0 0.006214 -145.0 0.996163 -123.4
9.07997333 0.997888 -40.71 0.005889 -143.4 0.005889 -143.4 0.996164 -123.5
9.07997599 0.997889 -40.73 0.005577 -141.6 0.005577 -141.6 0.996165 -123.5
9.07997860 0.997891 -40.74 0.005277 -139.7 0.005277 -139.7 0.996166 -123.5
9.07998114 0.997892 -40.76 0.004991 -137.6 0.004991 -137.6 0.996167 -123.5
9.07998363 0.997893 -40.77 0.004718 -135.3 0.004718 -135.3 0.996167 -123.6
9.07998606 0.997893 -40.79 0.004460 -132.8 0.004460 -132.8 0.996168 -123.6
9.07998844 0.997894 -40.80 0.004218 -130.1 0.004218 -130.1 0.996168 -123.6
9.07999076 0.997895 -40.81 0.003991 -127.1 0.003991 -127.1 0.996169 -123.6
9.07999303 0.997895 -40.83 0.003782 -123.8 0.003782 -123.8 0.996169 -123.7
9.07999524 0.997895 -40.84 0.003591 -120.2 0.003591 -120.2 0.996169 -123.7
9.07999741 0.997896 -40.85 0.003419 -116.4 0.003419 -116.4 0.996169 -123.7
9.07999952 0.997896 -40.86 0.003268 -112.2 0.003268 -112.2 0.996169 -123.7
9.08000000 0.997896 -40.87 0.003236 -111.2 0.003236 -111.2 0.996169 -123.7
9.08000159 0.997896 -40.88 0.003138 -107.8 0.003138 -107.8 0.996169 -123.8
9.08000361 0.997896 -40.89 0.003031 -103.2 0.003031 -103.2 0.996168 -123.8
9.08000558 0.997896 -40.90 0.002947 -98.32 0.002947 -98.32 0.996168 -123.8
9.08000751 0.997896 -40.91 0.002887 -93.36 0.002887 -93.36 0.996168 -123.8
9.08000940 0.997896 -40.92 0.002850 -88.34 0.002850 -88.34 0.996167 -123.8
9.08001124 0.997895 -40.93 0.002835 -83.34 0.002835 -83.34 0.996167 -123.9
9.08001303 0.997895 -40.94 0.002842 -78.45 0.002842 -78.45 0.996166 -123.9
9.08001479 0.997895 -40.95 0.002869 -73.72 0.002869 -73.72 0.996166 -123.9
9.08001651 0.997894 -40.96 0.002913 -69.22 0.002913 -69.22 0.996165 -123.9
9.08001819 0.997894 -40.97 0.002974 -64.97 0.002974 -64.97 0.996165 -123.9
9.08001983 0.997894 -40.98 0.003048 -61.01 0.003048 -61.01 0.996164 -124.0
9.08002143 0.997893 -40.99 0.003134 -57.33 0.003134 -57.33 0.996163 -124.0
9.08002299 0.997892 -41.00 0.003230 -53.94 0.003230 -53.94 0.996162 -124.0
9.08002452 0.997892 -41.01 0.003334 -50.83 0.003334 -50.83 0.996162 -124.0
9.08002602 0.997891 -41.02 0.003445 -47.98 0.003445 -47.98 0.996161 -124.0
9.08002747 0.997891 -41.03 0.003561 -45.38 0.003561 -45.38 0.996160 -124.0
9.08002890 0.997890 -41.03 0.003681 -43.00 0.003681 -43.00 0.996159 -124.0
9.08003030 0.997889 -41.04 0.003804 -40.82 0.003804 -40.82 0.996158 -124.1
9.08003166 0.997889 -41.05 0.003929 -38.82 0.003929 -38.82 0.996157 -124.1
9.08003299 0.997888 -41.06 0.004056 -37.00 0.004056 -37.00 0.996157 -124.1
9.08003429 0.997887 -41.06 0.004184 -35.32 0.004184 -35.32 0.996156 -124.1
9.08003556 0.997886 -41.07 0.004312 -33.78 0.004312 -33.78 0.996155 -124.1
9.08003680 0.997886 -41.08 0.004440 -32.37 0.004440 -32.37 0.996154 -124.1
9.08003801 0.997885 -41.09 0.004568 -31.06 0.004568 -31.06 0.996153 -124.1
9.08003920 0.997884 -41.09 0.004695 -29.86 0.004695 -29.86 0.996152 -124.2
9.08004035 0.997883 -41.10 0.004821 -28.74 0.004821 -28.74 0.996151 -124.2
9.08004149 0.997883 -41.11 0.004946 -27.70 0.004946 -27.70 0.996150 -124.2
9.08004259 0.997882 -41.11 0.005069 -26.74 0.005069 -26.74 0.996149 -124.2
9.08004367 0.997881 -41.12 0.005191 -25.85 0.005191 -25.85 0.996148 -124.2
9.08004473 0.997880 -41.12 0.005311 -25.01 0.005311 -25.01 0.996147 -124.2
9.08004576 0.997879 -41.13 0.005430 -24.23 0.005430 -24.23 0.996147 -124.2
9.08004676 0.997879 -41.14 0.005547 -23.51 0.005547 -23.51 0.996146 -124.2
9.08004775 0.997878 -41.14 0.005662 -22.82 0.005662 -22.82 0.996145 -124.2
9.08004871 0.997877 -41.15 0.005775 -22.18 0.005775 -22.18 0.996144 -124.3
9.08004965 0.997876 -41.15 0.005887 -21.58 0.005887 -21.58 0.996143 -124.3
9.08005057 0.997876 -41.16 0.005996 -21.02 0.005996 -21.02 0.996142 -124.3
9.08005147 0.997875 -41.16 0.006104 -20.48 0.006104 -20.48 0.996141 -124.3
9.08005234 0.997874 -41.17 0.006209 -19.98 0.006209 -19.98 0.996140 -124.3
9.08005320 0.997873 -41.17 0.006313 -19.51 0.006313 -19.51 0.996139 -124.3
9.08005404 0.997872 -41.18 0.006414 -19.06 0.006414 -19.06 0.996138 -124.3
9.08005485 0.997872 -41.18 0.006514 -18.63 0.006514 -18.63 0.996138 -124.3
9.08005565 0.997871 -41.19 0.006612 -18.23 0.006612 -18.23 0.996137 -124.3
9.08005643 0.997870 -41.19 0.006708 -17.85 0.006708 -17.85 0.996136 -124.3
9.08005720 0.997869 -41.20 0.006802 -17.49 0.006802 -17.49 0.996135 -124.3
9.08005794 0.997869 -41.20 0.006894 -17.14 0.006894 -17.14 0.996134 -124.4
9.08005867 0.997868 -41.20 0.006984 -16.82 0.006984 -16.82 0.996133 -124.4
9.08005938 0.997867 -41.21 0.007072 -16.51 0.007072 -16.51 0.996132 -124.4
9.08006008 0.997866 -41.21 0.007159 -16.21 0.007159 -16.21 0.996132 -124.4
9.08006076 0.997866 -41.22 0.007244 -15.93 0.007244 -15.93 0.996131 -124.4
9.08006142 0.997865 -41.22 0.007327 -15.65 0.007327 -15.65 0.996130 -124.4
9.08006207 0.997864 -41.22 0.007408 -15.40 0.007408 -15.40 0.996129 -124.4
9.08006270 0.997864 -41.23 0.007487 -15.15 0.007487 -15.15 0.996129 -124.4
9.08006332 0.997863 -41.23 0.007565 -14.91 0.007565 -14.91 0.996128 -124.4
9.08006393 0.997862 -41.24 0.007641 -14.69 0.007641 -14.69 0.996127 -124.4
9.08006452 0.997862 -41.24 0.007716 -14.47 0.007716 -14.47 0.996126 -124.4
9.08006510 0.997861 -41.24 0.007789 -14.26 0.007789 -14.26 0.996126 -124.4
9.08006566 0.997860 -41.25 0.007860 -14.07 0.007860 -14.07 0.996125 -124.4
9.08006621 0.997860 -41.25 0.007930 -13.88 0.007930 -13.88 0.996124 -124.4
9.08006675 0.997859 -41.25 0.007999 -13.69 0.007999 -13.69 0.996123 -124.4
9.08006728 0.997858 -41.25 0.008065 -13.52 0.008065 -13.52 0.996123 -124.4
9.08006779 0.997858 -41.26 0.008131 -13.35 0.008131 -13.35 0.996122 -124.5
9.08006829 0.997857 -41.26 0.008195 -13.19 0.008195 -13.19 0.996121 -124.5
9.08006878 0.997857 -41.26 0.008257 -13.03 0.008257 -13.03 0.996121 -124.5
9.08006926 0.997856 -41.27 0.008319 -12.88 0.008319 -12.88 0.996120 -124.5
9.08006973 0.997856 -41.27 0.008378 -12.74 0.008378 -12.74 0.996120 -124.5
9.08007019 0.997855 -41.27 0.008437 -12.60 0.008437 -12.60 0.996119 -124.5
9.08007064 0.997854 -41.27 0.008494 -12.46 0.008494 -12.46 0.996118 -124.5
9.08007108 0.997854 -41.28 0.008550 -12.33 0.008550 -12.33 0.996118 -124.5
9.08007150 0.997853 -41.28 0.008605 -12.21 0.008605 -12.21 0.996117 -124.5
9.08007192 0.997853 -41.28 0.008659 -12.09 0.008659 -12.09 0.996117 -124.5
9.08007233 0.997852 -41.28 0.008711 -11.97 0.008711 -11.97 0.996116 -124.5
9.08007273 0.997852 -41.29 0.008762 -11.86 0.008762 -11.86 0.996115 -124.5
9.08007312 0.997851 -41.29 0.008812 -11.75 0.008812 -11.75 0.996115 -124.5
9.08007350 0.997851 -41.29 0.008861 -11.65 0.008861 -11.65 0.996114 -124.5
9.08007387 0.997850 -41.29 0.008909 -11.55 0.008909 -11.55 0.996114 -124.5
9.08007423 0.997850 -41.29 0.008956 -11.45 0.008956 -11.45 0.996113 -124.5
9.08007459 0.997849 -41.30 0.009002 -11.35 0.009002 -11.35 0.996113 -124.5
9.08007493 0.997849 -41.30 0.009046 -11.26 0.009046 -11.26 0.996112 -124.5
9.08007527 0.997848 -41.30 0.009090 -11.18 0.009090 -11.18 0.996112 -124.5
9.08007560 0.997848 -41.30 0.009133 -11.09 0.009133 -11.09 0.996111 -124.5
9.08007593 0.997848 -41.30 0.009175 -11.01 0.009175 -11.01 0.996111 -124.5
9.08007624 0.997847 -41.31 0.009216 -10.93 0.009216 -10.93 0.996110 -124.5
9.08007655 0.997847 -41.31 0.009255 -10.85 0.009255 -10.85 0.996110 -124.5
9.08007686 0.997846 -41.31 0.009294 -10.78 0.009294 -10.78 0.996109 -124.5
9.08007715 0.997846 -41.31 0.009333 -10.70 0.009333 -10.70 0.996109 -124.6
9.08007744 0.997846 -41.31 0.009370 -10.63 0.009370 -10.63 0.996109 -124.6
9.08007772 0.997845 -41.31 0.009406 -10.56 0.009406 -10.56 0.996108 -124.6
9.08007799 0.997845 -41.32 0.009442 -10.50 0.009442 -10.50 0.996108 -124.6
9.08007826 0.997844 -41.32 0.009477 -10.43 0.009477 -10.43 0.996107 -124.6
9.08007853 0.997844 -41.32 0.009511 -10.37 0.009511 -10.37 0.996107 -124.6
9.08007878 0.997844 -41.32 0.009544 -10.31 0.009544 -10.31 0.996107 -124.6
9.08007903 0.997843 -41.32 0.009577 -10.25 0.009577 -10.25 0.996106 -124.6
9.08007928 0.997843 -41.32 0.009609 -10.20 0.009609 -10.20 0.996106 -124.6
9.08007952 0.997843 -41.33 0.009640 -10.14 0.009640 -10.14 0.996105 -124.6
9.08007975 0.997842 -41.33 0.009670 -10.09 0.009670 -10.09 0.996105 -124.6
9.08007998 0.997842 -41.33 0.009700 -10.04 0.009700 -10.04 0.996105 -124.6
9.08008020 0.997842 -41.33 0.009729 -9.985 0.009729 -9.985 0.996104 -124.6
9.08008042 0.997841 -41.33 0.009757 -9.936 0.009757 -9.936 0.996104 -124.6
9.08008063 0.997841 -41.33 0.009785 -9.889 0.009785 -9.889 0.996104 -124.6
9.08008084 0.997841 -41.33 0.009812 -9.843 0.009812 -9.843 0.996103 -124.6
9.08008105 0.997841 -41.33 0.009838 -9.798 0.009838 -9.798 0.996103 -124.6
9.08008125 0.997840 -41.34 0.009864 -9.754 0.009864 -9.754 0.996103 -124.6
9.08008144 0.997840 -41.34 0.009890 -9.712 0.009890 -9.712 0.996103 -124.6
9.08008163 0.997840 -41.34 0.009914 -9.671 0.009914 -9.671 0.996102 -124.6
9.08008182 0.997839 -41.34 0.009938 -9.630 0.009938 -9.630 0.996102 -124.6
9.08008200 0.997839 -41.34 0.009962 -9.592 0.009962 -9.592 0.996102 -124.6
9.08008217 0.997839 -41.34 0.009985 -9.554 0.009985 -9.554 0.996101 -124.6
9.08008235 0.997839 -41.34 0.010008 -9.517 0.010008 -9.517 0.996101 -124.6
9.08008252 0.997838 -41.34 0.010030 -9.481 0.010030 -9.481 0.996101 -124.6
9.08008268 0.997838 -41.34 0.010051 -9.446 0.010051 -9.446 0.996101 -124.6
9.08008284 0.997838 -41.34 0.010072 -9.412 0.010072 -9.412 0.996100 -124.6