! Sonnet Data File
! From: emgraph Version : 16.52
! From Emgraph Data: Resonator2_extremeCap2
! Data File Written: 10/10/2017 01:05:42
!< HDATE 10/09/2017 23:09:38
!< MDATE 10/09/2017 23:11:10
!< PARAMS
!< Pwid1 = 2000.0
!< Width = 10.0
!< Gap = 12.0
!< END PARAMS
# GHZ S MA R 35.98000
8.00000000 0.290010 0.8063 0.957020 -83.41 0.957020 -83.41 0.290010 12.371
!< P1 F=8.0 Eeff=(5.35565969 -2.3583e-5) Z0=(36.0440404 8.0203e-5) R=0.0 C=0.0 
!< P2 F=8.0 Eeff=(5.35565969 -2.3583e-5) Z0=(36.0440404 8.0203e-5) R=0.0 C=0.0 
8.00200000 0.290126 0.7822 0.956985 -83.44 0.956985 -83.44 0.290126 12.346
8.00400000 0.290242 0.7580 0.956949 -83.46 0.956949 -83.46 0.290243 12.321
8.00600000 0.290358 0.7339 0.956914 -83.49 0.956914 -83.49 0.290359 12.296
8.00800000 0.290475 0.7097 0.956879 -83.51 0.956879 -83.51 0.290475 12.271
8.01000000 0.290591 0.6855 0.956843 -83.53 0.956843 -83.53 0.290591 12.246
8.01200000 0.290708 0.6614 0.956808 -83.56 0.956808 -83.56 0.290708 12.221
8.01400000 0.290824 0.6372 0.956773 -83.58 0.956773 -83.58 0.290824 12.196
8.01600000 0.290941 0.6131 0.956737 -83.61 0.956737 -83.61 0.290941 12.170
8.01800000 0.291057 0.5889 0.956702 -83.63 0.956702 -83.63 0.291057 12.145
8.02000000 0.291174 0.5648 0.956666 -83.66 0.956666 -83.66 0.291174 12.120
8.02200000 0.291291 0.5407 0.956631 -83.68 0.956631 -83.68 0.291290 12.095
8.02400000 0.291407 0.5165 0.956595 -83.71 0.956595 -83.71 0.291407 12.070
8.02600000 0.291524 0.4924 0.956560 -83.73 0.956560 -83.73 0.291524 12.045
8.02800000 0.291641 0.4683 0.956524 -83.76 0.956524 -83.76 0.291641 12.020
8.03000000 0.291758 0.4441 0.956489 -83.78 0.956489 -83.78 0.291758 11.994
8.03200000 0.291875 0.4200 0.956453 -83.81 0.956453 -83.81 0.291875 11.969
8.03400000 0.291992 0.3959 0.956417 -83.83 0.956417 -83.83 0.291992 11.944
8.03600000 0.292109 0.3718 0.956381 -83.85 0.956381 -83.85 0.292109 11.919
8.03800000 0.292226 0.3476 0.956346 -83.88 0.956346 -83.88 0.292226 11.893
8.04000000 0.292344 0.3235 0.956310 -83.90 0.956310 -83.90 0.292343 11.868
8.04200000 0.292461 0.2994 0.956274 -83.93 0.956274 -83.93 0.292460 11.843
8.04400000 0.292578 0.2753 0.956238 -83.95 0.956238 -83.95 0.292578 11.817
8.04600000 0.292696 0.2512 0.956202 -83.98 0.956202 -83.98 0.292695 11.792
8.04800000 0.292813 0.2271 0.956166 -84.00 0.956166 -84.00 0.292812 11.767
8.05000000 0.292931 0.2030 0.956130 -84.03 0.956130 -84.03 0.292930 11.741
8.05200000 0.293048 0.1789 0.956094 -84.05 0.956094 -84.05 0.293047 11.716
8.05400000 0.293166 0.1548 0.956058 -84.08 0.956058 -84.08 0.293165 11.690
8.05600000 0.293284 0.1307 0.956022 -84.10 0.956022 -84.10 0.293283 11.665
8.05800000 0.293401 0.1066 0.955986 -84.13 0.955986 -84.13 0.293400 11.640
8.06000000 0.293519 0.0825 0.955950 -84.15 0.955950 -84.15 0.293518 11.614
8.06200000 0.293637 0.0585 0.955914 -84.18 0.955914 -84.18 0.293636 11.589
8.06400000 0.293755 0.0344 0.955877 -84.20 0.955877 -84.20 0.293754 11.563
8.06600000 0.293873 0.0103 0.955841 -84.23 0.955841 -84.23 0.293872 11.538
8.06800000 0.293991 -0.014 0.955805 -84.25 0.955805 -84.25 0.293990 11.512
8.07000000 0.294109 -0.038 0.955768 -84.28 0.955768 -84.28 0.294108 11.487
8.07200000 0.294227 -0.062 0.955732 -84.30 0.955732 -84.30 0.294226 11.461
8.07400000 0.294346 -0.086 0.955696 -84.33 0.955696 -84.33 0.294344 11.435
8.07600000 0.294464 -0.110 0.955659 -84.35 0.955659 -84.35 0.294463 11.410
8.07800000 0.294582 -0.134 0.955623 -84.37 0.955623 -84.37 0.294581 11.384
8.08000000 0.294701 -0.158 0.955586 -84.40 0.955586 -84.40 0.294699 11.358
8.08200000 0.294819 -0.182 0.955550 -84.42 0.955550 -84.42 0.294818 11.333
8.08400000 0.294938 -0.206 0.955513 -84.45 0.955513 -84.45 0.294936 11.307
8.08600000 0.295056 -0.230 0.955477 -84.47 0.955477 -84.47 0.295055 11.281
8.08800000 0.295175 -0.254 0.955440 -84.50 0.955440 -84.50 0.295174 11.256
8.09000000 0.295294 -0.278 0.955403 -84.52 0.955403 -84.52 0.295292 11.230
8.09200000 0.295413 -0.302 0.955367 -84.55 0.955367 -84.55 0.295411 11.204
8.09400000 0.295532 -0.326 0.955330 -84.57 0.955330 -84.57 0.295530 11.178
8.09600000 0.295650 -0.350 0.955293 -84.60 0.955293 -84.60 0.295649 11.153
8.09800000 0.295769 -0.374 0.955256 -84.62 0.955256 -84.62 0.295768 11.127
8.10000000 0.295888 -0.398 0.955219 -84.65 0.955219 -84.65 0.295887 11.101
8.10200000 0.296008 -0.422 0.955183 -84.67 0.955183 -84.67 0.296006 11.075
8.10400000 0.296127 -0.446 0.955146 -84.70 0.955146 -84.70 0.296125 11.049
8.10600000 0.296246 -0.470 0.955109 -84.72 0.955109 -84.72 0.296244 11.023
8.10800000 0.296365 -0.494 0.955072 -84.75 0.955072 -84.75 0.296363 10.997
8.11000000 0.296485 -0.518 0.955035 -84.77 0.955035 -84.77 0.296483 10.972
8.11200000 0.296604 -0.542 0.954998 -84.80 0.954998 -84.80 0.296602 10.946
8.11400000 0.296724 -0.566 0.954960 -84.82 0.954960 -84.82 0.296722 10.920
8.11600000 0.296843 -0.590 0.954923 -84.85 0.954923 -84.85 0.296841 10.894
8.11800000 0.296963 -0.614 0.954886 -84.87 0.954886 -84.87 0.296961 10.868
8.12000000 0.297082 -0.638 0.954849 -84.90 0.954849 -84.90 0.297080 10.842
8.12200000 0.297202 -0.662 0.954812 -84.92 0.954812 -84.92 0.297200 10.816
8.12400000 0.297322 -0.686 0.954774 -84.95 0.954774 -84.95 0.297320 10.789
8.12600000 0.297442 -0.710 0.954737 -84.97 0.954737 -84.97 0.297440 10.763
8.12800000 0.297562 -0.734 0.954700 -85.00 0.954700 -85.00 0.297560 10.737
8.13000000 0.297682 -0.758 0.954662 -85.02 0.954662 -85.02 0.297680 10.711
8.13200000 0.297802 -0.782 0.954625 -85.05 0.954625 -85.05 0.297800 10.685
8.13400000 0.297922 -0.806 0.954587 -85.07 0.954587 -85.07 0.297920 10.659
8.13600000 0.298042 -0.830 0.954550 -85.10 0.954550 -85.10 0.298040 10.633
8.13800000 0.298162 -0.854 0.954512 -85.12 0.954512 -85.12 0.298160 10.606
8.14000000 0.298283 -0.877 0.954475 -85.15 0.954475 -85.15 0.298281 10.580
8.14200000 0.298403 -0.901 0.954437 -85.17 0.954437 -85.17 0.298401 10.554
8.14400000 0.298524 -0.925 0.954399 -85.20 0.954399 -85.20 0.298521 10.528
8.14600000 0.298644 -0.949 0.954362 -85.22 0.954362 -85.22 0.298642 10.501
8.14800000 0.298765 -0.973 0.954324 -85.25 0.954324 -85.25 0.298762 10.475
8.15000000 0.298885 -0.997 0.954286 -85.27 0.954286 -85.27 0.298883 10.449
8.15200000 0.299006 -1.021 0.954248 -85.30 0.954248 -85.30 0.299004 10.422
8.15400000 0.299127 -1.045 0.954211 -85.32 0.954211 -85.32 0.299124 10.396
8.15600000 0.299248 -1.069 0.954173 -85.35 0.954173 -85.35 0.299245 10.369
8.15800000 0.299369 -1.092 0.954135 -85.37 0.954135 -85.37 0.299366 10.343
8.16000000 0.299490 -1.116 0.954097 -85.40 0.954097 -85.40 0.299487 10.317
8.16200000 0.299611 -1.140 0.954059 -85.42 0.954059 -85.42 0.299608 10.290
8.16400000 0.299732 -1.164 0.954021 -85.45 0.954021 -85.45 0.299729 10.264
8.16600000 0.299853 -1.188 0.953983 -85.48 0.953983 -85.48 0.299850 10.237
8.16800000 0.299974 -1.212 0.953945 -85.50 0.953945 -85.50 0.299972 10.210
8.17000000 0.300095 -1.236 0.953907 -85.53 0.953907 -85.53 0.300093 10.184
8.17200000 0.300217 -1.259 0.953868 -85.55 0.953868 -85.55 0.300214 10.157
8.17400000 0.300338 -1.283 0.953830 -85.58 0.953830 -85.58 0.300336 10.131
8.17600000 0.300460 -1.307 0.953792 -85.60 0.953792 -85.60 0.300457 10.104
8.17800000 0.300581 -1.331 0.953754 -85.63 0.953754 -85.63 0.300579 10.077
8.18000000 0.300703 -1.355 0.953715 -85.65 0.953715 -85.65 0.300701 10.051
8.18200000 0.300825 -1.378 0.953677 -85.68 0.953677 -85.68 0.300822 10.024
8.18400000 0.300947 -1.402 0.953638 -85.70 0.953638 -85.70 0.300944 9.9971
8.18600000 0.301069 -1.426 0.953600 -85.73 0.953600 -85.73 0.301066 9.9703
8.18800000 0.301190 -1.450 0.953561 -85.75 0.953561 -85.75 0.301188 9.9435
8.19000000 0.301312 -1.473 0.953523 -85.78 0.953523 -85.78 0.301310 9.9167
8.19200000 0.301435 -1.497 0.953484 -85.80 0.953484 -85.80 0.301432 9.8899
8.19400000 0.301557 -1.521 0.953446 -85.83 0.953446 -85.83 0.301554 9.8630
8.19600000 0.301679 -1.545 0.953407 -85.85 0.953407 -85.85 0.301676 9.8361
8.19800000 0.301801 -1.568 0.953368 -85.88 0.953368 -85.88 0.301799 9.8092
8.20000000 0.301924 -1.592 0.953330 -85.90 0.953330 -85.90 0.301921 9.7822
8.20200000 0.302046 -1.616 0.953291 -85.93 0.953291 -85.93 0.302043 9.7552
8.20400000 0.302169 -1.640 0.953252 -85.96 0.953252 -85.96 0.302166 9.7282
8.20600000 0.302291 -1.663 0.953213 -85.98 0.953213 -85.98 0.302288 9.7012
8.20800000 0.302414 -1.687 0.953174 -86.01 0.953174 -86.01 0.302411 9.6741
8.21000000 0.302536 -1.711 0.953135 -86.03 0.953135 -86.03 0.302534 9.6470
8.21200000 0.302659 -1.734 0.953096 -86.06 0.953096 -86.06 0.302656 9.6199
8.21400000 0.302782 -1.758 0.953057 -86.08 0.953057 -86.08 0.302779 9.5928
8.21600000 0.302905 -1.782 0.953018 -86.11 0.953018 -86.11 0.302902 9.5656
8.21800000 0.303028 -1.805 0.952979 -86.13 0.952979 -86.13 0.303025 9.5384
8.22000000 0.303151 -1.829 0.952940 -86.16 0.952940 -86.16 0.303148 9.5112
8.22200000 0.303274 -1.853 0.952901 -86.18 0.952901 -86.18 0.303271 9.4839
8.22400000 0.303398 -1.876 0.952862 -86.21 0.952862 -86.21 0.303395 9.4567
8.22600000 0.303521 -1.900 0.952822 -86.24 0.952822 -86.24 0.303518 9.4294
8.22800000 0.303644 -1.924 0.952783 -86.26 0.952783 -86.26 0.303641 9.4020
8.23000000 0.303768 -1.947 0.952744 -86.29 0.952744 -86.29 0.303765 9.3747
8.23200000 0.303891 -1.971 0.952704 -86.31 0.952704 -86.31 0.303888 9.3473
8.23400000 0.304015 -1.994 0.952665 -86.34 0.952665 -86.34 0.304012 9.3198
8.23600000 0.304138 -2.018 0.952626 -86.36 0.952626 -86.36 0.304136 9.2924
8.23800000 0.304262 -2.042 0.952586 -86.39 0.952586 -86.39 0.304259 9.2649
8.24000000 0.304386 -2.065 0.952546 -86.41 0.952546 -86.41 0.304383 9.2374
8.24200000 0.304510 -2.089 0.952507 -86.44 0.952507 -86.44 0.304507 9.2099
8.24400000 0.304634 -2.112 0.952467 -86.46 0.952467 -86.46 0.304631 9.1823
8.24600000 0.304758 -2.136 0.952428 -86.49 0.952428 -86.49 0.304755 9.1547
8.24800000 0.304882 -2.159 0.952388 -86.52 0.952388 -86.52 0.304879 9.1271
8.25000000 0.305006 -2.183 0.952348 -86.54 0.952348 -86.54 0.305003 9.0994
8.25200000 0.305130 -2.206 0.952308 -86.57 0.952308 -86.57 0.305128 9.0717
8.25400000 0.305255 -2.230 0.952268 -86.59 0.952268 -86.59 0.305252 9.0440
8.25600000 0.305379 -2.253 0.952229 -86.62 0.952229 -86.62 0.305376 9.0162
8.25800000 0.305504 -2.277 0.952189 -86.64 0.952189 -86.64 0.305501 8.9884
8.26000000 0.305628 -2.300 0.952149 -86.67 0.952149 -86.67 0.305625 8.9606
8.26200000 0.305753 -2.324 0.952109 -86.70 0.952109 -86.70 0.305750 8.9328
8.26400000 0.305878 -2.347 0.952069 -86.72 0.952069 -86.72 0.305875 8.9049
8.26600000 0.306003 -2.371 0.952028 -86.75 0.952028 -86.75 0.306000 8.8770
8.26800000 0.306127 -2.394 0.951988 -86.77 0.951988 -86.77 0.306125 8.8490
8.27000000 0.306252 -2.418 0.951948 -86.80 0.951948 -86.80 0.306250 8.8210
8.27200000 0.306378 -2.441 0.951908 -86.82 0.951908 -86.82 0.306375 8.7930
8.27400000 0.306503 -2.464 0.951868 -86.85 0.951868 -86.85 0.306500 8.7650
8.27600000 0.306628 -2.488 0.951827 -86.88 0.951827 -86.88 0.306625 8.7369
8.27800000 0.306753 -2.511 0.951787 -86.90 0.951787 -86.90 0.306750 8.7088
8.28000000 0.306879 -2.535 0.951747 -86.93 0.951747 -86.93 0.306876 8.6806
8.28200000 0.307004 -2.558 0.951706 -86.95 0.951706 -86.95 0.307001 8.6525
8.28400000 0.307130 -2.581 0.951666 -86.98 0.951666 -86.98 0.307127 8.6242
8.28600000 0.307255 -2.605 0.951625 -87.00 0.951625 -87.00 0.307252 8.5960
8.28800000 0.307381 -2.628 0.951584 -87.03 0.951584 -87.03 0.307378 8.5677
8.29000000 0.307507 -2.651 0.951544 -87.06 0.951544 -87.06 0.307504 8.5394
8.29200000 0.307632 -2.675 0.951503 -87.08 0.951503 -87.08 0.307630 8.5110
8.29400000 0.307758 -2.698 0.951462 -87.11 0.951462 -87.11 0.307756 8.4826
8.29600000 0.307884 -2.721 0.951422 -87.13 0.951422 -87.13 0.307882 8.4542
8.29800000 0.308011 -2.744 0.951381 -87.16 0.951381 -87.16 0.308008 8.4257
8.30000000 0.308137 -2.768 0.951340 -87.19 0.951340 -87.19 0.308134 8.3972
8.30200000 0.308263 -2.791 0.951299 -87.21 0.951299 -87.21 0.308260 8.3687
8.30400000 0.308389 -2.814 0.951258 -87.24 0.951258 -87.24 0.308387 8.3401
8.30600000 0.308516 -2.837 0.951217 -87.26 0.951217 -87.26 0.308513 8.3115
8.30800000 0.308642 -2.861 0.951176 -87.29 0.951176 -87.29 0.308640 8.2828
8.31000000 0.308769 -2.884 0.951135 -87.31 0.951135 -87.31 0.308766 8.2541
8.31200000 0.308896 -2.907 0.951094 -87.34 0.951094 -87.34 0.308893 8.2254
8.31400000 0.309023 -2.930 0.951053 -87.37 0.951053 -87.37 0.309020 8.1966
8.31600000 0.309149 -2.953 0.951011 -87.39 0.951011 -87.39 0.309147 8.1678
8.31800000 0.309276 -2.977 0.950970 -87.42 0.950970 -87.42 0.309274 8.1390
8.32000000 0.309403 -3.000 0.950929 -87.44 0.950929 -87.44 0.309401 8.1101
8.32200000 0.309531 -3.023 0.950887 -87.47 0.950887 -87.47 0.309528 8.0812
8.32400000 0.309658 -3.046 0.950846 -87.50 0.950846 -87.50 0.309655 8.0522
8.32600000 0.309785 -3.069 0.950805 -87.52 0.950805 -87.52 0.309782 8.0232
8.32800000 0.309912 -3.092 0.950763 -87.55 0.950763 -87.55 0.309910 7.9941
8.33000000 0.310040 -3.115 0.950721 -87.57 0.950721 -87.57 0.310037 7.9651
8.33200000 0.310168 -3.138 0.950680 -87.60 0.950680 -87.60 0.310165 7.9359
8.33400000 0.310295 -3.161 0.950638 -87.63 0.950638 -87.63 0.310292 7.9067
8.33600000 0.310423 -3.184 0.950596 -87.65 0.950596 -87.65 0.310420 7.8775
8.33800000 0.310551 -3.207 0.950555 -87.68 0.950555 -87.68 0.310548 7.8483
8.34000000 0.310679 -3.230 0.950513 -87.71 0.950513 -87.71 0.310676 7.8190
8.34200000 0.310807 -3.253 0.950471 -87.73 0.950471 -87.73 0.310804 7.7896
8.34400000 0.310935 -3.276 0.950429 -87.76 0.950429 -87.76 0.310932 7.7602
8.34600000 0.311063 -3.299 0.950387 -87.78 0.950387 -87.78 0.311060 7.7308
8.34800000 0.311191 -3.322 0.950345 -87.81 0.950345 -87.81 0.311189 7.7013
8.35000000 0.311320 -3.345 0.950303 -87.84 0.950303 -87.84 0.311317 7.6718
8.35200000 0.311448 -3.368 0.950261 -87.86 0.950261 -87.86 0.311446 7.6422
8.35400000 0.311577 -3.391 0.950219 -87.89 0.950219 -87.89 0.311574 7.6126
8.35600000 0.311706 -3.414 0.950177 -87.92 0.950177 -87.92 0.311703 7.5830
8.35800000 0.311834 -3.437 0.950134 -87.94 0.950134 -87.94 0.311832 7.5533
8.36000000 0.311963 -3.460 0.950092 -87.97 0.950092 -87.97 0.311960 7.5235
8.36200000 0.312092 -3.482 0.950050 -87.99 0.950050 -87.99 0.312089 7.4937
8.36400000 0.312221 -3.505 0.950007 -88.02 0.950007 -88.02 0.312218 7.4639
8.36600000 0.312350 -3.528 0.949965 -88.05 0.949965 -88.05 0.312348 7.4340
8.36800000 0.312480 -3.551 0.949922 -88.07 0.949922 -88.07 0.312477 7.4040
8.37000000 0.312609 -3.574 0.949880 -88.10 0.949880 -88.10 0.312606 7.3741
8.37200000 0.312738 -3.596 0.949837 -88.13 0.949837 -88.13 0.312736 7.3440
8.37400000 0.312868 -3.619 0.949795 -88.15 0.949795 -88.15 0.312865 7.3139
8.37600000 0.312998 -3.642 0.949752 -88.18 0.949752 -88.18 0.312995 7.2838
8.37800000 0.313127 -3.664 0.949709 -88.21 0.949709 -88.21 0.313125 7.2536
8.38000000 0.313257 -3.687 0.949666 -88.23 0.949666 -88.23 0.313255 7.2234
8.38200000 0.313387 -3.710 0.949623 -88.26 0.949623 -88.26 0.313384 7.1931
8.38400000 0.313517 -3.732 0.949580 -88.28 0.949580 -88.28 0.313515 7.1627
8.38600000 0.313647 -3.755 0.949537 -88.31 0.949537 -88.31 0.313645 7.1324
8.38800000 0.313778 -3.778 0.949494 -88.34 0.949494 -88.34 0.313775 7.1019
8.39000000 0.313908 -3.800 0.949451 -88.36 0.949451 -88.36 0.313905 7.0714
8.39200000 0.314038 -3.823 0.949408 -88.39 0.949408 -88.39 0.314036 7.0409
8.39400000 0.314169 -3.845 0.949365 -88.42 0.949365 -88.42 0.314166 7.0103
8.39600000 0.314300 -3.868 0.949322 -88.44 0.949322 -88.44 0.314297 6.9796
8.39800000 0.314430 -3.890 0.949278 -88.47 0.949278 -88.47 0.314428 6.9489
8.40000000 0.314561 -3.913 0.949235 -88.50 0.949235 -88.50 0.314559 6.9181
8.40200000 0.314692 -3.935 0.949192 -88.52 0.949192 -88.52 0.314690 6.8873
8.40400000 0.314823 -3.958 0.949148 -88.55 0.949148 -88.55 0.314821 6.8564
8.40600000 0.314954 -3.980 0.949105 -88.58 0.949105 -88.58 0.314952 6.8255
8.40800000 0.315086 -4.003 0.949061 -88.60 0.949061 -88.60 0.315083 6.7945
8.41000000 0.315217 -4.025 0.949017 -88.63 0.949017 -88.63 0.315215 6.7634
8.41200000 0.315349 -4.047 0.948974 -88.66 0.948974 -88.66 0.315346 6.7323
8.41400000 0.315480 -4.070 0.948930 -88.68 0.948930 -88.68 0.315478 6.7011
8.41600000 0.315612 -4.092 0.948886 -88.71 0.948886 -88.71 0.315609 6.6699
8.41800000 0.315744 -4.114 0.948842 -88.74 0.948842 -88.74 0.315741 6.6386
8.42000000 0.315876 -4.137 0.948798 -88.76 0.948798 -88.76 0.315873 6.6073
8.42200000 0.316008 -4.159 0.948754 -88.79 0.948754 -88.79 0.316005 6.5759
8.42400000 0.316140 -4.181 0.948710 -88.82 0.948710 -88.82 0.316137 6.5444
8.42600000 0.316272 -4.203 0.948666 -88.84 0.948666 -88.84 0.316270 6.5128
8.42800000 0.316405 -4.225 0.948622 -88.87 0.948622 -88.87 0.316402 6.4812
8.43000000 0.316537 -4.248 0.948578 -88.90 0.948578 -88.90 0.316535 6.4496
8.43200000 0.316670 -4.270 0.948534 -88.93 0.948534 -88.93 0.316667 6.4179
8.43400000 0.316802 -4.292 0.948489 -88.95 0.948489 -88.95 0.316800 6.3861
8.43600000 0.316935 -4.314 0.948445 -88.98 0.948445 -88.98 0.316933 6.3542
8.43800000 0.317068 -4.336 0.948400 -89.01 0.948400 -89.01 0.317066 6.3223
8.44000000 0.317201 -4.358 0.948356 -89.03 0.948356 -89.03 0.317199 6.2903
8.44200000 0.317335 -4.380 0.948311 -89.06 0.948311 -89.06 0.317332 6.2582
8.44400000 0.317468 -4.402 0.948267 -89.09 0.948267 -89.09 0.317465 6.2261
8.44600000 0.317601 -4.424 0.948222 -89.11 0.948222 -89.11 0.317599 6.1939
8.44800000 0.317735 -4.446 0.948177 -89.14 0.948177 -89.14 0.317733 6.1617
8.45000000 0.317869 -4.468 0.948132 -89.17 0.948132 -89.17 0.317866 6.1293
8.45200000 0.318002 -4.490 0.948088 -89.20 0.948088 -89.20 0.318000 6.0969
8.45400000 0.318136 -4.511 0.948043 -89.22 0.948043 -89.22 0.318134 6.0645
8.45600000 0.318270 -4.533 0.947998 -89.25 0.947998 -89.25 0.318268 6.0319
8.45800000 0.318405 -4.555 0.947953 -89.28 0.947953 -89.28 0.318402 5.9993
8.46000000 0.318539 -4.577 0.947907 -89.30 0.947907 -89.30 0.318537 5.9666
8.46200000 0.318673 -4.599 0.947862 -89.33 0.947862 -89.33 0.318671 5.9338
8.46400000 0.318808 -4.620 0.947817 -89.36 0.947817 -89.36 0.318806 5.9010
8.46600000 0.318943 -4.642 0.947772 -89.39 0.947772 -89.39 0.318940 5.8681
8.46800000 0.319077 -4.664 0.947726 -89.41 0.947726 -89.41 0.319075 5.8351
8.47000000 0.319212 -4.685 0.947681 -89.44 0.947681 -89.44 0.319210 5.8020
8.47200000 0.319347 -4.707 0.947635 -89.47 0.947635 -89.47 0.319345 5.7689
8.47400000 0.319483 -4.728 0.947590 -89.50 0.947590 -89.50 0.319480 5.7357
8.47600000 0.319618 -4.750 0.947544 -89.52 0.947544 -89.52 0.319616 5.7023
8.47800000 0.319753 -4.771 0.947498 -89.55 0.947498 -89.55 0.319751 5.6690
8.48000000 0.319889 -4.793 0.947453 -89.58 0.947453 -89.58 0.319887 5.6355
8.48200000 0.320025 -4.814 0.947407 -89.61 0.947407 -89.61 0.320023 5.6019
8.48400000 0.320161 -4.836 0.947361 -89.63 0.947361 -89.63 0.320158 5.5683
8.48600000 0.320297 -4.857 0.947315 -89.66 0.947315 -89.66 0.320295 5.5346
8.48800000 0.320433 -4.878 0.947269 -89.69 0.947269 -89.69 0.320431 5.5008
8.49000000 0.320569 -4.900 0.947223 -89.72 0.947223 -89.72 0.320567 5.4669
8.49200000 0.320706 -4.921 0.947176 -89.74 0.947176 -89.74 0.320703 5.4329
8.49400000 0.320842 -4.942 0.947130 -89.77 0.947130 -89.77 0.320840 5.3989
8.49600000 0.320979 -4.963 0.947084 -89.80 0.947084 -89.80 0.320977 5.3647
8.49800000 0.321116 -4.984 0.947037 -89.83 0.947037 -89.83 0.321114 5.3305
8.50000000 0.321253 -5.006 0.946991 -89.85 0.946991 -89.85 0.321251 5.2961
8.50200000 0.321390 -5.027 0.946944 -89.88 0.946944 -89.88 0.321388 5.2617
8.50400000 0.321527 -5.048 0.946898 -89.91 0.946898 -89.91 0.321525 5.2272
8.50600000 0.321665 -5.069 0.946851 -89.94 0.946851 -89.94 0.321663 5.1926
8.50800000 0.321802 -5.090 0.946804 -89.97 0.946804 -89.97 0.321800 5.1579
8.51000000 0.321940 -5.111 0.946757 -89.99 0.946757 -89.99 0.321938 5.1231
8.51200000 0.322078 -5.131 0.946711 -90.02 0.946711 -90.02 0.322076 5.0882
8.51400000 0.322216 -5.152 0.946664 -90.05 0.946664 -90.05 0.322214 5.0532
8.51600000 0.322354 -5.173 0.946616 -90.08 0.946616 -90.08 0.322352 5.0181
8.51800000 0.322493 -5.194 0.946569 -90.11 0.946569 -90.11 0.322491 4.9829
8.52000000 0.322631 -5.215 0.946522 -90.13 0.946522 -90.13 0.322629 4.9476
8.52200000 0.322770 -5.235 0.946475 -90.16 0.946475 -90.16 0.322768 4.9123
8.52400000 0.322909 -5.256 0.946427 -90.19 0.946427 -90.19 0.322907 4.8768
8.52600000 0.323048 -5.277 0.946380 -90.22 0.946380 -90.22 0.323046 4.8412
8.52800000 0.323187 -5.297 0.946332 -90.25 0.946332 -90.25 0.323185 4.8055
8.53000000 0.323326 -5.318 0.946285 -90.27 0.946285 -90.27 0.323324 4.7696
8.53200000 0.323466 -5.338 0.946237 -90.30 0.946237 -90.30 0.323464 4.7337
8.53400000 0.323606 -5.359 0.946189 -90.33 0.946189 -90.33 0.323603 4.6977
8.53600000 0.323745 -5.379 0.946142 -90.36 0.946142 -90.36 0.323743 4.6615
8.53800000 0.323885 -5.399 0.946094 -90.39 0.946094 -90.39 0.323883 4.6253
8.54000000 0.324026 -5.420 0.946046 -90.42 0.946046 -90.42 0.324024 4.5889
8.54200000 0.324166 -5.440 0.945997 -90.44 0.945997 -90.44 0.324164 4.5524
8.54400000 0.324306 -5.460 0.945949 -90.47 0.945949 -90.47 0.324304 4.5158
8.54600000 0.324447 -5.480 0.945901 -90.50 0.945901 -90.50 0.324445 4.4791
8.54800000 0.324588 -5.500 0.945853 -90.53 0.945853 -90.53 0.324586 4.4423
8.55000000 0.324729 -5.520 0.945804 -90.56 0.945804 -90.56 0.324727 4.4053
8.55200000 0.324870 -5.540 0.945756 -90.59 0.945756 -90.59 0.324868 4.3683
8.55400000 0.325012 -5.560 0.945707 -90.61 0.945707 -90.61 0.325010 4.3311
8.55600000 0.325153 -5.580 0.945658 -90.64 0.945658 -90.64 0.325151 4.2937
8.55800000 0.325295 -5.600 0.945610 -90.67 0.945610 -90.67 0.325293 4.2563
8.56000000 0.325437 -5.620 0.945561 -90.70 0.945561 -90.70 0.325435 4.2187
8.56200000 0.325579 -5.640 0.945512 -90.73 0.945512 -90.73 0.325577 4.1810
8.56400000 0.325722 -5.659 0.945463 -90.76 0.945463 -90.76 0.325720 4.1431
8.56600000 0.325864 -5.679 0.945414 -90.79 0.945414 -90.79 0.325862 4.1052
8.56800000 0.326007 -5.699 0.945364 -90.82 0.945364 -90.82 0.326005 4.0671
8.57000000 0.326150 -5.718 0.945315 -90.84 0.945315 -90.84 0.326148 4.0288
8.57200000 0.326293 -5.738 0.945266 -90.87 0.945266 -90.87 0.326291 3.9904
8.57400000 0.326437 -5.757 0.945216 -90.90 0.945216 -90.90 0.326435 3.9519
8.57600000 0.326580 -5.776 0.945166 -90.93 0.945166 -90.93 0.326578 3.9132
8.57800000 0.326724 -5.796 0.945117 -90.96 0.945117 -90.96 0.326722 3.8744
8.58000000 0.326868 -5.815 0.945067 -90.99 0.945067 -90.99 0.326866 3.8355
8.58200000 0.327012 -5.834 0.945017 -91.02 0.945017 -91.02 0.327010 3.7964
8.58400000 0.327157 -5.853 0.944967 -91.05 0.944967 -91.05 0.327155 3.7571
8.58600000 0.327301 -5.872 0.944917 -91.08 0.944917 -91.08 0.327299 3.7177
8.58800000 0.327446 -5.891 0.944867 -91.11 0.944867 -91.11 0.327444 3.6782
8.59000000 0.327591 -5.910 0.944816 -91.14 0.944816 -91.14 0.327589 3.6385
8.59200000 0.327737 -5.929 0.944766 -91.17 0.944766 -91.17 0.327735 3.5986
8.59400000 0.327882 -5.948 0.944715 -91.19 0.944715 -91.19 0.327880 3.5586
8.59600000 0.328028 -5.966 0.944665 -91.22 0.944665 -91.22 0.328026 3.5184
8.59800000 0.328174 -5.985 0.944614 -91.25 0.944614 -91.25 0.328172 3.4781
8.60000000 0.328320 -6.004 0.944563 -91.28 0.944563 -91.28 0.328318 3.4375
8.60200000 0.328467 -6.022 0.944512 -91.31 0.944512 -91.31 0.328465 3.3969
8.60400000 0.328613 -6.041 0.944461 -91.34 0.944461 -91.34 0.328611 3.3560
8.60600000 0.328760 -6.059 0.944410 -91.37 0.944410 -91.37 0.328758 3.3150
8.60800000 0.328907 -6.077 0.944359 -91.40 0.944359 -91.40 0.328905 3.2738
8.61000000 0.329055 -6.095 0.944308 -91.43 0.944308 -91.43 0.329053 3.2324
8.61200000 0.329203 -6.113 0.944256 -91.46 0.944256 -91.46 0.329201 3.1908
8.61400000 0.329351 -6.132 0.944204 -91.49 0.944204 -91.49 0.329349 3.1491
8.61600000 0.329499 -6.149 0.944153 -91.52 0.944153 -91.52 0.329497 3.1072
8.61800000 0.329647 -6.167 0.944101 -91.55 0.944101 -91.55 0.329645 3.0650
8.62000000 0.329796 -6.185 0.944049 -91.58 0.944049 -91.58 0.329794 3.0227
8.62200000 0.329945 -6.203 0.943997 -91.61 0.943997 -91.61 0.329943 2.9802
8.62400000 0.330094 -6.221 0.943945 -91.64 0.943945 -91.64 0.330092 2.9375
8.62600000 0.330244 -6.238 0.943892 -91.67 0.943892 -91.67 0.330242 2.8946
8.62800000 0.330394 -6.256 0.943840 -91.70 0.943840 -91.70 0.330392 2.8516
8.63000000 0.330544 -6.273 0.943787 -91.73 0.943787 -91.73 0.330542 2.8082
8.63200000 0.330694 -6.290 0.943734 -91.76 0.943734 -91.76 0.330692 2.7647
8.63400000 0.330845 -6.307 0.943682 -91.79 0.943682 -91.79 0.330843 2.7210
8.63600000 0.330996 -6.325 0.943629 -91.82 0.943629 -91.82 0.330994 2.6771
8.63800000 0.331147 -6.342 0.943576 -91.85 0.943576 -91.85 0.331145 2.6329
8.64000000 0.331299 -6.359 0.943522 -91.88 0.943522 -91.88 0.331297 2.5886
8.64200000 0.331451 -6.375 0.943469 -91.92 0.943469 -91.92 0.331448 2.5440
8.64400000 0.331603 -6.392 0.943415 -91.95 0.943415 -91.95 0.331601 2.4991
8.64600000 0.331755 -6.409 0.943362 -91.98 0.943362 -91.98 0.331753 2.4541
8.64800000 0.331908 -6.425 0.943308 -92.01 0.943308 -92.01 0.331906 2.4088
8.65000000 0.332061 -6.442 0.943254 -92.04 0.943254 -92.04 0.332059 2.3633
8.65200000 0.332215 -6.458 0.943200 -92.07 0.943200 -92.07 0.332213 2.3175
8.65400000 0.332369 -6.474 0.943146 -92.10 0.943146 -92.10 0.332366 2.2715
8.65600000 0.332523 -6.490 0.943091 -92.13 0.943091 -92.13 0.332521 2.2252
8.65800000 0.332677 -6.506 0.943037 -92.16 0.943037 -92.16 0.332675 2.1787
8.66000000 0.332832 -6.522 0.942982 -92.20 0.942982 -92.20 0.332830 2.1319
8.66200000 0.332987 -6.538 0.942928 -92.23 0.942928 -92.23 0.332985 2.0849
8.66400000 0.333143 -6.554 0.942873 -92.26 0.942873 -92.26 0.333141 2.0376
8.66600000 0.333299 -6.569 0.942817 -92.29 0.942817 -92.29 0.333297 1.9900
8.66800000 0.333455 -6.585 0.942762 -92.32 0.942762 -92.32 0.333453 1.9421
8.67000000 0.333612 -6.600 0.942707 -92.35 0.942707 -92.35 0.333610 1.8940
8.67200000 0.333769 -6.615 0.942651 -92.38 0.942651 -92.38 0.333767 1.8456
8.67400000 0.333926 -6.630 0.942595 -92.42 0.942595 -92.42 0.333924 1.7969
8.67600000 0.334084 -6.645 0.942539 -92.45 0.942539 -92.45 0.334082 1.7479
8.67800000 0.334242 -6.660 0.942483 -92.48 0.942483 -92.48 0.334240 1.6986
8.68000000 0.334401 -6.674 0.942427 -92.51 0.942427 -92.51 0.334399 1.6490
8.68200000 0.334560 -6.689 0.942370 -92.54 0.942370 -92.54 0.334558 1.5991
8.68400000 0.334720 -6.703 0.942314 -92.58 0.942314 -92.58 0.334717 1.5489
8.68600000 0.334879 -6.718 0.942257 -92.61 0.942257 -92.61 0.334877 1.4983
8.68800000 0.335040 -6.732 0.942200 -92.64 0.942200 -92.64 0.335037 1.4474
8.69000000 0.335201 -6.746 0.942143 -92.67 0.942143 -92.67 0.335198 1.3962
8.69200000 0.335362 -6.760 0.942085 -92.71 0.942085 -92.71 0.335359 1.3447
8.69400000 0.335524 -6.773 0.942028 -92.74 0.942028 -92.74 0.335521 1.2928
8.69600000 0.335686 -6.787 0.941970 -92.77 0.941970 -92.77 0.335683 1.2406
8.69800000 0.335848 -6.800 0.941912 -92.81 0.941912 -92.81 0.335846 1.1880
8.70000000 0.336012 -6.813 0.941854 -92.84 0.941854 -92.84 0.336009 1.1351
8.70200000 0.336175 -6.826 0.941795 -92.87 0.941795 -92.87 0.336173 1.0818
8.70400000 0.336339 -6.839 0.941737 -92.91 0.941737 -92.91 0.336337 1.0281
8.70600000 0.336504 -6.852 0.941678 -92.94 0.941678 -92.94 0.336501 0.9740
8.70800000 0.336669 -6.864 0.941619 -92.97 0.941619 -92.97 0.336666 0.9196
8.71000000 0.336835 -6.877 0.941559 -93.01 0.941559 -93.01 0.336832 0.8647
8.71200000 0.337001 -6.889 0.941500 -93.04 0.941500 -93.04 0.336998 0.8095
8.71400000 0.337168 -6.901 0.941440 -93.07 0.941440 -93.07 0.337165 0.7538
8.71600000 0.337335 -6.913 0.941380 -93.11 0.941380 -93.11 0.337332 0.6977
8.71800000 0.337503 -6.924 0.941320 -93.14 0.941320 -93.14 0.337500 0.6412
8.72000000 0.337671 -6.936 0.941259 -93.18 0.941259 -93.18 0.337669 0.5843
8.72200000 0.337841 -6.947 0.941199 -93.21 0.941199 -93.21 0.337838 0.5269
8.72400000 0.338010 -6.958 0.941138 -93.24 0.941138 -93.24 0.338007 0.4691
8.72600000 0.338181 -6.969 0.941077 -93.28 0.941077 -93.28 0.338178 0.4108
8.72800000 0.338351 -6.980 0.941015 -93.31 0.941015 -93.31 0.338349 0.3520
8.73000000 0.338523 -6.990 0.940953 -93.35 0.940953 -93.35 0.338520 0.2928
8.73200000 0.338695 -7.000 0.940891 -93.38 0.940891 -93.38 0.338692 0.2331
8.73400000 0.338868 -7.010 0.940829 -93.42 0.940829 -93.42 0.338865 0.1728
8.73600000 0.339042 -7.020 0.940767 -93.45 0.940767 -93.45 0.339039 0.1121
8.73800000 0.339216 -7.030 0.940704 -93.49 0.940704 -93.49 0.339213 0.0508
8.74000000 0.339391 -7.039 0.940641 -93.52 0.940641 -93.52 0.339388 -0.011
8.74200000 0.339567 -7.048 0.940577 -93.56 0.940577 -93.56 0.339564 -0.073
8.74400000 0.339743 -7.057 0.940513 -93.60 0.940513 -93.60 0.339740 -0.136
8.74600000 0.339920 -7.066 0.940449 -93.63 0.940449 -93.63 0.339917 -0.200
8.74800000 0.340098 -7.074 0.940385 -93.67 0.940385 -93.67 0.340095 -0.264
8.75000000 0.340277 -7.082 0.940320 -93.71 0.940320 -93.71 0.340274 -0.328
8.75200000 0.340457 -7.090 0.940255 -93.74 0.940255 -93.74 0.340453 -0.393
8.75400000 0.340637 -7.097 0.940190 -93.78 0.940190 -93.78 0.340634 -0.459
8.75600000 0.340818 -7.105 0.940124 -93.82 0.940124 -93.82 0.340815 -0.526
8.75800000 0.341001 -7.112 0.940058 -93.85 0.940058 -93.85 0.340997 -0.593
8.76000000 0.341184 -7.118 0.939991 -93.89 0.939991 -93.89 0.341180 -0.660
8.76200000 0.341368 -7.125 0.939925 -93.93 0.939925 -93.93 0.341364 -0.729
8.76400000 0.341553 -7.131 0.939857 -93.96 0.939857 -93.96 0.341549 -0.798
8.76600000 0.341738 -7.137 0.939790 -94.00 0.939790 -94.00 0.341735 -0.868
8.76800000 0.341925 -7.142 0.939722 -94.04 0.939722 -94.04 0.341921 -0.938
8.77000000 0.342113 -7.147 0.939653 -94.08 0.939653 -94.08 0.342109 -1.009
8.77200000 0.342302 -7.152 0.939585 -94.12 0.939585 -94.12 0.342298 -1.081
8.77400000 0.342492 -7.157 0.939515 -94.16 0.939515 -94.16 0.342488 -1.154
8.77600000 0.342683 -7.161 0.939446 -94.19 0.939446 -94.19 0.342679 -1.228
8.77800000 0.342875 -7.164 0.939376 -94.23 0.939376 -94.23 0.342871 -1.302
8.78000000 0.343068 -7.168 0.939305 -94.27 0.939305 -94.27 0.343064 -1.377
8.78170586 0.343234 -7.171 0.939244 -94.31 0.939244 -94.31 0.343230 -1.442
8.78200000 0.343263 -7.171 0.939234 -94.31 0.939234 -94.31 0.343258 -1.453
8.78400000 0.343458 -7.174 0.939162 -94.35 0.939162 -94.35 0.343454 -1.530