! Sonnet Data File
! From: emgraph Version : 16.52
! From Project: Resonator2
! Data is De-embedded 
! Data File Written: 10/09/2017 23:05:25
!< HDATE 10/09/2017 14:49:56
!< MDATE 10/09/2017 18:05:28
!< PARAMS
!< gap = 26.0
!< Length = 400.0
!< Pwid1 = 2000.0
!< Pwid2 = 2000.0
!< Airgap = 24.0
!< Width = 40.0
!< END PARAMS
# GHZ S MA R 45.40000
8.85000000 0.025154 -0.563 0.999679 -73.43 0.999679 -73.43 0.025157 33.706
!< P1 F=8.85 Eeff=(5.09005347 -2.2131e-5) Z0=(45.4117489 1.00331e-4) R=0.0 C=0.0 
!< P2 F=8.85 Eeff=(5.09005347 -2.2131e-5) Z0=(45.4117489 1.00331e-4) R=0.0 C=0.0 
8.85020000 0.025172 -0.594 0.999678 -73.43 0.999678 -73.43 0.025175 33.731
8.85040000 0.025190 -0.624 0.999678 -73.43 0.999678 -73.43 0.025194 33.755
8.85060000 0.025208 -0.655 0.999677 -73.44 0.999677 -73.44 0.025212 33.780
8.85080000 0.025227 -0.686 0.999677 -73.44 0.999677 -73.44 0.025231 33.805
8.85100000 0.025245 -0.717 0.999676 -73.44 0.999676 -73.44 0.025249 33.830
8.85120000 0.025264 -0.748 0.999676 -73.45 0.999676 -73.45 0.025268 33.856
8.85140000 0.025283 -0.780 0.999675 -73.45 0.999675 -73.45 0.025287 33.881
8.85160000 0.025302 -0.811 0.999675 -73.45 0.999675 -73.45 0.025306 33.907
8.85180000 0.025321 -0.843 0.999674 -73.46 0.999674 -73.46 0.025325 33.932
8.85200000 0.025341 -0.875 0.999674 -73.46 0.999674 -73.46 0.025345 33.958
8.85220000 0.025360 -0.907 0.999673 -73.46 0.999673 -73.46 0.025364 33.984
8.85240000 0.025380 -0.940 0.999673 -73.46 0.999673 -73.46 0.025384 34.011
8.85260000 0.025400 -0.972 0.999672 -73.47 0.999672 -73.47 0.025404 34.037
8.85280000 0.025420 -1.005 0.999672 -73.47 0.999672 -73.47 0.025424 34.064
8.85300000 0.025440 -1.038 0.999671 -73.47 0.999671 -73.47 0.025444 34.090
8.85320000 0.025460 -1.071 0.999671 -73.48 0.999671 -73.48 0.025464 34.117
8.85340000 0.025481 -1.105 0.999670 -73.48 0.999670 -73.48 0.025485 34.144
8.85360000 0.025501 -1.138 0.999669 -73.48 0.999669 -73.48 0.025506 34.172
8.85380000 0.025522 -1.172 0.999669 -73.49 0.999669 -73.49 0.025526 34.199
8.85400000 0.025543 -1.206 0.999668 -73.49 0.999668 -73.49 0.025547 34.227
8.85420000 0.025564 -1.240 0.999668 -73.49 0.999668 -73.49 0.025569 34.254
8.85440000 0.025586 -1.274 0.999667 -73.50 0.999667 -73.50 0.025590 34.282
8.85460000 0.025607 -1.309 0.999667 -73.50 0.999667 -73.50 0.025612 34.311
8.85480000 0.025629 -1.344 0.999666 -73.50 0.999666 -73.50 0.025633 34.339
8.85500000 0.025651 -1.379 0.999665 -73.50 0.999665 -73.50 0.025655 34.368
8.85520000 0.025673 -1.414 0.999665 -73.51 0.999665 -73.51 0.025677 34.396
8.85540000 0.025695 -1.449 0.999664 -73.51 0.999664 -73.51 0.025700 34.425
8.85560000 0.025718 -1.485 0.999664 -73.51 0.999664 -73.51 0.025722 34.454
8.85580000 0.025740 -1.521 0.999663 -73.52 0.999663 -73.52 0.025745 34.484
8.85600000 0.025763 -1.557 0.999662 -73.52 0.999662 -73.52 0.025768 34.513
8.85620000 0.025786 -1.593 0.999662 -73.52 0.999662 -73.52 0.025791 34.543
8.85640000 0.025810 -1.629 0.999661 -73.53 0.999661 -73.53 0.025814 34.573
8.85660000 0.025833 -1.666 0.999661 -73.53 0.999661 -73.53 0.025837 34.603
8.85680000 0.025857 -1.703 0.999660 -73.53 0.999660 -73.53 0.025861 34.633
8.85700000 0.025880 -1.740 0.999659 -73.54 0.999659 -73.54 0.025885 34.664
8.85720000 0.025905 -1.778 0.999659 -73.54 0.999659 -73.54 0.025909 34.694
8.85740000 0.025929 -1.815 0.999658 -73.54 0.999658 -73.54 0.025933 34.725
8.85760000 0.025953 -1.853 0.999657 -73.55 0.999657 -73.55 0.025958 34.757
8.85780000 0.025978 -1.892 0.999657 -73.55 0.999657 -73.55 0.025983 34.788
8.85800000 0.026003 -1.930 0.999656 -73.55 0.999656 -73.55 0.026007 34.819
8.85820000 0.026028 -1.969 0.999655 -73.56 0.999655 -73.56 0.026033 34.851
8.85840000 0.026053 -2.008 0.999655 -73.56 0.999655 -73.56 0.026058 34.883
8.85860000 0.026079 -2.047 0.999654 -73.56 0.999654 -73.56 0.026084 34.915
8.85880000 0.026105 -2.086 0.999653 -73.57 0.999653 -73.57 0.026110 34.948
8.85900000 0.026131 -2.126 0.999652 -73.57 0.999652 -73.57 0.026136 34.981
8.85920000 0.026157 -2.166 0.999652 -73.57 0.999652 -73.57 0.026162 35.014
8.85940000 0.026184 -2.206 0.999651 -73.58 0.999651 -73.58 0.026189 35.047
8.85960000 0.026211 -2.246 0.999650 -73.58 0.999650 -73.58 0.026216 35.080
8.85980000 0.026238 -2.287 0.999650 -73.58 0.999650 -73.58 0.026243 35.114
8.86000000 0.026265 -2.328 0.999649 -73.59 0.999649 -73.59 0.026270 35.148
8.86020000 0.026293 -2.369 0.999648 -73.59 0.999648 -73.59 0.026298 35.182
8.86040000 0.026321 -2.411 0.999647 -73.60 0.999647 -73.60 0.026325 35.216
8.86060000 0.026349 -2.453 0.999647 -73.60 0.999647 -73.60 0.026354 35.251
8.86080000 0.026377 -2.495 0.999646 -73.60 0.999646 -73.60 0.026382 35.285
8.86100000 0.026406 -2.537 0.999645 -73.61 0.999645 -73.61 0.026411 35.320
8.86120000 0.026435 -2.580 0.999644 -73.61 0.999644 -73.61 0.026440 35.356
8.86140000 0.026464 -2.623 0.999643 -73.61 0.999643 -73.61 0.026469 35.391
8.86160000 0.026493 -2.666 0.999643 -73.62 0.999643 -73.62 0.026498 35.427
8.86180000 0.026523 -2.710 0.999642 -73.62 0.999642 -73.62 0.026528 35.463
8.86200000 0.026553 -2.754 0.999641 -73.62 0.999641 -73.62 0.026558 35.500
8.86220000 0.026583 -2.798 0.999640 -73.63 0.999640 -73.63 0.026589 35.536
8.86240000 0.026614 -2.843 0.999639 -73.63 0.999639 -73.63 0.026619 35.573
8.86260000 0.026645 -2.888 0.999638 -73.64 0.999638 -73.64 0.026650 35.610
8.86280000 0.026676 -2.933 0.999637 -73.64 0.999637 -73.64 0.026682 35.648
8.86300000 0.026708 -2.978 0.999637 -73.64 0.999637 -73.64 0.026713 35.686
8.86320000 0.026740 -3.024 0.999636 -73.65 0.999636 -73.65 0.026745 35.724
8.86340000 0.026772 -3.070 0.999635 -73.65 0.999635 -73.65 0.026777 35.762
8.86360000 0.026805 -3.116 0.999634 -73.65 0.999634 -73.65 0.026810 35.800
8.86380000 0.026838 -3.163 0.999633 -73.66 0.999633 -73.66 0.026843 35.839
8.86400000 0.026871 -3.210 0.999632 -73.66 0.999632 -73.66 0.026876 35.879
8.86420000 0.026904 -3.258 0.999631 -73.67 0.999631 -73.67 0.026910 35.918
8.86440000 0.026938 -3.306 0.999630 -73.67 0.999630 -73.67 0.026944 35.958
8.86460000 0.026973 -3.354 0.999629 -73.67 0.999629 -73.67 0.026978 35.998
8.86480000 0.027007 -3.402 0.999628 -73.68 0.999628 -73.68 0.027013 36.038
8.86500000 0.027042 -3.451 0.999627 -73.68 0.999627 -73.68 0.027048 36.079
8.86520000 0.027078 -3.500 0.999626 -73.69 0.999626 -73.69 0.027083 36.120
8.86540000 0.027113 -3.550 0.999625 -73.69 0.999625 -73.69 0.027119 36.161
8.86560000 0.027150 -3.600 0.999624 -73.69 0.999624 -73.69 0.027155 36.203
8.86580000 0.027186 -3.650 0.999623 -73.70 0.999623 -73.70 0.027192 36.245
8.86600000 0.027223 -3.701 0.999622 -73.70 0.999622 -73.70 0.027229 36.287
8.86620000 0.027260 -3.752 0.999621 -73.71 0.999621 -73.71 0.027266 36.330
8.86640000 0.027298 -3.804 0.999620 -73.71 0.999620 -73.71 0.027304 36.372
8.86660000 0.027336 -3.856 0.999619 -73.72 0.999619 -73.72 0.027342 36.416
8.86680000 0.027375 -3.908 0.999618 -73.72 0.999618 -73.72 0.027381 36.459
8.86700000 0.027414 -3.960 0.999617 -73.72 0.999617 -73.72 0.027420 36.503
8.86720000 0.027453 -4.014 0.999615 -73.73 0.999615 -73.73 0.027460 36.548
8.86740000 0.027493 -4.067 0.999614 -73.73 0.999614 -73.73 0.027500 36.592
8.86760000 0.027534 -4.121 0.999613 -73.74 0.999613 -73.74 0.027540 36.637
8.86780000 0.027575 -4.175 0.999612 -73.74 0.999612 -73.74 0.027581 36.683
8.86800000 0.027616 -4.230 0.999611 -73.75 0.999611 -73.75 0.027622 36.728
8.86820000 0.027658 -4.285 0.999610 -73.75 0.999610 -73.75 0.027664 36.774
8.86840000 0.027700 -4.341 0.999608 -73.75 0.999608 -73.75 0.027706 36.821
8.86860000 0.027743 -4.397 0.999607 -73.76 0.999607 -73.76 0.027749 36.868
8.86880000 0.027786 -4.454 0.999606 -73.76 0.999606 -73.76 0.027792 36.915
8.86900000 0.027830 -4.511 0.999605 -73.77 0.999605 -73.77 0.027836 36.963
8.86920000 0.027874 -4.568 0.999603 -73.77 0.999603 -73.77 0.027881 37.011
8.86940000 0.027919 -4.626 0.999602 -73.78 0.999602 -73.78 0.027925 37.059
8.86960000 0.027964 -4.684 0.999601 -73.78 0.999601 -73.78 0.027971 37.108
8.86980000 0.028010 -4.743 0.999599 -73.79 0.999599 -73.79 0.028017 37.157
8.87000000 0.028056 -4.802 0.999598 -73.79 0.999598 -73.79 0.028063 37.207
8.87020000 0.028103 -4.862 0.999597 -73.80 0.999597 -73.80 0.028110 37.257
8.87040000 0.028151 -4.923 0.999595 -73.80 0.999595 -73.80 0.028158 37.307
8.87060000 0.028199 -4.983 0.999594 -73.81 0.999594 -73.81 0.028206 37.358
8.87080000 0.028248 -5.045 0.999592 -73.81 0.999592 -73.81 0.028255 37.409
8.87100000 0.028297 -5.107 0.999591 -73.82 0.999591 -73.82 0.028305 37.461
8.87120000 0.028347 -5.169 0.999589 -73.82 0.999589 -73.82 0.028355 37.513
8.87140000 0.028398 -5.232 0.999588 -73.83 0.999588 -73.83 0.028405 37.566
8.87160000 0.028449 -5.295 0.999586 -73.83 0.999586 -73.83 0.028457 37.619
8.87180000 0.028501 -5.359 0.999585 -73.84 0.999585 -73.84 0.028509 37.673
8.87200000 0.028554 -5.424 0.999583 -73.84 0.999583 -73.84 0.028561 37.727
8.87220000 0.028607 -5.489 0.999581 -73.85 0.999581 -73.85 0.028615 37.781
8.87240000 0.028661 -5.555 0.999580 -73.85 0.999580 -73.85 0.028669 37.836
8.87254673 0.028701 -5.603 0.999579 -73.86 0.999579 -73.86 0.028709 37.877
8.87260000 0.028716 -5.621 0.999578 -73.86 0.999578 -73.86 0.028724 37.891
8.87280000 0.028771 -5.688 0.999577 -73.86 0.999577 -73.86 0.028779 37.947
8.87300000 0.028827 -5.755 0.999575 -73.87 0.999575 -73.87 0.028835 38.004
8.87320000 0.028884 -5.823 0.999573 -73.87 0.999573 -73.87 0.028892 38.061
8.87327635 0.028906 -5.849 0.999572 -73.88 0.999572 -73.88 0.028914 38.082
8.87340000 0.028942 -5.891 0.999571 -73.88 0.999571 -73.88 0.028950 38.118
8.87360000 0.029001 -5.961 0.999570 -73.88 0.999570 -73.88 0.029009 38.176
8.87380000 0.029060 -6.030 0.999568 -73.89 0.999568 -73.89 0.029068 38.234
8.87398925 0.029117 -6.097 0.999566 -73.89 0.999566 -73.89 0.029125 38.290
8.87400000 0.029120 -6.101 0.999566 -73.90 0.999566 -73.90 0.029128 38.293
8.87420000 0.029181 -6.172 0.999564 -73.90 0.999564 -73.90 0.029189 38.353
8.87440000 0.029243 -6.244 0.999562 -73.91 0.999562 -73.91 0.029251 38.413
8.87460000 0.029305 -6.316 0.999560 -73.91 0.999560 -73.91 0.029314 38.473
8.87468581 0.029332 -6.347 0.999559 -73.91 0.999559 -73.91 0.029341 38.499
8.87480000 0.029369 -6.389 0.999558 -73.92 0.999558 -73.92 0.029377 38.534
8.87500000 0.029433 -6.463 0.999556 -73.92 0.999556 -73.92 0.029442 38.596
8.87520000 0.029499 -6.537 0.999554 -73.93 0.999554 -73.93 0.029507 38.658
8.87536641 0.029554 -6.600 0.999552 -73.93 0.999552 -73.93 0.029563 38.710
8.87540000 0.029565 -6.612 0.999552 -73.94 0.999552 -73.94 0.029574 38.721
8.87560000 0.029632 -6.688 0.999550 -73.94 0.999550 -73.94 0.029641 38.784
8.87580000 0.029700 -6.765 0.999548 -73.95 0.999548 -73.95 0.029709 38.848
8.87600000 0.029770 -6.842 0.999546 -73.95 0.999546 -73.95 0.029779 38.913
8.87603142 0.029781 -6.854 0.999545 -73.96 0.999545 -73.96 0.029790 38.923
8.87620000 0.029840 -6.920 0.999544 -73.96 0.999544 -73.96 0.029849 38.978
8.87640000 0.029911 -6.999 0.999541 -73.97 0.999541 -73.97 0.029921 39.044
8.87660000 0.029984 -7.078 0.999539 -73.97 0.999539 -73.97 0.029993 39.110
8.87668119 0.030013 -7.110 0.999538 -73.98 0.999538 -73.98 0.030023 39.137
8.87680000 0.030057 -7.158 0.999537 -73.98 0.999537 -73.98 0.030067 39.177
8.87700000 0.030132 -7.239 0.999534 -73.99 0.999534 -73.99 0.030141 39.244
8.87720000 0.030207 -7.321 0.999532 -73.99 0.999532 -73.99 0.030217 39.313
8.87731608 0.030252 -7.369 0.999530 -74.00 0.999530 -74.00 0.030262 39.353
8.87740000 0.030284 -7.404 0.999529 -74.00 0.999529 -74.00 0.030294 39.382
8.87760000 0.030362 -7.487 0.999527 -74.01 0.999527 -74.01 0.030372 39.451
8.87780000 0.030442 -7.571 0.999524 -74.01 0.999524 -74.01 0.030452 39.521
8.87793641 0.030497 -7.629 0.999523 -74.02 0.999523 -74.02 0.030507 39.570
8.87800000 0.030522 -7.656 0.999522 -74.02 0.999522 -74.02 0.030533 39.592
8.87820000 0.030604 -7.742 0.999519 -74.03 0.999519 -74.03 0.030615 39.664
8.87840000 0.030688 -7.829 0.999516 -74.03 0.999516 -74.03 0.030698 39.736
8.87854253 0.030748 -7.891 0.999514 -74.04 0.999514 -74.04 0.030758 39.788
8.87860000 0.030772 -7.917 0.999514 -74.04 0.999514 -74.04 0.030783 39.809
8.87880000 0.030858 -8.005 0.999511 -74.05 0.999511 -74.05 0.030869 39.883
8.87900000 0.030945 -8.095 0.999508 -74.06 0.999508 -74.06 0.030956 39.957
8.87913476 0.031005 -8.156 0.999506 -74.06 0.999506 -74.06 0.031016 40.008
8.87920000 0.031034 -8.185 0.999505 -74.06 0.999505 -74.06 0.031045 40.032
8.87940000 0.031124 -8.277 0.999502 -74.07 0.999502 -74.07 0.031136 40.108
8.87960000 0.031216 -8.369 0.999499 -74.08 0.999499 -74.08 0.031228 40.185
8.87971342 0.031269 -8.422 0.999497 -74.08 0.999497 -74.08 0.031280 40.229
8.87980000 0.031310 -8.462 0.999496 -74.09 0.999496 -74.09 0.031321 40.262
8.88000000 0.031405 -8.556 0.999493 -74.09 0.999493 -74.09 0.031416 40.340
8.88020000 0.031501 -8.651 0.999490 -74.10 0.999490 -74.10 0.031513 40.419
8.88027883 0.031540 -8.689 0.999488 -74.10 0.999488 -74.10 0.031551 40.451
8.88040000 0.031600 -8.748 0.999486 -74.11 0.999486 -74.11 0.031611 40.499
8.88060000 0.031700 -8.845 0.999483 -74.12 0.999483 -74.12 0.031711 40.580
8.88080000 0.031801 -8.943 0.999479 -74.13 0.999479 -74.13 0.031813 40.661
8.88083127 0.031817 -8.959 0.999479 -74.13 0.999479 -74.13 0.031830 40.674
8.88100000 0.031905 -9.043 0.999476 -74.13 0.999476 -74.13 0.031917 40.743
8.88120000 0.032010 -9.143 0.999472 -74.14 0.999472 -74.14 0.032023 40.826
8.88137106 0.032102 -9.230 0.999469 -74.15 0.999469 -74.15 0.032115 40.898
8.88140000 0.032118 -9.245 0.999469 -74.15 0.999469 -74.15 0.032130 40.910
8.88160000 0.032227 -9.347 0.999465 -74.16 0.999465 -74.16 0.032240 40.995
8.88180000 0.032339 -9.451 0.999461 -74.17 0.999461 -74.17 0.032351 41.081
8.88189848 0.032394 -9.503 0.999459 -74.17 0.999459 -74.17 0.032407 41.123
8.88200000 0.032452 -9.556 0.999457 -74.18 0.999457 -74.18 0.032465 41.167
8.88220000 0.032568 -9.662 0.999453 -74.19 0.999453 -74.19 0.032581 41.255
8.88240000 0.032685 -9.769 0.999449 -74.19 0.999449 -74.19 0.032699 41.343
8.88241381 0.032694 -9.777 0.999449 -74.20 0.999449 -74.20 0.032707 41.349
8.88260000 0.032806 -9.878 0.999445 -74.20 0.999445 -74.20 0.032819 41.432
8.88280000 0.032928 -9.988 0.999441 -74.21 0.999441 -74.21 0.032942 41.522
8.88291734 0.033001 -10.05 0.999438 -74.22 0.999438 -74.22 0.033015 41.576
8.88300000 0.033053 -10.10 0.999436 -74.22 0.999436 -74.22 0.033067 41.614
8.88320000 0.033180 -10.21 0.999432 -74.23 0.999432 -74.23 0.033194 41.706
8.88340000 0.033310 -10.32 0.999427 -74.24 0.999427 -74.24 0.033324 41.799
8.88340933 0.033316 -10.33 0.999427 -74.24 0.999427 -74.24 0.033330 41.803
8.88360000 0.033442 -10.44 0.999422 -74.25 0.999422 -74.25 0.033456 41.893
8.88380000 0.033577 -10.56 0.999418 -74.26 0.999418 -74.26 0.033592 41.988
8.88389004 0.033639 -10.61 0.999415 -74.27 0.999415 -74.27 0.033653 42.031
8.88400000 0.033715 -10.67 0.999413 -74.27 0.999413 -74.27 0.033730 42.084
8.88420000 0.033855 -10.79 0.999408 -74.28 0.999408 -74.28 0.033870 42.181
8.88435974 0.033970 -10.89 0.999403 -74.29 0.999403 -74.29 0.033985 42.260
8.88440000 0.033999 -10.91 0.999402 -74.29 0.999402 -74.29 0.034014 42.279
8.88460000 0.034146 -11.04 0.999397 -74.31 0.999397 -74.31 0.034161 42.379
8.88480000 0.034295 -11.16 0.999392 -74.32 0.999392 -74.32 0.034311 42.479
8.88481868 0.034309 -11.17 0.999391 -74.32 0.999391 -74.32 0.034325 42.489
8.88500000 0.034448 -11.28 0.999386 -74.33 0.999386 -74.33 0.034464 42.581
8.88520000 0.034604 -11.41 0.999380 -74.34 0.999380 -74.34 0.034621 42.683
8.88526710 0.034658 -11.45 0.999378 -74.34 0.999378 -74.34 0.034674 42.718
8.88540000 0.034764 -11.54 0.999374 -74.35 0.999374 -74.35 0.034781 42.787
8.88560000 0.034927 -11.67 0.999368 -74.36 0.999368 -74.36 0.034944 42.892
8.88570525 0.035015 -11.74 0.999365 -74.37 0.999365 -74.37 0.035032 42.947
8.88580000 0.035094 -11.80 0.999362 -74.38 0.999362 -74.38 0.035111 42.998
8.88600000 0.035265 -11.93 0.999355 -74.39 0.999355 -74.39 0.035282 43.105
8.88613335 0.035381 -12.02 0.999351 -74.40 0.999351 -74.40 0.035398 43.177
8.88620000 0.035440 -12.07 0.999349 -74.40 0.999349 -74.40 0.035457 43.213
8.88640000 0.035618 -12.20 0.999342 -74.41 0.999342 -74.41 0.035636 43.323
8.88655165 0.035756 -12.31 0.999337 -74.42 0.999337 -74.42 0.035774 43.407
8.88660000 0.035801 -12.34 0.999335 -74.43 0.999335 -74.43 0.035819 43.434
8.88680000 0.035988 -12.48 0.999328 -74.44 0.999328 -74.44 0.036006 43.546
8.88696036 0.036141 -12.59 0.999322 -74.45 0.999322 -74.45 0.036160 43.636
8.88700000 0.036180 -12.62 0.999320 -74.45 0.999320 -74.45 0.036198 43.659
8.88720000 0.036376 -12.77 0.999313 -74.47 0.999313 -74.47 0.036395 43.774
8.88735971 0.036536 -12.88 0.999307 -74.48 0.999307 -74.48 0.036555 43.866
8.88740000 0.036577 -12.91 0.999305 -74.48 0.999305 -74.48 0.036596 43.889
8.88760000 0.036783 -13.06 0.999297 -74.50 0.999297 -74.50 0.036803 44.007
8.88774991 0.036941 -13.17 0.999291 -74.51 0.999291 -74.51 0.036961 44.095
8.88780000 0.036994 -13.21 0.999288 -74.51 0.999288 -74.51 0.037014 44.125
8.88800000 0.037211 -13.36 0.999280 -74.53 0.999280 -74.53 0.037231 44.245
8.88813116 0.037356 -13.46 0.999274 -74.54 0.999274 -74.54 0.037376 44.324
8.88820000 0.037433 -13.51 0.999271 -74.54 0.999271 -74.54 0.037453 44.366
8.88840000 0.037661 -13.67 0.999262 -74.56 0.999262 -74.56 0.037682 44.489
8.88850368 0.037781 -13.75 0.999257 -74.56 0.999257 -74.56 0.037802 44.553
8.88860000 0.037895 -13.83 0.999252 -74.57 0.999252 -74.57 0.037916 44.613
8.88880000 0.038135 -13.99 0.999242 -74.59 0.999242 -74.59 0.038156 44.738
8.88886767 0.038217 -14.04 0.999239 -74.59 0.999239 -74.59 0.038239 44.781
8.88900000 0.038381 -14.15 0.999232 -74.61 0.999232 -74.61 0.038403 44.865
8.88920000 0.038635 -14.31 0.999222 -74.62 0.999222 -74.62 0.038657 44.994
8.88922331 0.038665 -14.33 0.999220 -74.63 0.999220 -74.63 0.038687 45.009
8.88940000 0.038895 -14.48 0.999211 -74.64 0.999211 -74.64 0.038918 45.124
8.88957080 0.039123 -14.62 0.999201 -74.66 0.999201 -74.66 0.039146 45.236
8.88960000 0.039163 -14.65 0.999200 -74.66 0.999200 -74.66 0.039186 45.255
8.88980000 0.039438 -14.82 0.999188 -74.68 0.999188 -74.68 0.039462 45.388
8.88991034 0.039593 -14.92 0.999181 -74.69 0.999181 -74.69 0.039617 45.462
8.89000000 0.039721 -15.00 0.999176 -74.70 0.999176 -74.70 0.039745 45.522
8.89020000 0.040012 -15.17 0.999163 -74.72 0.999163 -74.72 0.040037 45.658
8.89024209 0.040075 -15.21 0.999161 -74.72 0.999161 -74.72 0.040100 45.687
8.89040000 0.040312 -15.35 0.999150 -74.74 0.999150 -74.74 0.040338 45.796
8.89056624 0.040569 -15.50 0.999139 -74.75 0.999139 -74.75 0.040594 45.911
8.89060000 0.040622 -15.53 0.999137 -74.76 0.999137 -74.76 0.040647 45.935
8.89080000 0.040940 -15.72 0.999123 -74.78 0.999123 -74.78 0.040966 46.075
8.89088296 0.041075 -15.80 0.999117 -74.79 0.999117 -74.79 0.041102 46.134
8.89100000 0.041268 -15.91 0.999108 -74.80 0.999108 -74.80 0.041295 46.218
8.89119243 0.041594 -16.09 0.999094 -74.82 0.999094 -74.82 0.041621 46.356
8.89120000 0.041607 -16.10 0.999093 -74.82 0.999093 -74.82 0.041634 46.362
8.89140000 0.041957 -16.29 0.999077 -74.84 0.999077 -74.84 0.041985 46.507
8.89149480 0.042126 -16.39 0.999069 -74.86 0.999069 -74.86 0.042154 46.577
8.89160000 0.042317 -16.49 0.999061 -74.87 0.999061 -74.87 0.042346 46.655
8.89179025 0.042671 -16.68 0.999044 -74.89 0.999044 -74.89 0.042701 46.796
8.89180000 0.042690 -16.69 0.999044 -74.89 0.999044 -74.89 0.042719 46.803
8.89200000 0.043075 -16.89 0.999026 -74.92 0.999026 -74.92 0.043105 46.954
8.89207893 0.043230 -16.97 0.999018 -74.93 0.999018 -74.93 0.043261 47.014
8.89220000 0.043473 -17.10 0.999007 -74.94 0.999007 -74.94 0.043503 47.106
8.89236099 0.043803 -17.27 0.998991 -74.96 0.998991 -74.96 0.043834 47.230
8.89240000 0.043885 -17.31 0.998987 -74.97 0.998987 -74.97 0.043916 47.260
8.89260000 0.044311 -17.52 0.998967 -75.00 0.998967 -75.00 0.044343 47.416
8.89263659 0.044391 -17.56 0.998963 -75.00 0.998963 -75.00 0.044423 47.445
8.89280000 0.044752 -17.74 0.998946 -75.03 0.998946 -75.03 0.044785 47.574
8.89290587 0.044992 -17.86 0.998934 -75.04 0.998934 -75.04 0.045025 47.658
8.89300000 0.045210 -17.96 0.998923 -75.06 0.998923 -75.06 0.045243 47.733
8.89316898 0.045609 -18.15 0.998904 -75.08 0.998904 -75.08 0.045643 47.869
8.89320000 0.045684 -18.19 0.998900 -75.09 0.998900 -75.09 0.045718 47.894
8.89340000 0.046176 -18.41 0.998875 -75.12 0.998875 -75.12 0.046211 48.056
8.89342607 0.046241 -18.44 0.998872 -75.12 0.998872 -75.12 0.046277 48.078
8.89360000 0.046687 -18.65 0.998850 -75.15 0.998850 -75.15 0.046723 48.221
8.89367726 0.046889 -18.74 0.998839 -75.16 0.998839 -75.16 0.046925 48.285
8.89380000 0.047217 -18.88 0.998822 -75.18 0.998822 -75.18 0.047254 48.387
8.89392270 0.047553 -19.03 0.998805 -75.20 0.998805 -75.20 0.047590 48.489
8.89400000 0.047769 -19.13 0.998794 -75.22 0.998794 -75.22 0.047807 48.554
8.89416251 0.048233 -19.32 0.998770 -75.25 0.998770 -75.25 0.048272 48.692
8.89420000 0.048343 -19.37 0.998764 -75.25 0.998764 -75.25 0.048381 48.724
8.89439683 0.048931 -19.62 0.998733 -75.29 0.998733 -75.29 0.048970 48.892
8.89440000 0.048940 -19.62 0.998732 -75.29 0.998732 -75.29 0.048980 48.895
8.89460000 0.049563 -19.88 0.998699 -75.33 0.998699 -75.33 0.049604 49.068
8.89462578 0.049645 -19.91 0.998694 -75.34 0.998694 -75.34 0.049686 49.090
8.89480000 0.050212 -20.14 0.998663 -75.37 0.998663 -75.37 0.050254 49.242
8.89484948 0.050377 -20.20 0.998654 -75.38 0.998654 -75.38 0.050419 49.286
8.89500000 0.050890 -20.40 0.998626 -75.41 0.998626 -75.41 0.050933 49.418
8.89506806 0.051127 -20.49 0.998613 -75.43 0.998613 -75.43 0.051171 49.478
8.89520000 0.051597 -20.67 0.998586 -75.46 0.998586 -75.46 0.051642 49.596
8.89528163 0.051896 -20.78 0.998569 -75.48 0.998569 -75.48 0.051940 49.669
8.89540000 0.052338 -20.95 0.998544 -75.50 0.998544 -75.50 0.052383 49.775
8.89549031 0.052683 -21.07 0.998524 -75.52 0.998524 -75.52 0.052729 49.856
8.89560000 0.053112 -21.23 0.998499 -75.55 0.998499 -75.55 0.053159 49.955
8.89569420 0.053490 -21.36 0.998477 -75.57 0.998477 -75.57 0.053537 50.041
8.89580000 0.053924 -21.52 0.998452 -75.60 0.998452 -75.60 0.053972 50.137
8.89589342 0.054316 -21.65 0.998429 -75.62 0.998429 -75.62 0.054365 50.222
8.89600000 0.054775 -21.81 0.998401 -75.65 0.998401 -75.65 0.054825 50.320
8.89608808 0.055163 -21.94 0.998378 -75.68 0.998378 -75.68 0.055213 50.401
8.89620000 0.055668 -22.11 0.998347 -75.71 0.998347 -75.71 0.055720 50.504
8.89627827 0.056030 -22.23 0.998325 -75.73 0.998325 -75.73 0.056082 50.577
8.89640000 0.056608 -22.42 0.998289 -75.76 0.998289 -75.76 0.056661 50.689
8.89646411 0.056919 -22.52 0.998270 -75.78 0.998270 -75.78 0.056973 50.749
8.89660000 0.057596 -22.73 0.998227 -75.82 0.998227 -75.82 0.057651 50.876
8.89664569 0.057829 -22.80 0.998212 -75.84 0.998212 -75.84 0.057885 50.918
8.89680000 0.058638 -23.05 0.998161 -75.89 0.998161 -75.89 0.058695 51.063
8.89682311 0.058762 -23.09 0.998153 -75.90 0.998153 -75.90 0.058819 51.084
8.89699647 0.059717 -23.38 0.998090 -75.95 0.998090 -75.95 0.059776 51.247
8.89700000 0.059737 -23.38 0.998089 -75.95 0.998089 -75.95 0.059796 51.250
8.89716585 0.060696 -23.66 0.998026 -76.01 0.998026 -76.01 0.060756 51.406
8.89720000 0.060899 -23.72 0.998012 -76.02 0.998012 -76.02 0.060959 51.438
8.89733135 0.061698 -23.94 0.997958 -76.07 0.997958 -76.07 0.061760 51.562
8.89740000 0.062128 -24.06 0.997929 -76.10 0.997929 -76.10 0.062190 51.626
8.89749306 0.062724 -24.23 0.997888 -76.14 0.997888 -76.14 0.062788 51.714
8.89760000 0.063430 -24.42 0.997839 -76.18 0.997839 -76.18 0.063496 51.814
8.89765106 0.063776 -24.51 0.997814 -76.20 0.997814 -76.20 0.063841 51.862
8.89780000 0.064814 -24.78 0.997741 -76.26 0.997741 -76.26 0.064881 52.002
8.89780545 0.064852 -24.79 0.997738 -76.26 0.997738 -76.26 0.064920 52.007
8.89795629 0.065955 -25.07 0.997658 -76.33 0.997658 -76.33 0.066025 52.148
8.89800000 0.066285 -25.16 0.997634 -76.35 0.997634 -76.35 0.066355 52.189
8.89810368 0.067085 -25.35 0.997576 -76.40 0.997576 -76.40 0.067156 52.285
8.89820000 0.067852 -25.54 0.997518 -76.44 0.997518 -76.44 0.067925 52.374
8.89824769 0.068241 -25.63 0.997489 -76.47 0.997489 -76.47 0.068315 52.418
8.89838840 0.069426 -25.91 0.997399 -76.54 0.997399 -76.54 0.069502 52.547
8.89840000 0.069526 -25.94 0.997391 -76.54 0.997391 -76.54 0.069602 52.558
8.89852589 0.070639 -26.19 0.997305 -76.61 0.997305 -76.61 0.070717 52.672
8.89860000 0.071317 -26.34 0.997252 -76.65 0.997252 -76.65 0.071396 52.739
8.89866023 0.071881 -26.47 0.997207 -76.68 0.997207 -76.68 0.071961 52.794
8.89879149 0.073153 -26.75 0.997105 -76.76 0.997105 -76.76 0.073235 52.910
8.89880000 0.073237 -26.77 0.997098 -76.76 0.997098 -76.76 0.073320 52.918
8.89891974 0.074455 -27.02 0.996998 -76.84 0.996998 -76.84 0.074540 53.023
8.89900000 0.075302 -27.20 0.996928 -76.89 0.996928 -76.89 0.075388 53.093
8.89904505 0.075788 -27.30 0.996887 -76.91 0.996887 -76.91 0.075875 53.132
8.89916749 0.077154 -27.58 0.996771 -77.00 0.996771 -77.00 0.077243 53.236
8.89920000 0.077527 -27.65 0.996739 -77.02 0.996739 -77.02 0.077617 53.263
8.89928713 0.078551 -27.85 0.996651 -77.08 0.996651 -77.08 0.078644 53.336
8.89940000 0.079932 -28.12 0.996529 -77.16 0.996529 -77.16 0.080027 53.428
8.89940402 0.079983 -28.13 0.996525 -77.16 0.996525 -77.16 0.080077 53.431
8.89951824 0.081448 -28.40 0.996393 -77.25 0.996393 -77.25 0.081545 53.522
8.89960000 0.082540 -28.60 0.996294 -77.31 0.996294 -77.31 0.082639 53.585
8.89962984 0.082948 -28.68 0.996256 -77.34 0.996256 -77.34 0.083048 53.608
8.89973888 0.084483 -28.95 0.996113 -77.43 0.996113 -77.43 0.084586 53.690
8.89980000 0.085376 -29.11 0.996029 -77.48 0.996029 -77.48 0.085481 53.735
8.89984542 0.086055 -29.23 0.995964 -77.52 0.995964 -77.52 0.086161 53.767
8.89994952 0.087665 -29.50 0.995808 -77.62 0.995808 -77.62 0.087773 53.839
8.90000000 0.088472 -29.64 0.995729 -77.66 0.995729 -77.66 0.088582 53.873
8.90005124 0.089312 -29.77 0.995646 -77.71 0.995646 -77.71 0.089423 53.907
8.90015063 0.090998 -30.05 0.995476 -77.81 0.995476 -77.81 0.091112 53.970
8.90020000 0.091865 -30.19 0.995388 -77.86 0.995388 -77.86 0.091981 54.000
8.90024773 0.092724 -30.32 0.995300 -77.91 0.995300 -77.91 0.092841 54.028
8.90034262 0.094490 -30.60 0.995115 -78.02 0.995115 -78.02 0.094611 54.081
8.90040000 0.095599 -30.76 0.994997 -78.08 0.994997 -78.08 0.095722 54.111
8.90043533 0.096298 -30.87 0.994922 -78.12 0.994922 -78.12 0.096422 54.129
8.90052591 0.098148 -31.14 0.994721 -78.23 0.994721 -78.23 0.098276 54.173
8.90060000 0.099727 -31.37 0.994547 -78.32 0.994547 -78.32 0.099857 54.205
8.90061442 0.100042 -31.42 0.994512 -78.34 0.994512 -78.34 0.100173 54.211
8.90070090 0.101980 -31.69 0.994293 -78.46 0.994293 -78.46 0.102114 54.244
8.90078540 0.103963 -31.97 0.994064 -78.57 0.994064 -78.57 0.104101 54.272
8.90080000 0.104315 -32.02 0.994023 -78.59 0.994023 -78.59 0.104453 54.276
8.90086796 0.105992 -32.24 0.993825 -78.69 0.993825 -78.69 0.106134 54.294
8.90094864 0.108069 -32.52 0.993576 -78.81 0.993576 -78.81 0.108214 54.312
8.90100000 0.109442 -32.70 0.993409 -78.89 0.993409 -78.89 0.109590 54.320
8.90102746 0.110194 -32.80 0.993316 -78.94 0.993316 -78.94 0.110343 54.324
8.90110448 0.112368 -33.07 0.993045 -79.06 0.993045 -79.06 0.112521 54.331
8.90117973 0.114592 -33.35 0.992761 -79.19 0.992761 -79.19 0.114750 54.332
8.90120000 0.115209 -33.43 0.992682 -79.23 0.992682 -79.23 0.115368 54.332
8.90125326 0.116868 -33.63 0.992465 -79.33 0.992465 -79.33 0.117029 54.328
8.90132510 0.119197 -33.91 0.992157 -79.46 0.992157 -79.46 0.119362 54.319
8.90139529 0.121578 -34.19 0.991834 -79.60 0.991834 -79.60 0.121748 54.304
8.90140000 0.121742 -34.21 0.991812 -79.61 0.991812 -79.61 0.121912 54.303
8.90146388 0.124015 -34.48 0.991497 -79.74 0.991497 -79.74 0.124189 54.283
8.90153090 0.126508 -34.76 0.991146 -79.89 0.991146 -79.89 0.126686 54.257
8.90159638 0.129057 -35.04 0.990778 -80.04 0.990778 -80.04 0.129240 54.225
8.90160000 0.129201 -35.06 0.990757 -80.05 0.990757 -80.05 0.129385 54.223
8.90166036 0.131665 -35.33 0.990395 -80.19 0.990395 -80.19 0.131853 54.187
8.90172288 0.134332 -35.62 0.989995 -80.35 0.989995 -80.35 0.134524 54.143
8.90178396 0.137059 -35.91 0.989577 -80.51 0.989577 -80.51 0.137257 54.093
8.90180000 0.137796 -35.99 0.989462 -80.55 0.989462 -80.55 0.137996 54.079
8.90184364 0.139848 -36.20 0.989140 -80.67 0.989140 -80.67 0.140051 54.038
8.90190196 0.142701 -36.49 0.988685 -80.83 0.988685 -80.83 0.142909 53.976
8.90195893 0.145617 -36.79 0.988209 -81.01 0.988209 -81.01 0.145831 53.908
8.90200000 0.147803 -37.01 0.987845 -81.13 0.987845 -81.13 0.148021 53.855
8.90201461 0.148599 -37.09 0.987712 -81.18 0.987712 -81.18 0.148818 53.834
8.90206901 0.151648 -37.39 0.987193 -81.36 0.987193 -81.36 0.151872 53.754
8.90212216 0.154765 -37.69 0.986651 -81.54 0.986651 -81.54 0.154995 53.668
8.90217409 0.157951 -37.99 0.986086 -81.73 0.986086 -81.73 0.158187 53.575
8.90220000 0.159595 -38.15 0.985789 -81.82 0.985789 -81.82 0.159834 53.526
8.90222483 0.161208 -38.30 0.985495 -81.92 0.985495 -81.92 0.161449 53.476
8.90227441 0.164536 -38.61 0.984879 -82.11 0.984879 -82.11 0.164784 53.371
8.90232286 0.167938 -38.92 0.984235 -82.31 0.984235 -82.31 0.168192 53.259
8.90237019 0.171415 -39.24 0.983563 -82.51 0.983563 -82.51 0.171675 53.140
8.90240000 0.173686 -39.44 0.983116 -82.65 0.983116 -82.65 0.173951 53.060
8.90241644 0.174968 -39.56 0.982861 -82.72 0.982861 -82.72 0.175234 53.014
8.90246163 0.178597 -39.88 0.982129 -82.93 0.982129 -82.93 0.178871 52.882
8.90250579 0.182306 -40.20 0.981364 -83.15 0.981364 -83.15 0.182586 52.743
8.90254893 0.186094 -40.53 0.980566 -83.37 0.980566 -83.37 0.186381 52.597
8.90259108 0.189964 -40.86 0.979733 -83.60 0.979733 -83.60 0.190258 52.445
8.90260000 0.190805 -40.93 0.979550 -83.65 0.979550 -83.65 0.191100 52.411
8.90263227 0.193916 -41.20 0.978864 -83.83 0.978864 -83.83 0.194217 52.285
8.90267252 0.197952 -41.54 0.977956 -84.07 0.977956 -84.07 0.198261 52.118
8.90271184 0.202073 -41.88 0.977009 -84.31 0.977009 -84.31 0.202390 51.943
8.90275026 0.206281 -42.23 0.976021 -84.56 0.976021 -84.56 0.206605 51.762