! Sonnet Data File
! From: emgraph Version : 16.52
! From Emgraph Data: Resonator2_extremeCap
! Data File Written: 10/12/2017 12:53:11
!< HDATE 10/11/2017 21:06:01
!< MDATE 10/11/2017 21:06:01
!< PARAMS
!< Pwid1 = 2000.0
!< Air_gap = 12.0
!< Width = 20.0
!< Gap = 43.0
!< END PARAMS
# GHZ S MA R 40.13000
8.95000000 0.330962 -4.242 0.943633 -93.65 0.943633 -93.65 0.330951 -3.069
!< P1 F=8.95 Eeff=(5.24886392 -2.3057e-5) Z0=(40.1292442 8.94105e-5) R=0.0 C=0.0 
!< P2 F=8.95 Eeff=(5.24886392 -2.3057e-5) Z0=(40.1292442 8.94105e-5) R=0.0 C=0.0 
8.95020000 0.331019 -4.239 0.943613 -93.66 0.943613 -93.66 0.331008 -3.086
8.95040000 0.331077 -4.236 0.943593 -93.67 0.943593 -93.67 0.331065 -3.102
8.95060000 0.331134 -4.233 0.943573 -93.68 0.943573 -93.68 0.331122 -3.119
8.95080000 0.331191 -4.230 0.943553 -93.68 0.943553 -93.68 0.331180 -3.135
8.95100000 0.331249 -4.227 0.943533 -93.69 0.943533 -93.69 0.331237 -3.152
8.95120000 0.331307 -4.224 0.943512 -93.70 0.943512 -93.70 0.331295 -3.168
8.95140000 0.331364 -4.221 0.943492 -93.70 0.943492 -93.70 0.331353 -3.185
8.95160000 0.331422 -4.218 0.943472 -93.71 0.943472 -93.71 0.331411 -3.201
8.95180000 0.331481 -4.215 0.943451 -93.72 0.943451 -93.72 0.331469 -3.218
8.95200000 0.331539 -4.212 0.943431 -93.72 0.943431 -93.72 0.331527 -3.235
8.95220000 0.331597 -4.209 0.943410 -93.73 0.943410 -93.73 0.331586 -3.252
8.95240000 0.331656 -4.206 0.943390 -93.74 0.943390 -93.74 0.331644 -3.268
8.95260000 0.331715 -4.203 0.943369 -93.74 0.943369 -93.74 0.331703 -3.285
8.95280000 0.331774 -4.200 0.943348 -93.75 0.943348 -93.75 0.331762 -3.302
8.95300000 0.331833 -4.197 0.943327 -93.76 0.943327 -93.76 0.331821 -3.319
8.95320000 0.331892 -4.194 0.943306 -93.76 0.943306 -93.76 0.331880 -3.336
8.95340000 0.331952 -4.191 0.943285 -93.77 0.943285 -93.77 0.331940 -3.353
8.95360000 0.332011 -4.188 0.943264 -93.78 0.943264 -93.78 0.331999 -3.370
8.95380000 0.332071 -4.185 0.943243 -93.79 0.943243 -93.79 0.332059 -3.387
8.95400000 0.332131 -4.181 0.943222 -93.79 0.943222 -93.79 0.332119 -3.405
8.95420000 0.332191 -4.178 0.943201 -93.80 0.943201 -93.80 0.332179 -3.422
8.95440000 0.332251 -4.175 0.943180 -93.81 0.943180 -93.81 0.332239 -3.439
8.95460000 0.332312 -4.172 0.943159 -93.81 0.943159 -93.81 0.332300 -3.456
8.95480000 0.332372 -4.169 0.943137 -93.82 0.943137 -93.82 0.332360 -3.474
8.95500000 0.332433 -4.165 0.943116 -93.83 0.943116 -93.83 0.332421 -3.491
8.95520000 0.332494 -4.162 0.943094 -93.83 0.943094 -93.83 0.332482 -3.509
8.95540000 0.332555 -4.159 0.943073 -93.84 0.943073 -93.84 0.332543 -3.526
8.95560000 0.332616 -4.156 0.943051 -93.85 0.943051 -93.85 0.332604 -3.544
8.95580000 0.332678 -4.152 0.943029 -93.86 0.943029 -93.86 0.332665 -3.561
8.95600000 0.332739 -4.149 0.943008 -93.86 0.943008 -93.86 0.332727 -3.579
8.95620000 0.332801 -4.146 0.942986 -93.87 0.942986 -93.87 0.332789 -3.597
8.95640000 0.332863 -4.142 0.942964 -93.88 0.942964 -93.88 0.332850 -3.614
8.95660000 0.332925 -4.139 0.942942 -93.88 0.942942 -93.88 0.332913 -3.632
8.95680000 0.332988 -4.135 0.942920 -93.89 0.942920 -93.89 0.332975 -3.650
8.95700000 0.333050 -4.132 0.942898 -93.90 0.942898 -93.90 0.333037 -3.668
8.95720000 0.333113 -4.129 0.942876 -93.91 0.942876 -93.91 0.333100 -3.686
8.95740000 0.333176 -4.125 0.942853 -93.91 0.942853 -93.91 0.333163 -3.704
8.95760000 0.333239 -4.122 0.942831 -93.92 0.942831 -93.92 0.333226 -3.722
8.95780000 0.333302 -4.118 0.942809 -93.93 0.942809 -93.93 0.333289 -3.740
8.95800000 0.333365 -4.115 0.942786 -93.94 0.942786 -93.94 0.333352 -3.758
8.95820000 0.333429 -4.111 0.942764 -93.94 0.942764 -93.94 0.333416 -3.776
8.95840000 0.333492 -4.108 0.942741 -93.95 0.942741 -93.95 0.333479 -3.794
8.95860000 0.333556 -4.104 0.942719 -93.96 0.942719 -93.96 0.333543 -3.813
8.95880000 0.333620 -4.101 0.942696 -93.96 0.942696 -93.96 0.333607 -3.831
8.95900000 0.333685 -4.097 0.942673 -93.97 0.942673 -93.97 0.333671 -3.849
8.95920000 0.333749 -4.093 0.942650 -93.98 0.942650 -93.98 0.333736 -3.868
8.95940000 0.333814 -4.090 0.942627 -93.99 0.942627 -93.99 0.333800 -3.886
8.95960000 0.333879 -4.086 0.942604 -93.99 0.942604 -93.99 0.333865 -3.905
8.95980000 0.333944 -4.082 0.942581 -94.00 0.942581 -94.00 0.333930 -3.924
8.96000000 0.334009 -4.079 0.942558 -94.01 0.942558 -94.01 0.333995 -3.942
8.96020000 0.334074 -4.075 0.942535 -94.02 0.942535 -94.02 0.334061 -3.961
8.96040000 0.334140 -4.071 0.942512 -94.02 0.942512 -94.02 0.334126 -3.980
8.96060000 0.334206 -4.068 0.942488 -94.03 0.942488 -94.03 0.334192 -3.998
8.96080000 0.334272 -4.064 0.942465 -94.04 0.942465 -94.04 0.334258 -4.017
8.96100000 0.334338 -4.060 0.942442 -94.05 0.942442 -94.05 0.334324 -4.036
8.96120000 0.334404 -4.056 0.942418 -94.05 0.942418 -94.05 0.334390 -4.055
8.96140000 0.334471 -4.053 0.942394 -94.06 0.942394 -94.06 0.334457 -4.074
8.96160000 0.334538 -4.049 0.942371 -94.07 0.942371 -94.07 0.334524 -4.093
8.96180000 0.334605 -4.045 0.942347 -94.08 0.942347 -94.08 0.334591 -4.112
8.96200000 0.334672 -4.041 0.942323 -94.09 0.942323 -94.09 0.334658 -4.132
8.96220000 0.334739 -4.037 0.942299 -94.09 0.942299 -94.09 0.334725 -4.151
8.96240000 0.334807 -4.033 0.942275 -94.10 0.942275 -94.10 0.334793 -4.170
8.96260000 0.334874 -4.029 0.942251 -94.11 0.942251 -94.11 0.334860 -4.189
8.96280000 0.334942 -4.025 0.942227 -94.12 0.942227 -94.12 0.334928 -4.209
8.96300000 0.335011 -4.021 0.942202 -94.12 0.942202 -94.12 0.334996 -4.228
8.96320000 0.335079 -4.018 0.942178 -94.13 0.942178 -94.13 0.335065 -4.248
8.96340000 0.335148 -4.014 0.942154 -94.14 0.942154 -94.14 0.335133 -4.267
8.96360000 0.335217 -4.010 0.942129 -94.15 0.942129 -94.15 0.335202 -4.287
8.96380000 0.335286 -4.005 0.942104 -94.16 0.942104 -94.16 0.335271 -4.307
8.96400000 0.335355 -4.001 0.942080 -94.16 0.942080 -94.16 0.335340 -4.327
8.96420000 0.335424 -3.997 0.942055 -94.17 0.942055 -94.17 0.335410 -4.346
8.96440000 0.335494 -3.993 0.942030 -94.18 0.942030 -94.18 0.335479 -4.366
8.96460000 0.335564 -3.989 0.942005 -94.19 0.942005 -94.19 0.335549 -4.386
8.96480000 0.335634 -3.985 0.941980 -94.19 0.941980 -94.19 0.335619 -4.406
8.96500000 0.335704 -3.981 0.941955 -94.20 0.941955 -94.20 0.335689 -4.426
8.96520000 0.335775 -3.977 0.941930 -94.21 0.941930 -94.21 0.335760 -4.446
8.96540000 0.335846 -3.973 0.941905 -94.22 0.941905 -94.22 0.335831 -4.466
8.96560000 0.335917 -3.968 0.941879 -94.23 0.941879 -94.23 0.335902 -4.487
8.96580000 0.335988 -3.964 0.941854 -94.23 0.941854 -94.23 0.335973 -4.507
8.96600000 0.336059 -3.960 0.941828 -94.24 0.941828 -94.24 0.336044 -4.527
8.96620000 0.336131 -3.956 0.941803 -94.25 0.941803 -94.25 0.336116 -4.548
8.96640000 0.336203 -3.951 0.941777 -94.26 0.941777 -94.26 0.336188 -4.568
8.96660000 0.336275 -3.947 0.941751 -94.27 0.941751 -94.27 0.336260 -4.589
8.96680000 0.336347 -3.943 0.941726 -94.27 0.941726 -94.27 0.336332 -4.609
8.96700000 0.336420 -3.938 0.941700 -94.28 0.941700 -94.28 0.336404 -4.630
8.96720000 0.336493 -3.934 0.941674 -94.29 0.941674 -94.29 0.336477 -4.651
8.96740000 0.336566 -3.930 0.941647 -94.30 0.941647 -94.30 0.336550 -4.671
8.96760000 0.336639 -3.925 0.941621 -94.31 0.941621 -94.31 0.336623 -4.692
8.96780000 0.336712 -3.921 0.941595 -94.32 0.941595 -94.32 0.336697 -4.713
8.96800000 0.336786 -3.916 0.941568 -94.32 0.941568 -94.32 0.336770 -4.734
8.96820000 0.336860 -3.912 0.941542 -94.33 0.941542 -94.33 0.336844 -4.755
8.96840000 0.336934 -3.907 0.941515 -94.34 0.941515 -94.34 0.336919 -4.776
8.96860000 0.337009 -3.903 0.941489 -94.35 0.941489 -94.35 0.336993 -4.797
8.96880000 0.337083 -3.898 0.941462 -94.36 0.941462 -94.36 0.337068 -4.819
8.96900000 0.337158 -3.894 0.941435 -94.37 0.941435 -94.37 0.337142 -4.840
8.96920000 0.337234 -3.889 0.941408 -94.37 0.941408 -94.37 0.337218 -4.861
8.96940000 0.337309 -3.884 0.941381 -94.38 0.941381 -94.38 0.337293 -4.883
8.96960000 0.337385 -3.880 0.941354 -94.39 0.941354 -94.39 0.337369 -4.904
8.96980000 0.337461 -3.875 0.941327 -94.40 0.941327 -94.40 0.337445 -4.926
8.97000000 0.337537 -3.870 0.941299 -94.41 0.941299 -94.41 0.337521 -4.947
8.97020000 0.337613 -3.866 0.941272 -94.42 0.941272 -94.42 0.337597 -4.969
8.97040000 0.337690 -3.861 0.941244 -94.42 0.941244 -94.42 0.337674 -4.991
8.97060000 0.337767 -3.856 0.941217 -94.43 0.941217 -94.43 0.337751 -5.013
8.97080000 0.337844 -3.852 0.941189 -94.44 0.941189 -94.44 0.337828 -5.034
8.97100000 0.337922 -3.847 0.941161 -94.45 0.941161 -94.45 0.337905 -5.056
8.97120000 0.337999 -3.842 0.941133 -94.46 0.941133 -94.46 0.337983 -5.078
8.97140000 0.338077 -3.837 0.941105 -94.47 0.941105 -94.47 0.338061 -5.101
8.97160000 0.338156 -3.832 0.941077 -94.48 0.941077 -94.48 0.338139 -5.123
8.97180000 0.338234 -3.827 0.941049 -94.48 0.941049 -94.48 0.338217 -5.145
8.97200000 0.338313 -3.822 0.941020 -94.49 0.941020 -94.49 0.338296 -5.167
8.97220000 0.338392 -3.818 0.940992 -94.50 0.940992 -94.50 0.338375 -5.190
8.97240000 0.338471 -3.813 0.940963 -94.51 0.940963 -94.51 0.338454 -5.212
8.97260000 0.338551 -3.808 0.940935 -94.52 0.940935 -94.52 0.338534 -5.235
8.97280000 0.338631 -3.803 0.940906 -94.53 0.940906 -94.53 0.338614 -5.257
8.97300000 0.338711 -3.798 0.940877 -94.54 0.940877 -94.54 0.338694 -5.280
8.97320000 0.338791 -3.793 0.940848 -94.55 0.940848 -94.55 0.338774 -5.303
8.97340000 0.338872 -3.787 0.940819 -94.56 0.940819 -94.56 0.338855 -5.325
8.97360000 0.338953 -3.782 0.940790 -94.56 0.940790 -94.56 0.338936 -5.348
8.97380000 0.339034 -3.777 0.940760 -94.57 0.940760 -94.57 0.339017 -5.371
8.97400000 0.339116 -3.772 0.940731 -94.58 0.940731 -94.58 0.339098 -5.394
8.97420000 0.339198 -3.767 0.940701 -94.59 0.940701 -94.59 0.339180 -5.417
8.97440000 0.339280 -3.762 0.940672 -94.60 0.940672 -94.60 0.339262 -5.441
8.97460000 0.339362 -3.757 0.940642 -94.61 0.940642 -94.61 0.339345 -5.464
8.97480000 0.339445 -3.751 0.940612 -94.62 0.940612 -94.62 0.339427 -5.487
8.97500000 0.339528 -3.746 0.940582 -94.63 0.940582 -94.63 0.339510 -5.511
8.97520000 0.339611 -3.741 0.940552 -94.64 0.940552 -94.64 0.339593 -5.534
8.97540000 0.339695 -3.735 0.940522 -94.65 0.940522 -94.65 0.339677 -5.558
8.97560000 0.339779 -3.730 0.940491 -94.65 0.940491 -94.65 0.339761 -5.581
8.97580000 0.339863 -3.725 0.940461 -94.66 0.940461 -94.66 0.339845 -5.605
8.97600000 0.339947 -3.719 0.940430 -94.67 0.940430 -94.67 0.339929 -5.629
8.97620000 0.340032 -3.714 0.940400 -94.68 0.940400 -94.68 0.340014 -5.653
8.97640000 0.340117 -3.708 0.940369 -94.69 0.940369 -94.69 0.340099 -5.677
8.97660000 0.340203 -3.703 0.940338 -94.70 0.940338 -94.70 0.340184 -5.701
8.97680000 0.340288 -3.698 0.940307 -94.71 0.940307 -94.71 0.340270 -5.725
8.97700000 0.340374 -3.692 0.940276 -94.72 0.940276 -94.72 0.340356 -5.749
8.97720000 0.340461 -3.686 0.940244 -94.73 0.940244 -94.73 0.340442 -5.773
8.97740000 0.340547 -3.681 0.940213 -94.74 0.940213 -94.74 0.340529 -5.798
8.97760000 0.340634 -3.675 0.940181 -94.75 0.940181 -94.75 0.340615 -5.822
8.97780000 0.340721 -3.670 0.940150 -94.76 0.940150 -94.76 0.340703 -5.847
8.97800000 0.340809 -3.664 0.940118 -94.77 0.940118 -94.77 0.340790 -5.871
8.97820000 0.340897 -3.658 0.940086 -94.78 0.940086 -94.78 0.340878 -5.896
8.97840000 0.340985 -3.653 0.940054 -94.79 0.940054 -94.79 0.340966 -5.921
8.97860000 0.341074 -3.647 0.940022 -94.79 0.940022 -94.79 0.341055 -5.946
8.97880000 0.341163 -3.641 0.939990 -94.80 0.939990 -94.80 0.341143 -5.971
8.97900000 0.341252 -3.635 0.939957 -94.81 0.939957 -94.81 0.341233 -5.996
8.97920000 0.341342 -3.630 0.939925 -94.82 0.939925 -94.82 0.341322 -6.021
8.97940000 0.341431 -3.624 0.939892 -94.83 0.939892 -94.83 0.341412 -6.046
8.97960000 0.341522 -3.618 0.939859 -94.84 0.939859 -94.84 0.341502 -6.071
8.97980000 0.341612 -3.612 0.939826 -94.85 0.939826 -94.85 0.341593 -6.097
8.98000000 0.341703 -3.606 0.939793 -94.86 0.939793 -94.86 0.341683 -6.122
8.98020000 0.341794 -3.600 0.939760 -94.87 0.939760 -94.87 0.341775 -6.148
8.98040000 0.341886 -3.594 0.939726 -94.88 0.939726 -94.88 0.341866 -6.174
8.98060000 0.341978 -3.588 0.939693 -94.89 0.939693 -94.89 0.341958 -6.199
8.98080000 0.342070 -3.582 0.939659 -94.90 0.939659 -94.90 0.342050 -6.225
8.98100000 0.342163 -3.576 0.939625 -94.91 0.939625 -94.91 0.342143 -6.251
8.98120000 0.342256 -3.570 0.939592 -94.92 0.939592 -94.92 0.342236 -6.277
8.98140000 0.342349 -3.564 0.939557 -94.93 0.939557 -94.93 0.342329 -6.303
8.98160000 0.342443 -3.558 0.939523 -94.94 0.939523 -94.94 0.342423 -6.329
8.98180000 0.342537 -3.551 0.939489 -94.95 0.939489 -94.95 0.342517 -6.356
8.98200000 0.342632 -3.545 0.939454 -94.96 0.939454 -94.96 0.342611 -6.382
8.98220000 0.342726 -3.539 0.939420 -94.97 0.939420 -94.97 0.342706 -6.409
8.98240000 0.342822 -3.533 0.939385 -94.98 0.939385 -94.98 0.342801 -6.435
8.98260000 0.342917 -3.526 0.939350 -94.99 0.939350 -94.99 0.342896 -6.462
8.98280000 0.343013 -3.520 0.939315 -95.00 0.939315 -95.00 0.342992 -6.489
8.98300000 0.343110 -3.514 0.939280 -95.01 0.939280 -95.01 0.343089 -6.515
8.98320000 0.343206 -3.507 0.939244 -95.02 0.939244 -95.02 0.343185 -6.542
8.98340000 0.343303 -3.501 0.939209 -95.03 0.939209 -95.03 0.343282 -6.569
8.98360000 0.343401 -3.494 0.939173 -95.04 0.939173 -95.04 0.343380 -6.597
8.98380000 0.343499 -3.488 0.939137 -95.05 0.939137 -95.05 0.343477 -6.624
8.98400000 0.343597 -3.481 0.939101 -95.06 0.939101 -95.06 0.343575 -6.651
8.98420000 0.343696 -3.475 0.939065 -95.08 0.939065 -95.08 0.343674 -6.679
8.98440000 0.343795 -3.468 0.939029 -95.09 0.939029 -95.09 0.343773 -6.706
8.98460000 0.343894 -3.462 0.938992 -95.10 0.938992 -95.10 0.343872 -6.734
8.98480000 0.343994 -3.455 0.938956 -95.11 0.938956 -95.11 0.343972 -6.762
8.98500000 0.344094 -3.448 0.938919 -95.12 0.938919 -95.12 0.344072 -6.790
8.98520000 0.344195 -3.442 0.938882 -95.13 0.938882 -95.13 0.344173 -6.817
8.98540000 0.344296 -3.435 0.938845 -95.14 0.938845 -95.14 0.344274 -6.846
8.98560000 0.344397 -3.428 0.938808 -95.15 0.938808 -95.15 0.344375 -6.874
8.98580000 0.344499 -3.421 0.938770 -95.16 0.938770 -95.16 0.344477 -6.902
8.98600000 0.344602 -3.414 0.938733 -95.17 0.938733 -95.17 0.344579 -6.930
8.98620000 0.344704 -3.408 0.938695 -95.18 0.938695 -95.18 0.344682 -6.959
8.98640000 0.344807 -3.401 0.938657 -95.19 0.938657 -95.19 0.344785 -6.987
8.98660000 0.344911 -3.394 0.938619 -95.20 0.938619 -95.20 0.344888 -7.016
8.98680000 0.345015 -3.387 0.938581 -95.21 0.938581 -95.21 0.344992 -7.045
8.98700000 0.345119 -3.380 0.938542 -95.23 0.938542 -95.23 0.345097 -7.074
8.98720000 0.345224 -3.373 0.938503 -95.24 0.938503 -95.24 0.345201 -7.103
8.98740000 0.345330 -3.366 0.938465 -95.25 0.938465 -95.25 0.345307 -7.132
8.98760000 0.345435 -3.359 0.938426 -95.26 0.938426 -95.26 0.345412 -7.161
8.98780000 0.345542 -3.352 0.938387 -95.27 0.938387 -95.27 0.345518 -7.191
8.98800000 0.345648 -3.344 0.938347 -95.28 0.938347 -95.28 0.345625 -7.220
8.98820000 0.345755 -3.337 0.938308 -95.29 0.938308 -95.29 0.345732 -7.250
8.98840000 0.345863 -3.330 0.938268 -95.30 0.938268 -95.30 0.345839 -7.279
8.98860000 0.345971 -3.323 0.938228 -95.31 0.938228 -95.31 0.345947 -7.309
8.98880000 0.346079 -3.315 0.938188 -95.33 0.938188 -95.33 0.346056 -7.339
8.98900000 0.346188 -3.308 0.938148 -95.34 0.938148 -95.34 0.346164 -7.369
8.98920000 0.346298 -3.301 0.938107 -95.35 0.938107 -95.35 0.346274 -7.399
8.98940000 0.346408 -3.293 0.938067 -95.36 0.938067 -95.36 0.346383 -7.429
8.98960000 0.346518 -3.286 0.938026 -95.37 0.938026 -95.37 0.346494 -7.460
8.98980000 0.346629 -3.278 0.937985 -95.38 0.937985 -95.38 0.346604 -7.490
8.99000000 0.346740 -3.271 0.937944 -95.39 0.937944 -95.39 0.346716 -7.521
8.99020000 0.346852 -3.263 0.937902 -95.41 0.937902 -95.41 0.346827 -7.552
8.99040000 0.346964 -3.256 0.937861 -95.42 0.937861 -95.42 0.346939 -7.583
8.99060000 0.347077 -3.248 0.937819 -95.43 0.937819 -95.43 0.347052 -7.613
8.99080000 0.347190 -3.240 0.937777 -95.44 0.937777 -95.44 0.347165 -7.645
8.99100000 0.347304 -3.233 0.937735 -95.45 0.937735 -95.45 0.347279 -7.676
8.99120000 0.347418 -3.225 0.937692 -95.46 0.937692 -95.46 0.347393 -7.707
8.99140000 0.347533 -3.217 0.937650 -95.48 0.937650 -95.48 0.347508 -7.739
8.99160000 0.347648 -3.209 0.937607 -95.49 0.937607 -95.49 0.347623 -7.770
8.99180000 0.347764 -3.202 0.937564 -95.50 0.937564 -95.50 0.347739 -7.802
8.99200000 0.347880 -3.194 0.937521 -95.51 0.937521 -95.51 0.347855 -7.834
8.99220000 0.347997 -3.186 0.937477 -95.52 0.937477 -95.52 0.347972 -7.866
8.99240000 0.348115 -3.178 0.937434 -95.54 0.937434 -95.54 0.348089 -7.898
8.99260000 0.348232 -3.170 0.937390 -95.55 0.937390 -95.55 0.348207 -7.930
8.99280000 0.348351 -3.162 0.937346 -95.56 0.937346 -95.56 0.348325 -7.962
8.99300000 0.348470 -3.154 0.937301 -95.57 0.937301 -95.57 0.348444 -7.995
8.99320000 0.348589 -3.146 0.937257 -95.58 0.937257 -95.58 0.348563 -8.028
8.99340000 0.348709 -3.138 0.937212 -95.60 0.937212 -95.60 0.348683 -8.060
8.99360000 0.348830 -3.129 0.937167 -95.61 0.937167 -95.61 0.348803 -8.093
8.99380000 0.348951 -3.121 0.937122 -95.62 0.937122 -95.62 0.348925 -8.126
8.99400000 0.349073 -3.113 0.937077 -95.63 0.937077 -95.63 0.349046 -8.159
8.99420000 0.349195 -3.105 0.937031 -95.65 0.937031 -95.65 0.349168 -8.193
8.99440000 0.349318 -3.096 0.936985 -95.66 0.936985 -95.66 0.349291 -8.226
8.99460000 0.349441 -3.088 0.936939 -95.67 0.936939 -95.67 0.349414 -8.260
8.99480000 0.349565 -3.079 0.936893 -95.68 0.936893 -95.68 0.349538 -8.293
8.99500000 0.349690 -3.071 0.936846 -95.70 0.936846 -95.70 0.349663 -8.327
8.99520000 0.349815 -3.062 0.936799 -95.71 0.936799 -95.71 0.349788 -8.361
8.99540000 0.349941 -3.054 0.936752 -95.72 0.936752 -95.72 0.349913 -8.395
8.99560000 0.350067 -3.045 0.936705 -95.74 0.936705 -95.74 0.350039 -8.430
8.99580000 0.350194 -3.037 0.936658 -95.75 0.936658 -95.75 0.350166 -8.464
8.99600000 0.350322 -3.028 0.936610 -95.76 0.936610 -95.76 0.350294 -8.499
8.99620000 0.350450 -3.019 0.936562 -95.77 0.936562 -95.77 0.350422 -8.533
8.99640000 0.350578 -3.011 0.936514 -95.79 0.936514 -95.79 0.350550 -8.568
8.99660000 0.350708 -3.002 0.936465 -95.80 0.936465 -95.80 0.350679 -8.603
8.99680000 0.350838 -2.993 0.936416 -95.81 0.936416 -95.81 0.350809 -8.638
8.99700000 0.350968 -2.984 0.936367 -95.83 0.936367 -95.83 0.350940 -8.674
8.99720000 0.351100 -2.975 0.936318 -95.84 0.936318 -95.84 0.351071 -8.709
8.99740000 0.351231 -2.966 0.936268 -95.85 0.936268 -95.85 0.351203 -8.745
8.99760000 0.351364 -2.957 0.936219 -95.87 0.936219 -95.87 0.351335 -8.780
8.99780000 0.351497 -2.948 0.936169 -95.88 0.936169 -95.88 0.351468 -8.816
8.99800000 0.351631 -2.939 0.936118 -95.89 0.936118 -95.89 0.351602 -8.852
8.99820000 0.351765 -2.930 0.936068 -95.91 0.936068 -95.91 0.351736 -8.889
8.99840000 0.351901 -2.921 0.936017 -95.92 0.936017 -95.92 0.351871 -8.925
8.99860000 0.352036 -2.912 0.935966 -95.93 0.935966 -95.93 0.352007 -8.961
8.99880000 0.352173 -2.902 0.935914 -95.95 0.935914 -95.95 0.352143 -8.998
8.99900000 0.352310 -2.893 0.935863 -95.96 0.935863 -95.96 0.352280 -9.035
8.99920000 0.352448 -2.884 0.935811 -95.98 0.935811 -95.98 0.352418 -9.072
8.99940000 0.352586 -2.874 0.935758 -95.99 0.935758 -95.99 0.352556 -9.109
8.99960000 0.352726 -2.865 0.935706 -96.00 0.935706 -96.00 0.352695 -9.146
8.99980000 0.352865 -2.855 0.935653 -96.02 0.935653 -96.02 0.352835 -9.184
9.00000000 0.353006 -2.846 0.935600 -96.03 0.935600 -96.03 0.352975 -9.222
9.00020000 0.353147 -2.836 0.935546 -96.05 0.935546 -96.05 0.353116 -9.259
9.00040000 0.353289 -2.827 0.935493 -96.06 0.935493 -96.06 0.353258 -9.297
9.00060000 0.353432 -2.817 0.935439 -96.07 0.935439 -96.07 0.353401 -9.336
9.00080000 0.353576 -2.807 0.935384 -96.09 0.935384 -96.09 0.353544 -9.374
9.00100000 0.353720 -2.797 0.935330 -96.10 0.935330 -96.10 0.353688 -9.412
9.00120000 0.353865 -2.788 0.935275 -96.12 0.935275 -96.12 0.353833 -9.451
9.00140000 0.354011 -2.778 0.935219 -96.13 0.935219 -96.13 0.353979 -9.490
9.00160000 0.354157 -2.768 0.935164 -96.15 0.935164 -96.15 0.354125 -9.529
9.00180000 0.354304 -2.758 0.935108 -96.16 0.935108 -96.16 0.354272 -9.568
9.00200000 0.354452 -2.748 0.935052 -96.18 0.935052 -96.18 0.354420 -9.608
9.00220000 0.354601 -2.738 0.934995 -96.19 0.934995 -96.19 0.354569 -9.647
9.00240000 0.354751 -2.728 0.934939 -96.20 0.934939 -96.20 0.354718 -9.687
9.00260000 0.354901 -2.717 0.934881 -96.22 0.934881 -96.22 0.354868 -9.727
9.00280000 0.355052 -2.707 0.934824 -96.23 0.934824 -96.23 0.355019 -9.767
9.00300000 0.355204 -2.697 0.934766 -96.25 0.934766 -96.25 0.355171 -9.807
9.00320000 0.355357 -2.687 0.934708 -96.26 0.934708 -96.26 0.355323 -9.848
9.00340000 0.355510 -2.676 0.934649 -96.28 0.934649 -96.28 0.355477 -9.888
9.00360000 0.355665 -2.666 0.934591 -96.29 0.934591 -96.29 0.355631 -9.929
9.00380000 0.355820 -2.655 0.934531 -96.31 0.934531 -96.31 0.355786 -9.970
9.00400000 0.355976 -2.645 0.934472 -96.33 0.934472 -96.33 0.355942 -10.01
9.00420000 0.356133 -2.634 0.934412 -96.34 0.934412 -96.34 0.356099 -10.05
9.00440000 0.356291 -2.624 0.934352 -96.36 0.934352 -96.36 0.356256 -10.09
9.00460000 0.356449 -2.613 0.934291 -96.37 0.934291 -96.37 0.356414 -10.14
9.00480000 0.356609 -2.602 0.934230 -96.39 0.934230 -96.39 0.356574 -10.18
9.00500000 0.356769 -2.592 0.934169 -96.40 0.934169 -96.40 0.356734 -10.22
9.00520000 0.356930 -2.581 0.934107 -96.42 0.934107 -96.42 0.356895 -10.26
9.00540000 0.357092 -2.570 0.934045 -96.43 0.934045 -96.43 0.357057 -10.31
9.00560000 0.357255 -2.559 0.933983 -96.45 0.933983 -96.45 0.357220 -10.35
9.00580000 0.357419 -2.548 0.933920 -96.47 0.933920 -96.47 0.357383 -10.39
9.00600000 0.357584 -2.537 0.933857 -96.48 0.933857 -96.48 0.357548 -10.43
9.00620000 0.357749 -2.526 0.933793 -96.50 0.933793 -96.50 0.357713 -10.48
9.00640000 0.357916 -2.515 0.933729 -96.52 0.933729 -96.52 0.357880 -10.52
9.00660000 0.358084 -2.504 0.933665 -96.53 0.933665 -96.53 0.358047 -10.57
9.00680000 0.358252 -2.492 0.933600 -96.55 0.933600 -96.55 0.358215 -10.61
9.00700000 0.358422 -2.481 0.933535 -96.56 0.933535 -96.56 0.358385 -10.65
9.00720000 0.358592 -2.470 0.933469 -96.58 0.933469 -96.58 0.358555 -10.70
9.00740000 0.358763 -2.458 0.933403 -96.60 0.933403 -96.60 0.358726 -10.74
9.00760000 0.358936 -2.447 0.933337 -96.61 0.933337 -96.61 0.358898 -10.79
9.00780000 0.359109 -2.435 0.933270 -96.63 0.933270 -96.63 0.359071 -10.83
9.00800000 0.359283 -2.424 0.933203 -96.65 0.933203 -96.65 0.359245 -10.88
9.00820000 0.359459 -2.412 0.933135 -96.67 0.933135 -96.67 0.359421 -10.92
9.00840000 0.359635 -2.400 0.933067 -96.68 0.933067 -96.68 0.359597 -10.97
9.00860000 0.359812 -2.389 0.932999 -96.70 0.932999 -96.70 0.359774 -11.02
9.00880000 0.359991 -2.377 0.932930 -96.72 0.932930 -96.72 0.359952 -11.06
9.00900000 0.360170 -2.365 0.932860 -96.73 0.932860 -96.73 0.360131 -11.11
9.00920000 0.360351 -2.353 0.932791 -96.75 0.932791 -96.75 0.360312 -11.16
9.00940000 0.360532 -2.341 0.932720 -96.77 0.932720 -96.77 0.360493 -11.20
9.00960000 0.360715 -2.329 0.932650 -96.79 0.932650 -96.79 0.360675 -11.25
9.00980000 0.360899 -2.317 0.932578 -96.80 0.932578 -96.80 0.360859 -11.30
9.01000000 0.361084 -2.305 0.932507 -96.82 0.932507 -96.82 0.361043 -11.34
9.01020000 0.361269 -2.293 0.932435 -96.84 0.932435 -96.84 0.361229 -11.39
9.01040000 0.361456 -2.280 0.932362 -96.86 0.932362 -96.86 0.361416 -11.44
9.01060000 0.361645 -2.268 0.932289 -96.88 0.932289 -96.88 0.361604 -11.49
9.01080000 0.361834 -2.256 0.932215 -96.89 0.932215 -96.89 0.361793 -11.54
9.01100000 0.362024 -2.243 0.932141 -96.91 0.932141 -96.91 0.361983 -11.59
9.01120000 0.362216 -2.231 0.932067 -96.93 0.932067 -96.93 0.362174 -11.64
9.01140000 0.362409 -2.218 0.931992 -96.95 0.931992 -96.95 0.362367 -11.69
9.01160000 0.362602 -2.205 0.931916 -96.97 0.931916 -96.97 0.362561 -11.74
9.01180000 0.362798 -2.193 0.931840 -96.99 0.931840 -96.99 0.362755 -11.79
9.01200000 0.362994 -2.180 0.931763 -97.00 0.931763 -97.00 0.362951 -11.84
9.01220000 0.363191 -2.167 0.931686 -97.02 0.931686 -97.02 0.363149 -11.89
9.01240000 0.363390 -2.154 0.931609 -97.04 0.931609 -97.04 0.363347 -11.94
9.01260000 0.363590 -2.141 0.931530 -97.06 0.931530 -97.06 0.363547 -11.99
9.01280000 0.363791 -2.128 0.931452 -97.08 0.931452 -97.08 0.363748 -12.04
9.01300000 0.363994 -2.115 0.931372 -97.10 0.931372 -97.10 0.363950 -12.09
9.01320000 0.364197 -2.102 0.931293 -97.12 0.931293 -97.12 0.364154 -12.14
9.01340000 0.364402 -2.089 0.931212 -97.14 0.931212 -97.14 0.364358 -12.19
9.01360000 0.364609 -2.075 0.931131 -97.16 0.931131 -97.16 0.364564 -12.25
9.01380000 0.364816 -2.062 0.931050 -97.18 0.931050 -97.18 0.364772 -12.30
9.01400000 0.365025 -2.049 0.930968 -97.20 0.930968 -97.20 0.364980 -12.35
9.01420000 0.365236 -2.035 0.930885 -97.22 0.930885 -97.22 0.365190 -12.41
9.01440000 0.365447 -2.022 0.930802 -97.24 0.930802 -97.24 0.365402 -12.46
9.01460000 0.365660 -2.008 0.930718 -97.26 0.930718 -97.26 0.365615 -12.51
9.01480000 0.365875 -1.994 0.930634 -97.28 0.930634 -97.28 0.365829 -12.57
9.01500000 0.366090 -1.981 0.930549 -97.30 0.930549 -97.30 0.366044 -12.62
9.01520000 0.366307 -1.967 0.930463 -97.32 0.930463 -97.32 0.366261 -12.68
9.01540000 0.366526 -1.953 0.930377 -97.34 0.930377 -97.34 0.366479 -12.73
9.01560000 0.366746 -1.939 0.930290 -97.36 0.930290 -97.36 0.366699 -12.79
9.01580000 0.366967 -1.925 0.930203 -97.38 0.930203 -97.38 0.366920 -12.84
9.01600000 0.367190 -1.911 0.930114 -97.40 0.930114 -97.40 0.367143 -12.90
9.01620000 0.367415 -1.897 0.930026 -97.42 0.930026 -97.42 0.367367 -12.95
9.01640000 0.367641 -1.882 0.929936 -97.44 0.929936 -97.44 0.367592 -13.01
9.01660000 0.367868 -1.868 0.929846 -97.46 0.929846 -97.46 0.367820 -13.07
9.01680000 0.368097 -1.854 0.929755 -97.48 0.929755 -97.48 0.368048 -13.12
9.01700000 0.368327 -1.839 0.929664 -97.51 0.929664 -97.51 0.368278 -13.18
9.01720000 0.368559 -1.825 0.929572 -97.53 0.929572 -97.53 0.368510 -13.24
9.01740000 0.368793 -1.810 0.929479 -97.55 0.929479 -97.55 0.368743 -13.30
9.01760000 0.369028 -1.796 0.929385 -97.57 0.929385 -97.57 0.368978 -13.36
9.01780000 0.369265 -1.781 0.929291 -97.59 0.929291 -97.59 0.369215 -13.41
9.01800000 0.369503 -1.766 0.929196 -97.62 0.929196 -97.62 0.369453 -13.47
9.01820000 0.369743 -1.751 0.929100 -97.64 0.929100 -97.64 0.369692 -13.53
9.01840000 0.369985 -1.736 0.929004 -97.66 0.929004 -97.66 0.369934 -13.59
9.01860000 0.370228 -1.721 0.928907 -97.68 0.928907 -97.68 0.370177 -13.65
9.01880000 0.370473 -1.706 0.928809 -97.71 0.928809 -97.71 0.370422 -13.71
9.01900000 0.370720 -1.691 0.928710 -97.73 0.928710 -97.73 0.370668 -13.77
9.01920000 0.370969 -1.676 0.928611 -97.75 0.928611 -97.75 0.370916 -13.84
9.01940000 0.371219 -1.661 0.928511 -97.77 0.928511 -97.77 0.371166 -13.90
9.01960000 0.371471 -1.645 0.928410 -97.80 0.928410 -97.80 0.371418 -13.96
9.01980000 0.371725 -1.630 0.928308 -97.82 0.928308 -97.82 0.371671 -14.02
9.02000000 0.371980 -1.614 0.928205 -97.84 0.928205 -97.84 0.371926 -14.08
9.02020000 0.372238 -1.599 0.928102 -97.87 0.928102 -97.87 0.372183 -14.15
9.02040000 0.372497 -1.583 0.927998 -97.89 0.927998 -97.89 0.372442 -14.21
9.02060000 0.372758 -1.567 0.927892 -97.92 0.927892 -97.92 0.372703 -14.27
9.02080000 0.373021 -1.551 0.927787 -97.94 0.927787 -97.94 0.372966 -14.34
9.02100000 0.373286 -1.535 0.927680 -97.96 0.927680 -97.96 0.373230 -14.40
9.02120000 0.373553 -1.519 0.927572 -97.99 0.927572 -97.99 0.373497 -14.47
9.02140000 0.373822 -1.503 0.927464 -98.01 0.927464 -98.01 0.373765 -14.53
9.02160000 0.374092 -1.487 0.927354 -98.04 0.927354 -98.04 0.374036 -14.60
9.02180000 0.374365 -1.471 0.927244 -98.06 0.927244 -98.06 0.374308 -14.66
9.02200000 0.374640 -1.455 0.927133 -98.09 0.927133 -98.09 0.374582 -14.73
9.02220000 0.374917 -1.438 0.927021 -98.11 0.927021 -98.11 0.374859 -14.80
9.02240000 0.375196 -1.422 0.926907 -98.14 0.926907 -98.14 0.375137 -14.87
9.02260000 0.375477 -1.405 0.926793 -98.16 0.926793 -98.16 0.375418 -14.93
9.02280000 0.375760 -1.389 0.926678 -98.19 0.926678 -98.19 0.375701 -15.00
9.02300000 0.376045 -1.372 0.926563 -98.22 0.926563 -98.22 0.375985 -15.07
9.02320000 0.376332 -1.355 0.926446 -98.24 0.926446 -98.24 0.376272 -15.14
9.02340000 0.376622 -1.338 0.926328 -98.27 0.926328 -98.27 0.376561 -15.21
9.02360000 0.376913 -1.321 0.926209 -98.29 0.926209 -98.29 0.376853 -15.28
9.02380000 0.377207 -1.304 0.926089 -98.32 0.926089 -98.32 0.377146 -15.35
9.02400000 0.377504 -1.287 0.925968 -98.35 0.925968 -98.35 0.377442 -15.42
9.02420000 0.377802 -1.270 0.925846 -98.38 0.925846 -98.38 0.377740 -15.49
9.02440000 0.378103 -1.253 0.925723 -98.40 0.925723 -98.40 0.378041 -15.56
9.02460000 0.378406 -1.235 0.925598 -98.43 0.925598 -98.43 0.378344 -15.63
9.02480000 0.378712 -1.218 0.925473 -98.46 0.925473 -98.46 0.378649 -15.71
9.02500000 0.379020 -1.201 0.925347 -98.48 0.925347 -98.48 0.378956 -15.78
9.02520000 0.379330 -1.183 0.925219 -98.51 0.925219 -98.51 0.379266 -15.85
9.02540000 0.379643 -1.165 0.925091 -98.54 0.925091 -98.54 0.379579 -15.93
9.02560000 0.379958 -1.147 0.924961 -98.57 0.924961 -98.57 0.379893 -16.00
9.02580000 0.380276 -1.130 0.924830 -98.60 0.924830 -98.60 0.380211 -16.08
9.02600000 0.380597 -1.112 0.924698 -98.63 0.924698 -98.63 0.380531 -16.15
9.02620000 0.380920 -1.094 0.924565 -98.66 0.924565 -98.66 0.380853 -16.23
9.02640000 0.381245 -1.076 0.924430 -98.68 0.924430 -98.68 0.381178 -16.30
9.02660000 0.381573 -1.057 0.924294 -98.71 0.924294 -98.71 0.381506 -16.38
9.02680000 0.381904 -1.039 0.924157 -98.74 0.924157 -98.74 0.381836 -16.46
9.02700000 0.382238 -1.021 0.924019 -98.77 0.924019 -98.77 0.382170 -16.54
9.02720000 0.382574 -1.002 0.923880 -98.80 0.923880 -98.80 0.382505 -16.62
9.02740000 0.382913 -0.984 0.923739 -98.83 0.923739 -98.83 0.382844 -16.69
9.02760000 0.383255 -0.965 0.923597 -98.86 0.923597 -98.86 0.383185 -16.77
9.02780000 0.383600 -0.946 0.923453 -98.89 0.923453 -98.89 0.383530 -16.85
9.02800000 0.383948 -0.928 0.923308 -98.93 0.923308 -98.93 0.383877 -16.93
9.02820000 0.384298 -0.909 0.923162 -98.96 0.923162 -98.96 0.384227 -17.02
9.02840000 0.384652 -0.890 0.923015 -98.99 0.923015 -98.99 0.384580 -17.10