! Sonnet Data File
! From: emgraph Version : 16.52
! From Emgraph Data: Resonator2_cp_varyW
! Data File Written: 10/09/2017 09:13:00
!< HDATE 10/09/2017 07:42:24
!< MDATE 10/09/2017 07:43:09
!< PARAMS
!< Length = 400.0
!< Pwid1 = 2000.0
!< Width = 50.0
!< gap = 26.0
!< END PARAMS
# GHZ S MA R 47.40000
8.90000000 0.015507 17.574 0.999875 -73.35 0.999875 -73.35 0.015505 15.748
!< P1 F=8.9 Eeff=(5.03074334 -2.1789e-5) Z0=(47.3979938 1.04427e-4) R=0.0 C=0.0 
!< P2 F=8.9 Eeff=(5.03074334 -2.1789e-5) Z0=(47.3979938 1.04427e-4) R=0.0 C=0.0 
8.90010000 0.015500 17.592 0.999875 -73.35 0.999875 -73.35 0.015498 15.727
8.90020000 0.015493 17.610 0.999875 -73.35 0.999875 -73.35 0.015491 15.706
8.90030000 0.015486 17.629 0.999876 -73.36 0.999876 -73.36 0.015484 15.685
8.90040000 0.015479 17.647 0.999876 -73.36 0.999876 -73.36 0.015477 15.664
8.90050000 0.015472 17.666 0.999876 -73.36 0.999876 -73.36 0.015470 15.643
8.90060000 0.015465 17.684 0.999876 -73.36 0.999876 -73.36 0.015463 15.622
8.90070000 0.015458 17.703 0.999876 -73.36 0.999876 -73.36 0.015456 15.600
8.90080000 0.015451 17.722 0.999876 -73.36 0.999876 -73.36 0.015448 15.579
8.90090000 0.015444 17.740 0.999876 -73.36 0.999876 -73.36 0.015441 15.557
8.90100000 0.015436 17.759 0.999876 -73.37 0.999876 -73.37 0.015434 15.536
8.90110000 0.015429 17.778 0.999876 -73.37 0.999876 -73.37 0.015427 15.514
8.90120000 0.015422 17.797 0.999876 -73.37 0.999876 -73.37 0.015420 15.492
8.90130000 0.015415 17.817 0.999877 -73.37 0.999877 -73.37 0.015412 15.470
8.90140000 0.015407 17.836 0.999877 -73.37 0.999877 -73.37 0.015405 15.448
8.90150000 0.015400 17.855 0.999877 -73.37 0.999877 -73.37 0.015398 15.426
8.90160000 0.015393 17.875 0.999877 -73.37 0.999877 -73.37 0.015390 15.404
8.90170000 0.015385 17.894 0.999877 -73.38 0.999877 -73.38 0.015383 15.382
8.90180000 0.015378 17.914 0.999877 -73.38 0.999877 -73.38 0.015376 15.360
8.90190000 0.015371 17.934 0.999877 -73.38 0.999877 -73.38 0.015368 15.337
8.90200000 0.015363 17.954 0.999877 -73.38 0.999877 -73.38 0.015361 15.315
8.90210000 0.015356 17.974 0.999877 -73.38 0.999877 -73.38 0.015353 15.292
8.90220000 0.015348 17.994 0.999878 -73.38 0.999878 -73.38 0.015346 15.269
8.90230000 0.015341 18.014 0.999878 -73.38 0.999878 -73.38 0.015338 15.246
8.90240000 0.015333 18.034 0.999878 -73.38 0.999878 -73.38 0.015331 15.223
8.90250000 0.015326 18.054 0.999878 -73.39 0.999878 -73.39 0.015323 15.200
8.90260000 0.015318 18.075 0.999878 -73.39 0.999878 -73.39 0.015316 15.177
8.90270000 0.015311 18.095 0.999878 -73.39 0.999878 -73.39 0.015308 15.154
8.90280000 0.015303 18.116 0.999878 -73.39 0.999878 -73.39 0.015300 15.131
8.90290000 0.015295 18.136 0.999878 -73.39 0.999878 -73.39 0.015293 15.107
8.90300000 0.015288 18.157 0.999878 -73.39 0.999878 -73.39 0.015285 15.084
8.90310000 0.015280 18.178 0.999878 -73.39 0.999878 -73.39 0.015277 15.060
8.90320000 0.015272 18.199 0.999879 -73.40 0.999879 -73.40 0.015270 15.036
8.90330000 0.015264 18.220 0.999879 -73.40 0.999879 -73.40 0.015262 15.012
8.90340000 0.015257 18.241 0.999879 -73.40 0.999879 -73.40 0.015254 14.989
8.90350000 0.015249 18.263 0.999879 -73.40 0.999879 -73.40 0.015246 14.964
8.90360000 0.015241 18.284 0.999879 -73.40 0.999879 -73.40 0.015238 14.940
8.90370000 0.015233 18.306 0.999879 -73.40 0.999879 -73.40 0.015231 14.916
8.90380000 0.015225 18.327 0.999879 -73.40 0.999879 -73.40 0.015223 14.892
8.90390000 0.015217 18.349 0.999879 -73.41 0.999879 -73.41 0.015215 14.867
8.90400000 0.015210 18.371 0.999879 -73.41 0.999879 -73.41 0.015207 14.842
8.90410000 0.015202 18.393 0.999880 -73.41 0.999880 -73.41 0.015199 14.818
8.90420000 0.015194 18.415 0.999880 -73.41 0.999880 -73.41 0.015191 14.793
8.90430000 0.015186 18.437 0.999880 -73.41 0.999880 -73.41 0.015183 14.768
8.90440000 0.015178 18.459 0.999880 -73.41 0.999880 -73.41 0.015175 14.743
8.90450000 0.015170 18.482 0.999880 -73.41 0.999880 -73.41 0.015167 14.718
8.90460000 0.015161 18.504 0.999880 -73.42 0.999880 -73.42 0.015159 14.692
8.90470000 0.015153 18.527 0.999880 -73.42 0.999880 -73.42 0.015151 14.667
8.90480000 0.015145 18.549 0.999880 -73.42 0.999880 -73.42 0.015142 14.642
8.90490000 0.015137 18.572 0.999881 -73.42 0.999881 -73.42 0.015134 14.616
8.90500000 0.015129 18.595 0.999881 -73.42 0.999881 -73.42 0.015126 14.590
8.90510000 0.015121 18.618 0.999881 -73.42 0.999881 -73.42 0.015118 14.564
8.90520000 0.015112 18.641 0.999881 -73.42 0.999881 -73.42 0.015110 14.538
8.90530000 0.015104 18.665 0.999881 -73.43 0.999881 -73.43 0.015101 14.512
8.90540000 0.015096 18.688 0.999881 -73.43 0.999881 -73.43 0.015093 14.486
8.90550000 0.015087 18.712 0.999881 -73.43 0.999881 -73.43 0.015085 14.460
8.90560000 0.015079 18.735 0.999881 -73.43 0.999881 -73.43 0.015076 14.433
8.90570000 0.015071 18.759 0.999881 -73.43 0.999881 -73.43 0.015068 14.406
8.90580000 0.015062 18.783 0.999882 -73.43 0.999882 -73.43 0.015059 14.380
8.90590000 0.015054 18.807 0.999882 -73.43 0.999882 -73.43 0.015051 14.353
8.90600000 0.015045 18.831 0.999882 -73.44 0.999882 -73.44 0.015042 14.326
8.90610000 0.015037 18.855 0.999882 -73.44 0.999882 -73.44 0.015034 14.299
8.90620000 0.015028 18.880 0.999882 -73.44 0.999882 -73.44 0.015025 14.271
8.90630000 0.015020 18.904 0.999882 -73.44 0.999882 -73.44 0.015017 14.244
8.90640000 0.015011 18.929 0.999882 -73.44 0.999882 -73.44 0.015008 14.217
8.90650000 0.015003 18.954 0.999882 -73.44 0.999882 -73.44 0.015000 14.189
8.90660000 0.014994 18.979 0.999883 -73.44 0.999883 -73.44 0.014991 14.161
8.90670000 0.014985 19.004 0.999883 -73.45 0.999883 -73.45 0.014982 14.133
8.90680000 0.014977 19.029 0.999883 -73.45 0.999883 -73.45 0.014974 14.105
8.90690000 0.014968 19.054 0.999883 -73.45 0.999883 -73.45 0.014965 14.077
8.90700000 0.014959 19.079 0.999883 -73.45 0.999883 -73.45 0.014956 14.049
8.90710000 0.014950 19.105 0.999883 -73.45 0.999883 -73.45 0.014947 14.020
8.90720000 0.014941 19.131 0.999883 -73.45 0.999883 -73.45 0.014938 13.992
8.90730000 0.014933 19.156 0.999883 -73.46 0.999883 -73.46 0.014929 13.963
8.90740000 0.014924 19.182 0.999884 -73.46 0.999884 -73.46 0.014921 13.934
8.90750000 0.014915 19.208 0.999884 -73.46 0.999884 -73.46 0.014912 13.905
8.90760000 0.014906 19.235 0.999884 -73.46 0.999884 -73.46 0.014903 13.876
8.90770000 0.014897 19.261 0.999884 -73.46 0.999884 -73.46 0.014894 13.847
8.90780000 0.014888 19.288 0.999884 -73.46 0.999884 -73.46 0.014885 13.817
8.90790000 0.014879 19.314 0.999884 -73.46 0.999884 -73.46 0.014876 13.788
8.90800000 0.014870 19.341 0.999884 -73.47 0.999884 -73.47 0.014866 13.758
8.90810000 0.014861 19.368 0.999884 -73.47 0.999884 -73.47 0.014857 13.728
8.90820000 0.014851 19.395 0.999885 -73.47 0.999885 -73.47 0.014848 13.698
8.90830000 0.014842 19.422 0.999885 -73.47 0.999885 -73.47 0.014839 13.668
8.90840000 0.014833 19.450 0.999885 -73.47 0.999885 -73.47 0.014830 13.637
8.90850000 0.014824 19.477 0.999885 -73.47 0.999885 -73.47 0.014821 13.607
8.90860000 0.014815 19.505 0.999885 -73.47 0.999885 -73.47 0.014811 13.576
8.90870000 0.014805 19.533 0.999885 -73.48 0.999885 -73.48 0.014802 13.545
8.90880000 0.014796 19.560 0.999885 -73.48 0.999885 -73.48 0.014793 13.515
8.90890000 0.014787 19.589 0.999885 -73.48 0.999885 -73.48 0.014783 13.483
8.90900000 0.014777 19.617 0.999886 -73.48 0.999886 -73.48 0.014774 13.452
8.90910000 0.014768 19.645 0.999886 -73.48 0.999886 -73.48 0.014764 13.421
8.90920000 0.014758 19.674 0.999886 -73.48 0.999886 -73.48 0.014755 13.389
8.90930000 0.014749 19.703 0.999886 -73.49 0.999886 -73.49 0.014745 13.357
8.90940000 0.014739 19.732 0.999886 -73.49 0.999886 -73.49 0.014736 13.325
8.90950000 0.014730 19.761 0.999886 -73.49 0.999886 -73.49 0.014726 13.293
8.90960000 0.014720 19.790 0.999886 -73.49 0.999886 -73.49 0.014717 13.261
8.90970000 0.014710 19.819 0.999886 -73.49 0.999886 -73.49 0.014707 13.229
8.90980000 0.014701 19.849 0.999887 -73.49 0.999887 -73.49 0.014697 13.196
8.90990000 0.014691 19.878 0.999887 -73.50 0.999887 -73.50 0.014687 13.163
8.91000000 0.014681 19.908 0.999887 -73.50 0.999887 -73.50 0.014678 13.130
8.91010000 0.014672 19.938 0.999887 -73.50 0.999887 -73.50 0.014668 13.097
8.91020000 0.014662 19.969 0.999887 -73.50 0.999887 -73.50 0.014658 13.064
8.91030000 0.014652 19.999 0.999887 -73.50 0.999887 -73.50 0.014648 13.031
8.91040000 0.014642 20.029 0.999887 -73.50 0.999887 -73.50 0.014638 12.997
8.91050000 0.014632 20.060 0.999888 -73.50 0.999888 -73.50 0.014628 12.963
8.91060000 0.014622 20.091 0.999888 -73.51 0.999888 -73.51 0.014618 12.929
8.91070000 0.014612 20.122 0.999888 -73.51 0.999888 -73.51 0.014608 12.895
8.91080000 0.014602 20.153 0.999888 -73.51 0.999888 -73.51 0.014598 12.861
8.91090000 0.014592 20.185 0.999888 -73.51 0.999888 -73.51 0.014588 12.826
8.91100000 0.014582 20.217 0.999888 -73.51 0.999888 -73.51 0.014578 12.791
8.91110000 0.014572 20.248 0.999888 -73.51 0.999888 -73.51 0.014568 12.756
8.91120000 0.014562 20.280 0.999888 -73.52 0.999888 -73.52 0.014558 12.721
8.91130000 0.014551 20.312 0.999889 -73.52 0.999889 -73.52 0.014548 12.686
8.91140000 0.014541 20.345 0.999889 -73.52 0.999889 -73.52 0.014537 12.651
8.91150000 0.014531 20.377 0.999889 -73.52 0.999889 -73.52 0.014527 12.615
8.91160000 0.014521 20.410 0.999889 -73.52 0.999889 -73.52 0.014517 12.579
8.91170000 0.014510 20.443 0.999889 -73.52 0.999889 -73.52 0.014506 12.543
8.91180000 0.014500 20.476 0.999889 -73.53 0.999889 -73.53 0.014496 12.507
8.91190000 0.014489 20.509 0.999889 -73.53 0.999889 -73.53 0.014485 12.470
8.91200000 0.014479 20.543 0.999890 -73.53 0.999890 -73.53 0.014475 12.434
8.91210000 0.014468 20.577 0.999890 -73.53 0.999890 -73.53 0.014464 12.397
8.91220000 0.014458 20.610 0.999890 -73.53 0.999890 -73.53 0.014454 12.360
8.91230000 0.014447 20.645 0.999890 -73.53 0.999890 -73.53 0.014443 12.322
8.91240000 0.014437 20.679 0.999890 -73.54 0.999890 -73.54 0.014432 12.285
8.91250000 0.014426 20.713 0.999890 -73.54 0.999890 -73.54 0.014422 12.247
8.91260000 0.014415 20.748 0.999890 -73.54 0.999890 -73.54 0.014411 12.209
8.91270000 0.014404 20.783 0.999891 -73.54 0.999891 -73.54 0.014400 12.171
8.91280000 0.014394 20.818 0.999891 -73.54 0.999891 -73.54 0.014389 12.133
8.91290000 0.014383 20.853 0.999891 -73.54 0.999891 -73.54 0.014379 12.094
8.91300000 0.014372 20.889 0.999891 -73.55 0.999891 -73.55 0.014368 12.055
8.91310000 0.014361 20.925 0.999891 -73.55 0.999891 -73.55 0.014357 12.016
8.91320000 0.014350 20.961 0.999891 -73.55 0.999891 -73.55 0.014346 11.977
8.91330000 0.014339 20.997 0.999891 -73.55 0.999891 -73.55 0.014335 11.938
8.91340000 0.014328 21.033 0.999892 -73.55 0.999892 -73.55 0.014324 11.898
8.91350000 0.014317 21.070 0.999892 -73.55 0.999892 -73.55 0.014313 11.858
8.91360000 0.014306 21.107 0.999892 -73.56 0.999892 -73.56 0.014301 11.818
8.91370000 0.014295 21.144 0.999892 -73.56 0.999892 -73.56 0.014290 11.778
8.91380000 0.014283 21.181 0.999892 -73.56 0.999892 -73.56 0.014279 11.737
8.91390000 0.014272 21.219 0.999892 -73.56 0.999892 -73.56 0.014268 11.696
8.91400000 0.014261 21.257 0.999892 -73.56 0.999892 -73.56 0.014256 11.655
8.91410000 0.014249 21.295 0.999893 -73.56 0.999893 -73.56 0.014245 11.614
8.91420000 0.014238 21.333 0.999893 -73.57 0.999893 -73.57 0.014234 11.572
8.91430000 0.014227 21.372 0.999893 -73.57 0.999893 -73.57 0.014222 11.530
8.91440000 0.014215 21.410 0.999893 -73.57 0.999893 -73.57 0.014211 11.488
8.91450000 0.014204 21.449 0.999893 -73.57 0.999893 -73.57 0.014199 11.446
8.91460000 0.014192 21.488 0.999893 -73.57 0.999893 -73.57 0.014188 11.403
8.91470000 0.014181 21.528 0.999893 -73.57 0.999893 -73.57 0.014176 11.360
8.91480000 0.014169 21.568 0.999894 -73.58 0.999894 -73.58 0.014164 11.317
8.91490000 0.014157 21.608 0.999894 -73.58 0.999894 -73.58 0.014153 11.274
8.91500000 0.014145 21.648 0.999894 -73.58 0.999894 -73.58 0.014141 11.230
8.91510000 0.014134 21.688 0.999894 -73.58 0.999894 -73.58 0.014129 11.187
8.91520000 0.014122 21.729 0.999894 -73.58 0.999894 -73.58 0.014117 11.142
8.91530000 0.014110 21.770 0.999894 -73.58 0.999894 -73.58 0.014105 11.098
8.91540000 0.014098 21.811 0.999895 -73.59 0.999895 -73.59 0.014093 11.053
8.91550000 0.014086 21.853 0.999895 -73.59 0.999895 -73.59 0.014081 11.008
8.91560000 0.014074 21.895 0.999895 -73.59 0.999895 -73.59 0.014069 10.963
8.91570000 0.014062 21.937 0.999895 -73.59 0.999895 -73.59 0.014057 10.918
8.91580000 0.014050 21.979 0.999895 -73.59 0.999895 -73.59 0.014045 10.872
8.91590000 0.014038 22.022 0.999895 -73.59 0.999895 -73.59 0.014033 10.826
8.91600000 0.014026 22.065 0.999895 -73.60 0.999895 -73.60 0.014021 10.779
8.91610000 0.014013 22.108 0.999896 -73.60 0.999896 -73.60 0.014008 10.733
8.91620000 0.014001 22.151 0.999896 -73.60 0.999896 -73.60 0.013996 10.686
8.91630000 0.013989 22.195 0.999896 -73.60 0.999896 -73.60 0.013984 10.639
8.91640000 0.013976 22.239 0.999896 -73.60 0.999896 -73.60 0.013971 10.591
8.91650000 0.013964 22.284 0.999896 -73.61 0.999896 -73.61 0.013959 10.543
8.91660000 0.013951 22.328 0.999896 -73.61 0.999896 -73.61 0.013946 10.495
8.91670000 0.013939 22.373 0.999897 -73.61 0.999897 -73.61 0.013934 10.447
8.91680000 0.013926 22.418 0.999897 -73.61 0.999897 -73.61 0.013921 10.398
8.91690000 0.013914 22.464 0.999897 -73.61 0.999897 -73.61 0.013908 10.349
8.91700000 0.013901 22.510 0.999897 -73.61 0.999897 -73.61 0.013896 10.299
8.91710000 0.013888 22.556 0.999897 -73.62 0.999897 -73.62 0.013883 10.250
8.91720000 0.013875 22.602 0.999897 -73.62 0.999897 -73.62 0.013870 10.200
8.91730000 0.013863 22.649 0.999898 -73.62 0.999898 -73.62 0.013857 10.149
8.91740000 0.013850 22.696 0.999898 -73.62 0.999898 -73.62 0.013844 10.099
8.91750000 0.013837 22.744 0.999898 -73.62 0.999898 -73.62 0.013831 10.048
8.91760000 0.013824 22.791 0.999898 -73.63 0.999898 -73.63 0.013818 9.9964
8.91770000 0.013811 22.840 0.999898 -73.63 0.999898 -73.63 0.013805 9.9447
8.91780000 0.013798 22.888 0.999898 -73.63 0.999898 -73.63 0.013792 9.8927
8.91790000 0.013784 22.937 0.999899 -73.63 0.999899 -73.63 0.013779 9.8404
8.91800000 0.013771 22.986 0.999899 -73.63 0.999899 -73.63 0.013766 9.7877
8.91810000 0.013758 23.035 0.999899 -73.64 0.999899 -73.64 0.013752 9.7346
8.91820000 0.013745 23.085 0.999899 -73.64 0.999899 -73.64 0.013739 9.6812
8.91830000 0.013731 23.135 0.999899 -73.64 0.999899 -73.64 0.013726 9.6274
8.91840000 0.013718 23.186 0.999899 -73.64 0.999899 -73.64 0.013712 9.5733
8.91850000 0.013704 23.236 0.999900 -73.64 0.999900 -73.64 0.013699 9.5188
8.91860000 0.013691 23.288 0.999900 -73.64 0.999900 -73.64 0.013685 9.4639
8.91870000 0.013677 23.339 0.999900 -73.65 0.999900 -73.65 0.013672 9.4087
8.91880000 0.013664 23.391 0.999900 -73.65 0.999900 -73.65 0.013658 9.3531
8.91890000 0.013650 23.443 0.999900 -73.65 0.999900 -73.65 0.013644 9.2971
8.91900000 0.013636 23.496 0.999900 -73.65 0.999900 -73.65 0.013630 9.2407
8.91910000 0.013622 23.549 0.999901 -73.65 0.999901 -73.65 0.013617 9.1840
8.91920000 0.013609 23.602 0.999901 -73.66 0.999901 -73.66 0.013603 9.1268
8.91930000 0.013595 23.656 0.999901 -73.66 0.999901 -73.66 0.013589 9.0693
8.91940000 0.013581 23.710 0.999901 -73.66 0.999901 -73.66 0.013575 9.0113
8.91950000 0.013567 23.765 0.999901 -73.66 0.999901 -73.66 0.013561 8.9530
8.91960000 0.013553 23.820 0.999901 -73.66 0.999901 -73.66 0.013546 8.8942
8.91970000 0.013538 23.875 0.999902 -73.67 0.999902 -73.67 0.013532 8.8351
8.91980000 0.013524 23.931 0.999902 -73.67 0.999902 -73.67 0.013518 8.7755
8.91990000 0.013510 23.987 0.999902 -73.67 0.999902 -73.67 0.013504 8.7155
8.92000000 0.013496 24.044 0.999902 -73.67 0.999902 -73.67 0.013489 8.6550
8.92010000 0.013481 24.101 0.999902 -73.67 0.999902 -73.67 0.013475 8.5942
8.92020000 0.013467 24.158 0.999902 -73.68 0.999902 -73.68 0.013461 8.5329
8.92030000 0.013452 24.216 0.999903 -73.68 0.999903 -73.68 0.013446 8.4712
8.92040000 0.013438 24.275 0.999903 -73.68 0.999903 -73.68 0.013431 8.4090
8.92050000 0.013423 24.333 0.999903 -73.68 0.999903 -73.68 0.013417 8.3464
8.92060000 0.013409 24.393 0.999903 -73.68 0.999903 -73.68 0.013402 8.2833
8.92070000 0.013394 24.452 0.999903 -73.69 0.999903 -73.69 0.013387 8.2197
8.92080000 0.013379 24.512 0.999903 -73.69 0.999903 -73.69 0.013372 8.1557
8.92090000 0.013364 24.573 0.999904 -73.69 0.999904 -73.69 0.013358 8.0913
8.92100000 0.013349 24.634 0.999904 -73.69 0.999904 -73.69 0.013343 8.0263
8.92110000 0.013334 24.695 0.999904 -73.69 0.999904 -73.69 0.013328 7.9609
8.92120000 0.013319 24.757 0.999904 -73.70 0.999904 -73.70 0.013313 7.8950
8.92130000 0.013304 24.820 0.999904 -73.70 0.999904 -73.70 0.013297 7.8286
8.92140000 0.013289 24.883 0.999905 -73.70 0.999905 -73.70 0.013282 7.7618
8.92150000 0.013274 24.946 0.999905 -73.70 0.999905 -73.70 0.013267 7.6944
8.92160000 0.013259 25.010 0.999905 -73.70 0.999905 -73.70 0.013252 7.6265
8.92170000 0.013243 25.074 0.999905 -73.71 0.999905 -73.71 0.013236 7.5581
8.92180000 0.013228 25.139 0.999905 -73.71 0.999905 -73.71 0.013221 7.4892
8.92190000 0.013212 25.205 0.999905 -73.71 0.999905 -73.71 0.013205 7.4198
8.92200000 0.013197 25.271 0.999906 -73.71 0.999906 -73.71 0.013190 7.3498
8.92210000 0.013181 25.337 0.999906 -73.71 0.999906 -73.71 0.013174 7.2793
8.92220000 0.013166 25.404 0.999906 -73.72 0.999906 -73.72 0.013158 7.2083
8.92230000 0.013150 25.471 0.999906 -73.72 0.999906 -73.72 0.013142 7.1367
8.92240000 0.013134 25.539 0.999906 -73.72 0.999906 -73.72 0.013127 7.0646
8.92250000 0.013118 25.608 0.999906 -73.72 0.999906 -73.72 0.013111 6.9919
8.92260000 0.013102 25.677 0.999907 -73.73 0.999907 -73.73 0.013095 6.9186
8.92270000 0.013086 25.747 0.999907 -73.73 0.999907 -73.73 0.013079 6.8448
8.92280000 0.013070 25.817 0.999907 -73.73 0.999907 -73.73 0.013063 6.7704
8.92290000 0.013054 25.888 0.999907 -73.73 0.999907 -73.73 0.013046 6.6954
8.92300000 0.013038 25.959 0.999907 -73.73 0.999907 -73.73 0.013030 6.6199
8.92310000 0.013022 26.031 0.999908 -73.74 0.999908 -73.74 0.013014 6.5437
8.92320000 0.013005 26.104 0.999908 -73.74 0.999908 -73.74 0.012997 6.4669
8.92330000 0.012989 26.177 0.999908 -73.74 0.999908 -73.74 0.012981 6.3896
8.92340000 0.012972 26.251 0.999908 -73.74 0.999908 -73.74 0.012964 6.3116
8.92350000 0.012956 26.325 0.999908 -73.75 0.999908 -73.75 0.012948 6.2329
8.92360000 0.012939 26.400 0.999909 -73.75 0.999909 -73.75 0.012931 6.1537
8.92370000 0.012923 26.476 0.999909 -73.75 0.999909 -73.75 0.012915 6.0738
8.92380000 0.012906 26.552 0.999909 -73.75 0.999909 -73.75 0.012898 5.9932
8.92390000 0.012889 26.629 0.999909 -73.75 0.999909 -73.75 0.012881 5.9120
8.92400000 0.012872 26.707 0.999909 -73.76 0.999909 -73.76 0.012864 5.8302
8.92410000 0.012855 26.785 0.999909 -73.76 0.999909 -73.76 0.012847 5.7476
8.92420000 0.012838 26.864 0.999910 -73.76 0.999910 -73.76 0.012830 5.6644
8.92430000 0.012821 26.943 0.999910 -73.76 0.999910 -73.76 0.012813 5.5805
8.92440000 0.012804 27.023 0.999910 -73.77 0.999910 -73.77 0.012795 5.4959
8.92450000 0.012787 27.104 0.999910 -73.77 0.999910 -73.77 0.012778 5.4106
8.92460000 0.012769 27.186 0.999910 -73.77 0.999910 -73.77 0.012761 5.3246
8.92470000 0.012752 27.268 0.999911 -73.77 0.999911 -73.77 0.012743 5.2378
8.92480000 0.012734 27.351 0.999911 -73.77 0.999911 -73.77 0.012726 5.1504
8.92490000 0.012717 27.435 0.999911 -73.78 0.999911 -73.78 0.012708 5.0622
8.92500000 0.012699 27.519 0.999911 -73.78 0.999911 -73.78 0.012691 4.9732
8.92510000 0.012682 27.605 0.999911 -73.78 0.999911 -73.78 0.012673 4.8835
8.92520000 0.012664 27.691 0.999912 -73.78 0.999912 -73.78 0.012655 4.7930
8.92530000 0.012646 27.777 0.999912 -73.79 0.999912 -73.79 0.012637 4.7018
8.92540000 0.012628 27.865 0.999912 -73.79 0.999912 -73.79 0.012619 4.6097
8.92550000 0.012610 27.953 0.999912 -73.79 0.999912 -73.79 0.012601 4.5169
8.92560000 0.012592 28.042 0.999912 -73.79 0.999912 -73.79 0.012583 4.4232
8.92570000 0.012574 28.132 0.999913 -73.80 0.999913 -73.80 0.012565 4.3288
8.92580000 0.012556 28.223 0.999913 -73.80 0.999913 -73.80 0.012547 4.2335
8.92590000 0.012538 28.314 0.999913 -73.80 0.999913 -73.80 0.012528 4.1373
8.92600000 0.012519 28.407 0.999913 -73.80 0.999913 -73.80 0.012510 4.0404
8.92610000 0.012501 28.500 0.999913 -73.81 0.999913 -73.81 0.012491 3.9425
8.92620000 0.012482 28.594 0.999914 -73.81 0.999914 -73.81 0.012473 3.8438
8.92630000 0.012464 28.689 0.999914 -73.81 0.999914 -73.81 0.012454 3.7442
8.92640000 0.012445 28.785 0.999914 -73.81 0.999914 -73.81 0.012435 3.6438
8.92650000 0.012427 28.881 0.999914 -73.82 0.999914 -73.82 0.012417 3.5424
8.92660000 0.012408 28.979 0.999914 -73.82 0.999914 -73.82 0.012398 3.4401
8.92670000 0.012389 29.077 0.999915 -73.82 0.999915 -73.82 0.012379 3.3369
8.92680000 0.012370 29.177 0.999915 -73.82 0.999915 -73.82 0.012360 3.2327
8.92690000 0.012351 29.277 0.999915 -73.83 0.999915 -73.83 0.012341 3.1276
8.92700000 0.012332 29.378 0.999915 -73.83 0.999915 -73.83 0.012322 3.0215
8.92710000 0.012313 29.480 0.999915 -73.83 0.999915 -73.83 0.012302 2.9144
8.92720000 0.012293 29.584 0.999916 -73.83 0.999916 -73.83 0.012283 2.8064
8.92730000 0.012274 29.688 0.999916 -73.84 0.999916 -73.84 0.012264 2.6973
8.92740000 0.012255 29.793 0.999916 -73.84 0.999916 -73.84 0.012244 2.5873
8.92750000 0.012235 29.899 0.999916 -73.84 0.999916 -73.84 0.012225 2.4762
8.92760000 0.012216 30.006 0.999916 -73.84 0.999916 -73.84 0.012205 2.3640
8.92770000 0.012196 30.114 0.999917 -73.85 0.999917 -73.85 0.012185 2.2508
8.92780000 0.012176 30.224 0.999917 -73.85 0.999917 -73.85 0.012165 2.1366
8.92790000 0.012156 30.334 0.999917 -73.85 0.999917 -73.85 0.012145 2.0212
8.92800000 0.012137 30.446 0.999917 -73.85 0.999917 -73.85 0.012126 1.9047
8.92810000 0.012117 30.558 0.999917 -73.86 0.999917 -73.86 0.012105 1.7871
8.92820000 0.012097 30.672 0.999918 -73.86 0.999918 -73.86 0.012085 1.6684
8.92830000 0.012076 30.786 0.999918 -73.86 0.999918 -73.86 0.012065 1.5486
8.92840000 0.012056 30.902 0.999918 -73.86 0.999918 -73.86 0.012045 1.4275
8.92850000 0.012036 31.019 0.999918 -73.87 0.999918 -73.87 0.012025 1.3053
8.92860000 0.012016 31.138 0.999918 -73.87 0.999918 -73.87 0.012004 1.1819
8.92870000 0.011995 31.257 0.999919 -73.87 0.999919 -73.87 0.011984 1.0573
8.92880000 0.011975 31.378 0.999919 -73.88 0.999919 -73.88 0.011963 0.9315
8.92890000 0.011954 31.500 0.999919 -73.88 0.999919 -73.88 0.011942 0.8044
8.92900000 0.011934 31.623 0.999919 -73.88 0.999919 -73.88 0.011922 0.6760
8.92910000 0.011913 31.747 0.999919 -73.88 0.999919 -73.88 0.011901 0.5464
8.92920000 0.011892 31.873 0.999920 -73.89 0.999920 -73.89 0.011880 0.4154
8.92930000 0.011871 32.000 0.999920 -73.89 0.999920 -73.89 0.011859 0.2831
8.92940000 0.011850 32.128 0.999920 -73.89 0.999920 -73.89 0.011838 0.1495
8.92950000 0.011829 32.257 0.999920 -73.89 0.999920 -73.89 0.011817 0.0146
8.92960000 0.011808 32.388 0.999920 -73.90 0.999920 -73.90 0.011795 -0.122
8.92970000 0.011787 32.521 0.999921 -73.90 0.999921 -73.90 0.011774 -0.259
8.92980000 0.011766 32.654 0.999921 -73.90 0.999921 -73.90 0.011753 -0.399
8.92990000 0.011744 32.789 0.999921 -73.91 0.999921 -73.91 0.011731 -0.539
8.93000000 0.011723 32.926 0.999921 -73.91 0.999921 -73.91 0.011710 -0.681
8.93010000 0.011701 33.064 0.999921 -73.91 0.999921 -73.91 0.011688 -0.825
8.93020000 0.011680 33.203 0.999922 -73.92 0.999922 -73.92 0.011666 -0.970
8.93030000 0.011658 33.344 0.999922 -73.92 0.999922 -73.92 0.011645 -1.116
8.93040000 0.011636 33.487 0.999922 -73.92 0.999922 -73.92 0.011623 -1.265
8.93050000 0.011615 33.631 0.999922 -73.92 0.999922 -73.92 0.011601 -1.414
8.93060000 0.011593 33.776 0.999922 -73.93 0.999922 -73.93 0.011579 -1.565
8.93070000 0.011571 33.924 0.999923 -73.93 0.999923 -73.93 0.011557 -1.718
8.93080000 0.011549 34.072 0.999923 -73.93 0.999923 -73.93 0.011535 -1.873
8.93090000 0.011527 34.223 0.999923 -73.94 0.999923 -73.94 0.011513 -2.029
8.93100000 0.011505 34.375 0.999923 -73.94 0.999923 -73.94 0.011490 -2.187
8.93110000 0.011482 34.529 0.999923 -73.94 0.999923 -73.94 0.011468 -2.347
8.93120000 0.011460 34.684 0.999924 -73.95 0.999924 -73.95 0.011446 -2.508
8.93130000 0.011438 34.841 0.999924 -73.95 0.999924 -73.95 0.011423 -2.671
8.93140000 0.011415 35.000 0.999924 -73.95 0.999924 -73.95 0.011400 -2.836
8.93150000 0.011393 35.161 0.999924 -73.95 0.999924 -73.95 0.011378 -3.003
8.93160000 0.011370 35.324 0.999924 -73.96 0.999924 -73.96 0.011355 -3.171
8.93170000 0.011348 35.488 0.999925 -73.96 0.999925 -73.96 0.011332 -3.342
8.93180000 0.011325 35.654 0.999925 -73.96 0.999925 -73.96 0.011310 -3.514
8.93190000 0.011302 35.822 0.999925 -73.97 0.999925 -73.97 0.011287 -3.688
8.93200000 0.011279 35.993 0.999925 -73.97 0.999925 -73.97 0.011264 -3.865
8.93210000 0.011256 36.165 0.999925 -73.97 0.999925 -73.97 0.011241 -4.043
8.93220000 0.011233 36.339 0.999926 -73.98 0.999926 -73.98 0.011218 -4.223
8.93230000 0.011210 36.515 0.999926 -73.98 0.999926 -73.98 0.011194 -4.405
8.93240000 0.011187 36.693 0.999926 -73.98 0.999926 -73.98 0.011171 -4.590
8.93250000 0.011164 36.873 0.999926 -73.99 0.999926 -73.99 0.011148 -4.776
8.93260000 0.011141 37.056 0.999926 -73.99 0.999926 -73.99 0.011125 -4.965
8.93270000 0.011118 37.240 0.999927 -73.99 0.999927 -73.99 0.011101 -5.156
8.93280000 0.011095 37.427 0.999927 -74.00 0.999927 -74.00 0.011078 -5.349
8.93290000 0.011071 37.616 0.999927 -74.00 0.999927 -74.00 0.011054 -5.545
8.93300000 0.011048 37.807 0.999927 -74.00 0.999927 -74.00 0.011031 -5.742
8.93310000 0.011024 38.000 0.999927 -74.01 0.999927 -74.01 0.011007 -5.942
8.93320000 0.011001 38.196 0.999927 -74.01 0.999927 -74.01 0.010983 -6.145
8.93330000 0.010977 38.394 0.999928 -74.01 0.999928 -74.01 0.010960 -6.350
8.93340000 0.010954 38.595 0.999928 -74.02 0.999928 -74.02 0.010936 -6.557
8.93350000 0.010930 38.798 0.999928 -74.02 0.999928 -74.02 0.010912 -6.767
8.93360000 0.010907 39.003 0.999928 -74.02 0.999928 -74.02 0.010888 -6.979
8.93370000 0.010883 39.211 0.999928 -74.03 0.999928 -74.03 0.010865 -7.194
8.93380000 0.010859 39.422 0.999929 -74.03 0.999929 -74.03 0.010841 -7.411
8.93390000 0.010835 39.635 0.999929 -74.03 0.999929 -74.03 0.010817 -7.631
8.93400000 0.010812 39.851 0.999929 -74.04 0.999929 -74.04 0.010793 -7.854
8.93410000 0.010788 40.069 0.999929 -74.04 0.999929 -74.04 0.010769 -8.079
8.93420000 0.010764 40.291 0.999929 -74.05 0.999929 -74.05 0.010745 -8.308
8.93430000 0.010740 40.515 0.999929 -74.05 0.999929 -74.05 0.010721 -8.539
8.93440000 0.010716 40.741 0.999930 -74.05 0.999930 -74.05 0.010697 -8.773
8.93450000 0.010693 40.971 0.999930 -74.06 0.999930 -74.06 0.010673 -9.010
8.93460000 0.010669 41.204 0.999930 -74.06 0.999930 -74.06 0.010649 -9.250
8.93470000 0.010645 41.439 0.999930 -74.06 0.999930 -74.06 0.010624 -9.493
8.93480000 0.010621 41.678 0.999930 -74.07 0.999930 -74.07 0.010600 -9.738
8.93490000 0.010597 41.919 0.999930 -74.07 0.999930 -74.07 0.010576 -9.987
8.93500000 0.010573 42.164 0.999931 -74.07 0.999931 -74.07 0.010552 -10.24
8.93510000 0.010549 42.412 0.999931 -74.08 0.999931 -74.08 0.010528 -10.50
8.93520000 0.010525 42.663 0.999931 -74.08 0.999931 -74.08 0.010504 -10.75
8.93530000 0.010501 42.917 0.999931 -74.09 0.999931 -74.09 0.010480 -11.02
8.93540000 0.010478 43.175 0.999931 -74.09 0.999931 -74.09 0.010456 -11.28
8.93550000 0.010454 43.436 0.999931 -74.09 0.999931 -74.09 0.010432 -11.55
8.93560000 0.010430 43.700 0.999932 -74.10 0.999932 -74.10 0.010408 -11.82
8.93570000 0.010406 43.968 0.999932 -74.10 0.999932 -74.10 0.010384 -12.10
8.93580000 0.010383 44.240 0.999932 -74.11 0.999932 -74.11 0.010360 -12.38
8.93590000 0.010359 44.515 0.999932 -74.11 0.999932 -74.11 0.010336 -12.66
8.93600000 0.010335 44.793 0.999932 -74.11 0.999932 -74.11 0.010312 -12.95
8.93610000 0.010312 45.076 0.999932 -74.12 0.999932 -74.12 0.010288 -13.24
8.93620000 0.010288 45.362 0.999933 -74.12 0.999933 -74.12 0.010264 -13.53
8.93630000 0.010265 45.652 0.999933 -74.13 0.999933 -74.13 0.010241 -13.83
8.93640000 0.010241 45.945 0.999933 -74.13 0.999933 -74.13 0.010217 -14.13
8.93650000 0.010218 46.243 0.999933 -74.14 0.999933 -74.14 0.010194 -14.44
8.93660000 0.010195 46.545 0.999933 -74.14 0.999933 -74.14 0.010170 -14.75
8.93670000 0.010172 46.851 0.999933 -74.14 0.999933 -74.14 0.010147 -15.06
8.93680000 0.010149 47.160 0.999933 -74.15 0.999933 -74.15 0.010123 -15.38
8.93690000 0.010126 47.475 0.999933 -74.15 0.999933 -74.15 0.010100 -15.71
8.93700000 0.010103 47.793 0.999934 -74.16 0.999934 -74.16 0.010077 -16.03
8.93710000 0.010080 48.116 0.999934 -74.16 0.999934 -74.16 0.010054 -16.36
8.93720000 0.010058 48.443 0.999934 -74.17 0.999934 -74.17 0.010031 -16.70
8.93730000 0.010035 48.774 0.999934 -74.17 0.999934 -74.17 0.010009 -17.04
8.93740000 0.010013 49.110 0.999934 -74.17 0.999934 -74.17 0.009986 -17.39
8.93750000 0.009991 49.451 0.999934 -74.18 0.999934 -74.18 0.009964 -17.74
8.93760000 0.009969 49.796 0.999934 -74.18 0.999934 -74.18 0.009942 -18.09
8.93770000 0.009947 50.147 0.999934 -74.19 0.999934 -74.19 0.009919 -18.45
8.93780000 0.009926 50.501 0.999934 -74.19 0.999934 -74.19 0.009898 -18.82
8.93790000 0.009905 50.861 0.999934 -74.20 0.999934 -74.20 0.009876 -19.18
8.93800000 0.009883 51.226 0.999935 -74.20 0.999935 -74.20 0.009854 -19.56
8.93810000 0.009862 51.596 0.999935 -74.21 0.999935 -74.21 0.009833 -19.94
8.93820000 0.009842 51.970 0.999935 -74.21 0.999935 -74.21 0.009812 -20.32
8.93830000 0.009821 52.350 0.999935 -74.22 0.999935 -74.22 0.009791 -20.71
8.93840000 0.009801 52.736 0.999935 -74.22 0.999935 -74.22 0.009771 -21.11
8.93850000 0.009781 53.126 0.999935 -74.23 0.999935 -74.23 0.009751 -21.51
8.93860000 0.009762 53.522 0.999935 -74.23 0.999935 -74.23 0.009731 -21.92
8.93870000 0.009742 53.923 0.999935 -74.24 0.999935 -74.24 0.009711 -22.33
8.93880000 0.009723 54.330 0.999935 -74.24 0.999935 -74.24 0.009692 -22.75
8.93890000 0.009705 54.742 0.999935 -74.25 0.999935 -74.25 0.009672 -23.17
8.93900000 0.009686 55.160 0.999935 -74.25 0.999935 -74.25 0.009654 -23.60
8.93910000 0.009668 55.584 0.999935 -74.26 0.999935 -74.26 0.009635 -24.03
8.93920000 0.009651 56.014 0.999935 -74.26 0.999935 -74.26 0.009617 -24.47