! Sonnet Data File
! From: emgraph Version : 16.52
! From Project: Resonator2_cp_varyW
! Data is De-embedded 
! Data File Written: 10/09/2017 07:41:30
!< HDATE 10/08/2017 22:10:33
!< MDATE 10/08/2017 22:10:33
!< PARAMS
!< Length = 400.0
!< Pwid1 = 2000.0
!< Pwid2 = 2000.0
!< Air_gap = 18.0
!< Width = 30.0
!< gap = 26.0
!< END PARAMS
# GHZ S MA R 43.05000
8.90000000 0.016372 16.780 0.999861 -74.40 0.999861 -74.40 0.016370 14.443
!< P1 F=8.9 Eeff=(5.1612639 -2.2548e-5) Z0=(43.0590329 9.5502e-5) R=0.0 C=0.0 
!< P2 F=8.9 Eeff=(5.1612639 -2.2548e-5) Z0=(43.0590329 9.5502e-5) R=0.0 C=0.0 
8.90010000 0.016364 16.800 0.999861 -74.40 0.999861 -74.40 0.016362 14.421
8.90020000 0.016356 16.819 0.999861 -74.40 0.999861 -74.40 0.016354 14.398
8.90030000 0.016348 16.839 0.999861 -74.41 0.999861 -74.41 0.016345 14.376
8.90040000 0.016340 16.858 0.999862 -74.41 0.999862 -74.41 0.016337 14.354
8.90050000 0.016331 16.878 0.999862 -74.41 0.999862 -74.41 0.016329 14.331
8.90060000 0.016323 16.898 0.999862 -74.41 0.999862 -74.41 0.016320 14.309
8.90070000 0.016315 16.917 0.999862 -74.41 0.999862 -74.41 0.016312 14.286
8.90080000 0.016306 16.937 0.999862 -74.41 0.999862 -74.41 0.016304 14.263
8.90090000 0.016298 16.957 0.999862 -74.41 0.999862 -74.41 0.016295 14.240
8.90100000 0.016289 16.978 0.999862 -74.42 0.999862 -74.42 0.016287 14.217
8.90110000 0.016281 16.998 0.999862 -74.42 0.999862 -74.42 0.016278 14.194
8.90120000 0.016273 17.018 0.999863 -74.42 0.999863 -74.42 0.016270 14.171
8.90130000 0.016264 17.039 0.999863 -74.42 0.999863 -74.42 0.016261 14.147
8.90140000 0.016255 17.059 0.999863 -74.42 0.999863 -74.42 0.016253 14.124
8.90150000 0.016247 17.080 0.999863 -74.42 0.999863 -74.42 0.016244 14.101
8.90160000 0.016238 17.101 0.999863 -74.42 0.999863 -74.42 0.016236 14.077
8.90170000 0.016230 17.121 0.999863 -74.43 0.999863 -74.43 0.016227 14.053
8.90180000 0.016221 17.142 0.999863 -74.43 0.999863 -74.43 0.016218 14.029
8.90190000 0.016212 17.163 0.999863 -74.43 0.999863 -74.43 0.016210 14.005
8.90200000 0.016204 17.185 0.999864 -74.43 0.999864 -74.43 0.016201 13.981
8.90210000 0.016195 17.206 0.999864 -74.43 0.999864 -74.43 0.016192 13.957
8.90220000 0.016186 17.227 0.999864 -74.43 0.999864 -74.43 0.016183 13.933
8.90230000 0.016177 17.249 0.999864 -74.44 0.999864 -74.44 0.016175 13.909
8.90240000 0.016169 17.270 0.999864 -74.44 0.999864 -74.44 0.016166 13.884
8.90250000 0.016160 17.292 0.999864 -74.44 0.999864 -74.44 0.016157 13.860
8.90260000 0.016151 17.314 0.999864 -74.44 0.999864 -74.44 0.016148 13.835
8.90270000 0.016142 17.336 0.999865 -74.44 0.999865 -74.44 0.016139 13.810
8.90280000 0.016133 17.358 0.999865 -74.44 0.999865 -74.44 0.016130 13.785
8.90290000 0.016124 17.380 0.999865 -74.44 0.999865 -74.44 0.016121 13.760
8.90300000 0.016115 17.402 0.999865 -74.45 0.999865 -74.45 0.016112 13.735
8.90310000 0.016106 17.424 0.999865 -74.45 0.999865 -74.45 0.016103 13.710
8.90320000 0.016097 17.447 0.999865 -74.45 0.999865 -74.45 0.016094 13.684
8.90330000 0.016088 17.469 0.999865 -74.45 0.999865 -74.45 0.016085 13.659
8.90340000 0.016079 17.492 0.999865 -74.45 0.999865 -74.45 0.016076 13.633
8.90350000 0.016070 17.515 0.999866 -74.45 0.999866 -74.45 0.016067 13.608
8.90360000 0.016061 17.537 0.999866 -74.45 0.999866 -74.45 0.016058 13.582
8.90370000 0.016051 17.560 0.999866 -74.46 0.999866 -74.46 0.016048 13.556
8.90380000 0.016042 17.583 0.999866 -74.46 0.999866 -74.46 0.016039 13.530
8.90390000 0.016033 17.607 0.999866 -74.46 0.999866 -74.46 0.016030 13.504
8.90400000 0.016024 17.630 0.999866 -74.46 0.999866 -74.46 0.016021 13.477
8.90410000 0.016014 17.653 0.999866 -74.46 0.999866 -74.46 0.016011 13.451
8.90420000 0.016005 17.677 0.999867 -74.46 0.999867 -74.46 0.016002 13.424
8.90430000 0.015996 17.701 0.999867 -74.47 0.999867 -74.47 0.015993 13.398
8.90440000 0.015986 17.725 0.999867 -74.47 0.999867 -74.47 0.015983 13.371
8.90450000 0.015977 17.748 0.999867 -74.47 0.999867 -74.47 0.015974 13.344
8.90460000 0.015967 17.773 0.999867 -74.47 0.999867 -74.47 0.015964 13.317
8.90470000 0.015958 17.797 0.999867 -74.47 0.999867 -74.47 0.015955 13.290
8.90480000 0.015948 17.821 0.999867 -74.47 0.999867 -74.47 0.015945 13.262
8.90490000 0.015939 17.845 0.999868 -74.47 0.999868 -74.47 0.015936 13.235
8.90500000 0.015929 17.870 0.999868 -74.48 0.999868 -74.48 0.015926 13.207
8.90510000 0.015919 17.895 0.999868 -74.48 0.999868 -74.48 0.015916 13.180
8.90520000 0.015910 17.920 0.999868 -74.48 0.999868 -74.48 0.015907 13.152
8.90530000 0.015900 17.944 0.999868 -74.48 0.999868 -74.48 0.015897 13.124
8.90540000 0.015890 17.970 0.999868 -74.48 0.999868 -74.48 0.015887 13.096
8.90550000 0.015881 17.995 0.999868 -74.48 0.999868 -74.48 0.015877 13.067
8.90560000 0.015871 18.020 0.999869 -74.49 0.999869 -74.49 0.015868 13.039
8.90570000 0.015861 18.045 0.999869 -74.49 0.999869 -74.49 0.015858 13.011
8.90580000 0.015851 18.071 0.999869 -74.49 0.999869 -74.49 0.015848 12.982
8.90590000 0.015841 18.097 0.999869 -74.49 0.999869 -74.49 0.015838 12.953
8.90600000 0.015831 18.123 0.999869 -74.49 0.999869 -74.49 0.015828 12.924
8.90610000 0.015821 18.149 0.999869 -74.49 0.999869 -74.49 0.015818 12.895
8.90620000 0.015811 18.175 0.999869 -74.49 0.999869 -74.49 0.015808 12.866
8.90630000 0.015801 18.201 0.999870 -74.50 0.999870 -74.50 0.015798 12.837
8.90640000 0.015791 18.228 0.999870 -74.50 0.999870 -74.50 0.015788 12.807
8.90650000 0.015781 18.254 0.999870 -74.50 0.999870 -74.50 0.015778 12.777
8.90660000 0.015771 18.281 0.999870 -74.50 0.999870 -74.50 0.015768 12.748
8.90670000 0.015761 18.308 0.999870 -74.50 0.999870 -74.50 0.015757 12.718
8.90680000 0.015751 18.335 0.999870 -74.50 0.999870 -74.50 0.015747 12.688
8.90690000 0.015740 18.362 0.999870 -74.51 0.999870 -74.51 0.015737 12.657
8.90700000 0.015730 18.389 0.999871 -74.51 0.999871 -74.51 0.015727 12.627
8.90710000 0.015720 18.416 0.999871 -74.51 0.999871 -74.51 0.015716 12.596
8.90720000 0.015709 18.444 0.999871 -74.51 0.999871 -74.51 0.015706 12.566
8.90730000 0.015699 18.472 0.999871 -74.51 0.999871 -74.51 0.015695 12.535
8.90740000 0.015689 18.500 0.999871 -74.51 0.999871 -74.51 0.015685 12.504
8.90750000 0.015678 18.528 0.999871 -74.52 0.999871 -74.52 0.015675 12.473
8.90760000 0.015668 18.556 0.999872 -74.52 0.999872 -74.52 0.015664 12.441
8.90770000 0.015657 18.584 0.999872 -74.52 0.999872 -74.52 0.015654 12.410
8.90780000 0.015647 18.613 0.999872 -74.52 0.999872 -74.52 0.015643 12.378
8.90790000 0.015636 18.641 0.999872 -74.52 0.999872 -74.52 0.015632 12.346
8.90800000 0.015625 18.670 0.999872 -74.52 0.999872 -74.52 0.015622 12.314
8.90810000 0.015615 18.699 0.999872 -74.53 0.999872 -74.53 0.015611 12.282
8.90820000 0.015604 18.728 0.999872 -74.53 0.999872 -74.53 0.015600 12.250
8.90830000 0.015593 18.757 0.999873 -74.53 0.999873 -74.53 0.015589 12.217
8.90840000 0.015582 18.787 0.999873 -74.53 0.999873 -74.53 0.015579 12.185
8.90850000 0.015572 18.816 0.999873 -74.53 0.999873 -74.53 0.015568 12.152
8.90860000 0.015561 18.846 0.999873 -74.53 0.999873 -74.53 0.015557 12.119
8.90870000 0.015550 18.876 0.999873 -74.54 0.999873 -74.54 0.015546 12.086
8.90880000 0.015539 18.906 0.999873 -74.54 0.999873 -74.54 0.015535 12.053
8.90890000 0.015528 18.936 0.999874 -74.54 0.999874 -74.54 0.015524 12.019
8.90900000 0.015517 18.967 0.999874 -74.54 0.999874 -74.54 0.015513 11.985
8.90910000 0.015506 18.998 0.999874 -74.54 0.999874 -74.54 0.015502 11.952
8.90920000 0.015495 19.028 0.999874 -74.54 0.999874 -74.54 0.015491 11.917
8.90930000 0.015483 19.059 0.999874 -74.55 0.999874 -74.55 0.015480 11.883
8.90940000 0.015472 19.090 0.999874 -74.55 0.999874 -74.55 0.015468 11.849
8.90950000 0.015461 19.122 0.999874 -74.55 0.999874 -74.55 0.015457 11.814
8.90960000 0.015450 19.153 0.999875 -74.55 0.999875 -74.55 0.015446 11.780
8.90970000 0.015439 19.185 0.999875 -74.55 0.999875 -74.55 0.015435 11.745
8.90980000 0.015427 19.217 0.999875 -74.55 0.999875 -74.55 0.015423 11.709
8.90990000 0.015416 19.249 0.999875 -74.56 0.999875 -74.56 0.015412 11.674
8.91000000 0.015404 19.281 0.999875 -74.56 0.999875 -74.56 0.015400 11.639
8.91010000 0.015393 19.314 0.999875 -74.56 0.999875 -74.56 0.015389 11.603
8.91020000 0.015381 19.346 0.999876 -74.56 0.999876 -74.56 0.015377 11.567
8.91030000 0.015370 19.379 0.999876 -74.56 0.999876 -74.56 0.015366 11.531
8.91040000 0.015358 19.412 0.999876 -74.56 0.999876 -74.56 0.015354 11.495
8.91050000 0.015347 19.445 0.999876 -74.57 0.999876 -74.57 0.015342 11.458
8.91060000 0.015335 19.478 0.999876 -74.57 0.999876 -74.57 0.015331 11.421
8.91070000 0.015323 19.512 0.999876 -74.57 0.999876 -74.57 0.015319 11.384
8.91080000 0.015311 19.546 0.999877 -74.57 0.999877 -74.57 0.015307 11.347
8.91090000 0.015300 19.580 0.999877 -74.57 0.999877 -74.57 0.015295 11.310
8.91100000 0.015288 19.614 0.999877 -74.57 0.999877 -74.57 0.015283 11.272
8.91110000 0.015276 19.648 0.999877 -74.58 0.999877 -74.58 0.015272 11.235
8.91120000 0.015264 19.683 0.999877 -74.58 0.999877 -74.58 0.015260 11.197
8.91130000 0.015252 19.718 0.999877 -74.58 0.999877 -74.58 0.015248 11.159
8.91140000 0.015240 19.753 0.999878 -74.58 0.999878 -74.58 0.015236 11.120
8.91150000 0.015228 19.788 0.999878 -74.58 0.999878 -74.58 0.015223 11.082
8.91160000 0.015216 19.823 0.999878 -74.58 0.999878 -74.58 0.015211 11.043
8.91170000 0.015204 19.859 0.999878 -74.59 0.999878 -74.59 0.015199 11.004
8.91180000 0.015191 19.895 0.999878 -74.59 0.999878 -74.59 0.015187 10.965
8.91190000 0.015179 19.931 0.999878 -74.59 0.999878 -74.59 0.015175 10.925
8.91200000 0.015167 19.967 0.999879 -74.59 0.999879 -74.59 0.015162 10.885
8.91210000 0.015155 20.004 0.999879 -74.59 0.999879 -74.59 0.015150 10.845
8.91220000 0.015142 20.040 0.999879 -74.59 0.999879 -74.59 0.015138 10.805
8.91230000 0.015130 20.077 0.999879 -74.60 0.999879 -74.60 0.015125 10.765
8.91240000 0.015117 20.114 0.999879 -74.60 0.999879 -74.60 0.015113 10.724
8.91250000 0.015105 20.152 0.999880 -74.60 0.999880 -74.60 0.015100 10.683
8.91260000 0.015092 20.189 0.999880 -74.60 0.999880 -74.60 0.015087 10.642
8.91270000 0.015080 20.227 0.999880 -74.60 0.999880 -74.60 0.015075 10.601
8.91280000 0.015067 20.265 0.999880 -74.61 0.999880 -74.61 0.015062 10.559
8.91290000 0.015054 20.304 0.999880 -74.61 0.999880 -74.61 0.015049 10.517
8.91300000 0.015041 20.342 0.999880 -74.61 0.999880 -74.61 0.015037 10.475
8.91310000 0.015029 20.381 0.999881 -74.61 0.999881 -74.61 0.015024 10.433
8.91320000 0.015016 20.420 0.999881 -74.61 0.999881 -74.61 0.015011 10.390
8.91330000 0.015003 20.460 0.999881 -74.61 0.999881 -74.61 0.014998 10.348
8.91340000 0.014990 20.499 0.999881 -74.62 0.999881 -74.62 0.014985 10.305
8.91350000 0.014977 20.539 0.999881 -74.62 0.999881 -74.62 0.014972 10.261
8.91360000 0.014964 20.579 0.999881 -74.62 0.999881 -74.62 0.014959 10.218
8.91370000 0.014951 20.619 0.999882 -74.62 0.999882 -74.62 0.014946 10.174
8.91380000 0.014938 20.660 0.999882 -74.62 0.999882 -74.62 0.014933 10.130
8.91390000 0.014924 20.701 0.999882 -74.63 0.999882 -74.63 0.014919 10.085
8.91400000 0.014911 20.742 0.999882 -74.63 0.999882 -74.63 0.014906 10.040
8.91410000 0.014898 20.783 0.999882 -74.63 0.999882 -74.63 0.014893 9.9955
8.91420000 0.014884 20.825 0.999883 -74.63 0.999883 -74.63 0.014879 9.9503
8.91430000 0.014871 20.867 0.999883 -74.63 0.999883 -74.63 0.014866 9.9048
8.91440000 0.014858 20.909 0.999883 -74.63 0.999883 -74.63 0.014852 9.8590
8.91450000 0.014844 20.951 0.999883 -74.64 0.999883 -74.64 0.014839 9.8129
8.91460000 0.014830 20.994 0.999883 -74.64 0.999883 -74.64 0.014825 9.7666
8.91470000 0.014817 21.037 0.999883 -74.64 0.999883 -74.64 0.014812 9.7199
8.91480000 0.014803 21.080 0.999884 -74.64 0.999884 -74.64 0.014798 9.6730
8.91490000 0.014789 21.124 0.999884 -74.64 0.999884 -74.64 0.014784 9.6258
8.91500000 0.014776 21.168 0.999884 -74.65 0.999884 -74.65 0.014770 9.5783
8.91510000 0.014762 21.212 0.999884 -74.65 0.999884 -74.65 0.014756 9.5305
8.91520000 0.014748 21.256 0.999884 -74.65 0.999884 -74.65 0.014743 9.4823
8.91530000 0.014734 21.301 0.999885 -74.65 0.999885 -74.65 0.014729 9.4339
8.91540000 0.014720 21.346 0.999885 -74.65 0.999885 -74.65 0.014715 9.3852
8.91550000 0.014706 21.391 0.999885 -74.66 0.999885 -74.66 0.014701 9.3361
8.91560000 0.014692 21.437 0.999885 -74.66 0.999885 -74.66 0.014686 9.2868
8.91570000 0.014678 21.483 0.999885 -74.66 0.999885 -74.66 0.014672 9.2371
8.91580000 0.014664 21.529 0.999885 -74.66 0.999885 -74.66 0.014658 9.1871
8.91590000 0.014649 21.576 0.999886 -74.66 0.999886 -74.66 0.014644 9.1368
8.91600000 0.014635 21.623 0.999886 -74.67 0.999886 -74.67 0.014629 9.0862
8.91610000 0.014621 21.670 0.999886 -74.67 0.999886 -74.67 0.014615 9.0352
8.91620000 0.014606 21.717 0.999886 -74.67 0.999886 -74.67 0.014601 8.9839
8.91630000 0.014592 21.765 0.999886 -74.67 0.999886 -74.67 0.014586 8.9323
8.91640000 0.014577 21.813 0.999887 -74.67 0.999887 -74.67 0.014571 8.8803
8.91650000 0.014563 21.862 0.999887 -74.68 0.999887 -74.68 0.014557 8.8280
8.91660000 0.014548 21.911 0.999887 -74.68 0.999887 -74.68 0.014542 8.7754
8.91670000 0.014533 21.960 0.999887 -74.68 0.999887 -74.68 0.014527 8.7224
8.91680000 0.014518 22.009 0.999887 -74.68 0.999887 -74.68 0.014513 8.6690
8.91690000 0.014504 22.059 0.999888 -74.68 0.999888 -74.68 0.014498 8.6153
8.91700000 0.014489 22.109 0.999888 -74.69 0.999888 -74.69 0.014483 8.5612
8.91710000 0.014474 22.160 0.999888 -74.69 0.999888 -74.69 0.014468 8.5068
8.91720000 0.014459 22.211 0.999888 -74.69 0.999888 -74.69 0.014453 8.4520
8.91730000 0.014444 22.262 0.999888 -74.69 0.999888 -74.69 0.014438 8.3968
8.91740000 0.014429 22.314 0.999889 -74.69 0.999889 -74.69 0.014422 8.3413
8.91750000 0.014413 22.366 0.999889 -74.70 0.999889 -74.70 0.014407 8.2854
8.91760000 0.014398 22.418 0.999889 -74.70 0.999889 -74.70 0.014392 8.2291
8.91770000 0.014383 22.471 0.999889 -74.70 0.999889 -74.70 0.014377 8.1724
8.91780000 0.014368 22.524 0.999889 -74.70 0.999889 -74.70 0.014361 8.1153
8.91790000 0.014352 22.578 0.999890 -74.70 0.999890 -74.70 0.014346 8.0578
8.91800000 0.014337 22.632 0.999890 -74.71 0.999890 -74.71 0.014330 8.0000
8.91810000 0.014321 22.686 0.999890 -74.71 0.999890 -74.71 0.014315 7.9417
8.91820000 0.014305 22.741 0.999890 -74.71 0.999890 -74.71 0.014299 7.8830
8.91830000 0.014290 22.796 0.999890 -74.71 0.999890 -74.71 0.014283 7.8240
8.91840000 0.014274 22.851 0.999891 -74.71 0.999891 -74.71 0.014268 7.7645
8.91850000 0.014258 22.907 0.999891 -74.72 0.999891 -74.72 0.014252 7.7046
8.91860000 0.014242 22.963 0.999891 -74.72 0.999891 -74.72 0.014236 7.6442
8.91870000 0.014226 23.020 0.999891 -74.72 0.999891 -74.72 0.014220 7.5835
8.91880000 0.014210 23.077 0.999891 -74.72 0.999891 -74.72 0.014204 7.5223
8.91890000 0.014194 23.135 0.999892 -74.72 0.999892 -74.72 0.014188 7.4607
8.91900000 0.014178 23.193 0.999892 -74.73 0.999892 -74.73 0.014172 7.3986
8.91910000 0.014162 23.251 0.999892 -74.73 0.999892 -74.73 0.014155 7.3361
8.91920000 0.014146 23.310 0.999892 -74.73 0.999892 -74.73 0.014139 7.2731
8.91930000 0.014130 23.369 0.999892 -74.73 0.999892 -74.73 0.014123 7.2097
8.91940000 0.014113 23.429 0.999893 -74.73 0.999893 -74.73 0.014106 7.1459
8.91950000 0.014097 23.489 0.999893 -74.74 0.999893 -74.74 0.014090 7.0815
8.91960000 0.014080 23.550 0.999893 -74.74 0.999893 -74.74 0.014073 7.0167
8.91970000 0.014064 23.611 0.999893 -74.74 0.999893 -74.74 0.014057 6.9514
8.91980000 0.014047 23.673 0.999893 -74.74 0.999893 -74.74 0.014040 6.8857
8.91990000 0.014030 23.735 0.999894 -74.75 0.999894 -74.75 0.014023 6.8194
8.92000000 0.014014 23.797 0.999894 -74.75 0.999894 -74.75 0.014006 6.7527
8.92010000 0.013997 23.860 0.999894 -74.75 0.999894 -74.75 0.013989 6.6855
8.92020000 0.013980 23.924 0.999894 -74.75 0.999894 -74.75 0.013972 6.6178
8.92030000 0.013963 23.988 0.999895 -74.75 0.999895 -74.75 0.013955 6.5495
8.92040000 0.013946 24.052 0.999895 -74.76 0.999895 -74.76 0.013938 6.4808
8.92050000 0.013929 24.117 0.999895 -74.76 0.999895 -74.76 0.013921 6.4115
8.92060000 0.013911 24.183 0.999895 -74.76 0.999895 -74.76 0.013904 6.3418
8.92070000 0.013894 24.249 0.999895 -74.76 0.999895 -74.76 0.013887 6.2714
8.92080000 0.013877 24.316 0.999896 -74.77 0.999896 -74.77 0.013869 6.2006
8.92090000 0.013859 24.383 0.999896 -74.77 0.999896 -74.77 0.013852 6.1292
8.92100000 0.013842 24.450 0.999896 -74.77 0.999896 -74.77 0.013834 6.0573
8.92110000 0.013824 24.518 0.999896 -74.77 0.999896 -74.77 0.013817 5.9848
8.92120000 0.013807 24.587 0.999896 -74.77 0.999896 -74.77 0.013799 5.9118
8.92130000 0.013789 24.656 0.999897 -74.78 0.999897 -74.78 0.013781 5.8382
8.92140000 0.013771 24.726 0.999897 -74.78 0.999897 -74.78 0.013763 5.7640
8.92150000 0.013753 24.797 0.999897 -74.78 0.999897 -74.78 0.013745 5.6892
8.92160000 0.013736 24.868 0.999897 -74.78 0.999897 -74.78 0.013728 5.6139
8.92170000 0.013718 24.939 0.999898 -74.79 0.999898 -74.79 0.013709 5.5379
8.92180000 0.013700 25.011 0.999898 -74.79 0.999898 -74.79 0.013691 5.4614
8.92190000 0.013681 25.084 0.999898 -74.79 0.999898 -74.79 0.013673 5.3843
8.92200000 0.013663 25.157 0.999898 -74.79 0.999898 -74.79 0.013655 5.3065
8.92210000 0.013645 25.231 0.999898 -74.80 0.999898 -74.80 0.013637 5.2281
8.92220000 0.013627 25.306 0.999899 -74.80 0.999899 -74.80 0.013618 5.1491
8.92230000 0.013608 25.381 0.999899 -74.80 0.999899 -74.80 0.013600 5.0695
8.92240000 0.013590 25.456 0.999899 -74.80 0.999899 -74.80 0.013581 4.9892
8.92250000 0.013571 25.533 0.999899 -74.80 0.999899 -74.80 0.013563 4.9083
8.92260000 0.013552 25.610 0.999900 -74.81 0.999900 -74.81 0.013544 4.8267
8.92270000 0.013534 25.688 0.999900 -74.81 0.999900 -74.81 0.013525 4.7445
8.92280000 0.013515 25.766 0.999900 -74.81 0.999900 -74.81 0.013506 4.6616
8.92290000 0.013496 25.845 0.999900 -74.81 0.999900 -74.81 0.013487 4.5780
8.92300000 0.013477 25.925 0.999900 -74.82 0.999900 -74.82 0.013468 4.4937
8.92310000 0.013458 26.005 0.999901 -74.82 0.999901 -74.82 0.013449 4.4087
8.92320000 0.013439 26.086 0.999901 -74.82 0.999901 -74.82 0.013430 4.3230
8.92330000 0.013420 26.168 0.999901 -74.82 0.999901 -74.82 0.013411 4.2366
8.92340000 0.013400 26.250 0.999901 -74.83 0.999901 -74.83 0.013391 4.1495
8.92350000 0.013381 26.333 0.999902 -74.83 0.999902 -74.83 0.013372 4.0616
8.92360000 0.013362 26.417 0.999902 -74.83 0.999902 -74.83 0.013352 3.9730
8.92370000 0.013342 26.502 0.999902 -74.83 0.999902 -74.83 0.013333 3.8837
8.92380000 0.013323 26.587 0.999902 -74.84 0.999902 -74.84 0.013313 3.7936
8.92390000 0.013303 26.673 0.999902 -74.84 0.999902 -74.84 0.013294 3.7027
8.92400000 0.013283 26.760 0.999903 -74.84 0.999903 -74.84 0.013274 3.6110
8.92410000 0.013263 26.848 0.999903 -74.84 0.999903 -74.84 0.013254 3.5186
8.92420000 0.013244 26.936 0.999903 -74.85 0.999903 -74.85 0.013234 3.4254
8.92430000 0.013224 27.026 0.999903 -74.85 0.999903 -74.85 0.013214 3.3313
8.92440000 0.013203 27.116 0.999904 -74.85 0.999904 -74.85 0.013194 3.2364
8.92450000 0.013183 27.206 0.999904 -74.85 0.999904 -74.85 0.013173 3.1407
8.92460000 0.013163 27.298 0.999904 -74.86 0.999904 -74.86 0.013153 3.0442
8.92470000 0.013143 27.391 0.999904 -74.86 0.999904 -74.86 0.013133 2.9468
8.92480000 0.013122 27.484 0.999905 -74.86 0.999905 -74.86 0.013112 2.8486
8.92490000 0.013102 27.578 0.999905 -74.86 0.999905 -74.86 0.013092 2.7495
8.92500000 0.013081 27.673 0.999905 -74.87 0.999905 -74.87 0.013071 2.6495
8.92510000 0.013061 27.769 0.999905 -74.87 0.999905 -74.87 0.013050 2.5486
8.92520000 0.013040 27.866 0.999905 -74.87 0.999905 -74.87 0.013030 2.4468
8.92530000 0.013019 27.963 0.999906 -74.87 0.999906 -74.87 0.013009 2.3441
8.92540000 0.012998 28.062 0.999906 -74.88 0.999906 -74.88 0.012988 2.2405
8.92550000 0.012977 28.162 0.999906 -74.88 0.999906 -74.88 0.012967 2.1359
8.92560000 0.012956 28.262 0.999906 -74.88 0.999906 -74.88 0.012946 2.0304
8.92570000 0.012935 28.363 0.999907 -74.88 0.999907 -74.88 0.012924 1.9239
8.92580000 0.012914 28.466 0.999907 -74.89 0.999907 -74.89 0.012903 1.8164
8.92590000 0.012893 28.569 0.999907 -74.89 0.999907 -74.89 0.012882 1.7079
8.92600000 0.012871 28.673 0.999907 -74.89 0.999907 -74.89 0.012860 1.5985
8.92610000 0.012850 28.779 0.999908 -74.90 0.999908 -74.90 0.012839 1.4880
8.92620000 0.012828 28.885 0.999908 -74.90 0.999908 -74.90 0.012817 1.3764
8.92630000 0.012807 28.992 0.999908 -74.90 0.999908 -74.90 0.012795 1.2639
8.92640000 0.012785 29.101 0.999908 -74.90 0.999908 -74.90 0.012774 1.1503
8.92650000 0.012763 29.210 0.999909 -74.91 0.999909 -74.91 0.012752 1.0356
8.92660000 0.012741 29.321 0.999909 -74.91 0.999909 -74.91 0.012730 0.9198
8.92670000 0.012719 29.432 0.999909 -74.91 0.999909 -74.91 0.012708 0.8029
8.92680000 0.012697 29.545 0.999909 -74.92 0.999909 -74.92 0.012685 0.6849
8.92690000 0.012675 29.659 0.999909 -74.92 0.999909 -74.92 0.012663 0.5657
8.92700000 0.012653 29.774 0.999910 -74.92 0.999910 -74.92 0.012641 0.4454
8.92710000 0.012631 29.890 0.999910 -74.92 0.999910 -74.92 0.012619 0.3240
8.92720000 0.012608 30.007 0.999910 -74.93 0.999910 -74.93 0.012596 0.2013
8.92730000 0.012586 30.125 0.999910 -74.93 0.999910 -74.93 0.012573 0.0775
8.92740000 0.012563 30.245 0.999911 -74.93 0.999911 -74.93 0.012551 -0.048
8.92750000 0.012541 30.366 0.999911 -74.93 0.999911 -74.93 0.012528 -0.174
8.92760000 0.012518 30.488 0.999911 -74.94 0.999911 -74.94 0.012505 -0.301
8.92770000 0.012495 30.611 0.999911 -74.94 0.999911 -74.94 0.012482 -0.430
8.92780000 0.012472 30.736 0.999912 -74.94 0.999912 -74.94 0.012459 -0.560
8.92790000 0.012449 30.861 0.999912 -74.95 0.999912 -74.95 0.012436 -0.692
8.92800000 0.012426 30.988 0.999912 -74.95 0.999912 -74.95 0.012413 -0.824
8.92810000 0.012403 31.117 0.999912 -74.95 0.999912 -74.95 0.012390 -0.958
8.92820000 0.012380 31.247 0.999913 -74.96 0.999913 -74.96 0.012366 -1.094
8.92830000 0.012356 31.378 0.999913 -74.96 0.999913 -74.96 0.012343 -1.231
8.92840000 0.012333 31.510 0.999913 -74.96 0.999913 -74.96 0.012320 -1.369
8.92850000 0.012309 31.644 0.999913 -74.96 0.999913 -74.96 0.012296 -1.508
8.92860000 0.012286 31.779 0.999914 -74.97 0.999914 -74.97 0.012272 -1.649
8.92870000 0.012262 31.916 0.999914 -74.97 0.999914 -74.97 0.012248 -1.792
8.92880000 0.012239 32.054 0.999914 -74.97 0.999914 -74.97 0.012225 -1.936
8.92890000 0.012215 32.193 0.999914 -74.98 0.999914 -74.98 0.012201 -2.081
8.92900000 0.012191 32.335 0.999914 -74.98 0.999914 -74.98 0.012177 -2.228
8.92910000 0.012167 32.477 0.999915 -74.98 0.999915 -74.98 0.012153 -2.377
8.92920000 0.012143 32.621 0.999915 -74.99 0.999915 -74.99 0.012128 -2.527
8.92930000 0.012119 32.767 0.999915 -74.99 0.999915 -74.99 0.012104 -2.679
8.92940000 0.012094 32.914 0.999915 -74.99 0.999915 -74.99 0.012080 -2.832
8.92950000 0.012070 33.063 0.999916 -75.00 0.999916 -75.00 0.012055 -2.987
8.92960000 0.012046 33.214 0.999916 -75.00 0.999916 -75.00 0.012031 -3.143
8.92970000 0.012021 33.366 0.999916 -75.00 0.999916 -75.00 0.012006 -3.302
8.92980000 0.011997 33.520 0.999916 -75.00 0.999916 -75.00 0.011982 -3.462
8.92990000 0.011972 33.675 0.999917 -75.01 0.999917 -75.01 0.011957 -3.624
8.93000000 0.011948 33.833 0.999917 -75.01 0.999917 -75.01 0.011932 -3.787
8.93010000 0.011923 33.992 0.999917 -75.01 0.999917 -75.01 0.011907 -3.952
8.93020000 0.011898 34.153 0.999917 -75.02 0.999917 -75.02 0.011882 -4.120
8.93030000 0.011873 34.315 0.999918 -75.02 0.999918 -75.02 0.011857 -4.288
8.93040000 0.011848 34.480 0.999918 -75.02 0.999918 -75.02 0.011832 -4.459
8.93050000 0.011823 34.646 0.999918 -75.03 0.999918 -75.03 0.011807 -4.632
8.93060000 0.011798 34.815 0.999918 -75.03 0.999918 -75.03 0.011782 -4.807
8.93070000 0.011773 34.985 0.999918 -75.03 0.999918 -75.03 0.011757 -4.984
8.93080000 0.011748 35.157 0.999919 -75.04 0.999919 -75.04 0.011731 -5.162
8.93090000 0.011722 35.331 0.999919 -75.04 0.999919 -75.04 0.011706 -5.343
8.93100000 0.011697 35.507 0.999919 -75.04 0.999919 -75.04 0.011680 -5.526
8.93110000 0.011672 35.686 0.999919 -75.05 0.999919 -75.05 0.011655 -5.710
8.93120000 0.011646 35.866 0.999920 -75.05 0.999920 -75.05 0.011629 -5.897
8.93130000 0.011621 36.048 0.999920 -75.06 0.999920 -75.06 0.011603 -6.087
8.93140000 0.011595 36.233 0.999920 -75.06 0.999920 -75.06 0.011577 -6.278
8.93150000 0.011569 36.420 0.999920 -75.06 0.999920 -75.06 0.011552 -6.471
8.93160000 0.011543 36.609 0.999921 -75.07 0.999921 -75.07 0.011526 -6.667
8.93170000 0.011518 36.800 0.999921 -75.07 0.999921 -75.07 0.011500 -6.865
8.93180000 0.011492 36.993 0.999921 -75.07 0.999921 -75.07 0.011474 -7.066
8.93190000 0.011466 37.189 0.999921 -75.08 0.999921 -75.08 0.011448 -7.268
8.93200000 0.011440 37.387 0.999921 -75.08 0.999921 -75.08 0.011422 -7.473
8.93210000 0.011414 37.588 0.999922 -75.08 0.999922 -75.08 0.011395 -7.681
8.93220000 0.011388 37.791 0.999922 -75.09 0.999922 -75.09 0.011369 -7.891
8.93230000 0.011362 37.997 0.999922 -75.09 0.999922 -75.09 0.011343 -8.104
8.93240000 0.011336 38.205 0.999922 -75.09 0.999922 -75.09 0.011317 -8.319
8.93250000 0.011310 38.415 0.999923 -75.10 0.999923 -75.10 0.011290 -8.537
8.93260000 0.011283 38.628 0.999923 -75.10 0.999923 -75.10 0.011264 -8.757
8.93270000 0.011257 38.844 0.999923 -75.11 0.999923 -75.11 0.011237 -8.980
8.93280000 0.011231 39.063 0.999923 -75.11 0.999923 -75.11 0.011211 -9.206
8.93290000 0.011205 39.284 0.999923 -75.11 0.999923 -75.11 0.011185 -9.435
8.93300000 0.011178 39.508 0.999924 -75.12 0.999924 -75.12 0.011158 -9.666
8.93310000 0.011152 39.735 0.999924 -75.12 0.999924 -75.12 0.011132 -9.900
8.93320000 0.011126 39.964 0.999924 -75.12 0.999924 -75.12 0.011105 -10.14
8.93330000 0.011099 40.197 0.999924 -75.13 0.999924 -75.13 0.011078 -10.38
8.93340000 0.011073 40.432 0.999925 -75.13 0.999925 -75.13 0.011052 -10.62
8.93350000 0.011047 40.671 0.999925 -75.14 0.999925 -75.14 0.011025 -10.87
8.93360000 0.011020 40.912 0.999925 -75.14 0.999925 -75.14 0.010999 -11.12
8.93370000 0.010994 41.157 0.999925 -75.14 0.999925 -75.14 0.010972 -11.37
8.93380000 0.010968 41.405 0.999925 -75.15 0.999925 -75.15 0.010945 -11.62
8.93390000 0.010941 41.655 0.999926 -75.15 0.999926 -75.15 0.010919 -11.88
8.93400000 0.010915 41.910 0.999926 -75.16 0.999926 -75.16 0.010892 -12.15
8.93410000 0.010888 42.167 0.999926 -75.16 0.999926 -75.16 0.010866 -12.41
8.93420000 0.010862 42.428 0.999926 -75.16 0.999926 -75.16 0.010839 -12.68
8.93430000 0.010836 42.692 0.999926 -75.17 0.999926 -75.17 0.010813 -12.95
8.93440000 0.010810 42.960 0.999926 -75.17 0.999926 -75.17 0.010786 -13.23
8.93450000 0.010783 43.231 0.999927 -75.18 0.999927 -75.18 0.010760 -13.51
8.93460000 0.010757 43.506 0.999927 -75.18 0.999927 -75.18 0.010733 -13.79
8.93470000 0.010731 43.784 0.999927 -75.19 0.999927 -75.19 0.010707 -14.08
8.93480000 0.010705 44.066 0.999927 -75.19 0.999927 -75.19 0.010680 -14.37
8.93490000 0.010679 44.352 0.999927 -75.19 0.999927 -75.19 0.010654 -14.66
8.93500000 0.010653 44.642 0.999928 -75.20 0.999928 -75.20 0.010628 -14.96
8.93510000 0.010627 44.935 0.999928 -75.20 0.999928 -75.20 0.010602 -15.26
8.93520000 0.010601 45.233 0.999928 -75.21 0.999928 -75.21 0.010576 -15.57
8.93530000 0.010575 45.534 0.999928 -75.21 0.999928 -75.21 0.010550 -15.88
8.93540000 0.010550 45.839 0.999928 -75.22 0.999928 -75.22 0.010524 -16.19
8.93550000 0.010524 46.149 0.999928 -75.22 0.999928 -75.22 0.010498 -16.51
8.93560000 0.010499 46.463 0.999929 -75.23 0.999929 -75.23 0.010472 -16.84
8.93570000 0.010473 46.781 0.999929 -75.23 0.999929 -75.23 0.010446 -17.16
8.93580000 0.010448 47.103 0.999929 -75.23 0.999929 -75.23 0.010421 -17.49
8.93590000 0.010423 47.429 0.999929 -75.24 0.999929 -75.24 0.010395 -17.83
8.93600000 0.010398 47.760 0.999929 -75.24 0.999929 -75.24 0.010370 -18.17
8.93610000 0.010373 48.096 0.999929 -75.25 0.999929 -75.25 0.010345 -18.52
8.93620000 0.010349 48.436 0.999929 -75.25 0.999929 -75.25 0.010320 -18.87
8.93630000 0.010324 48.781 0.999930 -75.26 0.999930 -75.26 0.010295 -19.22
8.93640000 0.010300 49.130 0.999930 -75.26 0.999930 -75.26 0.010271 -19.58
8.93650000 0.010276 49.485 0.999930 -75.27 0.999930 -75.27 0.010246 -19.94
8.93660000 0.010252 49.844 0.999930 -75.27 0.999930 -75.27 0.010222 -20.31
8.93670000 0.010228 50.208 0.999930 -75.28 0.999930 -75.28 0.010198 -20.69
8.93680000 0.010205 50.577 0.999930 -75.28 0.999930 -75.28 0.010174 -21.07
8.93690000 0.010181 50.951 0.999930 -75.29 0.999930 -75.29 0.010151 -21.45
8.93700000 0.010158 51.330 0.999930 -75.29 0.999930 -75.29 0.010127 -21.84
8.93710000 0.010136 51.714 0.999930 -75.30 0.999930 -75.30 0.010104 -22.23
8.93720000 0.010113 52.104 0.999931 -75.30 0.999931 -75.30 0.010081 -22.64
8.93730000 0.010091 52.499 0.999931 -75.31 0.999931 -75.31 0.010059 -23.04
8.93740000 0.010069 52.899 0.999931 -75.31 0.999931 -75.31 0.010037 -23.45
8.93750000 0.010047 53.305 0.999931 -75.32 0.999931 -75.32 0.010015 -23.87
8.93760000 0.010026 53.716 0.999931 -75.32 0.999931 -75.32 0.009993 -24.29
8.93770000 0.010005 54.133 0.999931 -75.33 0.999931 -75.33 0.009972 -24.72
8.93780000 0.009985 54.556 0.999931 -75.33 0.999931 -75.33 0.009951 -25.15
8.93790000 0.009964 54.984 0.999931 -75.34 0.999931 -75.34 0.009930 -25.59
8.93800000 0.009945 55.418 0.999931 -75.34 0.999931 -75.34 0.009910 -26.04
8.93810000 0.009925 55.858 0.999931 -75.35 0.999931 -75.35 0.009890 -26.49
8.93820000 0.009906 56.304 0.999931 -75.35 0.999931 -75.35 0.009871 -26.95
8.93830000 0.009888 56.756 0.999931 -75.36 0.999931 -75.36 0.009852 -27.41
8.93840000 0.009870 57.214 0.999931 -75.37 0.999931 -75.37 0.009833 -27.88
8.93850000 0.009852 57.678 0.999931 -75.37 0.999931 -75.37 0.009816 -28.36
8.93860000 0.009835 58.149 0.999931 -75.38 0.999931 -75.38 0.009798 -28.84
8.93870000 0.009819 58.625 0.999931 -75.38 0.999931 -75.38 0.009781 -29.33
8.93880000 0.009803 59.108 0.999931 -75.39 0.999931 -75.39 0.009765 -29.83
8.93890000 0.009787 59.598 0.999931 -75.39 0.999931 -75.39 0.009749 -30.33
8.93900000 0.009772 60.093 0.999931 -75.40 0.999931 -75.40 0.009734 -30.84
8.93910000 0.009758 60.595 0.999931 -75.41 0.999931 -75.41 0.009719 -31.36
8.93920000 0.009745 61.104 0.999931 -75.41 0.999931 -75.41 0.009705 -31.88