! Sonnet Data File
! From: emgraph Version : 16.52
! From Project: Resonator2_extremeCap2
! Data is De-embedded 
! Data File Written: 10/10/2017 17:29:14
!< HDATE 10/10/2017 13:14:23
!< MDATE 10/10/2017 13:14:23
!< PARAMS
!< Pwid1 = 2000.0
!< Pwid2 = 2000.0
!< Air_gap = 12.0
!< Width = 20.0
!< Gap = 53.0
!< END PARAMS
# GHZ S MA R 40.14000
8.98000000 0.346710 -4.361 0.937958 -94.82 0.937958 -94.82 0.346693 -5.280
!< P1 F=8.98 Eeff=(5.24939097 -2.3069e-5) Z0=(40.1264257 8.94314e-5) R=0.0 C=0.0 
!< P2 F=8.98 Eeff=(5.24939097 -2.3069e-5) Z0=(40.1264257 8.94314e-5) R=0.0 C=0.0 
8.98050000 0.346933 -4.351 0.937876 -94.84 0.937876 -94.84 0.346916 -5.336
8.98100000 0.347158 -4.340 0.937792 -94.87 0.937792 -94.87 0.347141 -5.393
8.98150000 0.347385 -4.329 0.937708 -94.89 0.937708 -94.89 0.347368 -5.450
8.98200000 0.347614 -4.319 0.937623 -94.91 0.937623 -94.91 0.347597 -5.508
8.98250000 0.347845 -4.308 0.937537 -94.94 0.937537 -94.94 0.347828 -5.566
8.98300000 0.348079 -4.296 0.937450 -94.96 0.937450 -94.96 0.348061 -5.625
8.98350000 0.348315 -4.285 0.937363 -94.98 0.937363 -94.98 0.348297 -5.684
8.98400000 0.348552 -4.274 0.937274 -95.01 0.937274 -95.01 0.348534 -5.744
8.98450000 0.348792 -4.262 0.937185 -95.03 0.937185 -95.03 0.348774 -5.804
8.98500000 0.349035 -4.250 0.937094 -95.06 0.937094 -95.06 0.349016 -5.865
8.98550000 0.349279 -4.239 0.937003 -95.08 0.937003 -95.08 0.349261 -5.926
8.98600000 0.349526 -4.227 0.936911 -95.11 0.936911 -95.11 0.349507 -5.988
8.98650000 0.349776 -4.214 0.936818 -95.13 0.936818 -95.13 0.349757 -6.050
8.98700000 0.350027 -4.202 0.936724 -95.16 0.936724 -95.16 0.350008 -6.113
8.98750000 0.350282 -4.190 0.936628 -95.18 0.936628 -95.18 0.350262 -6.176
8.98800000 0.350538 -4.177 0.936532 -95.21 0.936532 -95.21 0.350519 -6.240
8.98850000 0.350798 -4.164 0.936435 -95.23 0.936435 -95.23 0.350778 -6.305
8.98900000 0.351060 -4.151 0.936337 -95.26 0.936337 -95.26 0.351040 -6.370
8.98950000 0.351324 -4.138 0.936238 -95.29 0.936238 -95.29 0.351304 -6.436
8.99000000 0.351591 -4.125 0.936137 -95.31 0.936137 -95.31 0.351571 -6.502
8.99050000 0.351861 -4.112 0.936036 -95.34 0.936036 -95.34 0.351840 -6.569
8.99100000 0.352134 -4.098 0.935933 -95.37 0.935933 -95.37 0.352113 -6.637
8.99150000 0.352409 -4.084 0.935829 -95.39 0.935829 -95.39 0.352388 -6.705
8.99200000 0.352688 -4.070 0.935724 -95.42 0.935724 -95.42 0.352666 -6.774
8.99250000 0.352969 -4.056 0.935618 -95.45 0.935618 -95.45 0.352947 -6.844
8.99300000 0.353253 -4.042 0.935510 -95.48 0.935510 -95.48 0.353231 -6.914
8.99350000 0.353540 -4.028 0.935402 -95.50 0.935402 -95.50 0.353518 -6.985
8.99400000 0.353831 -4.013 0.935292 -95.53 0.935292 -95.53 0.353808 -7.056
8.99450000 0.354124 -3.998 0.935181 -95.56 0.935181 -95.56 0.354102 -7.129
8.99500000 0.354421 -3.983 0.935068 -95.59 0.935068 -95.59 0.354398 -7.202
8.99550000 0.354721 -3.968 0.934954 -95.62 0.934954 -95.62 0.354698 -7.275
8.99600000 0.355024 -3.953 0.934839 -95.65 0.934839 -95.65 0.355001 -7.350
8.99650000 0.355331 -3.937 0.934722 -95.68 0.934722 -95.68 0.355307 -7.425
8.99700000 0.355641 -3.921 0.934604 -95.71 0.934604 -95.71 0.355617 -7.501
8.99750000 0.355954 -3.905 0.934485 -95.74 0.934485 -95.74 0.355930 -7.578
8.99800000 0.356271 -3.889 0.934364 -95.77 0.934364 -95.77 0.356247 -7.655
8.99850000 0.356592 -3.873 0.934241 -95.80 0.934241 -95.80 0.356567 -7.733
8.99900000 0.356916 -3.856 0.934117 -95.83 0.934117 -95.83 0.356891 -7.812
8.99950000 0.357244 -3.840 0.933991 -95.86 0.933991 -95.86 0.357219 -7.892
9.00000000 0.357576 -3.823 0.933864 -95.90 0.933864 -95.90 0.357551 -7.973
9.00050000 0.357912 -3.805 0.933735 -95.93 0.933735 -95.93 0.357886 -8.054
9.00100000 0.358252 -3.788 0.933605 -95.96 0.933605 -95.96 0.358226 -8.137
9.00150000 0.358596 -3.771 0.933473 -95.99 0.933473 -95.99 0.358569 -8.220
9.00200000 0.358944 -3.753 0.933339 -96.03 0.933339 -96.03 0.358917 -8.304
9.00250000 0.359296 -3.735 0.933203 -96.06 0.933203 -96.06 0.359269 -8.389
9.00300000 0.359653 -3.717 0.933065 -96.09 0.933065 -96.09 0.359625 -8.475
9.00350000 0.360014 -3.698 0.932926 -96.13 0.932926 -96.13 0.359986 -8.562
9.00400000 0.360379 -3.679 0.932785 -96.16 0.932785 -96.16 0.360351 -8.650
9.00450000 0.360749 -3.660 0.932641 -96.20 0.932641 -96.20 0.360721 -8.739
9.00500000 0.361124 -3.641 0.932496 -96.23 0.932496 -96.23 0.361095 -8.829
9.00550000 0.361503 -3.622 0.932349 -96.27 0.932349 -96.27 0.361474 -8.920
9.00600000 0.361888 -3.602 0.932199 -96.30 0.932199 -96.30 0.361858 -9.012
9.00650000 0.362277 -3.583 0.932048 -96.34 0.932048 -96.34 0.362247 -9.105
9.00700000 0.362671 -3.562 0.931894 -96.38 0.931894 -96.38 0.362641 -9.199
9.00750000 0.363071 -3.542 0.931739 -96.42 0.931739 -96.42 0.363040 -9.294
9.00800000 0.363476 -3.521 0.931580 -96.45 0.931580 -96.45 0.363444 -9.390
9.00850000 0.363886 -3.501 0.931420 -96.49 0.931420 -96.49 0.363854 -9.487
9.00900000 0.364302 -3.480 0.931257 -96.53 0.931257 -96.53 0.364270 -9.586
9.00950000 0.364723 -3.458 0.931092 -96.57 0.931092 -96.57 0.364690 -9.685
9.01000000 0.365150 -3.437 0.930924 -96.61 0.930924 -96.61 0.365117 -9.786
9.01050000 0.365583 -3.415 0.930754 -96.65 0.930754 -96.65 0.365550 -9.888
9.01100000 0.366022 -3.393 0.930581 -96.69 0.930581 -96.69 0.365988 -9.991
9.01150000 0.366467 -3.370 0.930406 -96.73 0.930406 -96.73 0.366433 -10.10
9.01200000 0.366918 -3.347 0.930228 -96.77 0.930228 -96.77 0.366884 -10.20
9.01250000 0.367376 -3.324 0.930047 -96.81 0.930047 -96.81 0.367341 -10.31
9.01300000 0.367840 -3.301 0.929863 -96.86 0.929863 -96.86 0.367805 -10.42
9.01350000 0.368312 -3.278 0.929676 -96.90 0.929676 -96.90 0.368275 -10.53
9.01400000 0.368790 -3.254 0.929486 -96.94 0.929486 -96.94 0.368753 -10.64
9.01450000 0.369275 -3.230 0.929293 -96.99 0.929293 -96.99 0.369237 -10.75
9.01500000 0.369767 -3.205 0.929097 -97.03 0.929097 -97.03 0.369729 -10.86
9.01550000 0.370266 -3.181 0.928898 -97.08 0.928898 -97.08 0.370228 -10.98
9.01600000 0.370773 -3.156 0.928695 -97.12 0.928695 -97.12 0.370735 -11.10
9.01650000 0.371288 -3.130 0.928489 -97.17 0.928489 -97.17 0.371249 -11.22
9.01700000 0.371811 -3.105 0.928280 -97.22 0.928280 -97.22 0.371771 -11.34
9.01750000 0.372342 -3.079 0.928066 -97.26 0.928066 -97.26 0.372301 -11.46
9.01800000 0.372881 -3.053 0.927850 -97.31 0.927850 -97.31 0.372840 -11.58
9.01850000 0.373428 -3.026 0.927629 -97.36 0.927629 -97.36 0.373387 -11.70
9.01900000 0.373985 -2.999 0.927404 -97.41 0.927404 -97.41 0.373943 -11.83
9.01950000 0.374550 -2.972 0.927176 -97.46 0.927176 -97.46 0.374507 -11.96
9.02000000 0.375124 -2.945 0.926943 -97.51 0.926943 -97.51 0.375081 -12.09
9.02050000 0.375708 -2.917 0.926706 -97.57 0.926706 -97.57 0.375664 -12.22
9.02100000 0.376302 -2.889 0.926465 -97.62 0.926465 -97.62 0.376257 -12.36
9.02150000 0.376905 -2.860 0.926219 -97.67 0.926219 -97.67 0.376859 -12.49
9.02200000 0.377519 -2.831 0.925969 -97.73 0.925969 -97.73 0.377472 -12.63
9.02250000 0.378142 -2.802 0.925714 -97.78 0.925714 -97.78 0.378095 -12.77
9.02300000 0.378777 -2.773 0.925454 -97.84 0.925454 -97.84 0.378729 -12.91
9.02350000 0.379423 -2.743 0.925189 -97.89 0.925189 -97.89 0.379374 -13.05
9.02400000 0.380079 -2.713 0.924919 -97.95 0.924919 -97.95 0.380030 -13.20
9.02450000 0.380748 -2.682 0.924643 -98.01 0.924643 -98.01 0.380698 -13.35
9.02500000 0.381428 -2.651 0.924362 -98.07 0.924362 -98.07 0.381377 -13.50
9.02550000 0.382120 -2.620 0.924075 -98.13 0.924075 -98.13 0.382069 -13.65
9.02600000 0.382825 -2.588 0.923783 -98.19 0.923783 -98.19 0.382773 -13.80
9.02650000 0.383543 -2.556 0.923485 -98.25 0.923485 -98.25 0.383490 -13.96
9.02700000 0.384275 -2.524 0.923180 -98.32 0.923180 -98.32 0.384220 -14.12
9.02750000 0.385019 -2.491 0.922869 -98.38 0.922869 -98.38 0.384964 -14.28
9.02800000 0.385778 -2.458 0.922551 -98.45 0.922551 -98.45 0.385722 -14.45
9.02850000 0.386552 -2.425 0.922227 -98.51 0.922227 -98.51 0.386495 -14.61
9.02900000 0.387340 -2.391 0.921895 -98.58 0.921895 -98.58 0.387282 -14.78
9.02950000 0.388144 -2.357 0.921557 -98.65 0.921557 -98.65 0.388084 -14.96
9.03000000 0.388963 -2.322 0.921210 -98.72 0.921210 -98.72 0.388903 -15.13
9.03050000 0.389799 -2.288 0.920856 -98.79 0.920856 -98.79 0.389737 -15.31
9.03100000 0.390651 -2.252 0.920494 -98.87 0.920494 -98.87 0.390588 -15.49
9.03150000 0.391521 -2.217 0.920124 -98.94 0.920124 -98.94 0.391457 -15.68
9.03200000 0.392408 -2.181 0.919745 -99.02 0.919745 -99.02 0.392343 -15.86
9.03250000 0.393314 -2.144 0.919357 -99.09 0.919357 -99.09 0.393248 -16.05
9.03300000 0.394239 -2.107 0.918960 -99.17 0.918960 -99.17 0.394172 -16.25
9.03350000 0.395183 -2.070 0.918553 -99.25 0.918553 -99.25 0.395115 -16.45
9.03400000 0.396148 -2.033 0.918137 -99.33 0.918137 -99.33 0.396078 -16.65
9.03450000 0.397133 -1.995 0.917710 -99.42 0.917710 -99.42 0.397062 -16.85
9.03500000 0.398140 -1.957 0.917273 -99.50 0.917273 -99.50 0.398067 -17.06
9.03550000 0.399169 -1.918 0.916824 -99.59 0.916824 -99.59 0.399095 -17.27
9.03600000 0.400221 -1.879 0.916364 -99.68 0.916364 -99.68 0.400146 -17.49
9.03650000 0.401297 -1.840 0.915893 -99.77 0.915893 -99.77 0.401220 -17.71
9.03700000 0.402398 -1.800 0.915409 -99.86 0.915409 -99.86 0.402319 -17.93
9.03750000 0.403524 -1.760 0.914912 -99.95 0.914912 -99.95 0.403444 -18.16
9.03800000 0.404676 -1.720 0.914401 -100.0 0.914401 -100.0 0.404594 -18.39
9.03850000 0.405856 -1.680 0.913877 -100.1 0.913877 -100.1 0.405772 -18.63
9.03900000 0.407063 -1.639 0.913338 -100.2 0.913338 -100.2 0.406978 -18.87
9.03950000 0.408300 -1.598 0.912785 -100.3 0.912785 -100.3 0.408214 -19.11
9.04000000 0.409568 -1.556 0.912215 -100.5 0.912215 -100.5 0.409479 -19.36
9.04050000 0.410867 -1.515 0.911630 -100.6 0.911630 -100.6 0.410776 -19.62
9.04100000 0.412198 -1.473 0.911027 -100.7 0.911027 -100.7 0.412106 -19.88
9.04150000 0.413564 -1.431 0.910406 -100.8 0.910406 -100.8 0.413469 -20.15
9.04200000 0.414964 -1.388 0.909767 -100.9 0.909767 -100.9 0.414868 -20.42
9.04250000 0.416401 -1.346 0.909109 -101.0 0.909109 -101.0 0.416303 -20.70
9.04300000 0.417876 -1.303 0.908430 -101.1 0.908430 -101.1 0.417775 -20.98
9.04350000 0.419391 -1.260 0.907730 -101.3 0.907730 -101.3 0.419288 -21.27
9.04400000 0.420946 -1.218 0.907008 -101.4 0.907008 -101.4 0.420841 -21.57
9.04450000 0.422544 -1.175 0.906262 -101.5 0.906262 -101.5 0.422436 -21.87
9.04500000 0.424187 -1.132 0.905492 -101.6 0.905492 -101.6 0.424076 -22.18
9.04550000 0.425876 -1.089 0.904697 -101.8 0.904697 -101.8 0.425763 -22.50
9.04600000 0.427613 -1.046 0.903875 -101.9 0.903875 -101.9 0.427497 -22.82
9.04650000 0.429400 -1.003 0.903025 -102.1 0.903025 -102.1 0.429282 -23.15
9.04700000 0.431240 -0.961 0.902145 -102.2 0.902145 -102.2 0.431119 -23.49
9.04750000 0.433135 -0.918 0.901235 -102.4 0.901235 -102.4 0.433010 -23.84
9.04800000 0.435086 -0.876 0.900292 -102.5 0.900292 -102.5 0.434959 -24.19
9.04850000 0.437098 -0.835 0.899314 -102.7 0.899314 -102.7 0.436967 -24.55
9.04900000 0.439171 -0.793 0.898300 -102.8 0.898300 -102.8 0.439037 -24.93
9.04950000 0.441310 -0.753 0.897248 -103.0 0.897248 -103.0 0.441172 -25.31
9.05000000 0.443518 -0.713 0.896156 -103.2 0.896156 -103.2 0.443376 -25.70
9.05050000 0.445796 -0.673 0.895021 -103.4 0.895021 -103.4 0.445651 -26.10
9.05100000 0.448150 -0.635 0.893842 -103.6 0.893842 -103.6 0.448000 -26.51
9.05150000 0.450582 -0.597 0.892615 -103.8 0.892615 -103.8 0.450428 -26.94
9.05200000 0.453096 -0.561 0.891337 -103.9 0.891337 -103.9 0.452939 -27.37
9.05250000 0.455697 -0.525 0.890006 -104.2 0.890006 -104.2 0.455535 -27.82
9.05300000 0.458389 -0.491 0.888618 -104.4 0.888618 -104.4 0.458222 -28.28
9.05350000 0.461176 -0.459 0.887171 -104.6 0.887171 -104.6 0.461004 -28.75
9.05400000 0.464063 -0.429 0.885659 -104.8 0.885659 -104.8 0.463886 -29.23
9.05450000 0.467057 -0.400 0.884079 -105.0 0.884079 -105.0 0.466874 -29.73
9.05500000 0.470161 -0.374 0.882427 -105.3 0.882427 -105.3 0.469973 -30.24
9.05550000 0.473382 -0.350 0.880697 -105.5 0.880697 -105.5 0.473188 -30.77
9.05600000 0.476727 -0.328 0.878885 -105.8 0.878885 -105.8 0.476528 -31.32
9.05650000 0.480203 -0.310 0.876985 -106.1 0.876985 -106.1 0.479997 -31.88
9.05700000 0.483816 -0.296 0.874990 -106.4 0.874990 -106.4 0.483604 -32.45
9.05750000 0.487576 -0.285 0.872893 -106.6 0.872893 -106.6 0.487356 -33.05
9.05800000 0.491489 -0.278 0.870688 -106.9 0.870688 -106.9 0.491262 -33.67
9.05850000 0.495566 -0.275 0.868366 -107.3 0.868366 -107.3 0.495331 -34.31
9.05900000 0.499815 -0.278 0.865919 -107.6 0.865919 -107.6 0.499572 -34.96
9.05950000 0.504248 -0.287 0.863336 -107.9 0.863336 -107.9 0.503997 -35.64
9.06000000 0.508876 -0.302 0.860606 -108.3 0.860606 -108.3 0.508616 -36.35
9.06050000 0.513711 -0.323 0.857719 -108.7 0.857719 -108.7 0.513441 -37.08
9.06100000 0.518765 -0.353 0.854660 -109.1 0.854660 -109.1 0.518485 -37.83
9.06150000 0.524053 -0.391 0.851416 -109.5 0.851416 -109.5 0.523763 -38.62
9.06200000 0.529590 -0.438 0.847969 -109.9 0.847969 -109.9 0.529289 -39.43
9.06250000 0.535393 -0.496 0.844304 -110.4 0.844304 -110.4 0.535080 -40.28
9.06300000 0.541479 -0.566 0.840399 -110.8 0.840399 -110.8 0.541154 -41.16
9.06350000 0.547867 -0.648 0.836232 -111.3 0.836232 -111.3 0.547529 -42.07
9.06400000 0.554578 -0.745 0.831779 -111.8 0.831779 -111.8 0.554226 -43.02
9.06450000 0.561633 -0.857 0.827012 -112.4 0.827012 -112.4 0.561267 -44.01
9.06500000 0.569057 -0.987 0.821901 -113.0 0.821901 -113.0 0.568675 -45.05
9.06550000 0.576876 -1.137 0.816409 -113.6 0.816409 -113.6 0.576478 -46.13
9.06600000 0.585117 -1.309 0.810498 -114.2 0.810498 -114.2 0.584701 -47.26
9.06650000 0.593811 -1.504 0.804124 -114.9 0.804124 -114.9 0.593376 -48.44
9.06700000 0.602988 -1.727 0.797235 -115.6 0.797235 -115.6 0.602533 -49.68
9.06750000 0.612684 -1.980 0.789776 -116.4 0.789776 -116.4 0.612208 -50.98
9.06800000 0.622935 -2.266 0.781680 -117.2 0.781680 -117.2 0.622436 -52.35
9.06850000 0.633779 -2.590 0.772874 -118.1 0.772874 -118.1 0.633255 -53.78
9.06900000 0.645257 -2.956 0.763273 -119.1 0.763273 -119.1 0.644707 -55.30
9.06950000 0.657410 -3.368 0.752781 -120.1 0.752781 -120.1 0.656833 -56.89
9.07000000 0.670283 -3.834 0.741288 -121.1 0.741288 -121.1 0.669675 -58.58
9.07050000 0.683918 -4.358 0.728666 -122.3 0.728666 -122.3 0.683278 -60.36
9.07100000 0.698357 -4.948 0.714770 -123.5 0.714770 -123.5 0.697683 -62.25
9.07150000 0.713641 -5.612 0.699434 -124.8 0.699434 -124.8 0.712929 -64.26
9.07200000 0.729802 -6.360 0.682467 -126.3 0.682467 -126.3 0.729050 -66.39
9.07250000 0.746865 -7.200 0.663650 -127.8 0.663650 -127.8 0.746071 -68.66
9.07300000 0.764843 -8.144 0.642734 -129.5 0.642734 -129.5 0.764003 -71.09
9.07350000 0.783726 -9.205 0.619440 -131.3 0.619440 -131.3 0.782836 -73.68
9.07400000 0.803475 -10.40 0.593449 -133.3 0.593449 -133.3 0.802533 -76.45
9.07450000 0.824015 -11.73 0.564411 -135.4 0.564411 -135.4 0.823015 -79.42
9.07500000 0.845213 -13.23 0.531942 -137.7 0.531942 -137.7 0.844153 -82.60
9.07550000 0.866870 -14.90 0.495633 -140.2 0.495633 -140.2 0.865746 -86.02
9.07600000 0.888697 -16.76 0.455066 -142.9 0.455066 -142.9 0.887505 -89.68
9.07650000 0.910297 -18.83 0.409832 -145.9 0.409832 -145.9 0.909035 -93.62
9.07700000 0.931147 -21.11 0.359569 -149.1 0.359569 -149.1 0.929812 -97.83
9.07750000 0.950588 -23.62 0.304012 -152.5 0.304012 -152.5 0.949179 -102.3
9.07800000 0.967825 -26.36 0.243049 -156.1 0.243049 -156.1 0.966341 -107.1
9.07850000 0.981952 -29.32 0.176797 -159.8 0.176797 -159.8 0.980396 -112.2
9.07900000 0.992004 -32.48 0.105671 -163.4 0.105671 -163.4 0.990380 -117.6
9.07950000 0.997046 -35.82 0.030518 -163.5 0.030518 -163.5 0.995358 -123.2
9.07951068 0.997092 -35.89 0.028883 -163.2 0.028883 -163.2 0.995403 -123.3
9.07952111 0.997135 -35.96 0.027286 -162.9 0.027286 -162.9 0.995445 -123.5
9.07953130 0.997175 -36.03 0.025725 -162.6 0.025725 -162.6 0.995483 -123.6
9.07954126 0.997211 -36.10 0.024200 -162.2 0.024200 -162.2 0.995519 -123.7
9.07955099 0.997245 -36.17 0.022710 -161.8 0.022710 -161.8 0.995551 -123.8
9.07956050 0.997275 -36.23 0.021256 -161.3 0.021256 -161.3 0.995580 -123.9
9.07956979 0.997303 -36.29 0.019837 -160.8 0.019837 -160.8 0.995607 -124.0
9.07957887 0.997328 -36.36 0.018451 -160.1 0.018451 -160.1 0.995631 -124.1
9.07958774 0.997350 -36.42 0.017100 -159.4 0.017100 -159.4 0.995652 -124.2
9.07959640 0.997370 -36.48 0.015783 -158.5 0.015783 -158.5 0.995671 -124.3
9.07960487 0.997388 -36.53 0.014500 -157.5 0.014500 -157.5 0.995688 -124.4
9.07961314 0.997404 -36.59 0.013251 -156.4 0.013251 -156.4 0.995703 -124.5
9.07962123 0.997418 -36.65 0.012038 -155.0 0.012038 -155.0 0.995716 -124.6
9.07962913 0.997430 -36.70 0.010862 -153.3 0.010862 -153.3 0.995728 -124.7
9.07963685 0.997441 -36.75 0.009723 -151.2 0.009723 -151.2 0.995737 -124.8
9.07964439 0.997450 -36.81 0.008627 -148.7 0.008627 -148.7 0.995745 -124.9
9.07965175 0.997457 -36.86 0.007578 -145.5 0.007578 -145.5 0.995752 -125.0
9.07965895 0.997463 -36.91 0.006584 -141.3 0.006584 -141.3 0.995757 -125.1
9.07966599 0.997467 -36.96 0.005658 -135.9 0.005658 -135.9 0.995760 -125.1
9.07967286 0.997470 -37.00 0.004823 -128.6 0.004823 -128.6 0.995763 -125.2
9.07967958 0.997473 -37.05 0.004114 -118.7 0.004114 -118.7 0.995764 -125.3
9.07968614 0.997474 -37.09 0.003585 -105.6 0.003585 -105.6 0.995764 -125.4
9.07969255 0.997473 -37.14 0.003301 -89.65 0.003301 -89.65 0.995763 -125.4
9.07969882 0.997472 -37.18 0.003305 -72.68 0.003305 -72.68 0.995762 -125.5
9.07970494 0.997470 -37.22 0.003578 -57.41 0.003578 -57.41 0.995759 -125.6
9.07971092 0.997468 -37.27 0.004050 -45.30 0.004050 -45.30 0.995756 -125.7
9.07971676 0.997464 -37.31 0.004649 -36.24 0.004649 -36.24 0.995752 -125.7
9.07972247 0.997460 -37.35 0.005322 -29.52 0.005322 -29.52 0.995747 -125.8
9.07972805 0.997455 -37.38 0.006035 -24.47 0.006035 -24.47 0.995741 -125.9
9.07973350 0.997449 -37.42 0.006768 -20.61 0.006768 -20.61 0.995735 -125.9
9.07973883 0.997443 -37.46 0.007509 -17.59 0.007509 -17.59 0.995728 -126.0
9.07974403 0.997437 -37.50 0.008251 -15.17 0.008251 -15.17 0.995721 -126.0
9.07974912 0.997429 -37.53 0.008988 -13.21 0.008988 -13.21 0.995713 -126.1
9.07975408 0.997422 -37.56 0.009718 -11.59 0.009718 -11.59 0.995705 -126.2
9.07975894 0.997414 -37.60 0.010438 -10.23 0.010438 -10.23 0.995696 -126.2
9.07976368 0.997405 -37.63 0.011147 -9.073 0.011147 -9.073 0.995688 -126.3
9.07976832 0.997397 -37.66 0.011844 -8.085 0.011844 -8.085 0.995678 -126.3
9.07977285 0.997387 -37.70 0.012528 -7.231 0.012528 -7.231 0.995669 -126.4
9.07977727 0.997378 -37.73 0.013200 -6.486 0.013200 -6.486 0.995659 -126.4
9.07978159 0.997369 -37.76 0.013859 -5.831 0.013859 -5.831 0.995649 -126.5
9.07978582 0.997359 -37.79 0.014504 -5.253 0.014504 -5.253 0.995639 -126.5
9.07978994 0.997349 -37.81 0.015137 -4.738 0.015137 -4.738 0.995628 -126.6
9.07979398 0.997338 -37.84 0.015756 -4.279 0.015756 -4.279 0.995617 -126.6
9.07979792 0.997328 -37.87 0.016362 -3.866 0.016362 -3.866 0.995607 -126.7
9.07980177 0.997318 -37.90 0.016955 -3.493 0.016955 -3.493 0.995596 -126.7
9.07980553 0.997307 -37.92 0.017536 -3.156 0.017536 -3.156 0.995585 -126.8
9.07980921 0.997296 -37.95 0.018104 -2.849 0.018104 -2.849 0.995574 -126.8
9.07981280 0.997286 -37.97 0.018660 -2.570 0.018660 -2.570 0.995562 -126.8
9.07981631 0.997275 -38.00 0.019204 -2.314 0.019204 -2.314 0.995551 -126.9
9.07981974 0.997264 -38.02 0.019736 -2.080 0.019736 -2.080 0.995540 -126.9
9.07982309 0.997253 -38.04 0.020256 -1.864 0.020256 -1.864 0.995529 -127.0
9.07982636 0.997242 -38.07 0.020765 -1.665 0.020765 -1.665 0.995517 -127.0
9.07982956 0.997231 -38.09 0.021262 -1.481 0.021262 -1.481 0.995506 -127.0
9.07983268 0.997220 -38.11 0.021748 -1.311 0.021748 -1.311 0.995495 -127.1
9.07983574 0.997209 -38.13 0.022224 -1.154 0.022224 -1.154 0.995484 -127.1
9.07983872 0.997198 -38.15 0.022689 -1.007 0.022689 -1.007 0.995472 -127.2
9.07984164 0.997187 -38.17 0.023143 -0.871 0.023143 -0.871 0.995461 -127.2
9.07984448 0.997177 -38.19 0.023588 -0.743 0.023588 -0.743 0.995450 -127.2
9.07984727 0.997166 -38.21 0.024022 -0.624 0.024022 -0.624 0.995439 -127.3
9.07984999 0.997155 -38.23 0.024447 -0.513 0.024447 -0.513 0.995428 -127.3
9.07985264 0.997144 -38.25 0.024862 -0.409 0.024862 -0.409 0.995417 -127.3
9.07985524 0.997134 -38.27 0.025268 -0.311 0.025268 -0.311 0.995406 -127.3
9.07985778 0.997123 -38.29 0.025664 -0.219 0.025664 -0.219 0.995395 -127.4
9.07986026 0.997113 -38.30 0.026052 -0.133 0.026052 -0.133 0.995385 -127.4
9.07986268 0.997103 -38.32 0.026431 -0.052 0.026431 -0.052 0.995374 -127.4
9.07986504 0.997092 -38.34 0.026801 0.0246 0.026801 0.0246 0.995364 -127.5
9.07986736 0.997082 -38.35 0.027164 0.0968 0.027164 0.0968 0.995353 -127.5
9.07986961 0.997072 -38.37 0.027517 0.1649 0.027517 0.1649 0.995343 -127.5
9.07987182 0.997062 -38.38 0.027863 0.2293 0.027863 0.2293 0.995333 -127.5
9.07987398 0.997052 -38.40 0.028201 0.2902 0.028201 0.2902 0.995323 -127.6
9.07987609 0.997043 -38.41 0.028532 0.3479 0.028532 0.3479 0.995313 -127.6
9.07987815 0.997033 -38.43 0.028854 0.4025 0.028854 0.4025 0.995303 -127.6
9.07988016 0.997024 -38.44 0.029170 0.4544 0.029170 0.4544 0.995293 -127.6
9.07988212 0.997014 -38.46 0.029478 0.5035 0.029478 0.5035 0.995284 -127.7
9.07988404 0.997005 -38.47 0.029780 0.5502 0.029780 0.5502 0.995275 -127.7
9.07988592 0.996996 -38.48 0.030074 0.5946 0.030074 0.5946 0.995265 -127.7
9.07988775 0.996987 -38.50 0.030362 0.6368 0.030362 0.6368 0.995256 -127.7
9.07988955 0.996978 -38.51 0.030644 0.6770 0.030644 0.6770 0.995247 -127.7
9.07989130 0.996969 -38.52 0.030918 0.7152 0.030918 0.7152 0.995238 -127.8
9.07989301 0.996961 -38.53 0.031187 0.7517 0.031187 0.7517 0.995229 -127.8
9.07989468 0.996952 -38.54 0.031450 0.7864 0.031450 0.7864 0.995221 -127.8
9.07989631 0.996944 -38.56 0.031706 0.8196 0.031706 0.8196 0.995212 -127.8
9.07989791 0.996936 -38.57 0.031957 0.8512 0.031957 0.8512 0.995204 -127.8
9.07989947 0.996928 -38.58 0.032202 0.8814 0.032202 0.8814 0.995195 -127.9
9.07990099 0.996920 -38.59 0.032442 0.9103 0.032442 0.9103 0.995187 -127.9
9.07990248 0.996912 -38.60 0.032676 0.9379 0.032676 0.9379 0.995179 -127.9
9.07990393 0.996904 -38.61 0.032904 0.9643 0.032904 0.9643 0.995171 -127.9
9.07990535 0.996897 -38.62 0.033128 0.9896 0.033128 0.9896 0.995164 -127.9
9.07990674 0.996889 -38.63 0.033346 1.0138 0.033346 1.0138 0.995156 -128.0
9.07990810 0.996882 -38.64 0.033560 1.0369 0.033560 1.0369 0.995149 -128.0
9.07990942 0.996875 -38.65 0.033768 1.0591 0.033768 1.0591 0.995141 -128.0
9.07991072 0.996867 -38.66 0.033972 1.0804 0.033972 1.0804 0.995134 -128.0
9.07991198 0.996860 -38.67 0.034171 1.1008 0.034171 1.1008 0.995127 -128.0
9.07991322 0.996854 -38.67 0.034366 1.1204 0.034366 1.1204 0.995120 -128.0
9.07991443 0.996847 -38.68 0.034556 1.1392 0.034556 1.1392 0.995113 -128.0
9.07991561 0.996840 -38.69 0.034742 1.1572 0.034742 1.1572 0.995106 -128.1
9.07991676 0.996834 -38.70 0.034923 1.1746 0.034923 1.1746 0.995100 -128.1
9.07991789 0.996827 -38.71 0.035101 1.1912 0.035101 1.1912 0.995093 -128.1
9.07991899 0.996821 -38.71 0.035274 1.2072 0.035274 1.2072 0.995087 -128.1
9.07992007 0.996815 -38.72 0.035444 1.2226 0.035444 1.2226 0.995081 -128.1
9.07992112 0.996809 -38.73 0.035609 1.2375 0.035609 1.2375 0.995074 -128.1
9.07992215 0.996803 -38.74 0.035771 1.2517 0.035771 1.2517 0.995068 -128.1
9.07992315 0.996797 -38.74 0.035929 1.2654 0.035929 1.2654 0.995062 -128.1
9.07992413 0.996791 -38.75 0.036084 1.2786 0.036084 1.2786 0.995057 -128.2
9.07992509 0.996786 -38.76 0.036235 1.2914 0.036235 1.2914 0.995051 -128.2
9.07992602 0.996780 -38.76 0.036382 1.3036 0.036382 1.3036 0.995045 -128.2
9.07992694 0.996775 -38.77 0.036526 1.3154 0.036526 1.3154 0.995040 -128.2
9.07992783 0.996770 -38.78 0.036667 1.3268 0.036667 1.3268 0.995034 -128.2
9.07992871 0.996764 -38.78 0.036805 1.3378 0.036805 1.3378 0.995029 -128.2
9.07992956 0.996759 -38.79 0.036939 1.3484 0.036939 1.3484 0.995024 -128.2
9.07993039 0.996754 -38.79 0.037071 1.3586 0.037071 1.3586 0.995019 -128.2
9.07993121 0.996749 -38.80 0.037199 1.3685 0.037199 1.3685 0.995014 -128.2
9.07993200 0.996745 -38.81 0.037324 1.3780 0.037324 1.3780 0.995009 -128.2
9.07993278 0.996740 -38.81 0.037447 1.3872 0.037447 1.3872 0.995004 -128.3
9.07993354 0.996735 -38.82 0.037567 1.3961 0.037567 1.3961 0.995000 -128.3
9.07993428 0.996731 -38.82 0.037684 1.4046 0.037684 1.4046 0.994995 -128.3
9.07993501 0.996726 -38.83 0.037798 1.4129 0.037798 1.4129 0.994990 -128.3
9.07993572 0.996722 -38.83 0.037910 1.4209 0.037910 1.4209 0.994986 -128.3
9.07993641 0.996718 -38.84 0.038019 1.4287 0.038019 1.4287 0.994982 -128.3
9.07993709 0.996714 -38.84 0.038126 1.4362 0.038126 1.4362 0.994977 -128.3
9.07993775 0.996710 -38.85 0.038230 1.4434 0.038230 1.4434 0.994973 -128.3
9.07993840 0.996706 -38.85 0.038332 1.4504 0.038332 1.4504 0.994969 -128.3
9.07993903 0.996702 -38.85 0.038432 1.4572 0.038432 1.4572 0.994965 -128.3
9.07993964 0.996698 -38.86 0.038529 1.4637 0.038529 1.4637 0.994961 -128.3
9.07994025 0.996694 -38.86 0.038624 1.4701 0.038624 1.4701 0.994958 -128.3
9.07994084 0.996690 -38.87 0.038717 1.4762 0.038717 1.4762 0.994954 -128.4
9.07994141 0.996687 -38.87 0.038808 1.4822 0.038808 1.4822 0.994950 -128.4
9.07994197 0.996683 -38.88 0.038897 1.4880 0.038897 1.4880 0.994947 -128.4
9.07994252 0.996680 -38.88 0.038983 1.4935 0.038983 1.4935 0.994943 -128.4
9.07994306 0.996676 -38.88 0.039068 1.4989 0.039068 1.4989 0.994940 -128.4
9.07994358 0.996673 -38.89 0.039151 1.5042 0.039151 1.5042 0.994936 -128.4
9.07994410 0.996670 -38.89 0.039232 1.5093 0.039232 1.5093 0.994933 -128.4
9.07994460 0.996667 -38.89 0.039311 1.5142 0.039311 1.5142 0.994930 -128.4
9.07994509 0.996663 -38.90 0.039388 1.5190 0.039388 1.5190 0.994927 -128.4
9.07994556 0.996660 -38.90 0.039463 1.5236 0.039463 1.5236 0.994923 -128.4
9.07994603 0.996657 -38.90 0.039537 1.5281 0.039537 1.5281 0.994920 -128.4
9.07994649 0.996655 -38.91 0.039609 1.5324 0.039609 1.5324 0.994917 -128.4
9.07994693 0.996652 -38.91 0.039679 1.5367 0.039679 1.5367 0.994915 -128.4
9.07994737 0.996649 -38.91 0.039748 1.5408 0.039748 1.5408 0.994912 -128.4
9.07994779 0.996646 -38.92 0.039815 1.5448 0.039815 1.5448 0.994909 -128.4
9.07994821 0.996643 -38.92 0.039881 1.5486 0.039881 1.5486 0.994906 -128.4
9.07994862 0.996641 -38.92 0.039945 1.5524 0.039945 1.5524 0.994904 -128.4
9.07994901 0.996638 -38.92 0.040008 1.5560 0.040008 1.5560 0.994901 -128.4
9.07994940 0.996636 -38.93 0.040069 1.5595 0.040069 1.5595 0.994898 -128.5
9.07994978 0.996633 -38.93 0.040129 1.5630 0.040129 1.5630 0.994896 -128.5
9.07995015 0.996631 -38.93 0.040187 1.5663 0.040187 1.5663 0.994893 -128.5
9.07995051 0.996629 -38.94 0.040244 1.5695 0.040244 1.5695 0.994891 -128.5
9.07995087 0.996626 -38.94 0.040300 1.5727 0.040300 1.5727 0.994889 -128.5
9.07995121 0.996624 -38.94 0.040355 1.5757 0.040355 1.5757 0.994886 -128.5
9.07995155 0.996622 -38.94 0.040408 1.5787 0.040408 1.5787 0.994884 -128.5
9.07995188 0.996620 -38.94 0.040460 1.5816 0.040460 1.5816 0.994882 -128.5
9.07995220 0.996617 -38.95 0.040511 1.5844 0.040511 1.5844 0.994880 -128.5
9.07995252 0.996615 -38.95 0.040561 1.5871 0.040561 1.5871 0.994878 -128.5
9.07995282 0.996613 -38.95 0.040609 1.5898 0.040609 1.5898 0.994876 -128.5
9.07995313 0.996611 -38.95 0.040657 1.5924 0.040657 1.5924 0.994874 -128.5
9.07995342 0.996610 -38.96 0.040703 1.5949 0.040703 1.5949 0.994872 -128.5
9.07995371 0.996608 -38.96 0.040749 1.5973 0.040749 1.5973 0.994870 -128.5
9.07995399 0.996606 -38.96 0.040793 1.5997 0.040793 1.5997 0.994868 -128.5
9.07995426 0.996604 -38.96 0.040836 1.6020 0.040836 1.6020 0.994866 -128.5
9.07995453 0.996602 -38.96 0.040878 1.6042 0.040878 1.6042 0.994864 -128.5
9.07995479 0.996600 -38.97 0.040920 1.6064 0.040920 1.6064 0.994863 -128.5
9.07995505 0.996599 -38.97 0.040960 1.6085 0.040960 1.6085 0.994861 -128.5
9.07995530 0.996597 -38.97 0.041000 1.6106 0.041000 1.6106 0.994859 -128.5
9.07995554 0.996595 -38.97 0.041038 1.6126 0.041038 1.6126 0.994858 -128.5
9.07995578 0.996594 -38.97 0.041076 1.6146 0.041076 1.6146 0.994856 -128.5
9.07995601 0.996592 -38.97 0.041113 1.6165 0.041113 1.6165 0.994854 -128.5
9.07995624 0.996591 -38.98 0.041149 1.6183 0.041149 1.6183 0.994853 -128.5
9.07995646 0.996589 -38.98 0.041184 1.6201 0.041184 1.6201 0.994851 -128.5
9.07995668 0.996588 -38.98 0.041218 1.6219 0.041218 1.6219 0.994850 -128.5
9.07995689 0.996587 -38.98 0.041252 1.6236 0.041252 1.6236 0.994848 -128.5
9.07995710 0.996585 -38.98 0.041284 1.6253 0.041284 1.6253 0.994847 -128.5
9.07995730 0.996584 -38.98 0.041316 1.6269 0.041316 1.6269 0.994846 -128.5
9.07995750 0.996582 -38.98 0.041348 1.6285 0.041348 1.6285 0.994844 -128.5
9.07995769 0.996581 -38.99 0.041378 1.6300 0.041378 1.6300 0.994843 -128.6
9.07995788 0.996580 -38.99 0.041408 1.6315 0.041408 1.6315 0.994842 -128.6
9.07995807 0.996579 -38.99 0.041437 1.6330 0.041437 1.6330 0.994840 -128.6
9.07995825 0.996577 -38.99 0.041466 1.6344 0.041466 1.6344 0.994839 -128.6
9.07995842 0.996576 -38.99 0.041494 1.6358 0.041494 1.6358 0.994838 -128.6
9.07995860 0.996575 -38.99 0.041521 1.6371 0.041521 1.6371 0.994837 -128.6
9.07995876 0.996574 -38.99 0.041547 1.6384 0.041547 1.6384 0.994836 -128.6
9.07995893 0.996573 -38.99 0.041573 1.6397 0.041573 1.6397 0.994835 -128.6
9.07995909 0.996572 -39.00 0.041599 1.6410 0.041599 1.6410 0.994833 -128.6
9.07995925 0.996571 -39.00 0.041624 1.6422 0.041624 1.6422 0.994832 -128.6
9.07995940 0.996570 -39.00 0.041648 1.6434 0.041648 1.6434 0.994831 -128.6
9.07995955 0.996569 -39.00 0.041672 1.6445 0.041672 1.6445 0.994830 -128.6
9.07995970 0.996568 -39.00 0.041695 1.6456 0.041695 1.6456 0.994829 -128.6
9.07995984 0.996567 -39.00 0.041717 1.6467 0.041717 1.6467 0.994828 -128.6
9.07995998 0.996566 -39.00 0.041739 1.6478 0.041739 1.6478 0.994827 -128.6
9.07996012 0.996565 -39.00 0.041761 1.6488 0.041761 1.6488 0.994826 -128.6
9.07996025 0.996564 -39.00 0.041782 1.6499 0.041782 1.6499 0.994825 -128.6
9.07996038 0.996563 -39.00 0.041803 1.6509 0.041803 1.6509 0.994825 -128.6
9.07996051 0.996562 -39.01 0.041823 1.6518 0.041823 1.6518 0.994824 -128.6
9.07996063 0.996561 -39.01 0.041843 1.6528 0.041843 1.6528 0.994823 -128.6