! Sonnet Data File
! From: emgraph Version : 16.52
! From Project: Resonator2_cp
! Data is De-embedded 
! Data File Written: 10/07/2017 13:01:14
!< HDATE 10/07/2017 09:22:27
!< MDATE 10/07/2017 09:22:27
!< PARAMS
!< gap = 6.0
!< Length = 400.0
!< Pwid1 = 2000.0
!< Pwid2 = 2000.0
!< Air_gap = 18.0
!< Width = 30.0
!< END PARAMS
# GHZ S MA R 43.07000
8.80000000 0.049566 -0.720 0.998764 -74.88 0.998764 -74.88 0.049570 30.946
!< P1 F=8.8 Eeff=(5.15948137 -2.2525e-5) Z0=(43.0696006 9.54461e-5) R=0.0 C=0.0 
!< P2 F=8.8 Eeff=(5.15948137 -2.2525e-5) Z0=(43.0696006 9.54461e-5) R=0.0 C=0.0 
8.80020000 0.049608 -0.736 0.998761 -74.89 0.998761 -74.89 0.049612 30.953
8.80040000 0.049651 -0.752 0.998759 -74.89 0.998759 -74.89 0.049654 30.961
8.80060000 0.049693 -0.769 0.998757 -74.90 0.998757 -74.90 0.049697 30.970
8.80080000 0.049736 -0.786 0.998755 -74.90 0.998755 -74.90 0.049739 30.978
8.80100000 0.049779 -0.802 0.998753 -74.91 0.998753 -74.91 0.049782 30.986
8.80120000 0.049822 -0.819 0.998751 -74.91 0.998751 -74.91 0.049826 30.994
8.80140000 0.049866 -0.836 0.998748 -74.91 0.998748 -74.91 0.049869 31.002
8.80160000 0.049909 -0.852 0.998746 -74.92 0.998746 -74.92 0.049913 31.010
8.80180000 0.049953 -0.869 0.998744 -74.92 0.998744 -74.92 0.049957 31.018
8.80200000 0.049997 -0.886 0.998742 -74.93 0.998742 -74.93 0.050001 31.027
8.80220000 0.050042 -0.903 0.998740 -74.93 0.998740 -74.93 0.050045 31.035
8.80240000 0.050086 -0.920 0.998737 -74.94 0.998737 -74.94 0.050090 31.043
8.80260000 0.050131 -0.937 0.998735 -74.94 0.998735 -74.94 0.050134 31.051
8.80280000 0.050176 -0.954 0.998733 -74.94 0.998733 -74.94 0.050179 31.060
8.80300000 0.050221 -0.971 0.998730 -74.95 0.998730 -74.95 0.050225 31.068
8.80320000 0.050267 -0.988 0.998728 -74.95 0.998728 -74.95 0.050270 31.077
8.80340000 0.050312 -1.006 0.998726 -74.96 0.998726 -74.96 0.050316 31.085
8.80360000 0.050358 -1.023 0.998724 -74.96 0.998724 -74.96 0.050362 31.094
8.80380000 0.050405 -1.040 0.998721 -74.97 0.998721 -74.97 0.050408 31.102
8.80400000 0.050451 -1.058 0.998719 -74.97 0.998719 -74.97 0.050454 31.111
8.80420000 0.050498 -1.075 0.998716 -74.97 0.998716 -74.97 0.050501 31.119
8.80440000 0.050545 -1.093 0.998714 -74.98 0.998714 -74.98 0.050548 31.128
8.80460000 0.050592 -1.110 0.998712 -74.98 0.998712 -74.98 0.050595 31.136
8.80480000 0.050639 -1.128 0.998709 -74.99 0.998709 -74.99 0.050643 31.145
8.80500000 0.050687 -1.146 0.998707 -74.99 0.998707 -74.99 0.050690 31.154
8.80520000 0.050735 -1.163 0.998704 -75.00 0.998704 -75.00 0.050738 31.162
8.80540000 0.050783 -1.181 0.998702 -75.00 0.998702 -75.00 0.050786 31.171
8.80560000 0.050831 -1.199 0.998699 -75.01 0.998699 -75.01 0.050835 31.180
8.80580000 0.050880 -1.217 0.998697 -75.01 0.998697 -75.01 0.050884 31.189
8.80600000 0.050929 -1.235 0.998694 -75.02 0.998694 -75.02 0.050932 31.197
8.80620000 0.050978 -1.253 0.998692 -75.02 0.998692 -75.02 0.050982 31.206
8.80640000 0.051028 -1.271 0.998689 -75.02 0.998689 -75.02 0.051031 31.215
8.80660000 0.051077 -1.290 0.998687 -75.03 0.998687 -75.03 0.051081 31.224
8.80680000 0.051127 -1.308 0.998684 -75.03 0.998684 -75.03 0.051131 31.233
8.80700000 0.051178 -1.326 0.998681 -75.04 0.998681 -75.04 0.051181 31.242
8.80720000 0.051228 -1.345 0.998679 -75.04 0.998679 -75.04 0.051232 31.251
8.80740000 0.051279 -1.363 0.998676 -75.05 0.998676 -75.05 0.051283 31.260
8.80760000 0.051330 -1.382 0.998673 -75.05 0.998673 -75.05 0.051334 31.269
8.80780000 0.051381 -1.400 0.998671 -75.06 0.998671 -75.06 0.051385 31.278
8.80800000 0.051433 -1.419 0.998668 -75.06 0.998668 -75.06 0.051437 31.287
8.80820000 0.051485 -1.438 0.998665 -75.07 0.998665 -75.07 0.051489 31.296
8.80840000 0.051537 -1.456 0.998663 -75.07 0.998663 -75.07 0.051541 31.305
8.80860000 0.051590 -1.475 0.998660 -75.08 0.998660 -75.08 0.051594 31.315
8.80880000 0.051643 -1.494 0.998657 -75.08 0.998657 -75.08 0.051646 31.324
8.80900000 0.051696 -1.513 0.998654 -75.09 0.998654 -75.09 0.051700 31.333
8.80920000 0.051749 -1.532 0.998652 -75.09 0.998652 -75.09 0.051753 31.343
8.80940000 0.051803 -1.551 0.998649 -75.10 0.998649 -75.10 0.051807 31.352
8.80960000 0.051857 -1.570 0.998646 -75.10 0.998646 -75.10 0.051861 31.361
8.80980000 0.051911 -1.590 0.998643 -75.11 0.998643 -75.11 0.051915 31.371
8.81000000 0.051966 -1.609 0.998640 -75.11 0.998640 -75.11 0.051970 31.380
8.81020000 0.052021 -1.628 0.998637 -75.12 0.998637 -75.12 0.052025 31.390
8.81040000 0.052076 -1.648 0.998634 -75.12 0.998634 -75.12 0.052080 31.399
8.81060000 0.052132 -1.667 0.998631 -75.13 0.998631 -75.13 0.052136 31.409
8.81080000 0.052188 -1.687 0.998628 -75.13 0.998628 -75.13 0.052192 31.418
8.81100000 0.052244 -1.707 0.998626 -75.14 0.998626 -75.14 0.052248 31.428
8.81120000 0.052300 -1.726 0.998623 -75.14 0.998623 -75.14 0.052304 31.437
8.81140000 0.052357 -1.746 0.998620 -75.15 0.998620 -75.15 0.052361 31.447
8.81160000 0.052415 -1.766 0.998616 -75.15 0.998616 -75.15 0.052418 31.457
8.81180000 0.052472 -1.786 0.998613 -75.16 0.998613 -75.16 0.052476 31.466
8.81200000 0.052530 -1.806 0.998610 -75.16 0.998610 -75.16 0.052534 31.476
8.81220000 0.052588 -1.826 0.998607 -75.17 0.998607 -75.17 0.052592 31.486
8.81240000 0.052647 -1.846 0.998604 -75.17 0.998604 -75.17 0.052651 31.496
8.81260000 0.052706 -1.867 0.998601 -75.18 0.998601 -75.18 0.052710 31.506
8.81280000 0.052765 -1.887 0.998598 -75.18 0.998598 -75.18 0.052769 31.516
8.81300000 0.052824 -1.907 0.998595 -75.19 0.998595 -75.19 0.052829 31.526
8.81320000 0.052884 -1.928 0.998591 -75.19 0.998591 -75.19 0.052889 31.536
8.81340000 0.052945 -1.948 0.998588 -75.20 0.998588 -75.20 0.052949 31.546
8.81360000 0.053005 -1.969 0.998585 -75.20 0.998585 -75.20 0.053010 31.556
8.81380000 0.053066 -1.990 0.998582 -75.21 0.998582 -75.21 0.053071 31.566
8.81400000 0.053128 -2.010 0.998578 -75.21 0.998578 -75.21 0.053132 31.576
8.81420000 0.053190 -2.031 0.998575 -75.22 0.998575 -75.22 0.053194 31.586
8.81440000 0.053252 -2.052 0.998572 -75.22 0.998572 -75.22 0.053256 31.596
8.81460000 0.053314 -2.073 0.998568 -75.23 0.998568 -75.23 0.053319 31.606
8.81480000 0.053377 -2.094 0.998565 -75.23 0.998565 -75.23 0.053381 31.616
8.81500000 0.053441 -2.116 0.998561 -75.24 0.998561 -75.24 0.053445 31.627
8.81520000 0.053504 -2.137 0.998558 -75.24 0.998558 -75.24 0.053508 31.637
8.81540000 0.053568 -2.158 0.998554 -75.25 0.998554 -75.25 0.053573 31.647
8.81560000 0.053633 -2.180 0.998551 -75.26 0.998551 -75.26 0.053637 31.658
8.81580000 0.053698 -2.201 0.998547 -75.26 0.998547 -75.26 0.053702 31.668
8.81600000 0.053763 -2.223 0.998544 -75.27 0.998544 -75.27 0.053767 31.679
8.81620000 0.053829 -2.244 0.998540 -75.27 0.998540 -75.27 0.053833 31.689
8.81640000 0.053895 -2.266 0.998537 -75.28 0.998537 -75.28 0.053899 31.700
8.81660000 0.053961 -2.288 0.998533 -75.28 0.998533 -75.28 0.053966 31.710
8.81680000 0.054028 -2.310 0.998529 -75.29 0.998529 -75.29 0.054033 31.721
8.81700000 0.054095 -2.332 0.998526 -75.29 0.998526 -75.29 0.054100 31.732
8.81720000 0.054163 -2.354 0.998522 -75.30 0.998522 -75.30 0.054168 31.742
8.81740000 0.054231 -2.376 0.998518 -75.31 0.998518 -75.31 0.054236 31.753
8.81760000 0.054300 -2.398 0.998514 -75.31 0.998514 -75.31 0.054305 31.764
8.81780000 0.054369 -2.421 0.998511 -75.32 0.998511 -75.32 0.054374 31.774
8.81800000 0.054439 -2.443 0.998507 -75.32 0.998507 -75.32 0.054443 31.785
8.81820000 0.054509 -2.466 0.998503 -75.33 0.998503 -75.33 0.054513 31.796
8.81840000 0.054579 -2.488 0.998499 -75.34 0.998499 -75.34 0.054584 31.807
8.81860000 0.054650 -2.511 0.998495 -75.34 0.998495 -75.34 0.054655 31.818
8.81880000 0.054721 -2.534 0.998491 -75.35 0.998491 -75.35 0.054726 31.829
8.81900000 0.054793 -2.557 0.998487 -75.35 0.998487 -75.35 0.054798 31.840
8.81920000 0.054865 -2.580 0.998483 -75.36 0.998483 -75.36 0.054870 31.851
8.81940000 0.054938 -2.603 0.998479 -75.36 0.998479 -75.36 0.054943 31.862
8.81960000 0.055011 -2.626 0.998475 -75.37 0.998475 -75.37 0.055016 31.873
8.81980000 0.055085 -2.649 0.998471 -75.38 0.998471 -75.38 0.055090 31.884
8.82000000 0.055159 -2.673 0.998467 -75.38 0.998467 -75.38 0.055164 31.895
8.82020000 0.055234 -2.696 0.998463 -75.39 0.998463 -75.39 0.055239 31.907
8.82040000 0.055309 -2.720 0.998458 -75.40 0.998458 -75.40 0.055314 31.918
8.82060000 0.055385 -2.744 0.998454 -75.40 0.998454 -75.40 0.055390 31.929
8.82080000 0.055461 -2.767 0.998450 -75.41 0.998450 -75.41 0.055466 31.941
8.82100000 0.055538 -2.791 0.998446 -75.41 0.998446 -75.41 0.055543 31.952
8.82120000 0.055615 -2.815 0.998441 -75.42 0.998441 -75.42 0.055620 31.963
8.82140000 0.055693 -2.839 0.998437 -75.43 0.998437 -75.43 0.055698 31.975
8.82160000 0.055771 -2.863 0.998432 -75.43 0.998432 -75.43 0.055776 31.986
8.82180000 0.055850 -2.888 0.998428 -75.44 0.998428 -75.44 0.055855 31.998
8.82200000 0.055929 -2.912 0.998423 -75.44 0.998423 -75.44 0.055934 32.009
8.82220000 0.056009 -2.937 0.998419 -75.45 0.998419 -75.45 0.056014 32.021
8.82240000 0.056090 -2.961 0.998414 -75.46 0.998414 -75.46 0.056094 32.033
8.82260000 0.056171 -2.986 0.998410 -75.46 0.998410 -75.46 0.056176 32.044
8.82280000 0.056252 -3.011 0.998405 -75.47 0.998405 -75.47 0.056257 32.056
8.82300000 0.056334 -3.036 0.998400 -75.48 0.998400 -75.48 0.056339 32.068
8.82320000 0.056417 -3.061 0.998396 -75.48 0.998396 -75.48 0.056422 32.080
8.82340000 0.056500 -3.086 0.998391 -75.49 0.998391 -75.49 0.056505 32.092
8.82360000 0.056584 -3.111 0.998386 -75.50 0.998386 -75.50 0.056589 32.104
8.82380000 0.056669 -3.136 0.998381 -75.50 0.998381 -75.50 0.056674 32.115
8.82400000 0.056754 -3.162 0.998376 -75.51 0.998376 -75.51 0.056759 32.127
8.82420000 0.056840 -3.187 0.998371 -75.52 0.998371 -75.52 0.056845 32.139
8.82440000 0.056926 -3.213 0.998366 -75.52 0.998366 -75.52 0.056931 32.151
8.82460000 0.057013 -3.239 0.998361 -75.53 0.998361 -75.53 0.057018 32.164
8.82480000 0.057100 -3.265 0.998356 -75.54 0.998356 -75.54 0.057105 32.176
8.82500000 0.057189 -3.291 0.998351 -75.54 0.998351 -75.54 0.057194 32.188
8.82520000 0.057277 -3.317 0.998346 -75.55 0.998346 -75.55 0.057283 32.200
8.82540000 0.057367 -3.343 0.998341 -75.56 0.998341 -75.56 0.057372 32.212
8.82560000 0.057457 -3.369 0.998335 -75.57 0.998335 -75.57 0.057462 32.225
8.82580000 0.057548 -3.396 0.998330 -75.57 0.998330 -75.57 0.057553 32.237
8.82600000 0.057639 -3.422 0.998325 -75.58 0.998325 -75.58 0.057644 32.249
8.82620000 0.057731 -3.449 0.998319 -75.59 0.998319 -75.59 0.057737 32.262
8.82640000 0.057824 -3.476 0.998314 -75.59 0.998314 -75.59 0.057830 32.274
8.82660000 0.057918 -3.503 0.998309 -75.60 0.998309 -75.60 0.057923 32.287
8.82680000 0.058012 -3.530 0.998303 -75.61 0.998303 -75.61 0.058017 32.299
8.82700000 0.058107 -3.557 0.998297 -75.61 0.998297 -75.61 0.058112 32.312
8.82720000 0.058202 -3.585 0.998292 -75.62 0.998292 -75.62 0.058208 32.324
8.82740000 0.058299 -3.612 0.998286 -75.63 0.998286 -75.63 0.058304 32.337
8.82760000 0.058396 -3.640 0.998280 -75.64 0.998280 -75.64 0.058401 32.350
8.82780000 0.058494 -3.667 0.998274 -75.64 0.998274 -75.64 0.058499 32.363
8.82800000 0.058592 -3.695 0.998269 -75.65 0.998269 -75.65 0.058598 32.375
8.82820000 0.058692 -3.723 0.998263 -75.66 0.998263 -75.66 0.058697 32.388
8.82840000 0.058792 -3.751 0.998257 -75.67 0.998257 -75.67 0.058797 32.401
8.82860000 0.058893 -3.779 0.998251 -75.67 0.998251 -75.67 0.058898 32.414
8.82880000 0.058994 -3.808 0.998245 -75.68 0.998245 -75.68 0.059000 32.427
8.82900000 0.059097 -3.836 0.998238 -75.69 0.998238 -75.69 0.059102 32.440
8.82920000 0.059200 -3.865 0.998232 -75.70 0.998232 -75.70 0.059206 32.453
8.82940000 0.059304 -3.894 0.998226 -75.71 0.998226 -75.71 0.059310 32.466
8.82960000 0.059409 -3.923 0.998220 -75.71 0.998220 -75.71 0.059415 32.479
8.82980000 0.059514 -3.952 0.998213 -75.72 0.998213 -75.72 0.059520 32.492
8.83000000 0.059621 -3.981 0.998207 -75.73 0.998207 -75.73 0.059627 32.505
8.83020000 0.059728 -4.010 0.998200 -75.74 0.998200 -75.74 0.059734 32.519
8.83040000 0.059837 -4.040 0.998194 -75.75 0.998194 -75.75 0.059843 32.532
8.83060000 0.059946 -4.069 0.998187 -75.75 0.998187 -75.75 0.059952 32.545
8.83080000 0.060056 -4.099 0.998180 -75.76 0.998180 -75.76 0.060062 32.559
8.83100000 0.060167 -4.129 0.998174 -75.77 0.998174 -75.77 0.060173 32.572
8.83120000 0.060279 -4.159 0.998167 -75.78 0.998167 -75.78 0.060285 32.585
8.83140000 0.060391 -4.189 0.998160 -75.79 0.998160 -75.79 0.060397 32.599
8.83160000 0.060505 -4.220 0.998153 -75.79 0.998153 -75.79 0.060511 32.612
8.83180000 0.060620 -4.250 0.998146 -75.80 0.998146 -75.80 0.060626 32.626
8.83200000 0.060735 -4.281 0.998139 -75.81 0.998139 -75.81 0.060741 32.640
8.83220000 0.060852 -4.312 0.998132 -75.82 0.998132 -75.82 0.060858 32.653
8.83240000 0.060969 -4.343 0.998124 -75.83 0.998124 -75.83 0.060975 32.667
8.83260000 0.061087 -4.374 0.998117 -75.84 0.998117 -75.84 0.061094 32.681
8.83280000 0.061207 -4.405 0.998109 -75.85 0.998109 -75.85 0.061213 32.694
8.83300000 0.061327 -4.436 0.998102 -75.85 0.998102 -75.85 0.061334 32.708
8.83320000 0.061449 -4.468 0.998094 -75.86 0.998094 -75.86 0.061455 32.722
8.83340000 0.061571 -4.500 0.998087 -75.87 0.998087 -75.87 0.061578 32.736
8.83360000 0.061695 -4.532 0.998079 -75.88 0.998079 -75.88 0.061701 32.750
8.83380000 0.061820 -4.564 0.998071 -75.89 0.998071 -75.89 0.061826 32.764
8.83400000 0.061945 -4.596 0.998063 -75.90 0.998063 -75.90 0.061952 32.778
8.83420000 0.062072 -4.629 0.998055 -75.91 0.998055 -75.91 0.062079 32.792
8.83440000 0.062200 -4.661 0.998047 -75.92 0.998047 -75.92 0.062207 32.806
8.83460000 0.062329 -4.694 0.998039 -75.93 0.998039 -75.93 0.062336 32.820
8.83480000 0.062459 -4.727 0.998031 -75.94 0.998031 -75.94 0.062466 32.834
8.83500000 0.062590 -4.760 0.998022 -75.95 0.998022 -75.95 0.062597 32.849
8.83520000 0.062723 -4.793 0.998014 -75.95 0.998014 -75.95 0.062730 32.863
8.83540000 0.062857 -4.827 0.998005 -75.96 0.998005 -75.96 0.062863 32.877
8.83560000 0.062991 -4.861 0.997997 -75.97 0.997997 -75.97 0.062998 32.891
8.83580000 0.063128 -4.894 0.997988 -75.98 0.997988 -75.98 0.063134 32.906
8.83600000 0.063265 -4.928 0.997979 -75.99 0.997979 -75.99 0.063272 32.920
8.83620000 0.063403 -4.963 0.997970 -76.00 0.997970 -76.00 0.063410 32.935
8.83640000 0.063543 -4.997 0.997961 -76.01 0.997961 -76.01 0.063550 32.949
8.83660000 0.063684 -5.032 0.997952 -76.02 0.997952 -76.02 0.063691 32.964
8.83680000 0.063827 -5.066 0.997943 -76.03 0.997943 -76.03 0.063834 32.978
8.83700000 0.063970 -5.101 0.997934 -76.04 0.997934 -76.04 0.063977 32.993
8.83720000 0.064115 -5.136 0.997924 -76.05 0.997924 -76.05 0.064122 33.007
8.83740000 0.064262 -5.172 0.997915 -76.06 0.997915 -76.06 0.064269 33.022
8.83760000 0.064409 -5.207 0.997905 -76.07 0.997905 -76.07 0.064417 33.037
8.83780000 0.064559 -5.243 0.997895 -76.08 0.997895 -76.08 0.064566 33.052
8.83800000 0.064709 -5.279 0.997885 -76.09 0.997885 -76.09 0.064716 33.066
8.83820000 0.064861 -5.315 0.997875 -76.10 0.997875 -76.10 0.064868 33.081
8.83840000 0.065014 -5.352 0.997865 -76.12 0.997865 -76.12 0.065022 33.096
8.83860000 0.065169 -5.388 0.997855 -76.13 0.997855 -76.13 0.065177 33.111
8.83880000 0.065326 -5.425 0.997844 -76.14 0.997844 -76.14 0.065333 33.126
8.83900000 0.065484 -5.462 0.997834 -76.15 0.997834 -76.15 0.065491 33.141
8.83920000 0.065643 -5.499 0.997823 -76.16 0.997823 -76.16 0.065651 33.156
8.83940000 0.065804 -5.537 0.997813 -76.17 0.997813 -76.17 0.065812 33.171
8.83960000 0.065967 -5.574 0.997802 -76.18 0.997802 -76.18 0.065974 33.186
8.83980000 0.066131 -5.612 0.997791 -76.19 0.997791 -76.19 0.066138 33.201
8.84000000 0.066297 -5.650 0.997779 -76.20 0.997779 -76.20 0.066304 33.216
8.84020000 0.066464 -5.689 0.997768 -76.22 0.997768 -76.22 0.066472 33.231
8.84040000 0.066633 -5.727 0.997757 -76.23 0.997757 -76.23 0.066641 33.246
8.84060000 0.066804 -5.766 0.997745 -76.24 0.997745 -76.24 0.066812 33.262
8.84080000 0.066977 -5.805 0.997733 -76.25 0.997733 -76.25 0.066985 33.277
8.84100000 0.067151 -5.844 0.997721 -76.26 0.997721 -76.26 0.067159 33.292
8.84120000 0.067327 -5.884 0.997709 -76.27 0.997709 -76.27 0.067335 33.307
8.84140000 0.067505 -5.923 0.997697 -76.29 0.997697 -76.29 0.067513 33.323
8.84160000 0.067685 -5.963 0.997685 -76.30 0.997685 -76.30 0.067693 33.338
8.84180000 0.067866 -6.003 0.997672 -76.31 0.997672 -76.31 0.067875 33.354
8.84200000 0.068050 -6.044 0.997659 -76.32 0.997659 -76.32 0.068058 33.369
8.84220000 0.068235 -6.085 0.997647 -76.34 0.997647 -76.34 0.068244 33.384
8.84240000 0.068423 -6.126 0.997634 -76.35 0.997634 -76.35 0.068431 33.400
8.84260000 0.068612 -6.167 0.997620 -76.36 0.997620 -76.36 0.068620 33.415
8.84280000 0.068803 -6.208 0.997607 -76.37 0.997607 -76.37 0.068812 33.431
8.84300000 0.068997 -6.250 0.997593 -76.39 0.997593 -76.39 0.069005 33.446
8.84320000 0.069192 -6.292 0.997580 -76.40 0.997580 -76.40 0.069201 33.462
8.84340000 0.069390 -6.334 0.997566 -76.41 0.997566 -76.41 0.069399 33.477
8.84360000 0.069590 -6.377 0.997551 -76.43 0.997551 -76.43 0.069599 33.493
8.84380000 0.069792 -6.420 0.997537 -76.44 0.997537 -76.44 0.069801 33.509
8.84400000 0.069996 -6.463 0.997523 -76.45 0.997523 -76.45 0.070005 33.524
8.84420000 0.070202 -6.506 0.997508 -76.47 0.997508 -76.47 0.070211 33.540
8.84440000 0.070411 -6.550 0.997493 -76.48 0.997493 -76.48 0.070420 33.556
8.84460000 0.070622 -6.594 0.997478 -76.50 0.997478 -76.50 0.070631 33.571
8.84480000 0.070836 -6.638 0.997462 -76.51 0.997462 -76.51 0.070845 33.587
8.84500000 0.071052 -6.683 0.997447 -76.52 0.997447 -76.52 0.071061 33.603
8.84520000 0.071270 -6.728 0.997431 -76.54 0.997431 -76.54 0.071279 33.618
8.84540000 0.071491 -6.773 0.997415 -76.55 0.997415 -76.55 0.071500 33.634
8.84560000 0.071714 -6.818 0.997399 -76.57 0.997399 -76.57 0.071724 33.650
8.84580000 0.071940 -6.864 0.997382 -76.58 0.997382 -76.58 0.071950 33.666
8.84600000 0.072169 -6.910 0.997365 -76.60 0.997365 -76.60 0.072178 33.681
8.84620000 0.072400 -6.956 0.997348 -76.61 0.997348 -76.61 0.072410 33.697
8.84640000 0.072634 -7.003 0.997331 -76.63 0.997331 -76.63 0.072644 33.713
8.84660000 0.072871 -7.050 0.997313 -76.64 0.997313 -76.64 0.072881 33.728
8.84680000 0.073110 -7.098 0.997295 -76.66 0.997295 -76.66 0.073120 33.744
8.84700000 0.073353 -7.145 0.997277 -76.67 0.997277 -76.67 0.073363 33.760
8.84720000 0.073598 -7.193 0.997259 -76.69 0.997259 -76.69 0.073608 33.776
8.84740000 0.073847 -7.242 0.997240 -76.71 0.997240 -76.71 0.073857 33.791
8.84760000 0.074098 -7.290 0.997221 -76.72 0.997221 -76.72 0.074108 33.807
8.84780000 0.074353 -7.340 0.997202 -76.74 0.997202 -76.74 0.074363 33.823
8.84800000 0.074610 -7.389 0.997182 -76.76 0.997182 -76.76 0.074620 33.839
8.84820000 0.074871 -7.439 0.997163 -76.77 0.997163 -76.77 0.074881 33.854
8.84840000 0.075135 -7.489 0.997142 -76.79 0.997142 -76.79 0.075145 33.870
8.84860000 0.075402 -7.540 0.997122 -76.81 0.997122 -76.81 0.075413 33.886
8.84880000 0.075673 -7.590 0.997101 -76.82 0.997101 -76.82 0.075684 33.901
8.84900000 0.075948 -7.642 0.997080 -76.84 0.997080 -76.84 0.075958 33.917
8.84920000 0.076225 -7.693 0.997058 -76.86 0.997058 -76.86 0.076236 33.932
8.84940000 0.076507 -7.746 0.997036 -76.88 0.997036 -76.88 0.076517 33.948
8.84960000 0.076792 -7.798 0.997014 -76.90 0.997014 -76.90 0.076803 33.964
8.84980000 0.077080 -7.851 0.996991 -76.92 0.996991 -76.92 0.077091 33.979
8.85000000 0.077373 -7.904 0.996968 -76.93 0.996968 -76.93 0.077384 33.995
8.85020000 0.077669 -7.958 0.996945 -76.95 0.996945 -76.95 0.077680 34.010
8.85030372 0.077825 -7.986 0.996932 -76.96 0.996932 -76.96 0.077836 34.018
8.85040000 0.077970 -8.012 0.996921 -76.97 0.996921 -76.97 0.077981 34.025
8.85060000 0.078274 -8.067 0.996897 -76.99 0.996897 -76.99 0.078285 34.041
8.85080000 0.078582 -8.122 0.996872 -77.01 0.996872 -77.01 0.078594 34.056
8.85099131 0.078881 -8.175 0.996848 -77.03 0.996848 -77.03 0.078893 34.071
8.85100000 0.078895 -8.177 0.996847 -77.03 0.996847 -77.03 0.078907 34.071
8.85120000 0.079212 -8.233 0.996821 -77.05 0.996821 -77.05 0.079224 34.086
8.85140000 0.079533 -8.289 0.996795 -77.07 0.996795 -77.07 0.079545 34.101
8.85160000 0.079859 -8.346 0.996769 -77.09 0.996769 -77.09 0.079871 34.117
8.85166315 0.079963 -8.364 0.996760 -77.10 0.996760 -77.10 0.079975 34.121
8.85180000 0.080190 -8.404 0.996741 -77.11 0.996741 -77.11 0.080202 34.132
8.85200000 0.080525 -8.461 0.996714 -77.13 0.996714 -77.13 0.080537 34.146
8.85220000 0.080864 -8.520 0.996686 -77.16 0.996686 -77.16 0.080877 34.161
8.85231959 0.081070 -8.555 0.996669 -77.17 0.996669 -77.17 0.081082 34.170
8.85240000 0.081209 -8.578 0.996657 -77.18 0.996657 -77.18 0.081221 34.176
8.85260000 0.081558 -8.638 0.996628 -77.20 0.996628 -77.20 0.081571 34.191
8.85280000 0.081913 -8.697 0.996599 -77.22 0.996599 -77.22 0.081926 34.205
8.85296099 0.082202 -8.746 0.996574 -77.24 0.996574 -77.24 0.082215 34.217
8.85300000 0.082273 -8.758 0.996569 -77.24 0.996569 -77.24 0.082285 34.220
8.85320000 0.082638 -8.818 0.996538 -77.27 0.996538 -77.27 0.082651 34.234
8.85340000 0.083008 -8.880 0.996506 -77.29 0.996506 -77.29 0.083021 34.249
8.85358770 0.083361 -8.938 0.996476 -77.31 0.996476 -77.31 0.083374 34.262
8.85360000 0.083384 -8.942 0.996474 -77.31 0.996474 -77.31 0.083397 34.263
8.85380000 0.083766 -9.004 0.996442 -77.34 0.996442 -77.34 0.083779 34.277
8.85400000 0.084153 -9.067 0.996409 -77.36 0.996409 -77.36 0.084167 34.291
8.85420000 0.084547 -9.130 0.996375 -77.39 0.996375 -77.39 0.084560 34.305
8.85420004 0.084547 -9.130 0.996375 -77.39 0.996375 -77.39 0.084560 34.305
8.85440000 0.084946 -9.195 0.996340 -77.41 0.996340 -77.41 0.084959 34.319
8.85460000 0.085352 -9.259 0.996305 -77.44 0.996305 -77.44 0.085365 34.332
8.85479835 0.085760 -9.324 0.996269 -77.46 0.996269 -77.46 0.085774 34.346
8.85480000 0.085763 -9.325 0.996269 -77.46 0.996269 -77.46 0.085777 34.346
8.85500000 0.086182 -9.391 0.996232 -77.49 0.996232 -77.49 0.086196 34.359
8.85520000 0.086607 -9.457 0.996194 -77.51 0.996194 -77.51 0.086621 34.372
8.85538296 0.087001 -9.519 0.996159 -77.54 0.996159 -77.54 0.087015 34.384
8.85540000 0.087038 -9.524 0.996156 -77.54 0.996156 -77.54 0.087052 34.385
8.85560000 0.087477 -9.592 0.996117 -77.57 0.996117 -77.57 0.087491 34.398
8.85580000 0.087923 -9.661 0.996077 -77.60 0.996077 -77.60 0.087937 34.411
8.85595417 0.088271 -9.714 0.996045 -77.62 0.996045 -77.62 0.088286 34.420
8.85600000 0.088376 -9.730 0.996036 -77.62 0.996036 -77.62 0.088390 34.423
8.85620000 0.088836 -9.800 0.995994 -77.65 0.995994 -77.65 0.088851 34.435
8.85640000 0.089304 -9.870 0.995951 -77.68 0.995951 -77.68 0.089319 34.447
8.85651229 0.089571 -9.910 0.995927 -77.70 0.995927 -77.70 0.089586 34.454
8.85660000 0.089780 -9.941 0.995908 -77.71 0.995908 -77.71 0.089796 34.459
8.85680000 0.090265 -10.01 0.995863 -77.74 0.995863 -77.74 0.090280 34.471
8.85700000 0.090757 -10.09 0.995818 -77.77 0.995818 -77.77 0.090772 34.482
8.85705762 0.090900 -10.11 0.995804 -77.78 0.995804 -77.78 0.090916 34.485
8.85720000 0.091258 -10.16 0.995771 -77.80 0.995771 -77.80 0.091273 34.493
8.85740000 0.091767 -10.23 0.995723 -77.83 0.995723 -77.83 0.091783 34.504
8.85759045 0.092260 -10.31 0.995677 -77.86 0.995677 -77.86 0.092276 34.514
8.85760000 0.092285 -10.31 0.995674 -77.86 0.995674 -77.86 0.092301 34.515
8.85780000 0.092813 -10.38 0.995624 -77.90 0.995624 -77.90 0.092829 34.525
8.85800000 0.093350 -10.46 0.995573 -77.93 0.995573 -77.93 0.093366 34.535
8.85811108 0.093652 -10.50 0.995544 -77.95 0.995544 -77.95 0.093668 34.541
8.85820000 0.093896 -10.54 0.995521 -77.96 0.995521 -77.96 0.093913 34.545
8.85840000 0.094453 -10.62 0.995467 -78.00 0.995467 -78.00 0.094469 34.555
8.85860000 0.095019 -10.70 0.995412 -78.03 0.995412 -78.03 0.095036 34.564
8.85861978 0.095076 -10.70 0.995407 -78.03 0.995407 -78.03 0.095092 34.565
8.85880000 0.095596 -10.78 0.995356 -78.07 0.995356 -78.07 0.095613 34.573
8.85900000 0.096184 -10.86 0.995298 -78.10 0.995298 -78.10 0.096201 34.581
8.85911682 0.096532 -10.90 0.995263 -78.12 0.995263 -78.12 0.096549 34.586
8.85920000 0.096782 -10.94 0.995239 -78.14 0.995239 -78.14 0.096800 34.589
8.85940000 0.097392 -11.02 0.995178 -78.18 0.995178 -78.18 0.097410 34.597
8.85960000 0.098014 -11.11 0.995116 -78.21 0.995116 -78.21 0.098032 34.604
8.85960247 0.098022 -11.11 0.995115 -78.21 0.995115 -78.21 0.098040 34.604
8.85980000 0.098648 -11.19 0.995052 -78.25 0.995052 -78.25 0.098666 34.611
8.86000000 0.099294 -11.28 0.994986 -78.29 0.994986 -78.29 0.099312 34.617
8.86007699 0.099546 -11.31 0.994960 -78.31 0.994960 -78.31 0.099564 34.620
8.86020000 0.099953 -11.36 0.994919 -78.33 0.994919 -78.33 0.099971 34.623
8.86040000 0.100625 -11.45 0.994850 -78.37 0.994850 -78.37 0.100643 34.629
8.86054064 0.101105 -11.51 0.994800 -78.40 0.994800 -78.40 0.101124 34.632
8.86060000 0.101310 -11.54 0.994779 -78.41 0.994779 -78.41 0.101329 34.634
8.86080000 0.102009 -11.63 0.994706 -78.46 0.994706 -78.46 0.102028 34.638
8.86099367 0.102700 -11.72 0.994633 -78.50 0.994633 -78.50 0.102719 34.642
8.86100000 0.102723 -11.72 0.994631 -78.50 0.994631 -78.50 0.102742 34.642
8.86120000 0.103451 -11.81 0.994554 -78.54 0.994554 -78.54 0.103471 34.646
8.86140000 0.104195 -11.91 0.994474 -78.59 0.994474 -78.59 0.104214 34.648
8.86143631 0.104331 -11.92 0.994460 -78.60 0.994460 -78.60 0.104351 34.649
8.86160000 0.104954 -12.00 0.994393 -78.63 0.994393 -78.63 0.104974 34.651
8.86180000 0.105729 -12.10 0.994309 -78.68 0.994309 -78.68 0.105750 34.652
8.86186882 0.106000 -12.13 0.994280 -78.70 0.994280 -78.70 0.106020 34.653
8.86200000 0.106521 -12.20 0.994223 -78.73 0.994223 -78.73 0.106542 34.653
8.86220000 0.107331 -12.29 0.994134 -78.78 0.994134 -78.78 0.107352 34.653
8.86229141 0.107707 -12.34 0.994092 -78.80 0.994092 -78.80 0.107728 34.653
8.86240000 0.108158 -12.39 0.994042 -78.83 0.994042 -78.83 0.108179 34.653
8.86260000 0.109004 -12.50 0.993948 -78.88 0.993948 -78.88 0.109025 34.652
8.86270432 0.109452 -12.55 0.993897 -78.90 0.993897 -78.90 0.109474 34.651
8.86280000 0.109868 -12.60 0.993851 -78.93 0.993851 -78.93 0.109890 34.649
8.86300000 0.110753 -12.70 0.993750 -78.98 0.993750 -78.98 0.110775 34.647
8.86310777 0.111238 -12.76 0.993695 -79.01 0.993695 -79.01 0.111260 34.645
8.86320000 0.111657 -12.81 0.993647 -79.04 0.993647 -79.04 0.111680 34.643
8.86340000 0.112583 -12.92 0.993540 -79.09 0.993540 -79.09 0.112606 34.638
8.86350197 0.113064 -12.97 0.993484 -79.12 0.993484 -79.12 0.113086 34.635
8.86360000 0.113531 -13.03 0.993430 -79.15 0.993430 -79.15 0.113554 34.633
8.86380000 0.114501 -13.14 0.993316 -79.21 0.993316 -79.21 0.114524 34.626
8.86388714 0.114931 -13.19 0.993265 -79.23 0.993265 -79.23 0.114954 34.623
8.86400000 0.115494 -13.25 0.993199 -79.26 0.993199 -79.26 0.115518 34.618
8.86420000 0.116512 -13.36 0.993077 -79.33 0.993077 -79.33 0.116536 34.610
8.86426349 0.116840 -13.40 0.993038 -79.35 0.993038 -79.35 0.116865 34.607
8.86440000 0.117555 -13.48 0.992951 -79.39 0.992951 -79.39 0.117579 34.600
8.86460000 0.118624 -13.60 0.992821 -79.45 0.992821 -79.45 0.118649 34.589
8.86463121 0.118793 -13.62 0.992801 -79.46 0.992801 -79.46 0.118818 34.587
8.86480000 0.119720 -13.72 0.992687 -79.52 0.992687 -79.52 0.119745 34.577
8.86499050 0.120790 -13.84 0.992554 -79.58 0.992554 -79.58 0.120816 34.564
8.86500000 0.120844 -13.84 0.992548 -79.58 0.992548 -79.58 0.120870 34.563
8.86520000 0.121998 -13.97 0.992403 -79.65 0.992403 -79.65 0.122023 34.548
8.86534157 0.122832 -14.05 0.992298 -79.70 0.992298 -79.70 0.122858 34.537
8.86540000 0.123181 -14.09 0.992254 -79.72 0.992254 -79.72 0.123207 34.532
8.86560000 0.124396 -14.22 0.992099 -79.79 0.992099 -79.79 0.124423 34.514
8.86568458 0.124920 -14.28 0.992032 -79.83 0.992032 -79.83 0.124947 34.506
8.86580000 0.125644 -14.35 0.991938 -79.87 0.991938 -79.87 0.125671 34.495
8.86600000 0.126926 -14.49 0.991771 -79.94 0.991771 -79.94 0.126954 34.474
8.86601974 0.127055 -14.50 0.991754 -79.95 0.991754 -79.95 0.127082 34.472
8.86620000 0.128244 -14.62 0.991598 -80.02 0.991598 -80.02 0.128272 34.452
8.86634722 0.129237 -14.72 0.991466 -80.08 0.991466 -80.08 0.129266 34.434
8.86640000 0.129598 -14.76 0.991418 -80.10 0.991418 -80.10 0.129627 34.427
8.86660000 0.130992 -14.90 0.991230 -80.19 0.991230 -80.19 0.131021 34.401
8.86666720 0.131469 -14.95 0.991166 -80.21 0.991166 -80.21 0.131498 34.392
8.86680000 0.132425 -15.04 0.991035 -80.27 0.991035 -80.27 0.132454 34.373
8.86697984 0.133750 -15.18 0.990853 -80.35 0.990853 -80.35 0.133780 34.345
8.86700000 0.133901 -15.19 0.990832 -80.36 0.990832 -80.36 0.133930 34.342
8.86720000 0.135420 -15.34 0.990621 -80.45 0.990621 -80.45 0.135450 34.310
8.86728532 0.136082 -15.41 0.990528 -80.49 0.990528 -80.49 0.136112 34.295
8.86740000 0.136985 -15.49 0.990401 -80.54 0.990401 -80.54 0.137016 34.275
8.86758380 0.138466 -15.64 0.990190 -80.63 0.990190 -80.63 0.138497 34.241
8.86760000 0.138598 -15.65 0.990171 -80.64 0.990171 -80.64 0.138630 34.238
8.86780000 0.140261 -15.81 0.989931 -80.73 0.989931 -80.73 0.140293 34.198
8.86787544 0.140902 -15.87 0.989838 -80.77 0.989838 -80.77 0.140934 34.182
8.86800000 0.141977 -15.97 0.989681 -80.84 0.989681 -80.84 0.142010 34.155
8.86816040 0.143393 -16.11 0.989472 -80.92 0.989472 -80.92 0.143426 34.119
8.86820000 0.143748 -16.14 0.989419 -80.94 0.989419 -80.94 0.143781 34.110
8.86840000 0.145576 -16.31 0.989146 -81.05 0.989146 -81.05 0.145610 34.062
8.86843883 0.145938 -16.34 0.989091 -81.07 0.989091 -81.07 0.145972 34.052
8.86860000 0.147465 -16.49 0.988859 -81.16 0.988859 -81.16 0.147499 34.010
8.86871088 0.148539 -16.58 0.988695 -81.22 0.988695 -81.22 0.148574 33.980
8.86880000 0.149417 -16.66 0.988559 -81.27 0.988559 -81.27 0.149452 33.956
8.86897669 0.151197 -16.83 0.988282 -81.38 0.988282 -81.38 0.151233 33.904
8.86900000 0.151436 -16.85 0.988244 -81.39 0.988244 -81.39 0.151472 33.897
8.86920000 0.153526 -17.04 0.987914 -81.52 0.987914 -81.52 0.153562 33.835
8.86923642 0.153914 -17.07 0.987852 -81.54 0.987852 -81.54 0.153951 33.824
8.86940000 0.155689 -17.23 0.987567 -81.64 0.987567 -81.64 0.155726 33.769
8.86949019 0.156689 -17.32 0.987405 -81.70 0.987405 -81.70 0.156727 33.738