! Sonnet Data File
! From: emgraph Version : 16.52
! From Project: Resonator2_extremeCap2
! Data is De-embedded 
! Data File Written: 10/11/2017 20:35:05
!< HDATE 10/11/2017 16:33:44
!< MDATE 10/11/2017 16:33:44
!< PARAMS
!< Pwid1 = 2000.0
!< Pwid2 = 2000.0
!< Air_gap = 30.0
!< Width = 50.0
!< Gap = 86.0
!< END PARAMS
# GHZ S MA R 47.40000
8.90000000 0.254099 0.5970 0.967172 -86.51 0.967172 -86.51 0.254095 6.3855
!< P1 F=8.9 Eeff=(5.03074334 -2.1789e-5) Z0=(47.3979938 1.04427e-4) R=0.0 C=0.0 
!< P2 F=8.9 Eeff=(5.03074334 -2.1789e-5) Z0=(47.3979938 1.04427e-4) R=0.0 C=0.0 
8.90025000 0.254137 0.5972 0.967162 -86.51 0.967162 -86.51 0.254133 6.3756
8.90050000 0.254174 0.5975 0.967152 -86.52 0.967152 -86.52 0.254171 6.3656
8.90075000 0.254212 0.5977 0.967142 -86.52 0.967142 -86.52 0.254209 6.3557
8.90100000 0.254250 0.5979 0.967132 -86.53 0.967132 -86.53 0.254247 6.3457
8.90125000 0.254288 0.5981 0.967122 -86.53 0.967122 -86.53 0.254285 6.3356
8.90150000 0.254327 0.5984 0.967112 -86.54 0.967112 -86.54 0.254323 6.3256
8.90175000 0.254365 0.5986 0.967102 -86.54 0.967102 -86.54 0.254361 6.3155
8.90200000 0.254403 0.5989 0.967092 -86.55 0.967092 -86.55 0.254399 6.3055
8.90225000 0.254441 0.5992 0.967082 -86.55 0.967082 -86.55 0.254438 6.2954
8.90250000 0.254480 0.5994 0.967072 -86.56 0.967072 -86.56 0.254476 6.2852
8.90275000 0.254518 0.5997 0.967061 -86.56 0.967061 -86.56 0.254515 6.2751
8.90300000 0.254557 0.6000 0.967051 -86.57 0.967051 -86.57 0.254553 6.2649
8.90325000 0.254595 0.6003 0.967041 -86.57 0.967041 -86.57 0.254592 6.2548
8.90350000 0.254634 0.6006 0.967031 -86.58 0.967031 -86.58 0.254631 6.2446
8.90375000 0.254673 0.6009 0.967021 -86.58 0.967021 -86.58 0.254669 6.2343
8.90400000 0.254712 0.6012 0.967010 -86.59 0.967010 -86.59 0.254708 6.2241
8.90425000 0.254751 0.6016 0.967000 -86.59 0.967000 -86.59 0.254747 6.2138
8.90450000 0.254790 0.6019 0.966990 -86.60 0.966990 -86.60 0.254786 6.2036
8.90475000 0.254829 0.6023 0.966980 -86.60 0.966980 -86.60 0.254825 6.1933
8.90500000 0.254868 0.6026 0.966969 -86.61 0.966969 -86.61 0.254864 6.1829
8.90525000 0.254907 0.6030 0.966959 -86.61 0.966959 -86.61 0.254904 6.1726
8.90550000 0.254947 0.6034 0.966949 -86.62 0.966949 -86.62 0.254943 6.1622
8.90575000 0.254986 0.6038 0.966938 -86.62 0.966938 -86.62 0.254982 6.1519
8.90600000 0.255026 0.6041 0.966928 -86.63 0.966928 -86.63 0.255022 6.1414
8.90625000 0.255065 0.6045 0.966917 -86.63 0.966917 -86.63 0.255061 6.1310
8.90650000 0.255105 0.6050 0.966907 -86.64 0.966907 -86.64 0.255101 6.1206
8.90675000 0.255144 0.6054 0.966896 -86.64 0.966896 -86.64 0.255141 6.1101
8.90700000 0.255184 0.6058 0.966886 -86.65 0.966886 -86.65 0.255181 6.0996
8.90725000 0.255224 0.6062 0.966875 -86.65 0.966875 -86.65 0.255220 6.0891
8.90750000 0.255264 0.6067 0.966865 -86.66 0.966865 -86.66 0.255260 6.0786
8.90775000 0.255304 0.6071 0.966854 -86.66 0.966854 -86.66 0.255300 6.0680
8.90800000 0.255344 0.6076 0.966844 -86.67 0.966844 -86.67 0.255341 6.0574
8.90825000 0.255385 0.6081 0.966833 -86.67 0.966833 -86.67 0.255381 6.0468
8.90850000 0.255425 0.6086 0.966822 -86.68 0.966822 -86.68 0.255421 6.0362
8.90875000 0.255465 0.6090 0.966812 -86.68 0.966812 -86.68 0.255461 6.0256
8.90900000 0.255506 0.6095 0.966801 -86.69 0.966801 -86.69 0.255502 6.0149
8.90925000 0.255546 0.6100 0.966790 -86.69 0.966790 -86.69 0.255542 6.0042
8.90950000 0.255587 0.6106 0.966779 -86.70 0.966779 -86.70 0.255583 5.9935
8.90975000 0.255627 0.6111 0.966769 -86.70 0.966769 -86.70 0.255624 5.9828
8.91000000 0.255668 0.6116 0.966758 -86.71 0.966758 -86.71 0.255664 5.9720
8.91025000 0.255709 0.6122 0.966747 -86.71 0.966747 -86.71 0.255705 5.9613
8.91050000 0.255750 0.6127 0.966736 -86.72 0.966736 -86.72 0.255746 5.9505
8.91075000 0.255791 0.6133 0.966725 -86.72 0.966725 -86.72 0.255787 5.9396
8.91100000 0.255832 0.6138 0.966714 -86.73 0.966714 -86.73 0.255828 5.9288
8.91125000 0.255874 0.6144 0.966703 -86.73 0.966703 -86.73 0.255870 5.9179
8.91150000 0.255915 0.6150 0.966693 -86.74 0.966693 -86.74 0.255911 5.9070
8.91175000 0.255956 0.6156 0.966682 -86.74 0.966682 -86.74 0.255952 5.8961
8.91200000 0.255998 0.6162 0.966671 -86.75 0.966671 -86.75 0.255994 5.8852
8.91225000 0.256039 0.6168 0.966660 -86.75 0.966660 -86.75 0.256035 5.8742
8.91250000 0.256081 0.6175 0.966649 -86.76 0.966649 -86.76 0.256077 5.8632
8.91275000 0.256123 0.6181 0.966637 -86.76 0.966637 -86.76 0.256119 5.8522
8.91300000 0.256164 0.6188 0.966626 -86.77 0.966626 -86.77 0.256160 5.8412
8.91325000 0.256206 0.6194 0.966615 -86.77 0.966615 -86.77 0.256202 5.8301
8.91350000 0.256248 0.6201 0.966604 -86.78 0.966604 -86.78 0.256244 5.8191
8.91375000 0.256291 0.6207 0.966593 -86.79 0.966593 -86.79 0.256286 5.8080
8.91400000 0.256333 0.6214 0.966582 -86.79 0.966582 -86.79 0.256329 5.7968
8.91425000 0.256375 0.6221 0.966571 -86.80 0.966571 -86.80 0.256371 5.7857
8.91450000 0.256417 0.6228 0.966559 -86.80 0.966559 -86.80 0.256413 5.7745
8.91475000 0.256460 0.6235 0.966548 -86.81 0.966548 -86.81 0.256456 5.7633
8.91500000 0.256502 0.6243 0.966537 -86.81 0.966537 -86.81 0.256498 5.7521
8.91525000 0.256545 0.6250 0.966525 -86.82 0.966525 -86.82 0.256541 5.7408
8.91550000 0.256588 0.6257 0.966514 -86.82 0.966514 -86.82 0.256584 5.7296
8.91575000 0.256631 0.6265 0.966503 -86.83 0.966503 -86.83 0.256626 5.7183
8.91600000 0.256674 0.6273 0.966491 -86.83 0.966491 -86.83 0.256669 5.7070
8.91625000 0.256717 0.6280 0.966480 -86.84 0.966480 -86.84 0.256712 5.6956
8.91650000 0.256760 0.6288 0.966468 -86.84 0.966468 -86.84 0.256755 5.6842
8.91675000 0.256803 0.6296 0.966457 -86.85 0.966457 -86.85 0.256799 5.6728
8.91700000 0.256846 0.6304 0.966445 -86.85 0.966445 -86.85 0.256842 5.6614
8.91725000 0.256890 0.6312 0.966434 -86.86 0.966434 -86.86 0.256885 5.6500
8.91750000 0.256933 0.6321 0.966422 -86.86 0.966422 -86.86 0.256929 5.6385
8.91775000 0.256977 0.6329 0.966411 -86.87 0.966411 -86.87 0.256972 5.6270
8.91800000 0.257020 0.6337 0.966399 -86.87 0.966399 -86.87 0.257016 5.6155
8.91825000 0.257064 0.6346 0.966387 -86.88 0.966387 -86.88 0.257060 5.6039
8.91850000 0.257108 0.6355 0.966376 -86.89 0.966376 -86.89 0.257104 5.5924
8.91875000 0.257152 0.6363 0.966364 -86.89 0.966364 -86.89 0.257148 5.5808
8.91900000 0.257196 0.6372 0.966352 -86.90 0.966352 -86.90 0.257192 5.5691
8.91925000 0.257240 0.6381 0.966340 -86.90 0.966340 -86.90 0.257236 5.5575
8.91950000 0.257285 0.6390 0.966329 -86.91 0.966329 -86.91 0.257280 5.5458
8.91975000 0.257329 0.6400 0.966317 -86.91 0.966317 -86.91 0.257325 5.5341
8.92000000 0.257374 0.6409 0.966305 -86.92 0.966305 -86.92 0.257369 5.5223
8.92025000 0.257418 0.6418 0.966293 -86.92 0.966293 -86.92 0.257414 5.5106
8.92050000 0.257463 0.6428 0.966281 -86.93 0.966281 -86.93 0.257458 5.4988
8.92075000 0.257508 0.6437 0.966269 -86.93 0.966269 -86.93 0.257503 5.4870
8.92100000 0.257553 0.6447 0.966257 -86.94 0.966257 -86.94 0.257548 5.4751
8.92125000 0.257598 0.6457 0.966245 -86.95 0.966245 -86.95 0.257593 5.4633
8.92150000 0.257643 0.6467 0.966233 -86.95 0.966233 -86.95 0.257638 5.4514
8.92175000 0.257688 0.6477 0.966221 -86.96 0.966221 -86.96 0.257683 5.4395
8.92200000 0.257733 0.6487 0.966209 -86.96 0.966209 -86.96 0.257729 5.4275
8.92225000 0.257779 0.6497 0.966197 -86.97 0.966197 -86.97 0.257774 5.4155
8.92250000 0.257824 0.6508 0.966185 -86.97 0.966185 -86.97 0.257820 5.4035
8.92275000 0.257870 0.6518 0.966172 -86.98 0.966172 -86.98 0.257865 5.3915
8.92300000 0.257916 0.6529 0.966160 -86.98 0.966160 -86.98 0.257911 5.3794
8.92325000 0.257961 0.6540 0.966148 -86.99 0.966148 -86.99 0.257957 5.3673
8.92350000 0.258007 0.6550 0.966136 -86.99 0.966136 -86.99 0.258003 5.3552
8.92375000 0.258053 0.6561 0.966123 -87.00 0.966123 -87.00 0.258049 5.3431
8.92400000 0.258100 0.6572 0.966111 -87.01 0.966111 -87.01 0.258095 5.3309
8.92425000 0.258146 0.6584 0.966099 -87.01 0.966099 -87.01 0.258141 5.3187
8.92450000 0.258192 0.6595 0.966086 -87.02 0.966086 -87.02 0.258188 5.3065
8.92475000 0.258239 0.6606 0.966074 -87.02 0.966074 -87.02 0.258234 5.2942
8.92500000 0.258285 0.6618 0.966061 -87.03 0.966061 -87.03 0.258281 5.2819
8.92525000 0.258332 0.6629 0.966049 -87.03 0.966049 -87.03 0.258327 5.2696
8.92550000 0.258379 0.6641 0.966036 -87.04 0.966036 -87.04 0.258374 5.2572
8.92575000 0.258426 0.6653 0.966024 -87.04 0.966024 -87.04 0.258421 5.2449
8.92600000 0.258473 0.6665 0.966011 -87.05 0.966011 -87.05 0.258468 5.2324
8.92625000 0.258520 0.6677 0.965998 -87.06 0.965998 -87.06 0.258515 5.2200
8.92650000 0.258568 0.6689 0.965986 -87.06 0.965986 -87.06 0.258563 5.2075
8.92675000 0.258615 0.6702 0.965973 -87.07 0.965973 -87.07 0.258610 5.1950
8.92700000 0.258662 0.6714 0.965960 -87.07 0.965960 -87.07 0.258658 5.1825
8.92725000 0.258710 0.6727 0.965948 -87.08 0.965948 -87.08 0.258705 5.1700
8.92750000 0.258758 0.6740 0.965935 -87.08 0.965935 -87.08 0.258753 5.1574
8.92775000 0.258806 0.6752 0.965922 -87.09 0.965922 -87.09 0.258801 5.1447
8.92800000 0.258854 0.6765 0.965909 -87.10 0.965909 -87.10 0.258849 5.1321
8.92825000 0.258902 0.6778 0.965896 -87.10 0.965896 -87.10 0.258897 5.1194
8.92850000 0.258950 0.6792 0.965883 -87.11 0.965883 -87.11 0.258945 5.1067
8.92875000 0.258998 0.6805 0.965870 -87.11 0.965870 -87.11 0.258993 5.0940
8.92900000 0.259047 0.6818 0.965857 -87.12 0.965857 -87.12 0.259042 5.0812
8.92925000 0.259096 0.6832 0.965844 -87.12 0.965844 -87.12 0.259091 5.0684
8.92950000 0.259144 0.6846 0.965831 -87.13 0.965831 -87.13 0.259139 5.0555
8.92975000 0.259193 0.6859 0.965818 -87.14 0.965818 -87.14 0.259188 5.0427
8.93000000 0.259242 0.6873 0.965805 -87.14 0.965805 -87.14 0.259237 5.0298
8.93025000 0.259291 0.6887 0.965792 -87.15 0.965792 -87.15 0.259286 5.0168
8.93050000 0.259340 0.6902 0.965778 -87.15 0.965778 -87.15 0.259335 5.0039
8.93075000 0.259390 0.6916 0.965765 -87.16 0.965765 -87.16 0.259385 4.9909
8.93100000 0.259439 0.6930 0.965752 -87.16 0.965752 -87.16 0.259434 4.9778
8.93125000 0.259489 0.6945 0.965739 -87.17 0.965739 -87.17 0.259484 4.9648
8.93150000 0.259538 0.6960 0.965725 -87.18 0.965725 -87.18 0.259533 4.9517
8.93175000 0.259588 0.6975 0.965712 -87.18 0.965712 -87.18 0.259583 4.9386
8.93200000 0.259638 0.6989 0.965698 -87.19 0.965698 -87.19 0.259633 4.9254
8.93225000 0.259688 0.7005 0.965685 -87.19 0.965685 -87.19 0.259683 4.9122
8.93250000 0.259739 0.7020 0.965671 -87.20 0.965671 -87.20 0.259733 4.8990
8.93275000 0.259789 0.7035 0.965658 -87.20 0.965658 -87.20 0.259784 4.8857
8.93300000 0.259839 0.7051 0.965644 -87.21 0.965644 -87.21 0.259834 4.8724
8.93325000 0.259890 0.7066 0.965630 -87.22 0.965630 -87.22 0.259885 4.8591
8.93350000 0.259941 0.7082 0.965617 -87.22 0.965617 -87.22 0.259935 4.8457
8.93375000 0.259992 0.7098 0.965603 -87.23 0.965603 -87.23 0.259986 4.8323
8.93400000 0.260043 0.7114 0.965589 -87.23 0.965589 -87.23 0.260037 4.8189
8.93425000 0.260094 0.7130 0.965576 -87.24 0.965576 -87.24 0.260088 4.8054
8.93450000 0.260145 0.7146 0.965562 -87.25 0.965562 -87.25 0.260140 4.7919
8.93475000 0.260197 0.7163 0.965548 -87.25 0.965548 -87.25 0.260191 4.7784
8.93500000 0.260248 0.7179 0.965534 -87.26 0.965534 -87.26 0.260243 4.7648
8.93525000 0.260300 0.7196 0.965520 -87.26 0.965520 -87.26 0.260294 4.7512
8.93550000 0.260352 0.7213 0.965506 -87.27 0.965506 -87.27 0.260346 4.7376
8.93575000 0.260404 0.7230 0.965492 -87.28 0.965492 -87.28 0.260398 4.7239
8.93600000 0.260456 0.7247 0.965478 -87.28 0.965478 -87.28 0.260450 4.7102
8.93625000 0.260508 0.7264 0.965464 -87.29 0.965464 -87.29 0.260502 4.6964
8.93650000 0.260560 0.7282 0.965450 -87.29 0.965450 -87.29 0.260555 4.6827
8.93675000 0.260613 0.7299 0.965435 -87.30 0.965435 -87.30 0.260607 4.6688
8.93700000 0.260666 0.7317 0.965421 -87.31 0.965421 -87.31 0.260660 4.6550
8.93725000 0.260718 0.7335 0.965407 -87.31 0.965407 -87.31 0.260713 4.6411
8.93750000 0.260771 0.7353 0.965393 -87.32 0.965393 -87.32 0.260766 4.6272
8.93775000 0.260824 0.7371 0.965378 -87.32 0.965378 -87.32 0.260819 4.6132
8.93800000 0.260878 0.7389 0.965364 -87.33 0.965364 -87.33 0.260872 4.5992
8.93825000 0.260931 0.7408 0.965349 -87.34 0.965349 -87.34 0.260925 4.5852
8.93850000 0.260985 0.7426 0.965335 -87.34 0.965335 -87.34 0.260979 4.5711
8.93875000 0.261038 0.7445 0.965320 -87.35 0.965320 -87.35 0.261032 4.5570
8.93900000 0.261092 0.7464 0.965306 -87.35 0.965306 -87.35 0.261086 4.5428
8.93925000 0.261146 0.7483 0.965291 -87.36 0.965291 -87.36 0.261140 4.5286
8.93950000 0.261200 0.7502 0.965277 -87.37 0.965277 -87.37 0.261194 4.5144
8.93975000 0.261255 0.7521 0.965262 -87.37 0.965262 -87.37 0.261249 4.5001
8.94000000 0.261309 0.7541 0.965247 -87.38 0.965247 -87.38 0.261303 4.4858
8.94025000 0.261364 0.7560 0.965232 -87.39 0.965232 -87.39 0.261358 4.4715
8.94050000 0.261418 0.7580 0.965217 -87.39 0.965217 -87.39 0.261412 4.4571
8.94075000 0.261473 0.7600 0.965203 -87.40 0.965203 -87.40 0.261467 4.4427
8.94100000 0.261528 0.7620 0.965188 -87.40 0.965188 -87.40 0.261522 4.4282
8.94125000 0.261583 0.7640 0.965173 -87.41 0.965173 -87.41 0.261577 4.4137
8.94150000 0.261639 0.7661 0.965158 -87.42 0.965158 -87.42 0.261633 4.3991
8.94175000 0.261694 0.7681 0.965143 -87.42 0.965143 -87.42 0.261688 4.3846
8.94200000 0.261750 0.7702 0.965127 -87.43 0.965127 -87.43 0.261744 4.3699
8.94225000 0.261806 0.7723 0.965112 -87.44 0.965112 -87.44 0.261800 4.3553
8.94250000 0.261862 0.7744 0.965097 -87.44 0.965097 -87.44 0.261856 4.3406
8.94275000 0.261918 0.7765 0.965082 -87.45 0.965082 -87.45 0.261912 4.3258
8.94300000 0.261974 0.7786 0.965067 -87.45 0.965067 -87.45 0.261968 4.3110
8.94325000 0.262031 0.7807 0.965051 -87.46 0.965051 -87.46 0.262025 4.2962
8.94350000 0.262087 0.7829 0.965036 -87.47 0.965036 -87.47 0.262081 4.2814
8.94375000 0.262144 0.7851 0.965020 -87.47 0.965020 -87.47 0.262138 4.2664
8.94400000 0.262201 0.7873 0.965005 -87.48 0.965005 -87.48 0.262195 4.2515
8.94425000 0.262258 0.7895 0.964989 -87.49 0.964989 -87.49 0.262252 4.2365
8.94450000 0.262316 0.7917 0.964974 -87.49 0.964974 -87.49 0.262309 4.2215
8.94475000 0.262373 0.7940 0.964958 -87.50 0.964958 -87.50 0.262367 4.2064
8.94500000 0.262431 0.7962 0.964942 -87.51 0.964942 -87.51 0.262424 4.1913
8.94525000 0.262489 0.7985 0.964927 -87.51 0.964927 -87.51 0.262482 4.1761
8.94550000 0.262547 0.8008 0.964911 -87.52 0.964911 -87.52 0.262540 4.1609
8.94575000 0.262605 0.8031 0.964895 -87.52 0.964895 -87.52 0.262598 4.1456
8.94600000 0.262663 0.8054 0.964879 -87.53 0.964879 -87.53 0.262656 4.1304
8.94625000 0.262721 0.8078 0.964863 -87.54 0.964863 -87.54 0.262715 4.1150
8.94650000 0.262780 0.8101 0.964847 -87.54 0.964847 -87.54 0.262774 4.0996
8.94675000 0.262839 0.8125 0.964831 -87.55 0.964831 -87.55 0.262832 4.0842
8.94700000 0.262898 0.8149 0.964815 -87.56 0.964815 -87.56 0.262891 4.0687
8.94725000 0.262957 0.8173 0.964799 -87.56 0.964799 -87.56 0.262951 4.0532
8.94750000 0.263017 0.8197 0.964783 -87.57 0.964783 -87.57 0.263010 4.0377
8.94775000 0.263076 0.8222 0.964766 -87.58 0.964766 -87.58 0.263069 4.0221
8.94800000 0.263136 0.8246 0.964750 -87.58 0.964750 -87.58 0.263129 4.0064
8.94825000 0.263196 0.8271 0.964734 -87.59 0.964734 -87.59 0.263189 3.9907
8.94850000 0.263256 0.8296 0.964717 -87.60 0.964717 -87.60 0.263249 3.9750
8.94875000 0.263316 0.8321 0.964701 -87.60 0.964701 -87.60 0.263309 3.9592
8.94900000 0.263377 0.8346 0.964684 -87.61 0.964684 -87.61 0.263370 3.9434
8.94925000 0.263437 0.8372 0.964668 -87.62 0.964668 -87.62 0.263430 3.9275
8.94950000 0.263498 0.8398 0.964651 -87.62 0.964651 -87.62 0.263491 3.9116
8.94975000 0.263559 0.8423 0.964634 -87.63 0.964634 -87.63 0.263552 3.8956
8.95000000 0.263620 0.8449 0.964618 -87.64 0.964618 -87.64 0.263614 3.8796
8.95025000 0.263682 0.8476 0.964601 -87.64 0.964601 -87.64 0.263675 3.8635
8.95050000 0.263743 0.8502 0.964584 -87.65 0.964584 -87.65 0.263736 3.8474
8.95075000 0.263805 0.8529 0.964567 -87.66 0.964567 -87.66 0.263798 3.8312
8.95100000 0.263867 0.8555 0.964550 -87.66 0.964550 -87.66 0.263860 3.8150
8.95125000 0.263929 0.8582 0.964533 -87.67 0.964533 -87.67 0.263922 3.7987
8.95150000 0.263992 0.8609 0.964516 -87.68 0.964516 -87.68 0.263985 3.7824
8.95175000 0.264054 0.8637 0.964499 -87.68 0.964499 -87.68 0.264047 3.7661
!< P1 F=8.95175 Eeff=(5.03170378 -2.1797e-5) Z0=(47.3914371 1.04459e-4) R=0.0 C=0.0 
!< P2 F=8.95175 Eeff=(5.03170378 -2.1797e-5) Z0=(47.3914371 1.04459e-4) R=0.0 C=0.0 
8.95200000 0.264117 0.8664 0.964482 -87.69 0.964482 -87.69 0.264110 3.7497
8.95225000 0.264180 0.8692 0.964464 -87.70 0.964464 -87.70 0.264173 3.7332
8.95250000 0.264243 0.8720 0.964447 -87.70 0.964447 -87.70 0.264236 3.7167
8.95275000 0.264307 0.8748 0.964430 -87.71 0.964430 -87.71 0.264299 3.7001
8.95300000 0.264370 0.8776 0.964412 -87.72 0.964412 -87.72 0.264363 3.6835
8.95325000 0.264434 0.8804 0.964395 -87.73 0.964395 -87.73 0.264427 3.6669
8.95350000 0.264498 0.8833 0.964377 -87.73 0.964377 -87.73 0.264491 3.6502
8.95375000 0.264562 0.8862 0.964360 -87.74 0.964360 -87.74 0.264555 3.6334
8.95400000 0.264627 0.8891 0.964342 -87.75 0.964342 -87.75 0.264619 3.6166
8.95425000 0.264691 0.8920 0.964324 -87.75 0.964324 -87.75 0.264684 3.5997
8.95450000 0.264756 0.8950 0.964306 -87.76 0.964306 -87.76 0.264749 3.5828
8.95475000 0.264821 0.8979 0.964288 -87.77 0.964288 -87.77 0.264814 3.5658
8.95500000 0.264886 0.9009 0.964270 -87.77 0.964270 -87.77 0.264879 3.5488
8.95525000 0.264952 0.9039 0.964252 -87.78 0.964252 -87.78 0.264944 3.5317
8.95550000 0.265018 0.9069 0.964234 -87.79 0.964234 -87.79 0.265010 3.5146
8.95575000 0.265083 0.9100 0.964216 -87.80 0.964216 -87.80 0.265076 3.4974
8.95600000 0.265150 0.9130 0.964198 -87.80 0.964198 -87.80 0.265142 3.4802
8.95625000 0.265216 0.9161 0.964180 -87.81 0.964180 -87.81 0.265208 3.4629
8.95650000 0.265282 0.9192 0.964161 -87.82 0.964161 -87.82 0.265275 3.4456
8.95675000 0.265349 0.9223 0.964143 -87.82 0.964143 -87.82 0.265341 3.4282
8.95700000 0.265416 0.9255 0.964125 -87.83 0.964125 -87.83 0.265408 3.4107
8.95725000 0.265483 0.9286 0.964106 -87.84 0.964106 -87.84 0.265476 3.3932
8.95750000 0.265551 0.9318 0.964087 -87.85 0.964087 -87.85 0.265543 3.3756
8.95775000 0.265619 0.9350 0.964069 -87.85 0.964069 -87.85 0.265611 3.3580
8.95800000 0.265687 0.9382 0.964050 -87.86 0.964050 -87.86 0.265679 3.3403
8.95825000 0.265755 0.9415 0.964031 -87.87 0.964031 -87.87 0.265747 3.3226
8.95850000 0.265823 0.9447 0.964012 -87.87 0.964012 -87.87 0.265815 3.3048
8.95875000 0.265892 0.9480 0.963993 -87.88 0.963993 -87.88 0.265884 3.2869
8.95900000 0.265961 0.9513 0.963974 -87.89 0.963974 -87.89 0.265952 3.2690
8.95925000 0.266030 0.9547 0.963955 -87.90 0.963955 -87.90 0.266021 3.2511
8.95950000 0.266099 0.9580 0.963936 -87.90 0.963936 -87.90 0.266091 3.2331
8.95975000 0.266168 0.9614 0.963917 -87.91 0.963917 -87.91 0.266160 3.2150
8.96000000 0.266238 0.9648 0.963898 -87.92 0.963898 -87.92 0.266230 3.1968
8.96025000 0.266308 0.9682 0.963878 -87.93 0.963878 -87.93 0.266300 3.1786
8.96050000 0.266379 0.9717 0.963859 -87.93 0.963859 -87.93 0.266370 3.1604
8.96075000 0.266449 0.9751 0.963839 -87.94 0.963839 -87.94 0.266441 3.1421
8.96100000 0.266520 0.9786 0.963820 -87.95 0.963820 -87.95 0.266512 3.1237
8.96125000 0.266591 0.9821 0.963800 -87.96 0.963800 -87.96 0.266583 3.1052
8.96150000 0.266662 0.9856 0.963780 -87.96 0.963780 -87.96 0.266654 3.0867
8.96175000 0.266734 0.9892 0.963760 -87.97 0.963760 -87.97 0.266725 3.0682
8.96200000 0.266806 0.9928 0.963741 -87.98 0.963741 -87.98 0.266797 3.0495
8.96225000 0.266878 0.9964 0.963721 -87.99 0.963721 -87.99 0.266869 3.0309
8.96250000 0.266950 1.0000 0.963701 -87.99 0.963701 -87.99 0.266941 3.0121
8.96275000 0.267022 1.0036 0.963680 -88.00 0.963680 -88.00 0.267014 2.9933
8.96300000 0.267095 1.0073 0.963660 -88.01 0.963660 -88.01 0.267087 2.9744
8.96325000 0.267168 1.0110 0.963640 -88.02 0.963640 -88.02 0.267160 2.9555
8.96350000 0.267242 1.0147 0.963620 -88.02 0.963620 -88.02 0.267233 2.9365
8.96375000 0.267315 1.0184 0.963599 -88.03 0.963599 -88.03 0.267306 2.9174
8.96400000 0.267389 1.0222 0.963579 -88.04 0.963579 -88.04 0.267380 2.8983
8.96425000 0.267463 1.0260 0.963558 -88.05 0.963558 -88.05 0.267454 2.8791
8.96450000 0.267538 1.0298 0.963537 -88.05 0.963537 -88.05 0.267529 2.8598
8.96475000 0.267612 1.0336 0.963517 -88.06 0.963517 -88.06 0.267603 2.8405
8.96500000 0.267687 1.0375 0.963496 -88.07 0.963496 -88.07 0.267678 2.8211
8.96525000 0.267762 1.0414 0.963475 -88.08 0.963475 -88.08 0.267753 2.8016
8.96550000 0.267838 1.0453 0.963454 -88.09 0.963454 -88.09 0.267829 2.7821
8.96575000 0.267914 1.0492 0.963433 -88.09 0.963433 -88.09 0.267905 2.7625
8.96600000 0.267990 1.0532 0.963411 -88.10 0.963411 -88.10 0.267981 2.7429
8.96625000 0.268066 1.0571 0.963390 -88.11 0.963390 -88.11 0.268057 2.7231
8.96650000 0.268143 1.0611 0.963369 -88.12 0.963369 -88.12 0.268134 2.7033
8.96675000 0.268220 1.0652 0.963347 -88.12 0.963347 -88.12 0.268211 2.6835
8.96700000 0.268297 1.0692 0.963326 -88.13 0.963326 -88.13 0.268288 2.6635
8.96725000 0.268375 1.0733 0.963304 -88.14 0.963304 -88.14 0.268365 2.6435
8.96750000 0.268452 1.0774 0.963283 -88.15 0.963283 -88.15 0.268443 2.6234
8.96775000 0.268530 1.0815 0.963261 -88.16 0.963261 -88.16 0.268521 2.6033
8.96800000 0.268609 1.0857 0.963239 -88.16 0.963239 -88.16 0.268599 2.5831
8.96825000 0.268687 1.0899 0.963217 -88.17 0.963217 -88.17 0.268678 2.5628
8.96850000 0.268766 1.0941 0.963195 -88.18 0.963195 -88.18 0.268757 2.5424
8.96875000 0.268846 1.0983 0.963173 -88.19 0.963173 -88.19 0.268836 2.5220
8.96900000 0.268925 1.1026 0.963150 -88.20 0.963150 -88.20 0.268916 2.5015
8.96925000 0.269005 1.1069 0.963128 -88.21 0.963128 -88.21 0.268996 2.4809
8.96950000 0.269085 1.1112 0.963106 -88.21 0.963106 -88.21 0.269076 2.4602
8.96975000 0.269166 1.1155 0.963083 -88.22 0.963083 -88.22 0.269156 2.4395
8.97000000 0.269247 1.1199 0.963061 -88.23 0.963061 -88.23 0.269237 2.4187
8.97025000 0.269328 1.1243 0.963038 -88.24 0.963038 -88.24 0.269318 2.3978
8.97050000 0.269409 1.1287 0.963015 -88.25 0.963015 -88.25 0.269400 2.3769
8.97075000 0.269491 1.1331 0.962992 -88.25 0.962992 -88.25 0.269481 2.3558
8.97100000 0.269573 1.1376 0.962969 -88.26 0.962969 -88.26 0.269563 2.3347
8.97125000 0.269656 1.1421 0.962946 -88.27 0.962946 -88.27 0.269646 2.3135
8.97150000 0.269739 1.1466 0.962923 -88.28 0.962923 -88.28 0.269729 2.2923
8.97175000 0.269822 1.1512 0.962899 -88.29 0.962899 -88.29 0.269812 2.2709
8.97200000 0.269905 1.1558 0.962876 -88.30 0.962876 -88.30 0.269895 2.2495
8.97225000 0.269989 1.1604 0.962852 -88.30 0.962852 -88.30 0.269979 2.2280
8.97250000 0.270073 1.1650 0.962829 -88.31 0.962829 -88.31 0.270063 2.2064
8.97275000 0.270157 1.1697 0.962805 -88.32 0.962805 -88.32 0.270147 2.1848
8.97300000 0.270242 1.1744 0.962781 -88.33 0.962781 -88.33 0.270232 2.1631
8.97325000 0.270327 1.1791 0.962757 -88.34 0.962757 -88.34 0.270317 2.1412
8.97350000 0.270413 1.1839 0.962733 -88.35 0.962733 -88.35 0.270402 2.1193
8.97375000 0.270499 1.1887 0.962709 -88.36 0.962709 -88.36 0.270488 2.0973
8.97400000 0.270585 1.1935 0.962685 -88.36 0.962685 -88.36 0.270574 2.0753
8.97425000 0.270671 1.1983 0.962661 -88.37 0.962661 -88.37 0.270661 2.0531
8.97450000 0.270758 1.2032 0.962636 -88.38 0.962636 -88.38 0.270747 2.0309
8.97475000 0.270845 1.2081 0.962612 -88.39 0.962612 -88.39 0.270835 2.0086
8.97500000 0.270933 1.2130 0.962587 -88.40 0.962587 -88.40 0.270922 1.9862
8.97525000 0.271021 1.2180 0.962562 -88.41 0.962562 -88.41 0.271010 1.9637
8.97550000 0.271109 1.2230 0.962537 -88.42 0.962537 -88.42 0.271098 1.9411
8.97575000 0.271198 1.2280 0.962512 -88.43 0.962512 -88.43 0.271187 1.9185
8.97600000 0.271287 1.2331 0.962487 -88.43 0.962487 -88.43 0.271276 1.8957
8.97625000 0.271376 1.2381 0.962462 -88.44 0.962462 -88.44 0.271365 1.8729
8.97650000 0.271466 1.2433 0.962436 -88.45 0.962436 -88.45 0.271455 1.8500
8.97675000 0.271556 1.2484 0.962411 -88.46 0.962411 -88.46 0.271545 1.8270
8.97700000 0.271647 1.2536 0.962385 -88.47 0.962385 -88.47 0.271636 1.8039
8.97725000 0.271738 1.2588 0.962360 -88.48 0.962360 -88.48 0.271727 1.7807
8.97750000 0.271829 1.2640 0.962334 -88.49 0.962334 -88.49 0.271818 1.7574
8.97775000 0.271921 1.2693 0.962308 -88.50 0.962308 -88.50 0.271910 1.7340
8.97800000 0.272013 1.2746 0.962282 -88.51 0.962282 -88.51 0.272002 1.7106
8.97825000 0.272106 1.2799 0.962256 -88.52 0.962256 -88.52 0.272094 1.6870
8.97850000 0.272199 1.2853 0.962229 -88.52 0.962229 -88.52 0.272187 1.6634
8.97875000 0.272292 1.2907 0.962203 -88.53 0.962203 -88.53 0.272280 1.6396
8.97900000 0.272386 1.2961 0.962176 -88.54 0.962176 -88.54 0.272374 1.6158
8.97925000 0.272480 1.3016 0.962150 -88.55 0.962150 -88.55 0.272468 1.5919
8.97950000 0.272574 1.3071 0.962123 -88.56 0.962123 -88.56 0.272563 1.5678
8.97975000 0.272669 1.3126 0.962096 -88.57 0.962096 -88.57 0.272658 1.5437
8.98000000 0.272765 1.3182 0.962069 -88.58 0.962069 -88.58 0.272753 1.5195
8.98025000 0.272861 1.3238 0.962041 -88.59 0.962041 -88.59 0.272849 1.4952
8.98050000 0.272957 1.3294 0.962014 -88.60 0.962014 -88.60 0.272945 1.4708
8.98075000 0.273054 1.3351 0.961987 -88.61 0.961987 -88.61 0.273042 1.4463
8.98100000 0.273151 1.3408 0.961959 -88.62 0.961959 -88.62 0.273139 1.4216
8.98125000 0.273248 1.3465 0.961931 -88.63 0.961931 -88.63 0.273236 1.3969
8.98150000 0.273346 1.3523 0.961903 -88.64 0.961903 -88.64 0.273334 1.3721
8.98175000 0.273445 1.3581 0.961875 -88.65 0.961875 -88.65 0.273432 1.3472
8.98200000 0.273543 1.3639 0.961847 -88.66 0.961847 -88.66 0.273531 1.3222
8.98225000 0.273643 1.3698 0.961819 -88.67 0.961819 -88.67 0.273630 1.2971
8.98250000 0.273742 1.3757 0.961791 -88.67 0.961791 -88.67 0.273730 1.2719
8.98275000 0.273843 1.3816 0.961762 -88.68 0.961762 -88.68 0.273830 1.2465
8.98300000 0.273943 1.3876 0.961733 -88.69 0.961733 -88.69 0.273931 1.2211
8.98325000 0.274045 1.3936 0.961704 -88.70 0.961704 -88.70 0.274032 1.1956
8.98350000 0.274146 1.3997 0.961675 -88.71 0.961675 -88.71 0.274133 1.1699
8.98375000 0.274248 1.4058 0.961646 -88.72 0.961646 -88.72 0.274235 1.1442
8.98400000 0.274351 1.4119 0.961617 -88.73 0.961617 -88.73 0.274338 1.1183
8.98425000 0.274454 1.4180 0.961588 -88.74 0.961588 -88.74 0.274441 1.0924
8.98450000 0.274557 1.4242 0.961558 -88.75 0.961558 -88.75 0.274544 1.0663
8.98475000 0.274661 1.4305 0.961528 -88.76 0.961528 -88.76 0.274648 1.0401
8.98500000 0.274766 1.4367 0.961498 -88.77 0.961498 -88.77 0.274753 1.0138
8.98525000 0.274871 1.4430 0.961468 -88.78 0.961468 -88.78 0.274858 0.9874
8.98550000 0.274976 1.4494 0.961438 -88.79 0.961438 -88.79 0.274963 0.9609
8.98575000 0.275082 1.4558 0.961408 -88.80 0.961408 -88.80 0.275069 0.9342
8.98600000 0.275189 1.4622 0.961377 -88.81 0.961377 -88.81 0.275175 0.9075
8.98625000 0.275296 1.4686 0.961346 -88.82 0.961346 -88.82 0.275282 0.8806
8.98650000 0.275403 1.4751 0.961316 -88.83 0.961316 -88.83 0.275390 0.8537
8.98675000 0.275511 1.4817 0.961285 -88.84 0.961285 -88.84 0.275497 0.8266
8.98700000 0.275620 1.4882 0.961253 -88.85 0.961253 -88.85 0.275606 0.7994
8.98725000 0.275729 1.4948 0.961222 -88.87 0.961222 -88.87 0.275715 0.7720
8.98750000 0.275838 1.5015 0.961191 -88.88 0.961191 -88.88 0.275824 0.7446
8.98775000 0.275948 1.5082 0.961159 -88.89 0.961159 -88.89 0.275934 0.7170
8.98800000 0.276059 1.5149 0.961127 -88.90 0.961127 -88.90 0.276045 0.6893
8.98825000 0.276170 1.5217 0.961095 -88.91 0.961095 -88.91 0.276156 0.6615
8.98850000 0.276282 1.5285 0.961063 -88.92 0.961063 -88.92 0.276268 0.6336
8.98875000 0.276394 1.5354 0.961031 -88.93 0.961031 -88.93 0.276380 0.6055
8.98900000 0.276507 1.5423 0.960998 -88.94 0.960998 -88.94 0.276493 0.5773
8.98925000 0.276620 1.5492 0.960965 -88.95 0.960965 -88.95 0.276606 0.5490
8.98950000 0.276734 1.5562 0.960933 -88.96 0.960933 -88.96 0.276720 0.5206
8.98975000 0.276849 1.5632 0.960900 -88.97 0.960900 -88.97 0.276835 0.4920
8.99000000 0.276964 1.5702 0.960866 -88.98 0.960866 -88.98 0.276950 0.4633
8.99025000 0.277080 1.5773 0.960833 -88.99 0.960833 -88.99 0.277065 0.4345
8.99050000 0.277196 1.5845 0.960799 -89.00 0.960799 -89.00 0.277181 0.4056
8.99075000 0.277313 1.5917 0.960766 -89.01 0.960766 -89.01 0.277298 0.3765
8.99100000 0.277430 1.5989 0.960732 -89.03 0.960732 -89.03 0.277416 0.3473
8.99125000 0.277548 1.6062 0.960697 -89.04 0.960697 -89.04 0.277534 0.3180
8.99150000 0.277667 1.6135 0.960663 -89.05 0.960663 -89.05 0.277652 0.2885
8.99175000 0.277786 1.6209 0.960629 -89.06 0.960629 -89.06 0.277771 0.2589
8.99200000 0.277906 1.6283 0.960594 -89.07 0.960594 -89.07 0.277891 0.2291
8.99225000 0.278027 1.6357 0.960559 -89.08 0.960559 -89.08 0.278012 0.1992
8.99250000 0.278148 1.6432 0.960524 -89.09 0.960524 -89.09 0.278133 0.1692
8.99275000 0.278270 1.6507 0.960488 -89.10 0.960488 -89.10 0.278254 0.1390
8.99300000 0.278392 1.6583 0.960453 -89.11 0.960453 -89.11 0.278377 0.1087
8.99325000 0.278515 1.6659 0.960417 -89.13 0.960417 -89.13 0.278500 0.0783
8.99350000 0.278639 1.6736 0.960381 -89.14 0.960381 -89.14 0.278623 0.0477
8.99375000 0.278763 1.6813 0.960345 -89.15 0.960345 -89.15 0.278748 0.0170
8.99400000 0.278888 1.6891 0.960309 -89.16 0.960309 -89.16 0.278872 -0.014
8.99425000 0.279014 1.6969 0.960272 -89.17 0.960272 -89.17 0.278998 -0.045
8.99450000 0.279140 1.7048 0.960235 -89.18 0.960235 -89.18 0.279124 -0.076
8.99475000 0.279267 1.7127 0.960198 -89.20 0.960198 -89.20 0.279251 -0.107
8.99500000 0.279395 1.7206 0.960161 -89.21 0.960161 -89.21 0.279379 -0.139
8.99525000 0.279523 1.7286 0.960124 -89.22 0.960124 -89.22 0.279507 -0.170
8.99550000 0.279652 1.7366 0.960086 -89.23 0.960086 -89.23 0.279636 -0.202
8.99575000 0.279782 1.7447 0.960048 -89.24 0.960048 -89.24 0.279766 -0.234
8.99600000 0.279913 1.7529 0.960010 -89.25 0.960010 -89.25 0.279896 -0.266
8.99625000 0.280044 1.7611 0.959972 -89.27 0.959972 -89.27 0.280027 -0.298
8.99650000 0.280176 1.7693 0.959933 -89.28 0.959933 -89.28 0.280159 -0.331
8.99675000 0.280309 1.7776 0.959894 -89.29 0.959894 -89.29 0.280292 -0.363
8.99700000 0.280442 1.7859 0.959855 -89.30 0.959855 -89.30 0.280425 -0.396
8.99725000 0.280576 1.7943 0.959816 -89.32 0.959816 -89.32 0.280559 -0.429
8.99750000 0.280711 1.8028 0.959777 -89.33 0.959777 -89.33 0.280694 -0.462