! Sonnet Data File
! From: emgraph Version : 16.52
! From Project: Resonator2_cp_varyW
! Data is De-embedded 
! Data File Written: 10/09/2017 13:24:45
!< HDATE 10/09/2017 09:18:07
!< MDATE 10/09/2017 09:18:07
!< PARAMS
!< Length = 400.0
!< Pwid1 = 2000.0
!< Pwid2 = 2000.0
!< Air_gap = 6.0
!< Width = 10.0
!< gap = 6.0
!< END PARAMS
# GHZ S MA R 35.98000
8.90000000 0.023601 19.386 0.999713 -77.48 0.999713 -77.48 0.023594 5.6949
!< P1 F=8.9 Eeff=(5.36982967 -2.3752e-5) Z0=(35.9777542 8.05608e-5) R=0.0 C=0.0 
!< P2 F=8.9 Eeff=(5.36982967 -2.3752e-5) Z0=(35.9777542 8.05608e-5) R=0.0 C=0.0 
8.90010000 0.023579 19.424 0.999713 -77.48 0.999713 -77.48 0.023571 5.6516
8.90020000 0.023556 19.463 0.999714 -77.48 0.999714 -77.48 0.023549 5.6080
8.90030000 0.023534 19.502 0.999714 -77.48 0.999714 -77.48 0.023526 5.5643
8.90040000 0.023511 19.541 0.999715 -77.49 0.999715 -77.49 0.023504 5.5203
8.90050000 0.023489 19.580 0.999715 -77.49 0.999715 -77.49 0.023481 5.4761
8.90060000 0.023466 19.619 0.999716 -77.49 0.999716 -77.49 0.023459 5.4317
8.90070000 0.023443 19.659 0.999716 -77.49 0.999716 -77.49 0.023436 5.3870
8.90080000 0.023421 19.699 0.999717 -77.50 0.999717 -77.50 0.023413 5.3422
8.90090000 0.023398 19.739 0.999717 -77.50 0.999717 -77.50 0.023390 5.2970
8.90100000 0.023375 19.779 0.999718 -77.50 0.999718 -77.50 0.023367 5.2517
8.90110000 0.023352 19.820 0.999718 -77.50 0.999718 -77.50 0.023344 5.2061
8.90120000 0.023329 19.861 0.999719 -77.51 0.999719 -77.51 0.023321 5.1603
8.90130000 0.023306 19.902 0.999719 -77.51 0.999719 -77.51 0.023298 5.1143
8.90140000 0.023283 19.943 0.999720 -77.51 0.999720 -77.51 0.023275 5.0680
8.90150000 0.023259 19.984 0.999720 -77.51 0.999720 -77.51 0.023251 5.0214
8.90160000 0.023236 20.026 0.999721 -77.52 0.999721 -77.52 0.023228 4.9747
8.90170000 0.023213 20.068 0.999722 -77.52 0.999722 -77.52 0.023205 4.9277
8.90180000 0.023189 20.110 0.999722 -77.52 0.999722 -77.52 0.023181 4.8804
8.90190000 0.023166 20.153 0.999723 -77.52 0.999723 -77.52 0.023158 4.8329
8.90200000 0.023142 20.195 0.999723 -77.53 0.999723 -77.53 0.023134 4.7851
8.90210000 0.023119 20.238 0.999724 -77.53 0.999724 -77.53 0.023110 4.7371
8.90220000 0.023095 20.281 0.999724 -77.53 0.999724 -77.53 0.023087 4.6888
8.90230000 0.023071 20.325 0.999725 -77.53 0.999725 -77.53 0.023063 4.6403
8.90240000 0.023047 20.368 0.999725 -77.54 0.999725 -77.54 0.023039 4.5915
8.90250000 0.023023 20.412 0.999726 -77.54 0.999726 -77.54 0.023015 4.5425
8.90260000 0.023000 20.456 0.999726 -77.54 0.999726 -77.54 0.022991 4.4932
8.90270000 0.022975 20.501 0.999727 -77.55 0.999727 -77.55 0.022967 4.4436
8.90280000 0.022951 20.545 0.999727 -77.55 0.999727 -77.55 0.022943 4.3938
8.90290000 0.022927 20.590 0.999728 -77.55 0.999728 -77.55 0.022919 4.3437
8.90300000 0.022903 20.635 0.999728 -77.55 0.999728 -77.55 0.022895 4.2933
8.90310000 0.022879 20.681 0.999729 -77.56 0.999729 -77.56 0.022870 4.2426
8.90320000 0.022854 20.726 0.999729 -77.56 0.999729 -77.56 0.022846 4.1917
8.90330000 0.022830 20.772 0.999730 -77.56 0.999730 -77.56 0.022821 4.1405
8.90340000 0.022805 20.819 0.999731 -77.56 0.999731 -77.56 0.022797 4.0890
8.90350000 0.022781 20.865 0.999731 -77.57 0.999731 -77.57 0.022772 4.0373
8.90360000 0.022756 20.912 0.999732 -77.57 0.999732 -77.57 0.022747 3.9852
8.90370000 0.022731 20.959 0.999732 -77.57 0.999732 -77.57 0.022723 3.9329
8.90380000 0.022707 21.006 0.999733 -77.58 0.999733 -77.58 0.022698 3.8803
8.90390000 0.022682 21.054 0.999733 -77.58 0.999733 -77.58 0.022673 3.8274
8.90400000 0.022657 21.102 0.999734 -77.58 0.999734 -77.58 0.022648 3.7741
8.90410000 0.022632 21.150 0.999734 -77.58 0.999734 -77.58 0.022623 3.7206
8.90420000 0.022607 21.198 0.999735 -77.59 0.999735 -77.59 0.022598 3.6668
8.90430000 0.022582 21.247 0.999735 -77.59 0.999735 -77.59 0.022573 3.6127
8.90440000 0.022557 21.296 0.999736 -77.59 0.999736 -77.59 0.022548 3.5583
8.90450000 0.022531 21.345 0.999736 -77.59 0.999736 -77.59 0.022522 3.5036
8.90460000 0.022506 21.395 0.999737 -77.60 0.999737 -77.60 0.022497 3.4486
8.90470000 0.022481 21.445 0.999738 -77.60 0.999738 -77.60 0.022471 3.3932
8.90480000 0.022455 21.495 0.999738 -77.60 0.999738 -77.60 0.022446 3.3376
8.90490000 0.022429 21.545 0.999739 -77.61 0.999739 -77.61 0.022420 3.2816
8.90500000 0.022404 21.596 0.999739 -77.61 0.999739 -77.61 0.022395 3.2253
8.90510000 0.022378 21.647 0.999740 -77.61 0.999740 -77.61 0.022369 3.1687
8.90520000 0.022352 21.699 0.999740 -77.61 0.999740 -77.61 0.022343 3.1118
8.90530000 0.022327 21.751 0.999741 -77.62 0.999741 -77.62 0.022317 3.0545
8.90540000 0.022301 21.803 0.999741 -77.62 0.999741 -77.62 0.022291 2.9969
8.90550000 0.022275 21.855 0.999742 -77.62 0.999742 -77.62 0.022265 2.9390
8.90560000 0.022249 21.908 0.999743 -77.63 0.999743 -77.63 0.022239 2.8808
8.90570000 0.022222 21.961 0.999743 -77.63 0.999743 -77.63 0.022213 2.8222
8.90580000 0.022196 22.014 0.999744 -77.63 0.999744 -77.63 0.022186 2.7632
8.90590000 0.022170 22.068 0.999744 -77.63 0.999744 -77.63 0.022160 2.7039
8.90600000 0.022144 22.122 0.999745 -77.64 0.999745 -77.64 0.022134 2.6443
8.90610000 0.022117 22.176 0.999745 -77.64 0.999745 -77.64 0.022107 2.5843
8.90620000 0.022091 22.231 0.999746 -77.64 0.999746 -77.64 0.022081 2.5240
8.90630000 0.022064 22.286 0.999746 -77.65 0.999746 -77.65 0.022054 2.4633
8.90640000 0.022037 22.341 0.999747 -77.65 0.999747 -77.65 0.022027 2.4022
8.90650000 0.022011 22.397 0.999748 -77.65 0.999748 -77.65 0.022001 2.3408
8.90660000 0.021984 22.453 0.999748 -77.65 0.999748 -77.65 0.021974 2.2790
8.90670000 0.021957 22.510 0.999749 -77.66 0.999749 -77.66 0.021947 2.2169
8.90680000 0.021930 22.566 0.999749 -77.66 0.999749 -77.66 0.021920 2.1544
8.90690000 0.021903 22.623 0.999750 -77.66 0.999750 -77.66 0.021893 2.0915
8.90700000 0.021876 22.681 0.999750 -77.67 0.999750 -77.67 0.021865 2.0282
8.90710000 0.021849 22.739 0.999751 -77.67 0.999751 -77.67 0.021838 1.9645
8.90720000 0.021821 22.797 0.999752 -77.67 0.999752 -77.67 0.021811 1.9005
8.90730000 0.021794 22.856 0.999752 -77.67 0.999752 -77.67 0.021784 1.8360
8.90740000 0.021767 22.915 0.999753 -77.68 0.999753 -77.68 0.021756 1.7712
8.90750000 0.021739 22.974 0.999753 -77.68 0.999753 -77.68 0.021728 1.7060
8.90760000 0.021711 23.034 0.999754 -77.68 0.999754 -77.68 0.021701 1.6403
8.90770000 0.021684 23.094 0.999754 -77.69 0.999754 -77.69 0.021673 1.5743
8.90780000 0.021656 23.155 0.999755 -77.69 0.999755 -77.69 0.021645 1.5079
8.90790000 0.021628 23.216 0.999756 -77.69 0.999756 -77.69 0.021617 1.4410
8.90800000 0.021600 23.277 0.999756 -77.70 0.999756 -77.70 0.021590 1.3738
8.90810000 0.021572 23.339 0.999757 -77.70 0.999757 -77.70 0.021561 1.3061
8.90820000 0.021544 23.401 0.999757 -77.70 0.999757 -77.70 0.021533 1.2380
8.90830000 0.021516 23.464 0.999758 -77.70 0.999758 -77.70 0.021505 1.1694
8.90840000 0.021488 23.527 0.999758 -77.71 0.999758 -77.71 0.021477 1.1005
8.90850000 0.021460 23.590 0.999759 -77.71 0.999759 -77.71 0.021449 1.0311
8.90860000 0.021431 23.654 0.999760 -77.71 0.999760 -77.71 0.021420 0.9613
8.90870000 0.021403 23.718 0.999760 -77.72 0.999760 -77.72 0.021392 0.8910
8.90880000 0.021374 23.783 0.999761 -77.72 0.999761 -77.72 0.021363 0.8203
8.90890000 0.021346 23.848 0.999761 -77.72 0.999761 -77.72 0.021334 0.7491
8.90900000 0.021317 23.914 0.999762 -77.73 0.999762 -77.73 0.021306 0.6775
8.90910000 0.021288 23.980 0.999762 -77.73 0.999762 -77.73 0.021277 0.6054
8.90920000 0.021259 24.046 0.999763 -77.73 0.999763 -77.73 0.021248 0.5328
8.90930000 0.021231 24.113 0.999764 -77.74 0.999764 -77.74 0.021219 0.4598
8.90940000 0.021202 24.180 0.999764 -77.74 0.999764 -77.74 0.021190 0.3863
8.90950000 0.021172 24.248 0.999765 -77.74 0.999765 -77.74 0.021161 0.3124
8.90960000 0.021143 24.316 0.999765 -77.74 0.999765 -77.74 0.021132 0.2379
8.90970000 0.021114 24.385 0.999766 -77.75 0.999766 -77.75 0.021102 0.1630
8.90980000 0.021085 24.454 0.999767 -77.75 0.999767 -77.75 0.021073 0.0876
8.90990000 0.021055 24.524 0.999767 -77.75 0.999767 -77.75 0.021043 0.0116
8.91000000 0.021026 24.594 0.999768 -77.76 0.999768 -77.76 0.021014 -0.065
8.91010000 0.020996 24.665 0.999768 -77.76 0.999768 -77.76 0.020984 -0.142
8.91020000 0.020967 24.736 0.999769 -77.76 0.999769 -77.76 0.020954 -0.219
8.91030000 0.020937 24.808 0.999770 -77.77 0.999770 -77.77 0.020925 -0.297
8.91040000 0.020907 24.880 0.999770 -77.77 0.999770 -77.77 0.020895 -0.376
8.91050000 0.020877 24.953 0.999771 -77.77 0.999771 -77.77 0.020865 -0.454
8.91060000 0.020847 25.026 0.999771 -77.78 0.999771 -77.78 0.020835 -0.534
8.91070000 0.020817 25.099 0.999772 -77.78 0.999772 -77.78 0.020805 -0.614
8.91080000 0.020787 25.174 0.999772 -77.78 0.999772 -77.78 0.020774 -0.695
8.91090000 0.020757 25.248 0.999773 -77.79 0.999773 -77.79 0.020744 -0.776
8.91100000 0.020726 25.324 0.999774 -77.79 0.999774 -77.79 0.020714 -0.857
8.91110000 0.020696 25.400 0.999774 -77.79 0.999774 -77.79 0.020683 -0.940
8.91120000 0.020666 25.476 0.999775 -77.80 0.999775 -77.80 0.020653 -1.022
8.91130000 0.020635 25.553 0.999775 -77.80 0.999775 -77.80 0.020622 -1.106
8.91140000 0.020604 25.630 0.999776 -77.80 0.999776 -77.80 0.020591 -1.190
8.91150000 0.020574 25.708 0.999777 -77.81 0.999777 -77.81 0.020561 -1.274
8.91160000 0.020543 25.787 0.999777 -77.81 0.999777 -77.81 0.020530 -1.359
8.91170000 0.020512 25.866 0.999778 -77.81 0.999778 -77.81 0.020499 -1.445
8.91180000 0.020481 25.946 0.999778 -77.82 0.999778 -77.82 0.020468 -1.531
8.91190000 0.020450 26.026 0.999779 -77.82 0.999779 -77.82 0.020437 -1.618
8.91200000 0.020419 26.107 0.999780 -77.82 0.999780 -77.82 0.020405 -1.706
8.91210000 0.020388 26.188 0.999780 -77.83 0.999780 -77.83 0.020374 -1.794
8.91220000 0.020356 26.270 0.999781 -77.83 0.999781 -77.83 0.020343 -1.882
8.91230000 0.020325 26.353 0.999781 -77.83 0.999781 -77.83 0.020311 -1.972
8.91240000 0.020293 26.436 0.999782 -77.84 0.999782 -77.84 0.020280 -2.062
8.91250000 0.020262 26.520 0.999783 -77.84 0.999783 -77.84 0.020248 -2.152
8.91260000 0.020230 26.605 0.999783 -77.84 0.999783 -77.84 0.020216 -2.244
8.91270000 0.020199 26.690 0.999784 -77.85 0.999784 -77.85 0.020185 -2.336
8.91280000 0.020167 26.776 0.999784 -77.85 0.999784 -77.85 0.020153 -2.428
8.91290000 0.020135 26.862 0.999785 -77.85 0.999785 -77.85 0.020121 -2.521
8.91300000 0.020103 26.949 0.999786 -77.86 0.999786 -77.86 0.020089 -2.615
8.91310000 0.020071 27.037 0.999786 -77.86 0.999786 -77.86 0.020057 -2.710
8.91320000 0.020039 27.126 0.999787 -77.86 0.999787 -77.86 0.020024 -2.805
8.91330000 0.020007 27.215 0.999788 -77.87 0.999788 -77.87 0.019992 -2.901
8.91340000 0.019974 27.304 0.999788 -77.87 0.999788 -77.87 0.019960 -2.998
8.91350000 0.019942 27.395 0.999789 -77.88 0.999789 -77.88 0.019927 -3.095
8.91360000 0.019909 27.486 0.999789 -77.88 0.999789 -77.88 0.019895 -3.193
8.91370000 0.019877 27.578 0.999790 -77.88 0.999790 -77.88 0.019862 -3.292
8.91380000 0.019844 27.671 0.999791 -77.89 0.999791 -77.89 0.019829 -3.391
8.91390000 0.019812 27.764 0.999791 -77.89 0.999791 -77.89 0.019797 -3.492
8.91400000 0.019779 27.858 0.999792 -77.89 0.999792 -77.89 0.019764 -3.593
8.91410000 0.019746 27.953 0.999792 -77.90 0.999792 -77.90 0.019731 -3.694
8.91420000 0.019713 28.048 0.999793 -77.90 0.999793 -77.90 0.019698 -3.797
8.91430000 0.019680 28.144 0.999794 -77.90 0.999794 -77.90 0.019665 -3.900
8.91440000 0.019647 28.241 0.999794 -77.91 0.999794 -77.91 0.019631 -4.004
8.91450000 0.019614 28.339 0.999795 -77.91 0.999795 -77.91 0.019598 -4.109
8.91460000 0.019580 28.437 0.999795 -77.91 0.999795 -77.91 0.019565 -4.215
8.91470000 0.019547 28.537 0.999796 -77.92 0.999796 -77.92 0.019531 -4.321
8.91480000 0.019514 28.637 0.999797 -77.92 0.999797 -77.92 0.019498 -4.429
8.91490000 0.019480 28.738 0.999797 -77.93 0.999797 -77.93 0.019464 -4.537
8.91500000 0.019446 28.839 0.999798 -77.93 0.999798 -77.93 0.019430 -4.646
8.91510000 0.019413 28.942 0.999798 -77.93 0.999798 -77.93 0.019397 -4.755
8.91520000 0.019379 29.045 0.999799 -77.94 0.999799 -77.94 0.019363 -4.866
8.91530000 0.019345 29.149 0.999800 -77.94 0.999800 -77.94 0.019329 -4.977
8.91540000 0.019311 29.254 0.999800 -77.94 0.999800 -77.94 0.019295 -5.090
8.91550000 0.019277 29.360 0.999801 -77.95 0.999801 -77.95 0.019261 -5.203
8.91560000 0.019243 29.467 0.999802 -77.95 0.999802 -77.95 0.019227 -5.317
8.91570000 0.019209 29.574 0.999802 -77.96 0.999802 -77.96 0.019192 -5.432
8.91580000 0.019175 29.683 0.999803 -77.96 0.999803 -77.96 0.019158 -5.548
8.91590000 0.019140 29.792 0.999803 -77.96 0.999803 -77.96 0.019124 -5.664
8.91600000 0.019106 29.902 0.999804 -77.97 0.999804 -77.97 0.019089 -5.782
8.91610000 0.019072 30.013 0.999805 -77.97 0.999805 -77.97 0.019055 -5.901
8.91620000 0.019037 30.125 0.999805 -77.98 0.999805 -77.98 0.019020 -6.020
8.91630000 0.019002 30.238 0.999806 -77.98 0.999806 -77.98 0.018985 -6.141
8.91640000 0.018968 30.352 0.999806 -77.98 0.999806 -77.98 0.018950 -6.262
8.91650000 0.018933 30.467 0.999807 -77.99 0.999807 -77.99 0.018915 -6.385
8.91660000 0.018898 30.583 0.999808 -77.99 0.999808 -77.99 0.018881 -6.508
8.91670000 0.018863 30.699 0.999808 -77.99 0.999808 -77.99 0.018845 -6.633
8.91680000 0.018828 30.817 0.999809 -78.00 0.999809 -78.00 0.018810 -6.758
8.91690000 0.018793 30.936 0.999809 -78.00 0.999809 -78.00 0.018775 -6.885
8.91700000 0.018758 31.056 0.999810 -78.01 0.999810 -78.01 0.018740 -7.012
8.91710000 0.018723 31.177 0.999811 -78.01 0.999811 -78.01 0.018705 -7.141
8.91720000 0.018688 31.298 0.999811 -78.01 0.999811 -78.01 0.018669 -7.270
8.91730000 0.018652 31.421 0.999812 -78.02 0.999812 -78.02 0.018634 -7.401
8.91740000 0.018617 31.545 0.999813 -78.02 0.999813 -78.02 0.018598 -7.533
8.91750000 0.018581 31.670 0.999813 -78.03 0.999813 -78.03 0.018563 -7.666
8.91760000 0.018546 31.796 0.999814 -78.03 0.999814 -78.03 0.018527 -7.800
8.91770000 0.018510 31.923 0.999814 -78.03 0.999814 -78.03 0.018491 -7.935
8.91780000 0.018475 32.051 0.999815 -78.04 0.999815 -78.04 0.018455 -8.071
8.91790000 0.018439 32.181 0.999816 -78.04 0.999816 -78.04 0.018420 -8.208
8.91800000 0.018403 32.311 0.999816 -78.05 0.999816 -78.05 0.018384 -8.347
8.91810000 0.018367 32.443 0.999817 -78.05 0.999817 -78.05 0.018348 -8.486
8.91820000 0.018331 32.575 0.999817 -78.06 0.999817 -78.06 0.018312 -8.627
8.91830000 0.018295 32.709 0.999818 -78.06 0.999818 -78.06 0.018275 -8.769
8.91840000 0.018259 32.844 0.999819 -78.06 0.999819 -78.06 0.018239 -8.912
8.91850000 0.018223 32.981 0.999819 -78.07 0.999819 -78.07 0.018203 -9.057
8.91860000 0.018187 33.118 0.999820 -78.07 0.999820 -78.07 0.018167 -9.203
8.91870000 0.018151 33.257 0.999820 -78.08 0.999820 -78.08 0.018130 -9.350
8.91880000 0.018114 33.397 0.999821 -78.08 0.999821 -78.08 0.018094 -9.498
8.91890000 0.018078 33.538 0.999822 -78.08 0.999822 -78.08 0.018057 -9.647
8.91900000 0.018042 33.680 0.999822 -78.09 0.999822 -78.09 0.018021 -9.798
8.91910000 0.018005 33.824 0.999823 -78.09 0.999823 -78.09 0.017984 -9.950
8.91920000 0.017969 33.969 0.999823 -78.10 0.999823 -78.10 0.017948 -10.10
8.91930000 0.017932 34.115 0.999824 -78.10 0.999824 -78.10 0.017911 -10.26
8.91940000 0.017895 34.263 0.999825 -78.11 0.999825 -78.11 0.017874 -10.41
8.91950000 0.017859 34.412 0.999825 -78.11 0.999825 -78.11 0.017837 -10.57
8.91960000 0.017822 34.562 0.999826 -78.12 0.999826 -78.12 0.017800 -10.73
8.91970000 0.017785 34.714 0.999826 -78.12 0.999826 -78.12 0.017764 -10.89
8.91980000 0.017748 34.867 0.999827 -78.12 0.999827 -78.12 0.017727 -11.05
8.91990000 0.017712 35.022 0.999828 -78.13 0.999828 -78.13 0.017690 -11.22
8.92000000 0.017675 35.178 0.999828 -78.13 0.999828 -78.13 0.017653 -11.38
8.92010000 0.017638 35.335 0.999829 -78.14 0.999829 -78.14 0.017616 -11.55
8.92020000 0.017601 35.494 0.999829 -78.14 0.999829 -78.14 0.017578 -11.71
8.92030000 0.017564 35.654 0.999830 -78.15 0.999830 -78.15 0.017541 -11.88
8.92040000 0.017527 35.816 0.999831 -78.15 0.999831 -78.15 0.017504 -12.05
8.92050000 0.017490 35.979 0.999831 -78.16 0.999831 -78.16 0.017467 -12.23
8.92060000 0.017453 36.144 0.999832 -78.16 0.999832 -78.16 0.017430 -12.40
8.92070000 0.017416 36.310 0.999832 -78.16 0.999832 -78.16 0.017392 -12.58
8.92080000 0.017378 36.478 0.999833 -78.17 0.999833 -78.17 0.017355 -12.75
8.92090000 0.017341 36.648 0.999833 -78.17 0.999833 -78.17 0.017318 -12.93
8.92100000 0.017304 36.819 0.999834 -78.18 0.999834 -78.18 0.017280 -13.11
8.92110000 0.017267 36.992 0.999835 -78.18 0.999835 -78.18 0.017243 -13.29
8.92120000 0.017230 37.166 0.999835 -78.19 0.999835 -78.19 0.017205 -13.48
8.92130000 0.017192 37.342 0.999836 -78.19 0.999836 -78.19 0.017168 -13.66
8.92140000 0.017155 37.520 0.999836 -78.20 0.999836 -78.20 0.017131 -13.85
8.92150000 0.017118 37.699 0.999837 -78.20 0.999837 -78.20 0.017093 -14.04
8.92160000 0.017080 37.880 0.999837 -78.21 0.999837 -78.21 0.017056 -14.23
8.92170000 0.017043 38.063 0.999838 -78.21 0.999838 -78.21 0.017018 -14.42
8.92180000 0.017006 38.248 0.999839 -78.22 0.999839 -78.22 0.016981 -14.61
8.92190000 0.016969 38.434 0.999839 -78.22 0.999839 -78.22 0.016943 -14.81
8.92200000 0.016931 38.622 0.999840 -78.23 0.999840 -78.23 0.016906 -15.01
8.92210000 0.016894 38.812 0.999840 -78.23 0.999840 -78.23 0.016868 -15.21
8.92220000 0.016857 39.004 0.999841 -78.24 0.999841 -78.24 0.016831 -15.41
8.92230000 0.016819 39.198 0.999841 -78.24 0.999841 -78.24 0.016793 -15.61
8.92240000 0.016782 39.394 0.999842 -78.24 0.999842 -78.24 0.016756 -15.82
8.92250000 0.016745 39.591 0.999842 -78.25 0.999842 -78.25 0.016718 -16.02
8.92260000 0.016708 39.791 0.999843 -78.25 0.999843 -78.25 0.016681 -16.23
8.92270000 0.016670 39.992 0.999844 -78.26 0.999844 -78.26 0.016643 -16.45
8.92280000 0.016633 40.195 0.999844 -78.26 0.999844 -78.26 0.016606 -16.66
8.92290000 0.016596 40.401 0.999845 -78.27 0.999845 -78.27 0.016569 -16.87
8.92300000 0.016559 40.608 0.999845 -78.27 0.999845 -78.27 0.016531 -17.09
8.92310000 0.016522 40.818 0.999846 -78.28 0.999846 -78.28 0.016494 -17.31
8.92320000 0.016485 41.029 0.999846 -78.28 0.999846 -78.28 0.016457 -17.53
8.92330000 0.016448 41.243 0.999847 -78.29 0.999847 -78.29 0.016420 -17.76
8.92340000 0.016411 41.459 0.999847 -78.29 0.999847 -78.29 0.016382 -17.98
8.92350000 0.016374 41.677 0.999848 -78.30 0.999848 -78.30 0.016345 -18.21
8.92360000 0.016337 41.897 0.999848 -78.31 0.999848 -78.31 0.016308 -18.44
8.92370000 0.016300 42.119 0.999849 -78.31 0.999849 -78.31 0.016271 -18.67
8.92380000 0.016263 42.344 0.999849 -78.32 0.999849 -78.32 0.016234 -18.91
8.92390000 0.016227 42.571 0.999850 -78.32 0.999850 -78.32 0.016197 -19.15
8.92400000 0.016190 42.800 0.999850 -78.33 0.999850 -78.33 0.016160 -19.38
8.92410000 0.016154 43.031 0.999851 -78.33 0.999851 -78.33 0.016124 -19.63
8.92420000 0.016117 43.265 0.999851 -78.34 0.999851 -78.34 0.016087 -19.87
8.92430000 0.016081 43.501 0.999852 -78.34 0.999852 -78.34 0.016050 -20.12
8.92440000 0.016044 43.740 0.999852 -78.35 0.999852 -78.35 0.016014 -20.37
8.92450000 0.016008 43.980 0.999853 -78.35 0.999853 -78.35 0.015978 -20.62
8.92460000 0.015972 44.224 0.999853 -78.36 0.999853 -78.36 0.015941 -20.87
8.92470000 0.015936 44.470 0.999854 -78.36 0.999854 -78.36 0.015905 -21.13
8.92480000 0.015900 44.718 0.999854 -78.37 0.999854 -78.37 0.015869 -21.39
8.92490000 0.015865 44.969 0.999855 -78.37 0.999855 -78.37 0.015833 -21.65
8.92500000 0.015829 45.222 0.999855 -78.38 0.999855 -78.38 0.015797 -21.91
8.92510000 0.015794 45.478 0.999856 -78.39 0.999856 -78.39 0.015761 -22.18
8.92520000 0.015758 45.737 0.999856 -78.39 0.999856 -78.39 0.015726 -22.45
8.92530000 0.015723 45.998 0.999857 -78.40 0.999857 -78.40 0.015690 -22.72
8.92540000 0.015688 46.262 0.999857 -78.40 0.999857 -78.40 0.015655 -23.00
8.92550000 0.015653 46.528 0.999858 -78.41 0.999858 -78.41 0.015620 -23.28
8.92560000 0.015618 46.797 0.999858 -78.41 0.999858 -78.41 0.015585 -23.56
8.92570000 0.015584 47.069 0.999859 -78.42 0.999859 -78.42 0.015550 -23.84
8.92580000 0.015549 47.344 0.999859 -78.42 0.999859 -78.42 0.015515 -24.13
8.92590000 0.015515 47.622 0.999859 -78.43 0.999859 -78.43 0.015481 -24.42
8.92600000 0.015481 47.902 0.999860 -78.44 0.999860 -78.44 0.015447 -24.71
8.92610000 0.015447 48.186 0.999860 -78.44 0.999860 -78.44 0.015413 -25.00
8.92620000 0.015414 48.472 0.999861 -78.45 0.999861 -78.45 0.015379 -25.30
8.92630000 0.015380 48.761 0.999861 -78.45 0.999861 -78.45 0.015345 -25.60
8.92640000 0.015347 49.053 0.999862 -78.46 0.999862 -78.46 0.015312 -25.91
8.92650000 0.015314 49.348 0.999862 -78.46 0.999862 -78.46 0.015278 -26.21
8.92660000 0.015282 49.646 0.999862 -78.47 0.999862 -78.47 0.015245 -26.52
8.92670000 0.015249 49.947 0.999863 -78.48 0.999863 -78.48 0.015213 -26.84
8.92680000 0.015217 50.251 0.999863 -78.48 0.999863 -78.48 0.015180 -27.15
8.92690000 0.015185 50.558 0.999864 -78.49 0.999864 -78.49 0.015148 -27.47
8.92700000 0.015153 50.869 0.999864 -78.49 0.999864 -78.49 0.015116 -27.80
8.92710000 0.015122 51.182 0.999864 -78.50 0.999864 -78.50 0.015084 -28.12
8.92720000 0.015091 51.499 0.999865 -78.51 0.999865 -78.51 0.015053 -28.45
8.92730000 0.015060 51.819 0.999865 -78.51 0.999865 -78.51 0.015022 -28.78
8.92740000 0.015030 52.142 0.999865 -78.52 0.999865 -78.52 0.014991 -29.12
8.92750000 0.014999 52.468 0.999866 -78.53 0.999866 -78.53 0.014961 -29.46
8.92760000 0.014970 52.798 0.999866 -78.53 0.999866 -78.53 0.014930 -29.80
8.92770000 0.014940 53.131 0.999866 -78.54 0.999866 -78.54 0.014901 -30.15
8.92780000 0.014911 53.467 0.999867 -78.54 0.999867 -78.54 0.014871 -30.50
8.92790000 0.014882 53.807 0.999867 -78.55 0.999867 -78.55 0.014842 -30.85
8.92800000 0.014854 54.150 0.999867 -78.56 0.999867 -78.56 0.014813 -31.21
8.92810000 0.014826 54.497 0.999868 -78.56 0.999868 -78.56 0.014785 -31.57
8.92820000 0.014798 54.847 0.999868 -78.57 0.999868 -78.57 0.014757 -31.93
8.92830000 0.014771 55.200 0.999868 -78.58 0.999868 -78.58 0.014730 -32.30
8.92840000 0.014744 55.557 0.999868 -78.58 0.999868 -78.58 0.014703 -32.67
8.92850000 0.014718 55.917 0.999869 -78.59 0.999869 -78.59 0.014676 -33.04
8.92860000 0.014692 56.281 0.999869 -78.60 0.999869 -78.60 0.014650 -33.42
8.92870000 0.014667 56.648 0.999869 -78.60 0.999869 -78.60 0.014624 -33.80
8.92880000 0.014642 57.019 0.999869 -78.61 0.999869 -78.61 0.014599 -34.18
8.92890000 0.014617 57.394 0.999870 -78.62 0.999870 -78.62 0.014574 -34.57
8.92900000 0.014593 57.772 0.999870 -78.62 0.999870 -78.62 0.014550 -34.97
8.92910000 0.014570 58.154 0.999870 -78.63 0.999870 -78.63 0.014526 -35.36
8.92920000 0.014547 58.539 0.999870 -78.64 0.999870 -78.64 0.014503 -35.76
8.92930000 0.014525 58.928 0.999870 -78.64 0.999870 -78.64 0.014480 -36.17
8.92940000 0.014503 59.321 0.999871 -78.65 0.999871 -78.65 0.014458 -36.57
8.92950000 0.014482 59.717 0.999871 -78.66 0.999871 -78.66 0.014436 -36.98
8.92960000 0.014461 60.117 0.999871 -78.66 0.999871 -78.66 0.014415 -37.40
8.92970000 0.014441 60.521 0.999871 -78.67 0.999871 -78.67 0.014395 -37.82
8.92980000 0.014422 60.928 0.999871 -78.68 0.999871 -78.68 0.014375 -38.24
8.92990000 0.014403 61.340 0.999871 -78.68 0.999871 -78.68 0.014356 -38.67
8.93000000 0.014385 61.754 0.999872 -78.69 0.999872 -78.69 0.014338 -39.10
8.93010000 0.014368 62.173 0.999872 -78.70 0.999872 -78.70 0.014320 -39.53
8.93020000 0.014351 62.595 0.999872 -78.71 0.999872 -78.71 0.014303 -39.97
8.93030000 0.014335 63.021 0.999872 -78.71 0.999872 -78.71 0.014287 -40.41
8.93040000 0.014320 63.451 0.999872 -78.72 0.999872 -78.72 0.014271 -40.85
8.93050000 0.014305 63.884 0.999872 -78.73 0.999872 -78.73 0.014256 -41.30
8.93060000 0.014291 64.321 0.999872 -78.73 0.999872 -78.73 0.014242 -41.76
8.93070000 0.014278 64.762 0.999872 -78.74 0.999872 -78.74 0.014229 -42.21
8.93080000 0.014266 65.207 0.999872 -78.75 0.999872 -78.75 0.014216 -42.67
8.93090000 0.014255 65.655 0.999872 -78.76 0.999872 -78.76 0.014204 -43.14
8.93100000 0.014244 66.107 0.999872 -78.76 0.999872 -78.76 0.014193 -43.61
8.93110000 0.014234 66.562 0.999872 -78.77 0.999872 -78.77 0.014183 -44.08
8.93120000 0.014226 67.021 0.999872 -78.78 0.999872 -78.78 0.014174 -44.56
8.93130000 0.014218 67.484 0.999872 -78.79 0.999872 -78.79 0.014166 -45.03
8.93140000 0.014211 67.951 0.999872 -78.79 0.999872 -78.79 0.014158 -45.52
8.93150000 0.014205 68.420 0.999872 -78.80 0.999872 -78.80 0.014152 -46.01
8.93160000 0.014200 68.894 0.999872 -78.81 0.999872 -78.81 0.014147 -46.50
8.93170000 0.014195 69.371 0.999872 -78.82 0.999872 -78.82 0.014142 -46.99
8.93180000 0.014192 69.851 0.999872 -78.83 0.999872 -78.83 0.014139 -47.49
8.93190000 0.014190 70.335 0.999871 -78.83 0.999871 -78.83 0.014136 -47.99
8.93200000 0.014189 70.823 0.999871 -78.84 0.999871 -78.84 0.014135 -48.49
8.93210000 0.014189 71.313 0.999871 -78.85 0.999871 -78.85 0.014134 -49.00
8.93220000 0.014190 71.808 0.999871 -78.86 0.999871 -78.86 0.014135 -49.52
8.93230000 0.014192 72.305 0.999871 -78.87 0.999871 -78.87 0.014137 -50.03
8.93240000 0.014196 72.805 0.999870 -78.87 0.999870 -78.87 0.014140 -50.55
8.93250000 0.014200 73.309 0.999870 -78.88 0.999870 -78.88 0.014144 -51.07
8.93260000 0.014206 73.816 0.999870 -78.89 0.999870 -78.89 0.014149 -51.60
8.93270000 0.014213 74.326 0.999870 -78.90 0.999870 -78.90 0.014156 -52.13
8.93280000 0.014221 74.839 0.999869 -78.91 0.999869 -78.91 0.014163 -52.66
8.93290000 0.014230 75.355 0.999869 -78.91 0.999869 -78.91 0.014172 -53.19
8.93300000 0.014241 75.874 0.999869 -78.92 0.999869 -78.92 0.014183 -53.73
8.93310000 0.014253 76.396 0.999868 -78.93 0.999868 -78.93 0.014194 -54.27
8.93320000 0.014266 76.921 0.999868 -78.94 0.999868 -78.94 0.014207 -54.82
8.93330000 0.014280 77.448 0.999868 -78.95 0.999868 -78.95 0.014221 -55.36
8.93340000 0.014296 77.978 0.999867 -78.96 0.999867 -78.96 0.014237 -55.91
8.93350000 0.014313 78.510 0.999867 -78.97 0.999867 -78.97 0.014254 -56.47
8.93360000 0.014332 79.045 0.999866 -78.97 0.999866 -78.97 0.014272 -57.02
8.93370000 0.014352 79.583 0.999866 -78.98 0.999866 -78.98 0.014292 -57.58
8.93380000 0.014374 80.122 0.999865 -78.99 0.999865 -78.99 0.014313 -58.14
8.93390000 0.014397 80.664 0.999865 -79.00 0.999865 -79.00 0.014336 -58.70
8.93400000 0.014422 81.208 0.999864 -79.01 0.999864 -79.01 0.014360 -59.26
8.93410000 0.014448 81.754 0.999864 -79.02 0.999864 -79.02 0.014386 -59.83
8.93420000 0.014475 82.302 0.999863 -79.03 0.999863 -79.03 0.014413 -60.40
8.93430000 0.014505 82.852 0.999862 -79.04 0.999862 -79.04 0.014442 -60.97
8.93440000 0.014536 83.404 0.999862 -79.05 0.999862 -79.05 0.014473 -61.54
8.93450000 0.014568 83.957 0.999861 -79.06 0.999861 -79.06 0.014505 -62.12
8.93460000 0.014602 84.512 0.999860 -79.07 0.999860 -79.07 0.014539 -62.69
8.93470000 0.014638 85.068 0.999859 -79.08 0.999859 -79.08 0.014574 -63.27
8.93480000 0.014676 85.626 0.999859 -79.08 0.999859 -79.08 0.014611 -63.85
8.93490000 0.014715 86.185 0.999858 -79.09 0.999858 -79.09 0.014650 -64.43
8.93500000 0.014756 86.745 0.999857 -79.10 0.999857 -79.10 0.014691 -65.02
8.93510000 0.014799 87.306 0.999856 -79.11 0.999856 -79.11 0.014734 -65.60
8.93520000 0.014843 87.868 0.999855 -79.12 0.999855 -79.12 0.014778 -66.18
8.93530000 0.014890 88.430 0.999854 -79.13 0.999854 -79.13 0.014824 -66.77
8.93540000 0.014938 88.994 0.999853 -79.14 0.999853 -79.14 0.014872 -67.35
8.93550000 0.014988 89.558 0.999852 -79.15 0.999852 -79.15 0.014922 -67.94
8.93560000 0.015040 90.122 0.999851 -79.16 0.999851 -79.16 0.014974 -68.53
8.93570000 0.015094 90.687 0.999850 -79.17 0.999850 -79.17 0.015028 -69.12
8.93580000 0.015150 91.252 0.999849 -79.18 0.999849 -79.18 0.015083 -69.70
8.93590000 0.015208 91.817 0.999848 -79.19 0.999848 -79.19 0.015141 -70.29
8.93600000 0.015268 92.382 0.999847 -79.20 0.999847 -79.20 0.015201 -70.88
8.93610000 0.015330 92.947 0.999846 -79.21 0.999846 -79.21 0.015262 -71.47
8.93620000 0.015394 93.512 0.999844 -79.22 0.999844 -79.22 0.015326 -72.06
8.93630000 0.015460 94.076 0.999843 -79.24 0.999843 -79.24 0.015392 -72.65
8.93640000 0.015528 94.640 0.999842 -79.25 0.999842 -79.25 0.015460 -73.23
8.93650000 0.015599 95.203 0.999840 -79.26 0.999840 -79.26 0.015530 -73.82
8.93660000 0.015671 95.765 0.999839 -79.27 0.999839 -79.27 0.015602 -74.41
8.93670000 0.015746 96.327 0.999838 -79.28 0.999838 -79.28 0.015676 -75.00
8.93680000 0.015822 96.888 0.999836 -79.29 0.999836 -79.29 0.015753 -75.58
8.93690000 0.015901 97.448 0.999834 -79.30 0.999834 -79.30 0.015832 -76.17
8.93700000 0.015982 98.006 0.999833 -79.31 0.999833 -79.31 0.015913 -76.75
8.93710000 0.016066 98.563 0.999831 -79.32 0.999831 -79.32 0.015996 -77.33
8.93720000 0.016152 99.119 0.999830 -79.33 0.999830 -79.33 0.016081 -77.91
8.93730000 0.016240 99.674 0.999828 -79.34 0.999828 -79.34 0.016169 -78.49
8.93740000 0.016330 100.23 0.999826 -79.36 0.999826 -79.36 0.016259 -79.07
8.93750000 0.016423 100.78 0.999824 -79.37 0.999824 -79.37 0.016352 -79.65
8.93760000 0.016518 101.33 0.999822 -79.38 0.999822 -79.38 0.016447 -80.22
8.93770000 0.016615 101.87 0.999820 -79.39 0.999820 -79.39 0.016544 -80.80
8.93780000 0.016715 102.42 0.999818 -79.40 0.999818 -79.40 0.016644 -81.37
8.93790000 0.016817 102.96 0.999816 -79.41 0.999816 -79.41 0.016746 -81.94
8.93800000 0.016922 103.50 0.999814 -79.43 0.999814 -79.43 0.016850 -82.51
8.93810000 0.017029 104.04 0.999812 -79.44 0.999812 -79.44 0.016957 -83.07
8.93820000 0.017139 104.58 0.999810 -79.45 0.999810 -79.45 0.017067 -83.64
8.93830000 0.017251 105.11 0.999808 -79.46 0.999808 -79.46 0.017179 -84.20
8.93840000 0.017366 105.64 0.999805 -79.48 0.999805 -79.48 0.017294 -84.76
8.93850000 0.017483 106.17 0.999803 -79.49 0.999803 -79.49 0.017411 -85.31
8.93860000 0.017603 106.70 0.999800 -79.50 0.999800 -79.50 0.017531 -85.87
8.93870000 0.017725 107.22 0.999798 -79.51 0.999798 -79.51 0.017653 -86.42
8.93880000 0.017851 107.74 0.999795 -79.53 0.999795 -79.53 0.017778 -86.96
8.93890000 0.017978 108.26 0.999793 -79.54 0.999793 -79.54 0.017906 -87.51
8.93900000 0.018109 108.77 0.999790 -79.55 0.999790 -79.55 0.018036 -88.05
8.93910000 0.018242 109.29 0.999787 -79.57 0.999787 -79.57 0.018169 -88.59
8.93920000 0.018378 109.79 0.999784 -79.58 0.999784 -79.58 0.018305 -89.13