! Sonnet Data File
! From: emgraph Version : 16.52
! From Project: Resonator2_extremeCap2
! Data is De-embedded 
! Data File Written: 10/10/2017 08:27:13
!< HDATE 10/10/2017 01:06:54
!< MDATE 10/10/2017 01:06:54
!< PARAMS
!< Pwid1 = 2000.0
!< Pwid2 = 2000.0
!< Air_gap = 6.0
!< Width = 10.0
!< Gap = 3.0
!< END PARAMS
# GHZ S MA R 35.98000
8.98000000 0.410435 -28.78 0.911832 -84.73 0.911832 -84.73 0.410318 39.337
!< P1 F=8.98 Eeff=(5.37116343 -2.3769e-5) Z0=(35.9716001 8.05996e-5) R=0.0 C=0.0 
!< P2 F=8.98 Eeff=(5.37116343 -2.3769e-5) Z0=(35.9716001 8.05996e-5) R=0.0 C=0.0 
8.98010000 0.410259 -28.76 0.911912 -84.75 0.911912 -84.75 0.410142 39.275
8.98020000 0.410083 -28.75 0.911991 -84.77 0.911991 -84.77 0.409967 39.214
8.98030000 0.409909 -28.73 0.912069 -84.79 0.912069 -84.79 0.409792 39.153
8.98040000 0.409735 -28.71 0.912148 -84.81 0.912148 -84.81 0.409619 39.092
8.98050000 0.409562 -28.69 0.912226 -84.84 0.912226 -84.84 0.409446 39.031
8.98060000 0.409390 -28.67 0.912303 -84.86 0.912303 -84.86 0.409275 38.970
8.98070000 0.409218 -28.65 0.912380 -84.88 0.912380 -84.88 0.409104 38.910
8.98080000 0.409048 -28.63 0.912457 -84.90 0.912457 -84.90 0.408934 38.849
8.98090000 0.408878 -28.61 0.912533 -84.92 0.912533 -84.92 0.408764 38.789
8.98100000 0.408709 -28.59 0.912609 -84.94 0.912609 -84.94 0.408596 38.729
8.98110000 0.408541 -28.58 0.912684 -84.96 0.912684 -84.96 0.408428 38.669
8.98120000 0.408374 -28.56 0.912759 -84.98 0.912759 -84.98 0.408261 38.610
8.98130000 0.408208 -28.54 0.912834 -85.00 0.912834 -85.00 0.408095 38.550
8.98140000 0.408042 -28.52 0.912908 -85.02 0.912908 -85.02 0.407930 38.491
8.98150000 0.407877 -28.50 0.912982 -85.04 0.912982 -85.04 0.407765 38.432
8.98160000 0.407713 -28.48 0.913055 -85.06 0.913055 -85.06 0.407602 38.373
8.98170000 0.407549 -28.47 0.913129 -85.08 0.913129 -85.08 0.407439 38.315
8.98180000 0.407387 -28.45 0.913201 -85.10 0.913201 -85.10 0.407276 38.256
8.98190000 0.407225 -28.43 0.913274 -85.12 0.913274 -85.12 0.407115 38.198
8.98200000 0.407064 -28.41 0.913346 -85.14 0.913346 -85.14 0.406954 38.140
8.98210000 0.406904 -28.39 0.913417 -85.16 0.913417 -85.16 0.406794 38.082
8.98220000 0.406744 -28.37 0.913488 -85.18 0.913488 -85.18 0.406635 38.024
8.98230000 0.406585 -28.36 0.913559 -85.20 0.913559 -85.20 0.406477 37.967
8.98240000 0.406427 -28.34 0.913630 -85.22 0.913630 -85.22 0.406319 37.909
8.98250000 0.406270 -28.32 0.913700 -85.24 0.913700 -85.24 0.406162 37.852
8.98260000 0.406114 -28.30 0.913770 -85.26 0.913770 -85.26 0.406006 37.795
8.98270000 0.405958 -28.28 0.913839 -85.28 0.913839 -85.28 0.405850 37.738
8.98280000 0.405803 -28.27 0.913908 -85.30 0.913908 -85.30 0.405696 37.681
8.98290000 0.405648 -28.25 0.913977 -85.32 0.913977 -85.32 0.405542 37.625
8.98300000 0.405494 -28.23 0.914045 -85.34 0.914045 -85.34 0.405388 37.569
8.98310000 0.405341 -28.21 0.914113 -85.36 0.914113 -85.36 0.405236 37.512
8.98320000 0.405189 -28.20 0.914181 -85.38 0.914181 -85.38 0.405084 37.456
8.98330000 0.405038 -28.18 0.914248 -85.39 0.914248 -85.39 0.404932 37.400
8.98340000 0.404887 -28.16 0.914315 -85.41 0.914315 -85.41 0.404782 37.345
8.98350000 0.404737 -28.14 0.914382 -85.43 0.914382 -85.43 0.404632 37.289
8.98360000 0.404587 -28.12 0.914448 -85.45 0.914448 -85.45 0.404483 37.234
8.98370000 0.404438 -28.11 0.914514 -85.47 0.914514 -85.47 0.404334 37.179
8.98380000 0.404290 -28.09 0.914580 -85.49 0.914580 -85.49 0.404187 37.124
8.98390000 0.404143 -28.07 0.914645 -85.51 0.914645 -85.51 0.404040 37.069
8.98400000 0.403996 -28.06 0.914710 -85.53 0.914710 -85.53 0.403893 37.014
8.98410000 0.403850 -28.04 0.914775 -85.54 0.914775 -85.54 0.403747 36.960
8.98420000 0.403704 -28.02 0.914839 -85.56 0.914839 -85.56 0.403602 36.905
8.98430000 0.403560 -28.00 0.914903 -85.58 0.914903 -85.58 0.403458 36.851
8.98440000 0.403416 -27.99 0.914967 -85.60 0.914967 -85.60 0.403314 36.797
8.98450000 0.403272 -27.97 0.915030 -85.62 0.915030 -85.62 0.403171 36.743
8.98460000 0.403129 -27.95 0.915094 -85.64 0.915094 -85.64 0.403028 36.689
8.98470000 0.402987 -27.93 0.915156 -85.65 0.915156 -85.65 0.402887 36.636
8.98480000 0.402846 -27.92 0.915219 -85.67 0.915219 -85.67 0.402745 36.583
8.98490000 0.402705 -27.90 0.915281 -85.69 0.915281 -85.69 0.402605 36.529
8.98500000 0.402564 -27.88 0.915343 -85.71 0.915343 -85.71 0.402465 36.476
8.98510000 0.402425 -27.87 0.915404 -85.73 0.915404 -85.73 0.402326 36.423
8.98520000 0.402286 -27.85 0.915466 -85.74 0.915466 -85.74 0.402187 36.370
8.98530000 0.402147 -27.83 0.915527 -85.76 0.915527 -85.76 0.402049 36.318
8.98540000 0.402010 -27.82 0.915587 -85.78 0.915587 -85.78 0.401911 36.265
8.98550000 0.401873 -27.80 0.915648 -85.80 0.915648 -85.80 0.401775 36.213
8.98560000 0.401736 -27.78 0.915708 -85.82 0.915708 -85.82 0.401638 36.161
8.98570000 0.401600 -27.76 0.915767 -85.83 0.915767 -85.83 0.401503 36.109
8.98580000 0.401465 -27.75 0.915827 -85.85 0.915827 -85.85 0.401368 36.057
8.98590000 0.401330 -27.73 0.915886 -85.87 0.915886 -85.87 0.401233 36.005
8.98600000 0.401196 -27.71 0.915945 -85.89 0.915945 -85.89 0.401099 35.954
8.98610000 0.401062 -27.70 0.916004 -85.90 0.916004 -85.90 0.400966 35.902
8.98620000 0.400930 -27.68 0.916062 -85.92 0.916062 -85.92 0.400834 35.851
8.98630000 0.400797 -27.67 0.916120 -85.94 0.916120 -85.94 0.400702 35.800
8.98640000 0.400665 -27.65 0.916178 -85.95 0.916178 -85.95 0.400570 35.749
8.98650000 0.400534 -27.63 0.916235 -85.97 0.916235 -85.97 0.400439 35.698
8.98660000 0.400404 -27.62 0.916292 -85.99 0.916292 -85.99 0.400309 35.648
8.98670000 0.400274 -27.60 0.916349 -86.01 0.916349 -86.01 0.400179 35.597
8.98680000 0.400144 -27.58 0.916406 -86.02 0.916406 -86.02 0.400050 35.547
8.98690000 0.400015 -27.57 0.916462 -86.04 0.916462 -86.04 0.399922 35.496
8.98700000 0.399887 -27.55 0.916519 -86.06 0.916519 -86.06 0.399793 35.446
8.98710000 0.399759 -27.53 0.916574 -86.07 0.916574 -86.07 0.399666 35.396
8.98720000 0.399632 -27.52 0.916630 -86.09 0.916630 -86.09 0.399539 35.347
8.98730000 0.399505 -27.50 0.916685 -86.11 0.916685 -86.11 0.399413 35.297
8.98740000 0.399379 -27.49 0.916740 -86.12 0.916740 -86.12 0.399287 35.247
8.98750000 0.399254 -27.47 0.916795 -86.14 0.916795 -86.14 0.399162 35.198
8.98760000 0.399129 -27.45 0.916850 -86.16 0.916850 -86.16 0.399037 35.149
8.98770000 0.399004 -27.44 0.916904 -86.17 0.916904 -86.17 0.398913 35.100
8.98780000 0.398880 -27.42 0.916958 -86.19 0.916958 -86.19 0.398789 35.051
8.98790000 0.398757 -27.41 0.917012 -86.21 0.917012 -86.21 0.398666 35.002
8.98800000 0.398634 -27.39 0.917065 -86.22 0.917065 -86.22 0.398544 34.953
8.98810000 0.398512 -27.37 0.917119 -86.24 0.917119 -86.24 0.398422 34.905
8.98820000 0.398390 -27.36 0.917172 -86.26 0.917172 -86.26 0.398300 34.856
8.98830000 0.398269 -27.34 0.917225 -86.27 0.917225 -86.27 0.398179 34.808
8.98840000 0.398148 -27.33 0.917277 -86.29 0.917277 -86.29 0.398059 34.760
8.98850000 0.398028 -27.31 0.917329 -86.30 0.917329 -86.30 0.397939 34.712
8.98860000 0.397908 -27.30 0.917382 -86.32 0.917382 -86.32 0.397819 34.664
8.98870000 0.397789 -27.28 0.917433 -86.34 0.917433 -86.34 0.397700 34.616
8.98880000 0.397670 -27.26 0.917485 -86.35 0.917485 -86.35 0.397582 34.568
8.98890000 0.397552 -27.25 0.917536 -86.37 0.917536 -86.37 0.397464 34.521
8.98900000 0.397435 -27.23 0.917587 -86.38 0.917587 -86.38 0.397347 34.474
8.98910000 0.397317 -27.22 0.917638 -86.40 0.917638 -86.40 0.397230 34.426
8.98920000 0.397201 -27.20 0.917689 -86.42 0.917689 -86.42 0.397113 34.379
8.98930000 0.397085 -27.19 0.917739 -86.43 0.917739 -86.43 0.396997 34.332
8.98940000 0.396969 -27.17 0.917789 -86.45 0.917789 -86.45 0.396882 34.286
8.98950000 0.396854 -27.16 0.917839 -86.46 0.917839 -86.46 0.396767 34.239
8.98960000 0.396739 -27.14 0.917889 -86.48 0.917889 -86.48 0.396653 34.192
8.98970000 0.396625 -27.13 0.917939 -86.49 0.917939 -86.49 0.396539 34.146
8.98980000 0.396511 -27.11 0.917988 -86.51 0.917988 -86.51 0.396425 34.100
8.98990000 0.396398 -27.09 0.918037 -86.52 0.918037 -86.52 0.396312 34.053
8.99000000 0.396285 -27.08 0.918086 -86.54 0.918086 -86.54 0.396200 34.007
8.99010000 0.396173 -27.06 0.918134 -86.56 0.918134 -86.56 0.396088 33.961
8.99020000 0.396061 -27.05 0.918183 -86.57 0.918183 -86.57 0.395976 33.916
8.99030000 0.395949 -27.03 0.918231 -86.59 0.918231 -86.59 0.395865 33.870
8.99040000 0.395839 -27.02 0.918279 -86.60 0.918279 -86.60 0.395754 33.824
8.99050000 0.395728 -27.00 0.918326 -86.62 0.918326 -86.62 0.395644 33.779
8.99060000 0.395618 -26.99 0.918374 -86.63 0.918374 -86.63 0.395534 33.734
8.99070000 0.395509 -26.97 0.918421 -86.65 0.918421 -86.65 0.395425 33.688
8.99080000 0.395400 -26.96 0.918468 -86.66 0.918468 -86.66 0.395316 33.643
8.99090000 0.395291 -26.94 0.918515 -86.68 0.918515 -86.68 0.395208 33.599
8.99100000 0.395183 -26.93 0.918562 -86.69 0.918562 -86.69 0.395100 33.554
8.99110000 0.395075 -26.91 0.918608 -86.71 0.918608 -86.71 0.394993 33.509
8.99120000 0.394968 -26.90 0.918654 -86.72 0.918654 -86.72 0.394886 33.464
8.99130000 0.394861 -26.89 0.918700 -86.74 0.918700 -86.74 0.394779 33.420
8.99140000 0.394755 -26.87 0.918746 -86.75 0.918746 -86.75 0.394673 33.376
8.99150000 0.394649 -26.86 0.918792 -86.77 0.918792 -86.77 0.394567 33.331
8.99160000 0.394543 -26.84 0.918837 -86.78 0.918837 -86.78 0.394462 33.287
8.99170000 0.394438 -26.83 0.918882 -86.80 0.918882 -86.80 0.394357 33.243
8.99180000 0.394334 -26.81 0.918927 -86.81 0.918927 -86.81 0.394253 33.199
8.99190000 0.394230 -26.80 0.918972 -86.82 0.918972 -86.82 0.394149 33.156
8.99200000 0.394126 -26.78 0.919017 -86.84 0.919017 -86.84 0.394045 33.112
8.99210000 0.394022 -26.77 0.919061 -86.85 0.919061 -86.85 0.393942 33.069
8.99220000 0.393920 -26.75 0.919105 -86.87 0.919105 -86.87 0.393839 33.025
8.99230000 0.393817 -26.74 0.919150 -86.88 0.919150 -86.88 0.393737 32.982
8.99240000 0.393715 -26.73 0.919193 -86.90 0.919193 -86.90 0.393635 32.939
8.99250000 0.393613 -26.71 0.919237 -86.91 0.919237 -86.91 0.393534 32.896
8.99260000 0.393512 -26.70 0.919280 -86.93 0.919280 -86.93 0.393433 32.853
8.99270000 0.393411 -26.68 0.919324 -86.94 0.919324 -86.94 0.393332 32.810
8.99280000 0.393311 -26.67 0.919367 -86.95 0.919367 -86.95 0.393232 32.767
8.99290000 0.393211 -26.65 0.919410 -86.97 0.919410 -86.97 0.393132 32.725
8.99300000 0.393111 -26.64 0.919452 -86.98 0.919452 -86.98 0.393033 32.682
8.99310000 0.393012 -26.63 0.919495 -87.00 0.919495 -87.00 0.392934 32.640
8.99320000 0.392913 -26.61 0.919537 -87.01 0.919537 -87.01 0.392835 32.598
8.99330000 0.392815 -26.60 0.919579 -87.02 0.919579 -87.02 0.392737 32.555
8.99340000 0.392717 -26.58 0.919621 -87.04 0.919621 -87.04 0.392640 32.513
8.99350000 0.392619 -26.57 0.919663 -87.05 0.919663 -87.05 0.392542 32.471
8.99360000 0.392522 -26.56 0.919705 -87.07 0.919705 -87.07 0.392445 32.430
8.99370000 0.392425 -26.54 0.919746 -87.08 0.919746 -87.08 0.392349 32.388
8.99380000 0.392329 -26.53 0.919787 -87.09 0.919787 -87.09 0.392252 32.346
8.99390000 0.392233 -26.51 0.919828 -87.11 0.919828 -87.11 0.392157 32.305
8.99400000 0.392137 -26.50 0.919869 -87.12 0.919869 -87.12 0.392061 32.263
8.99410000 0.392042 -26.49 0.919910 -87.14 0.919910 -87.14 0.391966 32.222
8.99420000 0.391947 -26.47 0.919950 -87.15 0.919950 -87.15 0.391871 32.181
8.99430000 0.391853 -26.46 0.919991 -87.16 0.919991 -87.16 0.391777 32.140
8.99440000 0.391758 -26.44 0.920031 -87.18 0.920031 -87.18 0.391683 32.099
8.99450000 0.391665 -26.43 0.920071 -87.19 0.920071 -87.19 0.391590 32.058
8.99460000 0.391571 -26.42 0.920111 -87.20 0.920111 -87.20 0.391496 32.017
8.99470000 0.391478 -26.40 0.920151 -87.22 0.920151 -87.22 0.391404 31.977
8.99480000 0.391386 -26.39 0.920190 -87.23 0.920190 -87.23 0.391311 31.936
8.99490000 0.391293 -26.38 0.920229 -87.24 0.920229 -87.24 0.391219 31.896
8.99500000 0.391201 -26.36 0.920269 -87.26 0.920269 -87.26 0.391127 31.855
8.99510000 0.391110 -26.35 0.920308 -87.27 0.920308 -87.27 0.391036 31.815
8.99520000 0.391019 -26.34 0.920346 -87.28 0.920346 -87.28 0.390945 31.775
8.99530000 0.390928 -26.32 0.920385 -87.30 0.920385 -87.30 0.390854 31.735
8.99540000 0.390837 -26.31 0.920424 -87.31 0.920424 -87.31 0.390764 31.695
8.99550000 0.390747 -26.30 0.920462 -87.32 0.920462 -87.32 0.390674 31.655
8.99560000 0.390658 -26.28 0.920500 -87.34 0.920500 -87.34 0.390585 31.616
8.99570000 0.390568 -26.27 0.920538 -87.35 0.920538 -87.35 0.390496 31.576
8.99580000 0.390479 -26.26 0.920576 -87.36 0.920576 -87.36 0.390407 31.537
8.99590000 0.390390 -26.24 0.920614 -87.38 0.920614 -87.38 0.390318 31.497
8.99600000 0.390302 -26.23 0.920651 -87.39 0.920651 -87.39 0.390230 31.458
8.99610000 0.390214 -26.22 0.920689 -87.40 0.920689 -87.40 0.390142 31.419
8.99620000 0.390126 -26.20 0.920726 -87.42 0.920726 -87.42 0.390055 31.379
8.99630000 0.390039 -26.19 0.920763 -87.43 0.920763 -87.43 0.389968 31.340
8.99640000 0.389952 -26.18 0.920800 -87.44 0.920800 -87.44 0.389881 31.302
8.99650000 0.389866 -26.16 0.920837 -87.45 0.920837 -87.45 0.389795 31.263
8.99660000 0.389779 -26.15 0.920873 -87.47 0.920873 -87.47 0.389708 31.224
8.99670000 0.389693 -26.14 0.920910 -87.48 0.920910 -87.48 0.389623 31.185
8.99680000 0.389608 -26.12 0.920946 -87.49 0.920946 -87.49 0.389537 31.147
8.99690000 0.389522 -26.11 0.920982 -87.50 0.920982 -87.50 0.389452 31.108
8.99700000 0.389437 -26.10 0.921018 -87.52 0.921018 -87.52 0.389367 31.070
8.99710000 0.389353 -26.09 0.921054 -87.53 0.921054 -87.53 0.389283 31.032
8.99720000 0.389268 -26.07 0.921090 -87.54 0.921090 -87.54 0.389199 30.994
8.99730000 0.389184 -26.06 0.921125 -87.56 0.921125 -87.56 0.389115 30.956
8.99740000 0.389101 -26.05 0.921161 -87.57 0.921161 -87.57 0.389032 30.918
8.99750000 0.389017 -26.03 0.921196 -87.58 0.921196 -87.58 0.388948 30.880
8.99760000 0.388934 -26.02 0.921231 -87.59 0.921231 -87.59 0.388866 30.842
8.99770000 0.388852 -26.01 0.921266 -87.61 0.921266 -87.61 0.388783 30.804
8.99780000 0.388769 -26.00 0.921301 -87.62 0.921301 -87.62 0.388701 30.767
8.99790000 0.388687 -25.98 0.921336 -87.63 0.921336 -87.63 0.388619 30.729
8.99800000 0.388606 -25.97 0.921370 -87.64 0.921370 -87.64 0.388537 30.692
8.99810000 0.388524 -25.96 0.921405 -87.65 0.921405 -87.65 0.388456 30.655
8.99820000 0.388443 -25.95 0.921439 -87.67 0.921439 -87.67 0.388375 30.617
8.99830000 0.388362 -25.93 0.921473 -87.68 0.921473 -87.68 0.388295 30.580
8.99840000 0.388282 -25.92 0.921507 -87.69 0.921507 -87.69 0.388214 30.543
8.99850000 0.388202 -25.91 0.921541 -87.70 0.921541 -87.70 0.388134 30.506
8.99860000 0.388122 -25.90 0.921575 -87.72 0.921575 -87.72 0.388055 30.469
8.99870000 0.388042 -25.88 0.921608 -87.73 0.921608 -87.73 0.387975 30.433
8.99880000 0.387963 -25.87 0.921642 -87.74 0.921642 -87.74 0.387896 30.396
8.99890000 0.387884 -25.86 0.921675 -87.75 0.921675 -87.75 0.387817 30.360
8.99900000 0.387805 -25.85 0.921708 -87.76 0.921708 -87.76 0.387739 30.323
8.99910000 0.387727 -25.83 0.921741 -87.78 0.921741 -87.78 0.387661 30.287
8.99920000 0.387649 -25.82 0.921774 -87.79 0.921774 -87.79 0.387583 30.250
8.99930000 0.387571 -25.81 0.921807 -87.80 0.921807 -87.80 0.387505 30.214
8.99940000 0.387493 -25.80 0.921840 -87.81 0.921840 -87.81 0.387428 30.178
8.99950000 0.387416 -25.78 0.921872 -87.82 0.921872 -87.82 0.387351 30.142
8.99960000 0.387339 -25.77 0.921905 -87.84 0.921905 -87.84 0.387274 30.106
8.99970000 0.387263 -25.76 0.921937 -87.85 0.921937 -87.85 0.387197 30.070
8.99980000 0.387186 -25.75 0.921969 -87.86 0.921969 -87.86 0.387121 30.034
8.99990000 0.387110 -25.74 0.922001 -87.87 0.922001 -87.87 0.387045 29.999
9.00000000 0.387035 -25.72 0.922033 -87.88 0.922033 -87.88 0.386970 29.963
9.00010000 0.386959 -25.71 0.922065 -87.90 0.922065 -87.90 0.386895 29.927
9.00020000 0.386884 -25.70 0.922096 -87.91 0.922096 -87.91 0.386820 29.892
9.00030000 0.386809 -25.69 0.922128 -87.92 0.922128 -87.92 0.386745 29.857
9.00040000 0.386734 -25.68 0.922159 -87.93 0.922159 -87.93 0.386670 29.821
9.00050000 0.386660 -25.66 0.922190 -87.94 0.922190 -87.94 0.386596 29.786
9.00060000 0.386586 -25.65 0.922222 -87.95 0.922222 -87.95 0.386522 29.751
9.00070000 0.386512 -25.64 0.922253 -87.96 0.922253 -87.96 0.386449 29.716
9.00080000 0.386439 -25.63 0.922283 -87.98 0.922283 -87.98 0.386375 29.681
9.00090000 0.386365 -25.62 0.922314 -87.99 0.922314 -87.99 0.386302 29.646
9.00100000 0.386292 -25.60 0.922345 -88.00 0.922345 -88.00 0.386229 29.612
9.00110000 0.386220 -25.59 0.922375 -88.01 0.922375 -88.01 0.386157 29.577
9.00120000 0.386147 -25.58 0.922406 -88.02 0.922406 -88.02 0.386085 29.542
9.00130000 0.386075 -25.57 0.922436 -88.03 0.922436 -88.03 0.386013 29.508
9.00140000 0.386003 -25.56 0.922466 -88.04 0.922466 -88.04 0.385941 29.473
9.00150000 0.385932 -25.55 0.922496 -88.06 0.922496 -88.06 0.385869 29.439
9.00160000 0.385860 -25.53 0.922526 -88.07 0.922526 -88.07 0.385798 29.405
9.00170000 0.385789 -25.52 0.922556 -88.08 0.922556 -88.08 0.385727 29.370
9.00180000 0.385718 -25.51 0.922586 -88.09 0.922586 -88.09 0.385656 29.336
9.00190000 0.385648 -25.50 0.922615 -88.10 0.922615 -88.10 0.385586 29.302
9.00200000 0.385577 -25.49 0.922645 -88.11 0.922645 -88.11 0.385516 29.268
9.00210000 0.385507 -25.48 0.922674 -88.12 0.922674 -88.12 0.385446 29.234
9.00220000 0.385437 -25.46 0.922703 -88.13 0.922703 -88.13 0.385376 29.201
9.00230000 0.385368 -25.45 0.922732 -88.15 0.922732 -88.15 0.385307 29.167
9.00240000 0.385299 -25.44 0.922761 -88.16 0.922761 -88.16 0.385238 29.133
9.00250000 0.385230 -25.43 0.922790 -88.17 0.922790 -88.17 0.385169 29.100
9.00260000 0.385161 -25.42 0.922819 -88.18 0.922819 -88.18 0.385100 29.066
9.00270000 0.385092 -25.41 0.922848 -88.19 0.922848 -88.19 0.385032 29.033
9.00280000 0.385024 -25.40 0.922876 -88.20 0.922876 -88.20 0.384964 28.999
9.00290000 0.384956 -25.38 0.922905 -88.21 0.922905 -88.21 0.384896 28.966
9.00300000 0.384888 -25.37 0.922933 -88.22 0.922933 -88.22 0.384828 28.933
9.00310000 0.384821 -25.36 0.922961 -88.23 0.922961 -88.23 0.384761 28.900
9.00320000 0.384753 -25.35 0.922989 -88.24 0.922989 -88.24 0.384694 28.867
9.00330000 0.384686 -25.34 0.923018 -88.26 0.923018 -88.26 0.384627 28.834
9.00340000 0.384619 -25.33 0.923045 -88.27 0.923045 -88.27 0.384560 28.801
9.00350000 0.384553 -25.32 0.923073 -88.28 0.923073 -88.28 0.384494 28.768
9.00360000 0.384487 -25.31 0.923101 -88.29 0.923101 -88.29 0.384428 28.736
9.00370000 0.384420 -25.30 0.923128 -88.30 0.923128 -88.30 0.384362 28.703
9.00380000 0.384355 -25.28 0.923156 -88.31 0.923156 -88.31 0.384296 28.670
9.00390000 0.384289 -25.27 0.923183 -88.32 0.923183 -88.32 0.384230 28.638
9.00400000 0.384224 -25.26 0.923211 -88.33 0.923211 -88.33 0.384165 28.605
9.00410000 0.384158 -25.25 0.923238 -88.34 0.923238 -88.34 0.384100 28.573
9.00420000 0.384094 -25.24 0.923265 -88.35 0.923265 -88.35 0.384035 28.541
9.00430000 0.384029 -25.23 0.923292 -88.36 0.923292 -88.36 0.383971 28.509
9.00440000 0.383964 -25.22 0.923319 -88.37 0.923319 -88.37 0.383907 28.477
9.00450000 0.383900 -25.21 0.923345 -88.38 0.923345 -88.38 0.383843 28.445
9.00460000 0.383836 -25.20 0.923372 -88.39 0.923372 -88.39 0.383779 28.413
9.00470000 0.383773 -25.19 0.923399 -88.40 0.923399 -88.40 0.383715 28.381
9.00480000 0.383709 -25.17 0.923425 -88.42 0.923425 -88.42 0.383652 28.349
9.00490000 0.383646 -25.16 0.923451 -88.43 0.923451 -88.43 0.383589 28.317
9.00500000 0.383583 -25.15 0.923478 -88.44 0.923478 -88.44 0.383526 28.285
9.00510000 0.383520 -25.14 0.923504 -88.45 0.923504 -88.45 0.383463 28.254
9.00520000 0.383457 -25.13 0.923530 -88.46 0.923530 -88.46 0.383401 28.222
9.00530000 0.383395 -25.12 0.923556 -88.47 0.923556 -88.47 0.383338 28.191
9.00540000 0.383333 -25.11 0.923582 -88.48 0.923582 -88.48 0.383276 28.159
9.00550000 0.383271 -25.10 0.923608 -88.49 0.923608 -88.49 0.383214 28.128
9.00560000 0.383209 -25.09 0.923633 -88.50 0.923633 -88.50 0.383153 28.097
9.00570000 0.383148 -25.08 0.923659 -88.51 0.923659 -88.51 0.383091 28.066
9.00580000 0.383086 -25.07 0.923684 -88.52 0.923684 -88.52 0.383030 28.034
9.00590000 0.383025 -25.06 0.923710 -88.53 0.923710 -88.53 0.382969 28.003
9.00600000 0.382964 -25.05 0.923735 -88.54 0.923735 -88.54 0.382909 27.972
9.00610000 0.382904 -25.04 0.923760 -88.55 0.923760 -88.55 0.382848 27.941
9.00620000 0.382843 -25.02 0.923785 -88.56 0.923785 -88.56 0.382788 27.911
9.00630000 0.382783 -25.01 0.923810 -88.57 0.923810 -88.57 0.382728 27.880
9.00640000 0.382723 -25.00 0.923835 -88.58 0.923835 -88.58 0.382668 27.849
9.00650000 0.382663 -24.99 0.923860 -88.59 0.923860 -88.59 0.382608 27.819
9.00660000 0.382604 -24.98 0.923885 -88.60 0.923885 -88.60 0.382549 27.788
9.00670000 0.382544 -24.97 0.923909 -88.61 0.923909 -88.61 0.382490 27.757
9.00680000 0.382485 -24.96 0.923934 -88.62 0.923934 -88.62 0.382431 27.727
9.00690000 0.382426 -24.95 0.923958 -88.63 0.923958 -88.63 0.382372 27.697
9.00700000 0.382367 -24.94 0.923983 -88.64 0.923983 -88.64 0.382313 27.666
9.00710000 0.382309 -24.93 0.924007 -88.65 0.924007 -88.65 0.382255 27.636
9.00720000 0.382251 -24.92 0.924031 -88.66 0.924031 -88.66 0.382197 27.606
9.00730000 0.382193 -24.91 0.924055 -88.67 0.924055 -88.67 0.382139 27.576
9.00740000 0.382135 -24.90 0.924079 -88.68 0.924079 -88.68 0.382081 27.546
9.00750000 0.382077 -24.89 0.924103 -88.69 0.924103 -88.69 0.382023 27.516
9.00760000 0.382019 -24.88 0.924127 -88.70 0.924127 -88.70 0.381966 27.486
9.00770000 0.381962 -24.87 0.924151 -88.71 0.924151 -88.71 0.381909 27.456
9.00780000 0.381905 -24.86 0.924174 -88.72 0.924174 -88.72 0.381852 27.426
9.00790000 0.381848 -24.85 0.924198 -88.73 0.924198 -88.73 0.381795 27.397
9.00800000 0.381791 -24.84 0.924222 -88.74 0.924222 -88.74 0.381738 27.367
9.00810000 0.381735 -24.83 0.924245 -88.75 0.924245 -88.75 0.381682 27.337
9.00820000 0.381678 -24.82 0.924268 -88.76 0.924268 -88.76 0.381626 27.308
9.00830000 0.381622 -24.81 0.924291 -88.77 0.924291 -88.77 0.381570 27.278
9.00840000 0.381566 -24.80 0.924315 -88.78 0.924315 -88.78 0.381514 27.249
9.00850000 0.381511 -24.79 0.924338 -88.79 0.924338 -88.79 0.381458 27.220
9.00860000 0.381455 -24.78 0.924361 -88.80 0.924361 -88.80 0.381403 27.191
9.00870000 0.381400 -24.77 0.924384 -88.81 0.924384 -88.81 0.381348 27.161
!< P1 F=9.0087 Eeff=(5.3716449 -2.3771e-5) Z0=(35.9693823 8.06102e-5) R=0.0 C=0.0 
!< P2 F=9.0087 Eeff=(5.3716449 -2.3771e-5) Z0=(35.9693823 8.06102e-5) R=0.0 C=0.0 
9.00880000 0.381345 -24.76 0.924406 -88.82 0.924406 -88.82 0.381293 27.132
9.00890000 0.381290 -24.75 0.924429 -88.83 0.924429 -88.83 0.381238 27.103
9.00900000 0.381235 -24.74 0.924452 -88.83 0.924452 -88.83 0.381183 27.074
9.00910000 0.381180 -24.73 0.924474 -88.84 0.924474 -88.84 0.381129 27.045
9.00920000 0.381126 -24.72 0.924497 -88.85 0.924497 -88.85 0.381074 27.016
9.00930000 0.381072 -24.71 0.924519 -88.86 0.924519 -88.86 0.381020 26.988
9.00940000 0.381018 -24.70 0.924542 -88.87 0.924542 -88.87 0.380966 26.959
9.00950000 0.380964 -24.69 0.924564 -88.88 0.924564 -88.88 0.380913 26.930
9.00960000 0.380910 -24.68 0.924586 -88.89 0.924586 -88.89 0.380859 26.901
9.00970000 0.380857 -24.67 0.924608 -88.90 0.924608 -88.90 0.380806 26.873
9.00980000 0.380803 -24.66 0.924630 -88.91 0.924630 -88.91 0.380753 26.844
9.00990000 0.380750 -24.65 0.924652 -88.92 0.924652 -88.92 0.380700 26.816
9.01000000 0.380697 -24.64 0.924674 -88.93 0.924674 -88.93 0.380647 26.788
9.01010000 0.380645 -24.63 0.924696 -88.94 0.924696 -88.94 0.380594 26.759
9.01020000 0.380592 -24.62 0.924717 -88.95 0.924717 -88.95 0.380542 26.731
9.01030000 0.380540 -24.61 0.924739 -88.96 0.924739 -88.96 0.380489 26.703
9.01040000 0.380487 -24.60 0.924760 -88.97 0.924760 -88.97 0.380437 26.675
9.01050000 0.380435 -24.59 0.924782 -88.98 0.924782 -88.98 0.380385 26.647
9.01060000 0.380384 -24.58 0.924803 -88.98 0.924803 -88.98 0.380334 26.618
9.01070000 0.380332 -24.57 0.924824 -88.99 0.924824 -88.99 0.380282 26.591
9.01080000 0.380280 -24.56 0.924846 -89.00 0.924846 -89.00 0.380231 26.563
9.01090000 0.380229 -24.56 0.924867 -89.01 0.924867 -89.01 0.380179 26.535
9.01100000 0.380178 -24.55 0.924888 -89.02 0.924888 -89.02 0.380128 26.507
9.01110000 0.380127 -24.54 0.924909 -89.03 0.924909 -89.03 0.380078 26.479
9.01120000 0.380076 -24.53 0.924930 -89.04 0.924930 -89.04 0.380027 26.452
9.01130000 0.380025 -24.52 0.924951 -89.05 0.924951 -89.05 0.379976 26.424
9.01140000 0.379975 -24.51 0.924972 -89.06 0.924972 -89.06 0.379926 26.396
9.01150000 0.379925 -24.50 0.924992 -89.07 0.924992 -89.07 0.379876 26.369
9.01160000 0.379875 -24.49 0.925013 -89.08 0.925013 -89.08 0.379826 26.341
9.01170000 0.379825 -24.48 0.925033 -89.09 0.925033 -89.09 0.379776 26.314
9.01180000 0.379775 -24.47 0.925054 -89.09 0.925054 -89.09 0.379726 26.287
9.01190000 0.379725 -24.46 0.925074 -89.10 0.925074 -89.10 0.379677 26.260
9.01200000 0.379676 -24.45 0.925095 -89.11 0.925095 -89.11 0.379628 26.232
9.01210000 0.379627 -24.44 0.925115 -89.12 0.925115 -89.12 0.379578 26.205
9.01220000 0.379577 -24.43 0.925135 -89.13 0.925135 -89.13 0.379529 26.178
9.01230000 0.379528 -24.42 0.925155 -89.14 0.925155 -89.14 0.379481 26.151
9.01240000 0.379480 -24.42 0.925175 -89.15 0.925175 -89.15 0.379432 26.124
9.01250000 0.379431 -24.41 0.925195 -89.16 0.925195 -89.16 0.379383 26.097
9.01260000 0.379383 -24.40 0.925215 -89.17 0.925215 -89.17 0.379335 26.070
9.01270000 0.379334 -24.39 0.925235 -89.17 0.925235 -89.17 0.379287 26.043
9.01280000 0.379286 -24.38 0.925255 -89.18 0.925255 -89.18 0.379239 26.017
9.01290000 0.379238 -24.37 0.925275 -89.19 0.925275 -89.19 0.379191 25.990
9.01300000 0.379190 -24.36 0.925294 -89.20 0.925294 -89.20 0.379143 25.963
9.01310000 0.379143 -24.35 0.925314 -89.21 0.925314 -89.21 0.379096 25.937
9.01320000 0.379095 -24.34 0.925333 -89.22 0.925333 -89.22 0.379048 25.910
9.01330000 0.379048 -24.33 0.925353 -89.23 0.925353 -89.23 0.379001 25.884
9.01340000 0.379001 -24.32 0.925372 -89.24 0.925372 -89.24 0.378954 25.857
9.01350000 0.378954 -24.32 0.925391 -89.24 0.925391 -89.24 0.378907 25.831
9.01360000 0.378907 -24.31 0.925411 -89.25 0.925411 -89.25 0.378860 25.805
9.01370000 0.378860 -24.30 0.925430 -89.26 0.925430 -89.26 0.378814 25.778
9.01380000 0.378814 -24.29 0.925449 -89.27 0.925449 -89.27 0.378767 25.752
9.01390000 0.378767 -24.28 0.925468 -89.28 0.925468 -89.28 0.378721 25.726
9.01400000 0.378721 -24.27 0.925487 -89.29 0.925487 -89.29 0.378675 25.700
9.01410000 0.378675 -24.26 0.925506 -89.30 0.925506 -89.30 0.378629 25.674
9.01420000 0.378629 -24.25 0.925525 -89.30 0.925525 -89.30 0.378583 25.648
9.01430000 0.378583 -24.24 0.925543 -89.31 0.925543 -89.31 0.378537 25.622
9.01440000 0.378538 -24.24 0.925562 -89.32 0.925562 -89.32 0.378492 25.596
9.01450000 0.378492 -24.23 0.925581 -89.33 0.925581 -89.33 0.378446 25.570
9.01460000 0.378447 -24.22 0.925599 -89.34 0.925599 -89.34 0.378401 25.544
9.01470000 0.378402 -24.21 0.925618 -89.35 0.925618 -89.35 0.378356 25.518
9.01480000 0.378357 -24.20 0.925636 -89.36 0.925636 -89.36 0.378311 25.493
9.01490000 0.378312 -24.19 0.925655 -89.36 0.925655 -89.36 0.378266 25.467
9.01500000 0.378267 -24.18 0.925673 -89.37 0.925673 -89.37 0.378222 25.442
9.01510000 0.378222 -24.17 0.925691 -89.38 0.925691 -89.38 0.378177 25.416
9.01520000 0.378178 -24.17 0.925709 -89.39 0.925709 -89.39 0.378133 25.391
9.01530000 0.378134 -24.16 0.925728 -89.40 0.925728 -89.40 0.378089 25.365
9.01540000 0.378089 -24.15 0.925746 -89.41 0.925746 -89.41 0.378045 25.340
9.01550000 0.378045 -24.14 0.925764 -89.41 0.925764 -89.41 0.378001 25.314
9.01560000 0.378002 -24.13 0.925782 -89.42 0.925782 -89.42 0.377957 25.289
9.01570000 0.377958 -24.12 0.925799 -89.43 0.925799 -89.43 0.377913 25.264
9.01580000 0.377914 -24.11 0.925817 -89.44 0.925817 -89.44 0.377870 25.239
9.01590000 0.377871 -24.11 0.925835 -89.45 0.925835 -89.45 0.377827 25.214
9.01600000 0.377828 -24.10 0.925853 -89.46 0.925853 -89.46 0.377783 25.189
9.01610000 0.377784 -24.09 0.925870 -89.46 0.925870 -89.46 0.377740 25.164
9.01620000 0.377741 -24.08 0.925888 -89.47 0.925888 -89.47 0.377698 25.139
9.01630000 0.377699 -24.07 0.925906 -89.48 0.925906 -89.48 0.377655 25.114
9.01640000 0.377656 -24.06 0.925923 -89.49 0.925923 -89.49 0.377612 25.089
9.01650000 0.377613 -24.06 0.925940 -89.50 0.925940 -89.50 0.377570 25.064
9.01660000 0.377571 -24.05 0.925958 -89.51 0.925958 -89.51 0.377527 25.039
9.01670000 0.377529 -24.04 0.925975 -89.51 0.925975 -89.51 0.377485 25.014
9.01680000 0.377486 -24.03 0.925992 -89.52 0.925992 -89.52 0.377443 24.990
9.01690000 0.377444 -24.02 0.926009 -89.53 0.926009 -89.53 0.377401 24.965
9.01700000 0.377402 -24.01 0.926027 -89.54 0.926027 -89.54 0.377359 24.941
9.01710000 0.377361 -24.00 0.926044 -89.55 0.926044 -89.55 0.377318 24.916
9.01720000 0.377319 -24.00 0.926061 -89.55 0.926061 -89.55 0.377276 24.891
9.01730000 0.377278 -23.99 0.926078 -89.56 0.926078 -89.56 0.377235 24.867
9.01740000 0.377236 -23.98 0.926094 -89.57 0.926094 -89.57 0.377193 24.843
9.01750000 0.377195 -23.97 0.926111 -89.58 0.926111 -89.58 0.377152 24.818
9.01760000 0.377154 -23.96 0.926128 -89.59 0.926128 -89.59 0.377111 24.794
9.01770000 0.377113 -23.96 0.926145 -89.59 0.926145 -89.59 0.377070 24.770
9.01780000 0.377072 -23.95 0.926161 -89.60 0.926161 -89.60 0.377030 24.746
9.01790000 0.377031 -23.94 0.926178 -89.61 0.926178 -89.61 0.376989 24.721
9.01800000 0.376991 -23.93 0.926195 -89.62 0.926195 -89.62 0.376949 24.697
9.01810000 0.376950 -23.92 0.926211 -89.63 0.926211 -89.63 0.376908 24.673
9.01820000 0.376910 -23.91 0.926228 -89.63 0.926228 -89.63 0.376868 24.649
9.01830000 0.376870 -23.91 0.926244 -89.64 0.926244 -89.64 0.376828 24.625
9.01840000 0.376830 -23.90 0.926260 -89.65 0.926260 -89.65 0.376788 24.601
9.01850000 0.376790 -23.89 0.926276 -89.66 0.926276 -89.66 0.376748 24.578
9.01860000 0.376750 -23.88 0.926293 -89.67 0.926293 -89.67 0.376709 24.554
9.01870000 0.376711 -23.87 0.926309 -89.67 0.926309 -89.67 0.376669 24.530
9.01880000 0.376671 -23.87 0.926325 -89.68 0.926325 -89.68 0.376630 24.506
9.01890000 0.376632 -23.86 0.926341 -89.69 0.926341 -89.69 0.376590 24.483
9.01900000 0.376592 -23.85 0.926357 -89.70 0.926357 -89.70 0.376551 24.459