! Sonnet Data File
! From: emgraph Version : 16.52
! From Project: Resonator2_cp
! Data is De-embedded 
! Data File Written: 10/09/2017 11:12:09
!< HDATE 10/09/2017 07:45:37
!< MDATE 10/09/2017 07:45:37
!< PARAMS
!< Length = 400.0
!< Pwid1 = 2000.0
!< Pwid2 = 2000.0
!< Air_gap = 12.0
!< Width = 20.0
!< gap = 26.0
!< END PARAMS
# GHZ S MA R 40.14000
8.90000000 0.016161 16.417 0.999864 -75.08 0.999864 -75.08 0.016159 13.453
!< P1 F=8.9 Eeff=(5.24798951 -2.3049e-5) Z0=(40.1339254 8.93825e-5) R=0.0 C=0.0 
!< P2 F=8.9 Eeff=(5.24798951 -2.3049e-5) Z0=(40.1339254 8.93825e-5) R=0.0 C=0.0 
8.90010000 0.016152 16.438 0.999864 -75.08 0.999864 -75.08 0.016150 13.429
8.90020000 0.016143 16.459 0.999865 -75.08 0.999865 -75.08 0.016141 13.405
8.90030000 0.016134 16.480 0.999865 -75.08 0.999865 -75.08 0.016131 13.381
8.90040000 0.016125 16.502 0.999865 -75.08 0.999865 -75.08 0.016122 13.357
8.90050000 0.016116 16.523 0.999865 -75.09 0.999865 -75.09 0.016113 13.332
8.90060000 0.016107 16.545 0.999865 -75.09 0.999865 -75.09 0.016104 13.308
8.90070000 0.016098 16.567 0.999865 -75.09 0.999865 -75.09 0.016095 13.283
8.90080000 0.016088 16.589 0.999865 -75.09 0.999865 -75.09 0.016086 13.258
8.90090000 0.016079 16.610 0.999866 -75.09 0.999866 -75.09 0.016076 13.233
8.90100000 0.016070 16.632 0.999866 -75.09 0.999866 -75.09 0.016067 13.208
8.90110000 0.016061 16.655 0.999866 -75.10 0.999866 -75.10 0.016058 13.183
8.90120000 0.016051 16.677 0.999866 -75.10 0.999866 -75.10 0.016048 13.158
8.90130000 0.016042 16.699 0.999866 -75.10 0.999866 -75.10 0.016039 13.133
8.90140000 0.016032 16.722 0.999866 -75.10 0.999866 -75.10 0.016030 13.107
8.90150000 0.016023 16.744 0.999866 -75.10 0.999866 -75.10 0.016020 13.082
8.90160000 0.016014 16.767 0.999867 -75.10 0.999867 -75.10 0.016011 13.056
8.90170000 0.016004 16.790 0.999867 -75.10 0.999867 -75.10 0.016001 13.030
8.90180000 0.015995 16.813 0.999867 -75.11 0.999867 -75.11 0.015992 13.004
8.90190000 0.015985 16.836 0.999867 -75.11 0.999867 -75.11 0.015982 12.978
8.90200000 0.015975 16.859 0.999867 -75.11 0.999867 -75.11 0.015973 12.952
8.90210000 0.015966 16.882 0.999867 -75.11 0.999867 -75.11 0.015963 12.926
8.90220000 0.015956 16.905 0.999867 -75.11 0.999867 -75.11 0.015953 12.899
8.90230000 0.015947 16.929 0.999868 -75.11 0.999868 -75.11 0.015944 12.873
8.90240000 0.015937 16.952 0.999868 -75.12 0.999868 -75.12 0.015934 12.846
8.90250000 0.015927 16.976 0.999868 -75.12 0.999868 -75.12 0.015924 12.819
8.90260000 0.015917 17.000 0.999868 -75.12 0.999868 -75.12 0.015914 12.793
8.90270000 0.015908 17.024 0.999868 -75.12 0.999868 -75.12 0.015904 12.766
8.90280000 0.015898 17.048 0.999868 -75.12 0.999868 -75.12 0.015895 12.738
8.90290000 0.015888 17.072 0.999868 -75.12 0.999868 -75.12 0.015885 12.711
8.90300000 0.015878 17.097 0.999869 -75.12 0.999869 -75.12 0.015875 12.684
8.90310000 0.015868 17.121 0.999869 -75.13 0.999869 -75.13 0.015865 12.656
8.90320000 0.015858 17.146 0.999869 -75.13 0.999869 -75.13 0.015855 12.629
8.90330000 0.015848 17.170 0.999869 -75.13 0.999869 -75.13 0.015845 12.601
8.90340000 0.015838 17.195 0.999869 -75.13 0.999869 -75.13 0.015835 12.573
8.90350000 0.015828 17.220 0.999869 -75.13 0.999869 -75.13 0.015825 12.545
8.90360000 0.015818 17.245 0.999869 -75.13 0.999869 -75.13 0.015815 12.517
8.90370000 0.015808 17.270 0.999870 -75.14 0.999870 -75.14 0.015805 12.488
8.90380000 0.015798 17.296 0.999870 -75.14 0.999870 -75.14 0.015794 12.460
8.90390000 0.015787 17.321 0.999870 -75.14 0.999870 -75.14 0.015784 12.431
8.90400000 0.015777 17.347 0.999870 -75.14 0.999870 -75.14 0.015774 12.403
8.90410000 0.015767 17.373 0.999870 -75.14 0.999870 -75.14 0.015764 12.374
8.90420000 0.015757 17.398 0.999870 -75.14 0.999870 -75.14 0.015753 12.345
8.90430000 0.015746 17.424 0.999871 -75.15 0.999871 -75.15 0.015743 12.316
8.90440000 0.015736 17.451 0.999871 -75.15 0.999871 -75.15 0.015733 12.287
8.90450000 0.015726 17.477 0.999871 -75.15 0.999871 -75.15 0.015722 12.257
8.90460000 0.015715 17.503 0.999871 -75.15 0.999871 -75.15 0.015712 12.228
8.90470000 0.015705 17.530 0.999871 -75.15 0.999871 -75.15 0.015701 12.198
8.90480000 0.015694 17.556 0.999871 -75.15 0.999871 -75.15 0.015691 12.168
8.90490000 0.015684 17.583 0.999871 -75.15 0.999871 -75.15 0.015680 12.138
8.90500000 0.015673 17.610 0.999872 -75.16 0.999872 -75.16 0.015670 12.108
8.90510000 0.015662 17.637 0.999872 -75.16 0.999872 -75.16 0.015659 12.078
8.90520000 0.015652 17.665 0.999872 -75.16 0.999872 -75.16 0.015648 12.047
8.90530000 0.015641 17.692 0.999872 -75.16 0.999872 -75.16 0.015638 12.017
8.90540000 0.015630 17.720 0.999872 -75.16 0.999872 -75.16 0.015627 11.986
8.90550000 0.015620 17.747 0.999872 -75.16 0.999872 -75.16 0.015616 11.955
8.90560000 0.015609 17.775 0.999873 -75.17 0.999873 -75.17 0.015605 11.924
8.90570000 0.015598 17.803 0.999873 -75.17 0.999873 -75.17 0.015595 11.893
8.90580000 0.015587 17.831 0.999873 -75.17 0.999873 -75.17 0.015584 11.861
8.90590000 0.015576 17.860 0.999873 -75.17 0.999873 -75.17 0.015573 11.830
8.90600000 0.015565 17.888 0.999873 -75.17 0.999873 -75.17 0.015562 11.798
8.90610000 0.015554 17.917 0.999873 -75.17 0.999873 -75.17 0.015551 11.766
8.90620000 0.015543 17.945 0.999873 -75.18 0.999873 -75.18 0.015540 11.734
8.90630000 0.015532 17.974 0.999874 -75.18 0.999874 -75.18 0.015529 11.702
8.90640000 0.015521 18.003 0.999874 -75.18 0.999874 -75.18 0.015518 11.670
8.90650000 0.015510 18.033 0.999874 -75.18 0.999874 -75.18 0.015507 11.637
8.90660000 0.015499 18.062 0.999874 -75.18 0.999874 -75.18 0.015495 11.605
8.90670000 0.015488 18.092 0.999874 -75.18 0.999874 -75.18 0.015484 11.572
8.90680000 0.015477 18.121 0.999874 -75.19 0.999874 -75.19 0.015473 11.539
8.90690000 0.015465 18.151 0.999875 -75.19 0.999875 -75.19 0.015462 11.506
8.90700000 0.015454 18.181 0.999875 -75.19 0.999875 -75.19 0.015450 11.473
8.90710000 0.015443 18.212 0.999875 -75.19 0.999875 -75.19 0.015439 11.439
8.90720000 0.015431 18.242 0.999875 -75.19 0.999875 -75.19 0.015427 11.405
8.90730000 0.015420 18.273 0.999875 -75.19 0.999875 -75.19 0.015416 11.372
8.90740000 0.015408 18.303 0.999875 -75.20 0.999875 -75.20 0.015405 11.338
8.90750000 0.015397 18.334 0.999876 -75.20 0.999876 -75.20 0.015393 11.303
8.90760000 0.015385 18.365 0.999876 -75.20 0.999876 -75.20 0.015381 11.269
8.90770000 0.015374 18.396 0.999876 -75.20 0.999876 -75.20 0.015370 11.234
8.90780000 0.015362 18.428 0.999876 -75.20 0.999876 -75.20 0.015358 11.200
8.90790000 0.015350 18.460 0.999876 -75.20 0.999876 -75.20 0.015346 11.165
8.90800000 0.015339 18.491 0.999876 -75.21 0.999876 -75.21 0.015335 11.130
8.90810000 0.015327 18.523 0.999877 -75.21 0.999877 -75.21 0.015323 11.094
8.90820000 0.015315 18.555 0.999877 -75.21 0.999877 -75.21 0.015311 11.059
8.90830000 0.015303 18.588 0.999877 -75.21 0.999877 -75.21 0.015299 11.023
8.90840000 0.015291 18.620 0.999877 -75.21 0.999877 -75.21 0.015287 10.987
8.90850000 0.015279 18.653 0.999877 -75.22 0.999877 -75.22 0.015275 10.951
8.90860000 0.015268 18.686 0.999877 -75.22 0.999877 -75.22 0.015263 10.915
8.90870000 0.015256 18.719 0.999878 -75.22 0.999878 -75.22 0.015251 10.878
8.90880000 0.015243 18.752 0.999878 -75.22 0.999878 -75.22 0.015239 10.842
8.90890000 0.015231 18.786 0.999878 -75.22 0.999878 -75.22 0.015227 10.805
8.90900000 0.015219 18.819 0.999878 -75.22 0.999878 -75.22 0.015215 10.768
8.90910000 0.015207 18.853 0.999878 -75.23 0.999878 -75.23 0.015203 10.731
8.90920000 0.015195 18.887 0.999878 -75.23 0.999878 -75.23 0.015191 10.693
8.90930000 0.015183 18.922 0.999879 -75.23 0.999879 -75.23 0.015178 10.656
8.90940000 0.015170 18.956 0.999879 -75.23 0.999879 -75.23 0.015166 10.618
8.90950000 0.015158 18.991 0.999879 -75.23 0.999879 -75.23 0.015154 10.580
8.90960000 0.015146 19.026 0.999879 -75.23 0.999879 -75.23 0.015141 10.541
8.90970000 0.015133 19.061 0.999879 -75.24 0.999879 -75.24 0.015129 10.503
8.90980000 0.015121 19.096 0.999880 -75.24 0.999880 -75.24 0.015116 10.464
8.90990000 0.015108 19.131 0.999880 -75.24 0.999880 -75.24 0.015104 10.425
8.91000000 0.015096 19.167 0.999880 -75.24 0.999880 -75.24 0.015091 10.386
8.91010000 0.015083 19.203 0.999880 -75.24 0.999880 -75.24 0.015079 10.347
8.91020000 0.015070 19.239 0.999880 -75.24 0.999880 -75.24 0.015066 10.307
8.91030000 0.015058 19.276 0.999880 -75.25 0.999880 -75.25 0.015053 10.267
8.91040000 0.015045 19.312 0.999881 -75.25 0.999881 -75.25 0.015040 10.227
8.91050000 0.015032 19.349 0.999881 -75.25 0.999881 -75.25 0.015028 10.187
8.91060000 0.015019 19.386 0.999881 -75.25 0.999881 -75.25 0.015015 10.146
8.91070000 0.015006 19.423 0.999881 -75.25 0.999881 -75.25 0.015002 10.106
8.91080000 0.014993 19.461 0.999881 -75.26 0.999881 -75.26 0.014989 10.065
8.91090000 0.014980 19.498 0.999881 -75.26 0.999881 -75.26 0.014976 10.023
8.91100000 0.014967 19.536 0.999882 -75.26 0.999882 -75.26 0.014963 9.9819
8.91110000 0.014954 19.574 0.999882 -75.26 0.999882 -75.26 0.014950 9.9402
8.91120000 0.014941 19.613 0.999882 -75.26 0.999882 -75.26 0.014936 9.8982
8.91130000 0.014928 19.651 0.999882 -75.26 0.999882 -75.26 0.014923 9.8561
8.91140000 0.014915 19.690 0.999882 -75.27 0.999882 -75.27 0.014910 9.8136
8.91150000 0.014901 19.729 0.999883 -75.27 0.999883 -75.27 0.014897 9.7710
8.91160000 0.014888 19.769 0.999883 -75.27 0.999883 -75.27 0.014883 9.7280
8.91170000 0.014875 19.808 0.999883 -75.27 0.999883 -75.27 0.014870 9.6848
8.91180000 0.014861 19.848 0.999883 -75.27 0.999883 -75.27 0.014857 9.6414
8.91190000 0.014848 19.888 0.999883 -75.28 0.999883 -75.28 0.014843 9.5977
8.91200000 0.014834 19.929 0.999884 -75.28 0.999884 -75.28 0.014829 9.5538
8.91210000 0.014821 19.969 0.999884 -75.28 0.999884 -75.28 0.014816 9.5095
8.91220000 0.014807 20.010 0.999884 -75.28 0.999884 -75.28 0.014802 9.4651
8.91230000 0.014793 20.051 0.999884 -75.28 0.999884 -75.28 0.014789 9.4203
8.91240000 0.014780 20.093 0.999884 -75.29 0.999884 -75.29 0.014775 9.3753
8.91250000 0.014766 20.134 0.999884 -75.29 0.999884 -75.29 0.014761 9.3300
8.91260000 0.014752 20.176 0.999885 -75.29 0.999885 -75.29 0.014747 9.2845
8.91270000 0.014738 20.218 0.999885 -75.29 0.999885 -75.29 0.014733 9.2386
8.91280000 0.014724 20.261 0.999885 -75.29 0.999885 -75.29 0.014719 9.1925
8.91290000 0.014710 20.303 0.999885 -75.29 0.999885 -75.29 0.014705 9.1461
8.91300000 0.014696 20.346 0.999885 -75.30 0.999885 -75.30 0.014691 9.0994
8.91310000 0.014682 20.390 0.999886 -75.30 0.999886 -75.30 0.014677 9.0524
8.91320000 0.014668 20.433 0.999886 -75.30 0.999886 -75.30 0.014663 9.0052
8.91330000 0.014654 20.477 0.999886 -75.30 0.999886 -75.30 0.014649 8.9576
8.91340000 0.014640 20.521 0.999886 -75.30 0.999886 -75.30 0.014634 8.9098
8.91350000 0.014625 20.566 0.999886 -75.31 0.999886 -75.31 0.014620 8.8616
8.91360000 0.014611 20.610 0.999887 -75.31 0.999887 -75.31 0.014606 8.8132
8.91370000 0.014597 20.655 0.999887 -75.31 0.999887 -75.31 0.014591 8.7644
8.91380000 0.014582 20.701 0.999887 -75.31 0.999887 -75.31 0.014577 8.7154
8.91390000 0.014568 20.746 0.999887 -75.31 0.999887 -75.31 0.014562 8.6660
8.91400000 0.014553 20.792 0.999887 -75.32 0.999887 -75.32 0.014548 8.6163
8.91410000 0.014539 20.838 0.999888 -75.32 0.999888 -75.32 0.014533 8.5663
8.91420000 0.014524 20.885 0.999888 -75.32 0.999888 -75.32 0.014518 8.5160
8.91430000 0.014509 20.932 0.999888 -75.32 0.999888 -75.32 0.014504 8.4654
8.91440000 0.014494 20.979 0.999888 -75.32 0.999888 -75.32 0.014489 8.4145
8.91450000 0.014480 21.026 0.999888 -75.33 0.999888 -75.33 0.014474 8.3632
8.91460000 0.014465 21.074 0.999888 -75.33 0.999888 -75.33 0.014459 8.3116
8.91470000 0.014450 21.122 0.999889 -75.33 0.999889 -75.33 0.014444 8.2596
8.91480000 0.014435 21.171 0.999889 -75.33 0.999889 -75.33 0.014429 8.2073
8.91490000 0.014420 21.220 0.999889 -75.33 0.999889 -75.33 0.014414 8.1547
8.91500000 0.014405 21.269 0.999889 -75.34 0.999889 -75.34 0.014399 8.1017
8.91510000 0.014389 21.318 0.999889 -75.34 0.999889 -75.34 0.014384 8.0484
8.91520000 0.014374 21.368 0.999890 -75.34 0.999890 -75.34 0.014368 7.9948
8.91530000 0.014359 21.418 0.999890 -75.34 0.999890 -75.34 0.014353 7.9407
8.91540000 0.014344 21.468 0.999890 -75.34 0.999890 -75.34 0.014338 7.8864
8.91550000 0.014328 21.519 0.999890 -75.35 0.999890 -75.35 0.014322 7.8316
8.91560000 0.014313 21.570 0.999890 -75.35 0.999890 -75.35 0.014307 7.7765
8.91570000 0.014297 21.622 0.999891 -75.35 0.999891 -75.35 0.014291 7.7211
8.91580000 0.014282 21.674 0.999891 -75.35 0.999891 -75.35 0.014275 7.6652
8.91590000 0.014266 21.726 0.999891 -75.35 0.999891 -75.35 0.014260 7.6090
8.91600000 0.014250 21.779 0.999891 -75.36 0.999891 -75.36 0.014244 7.5524
8.91610000 0.014234 21.832 0.999892 -75.36 0.999892 -75.36 0.014228 7.4955
8.91620000 0.014219 21.885 0.999892 -75.36 0.999892 -75.36 0.014212 7.4381
8.91630000 0.014203 21.939 0.999892 -75.36 0.999892 -75.36 0.014196 7.3804
8.91640000 0.014187 21.993 0.999892 -75.36 0.999892 -75.36 0.014180 7.3222
8.91650000 0.014171 22.048 0.999892 -75.37 0.999892 -75.37 0.014164 7.2637
8.91660000 0.014155 22.103 0.999893 -75.37 0.999893 -75.37 0.014148 7.2047
8.91670000 0.014139 22.158 0.999893 -75.37 0.999893 -75.37 0.014132 7.1454
8.91680000 0.014122 22.214 0.999893 -75.37 0.999893 -75.37 0.014116 7.0856
8.91690000 0.014106 22.270 0.999893 -75.37 0.999893 -75.37 0.014100 7.0254
8.91700000 0.014090 22.326 0.999893 -75.38 0.999893 -75.38 0.014083 6.9649
8.91710000 0.014073 22.383 0.999894 -75.38 0.999894 -75.38 0.014067 6.9038
8.91720000 0.014057 22.440 0.999894 -75.38 0.999894 -75.38 0.014050 6.8424
8.91730000 0.014040 22.498 0.999894 -75.38 0.999894 -75.38 0.014034 6.7805
8.91740000 0.014024 22.556 0.999894 -75.39 0.999894 -75.39 0.014017 6.7182
8.91750000 0.014007 22.615 0.999894 -75.39 0.999894 -75.39 0.014000 6.6555
8.91760000 0.013990 22.674 0.999895 -75.39 0.999895 -75.39 0.013984 6.5923
8.91770000 0.013974 22.734 0.999895 -75.39 0.999895 -75.39 0.013967 6.5286
8.91780000 0.013957 22.794 0.999895 -75.39 0.999895 -75.39 0.013950 6.4645
8.91790000 0.013940 22.854 0.999895 -75.40 0.999895 -75.40 0.013933 6.3999
8.91800000 0.013923 22.915 0.999895 -75.40 0.999895 -75.40 0.013916 6.3349
8.91810000 0.013906 22.976 0.999896 -75.40 0.999896 -75.40 0.013899 6.2694
8.91820000 0.013889 23.038 0.999896 -75.40 0.999896 -75.40 0.013882 6.2034
8.91830000 0.013872 23.100 0.999896 -75.40 0.999896 -75.40 0.013865 6.1370
8.91840000 0.013854 23.163 0.999896 -75.41 0.999896 -75.41 0.013847 6.0700
8.91850000 0.013837 23.226 0.999897 -75.41 0.999897 -75.41 0.013830 6.0026
8.91860000 0.013820 23.290 0.999897 -75.41 0.999897 -75.41 0.013813 5.9347
8.91870000 0.013802 23.354 0.999897 -75.41 0.999897 -75.41 0.013795 5.8663
8.91880000 0.013785 23.419 0.999897 -75.42 0.999897 -75.42 0.013778 5.7973
8.91890000 0.013767 23.484 0.999897 -75.42 0.999897 -75.42 0.013760 5.7279
8.91900000 0.013750 23.549 0.999898 -75.42 0.999898 -75.42 0.013742 5.6579
8.91910000 0.013732 23.616 0.999898 -75.42 0.999898 -75.42 0.013724 5.5874
8.91920000 0.013714 23.682 0.999898 -75.42 0.999898 -75.42 0.013707 5.5164
8.91930000 0.013696 23.749 0.999898 -75.43 0.999898 -75.43 0.013689 5.4449
8.91940000 0.013678 23.817 0.999899 -75.43 0.999899 -75.43 0.013671 5.3728
8.91950000 0.013660 23.885 0.999899 -75.43 0.999899 -75.43 0.013653 5.3001
8.91960000 0.013642 23.954 0.999899 -75.43 0.999899 -75.43 0.013635 5.2270
8.91970000 0.013624 24.024 0.999899 -75.44 0.999899 -75.44 0.013616 5.1532
8.91980000 0.013606 24.094 0.999899 -75.44 0.999899 -75.44 0.013598 5.0789
8.91990000 0.013588 24.164 0.999900 -75.44 0.999900 -75.44 0.013580 5.0040
8.92000000 0.013569 24.235 0.999900 -75.44 0.999900 -75.44 0.013561 4.9285
8.92010000 0.013551 24.307 0.999900 -75.45 0.999900 -75.45 0.013543 4.8525
8.92020000 0.013532 24.379 0.999900 -75.45 0.999900 -75.45 0.013524 4.7758
8.92030000 0.013514 24.452 0.999901 -75.45 0.999901 -75.45 0.013506 4.6986
8.92040000 0.013495 24.525 0.999901 -75.45 0.999901 -75.45 0.013487 4.6208
8.92050000 0.013476 24.599 0.999901 -75.45 0.999901 -75.45 0.013468 4.5423
8.92060000 0.013458 24.674 0.999901 -75.46 0.999901 -75.46 0.013450 4.4632
8.92070000 0.013439 24.749 0.999901 -75.46 0.999901 -75.46 0.013431 4.3835
8.92080000 0.013420 24.824 0.999902 -75.46 0.999902 -75.46 0.013412 4.3032
8.92090000 0.013401 24.901 0.999902 -75.46 0.999902 -75.46 0.013393 4.2222
8.92100000 0.013382 24.978 0.999902 -75.47 0.999902 -75.47 0.013373 4.1406
8.92110000 0.013363 25.056 0.999902 -75.47 0.999902 -75.47 0.013354 4.0583
8.92120000 0.013343 25.134 0.999903 -75.47 0.999903 -75.47 0.013335 3.9754
8.92130000 0.013324 25.213 0.999903 -75.47 0.999903 -75.47 0.013316 3.8918
8.92140000 0.013305 25.293 0.999903 -75.48 0.999903 -75.48 0.013296 3.8075
8.92150000 0.013285 25.373 0.999903 -75.48 0.999903 -75.48 0.013277 3.7225
8.92160000 0.013266 25.454 0.999903 -75.48 0.999903 -75.48 0.013257 3.6368
8.92170000 0.013246 25.536 0.999904 -75.48 0.999904 -75.48 0.013237 3.5504
8.92180000 0.013226 25.618 0.999904 -75.49 0.999904 -75.49 0.013218 3.4633
8.92190000 0.013207 25.701 0.999904 -75.49 0.999904 -75.49 0.013198 3.3755
8.92200000 0.013187 25.785 0.999904 -75.49 0.999904 -75.49 0.013178 3.2870
8.92210000 0.013167 25.870 0.999905 -75.49 0.999905 -75.49 0.013158 3.1977
8.92220000 0.013147 25.955 0.999905 -75.50 0.999905 -75.50 0.013138 3.1076
8.92230000 0.013127 26.041 0.999905 -75.50 0.999905 -75.50 0.013118 3.0168
8.92240000 0.013107 26.128 0.999905 -75.50 0.999905 -75.50 0.013097 2.9253
8.92250000 0.013086 26.215 0.999906 -75.50 0.999906 -75.50 0.013077 2.8330
8.92260000 0.013066 26.303 0.999906 -75.51 0.999906 -75.51 0.013057 2.7398
8.92270000 0.013046 26.392 0.999906 -75.51 0.999906 -75.51 0.013036 2.6459
8.92280000 0.013025 26.482 0.999906 -75.51 0.999906 -75.51 0.013016 2.5512
8.92290000 0.013005 26.573 0.999906 -75.51 0.999906 -75.51 0.012995 2.4557
8.92300000 0.012984 26.664 0.999907 -75.52 0.999907 -75.52 0.012974 2.3593
8.92310000 0.012963 26.757 0.999907 -75.52 0.999907 -75.52 0.012954 2.2622
8.92320000 0.012943 26.850 0.999907 -75.52 0.999907 -75.52 0.012933 2.1641
8.92330000 0.012922 26.944 0.999907 -75.52 0.999907 -75.52 0.012912 2.0652
8.92340000 0.012901 27.039 0.999908 -75.53 0.999908 -75.53 0.012891 1.9655
8.92350000 0.012880 27.134 0.999908 -75.53 0.999908 -75.53 0.012870 1.8648
8.92360000 0.012859 27.231 0.999908 -75.53 0.999908 -75.53 0.012849 1.7633
8.92370000 0.012838 27.328 0.999908 -75.53 0.999908 -75.53 0.012827 1.6609
8.92380000 0.012816 27.426 0.999909 -75.54 0.999909 -75.54 0.012806 1.5576
8.92390000 0.012795 27.526 0.999909 -75.54 0.999909 -75.54 0.012785 1.4533
8.92400000 0.012774 27.626 0.999909 -75.54 0.999909 -75.54 0.012763 1.3481
8.92410000 0.012752 27.727 0.999909 -75.54 0.999909 -75.54 0.012742 1.2420
8.92420000 0.012730 27.829 0.999910 -75.55 0.999910 -75.55 0.012720 1.1349
8.92430000 0.012709 27.932 0.999910 -75.55 0.999910 -75.55 0.012698 1.0268
8.92440000 0.012687 28.036 0.999910 -75.55 0.999910 -75.55 0.012676 0.9177
8.92450000 0.012665 28.140 0.999910 -75.56 0.999910 -75.56 0.012654 0.8077
8.92460000 0.012643 28.246 0.999911 -75.56 0.999911 -75.56 0.012632 0.6966
8.92470000 0.012621 28.353 0.999911 -75.56 0.999911 -75.56 0.012610 0.5845
8.92480000 0.012599 28.461 0.999911 -75.56 0.999911 -75.56 0.012588 0.4714
8.92490000 0.012577 28.570 0.999911 -75.57 0.999911 -75.57 0.012566 0.3572
8.92500000 0.012555 28.680 0.999911 -75.57 0.999911 -75.57 0.012544 0.2420
8.92510000 0.012532 28.791 0.999912 -75.57 0.999912 -75.57 0.012521 0.1256
8.92520000 0.012510 28.903 0.999912 -75.58 0.999912 -75.58 0.012499 0.0082
8.92530000 0.012488 29.016 0.999912 -75.58 0.999912 -75.58 0.012476 -0.110
8.92540000 0.012465 29.131 0.999912 -75.58 0.999912 -75.58 0.012453 -0.230
8.92550000 0.012442 29.246 0.999913 -75.58 0.999913 -75.58 0.012431 -0.351
8.92560000 0.012420 29.362 0.999913 -75.59 0.999913 -75.59 0.012408 -0.473
8.92570000 0.012397 29.480 0.999913 -75.59 0.999913 -75.59 0.012385 -0.596
8.92580000 0.012374 29.599 0.999913 -75.59 0.999913 -75.59 0.012362 -0.720
8.92590000 0.012351 29.719 0.999914 -75.59 0.999914 -75.59 0.012339 -0.846
8.92600000 0.012328 29.840 0.999914 -75.60 0.999914 -75.60 0.012316 -0.972
8.92610000 0.012305 29.963 0.999914 -75.60 0.999914 -75.60 0.012292 -1.100
8.92620000 0.012281 30.086 0.999914 -75.60 0.999914 -75.60 0.012269 -1.230
8.92630000 0.012258 30.211 0.999915 -75.61 0.999915 -75.61 0.012246 -1.360
8.92640000 0.012235 30.337 0.999915 -75.61 0.999915 -75.61 0.012222 -1.492
8.92650000 0.012211 30.465 0.999915 -75.61 0.999915 -75.61 0.012199 -1.625
8.92660000 0.012188 30.594 0.999915 -75.62 0.999915 -75.62 0.012175 -1.759
8.92670000 0.012164 30.724 0.999916 -75.62 0.999916 -75.62 0.012151 -1.895
8.92680000 0.012140 30.855 0.999916 -75.62 0.999916 -75.62 0.012127 -2.032
8.92690000 0.012117 30.988 0.999916 -75.62 0.999916 -75.62 0.012104 -2.171
8.92700000 0.012093 31.122 0.999916 -75.63 0.999916 -75.63 0.012080 -2.311
8.92710000 0.012069 31.258 0.999917 -75.63 0.999917 -75.63 0.012055 -2.452
8.92720000 0.012045 31.394 0.999917 -75.63 0.999917 -75.63 0.012031 -2.595
8.92730000 0.012021 31.533 0.999917 -75.64 0.999917 -75.64 0.012007 -2.739
8.92740000 0.011996 31.673 0.999917 -75.64 0.999917 -75.64 0.011983 -2.885
8.92750000 0.011972 31.814 0.999917 -75.64 0.999917 -75.64 0.011958 -3.032
8.92760000 0.011948 31.957 0.999918 -75.65 0.999918 -75.65 0.011934 -3.180
8.92770000 0.011923 32.101 0.999918 -75.65 0.999918 -75.65 0.011909 -3.331
8.92780000 0.011899 32.247 0.999918 -75.65 0.999918 -75.65 0.011885 -3.483
8.92790000 0.011874 32.394 0.999918 -75.66 0.999918 -75.66 0.011860 -3.636
8.92800000 0.011850 32.544 0.999919 -75.66 0.999919 -75.66 0.011835 -3.791
8.92810000 0.011825 32.694 0.999919 -75.66 0.999919 -75.66 0.011811 -3.948
8.92820000 0.011800 32.846 0.999919 -75.66 0.999919 -75.66 0.011786 -4.106
8.92830000 0.011775 33.000 0.999919 -75.67 0.999919 -75.67 0.011761 -4.266
8.92840000 0.011750 33.156 0.999920 -75.67 0.999920 -75.67 0.011736 -4.428
8.92850000 0.011725 33.313 0.999920 -75.67 0.999920 -75.67 0.011710 -4.591
8.92860000 0.011700 33.472 0.999920 -75.68 0.999920 -75.68 0.011685 -4.757
8.92870000 0.011675 33.633 0.999920 -75.68 0.999920 -75.68 0.011660 -4.924
8.92880000 0.011650 33.796 0.999921 -75.68 0.999921 -75.68 0.011635 -5.093
8.92890000 0.011625 33.960 0.999921 -75.69 0.999921 -75.69 0.011609 -5.263
8.92900000 0.011599 34.126 0.999921 -75.69 0.999921 -75.69 0.011584 -5.436
8.92910000 0.011574 34.295 0.999921 -75.69 0.999921 -75.69 0.011558 -5.611
8.92920000 0.011548 34.465 0.999922 -75.70 0.999922 -75.70 0.011532 -5.787
8.92930000 0.011523 34.637 0.999922 -75.70 0.999922 -75.70 0.011507 -5.965
8.92940000 0.011497 34.810 0.999922 -75.70 0.999922 -75.70 0.011481 -6.146
8.92950000 0.011472 34.986 0.999922 -75.71 0.999922 -75.71 0.011455 -6.328
8.92960000 0.011446 35.164 0.999922 -75.71 0.999922 -75.71 0.011429 -6.513
8.92970000 0.011420 35.344 0.999923 -75.71 0.999923 -75.71 0.011403 -6.699
8.92980000 0.011394 35.526 0.999923 -75.72 0.999923 -75.72 0.011377 -6.888
8.92990000 0.011368 35.710 0.999923 -75.72 0.999923 -75.72 0.011351 -7.079
8.93000000 0.011342 35.897 0.999923 -75.72 0.999923 -75.72 0.011325 -7.271
8.93010000 0.011316 36.085 0.999924 -75.73 0.999924 -75.73 0.011299 -7.467
8.93020000 0.011290 36.276 0.999924 -75.73 0.999924 -75.73 0.011273 -7.664
8.93030000 0.011264 36.469 0.999924 -75.74 0.999924 -75.74 0.011246 -7.864
8.93040000 0.011238 36.664 0.999924 -75.74 0.999924 -75.74 0.011220 -8.066
8.93050000 0.011212 36.861 0.999925 -75.74 0.999925 -75.74 0.011194 -8.270
8.93060000 0.011185 37.061 0.999925 -75.75 0.999925 -75.75 0.011167 -8.477
8.93070000 0.011159 37.263 0.999925 -75.75 0.999925 -75.75 0.011141 -8.686
8.93080000 0.011133 37.468 0.999925 -75.75 0.999925 -75.75 0.011114 -8.898
8.93090000 0.011106 37.675 0.999925 -75.76 0.999925 -75.76 0.011088 -9.112
8.93100000 0.011080 37.884 0.999926 -75.76 0.999926 -75.76 0.011061 -9.329
8.93110000 0.011054 38.097 0.999926 -75.76 0.999926 -75.76 0.011035 -9.548
8.93120000 0.011027 38.311 0.999926 -75.77 0.999926 -75.77 0.011008 -9.770
8.93130000 0.011001 38.529 0.999926 -75.77 0.999926 -75.77 0.010981 -9.994
8.93140000 0.010974 38.749 0.999927 -75.78 0.999927 -75.78 0.010955 -10.22
8.93150000 0.010947 38.971 0.999927 -75.78 0.999927 -75.78 0.010928 -10.45
8.93160000 0.010921 39.197 0.999927 -75.78 0.999927 -75.78 0.010901 -10.68
8.93170000 0.010894 39.425 0.999927 -75.79 0.999927 -75.79 0.010874 -10.92
8.93180000 0.010868 39.656 0.999927 -75.79 0.999927 -75.79 0.010847 -11.16
8.93190000 0.010841 39.890 0.999928 -75.79 0.999928 -75.79 0.010821 -11.40
8.93200000 0.010814 40.126 0.999928 -75.80 0.999928 -75.80 0.010794 -11.64
8.93210000 0.010788 40.366 0.999928 -75.80 0.999928 -75.80 0.010767 -11.89
8.93220000 0.010761 40.609 0.999928 -75.81 0.999928 -75.81 0.010740 -12.14
8.93230000 0.010735 40.855 0.999928 -75.81 0.999928 -75.81 0.010713 -12.40
8.93240000 0.010708 41.104 0.999929 -75.81 0.999929 -75.81 0.010686 -12.65
8.93250000 0.010681 41.356 0.999929 -75.82 0.999929 -75.82 0.010660 -12.91
8.93260000 0.010655 41.611 0.999929 -75.82 0.999929 -75.82 0.010633 -13.18
8.93270000 0.010628 41.870 0.999929 -75.83 0.999929 -75.83 0.010606 -13.44
8.93280000 0.010602 42.132 0.999929 -75.83 0.999929 -75.83 0.010579 -13.71
8.93290000 0.010575 42.397 0.999930 -75.83 0.999930 -75.83 0.010553 -13.99
8.93300000 0.010549 42.665 0.999930 -75.84 0.999930 -75.84 0.010526 -14.26
8.93310000 0.010522 42.938 0.999930 -75.84 0.999930 -75.84 0.010499 -14.54
8.93320000 0.010496 43.213 0.999930 -75.85 0.999930 -75.85 0.010473 -14.83
8.93330000 0.010470 43.492 0.999930 -75.85 0.999930 -75.85 0.010446 -15.11
8.93340000 0.010443 43.775 0.999931 -75.86 0.999931 -75.86 0.010419 -15.41
8.93350000 0.010417 44.062 0.999931 -75.86 0.999931 -75.86 0.010393 -15.70
8.93360000 0.010391 44.352 0.999931 -75.86 0.999931 -75.86 0.010367 -16.00
8.93370000 0.010365 44.646 0.999931 -75.87 0.999931 -75.87 0.010340 -16.30
8.93380000 0.010339 44.944 0.999931 -75.87 0.999931 -75.87 0.010314 -16.61
8.93390000 0.010313 45.245 0.999931 -75.88 0.999931 -75.88 0.010288 -16.92
8.93400000 0.010287 45.551 0.999932 -75.88 0.999932 -75.88 0.010262 -17.23
8.93410000 0.010261 45.861 0.999932 -75.89 0.999932 -75.89 0.010236 -17.55
8.93420000 0.010236 46.175 0.999932 -75.89 0.999932 -75.89 0.010210 -17.87
8.93430000 0.010210 46.493 0.999932 -75.89 0.999932 -75.89 0.010184 -18.20
8.93440000 0.010185 46.815 0.999932 -75.90 0.999932 -75.90 0.010158 -18.53
8.93450000 0.010160 47.142 0.999932 -75.90 0.999932 -75.90 0.010133 -18.87
8.93460000 0.010134 47.472 0.999933 -75.91 0.999933 -75.91 0.010108 -19.21
8.93470000 0.010109 47.808 0.999933 -75.91 0.999933 -75.91 0.010082 -19.55
8.93480000 0.010085 48.147 0.999933 -75.92 0.999933 -75.92 0.010057 -19.90
8.93490000 0.010060 48.492 0.999933 -75.92 0.999933 -75.92 0.010032 -20.26
8.93500000 0.010036 48.841 0.999933 -75.93 0.999933 -75.93 0.010007 -20.62
8.93510000 0.010011 49.194 0.999933 -75.93 0.999933 -75.93 0.009983 -20.98
8.93520000 0.009987 49.552 0.999933 -75.94 0.999933 -75.94 0.009958 -21.35
8.93530000 0.009963 49.915 0.999933 -75.94 0.999933 -75.94 0.009934 -21.72
8.93540000 0.009940 50.283 0.999934 -75.95 0.999934 -75.95 0.009910 -22.10
8.93550000 0.009916 50.656 0.999934 -75.95 0.999934 -75.95 0.009887 -22.48
8.93560000 0.009893 51.034 0.999934 -75.96 0.999934 -75.96 0.009863 -22.87
8.93570000 0.009870 51.417 0.999934 -75.96 0.999934 -75.96 0.009840 -23.26
8.93580000 0.009847 51.804 0.999934 -75.97 0.999934 -75.97 0.009817 -23.66
8.93590000 0.009825 52.198 0.999934 -75.97 0.999934 -75.97 0.009794 -24.06
8.93600000 0.009803 52.596 0.999934 -75.98 0.999934 -75.98 0.009772 -24.47
8.93610000 0.009781 53.000 0.999934 -75.98 0.999934 -75.98 0.009749 -24.89
8.93620000 0.009759 53.409 0.999934 -75.99 0.999934 -75.99 0.009728 -25.31
8.93630000 0.009738 53.823 0.999934 -75.99 0.999934 -75.99 0.009706 -25.73
8.93640000 0.009717 54.243 0.999934 -76.00 0.999934 -76.00 0.009685 -26.16
8.93650000 0.009697 54.669 0.999935 -76.00 0.999935 -76.00 0.009664 -26.60
8.93660000 0.009677 55.100 0.999935 -76.01 0.999935 -76.01 0.009644 -27.04
8.93670000 0.009657 55.537 0.999935 -76.01 0.999935 -76.01 0.009624 -27.49
8.93680000 0.009638 55.979 0.999935 -76.02 0.999935 -76.02 0.009604 -27.95
8.93690000 0.009619 56.428 0.999935 -76.02 0.999935 -76.02 0.009585 -28.41
8.93700000 0.009601 56.882 0.999935 -76.03 0.999935 -76.03 0.009566 -28.87
8.93710000 0.009583 57.342 0.999935 -76.03 0.999935 -76.03 0.009547 -29.34
8.93720000 0.009565 57.808 0.999935 -76.04 0.999935 -76.04 0.009530 -29.82
8.93730000 0.009548 58.280 0.999935 -76.04 0.999935 -76.04 0.009512 -30.31
8.93740000 0.009532 58.758 0.999935 -76.05 0.999935 -76.05 0.009495 -30.80
8.93750000 0.009516 59.243 0.999935 -76.06 0.999935 -76.06 0.009479 -31.30
8.93760000 0.009500 59.733 0.999935 -76.06 0.999935 -76.06 0.009463 -31.80
8.93770000 0.009486 60.230 0.999935 -76.07 0.999935 -76.07 0.009448 -32.31
8.93780000 0.009472 60.733 0.999935 -76.07 0.999935 -76.07 0.009434 -32.82
8.93790000 0.009458 61.242 0.999935 -76.08 0.999935 -76.08 0.009420 -33.35
8.93800000 0.009445 61.757 0.999935 -76.08 0.999935 -76.08 0.009406 -33.88
8.93810000 0.009433 62.279 0.999935 -76.09 0.999935 -76.09 0.009394 -34.41
8.93820000 0.009421 62.807 0.999935 -76.10 0.999935 -76.10 0.009382 -34.95
8.93830000 0.009411 63.342 0.999934 -76.10 0.999934 -76.10 0.009371 -35.50
8.93840000 0.009400 63.883 0.999934 -76.11 0.999934 -76.11 0.009360 -36.06
8.93850000 0.009391 64.430 0.999934 -76.11 0.999934 -76.11 0.009350 -36.62
8.93860000 0.009383 64.984 0.999934 -76.12 0.999934 -76.12 0.009341 -37.19
8.93870000 0.009375 65.544 0.999934 -76.13 0.999934 -76.13 0.009333 -37.76
8.93880000 0.009368 66.110 0.999934 -76.13 0.999934 -76.13 0.009326 -38.34
8.93890000 0.009362 66.683 0.999934 -76.14 0.999934 -76.14 0.009320 -38.93
8.93900000 0.009357 67.263 0.999934 -76.14 0.999934 -76.14 0.009314 -39.52
8.93910000 0.009353 67.848 0.999934 -76.15 0.999934 -76.15 0.009310 -40.13
8.93920000 0.009350 68.440 0.999933 -76.16 0.999933 -76.16 0.009306 -40.73