! Sonnet Data File
! From: emgraph Version : 16.52
! From Project: Resonator2_extremeCap2
! Data is De-embedded 
! Data File Written: 10/11/2017 09:28:28
!< HDATE 10/10/2017 20:43:28
!< MDATE 10/10/2017 20:43:28
!< PARAMS
!< Pwid1 = 2000.0
!< Pwid2 = 2000.0
!< Air_gap = 18.0
!< Width = 30.0
!< Gap = 74.0
!< END PARAMS
# GHZ S MA R 43.06000
8.90000000 0.298154 -2.831 0.954511 -89.96 0.954511 -89.96 0.298150 2.9169
!< P1 F=8.9 Eeff=(5.1612639 -2.2548e-5) Z0=(43.0590329 9.5502e-5) R=0.0 C=0.0 
!< P2 F=8.9 Eeff=(5.1612639 -2.2548e-5) Z0=(43.0590329 9.5502e-5) R=0.0 C=0.0 
8.90025000 0.298197 -2.831 0.954497 -89.96 0.954497 -89.96 0.298193 2.9065
8.90050000 0.298240 -2.832 0.954484 -89.97 0.954484 -89.97 0.298235 2.8962
8.90075000 0.298283 -2.832 0.954471 -89.97 0.954471 -89.97 0.298278 2.8858
8.90100000 0.298326 -2.832 0.954457 -89.98 0.954457 -89.98 0.298321 2.8754
8.90125000 0.298369 -2.833 0.954444 -89.98 0.954444 -89.98 0.298365 2.8650
8.90150000 0.298412 -2.833 0.954430 -89.99 0.954430 -89.99 0.298408 2.8546
8.90175000 0.298455 -2.833 0.954417 -89.99 0.954417 -89.99 0.298451 2.8441
8.90200000 0.298499 -2.833 0.954403 -90.00 0.954403 -90.00 0.298494 2.8337
8.90225000 0.298542 -2.834 0.954389 -90.00 0.954389 -90.00 0.298538 2.8232
8.90250000 0.298586 -2.834 0.954376 -90.01 0.954376 -90.01 0.298581 2.8127
8.90275000 0.298629 -2.834 0.954362 -90.02 0.954362 -90.02 0.298625 2.8022
8.90300000 0.298673 -2.834 0.954348 -90.02 0.954348 -90.02 0.298669 2.7916
8.90325000 0.298717 -2.835 0.954335 -90.03 0.954335 -90.03 0.298713 2.7810
8.90350000 0.298761 -2.835 0.954321 -90.03 0.954321 -90.03 0.298756 2.7704
8.90375000 0.298805 -2.835 0.954307 -90.04 0.954307 -90.04 0.298800 2.7598
8.90400000 0.298849 -2.835 0.954293 -90.04 0.954293 -90.04 0.298844 2.7492
8.90425000 0.298893 -2.835 0.954279 -90.05 0.954279 -90.05 0.298889 2.7385
8.90450000 0.298937 -2.836 0.954266 -90.05 0.954266 -90.05 0.298933 2.7278
8.90475000 0.298981 -2.836 0.954252 -90.06 0.954252 -90.06 0.298977 2.7171
8.90500000 0.299026 -2.836 0.954238 -90.06 0.954238 -90.06 0.299022 2.7064
8.90525000 0.299070 -2.836 0.954224 -90.07 0.954224 -90.07 0.299066 2.6957
8.90550000 0.299115 -2.836 0.954210 -90.08 0.954210 -90.08 0.299111 2.6849
8.90575000 0.299160 -2.836 0.954196 -90.08 0.954196 -90.08 0.299155 2.6741
8.90600000 0.299204 -2.836 0.954182 -90.09 0.954182 -90.09 0.299200 2.6633
8.90625000 0.299249 -2.837 0.954168 -90.09 0.954168 -90.09 0.299245 2.6525
8.90650000 0.299294 -2.837 0.954154 -90.10 0.954154 -90.10 0.299290 2.6416
8.90675000 0.299339 -2.837 0.954140 -90.10 0.954140 -90.10 0.299335 2.6308
8.90700000 0.299384 -2.837 0.954125 -90.11 0.954125 -90.11 0.299380 2.6199
8.90725000 0.299430 -2.837 0.954111 -90.11 0.954111 -90.11 0.299425 2.6089
8.90750000 0.299475 -2.837 0.954097 -90.12 0.954097 -90.12 0.299470 2.5980
8.90775000 0.299520 -2.837 0.954083 -90.12 0.954083 -90.12 0.299516 2.5870
8.90800000 0.299566 -2.837 0.954068 -90.13 0.954068 -90.13 0.299561 2.5760
8.90825000 0.299611 -2.837 0.954054 -90.14 0.954054 -90.14 0.299607 2.5650
8.90850000 0.299657 -2.837 0.954040 -90.14 0.954040 -90.14 0.299652 2.5540
8.90875000 0.299703 -2.837 0.954025 -90.15 0.954025 -90.15 0.299698 2.5429
8.90900000 0.299749 -2.837 0.954011 -90.15 0.954011 -90.15 0.299744 2.5319
8.90925000 0.299795 -2.837 0.953996 -90.16 0.953996 -90.16 0.299790 2.5208
8.90950000 0.299841 -2.837 0.953982 -90.16 0.953982 -90.16 0.299836 2.5096
8.90975000 0.299887 -2.838 0.953967 -90.17 0.953967 -90.17 0.299882 2.4985
8.91000000 0.299933 -2.838 0.953953 -90.17 0.953953 -90.17 0.299928 2.4873
8.91025000 0.299979 -2.838 0.953938 -90.18 0.953938 -90.18 0.299975 2.4761
8.91050000 0.300026 -2.838 0.953924 -90.19 0.953924 -90.19 0.300021 2.4649
8.91075000 0.300072 -2.838 0.953909 -90.19 0.953909 -90.19 0.300068 2.4537
8.91100000 0.300119 -2.837 0.953894 -90.20 0.953894 -90.20 0.300114 2.4424
8.91125000 0.300166 -2.837 0.953880 -90.20 0.953880 -90.20 0.300161 2.4311
8.91150000 0.300212 -2.837 0.953865 -90.21 0.953865 -90.21 0.300208 2.4198
8.91175000 0.300259 -2.837 0.953850 -90.21 0.953850 -90.21 0.300255 2.4084
8.91200000 0.300306 -2.837 0.953835 -90.22 0.953835 -90.22 0.300302 2.3971
8.91225000 0.300354 -2.837 0.953821 -90.23 0.953821 -90.23 0.300349 2.3857
8.91250000 0.300401 -2.837 0.953806 -90.23 0.953806 -90.23 0.300396 2.3743
8.91275000 0.300448 -2.837 0.953791 -90.24 0.953791 -90.24 0.300443 2.3628
8.91300000 0.300495 -2.837 0.953776 -90.24 0.953776 -90.24 0.300491 2.3514
8.91325000 0.300543 -2.837 0.953761 -90.25 0.953761 -90.25 0.300538 2.3399
8.91350000 0.300591 -2.837 0.953746 -90.25 0.953746 -90.25 0.300586 2.3284
8.91375000 0.300638 -2.837 0.953731 -90.26 0.953731 -90.26 0.300633 2.3168
8.91400000 0.300686 -2.837 0.953716 -90.27 0.953716 -90.27 0.300681 2.3053
8.91425000 0.300734 -2.836 0.953701 -90.27 0.953701 -90.27 0.300729 2.2937
8.91450000 0.300782 -2.836 0.953685 -90.28 0.953685 -90.28 0.300777 2.2821
8.91475000 0.300830 -2.836 0.953670 -90.28 0.953670 -90.28 0.300825 2.2704
8.91500000 0.300878 -2.836 0.953655 -90.29 0.953655 -90.29 0.300874 2.2588
8.91525000 0.300927 -2.836 0.953640 -90.29 0.953640 -90.29 0.300922 2.2471
8.91550000 0.300975 -2.836 0.953624 -90.30 0.953624 -90.30 0.300970 2.2354
8.91575000 0.301024 -2.835 0.953609 -90.31 0.953609 -90.31 0.301019 2.2236
8.91600000 0.301072 -2.835 0.953594 -90.31 0.953594 -90.31 0.301067 2.2119
8.91625000 0.301121 -2.835 0.953578 -90.32 0.953578 -90.32 0.301116 2.2001
8.91650000 0.301170 -2.835 0.953563 -90.32 0.953563 -90.32 0.301165 2.1883
8.91675000 0.301219 -2.835 0.953547 -90.33 0.953547 -90.33 0.301214 2.1764
8.91700000 0.301268 -2.834 0.953532 -90.33 0.953532 -90.33 0.301263 2.1645
8.91725000 0.301317 -2.834 0.953516 -90.34 0.953516 -90.34 0.301312 2.1526
8.91750000 0.301367 -2.834 0.953501 -90.35 0.953501 -90.35 0.301362 2.1407
8.91775000 0.301416 -2.834 0.953485 -90.35 0.953485 -90.35 0.301411 2.1288
8.91800000 0.301466 -2.833 0.953469 -90.36 0.953469 -90.36 0.301460 2.1168
8.91825000 0.301515 -2.833 0.953454 -90.36 0.953454 -90.36 0.301510 2.1048
8.91850000 0.301565 -2.833 0.953438 -90.37 0.953438 -90.37 0.301560 2.0928
8.91875000 0.301615 -2.833 0.953422 -90.38 0.953422 -90.38 0.301610 2.0807
8.91900000 0.301665 -2.832 0.953406 -90.38 0.953406 -90.38 0.301660 2.0686
8.91925000 0.301715 -2.832 0.953391 -90.39 0.953391 -90.39 0.301710 2.0565
8.91950000 0.301765 -2.832 0.953375 -90.39 0.953375 -90.39 0.301760 2.0444
8.91975000 0.301815 -2.831 0.953359 -90.40 0.953359 -90.40 0.301810 2.0322
8.92000000 0.301866 -2.831 0.953343 -90.40 0.953343 -90.40 0.301861 2.0200
8.92025000 0.301916 -2.831 0.953327 -90.41 0.953327 -90.41 0.301911 2.0078
8.92050000 0.301967 -2.830 0.953311 -90.42 0.953311 -90.42 0.301962 1.9955
8.92075000 0.302018 -2.830 0.953295 -90.42 0.953295 -90.42 0.302012 1.9832
8.92100000 0.302069 -2.829 0.953278 -90.43 0.953278 -90.43 0.302063 1.9709
8.92125000 0.302120 -2.829 0.953262 -90.43 0.953262 -90.43 0.302114 1.9586
8.92150000 0.302171 -2.829 0.953246 -90.44 0.953246 -90.44 0.302165 1.9462
8.92175000 0.302222 -2.828 0.953230 -90.45 0.953230 -90.45 0.302217 1.9338
8.92200000 0.302273 -2.828 0.953214 -90.45 0.953214 -90.45 0.302268 1.9214
8.92225000 0.302325 -2.827 0.953197 -90.46 0.953197 -90.46 0.302319 1.9089
8.92250000 0.302376 -2.827 0.953181 -90.46 0.953181 -90.46 0.302371 1.8965
8.92275000 0.302428 -2.827 0.953164 -90.47 0.953164 -90.47 0.302423 1.8839
8.92300000 0.302480 -2.826 0.953148 -90.48 0.953148 -90.48 0.302475 1.8714
8.92325000 0.302532 -2.826 0.953131 -90.48 0.953131 -90.48 0.302526 1.8588
8.92350000 0.302584 -2.825 0.953115 -90.49 0.953115 -90.49 0.302579 1.8462
8.92375000 0.302636 -2.825 0.953098 -90.50 0.953098 -90.50 0.302631 1.8336
8.92400000 0.302689 -2.824 0.953082 -90.50 0.953082 -90.50 0.302683 1.8209
8.92425000 0.302741 -2.824 0.953065 -90.51 0.953065 -90.51 0.302735 1.8082
8.92450000 0.302794 -2.823 0.953048 -90.51 0.953048 -90.51 0.302788 1.7955
8.92475000 0.302846 -2.823 0.953032 -90.52 0.953032 -90.52 0.302841 1.7828
8.92500000 0.302899 -2.822 0.953015 -90.53 0.953015 -90.53 0.302894 1.7700
8.92525000 0.302952 -2.822 0.952998 -90.53 0.952998 -90.53 0.302946 1.7572
8.92550000 0.303005 -2.821 0.952981 -90.54 0.952981 -90.54 0.303000 1.7443
8.92575000 0.303058 -2.820 0.952964 -90.54 0.952964 -90.54 0.303053 1.7315
8.92600000 0.303112 -2.820 0.952947 -90.55 0.952947 -90.55 0.303106 1.7186
8.92625000 0.303165 -2.819 0.952930 -90.56 0.952930 -90.56 0.303159 1.7056
8.92650000 0.303219 -2.819 0.952913 -90.56 0.952913 -90.56 0.303213 1.6927
8.92675000 0.303273 -2.818 0.952896 -90.57 0.952896 -90.57 0.303267 1.6797
8.92700000 0.303326 -2.817 0.952879 -90.57 0.952879 -90.57 0.303321 1.6666
8.92725000 0.303380 -2.817 0.952862 -90.58 0.952862 -90.58 0.303375 1.6536
8.92750000 0.303435 -2.816 0.952844 -90.59 0.952844 -90.59 0.303429 1.6405
8.92775000 0.303489 -2.816 0.952827 -90.59 0.952827 -90.59 0.303483 1.6274
8.92800000 0.303543 -2.815 0.952810 -90.60 0.952810 -90.60 0.303537 1.6142
8.92825000 0.303598 -2.814 0.952792 -90.61 0.952792 -90.61 0.303592 1.6010
8.92850000 0.303652 -2.813 0.952775 -90.61 0.952775 -90.61 0.303646 1.5878
8.92875000 0.303707 -2.813 0.952757 -90.62 0.952757 -90.62 0.303701 1.5745
8.92900000 0.303762 -2.812 0.952740 -90.62 0.952740 -90.62 0.303756 1.5612
8.92925000 0.303817 -2.811 0.952722 -90.63 0.952722 -90.63 0.303811 1.5479
8.92950000 0.303872 -2.811 0.952705 -90.64 0.952705 -90.64 0.303866 1.5346
8.92975000 0.303928 -2.810 0.952687 -90.64 0.952687 -90.64 0.303922 1.5212
8.93000000 0.303983 -2.809 0.952669 -90.65 0.952669 -90.65 0.303977 1.5078
8.93025000 0.304039 -2.808 0.952652 -90.66 0.952652 -90.66 0.304033 1.4943
8.93050000 0.304095 -2.808 0.952634 -90.66 0.952634 -90.66 0.304089 1.4808
8.93075000 0.304151 -2.807 0.952616 -90.67 0.952616 -90.67 0.304144 1.4673
8.93100000 0.304207 -2.806 0.952598 -90.68 0.952598 -90.68 0.304200 1.4537
8.93125000 0.304263 -2.805 0.952580 -90.68 0.952580 -90.68 0.304257 1.4402
8.93150000 0.304319 -2.804 0.952562 -90.69 0.952562 -90.69 0.304313 1.4265
8.93175000 0.304376 -2.804 0.952544 -90.69 0.952544 -90.69 0.304369 1.4129
8.93200000 0.304432 -2.803 0.952526 -90.70 0.952526 -90.70 0.304426 1.3992
8.93225000 0.304489 -2.802 0.952508 -90.71 0.952508 -90.71 0.304483 1.3854
8.93250000 0.304546 -2.801 0.952489 -90.71 0.952489 -90.71 0.304540 1.3717
8.93275000 0.304603 -2.800 0.952471 -90.72 0.952471 -90.72 0.304597 1.3579
8.93300000 0.304660 -2.799 0.952453 -90.73 0.952453 -90.73 0.304654 1.3441
8.93325000 0.304718 -2.798 0.952434 -90.73 0.952434 -90.73 0.304711 1.3302
8.93350000 0.304775 -2.798 0.952416 -90.74 0.952416 -90.74 0.304769 1.3163
8.93375000 0.304833 -2.797 0.952398 -90.75 0.952398 -90.75 0.304826 1.3023
8.93400000 0.304891 -2.796 0.952379 -90.75 0.952379 -90.75 0.304884 1.2884
8.93425000 0.304949 -2.795 0.952361 -90.76 0.952361 -90.76 0.304942 1.2743
8.93450000 0.305007 -2.794 0.952342 -90.77 0.952342 -90.77 0.305000 1.2603
8.93475000 0.305065 -2.793 0.952323 -90.77 0.952323 -90.77 0.305058 1.2462
8.93500000 0.305123 -2.792 0.952304 -90.78 0.952304 -90.78 0.305117 1.2321
8.93525000 0.305182 -2.791 0.952286 -90.79 0.952286 -90.79 0.305175 1.2179
8.93550000 0.305241 -2.790 0.952267 -90.79 0.952267 -90.79 0.305234 1.2037
8.93575000 0.305300 -2.789 0.952248 -90.80 0.952248 -90.80 0.305293 1.1895
8.93600000 0.305359 -2.788 0.952229 -90.81 0.952229 -90.81 0.305352 1.1752
8.93625000 0.305418 -2.787 0.952210 -90.81 0.952210 -90.81 0.305411 1.1609
8.93650000 0.305477 -2.786 0.952191 -90.82 0.952191 -90.82 0.305470 1.1466
8.93675000 0.305537 -2.785 0.952172 -90.83 0.952172 -90.83 0.305530 1.1322
8.93700000 0.305596 -2.784 0.952153 -90.83 0.952153 -90.83 0.305590 1.1178
8.93725000 0.305656 -2.782 0.952133 -90.84 0.952133 -90.84 0.305649 1.1033
8.93750000 0.305716 -2.781 0.952114 -90.85 0.952114 -90.85 0.305709 1.0888
8.93775000 0.305776 -2.780 0.952095 -90.85 0.952095 -90.85 0.305770 1.0743
8.93800000 0.305837 -2.779 0.952075 -90.86 0.952075 -90.86 0.305830 1.0597
8.93825000 0.305897 -2.778 0.952056 -90.87 0.952056 -90.87 0.305890 1.0451
8.93850000 0.305958 -2.777 0.952036 -90.87 0.952036 -90.87 0.305951 1.0304
8.93875000 0.306019 -2.776 0.952017 -90.88 0.952017 -90.88 0.306012 1.0157
8.93900000 0.306080 -2.774 0.951997 -90.89 0.951997 -90.89 0.306073 1.0010
8.93925000 0.306141 -2.773 0.951978 -90.89 0.951978 -90.89 0.306134 0.9862
8.93950000 0.306202 -2.772 0.951958 -90.90 0.951958 -90.90 0.306195 0.9714
8.93975000 0.306264 -2.771 0.951938 -90.91 0.951938 -90.91 0.306257 0.9565
8.94000000 0.306326 -2.770 0.951918 -90.91 0.951918 -90.91 0.306318 0.9416
8.94025000 0.306387 -2.768 0.951898 -90.92 0.951898 -90.92 0.306380 0.9267
8.94050000 0.306449 -2.767 0.951878 -90.93 0.951878 -90.93 0.306442 0.9117
8.94075000 0.306512 -2.766 0.951858 -90.93 0.951858 -90.93 0.306504 0.8967
8.94100000 0.306574 -2.765 0.951838 -90.94 0.951838 -90.94 0.306567 0.8816
8.94125000 0.306637 -2.763 0.951818 -90.95 0.951818 -90.95 0.306629 0.8665
8.94150000 0.306699 -2.762 0.951798 -90.95 0.951798 -90.95 0.306692 0.8514
8.94175000 0.306762 -2.761 0.951777 -90.96 0.951777 -90.96 0.306755 0.8362
8.94200000 0.306825 -2.759 0.951757 -90.97 0.951757 -90.97 0.306818 0.8210
8.94225000 0.306889 -2.758 0.951737 -90.98 0.951737 -90.98 0.306881 0.8057
8.94250000 0.306952 -2.757 0.951716 -90.98 0.951716 -90.98 0.306945 0.7904
8.94275000 0.307016 -2.755 0.951696 -90.99 0.951696 -90.99 0.307008 0.7750
8.94300000 0.307080 -2.754 0.951675 -91.00 0.951675 -91.00 0.307072 0.7596
8.94325000 0.307144 -2.752 0.951654 -91.00 0.951654 -91.00 0.307136 0.7442
8.94350000 0.307208 -2.751 0.951634 -91.01 0.951634 -91.01 0.307200 0.7287
8.94375000 0.307272 -2.749 0.951613 -91.02 0.951613 -91.02 0.307265 0.7132
8.94400000 0.307337 -2.748 0.951592 -91.02 0.951592 -91.02 0.307329 0.6976
8.94425000 0.307401 -2.747 0.951571 -91.03 0.951571 -91.03 0.307394 0.6820
8.94450000 0.307466 -2.745 0.951550 -91.04 0.951550 -91.04 0.307459 0.6663
8.94475000 0.307531 -2.744 0.951529 -91.05 0.951529 -91.05 0.307524 0.6506
8.94500000 0.307597 -2.742 0.951508 -91.05 0.951508 -91.05 0.307589 0.6349
8.94525000 0.307662 -2.741 0.951487 -91.06 0.951487 -91.06 0.307655 0.6191
8.94550000 0.307728 -2.739 0.951465 -91.07 0.951465 -91.07 0.307720 0.6032
8.94575000 0.307794 -2.737 0.951444 -91.07 0.951444 -91.07 0.307786 0.5873
8.94600000 0.307860 -2.736 0.951423 -91.08 0.951423 -91.08 0.307852 0.5714
8.94625000 0.307926 -2.734 0.951401 -91.09 0.951401 -91.09 0.307919 0.5554
8.94650000 0.307993 -2.733 0.951380 -91.10 0.951380 -91.10 0.307985 0.5394
8.94675000 0.308060 -2.731 0.951358 -91.10 0.951358 -91.10 0.308052 0.5233
8.94700000 0.308126 -2.729 0.951336 -91.11 0.951336 -91.11 0.308119 0.5072
8.94725000 0.308194 -2.728 0.951315 -91.12 0.951315 -91.12 0.308186 0.4910
8.94750000 0.308261 -2.726 0.951293 -91.12 0.951293 -91.12 0.308253 0.4748
8.94775000 0.308328 -2.725 0.951271 -91.13 0.951271 -91.13 0.308320 0.4586
8.94800000 0.308396 -2.723 0.951249 -91.14 0.951249 -91.14 0.308388 0.4422
8.94825000 0.308464 -2.721 0.951227 -91.15 0.951227 -91.15 0.308456 0.4259
8.94850000 0.308532 -2.719 0.951205 -91.15 0.951205 -91.15 0.308524 0.4095
8.94875000 0.308600 -2.718 0.951182 -91.16 0.951182 -91.16 0.308592 0.3930
8.94900000 0.308669 -2.716 0.951160 -91.17 0.951160 -91.17 0.308661 0.3765
8.94925000 0.308738 -2.714 0.951138 -91.18 0.951138 -91.18 0.308730 0.3600
8.94950000 0.308807 -2.712 0.951115 -91.18 0.951115 -91.18 0.308799 0.3434
8.94975000 0.308876 -2.711 0.951093 -91.19 0.951093 -91.19 0.308868 0.3267
8.95000000 0.308945 -2.709 0.951070 -91.20 0.951070 -91.20 0.308937 0.3100
8.95025000 0.309015 -2.707 0.951048 -91.21 0.951048 -91.21 0.309007 0.2933
8.95050000 0.309085 -2.705 0.951025 -91.21 0.951025 -91.21 0.309076 0.2765
8.95075000 0.309155 -2.703 0.951002 -91.22 0.951002 -91.22 0.309146 0.2596
8.95100000 0.309225 -2.701 0.950979 -91.23 0.950979 -91.23 0.309217 0.2427
8.95125000 0.309296 -2.699 0.950956 -91.24 0.950956 -91.24 0.309287 0.2257
8.95150000 0.309366 -2.698 0.950933 -91.24 0.950933 -91.24 0.309358 0.2087
8.95175000 0.309437 -2.696 0.950910 -91.25 0.950910 -91.25 0.309429 0.1917
8.95200000 0.309508 -2.694 0.950887 -91.26 0.950887 -91.26 0.309500 0.1746
8.95225000 0.309580 -2.692 0.950864 -91.27 0.950864 -91.27 0.309571 0.1574
8.95250000 0.309651 -2.690 0.950841 -91.27 0.950841 -91.27 0.309643 0.1402
8.95275000 0.309723 -2.688 0.950817 -91.28 0.950817 -91.28 0.309715 0.1229
8.95300000 0.309795 -2.686 0.950794 -91.29 0.950794 -91.29 0.309787 0.1056
8.95325000 0.309868 -2.684 0.950770 -91.30 0.950770 -91.30 0.309859 0.0882
8.95350000 0.309940 -2.682 0.950746 -91.30 0.950746 -91.30 0.309931 0.0708
8.95375000 0.310013 -2.680 0.950723 -91.31 0.950723 -91.31 0.310004 0.0533
8.95400000 0.310086 -2.678 0.950699 -91.32 0.950699 -91.32 0.310077 0.0358
8.95425000 0.310159 -2.676 0.950675 -91.33 0.950675 -91.33 0.310150 0.0182
8.95450000 0.310233 -2.673 0.950651 -91.34 0.950651 -91.34 0.310224 5.4e-4
8.95475000 0.310306 -2.671 0.950627 -91.34 0.950627 -91.34 0.310297 -0.017
8.95500000 0.310380 -2.669 0.950603 -91.35 0.950603 -91.35 0.310371 -0.035
8.95525000 0.310455 -2.667 0.950578 -91.36 0.950578 -91.36 0.310446 -0.053
8.95550000 0.310529 -2.665 0.950554 -91.37 0.950554 -91.37 0.310520 -0.071
8.95575000 0.310604 -2.663 0.950530 -91.37 0.950530 -91.37 0.310595 -0.089
8.95600000 0.310679 -2.660 0.950505 -91.38 0.950505 -91.38 0.310670 -0.107
8.95625000 0.310754 -2.658 0.950480 -91.39 0.950480 -91.39 0.310745 -0.125
8.95650000 0.310829 -2.656 0.950456 -91.40 0.950456 -91.40 0.310820 -0.143
8.95675000 0.310905 -2.654 0.950431 -91.41 0.950431 -91.41 0.310896 -0.161
8.95700000 0.310981 -2.651 0.950406 -91.41 0.950406 -91.41 0.310972 -0.179
8.95725000 0.311057 -2.649 0.950381 -91.42 0.950381 -91.42 0.311048 -0.197
8.95750000 0.311134 -2.647 0.950356 -91.43 0.950356 -91.43 0.311124 -0.216
8.95775000 0.311210 -2.644 0.950331 -91.44 0.950331 -91.44 0.311201 -0.234
8.95800000 0.311287 -2.642 0.950306 -91.45 0.950306 -91.45 0.311278 -0.252
8.95825000 0.311365 -2.640 0.950280 -91.45 0.950280 -91.45 0.311355 -0.271
8.95850000 0.311442 -2.637 0.950255 -91.46 0.950255 -91.46 0.311433 -0.290
8.95875000 0.311520 -2.635 0.950229 -91.47 0.950229 -91.47 0.311511 -0.308
8.95900000 0.311598 -2.632 0.950204 -91.48 0.950204 -91.48 0.311589 -0.327
8.95925000 0.311676 -2.630 0.950178 -91.49 0.950178 -91.49 0.311667 -0.346
8.95950000 0.311755 -2.628 0.950152 -91.50 0.950152 -91.50 0.311745 -0.364
8.95975000 0.311834 -2.625 0.950126 -91.50 0.950126 -91.50 0.311824 -0.383
8.96000000 0.311913 -2.623 0.950100 -91.51 0.950100 -91.51 0.311903 -0.402
8.96025000 0.311992 -2.620 0.950074 -91.52 0.950074 -91.52 0.311983 -0.421
8.96050000 0.312072 -2.617 0.950048 -91.53 0.950048 -91.53 0.312062 -0.440
8.96075000 0.312152 -2.615 0.950022 -91.54 0.950022 -91.54 0.312142 -0.459
8.96100000 0.312232 -2.612 0.949995 -91.54 0.949995 -91.54 0.312223 -0.479
8.96125000 0.312313 -2.610 0.949969 -91.55 0.949969 -91.55 0.312303 -0.498
8.96150000 0.312394 -2.607 0.949942 -91.56 0.949942 -91.56 0.312384 -0.517
8.96175000 0.312475 -2.604 0.949916 -91.57 0.949916 -91.57 0.312465 -0.537
8.96200000 0.312556 -2.602 0.949889 -91.58 0.949889 -91.58 0.312546 -0.556
8.96225000 0.312638 -2.599 0.949862 -91.59 0.949862 -91.59 0.312628 -0.576
8.96250000 0.312720 -2.596 0.949835 -91.59 0.949835 -91.59 0.312710 -0.595
8.96275000 0.312802 -2.594 0.949808 -91.60 0.949808 -91.60 0.312792 -0.615
8.96300000 0.312885 -2.591 0.949780 -91.61 0.949780 -91.61 0.312875 -0.635
8.96325000 0.312968 -2.588 0.949753 -91.62 0.949753 -91.62 0.312957 -0.654
8.96350000 0.313051 -2.585 0.949726 -91.63 0.949726 -91.63 0.313041 -0.674
8.96375000 0.313134 -2.583 0.949698 -91.64 0.949698 -91.64 0.313124 -0.694
8.96400000 0.313218 -2.580 0.949670 -91.65 0.949670 -91.65 0.313208 -0.714
8.96425000 0.313302 -2.577 0.949643 -91.65 0.949643 -91.65 0.313292 -0.734
8.96450000 0.313387 -2.574 0.949615 -91.66 0.949615 -91.66 0.313376 -0.754
8.96475000 0.313471 -2.571 0.949587 -91.67 0.949587 -91.67 0.313461 -0.774
8.96500000 0.313556 -2.568 0.949559 -91.68 0.949559 -91.68 0.313546 -0.795
8.96525000 0.313642 -2.565 0.949530 -91.69 0.949530 -91.69 0.313631 -0.815
8.96550000 0.313727 -2.562 0.949502 -91.70 0.949502 -91.70 0.313717 -0.836
8.96575000 0.313813 -2.559 0.949474 -91.71 0.949474 -91.71 0.313803 -0.856
8.96600000 0.313900 -2.556 0.949445 -91.72 0.949445 -91.72 0.313889 -0.877
8.96625000 0.313986 -2.553 0.949417 -91.72 0.949417 -91.72 0.313975 -0.897
8.96650000 0.314073 -2.550 0.949388 -91.73 0.949388 -91.73 0.314062 -0.918
8.96675000 0.314160 -2.547 0.949359 -91.74 0.949359 -91.74 0.314150 -0.939
8.96700000 0.314248 -2.544 0.949330 -91.75 0.949330 -91.75 0.314237 -0.959
8.96725000 0.314336 -2.541 0.949301 -91.76 0.949301 -91.76 0.314325 -0.980
8.96750000 0.314424 -2.538 0.949271 -91.77 0.949271 -91.77 0.314413 -1.001
8.96775000 0.314513 -2.535 0.949242 -91.78 0.949242 -91.78 0.314502 -1.022
8.96800000 0.314602 -2.532 0.949213 -91.79 0.949213 -91.79 0.314591 -1.044
8.96825000 0.314691 -2.528 0.949183 -91.80 0.949183 -91.80 0.314680 -1.065
8.96850000 0.314781 -2.525 0.949153 -91.80 0.949153 -91.80 0.314769 -1.086
8.96875000 0.314871 -2.522 0.949123 -91.81 0.949123 -91.81 0.314859 -1.107
8.96900000 0.314961 -2.519 0.949093 -91.82 0.949093 -91.82 0.314950 -1.129
8.96925000 0.315052 -2.515 0.949063 -91.83 0.949063 -91.83 0.315040 -1.150
8.96950000 0.315143 -2.512 0.949033 -91.84 0.949033 -91.84 0.315131 -1.172
8.96975000 0.315234 -2.509 0.949003 -91.85 0.949003 -91.85 0.315222 -1.194
8.97000000 0.315326 -2.505 0.948972 -91.86 0.948972 -91.86 0.315314 -1.216
8.97025000 0.315418 -2.502 0.948941 -91.87 0.948941 -91.87 0.315406 -1.237
8.97050000 0.315510 -2.499 0.948911 -91.88 0.948911 -91.88 0.315499 -1.259
8.97075000 0.315603 -2.495 0.948880 -91.89 0.948880 -91.89 0.315591 -1.281
8.97100000 0.315696 -2.492 0.948849 -91.90 0.948849 -91.90 0.315684 -1.303
8.97125000 0.315790 -2.488 0.948817 -91.91 0.948817 -91.91 0.315778 -1.326
8.97150000 0.315884 -2.485 0.948786 -91.92 0.948786 -91.92 0.315872 -1.348
8.97175000 0.315978 -2.481 0.948755 -91.92 0.948755 -91.92 0.315966 -1.370
8.97200000 0.316073 -2.478 0.948723 -91.93 0.948723 -91.93 0.316061 -1.393
8.97225000 0.316168 -2.474 0.948691 -91.94 0.948691 -91.94 0.316156 -1.415
8.97250000 0.316263 -2.471 0.948660 -91.95 0.948660 -91.95 0.316251 -1.438
8.97275000 0.316359 -2.467 0.948628 -91.96 0.948628 -91.96 0.316347 -1.460
8.97300000 0.316455 -2.463 0.948596 -91.97 0.948596 -91.97 0.316443 -1.483
8.97325000 0.316552 -2.460 0.948563 -91.98 0.948563 -91.98 0.316540 -1.506
8.97350000 0.316649 -2.456 0.948531 -91.99 0.948531 -91.99 0.316636 -1.529
8.97375000 0.316746 -2.452 0.948498 -92.00 0.948498 -92.00 0.316734 -1.552
8.97400000 0.316844 -2.448 0.948466 -92.01 0.948466 -92.01 0.316832 -1.575
8.97425000 0.316942 -2.445 0.948433 -92.02 0.948433 -92.02 0.316930 -1.598
8.97450000 0.317041 -2.441 0.948400 -92.03 0.948400 -92.03 0.317028 -1.621
8.97475000 0.317140 -2.437 0.948367 -92.04 0.948367 -92.04 0.317127 -1.645
8.97500000 0.317239 -2.433 0.948333 -92.05 0.948333 -92.05 0.317227 -1.668
8.97525000 0.317339 -2.429 0.948300 -92.06 0.948300 -92.06 0.317326 -1.692
8.97550000 0.317439 -2.425 0.948266 -92.07 0.948266 -92.07 0.317427 -1.715
8.97575000 0.317540 -2.422 0.948232 -92.08 0.948232 -92.08 0.317527 -1.739
8.97600000 0.317641 -2.418 0.948199 -92.09 0.948199 -92.09 0.317628 -1.763
8.97625000 0.317743 -2.414 0.948165 -92.10 0.948165 -92.10 0.317730 -1.787
8.97650000 0.317845 -2.410 0.948130 -92.11 0.948130 -92.11 0.317832 -1.811
8.97675000 0.317947 -2.406 0.948096 -92.12 0.948096 -92.12 0.317934 -1.835
8.97700000 0.318050 -2.402 0.948061 -92.13 0.948061 -92.13 0.318037 -1.859
8.97725000 0.318153 -2.397 0.948027 -92.14 0.948027 -92.14 0.318140 -1.884
8.97750000 0.318257 -2.393 0.947992 -92.15 0.947992 -92.15 0.318244 -1.908
8.97775000 0.318361 -2.389 0.947957 -92.16 0.947957 -92.16 0.318348 -1.932
8.97800000 0.318466 -2.385 0.947922 -92.17 0.947922 -92.17 0.318452 -1.957
8.97825000 0.318571 -2.381 0.947886 -92.18 0.947886 -92.18 0.318557 -1.982
8.97850000 0.318676 -2.377 0.947851 -92.19 0.947851 -92.19 0.318663 -2.007
8.97875000 0.318782 -2.372 0.947815 -92.20 0.947815 -92.20 0.318769 -2.031
8.97900000 0.318889 -2.368 0.947779 -92.21 0.947779 -92.21 0.318875 -2.056
8.97925000 0.318996 -2.364 0.947743 -92.22 0.947743 -92.22 0.318982 -2.081
8.97950000 0.319103 -2.359 0.947707 -92.23 0.947707 -92.23 0.319089 -2.107
8.97975000 0.319211 -2.355 0.947671 -92.24 0.947671 -92.24 0.319197 -2.132
8.98000000 0.319319 -2.351 0.947634 -92.25 0.947634 -92.25 0.319305 -2.157
8.98025000 0.319428 -2.346 0.947597 -92.26 0.947597 -92.26 0.319414 -2.183
8.98050000 0.319537 -2.342 0.947560 -92.27 0.947560 -92.27 0.319523 -2.208
8.98075000 0.319647 -2.337 0.947523 -92.28 0.947523 -92.28 0.319633 -2.234
8.98100000 0.319757 -2.333 0.947486 -92.29 0.947486 -92.29 0.319743 -2.260
8.98125000 0.319868 -2.328 0.947449 -92.31 0.947449 -92.31 0.319854 -2.286
8.98150000 0.319979 -2.324 0.947411 -92.32 0.947411 -92.32 0.319965 -2.312
8.98175000 0.320091 -2.319 0.947373 -92.33 0.947373 -92.33 0.320077 -2.338
8.98200000 0.320204 -2.314 0.947335 -92.34 0.947335 -92.34 0.320189 -2.364
8.98225000 0.320316 -2.310 0.947297 -92.35 0.947297 -92.35 0.320302 -2.391
8.98250000 0.320430 -2.305 0.947259 -92.36 0.947259 -92.36 0.320415 -2.417
8.98275000 0.320543 -2.300 0.947220 -92.37 0.947220 -92.37 0.320529 -2.444
8.98300000 0.320658 -2.296 0.947181 -92.38 0.947181 -92.38 0.320643 -2.470
8.98325000 0.320773 -2.291 0.947142 -92.39 0.947142 -92.39 0.320758 -2.497
8.98350000 0.320888 -2.286 0.947103 -92.40 0.947103 -92.40 0.320873 -2.524
8.98375000 0.321004 -2.281 0.947064 -92.41 0.947064 -92.41 0.320989 -2.551
8.98400000 0.321121 -2.276 0.947024 -92.43 0.947024 -92.43 0.321106 -2.578
8.98425000 0.321238 -2.271 0.946985 -92.44 0.946985 -92.44 0.321223 -2.606
8.98450000 0.321355 -2.266 0.946945 -92.45 0.946945 -92.45 0.321340 -2.633
8.98475000 0.321474 -2.261 0.946904 -92.46 0.946904 -92.46 0.321458 -2.660
8.98500000 0.321592 -2.256 0.946864 -92.47 0.946864 -92.47 0.321577 -2.688
8.98525000 0.321712 -2.251 0.946824 -92.48 0.946824 -92.48 0.321696 -2.716
8.98550000 0.321831 -2.246 0.946783 -92.49 0.946783 -92.49 0.321816 -2.744
8.98575000 0.321952 -2.241 0.946742 -92.50 0.946742 -92.50 0.321936 -2.772
8.98600000 0.322073 -2.236 0.946701 -92.52 0.946701 -92.52 0.322057 -2.800
8.98625000 0.322194 -2.231 0.946659 -92.53 0.946659 -92.53 0.322179 -2.828
8.98650000 0.322317 -2.226 0.946617 -92.54 0.946617 -92.54 0.322301 -2.856
8.98675000 0.322439 -2.220 0.946576 -92.55 0.946576 -92.55 0.322423 -2.885
8.98700000 0.322563 -2.215 0.946533 -92.56 0.946533 -92.56 0.322547 -2.913
8.98725000 0.322687 -2.210 0.946491 -92.57 0.946491 -92.57 0.322671 -2.942
8.98750000 0.322811 -2.205 0.946449 -92.59 0.946449 -92.59 0.322795 -2.971
8.98775000 0.322936 -2.199 0.946406 -92.60 0.946406 -92.60 0.322920 -3.000
8.98800000 0.323062 -2.194 0.946363 -92.61 0.946363 -92.61 0.323046 -3.029
8.98825000 0.323189 -2.188 0.946320 -92.62 0.946320 -92.62 0.323172 -3.058
8.98850000 0.323316 -2.183 0.946276 -92.63 0.946276 -92.63 0.323299 -3.088
8.98875000 0.323443 -2.177 0.946233 -92.65 0.946233 -92.65 0.323427 -3.117
8.98900000 0.323572 -2.172 0.946189 -92.66 0.946189 -92.66 0.323555 -3.147
8.98925000 0.323701 -2.166 0.946144 -92.67 0.946144 -92.67 0.323684 -3.177
8.98950000 0.323830 -2.161 0.946100 -92.68 0.946100 -92.68 0.323813 -3.206
8.98975000 0.323960 -2.155 0.946055 -92.69 0.946055 -92.69 0.323944 -3.237
8.99000000 0.324091 -2.149 0.946010 -92.71 0.946010 -92.71 0.324074 -3.267
8.99025000 0.324223 -2.143 0.945965 -92.72 0.945965 -92.72 0.324206 -3.297
8.99050000 0.324355 -2.138 0.945920 -92.73 0.945920 -92.73 0.324338 -3.327
8.99075000 0.324488 -2.132 0.945874 -92.74 0.945874 -92.74 0.324471 -3.358
8.99100000 0.324622 -2.126 0.945828 -92.76 0.945828 -92.76 0.324604 -3.389
8.99125000 0.324756 -2.120 0.945782 -92.77 0.945782 -92.77 0.324739 -3.420
8.99150000 0.324891 -2.114 0.945736 -92.78 0.945736 -92.78 0.324873 -3.451
8.99175000 0.325027 -2.108 0.945689 -92.79 0.945689 -92.79 0.325009 -3.482
8.99200000 0.325163 -2.102 0.945642 -92.81 0.945642 -92.81 0.325145 -3.513
8.99225000 0.325300 -2.096 0.945595 -92.82 0.945595 -92.82 0.325282 -3.545
8.99250000 0.325438 -2.090 0.945547 -92.83 0.945547 -92.83 0.325420 -3.576
8.99275000 0.325577 -2.084 0.945500 -92.84 0.945500 -92.84 0.325559 -3.608
8.99300000 0.325716 -2.078 0.945452 -92.86 0.945452 -92.86 0.325698 -3.640
8.99325000 0.325856 -2.072 0.945403 -92.87 0.945403 -92.87 0.325838 -3.672
8.99350000 0.325997 -2.066 0.945355 -92.88 0.945355 -92.88 0.325978 -3.704
8.99375000 0.326138 -2.059 0.945306 -92.90 0.945306 -92.90 0.326120 -3.737
8.99400000 0.326280 -2.053 0.945257 -92.91 0.945257 -92.91 0.326262 -3.769
8.99425000 0.326423 -2.047 0.945207 -92.92 0.945207 -92.92 0.326405 -3.802
8.99450000 0.326567 -2.040 0.945157 -92.94 0.945157 -92.94 0.326548 -3.835
8.99475000 0.326712 -2.034 0.945107 -92.95 0.945107 -92.95 0.326693 -3.868
8.99500000 0.326857 -2.027 0.945057 -92.96 0.945057 -92.96 0.326838 -3.901
8.99525000 0.327003 -2.021 0.945006 -92.98 0.945006 -92.98 0.326984 -3.934
8.99550000 0.327150 -2.014 0.944955 -92.99 0.944955 -92.99 0.327131 -3.968
8.99575000 0.327298 -2.008 0.944904 -93.00 0.944904 -93.00 0.327279 -4.001
8.99600000 0.327447 -2.001 0.944853 -93.02 0.944853 -93.02 0.327427 -4.035
8.99625000 0.327596 -1.995 0.944801 -93.03 0.944801 -93.03 0.327576 -4.069
8.99650000 0.327746 -1.988 0.944749 -93.04 0.944749 -93.04 0.327727 -4.103
8.99675000 0.327897 -1.981 0.944696 -93.06 0.944696 -93.06 0.327878 -4.138
8.99700000 0.328049 -1.974 0.944643 -93.07 0.944643 -93.07 0.328029 -4.172
8.99725000 0.328202 -1.968 0.944590 -93.08 0.944590 -93.08 0.328182 -4.207
8.99750000 0.328355 -1.961 0.944537 -93.10 0.944537 -93.10 0.328335 -4.242
8.99775000 0.328510 -1.954 0.944483 -93.11 0.944483 -93.11 0.328490 -4.277
8.99800000 0.328665 -1.947 0.944429 -93.13 0.944429 -93.13 0.328645 -4.312