! Sonnet Data File
! From: emgraph Version : 16.52
! From Project: Resonator2_cp_varyW
! Data is De-embedded 
! Data File Written: 10/09/2017 13:24:46
!< HDATE 10/09/2017 09:18:07
!< MDATE 10/09/2017 09:18:07
!< PARAMS
!< Length = 400.0
!< Pwid1 = 2000.0
!< Pwid2 = 2000.0
!< Air_gap = 6.0
!< Width = 10.0
!< gap = 26.0
!< END PARAMS
# GHZ S MA R 35.98000
8.90000000 0.015877 16.063 0.999869 -75.98 0.999869 -75.98 0.015874 12.007
!< P1 F=8.9 Eeff=(5.36982967 -2.3752e-5) Z0=(35.9777542 8.05608e-5) R=0.0 C=0.0 
!< P2 F=8.9 Eeff=(5.36982967 -2.3752e-5) Z0=(35.9777542 8.05608e-5) R=0.0 C=0.0 
8.90010000 0.015867 16.086 0.999869 -75.98 0.999869 -75.98 0.015864 11.980
8.90020000 0.015857 16.110 0.999869 -75.98 0.999869 -75.98 0.015854 11.954
8.90030000 0.015847 16.133 0.999869 -75.98 0.999869 -75.98 0.015844 11.927
8.90040000 0.015837 16.157 0.999869 -75.99 0.999869 -75.99 0.015834 11.901
8.90050000 0.015827 16.181 0.999869 -75.99 0.999869 -75.99 0.015824 11.874
8.90060000 0.015816 16.204 0.999869 -75.99 0.999869 -75.99 0.015813 11.847
8.90070000 0.015806 16.228 0.999870 -75.99 0.999870 -75.99 0.015803 11.820
8.90080000 0.015796 16.253 0.999870 -75.99 0.999870 -75.99 0.015793 11.793
8.90090000 0.015786 16.277 0.999870 -75.99 0.999870 -75.99 0.015782 11.765
8.90100000 0.015775 16.301 0.999870 -76.00 0.999870 -76.00 0.015772 11.738
8.90110000 0.015765 16.326 0.999870 -76.00 0.999870 -76.00 0.015762 11.710
8.90120000 0.015754 16.350 0.999870 -76.00 0.999870 -76.00 0.015751 11.683
8.90130000 0.015744 16.375 0.999871 -76.00 0.999871 -76.00 0.015741 11.655
8.90140000 0.015733 16.400 0.999871 -76.00 0.999871 -76.00 0.015730 11.627
8.90150000 0.015723 16.425 0.999871 -76.00 0.999871 -76.00 0.015720 11.599
8.90160000 0.015712 16.450 0.999871 -76.01 0.999871 -76.01 0.015709 11.570
8.90170000 0.015702 16.475 0.999871 -76.01 0.999871 -76.01 0.015699 11.542
8.90180000 0.015691 16.500 0.999871 -76.01 0.999871 -76.01 0.015688 11.514
8.90190000 0.015681 16.526 0.999871 -76.01 0.999871 -76.01 0.015677 11.485
8.90200000 0.015670 16.551 0.999872 -76.01 0.999872 -76.01 0.015667 11.456
8.90210000 0.015659 16.577 0.999872 -76.01 0.999872 -76.01 0.015656 11.427
8.90220000 0.015648 16.603 0.999872 -76.02 0.999872 -76.02 0.015645 11.398
8.90230000 0.015638 16.629 0.999872 -76.02 0.999872 -76.02 0.015634 11.369
8.90240000 0.015627 16.655 0.999872 -76.02 0.999872 -76.02 0.015623 11.340
8.90250000 0.015616 16.681 0.999872 -76.02 0.999872 -76.02 0.015613 11.310
8.90260000 0.015605 16.708 0.999873 -76.02 0.999873 -76.02 0.015602 11.281
8.90270000 0.015594 16.734 0.999873 -76.02 0.999873 -76.02 0.015591 11.251
8.90280000 0.015583 16.761 0.999873 -76.03 0.999873 -76.03 0.015580 11.221
8.90290000 0.015572 16.788 0.999873 -76.03 0.999873 -76.03 0.015569 11.191
8.90300000 0.015561 16.815 0.999873 -76.03 0.999873 -76.03 0.015558 11.161
8.90310000 0.015550 16.842 0.999873 -76.03 0.999873 -76.03 0.015547 11.131
8.90320000 0.015539 16.869 0.999874 -76.03 0.999874 -76.03 0.015536 11.100
8.90330000 0.015528 16.896 0.999874 -76.03 0.999874 -76.03 0.015524 11.069
8.90340000 0.015517 16.924 0.999874 -76.03 0.999874 -76.03 0.015513 11.039
8.90350000 0.015505 16.952 0.999874 -76.04 0.999874 -76.04 0.015502 11.008
8.90360000 0.015494 16.979 0.999874 -76.04 0.999874 -76.04 0.015491 10.977
8.90370000 0.015483 17.007 0.999874 -76.04 0.999874 -76.04 0.015479 10.945
8.90380000 0.015472 17.035 0.999875 -76.04 0.999875 -76.04 0.015468 10.914
8.90390000 0.015460 17.064 0.999875 -76.04 0.999875 -76.04 0.015457 10.882
8.90400000 0.015449 17.092 0.999875 -76.04 0.999875 -76.04 0.015445 10.851
8.90410000 0.015437 17.121 0.999875 -76.05 0.999875 -76.05 0.015434 10.819
8.90420000 0.015426 17.149 0.999875 -76.05 0.999875 -76.05 0.015422 10.787
8.90430000 0.015414 17.178 0.999875 -76.05 0.999875 -76.05 0.015411 10.755
8.90440000 0.015403 17.207 0.999876 -76.05 0.999876 -76.05 0.015399 10.722
8.90450000 0.015391 17.237 0.999876 -76.05 0.999876 -76.05 0.015388 10.690
8.90460000 0.015380 17.266 0.999876 -76.06 0.999876 -76.06 0.015376 10.657
8.90470000 0.015368 17.295 0.999876 -76.06 0.999876 -76.06 0.015364 10.624
8.90480000 0.015356 17.325 0.999876 -76.06 0.999876 -76.06 0.015353 10.591
8.90490000 0.015345 17.355 0.999876 -76.06 0.999876 -76.06 0.015341 10.558
8.90500000 0.015333 17.385 0.999877 -76.06 0.999877 -76.06 0.015329 10.525
8.90510000 0.015321 17.415 0.999877 -76.06 0.999877 -76.06 0.015317 10.491
8.90520000 0.015309 17.446 0.999877 -76.07 0.999877 -76.07 0.015305 10.458
8.90530000 0.015297 17.476 0.999877 -76.07 0.999877 -76.07 0.015293 10.424
8.90540000 0.015285 17.507 0.999877 -76.07 0.999877 -76.07 0.015281 10.390
8.90550000 0.015273 17.538 0.999877 -76.07 0.999877 -76.07 0.015269 10.356
8.90560000 0.015261 17.569 0.999878 -76.07 0.999878 -76.07 0.015257 10.321
8.90570000 0.015249 17.600 0.999878 -76.07 0.999878 -76.07 0.015245 10.287
8.90580000 0.015237 17.631 0.999878 -76.08 0.999878 -76.08 0.015233 10.252
8.90590000 0.015225 17.663 0.999878 -76.08 0.999878 -76.08 0.015221 10.217
8.90600000 0.015213 17.694 0.999878 -76.08 0.999878 -76.08 0.015209 10.182
8.90610000 0.015200 17.726 0.999878 -76.08 0.999878 -76.08 0.015197 10.147
8.90620000 0.015188 17.758 0.999879 -76.08 0.999879 -76.08 0.015184 10.111
8.90630000 0.015176 17.791 0.999879 -76.08 0.999879 -76.08 0.015172 10.076
8.90640000 0.015164 17.823 0.999879 -76.09 0.999879 -76.09 0.015160 10.040
8.90650000 0.015151 17.856 0.999879 -76.09 0.999879 -76.09 0.015147 10.004
8.90660000 0.015139 17.888 0.999879 -76.09 0.999879 -76.09 0.015135 9.9674
8.90670000 0.015126 17.921 0.999879 -76.09 0.999879 -76.09 0.015122 9.9310
8.90680000 0.015114 17.955 0.999880 -76.09 0.999880 -76.09 0.015110 9.8944
8.90690000 0.015101 17.988 0.999880 -76.09 0.999880 -76.09 0.015097 9.8575
8.90700000 0.015089 18.022 0.999880 -76.10 0.999880 -76.10 0.015084 9.8205
8.90710000 0.015076 18.055 0.999880 -76.10 0.999880 -76.10 0.015072 9.7833
8.90720000 0.015063 18.089 0.999880 -76.10 0.999880 -76.10 0.015059 9.7459
8.90730000 0.015050 18.123 0.999881 -76.10 0.999881 -76.10 0.015046 9.7083
8.90740000 0.015038 18.158 0.999881 -76.10 0.999881 -76.10 0.015034 9.6704
8.90750000 0.015025 18.192 0.999881 -76.11 0.999881 -76.11 0.015021 9.6324
8.90760000 0.015012 18.227 0.999881 -76.11 0.999881 -76.11 0.015008 9.5942
8.90770000 0.014999 18.262 0.999881 -76.11 0.999881 -76.11 0.014995 9.5557
8.90780000 0.014986 18.297 0.999881 -76.11 0.999881 -76.11 0.014982 9.5170
8.90790000 0.014973 18.333 0.999882 -76.11 0.999882 -76.11 0.014969 9.4782
8.90800000 0.014960 18.368 0.999882 -76.11 0.999882 -76.11 0.014956 9.4391
8.90810000 0.014947 18.404 0.999882 -76.12 0.999882 -76.12 0.014943 9.3998
8.90820000 0.014934 18.440 0.999882 -76.12 0.999882 -76.12 0.014929 9.3602
8.90830000 0.014921 18.476 0.999882 -76.12 0.999882 -76.12 0.014916 9.3205
8.90840000 0.014907 18.513 0.999883 -76.12 0.999883 -76.12 0.014903 9.2805
8.90850000 0.014894 18.549 0.999883 -76.12 0.999883 -76.12 0.014890 9.2403
8.90860000 0.014881 18.586 0.999883 -76.13 0.999883 -76.13 0.014876 9.1999
8.90870000 0.014867 18.623 0.999883 -76.13 0.999883 -76.13 0.014863 9.1592
8.90880000 0.014854 18.661 0.999883 -76.13 0.999883 -76.13 0.014850 9.1183
8.90890000 0.014841 18.698 0.999883 -76.13 0.999883 -76.13 0.014836 9.0772
8.90900000 0.014827 18.736 0.999884 -76.13 0.999884 -76.13 0.014823 9.0359
8.90910000 0.014814 18.774 0.999884 -76.13 0.999884 -76.13 0.014809 8.9943
8.90920000 0.014800 18.812 0.999884 -76.14 0.999884 -76.14 0.014795 8.9525
8.90930000 0.014786 18.851 0.999884 -76.14 0.999884 -76.14 0.014782 8.9104
8.90940000 0.014773 18.889 0.999884 -76.14 0.999884 -76.14 0.014768 8.8681
8.90950000 0.014759 18.928 0.999885 -76.14 0.999885 -76.14 0.014754 8.8255
8.90960000 0.014745 18.967 0.999885 -76.14 0.999885 -76.14 0.014740 8.7827
8.90970000 0.014731 19.007 0.999885 -76.15 0.999885 -76.15 0.014726 8.7397
8.90980000 0.014717 19.046 0.999885 -76.15 0.999885 -76.15 0.014713 8.6964
8.90990000 0.014703 19.086 0.999885 -76.15 0.999885 -76.15 0.014699 8.6528
8.91000000 0.014689 19.126 0.999886 -76.15 0.999886 -76.15 0.014685 8.6090
8.91010000 0.014675 19.167 0.999886 -76.15 0.999886 -76.15 0.014670 8.5649
8.91020000 0.014661 19.208 0.999886 -76.16 0.999886 -76.16 0.014656 8.5206
8.91030000 0.014647 19.248 0.999886 -76.16 0.999886 -76.16 0.014642 8.4760
8.91040000 0.014633 19.290 0.999886 -76.16 0.999886 -76.16 0.014628 8.4312
8.91050000 0.014619 19.331 0.999887 -76.16 0.999887 -76.16 0.014614 8.3860
8.91060000 0.014604 19.373 0.999887 -76.16 0.999887 -76.16 0.014599 8.3407
8.91070000 0.014590 19.415 0.999887 -76.16 0.999887 -76.16 0.014585 8.2950
8.91080000 0.014576 19.457 0.999887 -76.17 0.999887 -76.17 0.014571 8.2491
8.91090000 0.014561 19.499 0.999887 -76.17 0.999887 -76.17 0.014556 8.2028
8.91100000 0.014547 19.542 0.999887 -76.17 0.999887 -76.17 0.014542 8.1563
8.91110000 0.014532 19.585 0.999888 -76.17 0.999888 -76.17 0.014527 8.1096
8.91120000 0.014517 19.628 0.999888 -76.17 0.999888 -76.17 0.014512 8.0625
8.91130000 0.014503 19.672 0.999888 -76.18 0.999888 -76.18 0.014498 8.0152
8.91140000 0.014488 19.716 0.999888 -76.18 0.999888 -76.18 0.014483 7.9675
8.91150000 0.014473 19.760 0.999888 -76.18 0.999888 -76.18 0.014468 7.9196
8.91160000 0.014459 19.804 0.999889 -76.18 0.999889 -76.18 0.014453 7.8714
8.91170000 0.014444 19.849 0.999889 -76.18 0.999889 -76.18 0.014438 7.8229
8.91180000 0.014429 19.894 0.999889 -76.19 0.999889 -76.19 0.014423 7.7740
8.91190000 0.014414 19.940 0.999889 -76.19 0.999889 -76.19 0.014408 7.7249
8.91200000 0.014399 19.985 0.999889 -76.19 0.999889 -76.19 0.014393 7.6755
8.91210000 0.014384 20.031 0.999890 -76.19 0.999890 -76.19 0.014378 7.6257
8.91220000 0.014368 20.077 0.999890 -76.19 0.999890 -76.19 0.014363 7.5757
8.91230000 0.014353 20.124 0.999890 -76.20 0.999890 -76.20 0.014348 7.5253
8.91240000 0.014338 20.171 0.999890 -76.20 0.999890 -76.20 0.014333 7.4746
8.91250000 0.014323 20.218 0.999890 -76.20 0.999890 -76.20 0.014317 7.4236
8.91260000 0.014307 20.265 0.999891 -76.20 0.999891 -76.20 0.014302 7.3723
8.91270000 0.014292 20.313 0.999891 -76.20 0.999891 -76.20 0.014286 7.3207
8.91280000 0.014276 20.361 0.999891 -76.21 0.999891 -76.21 0.014271 7.2687
8.91290000 0.014261 20.409 0.999891 -76.21 0.999891 -76.21 0.014255 7.2163
8.91300000 0.014245 20.458 0.999891 -76.21 0.999891 -76.21 0.014240 7.1637
8.91310000 0.014230 20.507 0.999892 -76.21 0.999892 -76.21 0.014224 7.1107
8.91320000 0.014214 20.557 0.999892 -76.21 0.999892 -76.21 0.014208 7.0574
8.91330000 0.014198 20.606 0.999892 -76.22 0.999892 -76.22 0.014192 7.0037
8.91340000 0.014182 20.657 0.999892 -76.22 0.999892 -76.22 0.014177 6.9497
8.91350000 0.014166 20.707 0.999893 -76.22 0.999893 -76.22 0.014161 6.8953
8.91360000 0.014151 20.758 0.999893 -76.22 0.999893 -76.22 0.014145 6.8405
8.91370000 0.014135 20.809 0.999893 -76.22 0.999893 -76.22 0.014129 6.7854
8.91380000 0.014118 20.860 0.999893 -76.23 0.999893 -76.23 0.014113 6.7300
8.91390000 0.014102 20.912 0.999893 -76.23 0.999893 -76.23 0.014096 6.6741
8.91400000 0.014086 20.964 0.999894 -76.23 0.999894 -76.23 0.014080 6.6179
8.91410000 0.014070 21.017 0.999894 -76.23 0.999894 -76.23 0.014064 6.5614
8.91420000 0.014054 21.070 0.999894 -76.23 0.999894 -76.23 0.014048 6.5044
8.91430000 0.014037 21.123 0.999894 -76.24 0.999894 -76.24 0.014031 6.4471
8.91440000 0.014021 21.177 0.999894 -76.24 0.999894 -76.24 0.014015 6.3894
8.91450000 0.014004 21.231 0.999895 -76.24 0.999895 -76.24 0.013998 6.3313
8.91460000 0.013988 21.285 0.999895 -76.24 0.999895 -76.24 0.013982 6.2728
8.91470000 0.013971 21.340 0.999895 -76.25 0.999895 -76.25 0.013965 6.2139
8.91480000 0.013955 21.395 0.999895 -76.25 0.999895 -76.25 0.013948 6.1546
8.91490000 0.013938 21.451 0.999895 -76.25 0.999895 -76.25 0.013932 6.0949
8.91500000 0.013921 21.507 0.999896 -76.25 0.999896 -76.25 0.013915 6.0348
8.91510000 0.013904 21.563 0.999896 -76.25 0.999896 -76.25 0.013898 5.9742
8.91520000 0.013887 21.620 0.999896 -76.26 0.999896 -76.26 0.013881 5.9133
8.91530000 0.013870 21.677 0.999896 -76.26 0.999896 -76.26 0.013864 5.8519
8.91540000 0.013853 21.735 0.999897 -76.26 0.999897 -76.26 0.013847 5.7901
8.91550000 0.013836 21.793 0.999897 -76.26 0.999897 -76.26 0.013830 5.7279
8.91560000 0.013819 21.852 0.999897 -76.26 0.999897 -76.26 0.013813 5.6653
8.91570000 0.013802 21.911 0.999897 -76.27 0.999897 -76.27 0.013795 5.6022
8.91580000 0.013785 21.970 0.999897 -76.27 0.999897 -76.27 0.013778 5.5386
8.91590000 0.013767 22.030 0.999898 -76.27 0.999898 -76.27 0.013761 5.4747
8.91600000 0.013750 22.090 0.999898 -76.27 0.999898 -76.27 0.013743 5.4102
8.91610000 0.013732 22.151 0.999898 -76.28 0.999898 -76.28 0.013726 5.3453
8.91620000 0.013715 22.212 0.999898 -76.28 0.999898 -76.28 0.013708 5.2800
8.91630000 0.013697 22.273 0.999898 -76.28 0.999898 -76.28 0.013690 5.2141
8.91640000 0.013679 22.335 0.999899 -76.28 0.999899 -76.28 0.013673 5.1478
8.91650000 0.013662 22.398 0.999899 -76.28 0.999899 -76.28 0.013655 5.0811
8.91660000 0.013644 22.461 0.999899 -76.29 0.999899 -76.29 0.013637 5.0138
8.91670000 0.013626 22.524 0.999899 -76.29 0.999899 -76.29 0.013619 4.9460
8.91680000 0.013608 22.588 0.999900 -76.29 0.999900 -76.29 0.013601 4.8778
8.91690000 0.013590 22.653 0.999900 -76.29 0.999900 -76.29 0.013583 4.8091
8.91700000 0.013572 22.718 0.999900 -76.30 0.999900 -76.30 0.013565 4.7398
8.91710000 0.013554 22.783 0.999900 -76.30 0.999900 -76.30 0.013547 4.6701
8.91720000 0.013536 22.849 0.999900 -76.30 0.999900 -76.30 0.013528 4.5998
8.91730000 0.013517 22.915 0.999901 -76.30 0.999901 -76.30 0.013510 4.5290
8.91740000 0.013499 22.982 0.999901 -76.30 0.999901 -76.30 0.013492 4.4577
8.91750000 0.013480 23.050 0.999901 -76.31 0.999901 -76.31 0.013473 4.3859
8.91760000 0.013462 23.118 0.999901 -76.31 0.999901 -76.31 0.013455 4.3135
8.91770000 0.013443 23.186 0.999902 -76.31 0.999902 -76.31 0.013436 4.2406
8.91780000 0.013425 23.255 0.999902 -76.31 0.999902 -76.31 0.013417 4.1671
8.91790000 0.013406 23.325 0.999902 -76.32 0.999902 -76.32 0.013399 4.0931
8.91800000 0.013387 23.395 0.999902 -76.32 0.999902 -76.32 0.013380 4.0185
8.91810000 0.013368 23.466 0.999903 -76.32 0.999903 -76.32 0.013361 3.9433
8.91820000 0.013350 23.537 0.999903 -76.32 0.999903 -76.32 0.013342 3.8676
8.91830000 0.013331 23.609 0.999903 -76.33 0.999903 -76.33 0.013323 3.7913
8.91840000 0.013311 23.681 0.999903 -76.33 0.999903 -76.33 0.013304 3.7143
8.91850000 0.013292 23.754 0.999903 -76.33 0.999903 -76.33 0.013284 3.6369
8.91860000 0.013273 23.828 0.999904 -76.33 0.999904 -76.33 0.013265 3.5588
8.91870000 0.013254 23.902 0.999904 -76.33 0.999904 -76.33 0.013246 3.4801
8.91880000 0.013234 23.977 0.999904 -76.34 0.999904 -76.34 0.013226 3.4007
8.91890000 0.013215 24.052 0.999904 -76.34 0.999904 -76.34 0.013207 3.3208
8.91900000 0.013196 24.128 0.999905 -76.34 0.999905 -76.34 0.013187 3.2402
8.91910000 0.013176 24.204 0.999905 -76.34 0.999905 -76.34 0.013168 3.1590
8.91920000 0.013156 24.282 0.999905 -76.35 0.999905 -76.35 0.013148 3.0772
8.91930000 0.013137 24.360 0.999905 -76.35 0.999905 -76.35 0.013128 2.9947
8.91940000 0.013117 24.438 0.999905 -76.35 0.999905 -76.35 0.013108 2.9115
8.91950000 0.013097 24.517 0.999906 -76.35 0.999906 -76.35 0.013089 2.8277
8.91960000 0.013077 24.597 0.999906 -76.36 0.999906 -76.36 0.013069 2.7432
8.91970000 0.013057 24.678 0.999906 -76.36 0.999906 -76.36 0.013048 2.6580
8.91980000 0.013037 24.759 0.999906 -76.36 0.999906 -76.36 0.013028 2.5722
8.91990000 0.013017 24.841 0.999907 -76.36 0.999907 -76.36 0.013008 2.4856
8.92000000 0.012997 24.923 0.999907 -76.37 0.999907 -76.37 0.012988 2.3983
8.92010000 0.012976 25.006 0.999907 -76.37 0.999907 -76.37 0.012967 2.3103
8.92020000 0.012956 25.090 0.999907 -76.37 0.999907 -76.37 0.012947 2.2216
8.92030000 0.012935 25.175 0.999908 -76.37 0.999908 -76.37 0.012926 2.1322
8.92040000 0.012915 25.260 0.999908 -76.38 0.999908 -76.38 0.012906 2.0420
8.92050000 0.012894 25.346 0.999908 -76.38 0.999908 -76.38 0.012885 1.9511
8.92060000 0.012873 25.433 0.999908 -76.38 0.999908 -76.38 0.012864 1.8594
8.92070000 0.012853 25.521 0.999909 -76.38 0.999909 -76.38 0.012844 1.7669
8.92080000 0.012832 25.609 0.999909 -76.39 0.999909 -76.39 0.012823 1.6737
8.92090000 0.012811 25.698 0.999909 -76.39 0.999909 -76.39 0.012802 1.5797
8.92100000 0.012790 25.788 0.999909 -76.39 0.999909 -76.39 0.012781 1.4849
8.92110000 0.012769 25.879 0.999909 -76.39 0.999909 -76.39 0.012759 1.3893
8.92120000 0.012748 25.971 0.999910 -76.40 0.999910 -76.40 0.012738 1.2928
8.92130000 0.012726 26.063 0.999910 -76.40 0.999910 -76.40 0.012717 1.1956
8.92140000 0.012705 26.156 0.999910 -76.40 0.999910 -76.40 0.012695 1.0975
8.92150000 0.012684 26.250 0.999910 -76.40 0.999910 -76.40 0.012674 0.9985
8.92160000 0.012662 26.345 0.999911 -76.41 0.999911 -76.41 0.012652 0.8987
8.92170000 0.012641 26.440 0.999911 -76.41 0.999911 -76.41 0.012631 0.7981
8.92180000 0.012619 26.537 0.999911 -76.41 0.999911 -76.41 0.012609 0.6965
8.92190000 0.012597 26.634 0.999911 -76.42 0.999911 -76.42 0.012587 0.5941
8.92200000 0.012576 26.733 0.999912 -76.42 0.999912 -76.42 0.012565 0.4908
8.92210000 0.012554 26.832 0.999912 -76.42 0.999912 -76.42 0.012544 0.3865
8.92220000 0.012532 26.932 0.999912 -76.42 0.999912 -76.42 0.012522 0.2813
8.92230000 0.012510 27.033 0.999912 -76.43 0.999912 -76.43 0.012499 0.1752
8.92240000 0.012488 27.135 0.999913 -76.43 0.999913 -76.43 0.012477 0.0682
8.92250000 0.012465 27.238 0.999913 -76.43 0.999913 -76.43 0.012455 -0.040
8.92260000 0.012443 27.341 0.999913 -76.43 0.999913 -76.43 0.012433 -0.149
8.92270000 0.012421 27.446 0.999913 -76.44 0.999913 -76.44 0.012410 -0.259
8.92280000 0.012398 27.552 0.999914 -76.44 0.999914 -76.44 0.012388 -0.370
8.92290000 0.012376 27.659 0.999914 -76.44 0.999914 -76.44 0.012365 -0.482
8.92300000 0.012353 27.766 0.999914 -76.44 0.999914 -76.44 0.012342 -0.595
8.92310000 0.012331 27.875 0.999914 -76.45 0.999914 -76.45 0.012320 -0.709
8.92320000 0.012308 27.985 0.999915 -76.45 0.999915 -76.45 0.012297 -0.824
8.92330000 0.012285 28.096 0.999915 -76.45 0.999915 -76.45 0.012274 -0.940
8.92340000 0.012262 28.208 0.999915 -76.46 0.999915 -76.46 0.012251 -1.057
8.92350000 0.012239 28.321 0.999915 -76.46 0.999915 -76.46 0.012228 -1.176
8.92360000 0.012216 28.435 0.999915 -76.46 0.999915 -76.46 0.012205 -1.295
8.92370000 0.012193 28.550 0.999916 -76.46 0.999916 -76.46 0.012181 -1.416
8.92380000 0.012170 28.666 0.999916 -76.47 0.999916 -76.47 0.012158 -1.537
8.92390000 0.012146 28.784 0.999916 -76.47 0.999916 -76.47 0.012135 -1.660
8.92400000 0.012123 28.902 0.999916 -76.47 0.999916 -76.47 0.012111 -1.784
8.92410000 0.012099 29.022 0.999917 -76.48 0.999917 -76.48 0.012088 -1.909
8.92420000 0.012076 29.143 0.999917 -76.48 0.999917 -76.48 0.012064 -2.036
8.92430000 0.012052 29.265 0.999917 -76.48 0.999917 -76.48 0.012040 -2.163
8.92440000 0.012029 29.388 0.999917 -76.48 0.999917 -76.48 0.012017 -2.292
8.92450000 0.012005 29.513 0.999918 -76.49 0.999918 -76.49 0.011993 -2.422
8.92460000 0.011981 29.638 0.999918 -76.49 0.999918 -76.49 0.011969 -2.554
8.92470000 0.011957 29.765 0.999918 -76.49 0.999918 -76.49 0.011945 -2.686
8.92480000 0.011933 29.894 0.999918 -76.50 0.999918 -76.50 0.011921 -2.820
8.92490000 0.011909 30.023 0.999919 -76.50 0.999919 -76.50 0.011896 -2.955
8.92500000 0.011885 30.154 0.999919 -76.50 0.999919 -76.50 0.011872 -3.092
8.92510000 0.011860 30.286 0.999919 -76.51 0.999919 -76.51 0.011848 -3.230
8.92520000 0.011836 30.420 0.999919 -76.51 0.999919 -76.51 0.011823 -3.369
8.92530000 0.011812 30.555 0.999920 -76.51 0.999920 -76.51 0.011799 -3.510
8.92540000 0.011787 30.691 0.999920 -76.51 0.999920 -76.51 0.011774 -3.652
8.92550000 0.011763 30.829 0.999920 -76.52 0.999920 -76.52 0.011750 -3.796
8.92560000 0.011738 30.968 0.999920 -76.52 0.999920 -76.52 0.011725 -3.941
8.92570000 0.011713 31.109 0.999921 -76.52 0.999921 -76.52 0.011700 -4.087
8.92580000 0.011689 31.251 0.999921 -76.53 0.999921 -76.53 0.011675 -4.235
8.92590000 0.011664 31.395 0.999921 -76.53 0.999921 -76.53 0.011650 -4.385
8.92600000 0.011639 31.540 0.999921 -76.53 0.999921 -76.53 0.011625 -4.536
8.92610000 0.011614 31.686 0.999922 -76.54 0.999922 -76.54 0.011600 -4.688
8.92620000 0.011589 31.835 0.999922 -76.54 0.999922 -76.54 0.011575 -4.843
8.92630000 0.011563 31.984 0.999922 -76.54 0.999922 -76.54 0.011550 -4.998
8.92640000 0.011538 32.136 0.999922 -76.55 0.999922 -76.55 0.011524 -5.156
8.92650000 0.011513 32.289 0.999923 -76.55 0.999923 -76.55 0.011499 -5.315
8.92660000 0.011488 32.443 0.999923 -76.55 0.999923 -76.55 0.011473 -5.476
8.92670000 0.011462 32.600 0.999923 -76.55 0.999923 -76.55 0.011448 -5.638
8.92680000 0.011437 32.758 0.999923 -76.56 0.999923 -76.56 0.011422 -5.802
8.92690000 0.011411 32.918 0.999923 -76.56 0.999923 -76.56 0.011396 -5.968
8.92700000 0.011385 33.079 0.999924 -76.56 0.999924 -76.56 0.011371 -6.136
8.92710000 0.011360 33.242 0.999924 -76.57 0.999924 -76.57 0.011345 -6.306
8.92720000 0.011334 33.407 0.999924 -76.57 0.999924 -76.57 0.011319 -6.477
8.92730000 0.011308 33.574 0.999924 -76.57 0.999924 -76.57 0.011293 -6.650
8.92740000 0.011282 33.743 0.999925 -76.58 0.999925 -76.58 0.011267 -6.825
8.92750000 0.011256 33.914 0.999925 -76.58 0.999925 -76.58 0.011241 -7.002
8.92760000 0.011230 34.086 0.999925 -76.58 0.999925 -76.58 0.011215 -7.181
8.92770000 0.011204 34.261 0.999925 -76.59 0.999925 -76.59 0.011188 -7.362
8.92780000 0.011178 34.437 0.999926 -76.59 0.999926 -76.59 0.011162 -7.545
8.92790000 0.011152 34.616 0.999926 -76.59 0.999926 -76.59 0.011136 -7.730
8.92800000 0.011126 34.796 0.999926 -76.60 0.999926 -76.60 0.011109 -7.917
8.92810000 0.011099 34.978 0.999926 -76.60 0.999926 -76.60 0.011083 -8.106
8.92820000 0.011073 35.163 0.999927 -76.60 0.999927 -76.60 0.011057 -8.297
8.92830000 0.011047 35.350 0.999927 -76.61 0.999927 -76.61 0.011030 -8.491
8.92840000 0.011020 35.539 0.999927 -76.61 0.999927 -76.61 0.011003 -8.686
8.92850000 0.010994 35.730 0.999927 -76.62 0.999927 -76.62 0.010977 -8.884
8.92860000 0.010967 35.923 0.999927 -76.62 0.999927 -76.62 0.010950 -9.084
8.92870000 0.010941 36.119 0.999928 -76.62 0.999928 -76.62 0.010923 -9.286
8.92880000 0.010914 36.316 0.999928 -76.63 0.999928 -76.63 0.010896 -9.491
8.92890000 0.010887 36.516 0.999928 -76.63 0.999928 -76.63 0.010870 -9.698
8.92900000 0.010860 36.719 0.999928 -76.63 0.999928 -76.63 0.010843 -9.907
8.92910000 0.010834 36.924 0.999929 -76.64 0.999929 -76.64 0.010816 -10.12
8.92920000 0.010807 37.131 0.999929 -76.64 0.999929 -76.64 0.010789 -10.33
8.92930000 0.010780 37.341 0.999929 -76.64 0.999929 -76.64 0.010762 -10.55
8.92940000 0.010753 37.553 0.999929 -76.65 0.999929 -76.65 0.010735 -10.77
8.92950000 0.010726 37.768 0.999929 -76.65 0.999929 -76.65 0.010708 -10.99
8.92960000 0.010700 37.985 0.999930 -76.66 0.999930 -76.66 0.010681 -11.22
8.92970000 0.010673 38.205 0.999930 -76.66 0.999930 -76.66 0.010654 -11.44
8.92980000 0.010646 38.428 0.999930 -76.66 0.999930 -76.66 0.010627 -11.67
8.92990000 0.010619 38.653 0.999930 -76.67 0.999930 -76.67 0.010599 -11.91
8.93000000 0.010592 38.882 0.999931 -76.67 0.999931 -76.67 0.010572 -12.14
8.93010000 0.010565 39.112 0.999931 -76.67 0.999931 -76.67 0.010545 -12.38
8.93020000 0.010538 39.346 0.999931 -76.68 0.999931 -76.68 0.010518 -12.62
8.93030000 0.010511 39.583 0.999931 -76.68 0.999931 -76.68 0.010491 -12.87
8.93040000 0.010484 39.822 0.999931 -76.69 0.999931 -76.69 0.010464 -13.11
8.93050000 0.010457 40.065 0.999932 -76.69 0.999932 -76.69 0.010436 -13.36
8.93060000 0.010430 40.310 0.999932 -76.69 0.999932 -76.69 0.010409 -13.62
8.93070000 0.010403 40.559 0.999932 -76.70 0.999932 -76.70 0.010382 -13.87
8.93080000 0.010376 40.810 0.999932 -76.70 0.999932 -76.70 0.010355 -14.13
8.93090000 0.010349 41.065 0.999932 -76.70 0.999932 -76.70 0.010328 -14.39
8.93100000 0.010322 41.323 0.999933 -76.71 0.999933 -76.71 0.010301 -14.66
8.93110000 0.010295 41.585 0.999933 -76.71 0.999933 -76.71 0.010273 -14.93
8.93120000 0.010268 41.849 0.999933 -76.72 0.999933 -76.72 0.010246 -15.20
8.93130000 0.010241 42.117 0.999933 -76.72 0.999933 -76.72 0.010219 -15.48
8.93140000 0.010214 42.388 0.999933 -76.73 0.999933 -76.73 0.010192 -15.76
8.93150000 0.010188 42.663 0.999934 -76.73 0.999934 -76.73 0.010165 -16.04
8.93160000 0.010161 42.941 0.999934 -76.73 0.999934 -76.73 0.010138 -16.33
8.93170000 0.010134 43.223 0.999934 -76.74 0.999934 -76.74 0.010111 -16.62
8.93180000 0.010108 43.508 0.999934 -76.74 0.999934 -76.74 0.010085 -16.91
8.93190000 0.010081 43.797 0.999934 -76.75 0.999934 -76.75 0.010058 -17.21
8.93200000 0.010055 44.090 0.999935 -76.75 0.999935 -76.75 0.010031 -17.51
8.93210000 0.010028 44.387 0.999935 -76.75 0.999935 -76.75 0.010005 -17.81
8.93220000 0.010002 44.687 0.999935 -76.76 0.999935 -76.76 0.009978 -18.12
8.93230000 0.009976 44.991 0.999935 -76.76 0.999935 -76.76 0.009952 -18.44
8.93240000 0.009950 45.299 0.999935 -76.77 0.999935 -76.77 0.009925 -18.75
8.93250000 0.009924 45.611 0.999935 -76.77 0.999935 -76.77 0.009899 -19.07
8.93260000 0.009898 45.928 0.999936 -76.78 0.999936 -76.78 0.009873 -19.40
8.93270000 0.009872 46.248 0.999936 -76.78 0.999936 -76.78 0.009847 -19.73
8.93280000 0.009846 46.572 0.999936 -76.78 0.999936 -76.78 0.009821 -20.06
8.93290000 0.009821 46.901 0.999936 -76.79 0.999936 -76.79 0.009795 -20.40
8.93300000 0.009796 47.234 0.999936 -76.79 0.999936 -76.79 0.009769 -20.74
8.93310000 0.009770 47.572 0.999936 -76.80 0.999936 -76.80 0.009744 -21.09
8.93320000 0.009745 47.913 0.999936 -76.80 0.999936 -76.80 0.009719 -21.44
8.93330000 0.009720 48.260 0.999937 -76.81 0.999937 -76.81 0.009693 -21.79
8.93340000 0.009696 48.610 0.999937 -76.81 0.999937 -76.81 0.009668 -22.15
8.93350000 0.009671 48.966 0.999937 -76.82 0.999937 -76.82 0.009644 -22.52
8.93360000 0.009647 49.326 0.999937 -76.82 0.999937 -76.82 0.009619 -22.89
8.93370000 0.009623 49.691 0.999937 -76.83 0.999937 -76.83 0.009595 -23.26
8.93380000 0.009599 50.060 0.999937 -76.83 0.999937 -76.83 0.009570 -23.64
8.93390000 0.009575 50.435 0.999937 -76.84 0.999937 -76.84 0.009546 -24.03
8.93400000 0.009552 50.814 0.999937 -76.84 0.999937 -76.84 0.009523 -24.42
8.93410000 0.009528 51.198 0.999938 -76.85 0.999938 -76.85 0.009499 -24.81
8.93420000 0.009505 51.587 0.999938 -76.85 0.999938 -76.85 0.009476 -25.21
8.93430000 0.009483 51.982 0.999938 -76.85 0.999938 -76.85 0.009453 -25.62
8.93440000 0.009460 52.381 0.999938 -76.86 0.999938 -76.86 0.009430 -26.03
8.93450000 0.009438 52.786 0.999938 -76.86 0.999938 -76.86 0.009408 -26.44
8.93460000 0.009416 53.196 0.999938 -76.87 0.999938 -76.87 0.009386 -26.86
8.93470000 0.009395 53.611 0.999938 -76.87 0.999938 -76.87 0.009364 -27.29
8.93480000 0.009374 54.032 0.999938 -76.88 0.999938 -76.88 0.009342 -27.72
8.93490000 0.009353 54.458 0.999938 -76.88 0.999938 -76.88 0.009321 -28.16
8.93500000 0.009333 54.890 0.999938 -76.89 0.999938 -76.89 0.009300 -28.60
8.93510000 0.009313 55.327 0.999938 -76.90 0.999938 -76.90 0.009280 -29.05
8.93520000 0.009293 55.770 0.999938 -76.90 0.999938 -76.90 0.009260 -29.50
8.93530000 0.009274 56.218 0.999938 -76.91 0.999938 -76.91 0.009240 -29.96
8.93540000 0.009255 56.672 0.999939 -76.91 0.999939 -76.91 0.009221 -30.43
8.93550000 0.009236 57.132 0.999939 -76.92 0.999939 -76.92 0.009203 -30.90
8.93560000 0.009219 57.598 0.999939 -76.92 0.999939 -76.92 0.009184 -31.38
8.93570000 0.009201 58.069 0.999939 -76.93 0.999939 -76.93 0.009167 -31.86
8.93580000 0.009184 58.547 0.999939 -76.93 0.999939 -76.93 0.009149 -32.35
8.93590000 0.009168 59.030 0.999939 -76.94 0.999939 -76.94 0.009133 -32.85
8.93600000 0.009152 59.519 0.999939 -76.94 0.999939 -76.94 0.009116 -33.35
8.93610000 0.009137 60.015 0.999939 -76.95 0.999939 -76.95 0.009101 -33.86
8.93620000 0.009122 60.516 0.999939 -76.95 0.999939 -76.95 0.009085 -34.37
8.93630000 0.009108 61.023 0.999939 -76.96 0.999939 -76.96 0.009071 -34.89
8.93640000 0.009094 61.537 0.999939 -76.97 0.999939 -76.97 0.009057 -35.42
8.93650000 0.009081 62.057 0.999939 -76.97 0.999939 -76.97 0.009044 -35.95
8.93660000 0.009069 62.582 0.999938 -76.98 0.999938 -76.98 0.009031 -36.49
8.93670000 0.009058 63.114 0.999938 -76.98 0.999938 -76.98 0.009019 -37.03
8.93680000 0.009047 63.652 0.999938 -76.99 0.999938 -76.99 0.009008 -37.59
8.93690000 0.009037 64.197 0.999938 -76.99 0.999938 -76.99 0.008998 -38.14
8.93700000 0.009027 64.747 0.999938 -77.00 0.999938 -77.00 0.008988 -38.71
8.93710000 0.009019 65.303 0.999938 -77.01 0.999938 -77.01 0.008979 -39.28
8.93720000 0.009011 65.866 0.999938 -77.01 0.999938 -77.01 0.008971 -39.86
8.93730000 0.009004 66.435 0.999938 -77.02 0.999938 -77.02 0.008963 -40.44
8.93740000 0.008998 67.010 0.999938 -77.02 0.999938 -77.02 0.008957 -41.03
8.93750000 0.008993 67.591 0.999938 -77.03 0.999938 -77.03 0.008951 -41.62
8.93760000 0.008989 68.179 0.999938 -77.04 0.999938 -77.04 0.008947 -42.23
8.93770000 0.008985 68.772 0.999937 -77.04 0.999937 -77.04 0.008943 -42.84
8.93780000 0.008983 69.371 0.999937 -77.05 0.999937 -77.05 0.008940 -43.45
8.93790000 0.008981 69.976 0.999937 -77.06 0.999937 -77.06 0.008938 -44.07
8.93800000 0.008981 70.587 0.999937 -77.06 0.999937 -77.06 0.008938 -44.70
8.93810000 0.008982 71.205 0.999937 -77.07 0.999937 -77.07 0.008938 -45.33
8.93820000 0.008984 71.827 0.999936 -77.08 0.999936 -77.08 0.008939 -45.97
8.93830000 0.008987 72.456 0.999936 -77.08 0.999936 -77.08 0.008942 -46.62
8.93840000 0.008991 73.090 0.999936 -77.09 0.999936 -77.09 0.008945 -47.27
8.93850000 0.008996 73.730 0.999936 -77.10 0.999936 -77.10 0.008950 -47.92
8.93860000 0.009002 74.375 0.999935 -77.10 0.999935 -77.10 0.008956 -48.58
8.93870000 0.009010 75.025 0.999935 -77.11 0.999935 -77.11 0.008964 -49.25
8.93880000 0.009019 75.681 0.999935 -77.12 0.999935 -77.12 0.008972 -49.93
8.93890000 0.009029 76.342 0.999935 -77.12 0.999935 -77.12 0.008982 -50.60
8.93900000 0.009041 77.008 0.999934 -77.13 0.999934 -77.13 0.008993 -51.29
8.93910000 0.009054 77.679 0.999934 -77.14 0.999934 -77.14 0.009006 -51.98
8.93920000 0.009068 78.354 0.999934 -77.14 0.999934 -77.14 0.009020 -52.67