! Sonnet Data File
! From: emgraph Version : 16.52
! From Project: Resonator2_extremeCap2
! Data is De-embedded 
! Data File Written: 10/11/2017 16:32:17
!< HDATE 10/11/2017 09:31:16
!< MDATE 10/11/2017 09:31:16
!< PARAMS
!< Pwid1 = 2000.0
!< Pwid2 = 2000.0
!< Air_gap = 24.0
!< Width = 40.0
!< Gap = 80.0
!< END PARAMS
# GHZ S MA R 45.40000
8.90000000 0.273374 -0.917 0.961901 -88.03 0.961901 -88.03 0.273370 4.8522
!< P1 F=8.9 Eeff=(5.09096395 -2.214e-5) Z0=(45.4059169 1.00354e-4) R=0.0 C=0.0 
!< P2 F=8.9 Eeff=(5.09096395 -2.214e-5) Z0=(45.4059169 1.00354e-4) R=0.0 C=0.0 
8.90025000 0.273414 -0.917 0.961890 -88.04 0.961890 -88.04 0.273410 4.8421
8.90050000 0.273454 -0.917 0.961878 -88.04 0.961878 -88.04 0.273450 4.8320
8.90075000 0.273494 -0.917 0.961867 -88.05 0.961867 -88.05 0.273491 4.8218
8.90100000 0.273535 -0.917 0.961855 -88.05 0.961855 -88.05 0.273531 4.8116
8.90125000 0.273575 -0.917 0.961844 -88.06 0.961844 -88.06 0.273571 4.8014
8.90150000 0.273615 -0.917 0.961832 -88.06 0.961832 -88.06 0.273612 4.7912
8.90175000 0.273656 -0.917 0.961821 -88.07 0.961821 -88.07 0.273652 4.7810
8.90200000 0.273696 -0.917 0.961809 -88.07 0.961809 -88.07 0.273693 4.7707
8.90225000 0.273737 -0.917 0.961798 -88.08 0.961798 -88.08 0.273733 4.7605
8.90250000 0.273778 -0.917 0.961786 -88.08 0.961786 -88.08 0.273774 4.7502
8.90275000 0.273819 -0.917 0.961775 -88.09 0.961775 -88.09 0.273815 4.7399
8.90300000 0.273859 -0.917 0.961763 -88.09 0.961763 -88.09 0.273856 4.7295
8.90325000 0.273900 -0.917 0.961751 -88.10 0.961751 -88.10 0.273896 4.7192
8.90350000 0.273941 -0.917 0.961740 -88.10 0.961740 -88.10 0.273938 4.7088
8.90375000 0.273983 -0.917 0.961728 -88.11 0.961728 -88.11 0.273979 4.6984
8.90400000 0.274024 -0.917 0.961716 -88.11 0.961716 -88.11 0.274020 4.6880
8.90425000 0.274065 -0.917 0.961704 -88.12 0.961704 -88.12 0.274061 4.6775
8.90450000 0.274106 -0.917 0.961693 -88.12 0.961693 -88.12 0.274102 4.6671
8.90475000 0.274148 -0.916 0.961681 -88.13 0.961681 -88.13 0.274144 4.6566
8.90500000 0.274189 -0.916 0.961669 -88.13 0.961669 -88.13 0.274185 4.6461
8.90525000 0.274231 -0.916 0.961657 -88.14 0.961657 -88.14 0.274227 4.6356
8.90550000 0.274273 -0.916 0.961645 -88.15 0.961645 -88.15 0.274269 4.6250
8.90575000 0.274314 -0.916 0.961633 -88.15 0.961633 -88.15 0.274310 4.6144
8.90600000 0.274356 -0.916 0.961621 -88.16 0.961621 -88.16 0.274352 4.6039
8.90625000 0.274398 -0.916 0.961609 -88.16 0.961609 -88.16 0.274394 4.5933
8.90650000 0.274440 -0.915 0.961597 -88.17 0.961597 -88.17 0.274436 4.5826
8.90675000 0.274482 -0.915 0.961585 -88.17 0.961585 -88.17 0.274478 4.5720
8.90700000 0.274524 -0.915 0.961573 -88.18 0.961573 -88.18 0.274520 4.5613
8.90725000 0.274567 -0.915 0.961561 -88.18 0.961561 -88.18 0.274563 4.5506
8.90750000 0.274609 -0.915 0.961549 -88.19 0.961549 -88.19 0.274605 4.5399
8.90775000 0.274652 -0.914 0.961537 -88.19 0.961537 -88.19 0.274647 4.5291
8.90800000 0.274694 -0.914 0.961525 -88.20 0.961525 -88.20 0.274690 4.5184
8.90825000 0.274737 -0.914 0.961513 -88.20 0.961513 -88.20 0.274733 4.5076
8.90850000 0.274779 -0.914 0.961500 -88.21 0.961500 -88.21 0.274775 4.4968
8.90875000 0.274822 -0.913 0.961488 -88.21 0.961488 -88.21 0.274818 4.4860
8.90900000 0.274865 -0.913 0.961476 -88.22 0.961476 -88.22 0.274861 4.4751
8.90925000 0.274908 -0.913 0.961464 -88.22 0.961464 -88.22 0.274904 4.4642
8.90950000 0.274951 -0.913 0.961451 -88.23 0.961451 -88.23 0.274947 4.4533
8.90975000 0.274994 -0.912 0.961439 -88.23 0.961439 -88.23 0.274990 4.4424
8.91000000 0.275037 -0.912 0.961426 -88.24 0.961426 -88.24 0.275033 4.4315
8.91025000 0.275081 -0.912 0.961414 -88.25 0.961414 -88.25 0.275077 4.4205
8.91050000 0.275124 -0.911 0.961402 -88.25 0.961402 -88.25 0.275120 4.4095
8.91075000 0.275168 -0.911 0.961389 -88.26 0.961389 -88.26 0.275163 4.3985
8.91100000 0.275211 -0.911 0.961377 -88.26 0.961377 -88.26 0.275207 4.3875
8.91125000 0.275255 -0.910 0.961364 -88.27 0.961364 -88.27 0.275251 4.3764
8.91150000 0.275299 -0.910 0.961352 -88.27 0.961352 -88.27 0.275294 4.3653
8.91175000 0.275343 -0.910 0.961339 -88.28 0.961339 -88.28 0.275338 4.3542
8.91200000 0.275387 -0.909 0.961326 -88.28 0.961326 -88.28 0.275382 4.3431
8.91225000 0.275431 -0.909 0.961314 -88.29 0.961314 -88.29 0.275426 4.3319
8.91250000 0.275475 -0.909 0.961301 -88.29 0.961301 -88.29 0.275470 4.3207
8.91275000 0.275519 -0.908 0.961288 -88.30 0.961288 -88.30 0.275515 4.3095
8.91300000 0.275563 -0.908 0.961276 -88.30 0.961276 -88.30 0.275559 4.2983
8.91325000 0.275608 -0.907 0.961263 -88.31 0.961263 -88.31 0.275603 4.2871
8.91350000 0.275652 -0.907 0.961250 -88.32 0.961250 -88.32 0.275648 4.2758
8.91375000 0.275697 -0.906 0.961237 -88.32 0.961237 -88.32 0.275693 4.2645
8.91400000 0.275742 -0.906 0.961225 -88.33 0.961225 -88.33 0.275737 4.2532
8.91425000 0.275786 -0.906 0.961212 -88.33 0.961212 -88.33 0.275782 4.2418
8.91450000 0.275831 -0.905 0.961199 -88.34 0.961199 -88.34 0.275827 4.2305
8.91475000 0.275876 -0.905 0.961186 -88.34 0.961186 -88.34 0.275872 4.2191
8.91500000 0.275922 -0.904 0.961173 -88.35 0.961173 -88.35 0.275917 4.2076
8.91525000 0.275967 -0.904 0.961160 -88.35 0.961160 -88.35 0.275962 4.1962
8.91550000 0.276012 -0.903 0.961147 -88.36 0.961147 -88.36 0.276007 4.1847
8.91575000 0.276057 -0.903 0.961134 -88.36 0.961134 -88.36 0.276053 4.1732
8.91600000 0.276103 -0.902 0.961121 -88.37 0.961121 -88.37 0.276098 4.1617
8.91625000 0.276149 -0.902 0.961108 -88.38 0.961108 -88.38 0.276144 4.1501
8.91650000 0.276194 -0.901 0.961095 -88.38 0.961095 -88.38 0.276190 4.1386
8.91675000 0.276240 -0.901 0.961081 -88.39 0.961081 -88.39 0.276235 4.1270
8.91700000 0.276286 -0.900 0.961068 -88.39 0.961068 -88.39 0.276281 4.1153
8.91725000 0.276332 -0.899 0.961055 -88.40 0.961055 -88.40 0.276327 4.1037
8.91750000 0.276378 -0.899 0.961042 -88.40 0.961042 -88.40 0.276373 4.0920
8.91775000 0.276424 -0.898 0.961028 -88.41 0.961028 -88.41 0.276420 4.0803
8.91800000 0.276471 -0.898 0.961015 -88.41 0.961015 -88.41 0.276466 4.0686
8.91825000 0.276517 -0.897 0.961002 -88.42 0.961002 -88.42 0.276512 4.0568
8.91850000 0.276563 -0.896 0.960988 -88.43 0.960988 -88.43 0.276559 4.0450
8.91875000 0.276610 -0.896 0.960975 -88.43 0.960975 -88.43 0.276605 4.0332
8.91900000 0.276657 -0.895 0.960961 -88.44 0.960961 -88.44 0.276652 4.0214
8.91925000 0.276704 -0.895 0.960948 -88.44 0.960948 -88.44 0.276699 4.0095
8.91950000 0.276751 -0.894 0.960934 -88.45 0.960934 -88.45 0.276746 3.9976
8.91975000 0.276798 -0.893 0.960921 -88.45 0.960921 -88.45 0.276793 3.9857
8.92000000 0.276845 -0.893 0.960907 -88.46 0.960907 -88.46 0.276840 3.9738
8.92025000 0.276892 -0.892 0.960894 -88.46 0.960894 -88.46 0.276887 3.9618
8.92050000 0.276939 -0.891 0.960880 -88.47 0.960880 -88.47 0.276935 3.9498
8.92075000 0.276987 -0.891 0.960866 -88.48 0.960866 -88.48 0.276982 3.9378
8.92100000 0.277035 -0.890 0.960852 -88.48 0.960852 -88.48 0.277030 3.9257
8.92125000 0.277082 -0.889 0.960839 -88.49 0.960839 -88.49 0.277077 3.9136
8.92150000 0.277130 -0.888 0.960825 -88.49 0.960825 -88.49 0.277125 3.9015
8.92175000 0.277178 -0.888 0.960811 -88.50 0.960811 -88.50 0.277173 3.8894
8.92200000 0.277226 -0.887 0.960797 -88.50 0.960797 -88.50 0.277221 3.8772
8.92225000 0.277274 -0.886 0.960783 -88.51 0.960783 -88.51 0.277269 3.8650
8.92250000 0.277322 -0.885 0.960769 -88.52 0.960769 -88.52 0.277317 3.8528
8.92275000 0.277371 -0.885 0.960755 -88.52 0.960755 -88.52 0.277366 3.8406
8.92300000 0.277419 -0.884 0.960741 -88.53 0.960741 -88.53 0.277414 3.8283
8.92325000 0.277468 -0.883 0.960727 -88.53 0.960727 -88.53 0.277463 3.8160
8.92350000 0.277517 -0.882 0.960713 -88.54 0.960713 -88.54 0.277511 3.8036
8.92375000 0.277565 -0.881 0.960699 -88.54 0.960699 -88.54 0.277560 3.7913
8.92400000 0.277614 -0.880 0.960685 -88.55 0.960685 -88.55 0.277609 3.7789
8.92425000 0.277663 -0.880 0.960671 -88.56 0.960671 -88.56 0.277658 3.7664
8.92450000 0.277713 -0.879 0.960657 -88.56 0.960657 -88.56 0.277707 3.7540
8.92475000 0.277762 -0.878 0.960642 -88.57 0.960642 -88.57 0.277757 3.7415
8.92500000 0.277811 -0.877 0.960628 -88.57 0.960628 -88.57 0.277806 3.7290
8.92525000 0.277861 -0.876 0.960614 -88.58 0.960614 -88.58 0.277856 3.7165
8.92550000 0.277910 -0.875 0.960599 -88.59 0.960599 -88.59 0.277905 3.7039
8.92575000 0.277960 -0.874 0.960585 -88.59 0.960585 -88.59 0.277955 3.6913
!< P1 F=8.92575 Eeff=(5.09143488 -2.2142e-5) Z0=(45.4029034 1.00372e-4) R=0.0 C=0.0 
!< P2 F=8.92575 Eeff=(5.09143488 -2.2142e-5) Z0=(45.4029034 1.00372e-4) R=0.0 C=0.0 
8.92600000 0.278010 -0.873 0.960570 -88.60 0.960570 -88.60 0.278005 3.6786
8.92625000 0.278060 -0.872 0.960556 -88.60 0.960556 -88.60 0.278055 3.6660
8.92650000 0.278110 -0.871 0.960541 -88.61 0.960541 -88.61 0.278105 3.6533
8.92675000 0.278160 -0.870 0.960527 -88.61 0.960527 -88.61 0.278155 3.6406
8.92700000 0.278211 -0.870 0.960512 -88.62 0.960512 -88.62 0.278206 3.6278
8.92725000 0.278261 -0.869 0.960498 -88.63 0.960498 -88.63 0.278256 3.6150
8.92750000 0.278312 -0.868 0.960483 -88.63 0.960483 -88.63 0.278307 3.6022
8.92775000 0.278363 -0.867 0.960468 -88.64 0.960468 -88.64 0.278357 3.5893
8.92800000 0.278414 -0.865 0.960453 -88.64 0.960453 -88.64 0.278408 3.5765
8.92825000 0.278465 -0.864 0.960439 -88.65 0.960439 -88.65 0.278459 3.5636
8.92850000 0.278516 -0.863 0.960424 -88.66 0.960424 -88.66 0.278510 3.5506
8.92875000 0.278567 -0.862 0.960409 -88.66 0.960409 -88.66 0.278561 3.5376
8.92900000 0.278618 -0.861 0.960394 -88.67 0.960394 -88.67 0.278613 3.5246
8.92925000 0.278670 -0.860 0.960379 -88.67 0.960379 -88.67 0.278664 3.5116
8.92950000 0.278721 -0.859 0.960364 -88.68 0.960364 -88.68 0.278716 3.4985
8.92975000 0.278773 -0.858 0.960349 -88.69 0.960349 -88.69 0.278768 3.4854
8.93000000 0.278825 -0.857 0.960334 -88.69 0.960334 -88.69 0.278820 3.4723
8.93025000 0.278877 -0.856 0.960319 -88.70 0.960319 -88.70 0.278872 3.4591
8.93050000 0.278929 -0.855 0.960304 -88.70 0.960304 -88.70 0.278924 3.4459
8.93075000 0.278982 -0.854 0.960288 -88.71 0.960288 -88.71 0.278976 3.4327
8.93100000 0.279034 -0.852 0.960273 -88.72 0.960273 -88.72 0.279028 3.4194
8.93125000 0.279087 -0.851 0.960258 -88.72 0.960258 -88.72 0.279081 3.4061
8.93150000 0.279139 -0.850 0.960243 -88.73 0.960243 -88.73 0.279134 3.3928
8.93175000 0.279192 -0.849 0.960227 -88.73 0.960227 -88.73 0.279186 3.3794
8.93200000 0.279245 -0.848 0.960212 -88.74 0.960212 -88.74 0.279239 3.3660
8.93225000 0.279298 -0.846 0.960196 -88.75 0.960196 -88.75 0.279292 3.3525
8.93250000 0.279351 -0.845 0.960181 -88.75 0.960181 -88.75 0.279346 3.3391
8.93275000 0.279405 -0.844 0.960165 -88.76 0.960165 -88.76 0.279399 3.3256
8.93300000 0.279458 -0.843 0.960150 -88.76 0.960150 -88.76 0.279452 3.3120
8.93325000 0.279512 -0.841 0.960134 -88.77 0.960134 -88.77 0.279506 3.2984
8.93350000 0.279566 -0.840 0.960118 -88.78 0.960118 -88.78 0.279560 3.2848
8.93375000 0.279620 -0.839 0.960103 -88.78 0.960103 -88.78 0.279614 3.2712
8.93400000 0.279674 -0.837 0.960087 -88.79 0.960087 -88.79 0.279668 3.2575
8.93425000 0.279728 -0.836 0.960071 -88.80 0.960071 -88.80 0.279722 3.2438
8.93450000 0.279782 -0.835 0.960055 -88.80 0.960055 -88.80 0.279776 3.2300
8.93475000 0.279837 -0.833 0.960039 -88.81 0.960039 -88.81 0.279831 3.2163
8.93500000 0.279891 -0.832 0.960023 -88.81 0.960023 -88.81 0.279885 3.2024
8.93525000 0.279946 -0.831 0.960007 -88.82 0.960007 -88.82 0.279940 3.1886
8.93550000 0.280001 -0.829 0.959991 -88.83 0.959991 -88.83 0.279995 3.1747
8.93575000 0.280056 -0.828 0.959975 -88.83 0.959975 -88.83 0.280050 3.1608
8.93600000 0.280111 -0.827 0.959959 -88.84 0.959959 -88.84 0.280105 3.1468
8.93625000 0.280167 -0.825 0.959943 -88.85 0.959943 -88.85 0.280161 3.1328
8.93650000 0.280222 -0.824 0.959927 -88.85 0.959927 -88.85 0.280216 3.1187
8.93675000 0.280278 -0.822 0.959911 -88.86 0.959911 -88.86 0.280272 3.1047
8.93700000 0.280334 -0.821 0.959894 -88.86 0.959894 -88.86 0.280328 3.0906
8.93725000 0.280390 -0.819 0.959878 -88.87 0.959878 -88.87 0.280384 3.0764
8.93750000 0.280446 -0.818 0.959862 -88.88 0.959862 -88.88 0.280440 3.0622
8.93775000 0.280502 -0.816 0.959845 -88.88 0.959845 -88.88 0.280496 3.0480
8.93800000 0.280559 -0.815 0.959829 -88.89 0.959829 -88.89 0.280552 3.0337
8.93825000 0.280615 -0.813 0.959812 -88.90 0.959812 -88.90 0.280609 3.0194
8.93850000 0.280672 -0.812 0.959795 -88.90 0.959795 -88.90 0.280666 3.0051
8.93875000 0.280729 -0.810 0.959779 -88.91 0.959779 -88.91 0.280722 2.9907
8.93900000 0.280786 -0.808 0.959762 -88.92 0.959762 -88.92 0.280779 2.9763
8.93925000 0.280843 -0.807 0.959745 -88.92 0.959745 -88.92 0.280837 2.9618
8.93950000 0.280900 -0.805 0.959728 -88.93 0.959728 -88.93 0.280894 2.9473
8.93975000 0.280958 -0.804 0.959712 -88.93 0.959712 -88.93 0.280951 2.9328
8.94000000 0.281016 -0.802 0.959695 -88.94 0.959695 -88.94 0.281009 2.9182
8.94025000 0.281073 -0.800 0.959678 -88.95 0.959678 -88.95 0.281067 2.9036
8.94050000 0.281131 -0.799 0.959661 -88.95 0.959661 -88.95 0.281125 2.8889
8.94075000 0.281190 -0.797 0.959644 -88.96 0.959644 -88.96 0.281183 2.8742
8.94100000 0.281248 -0.795 0.959627 -88.97 0.959627 -88.97 0.281241 2.8595
8.94125000 0.281306 -0.794 0.959609 -88.97 0.959609 -88.97 0.281300 2.8447
8.94150000 0.281365 -0.792 0.959592 -88.98 0.959592 -88.98 0.281359 2.8299
8.94175000 0.281424 -0.790 0.959575 -88.99 0.959575 -88.99 0.281417 2.8151
8.94200000 0.281483 -0.788 0.959558 -88.99 0.959558 -88.99 0.281476 2.8002
8.94225000 0.281542 -0.787 0.959540 -89.00 0.959540 -89.00 0.281535 2.7852
8.94250000 0.281601 -0.785 0.959523 -89.01 0.959523 -89.01 0.281595 2.7702
8.94275000 0.281661 -0.783 0.959505 -89.01 0.959505 -89.01 0.281654 2.7552
8.94300000 0.281721 -0.781 0.959488 -89.02 0.959488 -89.02 0.281714 2.7402
8.94325000 0.281781 -0.779 0.959470 -89.03 0.959470 -89.03 0.281774 2.7250
8.94350000 0.281841 -0.778 0.959453 -89.03 0.959453 -89.03 0.281834 2.7099
8.94375000 0.281901 -0.776 0.959435 -89.04 0.959435 -89.04 0.281894 2.6947
8.94400000 0.281961 -0.774 0.959417 -89.05 0.959417 -89.05 0.281954 2.6795
8.94425000 0.282022 -0.772 0.959399 -89.05 0.959399 -89.05 0.282015 2.6642
8.94450000 0.282082 -0.770 0.959381 -89.06 0.959381 -89.06 0.282076 2.6489
8.94475000 0.282143 -0.768 0.959363 -89.07 0.959363 -89.07 0.282136 2.6335
8.94500000 0.282204 -0.766 0.959345 -89.07 0.959345 -89.07 0.282197 2.6181
8.94525000 0.282266 -0.764 0.959327 -89.08 0.959327 -89.08 0.282259 2.6026
8.94550000 0.282327 -0.762 0.959309 -89.09 0.959309 -89.09 0.282320 2.5872
8.94575000 0.282389 -0.760 0.959291 -89.09 0.959291 -89.09 0.282382 2.5716
8.94600000 0.282451 -0.758 0.959273 -89.10 0.959273 -89.10 0.282444 2.5560
8.94625000 0.282513 -0.756 0.959255 -89.11 0.959255 -89.11 0.282506 2.5404
8.94650000 0.282575 -0.754 0.959236 -89.11 0.959236 -89.11 0.282568 2.5247
8.94675000 0.282637 -0.752 0.959218 -89.12 0.959218 -89.12 0.282630 2.5090
8.94700000 0.282700 -0.750 0.959199 -89.13 0.959199 -89.13 0.282693 2.4932
8.94725000 0.282762 -0.748 0.959181 -89.13 0.959181 -89.13 0.282755 2.4774
8.94750000 0.282825 -0.746 0.959162 -89.14 0.959162 -89.14 0.282818 2.4616
8.94775000 0.282889 -0.744 0.959144 -89.15 0.959144 -89.15 0.282881 2.4457
8.94800000 0.282952 -0.742 0.959125 -89.16 0.959125 -89.16 0.282945 2.4297
8.94825000 0.283015 -0.740 0.959106 -89.16 0.959106 -89.16 0.283008 2.4137
8.94850000 0.283079 -0.738 0.959087 -89.17 0.959087 -89.17 0.283072 2.3977
8.94875000 0.283143 -0.735 0.959069 -89.18 0.959069 -89.18 0.283136 2.3816
8.94900000 0.283207 -0.733 0.959050 -89.18 0.959050 -89.18 0.283200 2.3654
8.94925000 0.283271 -0.731 0.959031 -89.19 0.959031 -89.19 0.283264 2.3493
8.94950000 0.283336 -0.729 0.959012 -89.20 0.959012 -89.20 0.283328 2.3330
8.94975000 0.283401 -0.726 0.958992 -89.20 0.958992 -89.20 0.283393 2.3167
8.95000000 0.283465 -0.724 0.958973 -89.21 0.958973 -89.21 0.283458 2.3004
8.95025000 0.283531 -0.722 0.958954 -89.22 0.958954 -89.22 0.283523 2.2840
8.95050000 0.283596 -0.720 0.958935 -89.23 0.958935 -89.23 0.283588 2.2676
8.95075000 0.283661 -0.717 0.958915 -89.23 0.958915 -89.23 0.283654 2.2511
8.95100000 0.283727 -0.715 0.958896 -89.24 0.958896 -89.24 0.283719 2.2346
8.95125000 0.283793 -0.713 0.958876 -89.25 0.958876 -89.25 0.283785 2.2180
8.95150000 0.283859 -0.710 0.958857 -89.25 0.958857 -89.25 0.283851 2.2014
8.95175000 0.283925 -0.708 0.958837 -89.26 0.958837 -89.26 0.283918 2.1847
8.95200000 0.283992 -0.706 0.958817 -89.27 0.958817 -89.27 0.283984 2.1680
8.95225000 0.284059 -0.703 0.958798 -89.28 0.958798 -89.28 0.284051 2.1512
8.95250000 0.284126 -0.701 0.958778 -89.28 0.958778 -89.28 0.284118 2.1344
8.95275000 0.284193 -0.698 0.958758 -89.29 0.958758 -89.29 0.284185 2.1175
8.95300000 0.284260 -0.696 0.958738 -89.30 0.958738 -89.30 0.284252 2.1006
8.95325000 0.284328 -0.693 0.958718 -89.30 0.958718 -89.30 0.284320 2.0836
8.95350000 0.284396 -0.691 0.958698 -89.31 0.958698 -89.31 0.284388 2.0665
8.95375000 0.284464 -0.688 0.958677 -89.32 0.958677 -89.32 0.284456 2.0494
8.95400000 0.284532 -0.686 0.958657 -89.33 0.958657 -89.33 0.284524 2.0323
8.95425000 0.284600 -0.683 0.958637 -89.33 0.958637 -89.33 0.284592 2.0151
8.95450000 0.284669 -0.681 0.958616 -89.34 0.958616 -89.34 0.284661 1.9978
8.95475000 0.284738 -0.678 0.958596 -89.35 0.958596 -89.35 0.284730 1.9805
8.95500000 0.284807 -0.675 0.958575 -89.36 0.958575 -89.36 0.284799 1.9632
8.95525000 0.284877 -0.673 0.958555 -89.36 0.958555 -89.36 0.284869 1.9458
8.95550000 0.284946 -0.670 0.958534 -89.37 0.958534 -89.37 0.284938 1.9283
8.95575000 0.285016 -0.667 0.958513 -89.38 0.958513 -89.38 0.285008 1.9108
8.95600000 0.285086 -0.665 0.958492 -89.38 0.958492 -89.38 0.285078 1.8932
8.95625000 0.285157 -0.662 0.958471 -89.39 0.958471 -89.39 0.285148 1.8756
8.95650000 0.285227 -0.659 0.958450 -89.40 0.958450 -89.40 0.285219 1.8579
8.95675000 0.285298 -0.656 0.958429 -89.41 0.958429 -89.41 0.285290 1.8401
8.95700000 0.285369 -0.654 0.958408 -89.41 0.958408 -89.41 0.285361 1.8223
8.95725000 0.285440 -0.651 0.958387 -89.42 0.958387 -89.42 0.285432 1.8045
8.95750000 0.285512 -0.648 0.958365 -89.43 0.958365 -89.43 0.285503 1.7866
8.95775000 0.285583 -0.645 0.958344 -89.44 0.958344 -89.44 0.285575 1.7686
8.95800000 0.285655 -0.642 0.958323 -89.45 0.958323 -89.45 0.285647 1.7506
8.95825000 0.285728 -0.640 0.958301 -89.45 0.958301 -89.45 0.285719 1.7325
8.95850000 0.285800 -0.637 0.958279 -89.46 0.958279 -89.46 0.285792 1.7143
8.95875000 0.285873 -0.634 0.958258 -89.47 0.958258 -89.47 0.285864 1.6961
8.95900000 0.285946 -0.631 0.958236 -89.48 0.958236 -89.48 0.285937 1.6779
8.95925000 0.286019 -0.628 0.958214 -89.48 0.958214 -89.48 0.286010 1.6595
8.95950000 0.286093 -0.625 0.958192 -89.49 0.958192 -89.49 0.286084 1.6411
8.95975000 0.286166 -0.622 0.958170 -89.50 0.958170 -89.50 0.286158 1.6227
8.96000000 0.286240 -0.619 0.958148 -89.51 0.958148 -89.51 0.286232 1.6042
8.96025000 0.286315 -0.616 0.958126 -89.51 0.958126 -89.51 0.286306 1.5856
8.96050000 0.286389 -0.613 0.958103 -89.52 0.958103 -89.52 0.286380 1.5670
8.96075000 0.286464 -0.610 0.958081 -89.53 0.958081 -89.53 0.286455 1.5483
8.96100000 0.286539 -0.607 0.958058 -89.54 0.958058 -89.54 0.286530 1.5296
8.96125000 0.286614 -0.604 0.958036 -89.55 0.958036 -89.55 0.286605 1.5108
8.96150000 0.286690 -0.600 0.958013 -89.55 0.958013 -89.55 0.286681 1.4919
8.96175000 0.286766 -0.597 0.957991 -89.56 0.957991 -89.56 0.286757 1.4729
8.96200000 0.286842 -0.594 0.957968 -89.57 0.957968 -89.57 0.286833 1.4539
8.96225000 0.286918 -0.591 0.957945 -89.58 0.957945 -89.58 0.286909 1.4349
8.96250000 0.286995 -0.588 0.957922 -89.59 0.957922 -89.59 0.286986 1.4157
8.96275000 0.287072 -0.584 0.957899 -89.59 0.957899 -89.59 0.287062 1.3965
8.96300000 0.287149 -0.581 0.957876 -89.60 0.957876 -89.60 0.287140 1.3773
8.96325000 0.287226 -0.578 0.957852 -89.61 0.957852 -89.61 0.287217 1.3580
8.96350000 0.287304 -0.575 0.957829 -89.62 0.957829 -89.62 0.287295 1.3386
8.96375000 0.287382 -0.571 0.957806 -89.63 0.957806 -89.63 0.287373 1.3191
8.96400000 0.287460 -0.568 0.957782 -89.63 0.957782 -89.63 0.287451 1.2996
8.96425000 0.287539 -0.564 0.957758 -89.64 0.957758 -89.64 0.287530 1.2800
8.96450000 0.287618 -0.561 0.957735 -89.65 0.957735 -89.65 0.287608 1.2603
8.96475000 0.287697 -0.558 0.957711 -89.66 0.957711 -89.66 0.287688 1.2406
8.96500000 0.287777 -0.554 0.957687 -89.67 0.957687 -89.67 0.287767 1.2208
8.96525000 0.287856 -0.551 0.957663 -89.67 0.957663 -89.67 0.287847 1.2010
8.96550000 0.287936 -0.547 0.957639 -89.68 0.957639 -89.68 0.287927 1.1810
8.96575000 0.288017 -0.544 0.957615 -89.69 0.957615 -89.69 0.288007 1.1610
8.96600000 0.288097 -0.540 0.957590 -89.70 0.957590 -89.70 0.288088 1.1410
8.96625000 0.288178 -0.537 0.957566 -89.71 0.957566 -89.71 0.288169 1.1208
8.96650000 0.288260 -0.533 0.957542 -89.72 0.957542 -89.72 0.288250 1.1006
8.96675000 0.288341 -0.529 0.957517 -89.72 0.957517 -89.72 0.288331 1.0804
8.96700000 0.288423 -0.526 0.957492 -89.73 0.957492 -89.73 0.288413 1.0600
8.96725000 0.288505 -0.522 0.957467 -89.74 0.957467 -89.74 0.288495 1.0396
8.96750000 0.288588 -0.518 0.957443 -89.75 0.957443 -89.75 0.288578 1.0191
8.96775000 0.288671 -0.515 0.957418 -89.76 0.957418 -89.76 0.288661 0.9985
8.96800000 0.288754 -0.511 0.957392 -89.77 0.957392 -89.77 0.288744 0.9779
8.96825000 0.288837 -0.507 0.957367 -89.77 0.957367 -89.77 0.288827 0.9572
8.96850000 0.288921 -0.503 0.957342 -89.78 0.957342 -89.78 0.288911 0.9364
8.96875000 0.289005 -0.500 0.957317 -89.79 0.957317 -89.79 0.288995 0.9155
8.96900000 0.289089 -0.496 0.957291 -89.80 0.957291 -89.80 0.289079 0.8946
8.96925000 0.289174 -0.492 0.957265 -89.81 0.957265 -89.81 0.289164 0.8736
8.96950000 0.289259 -0.488 0.957240 -89.82 0.957240 -89.82 0.289249 0.8525
8.96975000 0.289345 -0.484 0.957214 -89.83 0.957214 -89.83 0.289334 0.8313
8.97000000 0.289430 -0.480 0.957188 -89.83 0.957188 -89.83 0.289420 0.8101
8.97025000 0.289516 -0.476 0.957162 -89.84 0.957162 -89.84 0.289506 0.7887
8.97050000 0.289603 -0.472 0.957136 -89.85 0.957136 -89.85 0.289592 0.7673
8.97075000 0.289690 -0.468 0.957109 -89.86 0.957109 -89.86 0.289679 0.7459
8.97100000 0.289777 -0.464 0.957083 -89.87 0.957083 -89.87 0.289766 0.7243
8.97125000 0.289864 -0.460 0.957056 -89.88 0.957056 -89.88 0.289853 0.7027
8.97150000 0.289952 -0.456 0.957030 -89.89 0.957030 -89.89 0.289941 0.6810
8.97175000 0.290040 -0.452 0.957003 -89.90 0.957003 -89.90 0.290029 0.6592
8.97200000 0.290128 -0.448 0.956976 -89.90 0.956976 -89.90 0.290118 0.6373
8.97225000 0.290217 -0.444 0.956949 -89.91 0.956949 -89.91 0.290206 0.6153
8.97250000 0.290306 -0.440 0.956922 -89.92 0.956922 -89.92 0.290296 0.5933
8.97275000 0.290396 -0.435 0.956895 -89.93 0.956895 -89.93 0.290385 0.5712
8.97300000 0.290486 -0.431 0.956868 -89.94 0.956868 -89.94 0.290475 0.5490
8.97325000 0.290576 -0.427 0.956840 -89.95 0.956840 -89.95 0.290565 0.5267
8.97350000 0.290667 -0.423 0.956813 -89.96 0.956813 -89.96 0.290656 0.5043
8.97375000 0.290758 -0.418 0.956785 -89.97 0.956785 -89.97 0.290747 0.4819
8.97400000 0.290849 -0.414 0.956757 -89.98 0.956757 -89.98 0.290838 0.4593
8.97425000 0.290941 -0.409 0.956729 -89.99 0.956729 -89.99 0.290930 0.4367
8.97450000 0.291033 -0.405 0.956701 -89.99 0.956701 -89.99 0.291022 0.4140
8.97475000 0.291126 -0.401 0.956673 -90.00 0.956673 -90.00 0.291114 0.3912
8.97500000 0.291219 -0.396 0.956645 -90.01 0.956645 -90.01 0.291207 0.3683
8.97525000 0.291312 -0.392 0.956616 -90.02 0.956616 -90.02 0.291300 0.3454
8.97550000 0.291406 -0.387 0.956588 -90.03 0.956588 -90.03 0.291394 0.3223
8.97575000 0.291500 -0.383 0.956559 -90.04 0.956559 -90.04 0.291488 0.2991
8.97600000 0.291594 -0.378 0.956530 -90.05 0.956530 -90.05 0.291582 0.2759
8.97625000 0.291689 -0.373 0.956501 -90.06 0.956501 -90.06 0.291677 0.2526
8.97650000 0.291784 -0.369 0.956472 -90.07 0.956472 -90.07 0.291773 0.2292
8.97675000 0.291880 -0.364 0.956443 -90.08 0.956443 -90.08 0.291868 0.2056
8.97700000 0.291976 -0.359 0.956413 -90.09 0.956413 -90.09 0.291964 0.1820
8.97725000 0.292073 -0.355 0.956384 -90.10 0.956384 -90.10 0.292061 0.1583
8.97750000 0.292169 -0.350 0.956354 -90.11 0.956354 -90.11 0.292157 0.1346
8.97775000 0.292267 -0.345 0.956325 -90.12 0.956325 -90.12 0.292255 0.1107
8.97800000 0.292365 -0.340 0.956295 -90.13 0.956295 -90.13 0.292352 0.0867
8.97825000 0.292463 -0.336 0.956265 -90.14 0.956265 -90.14 0.292451 0.0626
8.97850000 0.292561 -0.331 0.956234 -90.14 0.956234 -90.14 0.292549 0.0385
8.97875000 0.292660 -0.326 0.956204 -90.15 0.956204 -90.15 0.292648 0.0142
8.97900000 0.292760 -0.321 0.956174 -90.16 0.956174 -90.16 0.292747 -0.010
8.97925000 0.292860 -0.316 0.956143 -90.17 0.956143 -90.17 0.292847 -0.035
8.97950000 0.292960 -0.311 0.956112 -90.18 0.956112 -90.18 0.292948 -0.059
8.97975000 0.293061 -0.306 0.956081 -90.19 0.956081 -90.19 0.293048 -0.084
8.98000000 0.293162 -0.301 0.956050 -90.20 0.956050 -90.20 0.293149 -0.109
8.98025000 0.293264 -0.296 0.956019 -90.21 0.956019 -90.21 0.293251 -0.133
8.98050000 0.293366 -0.291 0.955988 -90.22 0.955988 -90.22 0.293353 -0.158
8.98075000 0.293468 -0.285 0.955956 -90.23 0.955956 -90.23 0.293456 -0.183
8.98100000 0.293571 -0.280 0.955924 -90.24 0.955924 -90.24 0.293559 -0.209
8.98125000 0.293675 -0.275 0.955893 -90.25 0.955893 -90.25 0.293662 -0.234
8.98150000 0.293779 -0.270 0.955861 -90.26 0.955861 -90.26 0.293766 -0.259
8.98175000 0.293883 -0.264 0.955828 -90.27 0.955828 -90.27 0.293870 -0.285
8.98200000 0.293988 -0.259 0.955796 -90.28 0.955796 -90.28 0.293975 -0.310
8.98225000 0.294093 -0.254 0.955764 -90.29 0.955764 -90.29 0.294080 -0.336
8.98250000 0.294199 -0.248 0.955731 -90.30 0.955731 -90.30 0.294186 -0.362
8.98275000 0.294306 -0.243 0.955698 -90.31 0.955698 -90.31 0.294292 -0.388
8.98300000 0.294413 -0.238 0.955665 -90.32 0.955665 -90.32 0.294399 -0.414
8.98325000 0.294520 -0.232 0.955632 -90.33 0.955632 -90.33 0.294506 -0.440
8.98350000 0.294628 -0.227 0.955599 -90.34 0.955599 -90.34 0.294614 -0.466
8.98375000 0.294736 -0.221 0.955565 -90.36 0.955565 -90.36 0.294722 -0.492
8.98400000 0.294845 -0.215 0.955532 -90.37 0.955532 -90.37 0.294831 -0.519
8.98425000 0.294954 -0.210 0.955498 -90.38 0.955498 -90.38 0.294940 -0.545
8.98450000 0.295064 -0.204 0.955464 -90.39 0.955464 -90.39 0.295050 -0.572
8.98475000 0.295174 -0.198 0.955430 -90.40 0.955430 -90.40 0.295160 -0.599
8.98500000 0.295285 -0.193 0.955396 -90.41 0.955396 -90.41 0.295271 -0.626
8.98525000 0.295397 -0.187 0.955361 -90.42 0.955361 -90.42 0.295383 -0.653
8.98550000 0.295509 -0.181 0.955326 -90.43 0.955326 -90.43 0.295494 -0.680
8.98575000 0.295621 -0.175 0.955292 -90.44 0.955292 -90.44 0.295607 -0.707
8.98600000 0.295734 -0.169 0.955257 -90.45 0.955257 -90.45 0.295720 -0.734
8.98625000 0.295848 -0.164 0.955221 -90.46 0.955221 -90.46 0.295833 -0.762
8.98650000 0.295962 -0.158 0.955186 -90.47 0.955186 -90.47 0.295947 -0.790
8.98675000 0.296076 -0.152 0.955150 -90.48 0.955150 -90.48 0.296062 -0.817
8.98700000 0.296191 -0.146 0.955115 -90.49 0.955115 -90.49 0.296177 -0.845
8.98725000 0.296307 -0.140 0.955079 -90.50 0.955079 -90.50 0.296293 -0.873
8.98750000 0.296424 -0.133 0.955043 -90.52 0.955043 -90.52 0.296409 -0.901
8.98775000 0.296540 -0.127 0.955006 -90.53 0.955006 -90.53 0.296526 -0.929
8.98800000 0.296658 -0.121 0.954970 -90.54 0.954970 -90.54 0.296643 -0.958
8.98825000 0.296776 -0.115 0.954933 -90.55 0.954933 -90.55 0.296761 -0.986
8.98850000 0.296895 -0.109 0.954896 -90.56 0.954896 -90.56 0.296880 -1.015
8.98875000 0.297014 -0.102 0.954859 -90.57 0.954859 -90.57 0.296999 -1.043
8.98900000 0.297134 -0.096 0.954822 -90.58 0.954822 -90.58 0.297118 -1.072
8.98925000 0.297254 -0.090 0.954784 -90.59 0.954784 -90.59 0.297239 -1.101
8.98950000 0.297375 -0.083 0.954746 -90.61 0.954746 -90.61 0.297360 -1.130
8.98975000 0.297497 -0.077 0.954708 -90.62 0.954708 -90.62 0.297481 -1.160
8.99000000 0.297619 -0.070 0.954670 -90.63 0.954670 -90.63 0.297603 -1.189
8.99025000 0.297742 -0.064 0.954632 -90.64 0.954632 -90.64 0.297726 -1.218
8.99050000 0.297865 -0.057 0.954593 -90.65 0.954593 -90.65 0.297849 -1.248
8.99075000 0.297989 -0.051 0.954554 -90.66 0.954554 -90.66 0.297973 -1.278
8.99100000 0.298114 -0.044 0.954515 -90.67 0.954515 -90.67 0.298098 -1.308
8.99125000 0.298239 -0.038 0.954476 -90.69 0.954476 -90.69 0.298223 -1.338
8.99150000 0.298365 -0.031 0.954437 -90.70 0.954437 -90.70 0.298349 -1.368
8.99175000 0.298492 -0.024 0.954397 -90.71 0.954397 -90.71 0.298476 -1.398
8.99200000 0.298619 -0.017 0.954357 -90.72 0.954357 -90.72 0.298603 -1.429
8.99225000 0.298747 -0.010 0.954317 -90.73 0.954317 -90.73 0.298731 -1.459
8.99250000 0.298876 0.0000 0.954277 -90.75 0.954277 -90.75 0.298860 -1.490
8.99275000 0.299005 0.0033 0.954236 -90.76 0.954236 -90.76 0.298989 -1.521
8.99300000 0.299135 0.0103 0.954195 -90.77 0.954195 -90.77 0.299119 -1.552
8.99325000 0.299266 0.0173 0.954154 -90.78 0.954154 -90.78 0.299249 -1.583
8.99350000 0.299397 0.0244 0.954113 -90.79 0.954113 -90.79 0.299381 -1.615
8.99375000 0.299529 0.0314 0.954072 -90.81 0.954072 -90.81 0.299513 -1.646
8.99400000 0.299662 0.0386 0.954030 -90.82 0.954030 -90.82 0.299645 -1.678
8.99425000 0.299796 0.0458 0.953988 -90.83 0.953988 -90.83 0.299779 -1.709
8.99450000 0.299930 0.0530 0.953946 -90.84 0.953946 -90.84 0.299913 -1.741
8.99475000 0.300065 0.0602 0.953903 -90.85 0.953903 -90.85 0.300048 -1.773
8.99500000 0.300200 0.0675 0.953860 -90.87 0.953860 -90.87 0.300183 -1.806
8.99525000 0.300337 0.0749 0.953817 -90.88 0.953817 -90.88 0.300319 -1.838
8.99550000 0.300474 0.0823 0.953774 -90.89 0.953774 -90.89 0.300456 -1.871
8.99575000 0.300612 0.0897 0.953730 -90.90 0.953730 -90.90 0.300594 -1.903
8.99600000 0.300750 0.0972 0.953687 -90.92 0.953687 -90.92 0.300733 -1.936
8.99625000 0.300890 0.1048 0.953643 -90.93 0.953643 -90.93 0.300872 -1.969
8.99650000 0.301030 0.1123 0.953598 -90.94 0.953598 -90.94 0.301012 -2.002
8.99675000 0.301171 0.1200 0.953554 -90.96 0.953554 -90.96 0.301153 -2.036
8.99700000 0.301313 0.1276 0.953509 -90.97 0.953509 -90.97 0.301295 -2.069
8.99725000 0.301455 0.1353 0.953464 -90.98 0.953464 -90.98 0.301437 -2.103
8.99750000 0.301598 0.1431 0.953418 -90.99 0.953418 -90.99 0.301580 -2.137