! Sonnet Data File
! From: emgraph Version : 16.52
! From Project: Resonator2_extremeCap2
! Data is De-embedded 
! Data File Written: 10/10/2017 13:11:38
!< HDATE 10/10/2017 08:28:44
!< MDATE 10/10/2017 08:28:44
!< PARAMS
!< Pwid1 = 2000.0
!< Pwid2 = 2000.0
!< Air_gap = 6.0
!< Width = 10.0
!< Gap = 73.0
!< END PARAMS
# GHZ S MA R 35.98000
8.98000000 0.421082 -10.31 0.907007 -99.45 0.907007 -99.45 0.421068 -8.597
!< P1 F=8.98 Eeff=(5.37116343 -2.3769e-5) Z0=(35.9716001 8.05996e-5) R=0.0 C=0.0 
!< P2 F=8.98 Eeff=(5.37116343 -2.3769e-5) Z0=(35.9716001 8.05996e-5) R=0.0 C=0.0 
8.98050000 0.421325 -10.31 0.906895 -99.48 0.906895 -99.48 0.421310 -8.644
8.98100000 0.421569 -10.31 0.906781 -99.50 0.906781 -99.50 0.421555 -8.691
8.98150000 0.421816 -10.31 0.906666 -99.52 0.906666 -99.52 0.421801 -8.738
8.98200000 0.422065 -10.31 0.906550 -99.55 0.906550 -99.55 0.422050 -8.786
8.98250000 0.422315 -10.31 0.906434 -99.57 0.906434 -99.57 0.422300 -8.834
8.98300000 0.422568 -10.31 0.906316 -99.60 0.906316 -99.60 0.422553 -8.882
8.98350000 0.422823 -10.31 0.906197 -99.62 0.906197 -99.62 0.422808 -8.931
8.98400000 0.423080 -10.31 0.906077 -99.64 0.906077 -99.64 0.423065 -8.981
8.98450000 0.423339 -10.31 0.905955 -99.67 0.905955 -99.67 0.423324 -9.030
8.98500000 0.423601 -10.31 0.905833 -99.69 0.905833 -99.69 0.423585 -9.080
8.98550000 0.423865 -10.31 0.905709 -99.72 0.905709 -99.72 0.423849 -9.131
8.98600000 0.424131 -10.31 0.905585 -99.74 0.905585 -99.74 0.424115 -9.182
8.98650000 0.424399 -10.31 0.905459 -99.77 0.905459 -99.77 0.424383 -9.233
8.98700000 0.424670 -10.30 0.905332 -99.79 0.905332 -99.79 0.424654 -9.285
8.98750000 0.424943 -10.30 0.905203 -99.82 0.905203 -99.82 0.424927 -9.337
8.98800000 0.425219 -10.30 0.905074 -99.84 0.905074 -99.84 0.425202 -9.390
8.98850000 0.425497 -10.30 0.904943 -99.87 0.904943 -99.87 0.425480 -9.443
8.98900000 0.425777 -10.30 0.904811 -99.90 0.904811 -99.90 0.425761 -9.496
8.98950000 0.426061 -10.30 0.904678 -99.92 0.904678 -99.92 0.426044 -9.550
8.99000000 0.426346 -10.30 0.904543 -99.95 0.904543 -99.95 0.426329 -9.604
8.99050000 0.426635 -10.30 0.904407 -99.98 0.904407 -99.98 0.426617 -9.659
8.99100000 0.426926 -10.29 0.904269 -100.0 0.904269 -100.0 0.426908 -9.715
8.99150000 0.427220 -10.29 0.904130 -100.0 0.904130 -100.0 0.427202 -9.770
8.99200000 0.427516 -10.29 0.903990 -100.1 0.903990 -100.1 0.427498 -9.827
8.99250000 0.427815 -10.29 0.903848 -100.1 0.903848 -100.1 0.427797 -9.884
8.99300000 0.428118 -10.29 0.903705 -100.1 0.903705 -100.1 0.428099 -9.941
8.99350000 0.428423 -10.29 0.903560 -100.1 0.903560 -100.1 0.428404 -9.999
8.99400000 0.428731 -10.28 0.903414 -100.2 0.903414 -100.2 0.428712 -10.06
8.99450000 0.429042 -10.28 0.903266 -100.2 0.903266 -100.2 0.429023 -10.12
8.99500000 0.429356 -10.28 0.903117 -100.2 0.903117 -100.2 0.429337 -10.18
8.99550000 0.429673 -10.28 0.902966 -100.3 0.902966 -100.3 0.429654 -10.24
8.99600000 0.429994 -10.28 0.902813 -100.3 0.902813 -100.3 0.429974 -10.30
8.99650000 0.430317 -10.28 0.902659 -100.3 0.902659 -100.3 0.430297 -10.36
8.99700000 0.430644 -10.27 0.902503 -100.3 0.902503 -100.3 0.430624 -10.42
8.99750000 0.430974 -10.27 0.902345 -100.4 0.902345 -100.4 0.430954 -10.48
8.99800000 0.431308 -10.27 0.902185 -100.4 0.902185 -100.4 0.431287 -10.54
8.99850000 0.431645 -10.27 0.902024 -100.4 0.902024 -100.4 0.431624 -10.61
8.99900000 0.431985 -10.26 0.901861 -100.5 0.901861 -100.5 0.431964 -10.67
8.99950000 0.432329 -10.26 0.901696 -100.5 0.901696 -100.5 0.432308 -10.74
9.00000000 0.432676 -10.26 0.901529 -100.5 0.901529 -100.5 0.432655 -10.80
9.00050000 0.433028 -10.26 0.901360 -100.6 0.901360 -100.6 0.433006 -10.87
9.00100000 0.433383 -10.25 0.901189 -100.6 0.901189 -100.6 0.433361 -10.93
9.00150000 0.433741 -10.25 0.901017 -100.6 0.901017 -100.6 0.433719 -11.00
9.00200000 0.434104 -10.25 0.900842 -100.7 0.900842 -100.7 0.434082 -11.07
9.00250000 0.434470 -10.25 0.900665 -100.7 0.900665 -100.7 0.434448 -11.14
9.00300000 0.434841 -10.24 0.900486 -100.7 0.900486 -100.7 0.434818 -11.21
9.00350000 0.435216 -10.24 0.900305 -100.8 0.900305 -100.8 0.435193 -11.28
9.00400000 0.435595 -10.24 0.900121 -100.8 0.900121 -100.8 0.435571 -11.35
9.00450000 0.435978 -10.24 0.899936 -100.8 0.899936 -100.8 0.435954 -11.42
9.00500000 0.436365 -10.23 0.899748 -100.9 0.899748 -100.9 0.436341 -11.49
9.00550000 0.436757 -10.23 0.899557 -100.9 0.899557 -100.9 0.436732 -11.56
9.00600000 0.437153 -10.23 0.899365 -100.9 0.899365 -100.9 0.437128 -11.64
9.00650000 0.437554 -10.22 0.899170 -101.0 0.899170 -101.0 0.437529 -11.71
9.00700000 0.437959 -10.22 0.898972 -101.0 0.898972 -101.0 0.437934 -11.79
9.00750000 0.438369 -10.22 0.898772 -101.0 0.898772 -101.0 0.438344 -11.86
9.00800000 0.438784 -10.21 0.898569 -101.1 0.898569 -101.1 0.438758 -11.94
9.00850000 0.439204 -10.21 0.898364 -101.1 0.898364 -101.1 0.439178 -12.02
9.00900000 0.439629 -10.21 0.898156 -101.1 0.898156 -101.1 0.439603 -12.10
9.00950000 0.440059 -10.20 0.897945 -101.2 0.897945 -101.2 0.440032 -12.17
9.01000000 0.440494 -10.20 0.897731 -101.2 0.897731 -101.2 0.440467 -12.25
9.01050000 0.440935 -10.19 0.897514 -101.3 0.897514 -101.3 0.440907 -12.34
9.01100000 0.441381 -10.19 0.897295 -101.3 0.897295 -101.3 0.441353 -12.42
9.01150000 0.441832 -10.19 0.897072 -101.3 0.897072 -101.3 0.441804 -12.50
9.01200000 0.442289 -10.18 0.896847 -101.4 0.896847 -101.4 0.442261 -12.58
9.01250000 0.442752 -10.18 0.896618 -101.4 0.896618 -101.4 0.442724 -12.67
9.01300000 0.443221 -10.18 0.896386 -101.5 0.896386 -101.5 0.443192 -12.76
9.01350000 0.443696 -10.17 0.896151 -101.5 0.896151 -101.5 0.443666 -12.84
9.01400000 0.444177 -10.17 0.895912 -101.5 0.895912 -101.5 0.444147 -12.93
9.01450000 0.444664 -10.16 0.895671 -101.6 0.895671 -101.6 0.444634 -13.02
9.01500000 0.445157 -10.16 0.895425 -101.6 0.895425 -101.6 0.445127 -13.11
9.01550000 0.445658 -10.15 0.895176 -101.7 0.895176 -101.7 0.445626 -13.20
9.01600000 0.446164 -10.15 0.894923 -101.7 0.894923 -101.7 0.446133 -13.29
9.01650000 0.446678 -10.15 0.894667 -101.8 0.894667 -101.8 0.446646 -13.39
9.01700000 0.447198 -10.14 0.894406 -101.8 0.894406 -101.8 0.447166 -13.48
9.01750000 0.447726 -10.14 0.894142 -101.9 0.894142 -101.9 0.447693 -13.58
9.01800000 0.448260 -10.13 0.893874 -101.9 0.893874 -101.9 0.448227 -13.67
9.01850000 0.448803 -10.13 0.893601 -101.9 0.893601 -101.9 0.448769 -13.77
9.01900000 0.449352 -10.12 0.893325 -102.0 0.893325 -102.0 0.449318 -13.87
9.01950000 0.449910 -10.12 0.893044 -102.0 0.893044 -102.0 0.449875 -13.97
9.02000000 0.450475 -10.11 0.892758 -102.1 0.892758 -102.1 0.450440 -14.07
9.02050000 0.451049 -10.11 0.892468 -102.1 0.892468 -102.1 0.451013 -14.17
9.02100000 0.451631 -10.10 0.892173 -102.2 0.892173 -102.2 0.451594 -14.28
9.02150000 0.452221 -10.10 0.891874 -102.2 0.891874 -102.2 0.452184 -14.38
9.02200000 0.452820 -10.09 0.891570 -102.3 0.891570 -102.3 0.452783 -14.49
9.02250000 0.453428 -10.09 0.891260 -102.3 0.891260 -102.3 0.453390 -14.60
9.02300000 0.454045 -10.08 0.890946 -102.4 0.890946 -102.4 0.454006 -14.71
9.02350000 0.454671 -10.08 0.890626 -102.4 0.890626 -102.4 0.454632 -14.82
9.02400000 0.455306 -10.07 0.890301 -102.5 0.890301 -102.5 0.455267 -14.93
9.02450000 0.455952 -10.07 0.889970 -102.6 0.889970 -102.6 0.455912 -15.05
9.02500000 0.456607 -10.06 0.889633 -102.6 0.889633 -102.6 0.456567 -15.16
9.02550000 0.457273 -10.06 0.889291 -102.7 0.889291 -102.7 0.457232 -15.28
9.02600000 0.457949 -10.05 0.888942 -102.7 0.888942 -102.7 0.457907 -15.40
9.02650000 0.458636 -10.05 0.888587 -102.8 0.888587 -102.8 0.458594 -15.52
9.02700000 0.459334 -10.04 0.888226 -102.8 0.888226 -102.8 0.459291 -15.65
9.02750000 0.460043 -10.04 0.887859 -102.9 0.887859 -102.9 0.459999 -15.77
9.02800000 0.460764 -10.03 0.887484 -103.0 0.887484 -103.0 0.460719 -15.90
9.02850000 0.461497 -10.03 0.887103 -103.0 0.887103 -103.0 0.461451 -16.02
9.02900000 0.462242 -10.02 0.886715 -103.1 0.886715 -103.1 0.462195 -16.15
9.02950000 0.462999 -10.02 0.886319 -103.1 0.886319 -103.1 0.462952 -16.29
9.03000000 0.463769 -10.01 0.885915 -103.2 0.885915 -103.2 0.463721 -16.42
9.03050000 0.464552 -10.00 0.885504 -103.3 0.885504 -103.3 0.464504 -16.56
9.03100000 0.465349 -9.999 0.885085 -103.3 0.885085 -103.3 0.465300 -16.70
9.03150000 0.466160 -9.994 0.884658 -103.4 0.884658 -103.4 0.466110 -16.84
9.03200000 0.466985 -9.989 0.884222 -103.5 0.884222 -103.5 0.466934 -16.98
9.03250000 0.467825 -9.983 0.883777 -103.5 0.883777 -103.5 0.467773 -17.12
9.03300000 0.468679 -9.978 0.883323 -103.6 0.883323 -103.6 0.468627 -17.27
9.03350000 0.469550 -9.973 0.882860 -103.7 0.882860 -103.7 0.469496 -17.42
9.03400000 0.470436 -9.968 0.882388 -103.8 0.882388 -103.8 0.470381 -17.57
9.03450000 0.471338 -9.963 0.881905 -103.8 0.881905 -103.8 0.471283 -17.73
9.03500000 0.472257 -9.958 0.881413 -103.9 0.881413 -103.9 0.472201 -17.88
9.03550000 0.473194 -9.953 0.880909 -104.0 0.880909 -104.0 0.473137 -18.04
9.03600000 0.474149 -9.948 0.880395 -104.1 0.880395 -104.1 0.474090 -18.20
9.03650000 0.475121 -9.943 0.879870 -104.1 0.879870 -104.1 0.475062 -18.37
9.03700000 0.476113 -9.939 0.879332 -104.2 0.879332 -104.2 0.476053 -18.54
9.03750000 0.477124 -9.934 0.878783 -104.3 0.878783 -104.3 0.477063 -18.71
9.03800000 0.478155 -9.930 0.878222 -104.4 0.878222 -104.4 0.478093 -18.88
9.03850000 0.479207 -9.926 0.877647 -104.5 0.877647 -104.5 0.479143 -19.06
9.03900000 0.480280 -9.922 0.877059 -104.6 0.877059 -104.6 0.480215 -19.24
9.03950000 0.481376 -9.918 0.876458 -104.7 0.876458 -104.7 0.481309 -19.42
9.04000000 0.482493 -9.914 0.875842 -104.8 0.875842 -104.8 0.482426 -19.61
9.04050000 0.483635 -9.911 0.875211 -104.8 0.875211 -104.8 0.483566 -19.80
9.04100000 0.484800 -9.907 0.874565 -104.9 0.874565 -104.9 0.484730 -19.99
9.04150000 0.485990 -9.904 0.873903 -105.0 0.873903 -105.0 0.485918 -20.19
9.04200000 0.487206 -9.902 0.873224 -105.1 0.873224 -105.1 0.487133 -20.39
9.04250000 0.488449 -9.899 0.872528 -105.2 0.872528 -105.2 0.488374 -20.59
9.04300000 0.489718 -9.897 0.871815 -105.3 0.871815 -105.3 0.489642 -20.80
9.04350000 0.491017 -9.895 0.871083 -105.4 0.871083 -105.4 0.490939 -21.01
9.04400000 0.492344 -9.894 0.870332 -105.6 0.870332 -105.6 0.492265 -21.23
9.04450000 0.493702 -9.893 0.869561 -105.7 0.869561 -105.7 0.493622 -21.45
9.04500000 0.495092 -9.892 0.868769 -105.8 0.868769 -105.8 0.495009 -21.67
9.04550000 0.496514 -9.892 0.867955 -105.9 0.867955 -105.9 0.496429 -21.90
9.04600000 0.497969 -9.893 0.867120 -106.0 0.867120 -106.0 0.497883 -22.14
9.04650000 0.499460 -9.893 0.866260 -106.1 0.866260 -106.1 0.499372 -22.38
9.04700000 0.500987 -9.895 0.865376 -106.2 0.865376 -106.2 0.500896 -22.62
9.04750000 0.502551 -9.897 0.864467 -106.4 0.864467 -106.4 0.502459 -22.87
9.04800000 0.504154 -9.900 0.863531 -106.5 0.863531 -106.5 0.504059 -23.13
9.04850000 0.505797 -9.903 0.862568 -106.6 0.862568 -106.6 0.505700 -23.39
9.04900000 0.507482 -9.907 0.861576 -106.8 0.861576 -106.8 0.507383 -23.66
9.04950000 0.509210 -9.912 0.860553 -106.9 0.860553 -106.9 0.509110 -23.93
9.05000000 0.510984 -9.918 0.859499 -107.1 0.859499 -107.1 0.510881 -24.21
9.05050000 0.512804 -9.925 0.858412 -107.2 0.858412 -107.2 0.512699 -24.49
9.05100000 0.514674 -9.932 0.857290 -107.3 0.857290 -107.3 0.514566 -24.78
9.05150000 0.516594 -9.941 0.856132 -107.5 0.856132 -107.5 0.516483 -25.08
9.05200000 0.518566 -9.951 0.854935 -107.7 0.854935 -107.7 0.518453 -25.39
9.05250000 0.520594 -9.962 0.853699 -107.8 0.853699 -107.8 0.520478 -25.70
9.05300000 0.522679 -9.975 0.852422 -108.0 0.852422 -108.0 0.522560 -26.02
9.05350000 0.524823 -9.989 0.851100 -108.2 0.851100 -108.2 0.524701 -26.35
9.05400000 0.527030 -10.00 0.849732 -108.3 0.849732 -108.3 0.526905 -26.69
9.05450000 0.529302 -10.02 0.848316 -108.5 0.848316 -108.5 0.529173 -27.03
9.05500000 0.531641 -10.04 0.846848 -108.7 0.846848 -108.7 0.531509 -27.39
9.05550000 0.534051 -10.06 0.845327 -108.9 0.845327 -108.9 0.533915 -27.75
9.05600000 0.536534 -10.08 0.843749 -109.1 0.843749 -109.1 0.536395 -28.13
9.05650000 0.539095 -10.11 0.842111 -109.3 0.842111 -109.3 0.538952 -28.51
9.05700000 0.541736 -10.14 0.840410 -109.5 0.840410 -109.5 0.541589 -28.90
9.05750000 0.544462 -10.17 0.838643 -109.7 0.838643 -109.7 0.544311 -29.31
9.05800000 0.547277 -10.20 0.836804 -109.9 0.836804 -109.9 0.547121 -29.73
9.05850000 0.550183 -10.23 0.834891 -110.2 0.834891 -110.2 0.550023 -30.15
9.05900000 0.553187 -10.27 0.832898 -110.4 0.832898 -110.4 0.553022 -30.60
9.05950000 0.556293 -10.31 0.830822 -110.7 0.830822 -110.7 0.556123 -31.05
9.06000000 0.559505 -10.36 0.828656 -110.9 0.828656 -110.9 0.559330 -31.52
9.06050000 0.562830 -10.41 0.826396 -111.2 0.826396 -111.2 0.562650 -32.00
9.06100000 0.566273 -10.46 0.824034 -111.5 0.824034 -111.5 0.566086 -32.50
9.06150000 0.569839 -10.52 0.821565 -111.7 0.821565 -111.7 0.569647 -33.01
9.06200000 0.573536 -10.58 0.818982 -112.0 0.818982 -112.0 0.573337 -33.54
9.06250000 0.577370 -10.65 0.816276 -112.3 0.816276 -112.3 0.577165 -34.09
9.06300000 0.581348 -10.73 0.813439 -112.7 0.813439 -112.7 0.581136 -34.65
9.06350000 0.585479 -10.81 0.810462 -113.0 0.810462 -113.0 0.585260 -35.23
9.06400000 0.589770 -10.89 0.807336 -113.3 0.807336 -113.3 0.589544 -35.84
9.06450000 0.594231 -10.99 0.804049 -113.7 0.804049 -113.7 0.593996 -36.46
9.06500000 0.598870 -11.09 0.800588 -114.1 0.800588 -114.1 0.598628 -37.11
9.06550000 0.603699 -11.20 0.796943 -114.5 0.796943 -114.5 0.603447 -37.78
9.06600000 0.608727 -11.32 0.793097 -114.9 0.793097 -114.9 0.608466 -38.48
9.06650000 0.613966 -11.45 0.789035 -115.3 0.789035 -115.3 0.613696 -39.20
9.06700000 0.619429 -11.59 0.784740 -115.7 0.784740 -115.7 0.619149 -39.95
9.06750000 0.625129 -11.74 0.780192 -116.2 0.780192 -116.2 0.624838 -40.73
9.06800000 0.631079 -11.91 0.775371 -116.7 0.775371 -116.7 0.630777 -41.54
9.06850000 0.637295 -12.09 0.770253 -117.2 0.770253 -117.2 0.636980 -42.39
9.06900000 0.643792 -12.29 0.764812 -117.7 0.764812 -117.7 0.643465 -43.27
9.06950000 0.650587 -12.50 0.759020 -118.3 0.759020 -118.3 0.650246 -44.19
9.07000000 0.657699 -12.73 0.752845 -118.9 0.752845 -118.9 0.657343 -45.14
9.07050000 0.665145 -12.99 0.746250 -119.5 0.746250 -119.5 0.664775 -46.15
9.07100000 0.672947 -13.26 0.739197 -120.2 0.739197 -120.2 0.672560 -47.20
9.07150000 0.681125 -13.56 0.731640 -120.9 0.731640 -120.9 0.680721 -48.29
9.07200000 0.689701 -13.89 0.723530 -121.6 0.723530 -121.6 0.689278 -49.44
9.07250000 0.698698 -14.24 0.714812 -122.4 0.714812 -122.4 0.698256 -50.65
9.07300000 0.708140 -14.63 0.705422 -123.2 0.705422 -123.2 0.707677 -51.92
9.07350000 0.718051 -15.06 0.695290 -124.1 0.695290 -124.1 0.717565 -53.26
9.07400000 0.728454 -15.53 0.684338 -125.0 0.684338 -125.0 0.727944 -54.66
9.07450000 0.739374 -16.04 0.672475 -126.0 0.672475 -126.0 0.738838 -56.15
9.07500000 0.750832 -16.60 0.659601 -127.1 0.659601 -127.1 0.750269 -57.71
9.07550000 0.762849 -17.21 0.645602 -128.2 0.645602 -128.2 0.762257 -59.37
9.07600000 0.775442 -17.88 0.630352 -129.4 0.630352 -129.4 0.774818 -61.12
9.07650000 0.788621 -18.62 0.613705 -130.7 0.613705 -130.7 0.787964 -62.98
9.07700000 0.802391 -19.44 0.595501 -132.1 0.595501 -132.1 0.801697 -64.96
9.07750000 0.816743 -20.33 0.575558 -133.6 0.575558 -133.6 0.816010 -67.06
9.07800000 0.831657 -21.31 0.553676 -135.2 0.553676 -135.2 0.830882 -69.29
9.07850000 0.847091 -22.40 0.529632 -136.9 0.529632 -136.9 0.846271 -71.67
9.07900000 0.862979 -23.59 0.503181 -138.7 0.503181 -138.7 0.862111 -74.21
9.07950000 0.879219 -24.90 0.474061 -140.7 0.474061 -140.7 0.878300 -76.93
9.08000000 0.895672 -26.34 0.441990 -142.9 0.441990 -142.9 0.894698 -79.83
9.08050000 0.912143 -27.93 0.406680 -145.2 0.406680 -145.2 0.911111 -82.93
9.08100000 0.928376 -29.66 0.367843 -147.6 0.367843 -147.6 0.927283 -86.24
9.08150000 0.944043 -31.56 0.325209 -150.3 0.325209 -150.3 0.942885 -89.79
9.08200000 0.958731 -33.63 0.278547 -153.1 0.278547 -153.1 0.957506 -93.57
9.08250000 0.971945 -35.88 0.227698 -156.2 0.227698 -156.2 0.970651 -97.60
9.08300000 0.983107 -38.30 0.172611 -159.3 0.172611 -159.3 0.981743 -101.9
9.08350000 0.991571 -40.90 0.113385 -162.3 0.113385 -162.3 0.990136 -106.4
9.08400000 0.996657 -43.66 0.050330 -164.3 0.050330 -164.3 0.995153 -111.2
9.08401548 0.996754 -43.75 0.048323 -164.3 0.048323 -164.3 0.995247 -111.4
9.08403060 0.996844 -43.83 0.046359 -164.3 0.046359 -164.3 0.995335 -111.5
9.08404538 0.996928 -43.92 0.044438 -164.3 0.044438 -164.3 0.995417 -111.6
9.08405982 0.997008 -44.00 0.042558 -164.2 0.042558 -164.2 0.995495 -111.8
9.08407393 0.997082 -44.08 0.040719 -164.1 0.040719 -164.1 0.995567 -111.9
9.08408771 0.997151 -44.16 0.038920 -164.1 0.038920 -164.1 0.995634 -112.1
9.08410118 0.997215 -44.24 0.037160 -164.0 0.037160 -164.0 0.995697 -112.2
9.08411434 0.997275 -44.31 0.035439 -163.9 0.035439 -163.9 0.995755 -112.3
9.08412720 0.997331 -44.39 0.033755 -163.7 0.033755 -163.7 0.995809 -112.5
9.08413977 0.997383 -44.46 0.032109 -163.6 0.032109 -163.6 0.995859 -112.6
9.08415204 0.997431 -44.53 0.030499 -163.4 0.030499 -163.4 0.995906 -112.7
9.08416404 0.997476 -44.60 0.028925 -163.2 0.028925 -163.2 0.995949 -112.8
9.08417576 0.997517 -44.66 0.027386 -163.0 0.027386 -163.0 0.995988 -112.9
9.08418721 0.997555 -44.73 0.025881 -162.7 0.025881 -162.7 0.996025 -113.1
9.08419840 0.997590 -44.80 0.024410 -162.5 0.024410 -162.5 0.996058 -113.2
9.08420933 0.997622 -44.86 0.022973 -162.1 0.022973 -162.1 0.996089 -113.3
9.08422001 0.997651 -44.92 0.021569 -161.8 0.021569 -161.8 0.996117 -113.4
9.08423045 0.997678 -44.98 0.020196 -161.3 0.020196 -161.3 0.996142 -113.5
9.08424065 0.997702 -45.04 0.018856 -160.8 0.018856 -160.8 0.996165 -113.6
9.08425061 0.997724 -45.10 0.017548 -160.3 0.017548 -160.3 0.996186 -113.7
9.08426035 0.997744 -45.15 0.016271 -159.6 0.016271 -159.6 0.996204 -113.8
9.08426986 0.997762 -45.21 0.015024 -158.8 0.015024 -158.8 0.996221 -113.9
9.08427916 0.997778 -45.26 0.013810 -158.0 0.013810 -158.0 0.996235 -114.0
9.08428824 0.997792 -45.32 0.012626 -156.9 0.012626 -156.9 0.996248 -114.1
9.08429711 0.997804 -45.37 0.011474 -155.7 0.011474 -155.7 0.996259 -114.2
9.08430579 0.997815 -45.42 0.010355 -154.1 0.010355 -154.1 0.996268 -114.2
9.08431426 0.997824 -45.47 0.009271 -152.3 0.009271 -152.3 0.996276 -114.3
9.08432254 0.997831 -45.52 0.008222 -150.0 0.008222 -150.0 0.996283 -114.4
9.08433062 0.997838 -45.56 0.007214 -147.1 0.007214 -147.1 0.996288 -114.5
9.08433853 0.997843 -45.61 0.006253 -143.4 0.006253 -143.4 0.996292 -114.6
9.08434625 0.997847 -45.66 0.005349 -138.5 0.005349 -138.5 0.996295 -114.7
9.08435379 0.997849 -45.70 0.004520 -131.8 0.004520 -131.8 0.996297 -114.7
9.08436117 0.997851 -45.74 0.003797 -122.5 0.003797 -122.5 0.996297 -114.8
9.08436837 0.997852 -45.78 0.003229 -109.7 0.003229 -109.7 0.996297 -114.9
9.08437541 0.997851 -45.83 0.002887 -93.14 0.002887 -93.14 0.996296 -114.9
9.08438228 0.997850 -45.87 0.002832 -74.61 0.002832 -74.61 0.996294 -115.0
9.08438900 0.997848 -45.91 0.003060 -57.57 0.003060 -57.57 0.996291 -115.1
9.08439557 0.997846 -45.94 0.003502 -44.19 0.003502 -44.19 0.996288 -115.2
9.08440198 0.997842 -45.98 0.004075 -34.42 0.004075 -34.42 0.996284 -115.2
9.08440825 0.997838 -46.02 0.004722 -27.37 0.004722 -27.37 0.996279 -115.3
9.08441438 0.997834 -46.06 0.005407 -22.19 0.005407 -22.19 0.996273 -115.3
9.08442036 0.997829 -46.09 0.006111 -18.29 0.006111 -18.29 0.996267 -115.4
9.08442621 0.997823 -46.13 0.006821 -15.28 0.006821 -15.28 0.996261 -115.5
9.08443192 0.997817 -46.16 0.007530 -12.90 0.007530 -12.90 0.996254 -115.5
9.08443750 0.997810 -46.19 0.008235 -10.99 0.008235 -10.99 0.996247 -115.6
9.08444296 0.997803 -46.22 0.008931 -9.412 0.008931 -9.412 0.996239 -115.6
9.08444829 0.997796 -46.26 0.009618 -8.101 0.009618 -8.101 0.996231 -115.7
9.08445349 0.997788 -46.29 0.010293 -6.995 0.010293 -6.995 0.996223 -115.7
9.08445858 0.997781 -46.32 0.010957 -6.050 0.010957 -6.050 0.996214 -115.8
9.08446355 0.997772 -46.35 0.011609 -5.236 0.011609 -5.236 0.996205 -115.8
9.08446841 0.997764 -46.37 0.012248 -4.529 0.012248 -4.529 0.996196 -115.9
9.08447315 0.997755 -46.40 0.012875 -3.909 0.012875 -3.909 0.996187 -115.9
9.08447779 0.997746 -46.43 0.013489 -3.362 0.013489 -3.362 0.996177 -116.0
9.08448232 0.997737 -46.46 0.014090 -2.877 0.014090 -2.877 0.996168 -116.0
9.08448675 0.997728 -46.48 0.014679 -2.444 0.014679 -2.444 0.996158 -116.1
9.08449107 0.997718 -46.51 0.015256 -2.056 0.015256 -2.056 0.996148 -116.1
9.08449530 0.997709 -46.53 0.015820 -1.706 0.015820 -1.706 0.996138 -116.2
9.08449943 0.997699 -46.56 0.016372 -1.390 0.016372 -1.390 0.996128 -116.2
9.08450000 0.997698 -46.56 0.016448 -1.348 0.016448 -1.348 0.996126 -116.2
9.08450347 0.997690 -46.58 0.016912 -1.103 0.016912 -1.103 0.996117 -116.3
9.08450741 0.997680 -46.61 0.017441 -0.842 0.017441 -0.842 0.996107 -116.3
9.08451126 0.997670 -46.63 0.017958 -0.603 0.017958 -0.603 0.996097 -116.3
9.08451502 0.997660 -46.65 0.018463 -0.385 0.018463 -0.385 0.996086 -116.4
9.08451870 0.997650 -46.67 0.018958 -0.184 0.018958 -0.184 0.996076 -116.4
9.08452230 0.997640 -46.69 0.019441 0.0010 0.019441 0.0010 0.996066 -116.4
9.08452581 0.997630 -46.71 0.019914 0.1717 0.019914 0.1717 0.996055 -116.5
9.08452924 0.997620 -46.73 0.020376 0.3297 0.020376 0.3297 0.996045 -116.5
9.08453259 0.997610 -46.75 0.020829 0.4761 0.020829 0.4761 0.996034 -116.5
9.08453586 0.997601 -46.77 0.021270 0.6120 0.021270 0.6120 0.996024 -116.6
9.08453906 0.997591 -46.79 0.021703 0.7385 0.021703 0.7385 0.996014 -116.6
9.08454219 0.997581 -46.81 0.022125 0.8563 0.022125 0.8563 0.996004 -116.6
9.08454525 0.997571 -46.83 0.022538 0.9663 0.022538 0.9663 0.995993 -116.7
9.08454823 0.997561 -46.85 0.022942 1.0691 0.022942 1.0691 0.995983 -116.7
9.08455115 0.997552 -46.87 0.023337 1.1653 0.023337 1.1653 0.995973 -116.7
9.08455400 0.997542 -46.88 0.023722 1.2555 0.023722 1.2555 0.995963 -116.8
9.08455678 0.997533 -46.90 0.024100 1.3401 0.024100 1.3401 0.995954 -116.8
9.08455950 0.997523 -46.91 0.024468 1.4197 0.024468 1.4197 0.995944 -116.8
9.08456216 0.997514 -46.93 0.024829 1.4944 0.024829 1.4944 0.995934 -116.9
9.08456476 0.997505 -46.95 0.025181 1.5649 0.025181 1.5649 0.995924 -116.9
9.08456730 0.997495 -46.96 0.025525 1.6313 0.025525 1.6313 0.995915 -116.9
9.08456978 0.997486 -46.98 0.025862 1.6939 0.025862 1.6939 0.995906 -116.9
9.08457220 0.997477 -46.99 0.026191 1.7531 0.026191 1.7531 0.995896 -117.0
9.08457457 0.997468 -47.00 0.026512 1.8090 0.026512 1.8090 0.995887 -117.0
9.08457688 0.997460 -47.02 0.026826 1.8619 0.026826 1.8619 0.995878 -117.0
9.08457914 0.997451 -47.03 0.027133 1.9120 0.027133 1.9120 0.995869 -117.0
9.08458135 0.997442 -47.05 0.027434 1.9595 0.027434 1.9595 0.995860 -117.1
9.08458351 0.997434 -47.06 0.027727 2.0045 0.027727 2.0045 0.995851 -117.1
9.08458562 0.997426 -47.07 0.028014 2.0472 0.028014 2.0472 0.995843 -117.1
9.08458768 0.997417 -47.08 0.028294 2.0878 0.028294 2.0878 0.995834 -117.1
9.08458969 0.997409 -47.09 0.028568 2.1264 0.028568 2.1264 0.995826 -117.1
9.08459166 0.997401 -47.11 0.028835 2.1631 0.028835 2.1631 0.995818 -117.2
9.08459358 0.997393 -47.12 0.029097 2.1980 0.029097 2.1980 0.995809 -117.2
9.08459546 0.997385 -47.13 0.029353 2.2313 0.029353 2.2313 0.995801 -117.2
9.08459729 0.997378 -47.14 0.029602 2.2630 0.029602 2.2630 0.995793 -117.2
9.08459908 0.997370 -47.15 0.029847 2.2932 0.029847 2.2932 0.995786 -117.2
9.08460084 0.997363 -47.16 0.030085 2.3220 0.030085 2.3220 0.995778 -117.3
9.08460255 0.997355 -47.17 0.030318 2.3495 0.030318 2.3495 0.995770 -117.3
9.08460422 0.997348 -47.18 0.030546 2.3758 0.030546 2.3758 0.995763 -117.3
9.08460585 0.997341 -47.19 0.030769 2.4009 0.030769 2.4009 0.995756 -117.3
9.08460745 0.997334 -47.20 0.030987 2.4249 0.030987 2.4249 0.995748 -117.3
9.08460901 0.997327 -47.21 0.031199 2.4478 0.031199 2.4478 0.995741 -117.3
9.08461053 0.997320 -47.22 0.031407 2.4698 0.031407 2.4698 0.995734 -117.4
9.08461202 0.997314 -47.23 0.031610 2.4908 0.031610 2.4908 0.995727 -117.4
9.08461348 0.997307 -47.24 0.031809 2.5110 0.031809 2.5110 0.995721 -117.4
9.08461490 0.997301 -47.25 0.032003 2.5303 0.032003 2.5303 0.995714 -117.4
9.08461629 0.997294 -47.25 0.032192 2.5487 0.032192 2.5487 0.995708 -117.4
9.08461765 0.997288 -47.26 0.032378 2.5665 0.032378 2.5665 0.995701 -117.4
9.08461897 0.997282 -47.27 0.032559 2.5835 0.032559 2.5835 0.995695 -117.4
9.08462027 0.997276 -47.28 0.032736 2.5998 0.032736 2.5998 0.995689 -117.5
9.08462154 0.997270 -47.29 0.032908 2.6155 0.032908 2.6155 0.995683 -117.5
9.08462277 0.997264 -47.29 0.033077 2.6305 0.033077 2.6305 0.995677 -117.5
9.08462398 0.997259 -47.30 0.033242 2.6450 0.033242 2.6450 0.995671 -117.5
9.08462516 0.997253 -47.31 0.033404 2.6589 0.033404 2.6589 0.995665 -117.5
9.08462632 0.997248 -47.31 0.033561 2.6723 0.033561 2.6723 0.995659 -117.5
9.08462744 0.997242 -47.32 0.033716 2.6851 0.033716 2.6851 0.995654 -117.5
9.08462855 0.997237 -47.33 0.033866 2.6975 0.033866 2.6975 0.995649 -117.5
9.08462962 0.997232 -47.33 0.034013 2.7094 0.034013 2.7094 0.995643 -117.5
9.08463067 0.997227 -47.34 0.034157 2.7208 0.034157 2.7208 0.995638 -117.6
9.08463170 0.997222 -47.35 0.034297 2.7319 0.034297 2.7319 0.995633 -117.6
9.08463271 0.997217 -47.35 0.034435 2.7425 0.034435 2.7425 0.995628 -117.6
9.08463369 0.997212 -47.36 0.034569 2.7527 0.034569 2.7527 0.995623 -117.6
9.08463465 0.997207 -47.36 0.034700 2.7626 0.034700 2.7626 0.995618 -117.6
9.08463558 0.997203 -47.37 0.034828 2.7721 0.034828 2.7721 0.995613 -117.6
9.08463650 0.997198 -47.37 0.034953 2.7813 0.034953 2.7813 0.995609 -117.6
9.08463739 0.997194 -47.38 0.035075 2.7902 0.035075 2.7902 0.995604 -117.6
9.08463827 0.997189 -47.39 0.035195 2.7987 0.035195 2.7987 0.995600 -117.6
9.08463912 0.997185 -47.39 0.035312 2.8069 0.035312 2.8069 0.995595 -117.6
9.08463995 0.997181 -47.40 0.035426 2.8149 0.035426 2.8149 0.995591 -117.7
9.08464077 0.997177 -47.40 0.035537 2.8226 0.035537 2.8226 0.995587 -117.7
9.08464157 0.997173 -47.41 0.035646 2.8300 0.035646 2.8300 0.995583 -117.7
9.08464234 0.997169 -47.41 0.035753 2.8372 0.035753 2.8372 0.995579 -117.7
9.08464310 0.997165 -47.41 0.035857 2.8441 0.035857 2.8441 0.995575 -117.7
9.08464385 0.997161 -47.42 0.035958 2.8508 0.035958 2.8508 0.995571 -117.7
9.08464457 0.997157 -47.42 0.036058 2.8573 0.036058 2.8573 0.995567 -117.7
9.08464528 0.997154 -47.43 0.036155 2.8635 0.036155 2.8635 0.995563 -117.7
9.08464598 0.997150 -47.43 0.036250 2.8696 0.036250 2.8696 0.995560 -117.7
9.08464665 0.997147 -47.44 0.036342 2.8755 0.036342 2.8755 0.995556 -117.7
9.08464731 0.997143 -47.44 0.036433 2.8811 0.036433 2.8811 0.995553 -117.7
9.08464796 0.997140 -47.44 0.036521 2.8866 0.036521 2.8866 0.995549 -117.7
9.08464859 0.997137 -47.45 0.036608 2.8919 0.036608 2.8919 0.995546 -117.7
9.08464921 0.997133 -47.45 0.036692 2.8971 0.036692 2.8971 0.995542 -117.8
9.08464981 0.997130 -47.45 0.036775 2.9020 0.036775 2.9020 0.995539 -117.8
9.08465040 0.997127 -47.46 0.036856 2.9069 0.036856 2.9069 0.995536 -117.8
9.08465098 0.997124 -47.46 0.036934 2.9115 0.036934 2.9115 0.995533 -117.8
9.08465154 0.997121 -47.47 0.037011 2.9161 0.037011 2.9161 0.995530 -117.8
9.08465209 0.997118 -47.47 0.037087 2.9204 0.037087 2.9204 0.995527 -117.8
9.08465263 0.997116 -47.47 0.037160 2.9247 0.037160 2.9247 0.995524 -117.8
9.08465315 0.997113 -47.47 0.037232 2.9288 0.037232 2.9288 0.995521 -117.8
9.08465366 0.997110 -47.48 0.037302 2.9328 0.037302 2.9328 0.995519 -117.8
9.08465416 0.997107 -47.48 0.037371 2.9367 0.037371 2.9367 0.995516 -117.8
9.08465465 0.997105 -47.48 0.037438 2.9404 0.037438 2.9404 0.995513 -117.8
9.08465513 0.997102 -47.49 0.037503 2.9441 0.037503 2.9441 0.995511 -117.8
9.08465560 0.997100 -47.49 0.037567 2.9476 0.037567 2.9476 0.995508 -117.8
9.08465606 0.997097 -47.49 0.037630 2.9510 0.037630 2.9510 0.995506 -117.8
9.08465650 0.997095 -47.49 0.037691 2.9544 0.037691 2.9544 0.995503 -117.8
9.08465694 0.997093 -47.50 0.037751 2.9576 0.037751 2.9576 0.995501 -117.8
9.08465736 0.997090 -47.50 0.037809 2.9607 0.037809 2.9607 0.995498 -117.8
9.08465778 0.997088 -47.50 0.037866 2.9638 0.037866 2.9638 0.995496 -117.8
9.08465819 0.997086 -47.50 0.037922 2.9667 0.037922 2.9667 0.995494 -117.8
9.08465858 0.997084 -47.51 0.037976 2.9696 0.037976 2.9696 0.995492 -117.8
9.08465897 0.997082 -47.51 0.038030 2.9724 0.038030 2.9724 0.995490 -117.9
9.08465935 0.997080 -47.51 0.038082 2.9751 0.038082 2.9751 0.995487 -117.9
9.08465972 0.997078 -47.51 0.038132 2.9777 0.038132 2.9777 0.995485 -117.9
9.08466008 0.997076 -47.52 0.038182 2.9803 0.038182 2.9803 0.995483 -117.9
9.08466044 0.997074 -47.52 0.038230 2.9828 0.038230 2.9828 0.995481 -117.9
9.08466078 0.997072 -47.52 0.038278 2.9852 0.038278 2.9852 0.995480 -117.9
9.08466112 0.997070 -47.52 0.038324 2.9875 0.038324 2.9875 0.995478 -117.9
9.08466145 0.997068 -47.52 0.038369 2.9898 0.038369 2.9898 0.995476 -117.9
9.08466177 0.997067 -47.53 0.038414 2.9920 0.038414 2.9920 0.995474 -117.9
9.08466209 0.997065 -47.53 0.038457 2.9942 0.038457 2.9942 0.995472 -117.9
9.08466240 0.997063 -47.53 0.038499 2.9963 0.038499 2.9963 0.995471 -117.9
9.08466270 0.997062 -47.53 0.038540 2.9983 0.038540 2.9983 0.995469 -117.9
9.08466299 0.997060 -47.53 0.038580 3.0003 0.038580 3.0003 0.995467 -117.9
9.08466328 0.997058 -47.54 0.038620 3.0022 0.038620 3.0022 0.995466 -117.9
9.08466356 0.997057 -47.54 0.038658 3.0041 0.038658 3.0041 0.995464 -117.9
9.08466383 0.997055 -47.54 0.038696 3.0059 0.038696 3.0059 0.995463 -117.9
9.08466410 0.997054 -47.54 0.038733 3.0077 0.038733 3.0077 0.995461 -117.9
9.08466436 0.997052 -47.54 0.038769 3.0094 0.038769 3.0094 0.995460 -117.9
9.08466462 0.997051 -47.54 0.038804 3.0111 0.038804 3.0111 0.995458 -117.9
9.08466487 0.997050 -47.55 0.038838 3.0127 0.038838 3.0127 0.995457 -117.9
9.08466511 0.997048 -47.55 0.038871 3.0143 0.038871 3.0143 0.995455 -117.9
9.08466535 0.997047 -47.55 0.038904 3.0159 0.038904 3.0159 0.995454 -117.9
9.08466559 0.997046 -47.55 0.038936 3.0174 0.038936 3.0174 0.995453 -117.9
9.08466581 0.997044 -47.55 0.038967 3.0188 0.038967 3.0188 0.995451 -117.9