! Sonnet Data File
! From: emgraph Version : 16.52
! From Project: Resonator2_cp
! Data is De-embedded 
! Data File Written: 10/06/2017 09:05:51
!< HDATE 10/05/2017 15:28:06
!< MDATE 10/05/2017 15:28:06
!< PARAMS
!< gap = 66.0
!< Length = 400.0
!< Pwid1 = 2000.0
!< Pwid2 = 2000.0
!< END PARAMS
# GHZ S MA R 35.97000
8.80000000 0.014596 4.0142 0.999890 -74.30 0.999890 -74.30 0.014597 27.408
!< P1 F=8.8 Eeff=(5.36817953 -2.3731e-5) Z0=(35.9853883 8.0522e-5) R=0.0 C=0.0 
!< P2 F=8.8 Eeff=(5.36817953 -2.3731e-5) Z0=(35.9853883 8.0522e-5) R=0.0 C=0.0 
8.80020000 0.014597 4.0059 0.999890 -74.30 0.999890 -74.30 0.014598 27.413
8.80040000 0.014598 3.9977 0.999890 -74.30 0.999890 -74.30 0.014599 27.417
8.80060000 0.014599 3.9894 0.999890 -74.30 0.999890 -74.30 0.014601 27.422
8.80080000 0.014601 3.9810 0.999890 -74.30 0.999890 -74.30 0.014602 27.427
8.80100000 0.014602 3.9727 0.999890 -74.31 0.999890 -74.31 0.014603 27.431
8.80120000 0.014603 3.9644 0.999890 -74.31 0.999890 -74.31 0.014604 27.436
8.80140000 0.014604 3.9560 0.999890 -74.31 0.999890 -74.31 0.014605 27.441
8.80160000 0.014606 3.9476 0.999890 -74.31 0.999890 -74.31 0.014607 27.445
8.80180000 0.014607 3.9392 0.999890 -74.31 0.999890 -74.31 0.014608 27.450
8.80200000 0.014608 3.9307 0.999890 -74.31 0.999890 -74.31 0.014609 27.455
8.80220000 0.014609 3.9223 0.999890 -74.32 0.999890 -74.32 0.014610 27.460
8.80240000 0.014611 3.9138 0.999890 -74.32 0.999890 -74.32 0.014612 27.464
8.80260000 0.014612 3.9053 0.999890 -74.32 0.999890 -74.32 0.014613 27.469
8.80280000 0.014613 3.8968 0.999890 -74.32 0.999890 -74.32 0.014614 27.474
8.80300000 0.014614 3.8883 0.999890 -74.32 0.999890 -74.32 0.014615 27.479
8.80320000 0.014616 3.8797 0.999890 -74.33 0.999890 -74.33 0.014617 27.484
8.80340000 0.014617 3.8711 0.999890 -74.33 0.999890 -74.33 0.014618 27.489
8.80360000 0.014618 3.8626 0.999890 -74.33 0.999890 -74.33 0.014619 27.494
8.80380000 0.014619 3.8539 0.999890 -74.33 0.999890 -74.33 0.014621 27.499
8.80400000 0.014621 3.8453 0.999890 -74.33 0.999890 -74.33 0.014622 27.504
8.80420000 0.014622 3.8367 0.999890 -74.33 0.999890 -74.33 0.014623 27.509
8.80440000 0.014623 3.8280 0.999890 -74.34 0.999890 -74.34 0.014624 27.514
8.80460000 0.014625 3.8193 0.999890 -74.34 0.999890 -74.34 0.014626 27.519
8.80480000 0.014626 3.8106 0.999890 -74.34 0.999890 -74.34 0.014627 27.524
8.80500000 0.014627 3.8018 0.999890 -74.34 0.999890 -74.34 0.014628 27.529
8.80520000 0.014628 3.7931 0.999890 -74.34 0.999890 -74.34 0.014630 27.534
8.80540000 0.014630 3.7843 0.999890 -74.35 0.999890 -74.35 0.014631 27.539
8.80560000 0.014631 3.7755 0.999890 -74.35 0.999890 -74.35 0.014632 27.544
8.80580000 0.014632 3.7666 0.999890 -74.35 0.999890 -74.35 0.014634 27.549
8.80600000 0.014634 3.7578 0.999890 -74.35 0.999890 -74.35 0.014635 27.554
8.80620000 0.014635 3.7489 0.999890 -74.35 0.999890 -74.35 0.014636 27.559
8.80640000 0.014636 3.7400 0.999890 -74.36 0.999890 -74.36 0.014638 27.565
8.80660000 0.014638 3.7311 0.999890 -74.36 0.999890 -74.36 0.014639 27.570
8.80680000 0.014639 3.7222 0.999890 -74.36 0.999890 -74.36 0.014640 27.575
8.80700000 0.014641 3.7132 0.999890 -74.36 0.999890 -74.36 0.014642 27.580
8.80720000 0.014642 3.7043 0.999890 -74.36 0.999890 -74.36 0.014643 27.586
8.80740000 0.014643 3.6953 0.999890 -74.36 0.999890 -74.36 0.014644 27.591
8.80760000 0.014645 3.6862 0.999890 -74.37 0.999890 -74.37 0.014646 27.596
8.80780000 0.014646 3.6772 0.999890 -74.37 0.999890 -74.37 0.014647 27.602
8.80800000 0.014647 3.6681 0.999890 -74.37 0.999890 -74.37 0.014649 27.607
8.80820000 0.014649 3.6590 0.999890 -74.37 0.999890 -74.37 0.014650 27.612
8.80840000 0.014650 3.6499 0.999890 -74.37 0.999890 -74.37 0.014651 27.618
8.80860000 0.014652 3.6408 0.999889 -74.38 0.999889 -74.38 0.014653 27.623
8.80880000 0.014653 3.6316 0.999889 -74.38 0.999889 -74.38 0.014654 27.629
8.80900000 0.014654 3.6224 0.999889 -74.38 0.999889 -74.38 0.014656 27.634
8.80920000 0.014656 3.6132 0.999889 -74.38 0.999889 -74.38 0.014657 27.640
8.80940000 0.014657 3.6040 0.999889 -74.38 0.999889 -74.38 0.014658 27.645
8.80960000 0.014659 3.5947 0.999889 -74.38 0.999889 -74.38 0.014660 27.651
8.80980000 0.014660 3.5855 0.999889 -74.39 0.999889 -74.39 0.014661 27.656
8.81000000 0.014661 3.5762 0.999889 -74.39 0.999889 -74.39 0.014663 27.662
8.81020000 0.014663 3.5668 0.999889 -74.39 0.999889 -74.39 0.014664 27.668
8.81040000 0.014664 3.5575 0.999889 -74.39 0.999889 -74.39 0.014666 27.673
8.81060000 0.014666 3.5481 0.999889 -74.39 0.999889 -74.39 0.014667 27.679
8.81080000 0.014667 3.5387 0.999889 -74.40 0.999889 -74.40 0.014668 27.685
8.81100000 0.014669 3.5293 0.999889 -74.40 0.999889 -74.40 0.014670 27.690
8.81120000 0.014670 3.5198 0.999889 -74.40 0.999889 -74.40 0.014671 27.696
8.81140000 0.014672 3.5104 0.999889 -74.40 0.999889 -74.40 0.014673 27.702
8.81160000 0.014673 3.5009 0.999889 -74.40 0.999889 -74.40 0.014674 27.708
8.81180000 0.014675 3.4913 0.999889 -74.40 0.999889 -74.40 0.014676 27.713
8.81200000 0.014676 3.4818 0.999889 -74.41 0.999889 -74.41 0.014677 27.719
8.81220000 0.014678 3.4722 0.999889 -74.41 0.999889 -74.41 0.014679 27.725
8.81240000 0.014679 3.4626 0.999889 -74.41 0.999889 -74.41 0.014680 27.731
8.81260000 0.014681 3.4530 0.999889 -74.41 0.999889 -74.41 0.014682 27.737
8.81280000 0.014682 3.4433 0.999889 -74.41 0.999889 -74.41 0.014683 27.743
8.81300000 0.014684 3.4337 0.999889 -74.42 0.999889 -74.42 0.014685 27.749
8.81320000 0.014685 3.4240 0.999889 -74.42 0.999889 -74.42 0.014686 27.755
8.81340000 0.014687 3.4142 0.999889 -74.42 0.999889 -74.42 0.014688 27.761
8.81360000 0.014688 3.4045 0.999889 -74.42 0.999889 -74.42 0.014689 27.767
8.81380000 0.014690 3.3947 0.999889 -74.42 0.999889 -74.42 0.014691 27.773
8.81400000 0.014691 3.3849 0.999889 -74.43 0.999889 -74.43 0.014692 27.779
8.81420000 0.014693 3.3751 0.999889 -74.43 0.999889 -74.43 0.014694 27.785
8.81440000 0.014694 3.3652 0.999889 -74.43 0.999889 -74.43 0.014696 27.791
8.81460000 0.014696 3.3553 0.999889 -74.43 0.999889 -74.43 0.014697 27.797
8.81480000 0.014697 3.3454 0.999889 -74.43 0.999889 -74.43 0.014699 27.804
8.81500000 0.014699 3.3355 0.999889 -74.43 0.999889 -74.43 0.014700 27.810
8.81520000 0.014701 3.3255 0.999889 -74.44 0.999889 -74.44 0.014702 27.816
8.81540000 0.014702 3.3155 0.999889 -74.44 0.999889 -74.44 0.014703 27.822
8.81560000 0.014704 3.3055 0.999889 -74.44 0.999889 -74.44 0.014705 27.829
8.81580000 0.014705 3.2954 0.999889 -74.44 0.999889 -74.44 0.014707 27.835
8.81600000 0.014707 3.2854 0.999889 -74.44 0.999889 -74.44 0.014708 27.841
8.81620000 0.014709 3.2753 0.999889 -74.45 0.999889 -74.45 0.014710 27.848
8.81640000 0.014710 3.2651 0.999889 -74.45 0.999889 -74.45 0.014711 27.854
8.81660000 0.014712 3.2550 0.999889 -74.45 0.999889 -74.45 0.014713 27.860
8.81680000 0.014714 3.2448 0.999888 -74.45 0.999888 -74.45 0.014715 27.867
8.81700000 0.014715 3.2345 0.999888 -74.45 0.999888 -74.45 0.014716 27.873
8.81720000 0.014717 3.2243 0.999888 -74.46 0.999888 -74.46 0.014718 27.880
8.81740000 0.014718 3.2140 0.999888 -74.46 0.999888 -74.46 0.014720 27.886
8.81760000 0.014720 3.2037 0.999888 -74.46 0.999888 -74.46 0.014721 27.893
8.81780000 0.014722 3.1934 0.999888 -74.46 0.999888 -74.46 0.014723 27.900
8.81800000 0.014723 3.1830 0.999888 -74.46 0.999888 -74.46 0.014725 27.906
8.81820000 0.014725 3.1726 0.999888 -74.46 0.999888 -74.46 0.014726 27.913
8.81840000 0.014727 3.1622 0.999888 -74.47 0.999888 -74.47 0.014728 27.919
8.81860000 0.014728 3.1517 0.999888 -74.47 0.999888 -74.47 0.014730 27.926
8.81880000 0.014730 3.1413 0.999888 -74.47 0.999888 -74.47 0.014731 27.933
8.81900000 0.014732 3.1307 0.999888 -74.47 0.999888 -74.47 0.014733 27.940
8.81920000 0.014734 3.1202 0.999888 -74.47 0.999888 -74.47 0.014735 27.946
8.81940000 0.014735 3.1096 0.999888 -74.48 0.999888 -74.48 0.014737 27.953
8.81960000 0.014737 3.0990 0.999888 -74.48 0.999888 -74.48 0.014738 27.960
8.81980000 0.014739 3.0884 0.999888 -74.48 0.999888 -74.48 0.014740 27.967
8.82000000 0.014741 3.0777 0.999888 -74.48 0.999888 -74.48 0.014742 27.974
8.82020000 0.014742 3.0670 0.999888 -74.48 0.999888 -74.48 0.014743 27.981
8.82040000 0.014744 3.0563 0.999888 -74.48 0.999888 -74.48 0.014745 27.988
8.82060000 0.014746 3.0455 0.999888 -74.49 0.999888 -74.49 0.014747 27.995
8.82080000 0.014748 3.0347 0.999888 -74.49 0.999888 -74.49 0.014749 28.002
8.82100000 0.014749 3.0239 0.999888 -74.49 0.999888 -74.49 0.014751 28.009
8.82120000 0.014751 3.0131 0.999888 -74.49 0.999888 -74.49 0.014752 28.016
8.82140000 0.014753 3.0022 0.999888 -74.49 0.999888 -74.49 0.014754 28.023
8.82160000 0.014755 2.9912 0.999888 -74.50 0.999888 -74.50 0.014756 28.030
8.82180000 0.014756 2.9803 0.999888 -74.50 0.999888 -74.50 0.014758 28.038
8.82200000 0.014758 2.9693 0.999888 -74.50 0.999888 -74.50 0.014760 28.045
8.82220000 0.014760 2.9583 0.999888 -74.50 0.999888 -74.50 0.014761 28.052
8.82240000 0.014762 2.9472 0.999888 -74.50 0.999888 -74.50 0.014763 28.059
8.82260000 0.014764 2.9361 0.999888 -74.51 0.999888 -74.51 0.014765 28.067
8.82280000 0.014766 2.9250 0.999888 -74.51 0.999888 -74.51 0.014767 28.074
8.82300000 0.014767 2.9139 0.999888 -74.51 0.999888 -74.51 0.014769 28.081
8.82320000 0.014769 2.9027 0.999888 -74.51 0.999888 -74.51 0.014771 28.089
8.82340000 0.014771 2.8915 0.999888 -74.51 0.999888 -74.51 0.014772 28.096
8.82360000 0.014773 2.8802 0.999888 -74.52 0.999888 -74.52 0.014774 28.104
8.82380000 0.014775 2.8689 0.999888 -74.52 0.999888 -74.52 0.014776 28.111
8.82400000 0.014777 2.8576 0.999887 -74.52 0.999887 -74.52 0.014778 28.119
8.82420000 0.014779 2.8462 0.999887 -74.52 0.999887 -74.52 0.014780 28.126
8.82440000 0.014781 2.8348 0.999887 -74.52 0.999887 -74.52 0.014782 28.134
8.82460000 0.014783 2.8234 0.999887 -74.52 0.999887 -74.52 0.014784 28.142
8.82480000 0.014784 2.8119 0.999887 -74.53 0.999887 -74.53 0.014786 28.149
8.82500000 0.014786 2.8004 0.999887 -74.53 0.999887 -74.53 0.014788 28.157
8.82520000 0.014788 2.7889 0.999887 -74.53 0.999887 -74.53 0.014790 28.165
8.82540000 0.014790 2.7773 0.999887 -74.53 0.999887 -74.53 0.014792 28.172
8.82560000 0.014792 2.7657 0.999887 -74.53 0.999887 -74.53 0.014794 28.180
8.82580000 0.014794 2.7541 0.999887 -74.54 0.999887 -74.54 0.014795 28.188
8.82600000 0.014796 2.7424 0.999887 -74.54 0.999887 -74.54 0.014797 28.196
8.82620000 0.014798 2.7307 0.999887 -74.54 0.999887 -74.54 0.014799 28.204
8.82640000 0.014800 2.7189 0.999887 -74.54 0.999887 -74.54 0.014801 28.212
8.82660000 0.014802 2.7071 0.999887 -74.54 0.999887 -74.54 0.014803 28.220
8.82680000 0.014804 2.6953 0.999887 -74.55 0.999887 -74.55 0.014805 28.228
8.82700000 0.014806 2.6834 0.999887 -74.55 0.999887 -74.55 0.014807 28.236
8.82720000 0.014808 2.6715 0.999887 -74.55 0.999887 -74.55 0.014809 28.244
8.82740000 0.014810 2.6596 0.999887 -74.55 0.999887 -74.55 0.014812 28.252
8.82760000 0.014812 2.6476 0.999887 -74.55 0.999887 -74.55 0.014814 28.260
8.82780000 0.014814 2.6356 0.999887 -74.55 0.999887 -74.55 0.014816 28.269
8.82800000 0.014816 2.6235 0.999887 -74.56 0.999887 -74.56 0.014818 28.277
8.82820000 0.014818 2.6114 0.999887 -74.56 0.999887 -74.56 0.014820 28.285
8.82840000 0.014821 2.5993 0.999887 -74.56 0.999887 -74.56 0.014822 28.293
8.82860000 0.014823 2.5871 0.999887 -74.56 0.999887 -74.56 0.014824 28.302
8.82880000 0.014825 2.5749 0.999887 -74.56 0.999887 -74.56 0.014826 28.310
8.82900000 0.014827 2.5626 0.999887 -74.57 0.999887 -74.57 0.014828 28.319
8.82920000 0.014829 2.5503 0.999887 -74.57 0.999887 -74.57 0.014830 28.327
8.82940000 0.014831 2.5380 0.999887 -74.57 0.999887 -74.57 0.014832 28.336
8.82960000 0.014833 2.5256 0.999887 -74.57 0.999887 -74.57 0.014835 28.344
8.82980000 0.014835 2.5132 0.999887 -74.57 0.999887 -74.57 0.014837 28.353
8.83000000 0.014837 2.5007 0.999887 -74.58 0.999887 -74.58 0.014839 28.361
8.83020000 0.014840 2.4882 0.999886 -74.58 0.999886 -74.58 0.014841 28.370
8.83040000 0.014842 2.4757 0.999886 -74.58 0.999886 -74.58 0.014843 28.379
8.83060000 0.014844 2.4631 0.999886 -74.58 0.999886 -74.58 0.014845 28.387
8.83080000 0.014846 2.4505 0.999886 -74.58 0.999886 -74.58 0.014848 28.396
8.83100000 0.014848 2.4378 0.999886 -74.59 0.999886 -74.59 0.014850 28.405
8.83120000 0.014851 2.4251 0.999886 -74.59 0.999886 -74.59 0.014852 28.414
8.83140000 0.014853 2.4123 0.999886 -74.59 0.999886 -74.59 0.014854 28.423
8.83160000 0.014855 2.3995 0.999886 -74.59 0.999886 -74.59 0.014856 28.432
8.83180000 0.014857 2.3867 0.999886 -74.59 0.999886 -74.59 0.014859 28.441
8.83200000 0.014860 2.3738 0.999886 -74.59 0.999886 -74.59 0.014861 28.450
8.83220000 0.014862 2.3609 0.999886 -74.60 0.999886 -74.60 0.014863 28.459
8.83240000 0.014864 2.3479 0.999886 -74.60 0.999886 -74.60 0.014865 28.468
8.83260000 0.014866 2.3349 0.999886 -74.60 0.999886 -74.60 0.014868 28.477
8.83280000 0.014869 2.3218 0.999886 -74.60 0.999886 -74.60 0.014870 28.486
8.83300000 0.014871 2.3087 0.999886 -74.60 0.999886 -74.60 0.014872 28.496
8.83320000 0.014873 2.2955 0.999886 -74.61 0.999886 -74.61 0.014875 28.505
8.83340000 0.014876 2.2823 0.999886 -74.61 0.999886 -74.61 0.014877 28.514
8.83360000 0.014878 2.2691 0.999886 -74.61 0.999886 -74.61 0.014879 28.524
8.83380000 0.014880 2.2558 0.999886 -74.61 0.999886 -74.61 0.014882 28.533
8.83400000 0.014883 2.2424 0.999886 -74.61 0.999886 -74.61 0.014884 28.543
8.83420000 0.014885 2.2290 0.999886 -74.62 0.999886 -74.62 0.014886 28.552
8.83440000 0.014887 2.2156 0.999886 -74.62 0.999886 -74.62 0.014889 28.562
8.83460000 0.014890 2.2021 0.999886 -74.62 0.999886 -74.62 0.014891 28.571
8.83480000 0.014892 2.1886 0.999886 -74.62 0.999886 -74.62 0.014894 28.581
8.83500000 0.014895 2.1750 0.999886 -74.62 0.999886 -74.62 0.014896 28.591
8.83520000 0.014897 2.1614 0.999886 -74.63 0.999886 -74.63 0.014899 28.600
8.83540000 0.014900 2.1477 0.999886 -74.63 0.999886 -74.63 0.014901 28.610
8.83560000 0.014902 2.1340 0.999886 -74.63 0.999886 -74.63 0.014903 28.620
8.83580000 0.014904 2.1202 0.999885 -74.63 0.999885 -74.63 0.014906 28.630
8.83600000 0.014907 2.1064 0.999885 -74.63 0.999885 -74.63 0.014908 28.640
8.83620000 0.014909 2.0925 0.999885 -74.64 0.999885 -74.64 0.014911 28.650
8.83640000 0.014912 2.0786 0.999885 -74.64 0.999885 -74.64 0.014913 28.660
8.83660000 0.014914 2.0646 0.999885 -74.64 0.999885 -74.64 0.014916 28.670
8.83680000 0.014917 2.0506 0.999885 -74.64 0.999885 -74.64 0.014918 28.680
8.83700000 0.014920 2.0365 0.999885 -74.64 0.999885 -74.64 0.014921 28.690
8.83720000 0.014922 2.0224 0.999885 -74.65 0.999885 -74.65 0.014924 28.701
8.83740000 0.014925 2.0082 0.999885 -74.65 0.999885 -74.65 0.014926 28.711
8.83760000 0.014927 1.9940 0.999885 -74.65 0.999885 -74.65 0.014929 28.721
8.83780000 0.014930 1.9797 0.999885 -74.65 0.999885 -74.65 0.014931 28.732
8.83800000 0.014932 1.9654 0.999885 -74.65 0.999885 -74.65 0.014934 28.742
8.83820000 0.014935 1.9510 0.999885 -74.65 0.999885 -74.65 0.014937 28.752
8.83840000 0.014938 1.9365 0.999885 -74.66 0.999885 -74.66 0.014939 28.763
8.83860000 0.014940 1.9220 0.999885 -74.66 0.999885 -74.66 0.014942 28.774
8.83880000 0.014943 1.9075 0.999885 -74.66 0.999885 -74.66 0.014944 28.784
8.83900000 0.014946 1.8929 0.999885 -74.66 0.999885 -74.66 0.014947 28.795
8.83920000 0.014948 1.8782 0.999885 -74.66 0.999885 -74.66 0.014950 28.806
8.83940000 0.014951 1.8635 0.999885 -74.67 0.999885 -74.67 0.014952 28.816
8.83960000 0.014954 1.8487 0.999885 -74.67 0.999885 -74.67 0.014955 28.827
8.83980000 0.014956 1.8339 0.999885 -74.67 0.999885 -74.67 0.014958 28.838
8.84000000 0.014959 1.8190 0.999885 -74.67 0.999885 -74.67 0.014961 28.849
8.84020000 0.014962 1.8041 0.999885 -74.67 0.999885 -74.67 0.014963 28.860
8.84040000 0.014965 1.7891 0.999885 -74.68 0.999885 -74.68 0.014966 28.871
8.84060000 0.014967 1.7740 0.999884 -74.68 0.999884 -74.68 0.014969 28.882
8.84080000 0.014970 1.7589 0.999884 -74.68 0.999884 -74.68 0.014972 28.893
8.84100000 0.014973 1.7437 0.999884 -74.68 0.999884 -74.68 0.014975 28.905
8.84120000 0.014976 1.7285 0.999884 -74.68 0.999884 -74.68 0.014977 28.916
8.84140000 0.014979 1.7132 0.999884 -74.69 0.999884 -74.69 0.014980 28.927
8.84160000 0.014982 1.6978 0.999884 -74.69 0.999884 -74.69 0.014983 28.939
8.84180000 0.014984 1.6824 0.999884 -74.69 0.999884 -74.69 0.014986 28.950
8.84200000 0.014987 1.6670 0.999884 -74.69 0.999884 -74.69 0.014989 28.962
8.84220000 0.014990 1.6514 0.999884 -74.69 0.999884 -74.69 0.014992 28.973
8.84240000 0.014993 1.6358 0.999884 -74.70 0.999884 -74.70 0.014995 28.985
8.84260000 0.014996 1.6202 0.999884 -74.70 0.999884 -74.70 0.014998 28.997
8.84280000 0.014999 1.6045 0.999884 -74.70 0.999884 -74.70 0.015001 29.008
8.84300000 0.015002 1.5887 0.999884 -74.70 0.999884 -74.70 0.015004 29.020
8.84320000 0.015005 1.5728 0.999884 -74.70 0.999884 -74.70 0.015006 29.032
8.84340000 0.015008 1.5569 0.999884 -74.71 0.999884 -74.71 0.015009 29.044
8.84360000 0.015011 1.5410 0.999884 -74.71 0.999884 -74.71 0.015012 29.056
8.84380000 0.015014 1.5249 0.999884 -74.71 0.999884 -74.71 0.015016 29.068
8.84400000 0.015017 1.5088 0.999884 -74.71 0.999884 -74.71 0.015019 29.080
8.84420000 0.015020 1.4927 0.999884 -74.71 0.999884 -74.71 0.015022 29.092
8.84440000 0.015023 1.4764 0.999884 -74.72 0.999884 -74.72 0.015025 29.105
8.84460000 0.015026 1.4601 0.999884 -74.72 0.999884 -74.72 0.015028 29.117
8.84480000 0.015029 1.4438 0.999883 -74.72 0.999883 -74.72 0.015031 29.129
8.84500000 0.015032 1.4273 0.999883 -74.72 0.999883 -74.72 0.015034 29.142
8.84520000 0.015036 1.4109 0.999883 -74.72 0.999883 -74.72 0.015037 29.154
8.84540000 0.015039 1.3943 0.999883 -74.73 0.999883 -74.73 0.015040 29.167
8.84560000 0.015042 1.3777 0.999883 -74.73 0.999883 -74.73 0.015043 29.179
8.84580000 0.015045 1.3610 0.999883 -74.73 0.999883 -74.73 0.015047 29.192
8.84600000 0.015048 1.3442 0.999883 -74.73 0.999883 -74.73 0.015050 29.205
8.84620000 0.015051 1.3273 0.999883 -74.73 0.999883 -74.73 0.015053 29.218
8.84640000 0.015055 1.3104 0.999883 -74.74 0.999883 -74.74 0.015056 29.230
8.84660000 0.015058 1.2934 0.999883 -74.74 0.999883 -74.74 0.015060 29.243
8.84680000 0.015061 1.2764 0.999883 -74.74 0.999883 -74.74 0.015063 29.256
8.84700000 0.015065 1.2593 0.999883 -74.74 0.999883 -74.74 0.015066 29.270
8.84720000 0.015068 1.2421 0.999883 -74.74 0.999883 -74.74 0.015070 29.283
8.84740000 0.015071 1.2248 0.999883 -74.75 0.999883 -74.75 0.015073 29.296
8.84760000 0.015075 1.2074 0.999883 -74.75 0.999883 -74.75 0.015076 29.309
8.84780000 0.015078 1.1900 0.999883 -74.75 0.999883 -74.75 0.015080 29.323
8.84800000 0.015081 1.1725 0.999883 -74.75 0.999883 -74.75 0.015083 29.336
8.84820000 0.015085 1.1550 0.999883 -74.75 0.999883 -74.75 0.015086 29.350
8.84840000 0.015088 1.1373 0.999883 -74.76 0.999883 -74.76 0.015090 29.363
8.84860000 0.015092 1.1196 0.999883 -74.76 0.999883 -74.76 0.015093 29.377
8.84880000 0.015095 1.1018 0.999882 -74.76 0.999882 -74.76 0.015097 29.391
8.84900000 0.015099 1.0839 0.999882 -74.76 0.999882 -74.76 0.015100 29.404
8.84920000 0.015102 1.0660 0.999882 -74.76 0.999882 -74.76 0.015104 29.418
8.84940000 0.015106 1.0479 0.999882 -74.77 0.999882 -74.77 0.015107 29.432
8.84960000 0.015109 1.0298 0.999882 -74.77 0.999882 -74.77 0.015111 29.446
8.84980000 0.015113 1.0116 0.999882 -74.77 0.999882 -74.77 0.015114 29.460
8.85000000 0.015116 0.9934 0.999882 -74.77 0.999882 -74.77 0.015118 29.475
8.85020000 0.015120 0.9750 0.999882 -74.77 0.999882 -74.77 0.015122 29.489
8.85040000 0.015123 0.9566 0.999882 -74.78 0.999882 -74.78 0.015125 29.503
8.85060000 0.015127 0.9381 0.999882 -74.78 0.999882 -74.78 0.015129 29.518
8.85080000 0.015131 0.9195 0.999882 -74.78 0.999882 -74.78 0.015133 29.532
8.85100000 0.015135 0.9008 0.999882 -74.78 0.999882 -74.78 0.015136 29.547
8.85120000 0.015138 0.8820 0.999882 -74.78 0.999882 -74.78 0.015140 29.561
8.85140000 0.015142 0.8632 0.999882 -74.79 0.999882 -74.79 0.015144 29.576
8.85160000 0.015146 0.8442 0.999882 -74.79 0.999882 -74.79 0.015148 29.591
8.85180000 0.015150 0.8252 0.999882 -74.79 0.999882 -74.79 0.015151 29.606
8.85200000 0.015153 0.8061 0.999882 -74.79 0.999882 -74.79 0.015155 29.621
8.85220000 0.015157 0.7869 0.999881 -74.79 0.999881 -74.79 0.015159 29.636
8.85240000 0.015161 0.7676 0.999881 -74.80 0.999881 -74.80 0.015163 29.651
8.85260000 0.015165 0.7483 0.999881 -74.80 0.999881 -74.80 0.015167 29.666
8.85280000 0.015169 0.7288 0.999881 -74.80 0.999881 -74.80 0.015171 29.682
8.85300000 0.015173 0.7093 0.999881 -74.80 0.999881 -74.80 0.015175 29.697
8.85320000 0.015177 0.6896 0.999881 -74.80 0.999881 -74.80 0.015178 29.713
8.85340000 0.015181 0.6699 0.999881 -74.81 0.999881 -74.81 0.015182 29.728
8.85360000 0.015185 0.6501 0.999881 -74.81 0.999881 -74.81 0.015186 29.744
8.85380000 0.015189 0.6301 0.999881 -74.81 0.999881 -74.81 0.015190 29.760
8.85400000 0.015193 0.6101 0.999881 -74.81 0.999881 -74.81 0.015195 29.775
8.85420000 0.015197 0.5900 0.999881 -74.82 0.999881 -74.82 0.015199 29.791
8.85440000 0.015201 0.5698 0.999881 -74.82 0.999881 -74.82 0.015203 29.807
8.85460000 0.015205 0.5495 0.999881 -74.82 0.999881 -74.82 0.015207 29.824
8.85480000 0.015209 0.5291 0.999881 -74.82 0.999881 -74.82 0.015211 29.840
8.85500000 0.015213 0.5087 0.999881 -74.82 0.999881 -74.82 0.015215 29.856
8.85520000 0.015217 0.4881 0.999880 -74.83 0.999880 -74.83 0.015219 29.872
8.85540000 0.015222 0.4674 0.999880 -74.83 0.999880 -74.83 0.015224 29.889
8.85560000 0.015226 0.4466 0.999880 -74.83 0.999880 -74.83 0.015228 29.906
8.85580000 0.015230 0.4257 0.999880 -74.83 0.999880 -74.83 0.015232 29.922
8.85600000 0.015234 0.4047 0.999880 -74.83 0.999880 -74.83 0.015236 29.939
8.85620000 0.015239 0.3836 0.999880 -74.84 0.999880 -74.84 0.015241 29.956
8.85640000 0.015243 0.3624 0.999880 -74.84 0.999880 -74.84 0.015245 29.973
8.85660000 0.015248 0.3411 0.999880 -74.84 0.999880 -74.84 0.015250 29.990
8.85680000 0.015252 0.3197 0.999880 -74.84 0.999880 -74.84 0.015254 30.007
8.85700000 0.015256 0.2982 0.999880 -74.84 0.999880 -74.84 0.015258 30.024
8.85720000 0.015261 0.2766 0.999880 -74.85 0.999880 -74.85 0.015263 30.042
8.85740000 0.015265 0.2549 0.999880 -74.85 0.999880 -74.85 0.015267 30.059
8.85760000 0.015270 0.2331 0.999880 -74.85 0.999880 -74.85 0.015272 30.077
8.85780000 0.015274 0.2111 0.999880 -74.85 0.999880 -74.85 0.015276 30.095
8.85800000 0.015279 0.1891 0.999879 -74.85 0.999879 -74.85 0.015281 30.112
8.85820000 0.015284 0.1669 0.999879 -74.86 0.999879 -74.86 0.015286 30.130
8.85840000 0.015288 0.1447 0.999879 -74.86 0.999879 -74.86 0.015290 30.148
8.85860000 0.015293 0.1223 0.999879 -74.86 0.999879 -74.86 0.015295 30.166
8.85880000 0.015298 0.0998 0.999879 -74.86 0.999879 -74.86 0.015300 30.185
8.85900000 0.015302 0.0772 0.999879 -74.87 0.999879 -74.87 0.015304 30.203
8.85920000 0.015307 0.0545 0.999879 -74.87 0.999879 -74.87 0.015309 30.221
8.85940000 0.015312 0.0316 0.999879 -74.87 0.999879 -74.87 0.015314 30.240
8.85960000 0.015317 0.0087 0.999879 -74.87 0.999879 -74.87 0.015319 30.259
8.85980000 0.015322 -0.014 0.999879 -74.87 0.999879 -74.87 0.015324 30.277
8.86000000 0.015327 -0.038 0.999879 -74.88 0.999879 -74.88 0.015329 30.296
8.86020000 0.015332 -0.061 0.999879 -74.88 0.999879 -74.88 0.015334 30.315
8.86040000 0.015337 -0.084 0.999879 -74.88 0.999879 -74.88 0.015339 30.334
8.86060000 0.015342 -0.108 0.999878 -74.88 0.999878 -74.88 0.015344 30.354
8.86080000 0.015347 -0.132 0.999878 -74.88 0.999878 -74.88 0.015349 30.373
8.86100000 0.015352 -0.155 0.999878 -74.89 0.999878 -74.89 0.015354 30.392
8.86120000 0.015357 -0.179 0.999878 -74.89 0.999878 -74.89 0.015359 30.412
8.86140000 0.015362 -0.203 0.999878 -74.89 0.999878 -74.89 0.015364 30.432
8.86160000 0.015367 -0.228 0.999878 -74.89 0.999878 -74.89 0.015369 30.452
8.86180000 0.015372 -0.252 0.999878 -74.90 0.999878 -74.90 0.015374 30.472
8.86200000 0.015377 -0.276 0.999878 -74.90 0.999878 -74.90 0.015380 30.492
8.86220000 0.015383 -0.301 0.999878 -74.90 0.999878 -74.90 0.015385 30.512
8.86240000 0.015388 -0.326 0.999878 -74.90 0.999878 -74.90 0.015390 30.532
8.86260000 0.015393 -0.351 0.999878 -74.90 0.999878 -74.90 0.015396 30.553
8.86280000 0.015399 -0.375 0.999878 -74.91 0.999878 -74.91 0.015401 30.573
8.86300000 0.015404 -0.401 0.999877 -74.91 0.999877 -74.91 0.015407 30.594
8.86320000 0.015410 -0.426 0.999877 -74.91 0.999877 -74.91 0.015412 30.615
8.86340000 0.015415 -0.451 0.999877 -74.91 0.999877 -74.91 0.015418 30.636
8.86360000 0.015421 -0.477 0.999877 -74.92 0.999877 -74.92 0.015423 30.657
8.86380000 0.015426 -0.502 0.999877 -74.92 0.999877 -74.92 0.015429 30.678
8.86400000 0.015432 -0.528 0.999877 -74.92 0.999877 -74.92 0.015434 30.700
8.86420000 0.015438 -0.554 0.999877 -74.92 0.999877 -74.92 0.015440 30.721
8.86440000 0.015443 -0.580 0.999877 -74.92 0.999877 -74.92 0.015446 30.743
8.86460000 0.015449 -0.607 0.999877 -74.93 0.999877 -74.93 0.015452 30.765
8.86480000 0.015455 -0.633 0.999877 -74.93 0.999877 -74.93 0.015457 30.787
8.86500000 0.015461 -0.660 0.999877 -74.93 0.999877 -74.93 0.015463 30.809
8.86520000 0.015467 -0.686 0.999876 -74.93 0.999876 -74.93 0.015469 30.831
8.86540000 0.015473 -0.713 0.999876 -74.94 0.999876 -74.94 0.015475 30.853
8.86560000 0.015479 -0.740 0.999876 -74.94 0.999876 -74.94 0.015481 30.876
8.86580000 0.015485 -0.767 0.999876 -74.94 0.999876 -74.94 0.015487 30.898
8.86600000 0.015491 -0.795 0.999876 -74.94 0.999876 -74.94 0.015493 30.921
8.86620000 0.015497 -0.822 0.999876 -74.94 0.999876 -74.94 0.015499 30.944
8.86640000 0.015503 -0.850 0.999876 -74.95 0.999876 -74.95 0.015505 30.967
8.86660000 0.015509 -0.877 0.999876 -74.95 0.999876 -74.95 0.015512 30.991
8.86680000 0.015515 -0.905 0.999876 -74.95 0.999876 -74.95 0.015518 31.014
8.86700000 0.015522 -0.933 0.999876 -74.95 0.999876 -74.95 0.015524 31.037
8.86720000 0.015528 -0.962 0.999875 -74.96 0.999875 -74.96 0.015531 31.061
8.86740000 0.015534 -0.990 0.999875 -74.96 0.999875 -74.96 0.015537 31.085
8.86760000 0.015541 -1.019 0.999875 -74.96 0.999875 -74.96 0.015543 31.109
8.86780000 0.015547 -1.048 0.999875 -74.96 0.999875 -74.96 0.015550 31.133
8.86800000 0.015554 -1.077 0.999875 -74.96 0.999875 -74.96 0.015556 31.158
8.86820000 0.015561 -1.106 0.999875 -74.97 0.999875 -74.97 0.015563 31.182
8.86840000 0.015567 -1.135 0.999875 -74.97 0.999875 -74.97 0.015570 31.207
8.86860000 0.015574 -1.164 0.999875 -74.97 0.999875 -74.97 0.015576 31.232
8.86880000 0.015581 -1.194 0.999875 -74.97 0.999875 -74.97 0.015583 31.257
8.86900000 0.015587 -1.224 0.999874 -74.98 0.999874 -74.98 0.015590 31.282
8.86920000 0.015594 -1.254 0.999874 -74.98 0.999874 -74.98 0.015597 31.307
8.86940000 0.015601 -1.284 0.999874 -74.98 0.999874 -74.98 0.015604 31.333
8.86960000 0.015608 -1.315 0.999874 -74.98 0.999874 -74.98 0.015611 31.359
8.86980000 0.015615 -1.345 0.999874 -74.98 0.999874 -74.98 0.015618 31.385
8.87000000 0.015622 -1.376 0.999874 -74.99 0.999874 -74.99 0.015625 31.411
8.87020000 0.015629 -1.407 0.999874 -74.99 0.999874 -74.99 0.015632 31.437
8.87040000 0.015637 -1.438 0.999874 -74.99 0.999874 -74.99 0.015639 31.463
8.87060000 0.015644 -1.469 0.999873 -74.99 0.999873 -74.99 0.015646 31.490
8.87080000 0.015651 -1.501 0.999873 -75.00 0.999873 -75.00 0.015654 31.517
8.87100000 0.015658 -1.532 0.999873 -75.00 0.999873 -75.00 0.015661 31.544
8.87120000 0.015666 -1.564 0.999873 -75.00 0.999873 -75.00 0.015669 31.571
8.87140000 0.015673 -1.597 0.999873 -75.00 0.999873 -75.00 0.015676 31.598
8.87160000 0.015681 -1.629 0.999873 -75.01 0.999873 -75.01 0.015684 31.626
8.87180000 0.015689 -1.661 0.999873 -75.01 0.999873 -75.01 0.015691 31.654
8.87200000 0.015696 -1.694 0.999873 -75.01 0.999873 -75.01 0.015699 31.682
8.87220000 0.015704 -1.727 0.999872 -75.01 0.999872 -75.01 0.015707 31.710
8.87240000 0.015712 -1.760 0.999872 -75.02 0.999872 -75.02 0.015715 31.738
8.87260000 0.015720 -1.794 0.999872 -75.02 0.999872 -75.02 0.015723 31.767
8.87280000 0.015728 -1.827 0.999872 -75.02 0.999872 -75.02 0.015730 31.796
8.87300000 0.015736 -1.861 0.999872 -75.02 0.999872 -75.02 0.015739 31.825
8.87320000 0.015744 -1.895 0.999872 -75.02 0.999872 -75.02 0.015747 31.854
8.87340000 0.015752 -1.929 0.999872 -75.03 0.999872 -75.03 0.015755 31.883
8.87360000 0.015760 -1.964 0.999872 -75.03 0.999872 -75.03 0.015763 31.913
8.87380000 0.015768 -1.999 0.999871 -75.03 0.999871 -75.03 0.015771 31.943
8.87400000 0.015777 -2.034 0.999871 -75.03 0.999871 -75.03 0.015780 31.973
8.87420000 0.015785 -2.069 0.999871 -75.04 0.999871 -75.04 0.015788 32.003
8.87440000 0.015794 -2.104 0.999871 -75.04 0.999871 -75.04 0.015797 32.034
8.87460000 0.015802 -2.140 0.999871 -75.04 0.999871 -75.04 0.015805 32.064
8.87480000 0.015811 -2.176 0.999871 -75.04 0.999871 -75.04 0.015814 32.095
8.87500000 0.015820 -2.212 0.999871 -75.05 0.999871 -75.05 0.015823 32.127
8.87520000 0.015829 -2.248 0.999870 -75.05 0.999870 -75.05 0.015832 32.158
8.87540000 0.015837 -2.285 0.999870 -75.05 0.999870 -75.05 0.015841 32.190
8.87560000 0.015846 -2.322 0.999870 -75.05 0.999870 -75.05 0.015850 32.222
8.87580000 0.015855 -2.359 0.999870 -75.06 0.999870 -75.06 0.015859 32.254
8.87600000 0.015865 -2.396 0.999870 -75.06 0.999870 -75.06 0.015868 32.286
8.87620000 0.015874 -2.434 0.999870 -75.06 0.999870 -75.06 0.015877 32.319
8.87640000 0.015883 -2.472 0.999869 -75.06 0.999869 -75.06 0.015886 32.352
8.87660000 0.015893 -2.510 0.999869 -75.07 0.999869 -75.07 0.015896 32.385
8.87680000 0.015902 -2.549 0.999869 -75.07 0.999869 -75.07 0.015905 32.418
8.87700000 0.015912 -2.587 0.999869 -75.07 0.999869 -75.07 0.015915 32.452
8.87720000 0.015921 -2.626 0.999869 -75.07 0.999869 -75.07 0.015925 32.486
8.87740000 0.015931 -2.666 0.999869 -75.08 0.999869 -75.08 0.015934 32.520
8.87760000 0.015941 -2.705 0.999868 -75.08 0.999868 -75.08 0.015944 32.554
8.87780000 0.015951 -2.745 0.999868 -75.08 0.999868 -75.08 0.015954 32.589
8.87800000 0.015961 -2.785 0.999868 -75.08 0.999868 -75.08 0.015964 32.624
8.87820000 0.015971 -2.826 0.999868 -75.09 0.999868 -75.09 0.015974 32.659
8.87840000 0.015981 -2.866 0.999868 -75.09 0.999868 -75.09 0.015985 32.695