! Sonnet Data File
! From: emgraph Version : 16.52
! From Project: Resonator2_cp
! Data is De-embedded 
! Data File Written: 10/06/2017 13:30:08
!< HDATE 10/06/2017 09:06:26
!< MDATE 10/06/2017 09:06:26
!< PARAMS
!< gap = 76.0
!< Length = 400.0
!< Pwid1 = 2000.0
!< Pwid2 = 2000.0
!< END PARAMS
# GHZ S MA R 35.97000
8.80000000 0.013348 4.3375 0.999908 -74.22 0.999908 -74.22 0.013349 27.230
!< P1 F=8.8 Eeff=(5.36817953 -2.3731e-5) Z0=(35.9853883 8.0522e-5) R=0.0 C=0.0 
!< P2 F=8.8 Eeff=(5.36817953 -2.3731e-5) Z0=(35.9853883 8.0522e-5) R=0.0 C=0.0 
8.80020000 0.013349 4.3294 0.999908 -74.23 0.999908 -74.23 0.013350 27.235
8.80040000 0.013350 4.3212 0.999908 -74.23 0.999908 -74.23 0.013351 27.239
8.80060000 0.013351 4.3130 0.999908 -74.23 0.999908 -74.23 0.013352 27.244
8.80080000 0.013352 4.3049 0.999908 -74.23 0.999908 -74.23 0.013353 27.248
8.80100000 0.013353 4.2966 0.999908 -74.23 0.999908 -74.23 0.013354 27.253
8.80120000 0.013354 4.2884 0.999908 -74.24 0.999908 -74.24 0.013355 27.258
8.80140000 0.013355 4.2802 0.999908 -74.24 0.999908 -74.24 0.013356 27.262
8.80160000 0.013356 4.2719 0.999908 -74.24 0.999908 -74.24 0.013357 27.267
8.80180000 0.013357 4.2636 0.999908 -74.24 0.999908 -74.24 0.013358 27.272
8.80200000 0.013357 4.2553 0.999908 -74.24 0.999908 -74.24 0.013359 27.276
8.80220000 0.013358 4.2470 0.999908 -74.24 0.999908 -74.24 0.013360 27.281
8.80240000 0.013359 4.2386 0.999908 -74.25 0.999908 -74.25 0.013360 27.286
8.80260000 0.013360 4.2302 0.999908 -74.25 0.999908 -74.25 0.013361 27.290
8.80280000 0.013361 4.2219 0.999908 -74.25 0.999908 -74.25 0.013362 27.295
8.80300000 0.013362 4.2135 0.999908 -74.25 0.999908 -74.25 0.013363 27.300
8.80320000 0.013363 4.2050 0.999908 -74.25 0.999908 -74.25 0.013364 27.305
8.80340000 0.013364 4.1966 0.999908 -74.26 0.999908 -74.26 0.013365 27.310
8.80360000 0.013365 4.1881 0.999908 -74.26 0.999908 -74.26 0.013366 27.314
8.80380000 0.013366 4.1796 0.999908 -74.26 0.999908 -74.26 0.013367 27.319
8.80400000 0.013367 4.1711 0.999908 -74.26 0.999908 -74.26 0.013368 27.324
8.80420000 0.013368 4.1626 0.999908 -74.26 0.999908 -74.26 0.013369 27.329
8.80440000 0.013369 4.1540 0.999908 -74.26 0.999908 -74.26 0.013370 27.334
8.80460000 0.013370 4.1455 0.999908 -74.27 0.999908 -74.27 0.013371 27.339
8.80480000 0.013371 4.1369 0.999908 -74.27 0.999908 -74.27 0.013372 27.344
8.80500000 0.013372 4.1283 0.999908 -74.27 0.999908 -74.27 0.013373 27.349
8.80520000 0.013373 4.1196 0.999907 -74.27 0.999907 -74.27 0.013374 27.354
8.80540000 0.013374 4.1110 0.999907 -74.27 0.999907 -74.27 0.013375 27.359
8.80560000 0.013375 4.1023 0.999907 -74.28 0.999907 -74.28 0.013376 27.364
8.80580000 0.013376 4.0936 0.999907 -74.28 0.999907 -74.28 0.013377 27.369
8.80600000 0.013377 4.0849 0.999907 -74.28 0.999907 -74.28 0.013378 27.374
8.80620000 0.013378 4.0762 0.999907 -74.28 0.999907 -74.28 0.013379 27.379
8.80640000 0.013379 4.0674 0.999907 -74.28 0.999907 -74.28 0.013380 27.384
8.80660000 0.013380 4.0586 0.999907 -74.28 0.999907 -74.28 0.013381 27.389
8.80680000 0.013381 4.0498 0.999907 -74.29 0.999907 -74.29 0.013382 27.395
8.80700000 0.013382 4.0410 0.999907 -74.29 0.999907 -74.29 0.013383 27.400
8.80720000 0.013383 4.0322 0.999907 -74.29 0.999907 -74.29 0.013384 27.405
8.80740000 0.013384 4.0233 0.999907 -74.29 0.999907 -74.29 0.013385 27.410
8.80760000 0.013385 4.0144 0.999907 -74.29 0.999907 -74.29 0.013386 27.415
8.80780000 0.013386 4.0055 0.999907 -74.30 0.999907 -74.30 0.013388 27.421
8.80800000 0.013387 3.9965 0.999907 -74.30 0.999907 -74.30 0.013389 27.426
8.80820000 0.013388 3.9876 0.999907 -74.30 0.999907 -74.30 0.013390 27.431
8.80840000 0.013390 3.9786 0.999907 -74.30 0.999907 -74.30 0.013391 27.437
8.80860000 0.013391 3.9696 0.999907 -74.30 0.999907 -74.30 0.013392 27.442
8.80880000 0.013392 3.9606 0.999907 -74.30 0.999907 -74.30 0.013393 27.447
8.80900000 0.013393 3.9515 0.999907 -74.31 0.999907 -74.31 0.013394 27.453
8.80920000 0.013394 3.9425 0.999907 -74.31 0.999907 -74.31 0.013395 27.458
8.80940000 0.013395 3.9334 0.999907 -74.31 0.999907 -74.31 0.013396 27.464
8.80960000 0.013396 3.9242 0.999907 -74.31 0.999907 -74.31 0.013397 27.469
8.80980000 0.013397 3.9151 0.999907 -74.31 0.999907 -74.31 0.013398 27.474
8.81000000 0.013398 3.9059 0.999907 -74.32 0.999907 -74.32 0.013399 27.480
8.81020000 0.013399 3.8967 0.999907 -74.32 0.999907 -74.32 0.013400 27.486
8.81040000 0.013400 3.8875 0.999907 -74.32 0.999907 -74.32 0.013402 27.491
8.81060000 0.013401 3.8783 0.999907 -74.32 0.999907 -74.32 0.013403 27.497
8.81080000 0.013403 3.8690 0.999907 -74.32 0.999907 -74.32 0.013404 27.502
8.81100000 0.013404 3.8597 0.999907 -74.32 0.999907 -74.32 0.013405 27.508
8.81120000 0.013405 3.8504 0.999907 -74.33 0.999907 -74.33 0.013406 27.514
8.81140000 0.013406 3.8411 0.999907 -74.33 0.999907 -74.33 0.013407 27.519
8.81160000 0.013407 3.8317 0.999907 -74.33 0.999907 -74.33 0.013408 27.525
8.81180000 0.013408 3.8224 0.999907 -74.33 0.999907 -74.33 0.013409 27.531
8.81200000 0.013409 3.8130 0.999907 -74.33 0.999907 -74.33 0.013411 27.536
8.81220000 0.013410 3.8035 0.999907 -74.34 0.999907 -74.34 0.013412 27.542
8.81240000 0.013412 3.7941 0.999907 -74.34 0.999907 -74.34 0.013413 27.548
8.81260000 0.013413 3.7846 0.999907 -74.34 0.999907 -74.34 0.013414 27.554
8.81280000 0.013414 3.7751 0.999907 -74.34 0.999907 -74.34 0.013415 27.560
8.81300000 0.013415 3.7655 0.999907 -74.34 0.999907 -74.34 0.013416 27.565
8.81320000 0.013416 3.7560 0.999907 -74.34 0.999907 -74.34 0.013417 27.571
8.81340000 0.013417 3.7464 0.999907 -74.35 0.999907 -74.35 0.013419 27.577
8.81360000 0.013419 3.7368 0.999907 -74.35 0.999907 -74.35 0.013420 27.583
8.81380000 0.013420 3.7271 0.999907 -74.35 0.999907 -74.35 0.013421 27.589
8.81400000 0.013421 3.7175 0.999907 -74.35 0.999907 -74.35 0.013422 27.595
8.81420000 0.013422 3.7078 0.999907 -74.35 0.999907 -74.35 0.013423 27.601
8.81440000 0.013423 3.6981 0.999907 -74.36 0.999907 -74.36 0.013425 27.607
8.81460000 0.013425 3.6883 0.999907 -74.36 0.999907 -74.36 0.013426 27.613
8.81480000 0.013426 3.6786 0.999907 -74.36 0.999907 -74.36 0.013427 27.619
8.81500000 0.013427 3.6688 0.999907 -74.36 0.999907 -74.36 0.013428 27.625
8.81520000 0.013428 3.6589 0.999907 -74.36 0.999907 -74.36 0.013429 27.632
8.81540000 0.013429 3.6491 0.999907 -74.36 0.999907 -74.36 0.013431 27.638
8.81560000 0.013431 3.6392 0.999907 -74.37 0.999907 -74.37 0.013432 27.644
8.81580000 0.013432 3.6293 0.999907 -74.37 0.999907 -74.37 0.013433 27.650
8.81600000 0.013433 3.6194 0.999907 -74.37 0.999907 -74.37 0.013434 27.656
8.81620000 0.013434 3.6094 0.999907 -74.37 0.999907 -74.37 0.013436 27.663
8.81640000 0.013436 3.5994 0.999907 -74.37 0.999907 -74.37 0.013437 27.669
8.81660000 0.013437 3.5894 0.999907 -74.38 0.999907 -74.38 0.013438 27.675
8.81680000 0.013438 3.5794 0.999907 -74.38 0.999907 -74.38 0.013439 27.682
8.81700000 0.013439 3.5693 0.999906 -74.38 0.999906 -74.38 0.013441 27.688
8.81720000 0.013441 3.5592 0.999906 -74.38 0.999906 -74.38 0.013442 27.695
8.81740000 0.013442 3.5491 0.999906 -74.38 0.999906 -74.38 0.013443 27.701
8.81760000 0.013443 3.5389 0.999906 -74.39 0.999906 -74.39 0.013444 27.707
8.81780000 0.013444 3.5287 0.999906 -74.39 0.999906 -74.39 0.013446 27.714
8.81800000 0.013446 3.5185 0.999906 -74.39 0.999906 -74.39 0.013447 27.720
8.81820000 0.013447 3.5083 0.999906 -74.39 0.999906 -74.39 0.013448 27.727
8.81840000 0.013448 3.4980 0.999906 -74.39 0.999906 -74.39 0.013450 27.734
8.81860000 0.013450 3.4877 0.999906 -74.39 0.999906 -74.39 0.013451 27.740
8.81880000 0.013451 3.4774 0.999906 -74.40 0.999906 -74.40 0.013452 27.747
8.81900000 0.013452 3.4670 0.999906 -74.40 0.999906 -74.40 0.013453 27.753
8.81920000 0.013453 3.4566 0.999906 -74.40 0.999906 -74.40 0.013455 27.760
8.81940000 0.013455 3.4462 0.999906 -74.40 0.999906 -74.40 0.013456 27.767
8.81960000 0.013456 3.4357 0.999906 -74.40 0.999906 -74.40 0.013457 27.774
8.81980000 0.013457 3.4253 0.999906 -74.41 0.999906 -74.41 0.013459 27.780
8.82000000 0.013459 3.4147 0.999906 -74.41 0.999906 -74.41 0.013460 27.787
8.82020000 0.013460 3.4042 0.999906 -74.41 0.999906 -74.41 0.013461 27.794
8.82040000 0.013461 3.3936 0.999906 -74.41 0.999906 -74.41 0.013463 27.801
8.82060000 0.013463 3.3830 0.999906 -74.41 0.999906 -74.41 0.013464 27.808
8.82080000 0.013464 3.3724 0.999906 -74.41 0.999906 -74.41 0.013465 27.815
8.82100000 0.013466 3.3617 0.999906 -74.42 0.999906 -74.42 0.013467 27.822
8.82120000 0.013467 3.3510 0.999906 -74.42 0.999906 -74.42 0.013468 27.829
8.82140000 0.013468 3.3403 0.999906 -74.42 0.999906 -74.42 0.013470 27.836
8.82160000 0.013470 3.3295 0.999906 -74.42 0.999906 -74.42 0.013471 27.843
8.82180000 0.013471 3.3187 0.999906 -74.42 0.999906 -74.42 0.013472 27.850
8.82200000 0.013472 3.3079 0.999906 -74.43 0.999906 -74.43 0.013474 27.857
8.82220000 0.013474 3.2970 0.999906 -74.43 0.999906 -74.43 0.013475 27.864
8.82240000 0.013475 3.2861 0.999906 -74.43 0.999906 -74.43 0.013477 27.871
8.82260000 0.013477 3.2752 0.999906 -74.43 0.999906 -74.43 0.013478 27.879
8.82280000 0.013478 3.2642 0.999906 -74.43 0.999906 -74.43 0.013479 27.886
8.82300000 0.013480 3.2532 0.999906 -74.44 0.999906 -74.44 0.013481 27.893
8.82320000 0.013481 3.2422 0.999906 -74.44 0.999906 -74.44 0.013482 27.900
8.82340000 0.013482 3.2312 0.999906 -74.44 0.999906 -74.44 0.013484 27.908
8.82360000 0.013484 3.2201 0.999906 -74.44 0.999906 -74.44 0.013485 27.915
8.82380000 0.013485 3.2089 0.999906 -74.44 0.999906 -74.44 0.013487 27.922
8.82400000 0.013487 3.1978 0.999906 -74.44 0.999906 -74.44 0.013488 27.930
8.82420000 0.013488 3.1866 0.999906 -74.45 0.999906 -74.45 0.013490 27.937
8.82440000 0.013490 3.1753 0.999906 -74.45 0.999906 -74.45 0.013491 27.945
8.82460000 0.013491 3.1641 0.999906 -74.45 0.999906 -74.45 0.013492 27.952
8.82480000 0.013493 3.1528 0.999906 -74.45 0.999906 -74.45 0.013494 27.960
8.82500000 0.013494 3.1414 0.999906 -74.45 0.999906 -74.45 0.013495 27.968
8.82520000 0.013496 3.1301 0.999906 -74.46 0.999906 -74.46 0.013497 27.975
8.82540000 0.013497 3.1187 0.999906 -74.46 0.999906 -74.46 0.013498 27.983
8.82560000 0.013499 3.1072 0.999906 -74.46 0.999906 -74.46 0.013500 27.991
8.82580000 0.013500 3.0957 0.999906 -74.46 0.999906 -74.46 0.013501 27.998
8.82600000 0.013502 3.0842 0.999906 -74.46 0.999906 -74.46 0.013503 28.006
8.82620000 0.013503 3.0727 0.999906 -74.46 0.999906 -74.46 0.013505 28.014
8.82640000 0.013505 3.0611 0.999906 -74.47 0.999906 -74.47 0.013506 28.022
8.82660000 0.013506 3.0495 0.999906 -74.47 0.999906 -74.47 0.013508 28.030
8.82680000 0.013508 3.0378 0.999905 -74.47 0.999905 -74.47 0.013509 28.038
8.82700000 0.013509 3.0261 0.999905 -74.47 0.999905 -74.47 0.013511 28.045
8.82720000 0.013511 3.0144 0.999905 -74.47 0.999905 -74.47 0.013512 28.053
8.82740000 0.013512 3.0026 0.999905 -74.48 0.999905 -74.48 0.013514 28.062
8.82760000 0.013514 2.9908 0.999905 -74.48 0.999905 -74.48 0.013515 28.070
8.82780000 0.013516 2.9789 0.999905 -74.48 0.999905 -74.48 0.013517 28.078
8.82800000 0.013517 2.9670 0.999905 -74.48 0.999905 -74.48 0.013519 28.086
8.82820000 0.013519 2.9551 0.999905 -74.48 0.999905 -74.48 0.013520 28.094
8.82840000 0.013520 2.9431 0.999905 -74.49 0.999905 -74.49 0.013522 28.102
8.82860000 0.013522 2.9311 0.999905 -74.49 0.999905 -74.49 0.013523 28.110
8.82880000 0.013524 2.9191 0.999905 -74.49 0.999905 -74.49 0.013525 28.119
8.82900000 0.013525 2.9070 0.999905 -74.49 0.999905 -74.49 0.013527 28.127
8.82920000 0.013527 2.8949 0.999905 -74.49 0.999905 -74.49 0.013528 28.135
8.82940000 0.013529 2.8827 0.999905 -74.49 0.999905 -74.49 0.013530 28.144
8.82960000 0.013530 2.8705 0.999905 -74.50 0.999905 -74.50 0.013532 28.152
8.82980000 0.013532 2.8582 0.999905 -74.50 0.999905 -74.50 0.013533 28.161
8.83000000 0.013534 2.8460 0.999905 -74.50 0.999905 -74.50 0.013535 28.169
8.83020000 0.013535 2.8336 0.999905 -74.50 0.999905 -74.50 0.013537 28.178
8.83040000 0.013537 2.8213 0.999905 -74.50 0.999905 -74.50 0.013538 28.186
8.83060000 0.013539 2.8088 0.999905 -74.51 0.999905 -74.51 0.013540 28.195
8.83080000 0.013540 2.7964 0.999905 -74.51 0.999905 -74.51 0.013542 28.204
8.83100000 0.013542 2.7839 0.999905 -74.51 0.999905 -74.51 0.013543 28.212
8.83120000 0.013544 2.7714 0.999905 -74.51 0.999905 -74.51 0.013545 28.221
8.83140000 0.013545 2.7588 0.999905 -74.51 0.999905 -74.51 0.013547 28.230
8.83160000 0.013547 2.7462 0.999905 -74.52 0.999905 -74.52 0.013549 28.239
8.83180000 0.013549 2.7335 0.999905 -74.52 0.999905 -74.52 0.013550 28.248
8.83200000 0.013551 2.7208 0.999905 -74.52 0.999905 -74.52 0.013552 28.257
8.83220000 0.013552 2.7080 0.999905 -74.52 0.999905 -74.52 0.013554 28.266
8.83240000 0.013554 2.6952 0.999905 -74.52 0.999905 -74.52 0.013556 28.275
8.83260000 0.013556 2.6824 0.999905 -74.52 0.999905 -74.52 0.013557 28.284
8.83280000 0.013558 2.6695 0.999905 -74.53 0.999905 -74.53 0.013559 28.293
8.83300000 0.013559 2.6566 0.999905 -74.53 0.999905 -74.53 0.013561 28.302
8.83320000 0.013561 2.6436 0.999905 -74.53 0.999905 -74.53 0.013563 28.311
8.83340000 0.013563 2.6306 0.999905 -74.53 0.999905 -74.53 0.013565 28.320
8.83360000 0.013565 2.6175 0.999905 -74.53 0.999905 -74.53 0.013566 28.330
8.83380000 0.013567 2.6044 0.999905 -74.54 0.999905 -74.54 0.013568 28.339
8.83400000 0.013569 2.5913 0.999905 -74.54 0.999905 -74.54 0.013570 28.348
8.83420000 0.013570 2.5780 0.999905 -74.54 0.999905 -74.54 0.013572 28.358
8.83440000 0.013572 2.5648 0.999905 -74.54 0.999905 -74.54 0.013574 28.367
8.83460000 0.013574 2.5515 0.999905 -74.54 0.999905 -74.54 0.013576 28.377
8.83480000 0.013576 2.5382 0.999904 -74.55 0.999904 -74.55 0.013577 28.386
8.83500000 0.013578 2.5248 0.999904 -74.55 0.999904 -74.55 0.013579 28.396
8.83520000 0.013580 2.5113 0.999904 -74.55 0.999904 -74.55 0.013581 28.405
8.83540000 0.013582 2.4978 0.999904 -74.55 0.999904 -74.55 0.013583 28.415
8.83560000 0.013584 2.4843 0.999904 -74.55 0.999904 -74.55 0.013585 28.425
8.83580000 0.013585 2.4707 0.999904 -74.56 0.999904 -74.56 0.013587 28.435
8.83600000 0.013587 2.4571 0.999904 -74.56 0.999904 -74.56 0.013589 28.444
8.83620000 0.013589 2.4434 0.999904 -74.56 0.999904 -74.56 0.013591 28.454
8.83640000 0.013591 2.4297 0.999904 -74.56 0.999904 -74.56 0.013593 28.464
8.83660000 0.013593 2.4159 0.999904 -74.56 0.999904 -74.56 0.013595 28.474
8.83680000 0.013595 2.4020 0.999904 -74.56 0.999904 -74.56 0.013597 28.484
8.83700000 0.013597 2.3882 0.999904 -74.57 0.999904 -74.57 0.013599 28.494
8.83720000 0.013599 2.3742 0.999904 -74.57 0.999904 -74.57 0.013601 28.504
8.83740000 0.013601 2.3602 0.999904 -74.57 0.999904 -74.57 0.013603 28.514
8.83760000 0.013603 2.3462 0.999904 -74.57 0.999904 -74.57 0.013605 28.525
8.83780000 0.013605 2.3321 0.999904 -74.57 0.999904 -74.57 0.013607 28.535
8.83800000 0.013607 2.3180 0.999904 -74.58 0.999904 -74.58 0.013609 28.545
8.83820000 0.013609 2.3038 0.999904 -74.58 0.999904 -74.58 0.013611 28.556
8.83840000 0.013611 2.2895 0.999904 -74.58 0.999904 -74.58 0.013613 28.566
8.83860000 0.013613 2.2752 0.999904 -74.58 0.999904 -74.58 0.013615 28.576
8.83880000 0.013615 2.2608 0.999904 -74.58 0.999904 -74.58 0.013617 28.587
8.83900000 0.013617 2.2464 0.999904 -74.59 0.999904 -74.59 0.013619 28.598
8.83920000 0.013619 2.2320 0.999904 -74.59 0.999904 -74.59 0.013621 28.608
8.83940000 0.013622 2.2174 0.999904 -74.59 0.999904 -74.59 0.013623 28.619
8.83960000 0.013624 2.2029 0.999904 -74.59 0.999904 -74.59 0.013625 28.630
8.83980000 0.013626 2.1882 0.999904 -74.59 0.999904 -74.59 0.013627 28.640
8.84000000 0.013628 2.1736 0.999904 -74.60 0.999904 -74.60 0.013630 28.651
8.84020000 0.013630 2.1588 0.999904 -74.60 0.999904 -74.60 0.013632 28.662
8.84040000 0.013632 2.1440 0.999904 -74.60 0.999904 -74.60 0.013634 28.673
8.84060000 0.013634 2.1291 0.999904 -74.60 0.999904 -74.60 0.013636 28.684
8.84080000 0.013637 2.1142 0.999904 -74.60 0.999904 -74.60 0.013638 28.695
8.84100000 0.013639 2.0993 0.999904 -74.61 0.999904 -74.61 0.013640 28.706
8.84120000 0.013641 2.0842 0.999904 -74.61 0.999904 -74.61 0.013643 28.717
8.84140000 0.013643 2.0691 0.999904 -74.61 0.999904 -74.61 0.013645 28.729
8.84160000 0.013645 2.0540 0.999903 -74.61 0.999903 -74.61 0.013647 28.740
8.84180000 0.013648 2.0388 0.999903 -74.61 0.999903 -74.61 0.013649 28.751
8.84200000 0.013650 2.0235 0.999903 -74.61 0.999903 -74.61 0.013651 28.763
8.84220000 0.013652 2.0082 0.999903 -74.62 0.999903 -74.62 0.013654 28.774
8.84240000 0.013654 1.9928 0.999903 -74.62 0.999903 -74.62 0.013656 28.786
8.84260000 0.013657 1.9773 0.999903 -74.62 0.999903 -74.62 0.013658 28.797
8.84280000 0.013659 1.9618 0.999903 -74.62 0.999903 -74.62 0.013661 28.809
8.84300000 0.013661 1.9463 0.999903 -74.62 0.999903 -74.62 0.013663 28.820
8.84320000 0.013664 1.9306 0.999903 -74.63 0.999903 -74.63 0.013665 28.832
8.84340000 0.013666 1.9149 0.999903 -74.63 0.999903 -74.63 0.013667 28.844
8.84360000 0.013668 1.8992 0.999903 -74.63 0.999903 -74.63 0.013670 28.856
8.84380000 0.013671 1.8833 0.999903 -74.63 0.999903 -74.63 0.013672 28.868
8.84400000 0.013673 1.8674 0.999903 -74.63 0.999903 -74.63 0.013675 28.880
8.84420000 0.013675 1.8515 0.999903 -74.64 0.999903 -74.64 0.013677 28.892
8.84440000 0.013678 1.8355 0.999903 -74.64 0.999903 -74.64 0.013679 28.904
8.84460000 0.013680 1.8194 0.999903 -74.64 0.999903 -74.64 0.013682 28.916
8.84480000 0.013682 1.8032 0.999903 -74.64 0.999903 -74.64 0.013684 28.928
8.84500000 0.013685 1.7870 0.999903 -74.64 0.999903 -74.64 0.013687 28.941
8.84520000 0.013687 1.7707 0.999903 -74.65 0.999903 -74.65 0.013689 28.953
8.84540000 0.013690 1.7544 0.999903 -74.65 0.999903 -74.65 0.013692 28.965
8.84560000 0.013692 1.7379 0.999903 -74.65 0.999903 -74.65 0.013694 28.978
8.84580000 0.013695 1.7215 0.999903 -74.65 0.999903 -74.65 0.013696 28.991
8.84600000 0.013697 1.7049 0.999903 -74.65 0.999903 -74.65 0.013699 29.003
8.84620000 0.013700 1.6883 0.999903 -74.66 0.999903 -74.66 0.013702 29.016
8.84640000 0.013702 1.6716 0.999903 -74.66 0.999903 -74.66 0.013704 29.029
8.84660000 0.013705 1.6548 0.999903 -74.66 0.999903 -74.66 0.013707 29.041
8.84680000 0.013707 1.6380 0.999903 -74.66 0.999903 -74.66 0.013709 29.054
8.84700000 0.013710 1.6210 0.999903 -74.66 0.999903 -74.66 0.013712 29.067
8.84720000 0.013713 1.6041 0.999902 -74.67 0.999902 -74.67 0.013714 29.080
8.84740000 0.013715 1.5870 0.999902 -74.67 0.999902 -74.67 0.013717 29.093
8.84760000 0.013718 1.5699 0.999902 -74.67 0.999902 -74.67 0.013720 29.107
8.84780000 0.013720 1.5527 0.999902 -74.67 0.999902 -74.67 0.013722 29.120
8.84800000 0.013723 1.5354 0.999902 -74.67 0.999902 -74.67 0.013725 29.133
8.84820000 0.013726 1.5181 0.999902 -74.68 0.999902 -74.68 0.013727 29.147
8.84840000 0.013728 1.5006 0.999902 -74.68 0.999902 -74.68 0.013730 29.160
8.84860000 0.013731 1.4831 0.999902 -74.68 0.999902 -74.68 0.013733 29.174
8.84880000 0.013734 1.4656 0.999902 -74.68 0.999902 -74.68 0.013736 29.187
8.84900000 0.013737 1.4479 0.999902 -74.68 0.999902 -74.68 0.013738 29.201
8.84920000 0.013739 1.4302 0.999902 -74.69 0.999902 -74.69 0.013741 29.215
8.84940000 0.013742 1.4124 0.999902 -74.69 0.999902 -74.69 0.013744 29.229
8.84960000 0.013745 1.3945 0.999902 -74.69 0.999902 -74.69 0.013747 29.242
8.84980000 0.013748 1.3765 0.999902 -74.69 0.999902 -74.69 0.013749 29.256
8.85000000 0.013750 1.3585 0.999902 -74.69 0.999902 -74.69 0.013752 29.270
8.85020000 0.013753 1.3403 0.999902 -74.69 0.999902 -74.69 0.013755 29.285
8.85040000 0.013756 1.3221 0.999902 -74.70 0.999902 -74.70 0.013758 29.299
8.85060000 0.013759 1.3038 0.999902 -74.70 0.999902 -74.70 0.013761 29.313
8.85080000 0.013762 1.2855 0.999902 -74.70 0.999902 -74.70 0.013764 29.328
8.85100000 0.013765 1.2670 0.999902 -74.70 0.999902 -74.70 0.013766 29.342
8.85120000 0.013768 1.2485 0.999902 -74.70 0.999902 -74.70 0.013769 29.357
8.85140000 0.013770 1.2298 0.999902 -74.71 0.999902 -74.71 0.013772 29.371
8.85160000 0.013773 1.2111 0.999902 -74.71 0.999902 -74.71 0.013775 29.386
8.85180000 0.013776 1.1923 0.999902 -74.71 0.999902 -74.71 0.013778 29.401
8.85200000 0.013779 1.1735 0.999902 -74.71 0.999902 -74.71 0.013781 29.415
8.85220000 0.013782 1.1545 0.999901 -74.71 0.999901 -74.71 0.013784 29.430
8.85240000 0.013785 1.1354 0.999901 -74.72 0.999901 -74.72 0.013787 29.445
8.85260000 0.013788 1.1163 0.999901 -74.72 0.999901 -74.72 0.013790 29.461
8.85280000 0.013791 1.0971 0.999901 -74.72 0.999901 -74.72 0.013793 29.476
8.85300000 0.013794 1.0777 0.999901 -74.72 0.999901 -74.72 0.013796 29.491
8.85320000 0.013798 1.0583 0.999901 -74.72 0.999901 -74.72 0.013799 29.506
8.85340000 0.013801 1.0388 0.999901 -74.73 0.999901 -74.73 0.013803 29.522
8.85360000 0.013804 1.0192 0.999901 -74.73 0.999901 -74.73 0.013806 29.537
8.85380000 0.013807 0.9996 0.999901 -74.73 0.999901 -74.73 0.013809 29.553
8.85400000 0.013810 0.9798 0.999901 -74.73 0.999901 -74.73 0.013812 29.569
8.85420000 0.013813 0.9599 0.999901 -74.74 0.999901 -74.74 0.013815 29.585
8.85440000 0.013816 0.9399 0.999901 -74.74 0.999901 -74.74 0.013818 29.601
8.85460000 0.013820 0.9199 0.999901 -74.74 0.999901 -74.74 0.013822 29.617
8.85480000 0.013823 0.8997 0.999901 -74.74 0.999901 -74.74 0.013825 29.633
8.85500000 0.013826 0.8795 0.999901 -74.74 0.999901 -74.74 0.013828 29.649
8.85520000 0.013829 0.8591 0.999901 -74.75 0.999901 -74.75 0.013831 29.665
8.85540000 0.013833 0.8387 0.999901 -74.75 0.999901 -74.75 0.013835 29.681
8.85560000 0.013836 0.8181 0.999901 -74.75 0.999901 -74.75 0.013838 29.698
8.85580000 0.013839 0.7975 0.999901 -74.75 0.999901 -74.75 0.013841 29.715
8.85600000 0.013843 0.7767 0.999901 -74.75 0.999901 -74.75 0.013845 29.731
8.85620000 0.013846 0.7559 0.999901 -74.76 0.999901 -74.76 0.013848 29.748
8.85640000 0.013850 0.7349 0.999900 -74.76 0.999900 -74.76 0.013852 29.765
8.85660000 0.013853 0.7138 0.999900 -74.76 0.999900 -74.76 0.013855 29.782
8.85680000 0.013857 0.6927 0.999900 -74.76 0.999900 -74.76 0.013859 29.799
8.85700000 0.013860 0.6714 0.999900 -74.76 0.999900 -74.76 0.013862 29.816
8.85720000 0.013864 0.6500 0.999900 -74.77 0.999900 -74.77 0.013866 29.833
8.85740000 0.013867 0.6286 0.999900 -74.77 0.999900 -74.77 0.013869 29.851
8.85760000 0.013871 0.6070 0.999900 -74.77 0.999900 -74.77 0.013873 29.868
8.85780000 0.013874 0.5853 0.999900 -74.77 0.999900 -74.77 0.013876 29.886
8.85800000 0.013878 0.5635 0.999900 -74.77 0.999900 -74.77 0.013880 29.903
8.85820000 0.013881 0.5416 0.999900 -74.78 0.999900 -74.78 0.013883 29.921
8.85840000 0.013885 0.5195 0.999900 -74.78 0.999900 -74.78 0.013887 29.939
8.85860000 0.013889 0.4974 0.999900 -74.78 0.999900 -74.78 0.013891 29.957
8.85880000 0.013892 0.4751 0.999900 -74.78 0.999900 -74.78 0.013894 29.975
8.85900000 0.013896 0.4528 0.999900 -74.78 0.999900 -74.78 0.013898 29.993
8.85920000 0.013900 0.4303 0.999900 -74.79 0.999900 -74.79 0.013902 30.012
8.85940000 0.013904 0.4077 0.999900 -74.79 0.999900 -74.79 0.013906 30.030
8.85960000 0.013907 0.3850 0.999900 -74.79 0.999900 -74.79 0.013910 30.049
8.85980000 0.013911 0.3621 0.999900 -74.79 0.999900 -74.79 0.013913 30.067
8.86000000 0.013915 0.3392 0.999899 -74.79 0.999899 -74.79 0.013917 30.086
8.86020000 0.013919 0.3161 0.999899 -74.80 0.999899 -74.80 0.013921 30.105
8.86040000 0.013923 0.2929 0.999899 -74.80 0.999899 -74.80 0.013925 30.124
8.86060000 0.013927 0.2696 0.999899 -74.80 0.999899 -74.80 0.013929 30.143
8.86080000 0.013931 0.2462 0.999899 -74.80 0.999899 -74.80 0.013933 30.162
8.86100000 0.013935 0.2226 0.999899 -74.80 0.999899 -74.80 0.013937 30.182
8.86120000 0.013939 0.1989 0.999899 -74.81 0.999899 -74.81 0.013941 30.201
8.86140000 0.013943 0.1751 0.999899 -74.81 0.999899 -74.81 0.013945 30.221
8.86160000 0.013947 0.1512 0.999899 -74.81 0.999899 -74.81 0.013949 30.241
8.86180000 0.013951 0.1271 0.999899 -74.81 0.999899 -74.81 0.013953 30.260
8.86200000 0.013955 0.1029 0.999899 -74.82 0.999899 -74.82 0.013957 30.280
8.86220000 0.013959 0.0786 0.999899 -74.82 0.999899 -74.82 0.013961 30.300
8.86240000 0.013963 0.0541 0.999899 -74.82 0.999899 -74.82 0.013966 30.321
8.86260000 0.013968 0.0295 0.999899 -74.82 0.999899 -74.82 0.013970 30.341
8.86280000 0.013972 0.0048 0.999899 -74.82 0.999899 -74.82 0.013974 30.362
8.86300000 0.013976 -0.020 0.999899 -74.83 0.999899 -74.83 0.013978 30.382
8.86320000 0.013980 -0.045 0.999899 -74.83 0.999899 -74.83 0.013983 30.403
8.86340000 0.013985 -0.070 0.999898 -74.83 0.999898 -74.83 0.013987 30.424
8.86360000 0.013989 -0.096 0.999898 -74.83 0.999898 -74.83 0.013991 30.445
8.86380000 0.013993 -0.121 0.999898 -74.83 0.999898 -74.83 0.013996 30.466
8.86400000 0.013998 -0.147 0.999898 -74.84 0.999898 -74.84 0.014000 30.487
8.86420000 0.014002 -0.172 0.999898 -74.84 0.999898 -74.84 0.014005 30.509
8.86440000 0.014007 -0.198 0.999898 -74.84 0.999898 -74.84 0.014009 30.530
8.86460000 0.014011 -0.224 0.999898 -74.84 0.999898 -74.84 0.014014 30.552
8.86480000 0.014016 -0.250 0.999898 -74.84 0.999898 -74.84 0.014018 30.574
8.86500000 0.014021 -0.277 0.999898 -74.85 0.999898 -74.85 0.014023 30.596
8.86520000 0.014025 -0.303 0.999898 -74.85 0.999898 -74.85 0.014028 30.618
8.86540000 0.014030 -0.330 0.999898 -74.85 0.999898 -74.85 0.014032 30.640
8.86560000 0.014035 -0.356 0.999898 -74.85 0.999898 -74.85 0.014037 30.663
8.86580000 0.014039 -0.383 0.999898 -74.86 0.999898 -74.86 0.014042 30.685
8.86600000 0.014044 -0.410 0.999898 -74.86 0.999898 -74.86 0.014046 30.708
8.86620000 0.014049 -0.438 0.999897 -74.86 0.999897 -74.86 0.014051 30.731
8.86640000 0.014054 -0.465 0.999897 -74.86 0.999897 -74.86 0.014056 30.754
8.86660000 0.014059 -0.492 0.999897 -74.86 0.999897 -74.86 0.014061 30.777
8.86680000 0.014063 -0.520 0.999897 -74.87 0.999897 -74.87 0.014066 30.800
8.86700000 0.014068 -0.548 0.999897 -74.87 0.999897 -74.87 0.014071 30.824
8.86720000 0.014073 -0.576 0.999897 -74.87 0.999897 -74.87 0.014076 30.847
8.86740000 0.014078 -0.604 0.999897 -74.87 0.999897 -74.87 0.014081 30.871
8.86760000 0.014084 -0.633 0.999897 -74.88 0.999897 -74.88 0.014086 30.895
8.86780000 0.014089 -0.661 0.999897 -74.88 0.999897 -74.88 0.014091 30.919
8.86800000 0.014094 -0.690 0.999897 -74.88 0.999897 -74.88 0.014096 30.944
8.86820000 0.014099 -0.719 0.999897 -74.88 0.999897 -74.88 0.014101 30.968
8.86840000 0.014104 -0.748 0.999897 -74.88 0.999897 -74.88 0.014107 30.993
8.86860000 0.014109 -0.777 0.999897 -74.89 0.999897 -74.89 0.014112 31.017
8.86880000 0.014115 -0.806 0.999896 -74.89 0.999896 -74.89 0.014117 31.042
8.86900000 0.014120 -0.836 0.999896 -74.89 0.999896 -74.89 0.014123 31.068
8.86920000 0.014126 -0.866 0.999896 -74.89 0.999896 -74.89 0.014128 31.093
8.86940000 0.014131 -0.896 0.999896 -74.89 0.999896 -74.89 0.014134 31.118
8.86960000 0.014136 -0.926 0.999896 -74.90 0.999896 -74.90 0.014139 31.144
8.86980000 0.014142 -0.956 0.999896 -74.90 0.999896 -74.90 0.014145 31.170
8.87000000 0.014148 -0.987 0.999896 -74.90 0.999896 -74.90 0.014150 31.196
8.87020000 0.014153 -1.017 0.999896 -74.90 0.999896 -74.90 0.014156 31.222
8.87040000 0.014159 -1.048 0.999896 -74.91 0.999896 -74.91 0.014161 31.248
8.87060000 0.014165 -1.079 0.999896 -74.91 0.999896 -74.91 0.014167 31.275
8.87080000 0.014170 -1.111 0.999896 -74.91 0.999896 -74.91 0.014173 31.302
8.87100000 0.014176 -1.142 0.999896 -74.91 0.999896 -74.91 0.014179 31.329
8.87120000 0.014182 -1.174 0.999895 -74.91 0.999895 -74.91 0.014185 31.356
8.87140000 0.014188 -1.206 0.999895 -74.92 0.999895 -74.92 0.014191 31.383
8.87160000 0.014194 -1.238 0.999895 -74.92 0.999895 -74.92 0.014197 31.411
8.87180000 0.014200 -1.270 0.999895 -74.92 0.999895 -74.92 0.014203 31.438
8.87200000 0.014206 -1.303 0.999895 -74.92 0.999895 -74.92 0.014209 31.466
8.87220000 0.014212 -1.335 0.999895 -74.93 0.999895 -74.93 0.014215 31.495
8.87240000 0.014218 -1.368 0.999895 -74.93 0.999895 -74.93 0.014221 31.523
8.87260000 0.014224 -1.401 0.999895 -74.93 0.999895 -74.93 0.014227 31.551
8.87280000 0.014231 -1.435 0.999895 -74.93 0.999895 -74.93 0.014233 31.580
8.87300000 0.014237 -1.468 0.999895 -74.94 0.999895 -74.94 0.014240 31.609
8.87320000 0.014243 -1.502 0.999894 -74.94 0.999894 -74.94 0.014246 31.638
8.87340000 0.014250 -1.536 0.999894 -74.94 0.999894 -74.94 0.014253 31.668
8.87360000 0.014256 -1.570 0.999894 -74.94 0.999894 -74.94 0.014259 31.697
8.87380000 0.014263 -1.605 0.999894 -74.94 0.999894 -74.94 0.014266 31.727
8.87400000 0.014269 -1.640 0.999894 -74.95 0.999894 -74.95 0.014272 31.757
8.87420000 0.014276 -1.675 0.999894 -74.95 0.999894 -74.95 0.014279 31.787
8.87440000 0.014283 -1.710 0.999894 -74.95 0.999894 -74.95 0.014286 31.818
8.87460000 0.014290 -1.745 0.999894 -74.95 0.999894 -74.95 0.014293 31.849
8.87480000 0.014296 -1.781 0.999894 -74.96 0.999894 -74.96 0.014299 31.880
8.87500000 0.014303 -1.817 0.999894 -74.96 0.999894 -74.96 0.014306 31.911
8.87520000 0.014310 -1.853 0.999893 -74.96 0.999893 -74.96 0.014313 31.942
8.87540000 0.014317 -1.889 0.999893 -74.96 0.999893 -74.96 0.014320 31.974
8.87560000 0.014324 -1.926 0.999893 -74.97 0.999893 -74.97 0.014327 32.006
8.87580000 0.014332 -1.963 0.999893 -74.97 0.999893 -74.97 0.014335 32.038
8.87600000 0.014339 -2.000 0.999893 -74.97 0.999893 -74.97 0.014342 32.070
8.87620000 0.014346 -2.038 0.999893 -74.97 0.999893 -74.97 0.014349 32.103
8.87640000 0.014354 -2.075 0.999893 -74.97 0.999893 -74.97 0.014357 32.136
8.87660000 0.014361 -2.113 0.999893 -74.98 0.999893 -74.98 0.014364 32.169
8.87680000 0.014368 -2.152 0.999893 -74.98 0.999893 -74.98 0.014372 32.203
8.87700000 0.014376 -2.190 0.999892 -74.98 0.999892 -74.98 0.014379 32.236
8.87720000 0.014384 -2.229 0.999892 -74.98 0.999892 -74.98 0.014387 32.270
8.87740000 0.014391 -2.268 0.999892 -74.99 0.999892 -74.99 0.014395 32.304
8.87760000 0.014399 -2.307 0.999892 -74.99 0.999892 -74.99 0.014402 32.339
8.87780000 0.014407 -2.347 0.999892 -74.99 0.999892 -74.99 0.014410 32.374
8.87800000 0.014415 -2.387 0.999892 -74.99 0.999892 -74.99 0.014418 32.409
8.87820000 0.014423 -2.427 0.999892 -75.00 0.999892 -75.00 0.014426 32.444
8.87840000 0.014431 -2.468 0.999892 -75.00 0.999892 -75.00 0.014434 32.480