! Sonnet Data File
! From: emgraph Version : 16.52
! From Project: Resonator2
! Data is De-embedded 
! Data File Written: 10/05/2017 10:46:05
!< HDATE 10/04/2017 20:26:48
!< MDATE 10/05/2017 00:36:07
!< PARAMS
!< gap = 46.0
!< Length = 400.0
!< Pwid1 = 2000.0
!< Pwid2 = 2000.0
!< END PARAMS
# GHZ S MA R 50.00000
8.80000000 0.291268 -164.4 0.956638 -75.20 0.956638 -75.20 0.291268 -166.0
!< P1 F=8.8 Eeff=(5.36817953 -2.3731e-5) Z0=(35.9853883 8.0522e-5) R=0.0 C=0.0 
!< P2 F=8.8 Eeff=(5.36817953 -2.3731e-5) Z0=(35.9853883 8.0522e-5) R=0.0 C=0.0 
8.80020000 0.291269 -164.4 0.956638 -75.20 0.956638 -75.20 0.291268 -166.0
8.80040000 0.291270 -164.4 0.956638 -75.20 0.956638 -75.20 0.291269 -166.0
8.80060000 0.291270 -164.4 0.956637 -75.20 0.956637 -75.20 0.291270 -166.0
8.80080000 0.291271 -164.4 0.956637 -75.20 0.956637 -75.20 0.291271 -166.0
8.80100000 0.291272 -164.4 0.956637 -75.20 0.956637 -75.20 0.291271 -166.0
8.80120000 0.291272 -164.4 0.956637 -75.21 0.956637 -75.21 0.291272 -166.0
8.80140000 0.291273 -164.4 0.956637 -75.21 0.956637 -75.21 0.291273 -166.0
8.80160000 0.291274 -164.5 0.956636 -75.21 0.956636 -75.21 0.291273 -166.0
8.80180000 0.291274 -164.5 0.956636 -75.21 0.956636 -75.21 0.291274 -166.0
8.80200000 0.291275 -164.5 0.956636 -75.21 0.956636 -75.21 0.291274 -166.0
8.80220000 0.291276 -164.5 0.956636 -75.22 0.956636 -75.22 0.291275 -166.0
8.80240000 0.291276 -164.5 0.956636 -75.22 0.956636 -75.22 0.291276 -166.0
8.80260000 0.291277 -164.5 0.956635 -75.22 0.956635 -75.22 0.291276 -166.0
8.80280000 0.291278 -164.5 0.956635 -75.22 0.956635 -75.22 0.291277 -166.0
8.80300000 0.291278 -164.5 0.956635 -75.22 0.956635 -75.22 0.291278 -166.0
8.80320000 0.291279 -164.5 0.956635 -75.23 0.956635 -75.23 0.291278 -166.0
8.80340000 0.291279 -164.5 0.956635 -75.23 0.956635 -75.23 0.291279 -166.0
8.80360000 0.291280 -164.5 0.956634 -75.23 0.956634 -75.23 0.291279 -166.0
8.80380000 0.291281 -164.5 0.956634 -75.23 0.956634 -75.23 0.291280 -166.0
8.80400000 0.291281 -164.5 0.956634 -75.23 0.956634 -75.23 0.291281 -166.0
8.80420000 0.291282 -164.5 0.956634 -75.23 0.956634 -75.23 0.291281 -166.0
8.80440000 0.291282 -164.5 0.956634 -75.24 0.956634 -75.24 0.291282 -166.0
8.80460000 0.291283 -164.5 0.956634 -75.24 0.956634 -75.24 0.291282 -166.0
8.80480000 0.291283 -164.5 0.956633 -75.24 0.956633 -75.24 0.291283 -166.0
8.80500000 0.291284 -164.5 0.956633 -75.24 0.956633 -75.24 0.291283 -166.0
8.80520000 0.291284 -164.5 0.956633 -75.24 0.956633 -75.24 0.291284 -166.0
8.80540000 0.291285 -164.5 0.956633 -75.25 0.956633 -75.25 0.291284 -166.0
8.80560000 0.291285 -164.5 0.956633 -75.25 0.956633 -75.25 0.291285 -166.0
8.80580000 0.291286 -164.5 0.956633 -75.25 0.956633 -75.25 0.291285 -166.0
8.80600000 0.291287 -164.5 0.956632 -75.25 0.956632 -75.25 0.291286 -166.0
8.80620000 0.291287 -164.5 0.956632 -75.25 0.956632 -75.25 0.291286 -166.0
8.80640000 0.291287 -164.5 0.956632 -75.26 0.956632 -75.26 0.291287 -166.0
8.80660000 0.291288 -164.5 0.956632 -75.26 0.956632 -75.26 0.291287 -166.0
8.80680000 0.291288 -164.5 0.956632 -75.26 0.956632 -75.26 0.291288 -166.0
8.80700000 0.291289 -164.5 0.956632 -75.26 0.956632 -75.26 0.291288 -166.0
8.80720000 0.291289 -164.5 0.956632 -75.26 0.956632 -75.26 0.291289 -166.0
8.80740000 0.291290 -164.5 0.956631 -75.26 0.956631 -75.26 0.291289 -166.0
8.80760000 0.291290 -164.5 0.956631 -75.27 0.956631 -75.27 0.291290 -166.0
8.80780000 0.291291 -164.5 0.956631 -75.27 0.956631 -75.27 0.291290 -166.0
8.80800000 0.291291 -164.5 0.956631 -75.27 0.956631 -75.27 0.291290 -166.1
8.80820000 0.291292 -164.5 0.956631 -75.27 0.956631 -75.27 0.291291 -166.1
8.80840000 0.291292 -164.5 0.956631 -75.27 0.956631 -75.27 0.291291 -166.1
8.80860000 0.291292 -164.5 0.956631 -75.28 0.956631 -75.28 0.291292 -166.1
8.80880000 0.291293 -164.5 0.956630 -75.28 0.956630 -75.28 0.291292 -166.1
8.80900000 0.291293 -164.5 0.956630 -75.28 0.956630 -75.28 0.291293 -166.1
8.80920000 0.291294 -164.5 0.956630 -75.28 0.956630 -75.28 0.291293 -166.1
8.80940000 0.291294 -164.5 0.956630 -75.28 0.956630 -75.28 0.291293 -166.1
8.80960000 0.291294 -164.5 0.956630 -75.29 0.956630 -75.29 0.291294 -166.1
8.80980000 0.291295 -164.5 0.956630 -75.29 0.956630 -75.29 0.291294 -166.1
8.81000000 0.291295 -164.5 0.956630 -75.29 0.956630 -75.29 0.291294 -166.1
8.81020000 0.291295 -164.5 0.956630 -75.29 0.956630 -75.29 0.291295 -166.1
8.81040000 0.291296 -164.5 0.956630 -75.29 0.956630 -75.29 0.291295 -166.1
8.81060000 0.291296 -164.5 0.956629 -75.29 0.956629 -75.29 0.291295 -166.1
8.81080000 0.291296 -164.5 0.956629 -75.30 0.956629 -75.30 0.291296 -166.1
8.81100000 0.291297 -164.5 0.956629 -75.30 0.956629 -75.30 0.291296 -166.1
8.81120000 0.291297 -164.5 0.956629 -75.30 0.956629 -75.30 0.291296 -166.1
8.81140000 0.291297 -164.5 0.956629 -75.30 0.956629 -75.30 0.291297 -166.1
8.81160000 0.291298 -164.5 0.956629 -75.30 0.956629 -75.30 0.291297 -166.1
8.81180000 0.291298 -164.5 0.956629 -75.31 0.956629 -75.31 0.291297 -166.1
8.81200000 0.291298 -164.5 0.956629 -75.31 0.956629 -75.31 0.291297 -166.1
8.81220000 0.291298 -164.5 0.956629 -75.31 0.956629 -75.31 0.291298 -166.1
8.81240000 0.291299 -164.5 0.956629 -75.31 0.956629 -75.31 0.291298 -166.1
8.81260000 0.291299 -164.5 0.956629 -75.31 0.956629 -75.31 0.291298 -166.1
8.81280000 0.291299 -164.5 0.956629 -75.32 0.956629 -75.32 0.291298 -166.1
8.81300000 0.291299 -164.5 0.956628 -75.32 0.956628 -75.32 0.291299 -166.1
8.81320000 0.291299 -164.5 0.956628 -75.32 0.956628 -75.32 0.291299 -166.1
8.81340000 0.291300 -164.5 0.956628 -75.32 0.956628 -75.32 0.291299 -166.1
8.81360000 0.291300 -164.5 0.956628 -75.32 0.956628 -75.32 0.291299 -166.1
8.81380000 0.291300 -164.5 0.956628 -75.32 0.956628 -75.32 0.291299 -166.1
8.81400000 0.291300 -164.5 0.956628 -75.33 0.956628 -75.33 0.291299 -166.1
8.81420000 0.291300 -164.5 0.956628 -75.33 0.956628 -75.33 0.291300 -166.1
8.81440000 0.291301 -164.5 0.956628 -75.33 0.956628 -75.33 0.291300 -166.1
8.81460000 0.291301 -164.5 0.956628 -75.33 0.956628 -75.33 0.291300 -166.1
8.81480000 0.291301 -164.5 0.956628 -75.33 0.956628 -75.33 0.291300 -166.1
8.81500000 0.291301 -164.5 0.956628 -75.34 0.956628 -75.34 0.291300 -166.1
8.81520000 0.291301 -164.5 0.956628 -75.34 0.956628 -75.34 0.291300 -166.1
8.81540000 0.291301 -164.5 0.956628 -75.34 0.956628 -75.34 0.291300 -166.2
8.81560000 0.291301 -164.5 0.956628 -75.34 0.956628 -75.34 0.291301 -166.2
8.81580000 0.291301 -164.5 0.956628 -75.34 0.956628 -75.34 0.291301 -166.2
8.81600000 0.291301 -164.5 0.956628 -75.35 0.956628 -75.35 0.291301 -166.2
8.81620000 0.291302 -164.5 0.956628 -75.35 0.956628 -75.35 0.291301 -166.2
8.81640000 0.291302 -164.5 0.956628 -75.35 0.956628 -75.35 0.291301 -166.2
8.81660000 0.291302 -164.5 0.956628 -75.35 0.956628 -75.35 0.291301 -166.2
8.81680000 0.291302 -164.5 0.956628 -75.35 0.956628 -75.35 0.291301 -166.2
8.81700000 0.291302 -164.5 0.956628 -75.36 0.956628 -75.36 0.291301 -166.2
8.81720000 0.291302 -164.5 0.956628 -75.36 0.956628 -75.36 0.291301 -166.2
8.81740000 0.291302 -164.5 0.956628 -75.36 0.956628 -75.36 0.291301 -166.2
8.81760000 0.291302 -164.5 0.956628 -75.36 0.956628 -75.36 0.291301 -166.2
8.81780000 0.291302 -164.5 0.956628 -75.36 0.956628 -75.36 0.291301 -166.2
8.81800000 0.291302 -164.5 0.956628 -75.37 0.956628 -75.37 0.291301 -166.2
8.81820000 0.291302 -164.5 0.956628 -75.37 0.956628 -75.37 0.291301 -166.2
8.81840000 0.291302 -164.5 0.956628 -75.37 0.956628 -75.37 0.291301 -166.2
8.81860000 0.291302 -164.5 0.956628 -75.37 0.956628 -75.37 0.291301 -166.2
8.81880000 0.291302 -164.5 0.956628 -75.37 0.956628 -75.37 0.291301 -166.2
8.81900000 0.291301 -164.6 0.956628 -75.37 0.956628 -75.37 0.291301 -166.2
8.81920000 0.291301 -164.6 0.956628 -75.38 0.956628 -75.38 0.291301 -166.2
8.81940000 0.291301 -164.6 0.956628 -75.38 0.956628 -75.38 0.291300 -166.2
8.81960000 0.291301 -164.6 0.956628 -75.38 0.956628 -75.38 0.291300 -166.2
8.81980000 0.291301 -164.6 0.956628 -75.38 0.956628 -75.38 0.291300 -166.2
8.82000000 0.291301 -164.6 0.956628 -75.38 0.956628 -75.38 0.291300 -166.2
8.82020000 0.291301 -164.6 0.956628 -75.39 0.956628 -75.39 0.291300 -166.2
8.82040000 0.291301 -164.6 0.956628 -75.39 0.956628 -75.39 0.291300 -166.2
8.82060000 0.291300 -164.6 0.956628 -75.39 0.956628 -75.39 0.291300 -166.2
8.82080000 0.291300 -164.6 0.956628 -75.39 0.956628 -75.39 0.291299 -166.2
8.82100000 0.291300 -164.6 0.956628 -75.39 0.956628 -75.39 0.291299 -166.2
8.82120000 0.291300 -164.6 0.956628 -75.40 0.956628 -75.40 0.291299 -166.2
8.82140000 0.291300 -164.6 0.956628 -75.40 0.956628 -75.40 0.291299 -166.2
8.82160000 0.291299 -164.6 0.956628 -75.40 0.956628 -75.40 0.291299 -166.2
8.82180000 0.291299 -164.6 0.956628 -75.40 0.956628 -75.40 0.291298 -166.2
8.82200000 0.291299 -164.6 0.956628 -75.40 0.956628 -75.40 0.291298 -166.2
8.82220000 0.291299 -164.6 0.956628 -75.41 0.956628 -75.41 0.291298 -166.2
8.82240000 0.291298 -164.6 0.956629 -75.41 0.956629 -75.41 0.291298 -166.2
8.82260000 0.291298 -164.6 0.956629 -75.41 0.956629 -75.41 0.291297 -166.3
8.82280000 0.291298 -164.6 0.956629 -75.41 0.956629 -75.41 0.291297 -166.3
8.82300000 0.291298 -164.6 0.956629 -75.41 0.956629 -75.41 0.291297 -166.3
8.82320000 0.291297 -164.6 0.956629 -75.42 0.956629 -75.42 0.291296 -166.3
8.82340000 0.291297 -164.6 0.956629 -75.42 0.956629 -75.42 0.291296 -166.3
8.82360000 0.291297 -164.6 0.956629 -75.42 0.956629 -75.42 0.291296 -166.3
8.82380000 0.291296 -164.6 0.956629 -75.42 0.956629 -75.42 0.291295 -166.3
8.82400000 0.291296 -164.6 0.956629 -75.42 0.956629 -75.42 0.291295 -166.3
8.82420000 0.291295 -164.6 0.956629 -75.43 0.956629 -75.43 0.291295 -166.3
8.82440000 0.291295 -164.6 0.956630 -75.43 0.956630 -75.43 0.291294 -166.3
8.82460000 0.291295 -164.6 0.956630 -75.43 0.956630 -75.43 0.291294 -166.3
8.82480000 0.291294 -164.6 0.956630 -75.43 0.956630 -75.43 0.291293 -166.3
8.82500000 0.291294 -164.6 0.956630 -75.43 0.956630 -75.43 0.291293 -166.3
8.82520000 0.291293 -164.6 0.956630 -75.44 0.956630 -75.44 0.291292 -166.3
8.82540000 0.291293 -164.6 0.956630 -75.44 0.956630 -75.44 0.291292 -166.3
8.82560000 0.291292 -164.6 0.956630 -75.44 0.956630 -75.44 0.291291 -166.3
8.82580000 0.291292 -164.6 0.956630 -75.44 0.956630 -75.44 0.291291 -166.3
8.82600000 0.291291 -164.6 0.956631 -75.44 0.956631 -75.44 0.291290 -166.3
8.82620000 0.291291 -164.6 0.956631 -75.45 0.956631 -75.45 0.291290 -166.3
8.82640000 0.291290 -164.6 0.956631 -75.45 0.956631 -75.45 0.291289 -166.3
8.82660000 0.291290 -164.6 0.956631 -75.45 0.956631 -75.45 0.291289 -166.3
8.82680000 0.291289 -164.6 0.956631 -75.45 0.956631 -75.45 0.291288 -166.3
8.82700000 0.291289 -164.6 0.956631 -75.45 0.956631 -75.45 0.291288 -166.3
8.82720000 0.291288 -164.6 0.956632 -75.46 0.956632 -75.46 0.291287 -166.3
8.82740000 0.291287 -164.6 0.956632 -75.46 0.956632 -75.46 0.291286 -166.3
8.82760000 0.291287 -164.6 0.956632 -75.46 0.956632 -75.46 0.291286 -166.3
8.82780000 0.291286 -164.6 0.956632 -75.46 0.956632 -75.46 0.291285 -166.3
8.82800000 0.291286 -164.6 0.956632 -75.46 0.956632 -75.46 0.291285 -166.3
8.82820000 0.291285 -164.6 0.956633 -75.47 0.956633 -75.47 0.291284 -166.3
8.82840000 0.291284 -164.6 0.956633 -75.47 0.956633 -75.47 0.291283 -166.3
8.82860000 0.291284 -164.6 0.956633 -75.47 0.956633 -75.47 0.291283 -166.3
8.82880000 0.291283 -164.6 0.956633 -75.47 0.956633 -75.47 0.291282 -166.3
8.82900000 0.291282 -164.6 0.956633 -75.47 0.956633 -75.47 0.291281 -166.3
8.82920000 0.291281 -164.6 0.956634 -75.48 0.956634 -75.48 0.291280 -166.4
8.82940000 0.291281 -164.6 0.956634 -75.48 0.956634 -75.48 0.291280 -166.4
8.82960000 0.291280 -164.6 0.956634 -75.48 0.956634 -75.48 0.291279 -166.4
8.82980000 0.291279 -164.6 0.956634 -75.48 0.956634 -75.48 0.291278 -166.4
8.83000000 0.291278 -164.6 0.956635 -75.48 0.956635 -75.48 0.291277 -166.4
8.83020000 0.291277 -164.6 0.956635 -75.49 0.956635 -75.49 0.291276 -166.4
8.83040000 0.291277 -164.6 0.956635 -75.49 0.956635 -75.49 0.291276 -166.4
8.83060000 0.291276 -164.6 0.956635 -75.49 0.956635 -75.49 0.291275 -166.4
8.83080000 0.291275 -164.6 0.956636 -75.49 0.956636 -75.49 0.291274 -166.4
8.83100000 0.291274 -164.6 0.956636 -75.49 0.956636 -75.49 0.291273 -166.4
8.83120000 0.291273 -164.6 0.956636 -75.50 0.956636 -75.50 0.291272 -166.4
8.83140000 0.291272 -164.6 0.956636 -75.50 0.956636 -75.50 0.291271 -166.4
8.83160000 0.291271 -164.6 0.956637 -75.50 0.956637 -75.50 0.291270 -166.4
8.83180000 0.291270 -164.6 0.956637 -75.50 0.956637 -75.50 0.291269 -166.4
8.83200000 0.291269 -164.6 0.956637 -75.50 0.956637 -75.50 0.291268 -166.4
8.83220000 0.291268 -164.6 0.956638 -75.51 0.956638 -75.51 0.291267 -166.4
8.83240000 0.291267 -164.6 0.956638 -75.51 0.956638 -75.51 0.291266 -166.4
8.83260000 0.291266 -164.6 0.956638 -75.51 0.956638 -75.51 0.291265 -166.4
8.83280000 0.291265 -164.6 0.956638 -75.51 0.956638 -75.51 0.291264 -166.4
8.83300000 0.291264 -164.6 0.956639 -75.51 0.956639 -75.51 0.291263 -166.4
8.83320000 0.291263 -164.6 0.956639 -75.52 0.956639 -75.52 0.291262 -166.4
8.83340000 0.291262 -164.6 0.956639 -75.52 0.956639 -75.52 0.291261 -166.4
8.83360000 0.291261 -164.6 0.956640 -75.52 0.956640 -75.52 0.291260 -166.4
8.83380000 0.291260 -164.6 0.956640 -75.52 0.956640 -75.52 0.291259 -166.4
8.83400000 0.291259 -164.6 0.956640 -75.52 0.956640 -75.52 0.291257 -166.4
8.83420000 0.291258 -164.6 0.956641 -75.53 0.956641 -75.53 0.291256 -166.4
8.83440000 0.291256 -164.6 0.956641 -75.53 0.956641 -75.53 0.291255 -166.4
8.83460000 0.291255 -164.6 0.956642 -75.53 0.956642 -75.53 0.291254 -166.4
8.83480000 0.291254 -164.6 0.956642 -75.53 0.956642 -75.53 0.291253 -166.4
8.83500000 0.291253 -164.6 0.956642 -75.54 0.956642 -75.54 0.291251 -166.4
8.83520000 0.291251 -164.6 0.956643 -75.54 0.956643 -75.54 0.291250 -166.4
8.83540000 0.291250 -164.6 0.956643 -75.54 0.956643 -75.54 0.291249 -166.5
8.83560000 0.291249 -164.6 0.956643 -75.54 0.956643 -75.54 0.291248 -166.5
8.83580000 0.291247 -164.6 0.956644 -75.54 0.956644 -75.54 0.291246 -166.5
8.83600000 0.291246 -164.6 0.956644 -75.55 0.956644 -75.55 0.291245 -166.5
8.83620000 0.291245 -164.6 0.956645 -75.55 0.956645 -75.55 0.291243 -166.5
8.83640000 0.291243 -164.6 0.956645 -75.55 0.956645 -75.55 0.291242 -166.5
8.83660000 0.291242 -164.6 0.956646 -75.55 0.956646 -75.55 0.291241 -166.5
8.83680000 0.291241 -164.6 0.956646 -75.55 0.956646 -75.55 0.291239 -166.5
8.83700000 0.291239 -164.6 0.956646 -75.56 0.956646 -75.56 0.291238 -166.5
8.83720000 0.291238 -164.6 0.956647 -75.56 0.956647 -75.56 0.291236 -166.5
8.83740000 0.291236 -164.6 0.956647 -75.56 0.956647 -75.56 0.291235 -166.5
8.83760000 0.291235 -164.6 0.956648 -75.56 0.956648 -75.56 0.291233 -166.5
8.83780000 0.291233 -164.6 0.956648 -75.56 0.956648 -75.56 0.291232 -166.5
8.83800000 0.291232 -164.6 0.956649 -75.57 0.956649 -75.57 0.291230 -166.5
8.83820000 0.291230 -164.6 0.956649 -75.57 0.956649 -75.57 0.291229 -166.5
8.83840000 0.291228 -164.6 0.956650 -75.57 0.956650 -75.57 0.291227 -166.5
8.83860000 0.291227 -164.6 0.956650 -75.57 0.956650 -75.57 0.291225 -166.5
8.83880000 0.291225 -164.6 0.956651 -75.58 0.956651 -75.58 0.291224 -166.5
8.83900000 0.291223 -164.6 0.956651 -75.58 0.956651 -75.58 0.291222 -166.5
8.83920000 0.291222 -164.6 0.956652 -75.58 0.956652 -75.58 0.291220 -166.5
8.83940000 0.291220 -164.6 0.956652 -75.58 0.956652 -75.58 0.291219 -166.5
8.83960000 0.291218 -164.6 0.956653 -75.58 0.956653 -75.58 0.291217 -166.5
8.83980000 0.291217 -164.6 0.956653 -75.59 0.956653 -75.59 0.291215 -166.5
8.84000000 0.291215 -164.6 0.956654 -75.59 0.956654 -75.59 0.291213 -166.5
8.84020000 0.291213 -164.6 0.956654 -75.59 0.956654 -75.59 0.291212 -166.5
8.84040000 0.291211 -164.6 0.956655 -75.59 0.956655 -75.59 0.291210 -166.5
8.84060000 0.291209 -164.6 0.956655 -75.59 0.956655 -75.59 0.291208 -166.5
8.84080000 0.291207 -164.6 0.956656 -75.60 0.956656 -75.60 0.291206 -166.5
8.84100000 0.291205 -164.6 0.956657 -75.60 0.956657 -75.60 0.291204 -166.6
8.84120000 0.291204 -164.6 0.956657 -75.60 0.956657 -75.60 0.291202 -166.6
8.84140000 0.291202 -164.6 0.956658 -75.60 0.956658 -75.60 0.291200 -166.6
8.84160000 0.291200 -164.6 0.956658 -75.61 0.956658 -75.61 0.291198 -166.6
8.84180000 0.291198 -164.6 0.956659 -75.61 0.956659 -75.61 0.291196 -166.6
8.84200000 0.291196 -164.6 0.956660 -75.61 0.956660 -75.61 0.291194 -166.6
8.84220000 0.291193 -164.6 0.956660 -75.61 0.956660 -75.61 0.291192 -166.6
8.84240000 0.291191 -164.7 0.956661 -75.61 0.956661 -75.61 0.291190 -166.6
8.84260000 0.291189 -164.7 0.956661 -75.62 0.956661 -75.62 0.291188 -166.6
8.84280000 0.291187 -164.7 0.956662 -75.62 0.956662 -75.62 0.291186 -166.6
8.84300000 0.291185 -164.7 0.956663 -75.62 0.956663 -75.62 0.291183 -166.6
8.84320000 0.291183 -164.7 0.956663 -75.62 0.956663 -75.62 0.291181 -166.6
8.84340000 0.291181 -164.7 0.956664 -75.62 0.956664 -75.62 0.291179 -166.6
8.84360000 0.291178 -164.7 0.956665 -75.63 0.956665 -75.63 0.291177 -166.6
8.84380000 0.291176 -164.7 0.956665 -75.63 0.956665 -75.63 0.291174 -166.6
8.84400000 0.291174 -164.7 0.956666 -75.63 0.956666 -75.63 0.291172 -166.6
8.84420000 0.291171 -164.7 0.956667 -75.63 0.956667 -75.63 0.291170 -166.6
8.84440000 0.291169 -164.7 0.956668 -75.64 0.956668 -75.64 0.291167 -166.6
8.84460000 0.291167 -164.7 0.956668 -75.64 0.956668 -75.64 0.291165 -166.6
8.84480000 0.291164 -164.7 0.956669 -75.64 0.956669 -75.64 0.291162 -166.6
8.84500000 0.291162 -164.7 0.956670 -75.64 0.956670 -75.64 0.291160 -166.6
8.84520000 0.291159 -164.7 0.956671 -75.64 0.956671 -75.64 0.291158 -166.6
8.84540000 0.291157 -164.7 0.956671 -75.65 0.956671 -75.65 0.291155 -166.6
8.84560000 0.291154 -164.7 0.956672 -75.65 0.956672 -75.65 0.291152 -166.6
8.84580000 0.291152 -164.7 0.956673 -75.65 0.956673 -75.65 0.291150 -166.6
8.84600000 0.291149 -164.7 0.956674 -75.65 0.956674 -75.65 0.291147 -166.6
8.84620000 0.291146 -164.7 0.956674 -75.66 0.956674 -75.66 0.291145 -166.7
8.84640000 0.291144 -164.7 0.956675 -75.66 0.956675 -75.66 0.291142 -166.7
8.84660000 0.291141 -164.7 0.956676 -75.66 0.956676 -75.66 0.291139 -166.7
8.84680000 0.291138 -164.7 0.956677 -75.66 0.956677 -75.66 0.291136 -166.7
8.84700000 0.291135 -164.7 0.956678 -75.67 0.956678 -75.67 0.291134 -166.7
8.84720000 0.291133 -164.7 0.956679 -75.67 0.956679 -75.67 0.291131 -166.7
8.84740000 0.291130 -164.7 0.956679 -75.67 0.956679 -75.67 0.291128 -166.7
8.84760000 0.291127 -164.7 0.956680 -75.67 0.956680 -75.67 0.291125 -166.7
8.84780000 0.291124 -164.7 0.956681 -75.67 0.956681 -75.67 0.291122 -166.7
8.84800000 0.291121 -164.7 0.956682 -75.68 0.956682 -75.68 0.291119 -166.7
8.84820000 0.291118 -164.7 0.956683 -75.68 0.956683 -75.68 0.291116 -166.7
8.84840000 0.291115 -164.7 0.956684 -75.68 0.956684 -75.68 0.291113 -166.7
8.84860000 0.291112 -164.7 0.956685 -75.68 0.956685 -75.68 0.291110 -166.7
8.84880000 0.291109 -164.7 0.956686 -75.69 0.956686 -75.69 0.291107 -166.7
8.84900000 0.291106 -164.7 0.956687 -75.69 0.956687 -75.69 0.291104 -166.7
8.84920000 0.291103 -164.7 0.956688 -75.69 0.956688 -75.69 0.291101 -166.7
8.84940000 0.291099 -164.7 0.956689 -75.69 0.956689 -75.69 0.291097 -166.7
8.84960000 0.291096 -164.7 0.956690 -75.70 0.956690 -75.70 0.291094 -166.7
8.84980000 0.291093 -164.7 0.956691 -75.70 0.956691 -75.70 0.291091 -166.7
8.85000000 0.291090 -164.7 0.956692 -75.70 0.956692 -75.70 0.291088 -166.7
8.85020000 0.291086 -164.7 0.956693 -75.70 0.956693 -75.70 0.291084 -166.7
8.85040000 0.291083 -164.7 0.956694 -75.70 0.956694 -75.70 0.291081 -166.7
8.85060000 0.291079 -164.7 0.956695 -75.71 0.956695 -75.71 0.291077 -166.7
8.85080000 0.291076 -164.7 0.956696 -75.71 0.956696 -75.71 0.291074 -166.8
8.85100000 0.291072 -164.7 0.956697 -75.71 0.956697 -75.71 0.291070 -166.8
8.85120000 0.291069 -164.7 0.956698 -75.71 0.956698 -75.71 0.291067 -166.8
8.85140000 0.291065 -164.7 0.956699 -75.72 0.956699 -75.72 0.291063 -166.8
8.85160000 0.291062 -164.7 0.956700 -75.72 0.956700 -75.72 0.291060 -166.8
8.85180000 0.291058 -164.7 0.956701 -75.72 0.956701 -75.72 0.291056 -166.8
8.85200000 0.291054 -164.7 0.956702 -75.72 0.956702 -75.72 0.291052 -166.8
8.85220000 0.291051 -164.7 0.956703 -75.73 0.956703 -75.73 0.291048 -166.8
8.85240000 0.291047 -164.7 0.956705 -75.73 0.956705 -75.73 0.291045 -166.8
8.85260000 0.291043 -164.7 0.956706 -75.73 0.956706 -75.73 0.291041 -166.8
8.85280000 0.291039 -164.7 0.956707 -75.73 0.956707 -75.73 0.291037 -166.8
8.85300000 0.291035 -164.7 0.956708 -75.74 0.956708 -75.74 0.291033 -166.8
8.85320000 0.291031 -164.7 0.956709 -75.74 0.956709 -75.74 0.291029 -166.8
8.85340000 0.291027 -164.7 0.956710 -75.74 0.956710 -75.74 0.291025 -166.8
8.85360000 0.291023 -164.7 0.956712 -75.74 0.956712 -75.74 0.291021 -166.8
8.85380000 0.291019 -164.7 0.956713 -75.75 0.956713 -75.75 0.291016 -166.8
8.85400000 0.291015 -164.7 0.956714 -75.75 0.956714 -75.75 0.291012 -166.8
8.85420000 0.291010 -164.7 0.956715 -75.75 0.956715 -75.75 0.291008 -166.8
8.85440000 0.291006 -164.7 0.956717 -75.75 0.956717 -75.75 0.291004 -166.8
8.85460000 0.291002 -164.7 0.956718 -75.75 0.956718 -75.75 0.290999 -166.8
8.85480000 0.290997 -164.7 0.956719 -75.76 0.956719 -75.76 0.290995 -166.8
8.85500000 0.290993 -164.7 0.956721 -75.76 0.956721 -75.76 0.290991 -166.9
8.85520000 0.290989 -164.7 0.956722 -75.76 0.956722 -75.76 0.290986 -166.9
8.85540000 0.290984 -164.7 0.956723 -75.76 0.956723 -75.76 0.290982 -166.9
8.85560000 0.290980 -164.7 0.956725 -75.77 0.956725 -75.77 0.290977 -166.9
8.85580000 0.290975 -164.7 0.956726 -75.77 0.956726 -75.77 0.290972 -166.9
8.85600000 0.290970 -164.7 0.956728 -75.77 0.956728 -75.77 0.290968 -166.9
8.85620000 0.290966 -164.7 0.956729 -75.77 0.956729 -75.77 0.290963 -166.9
8.85640000 0.290961 -164.7 0.956731 -75.78 0.956731 -75.78 0.290958 -166.9
8.85660000 0.290956 -164.7 0.956732 -75.78 0.956732 -75.78 0.290953 -166.9
8.85680000 0.290951 -164.7 0.956733 -75.78 0.956733 -75.78 0.290948 -166.9
8.85700000 0.290946 -164.7 0.956735 -75.78 0.956735 -75.78 0.290943 -166.9
8.85720000 0.290941 -164.7 0.956736 -75.79 0.956736 -75.79 0.290938 -166.9
8.85740000 0.290936 -164.7 0.956738 -75.79 0.956738 -75.79 0.290933 -166.9
8.85760000 0.290931 -164.7 0.956740 -75.79 0.956740 -75.79 0.290928 -166.9
8.85780000 0.290926 -164.7 0.956741 -75.79 0.956741 -75.79 0.290923 -166.9
8.85800000 0.290920 -164.7 0.956743 -75.80 0.956743 -75.80 0.290918 -166.9
8.85820000 0.290915 -164.7 0.956744 -75.80 0.956744 -75.80 0.290912 -166.9
8.85840000 0.290910 -164.7 0.956746 -75.80 0.956746 -75.80 0.290907 -166.9
8.85860000 0.290904 -164.7 0.956748 -75.81 0.956748 -75.81 0.290902 -166.9
8.85880000 0.290899 -164.7 0.956749 -75.81 0.956749 -75.81 0.290896 -166.9
8.85900000 0.290893 -164.7 0.956751 -75.81 0.956751 -75.81 0.290890 -167.0
8.85920000 0.290888 -164.7 0.956753 -75.81 0.956753 -75.81 0.290885 -167.0
8.85940000 0.290882 -164.7 0.956754 -75.82 0.956754 -75.82 0.290879 -167.0
8.85960000 0.290876 -164.7 0.956756 -75.82 0.956756 -75.82 0.290873 -167.0
8.85980000 0.290870 -164.7 0.956758 -75.82 0.956758 -75.82 0.290867 -167.0
8.86000000 0.290865 -164.7 0.956760 -75.82 0.956760 -75.82 0.290862 -167.0
8.86020000 0.290859 -164.7 0.956761 -75.83 0.956761 -75.83 0.290856 -167.0
8.86040000 0.290853 -164.7 0.956763 -75.83 0.956763 -75.83 0.290850 -167.0
8.86060000 0.290847 -164.7 0.956765 -75.83 0.956765 -75.83 0.290843 -167.0
8.86080000 0.290840 -164.7 0.956767 -75.83 0.956767 -75.83 0.290837 -167.0
8.86100000 0.290834 -164.7 0.956769 -75.84 0.956769 -75.84 0.290831 -167.0
8.86120000 0.290828 -164.7 0.956771 -75.84 0.956771 -75.84 0.290825 -167.0
8.86140000 0.290821 -164.7 0.956773 -75.84 0.956773 -75.84 0.290818 -167.0
8.86160000 0.290815 -164.7 0.956775 -75.85 0.956775 -75.85 0.290812 -167.0
8.86180000 0.290809 -164.7 0.956777 -75.85 0.956777 -75.85 0.290805 -167.0
8.86200000 0.290802 -164.7 0.956779 -75.85 0.956779 -75.85 0.290799 -167.0
8.86220000 0.290795 -164.7 0.956781 -75.85 0.956781 -75.85 0.290792 -167.0
8.86240000 0.290788 -164.7 0.956783 -75.86 0.956783 -75.86 0.290785 -167.1
8.86260000 0.290782 -164.7 0.956785 -75.86 0.956785 -75.86 0.290778 -167.1
8.86280000 0.290775 -164.7 0.956787 -75.86 0.956787 -75.86 0.290771 -167.1
8.86300000 0.290768 -164.7 0.956789 -75.86 0.956789 -75.86 0.290764 -167.1
8.86320000 0.290761 -164.7 0.956791 -75.87 0.956791 -75.87 0.290757 -167.1
8.86340000 0.290753 -164.7 0.956793 -75.87 0.956793 -75.87 0.290750 -167.1
8.86360000 0.290746 -164.7 0.956795 -75.87 0.956795 -75.87 0.290743 -167.1
8.86380000 0.290739 -164.7 0.956798 -75.88 0.956798 -75.88 0.290735 -167.1
8.86400000 0.290731 -164.7 0.956800 -75.88 0.956800 -75.88 0.290728 -167.1
8.86420000 0.290724 -164.7 0.956802 -75.88 0.956802 -75.88 0.290720 -167.1
8.86440000 0.290716 -164.7 0.956804 -75.88 0.956804 -75.88 0.290713 -167.1
8.86460000 0.290709 -164.7 0.956807 -75.89 0.956807 -75.89 0.290705 -167.1
8.86480000 0.290701 -164.7 0.956809 -75.89 0.956809 -75.89 0.290697 -167.1
8.86500000 0.290693 -164.6 0.956811 -75.89 0.956811 -75.89 0.290689 -167.1
8.86520000 0.290685 -164.6 0.956814 -75.90 0.956814 -75.90 0.290681 -167.1
8.86540000 0.290677 -164.6 0.956816 -75.90 0.956816 -75.90 0.290673 -167.2
8.86560000 0.290669 -164.6 0.956819 -75.90 0.956819 -75.90 0.290665 -167.2
8.86580000 0.290661 -164.6 0.956821 -75.90 0.956821 -75.90 0.290657 -167.2
8.86600000 0.290652 -164.6 0.956824 -75.91 0.956824 -75.91 0.290648 -167.2
8.86620000 0.290644 -164.6 0.956826 -75.91 0.956826 -75.91 0.290640 -167.2
8.86640000 0.290635 -164.6 0.956829 -75.91 0.956829 -75.91 0.290631 -167.2
8.86660000 0.290626 -164.6 0.956831 -75.92 0.956831 -75.92 0.290622 -167.2
8.86680000 0.290618 -164.6 0.956834 -75.92 0.956834 -75.92 0.290614 -167.2
8.86700000 0.290609 -164.6 0.956837 -75.92 0.956837 -75.92 0.290605 -167.2
8.86720000 0.290600 -164.6 0.956840 -75.93 0.956840 -75.93 0.290596 -167.2
8.86740000 0.290591 -164.6 0.956842 -75.93 0.956842 -75.93 0.290586 -167.2
8.86760000 0.290581 -164.6 0.956845 -75.93 0.956845 -75.93 0.290577 -167.2
8.86780000 0.290572 -164.6 0.956848 -75.93 0.956848 -75.93 0.290568 -167.2
8.86800000 0.290563 -164.6 0.956851 -75.94 0.956851 -75.94 0.290558 -167.2
8.86820000 0.290553 -164.6 0.956854 -75.94 0.956854 -75.94 0.290549 -167.3
8.86840000 0.290543 -164.6 0.956857 -75.94 0.956857 -75.94 0.290539 -167.3
8.86860000 0.290534 -164.6 0.956859 -75.95 0.956859 -75.95 0.290529 -167.3
8.86880000 0.290524 -164.6 0.956862 -75.95 0.956862 -75.95 0.290519 -167.3
8.86900000 0.290514 -164.6 0.956865 -75.95 0.956865 -75.95 0.290509 -167.3
8.86920000 0.290503 -164.6 0.956869 -75.96 0.956869 -75.96 0.290499 -167.3
8.86940000 0.290493 -164.6 0.956872 -75.96 0.956872 -75.96 0.290488 -167.3
8.86960000 0.290483 -164.6 0.956875 -75.96 0.956875 -75.96 0.290478 -167.3
8.86980000 0.290472 -164.6 0.956878 -75.97 0.956878 -75.97 0.290467 -167.3
8.87000000 0.290461 -164.6 0.956881 -75.97 0.956881 -75.97 0.290456 -167.3
8.87020000 0.290451 -164.6 0.956884 -75.97 0.956884 -75.97 0.290446 -167.3
8.87040000 0.290440 -164.6 0.956888 -75.98 0.956888 -75.98 0.290435 -167.3
8.87060000 0.290428 -164.6 0.956891 -75.98 0.956891 -75.98 0.290423 -167.3
8.87080000 0.290417 -164.6 0.956895 -75.98 0.956895 -75.98 0.290412 -167.4
8.87100000 0.290406 -164.6 0.956898 -75.99 0.956898 -75.99 0.290401 -167.4
8.87120000 0.290394 -164.6 0.956901 -75.99 0.956901 -75.99 0.290389 -167.4
8.87140000 0.290382 -164.6 0.956905 -75.99 0.956905 -75.99 0.290377 -167.4
8.87160000 0.290371 -164.6 0.956909 -76.00 0.956909 -76.00 0.290365 -167.4
8.87180000 0.290359 -164.6 0.956912 -76.00 0.956912 -76.00 0.290353 -167.4
8.87200000 0.290346 -164.6 0.956916 -76.00 0.956916 -76.00 0.290341 -167.4
8.87220000 0.290334 -164.6 0.956920 -76.01 0.956920 -76.01 0.290328 -167.4
8.87240000 0.290322 -164.6 0.956923 -76.01 0.956923 -76.01 0.290316 -167.4
8.87260000 0.290309 -164.6 0.956927 -76.01 0.956927 -76.01 0.290303 -167.4
8.87280000 0.290296 -164.6 0.956931 -76.02 0.956931 -76.02 0.290290 -167.4
8.87300000 0.290283 -164.6 0.956935 -76.02 0.956935 -76.02 0.290277 -167.5
8.87320000 0.290270 -164.6 0.956939 -76.02 0.956939 -76.02 0.290264 -167.5
8.87340000 0.290256 -164.6 0.956943 -76.03 0.956943 -76.03 0.290250 -167.5
8.87360000 0.290243 -164.6 0.956947 -76.03 0.956947 -76.03 0.290237 -167.5
8.87380000 0.290229 -164.6 0.956951 -76.04 0.956951 -76.04 0.290223 -167.5
8.87400000 0.290215 -164.6 0.956955 -76.04 0.956955 -76.04 0.290209 -167.5
8.87420000 0.290201 -164.6 0.956960 -76.04 0.956960 -76.04 0.290195 -167.5
8.87440000 0.290187 -164.6 0.956964 -76.05 0.956964 -76.05 0.290180 -167.5
8.87460000 0.290172 -164.6 0.956968 -76.05 0.956968 -76.05 0.290166 -167.5
8.87480000 0.290158 -164.6 0.956973 -76.05 0.956973 -76.05 0.290151 -167.5
8.87500000 0.290143 -164.6 0.956977 -76.06 0.956977 -76.06 0.290136 -167.5
8.87520000 0.290127 -164.6 0.956982 -76.06 0.956982 -76.06 0.290121 -167.6
8.87540000 0.290112 -164.6 0.956986 -76.07 0.956986 -76.07 0.290105 -167.6
8.87560000 0.290097 -164.6 0.956991 -76.07 0.956991 -76.07 0.290090 -167.6
8.87580000 0.290081 -164.6 0.956996 -76.07 0.956996 -76.07 0.290074 -167.6
8.87600000 0.290065 -164.6 0.957001 -76.08 0.957001 -76.08 0.290058 -167.6
8.87620000 0.290049 -164.5 0.957005 -76.08 0.957005 -76.08 0.290041 -167.6
8.87640000 0.290032 -164.5 0.957010 -76.08 0.957010 -76.08 0.290025 -167.6
8.87660000 0.290015 -164.5 0.957015 -76.09 0.957015 -76.09 0.290008 -167.6
8.87680000 0.289998 -164.5 0.957021 -76.09 0.957021 -76.09 0.289991 -167.6
8.87700000 0.289981 -164.5 0.957026 -76.10 0.957026 -76.10 0.289974 -167.7
8.87720000 0.289964 -164.5 0.957031 -76.10 0.957031 -76.10 0.289956 -167.7
8.87740000 0.289946 -164.5 0.957036 -76.11 0.957036 -76.11 0.289938 -167.7
8.87750349 0.289937 -164.5 0.957039 -76.11 0.957039 -76.11 0.289929 -167.7
8.87760000 0.289928 -164.5 0.957042 -76.11 0.957042 -76.11 0.289920 -167.7
8.87780000 0.289910 -164.5 0.957047 -76.11 0.957047 -76.11 0.289902 -167.7
8.87800000 0.289891 -164.5 0.957053 -76.12 0.957053 -76.12 0.289883 -167.7
8.87819086 0.289873 -164.5 0.957058 -76.12 0.957058 -76.12 0.289865 -167.7