! Sonnet Data File
! From: emgraph Version : 16.52
! From Project: Resonator2
! Data is De-embedded 
! Data File Written: 10/05/2017 10:46:05
!< HDATE 10/04/2017 20:26:48
!< MDATE 10/05/2017 00:36:07
!< PARAMS
!< gap = 96.0
!< Length = 400.0
!< Pwid1 = 2000.0
!< Pwid2 = 2000.0
!< END PARAMS
# GHZ S MA R 50.00000
8.80000000 0.296686 -164.4 0.954972 -74.85 0.954972 -74.85 0.296686 -165.3
!< P1 F=8.8 Eeff=(5.36817953 -2.3731e-5) Z0=(35.9853883 8.0522e-5) R=0.0 C=0.0 
!< P2 F=8.8 Eeff=(5.36817953 -2.3731e-5) Z0=(35.9853883 8.0522e-5) R=0.0 C=0.0 
8.80020000 0.296688 -164.4 0.954971 -74.85 0.954971 -74.85 0.296688 -165.3
8.80040000 0.296690 -164.4 0.954971 -74.85 0.954971 -74.85 0.296690 -165.3
8.80060000 0.296692 -164.4 0.954970 -74.85 0.954970 -74.85 0.296692 -165.3
8.80080000 0.296695 -164.4 0.954969 -74.85 0.954969 -74.85 0.296694 -165.3
8.80100000 0.296697 -164.4 0.954969 -74.86 0.954969 -74.86 0.296697 -165.3
8.80120000 0.296699 -164.4 0.954968 -74.86 0.954968 -74.86 0.296699 -165.3
8.80140000 0.296701 -164.5 0.954967 -74.86 0.954967 -74.86 0.296701 -165.3
8.80160000 0.296704 -164.5 0.954966 -74.86 0.954966 -74.86 0.296703 -165.3
8.80180000 0.296706 -164.5 0.954966 -74.86 0.954966 -74.86 0.296706 -165.3
8.80200000 0.296708 -164.5 0.954965 -74.86 0.954965 -74.86 0.296708 -165.3
8.80220000 0.296710 -164.5 0.954964 -74.87 0.954964 -74.87 0.296710 -165.3
8.80240000 0.296712 -164.5 0.954964 -74.87 0.954964 -74.87 0.296712 -165.3
8.80260000 0.296715 -164.5 0.954963 -74.87 0.954963 -74.87 0.296714 -165.3
8.80280000 0.296717 -164.5 0.954962 -74.87 0.954962 -74.87 0.296717 -165.3
8.80300000 0.296719 -164.5 0.954962 -74.87 0.954962 -74.87 0.296719 -165.3
8.80320000 0.296721 -164.5 0.954961 -74.87 0.954961 -74.87 0.296721 -165.3
8.80340000 0.296724 -164.5 0.954960 -74.88 0.954960 -74.88 0.296723 -165.3
8.80360000 0.296726 -164.5 0.954960 -74.88 0.954960 -74.88 0.296725 -165.3
8.80380000 0.296728 -164.5 0.954959 -74.88 0.954959 -74.88 0.296728 -165.3
8.80400000 0.296730 -164.5 0.954958 -74.88 0.954958 -74.88 0.296730 -165.3
8.80420000 0.296732 -164.5 0.954958 -74.88 0.954958 -74.88 0.296732 -165.3
8.80440000 0.296735 -164.5 0.954957 -74.88 0.954957 -74.88 0.296734 -165.3
8.80460000 0.296737 -164.5 0.954956 -74.89 0.954956 -74.89 0.296737 -165.3
8.80480000 0.296739 -164.5 0.954955 -74.89 0.954955 -74.89 0.296739 -165.3
8.80500000 0.296741 -164.5 0.954955 -74.89 0.954955 -74.89 0.296741 -165.3
8.80520000 0.296743 -164.5 0.954954 -74.89 0.954954 -74.89 0.296743 -165.3
8.80540000 0.296746 -164.5 0.954953 -74.89 0.954953 -74.89 0.296745 -165.3
8.80560000 0.296748 -164.5 0.954953 -74.89 0.954953 -74.89 0.296748 -165.3
8.80580000 0.296750 -164.5 0.954952 -74.90 0.954952 -74.90 0.296750 -165.3
8.80600000 0.296752 -164.5 0.954951 -74.90 0.954951 -74.90 0.296752 -165.3
8.80620000 0.296754 -164.5 0.954951 -74.90 0.954951 -74.90 0.296754 -165.3
8.80640000 0.296757 -164.5 0.954950 -74.90 0.954950 -74.90 0.296756 -165.3
8.80660000 0.296759 -164.5 0.954949 -74.90 0.954949 -74.90 0.296759 -165.3
8.80680000 0.296761 -164.5 0.954949 -74.91 0.954949 -74.91 0.296761 -165.3
8.80700000 0.296763 -164.5 0.954948 -74.91 0.954948 -74.91 0.296763 -165.3
8.80720000 0.296765 -164.5 0.954947 -74.91 0.954947 -74.91 0.296765 -165.3
8.80740000 0.296768 -164.5 0.954947 -74.91 0.954947 -74.91 0.296767 -165.3
8.80760000 0.296770 -164.5 0.954946 -74.91 0.954946 -74.91 0.296769 -165.3
8.80780000 0.296772 -164.5 0.954945 -74.91 0.954945 -74.91 0.296772 -165.3
8.80800000 0.296774 -164.5 0.954945 -74.92 0.954945 -74.92 0.296774 -165.3
8.80820000 0.296776 -164.5 0.954944 -74.92 0.954944 -74.92 0.296776 -165.3
8.80840000 0.296778 -164.5 0.954943 -74.92 0.954943 -74.92 0.296778 -165.3
8.80860000 0.296781 -164.5 0.954943 -74.92 0.954943 -74.92 0.296780 -165.3
8.80880000 0.296783 -164.5 0.954942 -74.92 0.954942 -74.92 0.296783 -165.3
8.80900000 0.296785 -164.5 0.954941 -74.92 0.954941 -74.92 0.296785 -165.3
8.80920000 0.296787 -164.5 0.954941 -74.93 0.954941 -74.93 0.296787 -165.3
8.80940000 0.296789 -164.5 0.954940 -74.93 0.954940 -74.93 0.296789 -165.3
8.80960000 0.296792 -164.5 0.954939 -74.93 0.954939 -74.93 0.296791 -165.3
8.80980000 0.296794 -164.5 0.954938 -74.93 0.954938 -74.93 0.296793 -165.4
8.81000000 0.296796 -164.5 0.954938 -74.93 0.954938 -74.93 0.296796 -165.4
8.81020000 0.296798 -164.5 0.954937 -74.93 0.954937 -74.93 0.296798 -165.4
8.81040000 0.296800 -164.5 0.954936 -74.94 0.954936 -74.94 0.296800 -165.4
8.81060000 0.296802 -164.5 0.954936 -74.94 0.954936 -74.94 0.296802 -165.4
8.81080000 0.296805 -164.5 0.954935 -74.94 0.954935 -74.94 0.296804 -165.4
8.81100000 0.296807 -164.5 0.954934 -74.94 0.954934 -74.94 0.296806 -165.4
8.81120000 0.296809 -164.5 0.954934 -74.94 0.954934 -74.94 0.296809 -165.4
8.81140000 0.296811 -164.5 0.954933 -74.94 0.954933 -74.94 0.296811 -165.4
8.81160000 0.296813 -164.5 0.954932 -74.95 0.954932 -74.95 0.296813 -165.4
8.81180000 0.296815 -164.5 0.954932 -74.95 0.954932 -74.95 0.296815 -165.4
8.81200000 0.296818 -164.5 0.954931 -74.95 0.954931 -74.95 0.296817 -165.4
8.81220000 0.296820 -164.5 0.954930 -74.95 0.954930 -74.95 0.296819 -165.4
8.81240000 0.296822 -164.5 0.954930 -74.95 0.954930 -74.95 0.296822 -165.4
8.81260000 0.296824 -164.5 0.954929 -74.96 0.954929 -74.96 0.296824 -165.4
8.81280000 0.296826 -164.5 0.954928 -74.96 0.954928 -74.96 0.296826 -165.4
8.81300000 0.296828 -164.5 0.954928 -74.96 0.954928 -74.96 0.296828 -165.4
8.81320000 0.296830 -164.5 0.954927 -74.96 0.954927 -74.96 0.296830 -165.4
8.81340000 0.296833 -164.5 0.954926 -74.96 0.954926 -74.96 0.296832 -165.4
8.81360000 0.296835 -164.5 0.954926 -74.96 0.954926 -74.96 0.296834 -165.4
8.81380000 0.296837 -164.5 0.954925 -74.97 0.954925 -74.97 0.296837 -165.4
8.81400000 0.296839 -164.5 0.954924 -74.97 0.954924 -74.97 0.296839 -165.4
8.81420000 0.296841 -164.5 0.954924 -74.97 0.954924 -74.97 0.296841 -165.4
8.81440000 0.296843 -164.5 0.954923 -74.97 0.954923 -74.97 0.296843 -165.4
8.81460000 0.296846 -164.5 0.954922 -74.97 0.954922 -74.97 0.296845 -165.4
8.81480000 0.296848 -164.5 0.954922 -74.97 0.954922 -74.97 0.296847 -165.4
8.81500000 0.296850 -164.5 0.954921 -74.98 0.954921 -74.98 0.296849 -165.4
8.81520000 0.296852 -164.6 0.954920 -74.98 0.954920 -74.98 0.296852 -165.4
8.81540000 0.296854 -164.6 0.954920 -74.98 0.954920 -74.98 0.296854 -165.4
8.81560000 0.296856 -164.6 0.954919 -74.98 0.954919 -74.98 0.296856 -165.4
8.81580000 0.296858 -164.6 0.954918 -74.98 0.954918 -74.98 0.296858 -165.4
8.81600000 0.296860 -164.6 0.954918 -74.98 0.954918 -74.98 0.296860 -165.4
8.81620000 0.296863 -164.6 0.954917 -74.99 0.954917 -74.99 0.296862 -165.4
8.81640000 0.296865 -164.6 0.954916 -74.99 0.954916 -74.99 0.296864 -165.4
8.81660000 0.296867 -164.6 0.954916 -74.99 0.954916 -74.99 0.296867 -165.4
8.81680000 0.296869 -164.6 0.954915 -74.99 0.954915 -74.99 0.296869 -165.4
8.81700000 0.296871 -164.6 0.954914 -74.99 0.954914 -74.99 0.296871 -165.4
8.81720000 0.296873 -164.6 0.954914 -74.99 0.954914 -74.99 0.296873 -165.4
8.81740000 0.296875 -164.6 0.954913 -75.00 0.954913 -75.00 0.296875 -165.4
8.81760000 0.296877 -164.6 0.954912 -75.00 0.954912 -75.00 0.296877 -165.4
8.81780000 0.296880 -164.6 0.954912 -75.00 0.954912 -75.00 0.296879 -165.4
8.81800000 0.296882 -164.6 0.954911 -75.00 0.954911 -75.00 0.296881 -165.4
8.81820000 0.296884 -164.6 0.954910 -75.00 0.954910 -75.00 0.296883 -165.4
8.81840000 0.296886 -164.6 0.954910 -75.01 0.954910 -75.01 0.296886 -165.4
8.81860000 0.296888 -164.6 0.954909 -75.01 0.954909 -75.01 0.296888 -165.4
8.81880000 0.296890 -164.6 0.954908 -75.01 0.954908 -75.01 0.296890 -165.4
8.81900000 0.296892 -164.6 0.954908 -75.01 0.954908 -75.01 0.296892 -165.4
8.81920000 0.296894 -164.6 0.954907 -75.01 0.954907 -75.01 0.296894 -165.4
8.81940000 0.296896 -164.6 0.954907 -75.01 0.954907 -75.01 0.296896 -165.4
8.81960000 0.296899 -164.6 0.954906 -75.02 0.954906 -75.02 0.296898 -165.5
8.81980000 0.296901 -164.6 0.954905 -75.02 0.954905 -75.02 0.296900 -165.5
8.82000000 0.296903 -164.6 0.954905 -75.02 0.954905 -75.02 0.296902 -165.5
8.82020000 0.296905 -164.6 0.954904 -75.02 0.954904 -75.02 0.296905 -165.5
8.82040000 0.296907 -164.6 0.954903 -75.02 0.954903 -75.02 0.296907 -165.5
8.82060000 0.296909 -164.6 0.954903 -75.02 0.954903 -75.02 0.296909 -165.5
8.82080000 0.296911 -164.6 0.954902 -75.03 0.954902 -75.03 0.296911 -165.5
8.82100000 0.296913 -164.6 0.954901 -75.03 0.954901 -75.03 0.296913 -165.5
8.82120000 0.296915 -164.6 0.954901 -75.03 0.954901 -75.03 0.296915 -165.5
8.82140000 0.296917 -164.6 0.954900 -75.03 0.954900 -75.03 0.296917 -165.5
8.82160000 0.296920 -164.6 0.954899 -75.03 0.954899 -75.03 0.296919 -165.5
8.82180000 0.296922 -164.6 0.954899 -75.03 0.954899 -75.03 0.296921 -165.5
8.82200000 0.296924 -164.6 0.954898 -75.04 0.954898 -75.04 0.296923 -165.5
8.82220000 0.296926 -164.6 0.954897 -75.04 0.954897 -75.04 0.296925 -165.5
8.82240000 0.296928 -164.6 0.954897 -75.04 0.954897 -75.04 0.296927 -165.5
8.82260000 0.296930 -164.6 0.954896 -75.04 0.954896 -75.04 0.296930 -165.5
8.82280000 0.296932 -164.6 0.954895 -75.04 0.954895 -75.04 0.296932 -165.5
8.82300000 0.296934 -164.6 0.954895 -75.05 0.954895 -75.05 0.296934 -165.5
8.82320000 0.296936 -164.6 0.954894 -75.05 0.954894 -75.05 0.296936 -165.5
8.82340000 0.296938 -164.6 0.954894 -75.05 0.954894 -75.05 0.296938 -165.5
8.82360000 0.296940 -164.6 0.954893 -75.05 0.954893 -75.05 0.296940 -165.5
8.82380000 0.296942 -164.6 0.954892 -75.05 0.954892 -75.05 0.296942 -165.5
8.82400000 0.296944 -164.6 0.954892 -75.05 0.954892 -75.05 0.296944 -165.5
8.82420000 0.296946 -164.6 0.954891 -75.06 0.954891 -75.06 0.296946 -165.5
8.82440000 0.296949 -164.6 0.954890 -75.06 0.954890 -75.06 0.296948 -165.5
8.82460000 0.296951 -164.6 0.954890 -75.06 0.954890 -75.06 0.296950 -165.5
8.82480000 0.296953 -164.6 0.954889 -75.06 0.954889 -75.06 0.296952 -165.5
8.82500000 0.296955 -164.6 0.954888 -75.06 0.954888 -75.06 0.296954 -165.5
8.82520000 0.296957 -164.6 0.954888 -75.06 0.954888 -75.06 0.296956 -165.5
8.82540000 0.296959 -164.6 0.954887 -75.07 0.954887 -75.07 0.296958 -165.5
8.82560000 0.296961 -164.6 0.954886 -75.07 0.954886 -75.07 0.296961 -165.5
8.82580000 0.296963 -164.6 0.954886 -75.07 0.954886 -75.07 0.296963 -165.5
8.82600000 0.296965 -164.6 0.954885 -75.07 0.954885 -75.07 0.296965 -165.5
8.82620000 0.296967 -164.6 0.954885 -75.07 0.954885 -75.07 0.296967 -165.5
8.82640000 0.296969 -164.6 0.954884 -75.07 0.954884 -75.07 0.296969 -165.5
8.82660000 0.296971 -164.6 0.954883 -75.08 0.954883 -75.08 0.296971 -165.5
8.82680000 0.296973 -164.6 0.954883 -75.08 0.954883 -75.08 0.296973 -165.5
8.82700000 0.296975 -164.6 0.954882 -75.08 0.954882 -75.08 0.296975 -165.5
8.82720000 0.296977 -164.6 0.954881 -75.08 0.954881 -75.08 0.296977 -165.5
8.82740000 0.296979 -164.6 0.954881 -75.08 0.954881 -75.08 0.296979 -165.5
8.82760000 0.296981 -164.6 0.954880 -75.09 0.954880 -75.09 0.296981 -165.5
8.82780000 0.296983 -164.6 0.954879 -75.09 0.954879 -75.09 0.296983 -165.5
8.82800000 0.296985 -164.6 0.954879 -75.09 0.954879 -75.09 0.296985 -165.5
8.82820000 0.296987 -164.6 0.954878 -75.09 0.954878 -75.09 0.296987 -165.5
8.82840000 0.296989 -164.6 0.954878 -75.09 0.954878 -75.09 0.296989 -165.5
8.82860000 0.296991 -164.6 0.954877 -75.09 0.954877 -75.09 0.296991 -165.5
8.82880000 0.296993 -164.6 0.954876 -75.10 0.954876 -75.10 0.296993 -165.5
8.82900000 0.296995 -164.6 0.954876 -75.10 0.954876 -75.10 0.296995 -165.5
8.82920000 0.296998 -164.6 0.954875 -75.10 0.954875 -75.10 0.296997 -165.6
8.82940000 0.297000 -164.6 0.954874 -75.10 0.954874 -75.10 0.296999 -165.6
8.82960000 0.297002 -164.7 0.954874 -75.10 0.954874 -75.10 0.297001 -165.6
8.82980000 0.297004 -164.7 0.954873 -75.10 0.954873 -75.10 0.297003 -165.6
8.83000000 0.297006 -164.7 0.954873 -75.11 0.954873 -75.11 0.297005 -165.6
8.83020000 0.297008 -164.7 0.954872 -75.11 0.954872 -75.11 0.297007 -165.6
8.83040000 0.297010 -164.7 0.954871 -75.11 0.954871 -75.11 0.297009 -165.6
8.83060000 0.297012 -164.7 0.954871 -75.11 0.954871 -75.11 0.297011 -165.6
8.83080000 0.297014 -164.7 0.954870 -75.11 0.954870 -75.11 0.297013 -165.6
8.83100000 0.297016 -164.7 0.954869 -75.12 0.954869 -75.12 0.297015 -165.6
8.83120000 0.297018 -164.7 0.954869 -75.12 0.954869 -75.12 0.297017 -165.6
8.83140000 0.297020 -164.7 0.954868 -75.12 0.954868 -75.12 0.297019 -165.6
8.83160000 0.297022 -164.7 0.954868 -75.12 0.954868 -75.12 0.297021 -165.6
8.83180000 0.297024 -164.7 0.954867 -75.12 0.954867 -75.12 0.297023 -165.6
8.83200000 0.297026 -164.7 0.954866 -75.12 0.954866 -75.12 0.297025 -165.6
8.83220000 0.297027 -164.7 0.954866 -75.13 0.954866 -75.13 0.297027 -165.6
8.83240000 0.297029 -164.7 0.954865 -75.13 0.954865 -75.13 0.297029 -165.6
8.83260000 0.297031 -164.7 0.954865 -75.13 0.954865 -75.13 0.297031 -165.6
8.83280000 0.297033 -164.7 0.954864 -75.13 0.954864 -75.13 0.297033 -165.6
8.83300000 0.297035 -164.7 0.954863 -75.13 0.954863 -75.13 0.297035 -165.6
8.83320000 0.297037 -164.7 0.954863 -75.13 0.954863 -75.13 0.297037 -165.6
8.83340000 0.297039 -164.7 0.954862 -75.14 0.954862 -75.14 0.297039 -165.6
8.83360000 0.297041 -164.7 0.954861 -75.14 0.954861 -75.14 0.297041 -165.6
8.83380000 0.297043 -164.7 0.954861 -75.14 0.954861 -75.14 0.297043 -165.6
8.83400000 0.297045 -164.7 0.954860 -75.14 0.954860 -75.14 0.297045 -165.6
8.83420000 0.297047 -164.7 0.954860 -75.14 0.954860 -75.14 0.297047 -165.6
8.83440000 0.297049 -164.7 0.954859 -75.15 0.954859 -75.15 0.297049 -165.6
8.83460000 0.297051 -164.7 0.954858 -75.15 0.954858 -75.15 0.297051 -165.6
8.83480000 0.297053 -164.7 0.954858 -75.15 0.954858 -75.15 0.297053 -165.6
8.83500000 0.297055 -164.7 0.954857 -75.15 0.954857 -75.15 0.297055 -165.6
8.83520000 0.297057 -164.7 0.954857 -75.15 0.954857 -75.15 0.297057 -165.6
8.83540000 0.297059 -164.7 0.954856 -75.15 0.954856 -75.15 0.297058 -165.6
8.83560000 0.297061 -164.7 0.954855 -75.16 0.954855 -75.16 0.297060 -165.6
8.83580000 0.297063 -164.7 0.954855 -75.16 0.954855 -75.16 0.297062 -165.6
8.83600000 0.297065 -164.7 0.954854 -75.16 0.954854 -75.16 0.297064 -165.6
8.83620000 0.297067 -164.7 0.954854 -75.16 0.954854 -75.16 0.297066 -165.6
8.83640000 0.297069 -164.7 0.954853 -75.16 0.954853 -75.16 0.297068 -165.6
8.83660000 0.297071 -164.7 0.954852 -75.16 0.954852 -75.16 0.297070 -165.6
8.83680000 0.297072 -164.7 0.954852 -75.17 0.954852 -75.17 0.297072 -165.6
8.83700000 0.297074 -164.7 0.954851 -75.17 0.954851 -75.17 0.297074 -165.6
8.83720000 0.297076 -164.7 0.954851 -75.17 0.954851 -75.17 0.297076 -165.6
8.83740000 0.297078 -164.7 0.954850 -75.17 0.954850 -75.17 0.297078 -165.6
8.83760000 0.297080 -164.7 0.954849 -75.17 0.954849 -75.17 0.297080 -165.6
8.83780000 0.297082 -164.7 0.954849 -75.18 0.954849 -75.18 0.297082 -165.6
8.83800000 0.297084 -164.7 0.954848 -75.18 0.954848 -75.18 0.297084 -165.6
8.83820000 0.297086 -164.7 0.954848 -75.18 0.954848 -75.18 0.297085 -165.7
8.83840000 0.297088 -164.7 0.954847 -75.18 0.954847 -75.18 0.297087 -165.7
8.83860000 0.297090 -164.7 0.954846 -75.18 0.954846 -75.18 0.297089 -165.7
8.83880000 0.297092 -164.7 0.954846 -75.18 0.954846 -75.18 0.297091 -165.7
8.83900000 0.297094 -164.7 0.954845 -75.19 0.954845 -75.19 0.297093 -165.7
8.83920000 0.297095 -164.7 0.954845 -75.19 0.954845 -75.19 0.297095 -165.7
8.83940000 0.297097 -164.7 0.954844 -75.19 0.954844 -75.19 0.297097 -165.7
8.83960000 0.297099 -164.7 0.954843 -75.19 0.954843 -75.19 0.297099 -165.7
8.83980000 0.297101 -164.7 0.954843 -75.19 0.954843 -75.19 0.297101 -165.7
8.84000000 0.297103 -164.7 0.954842 -75.20 0.954842 -75.20 0.297102 -165.7
8.84020000 0.297105 -164.7 0.954842 -75.20 0.954842 -75.20 0.297104 -165.7
8.84040000 0.297107 -164.7 0.954841 -75.20 0.954841 -75.20 0.297106 -165.7
8.84060000 0.297109 -164.7 0.954840 -75.20 0.954840 -75.20 0.297108 -165.7
8.84080000 0.297111 -164.7 0.954840 -75.20 0.954840 -75.20 0.297110 -165.7
8.84100000 0.297112 -164.7 0.954839 -75.20 0.954839 -75.20 0.297112 -165.7
8.84120000 0.297114 -164.7 0.954839 -75.21 0.954839 -75.21 0.297114 -165.7
8.84140000 0.297116 -164.7 0.954838 -75.21 0.954838 -75.21 0.297116 -165.7
8.84160000 0.297118 -164.7 0.954838 -75.21 0.954838 -75.21 0.297117 -165.7
8.84180000 0.297120 -164.7 0.954837 -75.21 0.954837 -75.21 0.297119 -165.7
8.84200000 0.297122 -164.7 0.954836 -75.21 0.954836 -75.21 0.297121 -165.7
8.84220000 0.297124 -164.7 0.954836 -75.21 0.954836 -75.21 0.297123 -165.7
8.84240000 0.297125 -164.7 0.954835 -75.22 0.954835 -75.22 0.297125 -165.7
8.84260000 0.297127 -164.7 0.954835 -75.22 0.954835 -75.22 0.297127 -165.7
8.84280000 0.297129 -164.7 0.954834 -75.22 0.954834 -75.22 0.297129 -165.7
8.84300000 0.297131 -164.7 0.954834 -75.22 0.954834 -75.22 0.297130 -165.7
8.84320000 0.297133 -164.7 0.954833 -75.22 0.954833 -75.22 0.297132 -165.7
8.84340000 0.297135 -164.7 0.954832 -75.23 0.954832 -75.23 0.297134 -165.7
8.84360000 0.297136 -164.7 0.954832 -75.23 0.954832 -75.23 0.297136 -165.7
8.84380000 0.297138 -164.7 0.954831 -75.23 0.954831 -75.23 0.297138 -165.7
8.84400000 0.297140 -164.7 0.954831 -75.23 0.954831 -75.23 0.297140 -165.7
8.84420000 0.297142 -164.7 0.954830 -75.23 0.954830 -75.23 0.297141 -165.7
8.84440000 0.297144 -164.7 0.954830 -75.23 0.954830 -75.23 0.297143 -165.7
8.84460000 0.297146 -164.7 0.954829 -75.24 0.954829 -75.24 0.297145 -165.7
8.84480000 0.297147 -164.7 0.954828 -75.24 0.954828 -75.24 0.297147 -165.7
8.84500000 0.297149 -164.8 0.954828 -75.24 0.954828 -75.24 0.297149 -165.7
8.84520000 0.297151 -164.8 0.954827 -75.24 0.954827 -75.24 0.297150 -165.7
8.84540000 0.297153 -164.8 0.954827 -75.24 0.954827 -75.24 0.297152 -165.7
8.84560000 0.297155 -164.8 0.954826 -75.25 0.954826 -75.25 0.297154 -165.7
8.84580000 0.297156 -164.8 0.954826 -75.25 0.954826 -75.25 0.297156 -165.7
8.84600000 0.297158 -164.8 0.954825 -75.25 0.954825 -75.25 0.297158 -165.7
8.84620000 0.297160 -164.8 0.954824 -75.25 0.954824 -75.25 0.297159 -165.7
8.84640000 0.297162 -164.8 0.954824 -75.25 0.954824 -75.25 0.297161 -165.7
8.84660000 0.297164 -164.8 0.954823 -75.25 0.954823 -75.25 0.297163 -165.7
8.84680000 0.297165 -164.8 0.954823 -75.26 0.954823 -75.26 0.297165 -165.8
8.84700000 0.297167 -164.8 0.954822 -75.26 0.954822 -75.26 0.297166 -165.8
8.84720000 0.297169 -164.8 0.954822 -75.26 0.954822 -75.26 0.297168 -165.8
8.84740000 0.297171 -164.8 0.954821 -75.26 0.954821 -75.26 0.297170 -165.8
8.84760000 0.297172 -164.8 0.954821 -75.26 0.954821 -75.26 0.297172 -165.8
8.84780000 0.297174 -164.8 0.954820 -75.27 0.954820 -75.27 0.297173 -165.8
8.84800000 0.297176 -164.8 0.954820 -75.27 0.954820 -75.27 0.297175 -165.8
8.84820000 0.297178 -164.8 0.954819 -75.27 0.954819 -75.27 0.297177 -165.8
8.84840000 0.297179 -164.8 0.954818 -75.27 0.954818 -75.27 0.297179 -165.8
8.84860000 0.297181 -164.8 0.954818 -75.27 0.954818 -75.27 0.297180 -165.8
8.84880000 0.297183 -164.8 0.954817 -75.27 0.954817 -75.27 0.297182 -165.8
8.84900000 0.297185 -164.8 0.954817 -75.28 0.954817 -75.28 0.297184 -165.8
8.84920000 0.297186 -164.8 0.954816 -75.28 0.954816 -75.28 0.297186 -165.8
8.84940000 0.297188 -164.8 0.954816 -75.28 0.954816 -75.28 0.297187 -165.8
8.84960000 0.297190 -164.8 0.954815 -75.28 0.954815 -75.28 0.297189 -165.8
8.84980000 0.297191 -164.8 0.954815 -75.28 0.954815 -75.28 0.297191 -165.8
8.85000000 0.297193 -164.8 0.954814 -75.29 0.954814 -75.29 0.297193 -165.8
8.85020000 0.297195 -164.8 0.954814 -75.29 0.954814 -75.29 0.297194 -165.8
8.85040000 0.297197 -164.8 0.954813 -75.29 0.954813 -75.29 0.297196 -165.8
8.85060000 0.297198 -164.8 0.954813 -75.29 0.954813 -75.29 0.297198 -165.8
8.85080000 0.297200 -164.8 0.954812 -75.29 0.954812 -75.29 0.297199 -165.8
8.85100000 0.297202 -164.8 0.954811 -75.29 0.954811 -75.29 0.297201 -165.8
8.85120000 0.297203 -164.8 0.954811 -75.30 0.954811 -75.30 0.297203 -165.8
8.85140000 0.297205 -164.8 0.954810 -75.30 0.954810 -75.30 0.297204 -165.8
8.85160000 0.297207 -164.8 0.954810 -75.30 0.954810 -75.30 0.297206 -165.8
8.85180000 0.297208 -164.8 0.954809 -75.30 0.954809 -75.30 0.297208 -165.8
8.85200000 0.297210 -164.8 0.954809 -75.30 0.954809 -75.30 0.297209 -165.8
8.85220000 0.297212 -164.8 0.954808 -75.31 0.954808 -75.31 0.297211 -165.8
8.85240000 0.297213 -164.8 0.954808 -75.31 0.954808 -75.31 0.297213 -165.8
8.85260000 0.297215 -164.8 0.954807 -75.31 0.954807 -75.31 0.297214 -165.8
8.85280000 0.297217 -164.8 0.954807 -75.31 0.954807 -75.31 0.297216 -165.8
8.85300000 0.297218 -164.8 0.954806 -75.31 0.954806 -75.31 0.297218 -165.8
8.85320000 0.297220 -164.8 0.954806 -75.32 0.954806 -75.32 0.297219 -165.8
8.85340000 0.297222 -164.8 0.954805 -75.32 0.954805 -75.32 0.297221 -165.8
8.85360000 0.297223 -164.8 0.954805 -75.32 0.954805 -75.32 0.297223 -165.8
8.85380000 0.297225 -164.8 0.954804 -75.32 0.954804 -75.32 0.297224 -165.8
8.85400000 0.297227 -164.8 0.954804 -75.32 0.954804 -75.32 0.297226 -165.8
8.85420000 0.297228 -164.8 0.954803 -75.32 0.954803 -75.32 0.297228 -165.8
8.85440000 0.297230 -164.8 0.954803 -75.33 0.954803 -75.33 0.297229 -165.8
8.85460000 0.297231 -164.8 0.954802 -75.33 0.954802 -75.33 0.297231 -165.8
8.85480000 0.297233 -164.8 0.954802 -75.33 0.954802 -75.33 0.297232 -165.9
8.85500000 0.297235 -164.8 0.954801 -75.33 0.954801 -75.33 0.297234 -165.9
8.85520000 0.297236 -164.8 0.954801 -75.33 0.954801 -75.33 0.297236 -165.9
8.85540000 0.297238 -164.8 0.954800 -75.34 0.954800 -75.34 0.297237 -165.9
8.85560000 0.297239 -164.8 0.954800 -75.34 0.954800 -75.34 0.297239 -165.9
8.85580000 0.297241 -164.8 0.954799 -75.34 0.954799 -75.34 0.297240 -165.9
8.85600000 0.297243 -164.8 0.954799 -75.34 0.954799 -75.34 0.297242 -165.9
8.85620000 0.297244 -164.8 0.954798 -75.34 0.954798 -75.34 0.297243 -165.9
8.85640000 0.297246 -164.8 0.954798 -75.35 0.954798 -75.35 0.297245 -165.9
8.85660000 0.297247 -164.8 0.954797 -75.35 0.954797 -75.35 0.297247 -165.9
8.85680000 0.297249 -164.8 0.954797 -75.35 0.954797 -75.35 0.297248 -165.9
8.85700000 0.297250 -164.8 0.954796 -75.35 0.954796 -75.35 0.297250 -165.9
8.85720000 0.297252 -164.8 0.954796 -75.35 0.954796 -75.35 0.297251 -165.9
8.85740000 0.297254 -164.8 0.954795 -75.35 0.954795 -75.35 0.297253 -165.9
8.85760000 0.297255 -164.8 0.954795 -75.36 0.954795 -75.36 0.297254 -165.9
8.85780000 0.297257 -164.8 0.954794 -75.36 0.954794 -75.36 0.297256 -165.9
8.85800000 0.297258 -164.8 0.954794 -75.36 0.954794 -75.36 0.297257 -165.9
8.85820000 0.297260 -164.8 0.954793 -75.36 0.954793 -75.36 0.297259 -165.9
8.85840000 0.297261 -164.8 0.954793 -75.36 0.954793 -75.36 0.297260 -165.9
8.85860000 0.297263 -164.8 0.954792 -75.37 0.954792 -75.37 0.297262 -165.9
8.85880000 0.297264 -164.8 0.954792 -75.37 0.954792 -75.37 0.297263 -165.9
8.85900000 0.297266 -164.8 0.954791 -75.37 0.954791 -75.37 0.297265 -165.9
8.85920000 0.297267 -164.8 0.954791 -75.37 0.954791 -75.37 0.297266 -165.9
8.85940000 0.297269 -164.8 0.954791 -75.37 0.954791 -75.37 0.297268 -165.9
8.85960000 0.297270 -164.8 0.954790 -75.38 0.954790 -75.38 0.297269 -165.9
8.85980000 0.297272 -164.8 0.954790 -75.38 0.954790 -75.38 0.297271 -165.9
8.86000000 0.297273 -164.8 0.954789 -75.38 0.954789 -75.38 0.297272 -165.9
8.86020000 0.297275 -164.8 0.954789 -75.38 0.954789 -75.38 0.297274 -165.9
8.86040000 0.297276 -164.8 0.954788 -75.38 0.954788 -75.38 0.297275 -165.9
8.86060000 0.297277 -164.8 0.954788 -75.38 0.954788 -75.38 0.297277 -165.9
8.86080000 0.297279 -164.8 0.954787 -75.39 0.954787 -75.39 0.297278 -165.9
8.86100000 0.297280 -164.8 0.954787 -75.39 0.954787 -75.39 0.297279 -165.9
8.86120000 0.297282 -164.8 0.954786 -75.39 0.954786 -75.39 0.297281 -165.9
8.86140000 0.297283 -164.8 0.954786 -75.39 0.954786 -75.39 0.297282 -165.9
8.86160000 0.297285 -164.8 0.954786 -75.39 0.954786 -75.39 0.297284 -165.9
8.86180000 0.297286 -164.8 0.954785 -75.40 0.954785 -75.40 0.297285 -165.9
8.86200000 0.297287 -164.8 0.954785 -75.40 0.954785 -75.40 0.297286 -165.9
8.86220000 0.297289 -164.8 0.954784 -75.40 0.954784 -75.40 0.297288 -166.0
8.86240000 0.297290 -164.8 0.954784 -75.40 0.954784 -75.40 0.297289 -166.0
8.86260000 0.297292 -164.9 0.954783 -75.40 0.954783 -75.40 0.297291 -166.0
8.86280000 0.297293 -164.9 0.954783 -75.41 0.954783 -75.41 0.297292 -166.0
8.86300000 0.297294 -164.9 0.954782 -75.41 0.954782 -75.41 0.297293 -166.0
8.86320000 0.297296 -164.9 0.954782 -75.41 0.954782 -75.41 0.297295 -166.0
8.86340000 0.297297 -164.9 0.954782 -75.41 0.954782 -75.41 0.297296 -166.0
8.86360000 0.297298 -164.9 0.954781 -75.41 0.954781 -75.41 0.297297 -166.0
8.86380000 0.297300 -164.9 0.954781 -75.42 0.954781 -75.42 0.297299 -166.0
8.86400000 0.297301 -164.9 0.954780 -75.42 0.954780 -75.42 0.297300 -166.0
8.86420000 0.297302 -164.9 0.954780 -75.42 0.954780 -75.42 0.297301 -166.0
8.86440000 0.297304 -164.9 0.954780 -75.42 0.954780 -75.42 0.297303 -166.0
8.86460000 0.297305 -164.9 0.954779 -75.42 0.954779 -75.42 0.297304 -166.0
8.86480000 0.297306 -164.9 0.954779 -75.43 0.954779 -75.43 0.297305 -166.0
8.86500000 0.297308 -164.9 0.954778 -75.43 0.954778 -75.43 0.297307 -166.0
8.86520000 0.297309 -164.9 0.954778 -75.43 0.954778 -75.43 0.297308 -166.0
8.86540000 0.297310 -164.9 0.954778 -75.43 0.954778 -75.43 0.297309 -166.0
8.86560000 0.297312 -164.9 0.954777 -75.43 0.954777 -75.43 0.297310 -166.0
8.86580000 0.297313 -164.9 0.954777 -75.43 0.954777 -75.43 0.297312 -166.0
8.86600000 0.297314 -164.9 0.954776 -75.44 0.954776 -75.44 0.297313 -166.0
8.86620000 0.297315 -164.9 0.954776 -75.44 0.954776 -75.44 0.297314 -166.0
8.86640000 0.297317 -164.9 0.954776 -75.44 0.954776 -75.44 0.297315 -166.0
8.86660000 0.297318 -164.9 0.954775 -75.44 0.954775 -75.44 0.297317 -166.0
8.86680000 0.297319 -164.9 0.954775 -75.44 0.954775 -75.44 0.297318 -166.0
8.86700000 0.297320 -164.9 0.954774 -75.45 0.954774 -75.45 0.297319 -166.0
8.86720000 0.297321 -164.9 0.954774 -75.45 0.954774 -75.45 0.297320 -166.0
8.86740000 0.297323 -164.9 0.954774 -75.45 0.954774 -75.45 0.297321 -166.0
8.86760000 0.297324 -164.9 0.954773 -75.45 0.954773 -75.45 0.297323 -166.0
8.86780000 0.297325 -164.9 0.954773 -75.45 0.954773 -75.45 0.297324 -166.0
8.86800000 0.297326 -164.9 0.954773 -75.46 0.954773 -75.46 0.297325 -166.0
8.86820000 0.297327 -164.9 0.954772 -75.46 0.954772 -75.46 0.297326 -166.0
8.86840000 0.297328 -164.9 0.954772 -75.46 0.954772 -75.46 0.297327 -166.0
8.86860000 0.297330 -164.9 0.954771 -75.46 0.954771 -75.46 0.297328 -166.0
8.86880000 0.297331 -164.9 0.954771 -75.46 0.954771 -75.46 0.297330 -166.1
8.86900000 0.297332 -164.9 0.954771 -75.47 0.954771 -75.47 0.297331 -166.1
8.86920000 0.297333 -164.9 0.954770 -75.47 0.954770 -75.47 0.297332 -166.1
8.86940000 0.297334 -164.9 0.954770 -75.47 0.954770 -75.47 0.297333 -166.1
8.86960000 0.297335 -164.9 0.954770 -75.47 0.954770 -75.47 0.297334 -166.1
8.86980000 0.297336 -164.9 0.954769 -75.47 0.954769 -75.47 0.297335 -166.1
8.87000000 0.297337 -164.9 0.954769 -75.48 0.954769 -75.48 0.297336 -166.1
8.87020000 0.297338 -164.9 0.954769 -75.48 0.954769 -75.48 0.297337 -166.1
8.87040000 0.297340 -164.9 0.954768 -75.48 0.954768 -75.48 0.297338 -166.1
8.87060000 0.297341 -164.9 0.954768 -75.48 0.954768 -75.48 0.297339 -166.1
8.87080000 0.297342 -164.9 0.954768 -75.48 0.954768 -75.48 0.297340 -166.1
8.87100000 0.297343 -164.9 0.954767 -75.49 0.954767 -75.49 0.297341 -166.1
8.87120000 0.297344 -164.9 0.954767 -75.49 0.954767 -75.49 0.297342 -166.1
8.87140000 0.297345 -164.9 0.954767 -75.49 0.954767 -75.49 0.297343 -166.1
8.87160000 0.297346 -164.9 0.954766 -75.49 0.954766 -75.49 0.297344 -166.1
8.87180000 0.297347 -164.9 0.954766 -75.49 0.954766 -75.49 0.297345 -166.1
8.87200000 0.297348 -164.9 0.954766 -75.50 0.954766 -75.50 0.297346 -166.1
8.87220000 0.297349 -164.9 0.954765 -75.50 0.954765 -75.50 0.297347 -166.1
8.87240000 0.297350 -164.9 0.954765 -75.50 0.954765 -75.50 0.297348 -166.1
8.87260000 0.297350 -164.9 0.954765 -75.50 0.954765 -75.50 0.297349 -166.1
8.87280000 0.297351 -164.9 0.954765 -75.50 0.954765 -75.50 0.297350 -166.1
8.87300000 0.297352 -164.9 0.954764 -75.51 0.954764 -75.51 0.297351 -166.1
8.87320000 0.297353 -164.9 0.954764 -75.51 0.954764 -75.51 0.297352 -166.1
8.87340000 0.297354 -164.9 0.954764 -75.51 0.954764 -75.51 0.297353 -166.1
8.87360000 0.297355 -164.9 0.954763 -75.51 0.954763 -75.51 0.297354 -166.1
8.87380000 0.297356 -164.9 0.954763 -75.52 0.954763 -75.52 0.297354 -166.1
8.87400000 0.297357 -164.9 0.954763 -75.52 0.954763 -75.52 0.297355 -166.1
8.87420000 0.297358 -164.9 0.954763 -75.52 0.954763 -75.52 0.297356 -166.1
8.87440000 0.297358 -164.9 0.954762 -75.52 0.954762 -75.52 0.297357 -166.1
8.87460000 0.297359 -164.9 0.954762 -75.52 0.954762 -75.52 0.297358 -166.1
8.87480000 0.297360 -164.9 0.954762 -75.53 0.954762 -75.53 0.297359 -166.2
8.87500000 0.297361 -164.9 0.954762 -75.53 0.954762 -75.53 0.297359 -166.2
8.87520000 0.297362 -164.9 0.954761 -75.53 0.954761 -75.53 0.297360 -166.2
8.87540000 0.297362 -164.9 0.954761 -75.53 0.954761 -75.53 0.297361 -166.2
8.87560000 0.297363 -164.9 0.954761 -75.53 0.954761 -75.53 0.297362 -166.2
8.87580000 0.297364 -164.9 0.954761 -75.54 0.954761 -75.54 0.297362 -166.2
8.87600000 0.297365 -164.9 0.954760 -75.54 0.954760 -75.54 0.297363 -166.2
8.87620000 0.297365 -164.9 0.954760 -75.54 0.954760 -75.54 0.297364 -166.2
8.87640000 0.297366 -164.9 0.954760 -75.54 0.954760 -75.54 0.297364 -166.2
8.87660000 0.297367 -164.9 0.954760 -75.54 0.954760 -75.54 0.297365 -166.2
8.87680000 0.297367 -164.9 0.954759 -75.55 0.954759 -75.55 0.297366 -166.2
8.87700000 0.297368 -164.9 0.954759 -75.55 0.954759 -75.55 0.297366 -166.2
8.87720000 0.297369 -164.9 0.954759 -75.55 0.954759 -75.55 0.297367 -166.2
8.87740000 0.297369 -164.9 0.954759 -75.55 0.954759 -75.55 0.297368 -166.2
8.87760000 0.297370 -164.9 0.954759 -75.55 0.954759 -75.55 0.297368 -166.2
8.87780000 0.297370 -164.9 0.954758 -75.56 0.954758 -75.56 0.297369 -166.2
8.87800000 0.297371 -164.9 0.954758 -75.56 0.954758 -75.56 0.297369 -166.2
8.87820000 0.297372 -164.9 0.954758 -75.56 0.954758 -75.56 0.297370 -166.2
8.87840000 0.297372 -164.9 0.954758 -75.56 0.954758 -75.56 0.297370 -166.2