! Sonnet Data File
! From: emgraph Version : 16.52
! From Project: Resonator2
! Data is De-embedded 
! Data File Written: 10/05/2017 10:46:05
!< HDATE 10/04/2017 20:26:48
!< MDATE 10/05/2017 00:36:07
!< PARAMS
!< gap = 26.0
!< Length = 400.0
!< Pwid1 = 2000.0
!< Pwid2 = 2000.0
!< END PARAMS
# GHZ S MA R 50.00000
8.80000000 0.285458 -164.4 0.958388 -75.56 0.958388 -75.56 0.285457 -166.7
!< P1 F=8.8 Eeff=(5.36817953 -2.3731e-5) Z0=(35.9853883 8.0522e-5) R=0.0 C=0.0 
!< P2 F=8.8 Eeff=(5.36817953 -2.3731e-5) Z0=(35.9853883 8.0522e-5) R=0.0 C=0.0 
8.80020000 0.285456 -164.4 0.958388 -75.56 0.958388 -75.56 0.285455 -166.7
8.80040000 0.285454 -164.4 0.958389 -75.56 0.958389 -75.56 0.285453 -166.7
8.80060000 0.285451 -164.4 0.958390 -75.56 0.958390 -75.56 0.285450 -166.7
8.80080000 0.285449 -164.4 0.958390 -75.57 0.958390 -75.57 0.285448 -166.7
8.80100000 0.285447 -164.4 0.958391 -75.57 0.958391 -75.57 0.285446 -166.7
8.80120000 0.285445 -164.4 0.958391 -75.57 0.958391 -75.57 0.285444 -166.7
8.80140000 0.285442 -164.4 0.958392 -75.57 0.958392 -75.57 0.285441 -166.7
8.80160000 0.285440 -164.4 0.958393 -75.57 0.958393 -75.57 0.285439 -166.7
8.80180000 0.285438 -164.4 0.958394 -75.58 0.958394 -75.58 0.285437 -166.7
8.80200000 0.285436 -164.4 0.958394 -75.58 0.958394 -75.58 0.285435 -166.7
8.80220000 0.285433 -164.4 0.958395 -75.58 0.958395 -75.58 0.285432 -166.7
8.80240000 0.285431 -164.4 0.958396 -75.58 0.958396 -75.58 0.285430 -166.7
8.80260000 0.285429 -164.4 0.958396 -75.59 0.958396 -75.59 0.285428 -166.7
8.80280000 0.285426 -164.4 0.958397 -75.59 0.958397 -75.59 0.285425 -166.7
8.80300000 0.285424 -164.4 0.958398 -75.59 0.958398 -75.59 0.285423 -166.7
8.80320000 0.285421 -164.4 0.958398 -75.59 0.958398 -75.59 0.285420 -166.7
8.80340000 0.285419 -164.4 0.958399 -75.59 0.958399 -75.59 0.285418 -166.8
8.80360000 0.285416 -164.4 0.958400 -75.60 0.958400 -75.60 0.285415 -166.8
8.80380000 0.285414 -164.4 0.958401 -75.60 0.958401 -75.60 0.285413 -166.8
8.80400000 0.285411 -164.4 0.958401 -75.60 0.958401 -75.60 0.285410 -166.8
8.80420000 0.285409 -164.4 0.958402 -75.60 0.958402 -75.60 0.285408 -166.8
8.80440000 0.285406 -164.4 0.958403 -75.60 0.958403 -75.60 0.285405 -166.8
8.80460000 0.285404 -164.4 0.958404 -75.61 0.958404 -75.61 0.285403 -166.8
8.80480000 0.285401 -164.4 0.958404 -75.61 0.958404 -75.61 0.285400 -166.8
8.80500000 0.285399 -164.4 0.958405 -75.61 0.958405 -75.61 0.285398 -166.8
8.80520000 0.285396 -164.4 0.958406 -75.61 0.958406 -75.61 0.285395 -166.8
8.80540000 0.285394 -164.4 0.958407 -75.61 0.958407 -75.61 0.285392 -166.8
8.80560000 0.285391 -164.4 0.958407 -75.62 0.958407 -75.62 0.285390 -166.8
8.80580000 0.285388 -164.4 0.958408 -75.62 0.958408 -75.62 0.285387 -166.8
8.80600000 0.285386 -164.4 0.958409 -75.62 0.958409 -75.62 0.285384 -166.8
8.80620000 0.285383 -164.4 0.958410 -75.62 0.958410 -75.62 0.285382 -166.8
8.80640000 0.285380 -164.4 0.958411 -75.62 0.958411 -75.62 0.285379 -166.8
8.80660000 0.285377 -164.5 0.958411 -75.63 0.958411 -75.63 0.285376 -166.8
8.80680000 0.285375 -164.5 0.958412 -75.63 0.958412 -75.63 0.285374 -166.8
8.80700000 0.285372 -164.5 0.958413 -75.63 0.958413 -75.63 0.285371 -166.8
8.80720000 0.285369 -164.5 0.958414 -75.63 0.958414 -75.63 0.285368 -166.8
8.80740000 0.285366 -164.5 0.958415 -75.64 0.958415 -75.64 0.285365 -166.8
8.80760000 0.285363 -164.5 0.958416 -75.64 0.958416 -75.64 0.285362 -166.8
8.80780000 0.285361 -164.5 0.958416 -75.64 0.958416 -75.64 0.285359 -166.8
8.80800000 0.285358 -164.5 0.958417 -75.64 0.958417 -75.64 0.285357 -166.8
8.80820000 0.285355 -164.5 0.958418 -75.64 0.958418 -75.64 0.285354 -166.8
8.80840000 0.285352 -164.5 0.958419 -75.65 0.958419 -75.65 0.285351 -166.8
8.80860000 0.285349 -164.5 0.958420 -75.65 0.958420 -75.65 0.285348 -166.8
8.80880000 0.285346 -164.5 0.958421 -75.65 0.958421 -75.65 0.285345 -166.8
8.80900000 0.285343 -164.5 0.958422 -75.65 0.958422 -75.65 0.285342 -166.8
8.80920000 0.285340 -164.5 0.958423 -75.65 0.958423 -75.65 0.285339 -166.8
8.80940000 0.285337 -164.5 0.958423 -75.66 0.958423 -75.66 0.285336 -166.9
8.80960000 0.285334 -164.5 0.958424 -75.66 0.958424 -75.66 0.285333 -166.9
8.80980000 0.285331 -164.5 0.958425 -75.66 0.958425 -75.66 0.285330 -166.9
8.81000000 0.285328 -164.5 0.958426 -75.66 0.958426 -75.66 0.285326 -166.9
8.81020000 0.285325 -164.5 0.958427 -75.67 0.958427 -75.67 0.285323 -166.9
8.81040000 0.285321 -164.5 0.958428 -75.67 0.958428 -75.67 0.285320 -166.9
8.81060000 0.285318 -164.5 0.958429 -75.67 0.958429 -75.67 0.285317 -166.9
8.81080000 0.285315 -164.5 0.958430 -75.67 0.958430 -75.67 0.285314 -166.9
8.81100000 0.285312 -164.5 0.958431 -75.67 0.958431 -75.67 0.285311 -166.9
8.81120000 0.285309 -164.5 0.958432 -75.68 0.958432 -75.68 0.285307 -166.9
8.81140000 0.285305 -164.5 0.958433 -75.68 0.958433 -75.68 0.285304 -166.9
8.81160000 0.285302 -164.5 0.958434 -75.68 0.958434 -75.68 0.285301 -166.9
8.81180000 0.285299 -164.5 0.958435 -75.68 0.958435 -75.68 0.285298 -166.9
8.81200000 0.285295 -164.5 0.958436 -75.68 0.958436 -75.68 0.285294 -166.9
8.81220000 0.285292 -164.5 0.958437 -75.69 0.958437 -75.69 0.285291 -166.9
8.81240000 0.285289 -164.5 0.958438 -75.69 0.958438 -75.69 0.285287 -166.9
8.81260000 0.285285 -164.5 0.958439 -75.69 0.958439 -75.69 0.285284 -166.9
8.81280000 0.285282 -164.5 0.958440 -75.69 0.958440 -75.69 0.285281 -166.9
8.81300000 0.285278 -164.5 0.958441 -75.70 0.958441 -75.70 0.285277 -166.9
8.81320000 0.285275 -164.5 0.958442 -75.70 0.958442 -75.70 0.285274 -166.9
8.81340000 0.285271 -164.5 0.958443 -75.70 0.958443 -75.70 0.285270 -166.9
8.81360000 0.285268 -164.5 0.958444 -75.70 0.958444 -75.70 0.285267 -166.9
8.81380000 0.285264 -164.5 0.958445 -75.70 0.958445 -75.70 0.285263 -166.9
8.81400000 0.285261 -164.5 0.958446 -75.71 0.958446 -75.71 0.285260 -166.9
8.81420000 0.285257 -164.5 0.958447 -75.71 0.958447 -75.71 0.285256 -166.9
8.81440000 0.285254 -164.5 0.958448 -75.71 0.958448 -75.71 0.285252 -166.9
8.81460000 0.285250 -164.5 0.958449 -75.71 0.958449 -75.71 0.285249 -166.9
8.81480000 0.285246 -164.5 0.958450 -75.72 0.958450 -75.72 0.285245 -166.9
8.81500000 0.285243 -164.5 0.958451 -75.72 0.958451 -75.72 0.285241 -166.9
8.81520000 0.285239 -164.5 0.958452 -75.72 0.958452 -75.72 0.285237 -167.0
8.81540000 0.285235 -164.5 0.958454 -75.72 0.958454 -75.72 0.285234 -167.0
8.81560000 0.285231 -164.5 0.958455 -75.72 0.958455 -75.72 0.285230 -167.0
8.81580000 0.285227 -164.5 0.958456 -75.73 0.958456 -75.73 0.285226 -167.0
8.81600000 0.285224 -164.5 0.958457 -75.73 0.958457 -75.73 0.285222 -167.0
8.81620000 0.285220 -164.5 0.958458 -75.73 0.958458 -75.73 0.285218 -167.0
8.81640000 0.285216 -164.5 0.958459 -75.73 0.958459 -75.73 0.285215 -167.0
8.81660000 0.285212 -164.5 0.958460 -75.73 0.958460 -75.73 0.285211 -167.0
8.81680000 0.285208 -164.5 0.958462 -75.74 0.958462 -75.74 0.285207 -167.0
8.81700000 0.285204 -164.5 0.958463 -75.74 0.958463 -75.74 0.285203 -167.0
8.81720000 0.285200 -164.5 0.958464 -75.74 0.958464 -75.74 0.285199 -167.0
8.81740000 0.285196 -164.5 0.958465 -75.74 0.958465 -75.74 0.285195 -167.0
8.81760000 0.285192 -164.5 0.958466 -75.75 0.958466 -75.75 0.285191 -167.0
8.81780000 0.285188 -164.5 0.958468 -75.75 0.958468 -75.75 0.285186 -167.0
8.81800000 0.285184 -164.5 0.958469 -75.75 0.958469 -75.75 0.285182 -167.0
8.81820000 0.285180 -164.5 0.958470 -75.75 0.958470 -75.75 0.285178 -167.0
8.81840000 0.285175 -164.5 0.958471 -75.75 0.958471 -75.75 0.285174 -167.0
8.81860000 0.285171 -164.5 0.958473 -75.76 0.958473 -75.76 0.285170 -167.0
8.81880000 0.285167 -164.5 0.958474 -75.76 0.958474 -75.76 0.285166 -167.0
8.81900000 0.285163 -164.5 0.958475 -75.76 0.958475 -75.76 0.285161 -167.0
8.81920000 0.285158 -164.5 0.958476 -75.76 0.958476 -75.76 0.285157 -167.0
8.81940000 0.285154 -164.5 0.958478 -75.77 0.958478 -75.77 0.285153 -167.0
8.81960000 0.285150 -164.5 0.958479 -75.77 0.958479 -75.77 0.285148 -167.0
8.81980000 0.285145 -164.5 0.958480 -75.77 0.958480 -75.77 0.285144 -167.0
8.82000000 0.285141 -164.5 0.958481 -75.77 0.958481 -75.77 0.285139 -167.0
8.82020000 0.285137 -164.5 0.958483 -75.78 0.958483 -75.78 0.285135 -167.0
8.82040000 0.285132 -164.5 0.958484 -75.78 0.958484 -75.78 0.285131 -167.1
8.82060000 0.285128 -164.5 0.958485 -75.78 0.958485 -75.78 0.285126 -167.1
8.82080000 0.285123 -164.5 0.958487 -75.78 0.958487 -75.78 0.285121 -167.1
8.82100000 0.285118 -164.5 0.958488 -75.78 0.958488 -75.78 0.285117 -167.1
8.82120000 0.285114 -164.5 0.958490 -75.79 0.958490 -75.79 0.285112 -167.1
8.82140000 0.285109 -164.5 0.958491 -75.79 0.958491 -75.79 0.285108 -167.1
8.82160000 0.285105 -164.5 0.958492 -75.79 0.958492 -75.79 0.285103 -167.1
8.82180000 0.285100 -164.5 0.958494 -75.79 0.958494 -75.79 0.285098 -167.1
8.82200000 0.285095 -164.5 0.958495 -75.80 0.958495 -75.80 0.285093 -167.1
8.82220000 0.285090 -164.5 0.958496 -75.80 0.958496 -75.80 0.285089 -167.1
8.82240000 0.285085 -164.5 0.958498 -75.80 0.958498 -75.80 0.285084 -167.1
8.82260000 0.285081 -164.5 0.958499 -75.80 0.958499 -75.80 0.285079 -167.1
8.82280000 0.285076 -164.5 0.958501 -75.80 0.958501 -75.80 0.285074 -167.1
8.82300000 0.285071 -164.5 0.958502 -75.81 0.958502 -75.81 0.285069 -167.1
8.82320000 0.285066 -164.5 0.958504 -75.81 0.958504 -75.81 0.285064 -167.1
8.82340000 0.285061 -164.5 0.958505 -75.81 0.958505 -75.81 0.285059 -167.1
8.82360000 0.285056 -164.5 0.958507 -75.81 0.958507 -75.81 0.285054 -167.1
8.82380000 0.285051 -164.5 0.958508 -75.82 0.958508 -75.82 0.285049 -167.1
8.82400000 0.285046 -164.5 0.958510 -75.82 0.958510 -75.82 0.285044 -167.1
8.82420000 0.285041 -164.5 0.958511 -75.82 0.958511 -75.82 0.285039 -167.1
8.82440000 0.285036 -164.5 0.958513 -75.82 0.958513 -75.82 0.285034 -167.1
8.82460000 0.285030 -164.5 0.958514 -75.83 0.958514 -75.83 0.285029 -167.1
8.82480000 0.285025 -164.5 0.958516 -75.83 0.958516 -75.83 0.285023 -167.1
8.82500000 0.285020 -164.5 0.958517 -75.83 0.958517 -75.83 0.285018 -167.1
8.82520000 0.285015 -164.5 0.958519 -75.83 0.958519 -75.83 0.285013 -167.1
8.82540000 0.285009 -164.5 0.958521 -75.83 0.958521 -75.83 0.285007 -167.2
8.82560000 0.285004 -164.5 0.958522 -75.84 0.958522 -75.84 0.285002 -167.2
8.82580000 0.284998 -164.5 0.958524 -75.84 0.958524 -75.84 0.284997 -167.2
8.82600000 0.284993 -164.5 0.958525 -75.84 0.958525 -75.84 0.284991 -167.2
8.82620000 0.284987 -164.5 0.958527 -75.84 0.958527 -75.84 0.284986 -167.2
8.82640000 0.284982 -164.5 0.958529 -75.85 0.958529 -75.85 0.284980 -167.2
8.82660000 0.284976 -164.5 0.958530 -75.85 0.958530 -75.85 0.284975 -167.2
8.82680000 0.284971 -164.5 0.958532 -75.85 0.958532 -75.85 0.284969 -167.2
8.82700000 0.284965 -164.5 0.958534 -75.85 0.958534 -75.85 0.284963 -167.2
8.82720000 0.284959 -164.5 0.958535 -75.86 0.958535 -75.86 0.284958 -167.2
8.82740000 0.284954 -164.5 0.958537 -75.86 0.958537 -75.86 0.284952 -167.2
8.82760000 0.284948 -164.5 0.958539 -75.86 0.958539 -75.86 0.284946 -167.2
8.82780000 0.284942 -164.5 0.958540 -75.86 0.958540 -75.86 0.284940 -167.2
8.82800000 0.284936 -164.5 0.958542 -75.87 0.958542 -75.87 0.284934 -167.2
8.82820000 0.284930 -164.5 0.958544 -75.87 0.958544 -75.87 0.284929 -167.2
8.82840000 0.284924 -164.5 0.958546 -75.87 0.958546 -75.87 0.284923 -167.2
8.82860000 0.284918 -164.5 0.958547 -75.87 0.958547 -75.87 0.284917 -167.2
8.82880000 0.284912 -164.5 0.958549 -75.88 0.958549 -75.88 0.284911 -167.2
8.82900000 0.284906 -164.5 0.958551 -75.88 0.958551 -75.88 0.284904 -167.2
8.82920000 0.284900 -164.5 0.958553 -75.88 0.958553 -75.88 0.284898 -167.2
8.82940000 0.284894 -164.5 0.958555 -75.88 0.958555 -75.88 0.284892 -167.2
8.82960000 0.284888 -164.5 0.958556 -75.88 0.958556 -75.88 0.284886 -167.2
8.82980000 0.284882 -164.5 0.958558 -75.89 0.958558 -75.89 0.284880 -167.2
8.83000000 0.284875 -164.5 0.958560 -75.89 0.958560 -75.89 0.284873 -167.3
8.83020000 0.284869 -164.5 0.958562 -75.89 0.958562 -75.89 0.284867 -167.3
8.83040000 0.284863 -164.5 0.958564 -75.89 0.958564 -75.89 0.284861 -167.3
8.83060000 0.284856 -164.5 0.958566 -75.90 0.958566 -75.90 0.284854 -167.3
8.83080000 0.284850 -164.5 0.958568 -75.90 0.958568 -75.90 0.284848 -167.3
8.83100000 0.284843 -164.5 0.958570 -75.90 0.958570 -75.90 0.284841 -167.3
8.83120000 0.284837 -164.5 0.958572 -75.90 0.958572 -75.90 0.284835 -167.3
8.83140000 0.284830 -164.5 0.958574 -75.91 0.958574 -75.91 0.284828 -167.3
8.83160000 0.284823 -164.5 0.958576 -75.91 0.958576 -75.91 0.284821 -167.3
8.83180000 0.284817 -164.5 0.958578 -75.91 0.958578 -75.91 0.284815 -167.3
8.83200000 0.284810 -164.5 0.958580 -75.91 0.958580 -75.91 0.284808 -167.3
8.83220000 0.284803 -164.5 0.958582 -75.92 0.958582 -75.92 0.284801 -167.3
8.83240000 0.284796 -164.5 0.958584 -75.92 0.958584 -75.92 0.284794 -167.3
8.83260000 0.284789 -164.5 0.958586 -75.92 0.958586 -75.92 0.284787 -167.3
8.83280000 0.284782 -164.5 0.958588 -75.92 0.958588 -75.92 0.284780 -167.3
8.83300000 0.284775 -164.5 0.958590 -75.93 0.958590 -75.93 0.284773 -167.3
8.83320000 0.284768 -164.5 0.958592 -75.93 0.958592 -75.93 0.284766 -167.3
8.83340000 0.284761 -164.5 0.958594 -75.93 0.958594 -75.93 0.284759 -167.3
8.83360000 0.284754 -164.5 0.958596 -75.93 0.958596 -75.93 0.284752 -167.3
8.83380000 0.284747 -164.5 0.958598 -75.94 0.958598 -75.94 0.284745 -167.3
8.83400000 0.284740 -164.5 0.958600 -75.94 0.958600 -75.94 0.284737 -167.3
8.83420000 0.284732 -164.5 0.958603 -75.94 0.958603 -75.94 0.284730 -167.3
8.83440000 0.284725 -164.5 0.958605 -75.94 0.958605 -75.94 0.284723 -167.4
8.83460000 0.284718 -164.5 0.958607 -75.95 0.958607 -75.95 0.284715 -167.4
8.83480000 0.284710 -164.5 0.958609 -75.95 0.958609 -75.95 0.284708 -167.4
8.83500000 0.284702 -164.5 0.958611 -75.95 0.958611 -75.95 0.284700 -167.4
8.83520000 0.284695 -164.5 0.958614 -75.95 0.958614 -75.95 0.284693 -167.4
8.83540000 0.284687 -164.5 0.958616 -75.96 0.958616 -75.96 0.284685 -167.4
8.83560000 0.284680 -164.5 0.958618 -75.96 0.958618 -75.96 0.284677 -167.4
8.83580000 0.284672 -164.5 0.958620 -75.96 0.958620 -75.96 0.284669 -167.4
8.83600000 0.284664 -164.5 0.958623 -75.96 0.958623 -75.96 0.284662 -167.4
8.83620000 0.284656 -164.5 0.958625 -75.97 0.958625 -75.97 0.284654 -167.4
8.83640000 0.284648 -164.5 0.958627 -75.97 0.958627 -75.97 0.284646 -167.4
8.83660000 0.284640 -164.5 0.958630 -75.97 0.958630 -75.97 0.284638 -167.4
8.83680000 0.284632 -164.5 0.958632 -75.97 0.958632 -75.97 0.284630 -167.4
8.83700000 0.284624 -164.5 0.958635 -75.98 0.958635 -75.98 0.284622 -167.4
8.83720000 0.284616 -164.5 0.958637 -75.98 0.958637 -75.98 0.284613 -167.4
8.83740000 0.284608 -164.5 0.958639 -75.98 0.958639 -75.98 0.284605 -167.4
8.83760000 0.284599 -164.5 0.958642 -75.99 0.958642 -75.99 0.284597 -167.4
8.83780000 0.284591 -164.5 0.958644 -75.99 0.958644 -75.99 0.284588 -167.4
8.83800000 0.284583 -164.5 0.958647 -75.99 0.958647 -75.99 0.284580 -167.4
8.83820000 0.284574 -164.5 0.958649 -75.99 0.958649 -75.99 0.284572 -167.4
8.83840000 0.284565 -164.5 0.958652 -76.00 0.958652 -76.00 0.284563 -167.5
8.83860000 0.284557 -164.5 0.958654 -76.00 0.958654 -76.00 0.284554 -167.5
8.83880000 0.284548 -164.5 0.958657 -76.00 0.958657 -76.00 0.284546 -167.5
8.83900000 0.284539 -164.5 0.958660 -76.00 0.958660 -76.00 0.284537 -167.5
8.83920000 0.284531 -164.5 0.958662 -76.01 0.958662 -76.01 0.284528 -167.5
8.83940000 0.284522 -164.5 0.958665 -76.01 0.958665 -76.01 0.284519 -167.5
8.83960000 0.284513 -164.5 0.958667 -76.01 0.958667 -76.01 0.284510 -167.5
8.83980000 0.284504 -164.5 0.958670 -76.01 0.958670 -76.01 0.284501 -167.5
8.84000000 0.284495 -164.5 0.958673 -76.02 0.958673 -76.02 0.284492 -167.5
8.84020000 0.284486 -164.5 0.958676 -76.02 0.958676 -76.02 0.284483 -167.5
8.84040000 0.284476 -164.5 0.958678 -76.02 0.958678 -76.02 0.284474 -167.5
8.84060000 0.284467 -164.5 0.958681 -76.03 0.958681 -76.03 0.284464 -167.5
8.84080000 0.284458 -164.5 0.958684 -76.03 0.958684 -76.03 0.284455 -167.5
8.84100000 0.284448 -164.5 0.958687 -76.03 0.958687 -76.03 0.284446 -167.5
8.84120000 0.284439 -164.5 0.958689 -76.03 0.958689 -76.03 0.284436 -167.5
8.84140000 0.284429 -164.5 0.958692 -76.04 0.958692 -76.04 0.284426 -167.5
8.84160000 0.284420 -164.5 0.958695 -76.04 0.958695 -76.04 0.284417 -167.5
8.84180000 0.284410 -164.5 0.958698 -76.04 0.958698 -76.04 0.284407 -167.5
8.84200000 0.284400 -164.5 0.958701 -76.04 0.958701 -76.04 0.284397 -167.6
8.84220000 0.284390 -164.5 0.958704 -76.05 0.958704 -76.05 0.284387 -167.6
8.84240000 0.284380 -164.5 0.958707 -76.05 0.958707 -76.05 0.284377 -167.6
8.84260000 0.284370 -164.5 0.958710 -76.05 0.958710 -76.05 0.284367 -167.6
8.84280000 0.284360 -164.5 0.958713 -76.06 0.958713 -76.06 0.284357 -167.6
8.84300000 0.284350 -164.5 0.958716 -76.06 0.958716 -76.06 0.284347 -167.6
8.84320000 0.284340 -164.5 0.958719 -76.06 0.958719 -76.06 0.284337 -167.6
8.84340000 0.284329 -164.5 0.958722 -76.06 0.958722 -76.06 0.284326 -167.6
8.84360000 0.284319 -164.5 0.958725 -76.07 0.958725 -76.07 0.284316 -167.6
8.84380000 0.284308 -164.5 0.958728 -76.07 0.958728 -76.07 0.284305 -167.6
8.84400000 0.284298 -164.5 0.958731 -76.07 0.958731 -76.07 0.284295 -167.6
8.84420000 0.284287 -164.5 0.958734 -76.08 0.958734 -76.08 0.284284 -167.6
8.84440000 0.284276 -164.5 0.958737 -76.08 0.958737 -76.08 0.284273 -167.6
8.84460000 0.284265 -164.5 0.958741 -76.08 0.958741 -76.08 0.284262 -167.6
8.84480000 0.284254 -164.5 0.958744 -76.08 0.958744 -76.08 0.284251 -167.6
8.84500000 0.284243 -164.5 0.958747 -76.09 0.958747 -76.09 0.284240 -167.6
8.84520000 0.284232 -164.5 0.958750 -76.09 0.958750 -76.09 0.284229 -167.6
8.84540000 0.284221 -164.5 0.958754 -76.09 0.958754 -76.09 0.284218 -167.7
8.84560000 0.284210 -164.5 0.958757 -76.10 0.958757 -76.10 0.284207 -167.7
8.84580000 0.284198 -164.5 0.958760 -76.10 0.958760 -76.10 0.284195 -167.7
8.84600000 0.284187 -164.5 0.958764 -76.10 0.958764 -76.10 0.284184 -167.7
8.84620000 0.284175 -164.5 0.958767 -76.10 0.958767 -76.10 0.284172 -167.7
8.84640000 0.284164 -164.5 0.958771 -76.11 0.958771 -76.11 0.284160 -167.7
8.84660000 0.284152 -164.5 0.958774 -76.11 0.958774 -76.11 0.284149 -167.7
8.84680000 0.284140 -164.5 0.958778 -76.11 0.958778 -76.11 0.284137 -167.7
8.84700000 0.284128 -164.5 0.958781 -76.12 0.958781 -76.12 0.284125 -167.7
8.84720000 0.284116 -164.5 0.958785 -76.12 0.958785 -76.12 0.284113 -167.7
8.84740000 0.284104 -164.5 0.958788 -76.12 0.958788 -76.12 0.284101 -167.7
8.84760000 0.284092 -164.5 0.958792 -76.12 0.958792 -76.12 0.284088 -167.7
8.84780000 0.284079 -164.5 0.958796 -76.13 0.958796 -76.13 0.284076 -167.7
8.84800000 0.284067 -164.5 0.958799 -76.13 0.958799 -76.13 0.284063 -167.7
8.84820000 0.284054 -164.5 0.958803 -76.13 0.958803 -76.13 0.284051 -167.7
8.84840000 0.284042 -164.5 0.958807 -76.14 0.958807 -76.14 0.284038 -167.7
8.84860000 0.284029 -164.5 0.958810 -76.14 0.958810 -76.14 0.284025 -167.8
8.84880000 0.284016 -164.5 0.958814 -76.14 0.958814 -76.14 0.284013 -167.8
8.84900000 0.284003 -164.5 0.958818 -76.15 0.958818 -76.15 0.284000 -167.8
8.84920000 0.283990 -164.5 0.958822 -76.15 0.958822 -76.15 0.283986 -167.8
8.84940000 0.283977 -164.5 0.958826 -76.15 0.958826 -76.15 0.283973 -167.8
8.84960000 0.283964 -164.5 0.958830 -76.15 0.958830 -76.15 0.283960 -167.8
8.84980000 0.283950 -164.5 0.958834 -76.16 0.958834 -76.16 0.283947 -167.8
8.85000000 0.283937 -164.5 0.958838 -76.16 0.958838 -76.16 0.283933 -167.8
8.85020000 0.283923 -164.5 0.958842 -76.16 0.958842 -76.16 0.283919 -167.8
8.85040000 0.283909 -164.5 0.958846 -76.17 0.958846 -76.17 0.283906 -167.8
8.85060000 0.283895 -164.5 0.958850 -76.17 0.958850 -76.17 0.283892 -167.8
8.85080000 0.283881 -164.5 0.958854 -76.17 0.958854 -76.17 0.283878 -167.8
8.85100000 0.283867 -164.5 0.958858 -76.18 0.958858 -76.18 0.283863 -167.8
8.85120000 0.283853 -164.5 0.958862 -76.18 0.958862 -76.18 0.283849 -167.8
8.85140000 0.283839 -164.5 0.958867 -76.18 0.958867 -76.18 0.283835 -167.9
8.85160000 0.283824 -164.5 0.958871 -76.19 0.958871 -76.19 0.283820 -167.9
8.85180000 0.283810 -164.5 0.958875 -76.19 0.958875 -76.19 0.283806 -167.9
8.85200000 0.283795 -164.5 0.958879 -76.19 0.958879 -76.19 0.283791 -167.9
8.85220000 0.283780 -164.5 0.958884 -76.20 0.958884 -76.20 0.283776 -167.9
8.85240000 0.283765 -164.5 0.958888 -76.20 0.958888 -76.20 0.283761 -167.9
8.85260000 0.283750 -164.5 0.958893 -76.20 0.958893 -76.20 0.283746 -167.9
8.85280000 0.283735 -164.5 0.958897 -76.21 0.958897 -76.21 0.283731 -167.9
8.85300000 0.283719 -164.5 0.958902 -76.21 0.958902 -76.21 0.283715 -167.9
8.85320000 0.283704 -164.5 0.958906 -76.21 0.958906 -76.21 0.283700 -167.9
8.85340000 0.283688 -164.5 0.958911 -76.22 0.958911 -76.22 0.283684 -167.9
8.85360000 0.283673 -164.5 0.958916 -76.22 0.958916 -76.22 0.283668 -167.9
8.85380000 0.283657 -164.5 0.958920 -76.22 0.958920 -76.22 0.283652 -167.9
8.85400000 0.283641 -164.5 0.958925 -76.23 0.958925 -76.23 0.283636 -168.0
8.85420000 0.283624 -164.5 0.958930 -76.23 0.958930 -76.23 0.283620 -168.0
8.85440000 0.283608 -164.5 0.958935 -76.23 0.958935 -76.23 0.283604 -168.0
8.85460000 0.283591 -164.5 0.958939 -76.24 0.958939 -76.24 0.283587 -168.0
8.85480000 0.283575 -164.5 0.958944 -76.24 0.958944 -76.24 0.283570 -168.0
8.85500000 0.283558 -164.5 0.958949 -76.24 0.958949 -76.24 0.283553 -168.0
8.85520000 0.283541 -164.5 0.958954 -76.25 0.958954 -76.25 0.283536 -168.0
8.85540000 0.283524 -164.5 0.958959 -76.25 0.958959 -76.25 0.283519 -168.0
8.85560000 0.283507 -164.5 0.958964 -76.25 0.958964 -76.25 0.283502 -168.0
8.85580000 0.283489 -164.5 0.958970 -76.26 0.958970 -76.26 0.283485 -168.0
8.85600000 0.283472 -164.5 0.958975 -76.26 0.958975 -76.26 0.283467 -168.0
8.85620000 0.283454 -164.5 0.958980 -76.26 0.958980 -76.26 0.283449 -168.0
8.85640000 0.283436 -164.5 0.958985 -76.27 0.958985 -76.27 0.283431 -168.0
8.85660000 0.283418 -164.5 0.958990 -76.27 0.958990 -76.27 0.283413 -168.1
8.85680000 0.283400 -164.5 0.958996 -76.27 0.958996 -76.27 0.283395 -168.1
8.85700000 0.283381 -164.5 0.959001 -76.28 0.959001 -76.28 0.283376 -168.1
8.85720000 0.283363 -164.5 0.959007 -76.28 0.959007 -76.28 0.283358 -168.1
8.85740000 0.283344 -164.5 0.959012 -76.28 0.959012 -76.28 0.283339 -168.1
8.85760000 0.283325 -164.5 0.959018 -76.29 0.959018 -76.29 0.283320 -168.1
8.85780000 0.283306 -164.5 0.959023 -76.29 0.959023 -76.29 0.283301 -168.1
8.85800000 0.283287 -164.5 0.959029 -76.29 0.959029 -76.29 0.283282 -168.1
8.85820000 0.283267 -164.5 0.959035 -76.30 0.959035 -76.30 0.283262 -168.1
8.85840000 0.283248 -164.5 0.959041 -76.30 0.959041 -76.30 0.283242 -168.1
8.85860000 0.283228 -164.5 0.959046 -76.31 0.959046 -76.31 0.283222 -168.1
8.85880000 0.283208 -164.5 0.959052 -76.31 0.959052 -76.31 0.283202 -168.2
8.85900000 0.283188 -164.5 0.959058 -76.31 0.959058 -76.31 0.283182 -168.2
8.85920000 0.283167 -164.5 0.959064 -76.32 0.959064 -76.32 0.283162 -168.2
8.85940000 0.283147 -164.5 0.959070 -76.32 0.959070 -76.32 0.283141 -168.2
8.85960000 0.283126 -164.5 0.959076 -76.32 0.959076 -76.32 0.283120 -168.2
8.85980000 0.283105 -164.5 0.959083 -76.33 0.959083 -76.33 0.283099 -168.2
8.86000000 0.283083 -164.5 0.959089 -76.33 0.959089 -76.33 0.283078 -168.2
8.86020000 0.283062 -164.5 0.959095 -76.34 0.959095 -76.34 0.283056 -168.2
8.86040000 0.283040 -164.4 0.959102 -76.34 0.959102 -76.34 0.283035 -168.2
8.86060000 0.283019 -164.4 0.959108 -76.34 0.959108 -76.34 0.283013 -168.2
8.86080000 0.282996 -164.4 0.959114 -76.35 0.959114 -76.35 0.282991 -168.2
8.86100000 0.282974 -164.4 0.959121 -76.35 0.959121 -76.35 0.282968 -168.3
8.86120000 0.282952 -164.4 0.959128 -76.36 0.959128 -76.36 0.282946 -168.3
8.86140000 0.282929 -164.4 0.959134 -76.36 0.959134 -76.36 0.282923 -168.3
8.86160000 0.282906 -164.4 0.959141 -76.36 0.959141 -76.36 0.282900 -168.3
8.86180000 0.282883 -164.4 0.959148 -76.37 0.959148 -76.37 0.282877 -168.3
8.86200000 0.282859 -164.4 0.959155 -76.37 0.959155 -76.37 0.282853 -168.3
8.86220000 0.282836 -164.4 0.959162 -76.38 0.959162 -76.38 0.282829 -168.3
8.86240000 0.282812 -164.4 0.959169 -76.38 0.959169 -76.38 0.282805 -168.3
8.86260000 0.282788 -164.4 0.959176 -76.38 0.959176 -76.38 0.282781 -168.3
8.86280000 0.282763 -164.4 0.959183 -76.39 0.959183 -76.39 0.282757 -168.4
8.86300000 0.282738 -164.4 0.959190 -76.39 0.959190 -76.39 0.282732 -168.4
8.86320000 0.282714 -164.4 0.959197 -76.40 0.959197 -76.40 0.282707 -168.4
8.86340000 0.282688 -164.4 0.959205 -76.40 0.959205 -76.40 0.282682 -168.4
8.86360000 0.282663 -164.4 0.959212 -76.40 0.959212 -76.40 0.282656 -168.4
8.86380000 0.282637 -164.4 0.959220 -76.41 0.959220 -76.41 0.282630 -168.4
8.86400000 0.282611 -164.4 0.959227 -76.41 0.959227 -76.41 0.282604 -168.4
8.86420000 0.282585 -164.4 0.959235 -76.42 0.959235 -76.42 0.282578 -168.4
8.86440000 0.282558 -164.4 0.959243 -76.42 0.959243 -76.42 0.282551 -168.4
8.86460000 0.282532 -164.4 0.959251 -76.43 0.959251 -76.43 0.282525 -168.5
8.86480000 0.282505 -164.4 0.959259 -76.43 0.959259 -76.43 0.282497 -168.5
8.86500000 0.282477 -164.4 0.959267 -76.43 0.959267 -76.43 0.282470 -168.5
8.86520000 0.282449 -164.4 0.959275 -76.44 0.959275 -76.44 0.282442 -168.5
8.86540000 0.282421 -164.4 0.959283 -76.44 0.959283 -76.44 0.282414 -168.5
8.86560000 0.282393 -164.4 0.959291 -76.45 0.959291 -76.45 0.282386 -168.5
8.86580000 0.282365 -164.4 0.959300 -76.45 0.959300 -76.45 0.282357 -168.5
8.86600000 0.282336 -164.4 0.959308 -76.46 0.959308 -76.46 0.282328 -168.5
8.86620000 0.282306 -164.4 0.959317 -76.46 0.959317 -76.46 0.282299 -168.5
8.86640000 0.282277 -164.4 0.959325 -76.47 0.959325 -76.47 0.282269 -168.6
8.86660000 0.282247 -164.4 0.959334 -76.47 0.959334 -76.47 0.282239 -168.6
8.86680000 0.282217 -164.4 0.959343 -76.47 0.959343 -76.47 0.282209 -168.6
8.86700000 0.282186 -164.4 0.959352 -76.48 0.959352 -76.48 0.282178 -168.6
8.86720000 0.282155 -164.4 0.959361 -76.48 0.959361 -76.48 0.282147 -168.6
8.86740000 0.282124 -164.4 0.959370 -76.49 0.959370 -76.49 0.282116 -168.6
8.86760000 0.282092 -164.3 0.959379 -76.49 0.959379 -76.49 0.282084 -168.6
8.86780000 0.282060 -164.3 0.959389 -76.50 0.959389 -76.50 0.282052 -168.7
8.86800000 0.282028 -164.3 0.959398 -76.50 0.959398 -76.50 0.282019 -168.7
8.86820000 0.281995 -164.3 0.959408 -76.51 0.959408 -76.51 0.281987 -168.7
8.86840000 0.281962 -164.3 0.959418 -76.51 0.959418 -76.51 0.281953 -168.7
8.86860000 0.281929 -164.3 0.959427 -76.52 0.959427 -76.52 0.281920 -168.7
8.86880000 0.281895 -164.3 0.959437 -76.52 0.959437 -76.52 0.281886 -168.7
8.86900000 0.281860 -164.3 0.959447 -76.53 0.959447 -76.53 0.281851 -168.7
8.86920000 0.281826 -164.3 0.959457 -76.53 0.959457 -76.53 0.281817 -168.7
8.86940000 0.281791 -164.3 0.959468 -76.54 0.959468 -76.54 0.281781 -168.8
8.86960000 0.281755 -164.3 0.959478 -76.54 0.959478 -76.54 0.281746 -168.8
8.86980000 0.281719 -164.3 0.959489 -76.55 0.959489 -76.55 0.281710 -168.8
8.87000000 0.281683 -164.3 0.959499 -76.55 0.959499 -76.55 0.281673 -168.8
8.87020000 0.281646 -164.3 0.959510 -76.56 0.959510 -76.56 0.281636 -168.8
8.87040000 0.281609 -164.3 0.959521 -76.56 0.959521 -76.56 0.281599 -168.8
8.87060000 0.281571 -164.3 0.959532 -76.57 0.959532 -76.57 0.281561 -168.9
8.87080000 0.281533 -164.3 0.959543 -76.58 0.959543 -76.58 0.281523 -168.9
8.87100000 0.281494 -164.3 0.959554 -76.58 0.959554 -76.58 0.281484 -168.9
8.87120000 0.281455 -164.3 0.959566 -76.59 0.959566 -76.59 0.281444 -168.9
8.87140000 0.281415 -164.3 0.959577 -76.59 0.959577 -76.59 0.281405 -168.9
8.87160000 0.281375 -164.3 0.959589 -76.60 0.959589 -76.60 0.281364 -168.9
8.87180000 0.281334 -164.3 0.959601 -76.60 0.959601 -76.60 0.281324 -168.9
8.87200000 0.281293 -164.2 0.959613 -76.61 0.959613 -76.61 0.281282 -169.0
8.87220000 0.281251 -164.2 0.959625 -76.61 0.959625 -76.61 0.281240 -169.0
8.87240000 0.281209 -164.2 0.959637 -76.62 0.959637 -76.62 0.281198 -169.0
8.87260000 0.281166 -164.2 0.959650 -76.63 0.959650 -76.63 0.281155 -169.0
8.87280000 0.281123 -164.2 0.959662 -76.63 0.959662 -76.63 0.281112 -169.0
8.87300000 0.281079 -164.2 0.959675 -76.64 0.959675 -76.64 0.281068 -169.1
8.87320000 0.281035 -164.2 0.959688 -76.64 0.959688 -76.64 0.281023 -169.1
8.87340000 0.280990 -164.2 0.959701 -76.65 0.959701 -76.65 0.280978 -169.1
8.87360000 0.280944 -164.2 0.959714 -76.66 0.959714 -76.66 0.280932 -169.1
8.87380000 0.280898 -164.2 0.959728 -76.66 0.959728 -76.66 0.280885 -169.1
8.87400000 0.280851 -164.2 0.959742 -76.67 0.959742 -76.67 0.280838 -169.1
8.87420000 0.280803 -164.2 0.959755 -76.67 0.959755 -76.67 0.280791 -169.2
8.87440000 0.280755 -164.2 0.959769 -76.68 0.959769 -76.68 0.280742 -169.2
8.87450321 0.280730 -164.2 0.959777 -76.68 0.959777 -76.68 0.280717 -169.2
8.87460000 0.280706 -164.2 0.959784 -76.69 0.959784 -76.69 0.280693 -169.2
8.87480000 0.280657 -164.2 0.959798 -76.69 0.959798 -76.69 0.280644 -169.2
8.87500000 0.280606 -164.2 0.959813 -76.70 0.959813 -76.70 0.280593 -169.2
8.87519031 0.280558 -164.2 0.959827 -76.71 0.959827 -76.71 0.280545 -169.3
8.87520000 0.280555 -164.2 0.959827 -76.71 0.959827 -76.71 0.280542 -169.3
8.87540000 0.280504 -164.1 0.959842 -76.71 0.959842 -76.71 0.280490 -169.3
8.87560000 0.280451 -164.1 0.959858 -76.72 0.959858 -76.72 0.280438 -169.3
8.87580000 0.280398 -164.1 0.959873 -76.73 0.959873 -76.73 0.280384 -169.3
8.87586167 0.280382 -164.1 0.959878 -76.73 0.959878 -76.73 0.280368 -169.3
8.87600000 0.280344 -164.1 0.959889 -76.73 0.959889 -76.73 0.280330 -169.3
8.87620000 0.280290 -164.1 0.959904 -76.74 0.959904 -76.74 0.280275 -169.4
8.87640000 0.280234 -164.1 0.959920 -76.75 0.959920 -76.75 0.280220 -169.4
8.87651764 0.280201 -164.1 0.959930 -76.75 0.959930 -76.75 0.280187 -169.4
8.87660000 0.280178 -164.1 0.959937 -76.76 0.959937 -76.76 0.280163 -169.4
8.87680000 0.280121 -164.1 0.959953 -76.76 0.959953 -76.76 0.280106 -169.4
8.87700000 0.280063 -164.1 0.959970 -76.77 0.959970 -76.77 0.280048 -169.5
8.87715858 0.280017 -164.1 0.959984 -76.78 0.959984 -76.78 0.280001 -169.5
8.87720000 0.280004 -164.1 0.959987 -76.78 0.959987 -76.78 0.279989 -169.5
8.87740000 0.279945 -164.1 0.960004 -76.78 0.960004 -76.78 0.279929 -169.5