! Sonnet Data File
! From: emgraph Version : 16.52
! From Project: Resonator2
! Data is De-embedded 
! Data File Written: 10/05/2017 10:46:04
!< HDATE 10/04/2017 20:26:48
!< MDATE 10/05/2017 00:36:07
!< PARAMS
!< gap = 6.0
!< Length = 400.0
!< Pwid1 = 2000.0
!< Pwid2 = 2000.0
!< END PARAMS
# GHZ S MA R 50.00000
8.80000000 0.256925 -163.9 0.966423 -77.35 0.966423 -77.35 0.256920 -170.8
!< P1 F=8.8 Eeff=(5.36817953 -2.3731e-5) Z0=(35.9853883 8.0522e-5) R=0.0 C=0.0 
!< P2 F=8.8 Eeff=(5.36817953 -2.3731e-5) Z0=(35.9853883 8.0522e-5) R=0.0 C=0.0 
8.80020000 0.256883 -163.9 0.966435 -77.36 0.966435 -77.36 0.256878 -170.9
8.80040000 0.256841 -163.9 0.966446 -77.36 0.966446 -77.36 0.256836 -170.9
8.80060000 0.256799 -163.8 0.966457 -77.37 0.966457 -77.37 0.256793 -170.9
8.80080000 0.256756 -163.8 0.966468 -77.37 0.966468 -77.37 0.256751 -170.9
8.80100000 0.256714 -163.8 0.966480 -77.38 0.966480 -77.38 0.256708 -170.9
8.80120000 0.256671 -163.8 0.966491 -77.38 0.966491 -77.38 0.256665 -170.9
8.80140000 0.256628 -163.8 0.966502 -77.39 0.966502 -77.39 0.256622 -170.9
8.80160000 0.256584 -163.8 0.966514 -77.39 0.966514 -77.39 0.256578 -170.9
8.80180000 0.256541 -163.8 0.966525 -77.39 0.966525 -77.39 0.256535 -170.9
8.80200000 0.256497 -163.8 0.966537 -77.40 0.966537 -77.40 0.256491 -171.0
8.80220000 0.256453 -163.8 0.966549 -77.40 0.966549 -77.40 0.256447 -171.0
8.80240000 0.256408 -163.8 0.966560 -77.41 0.966560 -77.41 0.256402 -171.0
8.80260000 0.256364 -163.8 0.966572 -77.41 0.966572 -77.41 0.256358 -171.0
8.80280000 0.256319 -163.8 0.966584 -77.42 0.966584 -77.42 0.256313 -171.0
8.80300000 0.256274 -163.8 0.966596 -77.42 0.966596 -77.42 0.256268 -171.0
8.80320000 0.256229 -163.8 0.966608 -77.43 0.966608 -77.43 0.256223 -171.0
8.80340000 0.256183 -163.8 0.966620 -77.43 0.966620 -77.43 0.256177 -171.0
8.80360000 0.256137 -163.8 0.966632 -77.44 0.966632 -77.44 0.256131 -171.1
8.80380000 0.256091 -163.8 0.966644 -77.44 0.966644 -77.44 0.256085 -171.1
8.80400000 0.256045 -163.8 0.966656 -77.45 0.966656 -77.45 0.256039 -171.1
8.80420000 0.255999 -163.8 0.966669 -77.45 0.966669 -77.45 0.255993 -171.1
8.80440000 0.255952 -163.8 0.966681 -77.46 0.966681 -77.46 0.255946 -171.1
8.80460000 0.255905 -163.8 0.966693 -77.46 0.966693 -77.46 0.255899 -171.1
8.80480000 0.255858 -163.8 0.966706 -77.47 0.966706 -77.47 0.255852 -171.1
8.80500000 0.255810 -163.8 0.966718 -77.47 0.966718 -77.47 0.255804 -171.1
8.80520000 0.255763 -163.8 0.966731 -77.48 0.966731 -77.48 0.255756 -171.2
8.80540000 0.255715 -163.8 0.966744 -77.49 0.966744 -77.49 0.255708 -171.2
8.80560000 0.255666 -163.8 0.966756 -77.49 0.966756 -77.49 0.255660 -171.2
8.80580000 0.255618 -163.8 0.966769 -77.50 0.966769 -77.50 0.255611 -171.2
8.80600000 0.255569 -163.8 0.966782 -77.50 0.966782 -77.50 0.255562 -171.2
8.80620000 0.255520 -163.8 0.966795 -77.51 0.966795 -77.51 0.255513 -171.2
8.80640000 0.255470 -163.8 0.966808 -77.51 0.966808 -77.51 0.255464 -171.2
8.80660000 0.255421 -163.8 0.966821 -77.52 0.966821 -77.52 0.255414 -171.2
8.80680000 0.255371 -163.8 0.966834 -77.52 0.966834 -77.52 0.255364 -171.3
8.80700000 0.255321 -163.8 0.966848 -77.53 0.966848 -77.53 0.255314 -171.3
8.80720000 0.255270 -163.8 0.966861 -77.53 0.966861 -77.53 0.255264 -171.3
8.80740000 0.255220 -163.8 0.966874 -77.54 0.966874 -77.54 0.255213 -171.3
8.80760000 0.255169 -163.8 0.966888 -77.54 0.966888 -77.54 0.255162 -171.3
8.80780000 0.255117 -163.8 0.966901 -77.55 0.966901 -77.55 0.255110 -171.3
8.80800000 0.255066 -163.8 0.966915 -77.55 0.966915 -77.55 0.255059 -171.3
8.80820000 0.255014 -163.8 0.966928 -77.56 0.966928 -77.56 0.255007 -171.3
8.80840000 0.254962 -163.8 0.966942 -77.57 0.966942 -77.57 0.254955 -171.4
8.80860000 0.254909 -163.8 0.966956 -77.57 0.966956 -77.57 0.254902 -171.4
8.80880000 0.254856 -163.8 0.966970 -77.58 0.966970 -77.58 0.254849 -171.4
8.80900000 0.254803 -163.8 0.966984 -77.58 0.966984 -77.58 0.254796 -171.4
8.80920000 0.254750 -163.8 0.966998 -77.59 0.966998 -77.59 0.254743 -171.4
8.80940000 0.254696 -163.8 0.967012 -77.59 0.967012 -77.59 0.254689 -171.4
8.80960000 0.254642 -163.8 0.967026 -77.60 0.967026 -77.60 0.254635 -171.4
8.80980000 0.254588 -163.8 0.967040 -77.60 0.967040 -77.60 0.254581 -171.5
8.81000000 0.254533 -163.7 0.967055 -77.61 0.967055 -77.61 0.254526 -171.5
8.81020000 0.254478 -163.7 0.967069 -77.62 0.967069 -77.62 0.254471 -171.5
8.81040000 0.254423 -163.7 0.967084 -77.62 0.967084 -77.62 0.254416 -171.5
8.81060000 0.254367 -163.7 0.967098 -77.63 0.967098 -77.63 0.254360 -171.5
8.81080000 0.254311 -163.7 0.967113 -77.63 0.967113 -77.63 0.254304 -171.5
8.81100000 0.254255 -163.7 0.967128 -77.64 0.967128 -77.64 0.254248 -171.5
8.81120000 0.254199 -163.7 0.967142 -77.64 0.967142 -77.64 0.254191 -171.6
8.81140000 0.254142 -163.7 0.967157 -77.65 0.967157 -77.65 0.254134 -171.6
8.81160000 0.254084 -163.7 0.967172 -77.66 0.967172 -77.66 0.254077 -171.6
8.81180000 0.254027 -163.7 0.967187 -77.66 0.967187 -77.66 0.254019 -171.6
8.81200000 0.253969 -163.7 0.967203 -77.67 0.967203 -77.67 0.253961 -171.6
8.81220000 0.253911 -163.7 0.967218 -77.67 0.967218 -77.67 0.253903 -171.6
8.81240000 0.253852 -163.7 0.967233 -77.68 0.967233 -77.68 0.253844 -171.6
8.81260000 0.253793 -163.7 0.967249 -77.68 0.967249 -77.68 0.253785 -171.7
8.81280000 0.253734 -163.7 0.967264 -77.69 0.967264 -77.69 0.253726 -171.7
8.81300000 0.253674 -163.7 0.967280 -77.70 0.967280 -77.70 0.253666 -171.7
8.81320000 0.253614 -163.7 0.967296 -77.70 0.967296 -77.70 0.253606 -171.7
8.81340000 0.253554 -163.7 0.967311 -77.71 0.967311 -77.71 0.253546 -171.7
8.81360000 0.253493 -163.7 0.967327 -77.72 0.967327 -77.72 0.253485 -171.7
8.81380000 0.253432 -163.7 0.967343 -77.72 0.967343 -77.72 0.253423 -171.7
8.81400000 0.253370 -163.7 0.967359 -77.73 0.967359 -77.73 0.253362 -171.8
8.81420000 0.253308 -163.7 0.967375 -77.73 0.967375 -77.73 0.253300 -171.8
8.81440000 0.253246 -163.7 0.967392 -77.74 0.967392 -77.74 0.253238 -171.8
8.81460000 0.253183 -163.7 0.967408 -77.75 0.967408 -77.75 0.253175 -171.8
8.81480000 0.253120 -163.7 0.967425 -77.75 0.967425 -77.75 0.253112 -171.8
8.81500000 0.253057 -163.7 0.967441 -77.76 0.967441 -77.76 0.253048 -171.8
8.81520000 0.252993 -163.7 0.967458 -77.76 0.967458 -77.76 0.252984 -171.9
8.81540000 0.252929 -163.7 0.967474 -77.77 0.967474 -77.77 0.252920 -171.9
8.81560000 0.252864 -163.7 0.967491 -77.78 0.967491 -77.78 0.252855 -171.9
8.81580000 0.252799 -163.7 0.967508 -77.78 0.967508 -77.78 0.252790 -171.9
8.81600000 0.252734 -163.7 0.967525 -77.79 0.967525 -77.79 0.252725 -171.9
8.81620000 0.252668 -163.7 0.967542 -77.80 0.967542 -77.80 0.252659 -171.9
8.81640000 0.252601 -163.6 0.967560 -77.80 0.967560 -77.80 0.252593 -172.0
8.81660000 0.252535 -163.6 0.967577 -77.81 0.967577 -77.81 0.252526 -172.0
8.81680000 0.252468 -163.6 0.967595 -77.82 0.967595 -77.82 0.252459 -172.0
8.81700000 0.252400 -163.6 0.967612 -77.82 0.967612 -77.82 0.252391 -172.0
8.81720000 0.252332 -163.6 0.967630 -77.83 0.967630 -77.83 0.252323 -172.0
8.81740000 0.252264 -163.6 0.967648 -77.84 0.967648 -77.84 0.252255 -172.0
8.81760000 0.252195 -163.6 0.967666 -77.84 0.967666 -77.84 0.252186 -172.1
8.81780000 0.252126 -163.6 0.967684 -77.85 0.967684 -77.85 0.252116 -172.1
8.81800000 0.252056 -163.6 0.967702 -77.86 0.967702 -77.86 0.252046 -172.1
8.81820000 0.251986 -163.6 0.967720 -77.86 0.967720 -77.86 0.251976 -172.1
8.81840000 0.251915 -163.6 0.967738 -77.87 0.967738 -77.87 0.251905 -172.1
8.81860000 0.251844 -163.6 0.967757 -77.88 0.967757 -77.88 0.251834 -172.1
8.81880000 0.251772 -163.6 0.967775 -77.88 0.967775 -77.88 0.251763 -172.2
8.81900000 0.251700 -163.6 0.967794 -77.89 0.967794 -77.89 0.251690 -172.2
8.81920000 0.251628 -163.6 0.967813 -77.90 0.967813 -77.90 0.251618 -172.2
8.81940000 0.251555 -163.6 0.967832 -77.90 0.967832 -77.90 0.251545 -172.2
8.81960000 0.251481 -163.6 0.967851 -77.91 0.967851 -77.91 0.251471 -172.2
8.81980000 0.251407 -163.6 0.967870 -77.92 0.967870 -77.92 0.251397 -172.3
8.82000000 0.251333 -163.6 0.967889 -77.92 0.967889 -77.92 0.251323 -172.3
8.82020000 0.251258 -163.6 0.967909 -77.93 0.967909 -77.93 0.251248 -172.3
8.82040000 0.251182 -163.6 0.967928 -77.94 0.967928 -77.94 0.251172 -172.3
8.82060000 0.251106 -163.6 0.967948 -77.95 0.967948 -77.95 0.251096 -172.3
8.82080000 0.251030 -163.6 0.967968 -77.95 0.967968 -77.95 0.251019 -172.4
8.82100000 0.250953 -163.5 0.967987 -77.96 0.967987 -77.96 0.250942 -172.4
8.82120000 0.250875 -163.5 0.968008 -77.97 0.968008 -77.97 0.250865 -172.4
8.82140000 0.250797 -163.5 0.968028 -77.98 0.968028 -77.98 0.250787 -172.4
8.82160000 0.250718 -163.5 0.968048 -77.98 0.968048 -77.98 0.250708 -172.4
8.82180000 0.250639 -163.5 0.968068 -77.99 0.968068 -77.99 0.250629 -172.4
8.82200000 0.250560 -163.5 0.968089 -78.00 0.968089 -78.00 0.250549 -172.5
8.82220000 0.250479 -163.5 0.968110 -78.00 0.968110 -78.00 0.250469 -172.5
8.82240000 0.250399 -163.5 0.968131 -78.01 0.968131 -78.01 0.250388 -172.5
8.82260000 0.250317 -163.5 0.968151 -78.02 0.968151 -78.02 0.250306 -172.5
8.82280000 0.250235 -163.5 0.968173 -78.03 0.968173 -78.03 0.250224 -172.5
8.82300000 0.250153 -163.5 0.968194 -78.04 0.968194 -78.04 0.250142 -172.6
8.82320000 0.250070 -163.5 0.968215 -78.04 0.968215 -78.04 0.250058 -172.6
8.82340000 0.249986 -163.5 0.968237 -78.05 0.968237 -78.05 0.249975 -172.6
8.82360000 0.249902 -163.5 0.968258 -78.06 0.968258 -78.06 0.249890 -172.6
8.82380000 0.249817 -163.5 0.968280 -78.07 0.968280 -78.07 0.249805 -172.7
8.82400000 0.249732 -163.5 0.968302 -78.07 0.968302 -78.07 0.249720 -172.7
8.82420000 0.249645 -163.5 0.968324 -78.08 0.968324 -78.08 0.249634 -172.7
8.82440000 0.249559 -163.5 0.968347 -78.09 0.968347 -78.09 0.249547 -172.7
8.82460000 0.249471 -163.5 0.968369 -78.10 0.968369 -78.10 0.249460 -172.7
8.82480000 0.249384 -163.4 0.968392 -78.11 0.968392 -78.11 0.249372 -172.8
8.82500000 0.249295 -163.4 0.968414 -78.11 0.968414 -78.11 0.249283 -172.8
8.82520000 0.249206 -163.4 0.968437 -78.12 0.968437 -78.12 0.249194 -172.8
8.82540000 0.249116 -163.4 0.968460 -78.13 0.968460 -78.13 0.249104 -172.8
8.82560000 0.249025 -163.4 0.968484 -78.14 0.968484 -78.14 0.249013 -172.9
8.82580000 0.248934 -163.4 0.968507 -78.15 0.968507 -78.15 0.248922 -172.9
8.82600000 0.248842 -163.4 0.968530 -78.15 0.968530 -78.15 0.248830 -172.9
8.82620000 0.248750 -163.4 0.968554 -78.16 0.968554 -78.16 0.248737 -172.9
8.82640000 0.248657 -163.4 0.968578 -78.17 0.968578 -78.17 0.248644 -172.9
8.82660000 0.248563 -163.4 0.968602 -78.18 0.968602 -78.18 0.248550 -173.0
8.82680000 0.248468 -163.4 0.968626 -78.19 0.968626 -78.19 0.248455 -173.0
8.82700000 0.248373 -163.4 0.968651 -78.20 0.968651 -78.20 0.248360 -173.0
8.82720000 0.248277 -163.4 0.968675 -78.21 0.968675 -78.21 0.248264 -173.0
8.82740000 0.248180 -163.4 0.968700 -78.21 0.968700 -78.21 0.248167 -173.1
8.82760000 0.248083 -163.4 0.968725 -78.22 0.968725 -78.22 0.248069 -173.1
8.82780000 0.247984 -163.4 0.968750 -78.23 0.968750 -78.23 0.247971 -173.1
8.82800000 0.247885 -163.3 0.968775 -78.24 0.968775 -78.24 0.247872 -173.1
8.82820000 0.247786 -163.3 0.968800 -78.25 0.968800 -78.25 0.247772 -173.2
8.82840000 0.247685 -163.3 0.968826 -78.26 0.968826 -78.26 0.247671 -173.2
8.82860000 0.247584 -163.3 0.968852 -78.27 0.968852 -78.27 0.247570 -173.2
8.82880000 0.247482 -163.3 0.968878 -78.28 0.968878 -78.28 0.247468 -173.2
8.82900000 0.247379 -163.3 0.968904 -78.29 0.968904 -78.29 0.247365 -173.3
8.82920000 0.247275 -163.3 0.968930 -78.29 0.968930 -78.29 0.247261 -173.3
8.82940000 0.247171 -163.3 0.968957 -78.30 0.968957 -78.30 0.247156 -173.3
8.82960000 0.247066 -163.3 0.968984 -78.31 0.968984 -78.31 0.247051 -173.3
8.82980000 0.246960 -163.3 0.969011 -78.32 0.969011 -78.32 0.246945 -173.4
8.83000000 0.246853 -163.3 0.969038 -78.33 0.969038 -78.33 0.246838 -173.4
8.83020000 0.246745 -163.3 0.969065 -78.34 0.969065 -78.34 0.246730 -173.4
8.83040000 0.246636 -163.3 0.969093 -78.35 0.969093 -78.35 0.246621 -173.4
8.83060000 0.246527 -163.2 0.969120 -78.36 0.969120 -78.36 0.246511 -173.5
8.83080000 0.246416 -163.2 0.969148 -78.37 0.969148 -78.37 0.246401 -173.5
8.83100000 0.246305 -163.2 0.969177 -78.38 0.969177 -78.38 0.246290 -173.5
8.83120000 0.246193 -163.2 0.969205 -78.39 0.969205 -78.39 0.246177 -173.6
8.83140000 0.246080 -163.2 0.969234 -78.40 0.969234 -78.40 0.246064 -173.6
8.83160000 0.245966 -163.2 0.969262 -78.41 0.969262 -78.41 0.245950 -173.6
8.83180000 0.245851 -163.2 0.969291 -78.42 0.969291 -78.42 0.245835 -173.6
8.83200000 0.245735 -163.2 0.969321 -78.43 0.969321 -78.43 0.245719 -173.7
8.83220000 0.245618 -163.2 0.969350 -78.44 0.969350 -78.44 0.245602 -173.7
8.83240000 0.245500 -163.2 0.969380 -78.45 0.969380 -78.45 0.245484 -173.7
8.83260000 0.245381 -163.2 0.969410 -78.46 0.969410 -78.46 0.245365 -173.8
8.83280000 0.245262 -163.1 0.969440 -78.47 0.969440 -78.47 0.245245 -173.8
8.83300000 0.245141 -163.1 0.969471 -78.48 0.969471 -78.48 0.245124 -173.8
8.83320000 0.245019 -163.1 0.969501 -78.49 0.969501 -78.49 0.245002 -173.8
8.83340000 0.244896 -163.1 0.969532 -78.50 0.969532 -78.50 0.244879 -173.9
8.83360000 0.244772 -163.1 0.969563 -78.51 0.969563 -78.51 0.244755 -173.9
8.83380000 0.244647 -163.1 0.969595 -78.52 0.969595 -78.52 0.244630 -173.9
8.83400000 0.244521 -163.1 0.969626 -78.53 0.969626 -78.53 0.244504 -174.0
8.83420000 0.244394 -163.1 0.969658 -78.54 0.969658 -78.54 0.244377 -174.0
8.83440000 0.244266 -163.1 0.969690 -78.56 0.969690 -78.56 0.244248 -174.0
8.83460000 0.244137 -163.1 0.969723 -78.57 0.969723 -78.57 0.244119 -174.1
8.83480000 0.244007 -163.0 0.969756 -78.58 0.969756 -78.58 0.243988 -174.1
8.83500000 0.243875 -163.0 0.969789 -78.59 0.969789 -78.59 0.243857 -174.1
8.83520000 0.243742 -163.0 0.969822 -78.60 0.969822 -78.60 0.243724 -174.2
8.83540000 0.243609 -163.0 0.969855 -78.61 0.969855 -78.61 0.243590 -174.2
8.83560000 0.243474 -163.0 0.969889 -78.62 0.969889 -78.62 0.243455 -174.2
8.83580000 0.243337 -163.0 0.969923 -78.63 0.969923 -78.63 0.243318 -174.3
8.83600000 0.243200 -163.0 0.969957 -78.65 0.969957 -78.65 0.243181 -174.3
8.83620000 0.243061 -163.0 0.969992 -78.66 0.969992 -78.66 0.243042 -174.3
8.83640000 0.242921 -163.0 0.970027 -78.67 0.970027 -78.67 0.242902 -174.4
8.83660000 0.242780 -162.9 0.970062 -78.68 0.970062 -78.68 0.242760 -174.4
8.83680000 0.242638 -162.9 0.970098 -78.69 0.970098 -78.69 0.242618 -174.4
8.83700000 0.242494 -162.9 0.970133 -78.71 0.970133 -78.71 0.242474 -174.5
8.83720000 0.242349 -162.9 0.970169 -78.72 0.970169 -78.72 0.242329 -174.5
8.83740000 0.242203 -162.9 0.970206 -78.73 0.970206 -78.73 0.242182 -174.6
8.83760000 0.242055 -162.9 0.970243 -78.74 0.970243 -78.74 0.242034 -174.6
8.83780000 0.241906 -162.9 0.970280 -78.75 0.970280 -78.75 0.241885 -174.6
8.83800000 0.241755 -162.9 0.970317 -78.77 0.970317 -78.77 0.241734 -174.7
8.83820000 0.241604 -162.9 0.970355 -78.78 0.970355 -78.78 0.241582 -174.7
8.83840000 0.241450 -162.8 0.970393 -78.79 0.970393 -78.79 0.241428 -174.7
8.83860000 0.241296 -162.8 0.970431 -78.81 0.970431 -78.81 0.241273 -174.8
8.83880000 0.241139 -162.8 0.970469 -78.82 0.970469 -78.82 0.241117 -174.8
8.83900000 0.240982 -162.8 0.970508 -78.83 0.970508 -78.83 0.240959 -174.9
8.83920000 0.240822 -162.8 0.970548 -78.84 0.970548 -78.84 0.240800 -174.9
8.83940000 0.240662 -162.8 0.970588 -78.86 0.970588 -78.86 0.240639 -174.9
8.83960000 0.240500 -162.8 0.970628 -78.87 0.970628 -78.87 0.240476 -175.0
8.83980000 0.240336 -162.7 0.970668 -78.88 0.970668 -78.88 0.240312 -175.0
8.84000000 0.240170 -162.7 0.970709 -78.90 0.970709 -78.90 0.240146 -175.1
8.84020000 0.240003 -162.7 0.970750 -78.91 0.970750 -78.91 0.239979 -175.1
8.84040000 0.239835 -162.7 0.970791 -78.93 0.970791 -78.93 0.239810 -175.1
8.84060000 0.239664 -162.7 0.970833 -78.94 0.970833 -78.94 0.239640 -175.2
8.84080000 0.239492 -162.7 0.970875 -78.95 0.970875 -78.95 0.239467 -175.2
8.84100000 0.239318 -162.6 0.970918 -78.97 0.970918 -78.97 0.239293 -175.3
8.84120000 0.239143 -162.6 0.970961 -78.98 0.970961 -78.98 0.239118 -175.3
8.84140000 0.238966 -162.6 0.971005 -79.00 0.971005 -79.00 0.238940 -175.4
8.84160000 0.238787 -162.6 0.971048 -79.01 0.971048 -79.01 0.238761 -175.4
8.84180000 0.238606 -162.6 0.971093 -79.03 0.971093 -79.03 0.238580 -175.5
8.84200000 0.238423 -162.6 0.971137 -79.04 0.971137 -79.04 0.238397 -175.5
8.84220000 0.238239 -162.6 0.971182 -79.06 0.971182 -79.06 0.238212 -175.6
8.84240000 0.238052 -162.5 0.971228 -79.07 0.971228 -79.07 0.238025 -175.6
8.84260000 0.237864 -162.5 0.971274 -79.09 0.971274 -79.09 0.237836 -175.7
8.84280000 0.237674 -162.5 0.971320 -79.10 0.971320 -79.10 0.237646 -175.7
8.84300000 0.237481 -162.5 0.971367 -79.12 0.971367 -79.12 0.237453 -175.7
8.84320000 0.237287 -162.5 0.971414 -79.13 0.971414 -79.13 0.237259 -175.8
8.84340000 0.237091 -162.4 0.971462 -79.15 0.971462 -79.15 0.237062 -175.8
8.84360000 0.236892 -162.4 0.971510 -79.17 0.971510 -79.17 0.236863 -175.9
8.84380000 0.236692 -162.4 0.971559 -79.18 0.971559 -79.18 0.236662 -176.0
8.84400000 0.236489 -162.4 0.971608 -79.20 0.971608 -79.20 0.236459 -176.0
8.84420000 0.236284 -162.4 0.971657 -79.22 0.971657 -79.22 0.236254 -176.1
8.84440000 0.236077 -162.3 0.971707 -79.23 0.971707 -79.23 0.236046 -176.1
8.84460000 0.235867 -162.3 0.971758 -79.25 0.971758 -79.25 0.235837 -176.2
8.84480000 0.235656 -162.3 0.971809 -79.27 0.971809 -79.27 0.235625 -176.2
8.84500000 0.235442 -162.3 0.971861 -79.28 0.971861 -79.28 0.235410 -176.3
8.84520000 0.235226 -162.3 0.971913 -79.30 0.971913 -79.30 0.235193 -176.3
8.84540000 0.235007 -162.2 0.971965 -79.32 0.971965 -79.32 0.234974 -176.4
8.84560000 0.234786 -162.2 0.972018 -79.34 0.972018 -79.34 0.234753 -176.4
8.84580000 0.234562 -162.2 0.972072 -79.36 0.972072 -79.36 0.234529 -176.5
8.84600000 0.234336 -162.2 0.972126 -79.37 0.972126 -79.37 0.234302 -176.6
8.84620000 0.234107 -162.1 0.972181 -79.39 0.972181 -79.39 0.234073 -176.6
8.84640000 0.233876 -162.1 0.972237 -79.41 0.972237 -79.41 0.233841 -176.7
8.84660000 0.233642 -162.1 0.972293 -79.43 0.972293 -79.43 0.233607 -176.7
8.84680000 0.233405 -162.1 0.972349 -79.45 0.972349 -79.45 0.233369 -176.8
8.84700000 0.233166 -162.1 0.972406 -79.47 0.972406 -79.47 0.233130 -176.9
8.84720000 0.232923 -162.0 0.972464 -79.49 0.972464 -79.49 0.232887 -176.9
8.84740000 0.232678 -162.0 0.972522 -79.51 0.972522 -79.51 0.232641 -177.0
8.84760000 0.232430 -162.0 0.972581 -79.53 0.972581 -79.53 0.232393 -177.1
8.84780000 0.232179 -161.9 0.972641 -79.55 0.972641 -79.55 0.232142 -177.1
8.84800000 0.231926 -161.9 0.972701 -79.57 0.972701 -79.57 0.231887 -177.2
8.84820000 0.231669 -161.9 0.972762 -79.59 0.972762 -79.59 0.231630 -177.3
8.84840000 0.231409 -161.9 0.972823 -79.61 0.972823 -79.61 0.231369 -177.3
8.84860000 0.231146 -161.8 0.972885 -79.63 0.972885 -79.63 0.231105 -177.4
8.84880000 0.230879 -161.8 0.972948 -79.65 0.972948 -79.65 0.230839 -177.5
8.84900000 0.230610 -161.8 0.973012 -79.67 0.973012 -79.67 0.230568 -177.5
8.84920000 0.230337 -161.8 0.973076 -79.69 0.973076 -79.69 0.230295 -177.6
8.84940000 0.230060 -161.7 0.973141 -79.72 0.973141 -79.72 0.230018 -177.7
8.84960000 0.229781 -161.7 0.973207 -79.74 0.973207 -79.74 0.229738 -177.8
8.84980000 0.229497 -161.7 0.973273 -79.76 0.973273 -79.76 0.229454 -177.8
8.85000000 0.229211 -161.6 0.973340 -79.78 0.973340 -79.78 0.229166 -177.9
8.85020000 0.228920 -161.6 0.973408 -79.81 0.973408 -79.81 0.228875 -178.0
8.85030394 0.228768 -161.6 0.973444 -79.82 0.973444 -79.82 0.228722 -178.0
8.85040000 0.228626 -161.6 0.973477 -79.83 0.973477 -79.83 0.228580 -178.1
8.85060000 0.228328 -161.5 0.973546 -79.85 0.973546 -79.85 0.228282 -178.2
8.85080000 0.228026 -161.5 0.973617 -79.88 0.973617 -79.88 0.227979 -178.2
8.85099176 0.227733 -161.5 0.973685 -79.90 0.973685 -79.90 0.227685 -178.3
8.85100000 0.227720 -161.5 0.973688 -79.90 0.973688 -79.90 0.227673 -178.3
8.85120000 0.227411 -161.4 0.973760 -79.93 0.973760 -79.93 0.227362 -178.4
8.85140000 0.227097 -161.4 0.973832 -79.95 0.973832 -79.95 0.227048 -178.5
8.85160000 0.226779 -161.3 0.973906 -79.98 0.973906 -79.98 0.226729 -178.6
8.85166381 0.226677 -161.3 0.973930 -79.98 0.973930 -79.98 0.226626 -178.6
8.85180000 0.226457 -161.3 0.973980 -80.00 0.973980 -80.00 0.226406 -178.7
8.85200000 0.226130 -161.3 0.974056 -80.03 0.974056 -80.03 0.226079 -178.8
8.85220000 0.225799 -161.2 0.974132 -80.05 0.974132 -80.05 0.225747 -178.9
8.85232047 0.225598 -161.2 0.974178 -80.07 0.974178 -80.07 0.225545 -178.9
8.85240000 0.225464 -161.2 0.974209 -80.08 0.974209 -80.08 0.225411 -179.0
8.85260000 0.225124 -161.2 0.974287 -80.11 0.974287 -80.11 0.225070 -179.0
8.85280000 0.224779 -161.1 0.974366 -80.13 0.974366 -80.13 0.224724 -179.1
8.85296208 0.224497 -161.1 0.974431 -80.16 0.974431 -80.16 0.224441 -179.2
8.85300000 0.224430 -161.1 0.974446 -80.16 0.974446 -80.16 0.224374 -179.2
8.85320000 0.224076 -161.0 0.974527 -80.19 0.974527 -80.19 0.224019 -179.3
8.85340000 0.223716 -161.0 0.974609 -80.22 0.974609 -80.22 0.223659 -179.4
8.85358899 0.223372 -160.9 0.974687 -80.25 0.974687 -80.25 0.223314 -179.5
8.85360000 0.223352 -160.9 0.974692 -80.25 0.974692 -80.25 0.223294 -179.5
8.85380000 0.222983 -160.9 0.974776 -80.28 0.974776 -80.28 0.222923 -179.6
8.85400000 0.222608 -160.8 0.974861 -80.31 0.974861 -80.31 0.222547 -179.8
8.85420000 0.222228 -160.8 0.974947 -80.34 0.974947 -80.34 0.222166 -179.9
8.85420153 0.222225 -160.8 0.974947 -80.34 0.974947 -80.34 0.222163 -179.9
8.85440000 0.221842 -160.7 0.975034 -80.37 0.975034 -80.37 0.221779 -180.0
8.85460000 0.221451 -160.7 0.975122 -80.40 0.975122 -80.40 0.221387 179.92
8.85480000 0.221054 -160.6 0.975211 -80.43 0.975211 -80.43 0.220989 179.80
8.85480003 0.221054 -160.6 0.975211 -80.43 0.975211 -80.43 0.220989 179.80
8.85500000 0.220651 -160.6 0.975302 -80.46 0.975302 -80.46 0.220585 179.69
8.85520000 0.220242 -160.5 0.975393 -80.49 0.975393 -80.49 0.220175 179.57
8.85538483 0.219859 -160.5 0.975479 -80.52 0.975479 -80.52 0.219791 179.46
8.85540000 0.219828 -160.5 0.975486 -80.53 0.975486 -80.53 0.219759 179.45
8.85560000 0.219406 -160.4 0.975580 -80.56 0.975580 -80.56 0.219337 179.33
8.85580000 0.218979 -160.4 0.975675 -80.59 0.975675 -80.59 0.218908 179.20
8.85595622 0.218640 -160.3 0.975751 -80.62 0.975751 -80.62 0.218568 179.10
8.85600000 0.218545 -160.3 0.975772 -80.63 0.975772 -80.63 0.218472 179.07
8.85620000 0.218104 -160.2 0.975870 -80.66 0.975870 -80.66 0.218030 178.94
8.85640000 0.217656 -160.2 0.975969 -80.70 0.975969 -80.70 0.217581 178.81
8.85651452 0.217397 -160.1 0.976026 -80.72 0.976026 -80.72 0.217321 178.73
8.85660000 0.217202 -160.1 0.976069 -80.74 0.976069 -80.74 0.217125 178.68
8.85680000 0.216740 -160.1 0.976171 -80.77 0.976171 -80.77 0.216662 178.54
8.85700000 0.216271 -160.0 0.976274 -80.81 0.976274 -80.81 0.216192 178.40
8.85706003 0.216129 -160.0 0.976305 -80.82 0.976305 -80.82 0.216049 178.35
8.85720000 0.215795 -159.9 0.976378 -80.85 0.976378 -80.85 0.215714 178.25
8.85740000 0.215311 -159.9 0.976484 -80.89 0.976484 -80.89 0.215228 178.11
8.85759303 0.214836 -159.8 0.976588 -80.92 0.976588 -80.92 0.214752 177.96
8.85760000 0.214819 -159.8 0.976591 -80.92 0.976591 -80.92 0.214734 177.96
8.85780000 0.214319 -159.7 0.976700 -80.96 0.976700 -80.96 0.214233 177.81
8.85800000 0.213811 -159.6 0.976810 -81.00 0.976810 -81.00 0.213723 177.65
8.85811383 0.213518 -159.6 0.976874 -81.03 0.976874 -81.03 0.213429 177.56
8.85820000 0.213295 -159.6 0.976922 -81.05 0.976922 -81.05 0.213205 177.49
8.85840000 0.212770 -159.5 0.977035 -81.09 0.977035 -81.09 0.212678 177.33
8.85860000 0.212236 -159.4 0.977150 -81.13 0.977150 -81.13 0.212142 177.16
8.85862269 0.212175 -159.4 0.977164 -81.14 0.977164 -81.14 0.212081 177.14
8.85880000 0.211693 -159.3 0.977267 -81.17 0.977267 -81.17 0.211598 176.99
8.85900000 0.211141 -159.2 0.977385 -81.22 0.977385 -81.22 0.211044 176.82
8.85911989 0.210806 -159.2 0.977457 -81.25 0.977457 -81.25 0.210707 176.71
8.85920000 0.210580 -159.1 0.977505 -81.26 0.977505 -81.26 0.210480 176.64
8.85940000 0.210009 -159.0 0.977626 -81.31 0.977626 -81.31 0.209907 176.46
8.85960000 0.209428 -159.0 0.977750 -81.36 0.977750 -81.36 0.209324 176.28
8.85960570 0.209411 -159.0 0.977753 -81.36 0.977753 -81.36 0.209307 176.27
8.85980000 0.208837 -158.9 0.977875 -81.40 0.977875 -81.40 0.208731 176.09
8.86000000 0.208236 -158.8 0.978001 -81.45 0.978001 -81.45 0.208127 175.89
8.86008037 0.207991 -158.7 0.978053 -81.47 0.978053 -81.47 0.207881 175.81
8.86020000 0.207624 -158.7 0.978130 -81.50 0.978130 -81.50 0.207512 175.69
8.86040000 0.207001 -158.6 0.978261 -81.55 0.978261 -81.55 0.206887 175.49
8.86054417 0.206545 -158.5 0.978356 -81.59 0.978356 -81.59 0.206429 175.34
8.86060000 0.206367 -158.4 0.978393 -81.60 0.978393 -81.60 0.206250 175.28
8.86080000 0.205721 -158.3 0.978527 -81.66 0.978527 -81.66 0.205602 175.06
8.86099735 0.205072 -158.2 0.978662 -81.71 0.978662 -81.71 0.204950 174.85
8.86100000 0.205064 -158.2 0.978664 -81.71 0.978664 -81.71 0.204941 174.84
8.86120000 0.204394 -158.1 0.978802 -81.76 0.978802 -81.76 0.204269 174.62
8.86140000 0.203713 -158.0 0.978942 -81.82 0.978942 -81.82 0.203584 174.39
8.86144014 0.203574 -158.0 0.978971 -81.83 0.978971 -81.83 0.203445 174.34
8.86160000 0.203018 -157.9 0.979085 -81.88 0.979085 -81.88 0.202887 174.15
8.86180000 0.202311 -157.7 0.979229 -81.93 0.979229 -81.93 0.202176 173.91
8.86187278 0.202050 -157.7 0.979282 -81.95 0.979282 -81.95 0.201914 173.82
8.86200000 0.201590 -157.6 0.979376 -81.99 0.979376 -81.99 0.201452 173.66
8.86220000 0.200856 -157.5 0.979525 -82.05 0.979525 -82.05 0.200714 173.40
8.86229551 0.200500 -157.4 0.979597 -82.08 0.979597 -82.08 0.200356 173.27
8.86240000 0.200107 -157.3 0.979676 -82.11 0.979676 -82.11 0.199962 173.14
8.86260000 0.199345 -157.2 0.979829 -82.18 0.979829 -82.18 0.199195 172.86
8.86270855 0.198924 -157.1 0.979913 -82.21 0.979913 -82.21 0.198773 172.71
8.86280000 0.198567 -157.0 0.979985 -82.24 0.979985 -82.24 0.198413 172.58
8.86300000 0.197774 -156.9 0.980143 -82.31 0.980143 -82.31 0.197617 172.30
8.86311213 0.197323 -156.8 0.980232 -82.34 0.980232 -82.34 0.197163 172.13
8.86320000 0.196966 -156.7 0.980303 -82.37 0.980303 -82.37 0.196804 172.00
8.86340000 0.196142 -156.5 0.980466 -82.44 0.980466 -82.44 0.195975 171.70
8.86350646 0.195697 -156.4 0.980554 -82.48 0.980554 -82.48 0.195528 171.53
8.86360000 0.195302 -156.4 0.980631 -82.51 0.980631 -82.51 0.195130 171.38
8.86380000 0.194445 -156.2 0.980799 -82.59 0.980799 -82.59 0.194268 171.06
8.86389176 0.194046 -156.1 0.980877 -82.62 0.980877 -82.62 0.193867 170.91
8.86400000 0.193570 -156.0 0.980969 -82.66 0.980969 -82.66 0.193389 170.72
8.86420000 0.192678 -155.8 0.981142 -82.73 0.981142 -82.73 0.192491 170.38
8.86426822 0.192370 -155.7 0.981201 -82.76 0.981201 -82.76 0.192181 170.26
8.86440000 0.191768 -155.6 0.981317 -82.81 0.981317 -82.81 0.191576 170.02
8.86460000 0.190840 -155.4 0.981495 -82.89 0.981495 -82.89 0.190641 169.65
8.86463606 0.190670 -155.3 0.981527 -82.91 0.981527 -82.91 0.190471 169.59
8.86480000 0.189892 -155.2 0.981676 -82.97 0.981676 -82.97 0.189688 169.27
8.86499547 0.188948 -154.9 0.981855 -83.05 0.981855 -83.05 0.188737 168.89
8.86500000 0.188926 -154.9 0.981859 -83.06 0.981859 -83.06 0.188715 168.88
8.86520000 0.187939 -154.7 0.982045 -83.14 0.982045 -83.14 0.187721 168.48
8.86534665 0.187203 -154.5 0.982183 -83.21 0.982183 -83.21 0.186980 168.17
8.86540000 0.186932 -154.4 0.982233 -83.23 0.982233 -83.23 0.186707 168.06
8.86560000 0.185904 -154.2 0.982425 -83.32 0.982425 -83.32 0.185672 167.62
8.86568978 0.185436 -154.1 0.982512 -83.36 0.982512 -83.36 0.185200 167.42
8.86580000 0.184855 -153.9 0.982619 -83.41 0.982619 -83.41 0.184615 167.17
8.86600000 0.183784 -153.6 0.982816 -83.51 0.982816 -83.51 0.183536 166.70
8.86602505 0.183648 -153.6 0.982841 -83.52 0.982841 -83.52 0.183399 166.64
8.86620000 0.182691 -153.4 0.983015 -83.60 0.983015 -83.60 0.182435 166.21
8.86635263 0.181842 -153.1 0.983170 -83.68 0.983170 -83.68 0.181578 165.83
8.86640000 0.181575 -153.0 0.983218 -83.70 0.983218 -83.70 0.181310 165.71
8.86660000 0.180437 -152.7 0.983423 -83.81 0.983423 -83.81 0.180162 165.19
8.86667271 0.180017 -152.6 0.983498 -83.85 0.983498 -83.85 0.179739 164.99
8.86680000 0.179275 -152.4 0.983631 -83.91 0.983631 -83.91 0.178990 164.64
8.86698546 0.178176 -152.1 0.983826 -84.01 0.983826 -84.01 0.177881 164.12
8.86700000 0.178089 -152.0 0.983841 -84.02 0.983841 -84.02 0.177794 164.08
8.86720000 0.176879 -151.7 0.984054 -84.13 0.984054 -84.13 0.176573 163.48
8.86729103 0.176320 -151.5 0.984152 -84.19 0.984152 -84.19 0.176008 163.21
8.86740000 0.175645 -151.3 0.984270 -84.25 0.984270 -84.25 0.175326 162.87
8.86758961 0.174452 -150.9 0.984477 -84.36 0.984477 -84.36 0.174122 162.26
8.86760000 0.174386 -150.9 0.984488 -84.37 0.984488 -84.37 0.174055 162.23
8.86780000 0.173102 -150.5 0.984709 -84.49 0.984709 -84.49 0.172758 161.56
8.86788135 0.172573 -150.3 0.984799 -84.54 0.984799 -84.54 0.172224 161.28
8.86800000 0.171793 -150.0 0.984932 -84.62 0.984932 -84.62 0.171436 160.86
8.86816640 0.170686 -149.6 0.985119 -84.73 0.985119 -84.73 0.170316 160.25
8.86820000 0.170460 -149.5 0.985157 -84.75 0.985157 -84.75 0.170088 160.13
8.86840000 0.169102 -149.0 0.985384 -84.89 0.985384 -84.89 0.168714 159.36
8.86844491 0.168793 -148.9 0.985435 -84.92 0.985435 -84.92 0.168402 159.18
8.86860000 0.167719 -148.5 0.985613 -85.03 0.985613 -85.03 0.167315 158.56
8.86871705 0.166899 -148.2 0.985748 -85.11 0.985748 -85.11 0.166485 158.07
8.86880000 0.166313 -148.0 0.985844 -85.17 0.985844 -85.17 0.165891 157.72
8.86898295 0.165006 -147.4 0.986056 -85.31 0.986056 -85.31 0.164567 156.91
8.86900000 0.164883 -147.4 0.986076 -85.32 0.986076 -85.32 0.164443 156.84
8.86920000 0.163431 -146.7 0.986309 -85.47 0.986309 -85.47 0.162971 155.91
8.86924276 0.163118 -146.6 0.986359 -85.51 0.986359 -85.51 0.162654 155.70
8.86940000 0.161958 -146.1 0.986544 -85.63 0.986544 -85.63 0.161477 154.93
8.86949661 0.161239 -145.8 0.986657 -85.71 0.986657 -85.71 0.160748 154.45