! Sonnet Data File
! From: emgraph Version : 16.52
! From Project: Resonator2_cp
! Data is De-embedded 
! Data File Written: 10/06/2017 09:05:50
!< HDATE 10/05/2017 15:28:06
!< MDATE 10/05/2017 15:28:06
!< PARAMS
!< gap = 6.0
!< Length = 400.0
!< Pwid1 = 2000.0
!< Pwid2 = 2000.0
!< END PARAMS
# GHZ S MA R 35.97000
8.80000000 0.060761 -2.383 0.998143 -76.93 0.998143 -76.93 0.060765 28.517
!< P1 F=8.8 Eeff=(5.36817953 -2.3731e-5) Z0=(35.9853883 8.0522e-5) R=0.0 C=0.0 
!< P2 F=8.8 Eeff=(5.36817953 -2.3731e-5) Z0=(35.9853883 8.0522e-5) R=0.0 C=0.0 
8.80020000 0.060819 -2.399 0.998140 -76.93 0.998140 -76.93 0.060823 28.523
8.80040000 0.060877 -2.414 0.998136 -76.94 0.998136 -76.94 0.060881 28.528
8.80060000 0.060936 -2.430 0.998133 -76.94 0.998133 -76.94 0.060939 28.534
8.80080000 0.060994 -2.446 0.998129 -76.95 0.998129 -76.95 0.060998 28.539
8.80100000 0.061053 -2.462 0.998125 -76.95 0.998125 -76.95 0.061057 28.545
8.80120000 0.061113 -2.478 0.998122 -76.96 0.998122 -76.96 0.061116 28.550
8.80140000 0.061172 -2.494 0.998118 -76.97 0.998118 -76.97 0.061176 28.556
8.80160000 0.061232 -2.510 0.998114 -76.97 0.998114 -76.97 0.061236 28.561
8.80180000 0.061292 -2.526 0.998111 -76.98 0.998111 -76.98 0.061296 28.567
8.80200000 0.061353 -2.542 0.998107 -76.98 0.998107 -76.98 0.061357 28.573
8.80220000 0.061414 -2.559 0.998103 -76.99 0.998103 -76.99 0.061417 28.578
8.80240000 0.061475 -2.575 0.998099 -76.99 0.998099 -76.99 0.061478 28.584
8.80260000 0.061536 -2.591 0.998096 -77.00 0.998096 -77.00 0.061540 28.590
8.80280000 0.061598 -2.608 0.998092 -77.00 0.998092 -77.00 0.061602 28.595
8.80300000 0.061660 -2.624 0.998088 -77.01 0.998088 -77.01 0.061664 28.601
8.80320000 0.061723 -2.641 0.998084 -77.01 0.998084 -77.01 0.061726 28.607
8.80340000 0.061785 -2.657 0.998080 -77.02 0.998080 -77.02 0.061789 28.612
8.80360000 0.061848 -2.674 0.998076 -77.02 0.998076 -77.02 0.061852 28.618
8.80380000 0.061912 -2.690 0.998072 -77.03 0.998072 -77.03 0.061915 28.624
8.80400000 0.061975 -2.707 0.998068 -77.03 0.998068 -77.03 0.061979 28.630
8.80420000 0.062039 -2.724 0.998064 -77.04 0.998064 -77.04 0.062043 28.636
8.80440000 0.062104 -2.741 0.998060 -77.05 0.998060 -77.05 0.062107 28.641
8.80460000 0.062168 -2.757 0.998056 -77.05 0.998056 -77.05 0.062172 28.647
8.80480000 0.062233 -2.774 0.998052 -77.06 0.998052 -77.06 0.062237 28.653
8.80500000 0.062299 -2.791 0.998048 -77.06 0.998048 -77.06 0.062302 28.659
8.80520000 0.062364 -2.808 0.998044 -77.07 0.998044 -77.07 0.062368 28.665
8.80540000 0.062430 -2.825 0.998039 -77.07 0.998039 -77.07 0.062434 28.671
8.80560000 0.062497 -2.843 0.998035 -77.08 0.998035 -77.08 0.062501 28.677
8.80580000 0.062564 -2.860 0.998031 -77.08 0.998031 -77.08 0.062567 28.682
8.80600000 0.062631 -2.877 0.998027 -77.09 0.998027 -77.09 0.062634 28.688
8.80620000 0.062698 -2.894 0.998023 -77.10 0.998023 -77.10 0.062702 28.694
8.80640000 0.062766 -2.912 0.998018 -77.10 0.998018 -77.10 0.062770 28.700
8.80660000 0.062834 -2.929 0.998014 -77.11 0.998014 -77.11 0.062838 28.706
8.80680000 0.062903 -2.947 0.998010 -77.11 0.998010 -77.11 0.062906 28.712
8.80700000 0.062972 -2.964 0.998005 -77.12 0.998005 -77.12 0.062975 28.718
8.80720000 0.063041 -2.982 0.998001 -77.12 0.998001 -77.12 0.063045 28.724
8.80740000 0.063111 -2.999 0.997996 -77.13 0.997996 -77.13 0.063114 28.730
8.80760000 0.063181 -3.017 0.997992 -77.14 0.997992 -77.14 0.063184 28.736
8.80780000 0.063251 -3.035 0.997987 -77.14 0.997987 -77.14 0.063255 28.742
8.80800000 0.063322 -3.053 0.997983 -77.15 0.997983 -77.15 0.063326 28.749
8.80820000 0.063393 -3.071 0.997978 -77.15 0.997978 -77.15 0.063397 28.755
8.80840000 0.063465 -3.089 0.997974 -77.16 0.997974 -77.16 0.063469 28.761
8.80860000 0.063537 -3.107 0.997969 -77.17 0.997969 -77.17 0.063541 28.767
8.80880000 0.063609 -3.125 0.997964 -77.17 0.997964 -77.17 0.063613 28.773
8.80900000 0.063682 -3.143 0.997960 -77.18 0.997960 -77.18 0.063686 28.779
8.80920000 0.063755 -3.161 0.997955 -77.18 0.997955 -77.18 0.063759 28.785
8.80940000 0.063829 -3.179 0.997950 -77.19 0.997950 -77.19 0.063833 28.792
8.80960000 0.063903 -3.198 0.997945 -77.20 0.997945 -77.20 0.063907 28.798
8.80980000 0.063977 -3.216 0.997941 -77.20 0.997941 -77.20 0.063981 28.804
8.81000000 0.064052 -3.235 0.997936 -77.21 0.997936 -77.21 0.064056 28.810
8.81020000 0.064127 -3.253 0.997931 -77.21 0.997931 -77.21 0.064131 28.817
8.81040000 0.064203 -3.272 0.997926 -77.22 0.997926 -77.22 0.064207 28.823
8.81060000 0.064279 -3.290 0.997921 -77.23 0.997921 -77.23 0.064283 28.829
8.81080000 0.064356 -3.309 0.997916 -77.23 0.997916 -77.23 0.064360 28.835
8.81100000 0.064433 -3.328 0.997911 -77.24 0.997911 -77.24 0.064437 28.842
8.81120000 0.064510 -3.347 0.997906 -77.24 0.997906 -77.24 0.064514 28.848
8.81140000 0.064588 -3.366 0.997901 -77.25 0.997901 -77.25 0.064592 28.854
8.81160000 0.064666 -3.385 0.997896 -77.26 0.997896 -77.26 0.064670 28.861
8.81180000 0.064745 -3.404 0.997891 -77.26 0.997891 -77.26 0.064749 28.867
8.81200000 0.064824 -3.423 0.997885 -77.27 0.997885 -77.27 0.064828 28.874
8.81220000 0.064904 -3.442 0.997880 -77.28 0.997880 -77.28 0.064908 28.880
8.81240000 0.064984 -3.462 0.997875 -77.28 0.997875 -77.28 0.064988 28.886
8.81260000 0.065065 -3.481 0.997870 -77.29 0.997870 -77.29 0.065069 28.893
8.81280000 0.065146 -3.500 0.997864 -77.30 0.997864 -77.30 0.065150 28.899
8.81300000 0.065227 -3.520 0.997859 -77.30 0.997859 -77.30 0.065232 28.906
8.81320000 0.065310 -3.539 0.997854 -77.31 0.997854 -77.31 0.065314 28.912
8.81340000 0.065392 -3.559 0.997848 -77.31 0.997848 -77.31 0.065396 28.919
8.81360000 0.065475 -3.579 0.997843 -77.32 0.997843 -77.32 0.065479 28.925
8.81380000 0.065559 -3.599 0.997837 -77.33 0.997837 -77.33 0.065563 28.932
8.81400000 0.065643 -3.618 0.997831 -77.33 0.997831 -77.33 0.065647 28.938
8.81420000 0.065727 -3.638 0.997826 -77.34 0.997826 -77.34 0.065732 28.945
8.81440000 0.065812 -3.658 0.997820 -77.35 0.997820 -77.35 0.065817 28.952
8.81460000 0.065898 -3.678 0.997814 -77.35 0.997814 -77.35 0.065902 28.958
8.81480000 0.065984 -3.699 0.997809 -77.36 0.997809 -77.36 0.065988 28.965
8.81500000 0.066071 -3.719 0.997803 -77.37 0.997803 -77.37 0.066075 28.971
8.81520000 0.066158 -3.739 0.997797 -77.37 0.997797 -77.37 0.066162 28.978
8.81540000 0.066245 -3.760 0.997791 -77.38 0.997791 -77.38 0.066250 28.985
8.81560000 0.066333 -3.780 0.997785 -77.39 0.997785 -77.39 0.066338 28.991
8.81580000 0.066422 -3.801 0.997779 -77.40 0.997779 -77.40 0.066427 28.998
8.81600000 0.066511 -3.821 0.997773 -77.40 0.997773 -77.40 0.066516 29.005
8.81620000 0.066601 -3.842 0.997767 -77.41 0.997767 -77.41 0.066606 29.012
8.81640000 0.066692 -3.863 0.997761 -77.42 0.997761 -77.42 0.066696 29.018
8.81660000 0.066783 -3.883 0.997755 -77.42 0.997755 -77.42 0.066787 29.025
8.81680000 0.066874 -3.904 0.997749 -77.43 0.997749 -77.43 0.066879 29.032
8.81700000 0.066966 -3.925 0.997743 -77.44 0.997743 -77.44 0.066971 29.039
8.81720000 0.067059 -3.947 0.997736 -77.44 0.997736 -77.44 0.067063 29.045
8.81740000 0.067152 -3.968 0.997730 -77.45 0.997730 -77.45 0.067157 29.052
8.81760000 0.067246 -3.989 0.997724 -77.46 0.997724 -77.46 0.067251 29.059
8.81780000 0.067340 -4.010 0.997717 -77.47 0.997717 -77.47 0.067345 29.066
8.81800000 0.067435 -4.032 0.997711 -77.47 0.997711 -77.47 0.067440 29.073
8.81820000 0.067531 -4.053 0.997704 -77.48 0.997704 -77.48 0.067536 29.079
8.81840000 0.067627 -4.075 0.997698 -77.49 0.997698 -77.49 0.067632 29.086
8.81860000 0.067724 -4.097 0.997691 -77.50 0.997691 -77.50 0.067729 29.093
8.81880000 0.067822 -4.118 0.997684 -77.50 0.997684 -77.50 0.067826 29.100
8.81900000 0.067920 -4.140 0.997678 -77.51 0.997678 -77.51 0.067924 29.107
8.81920000 0.068019 -4.162 0.997671 -77.52 0.997671 -77.52 0.068023 29.114
8.81940000 0.068118 -4.184 0.997664 -77.52 0.997664 -77.52 0.068123 29.121
8.81960000 0.068218 -4.206 0.997657 -77.53 0.997657 -77.53 0.068223 29.128
8.81980000 0.068319 -4.229 0.997650 -77.54 0.997650 -77.54 0.068323 29.135
8.82000000 0.068420 -4.251 0.997643 -77.55 0.997643 -77.55 0.068425 29.142
8.82020000 0.068522 -4.273 0.997636 -77.56 0.997636 -77.56 0.068527 29.149
8.82040000 0.068625 -4.296 0.997629 -77.56 0.997629 -77.56 0.068630 29.156
8.82060000 0.068728 -4.319 0.997622 -77.57 0.997622 -77.57 0.068733 29.163
8.82080000 0.068832 -4.341 0.997614 -77.58 0.997614 -77.58 0.068837 29.170
8.82100000 0.068937 -4.364 0.997607 -77.59 0.997607 -77.59 0.068942 29.177
8.82120000 0.069042 -4.387 0.997600 -77.59 0.997600 -77.59 0.069047 29.184
8.82140000 0.069149 -4.410 0.997592 -77.60 0.997592 -77.60 0.069153 29.191
8.82160000 0.069255 -4.433 0.997585 -77.61 0.997585 -77.61 0.069260 29.198
8.82180000 0.069363 -4.456 0.997577 -77.62 0.997577 -77.62 0.069368 29.205
8.82200000 0.069471 -4.479 0.997570 -77.63 0.997570 -77.63 0.069476 29.212
8.82220000 0.069580 -4.503 0.997562 -77.63 0.997562 -77.63 0.069585 29.220
8.82240000 0.069690 -4.526 0.997554 -77.64 0.997554 -77.64 0.069695 29.227
8.82260000 0.069801 -4.550 0.997546 -77.65 0.997546 -77.65 0.069806 29.234
8.82280000 0.069912 -4.573 0.997539 -77.66 0.997539 -77.66 0.069917 29.241
8.82300000 0.070024 -4.597 0.997531 -77.67 0.997531 -77.67 0.070029 29.248
8.82320000 0.070137 -4.621 0.997523 -77.68 0.997523 -77.68 0.070142 29.255
8.82340000 0.070251 -4.645 0.997515 -77.68 0.997515 -77.68 0.070256 29.263
8.82360000 0.070365 -4.669 0.997506 -77.69 0.997506 -77.69 0.070371 29.270
8.82380000 0.070481 -4.693 0.997498 -77.70 0.997498 -77.70 0.070486 29.277
8.82400000 0.070597 -4.718 0.997490 -77.71 0.997490 -77.71 0.070602 29.284
8.82420000 0.070714 -4.742 0.997481 -77.72 0.997481 -77.72 0.070719 29.291
8.82440000 0.070831 -4.766 0.997473 -77.73 0.997473 -77.73 0.070837 29.299
8.82460000 0.070950 -4.791 0.997465 -77.73 0.997465 -77.73 0.070955 29.306
8.82480000 0.071069 -4.816 0.997456 -77.74 0.997456 -77.74 0.071075 29.313
8.82500000 0.071190 -4.841 0.997447 -77.75 0.997447 -77.75 0.071195 29.321
8.82520000 0.071311 -4.866 0.997439 -77.76 0.997439 -77.76 0.071316 29.328
8.82540000 0.071433 -4.891 0.997430 -77.77 0.997430 -77.77 0.071438 29.335
8.82560000 0.071556 -4.916 0.997421 -77.78 0.997421 -77.78 0.071561 29.342
8.82580000 0.071679 -4.941 0.997412 -77.79 0.997412 -77.79 0.071685 29.350
8.82600000 0.071804 -4.966 0.997403 -77.80 0.997403 -77.80 0.071809 29.357
8.82620000 0.071930 -4.992 0.997394 -77.81 0.997394 -77.81 0.071935 29.364
8.82640000 0.072056 -5.018 0.997384 -77.81 0.997384 -77.81 0.072062 29.372
8.82660000 0.072184 -5.043 0.997375 -77.82 0.997375 -77.82 0.072189 29.379
8.82680000 0.072312 -5.069 0.997366 -77.83 0.997366 -77.83 0.072317 29.386
8.82700000 0.072441 -5.095 0.997356 -77.84 0.997356 -77.84 0.072447 29.394
8.82720000 0.072572 -5.121 0.997347 -77.85 0.997347 -77.85 0.072577 29.401
8.82740000 0.072703 -5.147 0.997337 -77.86 0.997337 -77.86 0.072708 29.409
8.82760000 0.072835 -5.174 0.997327 -77.87 0.997327 -77.87 0.072841 29.416
8.82780000 0.072968 -5.200 0.997317 -77.88 0.997317 -77.88 0.072974 29.423
8.82800000 0.073103 -5.227 0.997307 -77.89 0.997307 -77.89 0.073108 29.431
8.82820000 0.073238 -5.253 0.997297 -77.90 0.997297 -77.90 0.073244 29.438
8.82840000 0.073374 -5.280 0.997287 -77.91 0.997287 -77.91 0.073380 29.446
8.82860000 0.073512 -5.307 0.997277 -77.92 0.997277 -77.92 0.073517 29.453
8.82880000 0.073650 -5.334 0.997267 -77.93 0.997267 -77.93 0.073656 29.460
8.82900000 0.073789 -5.362 0.997256 -77.94 0.997256 -77.94 0.073795 29.468
8.82920000 0.073930 -5.389 0.997246 -77.95 0.997246 -77.95 0.073936 29.475
8.82940000 0.074072 -5.416 0.997235 -77.96 0.997235 -77.96 0.074077 29.483
8.82960000 0.074214 -5.444 0.997224 -77.97 0.997224 -77.97 0.074220 29.490
8.82980000 0.074358 -5.472 0.997214 -77.98 0.997214 -77.98 0.074364 29.498
8.83000000 0.074503 -5.500 0.997203 -77.99 0.997203 -77.99 0.074509 29.505
8.83020000 0.074649 -5.528 0.997192 -78.00 0.997192 -78.00 0.074655 29.512
8.83040000 0.074797 -5.556 0.997180 -78.01 0.997180 -78.01 0.074803 29.520
8.83060000 0.074945 -5.584 0.997169 -78.02 0.997169 -78.02 0.074951 29.527
8.83080000 0.075095 -5.613 0.997158 -78.03 0.997158 -78.03 0.075101 29.535
8.83100000 0.075246 -5.641 0.997146 -78.04 0.997146 -78.04 0.075252 29.542
8.83120000 0.075398 -5.670 0.997135 -78.05 0.997135 -78.05 0.075404 29.550
8.83140000 0.075551 -5.699 0.997123 -78.06 0.997123 -78.06 0.075557 29.557
8.83160000 0.075706 -5.728 0.997111 -78.07 0.997111 -78.07 0.075712 29.565
8.83180000 0.075861 -5.757 0.997099 -78.08 0.997099 -78.08 0.075868 29.572
8.83200000 0.076019 -5.786 0.997087 -78.09 0.997087 -78.09 0.076025 29.580
8.83220000 0.076177 -5.816 0.997075 -78.10 0.997075 -78.10 0.076183 29.587
8.83240000 0.076337 -5.845 0.997062 -78.11 0.997062 -78.11 0.076343 29.594
8.83260000 0.076498 -5.875 0.997050 -78.13 0.997050 -78.13 0.076504 29.602
8.83280000 0.076660 -5.905 0.997037 -78.14 0.997037 -78.14 0.076666 29.609
8.83300000 0.076824 -5.935 0.997025 -78.15 0.997025 -78.15 0.076830 29.617
8.83320000 0.076989 -5.965 0.997012 -78.16 0.997012 -78.16 0.076995 29.624
8.83340000 0.077155 -5.996 0.996999 -78.17 0.996999 -78.17 0.077162 29.632
8.83360000 0.077323 -6.026 0.996986 -78.18 0.996986 -78.18 0.077330 29.639
8.83380000 0.077492 -6.057 0.996972 -78.19 0.996972 -78.19 0.077499 29.646
8.83400000 0.077663 -6.088 0.996959 -78.21 0.996959 -78.21 0.077670 29.654
8.83420000 0.077835 -6.119 0.996945 -78.22 0.996945 -78.22 0.077842 29.661
8.83440000 0.078009 -6.150 0.996931 -78.23 0.996931 -78.23 0.078016 29.669
8.83460000 0.078184 -6.181 0.996918 -78.24 0.996918 -78.24 0.078191 29.676
8.83480000 0.078361 -6.213 0.996904 -78.25 0.996904 -78.25 0.078368 29.683
8.83500000 0.078539 -6.244 0.996889 -78.26 0.996889 -78.26 0.078546 29.691
8.83520000 0.078719 -6.276 0.996875 -78.28 0.996875 -78.28 0.078726 29.698
8.83540000 0.078901 -6.308 0.996861 -78.29 0.996861 -78.29 0.078907 29.706
8.83560000 0.079084 -6.341 0.996846 -78.30 0.996846 -78.30 0.079091 29.713
8.83580000 0.079268 -6.373 0.996831 -78.31 0.996831 -78.31 0.079275 29.720
8.83600000 0.079455 -6.406 0.996816 -78.33 0.996816 -78.33 0.079462 29.728
8.83620000 0.079643 -6.438 0.996801 -78.34 0.996801 -78.34 0.079650 29.735
8.83640000 0.079832 -6.471 0.996785 -78.35 0.996785 -78.35 0.079839 29.742
8.83660000 0.080024 -6.504 0.996770 -78.36 0.996770 -78.36 0.080031 29.749
8.83680000 0.080217 -6.538 0.996754 -78.38 0.996754 -78.38 0.080224 29.757
8.83700000 0.080412 -6.571 0.996738 -78.39 0.996738 -78.39 0.080419 29.764
8.83720000 0.080608 -6.605 0.996722 -78.40 0.996722 -78.40 0.080615 29.771
8.83740000 0.080807 -6.639 0.996706 -78.42 0.996706 -78.42 0.080814 29.778
8.83760000 0.081007 -6.673 0.996690 -78.43 0.996690 -78.43 0.081014 29.785
8.83780000 0.081209 -6.707 0.996673 -78.44 0.996673 -78.44 0.081216 29.793
8.83800000 0.081413 -6.742 0.996656 -78.46 0.996656 -78.46 0.081420 29.800
8.83820000 0.081619 -6.776 0.996639 -78.47 0.996639 -78.47 0.081626 29.807
8.83840000 0.081827 -6.811 0.996622 -78.49 0.996622 -78.49 0.081834 29.814
8.83860000 0.082037 -6.846 0.996604 -78.50 0.996604 -78.50 0.082044 29.821
8.83880000 0.082249 -6.882 0.996587 -78.51 0.996587 -78.51 0.082256 29.828
8.83900000 0.082463 -6.917 0.996569 -78.53 0.996569 -78.53 0.082470 29.835
8.83920000 0.082678 -6.953 0.996551 -78.54 0.996551 -78.54 0.082686 29.842
8.83940000 0.082896 -6.989 0.996532 -78.56 0.996532 -78.56 0.082904 29.849
8.83960000 0.083117 -7.025 0.996514 -78.57 0.996514 -78.57 0.083124 29.856
8.83980000 0.083339 -7.061 0.996495 -78.58 0.996495 -78.58 0.083347 29.863
8.84000000 0.083563 -7.098 0.996476 -78.60 0.996476 -78.60 0.083571 29.870
8.84020000 0.083790 -7.135 0.996457 -78.61 0.996457 -78.61 0.083798 29.876
8.84040000 0.084019 -7.172 0.996437 -78.63 0.996437 -78.63 0.084027 29.883
8.84060000 0.084250 -7.209 0.996417 -78.64 0.996417 -78.64 0.084258 29.890
8.84080000 0.084484 -7.246 0.996397 -78.66 0.996397 -78.66 0.084492 29.897
8.84100000 0.084719 -7.284 0.996377 -78.68 0.996377 -78.68 0.084727 29.903
8.84120000 0.084958 -7.322 0.996357 -78.69 0.996357 -78.69 0.084966 29.910
8.84140000 0.085198 -7.360 0.996336 -78.71 0.996336 -78.71 0.085206 29.917
8.84160000 0.085441 -7.399 0.996315 -78.72 0.996315 -78.72 0.085449 29.923
8.84180000 0.085687 -7.437 0.996293 -78.74 0.996293 -78.74 0.085695 29.930
8.84200000 0.085935 -7.476 0.996272 -78.75 0.996272 -78.75 0.085943 29.936
8.84220000 0.086186 -7.516 0.996250 -78.77 0.996250 -78.77 0.086194 29.943
8.84240000 0.086439 -7.555 0.996228 -78.79 0.996228 -78.79 0.086447 29.949
8.84260000 0.086695 -7.595 0.996205 -78.80 0.996205 -78.80 0.086703 29.955
8.84280000 0.086953 -7.635 0.996182 -78.82 0.996182 -78.82 0.086962 29.961
8.84300000 0.087215 -7.675 0.996159 -78.84 0.996159 -78.84 0.087223 29.968
8.84320000 0.087479 -7.715 0.996136 -78.85 0.996136 -78.85 0.087487 29.974
8.84340000 0.087746 -7.756 0.996112 -78.87 0.996112 -78.87 0.087754 29.980
8.84360000 0.088015 -7.797 0.996088 -78.89 0.996088 -78.89 0.088024 29.986
8.84380000 0.088288 -7.838 0.996063 -78.91 0.996063 -78.91 0.088297 29.992
8.84400000 0.088564 -7.880 0.996039 -78.92 0.996039 -78.92 0.088573 29.998
8.84420000 0.088842 -7.922 0.996013 -78.94 0.996013 -78.94 0.088851 30.004
8.84440000 0.089124 -7.964 0.995988 -78.96 0.995988 -78.96 0.089133 30.009
8.84460000 0.089409 -8.007 0.995962 -78.98 0.995962 -78.98 0.089418 30.015
8.84480000 0.089697 -8.049 0.995936 -79.00 0.995936 -79.00 0.089706 30.021
8.84500000 0.089988 -8.092 0.995909 -79.02 0.995909 -79.02 0.089997 30.026
8.84520000 0.090282 -8.136 0.995882 -79.03 0.995882 -79.03 0.090292 30.032
8.84540000 0.090580 -8.179 0.995855 -79.05 0.995855 -79.05 0.090589 30.037
8.84560000 0.090881 -8.223 0.995827 -79.07 0.995827 -79.07 0.090891 30.042
8.84580000 0.091186 -8.268 0.995799 -79.09 0.995799 -79.09 0.091195 30.047
8.84600000 0.091494 -8.312 0.995770 -79.11 0.995770 -79.11 0.091503 30.053
8.84620000 0.091806 -8.357 0.995741 -79.13 0.995741 -79.13 0.091815 30.058
8.84640000 0.092121 -8.403 0.995712 -79.15 0.995712 -79.15 0.092130 30.063
8.84660000 0.092440 -8.448 0.995682 -79.17 0.995682 -79.17 0.092449 30.067
8.84680000 0.092762 -8.494 0.995651 -79.19 0.995651 -79.19 0.092772 30.072
8.84700000 0.093089 -8.540 0.995621 -79.21 0.995621 -79.21 0.093099 30.077
8.84720000 0.093419 -8.587 0.995589 -79.23 0.995589 -79.23 0.093429 30.081
8.84740000 0.093753 -8.634 0.995557 -79.25 0.995557 -79.25 0.093763 30.086
8.84760000 0.094092 -8.681 0.995525 -79.28 0.995525 -79.28 0.094102 30.090
8.84780000 0.094434 -8.729 0.995492 -79.30 0.995492 -79.30 0.094444 30.094
8.84800000 0.094781 -8.777 0.995459 -79.32 0.995459 -79.32 0.094791 30.098
8.84820000 0.095131 -8.826 0.995425 -79.34 0.995425 -79.34 0.095142 30.102
8.84840000 0.095486 -8.874 0.995390 -79.36 0.995390 -79.36 0.095497 30.106
8.84860000 0.095846 -8.924 0.995355 -79.39 0.995355 -79.39 0.095856 30.110
8.84880000 0.096210 -8.973 0.995320 -79.41 0.995320 -79.41 0.096220 30.113
8.84900000 0.096578 -9.023 0.995284 -79.43 0.995284 -79.43 0.096589 30.117
8.84920000 0.096952 -9.074 0.995247 -79.46 0.995247 -79.46 0.096962 30.120
8.84940000 0.097329 -9.124 0.995209 -79.48 0.995209 -79.48 0.097340 30.123
8.84960000 0.097712 -9.176 0.995171 -79.50 0.995171 -79.50 0.097723 30.126
8.84980000 0.098100 -9.227 0.995133 -79.53 0.995133 -79.53 0.098111 30.129
8.85000000 0.098493 -9.279 0.995093 -79.55 0.995093 -79.55 0.098504 30.132
8.85020000 0.098890 -9.332 0.995053 -79.58 0.995053 -79.58 0.098901 30.134
8.85030394 0.099099 -9.359 0.995032 -79.59 0.995032 -79.59 0.099110 30.135
8.85040000 0.099293 -9.385 0.995013 -79.60 0.995013 -79.60 0.099305 30.136
8.85060000 0.099702 -9.438 0.994971 -79.63 0.994971 -79.63 0.099713 30.138
8.85080000 0.100115 -9.492 0.994929 -79.65 0.994929 -79.65 0.100127 30.140
8.85099176 0.100517 -9.544 0.994888 -79.68 0.994888 -79.68 0.100529 30.142
8.85100000 0.100535 -9.546 0.994886 -79.68 0.994886 -79.68 0.100546 30.142
8.85120000 0.100960 -9.601 0.994843 -79.70 0.994843 -79.70 0.100971 30.144
8.85140000 0.101390 -9.656 0.994798 -79.73 0.994798 -79.73 0.101402 30.145
8.85160000 0.101827 -9.712 0.994753 -79.76 0.994753 -79.76 0.101839 30.146
8.85166381 0.101967 -9.730 0.994739 -79.77 0.994739 -79.77 0.101979 30.147
8.85180000 0.102269 -9.768 0.994707 -79.79 0.994707 -79.79 0.102281 30.147
8.85200000 0.102718 -9.825 0.994660 -79.81 0.994660 -79.81 0.102730 30.148
8.85220000 0.103173 -9.882 0.994612 -79.84 0.994612 -79.84 0.103185 30.149
8.85232047 0.103450 -9.917 0.994583 -79.86 0.994583 -79.86 0.103462 30.149
8.85240000 0.103634 -9.940 0.994564 -79.87 0.994564 -79.87 0.103646 30.149
8.85260000 0.104102 -9.998 0.994514 -79.90 0.994514 -79.90 0.104114 30.149
8.85280000 0.104576 -10.06 0.994464 -79.93 0.994464 -79.93 0.104589 30.149
8.85296208 0.104966 -10.11 0.994422 -79.95 0.994422 -79.95 0.104978 30.149
8.85300000 0.105057 -10.12 0.994412 -79.96 0.994412 -79.96 0.105070 30.149
8.85320000 0.105546 -10.18 0.994360 -79.99 0.994360 -79.99 0.105558 30.148
8.85340000 0.106041 -10.24 0.994307 -80.02 0.994307 -80.02 0.106054 30.147
8.85358899 0.106515 -10.29 0.994255 -80.05 0.994255 -80.05 0.106528 30.146
8.85360000 0.106543 -10.30 0.994252 -80.05 0.994252 -80.05 0.106556 30.146
8.85380000 0.107053 -10.36 0.994196 -80.08 0.994196 -80.08 0.107066 30.144
8.85400000 0.107571 -10.42 0.994140 -80.11 0.994140 -80.11 0.107584 30.143
8.85420000 0.108096 -10.48 0.994082 -80.14 0.994082 -80.14 0.108109 30.141
8.85420153 0.108100 -10.49 0.994082 -80.14 0.994082 -80.14 0.108113 30.141
8.85440000 0.108629 -10.55 0.994023 -80.18 0.994023 -80.18 0.108642 30.138
8.85460000 0.109170 -10.61 0.993963 -80.21 0.993963 -80.21 0.109184 30.136
8.85480000 0.109720 -10.68 0.993902 -80.24 0.993902 -80.24 0.109733 30.133
8.85480003 0.109720 -10.68 0.993902 -80.24 0.993902 -80.24 0.109733 30.133
8.85500000 0.110277 -10.74 0.993839 -80.28 0.993839 -80.28 0.110291 30.129
8.85520000 0.110844 -10.81 0.993775 -80.31 0.993775 -80.31 0.110858 30.126
8.85538483 0.111375 -10.87 0.993715 -80.34 0.993715 -80.34 0.111389 30.122
8.85540000 0.111419 -10.88 0.993710 -80.35 0.993710 -80.35 0.111433 30.122
8.85560000 0.112004 -10.94 0.993643 -80.38 0.993643 -80.38 0.112018 30.117
8.85580000 0.112598 -11.01 0.993575 -80.42 0.993575 -80.42 0.112612 30.112
8.85595622 0.113068 -11.06 0.993521 -80.45 0.993521 -80.45 0.113082 30.108
8.85600000 0.113201 -11.08 0.993505 -80.46 0.993505 -80.46 0.113215 30.107
8.85620000 0.113814 -11.15 0.993434 -80.49 0.993434 -80.49 0.113829 30.102
8.85640000 0.114437 -11.22 0.993362 -80.53 0.993362 -80.53 0.114452 30.096
8.85651452 0.114798 -11.26 0.993319 -80.55 0.993319 -80.55 0.114813 30.092
8.85660000 0.115070 -11.29 0.993287 -80.57 0.993287 -80.57 0.115085 30.089
8.85680000 0.115714 -11.36 0.993211 -80.61 0.993211 -80.61 0.115729 30.082
8.85700000 0.116368 -11.44 0.993134 -80.65 0.993134 -80.65 0.116383 30.075
8.85706003 0.116567 -11.46 0.993110 -80.66 0.993110 -80.66 0.116582 30.073
8.85720000 0.117034 -11.51 0.993054 -80.69 0.993054 -80.69 0.117049 30.067
8.85740000 0.117710 -11.58 0.992973 -80.73 0.992973 -80.73 0.117726 30.059
8.85759303 0.118375 -11.66 0.992893 -80.77 0.992893 -80.77 0.118390 30.051
8.85760000 0.118399 -11.66 0.992890 -80.77 0.992890 -80.77 0.118414 30.050
8.85780000 0.119099 -11.74 0.992805 -80.81 0.992805 -80.81 0.119115 30.041
8.85800000 0.119811 -11.81 0.992718 -80.86 0.992718 -80.86 0.119827 30.031
8.85811383 0.120222 -11.86 0.992668 -80.88 0.992668 -80.88 0.120238 30.025
8.85820000 0.120536 -11.89 0.992629 -80.90 0.992629 -80.90 0.120552 30.021
8.85840000 0.121274 -11.97 0.992538 -80.94 0.992538 -80.94 0.121290 30.010
8.85860000 0.122024 -12.05 0.992444 -80.99 0.992444 -80.99 0.122041 29.998
8.85862269 0.122110 -12.06 0.992434 -80.99 0.992434 -80.99 0.122127 29.997
8.85880000 0.122789 -12.13 0.992349 -81.04 0.992349 -81.04 0.122805 29.986
8.85900000 0.123567 -12.21 0.992251 -81.08 0.992251 -81.08 0.123584 29.973
8.85911989 0.124040 -12.26 0.992191 -81.11 0.992191 -81.11 0.124057 29.965
8.85920000 0.124359 -12.29 0.992150 -81.13 0.992150 -81.13 0.124376 29.960
8.85940000 0.125166 -12.38 0.992047 -81.18 0.992047 -81.18 0.125183 29.946
8.85960000 0.125988 -12.46 0.991941 -81.23 0.991941 -81.23 0.126006 29.931
8.85960570 0.126012 -12.47 0.991938 -81.23 0.991938 -81.23 0.126029 29.931
8.85980000 0.126826 -12.55 0.991833 -81.28 0.991833 -81.28 0.126844 29.916
8.86000000 0.127680 -12.64 0.991722 -81.33 0.991722 -81.33 0.127697 29.899
8.86008037 0.128027 -12.67 0.991676 -81.35 0.991676 -81.35 0.128045 29.893
8.86020000 0.128550 -12.73 0.991608 -81.38 0.991608 -81.38 0.128568 29.883
8.86040000 0.129436 -12.81 0.991490 -81.43 0.991490 -81.43 0.129455 29.865
8.86054417 0.130086 -12.88 0.991404 -81.47 0.991404 -81.47 0.130105 29.851
8.86060000 0.130341 -12.91 0.991370 -81.49 0.991370 -81.49 0.130359 29.846
8.86080000 0.131263 -13.00 0.991247 -81.54 0.991247 -81.54 0.131281 29.827
8.86099735 0.132190 -13.09 0.991121 -81.60 0.991121 -81.60 0.132209 29.807
8.86100000 0.132203 -13.09 0.991120 -81.60 0.991120 -81.60 0.132222 29.806
8.86120000 0.133162 -13.19 0.990989 -81.66 0.990989 -81.66 0.133181 29.785
8.86140000 0.134141 -13.28 0.990855 -81.72 0.990855 -81.72 0.134160 29.763
8.86144014 0.134340 -13.30 0.990828 -81.73 0.990828 -81.73 0.134359 29.758
8.86160000 0.135140 -13.38 0.990717 -81.78 0.990717 -81.78 0.135160 29.740
8.86180000 0.136160 -13.48 0.990575 -81.84 0.990575 -81.84 0.136179 29.716
8.86187278 0.136536 -13.51 0.990523 -81.86 0.990523 -81.86 0.136556 29.707
8.86200000 0.137201 -13.58 0.990429 -81.90 0.990429 -81.90 0.137221 29.691
8.86220000 0.138264 -13.68 0.990279 -81.96 0.990279 -81.96 0.138284 29.664
8.86229551 0.138780 -13.73 0.990206 -81.99 0.990206 -81.99 0.138800 29.651
8.86240000 0.139350 -13.78 0.990124 -82.03 0.990124 -82.03 0.139370 29.637
8.86260000 0.140459 -13.89 0.989965 -82.09 0.989965 -82.09 0.140480 29.608
8.86270855 0.141071 -13.95 0.989877 -82.13 0.989877 -82.13 0.141092 29.592
8.86280000 0.141593 -14.00 0.989801 -82.16 0.989801 -82.16 0.141614 29.578
8.86300000 0.142752 -14.10 0.989632 -82.23 0.989632 -82.23 0.142773 29.547
8.86311213 0.143412 -14.17 0.989535 -82.27 0.989535 -82.27 0.143434 29.529
8.86320000 0.143936 -14.21 0.989457 -82.30 0.989457 -82.30 0.143958 29.515
8.86340000 0.145148 -14.33 0.989277 -82.37 0.989277 -82.37 0.145169 29.481
8.86350646 0.145804 -14.39 0.989179 -82.41 0.989179 -82.41 0.145826 29.463
8.86360000 0.146387 -14.44 0.989092 -82.45 0.989092 -82.45 0.146409 29.446
8.86380000 0.147654 -14.56 0.988900 -82.52 0.988900 -82.52 0.147677 29.410
8.86389176 0.148246 -14.61 0.988810 -82.56 0.988810 -82.56 0.148268 29.392
8.86400000 0.148952 -14.67 0.988703 -82.60 0.988703 -82.60 0.148974 29.372
8.86420000 0.150279 -14.79 0.988498 -82.68 0.988498 -82.68 0.150303 29.332
8.86426822 0.150740 -14.83 0.988427 -82.71 0.988427 -82.71 0.150763 29.318
8.86440000 0.151639 -14.92 0.988287 -82.76 0.988287 -82.76 0.151663 29.291
8.86460000 0.153032 -15.04 0.988069 -82.84 0.988069 -82.84 0.153056 29.248
8.86463606 0.153286 -15.06 0.988029 -82.86 0.988029 -82.86 0.153310 29.240
8.86480000 0.154458 -15.17 0.987843 -82.93 0.987843 -82.93 0.154483 29.203
8.86499547 0.155887 -15.29 0.987615 -83.01 0.987615 -83.01 0.155912 29.157
8.86500000 0.155921 -15.29 0.987610 -83.01 0.987610 -83.01 0.155945 29.156
8.86520000 0.157419 -15.43 0.987368 -83.10 0.987368 -83.10 0.157444 29.108
8.86534665 0.158542 -15.52 0.987185 -83.17 0.987185 -83.17 0.158567 29.071
8.86540000 0.158956 -15.56 0.987117 -83.19 0.987117 -83.19 0.158981 29.057
8.86560000 0.160532 -15.70 0.986858 -83.29 0.986858 -83.29 0.160558 29.005
8.86568978 0.161253 -15.76 0.986738 -83.33 0.986738 -83.33 0.161279 28.980
8.86580000 0.162150 -15.83 0.986589 -83.38 0.986589 -83.38 0.162176 28.950
8.86600000 0.163810 -15.98 0.986310 -83.48 0.986310 -83.48 0.163836 28.893
8.86602505 0.164021 -15.99 0.986274 -83.49 0.986274 -83.49 0.164047 28.885
8.86620000 0.165514 -16.12 0.986021 -83.58 0.986021 -83.58 0.165541 28.833
8.86635263 0.166846 -16.23 0.985792 -83.66 0.985792 -83.66 0.166873 28.786
8.86640000 0.167265 -16.27 0.985720 -83.69 0.985720 -83.69 0.167292 28.771
8.86660000 0.169063 -16.42 0.985408 -83.79 0.985408 -83.79 0.169091 28.707
8.86667271 0.169729 -16.47 0.985291 -83.83 0.985291 -83.83 0.169757 28.682
8.86680000 0.170911 -16.57 0.985084 -83.90 0.985084 -83.90 0.170940 28.639
8.86698546 0.172672 -16.72 0.984771 -84.01 0.984771 -84.01 0.172700 28.574
8.86700000 0.172812 -16.73 0.984746 -84.01 0.984746 -84.01 0.172841 28.569
8.86720000 0.174767 -16.89 0.984395 -84.13 0.984395 -84.13 0.174796 28.496
8.86729103 0.175675 -16.96 0.984231 -84.18 0.984231 -84.18 0.175704 28.462
8.86740000 0.176778 -17.05 0.984030 -84.25 0.984030 -84.25 0.176808 28.420
8.86758961 0.178740 -17.21 0.983669 -84.36 0.983669 -84.36 0.178770 28.345
8.86760000 0.178849 -17.22 0.983649 -84.37 0.983649 -84.37 0.178879 28.340
8.86780000 0.180981 -17.40 0.983252 -84.50 0.983252 -84.50 0.181011 28.258
8.86788135 0.181866 -17.47 0.983086 -84.55 0.983086 -84.55 0.181897 28.223
8.86800000 0.183177 -17.57 0.982838 -84.63 0.982838 -84.63 0.183208 28.171
8.86816640 0.185056 -17.72 0.982480 -84.74 0.982480 -84.74 0.185088 28.096
8.86820000 0.185441 -17.75 0.982406 -84.76 0.982406 -84.76 0.185473 28.081
8.86840000 0.187776 -17.94 0.981955 -84.90 0.981955 -84.90 0.187808 27.987
8.86844491 0.188310 -17.98 0.981850 -84.93 0.981850 -84.93 0.188342 27.965
8.86860000 0.190184 -18.13 0.981483 -85.04 0.981483 -85.04 0.190217 27.889
8.86871705 0.191629 -18.24 0.981197 -85.13 0.981197 -85.13 0.191662 27.829
8.86880000 0.192670 -18.32 0.980989 -85.19 0.980989 -85.19 0.192703 27.786
8.86898295 0.195014 -18.50 0.980518 -85.33 0.980518 -85.33 0.195048 27.688
8.86900000 0.195236 -18.52 0.980473 -85.34 0.980473 -85.34 0.195270 27.679
8.86920000 0.197887 -18.73 0.979931 -85.50 0.979931 -85.50 0.197922 27.567
8.86924276 0.198466 -18.77 0.979812 -85.53 0.979812 -85.53 0.198501 27.543
8.86940000 0.200628 -18.94 0.979364 -85.66 0.979364 -85.66 0.200663 27.450
8.86949661 0.201985 -19.04 0.979080 -85.74 0.979080 -85.74 0.202021 27.392