! Sonnet Data File
! From: emgraph Version : 16.52
! From Project: Resonator2
! Data is De-embedded 
! Data File Written: 10/05/2017 10:46:05
!< HDATE 10/04/2017 20:26:48
!< MDATE 10/05/2017 00:36:07
!< PARAMS
!< gap = 86.0
!< Length = 400.0
!< Pwid1 = 2000.0
!< Pwid2 = 2000.0
!< END PARAMS
# GHZ S MA R 50.00000
8.80000000 0.295985 -164.4 0.955189 -74.89 0.955189 -74.89 0.295985 -165.3
!< P1 F=8.8 Eeff=(5.36817953 -2.3731e-5) Z0=(35.9853883 8.0522e-5) R=0.0 C=0.0 
!< P2 F=8.8 Eeff=(5.36817953 -2.3731e-5) Z0=(35.9853883 8.0522e-5) R=0.0 C=0.0 
8.80020000 0.295987 -164.4 0.955189 -74.89 0.955189 -74.89 0.295987 -165.3
8.80040000 0.295989 -164.5 0.955188 -74.89 0.955188 -74.89 0.295989 -165.3
8.80060000 0.295991 -164.5 0.955188 -74.90 0.955188 -74.90 0.295991 -165.3
8.80080000 0.295993 -164.5 0.955187 -74.90 0.955187 -74.90 0.295993 -165.3
8.80100000 0.295995 -164.5 0.955186 -74.90 0.955186 -74.90 0.295995 -165.3
8.80120000 0.295997 -164.5 0.955186 -74.90 0.955186 -74.90 0.295997 -165.3
8.80140000 0.296000 -164.5 0.955185 -74.90 0.955185 -74.90 0.295999 -165.3
8.80160000 0.296002 -164.5 0.955184 -74.90 0.955184 -74.90 0.296002 -165.4
8.80180000 0.296004 -164.5 0.955184 -74.91 0.955184 -74.91 0.296004 -165.4
8.80200000 0.296006 -164.5 0.955183 -74.91 0.955183 -74.91 0.296006 -165.4
8.80220000 0.296008 -164.5 0.955182 -74.91 0.955182 -74.91 0.296008 -165.4
8.80240000 0.296010 -164.5 0.955182 -74.91 0.955182 -74.91 0.296010 -165.4
8.80260000 0.296012 -164.5 0.955181 -74.91 0.955181 -74.91 0.296012 -165.4
8.80280000 0.296014 -164.5 0.955180 -74.91 0.955180 -74.91 0.296014 -165.4
8.80300000 0.296016 -164.5 0.955180 -74.92 0.955180 -74.92 0.296016 -165.4
8.80320000 0.296018 -164.5 0.955179 -74.92 0.955179 -74.92 0.296018 -165.4
8.80340000 0.296021 -164.5 0.955178 -74.92 0.955178 -74.92 0.296020 -165.4
8.80360000 0.296023 -164.5 0.955178 -74.92 0.955178 -74.92 0.296022 -165.4
8.80380000 0.296025 -164.5 0.955177 -74.92 0.955177 -74.92 0.296025 -165.4
8.80400000 0.296027 -164.5 0.955176 -74.93 0.955176 -74.93 0.296027 -165.4
8.80420000 0.296029 -164.5 0.955176 -74.93 0.955176 -74.93 0.296029 -165.4
8.80440000 0.296031 -164.5 0.955175 -74.93 0.955175 -74.93 0.296031 -165.4
8.80460000 0.296033 -164.5 0.955174 -74.93 0.955174 -74.93 0.296033 -165.4
8.80480000 0.296035 -164.5 0.955174 -74.93 0.955174 -74.93 0.296035 -165.4
8.80500000 0.296037 -164.5 0.955173 -74.93 0.955173 -74.93 0.296037 -165.4
8.80520000 0.296039 -164.5 0.955173 -74.94 0.955173 -74.94 0.296039 -165.4
8.80540000 0.296041 -164.5 0.955172 -74.94 0.955172 -74.94 0.296041 -165.4
8.80560000 0.296044 -164.5 0.955171 -74.94 0.955171 -74.94 0.296043 -165.4
8.80580000 0.296046 -164.5 0.955171 -74.94 0.955171 -74.94 0.296045 -165.4
8.80600000 0.296048 -164.5 0.955170 -74.94 0.955170 -74.94 0.296047 -165.4
8.80620000 0.296050 -164.5 0.955169 -74.94 0.955169 -74.94 0.296050 -165.4
8.80640000 0.296052 -164.5 0.955169 -74.95 0.955169 -74.95 0.296052 -165.4
8.80660000 0.296054 -164.5 0.955168 -74.95 0.955168 -74.95 0.296054 -165.4
8.80680000 0.296056 -164.5 0.955167 -74.95 0.955167 -74.95 0.296056 -165.4
8.80700000 0.296058 -164.5 0.955167 -74.95 0.955167 -74.95 0.296058 -165.4
8.80720000 0.296060 -164.5 0.955166 -74.95 0.955166 -74.95 0.296060 -165.4
8.80740000 0.296062 -164.5 0.955165 -74.95 0.955165 -74.95 0.296062 -165.4
8.80760000 0.296064 -164.5 0.955165 -74.96 0.955165 -74.96 0.296064 -165.4
8.80780000 0.296066 -164.5 0.955164 -74.96 0.955164 -74.96 0.296066 -165.4
8.80800000 0.296068 -164.5 0.955164 -74.96 0.955164 -74.96 0.296068 -165.4
8.80820000 0.296070 -164.5 0.955163 -74.96 0.955163 -74.96 0.296070 -165.4
8.80840000 0.296072 -164.5 0.955162 -74.96 0.955162 -74.96 0.296072 -165.4
8.80860000 0.296075 -164.5 0.955162 -74.96 0.955162 -74.96 0.296074 -165.4
8.80880000 0.296077 -164.5 0.955161 -74.97 0.955161 -74.97 0.296076 -165.4
8.80900000 0.296079 -164.5 0.955160 -74.97 0.955160 -74.97 0.296078 -165.4
8.80920000 0.296081 -164.5 0.955160 -74.97 0.955160 -74.97 0.296080 -165.4
8.80940000 0.296083 -164.5 0.955159 -74.97 0.955159 -74.97 0.296083 -165.4
8.80960000 0.296085 -164.5 0.955158 -74.97 0.955158 -74.97 0.296085 -165.4
8.80980000 0.296087 -164.5 0.955158 -74.98 0.955158 -74.98 0.296087 -165.4
8.81000000 0.296089 -164.5 0.955157 -74.98 0.955157 -74.98 0.296089 -165.4
8.81020000 0.296091 -164.5 0.955157 -74.98 0.955157 -74.98 0.296091 -165.4
8.81040000 0.296093 -164.5 0.955156 -74.98 0.955156 -74.98 0.296093 -165.4
8.81060000 0.296095 -164.5 0.955155 -74.98 0.955155 -74.98 0.296095 -165.4
8.81080000 0.296097 -164.5 0.955155 -74.98 0.955155 -74.98 0.296097 -165.4
8.81100000 0.296099 -164.5 0.955154 -74.99 0.955154 -74.99 0.296099 -165.4
8.81120000 0.296101 -164.5 0.955153 -74.99 0.955153 -74.99 0.296101 -165.4
8.81140000 0.296103 -164.5 0.955153 -74.99 0.955153 -74.99 0.296103 -165.5
8.81160000 0.296105 -164.5 0.955152 -74.99 0.955152 -74.99 0.296105 -165.5
8.81180000 0.296107 -164.5 0.955151 -74.99 0.955151 -74.99 0.296107 -165.5
8.81200000 0.296109 -164.5 0.955151 -74.99 0.955151 -74.99 0.296109 -165.5
8.81220000 0.296111 -164.5 0.955150 -75.00 0.955150 -75.00 0.296111 -165.5
8.81240000 0.296113 -164.5 0.955150 -75.00 0.955150 -75.00 0.296113 -165.5
8.81260000 0.296115 -164.5 0.955149 -75.00 0.955149 -75.00 0.296115 -165.5
8.81280000 0.296117 -164.5 0.955148 -75.00 0.955148 -75.00 0.296117 -165.5
8.81300000 0.296119 -164.5 0.955148 -75.00 0.955148 -75.00 0.296119 -165.5
8.81320000 0.296121 -164.5 0.955147 -75.00 0.955147 -75.00 0.296121 -165.5
8.81340000 0.296123 -164.5 0.955146 -75.01 0.955146 -75.01 0.296123 -165.5
8.81360000 0.296125 -164.5 0.955146 -75.01 0.955146 -75.01 0.296125 -165.5
8.81380000 0.296127 -164.5 0.955145 -75.01 0.955145 -75.01 0.296127 -165.5
8.81400000 0.296129 -164.5 0.955145 -75.01 0.955145 -75.01 0.296129 -165.5
8.81420000 0.296131 -164.5 0.955144 -75.01 0.955144 -75.01 0.296131 -165.5
8.81440000 0.296133 -164.6 0.955143 -75.02 0.955143 -75.02 0.296133 -165.5
8.81460000 0.296135 -164.6 0.955143 -75.02 0.955143 -75.02 0.296135 -165.5
8.81480000 0.296137 -164.6 0.955142 -75.02 0.955142 -75.02 0.296137 -165.5
8.81500000 0.296139 -164.6 0.955141 -75.02 0.955141 -75.02 0.296139 -165.5
8.81520000 0.296141 -164.6 0.955141 -75.02 0.955141 -75.02 0.296141 -165.5
8.81540000 0.296143 -164.6 0.955140 -75.02 0.955140 -75.02 0.296143 -165.5
8.81560000 0.296145 -164.6 0.955140 -75.03 0.955140 -75.03 0.296145 -165.5
8.81580000 0.296147 -164.6 0.955139 -75.03 0.955139 -75.03 0.296147 -165.5
8.81600000 0.296149 -164.6 0.955138 -75.03 0.955138 -75.03 0.296149 -165.5
8.81620000 0.296151 -164.6 0.955138 -75.03 0.955138 -75.03 0.296151 -165.5
8.81640000 0.296153 -164.6 0.955137 -75.03 0.955137 -75.03 0.296153 -165.5
8.81660000 0.296155 -164.6 0.955137 -75.03 0.955137 -75.03 0.296155 -165.5
8.81680000 0.296157 -164.6 0.955136 -75.04 0.955136 -75.04 0.296157 -165.5
8.81700000 0.296159 -164.6 0.955135 -75.04 0.955135 -75.04 0.296159 -165.5
8.81720000 0.296161 -164.6 0.955135 -75.04 0.955135 -75.04 0.296161 -165.5
8.81740000 0.296163 -164.6 0.955134 -75.04 0.955134 -75.04 0.296163 -165.5
8.81760000 0.296165 -164.6 0.955133 -75.04 0.955133 -75.04 0.296165 -165.5
8.81780000 0.296167 -164.6 0.955133 -75.04 0.955133 -75.04 0.296167 -165.5
8.81800000 0.296169 -164.6 0.955132 -75.05 0.955132 -75.05 0.296169 -165.5
8.81820000 0.296171 -164.6 0.955132 -75.05 0.955132 -75.05 0.296171 -165.5
8.81840000 0.296173 -164.6 0.955131 -75.05 0.955131 -75.05 0.296173 -165.5
8.81860000 0.296175 -164.6 0.955130 -75.05 0.955130 -75.05 0.296175 -165.5
8.81880000 0.296177 -164.6 0.955130 -75.05 0.955130 -75.05 0.296177 -165.5
8.81900000 0.296179 -164.6 0.955129 -75.06 0.955129 -75.06 0.296179 -165.5
8.81920000 0.296181 -164.6 0.955129 -75.06 0.955129 -75.06 0.296181 -165.5
8.81940000 0.296183 -164.6 0.955128 -75.06 0.955128 -75.06 0.296183 -165.5
8.81960000 0.296185 -164.6 0.955127 -75.06 0.955127 -75.06 0.296185 -165.5
8.81980000 0.296187 -164.6 0.955127 -75.06 0.955127 -75.06 0.296187 -165.5
8.82000000 0.296189 -164.6 0.955126 -75.06 0.955126 -75.06 0.296189 -165.5
8.82020000 0.296191 -164.6 0.955126 -75.07 0.955126 -75.07 0.296190 -165.5
8.82040000 0.296193 -164.6 0.955125 -75.07 0.955125 -75.07 0.296192 -165.5
8.82060000 0.296195 -164.6 0.955124 -75.07 0.955124 -75.07 0.296194 -165.5
8.82080000 0.296197 -164.6 0.955124 -75.07 0.955124 -75.07 0.296196 -165.5
8.82100000 0.296199 -164.6 0.955123 -75.07 0.955123 -75.07 0.296198 -165.6
8.82120000 0.296200 -164.6 0.955123 -75.07 0.955123 -75.07 0.296200 -165.6
8.82140000 0.296202 -164.6 0.955122 -75.08 0.955122 -75.08 0.296202 -165.6
8.82160000 0.296204 -164.6 0.955121 -75.08 0.955121 -75.08 0.296204 -165.6
8.82180000 0.296206 -164.6 0.955121 -75.08 0.955121 -75.08 0.296206 -165.6
8.82200000 0.296208 -164.6 0.955120 -75.08 0.955120 -75.08 0.296208 -165.6
8.82220000 0.296210 -164.6 0.955120 -75.08 0.955120 -75.08 0.296210 -165.6
8.82240000 0.296212 -164.6 0.955119 -75.09 0.955119 -75.09 0.296212 -165.6
8.82260000 0.296214 -164.6 0.955118 -75.09 0.955118 -75.09 0.296214 -165.6
8.82280000 0.296216 -164.6 0.955118 -75.09 0.955118 -75.09 0.296216 -165.6
8.82300000 0.296218 -164.6 0.955117 -75.09 0.955117 -75.09 0.296218 -165.6
8.82320000 0.296220 -164.6 0.955117 -75.09 0.955117 -75.09 0.296219 -165.6
8.82340000 0.296222 -164.6 0.955116 -75.09 0.955116 -75.09 0.296221 -165.6
8.82360000 0.296224 -164.6 0.955115 -75.10 0.955115 -75.10 0.296223 -165.6
8.82380000 0.296225 -164.6 0.955115 -75.10 0.955115 -75.10 0.296225 -165.6
8.82400000 0.296227 -164.6 0.955114 -75.10 0.955114 -75.10 0.296227 -165.6
8.82420000 0.296229 -164.6 0.955114 -75.10 0.955114 -75.10 0.296229 -165.6
8.82440000 0.296231 -164.6 0.955113 -75.10 0.955113 -75.10 0.296231 -165.6
8.82460000 0.296233 -164.6 0.955112 -75.10 0.955112 -75.10 0.296233 -165.6
8.82480000 0.296235 -164.6 0.955112 -75.11 0.955112 -75.11 0.296235 -165.6
8.82500000 0.296237 -164.6 0.955111 -75.11 0.955111 -75.11 0.296237 -165.6
8.82520000 0.296239 -164.6 0.955111 -75.11 0.955111 -75.11 0.296238 -165.6
8.82540000 0.296241 -164.6 0.955110 -75.11 0.955110 -75.11 0.296240 -165.6
8.82560000 0.296243 -164.6 0.955109 -75.11 0.955109 -75.11 0.296242 -165.6
8.82580000 0.296244 -164.6 0.955109 -75.12 0.955109 -75.12 0.296244 -165.6
8.82600000 0.296246 -164.6 0.955108 -75.12 0.955108 -75.12 0.296246 -165.6
8.82620000 0.296248 -164.6 0.955108 -75.12 0.955108 -75.12 0.296248 -165.6
8.82640000 0.296250 -164.6 0.955107 -75.12 0.955107 -75.12 0.296250 -165.6
8.82660000 0.296252 -164.6 0.955107 -75.12 0.955107 -75.12 0.296252 -165.6
8.82680000 0.296254 -164.6 0.955106 -75.12 0.955106 -75.12 0.296254 -165.6
8.82700000 0.296256 -164.6 0.955105 -75.13 0.955105 -75.13 0.296255 -165.6
8.82720000 0.296258 -164.6 0.955105 -75.13 0.955105 -75.13 0.296257 -165.6
8.82740000 0.296259 -164.6 0.955104 -75.13 0.955104 -75.13 0.296259 -165.6
8.82760000 0.296261 -164.6 0.955104 -75.13 0.955104 -75.13 0.296261 -165.6
8.82780000 0.296263 -164.6 0.955103 -75.13 0.955103 -75.13 0.296263 -165.6
8.82800000 0.296265 -164.6 0.955102 -75.13 0.955102 -75.13 0.296265 -165.6
8.82820000 0.296267 -164.6 0.955102 -75.14 0.955102 -75.14 0.296267 -165.6
8.82840000 0.296269 -164.6 0.955101 -75.14 0.955101 -75.14 0.296268 -165.6
8.82860000 0.296271 -164.6 0.955101 -75.14 0.955101 -75.14 0.296270 -165.6
8.82880000 0.296272 -164.6 0.955100 -75.14 0.955100 -75.14 0.296272 -165.6
8.82900000 0.296274 -164.7 0.955100 -75.14 0.955100 -75.14 0.296274 -165.6
8.82920000 0.296276 -164.7 0.955099 -75.15 0.955099 -75.15 0.296276 -165.6
8.82940000 0.296278 -164.7 0.955098 -75.15 0.955098 -75.15 0.296278 -165.6
8.82960000 0.296280 -164.7 0.955098 -75.15 0.955098 -75.15 0.296279 -165.6
8.82980000 0.296282 -164.7 0.955097 -75.15 0.955097 -75.15 0.296281 -165.6
8.83000000 0.296283 -164.7 0.955097 -75.15 0.955097 -75.15 0.296283 -165.6
8.83020000 0.296285 -164.7 0.955096 -75.15 0.955096 -75.15 0.296285 -165.7
8.83040000 0.296287 -164.7 0.955096 -75.16 0.955096 -75.16 0.296287 -165.7
8.83060000 0.296289 -164.7 0.955095 -75.16 0.955095 -75.16 0.296289 -165.7
8.83080000 0.296291 -164.7 0.955095 -75.16 0.955095 -75.16 0.296290 -165.7
8.83100000 0.296293 -164.7 0.955094 -75.16 0.955094 -75.16 0.296292 -165.7
8.83120000 0.296294 -164.7 0.955093 -75.16 0.955093 -75.16 0.296294 -165.7
8.83140000 0.296296 -164.7 0.955093 -75.16 0.955093 -75.16 0.296296 -165.7
8.83160000 0.296298 -164.7 0.955092 -75.17 0.955092 -75.17 0.296298 -165.7
8.83180000 0.296300 -164.7 0.955092 -75.17 0.955092 -75.17 0.296299 -165.7
8.83200000 0.296302 -164.7 0.955091 -75.17 0.955091 -75.17 0.296301 -165.7
8.83220000 0.296303 -164.7 0.955091 -75.17 0.955091 -75.17 0.296303 -165.7
8.83240000 0.296305 -164.7 0.955090 -75.17 0.955090 -75.17 0.296305 -165.7
8.83260000 0.296307 -164.7 0.955089 -75.18 0.955089 -75.18 0.296307 -165.7
8.83280000 0.296309 -164.7 0.955089 -75.18 0.955089 -75.18 0.296308 -165.7
8.83300000 0.296311 -164.7 0.955088 -75.18 0.955088 -75.18 0.296310 -165.7
8.83320000 0.296312 -164.7 0.955088 -75.18 0.955088 -75.18 0.296312 -165.7
8.83340000 0.296314 -164.7 0.955087 -75.18 0.955087 -75.18 0.296314 -165.7
8.83360000 0.296316 -164.7 0.955087 -75.18 0.955087 -75.18 0.296316 -165.7
8.83380000 0.296318 -164.7 0.955086 -75.19 0.955086 -75.19 0.296317 -165.7
8.83400000 0.296319 -164.7 0.955086 -75.19 0.955086 -75.19 0.296319 -165.7
8.83420000 0.296321 -164.7 0.955085 -75.19 0.955085 -75.19 0.296321 -165.7
8.83440000 0.296323 -164.7 0.955084 -75.19 0.955084 -75.19 0.296323 -165.7
8.83460000 0.296325 -164.7 0.955084 -75.19 0.955084 -75.19 0.296324 -165.7
8.83480000 0.296326 -164.7 0.955083 -75.20 0.955083 -75.20 0.296326 -165.7
8.83500000 0.296328 -164.7 0.955083 -75.20 0.955083 -75.20 0.296328 -165.7
8.83520000 0.296330 -164.7 0.955082 -75.20 0.955082 -75.20 0.296330 -165.7
8.83540000 0.296332 -164.7 0.955082 -75.20 0.955082 -75.20 0.296331 -165.7
8.83560000 0.296334 -164.7 0.955081 -75.20 0.955081 -75.20 0.296333 -165.7
8.83580000 0.296335 -164.7 0.955081 -75.20 0.955081 -75.20 0.296335 -165.7
8.83600000 0.296337 -164.7 0.955080 -75.21 0.955080 -75.21 0.296337 -165.7
8.83620000 0.296339 -164.7 0.955080 -75.21 0.955080 -75.21 0.296338 -165.7
8.83640000 0.296340 -164.7 0.955079 -75.21 0.955079 -75.21 0.296340 -165.7
8.83660000 0.296342 -164.7 0.955079 -75.21 0.955079 -75.21 0.296342 -165.7
8.83680000 0.296344 -164.7 0.955078 -75.21 0.955078 -75.21 0.296343 -165.7
8.83700000 0.296346 -164.7 0.955077 -75.21 0.955077 -75.21 0.296345 -165.7
8.83720000 0.296347 -164.7 0.955077 -75.22 0.955077 -75.22 0.296347 -165.7
8.83740000 0.296349 -164.7 0.955076 -75.22 0.955076 -75.22 0.296349 -165.7
8.83760000 0.296351 -164.7 0.955076 -75.22 0.955076 -75.22 0.296350 -165.7
8.83780000 0.296352 -164.7 0.955075 -75.22 0.955075 -75.22 0.296352 -165.7
8.83800000 0.296354 -164.7 0.955075 -75.22 0.955075 -75.22 0.296354 -165.7
8.83820000 0.296356 -164.7 0.955074 -75.23 0.955074 -75.23 0.296355 -165.7
8.83840000 0.296358 -164.7 0.955074 -75.23 0.955074 -75.23 0.296357 -165.7
8.83860000 0.296359 -164.7 0.955073 -75.23 0.955073 -75.23 0.296359 -165.7
8.83880000 0.296361 -164.7 0.955073 -75.23 0.955073 -75.23 0.296361 -165.7
8.83900000 0.296363 -164.7 0.955072 -75.23 0.955072 -75.23 0.296362 -165.8
8.83920000 0.296364 -164.7 0.955072 -75.23 0.955072 -75.23 0.296364 -165.8
8.83940000 0.296366 -164.7 0.955071 -75.24 0.955071 -75.24 0.296366 -165.8
8.83960000 0.296368 -164.7 0.955071 -75.24 0.955071 -75.24 0.296367 -165.8
8.83980000 0.296369 -164.7 0.955070 -75.24 0.955070 -75.24 0.296369 -165.8
8.84000000 0.296371 -164.7 0.955070 -75.24 0.955070 -75.24 0.296371 -165.8
8.84020000 0.296373 -164.7 0.955069 -75.24 0.955069 -75.24 0.296372 -165.8
8.84040000 0.296374 -164.7 0.955068 -75.25 0.955068 -75.25 0.296374 -165.8
8.84060000 0.296376 -164.7 0.955068 -75.25 0.955068 -75.25 0.296376 -165.8
8.84080000 0.296378 -164.7 0.955067 -75.25 0.955067 -75.25 0.296377 -165.8
8.84100000 0.296379 -164.7 0.955067 -75.25 0.955067 -75.25 0.296379 -165.8
8.84120000 0.296381 -164.7 0.955066 -75.25 0.955066 -75.25 0.296381 -165.8
8.84140000 0.296383 -164.7 0.955066 -75.25 0.955066 -75.25 0.296382 -165.8
8.84160000 0.296384 -164.7 0.955065 -75.26 0.955065 -75.26 0.296384 -165.8
8.84180000 0.296386 -164.7 0.955065 -75.26 0.955065 -75.26 0.296385 -165.8
8.84200000 0.296388 -164.7 0.955064 -75.26 0.955064 -75.26 0.296387 -165.8
8.84220000 0.296389 -164.7 0.955064 -75.26 0.955064 -75.26 0.296389 -165.8
8.84240000 0.296391 -164.7 0.955063 -75.26 0.955063 -75.26 0.296390 -165.8
8.84260000 0.296392 -164.7 0.955063 -75.27 0.955063 -75.27 0.296392 -165.8
8.84280000 0.296394 -164.7 0.955062 -75.27 0.955062 -75.27 0.296394 -165.8
8.84300000 0.296396 -164.7 0.955062 -75.27 0.955062 -75.27 0.296395 -165.8
8.84320000 0.296397 -164.7 0.955061 -75.27 0.955061 -75.27 0.296397 -165.8
8.84340000 0.296399 -164.7 0.955061 -75.27 0.955061 -75.27 0.296398 -165.8
8.84360000 0.296400 -164.7 0.955060 -75.27 0.955060 -75.27 0.296400 -165.8
8.84380000 0.296402 -164.7 0.955060 -75.28 0.955060 -75.28 0.296402 -165.8
8.84400000 0.296404 -164.7 0.955059 -75.28 0.955059 -75.28 0.296403 -165.8
8.84420000 0.296405 -164.7 0.955059 -75.28 0.955059 -75.28 0.296405 -165.8
8.84440000 0.296407 -164.7 0.955058 -75.28 0.955058 -75.28 0.296406 -165.8
8.84460000 0.296408 -164.7 0.955058 -75.28 0.955058 -75.28 0.296408 -165.8
8.84480000 0.296410 -164.8 0.955057 -75.29 0.955057 -75.29 0.296409 -165.8
8.84500000 0.296412 -164.8 0.955057 -75.29 0.955057 -75.29 0.296411 -165.8
8.84520000 0.296413 -164.8 0.955056 -75.29 0.955056 -75.29 0.296413 -165.8
8.84540000 0.296415 -164.8 0.955056 -75.29 0.955056 -75.29 0.296414 -165.8
8.84560000 0.296416 -164.8 0.955055 -75.29 0.955055 -75.29 0.296416 -165.8
8.84580000 0.296418 -164.8 0.955055 -75.29 0.955055 -75.29 0.296417 -165.8
8.84600000 0.296419 -164.8 0.955055 -75.30 0.955055 -75.30 0.296419 -165.8
8.84620000 0.296421 -164.8 0.955054 -75.30 0.955054 -75.30 0.296420 -165.8
8.84640000 0.296422 -164.8 0.955054 -75.30 0.955054 -75.30 0.296422 -165.8
8.84660000 0.296424 -164.8 0.955053 -75.30 0.955053 -75.30 0.296423 -165.8
8.84680000 0.296425 -164.8 0.955053 -75.30 0.955053 -75.30 0.296425 -165.8
8.84700000 0.296427 -164.8 0.955052 -75.31 0.955052 -75.31 0.296426 -165.8
8.84720000 0.296428 -164.8 0.955052 -75.31 0.955052 -75.31 0.296428 -165.9
8.84740000 0.296430 -164.8 0.955051 -75.31 0.955051 -75.31 0.296429 -165.9
8.84760000 0.296431 -164.8 0.955051 -75.31 0.955051 -75.31 0.296431 -165.9
8.84780000 0.296433 -164.8 0.955050 -75.31 0.955050 -75.31 0.296432 -165.9
8.84800000 0.296434 -164.8 0.955050 -75.32 0.955050 -75.32 0.296434 -165.9
8.84820000 0.296436 -164.8 0.955049 -75.32 0.955049 -75.32 0.296435 -165.9
8.84840000 0.296437 -164.8 0.955049 -75.32 0.955049 -75.32 0.296437 -165.9
8.84860000 0.296439 -164.8 0.955048 -75.32 0.955048 -75.32 0.296438 -165.9
8.84880000 0.296440 -164.8 0.955048 -75.32 0.955048 -75.32 0.296440 -165.9
8.84900000 0.296442 -164.8 0.955048 -75.32 0.955048 -75.32 0.296441 -165.9
8.84920000 0.296443 -164.8 0.955047 -75.33 0.955047 -75.33 0.296443 -165.9
8.84940000 0.296445 -164.8 0.955047 -75.33 0.955047 -75.33 0.296444 -165.9
8.84960000 0.296446 -164.8 0.955046 -75.33 0.955046 -75.33 0.296446 -165.9
8.84980000 0.296448 -164.8 0.955046 -75.33 0.955046 -75.33 0.296447 -165.9
8.85000000 0.296449 -164.8 0.955045 -75.33 0.955045 -75.33 0.296448 -165.9
8.85020000 0.296451 -164.8 0.955045 -75.34 0.955045 -75.34 0.296450 -165.9
8.85040000 0.296452 -164.8 0.955044 -75.34 0.955044 -75.34 0.296451 -165.9
8.85060000 0.296453 -164.8 0.955044 -75.34 0.955044 -75.34 0.296453 -165.9
8.85080000 0.296455 -164.8 0.955043 -75.34 0.955043 -75.34 0.296454 -165.9
8.85100000 0.296456 -164.8 0.955043 -75.34 0.955043 -75.34 0.296456 -165.9
8.85120000 0.296458 -164.8 0.955043 -75.34 0.955043 -75.34 0.296457 -165.9
8.85140000 0.296459 -164.8 0.955042 -75.35 0.955042 -75.35 0.296458 -165.9
8.85160000 0.296460 -164.8 0.955042 -75.35 0.955042 -75.35 0.296460 -165.9
8.85180000 0.296462 -164.8 0.955041 -75.35 0.955041 -75.35 0.296461 -165.9
8.85200000 0.296463 -164.8 0.955041 -75.35 0.955041 -75.35 0.296463 -165.9
8.85220000 0.296465 -164.8 0.955040 -75.35 0.955040 -75.35 0.296464 -165.9
8.85240000 0.296466 -164.8 0.955040 -75.36 0.955040 -75.36 0.296465 -165.9
8.85260000 0.296467 -164.8 0.955040 -75.36 0.955040 -75.36 0.296467 -165.9
8.85280000 0.296469 -164.8 0.955039 -75.36 0.955039 -75.36 0.296468 -165.9
8.85300000 0.296470 -164.8 0.955039 -75.36 0.955039 -75.36 0.296469 -165.9
8.85320000 0.296471 -164.8 0.955038 -75.36 0.955038 -75.36 0.296471 -165.9
8.85340000 0.296473 -164.8 0.955038 -75.37 0.955038 -75.37 0.296472 -165.9
8.85360000 0.296474 -164.8 0.955037 -75.37 0.955037 -75.37 0.296473 -165.9
8.85380000 0.296475 -164.8 0.955037 -75.37 0.955037 -75.37 0.296475 -165.9
8.85400000 0.296477 -164.8 0.955037 -75.37 0.955037 -75.37 0.296476 -165.9
8.85420000 0.296478 -164.8 0.955036 -75.37 0.955036 -75.37 0.296477 -165.9
8.85440000 0.296479 -164.8 0.955036 -75.37 0.955036 -75.37 0.296479 -165.9
8.85460000 0.296481 -164.8 0.955035 -75.38 0.955035 -75.38 0.296480 -165.9
8.85480000 0.296482 -164.8 0.955035 -75.38 0.955035 -75.38 0.296481 -166.0
8.85500000 0.296483 -164.8 0.955035 -75.38 0.955035 -75.38 0.296483 -166.0
8.85520000 0.296485 -164.8 0.955034 -75.38 0.955034 -75.38 0.296484 -166.0
8.85540000 0.296486 -164.8 0.955034 -75.38 0.955034 -75.38 0.296485 -166.0
8.85560000 0.296487 -164.8 0.955033 -75.39 0.955033 -75.39 0.296486 -166.0
8.85580000 0.296488 -164.8 0.955033 -75.39 0.955033 -75.39 0.296488 -166.0
8.85600000 0.296490 -164.8 0.955033 -75.39 0.955033 -75.39 0.296489 -166.0
8.85620000 0.296491 -164.8 0.955032 -75.39 0.955032 -75.39 0.296490 -166.0
8.85640000 0.296492 -164.8 0.955032 -75.39 0.955032 -75.39 0.296491 -166.0
8.85660000 0.296493 -164.8 0.955031 -75.40 0.955031 -75.40 0.296493 -166.0
8.85680000 0.296495 -164.8 0.955031 -75.40 0.955031 -75.40 0.296494 -166.0
8.85700000 0.296496 -164.8 0.955031 -75.40 0.955031 -75.40 0.296495 -166.0
8.85720000 0.296497 -164.8 0.955030 -75.40 0.955030 -75.40 0.296496 -166.0
8.85740000 0.296498 -164.8 0.955030 -75.40 0.955030 -75.40 0.296498 -166.0
8.85760000 0.296500 -164.8 0.955030 -75.41 0.955030 -75.41 0.296499 -166.0
8.85780000 0.296501 -164.8 0.955029 -75.41 0.955029 -75.41 0.296500 -166.0
8.85800000 0.296502 -164.8 0.955029 -75.41 0.955029 -75.41 0.296501 -166.0
8.85820000 0.296503 -164.8 0.955028 -75.41 0.955028 -75.41 0.296502 -166.0
8.85840000 0.296504 -164.8 0.955028 -75.41 0.955028 -75.41 0.296503 -166.0
8.85860000 0.296505 -164.8 0.955028 -75.41 0.955028 -75.41 0.296505 -166.0
8.85880000 0.296507 -164.8 0.955027 -75.42 0.955027 -75.42 0.296506 -166.0
8.85900000 0.296508 -164.8 0.955027 -75.42 0.955027 -75.42 0.296507 -166.0
8.85920000 0.296509 -164.8 0.955027 -75.42 0.955027 -75.42 0.296508 -166.0
8.85940000 0.296510 -164.8 0.955026 -75.42 0.955026 -75.42 0.296509 -166.0
8.85960000 0.296511 -164.8 0.955026 -75.42 0.955026 -75.42 0.296510 -166.0
8.85980000 0.296512 -164.8 0.955026 -75.43 0.955026 -75.43 0.296511 -166.0
8.86000000 0.296513 -164.8 0.955025 -75.43 0.955025 -75.43 0.296513 -166.0
8.86020000 0.296515 -164.8 0.955025 -75.43 0.955025 -75.43 0.296514 -166.0
8.86040000 0.296516 -164.8 0.955024 -75.43 0.955024 -75.43 0.296515 -166.0
8.86060000 0.296517 -164.8 0.955024 -75.43 0.955024 -75.43 0.296516 -166.0
8.86080000 0.296518 -164.8 0.955024 -75.44 0.955024 -75.44 0.296517 -166.0
8.86100000 0.296519 -164.8 0.955023 -75.44 0.955023 -75.44 0.296518 -166.0
8.86120000 0.296520 -164.8 0.955023 -75.44 0.955023 -75.44 0.296519 -166.0
8.86140000 0.296521 -164.8 0.955023 -75.44 0.955023 -75.44 0.296520 -166.0
8.86160000 0.296522 -164.8 0.955022 -75.44 0.955022 -75.44 0.296521 -166.0
8.86180000 0.296523 -164.8 0.955022 -75.45 0.955022 -75.45 0.296522 -166.0
8.86200000 0.296524 -164.8 0.955022 -75.45 0.955022 -75.45 0.296523 -166.1
8.86220000 0.296525 -164.8 0.955022 -75.45 0.955022 -75.45 0.296524 -166.1
8.86240000 0.296526 -164.8 0.955021 -75.45 0.955021 -75.45 0.296525 -166.1
8.86260000 0.296527 -164.8 0.955021 -75.45 0.955021 -75.45 0.296526 -166.1
8.86280000 0.296528 -164.8 0.955021 -75.46 0.955021 -75.46 0.296527 -166.1
8.86300000 0.296529 -164.8 0.955020 -75.46 0.955020 -75.46 0.296528 -166.1
8.86320000 0.296530 -164.8 0.955020 -75.46 0.955020 -75.46 0.296529 -166.1
8.86340000 0.296531 -164.8 0.955020 -75.46 0.955020 -75.46 0.296530 -166.1
8.86360000 0.296532 -164.9 0.955019 -75.46 0.955019 -75.46 0.296531 -166.1
8.86380000 0.296533 -164.9 0.955019 -75.47 0.955019 -75.47 0.296532 -166.1
8.86400000 0.296534 -164.9 0.955019 -75.47 0.955019 -75.47 0.296533 -166.1
8.86420000 0.296535 -164.9 0.955018 -75.47 0.955018 -75.47 0.296534 -166.1
8.86440000 0.296536 -164.9 0.955018 -75.47 0.955018 -75.47 0.296535 -166.1
8.86460000 0.296537 -164.9 0.955018 -75.47 0.955018 -75.47 0.296536 -166.1
8.86480000 0.296537 -164.9 0.955018 -75.48 0.955018 -75.48 0.296536 -166.1
8.86500000 0.296538 -164.9 0.955017 -75.48 0.955017 -75.48 0.296537 -166.1
8.86520000 0.296539 -164.9 0.955017 -75.48 0.955017 -75.48 0.296538 -166.1
8.86540000 0.296540 -164.9 0.955017 -75.48 0.955017 -75.48 0.296539 -166.1
8.86560000 0.296541 -164.9 0.955017 -75.48 0.955017 -75.48 0.296540 -166.1
8.86580000 0.296542 -164.9 0.955016 -75.49 0.955016 -75.49 0.296541 -166.1
8.86600000 0.296543 -164.9 0.955016 -75.49 0.955016 -75.49 0.296542 -166.1
8.86620000 0.296543 -164.9 0.955016 -75.49 0.955016 -75.49 0.296542 -166.1
8.86640000 0.296544 -164.9 0.955016 -75.49 0.955016 -75.49 0.296543 -166.1
8.86660000 0.296545 -164.9 0.955015 -75.49 0.955015 -75.49 0.296544 -166.1
8.86680000 0.296546 -164.9 0.955015 -75.50 0.955015 -75.50 0.296545 -166.1
8.86700000 0.296547 -164.9 0.955015 -75.50 0.955015 -75.50 0.296545 -166.1
8.86720000 0.296547 -164.9 0.955015 -75.50 0.955015 -75.50 0.296546 -166.1
8.86740000 0.296548 -164.9 0.955014 -75.50 0.955014 -75.50 0.296547 -166.1
8.86760000 0.296549 -164.9 0.955014 -75.50 0.955014 -75.50 0.296548 -166.1
8.86780000 0.296550 -164.9 0.955014 -75.51 0.955014 -75.51 0.296548 -166.1
8.86800000 0.296550 -164.9 0.955014 -75.51 0.955014 -75.51 0.296549 -166.1
8.86820000 0.296551 -164.9 0.955013 -75.51 0.955013 -75.51 0.296550 -166.1
8.86840000 0.296552 -164.9 0.955013 -75.51 0.955013 -75.51 0.296550 -166.2
8.86860000 0.296552 -164.9 0.955013 -75.51 0.955013 -75.51 0.296551 -166.2
8.86880000 0.296553 -164.9 0.955013 -75.52 0.955013 -75.52 0.296552 -166.2
8.86900000 0.296554 -164.9 0.955013 -75.52 0.955013 -75.52 0.296552 -166.2
8.86920000 0.296554 -164.9 0.955012 -75.52 0.955012 -75.52 0.296553 -166.2
8.86940000 0.296555 -164.9 0.955012 -75.52 0.955012 -75.52 0.296554 -166.2
8.86960000 0.296556 -164.9 0.955012 -75.52 0.955012 -75.52 0.296554 -166.2
8.86980000 0.296556 -164.9 0.955012 -75.53 0.955012 -75.53 0.296555 -166.2
8.87000000 0.296557 -164.9 0.955012 -75.53 0.955012 -75.53 0.296555 -166.2
8.87020000 0.296557 -164.9 0.955011 -75.53 0.955011 -75.53 0.296556 -166.2
8.87040000 0.296558 -164.9 0.955011 -75.53 0.955011 -75.53 0.296557 -166.2
8.87060000 0.296558 -164.9 0.955011 -75.53 0.955011 -75.53 0.296557 -166.2
8.87080000 0.296559 -164.9 0.955011 -75.54 0.955011 -75.54 0.296558 -166.2
8.87100000 0.296560 -164.9 0.955011 -75.54 0.955011 -75.54 0.296558 -166.2
8.87120000 0.296560 -164.9 0.955011 -75.54 0.955011 -75.54 0.296559 -166.2
8.87140000 0.296561 -164.9 0.955010 -75.54 0.955010 -75.54 0.296559 -166.2
8.87160000 0.296561 -164.9 0.955010 -75.54 0.955010 -75.54 0.296560 -166.2
8.87180000 0.296561 -164.9 0.955010 -75.55 0.955010 -75.55 0.296560 -166.2
8.87200000 0.296562 -164.9 0.955010 -75.55 0.955010 -75.55 0.296560 -166.2
8.87220000 0.296562 -164.9 0.955010 -75.55 0.955010 -75.55 0.296561 -166.2
8.87240000 0.296563 -164.9 0.955010 -75.55 0.955010 -75.55 0.296561 -166.2
8.87260000 0.296563 -164.9 0.955010 -75.55 0.955010 -75.55 0.296562 -166.2
8.87280000 0.296564 -164.9 0.955009 -75.56 0.955009 -75.56 0.296562 -166.2
8.87300000 0.296564 -164.9 0.955009 -75.56 0.955009 -75.56 0.296562 -166.2
8.87320000 0.296564 -164.9 0.955009 -75.56 0.955009 -75.56 0.296563 -166.2
8.87340000 0.296565 -164.9 0.955009 -75.56 0.955009 -75.56 0.296563 -166.2
8.87360000 0.296565 -164.9 0.955009 -75.57 0.955009 -75.57 0.296563 -166.2
8.87380000 0.296565 -164.9 0.955009 -75.57 0.955009 -75.57 0.296564 -166.2
8.87400000 0.296565 -164.9 0.955009 -75.57 0.955009 -75.57 0.296564 -166.3
8.87420000 0.296566 -164.9 0.955009 -75.57 0.955009 -75.57 0.296564 -166.3
8.87440000 0.296566 -164.9 0.955009 -75.57 0.955009 -75.57 0.296564 -166.3
8.87460000 0.296566 -164.9 0.955009 -75.58 0.955009 -75.58 0.296565 -166.3
8.87480000 0.296566 -164.9 0.955008 -75.58 0.955008 -75.58 0.296565 -166.3
8.87500000 0.296567 -164.9 0.955008 -75.58 0.955008 -75.58 0.296565 -166.3
8.87520000 0.296567 -164.9 0.955008 -75.58 0.955008 -75.58 0.296565 -166.3
8.87540000 0.296567 -164.9 0.955008 -75.58 0.955008 -75.58 0.296565 -166.3
8.87560000 0.296567 -164.9 0.955008 -75.59 0.955008 -75.59 0.296566 -166.3
8.87580000 0.296567 -164.9 0.955008 -75.59 0.955008 -75.59 0.296566 -166.3
8.87600000 0.296567 -164.9 0.955008 -75.59 0.955008 -75.59 0.296566 -166.3
8.87620000 0.296568 -164.9 0.955008 -75.59 0.955008 -75.59 0.296566 -166.3
8.87640000 0.296568 -164.9 0.955008 -75.60 0.955008 -75.60 0.296566 -166.3
8.87660000 0.296568 -164.9 0.955008 -75.60 0.955008 -75.60 0.296566 -166.3
8.87680000 0.296568 -164.9 0.955008 -75.60 0.955008 -75.60 0.296566 -166.3
8.87700000 0.296568 -164.9 0.955008 -75.60 0.955008 -75.60 0.296566 -166.3
8.87720000 0.296568 -164.9 0.955008 -75.60 0.955008 -75.60 0.296566 -166.3
8.87740000 0.296568 -164.9 0.955008 -75.61 0.955008 -75.61 0.296566 -166.3
8.87760000 0.296568 -164.9 0.955008 -75.61 0.955008 -75.61 0.296566 -166.3
8.87780000 0.296568 -164.9 0.955008 -75.61 0.955008 -75.61 0.296566 -166.3
8.87800000 0.296567 -164.9 0.955008 -75.61 0.955008 -75.61 0.296566 -166.3
8.87820000 0.296567 -164.9 0.955008 -75.62 0.955008 -75.62 0.296565 -166.3
8.87840000 0.296567 -164.9 0.955008 -75.62 0.955008 -75.62 0.296565 -166.3