! Sonnet Data File
! From: emgraph Version : 16.52
! From Emgraph Data: Resonator2
! Data File Written: 10/04/2017 20:23:38
!< HDATE 10/04/2017 19:58:20
!< MDATE 10/04/2017 19:59:40
!< PARAMS
!< gap = 6.0
!< Length = 400.0
!< Pwid1 = 1500.0
!< END PARAMS
# GHZ S MA R 35.46000
8.80000000 0.068072 28.227 0.997672 -44.52 0.997672 -44.52 0.068076 62.728
!< P1 F=8.8 Eeff=(6.54088809 -2.9347e-5) Z0=(35.4525268 7.805e-5) R=0.0 C=0.0 
!< P2 F=8.8 Eeff=(6.54088809 -2.9347e-5) Z0=(35.4525268 7.805e-5) R=0.0 C=0.0 
8.80020000 0.068133 28.208 0.997668 -44.52 0.997668 -44.52 0.068137 62.738
8.80040000 0.068194 28.190 0.997664 -44.53 0.997664 -44.53 0.068198 62.747
8.80060000 0.068256 28.171 0.997660 -44.53 0.997660 -44.53 0.068260 62.757
8.80080000 0.068317 28.152 0.997655 -44.54 0.997655 -44.54 0.068322 62.767
8.80100000 0.068379 28.133 0.997651 -44.54 0.997651 -44.54 0.068384 62.776
8.80120000 0.068442 28.114 0.997647 -44.55 0.997647 -44.55 0.068446 62.786
8.80140000 0.068504 28.095 0.997643 -44.55 0.997643 -44.55 0.068509 62.796
8.80160000 0.068567 28.076 0.997638 -44.56 0.997638 -44.56 0.068572 62.806
8.80180000 0.068630 28.056 0.997634 -44.56 0.997634 -44.56 0.068635 62.815
8.80200000 0.068694 28.037 0.997629 -44.56 0.997629 -44.56 0.068698 62.825
8.80220000 0.068758 28.018 0.997625 -44.57 0.997625 -44.57 0.068762 62.835
8.80240000 0.068822 27.999 0.997621 -44.57 0.997621 -44.57 0.068826 62.845
8.80260000 0.068886 27.979 0.997616 -44.58 0.997616 -44.58 0.068891 62.855
8.80280000 0.068951 27.960 0.997612 -44.58 0.997612 -44.58 0.068956 62.865
8.80300000 0.069016 27.940 0.997607 -44.59 0.997607 -44.59 0.069021 62.875
8.80320000 0.069081 27.920 0.997602 -44.59 0.997602 -44.59 0.069086 62.884
8.80340000 0.069147 27.901 0.997598 -44.60 0.997598 -44.60 0.069152 62.894
8.80360000 0.069213 27.881 0.997593 -44.60 0.997593 -44.60 0.069218 62.904
8.80380000 0.069279 27.861 0.997589 -44.61 0.997589 -44.61 0.069284 62.915
8.80400000 0.069346 27.841 0.997584 -44.61 0.997584 -44.61 0.069351 62.925
8.80420000 0.069413 27.821 0.997579 -44.62 0.997579 -44.62 0.069418 62.935
8.80440000 0.069480 27.801 0.997575 -44.62 0.997575 -44.62 0.069485 62.945
8.80460000 0.069548 27.781 0.997570 -44.63 0.997570 -44.63 0.069553 62.955
8.80480000 0.069616 27.761 0.997565 -44.63 0.997565 -44.63 0.069621 62.965
8.80500000 0.069684 27.741 0.997560 -44.64 0.997560 -44.64 0.069689 62.975
8.80520000 0.069753 27.721 0.997555 -44.64 0.997555 -44.64 0.069758 62.986
8.80540000 0.069822 27.700 0.997550 -44.65 0.997550 -44.65 0.069827 62.996
8.80560000 0.069891 27.680 0.997546 -44.65 0.997546 -44.65 0.069896 63.006
8.80580000 0.069961 27.659 0.997541 -44.66 0.997541 -44.66 0.069966 63.016
8.80600000 0.070031 27.639 0.997536 -44.66 0.997536 -44.66 0.070036 63.027
8.80620000 0.070102 27.618 0.997531 -44.67 0.997531 -44.67 0.070107 63.037
8.80640000 0.070172 27.597 0.997526 -44.67 0.997526 -44.67 0.070177 63.047
8.80660000 0.070244 27.577 0.997521 -44.68 0.997521 -44.68 0.070248 63.058
8.80680000 0.070315 27.556 0.997516 -44.68 0.997516 -44.68 0.070320 63.068
8.80700000 0.070387 27.535 0.997510 -44.69 0.997510 -44.69 0.070392 63.079
8.80720000 0.070459 27.514 0.997505 -44.69 0.997505 -44.69 0.070464 63.089
8.80740000 0.070532 27.493 0.997500 -44.70 0.997500 -44.70 0.070537 63.100
8.80760000 0.070605 27.472 0.997495 -44.70 0.997495 -44.70 0.070610 63.110
8.80780000 0.070678 27.451 0.997490 -44.71 0.997490 -44.71 0.070683 63.121
8.80800000 0.070752 27.429 0.997484 -44.71 0.997484 -44.71 0.070757 63.131
8.80820000 0.070826 27.408 0.997479 -44.72 0.997479 -44.72 0.070831 63.142
8.80840000 0.070900 27.387 0.997474 -44.73 0.997474 -44.73 0.070905 63.153
8.80860000 0.070975 27.365 0.997468 -44.73 0.997468 -44.73 0.070980 63.163
8.80880000 0.071050 27.343 0.997463 -44.74 0.997463 -44.74 0.071056 63.174
8.80900000 0.071126 27.322 0.997458 -44.74 0.997458 -44.74 0.071131 63.185
8.80920000 0.071202 27.300 0.997452 -44.75 0.997452 -44.75 0.071207 63.196
8.80940000 0.071279 27.278 0.997447 -44.75 0.997447 -44.75 0.071284 63.206
8.80960000 0.071356 27.256 0.997441 -44.76 0.997441 -44.76 0.071361 63.217
8.80980000 0.071433 27.235 0.997436 -44.76 0.997436 -44.76 0.071438 63.228
8.81000000 0.071510 27.213 0.997430 -44.77 0.997430 -44.77 0.071516 63.239
8.81020000 0.071589 27.190 0.997424 -44.77 0.997424 -44.77 0.071594 63.250
8.81040000 0.071667 27.168 0.997419 -44.78 0.997419 -44.78 0.071672 63.261
8.81060000 0.071746 27.146 0.997413 -44.79 0.997413 -44.79 0.071751 63.272
8.81080000 0.071825 27.124 0.997407 -44.79 0.997407 -44.79 0.071831 63.283
8.81100000 0.071905 27.101 0.997401 -44.80 0.997401 -44.80 0.071910 63.294
8.81120000 0.071985 27.079 0.997395 -44.80 0.997395 -44.80 0.071991 63.305
8.81140000 0.072066 27.056 0.997390 -44.81 0.997390 -44.81 0.072071 63.316
8.81160000 0.072147 27.034 0.997384 -44.81 0.997384 -44.81 0.072152 63.327
8.81180000 0.072229 27.011 0.997378 -44.82 0.997378 -44.82 0.072234 63.338
8.81200000 0.072311 26.988 0.997372 -44.83 0.997372 -44.83 0.072316 63.349
8.81220000 0.072393 26.965 0.997366 -44.83 0.997366 -44.83 0.072398 63.361
8.81240000 0.072476 26.942 0.997360 -44.84 0.997360 -44.84 0.072481 63.372
8.81260000 0.072559 26.919 0.997354 -44.84 0.997354 -44.84 0.072565 63.383
8.81280000 0.072643 26.896 0.997347 -44.85 0.997347 -44.85 0.072649 63.394
8.81300000 0.072727 26.873 0.997341 -44.86 0.997341 -44.86 0.072733 63.406
8.81320000 0.072812 26.849 0.997335 -44.86 0.997335 -44.86 0.072818 63.417
8.81340000 0.072897 26.826 0.997329 -44.87 0.997329 -44.87 0.072903 63.428
8.81360000 0.072983 26.803 0.997322 -44.87 0.997322 -44.87 0.072988 63.440
8.81380000 0.073069 26.779 0.997316 -44.88 0.997316 -44.88 0.073075 63.451
8.81400000 0.073156 26.755 0.997310 -44.89 0.997310 -44.89 0.073161 63.463
8.81420000 0.073243 26.732 0.997303 -44.89 0.997303 -44.89 0.073248 63.474
8.81440000 0.073330 26.708 0.997297 -44.90 0.997297 -44.90 0.073336 63.486
8.81460000 0.073419 26.684 0.997290 -44.90 0.997290 -44.90 0.073424 63.497
8.81480000 0.073507 26.660 0.997284 -44.91 0.997284 -44.91 0.073513 63.509
8.81500000 0.073596 26.636 0.997277 -44.92 0.997277 -44.92 0.073602 63.521
8.81520000 0.073686 26.612 0.997270 -44.92 0.997270 -44.92 0.073692 63.532
8.81540000 0.073776 26.587 0.997264 -44.93 0.997264 -44.93 0.073782 63.544
8.81560000 0.073867 26.563 0.997257 -44.93 0.997257 -44.93 0.073873 63.556
8.81580000 0.073958 26.539 0.997250 -44.94 0.997250 -44.94 0.073964 63.567
8.81600000 0.074050 26.514 0.997243 -44.95 0.997243 -44.95 0.074056 63.579
8.81620000 0.074142 26.489 0.997236 -44.95 0.997236 -44.95 0.074148 63.591
8.81640000 0.074235 26.465 0.997229 -44.96 0.997229 -44.96 0.074241 63.603
8.81660000 0.074328 26.440 0.997222 -44.97 0.997222 -44.97 0.074334 63.614
8.81680000 0.074422 26.415 0.997215 -44.97 0.997215 -44.97 0.074428 63.626
8.81700000 0.074516 26.390 0.997208 -44.98 0.997208 -44.98 0.074522 63.638
8.81720000 0.074611 26.365 0.997201 -44.99 0.997201 -44.99 0.074617 63.650
8.81740000 0.074707 26.340 0.997194 -44.99 0.997194 -44.99 0.074713 63.662
8.81760000 0.074803 26.314 0.997186 -45.00 0.997186 -45.00 0.074809 63.674
8.81780000 0.074900 26.289 0.997179 -45.01 0.997179 -45.01 0.074906 63.686
8.81800000 0.074997 26.263 0.997172 -45.01 0.997172 -45.01 0.075003 63.698
8.81820000 0.075095 26.238 0.997164 -45.02 0.997164 -45.02 0.075101 63.710
8.81840000 0.075193 26.212 0.997157 -45.03 0.997157 -45.03 0.075199 63.722
8.81860000 0.075292 26.186 0.997149 -45.03 0.997149 -45.03 0.075298 63.735
8.81880000 0.075392 26.160 0.997142 -45.04 0.997142 -45.04 0.075398 63.747
8.81900000 0.075492 26.134 0.997134 -45.05 0.997134 -45.05 0.075498 63.759
8.81920000 0.075593 26.108 0.997126 -45.05 0.997126 -45.05 0.075599 63.771
8.81940000 0.075694 26.082 0.997119 -45.06 0.997119 -45.06 0.075701 63.783
8.81960000 0.075797 26.056 0.997111 -45.07 0.997111 -45.07 0.075803 63.796
8.81980000 0.075899 26.029 0.997103 -45.07 0.997103 -45.07 0.075906 63.808
8.82000000 0.076003 26.003 0.997095 -45.08 0.997095 -45.08 0.076009 63.820
8.82020000 0.076107 25.976 0.997087 -45.09 0.997087 -45.09 0.076113 63.833
8.82040000 0.076211 25.949 0.997079 -45.10 0.997079 -45.10 0.076218 63.845
8.82060000 0.076316 25.923 0.997071 -45.10 0.997071 -45.10 0.076323 63.858
8.82080000 0.076422 25.896 0.997063 -45.11 0.997063 -45.11 0.076429 63.870
8.82100000 0.076529 25.869 0.997054 -45.12 0.997054 -45.12 0.076535 63.883
8.82120000 0.076636 25.841 0.997046 -45.12 0.997046 -45.12 0.076643 63.895
8.82140000 0.076744 25.814 0.997038 -45.13 0.997038 -45.13 0.076751 63.908
8.82160000 0.076853 25.787 0.997029 -45.14 0.997029 -45.14 0.076859 63.920
8.82180000 0.076962 25.759 0.997021 -45.15 0.997021 -45.15 0.076969 63.933
8.82200000 0.077072 25.732 0.997012 -45.15 0.997012 -45.15 0.077079 63.946
8.82220000 0.077183 25.704 0.997003 -45.16 0.997003 -45.16 0.077189 63.958
8.82240000 0.077294 25.676 0.996995 -45.17 0.996995 -45.17 0.077301 63.971
8.82260000 0.077406 25.648 0.996986 -45.18 0.996986 -45.18 0.077413 63.984
8.82280000 0.077519 25.620 0.996977 -45.18 0.996977 -45.18 0.077526 63.997
8.82300000 0.077633 25.592 0.996968 -45.19 0.996968 -45.19 0.077639 64.009
8.82320000 0.077747 25.564 0.996959 -45.20 0.996959 -45.20 0.077754 64.022
8.82340000 0.077862 25.535 0.996950 -45.21 0.996950 -45.21 0.077869 64.035
8.82360000 0.077978 25.507 0.996941 -45.21 0.996941 -45.21 0.077985 64.048
8.82380000 0.078094 25.478 0.996932 -45.22 0.996932 -45.22 0.078101 64.061
8.82400000 0.078212 25.449 0.996923 -45.23 0.996923 -45.23 0.078219 64.074
8.82420000 0.078330 25.420 0.996913 -45.24 0.996913 -45.24 0.078337 64.087
8.82440000 0.078449 25.391 0.996904 -45.25 0.996904 -45.25 0.078456 64.100
8.82460000 0.078568 25.362 0.996894 -45.25 0.996894 -45.25 0.078575 64.113
8.82480000 0.078689 25.333 0.996885 -45.26 0.996885 -45.26 0.078696 64.126
8.82500000 0.078810 25.304 0.996875 -45.27 0.996875 -45.27 0.078817 64.139
8.82520000 0.078932 25.274 0.996865 -45.28 0.996865 -45.28 0.078939 64.152
8.82540000 0.079055 25.245 0.996855 -45.29 0.996855 -45.29 0.079062 64.165
8.82560000 0.079179 25.215 0.996846 -45.30 0.996846 -45.30 0.079186 64.179
8.82580000 0.079303 25.185 0.996836 -45.30 0.996836 -45.30 0.079311 64.192
8.82600000 0.079429 25.155 0.996825 -45.31 0.996825 -45.31 0.079436 64.205
8.82620000 0.079555 25.125 0.996815 -45.32 0.996815 -45.32 0.079562 64.218
8.82640000 0.079682 25.094 0.996805 -45.33 0.996805 -45.33 0.079689 64.232
8.82660000 0.079810 25.064 0.996795 -45.34 0.996795 -45.34 0.079817 64.245
8.82680000 0.079939 25.033 0.996784 -45.35 0.996784 -45.35 0.079946 64.258
8.82700000 0.080069 25.003 0.996774 -45.35 0.996774 -45.35 0.080076 64.272
8.82720000 0.080200 24.972 0.996763 -45.36 0.996763 -45.36 0.080207 64.285
8.82740000 0.080331 24.941 0.996752 -45.37 0.996752 -45.37 0.080339 64.299
8.82760000 0.080464 24.910 0.996742 -45.38 0.996742 -45.38 0.080471 64.312
8.82780000 0.080597 24.879 0.996731 -45.39 0.996731 -45.39 0.080605 64.326
8.82800000 0.080731 24.847 0.996720 -45.40 0.996720 -45.40 0.080739 64.339
8.82820000 0.080867 24.816 0.996709 -45.41 0.996709 -45.41 0.080874 64.353
8.82840000 0.081003 24.784 0.996698 -45.42 0.996698 -45.42 0.081011 64.366
8.82860000 0.081140 24.752 0.996686 -45.42 0.996686 -45.42 0.081148 64.380
8.82880000 0.081279 24.721 0.996675 -45.43 0.996675 -45.43 0.081286 64.394
8.82900000 0.081418 24.688 0.996663 -45.44 0.996663 -45.44 0.081426 64.407
8.82920000 0.081558 24.656 0.996652 -45.45 0.996652 -45.45 0.081566 64.421
8.82940000 0.081699 24.624 0.996640 -45.46 0.996640 -45.46 0.081707 64.435
8.82960000 0.081841 24.591 0.996628 -45.47 0.996628 -45.47 0.081849 64.449
8.82980000 0.081985 24.559 0.996617 -45.48 0.996617 -45.48 0.081993 64.462
8.83000000 0.082129 24.526 0.996605 -45.49 0.996605 -45.49 0.082137 64.476
8.83020000 0.082275 24.493 0.996592 -45.50 0.996592 -45.50 0.082283 64.490
8.83040000 0.082421 24.460 0.996580 -45.51 0.996580 -45.51 0.082429 64.504
8.83060000 0.082569 24.427 0.996568 -45.52 0.996568 -45.52 0.082577 64.518
8.83080000 0.082717 24.393 0.996555 -45.53 0.996555 -45.53 0.082725 64.532
8.83100000 0.082867 24.360 0.996543 -45.54 0.996543 -45.54 0.082875 64.546
8.83120000 0.083018 24.326 0.996530 -45.55 0.996530 -45.55 0.083026 64.560
8.83140000 0.083170 24.292 0.996517 -45.56 0.996517 -45.56 0.083178 64.574
8.83160000 0.083323 24.258 0.996505 -45.57 0.996505 -45.57 0.083331 64.588
8.83180000 0.083477 24.224 0.996491 -45.58 0.996491 -45.58 0.083486 64.602
8.83200000 0.083633 24.189 0.996478 -45.59 0.996478 -45.59 0.083641 64.616
8.83220000 0.083789 24.155 0.996465 -45.60 0.996465 -45.60 0.083798 64.630
8.83240000 0.083947 24.120 0.996452 -45.61 0.996452 -45.61 0.083956 64.644
8.83260000 0.084106 24.085 0.996438 -45.62 0.996438 -45.62 0.084115 64.658
8.83280000 0.084266 24.050 0.996424 -45.63 0.996424 -45.63 0.084275 64.672
8.83300000 0.084428 24.015 0.996411 -45.64 0.996411 -45.64 0.084437 64.687
8.83320000 0.084591 23.980 0.996397 -45.65 0.996397 -45.65 0.084599 64.701
8.83340000 0.084755 23.944 0.996383 -45.66 0.996383 -45.66 0.084763 64.715
8.83360000 0.084920 23.908 0.996368 -45.67 0.996368 -45.67 0.084929 64.729
8.83380000 0.085087 23.872 0.996354 -45.68 0.996354 -45.68 0.085095 64.744
8.83400000 0.085255 23.836 0.996340 -45.69 0.996340 -45.69 0.085263 64.758
8.83420000 0.085424 23.800 0.996325 -45.70 0.996325 -45.70 0.085433 64.772
8.83440000 0.085594 23.764 0.996310 -45.71 0.996310 -45.71 0.085603 64.787
8.83460000 0.085766 23.727 0.996295 -45.73 0.996295 -45.73 0.085775 64.801
8.83480000 0.085940 23.690 0.996280 -45.74 0.996280 -45.74 0.085949 64.815
8.83500000 0.086114 23.653 0.996265 -45.75 0.996265 -45.75 0.086124 64.830
8.83520000 0.086291 23.616 0.996249 -45.76 0.996249 -45.76 0.086300 64.844
8.83540000 0.086468 23.579 0.996234 -45.77 0.996234 -45.77 0.086477 64.859
8.83560000 0.086647 23.541 0.996218 -45.78 0.996218 -45.78 0.086656 64.873
8.83580000 0.086828 23.503 0.996202 -45.79 0.996202 -45.79 0.086837 64.888
8.83600000 0.087010 23.465 0.996186 -45.80 0.996186 -45.80 0.087019 64.902
8.83620000 0.087193 23.427 0.996170 -45.82 0.996170 -45.82 0.087202 64.917
8.83640000 0.087378 23.389 0.996154 -45.83 0.996154 -45.83 0.087387 64.931
8.83660000 0.087564 23.351 0.996137 -45.84 0.996137 -45.84 0.087574 64.946
8.83680000 0.087753 23.312 0.996120 -45.85 0.996120 -45.85 0.087762 64.960
8.83700000 0.087942 23.273 0.996104 -45.86 0.996104 -45.86 0.087952 64.975
8.83720000 0.088133 23.234 0.996087 -45.88 0.996087 -45.88 0.088143 64.989
8.83740000 0.088326 23.194 0.996069 -45.89 0.996069 -45.89 0.088336 65.004
8.83760000 0.088521 23.155 0.996052 -45.90 0.996052 -45.90 0.088530 65.019
8.83780000 0.088717 23.115 0.996034 -45.91 0.996034 -45.91 0.088727 65.033
8.83800000 0.088915 23.075 0.996016 -45.93 0.996016 -45.93 0.088924 65.048
8.83820000 0.089114 23.035 0.995998 -45.94 0.995998 -45.94 0.089124 65.063
8.83840000 0.089315 22.995 0.995980 -45.95 0.995980 -45.95 0.089325 65.077
8.83860000 0.089518 22.954 0.995962 -45.96 0.995962 -45.96 0.089528 65.092
8.83880000 0.089723 22.913 0.995943 -45.98 0.995943 -45.98 0.089733 65.107
8.83900000 0.089929 22.872 0.995924 -45.99 0.995924 -45.99 0.089940 65.122
8.83920000 0.090138 22.831 0.995905 -46.00 0.995905 -46.00 0.090148 65.136
8.83940000 0.090348 22.790 0.995886 -46.02 0.995886 -46.02 0.090358 65.151
8.83960000 0.090560 22.748 0.995867 -46.03 0.995867 -46.03 0.090570 65.166
8.83980000 0.090774 22.706 0.995847 -46.04 0.995847 -46.04 0.090784 65.180
8.84000000 0.090990 22.664 0.995827 -46.06 0.995827 -46.06 0.091000 65.195
8.84020000 0.091207 22.621 0.995807 -46.07 0.995807 -46.07 0.091218 65.210
8.84040000 0.091427 22.579 0.995787 -46.08 0.995787 -46.08 0.091438 65.225
8.84060000 0.091649 22.536 0.995766 -46.10 0.995766 -46.10 0.091660 65.240
8.84080000 0.091873 22.493 0.995745 -46.11 0.995745 -46.11 0.091883 65.254
8.84100000 0.092098 22.449 0.995724 -46.13 0.995724 -46.13 0.092109 65.269
8.84120000 0.092326 22.406 0.995703 -46.14 0.995703 -46.14 0.092337 65.284
8.84140000 0.092556 22.362 0.995681 -46.16 0.995681 -46.16 0.092567 65.299
8.84160000 0.092788 22.318 0.995659 -46.17 0.995659 -46.17 0.092799 65.313
8.84180000 0.093022 22.274 0.995637 -46.19 0.995637 -46.19 0.093034 65.328
8.84200000 0.093259 22.229 0.995615 -46.20 0.995615 -46.20 0.093270 65.343
8.84220000 0.093498 22.184 0.995592 -46.21 0.995592 -46.21 0.093509 65.358
8.84240000 0.093738 22.139 0.995569 -46.23 0.995569 -46.23 0.093750 65.373
8.84260000 0.093982 22.094 0.995546 -46.25 0.995546 -46.25 0.093993 65.387
8.84280000 0.094227 22.048 0.995523 -46.26 0.995523 -46.26 0.094238 65.402
8.84300000 0.094475 22.002 0.995499 -46.28 0.995499 -46.28 0.094486 65.417
8.84320000 0.094725 21.956 0.995475 -46.29 0.995475 -46.29 0.094737 65.432
8.84340000 0.094978 21.909 0.995451 -46.31 0.995451 -46.31 0.094989 65.446
8.84360000 0.095233 21.863 0.995426 -46.32 0.995426 -46.32 0.095245 65.461
8.84380000 0.095491 21.816 0.995401 -46.34 0.995401 -46.34 0.095502 65.476
8.84400000 0.095751 21.768 0.995376 -46.36 0.995376 -46.36 0.095762 65.490
8.84420000 0.096013 21.721 0.995350 -46.37 0.995350 -46.37 0.096025 65.505
8.84440000 0.096279 21.673 0.995324 -46.39 0.995324 -46.39 0.096291 65.520
8.84460000 0.096546 21.625 0.995298 -46.40 0.995298 -46.40 0.096559 65.534
8.84480000 0.096817 21.576 0.995271 -46.42 0.995271 -46.42 0.096829 65.549
8.84500000 0.097090 21.527 0.995245 -46.44 0.995245 -46.44 0.097103 65.564
8.84520000 0.097366 21.478 0.995217 -46.46 0.995217 -46.46 0.097379 65.578
8.84540000 0.097645 21.429 0.995190 -46.47 0.995190 -46.47 0.097658 65.593
8.84560000 0.097927 21.379 0.995162 -46.49 0.995162 -46.49 0.097940 65.607
8.84580000 0.098212 21.329 0.995133 -46.51 0.995133 -46.51 0.098224 65.622
8.84600000 0.098499 21.279 0.995105 -46.53 0.995105 -46.53 0.098512 65.636
8.84620000 0.098790 21.228 0.995075 -46.54 0.995075 -46.54 0.098803 65.651
8.84640000 0.099083 21.177 0.995046 -46.56 0.995046 -46.56 0.099096 65.665
8.84660000 0.099380 21.126 0.995016 -46.58 0.995016 -46.58 0.099393 65.680
8.84680000 0.099680 21.075 0.994986 -46.60 0.994986 -46.60 0.099693 65.694
8.84700000 0.099983 21.023 0.994955 -46.62 0.994955 -46.62 0.099996 65.708
8.84720000 0.100289 20.970 0.994924 -46.64 0.994924 -46.64 0.100302 65.723
8.84740000 0.100598 20.918 0.994892 -46.66 0.994892 -46.66 0.100611 65.737
8.84760000 0.100911 20.865 0.994860 -46.67 0.994860 -46.67 0.100924 65.751
8.84780000 0.101227 20.811 0.994828 -46.69 0.994828 -46.69 0.101240 65.765
8.84800000 0.101547 20.758 0.994795 -46.71 0.994795 -46.71 0.101560 65.779
8.84820000 0.101870 20.704 0.994761 -46.73 0.994761 -46.73 0.101883 65.793
8.84840000 0.102196 20.649 0.994728 -46.75 0.994728 -46.75 0.102210 65.807
8.84860000 0.102526 20.594 0.994693 -46.77 0.994693 -46.77 0.102540 65.821
8.84880000 0.102860 20.539 0.994658 -46.79 0.994658 -46.79 0.102874 65.835
8.84900000 0.103198 20.484 0.994623 -46.81 0.994623 -46.81 0.103212 65.849
8.84920000 0.103539 20.428 0.994587 -46.84 0.994587 -46.84 0.103553 65.863
8.84940000 0.103884 20.372 0.994551 -46.86 0.994551 -46.86 0.103899 65.876
8.84960000 0.104234 20.315 0.994514 -46.88 0.994514 -46.88 0.104248 65.890
8.84980000 0.104587 20.258 0.994476 -46.90 0.994476 -46.90 0.104601 65.904
8.85000000 0.104944 20.200 0.994438 -46.92 0.994438 -46.92 0.104958 65.917
8.85020000 0.105305 20.142 0.994399 -46.94 0.994399 -46.94 0.105320 65.930
8.85040000 0.105671 20.084 0.994360 -46.97 0.994360 -46.97 0.105686 65.944
8.85060000 0.106040 20.025 0.994320 -46.99 0.994320 -46.99 0.106055 65.957
8.85080000 0.106415 19.966 0.994280 -47.01 0.994280 -47.01 0.106430 65.970
8.85100000 0.106793 19.907 0.994239 -47.03 0.994239 -47.03 0.106808 65.983
8.85120000 0.107176 19.847 0.994197 -47.06 0.994197 -47.06 0.107191 65.996
8.85140000 0.107564 19.786 0.994155 -47.08 0.994155 -47.08 0.107579 66.009
8.85160000 0.107956 19.725 0.994112 -47.11 0.994112 -47.11 0.107972 66.022
8.85180000 0.108353 19.664 0.994068 -47.13 0.994068 -47.13 0.108369 66.035
8.85200000 0.108755 19.602 0.994024 -47.15 0.994024 -47.15 0.108771 66.047
8.85220000 0.109162 19.540 0.993979 -47.18 0.993979 -47.18 0.109178 66.060
8.85240000 0.109573 19.477 0.993933 -47.20 0.993933 -47.20 0.109589 66.072
8.85260000 0.109990 19.414 0.993886 -47.23 0.993886 -47.23 0.110006 66.084
8.85280000 0.110412 19.350 0.993839 -47.25 0.993839 -47.25 0.110429 66.096
8.85300000 0.110840 19.286 0.993791 -47.28 0.993791 -47.28 0.110856 66.108
8.85320000 0.111273 19.221 0.993742 -47.31 0.993742 -47.31 0.111289 66.120
8.85340000 0.111711 19.156 0.993692 -47.33 0.993692 -47.33 0.111727 66.132
8.85360000 0.112155 19.090 0.993641 -47.36 0.993641 -47.36 0.112171 66.143
8.85380000 0.112604 19.024 0.993590 -47.39 0.993590 -47.39 0.112621 66.155
8.85400000 0.113060 18.957 0.993538 -47.42 0.993538 -47.42 0.113077 66.166
8.85420000 0.113521 18.890 0.993484 -47.44 0.993484 -47.44 0.113538 66.177
8.85440000 0.113988 18.822 0.993430 -47.47 0.993430 -47.47 0.114006 66.188
8.85450294 0.114231 18.787 0.993402 -47.49 0.993402 -47.49 0.114249 66.194
8.85460000 0.114462 18.754 0.993375 -47.50 0.993375 -47.50 0.114479 66.199
8.85480000 0.114942 18.685 0.993319 -47.53 0.993319 -47.53 0.114959 66.209
8.85500000 0.115428 18.615 0.993262 -47.56 0.993262 -47.56 0.115446 66.220
8.85518978 0.115895 18.548 0.993207 -47.59 0.993207 -47.59 0.115913 66.229
8.85520000 0.115921 18.545 0.993204 -47.59 0.993204 -47.59 0.115939 66.230
8.85540000 0.116420 18.474 0.993145 -47.62 0.993145 -47.62 0.116438 66.240
8.85560000 0.116927 18.403 0.993084 -47.65 0.993084 -47.65 0.116945 66.250
8.85580000 0.117440 18.331 0.993023 -47.68 0.993023 -47.68 0.117458 66.259
8.85586088 0.117597 18.309 0.993004 -47.69 0.993004 -47.69 0.117616 66.262
8.85600000 0.117960 18.258 0.992961 -47.71 0.992961 -47.71 0.117979 66.269
8.85620000 0.118488 18.185 0.992897 -47.74 0.992897 -47.74 0.118507 66.278
8.85640000 0.119023 18.111 0.992832 -47.77 0.992832 -47.77 0.119042 66.287
8.85651660 0.119338 18.068 0.992794 -47.79 0.992794 -47.79 0.119357 66.292
8.85660000 0.119565 18.037 0.992766 -47.81 0.992766 -47.81 0.119584 66.296
8.85680000 0.120115 17.961 0.992699 -47.84 0.992699 -47.84 0.120135 66.304
8.85700000 0.120674 17.886 0.992630 -47.87 0.992630 -47.87 0.120693 66.312
8.85715729 0.121118 17.826 0.992576 -47.90 0.992576 -47.90 0.121138 66.319
8.85720000 0.121240 17.809 0.992561 -47.91 0.992561 -47.91 0.121260 66.320
8.85740000 0.121814 17.732 0.992489 -47.94 0.992489 -47.94 0.121834 66.328
8.85760000 0.122397 17.654 0.992417 -47.98 0.992417 -47.98 0.122417 66.335
8.85778331 0.122939 17.582 0.992349 -48.01 0.992349 -48.01 0.122959 66.342
8.85780000 0.122988 17.575 0.992343 -48.01 0.992343 -48.01 0.123009 66.343
8.85800000 0.123588 17.496 0.992267 -48.05 0.992267 -48.05 0.123609 66.349
8.85820000 0.124198 17.416 0.992190 -48.09 0.992190 -48.09 0.124218 66.356
8.85839498 0.124800 17.337 0.992114 -48.12 0.992114 -48.12 0.124821 66.362
8.85840000 0.124816 17.335 0.992112 -48.12 0.992112 -48.12 0.124837 66.362
8.85860000 0.125444 17.253 0.992031 -48.16 0.992031 -48.16 0.125465 66.368
8.85880000 0.126081 17.171 0.991950 -48.20 0.991950 -48.20 0.126102 66.374
8.85899263 0.126704 17.091 0.991869 -48.24 0.991869 -48.24 0.126725 66.379
8.85900000 0.126728 17.088 0.991866 -48.24 0.991866 -48.24 0.126749 66.379
8.85920000 0.127385 17.003 0.991781 -48.28 0.991781 -48.28 0.127407 66.384
8.85940000 0.128052 16.919 0.991694 -48.32 0.991694 -48.32 0.128074 66.388
8.85957659 0.128650 16.843 0.991615 -48.35 0.991615 -48.35 0.128672 66.392
8.85960000 0.128730 16.833 0.991605 -48.36 0.991605 -48.36 0.128752 66.392
8.85980000 0.129419 16.746 0.991514 -48.40 0.991514 -48.40 0.129441 66.396
8.86000000 0.130118 16.659 0.991421 -48.44 0.991421 -48.44 0.130141 66.399
8.86014717 0.130640 16.594 0.991352 -48.47 0.991352 -48.47 0.130663 66.401
8.86020000 0.130829 16.570 0.991326 -48.48 0.991326 -48.48 0.130852 66.402
8.86040000 0.131552 16.481 0.991229 -48.53 0.991229 -48.53 0.131575 66.404
8.86060000 0.132286 16.391 0.991130 -48.57 0.991130 -48.57 0.132309 66.406
8.86070468 0.132675 16.343 0.991078 -48.59 0.991078 -48.59 0.132699 66.407
8.86080000 0.133033 16.299 0.991029 -48.61 0.991029 -48.61 0.133056 66.408
8.86100000 0.133792 16.207 0.990926 -48.66 0.990926 -48.66 0.133815 66.409
8.86120000 0.134563 16.114 0.990820 -48.70 0.990820 -48.70 0.134587 66.409
8.86124941 0.134756 16.091 0.990793 -48.72 0.990793 -48.72 0.134780 66.409
8.86140000 0.135348 16.020 0.990712 -48.75 0.990712 -48.75 0.135372 66.409
8.86160000 0.136146 15.924 0.990601 -48.80 0.990601 -48.80 0.136170 66.408
8.86178165 0.136883 15.837 0.990498 -48.84 0.990498 -48.84 0.136907 66.407
8.86180000 0.136958 15.828 0.990487 -48.85 0.990487 -48.85 0.136983 66.407
8.86200000 0.137784 15.731 0.990371 -48.90 0.990371 -48.90 0.137809 66.406
8.86220000 0.138624 15.632 0.990252 -48.95 0.990252 -48.95 0.138649 66.403
8.86230171 0.139057 15.582 0.990191 -48.97 0.990191 -48.97 0.139083 66.402
8.86240000 0.139479 15.532 0.990131 -49.00 0.990131 -49.00 0.139505 66.400
8.86260000 0.140350 15.432 0.990006 -49.05 0.990006 -49.05 0.140376 66.397
8.86280000 0.141236 15.330 0.989878 -49.10 0.989878 -49.10 0.141262 66.392
8.86280984 0.141280 15.325 0.989872 -49.10 0.989872 -49.10 0.141306 66.392
8.86300000 0.142138 15.226 0.989747 -49.16 0.989747 -49.16 0.142164 66.388
8.86320000 0.143056 15.122 0.989613 -49.21 0.989613 -49.21 0.143083 66.382
8.86330634 0.143552 15.066 0.989540 -49.24 0.989540 -49.24 0.143579 66.379
8.86340000 0.143992 15.016 0.989476 -49.27 0.989476 -49.27 0.144019 66.376
8.86360000 0.144945 14.909 0.989335 -49.32 0.989335 -49.32 0.144972 66.368
8.86379145 0.145874 14.806 0.989196 -49.38 0.989196 -49.38 0.145902 66.361
8.86380000 0.145916 14.801 0.989190 -49.38 0.989190 -49.38 0.145944 66.361
8.86400000 0.146905 14.691 0.989041 -49.44 0.989041 -49.44 0.146933 66.352
8.86420000 0.147913 14.580 0.988889 -49.50 0.988889 -49.50 0.147942 66.342
8.86426545 0.148248 14.543 0.988838 -49.52 0.988838 -49.52 0.148276 66.339
8.86440000 0.148941 14.467 0.988733 -49.56 0.988733 -49.56 0.148970 66.332
8.86460000 0.149989 14.353 0.988572 -49.62 0.988572 -49.62 0.150018 66.321
8.86472859 0.150673 14.279 0.988467 -49.66 0.988467 -49.66 0.150703 66.313
8.86480000 0.151057 14.238 0.988407 -49.68 0.988407 -49.68 0.151087 66.308
8.86500000 0.152147 14.121 0.988238 -49.75 0.988238 -49.75 0.152177 66.295
8.86518112 0.153152 14.014 0.988080 -49.81 0.988080 -49.81 0.153183 66.282
8.86520000 0.153258 14.002 0.988063 -49.81 0.988063 -49.81 0.153289 66.281
8.86540000 0.154392 13.882 0.987884 -49.88 0.987884 -49.88 0.154423 66.266
8.86560000 0.155550 13.760 0.987700 -49.95 0.987700 -49.95 0.155581 66.249
8.86562328 0.155686 13.746 0.987679 -49.96 0.987679 -49.96 0.155717 66.247
8.86580000 0.156731 13.636 0.987511 -50.02 0.987511 -50.02 0.156762 66.232
8.86600000 0.157937 13.511 0.987316 -50.09 0.987316 -50.09 0.157968 66.213
8.86605531 0.158275 13.476 0.987261 -50.11 0.987261 -50.11 0.158306 66.208
8.86620000 0.159168 13.384 0.987116 -50.16 0.987116 -50.16 0.159200 66.193
8.86640000 0.160425 13.255 0.986909 -50.24 0.986909 -50.24 0.160458 66.172
8.86647743 0.160920 13.204 0.986827 -50.27 0.986827 -50.27 0.160952 66.164
8.86660000 0.161710 13.124 0.986696 -50.32 0.986696 -50.32 0.161743 66.150
8.86680000 0.163023 12.991 0.986477 -50.39 0.986477 -50.39 0.163056 66.126
8.86688989 0.163622 12.930 0.986377 -50.43 0.986377 -50.43 0.163656 66.115
8.86700000 0.164364 12.856 0.986251 -50.47 0.986251 -50.47 0.164398 66.101
8.86720000 0.165736 12.719 0.986019 -50.55 0.986019 -50.55 0.165770 66.074
8.86729289 0.166383 12.654 0.985908 -50.59 0.985908 -50.59 0.166418 66.061
8.86740000 0.167138 12.580 0.985778 -50.64 0.985778 -50.64 0.167173 66.046
8.86760000 0.168572 12.438 0.985531 -50.72 0.985531 -50.72 0.168607 66.016
8.86768666 0.169203 12.376 0.985421 -50.76 0.985421 -50.76 0.169239 66.003
8.86780000 0.170039 12.294 0.985275 -50.81 0.985275 -50.81 0.170074 65.985
8.86800000 0.171540 12.148 0.985011 -50.90 0.985011 -50.90 0.171576 65.952
8.86807141 0.172084 12.096 0.984915 -50.93 0.984915 -50.93 0.172121 65.940
8.86820000 0.173076 12.000 0.984738 -50.99 0.984738 -50.99 0.173113 65.917
8.86840000 0.174649 11.849 0.984456 -51.08 0.984456 -51.08 0.174686 65.880
8.86844734 0.175027 11.813 0.984388 -51.10 0.984388 -51.10 0.175064 65.872
8.86860000 0.176259 11.695 0.984165 -51.18 0.984165 -51.18 0.176297 65.842
8.86880000 0.177909 11.539 0.983864 -51.27 0.983864 -51.27 0.177948 65.801
8.86881466 0.178032 11.528 0.983841 -51.28 0.983841 -51.28 0.178070 65.798
8.86900000 0.179600 11.380 0.983552 -51.37 0.983552 -51.37 0.179639 65.759
8.86917356 0.181101 11.240 0.983273 -51.46 0.983273 -51.46 0.181140 65.720
8.86920000 0.181332 11.218 0.983230 -51.48 0.983230 -51.48 0.181372 65.714
8.86940000 0.183109 11.053 0.982895 -51.58 0.982895 -51.58 0.183149 65.667
8.86952423 0.184235 10.950 0.982682 -51.65 0.982682 -51.65 0.184275 65.636
8.86960000 0.184930 10.886 0.982549 -51.69 0.982549 -51.69 0.184971 65.617
8.86980000 0.186799 10.715 0.982190 -51.80 0.982190 -51.80 0.186840 65.565
8.86986687 0.187434 10.657 0.982067 -51.84 0.982067 -51.84 0.187476 65.547
8.87000000 0.188716 10.540 0.981818 -51.91 0.981818 -51.91 0.188758 65.511
8.87020000 0.190685 10.363 0.981432 -52.03 0.981432 -52.03 0.190727 65.454
8.87020166 0.190701 10.361 0.981429 -52.03 0.981429 -52.03 0.190744 65.453
8.87040000 0.192706 10.181 0.981031 -52.15 0.981031 -52.15 0.192749 65.394
8.87052878 0.194036 10.063 0.980765 -52.23 0.980765 -52.23 0.194080 65.353
8.87060000 0.194782 9.9965 0.980615 -52.27 0.980615 -52.27 0.194826 65.331
8.87080000 0.196915 9.8078 0.980182 -52.40 0.980182 -52.40 0.196960 65.265
8.87084841 0.197440 9.7616 0.980075 -52.43 0.980075 -52.43 0.197485 65.248
8.87100000 0.199108 9.6152 0.979733 -52.53 0.979733 -52.53 0.199154 65.196
8.87116071 0.200914 9.4575 0.979358 -52.63 0.979358 -52.63 0.200961 65.138
8.87120000 0.201362 9.4185 0.979265 -52.66 0.979265 -52.66 0.201409 65.123
8.87140000 0.203682 9.2176 0.978778 -52.80 0.978778 -52.80 0.203729 65.047