! Sonnet Data File
! From: emgraph Version : 16.52
! From Project: Resonator2
! Data is De-embedded 
! Data File Written: 10/05/2017 10:46:04
!< HDATE 10/04/2017 20:26:48
!< MDATE 10/05/2017 00:36:07
!< PARAMS
!< gap = 16.0
!< Length = 400.0
!< Pwid1 = 2000.0
!< Pwid2 = 2000.0
!< END PARAMS
# GHZ S MA R 50.00000
8.80000000 0.278967 -164.3 0.960297 -75.97 0.960297 -75.97 0.278965 -167.6
!< P1 F=8.8 Eeff=(5.36817953 -2.3731e-5) Z0=(35.9853883 8.0522e-5) R=0.0 C=0.0 
!< P2 F=8.8 Eeff=(5.36817953 -2.3731e-5) Z0=(35.9853883 8.0522e-5) R=0.0 C=0.0 
8.80020000 0.278960 -164.4 0.960299 -75.97 0.960299 -75.97 0.278958 -167.6
8.80040000 0.278952 -164.4 0.960301 -75.97 0.960301 -75.97 0.278951 -167.6
8.80060000 0.278945 -164.4 0.960303 -75.97 0.960303 -75.97 0.278943 -167.6
8.80080000 0.278938 -164.4 0.960305 -75.98 0.960305 -75.98 0.278936 -167.6
8.80100000 0.278930 -164.4 0.960307 -75.98 0.960307 -75.98 0.278929 -167.6
8.80120000 0.278923 -164.4 0.960309 -75.98 0.960309 -75.98 0.278921 -167.6
8.80140000 0.278915 -164.4 0.960311 -75.98 0.960311 -75.98 0.278914 -167.6
8.80160000 0.278908 -164.4 0.960314 -75.98 0.960314 -75.98 0.278906 -167.6
8.80180000 0.278900 -164.4 0.960316 -75.99 0.960316 -75.99 0.278899 -167.6
8.80200000 0.278893 -164.4 0.960318 -75.99 0.960318 -75.99 0.278891 -167.6
8.80220000 0.278885 -164.4 0.960320 -75.99 0.960320 -75.99 0.278883 -167.6
8.80240000 0.278877 -164.4 0.960322 -75.99 0.960322 -75.99 0.278876 -167.6
8.80260000 0.278870 -164.4 0.960325 -76.00 0.960325 -76.00 0.278868 -167.6
8.80280000 0.278862 -164.4 0.960327 -76.00 0.960327 -76.00 0.278860 -167.6
8.80300000 0.278854 -164.4 0.960329 -76.00 0.960329 -76.00 0.278853 -167.6
8.80320000 0.278846 -164.4 0.960331 -76.00 0.960331 -76.00 0.278845 -167.6
8.80340000 0.278839 -164.4 0.960334 -76.01 0.960334 -76.01 0.278837 -167.7
8.80360000 0.278831 -164.4 0.960336 -76.01 0.960336 -76.01 0.278829 -167.7
8.80380000 0.278823 -164.4 0.960338 -76.01 0.960338 -76.01 0.278821 -167.7
8.80400000 0.278815 -164.4 0.960341 -76.01 0.960341 -76.01 0.278813 -167.7
8.80420000 0.278807 -164.4 0.960343 -76.02 0.960343 -76.02 0.278805 -167.7
8.80440000 0.278799 -164.4 0.960345 -76.02 0.960345 -76.02 0.278797 -167.7
8.80460000 0.278791 -164.4 0.960348 -76.02 0.960348 -76.02 0.278789 -167.7
8.80480000 0.278782 -164.4 0.960350 -76.02 0.960350 -76.02 0.278781 -167.7
8.80500000 0.278774 -164.4 0.960352 -76.03 0.960352 -76.03 0.278772 -167.7
8.80520000 0.278766 -164.4 0.960355 -76.03 0.960355 -76.03 0.278764 -167.7
8.80540000 0.278758 -164.4 0.960357 -76.03 0.960357 -76.03 0.278756 -167.7
8.80560000 0.278749 -164.4 0.960360 -76.03 0.960360 -76.03 0.278748 -167.7
8.80580000 0.278741 -164.4 0.960362 -76.04 0.960362 -76.04 0.278739 -167.7
8.80600000 0.278733 -164.4 0.960364 -76.04 0.960364 -76.04 0.278731 -167.7
8.80620000 0.278724 -164.4 0.960367 -76.04 0.960367 -76.04 0.278722 -167.7
8.80640000 0.278716 -164.4 0.960369 -76.04 0.960369 -76.04 0.278714 -167.7
8.80660000 0.278707 -164.4 0.960372 -76.05 0.960372 -76.05 0.278705 -167.7
8.80680000 0.278698 -164.4 0.960374 -76.05 0.960374 -76.05 0.278697 -167.7
8.80700000 0.278690 -164.4 0.960377 -76.05 0.960377 -76.05 0.278688 -167.7
8.80720000 0.278681 -164.4 0.960379 -76.05 0.960379 -76.05 0.278679 -167.7
8.80740000 0.278672 -164.4 0.960382 -76.06 0.960382 -76.06 0.278671 -167.7
8.80760000 0.278664 -164.4 0.960384 -76.06 0.960384 -76.06 0.278662 -167.7
8.80780000 0.278655 -164.4 0.960387 -76.06 0.960387 -76.06 0.278653 -167.8
8.80800000 0.278646 -164.4 0.960389 -76.06 0.960389 -76.06 0.278644 -167.8
8.80820000 0.278637 -164.4 0.960392 -76.07 0.960392 -76.07 0.278635 -167.8
8.80840000 0.278628 -164.4 0.960395 -76.07 0.960395 -76.07 0.278626 -167.8
8.80860000 0.278619 -164.4 0.960397 -76.07 0.960397 -76.07 0.278617 -167.8
8.80880000 0.278610 -164.4 0.960400 -76.07 0.960400 -76.07 0.278608 -167.8
8.80900000 0.278601 -164.4 0.960403 -76.08 0.960403 -76.08 0.278599 -167.8
8.80920000 0.278592 -164.4 0.960405 -76.08 0.960405 -76.08 0.278590 -167.8
8.80940000 0.278583 -164.4 0.960408 -76.08 0.960408 -76.08 0.278581 -167.8
8.80960000 0.278573 -164.4 0.960411 -76.08 0.960411 -76.08 0.278571 -167.8
8.80980000 0.278564 -164.4 0.960413 -76.09 0.960413 -76.09 0.278562 -167.8
8.81000000 0.278555 -164.4 0.960416 -76.09 0.960416 -76.09 0.278553 -167.8
8.81020000 0.278545 -164.4 0.960419 -76.09 0.960419 -76.09 0.278543 -167.8
8.81040000 0.278536 -164.4 0.960421 -76.09 0.960421 -76.09 0.278534 -167.8
8.81060000 0.278526 -164.4 0.960424 -76.10 0.960424 -76.10 0.278524 -167.8
8.81080000 0.278517 -164.4 0.960427 -76.10 0.960427 -76.10 0.278515 -167.8
8.81100000 0.278507 -164.4 0.960430 -76.10 0.960430 -76.10 0.278505 -167.8
8.81120000 0.278497 -164.4 0.960432 -76.11 0.960432 -76.11 0.278495 -167.8
8.81140000 0.278488 -164.4 0.960435 -76.11 0.960435 -76.11 0.278486 -167.8
8.81160000 0.278478 -164.4 0.960438 -76.11 0.960438 -76.11 0.278476 -167.8
8.81180000 0.278468 -164.4 0.960441 -76.11 0.960441 -76.11 0.278466 -167.8
8.81200000 0.278458 -164.4 0.960444 -76.12 0.960444 -76.12 0.278456 -167.9
8.81220000 0.278448 -164.4 0.960447 -76.12 0.960447 -76.12 0.278446 -167.9
8.81240000 0.278438 -164.4 0.960450 -76.12 0.960450 -76.12 0.278436 -167.9
8.81260000 0.278428 -164.4 0.960452 -76.12 0.960452 -76.12 0.278426 -167.9
8.81280000 0.278418 -164.4 0.960455 -76.13 0.960455 -76.13 0.278416 -167.9
8.81300000 0.278408 -164.4 0.960458 -76.13 0.960458 -76.13 0.278406 -167.9
8.81320000 0.278398 -164.4 0.960461 -76.13 0.960461 -76.13 0.278396 -167.9
8.81340000 0.278388 -164.4 0.960464 -76.13 0.960464 -76.13 0.278385 -167.9
8.81360000 0.278377 -164.4 0.960467 -76.14 0.960467 -76.14 0.278375 -167.9
8.81380000 0.278367 -164.4 0.960470 -76.14 0.960470 -76.14 0.278365 -167.9
8.81400000 0.278356 -164.4 0.960473 -76.14 0.960473 -76.14 0.278354 -167.9
8.81420000 0.278346 -164.4 0.960476 -76.14 0.960476 -76.14 0.278344 -167.9
8.81440000 0.278335 -164.4 0.960479 -76.15 0.960479 -76.15 0.278333 -167.9
8.81460000 0.278325 -164.4 0.960482 -76.15 0.960482 -76.15 0.278322 -167.9
8.81480000 0.278314 -164.4 0.960486 -76.15 0.960486 -76.15 0.278312 -167.9
8.81500000 0.278303 -164.4 0.960489 -76.16 0.960489 -76.16 0.278301 -167.9
8.81520000 0.278293 -164.4 0.960492 -76.16 0.960492 -76.16 0.278290 -167.9
8.81540000 0.278282 -164.4 0.960495 -76.16 0.960495 -76.16 0.278279 -167.9
8.81560000 0.278271 -164.4 0.960498 -76.16 0.960498 -76.16 0.278268 -167.9
8.81580000 0.278260 -164.4 0.960501 -76.17 0.960501 -76.17 0.278257 -167.9
8.81600000 0.278249 -164.4 0.960504 -76.17 0.960504 -76.17 0.278246 -168.0
8.81620000 0.278238 -164.4 0.960508 -76.17 0.960508 -76.17 0.278235 -168.0
8.81640000 0.278227 -164.4 0.960511 -76.17 0.960511 -76.17 0.278224 -168.0
8.81660000 0.278215 -164.4 0.960514 -76.18 0.960514 -76.18 0.278213 -168.0
8.81680000 0.278204 -164.4 0.960517 -76.18 0.960517 -76.18 0.278202 -168.0
8.81700000 0.278193 -164.4 0.960521 -76.18 0.960521 -76.18 0.278190 -168.0
8.81720000 0.278181 -164.4 0.960524 -76.19 0.960524 -76.19 0.278179 -168.0
8.81740000 0.278170 -164.4 0.960527 -76.19 0.960527 -76.19 0.278167 -168.0
8.81760000 0.278158 -164.4 0.960531 -76.19 0.960531 -76.19 0.278156 -168.0
8.81780000 0.278147 -164.4 0.960534 -76.19 0.960534 -76.19 0.278144 -168.0
8.81800000 0.278135 -164.4 0.960537 -76.20 0.960537 -76.20 0.278132 -168.0
8.81820000 0.278123 -164.4 0.960541 -76.20 0.960541 -76.20 0.278121 -168.0
8.81840000 0.278111 -164.4 0.960544 -76.20 0.960544 -76.20 0.278109 -168.0
8.81860000 0.278099 -164.4 0.960547 -76.20 0.960547 -76.20 0.278097 -168.0
8.81880000 0.278088 -164.4 0.960551 -76.21 0.960551 -76.21 0.278085 -168.0
8.81900000 0.278076 -164.4 0.960554 -76.21 0.960554 -76.21 0.278073 -168.0
8.81920000 0.278063 -164.4 0.960558 -76.21 0.960558 -76.21 0.278061 -168.0
8.81940000 0.278051 -164.4 0.960561 -76.22 0.960561 -76.22 0.278049 -168.0
8.81960000 0.278039 -164.4 0.960565 -76.22 0.960565 -76.22 0.278037 -168.0
8.81980000 0.278027 -164.4 0.960568 -76.22 0.960568 -76.22 0.278024 -168.1
8.82000000 0.278014 -164.4 0.960572 -76.22 0.960572 -76.22 0.278012 -168.1
8.82020000 0.278002 -164.4 0.960576 -76.23 0.960576 -76.23 0.277999 -168.1
8.82040000 0.277989 -164.4 0.960579 -76.23 0.960579 -76.23 0.277987 -168.1
8.82060000 0.277977 -164.4 0.960583 -76.23 0.960583 -76.23 0.277974 -168.1
8.82080000 0.277964 -164.4 0.960587 -76.24 0.960587 -76.24 0.277962 -168.1
8.82100000 0.277952 -164.4 0.960590 -76.24 0.960590 -76.24 0.277949 -168.1
8.82120000 0.277939 -164.4 0.960594 -76.24 0.960594 -76.24 0.277936 -168.1
8.82140000 0.277926 -164.4 0.960598 -76.24 0.960598 -76.24 0.277923 -168.1
8.82160000 0.277913 -164.4 0.960601 -76.25 0.960601 -76.25 0.277910 -168.1
8.82180000 0.277900 -164.4 0.960605 -76.25 0.960605 -76.25 0.277897 -168.1
8.82200000 0.277887 -164.4 0.960609 -76.25 0.960609 -76.25 0.277884 -168.1
8.82220000 0.277874 -164.4 0.960613 -76.26 0.960613 -76.26 0.277871 -168.1
8.82240000 0.277860 -164.4 0.960617 -76.26 0.960617 -76.26 0.277857 -168.1
8.82260000 0.277847 -164.4 0.960620 -76.26 0.960620 -76.26 0.277844 -168.1
8.82280000 0.277834 -164.4 0.960624 -76.26 0.960624 -76.26 0.277831 -168.1
8.82300000 0.277820 -164.4 0.960628 -76.27 0.960628 -76.27 0.277817 -168.1
8.82320000 0.277806 -164.4 0.960632 -76.27 0.960632 -76.27 0.277804 -168.2
8.82340000 0.277793 -164.4 0.960636 -76.27 0.960636 -76.27 0.277790 -168.2
8.82360000 0.277779 -164.4 0.960640 -76.28 0.960640 -76.28 0.277776 -168.2
8.82380000 0.277765 -164.4 0.960644 -76.28 0.960644 -76.28 0.277762 -168.2
8.82400000 0.277751 -164.4 0.960648 -76.28 0.960648 -76.28 0.277748 -168.2
8.82420000 0.277737 -164.4 0.960652 -76.28 0.960652 -76.28 0.277734 -168.2
8.82440000 0.277723 -164.4 0.960656 -76.29 0.960656 -76.29 0.277720 -168.2
8.82460000 0.277709 -164.4 0.960660 -76.29 0.960660 -76.29 0.277706 -168.2
8.82480000 0.277695 -164.4 0.960664 -76.29 0.960664 -76.29 0.277692 -168.2
8.82500000 0.277680 -164.4 0.960668 -76.30 0.960668 -76.30 0.277677 -168.2
8.82520000 0.277666 -164.4 0.960673 -76.30 0.960673 -76.30 0.277663 -168.2
8.82540000 0.277652 -164.4 0.960677 -76.30 0.960677 -76.30 0.277649 -168.2
8.82560000 0.277637 -164.4 0.960681 -76.31 0.960681 -76.31 0.277634 -168.2
8.82580000 0.277622 -164.4 0.960685 -76.31 0.960685 -76.31 0.277619 -168.2
8.82600000 0.277607 -164.4 0.960689 -76.31 0.960689 -76.31 0.277604 -168.2
8.82620000 0.277593 -164.4 0.960694 -76.31 0.960694 -76.31 0.277590 -168.2
8.82640000 0.277578 -164.4 0.960698 -76.32 0.960698 -76.32 0.277575 -168.2
8.82660000 0.277563 -164.4 0.960702 -76.32 0.960702 -76.32 0.277559 -168.3
8.82680000 0.277547 -164.4 0.960707 -76.32 0.960707 -76.32 0.277544 -168.3
8.82700000 0.277532 -164.4 0.960711 -76.33 0.960711 -76.33 0.277529 -168.3
8.82720000 0.277517 -164.4 0.960716 -76.33 0.960716 -76.33 0.277514 -168.3
8.82740000 0.277501 -164.4 0.960720 -76.33 0.960720 -76.33 0.277498 -168.3
8.82760000 0.277486 -164.4 0.960724 -76.34 0.960724 -76.34 0.277483 -168.3
8.82780000 0.277470 -164.4 0.960729 -76.34 0.960729 -76.34 0.277467 -168.3
8.82800000 0.277455 -164.4 0.960733 -76.34 0.960733 -76.34 0.277451 -168.3
8.82820000 0.277439 -164.4 0.960738 -76.34 0.960738 -76.34 0.277436 -168.3
8.82840000 0.277423 -164.4 0.960743 -76.35 0.960743 -76.35 0.277420 -168.3
8.82860000 0.277407 -164.4 0.960747 -76.35 0.960747 -76.35 0.277404 -168.3
8.82880000 0.277391 -164.4 0.960752 -76.35 0.960752 -76.35 0.277387 -168.3
8.82900000 0.277375 -164.4 0.960757 -76.36 0.960757 -76.36 0.277371 -168.3
8.82920000 0.277358 -164.4 0.960761 -76.36 0.960761 -76.36 0.277355 -168.3
8.82940000 0.277342 -164.4 0.960766 -76.36 0.960766 -76.36 0.277338 -168.3
8.82960000 0.277325 -164.4 0.960771 -76.37 0.960771 -76.37 0.277322 -168.4
8.82980000 0.277309 -164.4 0.960776 -76.37 0.960776 -76.37 0.277305 -168.4
8.83000000 0.277292 -164.4 0.960780 -76.37 0.960780 -76.37 0.277288 -168.4
8.83020000 0.277275 -164.4 0.960785 -76.38 0.960785 -76.38 0.277272 -168.4
8.83040000 0.277258 -164.4 0.960790 -76.38 0.960790 -76.38 0.277255 -168.4
8.83060000 0.277241 -164.4 0.960795 -76.38 0.960795 -76.38 0.277238 -168.4
8.83080000 0.277224 -164.4 0.960800 -76.39 0.960800 -76.39 0.277220 -168.4
8.83100000 0.277207 -164.4 0.960805 -76.39 0.960805 -76.39 0.277203 -168.4
8.83120000 0.277189 -164.4 0.960810 -76.39 0.960810 -76.39 0.277186 -168.4
8.83140000 0.277172 -164.4 0.960815 -76.40 0.960815 -76.40 0.277168 -168.4
8.83160000 0.277154 -164.4 0.960820 -76.40 0.960820 -76.40 0.277150 -168.4
8.83180000 0.277136 -164.4 0.960825 -76.40 0.960825 -76.40 0.277133 -168.4
8.83200000 0.277119 -164.4 0.960830 -76.40 0.960830 -76.40 0.277115 -168.4
8.83220000 0.277101 -164.4 0.960835 -76.41 0.960835 -76.41 0.277097 -168.4
8.83240000 0.277082 -164.4 0.960841 -76.41 0.960841 -76.41 0.277079 -168.4
8.83260000 0.277064 -164.4 0.960846 -76.41 0.960846 -76.41 0.277061 -168.5
8.83280000 0.277046 -164.4 0.960851 -76.42 0.960851 -76.42 0.277042 -168.5
8.83300000 0.277028 -164.4 0.960856 -76.42 0.960856 -76.42 0.277024 -168.5
8.83320000 0.277009 -164.4 0.960862 -76.42 0.960862 -76.42 0.277005 -168.5
8.83340000 0.276990 -164.4 0.960867 -76.43 0.960867 -76.43 0.276986 -168.5
8.83360000 0.276971 -164.4 0.960873 -76.43 0.960873 -76.43 0.276968 -168.5
8.83380000 0.276953 -164.4 0.960878 -76.43 0.960878 -76.43 0.276949 -168.5
8.83400000 0.276933 -164.4 0.960883 -76.44 0.960883 -76.44 0.276930 -168.5
8.83420000 0.276914 -164.4 0.960889 -76.44 0.960889 -76.44 0.276910 -168.5
8.83440000 0.276895 -164.4 0.960895 -76.44 0.960895 -76.44 0.276891 -168.5
8.83460000 0.276876 -164.4 0.960900 -76.45 0.960900 -76.45 0.276872 -168.5
8.83480000 0.276856 -164.4 0.960906 -76.45 0.960906 -76.45 0.276852 -168.5
8.83500000 0.276836 -164.4 0.960911 -76.45 0.960911 -76.45 0.276832 -168.5
8.83520000 0.276816 -164.4 0.960917 -76.46 0.960917 -76.46 0.276812 -168.6
8.83540000 0.276796 -164.4 0.960923 -76.46 0.960923 -76.46 0.276792 -168.6
8.83560000 0.276776 -164.4 0.960929 -76.46 0.960929 -76.46 0.276772 -168.6
8.83580000 0.276756 -164.4 0.960934 -76.47 0.960934 -76.47 0.276752 -168.6
8.83600000 0.276736 -164.4 0.960940 -76.47 0.960940 -76.47 0.276732 -168.6
8.83620000 0.276715 -164.4 0.960946 -76.48 0.960946 -76.48 0.276711 -168.6
8.83640000 0.276694 -164.4 0.960952 -76.48 0.960952 -76.48 0.276690 -168.6
8.83660000 0.276674 -164.4 0.960958 -76.48 0.960958 -76.48 0.276669 -168.6
8.83680000 0.276653 -164.4 0.960964 -76.49 0.960964 -76.49 0.276648 -168.6
8.83700000 0.276632 -164.4 0.960970 -76.49 0.960970 -76.49 0.276627 -168.6
8.83720000 0.276610 -164.4 0.960976 -76.49 0.960976 -76.49 0.276606 -168.6
8.83740000 0.276589 -164.4 0.960982 -76.50 0.960982 -76.50 0.276585 -168.6
8.83760000 0.276567 -164.4 0.960989 -76.50 0.960989 -76.50 0.276563 -168.6
8.83780000 0.276546 -164.4 0.960995 -76.50 0.960995 -76.50 0.276541 -168.7
8.83800000 0.276524 -164.4 0.961001 -76.51 0.961001 -76.51 0.276520 -168.7
8.83820000 0.276502 -164.4 0.961007 -76.51 0.961007 -76.51 0.276497 -168.7
8.83840000 0.276480 -164.3 0.961014 -76.51 0.961014 -76.51 0.276475 -168.7
8.83860000 0.276457 -164.3 0.961020 -76.52 0.961020 -76.52 0.276453 -168.7
8.83880000 0.276435 -164.3 0.961027 -76.52 0.961027 -76.52 0.276430 -168.7
8.83900000 0.276412 -164.3 0.961033 -76.52 0.961033 -76.52 0.276408 -168.7
8.83920000 0.276390 -164.3 0.961040 -76.53 0.961040 -76.53 0.276385 -168.7
8.83940000 0.276367 -164.3 0.961046 -76.53 0.961046 -76.53 0.276362 -168.7
8.83960000 0.276344 -164.3 0.961053 -76.54 0.961053 -76.54 0.276339 -168.7
8.83980000 0.276320 -164.3 0.961059 -76.54 0.961059 -76.54 0.276316 -168.7
8.84000000 0.276297 -164.3 0.961066 -76.54 0.961066 -76.54 0.276292 -168.7
8.84020000 0.276273 -164.3 0.961073 -76.55 0.961073 -76.55 0.276268 -168.8
8.84040000 0.276249 -164.3 0.961080 -76.55 0.961080 -76.55 0.276245 -168.8
8.84060000 0.276225 -164.3 0.961087 -76.55 0.961087 -76.55 0.276221 -168.8
8.84080000 0.276201 -164.3 0.961094 -76.56 0.961094 -76.56 0.276197 -168.8
8.84100000 0.276177 -164.3 0.961100 -76.56 0.961100 -76.56 0.276172 -168.8
8.84120000 0.276153 -164.3 0.961107 -76.57 0.961107 -76.57 0.276148 -168.8
8.84140000 0.276128 -164.3 0.961115 -76.57 0.961115 -76.57 0.276123 -168.8
8.84160000 0.276103 -164.3 0.961122 -76.57 0.961122 -76.57 0.276098 -168.8
8.84180000 0.276078 -164.3 0.961129 -76.58 0.961129 -76.58 0.276073 -168.8
8.84200000 0.276053 -164.3 0.961136 -76.58 0.961136 -76.58 0.276048 -168.8
8.84220000 0.276027 -164.3 0.961143 -76.58 0.961143 -76.58 0.276022 -168.8
8.84240000 0.276002 -164.3 0.961151 -76.59 0.961151 -76.59 0.275997 -168.9
8.84260000 0.275976 -164.3 0.961158 -76.59 0.961158 -76.59 0.275971 -168.9
8.84280000 0.275950 -164.3 0.961165 -76.60 0.961165 -76.60 0.275945 -168.9
8.84300000 0.275924 -164.3 0.961173 -76.60 0.961173 -76.60 0.275919 -168.9
8.84320000 0.275898 -164.3 0.961180 -76.60 0.961180 -76.60 0.275892 -168.9
8.84340000 0.275871 -164.3 0.961188 -76.61 0.961188 -76.61 0.275866 -168.9
8.84360000 0.275844 -164.3 0.961196 -76.61 0.961196 -76.61 0.275839 -168.9
8.84380000 0.275817 -164.3 0.961203 -76.62 0.961203 -76.62 0.275812 -168.9
8.84400000 0.275790 -164.3 0.961211 -76.62 0.961211 -76.62 0.275785 -168.9
8.84420000 0.275763 -164.3 0.961219 -76.62 0.961219 -76.62 0.275757 -168.9
8.84440000 0.275735 -164.3 0.961227 -76.63 0.961227 -76.63 0.275730 -168.9
8.84460000 0.275707 -164.3 0.961235 -76.63 0.961235 -76.63 0.275702 -169.0
8.84480000 0.275679 -164.3 0.961243 -76.64 0.961243 -76.64 0.275674 -169.0
8.84500000 0.275651 -164.3 0.961251 -76.64 0.961251 -76.64 0.275645 -169.0
8.84520000 0.275623 -164.3 0.961259 -76.64 0.961259 -76.64 0.275617 -169.0
8.84540000 0.275594 -164.3 0.961267 -76.65 0.961267 -76.65 0.275588 -169.0
8.84560000 0.275565 -164.3 0.961276 -76.65 0.961276 -76.65 0.275559 -169.0
8.84580000 0.275536 -164.3 0.961284 -76.66 0.961284 -76.66 0.275530 -169.0
8.84600000 0.275507 -164.3 0.961292 -76.66 0.961292 -76.66 0.275501 -169.0
8.84620000 0.275477 -164.3 0.961301 -76.67 0.961301 -76.67 0.275471 -169.0
8.84640000 0.275447 -164.3 0.961309 -76.67 0.961309 -76.67 0.275441 -169.0
8.84660000 0.275417 -164.3 0.961318 -76.67 0.961318 -76.67 0.275411 -169.1
8.84680000 0.275387 -164.3 0.961326 -76.68 0.961326 -76.68 0.275381 -169.1
8.84700000 0.275356 -164.3 0.961335 -76.68 0.961335 -76.68 0.275350 -169.1
8.84720000 0.275326 -164.3 0.961344 -76.69 0.961344 -76.69 0.275319 -169.1
8.84740000 0.275295 -164.3 0.961353 -76.69 0.961353 -76.69 0.275288 -169.1
8.84760000 0.275263 -164.3 0.961362 -76.70 0.961362 -76.70 0.275257 -169.1
8.84780000 0.275232 -164.3 0.961371 -76.70 0.961371 -76.70 0.275226 -169.1
8.84800000 0.275200 -164.3 0.961380 -76.70 0.961380 -76.70 0.275194 -169.1
8.84820000 0.275168 -164.3 0.961389 -76.71 0.961389 -76.71 0.275162 -169.1
8.84840000 0.275136 -164.3 0.961398 -76.71 0.961398 -76.71 0.275129 -169.2
8.84860000 0.275103 -164.3 0.961407 -76.72 0.961407 -76.72 0.275097 -169.2
8.84880000 0.275070 -164.3 0.961417 -76.72 0.961417 -76.72 0.275064 -169.2
8.84900000 0.275037 -164.3 0.961426 -76.73 0.961426 -76.73 0.275031 -169.2
8.84920000 0.275004 -164.3 0.961436 -76.73 0.961436 -76.73 0.274997 -169.2
8.84940000 0.274970 -164.3 0.961445 -76.74 0.961445 -76.74 0.274963 -169.2
8.84960000 0.274936 -164.3 0.961455 -76.74 0.961455 -76.74 0.274929 -169.2
8.84980000 0.274902 -164.3 0.961465 -76.74 0.961465 -76.74 0.274895 -169.2
8.85000000 0.274868 -164.2 0.961475 -76.75 0.961475 -76.75 0.274861 -169.2
8.85020000 0.274833 -164.2 0.961484 -76.75 0.961484 -76.75 0.274826 -169.3
8.85040000 0.274798 -164.2 0.961494 -76.76 0.961494 -76.76 0.274791 -169.3
8.85060000 0.274762 -164.2 0.961505 -76.76 0.961505 -76.76 0.274755 -169.3
8.85080000 0.274727 -164.2 0.961515 -76.77 0.961515 -76.77 0.274719 -169.3
8.85100000 0.274691 -164.2 0.961525 -76.77 0.961525 -76.77 0.274683 -169.3
8.85120000 0.274654 -164.2 0.961535 -76.78 0.961535 -76.78 0.274647 -169.3
8.85140000 0.274618 -164.2 0.961546 -76.78 0.961546 -76.78 0.274610 -169.3
8.85160000 0.274581 -164.2 0.961556 -76.79 0.961556 -76.79 0.274573 -169.3
8.85180000 0.274543 -164.2 0.961567 -76.79 0.961567 -76.79 0.274536 -169.4
8.85200000 0.274506 -164.2 0.961577 -76.80 0.961577 -76.80 0.274498 -169.4
8.85220000 0.274468 -164.2 0.961588 -76.80 0.961588 -76.80 0.274460 -169.4
8.85240000 0.274430 -164.2 0.961599 -76.81 0.961599 -76.81 0.274422 -169.4
8.85260000 0.274391 -164.2 0.961610 -76.81 0.961610 -76.81 0.274384 -169.4
8.85280000 0.274352 -164.2 0.961621 -76.82 0.961621 -76.82 0.274345 -169.4
8.85300000 0.274313 -164.2 0.961632 -76.82 0.961632 -76.82 0.274305 -169.4
8.85320000 0.274273 -164.2 0.961644 -76.83 0.961644 -76.83 0.274266 -169.4
8.85340000 0.274234 -164.2 0.961655 -76.83 0.961655 -76.83 0.274226 -169.5
8.85360000 0.274193 -164.2 0.961666 -76.84 0.961666 -76.84 0.274185 -169.5
8.85380000 0.274153 -164.2 0.961678 -76.84 0.961678 -76.84 0.274144 -169.5
8.85400000 0.274111 -164.2 0.961690 -76.85 0.961690 -76.85 0.274103 -169.5
8.85420000 0.274070 -164.2 0.961701 -76.85 0.961701 -76.85 0.274062 -169.5
8.85440000 0.274028 -164.2 0.961713 -76.86 0.961713 -76.86 0.274020 -169.5
8.85460000 0.273986 -164.2 0.961725 -76.86 0.961725 -76.86 0.273978 -169.5
8.85480000 0.273944 -164.2 0.961737 -76.87 0.961737 -76.87 0.273935 -169.6
8.85500000 0.273901 -164.2 0.961749 -76.87 0.961749 -76.87 0.273892 -169.6
8.85520000 0.273857 -164.2 0.961762 -76.88 0.961762 -76.88 0.273849 -169.6
8.85540000 0.273813 -164.2 0.961774 -76.88 0.961774 -76.88 0.273805 -169.6
8.85560000 0.273769 -164.2 0.961787 -76.89 0.961787 -76.89 0.273761 -169.6
8.85580000 0.273725 -164.2 0.961799 -76.89 0.961799 -76.89 0.273716 -169.6
8.85600000 0.273680 -164.2 0.961812 -76.90 0.961812 -76.90 0.273671 -169.6
8.85620000 0.273634 -164.2 0.961825 -76.90 0.961825 -76.90 0.273625 -169.7
8.85640000 0.273588 -164.1 0.961838 -76.91 0.961838 -76.91 0.273579 -169.7
8.85660000 0.273542 -164.1 0.961851 -76.92 0.961851 -76.92 0.273533 -169.7
8.85680000 0.273495 -164.1 0.961864 -76.92 0.961864 -76.92 0.273486 -169.7
8.85700000 0.273448 -164.1 0.961878 -76.93 0.961878 -76.93 0.273439 -169.7
8.85720000 0.273401 -164.1 0.961891 -76.93 0.961891 -76.93 0.273391 -169.7
8.85740000 0.273353 -164.1 0.961905 -76.94 0.961905 -76.94 0.273343 -169.7
8.85760000 0.273304 -164.1 0.961918 -76.94 0.961918 -76.94 0.273294 -169.8
8.85780000 0.273255 -164.1 0.961932 -76.95 0.961932 -76.95 0.273245 -169.8
8.85800000 0.273205 -164.1 0.961946 -76.96 0.961946 -76.96 0.273196 -169.8
8.85820000 0.273156 -164.1 0.961960 -76.96 0.961960 -76.96 0.273146 -169.8
8.85840000 0.273105 -164.1 0.961975 -76.97 0.961975 -76.97 0.273095 -169.8
8.85860000 0.273054 -164.1 0.961989 -76.97 0.961989 -76.97 0.273044 -169.8
8.85880000 0.273003 -164.1 0.962004 -76.98 0.962004 -76.98 0.272992 -169.9
8.85900000 0.272950 -164.1 0.962018 -76.99 0.962018 -76.99 0.272940 -169.9
8.85920000 0.272898 -164.1 0.962033 -76.99 0.962033 -76.99 0.272887 -169.9
8.85940000 0.272845 -164.1 0.962048 -77.00 0.962048 -77.00 0.272834 -169.9
8.85960000 0.272791 -164.1 0.962063 -77.00 0.962063 -77.00 0.272781 -169.9
8.85980000 0.272737 -164.1 0.962079 -77.01 0.962079 -77.01 0.272726 -169.9
8.86000000 0.272682 -164.1 0.962094 -77.02 0.962094 -77.02 0.272672 -170.0
8.86020000 0.272627 -164.1 0.962110 -77.02 0.962110 -77.02 0.272616 -170.0
8.86040000 0.272571 -164.1 0.962125 -77.03 0.962125 -77.03 0.272560 -170.0
8.86060000 0.272515 -164.0 0.962141 -77.04 0.962141 -77.04 0.272504 -170.0
8.86080000 0.272458 -164.0 0.962157 -77.04 0.962157 -77.04 0.272446 -170.0
8.86100000 0.272400 -164.0 0.962174 -77.05 0.962174 -77.05 0.272389 -170.1
8.86120000 0.272342 -164.0 0.962190 -77.05 0.962190 -77.05 0.272330 -170.1
8.86140000 0.272283 -164.0 0.962207 -77.06 0.962207 -77.06 0.272271 -170.1
8.86160000 0.272224 -164.0 0.962223 -77.07 0.962223 -77.07 0.272212 -170.1
8.86180000 0.272164 -164.0 0.962240 -77.07 0.962240 -77.07 0.272152 -170.1
8.86200000 0.272103 -164.0 0.962257 -77.08 0.962257 -77.08 0.272091 -170.2
8.86220000 0.272041 -164.0 0.962275 -77.09 0.962275 -77.09 0.272029 -170.2
8.86240000 0.271979 -164.0 0.962292 -77.09 0.962292 -77.09 0.271967 -170.2
8.86260000 0.271917 -164.0 0.962310 -77.10 0.962310 -77.10 0.271904 -170.2
8.86280000 0.271853 -164.0 0.962328 -77.11 0.962328 -77.11 0.271841 -170.2
8.86300000 0.271789 -164.0 0.962346 -77.12 0.962346 -77.12 0.271776 -170.2
8.86320000 0.271724 -164.0 0.962364 -77.12 0.962364 -77.12 0.271711 -170.3
8.86340000 0.271659 -164.0 0.962382 -77.13 0.962382 -77.13 0.271646 -170.3
8.86360000 0.271592 -164.0 0.962401 -77.14 0.962401 -77.14 0.271579 -170.3
8.86380000 0.271525 -164.0 0.962420 -77.14 0.962420 -77.14 0.271512 -170.3
8.86400000 0.271458 -163.9 0.962439 -77.15 0.962439 -77.15 0.271444 -170.4
8.86420000 0.271389 -163.9 0.962458 -77.16 0.962458 -77.16 0.271375 -170.4
8.86440000 0.271320 -163.9 0.962477 -77.17 0.962477 -77.17 0.271306 -170.4
8.86460000 0.271250 -163.9 0.962497 -77.17 0.962497 -77.17 0.271236 -170.4
8.86480000 0.271179 -163.9 0.962517 -77.18 0.962517 -77.18 0.271164 -170.4
8.86500000 0.271107 -163.9 0.962537 -77.19 0.962537 -77.19 0.271093 -170.5
8.86520000 0.271034 -163.9 0.962557 -77.20 0.962557 -77.20 0.271020 -170.5
8.86540000 0.270961 -163.9 0.962578 -77.20 0.962578 -77.20 0.270946 -170.5
8.86560000 0.270887 -163.9 0.962599 -77.21 0.962599 -77.21 0.270872 -170.5
8.86580000 0.270811 -163.9 0.962620 -77.22 0.962620 -77.22 0.270796 -170.6
8.86600000 0.270735 -163.9 0.962641 -77.23 0.962641 -77.23 0.270720 -170.6
8.86620000 0.270658 -163.9 0.962663 -77.24 0.962663 -77.24 0.270643 -170.6
8.86640000 0.270580 -163.9 0.962684 -77.24 0.962684 -77.24 0.270565 -170.6
8.86660000 0.270502 -163.8 0.962706 -77.25 0.962706 -77.25 0.270486 -170.7
8.86680000 0.270422 -163.8 0.962729 -77.26 0.962729 -77.26 0.270406 -170.7
8.86700000 0.270341 -163.8 0.962751 -77.27 0.962751 -77.27 0.270325 -170.7
8.86720000 0.270259 -163.8 0.962774 -77.28 0.962774 -77.28 0.270243 -170.7
8.86740000 0.270176 -163.8 0.962797 -77.29 0.962797 -77.29 0.270160 -170.8
8.86760000 0.270092 -163.8 0.962821 -77.30 0.962821 -77.30 0.270076 -170.8
8.86780000 0.270008 -163.8 0.962844 -77.30 0.962844 -77.30 0.269990 -170.8
8.86800000 0.269922 -163.8 0.962868 -77.31 0.962868 -77.31 0.269904 -170.8
8.86820000 0.269835 -163.8 0.962893 -77.32 0.962893 -77.32 0.269817 -170.9
8.86840000 0.269746 -163.8 0.962917 -77.33 0.962917 -77.33 0.269729 -170.9
8.86860000 0.269657 -163.8 0.962942 -77.34 0.962942 -77.34 0.269639 -170.9
8.86880000 0.269567 -163.7 0.962967 -77.35 0.962967 -77.35 0.269548 -170.9
8.86900000 0.269475 -163.7 0.962993 -77.36 0.962993 -77.36 0.269457 -171.0
8.86920000 0.269382 -163.7 0.963018 -77.37 0.963018 -77.37 0.269364 -171.0
8.86940000 0.269288 -163.7 0.963045 -77.38 0.963045 -77.38 0.269269 -171.0
8.86960000 0.269193 -163.7 0.963071 -77.39 0.963071 -77.39 0.269174 -171.1
8.86980000 0.269096 -163.7 0.963098 -77.40 0.963098 -77.40 0.269077 -171.1
8.86990174 0.269047 -163.7 0.963112 -77.40 0.963112 -77.40 0.269027 -171.1
8.87000000 0.268999 -163.7 0.963125 -77.41 0.963125 -77.41 0.268979 -171.1
8.87020000 0.268899 -163.7 0.963153 -77.42 0.963153 -77.42 0.268879 -171.2
8.87040000 0.268799 -163.7 0.963180 -77.43 0.963180 -77.43 0.268779 -171.2
8.87058740 0.268704 -163.7 0.963207 -77.44 0.963207 -77.44 0.268683 -171.2
8.87060000 0.268697 -163.7 0.963209 -77.44 0.963209 -77.44 0.268676 -171.2
8.87080000 0.268594 -163.6 0.963237 -77.45 0.963237 -77.45 0.268573 -171.3
8.87100000 0.268489 -163.6 0.963266 -77.46 0.963266 -77.46 0.268468 -171.3
8.87120000 0.268383 -163.6 0.963296 -77.47 0.963296 -77.47 0.268362 -171.3
8.87125735 0.268352 -163.6 0.963304 -77.47 0.963304 -77.47 0.268331 -171.3
8.87140000 0.268275 -163.6 0.963325 -77.48 0.963325 -77.48 0.268254 -171.3
8.87160000 0.268166 -163.6 0.963356 -77.49 0.963356 -77.49 0.268144 -171.4
8.87180000 0.268056 -163.6 0.963386 -77.50 0.963386 -77.50 0.268033 -171.4
8.87191194 0.267993 -163.6 0.963404 -77.51 0.963404 -77.51 0.267970 -171.4
8.87200000 0.267943 -163.6 0.963417 -77.51 0.963417 -77.51 0.267921 -171.5
8.87220000 0.267830 -163.6 0.963449 -77.52 0.963449 -77.52 0.267806 -171.5
8.87240000 0.267714 -163.5 0.963481 -77.53 0.963481 -77.53 0.267690 -171.5
8.87255154 0.267625 -163.5 0.963505 -77.54 0.963505 -77.54 0.267602 -171.6
8.87260000 0.267597 -163.5 0.963513 -77.54 0.963513 -77.54 0.267573 -171.6
8.87280000 0.267478 -163.5 0.963546 -77.56 0.963546 -77.56 0.267454 -171.6
8.87300000 0.267357 -163.5 0.963579 -77.57 0.963579 -77.57 0.267333 -171.6
8.87317648 0.267249 -163.5 0.963609 -77.58 0.963609 -77.58 0.267224 -171.7
8.87320000 0.267235 -163.5 0.963613 -77.58 0.963613 -77.58 0.267210 -171.7
8.87340000 0.267110 -163.5 0.963647 -77.59 0.963647 -77.59 0.267085 -171.7
8.87360000 0.266984 -163.5 0.963682 -77.60 0.963682 -77.60 0.266958 -171.8
8.87378711 0.266865 -163.4 0.963715 -77.62 0.963715 -77.62 0.266838 -171.8
8.87380000 0.266856 -163.4 0.963717 -77.62 0.963717 -77.62 0.266830 -171.8
8.87400000 0.266726 -163.4 0.963753 -77.63 0.963753 -77.63 0.266699 -171.8
8.87420000 0.266594 -163.4 0.963789 -77.64 0.963789 -77.64 0.266567 -171.9
8.87438374 0.266471 -163.4 0.963823 -77.65 0.963823 -77.65 0.266443 -171.9
8.87440000 0.266460 -163.4 0.963826 -77.65 0.963826 -77.65 0.266432 -171.9
8.87460000 0.266324 -163.4 0.963863 -77.67 0.963863 -77.67 0.266296 -172.0
8.87480000 0.266185 -163.4 0.963901 -77.68 0.963901 -77.68 0.266157 -172.0
8.87496670 0.266068 -163.3 0.963933 -77.69 0.963933 -77.69 0.266040 -172.0
8.87500000 0.266045 -163.3 0.963940 -77.69 0.963940 -77.69 0.266016 -172.0
8.87520000 0.265902 -163.3 0.963979 -77.71 0.963979 -77.71 0.265873 -172.1
8.87540000 0.265757 -163.3 0.964018 -77.72 0.964018 -77.72 0.265727 -172.1
8.87553630 0.265657 -163.3 0.964046 -77.73 0.964046 -77.73 0.265627 -172.2
8.87560000 0.265610 -163.3 0.964059 -77.74 0.964059 -77.74 0.265579 -172.2
8.87580000 0.265460 -163.3 0.964100 -77.75 0.964100 -77.75 0.265429 -172.2
8.87600000 0.265307 -163.2 0.964141 -77.76 0.964141 -77.76 0.265276 -172.3
8.87609285 0.265236 -163.2 0.964161 -77.77 0.964161 -77.77 0.265204 -172.3
8.87620000 0.265153 -163.2 0.964184 -77.78 0.964184 -77.78 0.265120 -172.3