! Sonnet Data File
! From: emgraph Version : 16.52
! From Project: Resonator2_cp
! Data is De-embedded 
! Data File Written: 10/06/2017 09:05:50
!< HDATE 10/05/2017 15:28:06
!< MDATE 10/05/2017 15:28:06
!< PARAMS
!< gap = 36.0
!< Length = 400.0
!< Pwid1 = 2000.0
!< Pwid2 = 2000.0
!< END PARAMS
# GHZ S MA R 35.97000
8.80000000 0.021075 2.3284 0.999774 -74.67 0.999774 -74.67 0.021077 28.333
!< P1 F=8.8 Eeff=(5.36817953 -2.3731e-5) Z0=(35.9853883 8.0522e-5) R=0.0 C=0.0 
!< P2 F=8.8 Eeff=(5.36817953 -2.3731e-5) Z0=(35.9853883 8.0522e-5) R=0.0 C=0.0 
8.80020000 0.021079 2.3179 0.999774 -74.68 0.999774 -74.68 0.021081 28.340
8.80040000 0.021083 2.3072 0.999774 -74.68 0.999774 -74.68 0.021085 28.346
8.80060000 0.021087 2.2965 0.999774 -74.68 0.999774 -74.68 0.021089 28.353
8.80080000 0.021092 2.2858 0.999774 -74.68 0.999774 -74.68 0.021093 28.360
8.80100000 0.021096 2.2751 0.999774 -74.68 0.999774 -74.68 0.021097 28.366
8.80120000 0.021100 2.2643 0.999774 -74.69 0.999774 -74.69 0.021102 28.373
8.80140000 0.021104 2.2535 0.999774 -74.69 0.999774 -74.69 0.021106 28.380
8.80160000 0.021108 2.2427 0.999774 -74.69 0.999774 -74.69 0.021110 28.387
8.80180000 0.021113 2.2318 0.999774 -74.69 0.999774 -74.69 0.021114 28.393
8.80200000 0.021117 2.2209 0.999774 -74.69 0.999774 -74.69 0.021118 28.400
8.80220000 0.021121 2.2100 0.999773 -74.70 0.999773 -74.70 0.021123 28.407
8.80240000 0.021125 2.1991 0.999773 -74.70 0.999773 -74.70 0.021127 28.414
8.80260000 0.021130 2.1881 0.999773 -74.70 0.999773 -74.70 0.021131 28.421
8.80280000 0.021134 2.1771 0.999773 -74.70 0.999773 -74.70 0.021136 28.428
8.80300000 0.021138 2.1660 0.999773 -74.70 0.999773 -74.70 0.021140 28.435
8.80320000 0.021143 2.1550 0.999773 -74.71 0.999773 -74.71 0.021144 28.442
8.80340000 0.021147 2.1439 0.999773 -74.71 0.999773 -74.71 0.021149 28.449
8.80360000 0.021152 2.1327 0.999773 -74.71 0.999773 -74.71 0.021153 28.456
8.80380000 0.021156 2.1216 0.999773 -74.71 0.999773 -74.71 0.021158 28.463
8.80400000 0.021160 2.1104 0.999773 -74.71 0.999773 -74.71 0.021162 28.470
8.80420000 0.021165 2.0991 0.999773 -74.72 0.999773 -74.72 0.021167 28.477
8.80440000 0.021169 2.0879 0.999772 -74.72 0.999772 -74.72 0.021171 28.485
8.80460000 0.021174 2.0766 0.999772 -74.72 0.999772 -74.72 0.021175 28.492
8.80480000 0.021178 2.0652 0.999772 -74.72 0.999772 -74.72 0.021180 28.499
8.80500000 0.021183 2.0539 0.999772 -74.72 0.999772 -74.72 0.021184 28.506
8.80520000 0.021187 2.0425 0.999772 -74.73 0.999772 -74.73 0.021189 28.514
8.80540000 0.021192 2.0310 0.999772 -74.73 0.999772 -74.73 0.021194 28.521
8.80560000 0.021197 2.0196 0.999772 -74.73 0.999772 -74.73 0.021198 28.528
8.80580000 0.021201 2.0081 0.999772 -74.73 0.999772 -74.73 0.021203 28.536
8.80600000 0.021206 1.9965 0.999772 -74.73 0.999772 -74.73 0.021207 28.543
8.80620000 0.021210 1.9850 0.999772 -74.74 0.999772 -74.74 0.021212 28.551
8.80640000 0.021215 1.9734 0.999771 -74.74 0.999771 -74.74 0.021217 28.558
8.80660000 0.021220 1.9618 0.999771 -74.74 0.999771 -74.74 0.021221 28.566
8.80680000 0.021224 1.9501 0.999771 -74.74 0.999771 -74.74 0.021226 28.573
8.80700000 0.021229 1.9384 0.999771 -74.74 0.999771 -74.74 0.021231 28.581
8.80720000 0.021234 1.9267 0.999771 -74.75 0.999771 -74.75 0.021235 28.588
8.80740000 0.021238 1.9149 0.999771 -74.75 0.999771 -74.75 0.021240 28.596
8.80760000 0.021243 1.9031 0.999771 -74.75 0.999771 -74.75 0.021245 28.604
8.80780000 0.021248 1.8912 0.999771 -74.75 0.999771 -74.75 0.021250 28.611
8.80800000 0.021253 1.8794 0.999771 -74.75 0.999771 -74.75 0.021254 28.619
8.80820000 0.021258 1.8675 0.999771 -74.76 0.999771 -74.76 0.021259 28.627
8.80840000 0.021262 1.8555 0.999770 -74.76 0.999770 -74.76 0.021264 28.635
8.80860000 0.021267 1.8435 0.999770 -74.76 0.999770 -74.76 0.021269 28.643
8.80880000 0.021272 1.8315 0.999770 -74.76 0.999770 -74.76 0.021274 28.650
8.80900000 0.021277 1.8195 0.999770 -74.77 0.999770 -74.77 0.021279 28.658
8.80920000 0.021282 1.8074 0.999770 -74.77 0.999770 -74.77 0.021284 28.666
8.80940000 0.021287 1.7952 0.999770 -74.77 0.999770 -74.77 0.021289 28.674
8.80960000 0.021292 1.7831 0.999770 -74.77 0.999770 -74.77 0.021294 28.682
8.80980000 0.021297 1.7709 0.999770 -74.77 0.999770 -74.77 0.021299 28.690
8.81000000 0.021302 1.7586 0.999770 -74.78 0.999770 -74.78 0.021304 28.698
8.81020000 0.021307 1.7463 0.999769 -74.78 0.999769 -74.78 0.021309 28.707
8.81040000 0.021312 1.7340 0.999769 -74.78 0.999769 -74.78 0.021314 28.715
8.81060000 0.021317 1.7217 0.999769 -74.78 0.999769 -74.78 0.021319 28.723
8.81080000 0.021322 1.7093 0.999769 -74.78 0.999769 -74.78 0.021324 28.731
8.81100000 0.021327 1.6968 0.999769 -74.79 0.999769 -74.79 0.021329 28.739
8.81120000 0.021332 1.6844 0.999769 -74.79 0.999769 -74.79 0.021334 28.748
8.81140000 0.021337 1.6719 0.999769 -74.79 0.999769 -74.79 0.021339 28.756
8.81160000 0.021343 1.6593 0.999769 -74.79 0.999769 -74.79 0.021344 28.764
8.81180000 0.021348 1.6467 0.999769 -74.79 0.999769 -74.79 0.021350 28.773
8.81200000 0.021353 1.6341 0.999768 -74.80 0.999768 -74.80 0.021355 28.781
8.81220000 0.021358 1.6214 0.999768 -74.80 0.999768 -74.80 0.021360 28.790
8.81240000 0.021364 1.6087 0.999768 -74.80 0.999768 -74.80 0.021365 28.798
8.81260000 0.021369 1.5960 0.999768 -74.80 0.999768 -74.80 0.021371 28.807
8.81280000 0.021374 1.5832 0.999768 -74.80 0.999768 -74.80 0.021376 28.815
8.81300000 0.021379 1.5704 0.999768 -74.81 0.999768 -74.81 0.021381 28.824
8.81320000 0.021385 1.5575 0.999768 -74.81 0.999768 -74.81 0.021387 28.833
8.81340000 0.021390 1.5446 0.999768 -74.81 0.999768 -74.81 0.021392 28.841
8.81360000 0.021396 1.5316 0.999767 -74.81 0.999767 -74.81 0.021397 28.850
8.81380000 0.021401 1.5186 0.999767 -74.82 0.999767 -74.82 0.021403 28.859
8.81400000 0.021406 1.5056 0.999767 -74.82 0.999767 -74.82 0.021408 28.868
8.81420000 0.021412 1.4925 0.999767 -74.82 0.999767 -74.82 0.021414 28.877
8.81440000 0.021417 1.4794 0.999767 -74.82 0.999767 -74.82 0.021419 28.885
8.81460000 0.021423 1.4662 0.999767 -74.82 0.999767 -74.82 0.021425 28.894
8.81480000 0.021428 1.4530 0.999767 -74.83 0.999767 -74.83 0.021430 28.903
8.81500000 0.021434 1.4398 0.999767 -74.83 0.999767 -74.83 0.021436 28.912
8.81520000 0.021440 1.4265 0.999767 -74.83 0.999767 -74.83 0.021441 28.921
8.81540000 0.021445 1.4132 0.999766 -74.83 0.999766 -74.83 0.021447 28.930
8.81560000 0.021451 1.3998 0.999766 -74.83 0.999766 -74.83 0.021453 28.940
8.81580000 0.021456 1.3864 0.999766 -74.84 0.999766 -74.84 0.021458 28.949
8.81600000 0.021462 1.3729 0.999766 -74.84 0.999766 -74.84 0.021464 28.958
8.81620000 0.021468 1.3594 0.999766 -74.84 0.999766 -74.84 0.021470 28.967
8.81640000 0.021474 1.3458 0.999766 -74.84 0.999766 -74.84 0.021475 28.977
8.81660000 0.021479 1.3322 0.999766 -74.84 0.999766 -74.84 0.021481 28.986
8.81680000 0.021485 1.3186 0.999766 -74.85 0.999766 -74.85 0.021487 28.995
8.81700000 0.021491 1.3049 0.999765 -74.85 0.999765 -74.85 0.021493 29.005
8.81720000 0.021497 1.2911 0.999765 -74.85 0.999765 -74.85 0.021499 29.014
8.81740000 0.021503 1.2773 0.999765 -74.85 0.999765 -74.85 0.021504 29.024
8.81760000 0.021508 1.2635 0.999765 -74.86 0.999765 -74.86 0.021510 29.033
8.81780000 0.021514 1.2496 0.999765 -74.86 0.999765 -74.86 0.021516 29.043
8.81800000 0.021520 1.2357 0.999765 -74.86 0.999765 -74.86 0.021522 29.052
8.81820000 0.021526 1.2217 0.999765 -74.86 0.999765 -74.86 0.021528 29.062
8.81840000 0.021532 1.2077 0.999764 -74.86 0.999764 -74.86 0.021534 29.072
8.81860000 0.021538 1.1936 0.999764 -74.87 0.999764 -74.87 0.021540 29.082
8.81880000 0.021544 1.1795 0.999764 -74.87 0.999764 -74.87 0.021546 29.091
8.81900000 0.021550 1.1654 0.999764 -74.87 0.999764 -74.87 0.021552 29.101
8.81920000 0.021557 1.1511 0.999764 -74.87 0.999764 -74.87 0.021558 29.111
8.81940000 0.021563 1.1369 0.999764 -74.87 0.999764 -74.87 0.021565 29.121
8.81960000 0.021569 1.1226 0.999764 -74.88 0.999764 -74.88 0.021571 29.131
8.81980000 0.021575 1.1082 0.999764 -74.88 0.999764 -74.88 0.021577 29.141
8.82000000 0.021581 1.0938 0.999763 -74.88 0.999763 -74.88 0.021583 29.151
8.82020000 0.021588 1.0793 0.999763 -74.88 0.999763 -74.88 0.021589 29.161
8.82040000 0.021594 1.0648 0.999763 -74.89 0.999763 -74.89 0.021596 29.171
8.82060000 0.021600 1.0502 0.999763 -74.89 0.999763 -74.89 0.021602 29.182
8.82080000 0.021606 1.0356 0.999763 -74.89 0.999763 -74.89 0.021608 29.192
8.82100000 0.021613 1.0209 0.999763 -74.89 0.999763 -74.89 0.021615 29.202
8.82120000 0.021619 1.0062 0.999763 -74.89 0.999763 -74.89 0.021621 29.213
8.82140000 0.021626 0.9915 0.999762 -74.90 0.999762 -74.90 0.021628 29.223
8.82160000 0.021632 0.9766 0.999762 -74.90 0.999762 -74.90 0.021634 29.234
8.82180000 0.021639 0.9617 0.999762 -74.90 0.999762 -74.90 0.021641 29.244
8.82200000 0.021645 0.9468 0.999762 -74.90 0.999762 -74.90 0.021647 29.255
8.82220000 0.021652 0.9318 0.999762 -74.91 0.999762 -74.91 0.021654 29.265
8.82240000 0.021658 0.9168 0.999762 -74.91 0.999762 -74.91 0.021660 29.276
8.82260000 0.021665 0.9017 0.999762 -74.91 0.999762 -74.91 0.021667 29.287
8.82280000 0.021672 0.8865 0.999761 -74.91 0.999761 -74.91 0.021674 29.297
8.82300000 0.021678 0.8713 0.999761 -74.91 0.999761 -74.91 0.021680 29.308
8.82320000 0.021685 0.8561 0.999761 -74.92 0.999761 -74.92 0.021687 29.319
8.82340000 0.021692 0.8408 0.999761 -74.92 0.999761 -74.92 0.021694 29.330
8.82360000 0.021699 0.8254 0.999761 -74.92 0.999761 -74.92 0.021701 29.341
8.82380000 0.021705 0.8100 0.999761 -74.92 0.999761 -74.92 0.021707 29.352
8.82400000 0.021712 0.7945 0.999760 -74.92 0.999760 -74.92 0.021714 29.363
8.82420000 0.021719 0.7790 0.999760 -74.93 0.999760 -74.93 0.021721 29.374
8.82440000 0.021726 0.7634 0.999760 -74.93 0.999760 -74.93 0.021728 29.385
8.82460000 0.021733 0.7477 0.999760 -74.93 0.999760 -74.93 0.021735 29.396
8.82480000 0.021740 0.7320 0.999760 -74.93 0.999760 -74.93 0.021742 29.408
8.82500000 0.021747 0.7162 0.999760 -74.94 0.999760 -74.94 0.021749 29.419
8.82520000 0.021754 0.7004 0.999760 -74.94 0.999760 -74.94 0.021756 29.430
8.82540000 0.021761 0.6845 0.999759 -74.94 0.999759 -74.94 0.021763 29.442
8.82560000 0.021768 0.6685 0.999759 -74.94 0.999759 -74.94 0.021770 29.453
8.82580000 0.021775 0.6525 0.999759 -74.94 0.999759 -74.94 0.021777 29.465
8.82600000 0.021783 0.6365 0.999759 -74.95 0.999759 -74.95 0.021785 29.476
8.82620000 0.021790 0.6203 0.999759 -74.95 0.999759 -74.95 0.021792 29.488
8.82640000 0.021797 0.6041 0.999759 -74.95 0.999759 -74.95 0.021799 29.500
8.82660000 0.021804 0.5879 0.999758 -74.95 0.999758 -74.95 0.021806 29.512
8.82680000 0.021812 0.5716 0.999758 -74.96 0.999758 -74.96 0.021814 29.523
8.82700000 0.021819 0.5552 0.999758 -74.96 0.999758 -74.96 0.021821 29.535
8.82720000 0.021827 0.5387 0.999758 -74.96 0.999758 -74.96 0.021829 29.547
8.82740000 0.021834 0.5222 0.999758 -74.96 0.999758 -74.96 0.021836 29.559
8.82760000 0.021841 0.5057 0.999758 -74.96 0.999758 -74.96 0.021844 29.571
8.82780000 0.021849 0.4890 0.999757 -74.97 0.999757 -74.97 0.021851 29.583
8.82800000 0.021857 0.4723 0.999757 -74.97 0.999757 -74.97 0.021859 29.596
8.82820000 0.021864 0.4556 0.999757 -74.97 0.999757 -74.97 0.021866 29.608
8.82840000 0.021872 0.4388 0.999757 -74.97 0.999757 -74.97 0.021874 29.620
8.82860000 0.021880 0.4219 0.999757 -74.98 0.999757 -74.98 0.021882 29.633
8.82880000 0.021887 0.4049 0.999757 -74.98 0.999757 -74.98 0.021889 29.645
8.82900000 0.021895 0.3879 0.999756 -74.98 0.999756 -74.98 0.021897 29.657
8.82920000 0.021903 0.3708 0.999756 -74.98 0.999756 -74.98 0.021905 29.670
8.82940000 0.021911 0.3536 0.999756 -74.99 0.999756 -74.99 0.021913 29.683
8.82960000 0.021919 0.3364 0.999756 -74.99 0.999756 -74.99 0.021921 29.695
8.82980000 0.021927 0.3191 0.999756 -74.99 0.999756 -74.99 0.021929 29.708
8.83000000 0.021935 0.3017 0.999755 -74.99 0.999755 -74.99 0.021937 29.721
8.83020000 0.021943 0.2843 0.999755 -74.99 0.999755 -74.99 0.021945 29.734
8.83040000 0.021951 0.2668 0.999755 -75.00 0.999755 -75.00 0.021953 29.746
8.83060000 0.021959 0.2492 0.999755 -75.00 0.999755 -75.00 0.021961 29.759
8.83080000 0.021967 0.2316 0.999755 -75.00 0.999755 -75.00 0.021969 29.772
8.83100000 0.021975 0.2139 0.999755 -75.00 0.999755 -75.00 0.021977 29.786
8.83120000 0.021983 0.1961 0.999754 -75.01 0.999754 -75.01 0.021986 29.799
8.83140000 0.021992 0.1782 0.999754 -75.01 0.999754 -75.01 0.021994 29.812
8.83160000 0.022000 0.1603 0.999754 -75.01 0.999754 -75.01 0.022002 29.825
8.83180000 0.022008 0.1423 0.999754 -75.01 0.999754 -75.01 0.022011 29.839
8.83200000 0.022017 0.1242 0.999754 -75.01 0.999754 -75.01 0.022019 29.852
8.83220000 0.022025 0.1060 0.999753 -75.02 0.999753 -75.02 0.022027 29.866
8.83240000 0.022034 0.0878 0.999753 -75.02 0.999753 -75.02 0.022036 29.879
8.83260000 0.022042 0.0695 0.999753 -75.02 0.999753 -75.02 0.022045 29.893
8.83280000 0.022051 0.0511 0.999753 -75.02 0.999753 -75.02 0.022053 29.907
8.83300000 0.022060 0.0326 0.999753 -75.03 0.999753 -75.03 0.022062 29.920
8.83320000 0.022068 0.0141 0.999752 -75.03 0.999752 -75.03 0.022071 29.934
8.83340000 0.022077 0.0000 0.999752 -75.03 0.999752 -75.03 0.022079 29.948
8.83360000 0.022086 -0.023 0.999752 -75.03 0.999752 -75.03 0.022088 29.962
8.83380000 0.022095 -0.042 0.999752 -75.04 0.999752 -75.04 0.022097 29.976
8.83400000 0.022104 -0.061 0.999752 -75.04 0.999752 -75.04 0.022106 29.990
8.83420000 0.022112 -0.080 0.999751 -75.04 0.999751 -75.04 0.022115 30.005
8.83440000 0.022121 -0.099 0.999751 -75.04 0.999751 -75.04 0.022124 30.019
8.83460000 0.022131 -0.118 0.999751 -75.05 0.999751 -75.05 0.022133 30.033
8.83480000 0.022140 -0.137 0.999751 -75.05 0.999751 -75.05 0.022142 30.048
8.83500000 0.022149 -0.156 0.999751 -75.05 0.999751 -75.05 0.022151 30.062
8.83520000 0.022158 -0.176 0.999750 -75.05 0.999750 -75.05 0.022160 30.077
8.83540000 0.022167 -0.195 0.999750 -75.05 0.999750 -75.05 0.022170 30.091
8.83560000 0.022177 -0.215 0.999750 -75.06 0.999750 -75.06 0.022179 30.106
8.83580000 0.022186 -0.234 0.999750 -75.06 0.999750 -75.06 0.022188 30.121
8.83600000 0.022195 -0.254 0.999750 -75.06 0.999750 -75.06 0.022198 30.136
8.83620000 0.022205 -0.274 0.999749 -75.06 0.999749 -75.06 0.022207 30.151
8.83640000 0.022214 -0.293 0.999749 -75.07 0.999749 -75.07 0.022217 30.166
8.83660000 0.022224 -0.313 0.999749 -75.07 0.999749 -75.07 0.022226 30.181
8.83680000 0.022234 -0.333 0.999749 -75.07 0.999749 -75.07 0.022236 30.196
8.83700000 0.022243 -0.353 0.999748 -75.07 0.999748 -75.07 0.022246 30.211
8.83720000 0.022253 -0.374 0.999748 -75.08 0.999748 -75.08 0.022256 30.227
8.83740000 0.022263 -0.394 0.999748 -75.08 0.999748 -75.08 0.022265 30.242
8.83760000 0.022273 -0.414 0.999748 -75.08 0.999748 -75.08 0.022275 30.258
8.83780000 0.022283 -0.435 0.999748 -75.08 0.999748 -75.08 0.022285 30.273
8.83800000 0.022293 -0.455 0.999747 -75.09 0.999747 -75.09 0.022295 30.289
8.83820000 0.022303 -0.476 0.999747 -75.09 0.999747 -75.09 0.022305 30.305
8.83840000 0.022313 -0.497 0.999747 -75.09 0.999747 -75.09 0.022315 30.321
8.83860000 0.022323 -0.518 0.999747 -75.09 0.999747 -75.09 0.022326 30.337
8.83880000 0.022333 -0.539 0.999746 -75.10 0.999746 -75.10 0.022336 30.353
8.83900000 0.022344 -0.560 0.999746 -75.10 0.999746 -75.10 0.022346 30.369
8.83920000 0.022354 -0.581 0.999746 -75.10 0.999746 -75.10 0.022356 30.385
8.83940000 0.022364 -0.602 0.999746 -75.10 0.999746 -75.10 0.022367 30.401
8.83960000 0.022375 -0.623 0.999745 -75.11 0.999745 -75.11 0.022377 30.418
8.83980000 0.022385 -0.645 0.999745 -75.11 0.999745 -75.11 0.022388 30.434
8.84000000 0.022396 -0.666 0.999745 -75.11 0.999745 -75.11 0.022399 30.451
8.84020000 0.022407 -0.688 0.999745 -75.11 0.999745 -75.11 0.022409 30.468
8.84040000 0.022417 -0.709 0.999744 -75.11 0.999744 -75.11 0.022420 30.484
8.84060000 0.022428 -0.731 0.999744 -75.12 0.999744 -75.12 0.022431 30.501
8.84080000 0.022439 -0.753 0.999744 -75.12 0.999744 -75.12 0.022442 30.518
8.84100000 0.022450 -0.775 0.999744 -75.12 0.999744 -75.12 0.022453 30.535
8.84120000 0.022461 -0.797 0.999743 -75.12 0.999743 -75.12 0.022464 30.552
8.84140000 0.022472 -0.820 0.999743 -75.13 0.999743 -75.13 0.022475 30.569
8.84160000 0.022483 -0.842 0.999743 -75.13 0.999743 -75.13 0.022486 30.587
8.84180000 0.022494 -0.864 0.999743 -75.13 0.999743 -75.13 0.022497 30.604
8.84200000 0.022506 -0.887 0.999742 -75.13 0.999742 -75.13 0.022508 30.622
8.84220000 0.022517 -0.910 0.999742 -75.14 0.999742 -75.14 0.022520 30.639
8.84240000 0.022529 -0.932 0.999742 -75.14 0.999742 -75.14 0.022531 30.657
8.84260000 0.022540 -0.955 0.999742 -75.14 0.999742 -75.14 0.022543 30.675
8.84280000 0.022552 -0.978 0.999741 -75.14 0.999741 -75.14 0.022554 30.693
8.84300000 0.022563 -1.001 0.999741 -75.15 0.999741 -75.15 0.022566 30.711
8.84320000 0.022575 -1.024 0.999741 -75.15 0.999741 -75.15 0.022578 30.729
8.84340000 0.022587 -1.048 0.999740 -75.15 0.999740 -75.15 0.022590 30.747
8.84360000 0.022599 -1.071 0.999740 -75.16 0.999740 -75.16 0.022602 30.765
8.84380000 0.022611 -1.095 0.999740 -75.16 0.999740 -75.16 0.022614 30.784
8.84400000 0.022623 -1.118 0.999740 -75.16 0.999740 -75.16 0.022626 30.802
8.84420000 0.022635 -1.142 0.999739 -75.16 0.999739 -75.16 0.022638 30.821
8.84440000 0.022647 -1.166 0.999739 -75.17 0.999739 -75.17 0.022650 30.839
8.84460000 0.022659 -1.190 0.999739 -75.17 0.999739 -75.17 0.022662 30.858
8.84480000 0.022672 -1.214 0.999738 -75.17 0.999738 -75.17 0.022675 30.877
8.84500000 0.022684 -1.238 0.999738 -75.17 0.999738 -75.17 0.022687 30.896
8.84520000 0.022697 -1.263 0.999738 -75.18 0.999738 -75.18 0.022700 30.915
8.84540000 0.022709 -1.287 0.999738 -75.18 0.999738 -75.18 0.022712 30.935
8.84560000 0.022722 -1.312 0.999737 -75.18 0.999737 -75.18 0.022725 30.954
8.84580000 0.022735 -1.337 0.999737 -75.18 0.999737 -75.18 0.022738 30.974
8.84600000 0.022748 -1.362 0.999737 -75.19 0.999737 -75.19 0.022751 30.993
8.84620000 0.022761 -1.387 0.999736 -75.19 0.999736 -75.19 0.022764 31.013
8.84640000 0.022774 -1.412 0.999736 -75.19 0.999736 -75.19 0.022777 31.033
8.84660000 0.022787 -1.437 0.999736 -75.19 0.999736 -75.19 0.022790 31.053
8.84680000 0.022800 -1.462 0.999735 -75.20 0.999735 -75.20 0.022803 31.073
8.84700000 0.022814 -1.488 0.999735 -75.20 0.999735 -75.20 0.022817 31.093
8.84720000 0.022827 -1.513 0.999735 -75.20 0.999735 -75.20 0.022830 31.113
8.84740000 0.022840 -1.539 0.999734 -75.20 0.999734 -75.20 0.022843 31.134
8.84760000 0.022854 -1.565 0.999734 -75.21 0.999734 -75.21 0.022857 31.154
8.84780000 0.022868 -1.591 0.999734 -75.21 0.999734 -75.21 0.022871 31.175
8.84800000 0.022882 -1.617 0.999734 -75.21 0.999734 -75.21 0.022885 31.196
8.84820000 0.022895 -1.644 0.999733 -75.22 0.999733 -75.22 0.022899 31.217
8.84840000 0.022909 -1.670 0.999733 -75.22 0.999733 -75.22 0.022913 31.238
8.84860000 0.022924 -1.697 0.999733 -75.22 0.999733 -75.22 0.022927 31.259
8.84880000 0.022938 -1.723 0.999732 -75.22 0.999732 -75.22 0.022941 31.280
8.84900000 0.022952 -1.750 0.999732 -75.23 0.999732 -75.23 0.022955 31.301
8.84920000 0.022966 -1.777 0.999732 -75.23 0.999732 -75.23 0.022970 31.323
8.84940000 0.022981 -1.804 0.999731 -75.23 0.999731 -75.23 0.022984 31.345
8.84960000 0.022996 -1.832 0.999731 -75.23 0.999731 -75.23 0.022999 31.366
8.84980000 0.023010 -1.859 0.999730 -75.24 0.999730 -75.24 0.023013 31.388
8.85000000 0.023025 -1.887 0.999730 -75.24 0.999730 -75.24 0.023028 31.410
8.85020000 0.023040 -1.915 0.999730 -75.24 0.999730 -75.24 0.023043 31.433
8.85040000 0.023055 -1.943 0.999729 -75.24 0.999729 -75.24 0.023058 31.455
8.85060000 0.023070 -1.971 0.999729 -75.25 0.999729 -75.25 0.023073 31.478
8.85080000 0.023085 -1.999 0.999729 -75.25 0.999729 -75.25 0.023089 31.500
8.85100000 0.023101 -2.027 0.999728 -75.25 0.999728 -75.25 0.023104 31.523
8.85120000 0.023116 -2.056 0.999728 -75.26 0.999728 -75.26 0.023120 31.546
8.85140000 0.023132 -2.084 0.999728 -75.26 0.999728 -75.26 0.023135 31.569
8.85160000 0.023148 -2.113 0.999727 -75.26 0.999727 -75.26 0.023151 31.592
8.85180000 0.023163 -2.142 0.999727 -75.26 0.999727 -75.26 0.023167 31.615
8.85200000 0.023179 -2.171 0.999726 -75.27 0.999726 -75.27 0.023183 31.639
8.85220000 0.023196 -2.201 0.999726 -75.27 0.999726 -75.27 0.023199 31.662
8.85240000 0.023212 -2.230 0.999726 -75.27 0.999726 -75.27 0.023215 31.686
8.85260000 0.023228 -2.260 0.999725 -75.28 0.999725 -75.28 0.023231 31.710
8.85280000 0.023244 -2.290 0.999725 -75.28 0.999725 -75.28 0.023248 31.734
8.85300000 0.023261 -2.320 0.999724 -75.28 0.999724 -75.28 0.023265 31.758
8.85320000 0.023278 -2.350 0.999724 -75.28 0.999724 -75.28 0.023281 31.783
8.85340000 0.023295 -2.380 0.999724 -75.29 0.999724 -75.29 0.023298 31.807
8.85360000 0.023312 -2.411 0.999723 -75.29 0.999723 -75.29 0.023315 31.832
8.85380000 0.023329 -2.441 0.999723 -75.29 0.999723 -75.29 0.023332 31.857
8.85400000 0.023346 -2.472 0.999722 -75.30 0.999722 -75.30 0.023349 31.882
8.85420000 0.023363 -2.503 0.999722 -75.30 0.999722 -75.30 0.023367 31.907
8.85440000 0.023381 -2.534 0.999722 -75.30 0.999722 -75.30 0.023384 31.932
8.85460000 0.023398 -2.566 0.999721 -75.30 0.999721 -75.30 0.023402 31.958
8.85480000 0.023416 -2.597 0.999721 -75.31 0.999721 -75.31 0.023420 31.983
8.85500000 0.023434 -2.629 0.999720 -75.31 0.999720 -75.31 0.023438 32.009
8.85520000 0.023452 -2.661 0.999720 -75.31 0.999720 -75.31 0.023456 32.035
8.85540000 0.023470 -2.693 0.999719 -75.32 0.999719 -75.32 0.023474 32.061
8.85560000 0.023489 -2.726 0.999719 -75.32 0.999719 -75.32 0.023493 32.088
8.85580000 0.023507 -2.758 0.999718 -75.32 0.999718 -75.32 0.023511 32.114
8.85600000 0.023526 -2.791 0.999718 -75.33 0.999718 -75.33 0.023530 32.141
8.85620000 0.023545 -2.824 0.999718 -75.33 0.999718 -75.33 0.023549 32.168
8.85640000 0.023564 -2.857 0.999717 -75.33 0.999717 -75.33 0.023568 32.195
8.85660000 0.023583 -2.890 0.999717 -75.33 0.999717 -75.33 0.023587 32.222
8.85680000 0.023602 -2.924 0.999716 -75.34 0.999716 -75.34 0.023606 32.249
8.85700000 0.023622 -2.958 0.999716 -75.34 0.999716 -75.34 0.023626 32.277
8.85720000 0.023641 -2.992 0.999715 -75.34 0.999715 -75.34 0.023645 32.305
8.85740000 0.023661 -3.026 0.999715 -75.35 0.999715 -75.35 0.023665 32.333
8.85760000 0.023681 -3.060 0.999714 -75.35 0.999714 -75.35 0.023685 32.361
8.85780000 0.023701 -3.095 0.999714 -75.35 0.999714 -75.35 0.023705 32.389
8.85800000 0.023721 -3.129 0.999713 -75.36 0.999713 -75.36 0.023725 32.418
8.85820000 0.023742 -3.164 0.999713 -75.36 0.999713 -75.36 0.023746 32.446
8.85840000 0.023763 -3.200 0.999712 -75.36 0.999712 -75.36 0.023767 32.475
8.85860000 0.023783 -3.235 0.999712 -75.37 0.999712 -75.37 0.023787 32.504
8.85880000 0.023804 -3.271 0.999711 -75.37 0.999711 -75.37 0.023808 32.534
8.85900000 0.023826 -3.307 0.999711 -75.37 0.999711 -75.37 0.023830 32.563
8.85920000 0.023847 -3.343 0.999710 -75.37 0.999710 -75.37 0.023851 32.593
8.85940000 0.023869 -3.379 0.999710 -75.38 0.999710 -75.38 0.023873 32.623
8.85960000 0.023890 -3.416 0.999709 -75.38 0.999709 -75.38 0.023894 32.653
8.85980000 0.023912 -3.452 0.999708 -75.38 0.999708 -75.38 0.023916 32.683
8.86000000 0.023934 -3.490 0.999708 -75.39 0.999708 -75.39 0.023938 32.714
8.86020000 0.023957 -3.527 0.999707 -75.39 0.999707 -75.39 0.023961 32.744
8.86040000 0.023979 -3.564 0.999707 -75.39 0.999707 -75.39 0.023983 32.775
8.86060000 0.024002 -3.602 0.999706 -75.40 0.999706 -75.40 0.024006 32.806
8.86080000 0.024025 -3.640 0.999706 -75.40 0.999706 -75.40 0.024029 32.838
8.86100000 0.024048 -3.678 0.999705 -75.40 0.999705 -75.40 0.024052 32.869
8.86120000 0.024071 -3.717 0.999704 -75.41 0.999704 -75.41 0.024076 32.901
8.86140000 0.024095 -3.756 0.999704 -75.41 0.999704 -75.41 0.024099 32.933
8.86160000 0.024119 -3.795 0.999703 -75.41 0.999703 -75.41 0.024123 32.966
8.86180000 0.024143 -3.834 0.999703 -75.42 0.999703 -75.42 0.024147 32.998
8.86200000 0.024167 -3.874 0.999702 -75.42 0.999702 -75.42 0.024171 33.031
8.86220000 0.024191 -3.913 0.999701 -75.42 0.999701 -75.42 0.024196 33.064
8.86240000 0.024216 -3.954 0.999701 -75.43 0.999701 -75.43 0.024221 33.097
8.86260000 0.024241 -3.994 0.999700 -75.43 0.999700 -75.43 0.024246 33.130
8.86280000 0.024266 -4.035 0.999700 -75.43 0.999700 -75.43 0.024271 33.164
8.86300000 0.024292 -4.075 0.999699 -75.44 0.999699 -75.44 0.024296 33.198
8.86320000 0.024317 -4.117 0.999698 -75.44 0.999698 -75.44 0.024322 33.232
8.86340000 0.024343 -4.158 0.999698 -75.44 0.999698 -75.44 0.024348 33.267
8.86360000 0.024369 -4.200 0.999697 -75.45 0.999697 -75.45 0.024374 33.301
8.86380000 0.024396 -4.242 0.999696 -75.45 0.999696 -75.45 0.024400 33.336
8.86400000 0.024422 -4.284 0.999696 -75.45 0.999696 -75.45 0.024427 33.372
8.86420000 0.024449 -4.327 0.999695 -75.46 0.999695 -75.46 0.024454 33.407
8.86440000 0.024477 -4.370 0.999694 -75.46 0.999694 -75.46 0.024481 33.443
8.86460000 0.024504 -4.413 0.999693 -75.47 0.999693 -75.47 0.024509 33.479
8.86480000 0.024532 -4.457 0.999693 -75.47 0.999693 -75.47 0.024537 33.515
8.86500000 0.024560 -4.501 0.999692 -75.47 0.999692 -75.47 0.024565 33.552
8.86520000 0.024588 -4.545 0.999691 -75.48 0.999691 -75.48 0.024593 33.588
8.86540000 0.024617 -4.589 0.999691 -75.48 0.999691 -75.48 0.024621 33.625
8.86560000 0.024645 -4.634 0.999690 -75.48 0.999690 -75.48 0.024650 33.663
8.86580000 0.024675 -4.679 0.999689 -75.49 0.999689 -75.49 0.024680 33.700
8.86600000 0.024704 -4.725 0.999688 -75.49 0.999688 -75.49 0.024709 33.738
8.86620000 0.024734 -4.770 0.999688 -75.49 0.999688 -75.49 0.024739 33.777
8.86640000 0.024764 -4.817 0.999687 -75.50 0.999687 -75.50 0.024769 33.815
8.86660000 0.024794 -4.863 0.999686 -75.50 0.999686 -75.50 0.024799 33.854
8.86680000 0.024825 -4.910 0.999685 -75.51 0.999685 -75.51 0.024830 33.893
8.86700000 0.024856 -4.957 0.999684 -75.51 0.999684 -75.51 0.024861 33.932
8.86720000 0.024887 -5.004 0.999684 -75.51 0.999684 -75.51 0.024892 33.972
8.86740000 0.024919 -5.052 0.999683 -75.52 0.999683 -75.52 0.024924 34.012
8.86760000 0.024951 -5.100 0.999682 -75.52 0.999682 -75.52 0.024956 34.053
8.86780000 0.024983 -5.149 0.999681 -75.52 0.999681 -75.52 0.024989 34.093
8.86800000 0.025016 -5.198 0.999680 -75.53 0.999680 -75.53 0.025021 34.134
8.86820000 0.025049 -5.247 0.999679 -75.53 0.999679 -75.53 0.025054 34.175
8.86840000 0.025082 -5.297 0.999678 -75.54 0.999678 -75.54 0.025088 34.217
8.86860000 0.025116 -5.347 0.999678 -75.54 0.999678 -75.54 0.025122 34.259
8.86880000 0.025150 -5.397 0.999677 -75.54 0.999677 -75.54 0.025156 34.301
8.86900000 0.025185 -5.448 0.999676 -75.55 0.999676 -75.55 0.025191 34.344
8.86920000 0.025220 -5.500 0.999675 -75.55 0.999675 -75.55 0.025226 34.387
8.86940000 0.025255 -5.551 0.999674 -75.56 0.999674 -75.56 0.025261 34.430
8.86960000 0.025291 -5.603 0.999673 -75.56 0.999673 -75.56 0.025297 34.474
8.86980000 0.025327 -5.656 0.999672 -75.56 0.999672 -75.56 0.025333 34.518
8.87000000 0.025364 -5.708 0.999671 -75.57 0.999671 -75.57 0.025369 34.562
8.87020000 0.025400 -5.762 0.999670 -75.57 0.999670 -75.57 0.025406 34.607
8.87040000 0.025438 -5.815 0.999669 -75.58 0.999669 -75.58 0.025444 34.652
8.87060000 0.025476 -5.870 0.999668 -75.58 0.999668 -75.58 0.025482 34.698
8.87080000 0.025514 -5.924 0.999667 -75.59 0.999667 -75.59 0.025520 34.744
8.87100000 0.025553 -5.979 0.999666 -75.59 0.999666 -75.59 0.025559 34.790
8.87120000 0.025592 -6.035 0.999665 -75.59 0.999665 -75.59 0.025598 34.836
8.87140000 0.025631 -6.090 0.999664 -75.60 0.999664 -75.60 0.025637 34.883
8.87160000 0.025671 -6.147 0.999663 -75.60 0.999663 -75.60 0.025678 34.931
8.87180000 0.025712 -6.204 0.999662 -75.61 0.999662 -75.61 0.025718 34.979
8.87200000 0.025753 -6.261 0.999660 -75.61 0.999660 -75.61 0.025759 35.027
8.87220000 0.025795 -6.319 0.999659 -75.62 0.999659 -75.62 0.025801 35.075
8.87240000 0.025837 -6.377 0.999658 -75.62 0.999658 -75.62 0.025843 35.124
8.87260000 0.025879 -6.435 0.999657 -75.63 0.999657 -75.63 0.025886 35.174
8.87280000 0.025922 -6.495 0.999656 -75.63 0.999656 -75.63 0.025929 35.224
8.87300000 0.025966 -6.554 0.999655 -75.63 0.999655 -75.63 0.025972 35.274
8.87320000 0.026010 -6.615 0.999653 -75.64 0.999653 -75.64 0.026017 35.325
8.87340000 0.026055 -6.675 0.999652 -75.64 0.999652 -75.64 0.026061 35.376
8.87360000 0.026100 -6.737 0.999651 -75.65 0.999651 -75.65 0.026107 35.427
8.87380000 0.026146 -6.798 0.999650 -75.65 0.999650 -75.65 0.026153 35.479
8.87400000 0.026192 -6.861 0.999648 -75.66 0.999648 -75.66 0.026199 35.532
8.87420000 0.026239 -6.923 0.999647 -75.66 0.999647 -75.66 0.026246 35.585
8.87440000 0.026287 -6.987 0.999646 -75.67 0.999646 -75.67 0.026294 35.638
8.87460000 0.026335 -7.051 0.999644 -75.67 0.999644 -75.67 0.026342 35.692
8.87480000 0.026384 -7.115 0.999643 -75.68 0.999643 -75.68 0.026391 35.747
8.87500000 0.026434 -7.180 0.999642 -75.68 0.999642 -75.68 0.026441 35.801
8.87520000 0.026484 -7.246 0.999640 -75.69 0.999640 -75.69 0.026491 35.857
8.87540000 0.026535 -7.312 0.999639 -75.69 0.999639 -75.69 0.026542 35.913
8.87560000 0.026587 -7.379 0.999637 -75.70 0.999637 -75.70 0.026594 35.969
8.87580000 0.026639 -7.446 0.999636 -75.70 0.999636 -75.70 0.026646 36.026
8.87600000 0.026692 -7.514 0.999634 -75.71 0.999634 -75.71 0.026699 36.083
8.87620000 0.026746 -7.583 0.999633 -75.71 0.999633 -75.71 0.026753 36.141
8.87640000 0.026800 -7.652 0.999631 -75.72 0.999631 -75.72 0.026808 36.199
8.87660000 0.026855 -7.722 0.999630 -75.72 0.999630 -75.72 0.026863 36.258
8.87670048 0.026883 -7.757 0.999629 -75.73 0.999629 -75.73 0.026891 36.288
8.87680000 0.026911 -7.793 0.999628 -75.73 0.999628 -75.73 0.026919 36.318
8.87700000 0.026968 -7.864 0.999627 -75.73 0.999627 -75.73 0.026976 36.378
8.87720000 0.027026 -7.936 0.999625 -75.74 0.999625 -75.74 0.027034 36.438
8.87738491 0.027080 -8.003 0.999623 -75.75 0.999623 -75.75 0.027088 36.495
8.87740000 0.027084 -8.008 0.999623 -75.75 0.999623 -75.75 0.027092 36.500
8.87760000 0.027143 -8.081 0.999622 -75.75 0.999622 -75.75 0.027151 36.561
8.87780000 0.027203 -8.155 0.999620 -75.76 0.999620 -75.76 0.027212 36.624
8.87800000 0.027264 -8.230 0.999618 -75.76 0.999618 -75.76 0.027273 36.687