! Sonnet Data File
! From: emgraph Version : 16.52
! From Project: Resonator2
! Data is De-embedded 
! Data File Written: 10/05/2017 10:46:05
!< HDATE 10/04/2017 20:26:48
!< MDATE 10/05/2017 00:36:07
!< PARAMS
!< gap = 100.0
!< Length = 400.0
!< Pwid1 = 2000.0
!< Pwid2 = 2000.0
!< END PARAMS
# GHZ S MA R 50.00000
8.80000000 0.296932 -164.4 0.954895 -74.83 0.954895 -74.83 0.296932 -165.2
!< P1 F=8.8 Eeff=(5.36817953 -2.3731e-5) Z0=(35.9853883 8.0522e-5) R=0.0 C=0.0 
!< P2 F=8.8 Eeff=(5.36817953 -2.3731e-5) Z0=(35.9853883 8.0522e-5) R=0.0 C=0.0 
8.80020000 0.296935 -164.4 0.954895 -74.83 0.954895 -74.83 0.296934 -165.2
8.80040000 0.296937 -164.4 0.954894 -74.83 0.954894 -74.83 0.296937 -165.2
8.80060000 0.296939 -164.4 0.954893 -74.84 0.954893 -74.84 0.296939 -165.2
8.80080000 0.296941 -164.4 0.954893 -74.84 0.954893 -74.84 0.296941 -165.2
8.80100000 0.296944 -164.4 0.954892 -74.84 0.954892 -74.84 0.296943 -165.2
8.80120000 0.296946 -164.4 0.954891 -74.84 0.954891 -74.84 0.296946 -165.2
8.80140000 0.296948 -164.4 0.954890 -74.84 0.954890 -74.84 0.296948 -165.2
8.80160000 0.296950 -164.5 0.954890 -74.84 0.954890 -74.84 0.296950 -165.2
8.80180000 0.296953 -164.5 0.954889 -74.85 0.954889 -74.85 0.296952 -165.2
8.80200000 0.296955 -164.5 0.954888 -74.85 0.954888 -74.85 0.296955 -165.2
8.80220000 0.296957 -164.5 0.954888 -74.85 0.954888 -74.85 0.296957 -165.2
8.80240000 0.296959 -164.5 0.954887 -74.85 0.954887 -74.85 0.296959 -165.2
8.80260000 0.296962 -164.5 0.954886 -74.85 0.954886 -74.85 0.296961 -165.2
8.80280000 0.296964 -164.5 0.954886 -74.86 0.954886 -74.86 0.296964 -165.3
8.80300000 0.296966 -164.5 0.954885 -74.86 0.954885 -74.86 0.296966 -165.3
8.80320000 0.296968 -164.5 0.954884 -74.86 0.954884 -74.86 0.296968 -165.3
8.80340000 0.296971 -164.5 0.954883 -74.86 0.954883 -74.86 0.296971 -165.3
8.80360000 0.296973 -164.5 0.954883 -74.86 0.954883 -74.86 0.296973 -165.3
8.80380000 0.296975 -164.5 0.954882 -74.86 0.954882 -74.86 0.296975 -165.3
8.80400000 0.296977 -164.5 0.954881 -74.87 0.954881 -74.87 0.296977 -165.3
8.80420000 0.296980 -164.5 0.954881 -74.87 0.954881 -74.87 0.296979 -165.3
8.80440000 0.296982 -164.5 0.954880 -74.87 0.954880 -74.87 0.296982 -165.3
8.80460000 0.296984 -164.5 0.954879 -74.87 0.954879 -74.87 0.296984 -165.3
8.80480000 0.296986 -164.5 0.954879 -74.87 0.954879 -74.87 0.296986 -165.3
8.80500000 0.296989 -164.5 0.954878 -74.87 0.954878 -74.87 0.296988 -165.3
8.80520000 0.296991 -164.5 0.954877 -74.88 0.954877 -74.88 0.296991 -165.3
8.80540000 0.296993 -164.5 0.954876 -74.88 0.954876 -74.88 0.296993 -165.3
8.80560000 0.296995 -164.5 0.954876 -74.88 0.954876 -74.88 0.296995 -165.3
8.80580000 0.296998 -164.5 0.954875 -74.88 0.954875 -74.88 0.296997 -165.3
8.80600000 0.297000 -164.5 0.954874 -74.88 0.954874 -74.88 0.297000 -165.3
8.80620000 0.297002 -164.5 0.954874 -74.88 0.954874 -74.88 0.297002 -165.3
8.80640000 0.297004 -164.5 0.954873 -74.89 0.954873 -74.89 0.297004 -165.3
8.80660000 0.297007 -164.5 0.954872 -74.89 0.954872 -74.89 0.297006 -165.3
8.80680000 0.297009 -164.5 0.954872 -74.89 0.954872 -74.89 0.297009 -165.3
8.80700000 0.297011 -164.5 0.954871 -74.89 0.954871 -74.89 0.297011 -165.3
8.80720000 0.297013 -164.5 0.954870 -74.89 0.954870 -74.89 0.297013 -165.3
8.80740000 0.297016 -164.5 0.954869 -74.89 0.954869 -74.89 0.297015 -165.3
8.80760000 0.297018 -164.5 0.954869 -74.90 0.954869 -74.90 0.297017 -165.3
8.80780000 0.297020 -164.5 0.954868 -74.90 0.954868 -74.90 0.297020 -165.3
8.80800000 0.297022 -164.5 0.954867 -74.90 0.954867 -74.90 0.297022 -165.3
8.80820000 0.297024 -164.5 0.954867 -74.90 0.954867 -74.90 0.297024 -165.3
8.80840000 0.297027 -164.5 0.954866 -74.90 0.954866 -74.90 0.297026 -165.3
8.80860000 0.297029 -164.5 0.954865 -74.90 0.954865 -74.90 0.297029 -165.3
8.80880000 0.297031 -164.5 0.954865 -74.91 0.954865 -74.91 0.297031 -165.3
8.80900000 0.297033 -164.5 0.954864 -74.91 0.954864 -74.91 0.297033 -165.3
8.80920000 0.297036 -164.5 0.954863 -74.91 0.954863 -74.91 0.297035 -165.3
8.80940000 0.297038 -164.5 0.954863 -74.91 0.954863 -74.91 0.297037 -165.3
8.80960000 0.297040 -164.5 0.954862 -74.91 0.954862 -74.91 0.297040 -165.3
8.80980000 0.297042 -164.5 0.954861 -74.91 0.954861 -74.91 0.297042 -165.3
8.81000000 0.297044 -164.5 0.954860 -74.92 0.954860 -74.92 0.297044 -165.3
8.81020000 0.297047 -164.5 0.954860 -74.92 0.954860 -74.92 0.297046 -165.3
8.81040000 0.297049 -164.5 0.954859 -74.92 0.954859 -74.92 0.297049 -165.3
8.81060000 0.297051 -164.5 0.954858 -74.92 0.954858 -74.92 0.297051 -165.3
8.81080000 0.297053 -164.5 0.954858 -74.92 0.954858 -74.92 0.297053 -165.3
8.81100000 0.297055 -164.5 0.954857 -74.93 0.954857 -74.93 0.297055 -165.3
8.81120000 0.297058 -164.5 0.954856 -74.93 0.954856 -74.93 0.297057 -165.3
8.81140000 0.297060 -164.5 0.954856 -74.93 0.954856 -74.93 0.297060 -165.3
8.81160000 0.297062 -164.5 0.954855 -74.93 0.954855 -74.93 0.297062 -165.3
8.81180000 0.297064 -164.5 0.954854 -74.93 0.954854 -74.93 0.297064 -165.3
8.81200000 0.297066 -164.5 0.954854 -74.93 0.954854 -74.93 0.297066 -165.3
8.81220000 0.297069 -164.5 0.954853 -74.94 0.954853 -74.94 0.297068 -165.3
8.81240000 0.297071 -164.5 0.954852 -74.94 0.954852 -74.94 0.297071 -165.3
8.81260000 0.297073 -164.5 0.954852 -74.94 0.954852 -74.94 0.297073 -165.3
8.81280000 0.297075 -164.5 0.954851 -74.94 0.954851 -74.94 0.297075 -165.4
8.81300000 0.297077 -164.5 0.954850 -74.94 0.954850 -74.94 0.297077 -165.4
8.81320000 0.297080 -164.5 0.954849 -74.94 0.954849 -74.94 0.297079 -165.4
8.81340000 0.297082 -164.5 0.954849 -74.95 0.954849 -74.95 0.297082 -165.4
8.81360000 0.297084 -164.5 0.954848 -74.95 0.954848 -74.95 0.297084 -165.4
8.81380000 0.297086 -164.5 0.954847 -74.95 0.954847 -74.95 0.297086 -165.4
8.81400000 0.297088 -164.5 0.954847 -74.95 0.954847 -74.95 0.297088 -165.4
8.81420000 0.297091 -164.5 0.954846 -74.95 0.954846 -74.95 0.297090 -165.4
8.81440000 0.297093 -164.5 0.954845 -74.95 0.954845 -74.95 0.297093 -165.4
8.81460000 0.297095 -164.5 0.954845 -74.96 0.954845 -74.96 0.297095 -165.4
8.81480000 0.297097 -164.5 0.954844 -74.96 0.954844 -74.96 0.297097 -165.4
8.81500000 0.297099 -164.5 0.954843 -74.96 0.954843 -74.96 0.297099 -165.4
8.81520000 0.297102 -164.5 0.954843 -74.96 0.954843 -74.96 0.297101 -165.4
8.81540000 0.297104 -164.6 0.954842 -74.96 0.954842 -74.96 0.297103 -165.4
8.81560000 0.297106 -164.6 0.954841 -74.96 0.954841 -74.96 0.297106 -165.4
8.81580000 0.297108 -164.6 0.954841 -74.97 0.954841 -74.97 0.297108 -165.4
8.81600000 0.297110 -164.6 0.954840 -74.97 0.954840 -74.97 0.297110 -165.4
8.81620000 0.297112 -164.6 0.954839 -74.97 0.954839 -74.97 0.297112 -165.4
8.81640000 0.297115 -164.6 0.954839 -74.97 0.954839 -74.97 0.297114 -165.4
8.81660000 0.297117 -164.6 0.954838 -74.97 0.954838 -74.97 0.297116 -165.4
8.81680000 0.297119 -164.6 0.954837 -74.98 0.954837 -74.98 0.297119 -165.4
8.81700000 0.297121 -164.6 0.954837 -74.98 0.954837 -74.98 0.297121 -165.4
8.81720000 0.297123 -164.6 0.954836 -74.98 0.954836 -74.98 0.297123 -165.4
8.81740000 0.297125 -164.6 0.954835 -74.98 0.954835 -74.98 0.297125 -165.4
8.81760000 0.297128 -164.6 0.954835 -74.98 0.954835 -74.98 0.297127 -165.4
8.81780000 0.297130 -164.6 0.954834 -74.98 0.954834 -74.98 0.297129 -165.4
8.81800000 0.297132 -164.6 0.954833 -74.99 0.954833 -74.99 0.297132 -165.4
8.81820000 0.297134 -164.6 0.954832 -74.99 0.954832 -74.99 0.297134 -165.4
8.81840000 0.297136 -164.6 0.954832 -74.99 0.954832 -74.99 0.297136 -165.4
8.81860000 0.297138 -164.6 0.954831 -74.99 0.954831 -74.99 0.297138 -165.4
8.81880000 0.297141 -164.6 0.954830 -74.99 0.954830 -74.99 0.297140 -165.4
8.81900000 0.297143 -164.6 0.954830 -74.99 0.954830 -74.99 0.297142 -165.4
8.81920000 0.297145 -164.6 0.954829 -75.00 0.954829 -75.00 0.297145 -165.4
8.81940000 0.297147 -164.6 0.954828 -75.00 0.954828 -75.00 0.297147 -165.4
8.81960000 0.297149 -164.6 0.954828 -75.00 0.954828 -75.00 0.297149 -165.4
8.81980000 0.297151 -164.6 0.954827 -75.00 0.954827 -75.00 0.297151 -165.4
8.82000000 0.297154 -164.6 0.954826 -75.00 0.954826 -75.00 0.297153 -165.4
8.82020000 0.297156 -164.6 0.954826 -75.00 0.954826 -75.00 0.297155 -165.4
8.82040000 0.297158 -164.6 0.954825 -75.01 0.954825 -75.01 0.297157 -165.4
8.82060000 0.297160 -164.6 0.954824 -75.01 0.954824 -75.01 0.297160 -165.4
8.82080000 0.297162 -164.6 0.954824 -75.01 0.954824 -75.01 0.297162 -165.4
8.82100000 0.297164 -164.6 0.954823 -75.01 0.954823 -75.01 0.297164 -165.4
8.82120000 0.297166 -164.6 0.954822 -75.01 0.954822 -75.01 0.297166 -165.4
8.82140000 0.297169 -164.6 0.954822 -75.02 0.954822 -75.02 0.297168 -165.4
8.82160000 0.297171 -164.6 0.954821 -75.02 0.954821 -75.02 0.297170 -165.4
8.82180000 0.297173 -164.6 0.954820 -75.02 0.954820 -75.02 0.297172 -165.4
8.82200000 0.297175 -164.6 0.954820 -75.02 0.954820 -75.02 0.297175 -165.4
8.82220000 0.297177 -164.6 0.954819 -75.02 0.954819 -75.02 0.297177 -165.4
8.82240000 0.297179 -164.6 0.954818 -75.02 0.954818 -75.02 0.297179 -165.4
8.82260000 0.297181 -164.6 0.954818 -75.03 0.954818 -75.03 0.297181 -165.5
8.82280000 0.297183 -164.6 0.954817 -75.03 0.954817 -75.03 0.297183 -165.5
8.82300000 0.297186 -164.6 0.954816 -75.03 0.954816 -75.03 0.297185 -165.5
8.82320000 0.297188 -164.6 0.954816 -75.03 0.954816 -75.03 0.297187 -165.5
8.82340000 0.297190 -164.6 0.954815 -75.03 0.954815 -75.03 0.297189 -165.5
8.82360000 0.297192 -164.6 0.954814 -75.03 0.954814 -75.03 0.297192 -165.5
8.82380000 0.297194 -164.6 0.954814 -75.04 0.954814 -75.04 0.297194 -165.5
8.82400000 0.297196 -164.6 0.954813 -75.04 0.954813 -75.04 0.297196 -165.5
8.82420000 0.297198 -164.6 0.954812 -75.04 0.954812 -75.04 0.297198 -165.5
8.82440000 0.297200 -164.6 0.954812 -75.04 0.954812 -75.04 0.297200 -165.5
8.82460000 0.297203 -164.6 0.954811 -75.04 0.954811 -75.04 0.297202 -165.5
8.82480000 0.297205 -164.6 0.954811 -75.04 0.954811 -75.04 0.297204 -165.5
8.82500000 0.297207 -164.6 0.954810 -75.05 0.954810 -75.05 0.297206 -165.5
8.82520000 0.297209 -164.6 0.954809 -75.05 0.954809 -75.05 0.297208 -165.5
8.82540000 0.297211 -164.6 0.954809 -75.05 0.954809 -75.05 0.297211 -165.5
8.82560000 0.297213 -164.6 0.954808 -75.05 0.954808 -75.05 0.297213 -165.5
8.82580000 0.297215 -164.6 0.954807 -75.05 0.954807 -75.05 0.297215 -165.5
8.82600000 0.297217 -164.6 0.954807 -75.06 0.954807 -75.06 0.297217 -165.5
8.82620000 0.297219 -164.6 0.954806 -75.06 0.954806 -75.06 0.297219 -165.5
8.82640000 0.297221 -164.6 0.954805 -75.06 0.954805 -75.06 0.297221 -165.5
8.82660000 0.297224 -164.6 0.954805 -75.06 0.954805 -75.06 0.297223 -165.5
8.82680000 0.297226 -164.6 0.954804 -75.06 0.954804 -75.06 0.297225 -165.5
8.82700000 0.297228 -164.6 0.954803 -75.06 0.954803 -75.06 0.297227 -165.5
8.82720000 0.297230 -164.6 0.954803 -75.07 0.954803 -75.07 0.297229 -165.5
8.82740000 0.297232 -164.6 0.954802 -75.07 0.954802 -75.07 0.297232 -165.5
8.82760000 0.297234 -164.6 0.954801 -75.07 0.954801 -75.07 0.297234 -165.5
8.82780000 0.297236 -164.6 0.954801 -75.07 0.954801 -75.07 0.297236 -165.5
8.82800000 0.297238 -164.6 0.954800 -75.07 0.954800 -75.07 0.297238 -165.5
8.82820000 0.297240 -164.6 0.954799 -75.07 0.954799 -75.07 0.297240 -165.5
8.82840000 0.297242 -164.6 0.954799 -75.08 0.954799 -75.08 0.297242 -165.5
8.82860000 0.297244 -164.6 0.954798 -75.08 0.954798 -75.08 0.297244 -165.5
8.82880000 0.297247 -164.6 0.954797 -75.08 0.954797 -75.08 0.297246 -165.5
8.82900000 0.297249 -164.6 0.954797 -75.08 0.954797 -75.08 0.297248 -165.5
8.82920000 0.297251 -164.6 0.954796 -75.08 0.954796 -75.08 0.297250 -165.5
8.82940000 0.297253 -164.6 0.954796 -75.08 0.954796 -75.08 0.297252 -165.5
8.82960000 0.297255 -164.6 0.954795 -75.09 0.954795 -75.09 0.297254 -165.5
8.82980000 0.297257 -164.7 0.954794 -75.09 0.954794 -75.09 0.297256 -165.5
8.83000000 0.297259 -164.7 0.954794 -75.09 0.954794 -75.09 0.297259 -165.5
8.83020000 0.297261 -164.7 0.954793 -75.09 0.954793 -75.09 0.297261 -165.5
8.83040000 0.297263 -164.7 0.954792 -75.09 0.954792 -75.09 0.297263 -165.5
8.83060000 0.297265 -164.7 0.954792 -75.10 0.954792 -75.10 0.297265 -165.5
8.83080000 0.297267 -164.7 0.954791 -75.10 0.954791 -75.10 0.297267 -165.5
8.83100000 0.297269 -164.7 0.954790 -75.10 0.954790 -75.10 0.297269 -165.5
8.83120000 0.297271 -164.7 0.954790 -75.10 0.954790 -75.10 0.297271 -165.5
8.83140000 0.297273 -164.7 0.954789 -75.10 0.954789 -75.10 0.297273 -165.5
8.83160000 0.297275 -164.7 0.954788 -75.10 0.954788 -75.10 0.297275 -165.5
8.83180000 0.297277 -164.7 0.954788 -75.11 0.954788 -75.11 0.297277 -165.5
8.83200000 0.297279 -164.7 0.954787 -75.11 0.954787 -75.11 0.297279 -165.5
8.83220000 0.297282 -164.7 0.954787 -75.11 0.954787 -75.11 0.297281 -165.6
8.83240000 0.297284 -164.7 0.954786 -75.11 0.954786 -75.11 0.297283 -165.6
8.83260000 0.297286 -164.7 0.954785 -75.11 0.954785 -75.11 0.297285 -165.6
8.83280000 0.297288 -164.7 0.954785 -75.11 0.954785 -75.11 0.297287 -165.6
8.83300000 0.297290 -164.7 0.954784 -75.12 0.954784 -75.12 0.297289 -165.6
8.83320000 0.297292 -164.7 0.954783 -75.12 0.954783 -75.12 0.297291 -165.6
8.83340000 0.297294 -164.7 0.954783 -75.12 0.954783 -75.12 0.297293 -165.6
8.83360000 0.297296 -164.7 0.954782 -75.12 0.954782 -75.12 0.297295 -165.6
8.83380000 0.297298 -164.7 0.954781 -75.12 0.954781 -75.12 0.297297 -165.6
8.83400000 0.297300 -164.7 0.954781 -75.13 0.954781 -75.13 0.297299 -165.6
8.83420000 0.297302 -164.7 0.954780 -75.13 0.954780 -75.13 0.297301 -165.6
8.83440000 0.297304 -164.7 0.954780 -75.13 0.954780 -75.13 0.297303 -165.6
8.83460000 0.297306 -164.7 0.954779 -75.13 0.954779 -75.13 0.297305 -165.6
8.83480000 0.297308 -164.7 0.954778 -75.13 0.954778 -75.13 0.297307 -165.6
8.83500000 0.297310 -164.7 0.954778 -75.13 0.954778 -75.13 0.297309 -165.6
8.83520000 0.297312 -164.7 0.954777 -75.14 0.954777 -75.14 0.297311 -165.6
8.83540000 0.297314 -164.7 0.954776 -75.14 0.954776 -75.14 0.297314 -165.6
8.83560000 0.297316 -164.7 0.954776 -75.14 0.954776 -75.14 0.297316 -165.6
8.83580000 0.297318 -164.7 0.954775 -75.14 0.954775 -75.14 0.297318 -165.6
8.83600000 0.297320 -164.7 0.954775 -75.14 0.954775 -75.14 0.297320 -165.6
8.83620000 0.297322 -164.7 0.954774 -75.14 0.954774 -75.14 0.297322 -165.6
8.83640000 0.297324 -164.7 0.954773 -75.15 0.954773 -75.15 0.297324 -165.6
8.83660000 0.297326 -164.7 0.954773 -75.15 0.954773 -75.15 0.297326 -165.6
8.83680000 0.297328 -164.7 0.954772 -75.15 0.954772 -75.15 0.297328 -165.6
8.83700000 0.297330 -164.7 0.954771 -75.15 0.954771 -75.15 0.297329 -165.6
8.83720000 0.297332 -164.7 0.954771 -75.15 0.954771 -75.15 0.297331 -165.6
8.83740000 0.297334 -164.7 0.954770 -75.16 0.954770 -75.16 0.297333 -165.6
8.83760000 0.297336 -164.7 0.954770 -75.16 0.954770 -75.16 0.297335 -165.6
8.83780000 0.297338 -164.7 0.954769 -75.16 0.954769 -75.16 0.297337 -165.6
8.83800000 0.297340 -164.7 0.954768 -75.16 0.954768 -75.16 0.297339 -165.6
8.83820000 0.297342 -164.7 0.954768 -75.16 0.954768 -75.16 0.297341 -165.6
8.83840000 0.297344 -164.7 0.954767 -75.16 0.954767 -75.16 0.297343 -165.6
8.83860000 0.297346 -164.7 0.954766 -75.17 0.954766 -75.17 0.297345 -165.6
8.83880000 0.297348 -164.7 0.954766 -75.17 0.954766 -75.17 0.297347 -165.6
8.83900000 0.297350 -164.7 0.954765 -75.17 0.954765 -75.17 0.297349 -165.6
8.83920000 0.297352 -164.7 0.954765 -75.17 0.954765 -75.17 0.297351 -165.6
8.83940000 0.297354 -164.7 0.954764 -75.17 0.954764 -75.17 0.297353 -165.6
8.83960000 0.297356 -164.7 0.954763 -75.17 0.954763 -75.17 0.297355 -165.6
8.83980000 0.297358 -164.7 0.954763 -75.18 0.954763 -75.18 0.297357 -165.6
8.84000000 0.297360 -164.7 0.954762 -75.18 0.954762 -75.18 0.297359 -165.6
8.84020000 0.297362 -164.7 0.954762 -75.18 0.954762 -75.18 0.297361 -165.6
8.84040000 0.297363 -164.7 0.954761 -75.18 0.954761 -75.18 0.297363 -165.6
8.84060000 0.297365 -164.7 0.954760 -75.18 0.954760 -75.18 0.297365 -165.6
8.84080000 0.297367 -164.7 0.954760 -75.19 0.954760 -75.19 0.297367 -165.6
8.84100000 0.297369 -164.7 0.954759 -75.19 0.954759 -75.19 0.297369 -165.7
8.84120000 0.297371 -164.7 0.954759 -75.19 0.954759 -75.19 0.297371 -165.7
8.84140000 0.297373 -164.7 0.954758 -75.19 0.954758 -75.19 0.297373 -165.7
8.84160000 0.297375 -164.7 0.954757 -75.19 0.954757 -75.19 0.297375 -165.7
8.84180000 0.297377 -164.7 0.954757 -75.19 0.954757 -75.19 0.297377 -165.7
8.84200000 0.297379 -164.7 0.954756 -75.20 0.954756 -75.20 0.297378 -165.7
8.84220000 0.297381 -164.7 0.954756 -75.20 0.954756 -75.20 0.297380 -165.7
8.84240000 0.297383 -164.7 0.954755 -75.20 0.954755 -75.20 0.297382 -165.7
8.84260000 0.297385 -164.7 0.954754 -75.20 0.954754 -75.20 0.297384 -165.7
8.84280000 0.297387 -164.7 0.954754 -75.20 0.954754 -75.20 0.297386 -165.7
8.84300000 0.297389 -164.7 0.954753 -75.21 0.954753 -75.21 0.297388 -165.7
8.84320000 0.297391 -164.7 0.954753 -75.21 0.954753 -75.21 0.297390 -165.7
8.84340000 0.297392 -164.7 0.954752 -75.21 0.954752 -75.21 0.297392 -165.7
8.84360000 0.297394 -164.7 0.954751 -75.21 0.954751 -75.21 0.297394 -165.7
8.84380000 0.297396 -164.7 0.954751 -75.21 0.954751 -75.21 0.297396 -165.7
8.84400000 0.297398 -164.7 0.954750 -75.21 0.954750 -75.21 0.297398 -165.7
8.84420000 0.297400 -164.7 0.954750 -75.22 0.954750 -75.22 0.297399 -165.7
8.84440000 0.297402 -164.7 0.954749 -75.22 0.954749 -75.22 0.297401 -165.7
8.84460000 0.297404 -164.7 0.954748 -75.22 0.954748 -75.22 0.297403 -165.7
8.84480000 0.297406 -164.7 0.954748 -75.22 0.954748 -75.22 0.297405 -165.7
8.84500000 0.297408 -164.8 0.954747 -75.22 0.954747 -75.22 0.297407 -165.7
8.84520000 0.297409 -164.8 0.954747 -75.23 0.954747 -75.23 0.297409 -165.7
8.84540000 0.297411 -164.8 0.954746 -75.23 0.954746 -75.23 0.297411 -165.7
8.84560000 0.297413 -164.8 0.954745 -75.23 0.954745 -75.23 0.297413 -165.7
8.84580000 0.297415 -164.8 0.954745 -75.23 0.954745 -75.23 0.297415 -165.7
8.84600000 0.297417 -164.8 0.954744 -75.23 0.954744 -75.23 0.297416 -165.7
8.84620000 0.297419 -164.8 0.954744 -75.23 0.954744 -75.23 0.297418 -165.7
8.84640000 0.297421 -164.8 0.954743 -75.24 0.954743 -75.24 0.297420 -165.7
8.84660000 0.297423 -164.8 0.954743 -75.24 0.954743 -75.24 0.297422 -165.7
8.84680000 0.297424 -164.8 0.954742 -75.24 0.954742 -75.24 0.297424 -165.7
8.84700000 0.297426 -164.8 0.954741 -75.24 0.954741 -75.24 0.297426 -165.7
8.84720000 0.297428 -164.8 0.954741 -75.24 0.954741 -75.24 0.297428 -165.7
8.84740000 0.297430 -164.8 0.954740 -75.25 0.954740 -75.25 0.297429 -165.7
8.84760000 0.297432 -164.8 0.954740 -75.25 0.954740 -75.25 0.297431 -165.7
8.84780000 0.297434 -164.8 0.954739 -75.25 0.954739 -75.25 0.297433 -165.7
8.84800000 0.297436 -164.8 0.954739 -75.25 0.954739 -75.25 0.297435 -165.7
8.84820000 0.297437 -164.8 0.954738 -75.25 0.954738 -75.25 0.297437 -165.7
8.84840000 0.297439 -164.8 0.954737 -75.25 0.954737 -75.25 0.297439 -165.7
8.84860000 0.297441 -164.8 0.954737 -75.26 0.954737 -75.26 0.297440 -165.7
8.84880000 0.297443 -164.8 0.954736 -75.26 0.954736 -75.26 0.297442 -165.7
8.84900000 0.297445 -164.8 0.954736 -75.26 0.954736 -75.26 0.297444 -165.7
8.84920000 0.297446 -164.8 0.954735 -75.26 0.954735 -75.26 0.297446 -165.7
8.84940000 0.297448 -164.8 0.954735 -75.26 0.954735 -75.26 0.297448 -165.7
8.84960000 0.297450 -164.8 0.954734 -75.27 0.954734 -75.27 0.297449 -165.8
8.84980000 0.297452 -164.8 0.954733 -75.27 0.954733 -75.27 0.297451 -165.8
8.85000000 0.297454 -164.8 0.954733 -75.27 0.954733 -75.27 0.297453 -165.8
8.85020000 0.297456 -164.8 0.954732 -75.27 0.954732 -75.27 0.297455 -165.8
8.85040000 0.297457 -164.8 0.954732 -75.27 0.954732 -75.27 0.297457 -165.8
8.85060000 0.297459 -164.8 0.954731 -75.27 0.954731 -75.27 0.297458 -165.8
8.85080000 0.297461 -164.8 0.954731 -75.28 0.954731 -75.28 0.297460 -165.8
8.85100000 0.297463 -164.8 0.954730 -75.28 0.954730 -75.28 0.297462 -165.8
8.85120000 0.297464 -164.8 0.954729 -75.28 0.954729 -75.28 0.297464 -165.8
8.85140000 0.297466 -164.8 0.954729 -75.28 0.954729 -75.28 0.297466 -165.8
8.85160000 0.297468 -164.8 0.954728 -75.28 0.954728 -75.28 0.297467 -165.8
8.85180000 0.297470 -164.8 0.954728 -75.29 0.954728 -75.29 0.297469 -165.8
8.85200000 0.297472 -164.8 0.954727 -75.29 0.954727 -75.29 0.297471 -165.8
8.85220000 0.297473 -164.8 0.954727 -75.29 0.954727 -75.29 0.297473 -165.8
8.85240000 0.297475 -164.8 0.954726 -75.29 0.954726 -75.29 0.297474 -165.8
8.85260000 0.297477 -164.8 0.954726 -75.29 0.954726 -75.29 0.297476 -165.8
8.85280000 0.297479 -164.8 0.954725 -75.29 0.954725 -75.29 0.297478 -165.8
8.85300000 0.297480 -164.8 0.954725 -75.30 0.954725 -75.30 0.297480 -165.8
8.85320000 0.297482 -164.8 0.954724 -75.30 0.954724 -75.30 0.297481 -165.8
8.85340000 0.297484 -164.8 0.954723 -75.30 0.954723 -75.30 0.297483 -165.8
8.85360000 0.297486 -164.8 0.954723 -75.30 0.954723 -75.30 0.297485 -165.8
8.85380000 0.297487 -164.8 0.954722 -75.30 0.954722 -75.30 0.297487 -165.8
8.85400000 0.297489 -164.8 0.954722 -75.31 0.954722 -75.31 0.297488 -165.8
8.85420000 0.297491 -164.8 0.954721 -75.31 0.954721 -75.31 0.297490 -165.8
8.85440000 0.297492 -164.8 0.954721 -75.31 0.954721 -75.31 0.297492 -165.8
8.85460000 0.297494 -164.8 0.954720 -75.31 0.954720 -75.31 0.297493 -165.8
8.85480000 0.297496 -164.8 0.954720 -75.31 0.954720 -75.31 0.297495 -165.8
8.85500000 0.297498 -164.8 0.954719 -75.31 0.954719 -75.31 0.297497 -165.8
8.85520000 0.297499 -164.8 0.954719 -75.32 0.954719 -75.32 0.297499 -165.8
8.85540000 0.297501 -164.8 0.954718 -75.32 0.954718 -75.32 0.297500 -165.8
8.85560000 0.297503 -164.8 0.954718 -75.32 0.954718 -75.32 0.297502 -165.8
8.85580000 0.297504 -164.8 0.954717 -75.32 0.954717 -75.32 0.297504 -165.8
8.85600000 0.297506 -164.8 0.954716 -75.32 0.954716 -75.32 0.297505 -165.8
8.85620000 0.297508 -164.8 0.954716 -75.33 0.954716 -75.33 0.297507 -165.8
8.85640000 0.297509 -164.8 0.954715 -75.33 0.954715 -75.33 0.297509 -165.8
8.85660000 0.297511 -164.8 0.954715 -75.33 0.954715 -75.33 0.297510 -165.8
8.85680000 0.297513 -164.8 0.954714 -75.33 0.954714 -75.33 0.297512 -165.8
8.85700000 0.297514 -164.8 0.954714 -75.33 0.954714 -75.33 0.297514 -165.8
8.85720000 0.297516 -164.8 0.954713 -75.34 0.954713 -75.34 0.297515 -165.8
8.85740000 0.297518 -164.8 0.954713 -75.34 0.954713 -75.34 0.297517 -165.9
8.85760000 0.297519 -164.8 0.954712 -75.34 0.954712 -75.34 0.297519 -165.9
8.85780000 0.297521 -164.8 0.954712 -75.34 0.954712 -75.34 0.297520 -165.9
8.85800000 0.297523 -164.8 0.954711 -75.34 0.954711 -75.34 0.297522 -165.9
8.85820000 0.297524 -164.8 0.954711 -75.34 0.954711 -75.34 0.297523 -165.9
8.85840000 0.297526 -164.8 0.954710 -75.35 0.954710 -75.35 0.297525 -165.9
8.85860000 0.297528 -164.8 0.954710 -75.35 0.954710 -75.35 0.297527 -165.9
8.85880000 0.297529 -164.8 0.954709 -75.35 0.954709 -75.35 0.297528 -165.9
8.85900000 0.297531 -164.8 0.954709 -75.35 0.954709 -75.35 0.297530 -165.9
8.85920000 0.297532 -164.8 0.954708 -75.35 0.954708 -75.35 0.297531 -165.9
8.85940000 0.297534 -164.8 0.954708 -75.36 0.954708 -75.36 0.297533 -165.9
8.85960000 0.297536 -164.8 0.954707 -75.36 0.954707 -75.36 0.297535 -165.9
8.85980000 0.297537 -164.8 0.954707 -75.36 0.954707 -75.36 0.297536 -165.9
8.86000000 0.297539 -164.8 0.954706 -75.36 0.954706 -75.36 0.297538 -165.9
8.86020000 0.297540 -164.8 0.954706 -75.36 0.954706 -75.36 0.297539 -165.9
8.86040000 0.297542 -164.8 0.954705 -75.37 0.954705 -75.37 0.297541 -165.9
8.86060000 0.297543 -164.8 0.954705 -75.37 0.954705 -75.37 0.297543 -165.9
8.86080000 0.297545 -164.8 0.954704 -75.37 0.954704 -75.37 0.297544 -165.9
8.86100000 0.297547 -164.8 0.954704 -75.37 0.954704 -75.37 0.297546 -165.9
8.86120000 0.297548 -164.8 0.954703 -75.37 0.954703 -75.37 0.297547 -165.9
8.86140000 0.297550 -164.8 0.954703 -75.37 0.954703 -75.37 0.297549 -165.9
8.86160000 0.297551 -164.8 0.954702 -75.38 0.954702 -75.38 0.297550 -165.9
8.86180000 0.297553 -164.8 0.954702 -75.38 0.954702 -75.38 0.297552 -165.9
8.86200000 0.297554 -164.8 0.954701 -75.38 0.954701 -75.38 0.297553 -165.9
8.86220000 0.297556 -164.8 0.954701 -75.38 0.954701 -75.38 0.297555 -165.9
8.86240000 0.297557 -164.9 0.954700 -75.38 0.954700 -75.38 0.297556 -165.9
8.86260000 0.297559 -164.9 0.954700 -75.39 0.954700 -75.39 0.297558 -165.9
8.86280000 0.297560 -164.9 0.954700 -75.39 0.954700 -75.39 0.297559 -165.9
8.86300000 0.297562 -164.9 0.954699 -75.39 0.954699 -75.39 0.297561 -165.9
8.86320000 0.297563 -164.9 0.954699 -75.39 0.954699 -75.39 0.297562 -165.9
8.86340000 0.297565 -164.9 0.954698 -75.39 0.954698 -75.39 0.297564 -165.9
8.86360000 0.297566 -164.9 0.954698 -75.40 0.954698 -75.40 0.297565 -165.9
8.86380000 0.297568 -164.9 0.954697 -75.40 0.954697 -75.40 0.297567 -165.9
8.86400000 0.297569 -164.9 0.954697 -75.40 0.954697 -75.40 0.297568 -165.9
8.86420000 0.297571 -164.9 0.954696 -75.40 0.954696 -75.40 0.297570 -165.9
8.86440000 0.297572 -164.9 0.954696 -75.40 0.954696 -75.40 0.297571 -165.9
8.86460000 0.297574 -164.9 0.954695 -75.41 0.954695 -75.41 0.297573 -165.9
8.86480000 0.297575 -164.9 0.954695 -75.41 0.954695 -75.41 0.297574 -166.0
8.86500000 0.297576 -164.9 0.954694 -75.41 0.954694 -75.41 0.297575 -166.0
8.86520000 0.297578 -164.9 0.954694 -75.41 0.954694 -75.41 0.297577 -166.0
8.86540000 0.297579 -164.9 0.954694 -75.41 0.954694 -75.41 0.297578 -166.0
8.86560000 0.297581 -164.9 0.954693 -75.41 0.954693 -75.41 0.297580 -166.0
8.86580000 0.297582 -164.9 0.954693 -75.42 0.954693 -75.42 0.297581 -166.0
8.86600000 0.297583 -164.9 0.954692 -75.42 0.954692 -75.42 0.297582 -166.0
8.86620000 0.297585 -164.9 0.954692 -75.42 0.954692 -75.42 0.297584 -166.0
8.86640000 0.297586 -164.9 0.954691 -75.42 0.954691 -75.42 0.297585 -166.0
8.86660000 0.297588 -164.9 0.954691 -75.42 0.954691 -75.42 0.297587 -166.0
8.86680000 0.297589 -164.9 0.954691 -75.43 0.954691 -75.43 0.297588 -166.0
8.86700000 0.297590 -164.9 0.954690 -75.43 0.954690 -75.43 0.297589 -166.0
8.86720000 0.297592 -164.9 0.954690 -75.43 0.954690 -75.43 0.297591 -166.0
8.86740000 0.297593 -164.9 0.954689 -75.43 0.954689 -75.43 0.297592 -166.0
8.86760000 0.297594 -164.9 0.954689 -75.43 0.954689 -75.43 0.297593 -166.0
8.86780000 0.297596 -164.9 0.954688 -75.44 0.954688 -75.44 0.297595 -166.0
8.86800000 0.297597 -164.9 0.954688 -75.44 0.954688 -75.44 0.297596 -166.0
8.86820000 0.297598 -164.9 0.954688 -75.44 0.954688 -75.44 0.297597 -166.0
8.86840000 0.297600 -164.9 0.954687 -75.44 0.954687 -75.44 0.297598 -166.0
8.86860000 0.297601 -164.9 0.954687 -75.44 0.954687 -75.44 0.297600 -166.0
8.86880000 0.297602 -164.9 0.954686 -75.45 0.954686 -75.45 0.297601 -166.0
8.86900000 0.297604 -164.9 0.954686 -75.45 0.954686 -75.45 0.297602 -166.0
8.86920000 0.297605 -164.9 0.954686 -75.45 0.954686 -75.45 0.297604 -166.0
8.86940000 0.297606 -164.9 0.954685 -75.45 0.954685 -75.45 0.297605 -166.0
8.86960000 0.297607 -164.9 0.954685 -75.45 0.954685 -75.45 0.297606 -166.0
8.86980000 0.297609 -164.9 0.954684 -75.46 0.954684 -75.46 0.297607 -166.0
8.87000000 0.297610 -164.9 0.954684 -75.46 0.954684 -75.46 0.297609 -166.0
8.87020000 0.297611 -164.9 0.954684 -75.46 0.954684 -75.46 0.297610 -166.0
8.87040000 0.297612 -164.9 0.954683 -75.46 0.954683 -75.46 0.297611 -166.0
8.87060000 0.297613 -164.9 0.954683 -75.46 0.954683 -75.46 0.297612 -166.0
8.87080000 0.297615 -164.9 0.954682 -75.47 0.954682 -75.47 0.297613 -166.0
8.87100000 0.297616 -164.9 0.954682 -75.47 0.954682 -75.47 0.297615 -166.0
8.87120000 0.297617 -164.9 0.954682 -75.47 0.954682 -75.47 0.297616 -166.1
8.87140000 0.297618 -164.9 0.954681 -75.47 0.954681 -75.47 0.297617 -166.1
8.87160000 0.297619 -164.9 0.954681 -75.47 0.954681 -75.47 0.297618 -166.1
8.87180000 0.297621 -164.9 0.954681 -75.48 0.954681 -75.48 0.297619 -166.1
8.87200000 0.297622 -164.9 0.954680 -75.48 0.954680 -75.48 0.297620 -166.1
8.87220000 0.297623 -164.9 0.954680 -75.48 0.954680 -75.48 0.297621 -166.1
8.87240000 0.297624 -164.9 0.954680 -75.48 0.954680 -75.48 0.297623 -166.1
8.87260000 0.297625 -164.9 0.954679 -75.48 0.954679 -75.48 0.297624 -166.1
8.87280000 0.297626 -164.9 0.954679 -75.49 0.954679 -75.49 0.297625 -166.1
8.87300000 0.297627 -164.9 0.954679 -75.49 0.954679 -75.49 0.297626 -166.1
8.87320000 0.297628 -164.9 0.954678 -75.49 0.954678 -75.49 0.297627 -166.1
8.87340000 0.297629 -164.9 0.954678 -75.49 0.954678 -75.49 0.297628 -166.1
8.87360000 0.297630 -164.9 0.954677 -75.49 0.954677 -75.49 0.297629 -166.1
8.87380000 0.297632 -164.9 0.954677 -75.50 0.954677 -75.50 0.297630 -166.1
8.87400000 0.297633 -164.9 0.954677 -75.50 0.954677 -75.50 0.297631 -166.1
8.87420000 0.297634 -164.9 0.954677 -75.50 0.954677 -75.50 0.297632 -166.1
8.87440000 0.297635 -164.9 0.954676 -75.50 0.954676 -75.50 0.297633 -166.1
8.87460000 0.297636 -164.9 0.954676 -75.50 0.954676 -75.50 0.297634 -166.1
8.87480000 0.297637 -164.9 0.954676 -75.51 0.954676 -75.51 0.297635 -166.1
8.87500000 0.297638 -164.9 0.954675 -75.51 0.954675 -75.51 0.297636 -166.1
8.87520000 0.297639 -164.9 0.954675 -75.51 0.954675 -75.51 0.297637 -166.1
8.87540000 0.297640 -164.9 0.954675 -75.51 0.954675 -75.51 0.297638 -166.1
8.87560000 0.297640 -164.9 0.954674 -75.52 0.954674 -75.52 0.297639 -166.1
8.87580000 0.297641 -164.9 0.954674 -75.52 0.954674 -75.52 0.297640 -166.1
8.87600000 0.297642 -164.9 0.954674 -75.52 0.954674 -75.52 0.297641 -166.1
8.87620000 0.297643 -164.9 0.954673 -75.52 0.954673 -75.52 0.297642 -166.1
8.87640000 0.297644 -164.9 0.954673 -75.52 0.954673 -75.52 0.297643 -166.1
8.87660000 0.297645 -164.9 0.954673 -75.53 0.954673 -75.53 0.297643 -166.1
8.87680000 0.297646 -164.9 0.954673 -75.53 0.954673 -75.53 0.297644 -166.1
8.87700000 0.297647 -164.9 0.954672 -75.53 0.954672 -75.53 0.297645 -166.1
8.87720000 0.297648 -164.9 0.954672 -75.53 0.954672 -75.53 0.297646 -166.2
8.87740000 0.297648 -164.9 0.954672 -75.53 0.954672 -75.53 0.297647 -166.2
8.87760000 0.297649 -164.9 0.954672 -75.54 0.954672 -75.54 0.297648 -166.2
8.87780000 0.297650 -164.9 0.954671 -75.54 0.954671 -75.54 0.297648 -166.2
8.87800000 0.297651 -164.9 0.954671 -75.54 0.954671 -75.54 0.297649 -166.2
8.87820000 0.297652 -164.9 0.954671 -75.54 0.954671 -75.54 0.297650 -166.2
8.87840000 0.297652 -164.9 0.954671 -75.54 0.954671 -75.54 0.297651 -166.2