! Sonnet Data File
! From: emgraph Version : 16.52
! From Emgraph Data: Resonator2
! Data File Written: 10/04/2017 23:02:09
!< HDATE 10/04/2017 20:26:48
!< MDATE 10/04/2017 20:26:48
!< PARAMS
!< gap = 6.0
!< Length = 400.0
!< Pwid1 = 1500.0
!< END PARAMS
# GHZ S MA R 37.90000
8.80000000 0.064187 -3.163 0.997930 -78.55 0.997930 -78.55 0.064190 26.058
!< P1 F=8.8 Eeff=(5.57630778 -2.4821e-5) Z0=(37.9068886 8.51285e-5) R=0.0 C=0.0 
!< P2 F=8.8 Eeff=(5.57630778 -2.4821e-5) Z0=(37.9068886 8.51285e-5) R=0.0 C=0.0 
8.80020000 0.064235 -3.176 0.997927 -78.55 0.997927 -78.55 0.064238 26.062
8.80040000 0.064282 -3.189 0.997924 -78.56 0.997924 -78.56 0.064285 26.067
8.80060000 0.064330 -3.203 0.997921 -78.56 0.997921 -78.56 0.064333 26.071
8.80080000 0.064378 -3.216 0.997918 -78.57 0.997918 -78.57 0.064381 26.075
8.80100000 0.064426 -3.229 0.997914 -78.57 0.997914 -78.57 0.064429 26.079
8.80120000 0.064474 -3.243 0.997911 -78.58 0.997911 -78.58 0.064477 26.084
8.80140000 0.064523 -3.256 0.997908 -78.58 0.997908 -78.58 0.064526 26.088
8.80160000 0.064571 -3.270 0.997905 -78.59 0.997905 -78.59 0.064575 26.092
8.80180000 0.064620 -3.283 0.997902 -78.59 0.997902 -78.59 0.064624 26.096
8.80200000 0.064670 -3.297 0.997899 -78.60 0.997899 -78.60 0.064673 26.101
8.80220000 0.064719 -3.310 0.997895 -78.60 0.997895 -78.60 0.064722 26.105
8.80240000 0.064768 -3.324 0.997892 -78.60 0.997892 -78.60 0.064772 26.109
8.80260000 0.064818 -3.338 0.997889 -78.61 0.997889 -78.61 0.064821 26.114
8.80280000 0.064868 -3.351 0.997886 -78.61 0.997886 -78.61 0.064871 26.118
8.80300000 0.064918 -3.365 0.997882 -78.62 0.997882 -78.62 0.064922 26.122
8.80320000 0.064969 -3.379 0.997879 -78.62 0.997879 -78.62 0.064972 26.127
8.80340000 0.065019 -3.393 0.997876 -78.63 0.997876 -78.63 0.065023 26.131
8.80360000 0.065070 -3.407 0.997872 -78.63 0.997872 -78.63 0.065073 26.136
8.80380000 0.065121 -3.421 0.997869 -78.64 0.997869 -78.64 0.065125 26.140
8.80400000 0.065173 -3.435 0.997866 -78.64 0.997866 -78.64 0.065176 26.145
8.80420000 0.065224 -3.449 0.997862 -78.65 0.997862 -78.65 0.065227 26.149
8.80440000 0.065276 -3.463 0.997859 -78.65 0.997859 -78.65 0.065279 26.153
8.80460000 0.065328 -3.477 0.997855 -78.66 0.997855 -78.66 0.065331 26.158
8.80480000 0.065380 -3.491 0.997852 -78.66 0.997852 -78.66 0.065383 26.162
8.80500000 0.065432 -3.505 0.997849 -78.67 0.997849 -78.67 0.065436 26.167
8.80520000 0.065485 -3.519 0.997845 -78.67 0.997845 -78.67 0.065488 26.171
8.80540000 0.065538 -3.533 0.997842 -78.68 0.997842 -78.68 0.065541 26.176
8.80560000 0.065591 -3.548 0.997838 -78.68 0.997838 -78.68 0.065594 26.180
8.80580000 0.065644 -3.562 0.997835 -78.69 0.997835 -78.69 0.065648 26.185
8.80600000 0.065698 -3.576 0.997831 -78.69 0.997831 -78.69 0.065701 26.190
8.80620000 0.065752 -3.591 0.997827 -78.70 0.997827 -78.70 0.065755 26.194
8.80640000 0.065806 -3.605 0.997824 -78.70 0.997824 -78.70 0.065809 26.199
8.80660000 0.065860 -3.619 0.997820 -78.71 0.997820 -78.71 0.065863 26.203
8.80680000 0.065915 -3.634 0.997817 -78.71 0.997817 -78.71 0.065918 26.208
8.80700000 0.065969 -3.648 0.997813 -78.71 0.997813 -78.71 0.065973 26.213
8.80720000 0.066024 -3.663 0.997809 -78.72 0.997809 -78.72 0.066028 26.217
8.80740000 0.066080 -3.678 0.997806 -78.72 0.997806 -78.72 0.066083 26.222
8.80760000 0.066135 -3.692 0.997802 -78.73 0.997802 -78.73 0.066139 26.227
8.80780000 0.066191 -3.707 0.997798 -78.73 0.997798 -78.73 0.066194 26.231
8.80800000 0.066247 -3.722 0.997794 -78.74 0.997794 -78.74 0.066250 26.236
8.80820000 0.066303 -3.737 0.997791 -78.74 0.997791 -78.74 0.066307 26.241
8.80840000 0.066360 -3.751 0.997787 -78.75 0.997787 -78.75 0.066363 26.245
8.80860000 0.066417 -3.766 0.997783 -78.75 0.997783 -78.75 0.066420 26.250
8.80880000 0.066474 -3.781 0.997779 -78.76 0.997779 -78.76 0.066477 26.255
8.80900000 0.066531 -3.796 0.997775 -78.77 0.997775 -78.77 0.066534 26.260
8.80920000 0.066589 -3.811 0.997771 -78.77 0.997771 -78.77 0.066592 26.264
8.80940000 0.066646 -3.826 0.997768 -78.78 0.997768 -78.78 0.066650 26.269
8.80960000 0.066705 -3.841 0.997764 -78.78 0.997764 -78.78 0.066708 26.274
8.80980000 0.066763 -3.857 0.997760 -78.79 0.997760 -78.79 0.066766 26.279
8.81000000 0.066822 -3.872 0.997756 -78.79 0.997756 -78.79 0.066825 26.283
8.81020000 0.066881 -3.887 0.997752 -78.80 0.997752 -78.80 0.066884 26.288
8.81040000 0.066940 -3.902 0.997748 -78.80 0.997748 -78.80 0.066943 26.293
8.81060000 0.066999 -3.918 0.997744 -78.81 0.997744 -78.81 0.067003 26.298
8.81080000 0.067059 -3.933 0.997740 -78.81 0.997740 -78.81 0.067063 26.303
8.81100000 0.067119 -3.948 0.997736 -78.82 0.997736 -78.82 0.067123 26.308
8.81120000 0.067179 -3.964 0.997732 -78.82 0.997732 -78.82 0.067183 26.313
8.81140000 0.067240 -3.979 0.997727 -78.83 0.997727 -78.83 0.067244 26.318
8.81160000 0.067301 -3.995 0.997723 -78.83 0.997723 -78.83 0.067304 26.322
8.81180000 0.067362 -4.011 0.997719 -78.84 0.997719 -78.84 0.067366 26.327
8.81200000 0.067423 -4.026 0.997715 -78.84 0.997715 -78.84 0.067427 26.332
8.81220000 0.067485 -4.042 0.997711 -78.85 0.997711 -78.85 0.067489 26.337
8.81240000 0.067547 -4.058 0.997707 -78.85 0.997707 -78.85 0.067551 26.342
8.81260000 0.067610 -4.073 0.997702 -78.86 0.997702 -78.86 0.067613 26.347
8.81280000 0.067672 -4.089 0.997698 -78.86 0.997698 -78.86 0.067676 26.352
8.81300000 0.067735 -4.105 0.997694 -78.87 0.997694 -78.87 0.067739 26.357
8.81320000 0.067799 -4.121 0.997689 -78.88 0.997689 -78.88 0.067802 26.362
8.81340000 0.067862 -4.137 0.997685 -78.88 0.997685 -78.88 0.067866 26.367
8.81360000 0.067926 -4.153 0.997681 -78.89 0.997681 -78.89 0.067930 26.372
8.81380000 0.067990 -4.169 0.997676 -78.89 0.997676 -78.89 0.067994 26.378
8.81400000 0.068055 -4.185 0.997672 -78.90 0.997672 -78.90 0.068058 26.383
8.81420000 0.068120 -4.202 0.997667 -78.90 0.997667 -78.90 0.068123 26.388
8.81440000 0.068185 -4.218 0.997663 -78.91 0.997663 -78.91 0.068188 26.393
8.81460000 0.068250 -4.234 0.997658 -78.91 0.997658 -78.91 0.068254 26.398
8.81480000 0.068316 -4.250 0.997654 -78.92 0.997654 -78.92 0.068320 26.403
8.81500000 0.068382 -4.267 0.997649 -78.93 0.997649 -78.93 0.068386 26.408
8.81520000 0.068448 -4.283 0.997645 -78.93 0.997645 -78.93 0.068452 26.413
8.81540000 0.068515 -4.300 0.997640 -78.94 0.997640 -78.94 0.068519 26.419
8.81560000 0.068582 -4.316 0.997635 -78.94 0.997635 -78.94 0.068586 26.424
8.81580000 0.068650 -4.333 0.997631 -78.95 0.997631 -78.95 0.068654 26.429
8.81600000 0.068717 -4.350 0.997626 -78.95 0.997626 -78.95 0.068721 26.434
8.81620000 0.068786 -4.366 0.997621 -78.96 0.997621 -78.96 0.068789 26.439
8.81640000 0.068854 -4.383 0.997617 -78.97 0.997617 -78.97 0.068858 26.445
8.81660000 0.068923 -4.400 0.997612 -78.97 0.997612 -78.97 0.068927 26.450
8.81680000 0.068992 -4.417 0.997607 -78.98 0.997607 -78.98 0.068996 26.455
8.81700000 0.069061 -4.434 0.997602 -78.98 0.997602 -78.98 0.069065 26.460
8.81720000 0.069131 -4.451 0.997597 -78.99 0.997597 -78.99 0.069135 26.466
8.81740000 0.069201 -4.468 0.997592 -78.99 0.997592 -78.99 0.069205 26.471
8.81760000 0.069272 -4.485 0.997587 -79.00 0.997587 -79.00 0.069276 26.476
8.81780000 0.069343 -4.502 0.997582 -79.01 0.997582 -79.01 0.069347 26.482
8.81800000 0.069414 -4.519 0.997577 -79.01 0.997577 -79.01 0.069418 26.487
8.81820000 0.069486 -4.536 0.997572 -79.02 0.997572 -79.02 0.069490 26.492
8.81840000 0.069558 -4.554 0.997567 -79.02 0.997567 -79.02 0.069562 26.498
8.81860000 0.069630 -4.571 0.997562 -79.03 0.997562 -79.03 0.069634 26.503
8.81880000 0.069703 -4.589 0.997557 -79.04 0.997557 -79.04 0.069707 26.509
8.81900000 0.069776 -4.606 0.997552 -79.04 0.997552 -79.04 0.069780 26.514
8.81920000 0.069850 -4.624 0.997547 -79.05 0.997547 -79.05 0.069854 26.519
8.81940000 0.069924 -4.641 0.997542 -79.05 0.997542 -79.05 0.069928 26.525
8.81960000 0.069998 -4.659 0.997536 -79.06 0.997536 -79.06 0.070002 26.530
8.81980000 0.070073 -4.677 0.997531 -79.07 0.997531 -79.07 0.070077 26.536
8.82000000 0.070148 -4.694 0.997526 -79.07 0.997526 -79.07 0.070152 26.541
8.82020000 0.070223 -4.712 0.997520 -79.08 0.997520 -79.08 0.070227 26.547
8.82040000 0.070299 -4.730 0.997515 -79.08 0.997515 -79.08 0.070303 26.552
8.82060000 0.070375 -4.748 0.997510 -79.09 0.997510 -79.09 0.070380 26.558
8.82080000 0.070452 -4.766 0.997504 -79.10 0.997504 -79.10 0.070456 26.563
8.82100000 0.070529 -4.784 0.997499 -79.10 0.997499 -79.10 0.070533 26.569
8.82120000 0.070607 -4.802 0.997493 -79.11 0.997493 -79.11 0.070611 26.574
8.82140000 0.070685 -4.821 0.997488 -79.12 0.997488 -79.12 0.070689 26.580
8.82160000 0.070763 -4.839 0.997482 -79.12 0.997482 -79.12 0.070767 26.586
8.82180000 0.070842 -4.857 0.997476 -79.13 0.997476 -79.13 0.070846 26.591
8.82200000 0.070921 -4.876 0.997471 -79.13 0.997471 -79.13 0.070925 26.597
8.82220000 0.071001 -4.894 0.997465 -79.14 0.997465 -79.14 0.071005 26.602
8.82240000 0.071081 -4.913 0.997459 -79.15 0.997459 -79.15 0.071085 26.608
8.82260000 0.071161 -4.931 0.997453 -79.15 0.997453 -79.15 0.071165 26.614
8.82280000 0.071242 -4.950 0.997448 -79.16 0.997448 -79.16 0.071246 26.619
8.82300000 0.071324 -4.969 0.997442 -79.17 0.997442 -79.17 0.071328 26.625
8.82320000 0.071405 -4.987 0.997436 -79.17 0.997436 -79.17 0.071410 26.631
8.82340000 0.071488 -5.006 0.997430 -79.18 0.997430 -79.18 0.071492 26.637
8.82360000 0.071570 -5.025 0.997424 -79.19 0.997424 -79.19 0.071575 26.642
8.82380000 0.071654 -5.044 0.997418 -79.19 0.997418 -79.19 0.071658 26.648
8.82400000 0.071737 -5.063 0.997412 -79.20 0.997412 -79.20 0.071742 26.654
8.82420000 0.071821 -5.082 0.997406 -79.21 0.997406 -79.21 0.071826 26.660
8.82440000 0.071906 -5.101 0.997399 -79.21 0.997399 -79.21 0.071911 26.665
8.82460000 0.071991 -5.121 0.997393 -79.22 0.997393 -79.22 0.071996 26.671
8.82480000 0.072077 -5.140 0.997387 -79.23 0.997387 -79.23 0.072081 26.677
8.82500000 0.072163 -5.159 0.997381 -79.23 0.997381 -79.23 0.072167 26.683
8.82520000 0.072249 -5.179 0.997374 -79.24 0.997374 -79.24 0.072254 26.689
8.82540000 0.072336 -5.198 0.997368 -79.25 0.997368 -79.25 0.072341 26.694
8.82560000 0.072424 -5.218 0.997362 -79.25 0.997362 -79.25 0.072428 26.700
8.82580000 0.072512 -5.238 0.997355 -79.26 0.997355 -79.26 0.072516 26.706
8.82600000 0.072601 -5.258 0.997349 -79.27 0.997349 -79.27 0.072605 26.712
8.82620000 0.072690 -5.277 0.997342 -79.27 0.997342 -79.27 0.072694 26.718
8.82640000 0.072779 -5.297 0.997336 -79.28 0.997336 -79.28 0.072784 26.724
8.82660000 0.072869 -5.317 0.997329 -79.29 0.997329 -79.29 0.072874 26.730
8.82680000 0.072960 -5.337 0.997322 -79.30 0.997322 -79.30 0.072964 26.736
8.82700000 0.073051 -5.357 0.997316 -79.30 0.997316 -79.30 0.073056 26.742
8.82720000 0.073143 -5.378 0.997309 -79.31 0.997309 -79.31 0.073147 26.747
8.82740000 0.073235 -5.398 0.997302 -79.32 0.997302 -79.32 0.073239 26.753
8.82760000 0.073328 -5.418 0.997295 -79.32 0.997295 -79.32 0.073332 26.759
8.82780000 0.073421 -5.439 0.997288 -79.33 0.997288 -79.33 0.073426 26.765
8.82800000 0.073515 -5.459 0.997281 -79.34 0.997281 -79.34 0.073519 26.771
8.82820000 0.073609 -5.480 0.997274 -79.35 0.997274 -79.35 0.073614 26.777
8.82840000 0.073704 -5.500 0.997267 -79.35 0.997267 -79.35 0.073709 26.783
8.82860000 0.073800 -5.521 0.997260 -79.36 0.997260 -79.36 0.073804 26.789
8.82880000 0.073896 -5.542 0.997253 -79.37 0.997253 -79.37 0.073901 26.795
8.82900000 0.073992 -5.563 0.997246 -79.37 0.997246 -79.37 0.073997 26.802
8.82920000 0.074090 -5.584 0.997238 -79.38 0.997238 -79.38 0.074094 26.808
8.82940000 0.074188 -5.605 0.997231 -79.39 0.997231 -79.39 0.074192 26.814
8.82960000 0.074286 -5.626 0.997224 -79.40 0.997224 -79.40 0.074291 26.820
8.82980000 0.074385 -5.647 0.997216 -79.40 0.997216 -79.40 0.074390 26.826
8.83000000 0.074485 -5.668 0.997209 -79.41 0.997209 -79.41 0.074490 26.832
8.83020000 0.074585 -5.690 0.997201 -79.42 0.997201 -79.42 0.074590 26.838
8.83040000 0.074686 -5.711 0.997193 -79.43 0.997193 -79.43 0.074691 26.844
8.83060000 0.074787 -5.733 0.997186 -79.43 0.997186 -79.43 0.074792 26.850
8.83080000 0.074889 -5.754 0.997178 -79.44 0.997178 -79.44 0.074894 26.857
8.83100000 0.074992 -5.776 0.997170 -79.45 0.997170 -79.45 0.074997 26.863
8.83120000 0.075096 -5.798 0.997162 -79.46 0.997162 -79.46 0.075101 26.869
8.83140000 0.075200 -5.820 0.997155 -79.47 0.997155 -79.47 0.075205 26.875
8.83160000 0.075304 -5.842 0.997147 -79.47 0.997147 -79.47 0.075309 26.881
8.83180000 0.075410 -5.864 0.997139 -79.48 0.997139 -79.48 0.075415 26.888
8.83200000 0.075516 -5.886 0.997130 -79.49 0.997130 -79.49 0.075521 26.894
8.83220000 0.075622 -5.908 0.997122 -79.50 0.997122 -79.50 0.075627 26.900
8.83240000 0.075730 -5.931 0.997114 -79.51 0.997114 -79.51 0.075735 26.906
8.83260000 0.075838 -5.953 0.997106 -79.51 0.997106 -79.51 0.075843 26.913
8.83280000 0.075946 -5.975 0.997097 -79.52 0.997097 -79.52 0.075952 26.919
8.83300000 0.076056 -5.998 0.997089 -79.53 0.997089 -79.53 0.076061 26.925
8.83320000 0.076166 -6.021 0.997081 -79.54 0.997081 -79.54 0.076171 26.931
8.83340000 0.076277 -6.043 0.997072 -79.55 0.997072 -79.55 0.076282 26.938
8.83360000 0.076388 -6.066 0.997063 -79.55 0.997063 -79.55 0.076394 26.944
8.83380000 0.076501 -6.089 0.997055 -79.56 0.997055 -79.56 0.076506 26.950
8.83400000 0.076614 -6.112 0.997046 -79.57 0.997046 -79.57 0.076619 26.957
8.83420000 0.076727 -6.136 0.997037 -79.58 0.997037 -79.58 0.076733 26.963
8.83440000 0.076842 -6.159 0.997028 -79.59 0.997028 -79.59 0.076847 26.969
8.83460000 0.076957 -6.182 0.997019 -79.60 0.997019 -79.60 0.076962 26.976
8.83480000 0.077073 -6.206 0.997010 -79.60 0.997010 -79.60 0.077078 26.982
8.83500000 0.077190 -6.229 0.997001 -79.61 0.997001 -79.61 0.077195 26.988
8.83520000 0.077307 -6.253 0.996992 -79.62 0.996992 -79.62 0.077313 26.995
8.83540000 0.077426 -6.277 0.996983 -79.63 0.996983 -79.63 0.077431 27.001
8.83560000 0.077545 -6.300 0.996973 -79.64 0.996973 -79.64 0.077550 27.007
8.83580000 0.077665 -6.324 0.996964 -79.65 0.996964 -79.65 0.077670 27.014
8.83600000 0.077785 -6.348 0.996954 -79.66 0.996954 -79.66 0.077791 27.020
8.83620000 0.077907 -6.373 0.996945 -79.67 0.996945 -79.67 0.077912 27.027
8.83640000 0.078029 -6.397 0.996935 -79.67 0.996935 -79.67 0.078035 27.033
8.83660000 0.078152 -6.421 0.996925 -79.68 0.996925 -79.68 0.078158 27.040
8.83680000 0.078276 -6.446 0.996916 -79.69 0.996916 -79.69 0.078282 27.046
8.83700000 0.078401 -6.470 0.996906 -79.70 0.996906 -79.70 0.078407 27.052
8.83720000 0.078527 -6.495 0.996896 -79.71 0.996896 -79.71 0.078533 27.059
8.83740000 0.078654 -6.520 0.996886 -79.72 0.996886 -79.72 0.078659 27.065
8.83760000 0.078781 -6.545 0.996875 -79.73 0.996875 -79.73 0.078787 27.072
8.83780000 0.078909 -6.570 0.996865 -79.74 0.996865 -79.74 0.078915 27.078
8.83800000 0.079039 -6.595 0.996855 -79.75 0.996855 -79.75 0.079044 27.085
8.83820000 0.079169 -6.620 0.996844 -79.76 0.996844 -79.76 0.079175 27.091
8.83840000 0.079300 -6.645 0.996834 -79.77 0.996834 -79.77 0.079306 27.098
8.83860000 0.079432 -6.671 0.996823 -79.77 0.996823 -79.77 0.079438 27.104
8.83880000 0.079565 -6.696 0.996813 -79.78 0.996813 -79.78 0.079571 27.111
8.83900000 0.079699 -6.722 0.996802 -79.79 0.996802 -79.79 0.079704 27.117
8.83920000 0.079833 -6.748 0.996791 -79.80 0.996791 -79.80 0.079839 27.124
8.83940000 0.079969 -6.774 0.996780 -79.81 0.996780 -79.81 0.079975 27.130
8.83960000 0.080106 -6.800 0.996769 -79.82 0.996769 -79.82 0.080112 27.137
8.83980000 0.080244 -6.826 0.996758 -79.83 0.996758 -79.83 0.080250 27.143
8.84000000 0.080382 -6.852 0.996746 -79.84 0.996746 -79.84 0.080388 27.150
8.84020000 0.080522 -6.878 0.996735 -79.85 0.996735 -79.85 0.080528 27.156
8.84040000 0.080663 -6.905 0.996724 -79.86 0.996724 -79.86 0.080669 27.163
8.84060000 0.080804 -6.932 0.996712 -79.87 0.996712 -79.87 0.080811 27.169
8.84080000 0.080947 -6.958 0.996700 -79.88 0.996700 -79.88 0.080953 27.176
8.84100000 0.081091 -6.985 0.996689 -79.89 0.996689 -79.89 0.081097 27.182
8.84120000 0.081236 -7.012 0.996677 -79.90 0.996677 -79.90 0.081242 27.189
8.84140000 0.081382 -7.039 0.996665 -79.91 0.996665 -79.91 0.081388 27.195
8.84160000 0.081529 -7.067 0.996652 -79.92 0.996652 -79.92 0.081535 27.202
8.84180000 0.081677 -7.094 0.996640 -79.93 0.996640 -79.93 0.081683 27.208
8.84200000 0.081826 -7.121 0.996628 -79.94 0.996628 -79.94 0.081833 27.215
8.84220000 0.081977 -7.149 0.996615 -79.95 0.996615 -79.95 0.081983 27.222
8.84240000 0.082128 -7.177 0.996603 -79.96 0.996603 -79.96 0.082135 27.228
8.84260000 0.082281 -7.205 0.996590 -79.98 0.996590 -79.98 0.082287 27.235
8.84280000 0.082435 -7.233 0.996577 -79.99 0.996577 -79.99 0.082441 27.241
8.84300000 0.082590 -7.261 0.996564 -80.00 0.996564 -80.00 0.082596 27.248
8.84320000 0.082746 -7.289 0.996551 -80.01 0.996551 -80.01 0.082753 27.254
8.84340000 0.082904 -7.318 0.996538 -80.02 0.996538 -80.02 0.082910 27.261
8.84360000 0.083062 -7.346 0.996525 -80.03 0.996525 -80.03 0.083069 27.267
8.84380000 0.083222 -7.375 0.996511 -80.04 0.996511 -80.04 0.083228 27.274
8.84400000 0.083383 -7.404 0.996498 -80.05 0.996498 -80.05 0.083390 27.280
8.84420000 0.083545 -7.433 0.996484 -80.06 0.996484 -80.06 0.083552 27.287
8.84440000 0.083709 -7.462 0.996470 -80.07 0.996470 -80.07 0.083716 27.293
8.84460000 0.083874 -7.491 0.996456 -80.09 0.996456 -80.09 0.083881 27.300
8.84480000 0.084040 -7.521 0.996442 -80.10 0.996442 -80.10 0.084047 27.306
8.84500000 0.084208 -7.550 0.996428 -80.11 0.996428 -80.11 0.084214 27.313
8.84520000 0.084376 -7.580 0.996413 -80.12 0.996413 -80.12 0.084383 27.319
8.84540000 0.084547 -7.610 0.996399 -80.13 0.996399 -80.13 0.084553 27.326
8.84560000 0.084718 -7.640 0.996384 -80.14 0.996384 -80.14 0.084725 27.332
8.84580000 0.084891 -7.670 0.996369 -80.16 0.996369 -80.16 0.084898 27.339
8.84600000 0.085066 -7.701 0.996354 -80.17 0.996354 -80.17 0.085072 27.345
8.84620000 0.085241 -7.731 0.996339 -80.18 0.996339 -80.18 0.085248 27.351
8.84640000 0.085419 -7.762 0.996323 -80.19 0.996323 -80.19 0.085426 27.358
8.84660000 0.085597 -7.793 0.996308 -80.20 0.996308 -80.20 0.085604 27.364
8.84680000 0.085777 -7.824 0.996292 -80.22 0.996292 -80.22 0.085784 27.371
8.84700000 0.085959 -7.855 0.996276 -80.23 0.996276 -80.23 0.085966 27.377
8.84720000 0.086142 -7.886 0.996261 -80.24 0.996261 -80.24 0.086149 27.384
8.84740000 0.086327 -7.918 0.996244 -80.25 0.996244 -80.25 0.086334 27.390
8.84760000 0.086513 -7.949 0.996228 -80.27 0.996228 -80.27 0.086520 27.396
8.84780000 0.086701 -7.981 0.996212 -80.28 0.996212 -80.28 0.086708 27.403
8.84800000 0.086890 -8.013 0.996195 -80.29 0.996195 -80.29 0.086897 27.409
8.84820000 0.087081 -8.045 0.996178 -80.30 0.996178 -80.30 0.087088 27.415
8.84840000 0.087274 -8.078 0.996161 -80.32 0.996161 -80.32 0.087281 27.422
8.84860000 0.087468 -8.110 0.996144 -80.33 0.996144 -80.33 0.087475 27.428
8.84880000 0.087664 -8.143 0.996126 -80.34 0.996126 -80.34 0.087671 27.434
8.84900000 0.087861 -8.176 0.996109 -80.36 0.996109 -80.36 0.087869 27.440
8.84920000 0.088061 -8.209 0.996091 -80.37 0.996091 -80.37 0.088068 27.446
8.84940000 0.088262 -8.242 0.996073 -80.38 0.996073 -80.38 0.088269 27.453
8.84960000 0.088464 -8.275 0.996055 -80.40 0.996055 -80.40 0.088472 27.459
8.84980000 0.088669 -8.309 0.996037 -80.41 0.996037 -80.41 0.088677 27.465
8.85000000 0.088875 -8.343 0.996018 -80.42 0.996018 -80.42 0.088883 27.471
8.85020000 0.089084 -8.377 0.995999 -80.44 0.995999 -80.44 0.089091 27.477
8.85040000 0.089294 -8.411 0.995980 -80.45 0.995980 -80.45 0.089301 27.483
8.85060000 0.089505 -8.445 0.995961 -80.47 0.995961 -80.47 0.089513 27.489
8.85080000 0.089719 -8.480 0.995941 -80.48 0.995941 -80.48 0.089727 27.495
8.85100000 0.089935 -8.515 0.995922 -80.49 0.995922 -80.49 0.089943 27.501
8.85120000 0.090153 -8.550 0.995902 -80.51 0.995902 -80.51 0.090161 27.507
8.85140000 0.090372 -8.585 0.995882 -80.52 0.995882 -80.52 0.090380 27.513
8.85160000 0.090594 -8.620 0.995861 -80.54 0.995861 -80.54 0.090602 27.519
8.85180000 0.090818 -8.656 0.995841 -80.55 0.995841 -80.55 0.090826 27.525
8.85200000 0.091044 -8.691 0.995820 -80.57 0.995820 -80.57 0.091052 27.531
8.85220000 0.091271 -8.727 0.995799 -80.58 0.995799 -80.58 0.091280 27.537
8.85240000 0.091501 -8.764 0.995778 -80.60 0.995778 -80.60 0.091510 27.543
8.85260000 0.091734 -8.800 0.995756 -80.61 0.995756 -80.61 0.091742 27.548
8.85280000 0.091968 -8.837 0.995734 -80.63 0.995734 -80.63 0.091976 27.554
8.85300000 0.092204 -8.874 0.995712 -80.64 0.995712 -80.64 0.092213 27.560
8.85320000 0.092443 -8.911 0.995690 -80.66 0.995690 -80.66 0.092452 27.565
8.85340000 0.092684 -8.948 0.995667 -80.67 0.995667 -80.67 0.092693 27.571
8.85360000 0.092928 -8.985 0.995644 -80.69 0.995644 -80.69 0.092936 27.576
8.85380000 0.093173 -9.023 0.995621 -80.71 0.995621 -80.71 0.093182 27.582
8.85400000 0.093421 -9.061 0.995597 -80.72 0.995597 -80.72 0.093430 27.587
8.85420000 0.093672 -9.099 0.995574 -80.74 0.995574 -80.74 0.093681 27.593
8.85440000 0.093925 -9.138 0.995550 -80.76 0.995550 -80.76 0.093934 27.598
8.85460000 0.094180 -9.177 0.995525 -80.77 0.995525 -80.77 0.094189 27.604
8.85480000 0.094438 -9.216 0.995500 -80.79 0.995500 -80.79 0.094447 27.609
8.85500000 0.094699 -9.255 0.995475 -80.81 0.995475 -80.81 0.094707 27.614
8.85520000 0.094962 -9.294 0.995450 -80.82 0.995450 -80.82 0.094971 27.619
8.85540000 0.095227 -9.334 0.995424 -80.84 0.995424 -80.84 0.095236 27.624
8.85560000 0.095496 -9.374 0.995398 -80.86 0.995398 -80.86 0.095505 27.629
8.85580000 0.095767 -9.414 0.995372 -80.87 0.995372 -80.87 0.095776 27.634
8.85600000 0.096041 -9.455 0.995345 -80.89 0.995345 -80.89 0.096050 27.639
8.85620000 0.096317 -9.495 0.995318 -80.91 0.995318 -80.91 0.096326 27.644
8.85640000 0.096597 -9.536 0.995291 -80.93 0.995291 -80.93 0.096606 27.649
8.85660000 0.096879 -9.578 0.995263 -80.95 0.995263 -80.95 0.096888 27.654
8.85680000 0.097164 -9.619 0.995235 -80.96 0.995235 -80.96 0.097174 27.658
8.85700000 0.097453 -9.661 0.995207 -80.98 0.995207 -80.98 0.097462 27.663
8.85720000 0.097744 -9.703 0.995178 -81.00 0.995178 -81.00 0.097753 27.667
8.85740000 0.098038 -9.745 0.995148 -81.02 0.995148 -81.02 0.098048 27.672
8.85760000 0.098336 -9.788 0.995119 -81.04 0.995119 -81.04 0.098345 27.676
8.85780000 0.098636 -9.831 0.995089 -81.06 0.995089 -81.06 0.098646 27.680
8.85800000 0.098940 -9.874 0.995058 -81.08 0.995058 -81.08 0.098950 27.685
8.85820000 0.099247 -9.918 0.995027 -81.10 0.995027 -81.10 0.099257 27.689
8.85840000 0.099557 -9.962 0.994996 -81.12 0.994996 -81.12 0.099567 27.693
8.85860000 0.099871 -10.01 0.994964 -81.14 0.994964 -81.14 0.099881 27.697
8.85880000 0.100188 -10.05 0.994932 -81.16 0.994932 -81.16 0.100198 27.701
8.85900000 0.100509 -10.10 0.994899 -81.18 0.994899 -81.18 0.100519 27.704
8.85920000 0.100833 -10.14 0.994866 -81.20 0.994866 -81.20 0.100844 27.708
8.85940000 0.101161 -10.19 0.994832 -81.22 0.994832 -81.22 0.101171 27.712
8.85960000 0.101493 -10.23 0.994798 -81.24 0.994798 -81.24 0.101503 27.715
8.85980000 0.101828 -10.28 0.994764 -81.26 0.994764 -81.26 0.101838 27.718
8.86000000 0.102167 -10.32 0.994728 -81.28 0.994728 -81.28 0.102177 27.722
8.86020000 0.102510 -10.37 0.994693 -81.30 0.994693 -81.30 0.102520 27.725
8.86040000 0.102856 -10.42 0.994656 -81.33 0.994656 -81.33 0.102867 27.728
8.86060000 0.103207 -10.47 0.994620 -81.35 0.994620 -81.35 0.103218 27.731
8.86080000 0.103562 -10.51 0.994582 -81.37 0.994582 -81.37 0.103573 27.734
8.86100000 0.103921 -10.56 0.994545 -81.39 0.994545 -81.39 0.103932 27.736
8.86120000 0.104284 -10.61 0.994506 -81.42 0.994506 -81.42 0.104295 27.739
8.86140000 0.104651 -10.66 0.994467 -81.44 0.994467 -81.44 0.104663 27.741
8.86160000 0.105023 -10.71 0.994427 -81.46 0.994427 -81.46 0.105034 27.744
8.86180000 0.105399 -10.76 0.994387 -81.49 0.994387 -81.49 0.105411 27.746
8.86200000 0.105780 -10.81 0.994346 -81.51 0.994346 -81.51 0.105791 27.748
8.86220000 0.106165 -10.86 0.994305 -81.53 0.994305 -81.53 0.106177 27.750
8.86240000 0.106555 -10.91 0.994262 -81.56 0.994262 -81.56 0.106567 27.751
8.86260000 0.106950 -10.96 0.994220 -81.58 0.994220 -81.58 0.106961 27.753
8.86280000 0.107349 -11.01 0.994176 -81.61 0.994176 -81.61 0.107361 27.754
8.86300000 0.107754 -11.06 0.994132 -81.63 0.994132 -81.63 0.107765 27.755
8.86320000 0.108163 -11.12 0.994087 -81.66 0.994087 -81.66 0.108175 27.757
8.86340000 0.108578 -11.17 0.994041 -81.68 0.994041 -81.68 0.108590 27.757
8.86360000 0.108998 -11.22 0.993994 -81.71 0.993994 -81.71 0.109010 27.758
8.86380000 0.109423 -11.28 0.993947 -81.74 0.993947 -81.74 0.109435 27.759
8.86400000 0.109853 -11.33 0.993899 -81.76 0.993899 -81.76 0.109865 27.759
8.86420000 0.110289 -11.39 0.993850 -81.79 0.993850 -81.79 0.110301 27.759
8.86440000 0.110731 -11.44 0.993801 -81.82 0.993801 -81.82 0.110743 27.759
8.86460000 0.111178 -11.50 0.993750 -81.85 0.993750 -81.85 0.111190 27.759
8.86480000 0.111631 -11.55 0.993699 -81.87 0.993699 -81.87 0.111644 27.759
8.86490075 0.111862 -11.58 0.993672 -81.89 0.993672 -81.89 0.111874 27.758
8.86500000 0.112090 -11.61 0.993646 -81.90 0.993646 -81.90 0.112103 27.758
8.86520000 0.112555 -11.67 0.993593 -81.93 0.993593 -81.93 0.112568 27.757
8.86540000 0.113027 -11.72 0.993539 -81.96 0.993539 -81.96 0.113040 27.756
8.86558545 0.113470 -11.78 0.993488 -81.99 0.993488 -81.99 0.113483 27.755
8.86560000 0.113504 -11.78 0.993484 -81.99 0.993484 -81.99 0.113517 27.755
8.86580000 0.113989 -11.84 0.993428 -82.02 0.993428 -82.02 0.114002 27.753
8.86600000 0.114479 -11.90 0.993370 -82.05 0.993370 -82.05 0.114493 27.751
8.86620000 0.114977 -11.96 0.993312 -82.08 0.993312 -82.08 0.114990 27.749
8.86625445 0.115113 -11.98 0.993296 -82.09 0.993296 -82.09 0.115127 27.749
8.86640000 0.115481 -12.02 0.993253 -82.11 0.993253 -82.11 0.115494 27.747
8.86660000 0.115992 -12.08 0.993193 -82.14 0.993193 -82.14 0.116006 27.745
8.86680000 0.116511 -12.14 0.993131 -82.17 0.993131 -82.17 0.116524 27.742
8.86690813 0.116794 -12.18 0.993098 -82.19 0.993098 -82.19 0.116808 27.740
8.86700000 0.117036 -12.20 0.993069 -82.21 0.993069 -82.21 0.117050 27.739
8.86720000 0.117569 -12.27 0.993005 -82.24 0.993005 -82.24 0.117583 27.735
8.86740000 0.118110 -12.33 0.992940 -82.27 0.992940 -82.27 0.118124 27.732
8.86754683 0.118512 -12.38 0.992891 -82.30 0.992891 -82.30 0.118526 27.729
8.86760000 0.118659 -12.39 0.992874 -82.31 0.992874 -82.31 0.118673 27.728
8.86780000 0.119215 -12.46 0.992806 -82.34 0.992806 -82.34 0.119229 27.723
8.86800000 0.119779 -12.52 0.992737 -82.37 0.992737 -82.37 0.119794 27.719
8.86817089 0.120268 -12.58 0.992678 -82.40 0.992678 -82.40 0.120283 27.714
8.86820000 0.120352 -12.59 0.992667 -82.41 0.992667 -82.41 0.120367 27.714
8.86840000 0.120933 -12.65 0.992596 -82.45 0.992596 -82.45 0.120948 27.708
8.86860000 0.121523 -12.72 0.992523 -82.48 0.992523 -82.48 0.121538 27.703
8.86878066 0.122064 -12.78 0.992456 -82.51 0.992456 -82.51 0.122078 27.697
8.86880000 0.122122 -12.79 0.992448 -82.52 0.992448 -82.52 0.122137 27.697
8.86900000 0.122730 -12.86 0.992372 -82.55 0.992372 -82.55 0.122745 27.690
8.86920000 0.123347 -12.93 0.992295 -82.59 0.992295 -82.59 0.123362 27.684
8.86937645 0.123899 -12.99 0.992225 -82.63 0.992225 -82.63 0.123914 27.677
8.86940000 0.123973 -13.00 0.992216 -82.63 0.992216 -82.63 0.123988 27.676
8.86960000 0.124609 -13.07 0.992135 -82.67 0.992135 -82.67 0.124625 27.669
8.86980000 0.125255 -13.14 0.992053 -82.71 0.992053 -82.71 0.125271 27.661
8.86995859 0.125774 -13.19 0.991986 -82.74 0.991986 -82.74 0.125790 27.654
8.87000000 0.125911 -13.21 0.991969 -82.75 0.991969 -82.75 0.125927 27.652
8.87020000 0.126578 -13.28 0.991883 -82.79 0.991883 -82.79 0.126594 27.644
8.87040000 0.127255 -13.36 0.991795 -82.83 0.991795 -82.83 0.127271 27.634
8.87052739 0.127692 -13.40 0.991738 -82.86 0.991738 -82.86 0.127708 27.628
8.87060000 0.127943 -13.43 0.991705 -82.87 0.991705 -82.87 0.127959 27.624
8.87080000 0.128642 -13.50 0.991613 -82.91 0.991613 -82.91 0.128658 27.614
8.87100000 0.129352 -13.58 0.991520 -82.96 0.991520 -82.96 0.129369 27.603
8.87108316 0.129651 -13.61 0.991480 -82.97 0.991480 -82.97 0.129668 27.599
8.87120000 0.130074 -13.66 0.991424 -83.00 0.991424 -83.00 0.130091 27.592
8.87140000 0.130809 -13.74 0.991326 -83.04 0.991326 -83.04 0.130826 27.580
8.87160000 0.131555 -13.81 0.991226 -83.09 0.991226 -83.09 0.131572 27.568
8.87162619 0.131654 -13.82 0.991213 -83.10 0.991213 -83.10 0.131671 27.566
8.87180000 0.132314 -13.89 0.991124 -83.14 0.991124 -83.14 0.132331 27.555
8.87200000 0.133086 -13.97 0.991019 -83.18 0.991019 -83.18 0.133103 27.542
8.87215678 0.133700 -14.04 0.990935 -83.22 0.990935 -83.22 0.133718 27.531
8.87220000 0.133871 -14.06 0.990912 -83.23 0.990912 -83.23 0.133889 27.527
8.87240000 0.134670 -14.14 0.990802 -83.28 0.990802 -83.28 0.134688 27.513
8.87260000 0.135482 -14.22 0.990690 -83.33 0.990690 -83.33 0.135500 27.497
8.87267522 0.135792 -14.25 0.990647 -83.35 0.990647 -83.35 0.135810 27.491
8.87280000 0.136309 -14.31 0.990575 -83.38 0.990575 -83.38 0.136327 27.481
8.87300000 0.137151 -14.39 0.990457 -83.43 0.990457 -83.43 0.137169 27.465
8.87318177 0.137929 -14.47 0.990348 -83.47 0.990348 -83.47 0.137947 27.449
8.87320000 0.138007 -14.48 0.990336 -83.48 0.990336 -83.48 0.138026 27.447
8.87340000 0.138879 -14.57 0.990213 -83.53 0.990213 -83.53 0.138898 27.429
8.87360000 0.139767 -14.65 0.990086 -83.58 0.990086 -83.58 0.139786 27.410
8.87367671 0.140112 -14.69 0.990037 -83.61 0.990037 -83.61 0.140131 27.403
8.87380000 0.140672 -14.74 0.989956 -83.64 0.989956 -83.64 0.140691 27.391
8.87400000 0.141593 -14.84 0.989823 -83.69 0.989823 -83.69 0.141612 27.370
8.87416032 0.142343 -14.91 0.989714 -83.74 0.989714 -83.74 0.142363 27.353
8.87420000 0.142531 -14.93 0.989687 -83.75 0.989687 -83.75 0.142551 27.349
8.87440000 0.143487 -15.02 0.989547 -83.81 0.989547 -83.81 0.143507 27.327
8.87460000 0.144461 -15.12 0.989403 -83.87 0.989403 -83.87 0.144481 27.304
8.87463284 0.144623 -15.13 0.989379 -83.88 0.989379 -83.88 0.144643 27.300
8.87480000 0.145454 -15.21 0.989255 -83.93 0.989255 -83.93 0.145474 27.280
8.87500000 0.146466 -15.31 0.989104 -83.99 0.989104 -83.99 0.146487 27.256