! Sonnet Data File
! From: emgraph Version : 16.52
! From Project: Resonator2_cp
! Data is De-embedded 
! Data File Written: 10/06/2017 09:05:51
!< HDATE 10/05/2017 15:28:06
!< MDATE 10/05/2017 15:28:06
!< PARAMS
!< gap = 56.0
!< Length = 400.0
!< Pwid1 = 2000.0
!< Pwid2 = 2000.0
!< END PARAMS
# GHZ S MA R 35.97000
8.80000000 0.016207 3.1797 0.999865 -74.39 0.999865 -74.39 0.016209 28.047
!< P1 F=8.8 Eeff=(5.36817953 -2.3731e-5) Z0=(35.9853883 8.0522e-5) R=0.0 C=0.0 
!< P2 F=8.8 Eeff=(5.36817953 -2.3731e-5) Z0=(35.9853883 8.0522e-5) R=0.0 C=0.0 
8.80020000 0.016209 3.1698 0.999865 -74.40 0.999865 -74.40 0.016211 28.053
8.80040000 0.016211 3.1597 0.999865 -74.40 0.999865 -74.40 0.016213 28.059
8.80060000 0.016213 3.1495 0.999865 -74.40 0.999865 -74.40 0.016215 28.066
8.80080000 0.016216 3.1394 0.999865 -74.40 0.999865 -74.40 0.016217 28.072
8.80100000 0.016218 3.1292 0.999865 -74.40 0.999865 -74.40 0.016219 28.078
8.80120000 0.016220 3.1190 0.999865 -74.40 0.999865 -74.40 0.016221 28.085
8.80140000 0.016222 3.1088 0.999865 -74.41 0.999865 -74.41 0.016223 28.091
8.80160000 0.016224 3.0985 0.999865 -74.41 0.999865 -74.41 0.016225 28.098
8.80180000 0.016226 3.0882 0.999865 -74.41 0.999865 -74.41 0.016227 28.104
8.80200000 0.016228 3.0779 0.999865 -74.41 0.999865 -74.41 0.016230 28.111
8.80220000 0.016230 3.0675 0.999865 -74.41 0.999865 -74.41 0.016232 28.117
8.80240000 0.016232 3.0572 0.999865 -74.42 0.999865 -74.42 0.016234 28.124
8.80260000 0.016235 3.0468 0.999865 -74.42 0.999865 -74.42 0.016236 28.131
8.80280000 0.016237 3.0363 0.999865 -74.42 0.999865 -74.42 0.016238 28.137
8.80300000 0.016239 3.0259 0.999865 -74.42 0.999865 -74.42 0.016240 28.144
8.80320000 0.016241 3.0154 0.999865 -74.42 0.999865 -74.42 0.016242 28.151
8.80340000 0.016243 3.0048 0.999865 -74.43 0.999865 -74.43 0.016245 28.157
8.80360000 0.016245 2.9943 0.999865 -74.43 0.999865 -74.43 0.016247 28.164
8.80380000 0.016248 2.9837 0.999865 -74.43 0.999865 -74.43 0.016249 28.171
8.80400000 0.016250 2.9731 0.999865 -74.43 0.999865 -74.43 0.016251 28.178
8.80420000 0.016252 2.9624 0.999865 -74.43 0.999865 -74.43 0.016253 28.184
8.80440000 0.016254 2.9517 0.999865 -74.44 0.999865 -74.44 0.016256 28.191
8.80460000 0.016256 2.9410 0.999865 -74.44 0.999865 -74.44 0.016258 28.198
8.80480000 0.016259 2.9303 0.999865 -74.44 0.999865 -74.44 0.016260 28.205
8.80500000 0.016261 2.9195 0.999865 -74.44 0.999865 -74.44 0.016262 28.212
8.80520000 0.016263 2.9087 0.999865 -74.44 0.999865 -74.44 0.016265 28.219
8.80540000 0.016265 2.8979 0.999865 -74.44 0.999865 -74.44 0.016267 28.226
8.80560000 0.016268 2.8870 0.999864 -74.45 0.999864 -74.45 0.016269 28.233
8.80580000 0.016270 2.8761 0.999864 -74.45 0.999864 -74.45 0.016271 28.240
8.80600000 0.016272 2.8652 0.999864 -74.45 0.999864 -74.45 0.016274 28.247
8.80620000 0.016275 2.8542 0.999864 -74.45 0.999864 -74.45 0.016276 28.255
8.80640000 0.016277 2.8432 0.999864 -74.45 0.999864 -74.45 0.016278 28.262
8.80660000 0.016279 2.8322 0.999864 -74.46 0.999864 -74.46 0.016281 28.269
8.80680000 0.016281 2.8211 0.999864 -74.46 0.999864 -74.46 0.016283 28.276
8.80700000 0.016284 2.8100 0.999864 -74.46 0.999864 -74.46 0.016285 28.283
8.80720000 0.016286 2.7989 0.999864 -74.46 0.999864 -74.46 0.016288 28.291
8.80740000 0.016288 2.7877 0.999864 -74.46 0.999864 -74.46 0.016290 28.298
8.80760000 0.016291 2.7765 0.999864 -74.47 0.999864 -74.47 0.016292 28.305
8.80780000 0.016293 2.7653 0.999864 -74.47 0.999864 -74.47 0.016295 28.313
8.80800000 0.016296 2.7540 0.999864 -74.47 0.999864 -74.47 0.016297 28.320
8.80820000 0.016298 2.7427 0.999864 -74.47 0.999864 -74.47 0.016299 28.328
8.80840000 0.016300 2.7314 0.999864 -74.47 0.999864 -74.47 0.016302 28.335
8.80860000 0.016303 2.7200 0.999864 -74.48 0.999864 -74.48 0.016304 28.343
8.80880000 0.016305 2.7086 0.999864 -74.48 0.999864 -74.48 0.016307 28.350
8.80900000 0.016308 2.6972 0.999864 -74.48 0.999864 -74.48 0.016309 28.358
8.80920000 0.016310 2.6857 0.999864 -74.48 0.999864 -74.48 0.016312 28.365
8.80940000 0.016313 2.6742 0.999864 -74.48 0.999864 -74.48 0.016314 28.373
8.80960000 0.016315 2.6627 0.999864 -74.48 0.999864 -74.48 0.016317 28.381
8.80980000 0.016318 2.6511 0.999864 -74.49 0.999864 -74.49 0.016319 28.389
8.81000000 0.016320 2.6395 0.999864 -74.49 0.999864 -74.49 0.016322 28.396
8.81020000 0.016323 2.6278 0.999864 -74.49 0.999864 -74.49 0.016324 28.404
8.81040000 0.016325 2.6162 0.999864 -74.49 0.999864 -74.49 0.016327 28.412
8.81060000 0.016328 2.6044 0.999863 -74.49 0.999863 -74.49 0.016329 28.420
8.81080000 0.016330 2.5927 0.999863 -74.50 0.999863 -74.50 0.016332 28.428
8.81100000 0.016333 2.5809 0.999863 -74.50 0.999863 -74.50 0.016334 28.436
8.81120000 0.016335 2.5690 0.999863 -74.50 0.999863 -74.50 0.016337 28.444
8.81140000 0.016338 2.5572 0.999863 -74.50 0.999863 -74.50 0.016339 28.452
8.81160000 0.016340 2.5453 0.999863 -74.50 0.999863 -74.50 0.016342 28.460
8.81180000 0.016343 2.5333 0.999863 -74.51 0.999863 -74.51 0.016344 28.468
8.81200000 0.016345 2.5213 0.999863 -74.51 0.999863 -74.51 0.016347 28.476
8.81220000 0.016348 2.5093 0.999863 -74.51 0.999863 -74.51 0.016350 28.484
8.81240000 0.016351 2.4973 0.999863 -74.51 0.999863 -74.51 0.016352 28.492
8.81260000 0.016353 2.4852 0.999863 -74.51 0.999863 -74.51 0.016355 28.500
8.81280000 0.016356 2.4730 0.999863 -74.52 0.999863 -74.52 0.016357 28.509
8.81300000 0.016359 2.4608 0.999863 -74.52 0.999863 -74.52 0.016360 28.517
8.81320000 0.016361 2.4486 0.999863 -74.52 0.999863 -74.52 0.016363 28.525
8.81340000 0.016364 2.4364 0.999863 -74.52 0.999863 -74.52 0.016365 28.534
8.81360000 0.016367 2.4241 0.999863 -74.52 0.999863 -74.52 0.016368 28.542
8.81380000 0.016369 2.4117 0.999863 -74.53 0.999863 -74.53 0.016371 28.550
8.81400000 0.016372 2.3994 0.999863 -74.53 0.999863 -74.53 0.016374 28.559
8.81420000 0.016375 2.3869 0.999863 -74.53 0.999863 -74.53 0.016376 28.567
8.81440000 0.016377 2.3745 0.999863 -74.53 0.999863 -74.53 0.016379 28.576
8.81460000 0.016380 2.3620 0.999863 -74.53 0.999863 -74.53 0.016382 28.585
8.81480000 0.016383 2.3495 0.999863 -74.54 0.999863 -74.54 0.016385 28.593
8.81500000 0.016386 2.3369 0.999862 -74.54 0.999862 -74.54 0.016387 28.602
8.81520000 0.016389 2.3242 0.999862 -74.54 0.999862 -74.54 0.016390 28.611
8.81540000 0.016391 2.3116 0.999862 -74.54 0.999862 -74.54 0.016393 28.619
8.81560000 0.016394 2.2989 0.999862 -74.54 0.999862 -74.54 0.016396 28.628
8.81580000 0.016397 2.2861 0.999862 -74.54 0.999862 -74.54 0.016399 28.637
8.81600000 0.016400 2.2733 0.999862 -74.55 0.999862 -74.55 0.016401 28.646
8.81620000 0.016403 2.2605 0.999862 -74.55 0.999862 -74.55 0.016404 28.655
8.81640000 0.016405 2.2476 0.999862 -74.55 0.999862 -74.55 0.016407 28.664
8.81660000 0.016408 2.2347 0.999862 -74.55 0.999862 -74.55 0.016410 28.673
8.81680000 0.016411 2.2217 0.999862 -74.55 0.999862 -74.55 0.016413 28.682
8.81700000 0.016414 2.2087 0.999862 -74.56 0.999862 -74.56 0.016416 28.691
8.81720000 0.016417 2.1957 0.999862 -74.56 0.999862 -74.56 0.016419 28.700
8.81740000 0.016420 2.1826 0.999862 -74.56 0.999862 -74.56 0.016422 28.709
8.81760000 0.016423 2.1694 0.999862 -74.56 0.999862 -74.56 0.016425 28.718
8.81780000 0.016426 2.1562 0.999862 -74.56 0.999862 -74.56 0.016427 28.728
8.81800000 0.016429 2.1430 0.999862 -74.57 0.999862 -74.57 0.016430 28.737
8.81820000 0.016432 2.1297 0.999862 -74.57 0.999862 -74.57 0.016433 28.746
8.81840000 0.016435 2.1164 0.999862 -74.57 0.999862 -74.57 0.016436 28.756
8.81860000 0.016438 2.1030 0.999862 -74.57 0.999862 -74.57 0.016439 28.765
8.81880000 0.016441 2.0896 0.999862 -74.57 0.999862 -74.57 0.016442 28.775
8.81900000 0.016444 2.0761 0.999861 -74.58 0.999861 -74.58 0.016445 28.784
8.81920000 0.016447 2.0626 0.999861 -74.58 0.999861 -74.58 0.016449 28.794
8.81940000 0.016450 2.0491 0.999861 -74.58 0.999861 -74.58 0.016452 28.803
8.81960000 0.016453 2.0355 0.999861 -74.58 0.999861 -74.58 0.016455 28.813
8.81980000 0.016456 2.0218 0.999861 -74.58 0.999861 -74.58 0.016458 28.823
8.82000000 0.016459 2.0081 0.999861 -74.59 0.999861 -74.59 0.016461 28.832
8.82020000 0.016462 1.9943 0.999861 -74.59 0.999861 -74.59 0.016464 28.842
8.82040000 0.016465 1.9805 0.999861 -74.59 0.999861 -74.59 0.016467 28.852
8.82060000 0.016469 1.9667 0.999861 -74.59 0.999861 -74.59 0.016470 28.862
8.82080000 0.016472 1.9528 0.999861 -74.59 0.999861 -74.59 0.016473 28.872
8.82100000 0.016475 1.9388 0.999861 -74.60 0.999861 -74.60 0.016477 28.882
8.82120000 0.016478 1.9248 0.999861 -74.60 0.999861 -74.60 0.016480 28.892
8.82140000 0.016481 1.9108 0.999861 -74.60 0.999861 -74.60 0.016483 28.902
8.82160000 0.016485 1.8967 0.999861 -74.60 0.999861 -74.60 0.016486 28.912
8.82180000 0.016488 1.8825 0.999861 -74.60 0.999861 -74.60 0.016490 28.922
8.82200000 0.016491 1.8683 0.999861 -74.61 0.999861 -74.61 0.016493 28.932
8.82220000 0.016494 1.8541 0.999861 -74.61 0.999861 -74.61 0.016496 28.943
8.82240000 0.016498 1.8398 0.999861 -74.61 0.999861 -74.61 0.016499 28.953
8.82260000 0.016501 1.8254 0.999860 -74.61 0.999860 -74.61 0.016503 28.963
8.82280000 0.016504 1.8110 0.999860 -74.61 0.999860 -74.61 0.016506 28.974
8.82300000 0.016508 1.7965 0.999860 -74.62 0.999860 -74.62 0.016509 28.984
8.82320000 0.016511 1.7820 0.999860 -74.62 0.999860 -74.62 0.016513 28.995
8.82340000 0.016514 1.7674 0.999860 -74.62 0.999860 -74.62 0.016516 29.005
8.82360000 0.016518 1.7528 0.999860 -74.62 0.999860 -74.62 0.016519 29.016
8.82380000 0.016521 1.7381 0.999860 -74.62 0.999860 -74.62 0.016523 29.027
8.82400000 0.016525 1.7234 0.999860 -74.63 0.999860 -74.63 0.016526 29.037
8.82420000 0.016528 1.7086 0.999860 -74.63 0.999860 -74.63 0.016530 29.048
8.82440000 0.016531 1.6937 0.999860 -74.63 0.999860 -74.63 0.016533 29.059
8.82460000 0.016535 1.6788 0.999860 -74.63 0.999860 -74.63 0.016537 29.070
8.82480000 0.016538 1.6639 0.999860 -74.63 0.999860 -74.63 0.016540 29.081
8.82500000 0.016542 1.6489 0.999860 -74.64 0.999860 -74.64 0.016544 29.092
8.82520000 0.016545 1.6338 0.999860 -74.64 0.999860 -74.64 0.016547 29.103
8.82540000 0.016549 1.6187 0.999860 -74.64 0.999860 -74.64 0.016551 29.114
8.82560000 0.016552 1.6035 0.999860 -74.64 0.999860 -74.64 0.016554 29.125
8.82580000 0.016556 1.5882 0.999860 -74.64 0.999860 -74.64 0.016558 29.136
8.82600000 0.016560 1.5729 0.999859 -74.65 0.999859 -74.65 0.016561 29.148
8.82620000 0.016563 1.5575 0.999859 -74.65 0.999859 -74.65 0.016565 29.159
8.82640000 0.016567 1.5421 0.999859 -74.65 0.999859 -74.65 0.016569 29.170
8.82660000 0.016571 1.5266 0.999859 -74.65 0.999859 -74.65 0.016572 29.182
8.82680000 0.016574 1.5111 0.999859 -74.65 0.999859 -74.65 0.016576 29.193
8.82700000 0.016578 1.4955 0.999859 -74.66 0.999859 -74.66 0.016580 29.205
8.82720000 0.016582 1.4798 0.999859 -74.66 0.999859 -74.66 0.016583 29.216
8.82740000 0.016585 1.4641 0.999859 -74.66 0.999859 -74.66 0.016587 29.228
8.82760000 0.016589 1.4483 0.999859 -74.66 0.999859 -74.66 0.016591 29.240
8.82780000 0.016593 1.4324 0.999859 -74.66 0.999859 -74.66 0.016595 29.252
8.82800000 0.016597 1.4165 0.999859 -74.67 0.999859 -74.67 0.016598 29.263
8.82820000 0.016600 1.4006 0.999859 -74.67 0.999859 -74.67 0.016602 29.275
8.82840000 0.016604 1.3845 0.999859 -74.67 0.999859 -74.67 0.016606 29.287
8.82860000 0.016608 1.3684 0.999859 -74.67 0.999859 -74.67 0.016610 29.299
8.82880000 0.016612 1.3522 0.999859 -74.67 0.999859 -74.67 0.016614 29.311
8.82900000 0.016616 1.3360 0.999859 -74.68 0.999859 -74.68 0.016618 29.323
8.82920000 0.016620 1.3197 0.999858 -74.68 0.999858 -74.68 0.016622 29.336
8.82940000 0.016624 1.3033 0.999858 -74.68 0.999858 -74.68 0.016626 29.348
8.82960000 0.016628 1.2869 0.999858 -74.68 0.999858 -74.68 0.016630 29.360
8.82980000 0.016632 1.2704 0.999858 -74.68 0.999858 -74.68 0.016633 29.373
8.83000000 0.016636 1.2538 0.999858 -74.69 0.999858 -74.69 0.016637 29.385
8.83020000 0.016640 1.2372 0.999858 -74.69 0.999858 -74.69 0.016642 29.398
8.83040000 0.016644 1.2205 0.999858 -74.69 0.999858 -74.69 0.016646 29.410
8.83060000 0.016648 1.2037 0.999858 -74.69 0.999858 -74.69 0.016650 29.423
8.83080000 0.016652 1.1869 0.999858 -74.69 0.999858 -74.69 0.016654 29.436
8.83100000 0.016656 1.1700 0.999858 -74.70 0.999858 -74.70 0.016658 29.448
8.83120000 0.016660 1.1530 0.999858 -74.70 0.999858 -74.70 0.016662 29.461
8.83140000 0.016664 1.1360 0.999858 -74.70 0.999858 -74.70 0.016666 29.474
8.83160000 0.016668 1.1188 0.999858 -74.70 0.999858 -74.70 0.016670 29.487
8.83180000 0.016672 1.1016 0.999858 -74.70 0.999858 -74.70 0.016674 29.500
8.83200000 0.016677 1.0844 0.999857 -74.71 0.999857 -74.71 0.016679 29.513
8.83220000 0.016681 1.0670 0.999857 -74.71 0.999857 -74.71 0.016683 29.527
8.83240000 0.016685 1.0496 0.999857 -74.71 0.999857 -74.71 0.016687 29.540
8.83260000 0.016689 1.0321 0.999857 -74.71 0.999857 -74.71 0.016691 29.553
8.83280000 0.016694 1.0146 0.999857 -74.72 0.999857 -74.72 0.016696 29.567
8.83300000 0.016698 0.9970 0.999857 -74.72 0.999857 -74.72 0.016700 29.580
8.83320000 0.016702 0.9792 0.999857 -74.72 0.999857 -74.72 0.016704 29.594
8.83340000 0.016707 0.9615 0.999857 -74.72 0.999857 -74.72 0.016709 29.607
8.83360000 0.016711 0.9436 0.999857 -74.72 0.999857 -74.72 0.016713 29.621
8.83380000 0.016716 0.9257 0.999857 -74.73 0.999857 -74.73 0.016718 29.635
8.83400000 0.016720 0.9077 0.999857 -74.73 0.999857 -74.73 0.016722 29.648
8.83420000 0.016725 0.8896 0.999857 -74.73 0.999857 -74.73 0.016727 29.662
8.83440000 0.016729 0.8714 0.999857 -74.73 0.999857 -74.73 0.016731 29.676
8.83460000 0.016734 0.8531 0.999856 -74.73 0.999856 -74.73 0.016736 29.690
8.83480000 0.016738 0.8348 0.999856 -74.74 0.999856 -74.74 0.016740 29.705
8.83500000 0.016743 0.8164 0.999856 -74.74 0.999856 -74.74 0.016745 29.719
8.83520000 0.016747 0.7979 0.999856 -74.74 0.999856 -74.74 0.016749 29.733
8.83540000 0.016752 0.7793 0.999856 -74.74 0.999856 -74.74 0.016754 29.747
8.83560000 0.016757 0.7607 0.999856 -74.74 0.999856 -74.74 0.016759 29.762
8.83580000 0.016761 0.7419 0.999856 -74.75 0.999856 -74.75 0.016763 29.776
8.83600000 0.016766 0.7231 0.999856 -74.75 0.999856 -74.75 0.016768 29.791
8.83620000 0.016771 0.7042 0.999856 -74.75 0.999856 -74.75 0.016773 29.806
8.83640000 0.016776 0.6852 0.999856 -74.75 0.999856 -74.75 0.016778 29.820
8.83660000 0.016780 0.6661 0.999856 -74.75 0.999856 -74.75 0.016782 29.835
8.83680000 0.016785 0.6470 0.999856 -74.76 0.999856 -74.76 0.016787 29.850
8.83700000 0.016790 0.6277 0.999855 -74.76 0.999855 -74.76 0.016792 29.865
8.83720000 0.016795 0.6084 0.999855 -74.76 0.999855 -74.76 0.016797 29.880
8.83740000 0.016800 0.5890 0.999855 -74.76 0.999855 -74.76 0.016802 29.895
8.83760000 0.016805 0.5695 0.999855 -74.77 0.999855 -74.77 0.016807 29.911
8.83780000 0.016810 0.5499 0.999855 -74.77 0.999855 -74.77 0.016812 29.926
8.83800000 0.016815 0.5302 0.999855 -74.77 0.999855 -74.77 0.016817 29.941
8.83820000 0.016820 0.5104 0.999855 -74.77 0.999855 -74.77 0.016822 29.957
8.83840000 0.016825 0.4905 0.999855 -74.77 0.999855 -74.77 0.016827 29.972
8.83860000 0.016830 0.4706 0.999855 -74.78 0.999855 -74.78 0.016832 29.988
8.83880000 0.016835 0.4505 0.999855 -74.78 0.999855 -74.78 0.016837 30.004
8.83900000 0.016840 0.4304 0.999855 -74.78 0.999855 -74.78 0.016842 30.020
8.83920000 0.016845 0.4101 0.999854 -74.78 0.999854 -74.78 0.016848 30.036
8.83940000 0.016851 0.3898 0.999854 -74.78 0.999854 -74.78 0.016853 30.052
8.83960000 0.016856 0.3693 0.999854 -74.79 0.999854 -74.79 0.016858 30.068
8.83980000 0.016861 0.3488 0.999854 -74.79 0.999854 -74.79 0.016863 30.084
8.84000000 0.016866 0.3282 0.999854 -74.79 0.999854 -74.79 0.016869 30.100
8.84020000 0.016872 0.3074 0.999854 -74.79 0.999854 -74.79 0.016874 30.117
8.84040000 0.016877 0.2866 0.999854 -74.80 0.999854 -74.80 0.016879 30.133
8.84060000 0.016883 0.2657 0.999854 -74.80 0.999854 -74.80 0.016885 30.150
8.84080000 0.016888 0.2447 0.999854 -74.80 0.999854 -74.80 0.016890 30.167
8.84100000 0.016894 0.2235 0.999854 -74.80 0.999854 -74.80 0.016896 30.183
8.84120000 0.016899 0.2023 0.999854 -74.80 0.999854 -74.80 0.016901 30.200
8.84140000 0.016905 0.1810 0.999853 -74.81 0.999853 -74.81 0.016907 30.217
8.84160000 0.016910 0.1595 0.999853 -74.81 0.999853 -74.81 0.016912 30.234
8.84180000 0.016916 0.1380 0.999853 -74.81 0.999853 -74.81 0.016918 30.251
8.84200000 0.016921 0.1164 0.999853 -74.81 0.999853 -74.81 0.016924 30.269
8.84220000 0.016927 0.0946 0.999853 -74.81 0.999853 -74.81 0.016929 30.286
8.84240000 0.016933 0.0727 0.999853 -74.82 0.999853 -74.82 0.016935 30.304
8.84260000 0.016939 0.0508 0.999853 -74.82 0.999853 -74.82 0.016941 30.321
8.84280000 0.016944 0.0287 0.999853 -74.82 0.999853 -74.82 0.016947 30.339
8.84300000 0.016950 0.0065 0.999853 -74.82 0.999853 -74.82 0.016953 30.357
8.84320000 0.016956 -0.016 0.999853 -74.83 0.999853 -74.83 0.016959 30.374
8.84340000 0.016962 -0.038 0.999852 -74.83 0.999852 -74.83 0.016964 30.392
8.84360000 0.016968 -0.061 0.999852 -74.83 0.999852 -74.83 0.016970 30.411
8.84380000 0.016974 -0.083 0.999852 -74.83 0.999852 -74.83 0.016976 30.429
8.84400000 0.016980 -0.106 0.999852 -74.83 0.999852 -74.83 0.016982 30.447
8.84420000 0.016986 -0.129 0.999852 -74.84 0.999852 -74.84 0.016989 30.466
8.84440000 0.016992 -0.152 0.999852 -74.84 0.999852 -74.84 0.016995 30.484
8.84460000 0.016998 -0.175 0.999852 -74.84 0.999852 -74.84 0.017001 30.503
8.84480000 0.017005 -0.198 0.999852 -74.84 0.999852 -74.84 0.017007 30.521
8.84500000 0.017011 -0.222 0.999852 -74.85 0.999852 -74.85 0.017013 30.540
8.84520000 0.017017 -0.245 0.999851 -74.85 0.999851 -74.85 0.017020 30.559
8.84540000 0.017024 -0.269 0.999851 -74.85 0.999851 -74.85 0.017026 30.578
8.84560000 0.017030 -0.292 0.999851 -74.85 0.999851 -74.85 0.017032 30.598
8.84580000 0.017036 -0.316 0.999851 -74.85 0.999851 -74.85 0.017039 30.617
8.84600000 0.017043 -0.340 0.999851 -74.86 0.999851 -74.86 0.017045 30.636
8.84620000 0.017049 -0.364 0.999851 -74.86 0.999851 -74.86 0.017052 30.656
8.84640000 0.017056 -0.388 0.999851 -74.86 0.999851 -74.86 0.017058 30.676
8.84660000 0.017062 -0.413 0.999851 -74.86 0.999851 -74.86 0.017065 30.695
8.84680000 0.017069 -0.437 0.999850 -74.87 0.999850 -74.87 0.017071 30.715
8.84700000 0.017076 -0.462 0.999850 -74.87 0.999850 -74.87 0.017078 30.735
8.84720000 0.017082 -0.486 0.999850 -74.87 0.999850 -74.87 0.017085 30.755
8.84740000 0.017089 -0.511 0.999850 -74.87 0.999850 -74.87 0.017092 30.776
8.84760000 0.017096 -0.536 0.999850 -74.87 0.999850 -74.87 0.017098 30.796
8.84780000 0.017103 -0.561 0.999850 -74.88 0.999850 -74.88 0.017105 30.817
8.84800000 0.017110 -0.587 0.999850 -74.88 0.999850 -74.88 0.017112 30.837
8.84820000 0.017117 -0.612 0.999850 -74.88 0.999850 -74.88 0.017119 30.858
8.84840000 0.017124 -0.637 0.999850 -74.88 0.999850 -74.88 0.017126 30.879
8.84860000 0.017131 -0.663 0.999849 -74.89 0.999849 -74.89 0.017133 30.900
8.84880000 0.017138 -0.689 0.999849 -74.89 0.999849 -74.89 0.017140 30.921
8.84900000 0.017145 -0.715 0.999849 -74.89 0.999849 -74.89 0.017148 30.943
8.84920000 0.017152 -0.741 0.999849 -74.89 0.999849 -74.89 0.017155 30.964
8.84940000 0.017160 -0.767 0.999849 -74.90 0.999849 -74.90 0.017162 30.986
8.84960000 0.017167 -0.794 0.999849 -74.90 0.999849 -74.90 0.017169 31.008
8.84980000 0.017174 -0.820 0.999849 -74.90 0.999849 -74.90 0.017177 31.029
8.85000000 0.017182 -0.847 0.999848 -74.90 0.999848 -74.90 0.017184 31.051
8.85020000 0.017189 -0.874 0.999848 -74.90 0.999848 -74.90 0.017192 31.074
8.85040000 0.017197 -0.901 0.999848 -74.91 0.999848 -74.91 0.017199 31.096
8.85060000 0.017204 -0.928 0.999848 -74.91 0.999848 -74.91 0.017207 31.118
8.85080000 0.017212 -0.955 0.999848 -74.91 0.999848 -74.91 0.017215 31.141
8.85100000 0.017220 -0.982 0.999848 -74.91 0.999848 -74.91 0.017222 31.164
8.85120000 0.017227 -1.010 0.999848 -74.92 0.999848 -74.92 0.017230 31.186
8.85140000 0.017235 -1.038 0.999847 -74.92 0.999847 -74.92 0.017238 31.209
8.85160000 0.017243 -1.066 0.999847 -74.92 0.999847 -74.92 0.017246 31.233
8.85180000 0.017251 -1.094 0.999847 -74.92 0.999847 -74.92 0.017254 31.256
8.85200000 0.017259 -1.122 0.999847 -74.93 0.999847 -74.93 0.017262 31.279
8.85220000 0.017267 -1.150 0.999847 -74.93 0.999847 -74.93 0.017270 31.303
8.85240000 0.017275 -1.179 0.999847 -74.93 0.999847 -74.93 0.017278 31.327
8.85260000 0.017283 -1.208 0.999847 -74.93 0.999847 -74.93 0.017286 31.351
8.85280000 0.017292 -1.236 0.999846 -74.93 0.999846 -74.93 0.017294 31.375
8.85300000 0.017300 -1.266 0.999846 -74.94 0.999846 -74.94 0.017303 31.399
8.85320000 0.017308 -1.295 0.999846 -74.94 0.999846 -74.94 0.017311 31.424
8.85340000 0.017317 -1.324 0.999846 -74.94 0.999846 -74.94 0.017320 31.448
8.85360000 0.017325 -1.354 0.999846 -74.94 0.999846 -74.94 0.017328 31.473
8.85380000 0.017334 -1.384 0.999846 -74.95 0.999846 -74.95 0.017337 31.498
8.85400000 0.017342 -1.413 0.999846 -74.95 0.999846 -74.95 0.017345 31.523
8.85420000 0.017351 -1.444 0.999845 -74.95 0.999845 -74.95 0.017354 31.548
8.85440000 0.017360 -1.474 0.999845 -74.95 0.999845 -74.95 0.017363 31.574
8.85460000 0.017369 -1.504 0.999845 -74.96 0.999845 -74.96 0.017372 31.599
8.85480000 0.017378 -1.535 0.999845 -74.96 0.999845 -74.96 0.017381 31.625
8.85500000 0.017387 -1.566 0.999845 -74.96 0.999845 -74.96 0.017390 31.651
8.85520000 0.017396 -1.597 0.999845 -74.96 0.999845 -74.96 0.017399 31.677
8.85540000 0.017405 -1.628 0.999844 -74.97 0.999844 -74.97 0.017408 31.703
8.85560000 0.017414 -1.660 0.999844 -74.97 0.999844 -74.97 0.017417 31.730
8.85580000 0.017423 -1.691 0.999844 -74.97 0.999844 -74.97 0.017426 31.757
8.85600000 0.017433 -1.723 0.999844 -74.97 0.999844 -74.97 0.017436 31.783
8.85620000 0.017442 -1.755 0.999844 -74.98 0.999844 -74.98 0.017445 31.811
8.85640000 0.017452 -1.787 0.999843 -74.98 0.999843 -74.98 0.017455 31.838
8.85660000 0.017461 -1.820 0.999843 -74.98 0.999843 -74.98 0.017464 31.865
8.85680000 0.017471 -1.852 0.999843 -74.98 0.999843 -74.98 0.017474 31.893
8.85700000 0.017481 -1.885 0.999843 -74.99 0.999843 -74.99 0.017484 31.921
8.85720000 0.017490 -1.918 0.999843 -74.99 0.999843 -74.99 0.017494 31.949
8.85740000 0.017500 -1.951 0.999843 -74.99 0.999843 -74.99 0.017503 31.977
8.85760000 0.017510 -1.985 0.999842 -74.99 0.999842 -74.99 0.017513 32.005
8.85780000 0.017520 -2.019 0.999842 -75.00 0.999842 -75.00 0.017524 32.034
8.85800000 0.017531 -2.052 0.999842 -75.00 0.999842 -75.00 0.017534 32.063
8.85820000 0.017541 -2.087 0.999842 -75.00 0.999842 -75.00 0.017544 32.092
8.85840000 0.017551 -2.121 0.999842 -75.00 0.999842 -75.00 0.017554 32.121
8.85860000 0.017562 -2.155 0.999841 -75.01 0.999841 -75.01 0.017565 32.150
8.85880000 0.017572 -2.190 0.999841 -75.01 0.999841 -75.01 0.017575 32.180
8.85900000 0.017583 -2.225 0.999841 -75.01 0.999841 -75.01 0.017586 32.210
8.85920000 0.017593 -2.261 0.999841 -75.01 0.999841 -75.01 0.017597 32.240
8.85940000 0.017604 -2.296 0.999841 -75.02 0.999841 -75.02 0.017608 32.270
8.85960000 0.017615 -2.332 0.999840 -75.02 0.999840 -75.02 0.017618 32.301
8.85980000 0.017626 -2.368 0.999840 -75.02 0.999840 -75.02 0.017629 32.331
8.86000000 0.017637 -2.404 0.999840 -75.02 0.999840 -75.02 0.017641 32.362
8.86020000 0.017648 -2.440 0.999840 -75.03 0.999840 -75.03 0.017652 32.394
8.86040000 0.017660 -2.477 0.999840 -75.03 0.999840 -75.03 0.017663 32.425
8.86060000 0.017671 -2.514 0.999839 -75.03 0.999839 -75.03 0.017674 32.457
8.86080000 0.017682 -2.551 0.999839 -75.03 0.999839 -75.03 0.017686 32.489
8.86100000 0.017694 -2.589 0.999839 -75.04 0.999839 -75.04 0.017698 32.521
8.86120000 0.017706 -2.626 0.999839 -75.04 0.999839 -75.04 0.017709 32.553
8.86140000 0.017718 -2.664 0.999839 -75.04 0.999839 -75.04 0.017721 32.586
8.86160000 0.017729 -2.702 0.999838 -75.04 0.999838 -75.04 0.017733 32.619
8.86180000 0.017741 -2.741 0.999838 -75.05 0.999838 -75.05 0.017745 32.652
8.86200000 0.017754 -2.780 0.999838 -75.05 0.999838 -75.05 0.017757 32.685
8.86220000 0.017766 -2.819 0.999838 -75.05 0.999838 -75.05 0.017769 32.719
8.86240000 0.017778 -2.858 0.999837 -75.06 0.999837 -75.06 0.017782 32.753
8.86260000 0.017791 -2.898 0.999837 -75.06 0.999837 -75.06 0.017794 32.787
8.86280000 0.017803 -2.937 0.999837 -75.06 0.999837 -75.06 0.017807 32.821
8.86300000 0.017816 -2.978 0.999837 -75.06 0.999837 -75.06 0.017820 32.856
8.86320000 0.017829 -3.018 0.999836 -75.07 0.999836 -75.07 0.017833 32.891
8.86340000 0.017842 -3.059 0.999836 -75.07 0.999836 -75.07 0.017846 32.926
8.86360000 0.017855 -3.100 0.999836 -75.07 0.999836 -75.07 0.017859 32.961
8.86380000 0.017868 -3.141 0.999836 -75.07 0.999836 -75.07 0.017872 32.997
8.86400000 0.017881 -3.183 0.999835 -75.08 0.999835 -75.08 0.017885 33.033
8.86420000 0.017895 -3.225 0.999835 -75.08 0.999835 -75.08 0.017899 33.069
8.86440000 0.017908 -3.267 0.999835 -75.08 0.999835 -75.08 0.017912 33.106
8.86460000 0.017922 -3.309 0.999835 -75.09 0.999835 -75.09 0.017926 33.143
8.86480000 0.017936 -3.352 0.999834 -75.09 0.999834 -75.09 0.017940 33.180
8.86500000 0.017950 -3.395 0.999834 -75.09 0.999834 -75.09 0.017954 33.218
8.86520000 0.017964 -3.439 0.999834 -75.09 0.999834 -75.09 0.017968 33.255
8.86540000 0.017978 -3.483 0.999834 -75.10 0.999834 -75.10 0.017982 33.294
8.86560000 0.017993 -3.527 0.999833 -75.10 0.999833 -75.10 0.017997 33.332
8.86580000 0.018007 -3.571 0.999833 -75.10 0.999833 -75.10 0.018011 33.371
8.86600000 0.018022 -3.616 0.999833 -75.11 0.999833 -75.11 0.018026 33.410
8.86620000 0.018037 -3.661 0.999832 -75.11 0.999832 -75.11 0.018041 33.449
8.86640000 0.018052 -3.707 0.999832 -75.11 0.999832 -75.11 0.018056 33.489
8.86660000 0.018067 -3.753 0.999832 -75.11 0.999832 -75.11 0.018071 33.529
8.86680000 0.018083 -3.799 0.999832 -75.12 0.999832 -75.12 0.018087 33.569
8.86700000 0.018098 -3.845 0.999831 -75.12 0.999831 -75.12 0.018102 33.610
8.86720000 0.018114 -3.892 0.999831 -75.12 0.999831 -75.12 0.018118 33.651
8.86740000 0.018130 -3.940 0.999831 -75.13 0.999831 -75.13 0.018134 33.692
8.86760000 0.018146 -3.987 0.999830 -75.13 0.999830 -75.13 0.018150 33.734
8.86780000 0.018162 -4.035 0.999830 -75.13 0.999830 -75.13 0.018166 33.776
8.86800000 0.018178 -4.084 0.999830 -75.13 0.999830 -75.13 0.018182 33.818
8.86820000 0.018195 -4.133 0.999829 -75.14 0.999829 -75.14 0.018199 33.861
8.86840000 0.018211 -4.182 0.999829 -75.14 0.999829 -75.14 0.018216 33.904
8.86860000 0.018228 -4.231 0.999829 -75.14 0.999829 -75.14 0.018233 33.947
8.86880000 0.018245 -4.281 0.999828 -75.15 0.999828 -75.15 0.018250 33.991
8.86900000 0.018262 -4.332 0.999828 -75.15 0.999828 -75.15 0.018267 34.035
8.86920000 0.018280 -4.383 0.999828 -75.15 0.999828 -75.15 0.018284 34.080
8.86940000 0.018298 -4.434 0.999827 -75.16 0.999827 -75.16 0.018302 34.125
8.86960000 0.018315 -4.485 0.999827 -75.16 0.999827 -75.16 0.018320 34.170
8.86980000 0.018333 -4.537 0.999827 -75.16 0.999827 -75.16 0.018338 34.216
8.87000000 0.018352 -4.590 0.999826 -75.16 0.999826 -75.16 0.018356 34.262
8.87020000 0.018370 -4.643 0.999826 -75.17 0.999826 -75.17 0.018375 34.309
8.87040000 0.018389 -4.696 0.999826 -75.17 0.999826 -75.17 0.018393 34.356
8.87060000 0.018408 -4.750 0.999825 -75.17 0.999825 -75.17 0.018412 34.403
8.87080000 0.018427 -4.804 0.999825 -75.18 0.999825 -75.18 0.018431 34.451
8.87100000 0.018446 -4.859 0.999824 -75.18 0.999824 -75.18 0.018451 34.499
8.87120000 0.018465 -4.914 0.999824 -75.18 0.999824 -75.18 0.018470 34.548
8.87140000 0.018485 -4.970 0.999824 -75.19 0.999824 -75.19 0.018490 34.597
8.87160000 0.018505 -5.026 0.999823 -75.19 0.999823 -75.19 0.018510 34.647
8.87180000 0.018525 -5.083 0.999823 -75.19 0.999823 -75.19 0.018530 34.697
8.87200000 0.018546 -5.140 0.999822 -75.20 0.999822 -75.20 0.018551 34.747
8.87220000 0.018567 -5.197 0.999822 -75.20 0.999822 -75.20 0.018572 34.798
8.87240000 0.018587 -5.255 0.999822 -75.20 0.999822 -75.20 0.018593 34.849
8.87260000 0.018609 -5.314 0.999821 -75.21 0.999821 -75.21 0.018614 34.901
8.87280000 0.018630 -5.373 0.999821 -75.21 0.999821 -75.21 0.018635 34.953
8.87300000 0.018652 -5.433 0.999820 -75.21 0.999820 -75.21 0.018657 35.006
8.87320000 0.018674 -5.493 0.999820 -75.22 0.999820 -75.22 0.018679 35.060
8.87340000 0.018696 -5.554 0.999819 -75.22 0.999819 -75.22 0.018701 35.113
8.87360000 0.018719 -5.615 0.999819 -75.22 0.999819 -75.22 0.018724 35.168
8.87380000 0.018742 -5.677 0.999818 -75.23 0.999818 -75.23 0.018747 35.223
8.87400000 0.018765 -5.739 0.999818 -75.23 0.999818 -75.23 0.018770 35.278
8.87420000 0.018788 -5.802 0.999817 -75.23 0.999817 -75.23 0.018794 35.334
8.87440000 0.018812 -5.866 0.999817 -75.24 0.999817 -75.24 0.018817 35.390
8.87460000 0.018836 -5.930 0.999816 -75.24 0.999816 -75.24 0.018841 35.447
8.87480000 0.018860 -5.995 0.999816 -75.24 0.999816 -75.24 0.018866 35.505
8.87500000 0.018885 -6.060 0.999815 -75.25 0.999815 -75.25 0.018890 35.563
8.87520000 0.018910 -6.126 0.999815 -75.25 0.999815 -75.25 0.018915 35.621
8.87540000 0.018935 -6.192 0.999814 -75.25 0.999814 -75.25 0.018941 35.680
8.87560000 0.018961 -6.260 0.999814 -75.26 0.999814 -75.26 0.018966 35.740
8.87580000 0.018987 -6.327 0.999813 -75.26 0.999813 -75.26 0.018993 35.800
8.87600000 0.019013 -6.396 0.999813 -75.27 0.999813 -75.27 0.019019 35.861
8.87620000 0.019040 -6.465 0.999812 -75.27 0.999812 -75.27 0.019046 35.923
8.87640000 0.019067 -6.535 0.999812 -75.27 0.999812 -75.27 0.019073 35.985
8.87660000 0.019094 -6.605 0.999811 -75.28 0.999811 -75.28 0.019100 36.048
8.87680000 0.019122 -6.676 0.999811 -75.28 0.999811 -75.28 0.019128 36.111
8.87700000 0.019150 -6.748 0.999810 -75.28 0.999810 -75.28 0.019156 36.175
8.87720000 0.019179 -6.821 0.999809 -75.29 0.999809 -75.29 0.019185 36.240
8.87740000 0.019208 -6.894 0.999809 -75.29 0.999809 -75.29 0.019214 36.305
8.87760000 0.019237 -6.968 0.999808 -75.30 0.999808 -75.30 0.019243 36.371
8.87780000 0.019267 -7.043 0.999808 -75.30 0.999808 -75.30 0.019273 36.438
8.87790371 0.019282 -7.082 0.999807 -75.30 0.999807 -75.30 0.019289 36.473
8.87800000 0.019297 -7.118 0.999807 -75.30 0.999807 -75.30 0.019304 36.505
8.87820000 0.019328 -7.195 0.999806 -75.31 0.999806 -75.31 0.019334 36.573