! Sonnet Data File
! From: emgraph Version : 16.52
! From Project: Resonator2_cp
! Data is De-embedded 
! Data File Written: 10/06/2017 13:30:08
!< HDATE 10/06/2017 09:06:26
!< MDATE 10/06/2017 09:06:26
!< PARAMS
!< gap = 86.0
!< Length = 400.0
!< Pwid1 = 2000.0
!< Pwid2 = 2000.0
!< END PARAMS
# GHZ S MA R 35.97000
8.80000000 0.012335 4.6202 0.999921 -74.17 0.999921 -74.17 0.012336 27.068
!< P1 F=8.8 Eeff=(5.36817953 -2.3731e-5) Z0=(35.9853883 8.0522e-5) R=0.0 C=0.0 
!< P2 F=8.8 Eeff=(5.36817953 -2.3731e-5) Z0=(35.9853883 8.0522e-5) R=0.0 C=0.0 
8.80020000 0.012336 4.6122 0.999921 -74.17 0.999921 -74.17 0.012337 27.072
8.80040000 0.012336 4.6042 0.999921 -74.17 0.999921 -74.17 0.012337 27.077
8.80060000 0.012337 4.5961 0.999921 -74.17 0.999921 -74.17 0.012338 27.081
8.80080000 0.012338 4.5881 0.999921 -74.17 0.999921 -74.17 0.012339 27.086
8.80100000 0.012338 4.5800 0.999921 -74.17 0.999921 -74.17 0.012339 27.090
8.80120000 0.012339 4.5719 0.999921 -74.18 0.999921 -74.18 0.012340 27.095
8.80140000 0.012340 4.5637 0.999921 -74.18 0.999921 -74.18 0.012341 27.099
8.80160000 0.012341 4.5556 0.999921 -74.18 0.999921 -74.18 0.012342 27.104
8.80180000 0.012341 4.5474 0.999921 -74.18 0.999921 -74.18 0.012342 27.108
8.80200000 0.012342 4.5392 0.999921 -74.18 0.999921 -74.18 0.012343 27.113
8.80220000 0.012343 4.5310 0.999921 -74.18 0.999921 -74.18 0.012344 27.118
8.80240000 0.012343 4.5228 0.999921 -74.19 0.999921 -74.19 0.012344 27.122
8.80260000 0.012344 4.5145 0.999921 -74.19 0.999921 -74.19 0.012345 27.127
8.80280000 0.012345 4.5063 0.999921 -74.19 0.999921 -74.19 0.012346 27.131
8.80300000 0.012346 4.4980 0.999921 -74.19 0.999921 -74.19 0.012347 27.136
8.80320000 0.012346 4.4897 0.999921 -74.19 0.999921 -74.19 0.012347 27.141
8.80340000 0.012347 4.4813 0.999921 -74.20 0.999921 -74.20 0.012348 27.146
8.80360000 0.012348 4.4730 0.999921 -74.20 0.999921 -74.20 0.012349 27.150
8.80380000 0.012349 4.4646 0.999921 -74.20 0.999921 -74.20 0.012350 27.155
8.80400000 0.012349 4.4562 0.999921 -74.20 0.999921 -74.20 0.012350 27.160
8.80420000 0.012350 4.4478 0.999921 -74.20 0.999921 -74.20 0.012351 27.165
8.80440000 0.012351 4.4394 0.999921 -74.20 0.999921 -74.20 0.012352 27.169
8.80460000 0.012352 4.4310 0.999921 -74.21 0.999921 -74.21 0.012353 27.174
8.80480000 0.012352 4.4225 0.999921 -74.21 0.999921 -74.21 0.012353 27.179
8.80500000 0.012353 4.4140 0.999921 -74.21 0.999921 -74.21 0.012354 27.184
8.80520000 0.012354 4.4055 0.999921 -74.21 0.999921 -74.21 0.012355 27.189
8.80540000 0.012355 4.3970 0.999921 -74.21 0.999921 -74.21 0.012356 27.194
8.80560000 0.012355 4.3884 0.999921 -74.22 0.999921 -74.22 0.012357 27.199
8.80580000 0.012356 4.3798 0.999921 -74.22 0.999921 -74.22 0.012357 27.204
8.80600000 0.012357 4.3713 0.999921 -74.22 0.999921 -74.22 0.012358 27.209
8.80620000 0.012358 4.3626 0.999921 -74.22 0.999921 -74.22 0.012359 27.214
8.80640000 0.012359 4.3540 0.999921 -74.22 0.999921 -74.22 0.012360 27.219
8.80660000 0.012359 4.3454 0.999921 -74.22 0.999921 -74.22 0.012360 27.224
8.80680000 0.012360 4.3367 0.999921 -74.23 0.999921 -74.23 0.012361 27.229
8.80700000 0.012361 4.3280 0.999921 -74.23 0.999921 -74.23 0.012362 27.234
8.80720000 0.012362 4.3193 0.999921 -74.23 0.999921 -74.23 0.012363 27.239
8.80740000 0.012363 4.3105 0.999921 -74.23 0.999921 -74.23 0.012364 27.244
8.80760000 0.012363 4.3018 0.999921 -74.23 0.999921 -74.23 0.012364 27.249
8.80780000 0.012364 4.2930 0.999921 -74.24 0.999921 -74.24 0.012365 27.254
8.80800000 0.012365 4.2842 0.999920 -74.24 0.999920 -74.24 0.012366 27.260
8.80820000 0.012366 4.2753 0.999920 -74.24 0.999920 -74.24 0.012367 27.265
8.80840000 0.012367 4.2665 0.999920 -74.24 0.999920 -74.24 0.012368 27.270
8.80860000 0.012367 4.2576 0.999920 -74.24 0.999920 -74.24 0.012369 27.275
8.80880000 0.012368 4.2487 0.999920 -74.24 0.999920 -74.24 0.012369 27.281
8.80900000 0.012369 4.2398 0.999920 -74.25 0.999920 -74.25 0.012370 27.286
8.80920000 0.012370 4.2309 0.999920 -74.25 0.999920 -74.25 0.012371 27.291
8.80940000 0.012371 4.2219 0.999920 -74.25 0.999920 -74.25 0.012372 27.297
8.80960000 0.012372 4.2129 0.999920 -74.25 0.999920 -74.25 0.012373 27.302
8.80980000 0.012373 4.2039 0.999920 -74.25 0.999920 -74.25 0.012374 27.307
8.81000000 0.012373 4.1949 0.999920 -74.26 0.999920 -74.26 0.012374 27.313
8.81020000 0.012374 4.1858 0.999920 -74.26 0.999920 -74.26 0.012375 27.318
8.81040000 0.012375 4.1767 0.999920 -74.26 0.999920 -74.26 0.012376 27.324
8.81060000 0.012376 4.1676 0.999920 -74.26 0.999920 -74.26 0.012377 27.329
8.81080000 0.012377 4.1585 0.999920 -74.26 0.999920 -74.26 0.012378 27.335
8.81100000 0.012378 4.1494 0.999920 -74.26 0.999920 -74.26 0.012379 27.340
8.81120000 0.012378 4.1402 0.999920 -74.27 0.999920 -74.27 0.012380 27.346
8.81140000 0.012379 4.1310 0.999920 -74.27 0.999920 -74.27 0.012380 27.351
8.81160000 0.012380 4.1218 0.999920 -74.27 0.999920 -74.27 0.012381 27.357
8.81180000 0.012381 4.1125 0.999920 -74.27 0.999920 -74.27 0.012382 27.362
8.81200000 0.012382 4.1032 0.999920 -74.27 0.999920 -74.27 0.012383 27.368
8.81220000 0.012383 4.0939 0.999920 -74.28 0.999920 -74.28 0.012384 27.374
8.81240000 0.012384 4.0846 0.999920 -74.28 0.999920 -74.28 0.012385 27.379
8.81260000 0.012385 4.0753 0.999920 -74.28 0.999920 -74.28 0.012386 27.385
8.81280000 0.012386 4.0659 0.999920 -74.28 0.999920 -74.28 0.012387 27.391
8.81300000 0.012386 4.0565 0.999920 -74.28 0.999920 -74.28 0.012388 27.397
8.81320000 0.012387 4.0471 0.999920 -74.28 0.999920 -74.28 0.012388 27.402
8.81340000 0.012388 4.0376 0.999920 -74.29 0.999920 -74.29 0.012389 27.408
8.81360000 0.012389 4.0282 0.999920 -74.29 0.999920 -74.29 0.012390 27.414
8.81380000 0.012390 4.0187 0.999920 -74.29 0.999920 -74.29 0.012391 27.420
8.81400000 0.012391 4.0092 0.999920 -74.29 0.999920 -74.29 0.012392 27.426
8.81420000 0.012392 3.9996 0.999920 -74.29 0.999920 -74.29 0.012393 27.432
8.81440000 0.012393 3.9900 0.999920 -74.30 0.999920 -74.30 0.012394 27.438
8.81460000 0.012394 3.9804 0.999920 -74.30 0.999920 -74.30 0.012395 27.443
8.81480000 0.012395 3.9708 0.999920 -74.30 0.999920 -74.30 0.012396 27.449
8.81500000 0.012396 3.9612 0.999920 -74.30 0.999920 -74.30 0.012397 27.455
8.81520000 0.012397 3.9515 0.999920 -74.30 0.999920 -74.30 0.012398 27.461
8.81540000 0.012398 3.9418 0.999920 -74.30 0.999920 -74.30 0.012399 27.468
8.81560000 0.012398 3.9320 0.999920 -74.31 0.999920 -74.31 0.012400 27.474
8.81580000 0.012399 3.9223 0.999920 -74.31 0.999920 -74.31 0.012401 27.480
8.81600000 0.012400 3.9125 0.999920 -74.31 0.999920 -74.31 0.012401 27.486
8.81620000 0.012401 3.9027 0.999920 -74.31 0.999920 -74.31 0.012402 27.492
8.81640000 0.012402 3.8928 0.999920 -74.31 0.999920 -74.31 0.012403 27.498
8.81660000 0.012403 3.8830 0.999920 -74.32 0.999920 -74.32 0.012404 27.504
8.81680000 0.012404 3.8731 0.999920 -74.32 0.999920 -74.32 0.012405 27.511
8.81700000 0.012405 3.8632 0.999920 -74.32 0.999920 -74.32 0.012406 27.517
8.81720000 0.012406 3.8532 0.999920 -74.32 0.999920 -74.32 0.012407 27.523
8.81740000 0.012407 3.8432 0.999920 -74.32 0.999920 -74.32 0.012408 27.530
8.81760000 0.012408 3.8332 0.999920 -74.32 0.999920 -74.32 0.012409 27.536
8.81780000 0.012409 3.8232 0.999920 -74.33 0.999920 -74.33 0.012410 27.542
8.81800000 0.012410 3.8131 0.999920 -74.33 0.999920 -74.33 0.012411 27.549
8.81820000 0.012411 3.8030 0.999920 -74.33 0.999920 -74.33 0.012412 27.555
8.81840000 0.012412 3.7929 0.999920 -74.33 0.999920 -74.33 0.012413 27.562
8.81860000 0.012413 3.7827 0.999920 -74.33 0.999920 -74.33 0.012414 27.568
8.81880000 0.012414 3.7726 0.999920 -74.34 0.999920 -74.34 0.012415 27.575
8.81900000 0.012415 3.7624 0.999920 -74.34 0.999920 -74.34 0.012416 27.581
8.81920000 0.012416 3.7521 0.999920 -74.34 0.999920 -74.34 0.012417 27.588
8.81940000 0.012417 3.7418 0.999920 -74.34 0.999920 -74.34 0.012418 27.594
8.81960000 0.012418 3.7315 0.999920 -74.34 0.999920 -74.34 0.012419 27.601
8.81980000 0.012419 3.7212 0.999920 -74.34 0.999920 -74.34 0.012420 27.608
8.82000000 0.012420 3.7109 0.999920 -74.35 0.999920 -74.35 0.012422 27.614
8.82020000 0.012421 3.7005 0.999920 -74.35 0.999920 -74.35 0.012423 27.621
8.82040000 0.012422 3.6901 0.999920 -74.35 0.999920 -74.35 0.012424 27.628
8.82060000 0.012424 3.6796 0.999920 -74.35 0.999920 -74.35 0.012425 27.635
8.82080000 0.012425 3.6691 0.999920 -74.35 0.999920 -74.35 0.012426 27.641
8.82100000 0.012426 3.6586 0.999920 -74.36 0.999920 -74.36 0.012427 27.648
8.82120000 0.012427 3.6481 0.999920 -74.36 0.999920 -74.36 0.012428 27.655
8.82140000 0.012428 3.6375 0.999920 -74.36 0.999920 -74.36 0.012429 27.662
8.82160000 0.012429 3.6269 0.999920 -74.36 0.999920 -74.36 0.012430 27.669
8.82180000 0.012430 3.6162 0.999920 -74.36 0.999920 -74.36 0.012431 27.676
8.82200000 0.012431 3.6056 0.999920 -74.36 0.999920 -74.36 0.012432 27.683
8.82220000 0.012432 3.5949 0.999920 -74.37 0.999920 -74.37 0.012433 27.690
8.82240000 0.012433 3.5841 0.999920 -74.37 0.999920 -74.37 0.012434 27.697
8.82260000 0.012434 3.5734 0.999920 -74.37 0.999920 -74.37 0.012435 27.704
8.82280000 0.012435 3.5626 0.999920 -74.37 0.999920 -74.37 0.012437 27.711
8.82300000 0.012437 3.5517 0.999920 -74.37 0.999920 -74.37 0.012438 27.718
8.82320000 0.012438 3.5409 0.999920 -74.38 0.999920 -74.38 0.012439 27.725
8.82340000 0.012439 3.5300 0.999919 -74.38 0.999919 -74.38 0.012440 27.733
8.82360000 0.012440 3.5191 0.999919 -74.38 0.999919 -74.38 0.012441 27.740
8.82380000 0.012441 3.5081 0.999919 -74.38 0.999919 -74.38 0.012442 27.747
8.82400000 0.012442 3.4971 0.999919 -74.38 0.999919 -74.38 0.012443 27.755
8.82420000 0.012443 3.4861 0.999919 -74.38 0.999919 -74.38 0.012444 27.762
8.82440000 0.012444 3.4750 0.999919 -74.39 0.999919 -74.39 0.012446 27.769
8.82460000 0.012446 3.4639 0.999919 -74.39 0.999919 -74.39 0.012447 27.777
8.82480000 0.012447 3.4528 0.999919 -74.39 0.999919 -74.39 0.012448 27.784
8.82500000 0.012448 3.4416 0.999919 -74.39 0.999919 -74.39 0.012449 27.792
8.82520000 0.012449 3.4304 0.999919 -74.39 0.999919 -74.39 0.012450 27.799
8.82540000 0.012450 3.4191 0.999919 -74.40 0.999919 -74.40 0.012451 27.807
8.82560000 0.012451 3.4079 0.999919 -74.40 0.999919 -74.40 0.012453 27.814
8.82580000 0.012453 3.3966 0.999919 -74.40 0.999919 -74.40 0.012454 27.822
8.82600000 0.012454 3.3852 0.999919 -74.40 0.999919 -74.40 0.012455 27.829
8.82620000 0.012455 3.3738 0.999919 -74.40 0.999919 -74.40 0.012456 27.837
8.82640000 0.012456 3.3624 0.999919 -74.41 0.999919 -74.41 0.012457 27.845
8.82660000 0.012457 3.3510 0.999919 -74.41 0.999919 -74.41 0.012459 27.853
8.82680000 0.012459 3.3395 0.999919 -74.41 0.999919 -74.41 0.012460 27.860
8.82700000 0.012460 3.3279 0.999919 -74.41 0.999919 -74.41 0.012461 27.868
8.82720000 0.012461 3.3164 0.999919 -74.41 0.999919 -74.41 0.012462 27.876
8.82740000 0.012462 3.3048 0.999919 -74.41 0.999919 -74.41 0.012464 27.884
8.82760000 0.012464 3.2931 0.999919 -74.42 0.999919 -74.42 0.012465 27.892
8.82780000 0.012465 3.2814 0.999919 -74.42 0.999919 -74.42 0.012466 27.900
8.82800000 0.012466 3.2697 0.999919 -74.42 0.999919 -74.42 0.012467 27.908
8.82820000 0.012467 3.2580 0.999919 -74.42 0.999919 -74.42 0.012469 27.916
8.82840000 0.012469 3.2462 0.999919 -74.42 0.999919 -74.42 0.012470 27.924
8.82860000 0.012470 3.2344 0.999919 -74.43 0.999919 -74.43 0.012471 27.932
8.82880000 0.012471 3.2225 0.999919 -74.43 0.999919 -74.43 0.012472 27.940
8.82900000 0.012472 3.2106 0.999919 -74.43 0.999919 -74.43 0.012474 27.948
8.82920000 0.012474 3.1986 0.999919 -74.43 0.999919 -74.43 0.012475 27.957
8.82940000 0.012475 3.1866 0.999919 -74.43 0.999919 -74.43 0.012476 27.965
8.82960000 0.012476 3.1746 0.999919 -74.43 0.999919 -74.43 0.012477 27.973
8.82980000 0.012478 3.1626 0.999919 -74.44 0.999919 -74.44 0.012479 27.982
8.83000000 0.012479 3.1504 0.999919 -74.44 0.999919 -74.44 0.012480 27.990
8.83020000 0.012480 3.1383 0.999919 -74.44 0.999919 -74.44 0.012481 27.998
8.83040000 0.012481 3.1261 0.999919 -74.44 0.999919 -74.44 0.012483 28.007
8.83060000 0.012483 3.1139 0.999919 -74.44 0.999919 -74.44 0.012484 28.015
8.83080000 0.012484 3.1016 0.999919 -74.45 0.999919 -74.45 0.012485 28.024
8.83100000 0.012485 3.0893 0.999919 -74.45 0.999919 -74.45 0.012487 28.033
8.83120000 0.012487 3.0770 0.999919 -74.45 0.999919 -74.45 0.012488 28.041
8.83140000 0.012488 3.0646 0.999919 -74.45 0.999919 -74.45 0.012489 28.050
8.83160000 0.012490 3.0521 0.999919 -74.45 0.999919 -74.45 0.012491 28.059
8.83180000 0.012491 3.0396 0.999919 -74.46 0.999919 -74.46 0.012492 28.067
8.83200000 0.012492 3.0271 0.999919 -74.46 0.999919 -74.46 0.012494 28.076
8.83220000 0.012494 3.0146 0.999919 -74.46 0.999919 -74.46 0.012495 28.085
8.83240000 0.012495 3.0019 0.999919 -74.46 0.999919 -74.46 0.012496 28.094
8.83260000 0.012496 2.9893 0.999919 -74.46 0.999919 -74.46 0.012498 28.103
8.83280000 0.012498 2.9766 0.999919 -74.46 0.999919 -74.46 0.012499 28.112
8.83300000 0.012499 2.9639 0.999919 -74.47 0.999919 -74.47 0.012500 28.121
8.83320000 0.012501 2.9511 0.999919 -74.47 0.999919 -74.47 0.012502 28.130
8.83340000 0.012502 2.9382 0.999919 -74.47 0.999919 -74.47 0.012503 28.139
8.83360000 0.012503 2.9254 0.999919 -74.47 0.999919 -74.47 0.012505 28.148
8.83380000 0.012505 2.9124 0.999919 -74.47 0.999919 -74.47 0.012506 28.157
8.83400000 0.012506 2.8995 0.999919 -74.48 0.999919 -74.48 0.012508 28.166
8.83420000 0.012508 2.8865 0.999919 -74.48 0.999919 -74.48 0.012509 28.175
8.83440000 0.012509 2.8734 0.999919 -74.48 0.999919 -74.48 0.012511 28.185
8.83460000 0.012511 2.8603 0.999919 -74.48 0.999919 -74.48 0.012512 28.194
8.83480000 0.012512 2.8472 0.999919 -74.48 0.999919 -74.48 0.012513 28.204
8.83500000 0.012514 2.8340 0.999918 -74.48 0.999918 -74.48 0.012515 28.213
8.83520000 0.012515 2.8207 0.999918 -74.49 0.999918 -74.49 0.012516 28.222
8.83540000 0.012517 2.8074 0.999918 -74.49 0.999918 -74.49 0.012518 28.232
8.83560000 0.012518 2.7941 0.999918 -74.49 0.999918 -74.49 0.012519 28.242
8.83580000 0.012520 2.7807 0.999918 -74.49 0.999918 -74.49 0.012521 28.251
8.83600000 0.012521 2.7673 0.999918 -74.49 0.999918 -74.49 0.012522 28.261
8.83620000 0.012523 2.7538 0.999918 -74.50 0.999918 -74.50 0.012524 28.271
8.83640000 0.012524 2.7403 0.999918 -74.50 0.999918 -74.50 0.012526 28.280
8.83660000 0.012526 2.7267 0.999918 -74.50 0.999918 -74.50 0.012527 28.290
8.83680000 0.012527 2.7130 0.999918 -74.50 0.999918 -74.50 0.012529 28.300
8.83700000 0.012529 2.6994 0.999918 -74.50 0.999918 -74.50 0.012530 28.310
8.83720000 0.012530 2.6856 0.999918 -74.51 0.999918 -74.51 0.012532 28.320
8.83740000 0.012532 2.6718 0.999918 -74.51 0.999918 -74.51 0.012533 28.330
8.83760000 0.012534 2.6580 0.999918 -74.51 0.999918 -74.51 0.012535 28.340
8.83780000 0.012535 2.6441 0.999918 -74.51 0.999918 -74.51 0.012536 28.350
8.83800000 0.012537 2.6302 0.999918 -74.51 0.999918 -74.51 0.012538 28.360
8.83820000 0.012538 2.6162 0.999918 -74.52 0.999918 -74.52 0.012540 28.370
8.83840000 0.012540 2.6021 0.999918 -74.52 0.999918 -74.52 0.012541 28.381
8.83860000 0.012542 2.5880 0.999918 -74.52 0.999918 -74.52 0.012543 28.391
8.83880000 0.012543 2.5739 0.999918 -74.52 0.999918 -74.52 0.012545 28.401
8.83900000 0.012545 2.5597 0.999918 -74.52 0.999918 -74.52 0.012546 28.412
8.83920000 0.012546 2.5454 0.999918 -74.52 0.999918 -74.52 0.012548 28.422
8.83940000 0.012548 2.5311 0.999918 -74.53 0.999918 -74.53 0.012549 28.433
8.83960000 0.012550 2.5168 0.999918 -74.53 0.999918 -74.53 0.012551 28.443
8.83980000 0.012551 2.5023 0.999918 -74.53 0.999918 -74.53 0.012553 28.454
8.84000000 0.012553 2.4879 0.999918 -74.53 0.999918 -74.53 0.012554 28.465
8.84020000 0.012555 2.4733 0.999918 -74.53 0.999918 -74.53 0.012556 28.475
8.84040000 0.012556 2.4588 0.999918 -74.54 0.999918 -74.54 0.012558 28.486
8.84060000 0.012558 2.4441 0.999918 -74.54 0.999918 -74.54 0.012560 28.497
8.84080000 0.012560 2.4294 0.999918 -74.54 0.999918 -74.54 0.012561 28.508
8.84100000 0.012562 2.4147 0.999918 -74.54 0.999918 -74.54 0.012563 28.519
8.84120000 0.012563 2.3998 0.999918 -74.54 0.999918 -74.54 0.012565 28.530
8.84140000 0.012565 2.3850 0.999918 -74.55 0.999918 -74.55 0.012567 28.541
8.84160000 0.012567 2.3700 0.999918 -74.55 0.999918 -74.55 0.012568 28.552
8.84180000 0.012569 2.3550 0.999918 -74.55 0.999918 -74.55 0.012570 28.563
8.84200000 0.012570 2.3400 0.999918 -74.55 0.999918 -74.55 0.012572 28.574
8.84220000 0.012572 2.3249 0.999918 -74.55 0.999918 -74.55 0.012574 28.586
8.84240000 0.012574 2.3097 0.999918 -74.55 0.999918 -74.55 0.012575 28.597
8.84260000 0.012576 2.2945 0.999918 -74.56 0.999918 -74.56 0.012577 28.608
8.84280000 0.012578 2.2792 0.999918 -74.56 0.999918 -74.56 0.012579 28.620
8.84300000 0.012579 2.2638 0.999918 -74.56 0.999918 -74.56 0.012581 28.631
8.84320000 0.012581 2.2484 0.999918 -74.56 0.999918 -74.56 0.012583 28.643
8.84340000 0.012583 2.2330 0.999918 -74.56 0.999918 -74.56 0.012585 28.655
8.84360000 0.012585 2.2174 0.999918 -74.57 0.999918 -74.57 0.012586 28.666
8.84380000 0.012587 2.2018 0.999918 -74.57 0.999918 -74.57 0.012588 28.678
8.84400000 0.012589 2.1862 0.999917 -74.57 0.999917 -74.57 0.012590 28.690
8.84420000 0.012591 2.1704 0.999917 -74.57 0.999917 -74.57 0.012592 28.702
8.84440000 0.012592 2.1546 0.999917 -74.57 0.999917 -74.57 0.012594 28.714
8.84460000 0.012594 2.1388 0.999917 -74.58 0.999917 -74.58 0.012596 28.726
8.84480000 0.012596 2.1229 0.999917 -74.58 0.999917 -74.58 0.012598 28.738
8.84500000 0.012598 2.1069 0.999917 -74.58 0.999917 -74.58 0.012600 28.750
8.84520000 0.012600 2.0908 0.999917 -74.58 0.999917 -74.58 0.012602 28.762
8.84540000 0.012602 2.0747 0.999917 -74.58 0.999917 -74.58 0.012604 28.775
8.84560000 0.012604 2.0585 0.999917 -74.59 0.999917 -74.59 0.012606 28.787
8.84580000 0.012606 2.0422 0.999917 -74.59 0.999917 -74.59 0.012607 28.799
8.84600000 0.012608 2.0259 0.999917 -74.59 0.999917 -74.59 0.012609 28.812
8.84620000 0.012610 2.0095 0.999917 -74.59 0.999917 -74.59 0.012611 28.824
8.84640000 0.012612 1.9931 0.999917 -74.59 0.999917 -74.59 0.012613 28.837
8.84660000 0.012614 1.9765 0.999917 -74.60 0.999917 -74.60 0.012615 28.849
8.84680000 0.012616 1.9599 0.999917 -74.60 0.999917 -74.60 0.012618 28.862
8.84700000 0.012618 1.9433 0.999917 -74.60 0.999917 -74.60 0.012620 28.875
8.84720000 0.012620 1.9265 0.999917 -74.60 0.999917 -74.60 0.012622 28.888
8.84740000 0.012622 1.9097 0.999917 -74.60 0.999917 -74.60 0.012624 28.901
8.84760000 0.012624 1.8928 0.999917 -74.60 0.999917 -74.60 0.012626 28.914
8.84780000 0.012626 1.8759 0.999917 -74.61 0.999917 -74.61 0.012628 28.927
8.84800000 0.012628 1.8588 0.999917 -74.61 0.999917 -74.61 0.012630 28.940
8.84820000 0.012631 1.8417 0.999917 -74.61 0.999917 -74.61 0.012632 28.953
8.84840000 0.012633 1.8245 0.999917 -74.61 0.999917 -74.61 0.012634 28.967
8.84860000 0.012635 1.8073 0.999917 -74.61 0.999917 -74.61 0.012636 28.980
8.84880000 0.012637 1.7899 0.999917 -74.62 0.999917 -74.62 0.012638 28.993
8.84900000 0.012639 1.7725 0.999917 -74.62 0.999917 -74.62 0.012641 29.007
8.84920000 0.012641 1.7551 0.999917 -74.62 0.999917 -74.62 0.012643 29.020
8.84940000 0.012643 1.7375 0.999917 -74.62 0.999917 -74.62 0.012645 29.034
8.84960000 0.012646 1.7199 0.999917 -74.62 0.999917 -74.62 0.012647 29.048
8.84980000 0.012648 1.7021 0.999917 -74.63 0.999917 -74.63 0.012649 29.062
8.85000000 0.012650 1.6843 0.999917 -74.63 0.999917 -74.63 0.012652 29.076
8.85020000 0.012652 1.6665 0.999917 -74.63 0.999917 -74.63 0.012654 29.090
8.85040000 0.012655 1.6485 0.999917 -74.63 0.999917 -74.63 0.012656 29.104
8.85060000 0.012657 1.6305 0.999917 -74.63 0.999917 -74.63 0.012658 29.118
8.85080000 0.012659 1.6124 0.999917 -74.64 0.999917 -74.64 0.012661 29.132
8.85100000 0.012661 1.5942 0.999916 -74.64 0.999916 -74.64 0.012663 29.146
8.85120000 0.012664 1.5759 0.999916 -74.64 0.999916 -74.64 0.012665 29.161
8.85140000 0.012666 1.5575 0.999916 -74.64 0.999916 -74.64 0.012668 29.175
8.85160000 0.012668 1.5391 0.999916 -74.64 0.999916 -74.64 0.012670 29.190
8.85180000 0.012671 1.5205 0.999916 -74.65 0.999916 -74.65 0.012672 29.204
8.85200000 0.012673 1.5019 0.999916 -74.65 0.999916 -74.65 0.012675 29.219
8.85220000 0.012675 1.4832 0.999916 -74.65 0.999916 -74.65 0.012677 29.234
8.85240000 0.012678 1.4644 0.999916 -74.65 0.999916 -74.65 0.012680 29.248
8.85260000 0.012680 1.4455 0.999916 -74.65 0.999916 -74.65 0.012682 29.263
8.85280000 0.012683 1.4265 0.999916 -74.66 0.999916 -74.66 0.012684 29.278
8.85300000 0.012685 1.4075 0.999916 -74.66 0.999916 -74.66 0.012687 29.293
8.85320000 0.012688 1.3883 0.999916 -74.66 0.999916 -74.66 0.012689 29.309
8.85340000 0.012690 1.3691 0.999916 -74.66 0.999916 -74.66 0.012692 29.324
8.85360000 0.012693 1.3498 0.999916 -74.66 0.999916 -74.66 0.012694 29.339
8.85380000 0.012695 1.3304 0.999916 -74.67 0.999916 -74.67 0.012697 29.355
8.85400000 0.012698 1.3109 0.999916 -74.67 0.999916 -74.67 0.012699 29.370
8.85420000 0.012700 1.2913 0.999916 -74.67 0.999916 -74.67 0.012702 29.386
8.85440000 0.012703 1.2716 0.999916 -74.67 0.999916 -74.67 0.012704 29.402
8.85460000 0.012705 1.2518 0.999916 -74.67 0.999916 -74.67 0.012707 29.417
8.85480000 0.012708 1.2319 0.999916 -74.68 0.999916 -74.68 0.012710 29.433
8.85500000 0.012710 1.2119 0.999916 -74.68 0.999916 -74.68 0.012712 29.449
8.85520000 0.012713 1.1918 0.999916 -74.68 0.999916 -74.68 0.012715 29.465
8.85540000 0.012716 1.1716 0.999916 -74.68 0.999916 -74.68 0.012717 29.482
8.85560000 0.012718 1.1514 0.999916 -74.68 0.999916 -74.68 0.012720 29.498
8.85580000 0.012721 1.1310 0.999916 -74.69 0.999916 -74.69 0.012723 29.514
8.85600000 0.012724 1.1105 0.999916 -74.69 0.999916 -74.69 0.012725 29.531
8.85620000 0.012726 1.0899 0.999916 -74.69 0.999916 -74.69 0.012728 29.547
8.85640000 0.012729 1.0693 0.999916 -74.69 0.999916 -74.69 0.012731 29.564
8.85660000 0.012732 1.0485 0.999916 -74.69 0.999916 -74.69 0.012734 29.581
8.85680000 0.012735 1.0276 0.999915 -74.69 0.999915 -74.69 0.012736 29.598
8.85700000 0.012737 1.0066 0.999915 -74.70 0.999915 -74.70 0.012739 29.615
8.85720000 0.012740 0.9855 0.999915 -74.70 0.999915 -74.70 0.012742 29.632
8.85740000 0.012743 0.9643 0.999915 -74.70 0.999915 -74.70 0.012745 29.649
8.85760000 0.012746 0.9430 0.999915 -74.70 0.999915 -74.70 0.012748 29.666
8.85780000 0.012749 0.9216 0.999915 -74.71 0.999915 -74.71 0.012750 29.684
8.85800000 0.012751 0.9001 0.999915 -74.71 0.999915 -74.71 0.012753 29.701
8.85820000 0.012754 0.8785 0.999915 -74.71 0.999915 -74.71 0.012756 29.719
8.85840000 0.012757 0.8567 0.999915 -74.71 0.999915 -74.71 0.012759 29.736
8.85860000 0.012760 0.8349 0.999915 -74.71 0.999915 -74.71 0.012762 29.754
8.85880000 0.012763 0.8129 0.999915 -74.72 0.999915 -74.72 0.012765 29.772
8.85900000 0.012766 0.7908 0.999915 -74.72 0.999915 -74.72 0.012768 29.790
8.85920000 0.012769 0.7686 0.999915 -74.72 0.999915 -74.72 0.012771 29.808
8.85940000 0.012772 0.7463 0.999915 -74.72 0.999915 -74.72 0.012774 29.826
8.85960000 0.012775 0.7239 0.999915 -74.72 0.999915 -74.72 0.012777 29.845
8.85980000 0.012778 0.7014 0.999915 -74.73 0.999915 -74.73 0.012780 29.863
8.86000000 0.012781 0.6787 0.999915 -74.73 0.999915 -74.73 0.012783 29.882
8.86020000 0.012784 0.6559 0.999915 -74.73 0.999915 -74.73 0.012786 29.901
8.86040000 0.012787 0.6330 0.999915 -74.73 0.999915 -74.73 0.012789 29.919
8.86060000 0.012791 0.6100 0.999915 -74.73 0.999915 -74.73 0.012792 29.938
8.86080000 0.012794 0.5869 0.999915 -74.74 0.999915 -74.74 0.012796 29.957
8.86100000 0.012797 0.5636 0.999915 -74.74 0.999915 -74.74 0.012799 29.977
8.86120000 0.012800 0.5402 0.999915 -74.74 0.999915 -74.74 0.012802 29.996
8.86140000 0.012803 0.5167 0.999915 -74.74 0.999915 -74.74 0.012805 30.015
8.86160000 0.012807 0.4931 0.999914 -74.74 0.999914 -74.74 0.012809 30.035
8.86180000 0.012810 0.4693 0.999914 -74.75 0.999914 -74.75 0.012812 30.054
8.86200000 0.012813 0.4454 0.999914 -74.75 0.999914 -74.75 0.012815 30.074
8.86220000 0.012816 0.4214 0.999914 -74.75 0.999914 -74.75 0.012818 30.094
8.86240000 0.012820 0.3972 0.999914 -74.75 0.999914 -74.75 0.012822 30.114
8.86260000 0.012823 0.3729 0.999914 -74.75 0.999914 -74.75 0.012825 30.134
8.86280000 0.012827 0.3485 0.999914 -74.76 0.999914 -74.76 0.012829 30.155
8.86300000 0.012830 0.3239 0.999914 -74.76 0.999914 -74.76 0.012832 30.175
8.86320000 0.012833 0.2992 0.999914 -74.76 0.999914 -74.76 0.012835 30.196
8.86340000 0.012837 0.2744 0.999914 -74.76 0.999914 -74.76 0.012839 30.216
8.86360000 0.012840 0.2494 0.999914 -74.76 0.999914 -74.76 0.012842 30.237
8.86380000 0.012844 0.2243 0.999914 -74.77 0.999914 -74.77 0.012846 30.258
8.86400000 0.012847 0.1991 0.999914 -74.77 0.999914 -74.77 0.012849 30.279
8.86420000 0.012851 0.1737 0.999914 -74.77 0.999914 -74.77 0.012853 30.300
8.86440000 0.012855 0.1481 0.999914 -74.77 0.999914 -74.77 0.012857 30.322
8.86460000 0.012858 0.1224 0.999914 -74.77 0.999914 -74.77 0.012860 30.343
8.86480000 0.012862 0.0966 0.999914 -74.78 0.999914 -74.78 0.012864 30.365
8.86500000 0.012866 0.0706 0.999914 -74.78 0.999914 -74.78 0.012868 30.387
8.86520000 0.012869 0.0445 0.999914 -74.78 0.999914 -74.78 0.012871 30.409
8.86540000 0.012873 0.0182 0.999914 -74.78 0.999914 -74.78 0.012875 30.431
8.86560000 0.012877 0.0000 0.999913 -74.78 0.999913 -74.78 0.012879 30.453
8.86580000 0.012881 -0.035 0.999913 -74.79 0.999913 -74.79 0.012883 30.475
8.86600000 0.012884 -0.062 0.999913 -74.79 0.999913 -74.79 0.012886 30.498
8.86620000 0.012888 -0.088 0.999913 -74.79 0.999913 -74.79 0.012890 30.520
8.86640000 0.012892 -0.115 0.999913 -74.79 0.999913 -74.79 0.012894 30.543
8.86660000 0.012896 -0.143 0.999913 -74.80 0.999913 -74.80 0.012898 30.566
8.86680000 0.012900 -0.170 0.999913 -74.80 0.999913 -74.80 0.012902 30.589
8.86700000 0.012904 -0.198 0.999913 -74.80 0.999913 -74.80 0.012906 30.613
8.86720000 0.012908 -0.225 0.999913 -74.80 0.999913 -74.80 0.012910 30.636
8.86740000 0.012912 -0.253 0.999913 -74.80 0.999913 -74.80 0.012914 30.660
8.86760000 0.012916 -0.281 0.999913 -74.81 0.999913 -74.81 0.012918 30.683
8.86780000 0.012920 -0.309 0.999913 -74.81 0.999913 -74.81 0.012922 30.707
8.86800000 0.012924 -0.338 0.999913 -74.81 0.999913 -74.81 0.012926 30.731
8.86820000 0.012928 -0.366 0.999913 -74.81 0.999913 -74.81 0.012931 30.756
8.86840000 0.012933 -0.395 0.999913 -74.81 0.999913 -74.81 0.012935 30.780
8.86860000 0.012937 -0.424 0.999913 -74.82 0.999913 -74.82 0.012939 30.805
8.86880000 0.012941 -0.453 0.999913 -74.82 0.999913 -74.82 0.012943 30.830
8.86900000 0.012945 -0.482 0.999913 -74.82 0.999913 -74.82 0.012948 30.854
8.86920000 0.012950 -0.512 0.999912 -74.82 0.999912 -74.82 0.012952 30.880
8.86940000 0.012954 -0.541 0.999912 -74.82 0.999912 -74.82 0.012956 30.905
8.86960000 0.012958 -0.571 0.999912 -74.83 0.999912 -74.83 0.012961 30.930
8.86980000 0.012963 -0.601 0.999912 -74.83 0.999912 -74.83 0.012965 30.956
8.87000000 0.012967 -0.631 0.999912 -74.83 0.999912 -74.83 0.012970 30.982
8.87020000 0.012972 -0.662 0.999912 -74.83 0.999912 -74.83 0.012974 31.008
8.87040000 0.012976 -0.692 0.999912 -74.84 0.999912 -74.84 0.012979 31.034
8.87060000 0.012981 -0.723 0.999912 -74.84 0.999912 -74.84 0.012983 31.060
8.87080000 0.012986 -0.754 0.999912 -74.84 0.999912 -74.84 0.012988 31.087
8.87100000 0.012990 -0.785 0.999912 -74.84 0.999912 -74.84 0.012993 31.114
8.87120000 0.012995 -0.816 0.999912 -74.84 0.999912 -74.84 0.012997 31.141
8.87140000 0.013000 -0.848 0.999912 -74.85 0.999912 -74.85 0.013002 31.168
8.87160000 0.013005 -0.880 0.999912 -74.85 0.999912 -74.85 0.013007 31.195
8.87180000 0.013009 -0.912 0.999912 -74.85 0.999912 -74.85 0.013012 31.223
8.87200000 0.013014 -0.944 0.999912 -74.85 0.999912 -74.85 0.013017 31.250
8.87220000 0.013019 -0.976 0.999911 -74.86 0.999911 -74.86 0.013022 31.278
8.87240000 0.013024 -1.009 0.999911 -74.86 0.999911 -74.86 0.013027 31.307
8.87260000 0.013029 -1.042 0.999911 -74.86 0.999911 -74.86 0.013032 31.335
8.87280000 0.013034 -1.075 0.999911 -74.86 0.999911 -74.86 0.013037 31.363
8.87300000 0.013039 -1.108 0.999911 -74.86 0.999911 -74.86 0.013042 31.392
8.87320000 0.013044 -1.141 0.999911 -74.87 0.999911 -74.87 0.013047 31.421
8.87340000 0.013049 -1.175 0.999911 -74.87 0.999911 -74.87 0.013052 31.450
8.87360000 0.013055 -1.209 0.999911 -74.87 0.999911 -74.87 0.013057 31.480
8.87380000 0.013060 -1.243 0.999911 -74.87 0.999911 -74.87 0.013063 31.510
8.87400000 0.013065 -1.277 0.999911 -74.88 0.999911 -74.88 0.013068 31.539
8.87420000 0.013071 -1.312 0.999911 -74.88 0.999911 -74.88 0.013073 31.569
8.87440000 0.013076 -1.347 0.999911 -74.88 0.999911 -74.88 0.013079 31.600
8.87460000 0.013081 -1.382 0.999911 -74.88 0.999911 -74.88 0.013084 31.630
8.87480000 0.013087 -1.417 0.999910 -74.88 0.999910 -74.88 0.013090 31.661
8.87500000 0.013093 -1.453 0.999910 -74.89 0.999910 -74.89 0.013095 31.692
8.87520000 0.013098 -1.489 0.999910 -74.89 0.999910 -74.89 0.013101 31.723
8.87540000 0.013104 -1.525 0.999910 -74.89 0.999910 -74.89 0.013106 31.755
8.87560000 0.013109 -1.561 0.999910 -74.89 0.999910 -74.89 0.013112 31.787
8.87580000 0.013115 -1.598 0.999910 -74.90 0.999910 -74.90 0.013118 31.819
8.87600000 0.013121 -1.634 0.999910 -74.90 0.999910 -74.90 0.013124 31.851
8.87620000 0.013127 -1.672 0.999910 -74.90 0.999910 -74.90 0.013130 31.883
8.87640000 0.013133 -1.709 0.999910 -74.90 0.999910 -74.90 0.013136 31.916
8.87660000 0.013139 -1.747 0.999910 -74.90 0.999910 -74.90 0.013142 31.949
8.87680000 0.013145 -1.784 0.999910 -74.91 0.999910 -74.91 0.013148 31.982
8.87700000 0.013151 -1.823 0.999910 -74.91 0.999910 -74.91 0.013154 32.016
8.87720000 0.013157 -1.861 0.999909 -74.91 0.999909 -74.91 0.013160 32.050
8.87740000 0.013163 -1.900 0.999909 -74.91 0.999909 -74.91 0.013166 32.084
8.87760000 0.013170 -1.939 0.999909 -74.92 0.999909 -74.92 0.013172 32.118
8.87780000 0.013176 -1.978 0.999909 -74.92 0.999909 -74.92 0.013179 32.153
8.87800000 0.013182 -2.018 0.999909 -74.92 0.999909 -74.92 0.013185 32.188
8.87820000 0.013189 -2.058 0.999909 -74.92 0.999909 -74.92 0.013192 32.223
8.87840000 0.013195 -2.098 0.999909 -74.93 0.999909 -74.93 0.013198 32.258