! Sonnet Data File
! From: emgraph Version : 16.52
! From Project: Resonator2_cp
! Data is De-embedded 
! Data File Written: 10/06/2017 09:05:50
!< HDATE 10/05/2017 15:28:06
!< MDATE 10/05/2017 15:28:06
!< PARAMS
!< gap = 26.0
!< Length = 400.0
!< Pwid1 = 2000.0
!< Pwid2 = 2000.0
!< END PARAMS
# GHZ S MA R 35.97000
8.80000000 0.025428 1.6117 0.999673 -74.92 0.999673 -74.92 0.025430 28.550
!< P1 F=8.8 Eeff=(5.36817953 -2.3731e-5) Z0=(35.9853883 8.0522e-5) R=0.0 C=0.0 
!< P2 F=8.8 Eeff=(5.36817953 -2.3731e-5) Z0=(35.9853883 8.0522e-5) R=0.0 C=0.0 
8.80020000 0.025435 1.6006 0.999673 -74.92 0.999673 -74.92 0.025437 28.557
8.80040000 0.025441 1.5894 0.999673 -74.93 0.999673 -74.93 0.025443 28.564
8.80060000 0.025448 1.5782 0.999672 -74.93 0.999672 -74.93 0.025450 28.571
8.80080000 0.025455 1.5670 0.999672 -74.93 0.999672 -74.93 0.025457 28.578
8.80100000 0.025462 1.5558 0.999672 -74.93 0.999672 -74.93 0.025464 28.585
8.80120000 0.025469 1.5445 0.999672 -74.94 0.999672 -74.94 0.025470 28.592
8.80140000 0.025475 1.5332 0.999672 -74.94 0.999672 -74.94 0.025477 28.599
8.80160000 0.025482 1.5218 0.999672 -74.94 0.999672 -74.94 0.025484 28.606
8.80180000 0.025489 1.5105 0.999671 -74.94 0.999671 -74.94 0.025491 28.613
8.80200000 0.025496 1.4990 0.999671 -74.94 0.999671 -74.94 0.025498 28.620
8.80220000 0.025503 1.4876 0.999671 -74.95 0.999671 -74.95 0.025505 28.627
8.80240000 0.025510 1.4761 0.999671 -74.95 0.999671 -74.95 0.025512 28.634
8.80260000 0.025517 1.4646 0.999671 -74.95 0.999671 -74.95 0.025519 28.641
8.80280000 0.025524 1.4531 0.999670 -74.95 0.999670 -74.95 0.025526 28.648
8.80300000 0.025531 1.4415 0.999670 -74.95 0.999670 -74.95 0.025533 28.655
8.80320000 0.025538 1.4299 0.999670 -74.96 0.999670 -74.96 0.025540 28.662
8.80340000 0.025545 1.4183 0.999670 -74.96 0.999670 -74.96 0.025547 28.670
8.80360000 0.025553 1.4067 0.999670 -74.96 0.999670 -74.96 0.025554 28.677
8.80380000 0.025560 1.3950 0.999670 -74.96 0.999670 -74.96 0.025562 28.684
8.80400000 0.025567 1.3832 0.999669 -74.97 0.999669 -74.97 0.025569 28.692
8.80420000 0.025574 1.3715 0.999669 -74.97 0.999669 -74.97 0.025576 28.699
8.80440000 0.025581 1.3597 0.999669 -74.97 0.999669 -74.97 0.025583 28.706
8.80460000 0.025589 1.3478 0.999669 -74.97 0.999669 -74.97 0.025591 28.714
8.80480000 0.025596 1.3360 0.999669 -74.97 0.999669 -74.97 0.025598 28.721
8.80500000 0.025603 1.3241 0.999668 -74.98 0.999668 -74.98 0.025605 28.729
8.80520000 0.025611 1.3121 0.999668 -74.98 0.999668 -74.98 0.025613 28.736
8.80540000 0.025618 1.3002 0.999668 -74.98 0.999668 -74.98 0.025620 28.744
8.80560000 0.025626 1.2882 0.999668 -74.98 0.999668 -74.98 0.025628 28.751
8.80580000 0.025633 1.2761 0.999668 -74.99 0.999668 -74.99 0.025635 28.759
8.80600000 0.025641 1.2641 0.999667 -74.99 0.999667 -74.99 0.025642 28.767
8.80620000 0.025648 1.2519 0.999667 -74.99 0.999667 -74.99 0.025650 28.774
8.80640000 0.025656 1.2398 0.999667 -74.99 0.999667 -74.99 0.025658 28.782
8.80660000 0.025663 1.2276 0.999667 -74.99 0.999667 -74.99 0.025665 28.790
8.80680000 0.025671 1.2154 0.999667 -75.00 0.999667 -75.00 0.025673 28.797
8.80700000 0.025679 1.2032 0.999666 -75.00 0.999666 -75.00 0.025680 28.805
8.80720000 0.025686 1.1909 0.999666 -75.00 0.999666 -75.00 0.025688 28.813
8.80740000 0.025694 1.1785 0.999666 -75.00 0.999666 -75.00 0.025696 28.821
8.80760000 0.025702 1.1662 0.999666 -75.01 0.999666 -75.01 0.025704 28.829
8.80780000 0.025709 1.1538 0.999666 -75.01 0.999666 -75.01 0.025711 28.837
8.80800000 0.025717 1.1414 0.999665 -75.01 0.999665 -75.01 0.025719 28.845
8.80820000 0.025725 1.1289 0.999665 -75.01 0.999665 -75.01 0.025727 28.853
8.80840000 0.025733 1.1164 0.999665 -75.01 0.999665 -75.01 0.025735 28.861
8.80860000 0.025741 1.1038 0.999665 -75.02 0.999665 -75.02 0.025743 28.869
8.80880000 0.025749 1.0912 0.999665 -75.02 0.999665 -75.02 0.025751 28.877
8.80900000 0.025757 1.0786 0.999664 -75.02 0.999664 -75.02 0.025759 28.885
8.80920000 0.025765 1.0660 0.999664 -75.02 0.999664 -75.02 0.025767 28.893
8.80940000 0.025773 1.0533 0.999664 -75.03 0.999664 -75.03 0.025775 28.901
8.80960000 0.025781 1.0405 0.999664 -75.03 0.999664 -75.03 0.025783 28.909
8.80980000 0.025789 1.0277 0.999663 -75.03 0.999663 -75.03 0.025791 28.918
8.81000000 0.025797 1.0149 0.999663 -75.03 0.999663 -75.03 0.025799 28.926
8.81020000 0.025805 1.0021 0.999663 -75.03 0.999663 -75.03 0.025807 28.934
8.81040000 0.025814 0.9892 0.999663 -75.04 0.999663 -75.04 0.025816 28.943
8.81060000 0.025822 0.9762 0.999663 -75.04 0.999663 -75.04 0.025824 28.951
8.81080000 0.025830 0.9633 0.999662 -75.04 0.999662 -75.04 0.025832 28.959
8.81100000 0.025838 0.9503 0.999662 -75.04 0.999662 -75.04 0.025840 28.968
8.81120000 0.025847 0.9372 0.999662 -75.05 0.999662 -75.05 0.025849 28.976
8.81140000 0.025855 0.9241 0.999662 -75.05 0.999662 -75.05 0.025857 28.985
8.81160000 0.025864 0.9110 0.999661 -75.05 0.999661 -75.05 0.025866 28.994
8.81180000 0.025872 0.8978 0.999661 -75.05 0.999661 -75.05 0.025874 29.002
8.81200000 0.025880 0.8846 0.999661 -75.05 0.999661 -75.05 0.025882 29.011
8.81220000 0.025889 0.8713 0.999661 -75.06 0.999661 -75.06 0.025891 29.020
8.81240000 0.025898 0.8580 0.999661 -75.06 0.999661 -75.06 0.025900 29.028
8.81260000 0.025906 0.8447 0.999660 -75.06 0.999660 -75.06 0.025908 29.037
8.81280000 0.025915 0.8313 0.999660 -75.06 0.999660 -75.06 0.025917 29.046
8.81300000 0.025924 0.8179 0.999660 -75.07 0.999660 -75.07 0.025926 29.055
8.81320000 0.025932 0.8044 0.999660 -75.07 0.999660 -75.07 0.025934 29.063
8.81340000 0.025941 0.7909 0.999659 -75.07 0.999659 -75.07 0.025943 29.072
8.81360000 0.025950 0.7773 0.999659 -75.07 0.999659 -75.07 0.025952 29.081
8.81380000 0.025959 0.7637 0.999659 -75.08 0.999659 -75.08 0.025961 29.090
8.81400000 0.025967 0.7501 0.999659 -75.08 0.999659 -75.08 0.025970 29.099
8.81420000 0.025976 0.7364 0.999658 -75.08 0.999658 -75.08 0.025978 29.108
8.81440000 0.025985 0.7226 0.999658 -75.08 0.999658 -75.08 0.025987 29.117
8.81460000 0.025994 0.7089 0.999658 -75.08 0.999658 -75.08 0.025996 29.127
8.81480000 0.026003 0.6951 0.999658 -75.09 0.999658 -75.09 0.026005 29.136
8.81500000 0.026012 0.6812 0.999658 -75.09 0.999658 -75.09 0.026014 29.145
8.81520000 0.026022 0.6673 0.999657 -75.09 0.999657 -75.09 0.026024 29.154
8.81540000 0.026031 0.6533 0.999657 -75.09 0.999657 -75.09 0.026033 29.164
8.81560000 0.026040 0.6393 0.999657 -75.10 0.999657 -75.10 0.026042 29.173
8.81580000 0.026049 0.6253 0.999657 -75.10 0.999657 -75.10 0.026051 29.182
8.81600000 0.026058 0.6112 0.999656 -75.10 0.999656 -75.10 0.026060 29.192
8.81620000 0.026068 0.5970 0.999656 -75.10 0.999656 -75.10 0.026070 29.201
8.81640000 0.026077 0.5828 0.999656 -75.11 0.999656 -75.11 0.026079 29.211
8.81660000 0.026086 0.5686 0.999656 -75.11 0.999656 -75.11 0.026089 29.220
8.81680000 0.026096 0.5543 0.999655 -75.11 0.999655 -75.11 0.026098 29.230
8.81700000 0.026105 0.5400 0.999655 -75.11 0.999655 -75.11 0.026108 29.239
8.81720000 0.026115 0.5256 0.999655 -75.11 0.999655 -75.11 0.026117 29.249
8.81740000 0.026125 0.5112 0.999655 -75.12 0.999655 -75.12 0.026127 29.259
8.81760000 0.026134 0.4967 0.999654 -75.12 0.999654 -75.12 0.026136 29.269
8.81780000 0.026144 0.4822 0.999654 -75.12 0.999654 -75.12 0.026146 29.278
8.81800000 0.026154 0.4676 0.999654 -75.12 0.999654 -75.12 0.026156 29.288
8.81820000 0.026163 0.4530 0.999653 -75.13 0.999653 -75.13 0.026165 29.298
8.81840000 0.026173 0.4383 0.999653 -75.13 0.999653 -75.13 0.026175 29.308
8.81860000 0.026183 0.4236 0.999653 -75.13 0.999653 -75.13 0.026185 29.318
8.81880000 0.026193 0.4088 0.999653 -75.13 0.999653 -75.13 0.026195 29.328
8.81900000 0.026203 0.3940 0.999652 -75.14 0.999652 -75.14 0.026205 29.338
8.81920000 0.026213 0.3791 0.999652 -75.14 0.999652 -75.14 0.026215 29.348
8.81940000 0.026223 0.3642 0.999652 -75.14 0.999652 -75.14 0.026225 29.358
8.81960000 0.026233 0.3492 0.999652 -75.14 0.999652 -75.14 0.026235 29.369
8.81980000 0.026243 0.3342 0.999651 -75.15 0.999651 -75.15 0.026245 29.379
8.82000000 0.026253 0.3191 0.999651 -75.15 0.999651 -75.15 0.026255 29.389
8.82020000 0.026263 0.3040 0.999651 -75.15 0.999651 -75.15 0.026266 29.399
8.82040000 0.026274 0.2888 0.999651 -75.15 0.999651 -75.15 0.026276 29.410
8.82060000 0.026284 0.2736 0.999650 -75.16 0.999650 -75.16 0.026286 29.420
8.82080000 0.026294 0.2583 0.999650 -75.16 0.999650 -75.16 0.026297 29.431
8.82100000 0.026305 0.2430 0.999650 -75.16 0.999650 -75.16 0.026307 29.441
8.82120000 0.026315 0.2276 0.999649 -75.16 0.999649 -75.16 0.026317 29.452
8.82140000 0.026326 0.2121 0.999649 -75.16 0.999649 -75.16 0.026328 29.462
8.82160000 0.026336 0.1966 0.999649 -75.17 0.999649 -75.17 0.026339 29.473
8.82180000 0.026347 0.1810 0.999649 -75.17 0.999649 -75.17 0.026349 29.484
8.82200000 0.026358 0.1654 0.999648 -75.17 0.999648 -75.17 0.026360 29.494
8.82220000 0.026368 0.1498 0.999648 -75.17 0.999648 -75.17 0.026371 29.505
8.82240000 0.026379 0.1340 0.999648 -75.18 0.999648 -75.18 0.026381 29.516
8.82260000 0.026390 0.1182 0.999647 -75.18 0.999647 -75.18 0.026392 29.527
8.82280000 0.026401 0.1024 0.999647 -75.18 0.999647 -75.18 0.026403 29.538
8.82300000 0.026412 0.0865 0.999647 -75.18 0.999647 -75.18 0.026414 29.549
8.82320000 0.026423 0.0706 0.999646 -75.19 0.999646 -75.19 0.026425 29.560
8.82340000 0.026434 0.0545 0.999646 -75.19 0.999646 -75.19 0.026436 29.571
8.82360000 0.026445 0.0385 0.999646 -75.19 0.999646 -75.19 0.026447 29.582
8.82380000 0.026456 0.0223 0.999646 -75.19 0.999646 -75.19 0.026458 29.593
8.82400000 0.026467 0.0062 0.999645 -75.20 0.999645 -75.20 0.026470 29.605
8.82420000 0.026479 -0.010 0.999645 -75.20 0.999645 -75.20 0.026481 29.616
8.82440000 0.026490 -0.026 0.999645 -75.20 0.999645 -75.20 0.026492 29.627
8.82460000 0.026501 -0.043 0.999644 -75.20 0.999644 -75.20 0.026504 29.639
8.82480000 0.026513 -0.059 0.999644 -75.21 0.999644 -75.21 0.026515 29.650
8.82500000 0.026524 -0.076 0.999644 -75.21 0.999644 -75.21 0.026527 29.662
8.82520000 0.026536 -0.092 0.999643 -75.21 0.999643 -75.21 0.026538 29.673
8.82540000 0.026547 -0.109 0.999643 -75.21 0.999643 -75.21 0.026550 29.685
8.82560000 0.026559 -0.126 0.999643 -75.22 0.999643 -75.22 0.026561 29.697
8.82580000 0.026571 -0.142 0.999642 -75.22 0.999642 -75.22 0.026573 29.708
8.82600000 0.026583 -0.159 0.999642 -75.22 0.999642 -75.22 0.026585 29.720
8.82620000 0.026594 -0.176 0.999642 -75.22 0.999642 -75.22 0.026597 29.732
8.82640000 0.026606 -0.193 0.999642 -75.23 0.999642 -75.23 0.026609 29.744
8.82660000 0.026618 -0.210 0.999641 -75.23 0.999641 -75.23 0.026621 29.756
8.82680000 0.026630 -0.227 0.999641 -75.23 0.999641 -75.23 0.026633 29.768
8.82700000 0.026642 -0.244 0.999641 -75.23 0.999641 -75.23 0.026645 29.780
8.82720000 0.026655 -0.261 0.999640 -75.24 0.999640 -75.24 0.026657 29.792
8.82740000 0.026667 -0.278 0.999640 -75.24 0.999640 -75.24 0.026669 29.804
8.82760000 0.026679 -0.296 0.999640 -75.24 0.999640 -75.24 0.026682 29.817
8.82780000 0.026692 -0.313 0.999639 -75.24 0.999639 -75.24 0.026694 29.829
8.82800000 0.026704 -0.331 0.999639 -75.25 0.999639 -75.25 0.026706 29.841
8.82820000 0.026716 -0.348 0.999638 -75.25 0.999638 -75.25 0.026719 29.854
8.82840000 0.026729 -0.366 0.999638 -75.25 0.999638 -75.25 0.026731 29.866
8.82860000 0.026742 -0.383 0.999638 -75.25 0.999638 -75.25 0.026744 29.879
8.82880000 0.026754 -0.401 0.999637 -75.26 0.999637 -75.26 0.026757 29.891
8.82900000 0.026767 -0.419 0.999637 -75.26 0.999637 -75.26 0.026770 29.904
8.82920000 0.026780 -0.437 0.999637 -75.26 0.999637 -75.26 0.026782 29.917
8.82940000 0.026793 -0.455 0.999636 -75.26 0.999636 -75.26 0.026795 29.929
8.82960000 0.026806 -0.473 0.999636 -75.27 0.999636 -75.27 0.026808 29.942
8.82980000 0.026819 -0.491 0.999636 -75.27 0.999636 -75.27 0.026821 29.955
8.83000000 0.026832 -0.509 0.999635 -75.27 0.999635 -75.27 0.026834 29.968
8.83020000 0.026845 -0.527 0.999635 -75.27 0.999635 -75.27 0.026848 29.981
8.83040000 0.026858 -0.545 0.999635 -75.28 0.999635 -75.28 0.026861 29.994
8.83060000 0.026872 -0.564 0.999634 -75.28 0.999634 -75.28 0.026874 30.007
8.83080000 0.026885 -0.582 0.999634 -75.28 0.999634 -75.28 0.026888 30.021
8.83100000 0.026898 -0.601 0.999633 -75.28 0.999633 -75.28 0.026901 30.034
8.83120000 0.026912 -0.619 0.999633 -75.29 0.999633 -75.29 0.026915 30.047
8.83140000 0.026926 -0.638 0.999633 -75.29 0.999633 -75.29 0.026928 30.061
8.83160000 0.026939 -0.656 0.999632 -75.29 0.999632 -75.29 0.026942 30.074
8.83180000 0.026953 -0.675 0.999632 -75.30 0.999632 -75.30 0.026956 30.088
8.83200000 0.026967 -0.694 0.999632 -75.30 0.999632 -75.30 0.026970 30.101
8.83220000 0.026981 -0.713 0.999631 -75.30 0.999631 -75.30 0.026983 30.115
8.83240000 0.026995 -0.732 0.999631 -75.30 0.999631 -75.30 0.026997 30.129
8.83260000 0.027009 -0.751 0.999630 -75.31 0.999630 -75.31 0.027012 30.142
8.83280000 0.027023 -0.770 0.999630 -75.31 0.999630 -75.31 0.027026 30.156
8.83300000 0.027037 -0.790 0.999630 -75.31 0.999630 -75.31 0.027040 30.170
8.83320000 0.027052 -0.809 0.999629 -75.31 0.999629 -75.31 0.027054 30.184
8.83340000 0.027066 -0.828 0.999629 -75.32 0.999629 -75.32 0.027069 30.198
8.83360000 0.027080 -0.848 0.999628 -75.32 0.999628 -75.32 0.027083 30.212
8.83380000 0.027095 -0.868 0.999628 -75.32 0.999628 -75.32 0.027098 30.227
8.83400000 0.027110 -0.887 0.999628 -75.32 0.999628 -75.32 0.027112 30.241
8.83420000 0.027124 -0.907 0.999627 -75.33 0.999627 -75.33 0.027127 30.255
8.83440000 0.027139 -0.927 0.999627 -75.33 0.999627 -75.33 0.027142 30.270
8.83460000 0.027154 -0.947 0.999626 -75.33 0.999626 -75.33 0.027157 30.284
8.83480000 0.027169 -0.967 0.999626 -75.33 0.999626 -75.33 0.027172 30.299
8.83500000 0.027184 -0.987 0.999626 -75.34 0.999626 -75.34 0.027187 30.313
8.83520000 0.027199 -1.007 0.999625 -75.34 0.999625 -75.34 0.027202 30.328
8.83540000 0.027215 -1.027 0.999625 -75.34 0.999625 -75.34 0.027217 30.343
8.83560000 0.027230 -1.048 0.999624 -75.35 0.999624 -75.35 0.027233 30.358
8.83580000 0.027245 -1.068 0.999624 -75.35 0.999624 -75.35 0.027248 30.373
8.83600000 0.027261 -1.089 0.999623 -75.35 0.999623 -75.35 0.027264 30.388
8.83620000 0.027277 -1.109 0.999623 -75.35 0.999623 -75.35 0.027279 30.403
8.83640000 0.027292 -1.130 0.999623 -75.36 0.999623 -75.36 0.027295 30.418
8.83660000 0.027308 -1.151 0.999622 -75.36 0.999622 -75.36 0.027311 30.433
8.83680000 0.027324 -1.172 0.999622 -75.36 0.999622 -75.36 0.027327 30.449
8.83700000 0.027340 -1.193 0.999621 -75.36 0.999621 -75.36 0.027343 30.464
8.83720000 0.027356 -1.214 0.999621 -75.37 0.999621 -75.37 0.027359 30.480
8.83740000 0.027372 -1.235 0.999620 -75.37 0.999620 -75.37 0.027375 30.495
8.83760000 0.027388 -1.256 0.999620 -75.37 0.999620 -75.37 0.027391 30.511
8.83780000 0.027405 -1.277 0.999619 -75.38 0.999619 -75.38 0.027408 30.527
8.83800000 0.027421 -1.299 0.999619 -75.38 0.999619 -75.38 0.027424 30.542
8.83820000 0.027438 -1.320 0.999618 -75.38 0.999618 -75.38 0.027441 30.558
8.83840000 0.027455 -1.342 0.999618 -75.38 0.999618 -75.38 0.027458 30.574
8.83860000 0.027471 -1.364 0.999618 -75.39 0.999618 -75.39 0.027474 30.590
8.83880000 0.027488 -1.385 0.999617 -75.39 0.999617 -75.39 0.027491 30.606
8.83900000 0.027505 -1.407 0.999617 -75.39 0.999617 -75.39 0.027508 30.623
8.83920000 0.027522 -1.429 0.999616 -75.40 0.999616 -75.40 0.027525 30.639
8.83940000 0.027540 -1.451 0.999616 -75.40 0.999616 -75.40 0.027543 30.655
8.83960000 0.027557 -1.474 0.999615 -75.40 0.999615 -75.40 0.027560 30.672
8.83980000 0.027574 -1.496 0.999615 -75.40 0.999615 -75.40 0.027577 30.688
8.84000000 0.027592 -1.518 0.999614 -75.41 0.999614 -75.41 0.027595 30.705
8.84020000 0.027609 -1.541 0.999614 -75.41 0.999614 -75.41 0.027613 30.722
8.84040000 0.027627 -1.564 0.999613 -75.41 0.999613 -75.41 0.027630 30.739
8.84060000 0.027645 -1.586 0.999613 -75.42 0.999613 -75.42 0.027648 30.756
8.84080000 0.027663 -1.609 0.999612 -75.42 0.999612 -75.42 0.027666 30.773
8.84100000 0.027681 -1.632 0.999612 -75.42 0.999612 -75.42 0.027684 30.790
8.84120000 0.027699 -1.655 0.999611 -75.42 0.999611 -75.42 0.027703 30.807
8.84140000 0.027718 -1.678 0.999611 -75.43 0.999611 -75.43 0.027721 30.824
8.84160000 0.027736 -1.701 0.999610 -75.43 0.999610 -75.43 0.027739 30.842
8.84180000 0.027755 -1.725 0.999609 -75.43 0.999609 -75.43 0.027758 30.859
8.84200000 0.027773 -1.748 0.999609 -75.44 0.999609 -75.44 0.027777 30.877
8.84220000 0.027792 -1.772 0.999608 -75.44 0.999608 -75.44 0.027795 30.894
8.84240000 0.027811 -1.796 0.999608 -75.44 0.999608 -75.44 0.027814 30.912
8.84260000 0.027830 -1.819 0.999607 -75.44 0.999607 -75.44 0.027833 30.930
8.84280000 0.027849 -1.843 0.999607 -75.45 0.999607 -75.45 0.027853 30.948
8.84300000 0.027869 -1.867 0.999606 -75.45 0.999606 -75.45 0.027872 30.966
8.84320000 0.027888 -1.891 0.999606 -75.45 0.999606 -75.45 0.027891 30.984
8.84340000 0.027908 -1.916 0.999605 -75.46 0.999605 -75.46 0.027911 31.002
8.84360000 0.027927 -1.940 0.999605 -75.46 0.999605 -75.46 0.027931 31.021
8.84380000 0.027947 -1.965 0.999604 -75.46 0.999604 -75.46 0.027951 31.039
8.84400000 0.027967 -1.989 0.999603 -75.47 0.999603 -75.47 0.027971 31.058
8.84420000 0.027987 -2.014 0.999603 -75.47 0.999603 -75.47 0.027991 31.076
8.84440000 0.028008 -2.039 0.999602 -75.47 0.999602 -75.47 0.028011 31.095
8.84460000 0.028028 -2.064 0.999602 -75.47 0.999602 -75.47 0.028031 31.114
8.84480000 0.028048 -2.089 0.999601 -75.48 0.999601 -75.48 0.028052 31.133
8.84500000 0.028069 -2.114 0.999600 -75.48 0.999600 -75.48 0.028072 31.152
8.84520000 0.028090 -2.139 0.999600 -75.48 0.999600 -75.48 0.028093 31.171
8.84540000 0.028111 -2.165 0.999599 -75.49 0.999599 -75.49 0.028114 31.190
8.84560000 0.028132 -2.191 0.999599 -75.49 0.999599 -75.49 0.028135 31.210
8.84580000 0.028153 -2.216 0.999598 -75.49 0.999598 -75.49 0.028157 31.229
8.84600000 0.028175 -2.242 0.999597 -75.50 0.999597 -75.50 0.028178 31.249
8.84620000 0.028196 -2.268 0.999597 -75.50 0.999597 -75.50 0.028200 31.269
8.84640000 0.028218 -2.294 0.999596 -75.50 0.999596 -75.50 0.028221 31.288
8.84660000 0.028240 -2.320 0.999596 -75.51 0.999596 -75.51 0.028243 31.308
8.84680000 0.028262 -2.347 0.999595 -75.51 0.999595 -75.51 0.028265 31.328
8.84700000 0.028284 -2.373 0.999594 -75.51 0.999594 -75.51 0.028287 31.349
8.84720000 0.028306 -2.400 0.999594 -75.52 0.999594 -75.52 0.028310 31.369
8.84740000 0.028328 -2.427 0.999593 -75.52 0.999593 -75.52 0.028332 31.389
8.84760000 0.028351 -2.454 0.999592 -75.52 0.999592 -75.52 0.028355 31.410
8.84780000 0.028374 -2.481 0.999592 -75.52 0.999592 -75.52 0.028377 31.430
8.84800000 0.028397 -2.508 0.999591 -75.53 0.999591 -75.53 0.028400 31.451
8.84820000 0.028420 -2.535 0.999590 -75.53 0.999590 -75.53 0.028423 31.472
8.84840000 0.028443 -2.563 0.999590 -75.53 0.999590 -75.53 0.028447 31.493
8.84860000 0.028467 -2.590 0.999589 -75.54 0.999589 -75.54 0.028470 31.514
8.84880000 0.028490 -2.618 0.999588 -75.54 0.999588 -75.54 0.028494 31.535
8.84900000 0.028514 -2.646 0.999588 -75.54 0.999588 -75.54 0.028518 31.557
8.84920000 0.028538 -2.674 0.999587 -75.55 0.999587 -75.55 0.028542 31.578
8.84940000 0.028562 -2.702 0.999586 -75.55 0.999586 -75.55 0.028566 31.600
8.84960000 0.028586 -2.731 0.999585 -75.55 0.999585 -75.55 0.028590 31.621
8.84980000 0.028611 -2.759 0.999585 -75.56 0.999585 -75.56 0.028615 31.643
8.85000000 0.028636 -2.788 0.999584 -75.56 0.999584 -75.56 0.028639 31.665
8.85020000 0.028660 -2.817 0.999583 -75.56 0.999583 -75.56 0.028664 31.687
8.85040000 0.028686 -2.846 0.999582 -75.57 0.999582 -75.57 0.028689 31.709
8.85060000 0.028711 -2.875 0.999582 -75.57 0.999582 -75.57 0.028715 31.732
8.85080000 0.028736 -2.904 0.999581 -75.57 0.999581 -75.57 0.028740 31.754
8.85100000 0.028762 -2.933 0.999580 -75.58 0.999580 -75.58 0.028766 31.777
8.85120000 0.028788 -2.963 0.999579 -75.58 0.999579 -75.58 0.028792 31.800
8.85140000 0.028814 -2.993 0.999579 -75.58 0.999579 -75.58 0.028818 31.823
8.85160000 0.028840 -3.023 0.999578 -75.59 0.999578 -75.59 0.028844 31.846
8.85180000 0.028866 -3.053 0.999577 -75.59 0.999577 -75.59 0.028870 31.869
8.85200000 0.028893 -3.083 0.999576 -75.59 0.999576 -75.59 0.028897 31.892
8.85220000 0.028920 -3.113 0.999576 -75.60 0.999576 -75.60 0.028924 31.916
8.85240000 0.028947 -3.144 0.999575 -75.60 0.999575 -75.60 0.028951 31.939
8.85260000 0.028974 -3.175 0.999574 -75.60 0.999574 -75.60 0.028978 31.963
8.85280000 0.029002 -3.206 0.999573 -75.61 0.999573 -75.61 0.029006 31.987
8.85300000 0.029029 -3.237 0.999572 -75.61 0.999572 -75.61 0.029033 32.011
8.85320000 0.029057 -3.268 0.999571 -75.61 0.999571 -75.61 0.029061 32.035
8.85340000 0.029085 -3.299 0.999571 -75.62 0.999571 -75.62 0.029090 32.059
8.85360000 0.029114 -3.331 0.999570 -75.62 0.999570 -75.62 0.029118 32.084
8.85380000 0.029142 -3.363 0.999569 -75.63 0.999569 -75.63 0.029147 32.108
8.85400000 0.029171 -3.395 0.999568 -75.63 0.999568 -75.63 0.029175 32.133
8.85420000 0.029200 -3.427 0.999567 -75.63 0.999567 -75.63 0.029205 32.158
8.85440000 0.029230 -3.459 0.999566 -75.64 0.999566 -75.64 0.029234 32.183
8.85460000 0.029259 -3.492 0.999565 -75.64 0.999565 -75.64 0.029263 32.208
8.85480000 0.029289 -3.525 0.999564 -75.64 0.999564 -75.64 0.029293 32.234
8.85500000 0.029319 -3.557 0.999564 -75.65 0.999564 -75.65 0.029323 32.259
8.85520000 0.029349 -3.591 0.999563 -75.65 0.999563 -75.65 0.029354 32.285
8.85540000 0.029380 -3.624 0.999562 -75.65 0.999562 -75.65 0.029384 32.311
8.85560000 0.029411 -3.657 0.999561 -75.66 0.999561 -75.66 0.029415 32.337
8.85580000 0.029442 -3.691 0.999560 -75.66 0.999560 -75.66 0.029446 32.363
8.85600000 0.029473 -3.725 0.999559 -75.67 0.999559 -75.67 0.029477 32.389
8.85620000 0.029505 -3.759 0.999558 -75.67 0.999558 -75.67 0.029509 32.416
8.85640000 0.029536 -3.793 0.999557 -75.67 0.999557 -75.67 0.029541 32.442
8.85660000 0.029569 -3.828 0.999556 -75.68 0.999556 -75.68 0.029573 32.469
8.85680000 0.029601 -3.862 0.999555 -75.68 0.999555 -75.68 0.029605 32.496
8.85700000 0.029634 -3.897 0.999554 -75.68 0.999554 -75.68 0.029638 32.524
8.85720000 0.029667 -3.932 0.999553 -75.69 0.999553 -75.69 0.029671 32.551
8.85740000 0.029700 -3.968 0.999552 -75.69 0.999552 -75.69 0.029704 32.578
8.85760000 0.029733 -4.003 0.999551 -75.70 0.999551 -75.70 0.029738 32.606
8.85780000 0.029767 -4.039 0.999550 -75.70 0.999550 -75.70 0.029772 32.634
8.85800000 0.029801 -4.075 0.999549 -75.70 0.999549 -75.70 0.029806 32.662
8.85820000 0.029836 -4.111 0.999548 -75.71 0.999548 -75.71 0.029840 32.690
8.85840000 0.029870 -4.147 0.999547 -75.71 0.999547 -75.71 0.029875 32.719
8.85860000 0.029905 -4.184 0.999546 -75.72 0.999546 -75.72 0.029910 32.747
8.85880000 0.029941 -4.221 0.999545 -75.72 0.999545 -75.72 0.029946 32.776
8.85900000 0.029976 -4.258 0.999543 -75.72 0.999543 -75.72 0.029981 32.805
8.85920000 0.030012 -4.295 0.999542 -75.73 0.999542 -75.73 0.030017 32.834
8.85940000 0.030049 -4.333 0.999541 -75.73 0.999541 -75.73 0.030054 32.864
8.85960000 0.030085 -4.371 0.999540 -75.74 0.999540 -75.74 0.030090 32.893
8.85980000 0.030122 -4.409 0.999539 -75.74 0.999539 -75.74 0.030127 32.923
8.86000000 0.030160 -4.447 0.999538 -75.74 0.999538 -75.74 0.030165 32.953
8.86020000 0.030197 -4.485 0.999537 -75.75 0.999537 -75.75 0.030202 32.983
8.86040000 0.030235 -4.524 0.999535 -75.75 0.999535 -75.75 0.030241 33.014
8.86060000 0.030274 -4.563 0.999534 -75.76 0.999534 -75.76 0.030279 33.044
8.86080000 0.030313 -4.602 0.999533 -75.76 0.999533 -75.76 0.030318 33.075
8.86100000 0.030352 -4.642 0.999532 -75.76 0.999532 -75.76 0.030357 33.106
8.86120000 0.030391 -4.682 0.999530 -75.77 0.999530 -75.77 0.030396 33.137
8.86140000 0.030431 -4.722 0.999529 -75.77 0.999529 -75.77 0.030436 33.168
8.86160000 0.030471 -4.762 0.999528 -75.78 0.999528 -75.78 0.030476 33.200
8.86180000 0.030512 -4.803 0.999527 -75.78 0.999527 -75.78 0.030517 33.232
8.86200000 0.030553 -4.843 0.999525 -75.79 0.999525 -75.79 0.030558 33.264
8.86220000 0.030594 -4.884 0.999524 -75.79 0.999524 -75.79 0.030600 33.296
8.86240000 0.030636 -4.926 0.999523 -75.79 0.999523 -75.79 0.030641 33.329
8.86260000 0.030678 -4.967 0.999521 -75.80 0.999521 -75.80 0.030684 33.361
8.86280000 0.030721 -5.009 0.999520 -75.80 0.999520 -75.80 0.030726 33.394
8.86300000 0.030764 -5.051 0.999519 -75.81 0.999519 -75.81 0.030769 33.427
8.86320000 0.030807 -5.094 0.999517 -75.81 0.999517 -75.81 0.030813 33.461
8.86340000 0.030851 -5.137 0.999516 -75.82 0.999516 -75.82 0.030857 33.494
8.86360000 0.030896 -5.180 0.999514 -75.82 0.999514 -75.82 0.030901 33.528
8.86380000 0.030941 -5.223 0.999513 -75.83 0.999513 -75.83 0.030946 33.562
8.86400000 0.030986 -5.267 0.999512 -75.83 0.999512 -75.83 0.030991 33.596
8.86420000 0.031031 -5.311 0.999510 -75.83 0.999510 -75.83 0.031037 33.631
8.86440000 0.031078 -5.355 0.999509 -75.84 0.999509 -75.84 0.031083 33.666
8.86460000 0.031124 -5.399 0.999507 -75.84 0.999507 -75.84 0.031130 33.701
8.86480000 0.031171 -5.444 0.999506 -75.85 0.999506 -75.85 0.031177 33.736
8.86500000 0.031219 -5.489 0.999504 -75.85 0.999504 -75.85 0.031225 33.772
8.86520000 0.031267 -5.535 0.999502 -75.86 0.999502 -75.86 0.031273 33.807
8.86540000 0.031316 -5.580 0.999501 -75.86 0.999501 -75.86 0.031322 33.843
8.86560000 0.031365 -5.627 0.999499 -75.87 0.999499 -75.87 0.031371 33.880
8.86580000 0.031415 -5.673 0.999498 -75.87 0.999498 -75.87 0.031421 33.916
8.86600000 0.031465 -5.720 0.999496 -75.88 0.999496 -75.88 0.031471 33.953
8.86620000 0.031516 -5.767 0.999494 -75.88 0.999494 -75.88 0.031522 33.990
8.86640000 0.031567 -5.814 0.999493 -75.89 0.999493 -75.89 0.031573 34.028
8.86660000 0.031619 -5.862 0.999491 -75.89 0.999491 -75.89 0.031625 34.065
8.86680000 0.031671 -5.910 0.999489 -75.90 0.999489 -75.90 0.031677 34.103
8.86700000 0.031724 -5.959 0.999488 -75.90 0.999488 -75.90 0.031730 34.141
8.86720000 0.031778 -6.007 0.999486 -75.91 0.999486 -75.91 0.031784 34.180
8.86740000 0.031832 -6.057 0.999484 -75.91 0.999484 -75.91 0.031838 34.218
8.86760000 0.031886 -6.106 0.999482 -75.92 0.999482 -75.92 0.031893 34.257
8.86780000 0.031942 -6.156 0.999480 -75.92 0.999480 -75.92 0.031948 34.297
8.86800000 0.031998 -6.206 0.999478 -75.93 0.999478 -75.93 0.032004 34.336
8.86820000 0.032054 -6.257 0.999477 -75.93 0.999477 -75.93 0.032061 34.376
8.86840000 0.032112 -6.308 0.999475 -75.94 0.999475 -75.94 0.032118 34.416
8.86860000 0.032170 -6.359 0.999473 -75.94 0.999473 -75.94 0.032176 34.457
8.86880000 0.032228 -6.411 0.999471 -75.95 0.999471 -75.95 0.032235 34.498
8.86900000 0.032287 -6.463 0.999469 -75.95 0.999469 -75.95 0.032294 34.539
8.86920000 0.032347 -6.516 0.999467 -75.96 0.999467 -75.96 0.032354 34.580
8.86940000 0.032408 -6.569 0.999465 -75.97 0.999465 -75.97 0.032415 34.622
8.86960000 0.032469 -6.622 0.999463 -75.97 0.999463 -75.97 0.032476 34.664
8.86980000 0.032531 -6.676 0.999461 -75.98 0.999461 -75.98 0.032539 34.706
8.87000000 0.032594 -6.730 0.999458 -75.98 0.999458 -75.98 0.032601 34.749
8.87020000 0.032658 -6.785 0.999456 -75.99 0.999456 -75.99 0.032665 34.792
8.87040000 0.032722 -6.840 0.999454 -75.99 0.999454 -75.99 0.032729 34.835
8.87060000 0.032787 -6.895 0.999452 -76.00 0.999452 -76.00 0.032795 34.879
8.87080000 0.032853 -6.951 0.999450 -76.01 0.999450 -76.01 0.032861 34.923
8.87100000 0.032920 -7.007 0.999447 -76.01 0.999447 -76.01 0.032927 34.967
8.87120000 0.032988 -7.064 0.999445 -76.02 0.999445 -76.02 0.032995 35.012
8.87140000 0.033056 -7.122 0.999443 -76.02 0.999443 -76.02 0.033063 35.057
8.87160000 0.033125 -7.179 0.999440 -76.03 0.999440 -76.03 0.033133 35.102
8.87180000 0.033195 -7.237 0.999438 -76.04 0.999438 -76.04 0.033203 35.148
8.87200000 0.033266 -7.296 0.999435 -76.04 0.999435 -76.04 0.033274 35.194
8.87220000 0.033338 -7.355 0.999433 -76.05 0.999433 -76.05 0.033346 35.240
8.87240000 0.033411 -7.415 0.999430 -76.05 0.999430 -76.05 0.033419 35.287
8.87260000 0.033485 -7.475 0.999428 -76.06 0.999428 -76.06 0.033493 35.334
8.87280000 0.033559 -7.535 0.999425 -76.07 0.999425 -76.07 0.033567 35.382
8.87300000 0.033635 -7.596 0.999423 -76.07 0.999423 -76.07 0.033643 35.430
8.87320000 0.033712 -7.658 0.999420 -76.08 0.999420 -76.08 0.033720 35.478
8.87340000 0.033789 -7.720 0.999417 -76.09 0.999417 -76.09 0.033798 35.527
8.87360000 0.033868 -7.783 0.999414 -76.09 0.999414 -76.09 0.033876 35.576
8.87380000 0.033948 -7.846 0.999412 -76.10 0.999412 -76.10 0.033956 35.625
8.87400000 0.034029 -7.910 0.999409 -76.11 0.999409 -76.11 0.034037 35.675
8.87420000 0.034111 -7.974 0.999406 -76.11 0.999406 -76.11 0.034119 35.726
8.87440000 0.034194 -8.039 0.999403 -76.12 0.999403 -76.12 0.034202 35.776
8.87450321 0.034237 -8.072 0.999401 -76.12 0.999401 -76.12 0.034246 35.803
8.87460000 0.034278 -8.104 0.999400 -76.13 0.999400 -76.13 0.034287 35.827
8.87480000 0.034363 -8.170 0.999397 -76.13 0.999397 -76.13 0.034372 35.879
8.87500000 0.034450 -8.236 0.999394 -76.14 0.999394 -76.14 0.034459 35.931
8.87519031 0.034533 -8.300 0.999391 -76.15 0.999391 -76.15 0.034542 35.981
8.87520000 0.034538 -8.303 0.999390 -76.15 0.999390 -76.15 0.034547 35.983
8.87540000 0.034627 -8.371 0.999387 -76.16 0.999387 -76.16 0.034636 36.036
8.87560000 0.034717 -8.439 0.999384 -76.16 0.999384 -76.16 0.034726 36.089
8.87580000 0.034809 -8.508 0.999381 -76.17 0.999381 -76.17 0.034818 36.143
8.87586167 0.034837 -8.529 0.999380 -76.17 0.999380 -76.17 0.034846 36.159
8.87600000 0.034901 -8.577 0.999377 -76.18 0.999377 -76.18 0.034911 36.197
8.87620000 0.034996 -8.647 0.999374 -76.19 0.999374 -76.19 0.035005 36.251
8.87640000 0.035091 -8.718 0.999370 -76.19 0.999370 -76.19 0.035101 36.306
8.87651764 0.035148 -8.760 0.999368 -76.20 0.999368 -76.20 0.035158 36.339
8.87660000 0.035188 -8.789 0.999367 -76.20 0.999367 -76.20 0.035198 36.362
8.87680000 0.035287 -8.861 0.999363 -76.21 0.999363 -76.21 0.035296 36.418
8.87700000 0.035387 -8.934 0.999359 -76.22 0.999359 -76.22 0.035396 36.474
8.87715858 0.035467 -8.992 0.999356 -76.22 0.999356 -76.22 0.035477 36.519
8.87720000 0.035488 -9.007 0.999356 -76.22 0.999356 -76.22 0.035498 36.531
8.87740000 0.035591 -9.081 0.999352 -76.23 0.999352 -76.23 0.035601 36.589