! Sonnet Data File
! From: emgraph Version : 16.52
! From Project: Resonator2_cp
! Data is De-embedded 
! Data File Written: 10/06/2017 09:05:50
!< HDATE 10/05/2017 15:28:06
!< MDATE 10/05/2017 15:28:06
!< PARAMS
!< gap = 16.0
!< Length = 400.0
!< Pwid1 = 2000.0
!< Pwid2 = 2000.0
!< END PARAMS
# GHZ S MA R 35.97000
8.80000000 0.033485 0.4640 0.999435 -75.38 0.999435 -75.38 0.033487 28.776
!< P1 F=8.8 Eeff=(5.36817953 -2.3731e-5) Z0=(35.9853883 8.0522e-5) R=0.0 C=0.0 
!< P2 F=8.8 Eeff=(5.36817953 -2.3731e-5) Z0=(35.9853883 8.0522e-5) R=0.0 C=0.0 
8.80020000 0.033499 0.4520 0.999434 -75.38 0.999434 -75.38 0.033501 28.783
8.80040000 0.033512 0.4399 0.999434 -75.39 0.999434 -75.39 0.033514 28.790
8.80060000 0.033526 0.4278 0.999433 -75.39 0.999433 -75.39 0.033528 28.797
8.80080000 0.033539 0.4157 0.999433 -75.39 0.999433 -75.39 0.033541 28.804
8.80100000 0.033553 0.4035 0.999433 -75.39 0.999433 -75.39 0.033555 28.811
8.80120000 0.033567 0.3914 0.999432 -75.40 0.999432 -75.40 0.033569 28.818
8.80140000 0.033580 0.3791 0.999432 -75.40 0.999432 -75.40 0.033583 28.825
8.80160000 0.033594 0.3669 0.999431 -75.40 0.999431 -75.40 0.033596 28.832
8.80180000 0.033608 0.3546 0.999431 -75.40 0.999431 -75.40 0.033610 28.839
8.80200000 0.033622 0.3423 0.999430 -75.41 0.999430 -75.41 0.033624 28.847
8.80220000 0.033636 0.3299 0.999430 -75.41 0.999430 -75.41 0.033638 28.854
8.80240000 0.033650 0.3175 0.999429 -75.41 0.999429 -75.41 0.033652 28.861
8.80260000 0.033664 0.3051 0.999429 -75.41 0.999429 -75.41 0.033666 28.868
8.80280000 0.033678 0.2926 0.999428 -75.42 0.999428 -75.42 0.033680 28.875
8.80300000 0.033692 0.2801 0.999428 -75.42 0.999428 -75.42 0.033695 28.883
8.80320000 0.033707 0.2676 0.999427 -75.42 0.999427 -75.42 0.033709 28.890
8.80340000 0.033721 0.2550 0.999427 -75.42 0.999427 -75.42 0.033723 28.897
8.80360000 0.033735 0.2424 0.999426 -75.43 0.999426 -75.43 0.033738 28.905
8.80380000 0.033750 0.2298 0.999426 -75.43 0.999426 -75.43 0.033752 28.912
8.80400000 0.033764 0.2171 0.999425 -75.43 0.999425 -75.43 0.033767 28.920
8.80420000 0.033779 0.2044 0.999425 -75.44 0.999425 -75.44 0.033781 28.927
8.80440000 0.033793 0.1917 0.999424 -75.44 0.999424 -75.44 0.033796 28.934
8.80460000 0.033808 0.1789 0.999424 -75.44 0.999424 -75.44 0.033810 28.942
8.80480000 0.033823 0.1661 0.999423 -75.44 0.999423 -75.44 0.033825 28.950
8.80500000 0.033838 0.1532 0.999423 -75.45 0.999423 -75.45 0.033840 28.957
8.80520000 0.033853 0.1403 0.999422 -75.45 0.999422 -75.45 0.033855 28.965
8.80540000 0.033867 0.1274 0.999422 -75.45 0.999422 -75.45 0.033870 28.972
8.80560000 0.033882 0.1144 0.999421 -75.45 0.999421 -75.45 0.033885 28.980
8.80580000 0.033898 0.1014 0.999421 -75.46 0.999421 -75.46 0.033900 28.988
8.80600000 0.033913 0.0884 0.999420 -75.46 0.999420 -75.46 0.033915 28.995
8.80620000 0.033928 0.0753 0.999420 -75.46 0.999420 -75.46 0.033930 29.003
8.80640000 0.033943 0.0622 0.999419 -75.46 0.999419 -75.46 0.033945 29.011
8.80660000 0.033958 0.0490 0.999419 -75.47 0.999419 -75.47 0.033961 29.019
8.80680000 0.033974 0.0358 0.999418 -75.47 0.999418 -75.47 0.033976 29.027
8.80700000 0.033989 0.0226 0.999418 -75.47 0.999418 -75.47 0.033992 29.035
8.80720000 0.034005 0.0093 0.999417 -75.47 0.999417 -75.47 0.034007 29.042
8.80740000 0.034020 0.0000 0.999417 -75.48 0.999417 -75.48 0.034023 29.050
8.80760000 0.034036 -0.017 0.999416 -75.48 0.999416 -75.48 0.034038 29.058
8.80780000 0.034052 -0.031 0.999415 -75.48 0.999415 -75.48 0.034054 29.066
8.80800000 0.034067 -0.044 0.999415 -75.49 0.999415 -75.49 0.034070 29.074
8.80820000 0.034083 -0.058 0.999414 -75.49 0.999414 -75.49 0.034086 29.082
8.80840000 0.034099 -0.071 0.999414 -75.49 0.999414 -75.49 0.034101 29.091
8.80860000 0.034115 -0.085 0.999413 -75.49 0.999413 -75.49 0.034117 29.099
8.80880000 0.034131 -0.098 0.999413 -75.50 0.999413 -75.50 0.034134 29.107
8.80900000 0.034147 -0.112 0.999412 -75.50 0.999412 -75.50 0.034150 29.115
8.80920000 0.034163 -0.126 0.999412 -75.50 0.999412 -75.50 0.034166 29.123
8.80940000 0.034180 -0.139 0.999411 -75.50 0.999411 -75.50 0.034182 29.132
8.80960000 0.034196 -0.153 0.999410 -75.51 0.999410 -75.51 0.034198 29.140
8.80980000 0.034212 -0.167 0.999410 -75.51 0.999410 -75.51 0.034215 29.148
8.81000000 0.034229 -0.181 0.999409 -75.51 0.999409 -75.51 0.034231 29.156
8.81020000 0.034245 -0.195 0.999409 -75.52 0.999409 -75.52 0.034248 29.165
8.81040000 0.034262 -0.209 0.999408 -75.52 0.999408 -75.52 0.034265 29.173
8.81060000 0.034279 -0.223 0.999408 -75.52 0.999408 -75.52 0.034281 29.182
8.81080000 0.034296 -0.237 0.999407 -75.52 0.999407 -75.52 0.034298 29.190
8.81100000 0.034312 -0.251 0.999406 -75.53 0.999406 -75.53 0.034315 29.199
8.81120000 0.034329 -0.265 0.999406 -75.53 0.999406 -75.53 0.034332 29.207
8.81140000 0.034346 -0.279 0.999405 -75.53 0.999405 -75.53 0.034349 29.216
8.81160000 0.034363 -0.293 0.999405 -75.53 0.999405 -75.53 0.034366 29.225
8.81180000 0.034381 -0.307 0.999404 -75.54 0.999404 -75.54 0.034383 29.233
8.81200000 0.034398 -0.322 0.999403 -75.54 0.999403 -75.54 0.034400 29.242
8.81220000 0.034415 -0.336 0.999403 -75.54 0.999403 -75.54 0.034418 29.251
8.81240000 0.034432 -0.350 0.999402 -75.55 0.999402 -75.55 0.034435 29.259
8.81260000 0.034450 -0.365 0.999402 -75.55 0.999402 -75.55 0.034452 29.268
8.81280000 0.034467 -0.379 0.999401 -75.55 0.999401 -75.55 0.034470 29.277
8.81300000 0.034485 -0.394 0.999400 -75.55 0.999400 -75.55 0.034488 29.286
8.81320000 0.034503 -0.408 0.999400 -75.56 0.999400 -75.56 0.034505 29.295
8.81340000 0.034521 -0.423 0.999399 -75.56 0.999399 -75.56 0.034523 29.304
8.81360000 0.034538 -0.438 0.999398 -75.56 0.999398 -75.56 0.034541 29.313
8.81380000 0.034556 -0.452 0.999398 -75.57 0.999398 -75.57 0.034559 29.322
8.81400000 0.034574 -0.467 0.999397 -75.57 0.999397 -75.57 0.034577 29.331
8.81420000 0.034593 -0.482 0.999397 -75.57 0.999397 -75.57 0.034595 29.340
8.81440000 0.034611 -0.497 0.999396 -75.57 0.999396 -75.57 0.034613 29.349
8.81460000 0.034629 -0.511 0.999395 -75.58 0.999395 -75.58 0.034632 29.358
8.81480000 0.034647 -0.526 0.999395 -75.58 0.999395 -75.58 0.034650 29.367
8.81500000 0.034666 -0.541 0.999394 -75.58 0.999394 -75.58 0.034668 29.377
8.81520000 0.034684 -0.556 0.999393 -75.59 0.999393 -75.59 0.034687 29.386
8.81540000 0.034703 -0.571 0.999393 -75.59 0.999393 -75.59 0.034706 29.395
8.81560000 0.034722 -0.587 0.999392 -75.59 0.999392 -75.59 0.034724 29.405
8.81580000 0.034741 -0.602 0.999391 -75.59 0.999391 -75.59 0.034743 29.414
8.81600000 0.034759 -0.617 0.999391 -75.60 0.999391 -75.60 0.034762 29.424
8.81620000 0.034778 -0.632 0.999390 -75.60 0.999390 -75.60 0.034781 29.433
8.81640000 0.034798 -0.648 0.999389 -75.60 0.999389 -75.60 0.034800 29.443
8.81660000 0.034817 -0.663 0.999389 -75.61 0.999389 -75.61 0.034819 29.452
8.81680000 0.034836 -0.678 0.999388 -75.61 0.999388 -75.61 0.034839 29.462
8.81700000 0.034855 -0.694 0.999387 -75.61 0.999387 -75.61 0.034858 29.471
8.81720000 0.034875 -0.709 0.999387 -75.61 0.999387 -75.61 0.034877 29.481
8.81740000 0.034894 -0.725 0.999386 -75.62 0.999386 -75.62 0.034897 29.491
8.81760000 0.034914 -0.741 0.999385 -75.62 0.999385 -75.62 0.034917 29.500
8.81780000 0.034934 -0.756 0.999385 -75.62 0.999385 -75.62 0.034936 29.510
8.81800000 0.034953 -0.772 0.999384 -75.63 0.999384 -75.63 0.034956 29.520
8.81820000 0.034973 -0.788 0.999383 -75.63 0.999383 -75.63 0.034976 29.530
8.81840000 0.034993 -0.804 0.999382 -75.63 0.999382 -75.63 0.034996 29.540
8.81860000 0.035014 -0.820 0.999382 -75.63 0.999382 -75.63 0.035016 29.550
8.81880000 0.035034 -0.836 0.999381 -75.64 0.999381 -75.64 0.035037 29.560
8.81900000 0.035054 -0.852 0.999380 -75.64 0.999380 -75.64 0.035057 29.570
8.81920000 0.035075 -0.868 0.999380 -75.64 0.999380 -75.64 0.035077 29.580
8.81940000 0.035095 -0.884 0.999379 -75.65 0.999379 -75.65 0.035098 29.590
8.81960000 0.035116 -0.900 0.999378 -75.65 0.999378 -75.65 0.035118 29.600
8.81980000 0.035136 -0.916 0.999377 -75.65 0.999377 -75.65 0.035139 29.611
8.82000000 0.035157 -0.932 0.999377 -75.66 0.999377 -75.66 0.035160 29.621
8.82020000 0.035178 -0.949 0.999376 -75.66 0.999376 -75.66 0.035181 29.631
8.82040000 0.035199 -0.965 0.999375 -75.66 0.999375 -75.66 0.035202 29.641
8.82060000 0.035220 -0.982 0.999374 -75.66 0.999374 -75.66 0.035223 29.652
8.82080000 0.035242 -0.998 0.999374 -75.67 0.999374 -75.67 0.035244 29.662
8.82100000 0.035263 -1.015 0.999373 -75.67 0.999373 -75.67 0.035266 29.673
8.82120000 0.035284 -1.031 0.999372 -75.67 0.999372 -75.67 0.035287 29.683
8.82140000 0.035306 -1.048 0.999371 -75.68 0.999371 -75.68 0.035309 29.694
8.82160000 0.035328 -1.065 0.999370 -75.68 0.999370 -75.68 0.035331 29.704
8.82180000 0.035349 -1.082 0.999370 -75.68 0.999370 -75.68 0.035352 29.715
8.82200000 0.035371 -1.098 0.999369 -75.69 0.999369 -75.69 0.035374 29.726
8.82220000 0.035393 -1.115 0.999368 -75.69 0.999368 -75.69 0.035396 29.737
8.82240000 0.035416 -1.132 0.999367 -75.69 0.999367 -75.69 0.035418 29.747
8.82260000 0.035438 -1.149 0.999366 -75.70 0.999366 -75.70 0.035441 29.758
8.82280000 0.035460 -1.167 0.999366 -75.70 0.999366 -75.70 0.035463 29.769
8.82300000 0.035483 -1.184 0.999365 -75.70 0.999365 -75.70 0.035486 29.780
8.82320000 0.035505 -1.201 0.999364 -75.70 0.999364 -75.70 0.035508 29.791
8.82340000 0.035528 -1.218 0.999363 -75.71 0.999363 -75.71 0.035531 29.802
8.82360000 0.035551 -1.236 0.999362 -75.71 0.999362 -75.71 0.035554 29.813
8.82380000 0.035574 -1.253 0.999362 -75.71 0.999362 -75.71 0.035577 29.824
8.82400000 0.035597 -1.270 0.999361 -75.72 0.999361 -75.72 0.035600 29.835
8.82420000 0.035620 -1.288 0.999360 -75.72 0.999360 -75.72 0.035623 29.847
8.82440000 0.035643 -1.306 0.999359 -75.72 0.999359 -75.72 0.035646 29.858
8.82460000 0.035667 -1.323 0.999358 -75.73 0.999358 -75.73 0.035670 29.869
8.82480000 0.035690 -1.341 0.999357 -75.73 0.999357 -75.73 0.035693 29.881
8.82500000 0.035714 -1.359 0.999357 -75.73 0.999357 -75.73 0.035717 29.892
8.82520000 0.035738 -1.377 0.999356 -75.74 0.999356 -75.74 0.035741 29.903
8.82540000 0.035762 -1.395 0.999355 -75.74 0.999355 -75.74 0.035765 29.915
8.82560000 0.035786 -1.413 0.999354 -75.74 0.999354 -75.74 0.035789 29.927
8.82580000 0.035810 -1.431 0.999353 -75.75 0.999353 -75.75 0.035813 29.938
8.82600000 0.035835 -1.449 0.999352 -75.75 0.999352 -75.75 0.035838 29.950
8.82620000 0.035859 -1.467 0.999351 -75.75 0.999351 -75.75 0.035862 29.962
8.82640000 0.035884 -1.485 0.999350 -75.76 0.999350 -75.76 0.035887 29.973
8.82660000 0.035908 -1.504 0.999349 -75.76 0.999349 -75.76 0.035911 29.985
8.82680000 0.035933 -1.522 0.999349 -75.76 0.999349 -75.76 0.035936 29.997
8.82700000 0.035958 -1.540 0.999348 -75.76 0.999348 -75.76 0.035961 30.009
8.82720000 0.035983 -1.559 0.999347 -75.77 0.999347 -75.77 0.035987 30.021
8.82740000 0.036009 -1.578 0.999346 -75.77 0.999346 -75.77 0.036012 30.033
8.82760000 0.036034 -1.596 0.999345 -75.77 0.999345 -75.77 0.036037 30.045
8.82780000 0.036060 -1.615 0.999344 -75.78 0.999344 -75.78 0.036063 30.057
8.82800000 0.036085 -1.634 0.999343 -75.78 0.999343 -75.78 0.036089 30.069
8.82820000 0.036111 -1.653 0.999342 -75.78 0.999342 -75.78 0.036114 30.082
8.82840000 0.036137 -1.672 0.999341 -75.79 0.999341 -75.79 0.036140 30.094
8.82860000 0.036163 -1.691 0.999340 -75.79 0.999340 -75.79 0.036167 30.106
8.82880000 0.036190 -1.710 0.999339 -75.79 0.999339 -75.79 0.036193 30.119
8.82900000 0.036216 -1.729 0.999338 -75.80 0.999338 -75.80 0.036219 30.131
8.82920000 0.036243 -1.748 0.999337 -75.80 0.999337 -75.80 0.036246 30.144
8.82940000 0.036270 -1.768 0.999336 -75.80 0.999336 -75.80 0.036273 30.156
8.82960000 0.036296 -1.787 0.999335 -75.81 0.999335 -75.81 0.036300 30.169
8.82980000 0.036323 -1.807 0.999334 -75.81 0.999334 -75.81 0.036327 30.182
8.83000000 0.036351 -1.826 0.999333 -75.81 0.999333 -75.81 0.036354 30.194
8.83020000 0.036378 -1.846 0.999332 -75.82 0.999332 -75.82 0.036381 30.207
8.83040000 0.036406 -1.866 0.999331 -75.82 0.999331 -75.82 0.036409 30.220
8.83060000 0.036433 -1.885 0.999330 -75.82 0.999330 -75.82 0.036437 30.233
8.83080000 0.036461 -1.905 0.999329 -75.83 0.999329 -75.83 0.036464 30.246
8.83100000 0.036489 -1.925 0.999328 -75.83 0.999328 -75.83 0.036492 30.259
8.83120000 0.036517 -1.945 0.999327 -75.84 0.999327 -75.84 0.036521 30.272
8.83140000 0.036546 -1.965 0.999326 -75.84 0.999326 -75.84 0.036549 30.285
8.83160000 0.036574 -1.986 0.999325 -75.84 0.999325 -75.84 0.036578 30.299
8.83180000 0.036603 -2.006 0.999324 -75.85 0.999324 -75.85 0.036606 30.312
8.83200000 0.036632 -2.026 0.999323 -75.85 0.999323 -75.85 0.036635 30.325
8.83220000 0.036661 -2.047 0.999322 -75.85 0.999322 -75.85 0.036664 30.339
8.83240000 0.036690 -2.067 0.999321 -75.86 0.999321 -75.86 0.036693 30.352
8.83260000 0.036719 -2.088 0.999319 -75.86 0.999319 -75.86 0.036723 30.366
8.83280000 0.036749 -2.108 0.999318 -75.86 0.999318 -75.86 0.036752 30.379
8.83300000 0.036778 -2.129 0.999317 -75.87 0.999317 -75.87 0.036782 30.393
8.83320000 0.036808 -2.150 0.999316 -75.87 0.999316 -75.87 0.036812 30.407
8.83340000 0.036838 -2.171 0.999315 -75.87 0.999315 -75.87 0.036842 30.421
8.83360000 0.036869 -2.192 0.999314 -75.88 0.999314 -75.88 0.036872 30.434
8.83380000 0.036899 -2.213 0.999313 -75.88 0.999313 -75.88 0.036903 30.448
8.83400000 0.036930 -2.234 0.999312 -75.88 0.999312 -75.88 0.036933 30.462
8.83420000 0.036961 -2.256 0.999310 -75.89 0.999310 -75.89 0.036964 30.476
8.83440000 0.036992 -2.277 0.999309 -75.89 0.999309 -75.89 0.036995 30.490
8.83460000 0.037023 -2.299 0.999308 -75.90 0.999308 -75.90 0.037026 30.505
8.83480000 0.037054 -2.320 0.999307 -75.90 0.999307 -75.90 0.037058 30.519
8.83500000 0.037086 -2.342 0.999306 -75.90 0.999306 -75.90 0.037089 30.533
8.83520000 0.037117 -2.364 0.999304 -75.91 0.999304 -75.91 0.037121 30.548
8.83540000 0.037149 -2.385 0.999303 -75.91 0.999303 -75.91 0.037153 30.562
8.83560000 0.037182 -2.407 0.999302 -75.91 0.999302 -75.91 0.037185 30.577
8.83580000 0.037214 -2.429 0.999301 -75.92 0.999301 -75.92 0.037218 30.591
8.83600000 0.037247 -2.451 0.999300 -75.92 0.999300 -75.92 0.037250 30.606
8.83620000 0.037279 -2.474 0.999298 -75.92 0.999298 -75.92 0.037283 30.620
8.83640000 0.037312 -2.496 0.999297 -75.93 0.999297 -75.93 0.037316 30.635
8.83660000 0.037346 -2.518 0.999296 -75.93 0.999296 -75.93 0.037349 30.650
8.83680000 0.037379 -2.541 0.999295 -75.94 0.999295 -75.94 0.037383 30.665
8.83700000 0.037413 -2.564 0.999293 -75.94 0.999293 -75.94 0.037416 30.680
8.83720000 0.037446 -2.586 0.999292 -75.94 0.999292 -75.94 0.037450 30.695
8.83740000 0.037480 -2.609 0.999291 -75.95 0.999291 -75.95 0.037484 30.710
8.83760000 0.037515 -2.632 0.999289 -75.95 0.999289 -75.95 0.037519 30.725
8.83780000 0.037549 -2.655 0.999288 -75.95 0.999288 -75.95 0.037553 30.741
8.83800000 0.037584 -2.678 0.999287 -75.96 0.999287 -75.96 0.037588 30.756
8.83820000 0.037619 -2.701 0.999285 -75.96 0.999285 -75.96 0.037623 30.772
8.83840000 0.037654 -2.724 0.999284 -75.97 0.999284 -75.97 0.037658 30.787
8.83860000 0.037690 -2.748 0.999283 -75.97 0.999283 -75.97 0.037693 30.803
8.83880000 0.037725 -2.771 0.999281 -75.97 0.999281 -75.97 0.037729 30.818
8.83900000 0.037761 -2.795 0.999280 -75.98 0.999280 -75.98 0.037765 30.834
8.83920000 0.037797 -2.819 0.999279 -75.98 0.999279 -75.98 0.037801 30.850
8.83940000 0.037834 -2.843 0.999277 -75.99 0.999277 -75.99 0.037838 30.866
8.83960000 0.037870 -2.866 0.999276 -75.99 0.999276 -75.99 0.037874 30.882
8.83980000 0.037907 -2.891 0.999274 -75.99 0.999274 -75.99 0.037911 30.898
8.84000000 0.037944 -2.915 0.999273 -76.00 0.999273 -76.00 0.037948 30.914
8.84020000 0.037981 -2.939 0.999271 -76.00 0.999271 -76.00 0.037985 30.930
8.84040000 0.038019 -2.963 0.999270 -76.01 0.999270 -76.01 0.038023 30.946
8.84060000 0.038057 -2.988 0.999268 -76.01 0.999268 -76.01 0.038061 30.963
8.84080000 0.038095 -3.012 0.999267 -76.01 0.999267 -76.01 0.038099 30.979
8.84100000 0.038133 -3.037 0.999266 -76.02 0.999266 -76.02 0.038137 30.996
8.84120000 0.038172 -3.062 0.999264 -76.02 0.999264 -76.02 0.038176 31.012
8.84140000 0.038211 -3.087 0.999262 -76.03 0.999262 -76.03 0.038215 31.029
8.84160000 0.038250 -3.112 0.999261 -76.03 0.999261 -76.03 0.038254 31.046
8.84180000 0.038290 -3.137 0.999259 -76.03 0.999259 -76.03 0.038294 31.063
8.84200000 0.038329 -3.162 0.999258 -76.04 0.999258 -76.04 0.038333 31.080
8.84220000 0.038369 -3.188 0.999256 -76.04 0.999256 -76.04 0.038373 31.097
8.84240000 0.038410 -3.213 0.999255 -76.05 0.999255 -76.05 0.038414 31.114
8.84260000 0.038450 -3.239 0.999253 -76.05 0.999253 -76.05 0.038454 31.131
8.84280000 0.038491 -3.265 0.999252 -76.05 0.999252 -76.05 0.038495 31.148
8.84300000 0.038532 -3.290 0.999250 -76.06 0.999250 -76.06 0.038536 31.166
8.84320000 0.038573 -3.316 0.999248 -76.06 0.999248 -76.06 0.038578 31.183
8.84340000 0.038615 -3.343 0.999247 -76.07 0.999247 -76.07 0.038620 31.201
8.84360000 0.038657 -3.369 0.999245 -76.07 0.999245 -76.07 0.038662 31.218
8.84380000 0.038700 -3.395 0.999243 -76.08 0.999243 -76.08 0.038704 31.236
8.84400000 0.038742 -3.422 0.999242 -76.08 0.999242 -76.08 0.038747 31.254
8.84420000 0.038785 -3.448 0.999240 -76.08 0.999240 -76.08 0.038790 31.272
8.84440000 0.038828 -3.475 0.999238 -76.09 0.999238 -76.09 0.038833 31.290
8.84460000 0.038872 -3.502 0.999236 -76.09 0.999236 -76.09 0.038876 31.308
8.84480000 0.038916 -3.529 0.999235 -76.10 0.999235 -76.10 0.038920 31.326
8.84500000 0.038960 -3.556 0.999233 -76.10 0.999233 -76.10 0.038964 31.344
8.84520000 0.039005 -3.583 0.999231 -76.11 0.999231 -76.11 0.039009 31.362
8.84540000 0.039049 -3.611 0.999229 -76.11 0.999229 -76.11 0.039054 31.381
8.84560000 0.039095 -3.638 0.999228 -76.12 0.999228 -76.12 0.039099 31.399
8.84580000 0.039140 -3.666 0.999226 -76.12 0.999226 -76.12 0.039145 31.418
8.84600000 0.039186 -3.694 0.999224 -76.12 0.999224 -76.12 0.039191 31.437
8.84620000 0.039232 -3.722 0.999222 -76.13 0.999222 -76.13 0.039237 31.456
8.84640000 0.039279 -3.750 0.999220 -76.13 0.999220 -76.13 0.039283 31.475
8.84660000 0.039326 -3.778 0.999218 -76.14 0.999218 -76.14 0.039330 31.494
8.84680000 0.039373 -3.807 0.999216 -76.14 0.999216 -76.14 0.039378 31.513
8.84700000 0.039421 -3.835 0.999215 -76.15 0.999215 -76.15 0.039425 31.532
8.84720000 0.039469 -3.864 0.999213 -76.15 0.999213 -76.15 0.039473 31.551
8.84740000 0.039517 -3.892 0.999211 -76.16 0.999211 -76.16 0.039522 31.571
8.84760000 0.039566 -3.921 0.999209 -76.16 0.999209 -76.16 0.039570 31.590
8.84780000 0.039615 -3.951 0.999207 -76.17 0.999207 -76.17 0.039620 31.610
8.84800000 0.039664 -3.980 0.999205 -76.17 0.999205 -76.17 0.039669 31.629
8.84820000 0.039714 -4.009 0.999203 -76.18 0.999203 -76.18 0.039719 31.649
8.84840000 0.039765 -4.039 0.999201 -76.18 0.999201 -76.18 0.039769 31.669
8.84860000 0.039815 -4.068 0.999199 -76.19 0.999199 -76.19 0.039820 31.689
8.84880000 0.039866 -4.098 0.999196 -76.19 0.999196 -76.19 0.039871 31.709
8.84900000 0.039918 -4.128 0.999194 -76.19 0.999194 -76.19 0.039923 31.730
8.84920000 0.039970 -4.159 0.999192 -76.20 0.999192 -76.20 0.039975 31.750
8.84940000 0.040022 -4.189 0.999190 -76.20 0.999190 -76.20 0.040027 31.770
8.84960000 0.040075 -4.219 0.999188 -76.21 0.999188 -76.21 0.040080 31.791
8.84980000 0.040128 -4.250 0.999186 -76.21 0.999186 -76.21 0.040133 31.812
8.85000000 0.040181 -4.281 0.999184 -76.22 0.999184 -76.22 0.040186 31.832
8.85020000 0.040235 -4.312 0.999181 -76.22 0.999181 -76.22 0.040241 31.853
8.85040000 0.040290 -4.343 0.999179 -76.23 0.999179 -76.23 0.040295 31.874
8.85060000 0.040345 -4.374 0.999177 -76.23 0.999177 -76.23 0.040350 31.895
8.85080000 0.040400 -4.406 0.999175 -76.24 0.999175 -76.24 0.040405 31.917
8.85100000 0.040456 -4.437 0.999172 -76.24 0.999172 -76.24 0.040461 31.938
8.85120000 0.040512 -4.469 0.999170 -76.25 0.999170 -76.25 0.040517 31.960
8.85140000 0.040569 -4.501 0.999168 -76.25 0.999168 -76.25 0.040574 31.981
8.85160000 0.040626 -4.533 0.999165 -76.26 0.999165 -76.26 0.040632 32.003
8.85180000 0.040684 -4.566 0.999163 -76.26 0.999163 -76.26 0.040689 32.025
8.85200000 0.040742 -4.598 0.999160 -76.27 0.999160 -76.27 0.040747 32.046
8.85220000 0.040801 -4.631 0.999158 -76.28 0.999158 -76.28 0.040806 32.069
8.85240000 0.040860 -4.664 0.999155 -76.28 0.999155 -76.28 0.040865 32.091
8.85260000 0.040920 -4.697 0.999153 -76.29 0.999153 -76.29 0.040925 32.113
8.85280000 0.040980 -4.730 0.999150 -76.29 0.999150 -76.29 0.040985 32.135
8.85300000 0.041041 -4.763 0.999148 -76.30 0.999148 -76.30 0.041046 32.158
8.85320000 0.041102 -4.797 0.999145 -76.30 0.999145 -76.30 0.041107 32.181
8.85340000 0.041164 -4.831 0.999143 -76.31 0.999143 -76.31 0.041169 32.203
8.85360000 0.041226 -4.865 0.999140 -76.31 0.999140 -76.31 0.041232 32.226
8.85380000 0.041289 -4.899 0.999137 -76.32 0.999137 -76.32 0.041294 32.249
8.85400000 0.041352 -4.933 0.999135 -76.32 0.999135 -76.32 0.041358 32.272
8.85420000 0.041416 -4.968 0.999132 -76.33 0.999132 -76.33 0.041422 32.296
8.85440000 0.041481 -5.003 0.999129 -76.34 0.999129 -76.34 0.041486 32.319
8.85460000 0.041546 -5.038 0.999127 -76.34 0.999127 -76.34 0.041552 32.343
8.85480000 0.041612 -5.073 0.999124 -76.35 0.999124 -76.35 0.041617 32.366
8.85500000 0.041678 -5.108 0.999121 -76.35 0.999121 -76.35 0.041684 32.390
8.85520000 0.041745 -5.144 0.999118 -76.36 0.999118 -76.36 0.041751 32.414
8.85540000 0.041812 -5.179 0.999115 -76.36 0.999115 -76.36 0.041818 32.438
8.85560000 0.041880 -5.215 0.999112 -76.37 0.999112 -76.37 0.041886 32.462
8.85580000 0.041949 -5.252 0.999109 -76.38 0.999109 -76.38 0.041955 32.486
8.85600000 0.042018 -5.288 0.999106 -76.38 0.999106 -76.38 0.042024 32.511
8.85620000 0.042088 -5.325 0.999103 -76.39 0.999103 -76.39 0.042095 32.536
8.85640000 0.042159 -5.361 0.999100 -76.39 0.999100 -76.39 0.042165 32.560
8.85660000 0.042230 -5.398 0.999097 -76.40 0.999097 -76.40 0.042237 32.585
8.85680000 0.042302 -5.436 0.999094 -76.41 0.999094 -76.41 0.042309 32.610
8.85700000 0.042375 -5.473 0.999091 -76.41 0.999091 -76.41 0.042381 32.635
8.85720000 0.042449 -5.511 0.999088 -76.42 0.999088 -76.42 0.042455 32.661
8.85740000 0.042523 -5.549 0.999084 -76.42 0.999084 -76.42 0.042529 32.686
8.85760000 0.042597 -5.587 0.999081 -76.43 0.999081 -76.43 0.042604 32.712
8.85780000 0.042673 -5.625 0.999078 -76.44 0.999078 -76.44 0.042679 32.737
8.85800000 0.042749 -5.664 0.999075 -76.44 0.999075 -76.44 0.042755 32.763
8.85820000 0.042826 -5.703 0.999071 -76.45 0.999071 -76.45 0.042832 32.789
8.85840000 0.042904 -5.742 0.999068 -76.46 0.999068 -76.46 0.042910 32.815
8.85860000 0.042982 -5.781 0.999064 -76.46 0.999064 -76.46 0.042989 32.842
8.85880000 0.043061 -5.821 0.999061 -76.47 0.999061 -76.47 0.043068 32.868
8.85900000 0.043142 -5.861 0.999057 -76.47 0.999057 -76.47 0.043148 32.895
8.85920000 0.043222 -5.901 0.999054 -76.48 0.999054 -76.48 0.043229 32.921
8.85940000 0.043304 -5.941 0.999050 -76.49 0.999050 -76.49 0.043311 32.948
8.85960000 0.043386 -5.982 0.999046 -76.49 0.999046 -76.49 0.043393 32.975
8.85980000 0.043470 -6.023 0.999043 -76.50 0.999043 -76.50 0.043476 33.003
8.86000000 0.043554 -6.064 0.999039 -76.51 0.999039 -76.51 0.043561 33.030
8.86020000 0.043639 -6.105 0.999035 -76.51 0.999035 -76.51 0.043646 33.058
8.86040000 0.043725 -6.147 0.999031 -76.52 0.999031 -76.52 0.043732 33.085
8.86060000 0.043811 -6.189 0.999027 -76.53 0.999027 -76.53 0.043818 33.113
8.86080000 0.043899 -6.231 0.999023 -76.54 0.999023 -76.54 0.043906 33.141
8.86100000 0.043988 -6.273 0.999019 -76.54 0.999019 -76.54 0.043995 33.169
8.86120000 0.044077 -6.316 0.999015 -76.55 0.999015 -76.55 0.044084 33.198
8.86140000 0.044167 -6.359 0.999011 -76.56 0.999011 -76.56 0.044175 33.226
8.86160000 0.044259 -6.402 0.999007 -76.56 0.999007 -76.56 0.044266 33.255
8.86180000 0.044351 -6.446 0.999003 -76.57 0.999003 -76.57 0.044358 33.284
8.86200000 0.044445 -6.490 0.998999 -76.58 0.998999 -76.58 0.044452 33.313
8.86220000 0.044539 -6.534 0.998994 -76.59 0.998994 -76.59 0.044546 33.342
8.86240000 0.044634 -6.578 0.998990 -76.59 0.998990 -76.59 0.044642 33.371
8.86260000 0.044731 -6.623 0.998986 -76.60 0.998986 -76.60 0.044738 33.401
8.86280000 0.044828 -6.668 0.998981 -76.61 0.998981 -76.61 0.044836 33.430
8.86300000 0.044926 -6.713 0.998977 -76.62 0.998977 -76.62 0.044934 33.460
8.86320000 0.045026 -6.759 0.998972 -76.62 0.998972 -76.62 0.045034 33.490
8.86340000 0.045127 -6.805 0.998967 -76.63 0.998967 -76.63 0.045134 33.520
8.86360000 0.045229 -6.851 0.998963 -76.64 0.998963 -76.64 0.045236 33.551
8.86380000 0.045332 -6.898 0.998958 -76.65 0.998958 -76.65 0.045339 33.581
8.86400000 0.045436 -6.944 0.998953 -76.66 0.998953 -76.66 0.045443 33.612
8.86420000 0.045541 -6.992 0.998948 -76.66 0.998948 -76.66 0.045549 33.643
8.86440000 0.045647 -7.039 0.998943 -76.67 0.998943 -76.67 0.045655 33.674
8.86460000 0.045755 -7.087 0.998938 -76.68 0.998938 -76.68 0.045763 33.706
8.86480000 0.045864 -7.135 0.998933 -76.69 0.998933 -76.69 0.045872 33.737
8.86500000 0.045974 -7.184 0.998928 -76.70 0.998928 -76.70 0.045982 33.769
8.86520000 0.046086 -7.233 0.998922 -76.70 0.998922 -76.70 0.046094 33.801
8.86540000 0.046199 -7.282 0.998917 -76.71 0.998917 -76.71 0.046207 33.833
8.86560000 0.046313 -7.332 0.998912 -76.72 0.998912 -76.72 0.046321 33.865
8.86580000 0.046428 -7.381 0.998906 -76.73 0.998906 -76.73 0.046437 33.897
8.86600000 0.046545 -7.432 0.998901 -76.74 0.998901 -76.74 0.046554 33.930
8.86620000 0.046663 -7.482 0.998895 -76.75 0.998895 -76.75 0.046672 33.963
8.86640000 0.046783 -7.533 0.998889 -76.76 0.998889 -76.76 0.046792 33.996
8.86660000 0.046904 -7.585 0.998883 -76.77 0.998883 -76.77 0.046913 34.029
8.86680000 0.047027 -7.637 0.998877 -76.77 0.998877 -76.77 0.047036 34.062
8.86700000 0.047151 -7.689 0.998871 -76.78 0.998871 -76.78 0.047160 34.096
8.86720000 0.047277 -7.741 0.998865 -76.79 0.998865 -76.79 0.047286 34.130
8.86740000 0.047404 -7.794 0.998859 -76.80 0.998859 -76.80 0.047413 34.164
8.86760000 0.047533 -7.848 0.998853 -76.81 0.998853 -76.81 0.047542 34.198
8.86780000 0.047663 -7.901 0.998846 -76.82 0.998846 -76.82 0.047673 34.232
8.86800000 0.047796 -7.955 0.998840 -76.83 0.998840 -76.83 0.047805 34.267
8.86820000 0.047929 -8.010 0.998833 -76.84 0.998833 -76.84 0.047939 34.302
8.86840000 0.048065 -8.065 0.998827 -76.85 0.998827 -76.85 0.048074 34.337
8.86860000 0.048202 -8.120 0.998820 -76.86 0.998820 -76.86 0.048212 34.372
8.86880000 0.048341 -8.176 0.998813 -76.87 0.998813 -76.87 0.048351 34.408
8.86900000 0.048482 -8.232 0.998806 -76.88 0.998806 -76.88 0.048492 34.443
8.86920000 0.048625 -8.289 0.998799 -76.89 0.998799 -76.89 0.048635 34.479
8.86940000 0.048769 -8.346 0.998791 -76.90 0.998791 -76.90 0.048779 34.515
8.86960000 0.048916 -8.404 0.998784 -76.91 0.998784 -76.91 0.048926 34.552
8.86980000 0.049065 -8.462 0.998777 -76.92 0.998777 -76.92 0.049075 34.588
8.86990174 0.049141 -8.491 0.998773 -76.93 0.998773 -76.93 0.049151 34.607
8.87000000 0.049215 -8.520 0.998769 -76.93 0.998769 -76.93 0.049225 34.625
8.87020000 0.049368 -8.579 0.998761 -76.94 0.998761 -76.94 0.049378 34.662
8.87040000 0.049522 -8.638 0.998753 -76.95 0.998753 -76.95 0.049533 34.699
8.87058740 0.049669 -8.695 0.998746 -76.96 0.998746 -76.96 0.049680 34.734
8.87060000 0.049679 -8.698 0.998745 -76.96 0.998745 -76.96 0.049690 34.736
8.87080000 0.049838 -8.759 0.998737 -76.98 0.998737 -76.98 0.049849 34.774
8.87100000 0.049999 -8.820 0.998729 -76.99 0.998729 -76.99 0.050010 34.812
8.87120000 0.050163 -8.881 0.998720 -77.00 0.998720 -77.00 0.050174 34.850
8.87125735 0.050210 -8.899 0.998718 -77.00 0.998718 -77.00 0.050221 34.861
8.87140000 0.050329 -8.943 0.998712 -77.01 0.998712 -77.01 0.050339 34.888
8.87160000 0.050497 -9.005 0.998703 -77.02 0.998703 -77.02 0.050508 34.927
8.87180000 0.050668 -9.068 0.998694 -77.03 0.998694 -77.03 0.050678 34.965
8.87191194 0.050764 -9.103 0.998689 -77.04 0.998689 -77.04 0.050775 34.987
8.87200000 0.050841 -9.131 0.998685 -77.05 0.998685 -77.05 0.050852 35.004
8.87220000 0.051016 -9.195 0.998676 -77.06 0.998676 -77.06 0.051027 35.044
8.87240000 0.051194 -9.260 0.998666 -77.07 0.998666 -77.07 0.051206 35.083
8.87255154 0.051331 -9.309 0.998659 -77.08 0.998659 -77.08 0.051343 35.113
8.87260000 0.051375 -9.325 0.998657 -77.08 0.998657 -77.08 0.051387 35.123
8.87280000 0.051559 -9.390 0.998647 -77.09 0.998647 -77.09 0.051570 35.163
8.87300000 0.051745 -9.457 0.998637 -77.11 0.998637 -77.11 0.051757 35.203
8.87317648 0.051912 -9.515 0.998628 -77.12 0.998628 -77.12 0.051923 35.238
8.87320000 0.051934 -9.523 0.998627 -77.12 0.998627 -77.12 0.051946 35.243
8.87340000 0.052126 -9.591 0.998617 -77.13 0.998617 -77.13 0.052138 35.284
8.87360000 0.052321 -9.658 0.998606 -77.15 0.998606 -77.15 0.052333 35.325
8.87378711 0.052506 -9.723 0.998596 -77.16 0.998596 -77.16 0.052518 35.363
8.87380000 0.052519 -9.727 0.998596 -77.16 0.998596 -77.16 0.052531 35.366
8.87400000 0.052720 -9.796 0.998585 -77.17 0.998585 -77.17 0.052732 35.407
8.87420000 0.052924 -9.866 0.998574 -77.19 0.998574 -77.19 0.052937 35.449
8.87438374 0.053115 -9.930 0.998563 -77.20 0.998563 -77.20 0.053127 35.487
8.87440000 0.053132 -9.936 0.998562 -77.20 0.998562 -77.20 0.053144 35.490
8.87460000 0.053343 -10.01 0.998551 -77.22 0.998551 -77.22 0.053355 35.532
8.87480000 0.053557 -10.08 0.998539 -77.23 0.998539 -77.23 0.053569 35.575
8.87496670 0.053738 -10.14 0.998529 -77.24 0.998529 -77.24 0.053751 35.610
8.87500000 0.053774 -10.15 0.998527 -77.24 0.998527 -77.24 0.053787 35.617
8.87520000 0.053995 -10.22 0.998514 -77.26 0.998514 -77.26 0.054008 35.660
8.87540000 0.054220 -10.30 0.998502 -77.27 0.998502 -77.27 0.054233 35.703
8.87553630 0.054376 -10.35 0.998493 -77.29 0.998493 -77.29 0.054389 35.732
8.87560000 0.054449 -10.37 0.998489 -77.29 0.998489 -77.29 0.054462 35.746
8.87580000 0.054681 -10.45 0.998476 -77.31 0.998476 -77.31 0.054695 35.790
8.87600000 0.054917 -10.52 0.998462 -77.32 0.998462 -77.32 0.054931 35.833
8.87609285 0.055029 -10.56 0.998456 -77.33 0.998456 -77.33 0.055042 35.854
8.87620000 0.055158 -10.60 0.998449 -77.34 0.998449 -77.34 0.055171 35.877