! Sonnet Data File
! From: emgraph Version : 16.52
! From Project: Resonator2_cp
! Data is De-embedded 
! Data File Written: 10/06/2017 09:05:51
!< HDATE 10/05/2017 15:28:06
!< MDATE 10/05/2017 15:28:06
!< PARAMS
!< gap = 46.0
!< Length = 400.0
!< Pwid1 = 2000.0
!< Pwid2 = 2000.0
!< END PARAMS
# GHZ S MA R 35.97000
8.80000000 0.018226 2.7679 0.999831 -74.51 0.999831 -74.51 0.018227 28.222
!< P1 F=8.8 Eeff=(5.36817953 -2.3731e-5) Z0=(35.9853883 8.0522e-5) R=0.0 C=0.0 
!< P2 F=8.8 Eeff=(5.36817953 -2.3731e-5) Z0=(35.9853883 8.0522e-5) R=0.0 C=0.0 
8.80020000 0.018228 2.7575 0.999831 -74.51 0.999831 -74.51 0.018230 28.228
8.80040000 0.018231 2.7471 0.999830 -74.51 0.999830 -74.51 0.018233 28.234
8.80060000 0.018234 2.7368 0.999830 -74.52 0.999830 -74.52 0.018236 28.241
8.80080000 0.018237 2.7264 0.999830 -74.52 0.999830 -74.52 0.018238 28.247
8.80100000 0.018240 2.7160 0.999830 -74.52 0.999830 -74.52 0.018241 28.254
8.80120000 0.018243 2.7055 0.999830 -74.52 0.999830 -74.52 0.018244 28.260
8.80140000 0.018246 2.6950 0.999830 -74.52 0.999830 -74.52 0.018247 28.267
8.80160000 0.018248 2.6845 0.999830 -74.53 0.999830 -74.53 0.018250 28.274
8.80180000 0.018251 2.6740 0.999830 -74.53 0.999830 -74.53 0.018253 28.280
8.80200000 0.018254 2.6634 0.999830 -74.53 0.999830 -74.53 0.018256 28.287
8.80220000 0.018257 2.6529 0.999830 -74.53 0.999830 -74.53 0.018259 28.294
8.80240000 0.018260 2.6422 0.999830 -74.53 0.999830 -74.53 0.018262 28.300
8.80260000 0.018263 2.6316 0.999830 -74.54 0.999830 -74.54 0.018265 28.307
8.80280000 0.018266 2.6209 0.999830 -74.54 0.999830 -74.54 0.018268 28.314
8.80300000 0.018269 2.6102 0.999830 -74.54 0.999830 -74.54 0.018271 28.321
8.80320000 0.018272 2.5994 0.999830 -74.54 0.999830 -74.54 0.018274 28.327
8.80340000 0.018275 2.5887 0.999830 -74.54 0.999830 -74.54 0.018277 28.334
8.80360000 0.018278 2.5779 0.999830 -74.55 0.999830 -74.55 0.018280 28.341
8.80380000 0.018281 2.5670 0.999830 -74.55 0.999830 -74.55 0.018283 28.348
8.80400000 0.018284 2.5562 0.999829 -74.55 0.999829 -74.55 0.018286 28.355
8.80420000 0.018287 2.5453 0.999829 -74.55 0.999829 -74.55 0.018289 28.362
8.80440000 0.018290 2.5343 0.999829 -74.55 0.999829 -74.55 0.018292 28.369
8.80460000 0.018293 2.5234 0.999829 -74.56 0.999829 -74.56 0.018295 28.376
8.80480000 0.018296 2.5124 0.999829 -74.56 0.999829 -74.56 0.018298 28.383
8.80500000 0.018299 2.5014 0.999829 -74.56 0.999829 -74.56 0.018301 28.390
8.80520000 0.018302 2.4903 0.999829 -74.56 0.999829 -74.56 0.018304 28.397
8.80540000 0.018306 2.4792 0.999829 -74.56 0.999829 -74.56 0.018307 28.404
8.80560000 0.018309 2.4681 0.999829 -74.57 0.999829 -74.57 0.018310 28.412
8.80580000 0.018312 2.4570 0.999829 -74.57 0.999829 -74.57 0.018313 28.419
8.80600000 0.018315 2.4458 0.999829 -74.57 0.999829 -74.57 0.018317 28.426
8.80620000 0.018318 2.4346 0.999829 -74.57 0.999829 -74.57 0.018320 28.433
8.80640000 0.018321 2.4233 0.999829 -74.57 0.999829 -74.57 0.018323 28.441
8.80660000 0.018325 2.4120 0.999829 -74.58 0.999829 -74.58 0.018326 28.448
8.80680000 0.018328 2.4007 0.999829 -74.58 0.999829 -74.58 0.018329 28.455
8.80700000 0.018331 2.3894 0.999829 -74.58 0.999829 -74.58 0.018332 28.463
8.80720000 0.018334 2.3780 0.999828 -74.58 0.999828 -74.58 0.018336 28.470
8.80740000 0.018337 2.3666 0.999828 -74.58 0.999828 -74.58 0.018339 28.478
8.80760000 0.018341 2.3551 0.999828 -74.58 0.999828 -74.58 0.018342 28.485
8.80780000 0.018344 2.3436 0.999828 -74.59 0.999828 -74.59 0.018345 28.493
8.80800000 0.018347 2.3321 0.999828 -74.59 0.999828 -74.59 0.018349 28.500
8.80820000 0.018350 2.3205 0.999828 -74.59 0.999828 -74.59 0.018352 28.508
8.80840000 0.018354 2.3090 0.999828 -74.59 0.999828 -74.59 0.018355 28.515
8.80860000 0.018357 2.2973 0.999828 -74.59 0.999828 -74.59 0.018359 28.523
8.80880000 0.018360 2.2857 0.999828 -74.60 0.999828 -74.60 0.018362 28.531
8.80900000 0.018364 2.2740 0.999828 -74.60 0.999828 -74.60 0.018365 28.539
8.80920000 0.018367 2.2622 0.999828 -74.60 0.999828 -74.60 0.018369 28.546
8.80940000 0.018371 2.2505 0.999828 -74.60 0.999828 -74.60 0.018372 28.554
8.80960000 0.018374 2.2387 0.999828 -74.60 0.999828 -74.60 0.018375 28.562
8.80980000 0.018377 2.2268 0.999828 -74.61 0.999828 -74.61 0.018379 28.570
8.81000000 0.018381 2.2150 0.999828 -74.61 0.999828 -74.61 0.018382 28.578
8.81020000 0.018384 2.2030 0.999828 -74.61 0.999828 -74.61 0.018386 28.586
8.81040000 0.018388 2.1911 0.999827 -74.61 0.999827 -74.61 0.018389 28.594
8.81060000 0.018391 2.1791 0.999827 -74.61 0.999827 -74.61 0.018393 28.602
8.81080000 0.018395 2.1671 0.999827 -74.62 0.999827 -74.62 0.018396 28.610
8.81100000 0.018398 2.1550 0.999827 -74.62 0.999827 -74.62 0.018400 28.618
8.81120000 0.018402 2.1429 0.999827 -74.62 0.999827 -74.62 0.018403 28.626
8.81140000 0.018405 2.1308 0.999827 -74.62 0.999827 -74.62 0.018407 28.634
8.81160000 0.018409 2.1186 0.999827 -74.62 0.999827 -74.62 0.018410 28.642
8.81180000 0.018412 2.1064 0.999827 -74.63 0.999827 -74.63 0.018414 28.650
8.81200000 0.018416 2.0942 0.999827 -74.63 0.999827 -74.63 0.018417 28.659
8.81220000 0.018419 2.0819 0.999827 -74.63 0.999827 -74.63 0.018421 28.667
8.81240000 0.018423 2.0695 0.999827 -74.63 0.999827 -74.63 0.018424 28.675
8.81260000 0.018426 2.0572 0.999827 -74.63 0.999827 -74.63 0.018428 28.684
8.81280000 0.018430 2.0448 0.999827 -74.64 0.999827 -74.64 0.018432 28.692
8.81300000 0.018434 2.0323 0.999827 -74.64 0.999827 -74.64 0.018435 28.700
8.81320000 0.018437 2.0198 0.999826 -74.64 0.999826 -74.64 0.018439 28.709
8.81340000 0.018441 2.0073 0.999826 -74.64 0.999826 -74.64 0.018443 28.717
8.81360000 0.018445 1.9947 0.999826 -74.64 0.999826 -74.64 0.018446 28.726
8.81380000 0.018448 1.9821 0.999826 -74.65 0.999826 -74.65 0.018450 28.735
8.81400000 0.018452 1.9695 0.999826 -74.65 0.999826 -74.65 0.018454 28.743
8.81420000 0.018456 1.9568 0.999826 -74.65 0.999826 -74.65 0.018457 28.752
8.81440000 0.018460 1.9440 0.999826 -74.65 0.999826 -74.65 0.018461 28.761
8.81460000 0.018463 1.9313 0.999826 -74.65 0.999826 -74.65 0.018465 28.769
8.81480000 0.018467 1.9184 0.999826 -74.66 0.999826 -74.66 0.018469 28.778
8.81500000 0.018471 1.9056 0.999826 -74.66 0.999826 -74.66 0.018473 28.787
8.81520000 0.018475 1.8927 0.999826 -74.66 0.999826 -74.66 0.018476 28.796
8.81540000 0.018479 1.8797 0.999826 -74.66 0.999826 -74.66 0.018480 28.805
8.81560000 0.018482 1.8668 0.999826 -74.66 0.999826 -74.66 0.018484 28.814
8.81580000 0.018486 1.8537 0.999826 -74.67 0.999826 -74.67 0.018488 28.823
8.81600000 0.018490 1.8407 0.999825 -74.67 0.999825 -74.67 0.018492 28.832
8.81620000 0.018494 1.8275 0.999825 -74.67 0.999825 -74.67 0.018496 28.841
8.81640000 0.018498 1.8144 0.999825 -74.67 0.999825 -74.67 0.018500 28.850
8.81660000 0.018502 1.8012 0.999825 -74.67 0.999825 -74.67 0.018504 28.859
8.81680000 0.018506 1.7879 0.999825 -74.68 0.999825 -74.68 0.018508 28.868
8.81700000 0.018510 1.7746 0.999825 -74.68 0.999825 -74.68 0.018512 28.877
8.81720000 0.018514 1.7613 0.999825 -74.68 0.999825 -74.68 0.018516 28.887
8.81740000 0.018518 1.7479 0.999825 -74.68 0.999825 -74.68 0.018520 28.896
8.81760000 0.018522 1.7345 0.999825 -74.68 0.999825 -74.68 0.018524 28.905
8.81780000 0.018526 1.7210 0.999825 -74.69 0.999825 -74.69 0.018528 28.915
8.81800000 0.018530 1.7075 0.999825 -74.69 0.999825 -74.69 0.018532 28.924
8.81820000 0.018534 1.6939 0.999825 -74.69 0.999825 -74.69 0.018536 28.934
8.81840000 0.018538 1.6803 0.999825 -74.69 0.999825 -74.69 0.018540 28.943
8.81860000 0.018542 1.6667 0.999824 -74.69 0.999824 -74.69 0.018544 28.953
8.81880000 0.018547 1.6529 0.999824 -74.70 0.999824 -74.70 0.018548 28.962
8.81900000 0.018551 1.6392 0.999824 -74.70 0.999824 -74.70 0.018552 28.972
8.81920000 0.018555 1.6254 0.999824 -74.70 0.999824 -74.70 0.018556 28.982
8.81940000 0.018559 1.6115 0.999824 -74.70 0.999824 -74.70 0.018561 28.991
8.81960000 0.018563 1.5976 0.999824 -74.70 0.999824 -74.70 0.018565 29.001
8.81980000 0.018568 1.5837 0.999824 -74.71 0.999824 -74.71 0.018569 29.011
8.82000000 0.018572 1.5697 0.999824 -74.71 0.999824 -74.71 0.018573 29.021
8.82020000 0.018576 1.5556 0.999824 -74.71 0.999824 -74.71 0.018578 29.031
8.82040000 0.018580 1.5416 0.999824 -74.71 0.999824 -74.71 0.018582 29.041
8.82060000 0.018585 1.5274 0.999824 -74.72 0.999824 -74.72 0.018586 29.051
8.82080000 0.018589 1.5132 0.999824 -74.72 0.999824 -74.72 0.018591 29.061
8.82100000 0.018593 1.4990 0.999823 -74.72 0.999823 -74.72 0.018595 29.071
8.82120000 0.018598 1.4847 0.999823 -74.72 0.999823 -74.72 0.018599 29.081
8.82140000 0.018602 1.4703 0.999823 -74.72 0.999823 -74.72 0.018604 29.092
8.82160000 0.018607 1.4559 0.999823 -74.73 0.999823 -74.73 0.018608 29.102
8.82180000 0.018611 1.4415 0.999823 -74.73 0.999823 -74.73 0.018613 29.112
8.82200000 0.018615 1.4270 0.999823 -74.73 0.999823 -74.73 0.018617 29.122
8.82220000 0.018620 1.4124 0.999823 -74.73 0.999823 -74.73 0.018622 29.133
8.82240000 0.018624 1.3978 0.999823 -74.73 0.999823 -74.73 0.018626 29.143
8.82260000 0.018629 1.3831 0.999823 -74.74 0.999823 -74.74 0.018631 29.154
8.82280000 0.018633 1.3684 0.999823 -74.74 0.999823 -74.74 0.018635 29.164
8.82300000 0.018638 1.3537 0.999823 -74.74 0.999823 -74.74 0.018640 29.175
8.82320000 0.018643 1.3388 0.999823 -74.74 0.999823 -74.74 0.018644 29.186
8.82340000 0.018647 1.3240 0.999822 -74.74 0.999822 -74.74 0.018649 29.196
8.82360000 0.018652 1.3090 0.999822 -74.75 0.999822 -74.75 0.018654 29.207
8.82380000 0.018657 1.2941 0.999822 -74.75 0.999822 -74.75 0.018658 29.218
8.82400000 0.018661 1.2790 0.999822 -74.75 0.999822 -74.75 0.018663 29.229
8.82420000 0.018666 1.2639 0.999822 -74.75 0.999822 -74.75 0.018668 29.240
8.82440000 0.018671 1.2488 0.999822 -74.75 0.999822 -74.75 0.018672 29.251
8.82460000 0.018675 1.2335 0.999822 -74.76 0.999822 -74.76 0.018677 29.262
8.82480000 0.018680 1.2183 0.999822 -74.76 0.999822 -74.76 0.018682 29.273
8.82500000 0.018685 1.2030 0.999822 -74.76 0.999822 -74.76 0.018687 29.284
8.82520000 0.018690 1.1876 0.999822 -74.76 0.999822 -74.76 0.018692 29.295
8.82540000 0.018695 1.1721 0.999821 -74.76 0.999821 -74.76 0.018696 29.306
8.82560000 0.018700 1.1566 0.999821 -74.77 0.999821 -74.77 0.018701 29.318
8.82580000 0.018704 1.1411 0.999821 -74.77 0.999821 -74.77 0.018706 29.329
8.82600000 0.018709 1.1255 0.999821 -74.77 0.999821 -74.77 0.018711 29.341
8.82620000 0.018714 1.1098 0.999821 -74.77 0.999821 -74.77 0.018716 29.352
8.82640000 0.018719 1.0940 0.999821 -74.78 0.999821 -74.78 0.018721 29.364
8.82660000 0.018724 1.0782 0.999821 -74.78 0.999821 -74.78 0.018726 29.375
8.82680000 0.018729 1.0624 0.999821 -74.78 0.999821 -74.78 0.018731 29.387
8.82700000 0.018734 1.0465 0.999821 -74.78 0.999821 -74.78 0.018736 29.398
8.82720000 0.018739 1.0305 0.999821 -74.78 0.999821 -74.78 0.018741 29.410
8.82740000 0.018745 1.0144 0.999821 -74.79 0.999821 -74.79 0.018746 29.422
8.82760000 0.018750 0.9983 0.999820 -74.79 0.999820 -74.79 0.018751 29.434
8.82780000 0.018755 0.9822 0.999820 -74.79 0.999820 -74.79 0.018757 29.446
8.82800000 0.018760 0.9659 0.999820 -74.79 0.999820 -74.79 0.018762 29.458
8.82820000 0.018765 0.9496 0.999820 -74.79 0.999820 -74.79 0.018767 29.470
8.82840000 0.018770 0.9333 0.999820 -74.80 0.999820 -74.80 0.018772 29.482
8.82860000 0.018776 0.9169 0.999820 -74.80 0.999820 -74.80 0.018777 29.494
8.82880000 0.018781 0.9004 0.999820 -74.80 0.999820 -74.80 0.018783 29.506
8.82900000 0.018786 0.8838 0.999820 -74.80 0.999820 -74.80 0.018788 29.519
8.82920000 0.018792 0.8672 0.999820 -74.80 0.999820 -74.80 0.018793 29.531
8.82940000 0.018797 0.8505 0.999819 -74.81 0.999819 -74.81 0.018799 29.543
8.82960000 0.018802 0.8338 0.999819 -74.81 0.999819 -74.81 0.018804 29.556
8.82980000 0.018808 0.8169 0.999819 -74.81 0.999819 -74.81 0.018810 29.568
8.83000000 0.018813 0.8000 0.999819 -74.81 0.999819 -74.81 0.018815 29.581
8.83020000 0.018819 0.7831 0.999819 -74.82 0.999819 -74.82 0.018821 29.594
8.83040000 0.018824 0.7661 0.999819 -74.82 0.999819 -74.82 0.018826 29.606
8.83060000 0.018830 0.7490 0.999819 -74.82 0.999819 -74.82 0.018832 29.619
8.83080000 0.018835 0.7318 0.999819 -74.82 0.999819 -74.82 0.018837 29.632
8.83100000 0.018841 0.7146 0.999819 -74.82 0.999819 -74.82 0.018843 29.645
8.83120000 0.018847 0.6973 0.999819 -74.83 0.999819 -74.83 0.018848 29.658
8.83140000 0.018852 0.6799 0.999818 -74.83 0.999818 -74.83 0.018854 29.671
8.83160000 0.018858 0.6624 0.999818 -74.83 0.999818 -74.83 0.018860 29.684
8.83180000 0.018864 0.6449 0.999818 -74.83 0.999818 -74.83 0.018866 29.697
8.83200000 0.018869 0.6273 0.999818 -74.83 0.999818 -74.83 0.018871 29.711
8.83220000 0.018875 0.6097 0.999818 -74.84 0.999818 -74.84 0.018877 29.724
8.83240000 0.018881 0.5919 0.999818 -74.84 0.999818 -74.84 0.018883 29.737
8.83260000 0.018887 0.5741 0.999818 -74.84 0.999818 -74.84 0.018889 29.751
8.83280000 0.018893 0.5562 0.999818 -74.84 0.999818 -74.84 0.018895 29.764
8.83300000 0.018899 0.5383 0.999817 -74.85 0.999817 -74.85 0.018901 29.778
8.83320000 0.018905 0.5202 0.999817 -74.85 0.999817 -74.85 0.018907 29.792
8.83340000 0.018911 0.5021 0.999817 -74.85 0.999817 -74.85 0.018913 29.805
8.83360000 0.018917 0.4839 0.999817 -74.85 0.999817 -74.85 0.018919 29.819
8.83380000 0.018923 0.4656 0.999817 -74.85 0.999817 -74.85 0.018925 29.833
8.83400000 0.018929 0.4473 0.999817 -74.86 0.999817 -74.86 0.018931 29.847
8.83420000 0.018935 0.4289 0.999817 -74.86 0.999817 -74.86 0.018937 29.861
8.83440000 0.018941 0.4104 0.999817 -74.86 0.999817 -74.86 0.018943 29.875
8.83460000 0.018947 0.3918 0.999817 -74.86 0.999817 -74.86 0.018949 29.890
8.83480000 0.018953 0.3731 0.999816 -74.87 0.999816 -74.87 0.018955 29.904
8.83500000 0.018960 0.3544 0.999816 -74.87 0.999816 -74.87 0.018962 29.918
8.83520000 0.018966 0.3355 0.999816 -74.87 0.999816 -74.87 0.018968 29.933
8.83540000 0.018972 0.3166 0.999816 -74.87 0.999816 -74.87 0.018974 29.947
8.83560000 0.018979 0.2976 0.999816 -74.87 0.999816 -74.87 0.018981 29.962
8.83580000 0.018985 0.2786 0.999816 -74.88 0.999816 -74.88 0.018987 29.976
8.83600000 0.018992 0.2594 0.999816 -74.88 0.999816 -74.88 0.018994 29.991
8.83620000 0.018998 0.2402 0.999816 -74.88 0.999816 -74.88 0.019000 30.006
8.83640000 0.019005 0.2208 0.999815 -74.88 0.999815 -74.88 0.019007 30.021
8.83660000 0.019011 0.2014 0.999815 -74.88 0.999815 -74.88 0.019013 30.036
8.83680000 0.019018 0.1819 0.999815 -74.89 0.999815 -74.89 0.019020 30.051
8.83700000 0.019024 0.1623 0.999815 -74.89 0.999815 -74.89 0.019026 30.066
8.83720000 0.019031 0.1426 0.999815 -74.89 0.999815 -74.89 0.019033 30.081
8.83740000 0.019038 0.1229 0.999815 -74.89 0.999815 -74.89 0.019040 30.096
8.83760000 0.019044 0.1030 0.999815 -74.90 0.999815 -74.90 0.019046 30.112
8.83780000 0.019051 0.0831 0.999814 -74.90 0.999814 -74.90 0.019053 30.127
8.83800000 0.019058 0.0630 0.999814 -74.90 0.999814 -74.90 0.019060 30.143
8.83820000 0.019065 0.0429 0.999814 -74.90 0.999814 -74.90 0.019067 30.158
8.83840000 0.019072 0.0227 0.999814 -74.90 0.999814 -74.90 0.019074 30.174
8.83860000 0.019079 0.0024 0.999814 -74.91 0.999814 -74.91 0.019081 30.190
8.83880000 0.019086 -0.018 0.999814 -74.91 0.999814 -74.91 0.019088 30.206
8.83900000 0.019093 -0.039 0.999814 -74.91 0.999814 -74.91 0.019095 30.222
8.83920000 0.019100 -0.059 0.999814 -74.91 0.999814 -74.91 0.019102 30.238
8.83940000 0.019107 -0.080 0.999813 -74.92 0.999813 -74.92 0.019109 30.254
8.83960000 0.019114 -0.101 0.999813 -74.92 0.999813 -74.92 0.019116 30.270
8.83980000 0.019121 -0.121 0.999813 -74.92 0.999813 -74.92 0.019123 30.287
8.84000000 0.019129 -0.142 0.999813 -74.92 0.999813 -74.92 0.019131 30.303
8.84020000 0.019136 -0.163 0.999813 -74.93 0.999813 -74.93 0.019138 30.319
8.84040000 0.019143 -0.185 0.999813 -74.93 0.999813 -74.93 0.019145 30.336
8.84060000 0.019151 -0.206 0.999812 -74.93 0.999812 -74.93 0.019153 30.353
8.84080000 0.019158 -0.227 0.999812 -74.93 0.999812 -74.93 0.019160 30.370
8.84100000 0.019166 -0.249 0.999812 -74.93 0.999812 -74.93 0.019168 30.386
8.84120000 0.019173 -0.270 0.999812 -74.94 0.999812 -74.94 0.019175 30.403
8.84140000 0.019181 -0.292 0.999812 -74.94 0.999812 -74.94 0.019183 30.421
8.84160000 0.019188 -0.314 0.999812 -74.94 0.999812 -74.94 0.019190 30.438
8.84180000 0.019196 -0.336 0.999812 -74.94 0.999812 -74.94 0.019198 30.455
8.84200000 0.019204 -0.358 0.999811 -74.95 0.999811 -74.95 0.019206 30.472
8.84220000 0.019211 -0.380 0.999811 -74.95 0.999811 -74.95 0.019214 30.490
8.84240000 0.019219 -0.402 0.999811 -74.95 0.999811 -74.95 0.019221 30.507
8.84260000 0.019227 -0.424 0.999811 -74.95 0.999811 -74.95 0.019229 30.525
8.84280000 0.019235 -0.447 0.999811 -74.95 0.999811 -74.95 0.019237 30.543
8.84300000 0.019243 -0.469 0.999811 -74.96 0.999811 -74.96 0.019245 30.561
8.84320000 0.019251 -0.492 0.999810 -74.96 0.999810 -74.96 0.019253 30.579
8.84340000 0.019259 -0.515 0.999810 -74.96 0.999810 -74.96 0.019261 30.597
8.84360000 0.019267 -0.538 0.999810 -74.96 0.999810 -74.96 0.019269 30.615
8.84380000 0.019275 -0.561 0.999810 -74.97 0.999810 -74.97 0.019278 30.633
8.84400000 0.019284 -0.584 0.999810 -74.97 0.999810 -74.97 0.019286 30.652
8.84420000 0.019292 -0.607 0.999810 -74.97 0.999810 -74.97 0.019294 30.670
8.84440000 0.019300 -0.630 0.999809 -74.97 0.999809 -74.97 0.019303 30.689
8.84460000 0.019309 -0.654 0.999809 -74.98 0.999809 -74.98 0.019311 30.708
8.84480000 0.019317 -0.677 0.999809 -74.98 0.999809 -74.98 0.019319 30.726
8.84500000 0.019325 -0.701 0.999809 -74.98 0.999809 -74.98 0.019328 30.745
8.84520000 0.019334 -0.725 0.999809 -74.98 0.999809 -74.98 0.019336 30.764
8.84540000 0.019343 -0.749 0.999809 -74.99 0.999809 -74.99 0.019345 30.784
8.84560000 0.019351 -0.773 0.999808 -74.99 0.999808 -74.99 0.019354 30.803
8.84580000 0.019360 -0.797 0.999808 -74.99 0.999808 -74.99 0.019363 30.822
8.84600000 0.019369 -0.821 0.999808 -74.99 0.999808 -74.99 0.019371 30.842
8.84620000 0.019378 -0.846 0.999808 -74.99 0.999808 -74.99 0.019380 30.861
8.84640000 0.019387 -0.870 0.999808 -75.00 0.999808 -75.00 0.019389 30.881
8.84660000 0.019396 -0.895 0.999808 -75.00 0.999808 -75.00 0.019398 30.901
8.84680000 0.019405 -0.920 0.999807 -75.00 0.999807 -75.00 0.019407 30.921
8.84700000 0.019414 -0.945 0.999807 -75.00 0.999807 -75.00 0.019416 30.941
8.84720000 0.019423 -0.970 0.999807 -75.01 0.999807 -75.01 0.019425 30.961
8.84740000 0.019432 -0.995 0.999807 -75.01 0.999807 -75.01 0.019435 30.982
8.84760000 0.019441 -1.020 0.999807 -75.01 0.999807 -75.01 0.019444 31.002
8.84780000 0.019451 -1.046 0.999806 -75.01 0.999806 -75.01 0.019453 31.023
8.84800000 0.019460 -1.071 0.999806 -75.02 0.999806 -75.02 0.019463 31.043
8.84820000 0.019470 -1.097 0.999806 -75.02 0.999806 -75.02 0.019472 31.064
8.84840000 0.019479 -1.123 0.999806 -75.02 0.999806 -75.02 0.019482 31.085
8.84860000 0.019489 -1.149 0.999806 -75.02 0.999806 -75.02 0.019491 31.106
8.84880000 0.019499 -1.175 0.999805 -75.03 0.999805 -75.03 0.019501 31.128
8.84900000 0.019508 -1.201 0.999805 -75.03 0.999805 -75.03 0.019511 31.149
8.84920000 0.019518 -1.228 0.999805 -75.03 0.999805 -75.03 0.019521 31.170
8.84940000 0.019528 -1.254 0.999805 -75.03 0.999805 -75.03 0.019531 31.192
8.84960000 0.019538 -1.281 0.999805 -75.04 0.999805 -75.04 0.019541 31.214
8.84980000 0.019548 -1.308 0.999804 -75.04 0.999804 -75.04 0.019551 31.236
8.85000000 0.019558 -1.335 0.999804 -75.04 0.999804 -75.04 0.019561 31.258
8.85020000 0.019568 -1.362 0.999804 -75.04 0.999804 -75.04 0.019571 31.280
8.85040000 0.019579 -1.389 0.999804 -75.05 0.999804 -75.05 0.019581 31.302
8.85060000 0.019589 -1.417 0.999804 -75.05 0.999804 -75.05 0.019592 31.325
8.85080000 0.019599 -1.444 0.999803 -75.05 0.999803 -75.05 0.019602 31.347
8.85100000 0.019610 -1.472 0.999803 -75.05 0.999803 -75.05 0.019613 31.370
8.85120000 0.019620 -1.500 0.999803 -75.06 0.999803 -75.06 0.019623 31.393
8.85140000 0.019631 -1.528 0.999803 -75.06 0.999803 -75.06 0.019634 31.416
8.85160000 0.019642 -1.556 0.999803 -75.06 0.999803 -75.06 0.019644 31.439
8.85180000 0.019652 -1.585 0.999802 -75.06 0.999802 -75.06 0.019655 31.463
8.85200000 0.019663 -1.613 0.999802 -75.07 0.999802 -75.07 0.019666 31.486
8.85220000 0.019674 -1.642 0.999802 -75.07 0.999802 -75.07 0.019677 31.510
8.85240000 0.019685 -1.671 0.999802 -75.07 0.999802 -75.07 0.019688 31.533
8.85260000 0.019697 -1.700 0.999801 -75.07 0.999801 -75.07 0.019699 31.557
8.85280000 0.019708 -1.729 0.999801 -75.08 0.999801 -75.08 0.019711 31.581
8.85300000 0.019719 -1.759 0.999801 -75.08 0.999801 -75.08 0.019722 31.606
8.85320000 0.019730 -1.788 0.999801 -75.08 0.999801 -75.08 0.019733 31.630
8.85340000 0.019742 -1.818 0.999800 -75.08 0.999800 -75.08 0.019745 31.655
8.85360000 0.019753 -1.848 0.999800 -75.09 0.999800 -75.09 0.019756 31.679
8.85380000 0.019765 -1.878 0.999800 -75.09 0.999800 -75.09 0.019768 31.704
8.85400000 0.019777 -1.908 0.999800 -75.09 0.999800 -75.09 0.019780 31.729
8.85420000 0.019789 -1.939 0.999800 -75.09 0.999800 -75.09 0.019792 31.755
8.85440000 0.019801 -1.969 0.999799 -75.10 0.999799 -75.10 0.019804 31.780
8.85460000 0.019813 -2.000 0.999799 -75.10 0.999799 -75.10 0.019816 31.806
8.85480000 0.019825 -2.031 0.999799 -75.10 0.999799 -75.10 0.019828 31.831
8.85500000 0.019837 -2.062 0.999799 -75.10 0.999799 -75.10 0.019840 31.857
8.85520000 0.019849 -2.094 0.999798 -75.11 0.999798 -75.11 0.019852 31.883
8.85540000 0.019862 -2.125 0.999798 -75.11 0.999798 -75.11 0.019865 31.909
8.85560000 0.019874 -2.157 0.999798 -75.11 0.999798 -75.11 0.019877 31.936
8.85580000 0.019887 -2.189 0.999797 -75.11 0.999797 -75.11 0.019890 31.962
8.85600000 0.019900 -2.221 0.999797 -75.12 0.999797 -75.12 0.019903 31.989
8.85620000 0.019912 -2.253 0.999797 -75.12 0.999797 -75.12 0.019916 32.016
8.85640000 0.019925 -2.286 0.999797 -75.12 0.999797 -75.12 0.019929 32.043
8.85660000 0.019938 -2.319 0.999796 -75.13 0.999796 -75.13 0.019942 32.071
8.85680000 0.019952 -2.352 0.999796 -75.13 0.999796 -75.13 0.019955 32.098
8.85700000 0.019965 -2.385 0.999796 -75.13 0.999796 -75.13 0.019968 32.126
8.85720000 0.019978 -2.418 0.999796 -75.13 0.999796 -75.13 0.019981 32.154
8.85740000 0.019992 -2.452 0.999795 -75.14 0.999795 -75.14 0.019995 32.182
8.85760000 0.020005 -2.485 0.999795 -75.14 0.999795 -75.14 0.020009 32.210
8.85780000 0.020019 -2.519 0.999795 -75.14 0.999795 -75.14 0.020022 32.239
8.85800000 0.020033 -2.554 0.999794 -75.14 0.999794 -75.14 0.020036 32.267
8.85820000 0.020047 -2.588 0.999794 -75.15 0.999794 -75.15 0.020050 32.296
8.85840000 0.020061 -2.623 0.999794 -75.15 0.999794 -75.15 0.020064 32.325
8.85860000 0.020075 -2.657 0.999794 -75.15 0.999794 -75.15 0.020078 32.355
8.85880000 0.020089 -2.693 0.999793 -75.16 0.999793 -75.16 0.020093 32.384
8.85900000 0.020104 -2.728 0.999793 -75.16 0.999793 -75.16 0.020107 32.414
8.85920000 0.020118 -2.763 0.999793 -75.16 0.999793 -75.16 0.020122 32.444
8.85940000 0.020133 -2.799 0.999792 -75.16 0.999792 -75.16 0.020136 32.474
8.85960000 0.020148 -2.835 0.999792 -75.17 0.999792 -75.17 0.020151 32.504
8.85980000 0.020163 -2.871 0.999792 -75.17 0.999792 -75.17 0.020166 32.535
8.86000000 0.020178 -2.908 0.999791 -75.17 0.999791 -75.17 0.020181 32.565
8.86020000 0.020193 -2.945 0.999791 -75.17 0.999791 -75.17 0.020196 32.596
8.86040000 0.020208 -2.982 0.999791 -75.18 0.999791 -75.18 0.020212 32.628
8.86060000 0.020224 -3.019 0.999790 -75.18 0.999790 -75.18 0.020227 32.659
8.86080000 0.020239 -3.056 0.999790 -75.18 0.999790 -75.18 0.020243 32.691
8.86100000 0.020255 -3.094 0.999790 -75.19 0.999790 -75.19 0.020259 32.723
8.86120000 0.020271 -3.132 0.999789 -75.19 0.999789 -75.19 0.020275 32.755
8.86140000 0.020287 -3.170 0.999789 -75.19 0.999789 -75.19 0.020291 32.787
8.86160000 0.020303 -3.208 0.999789 -75.19 0.999789 -75.19 0.020307 32.820
8.86180000 0.020319 -3.247 0.999788 -75.20 0.999788 -75.20 0.020323 32.853
8.86200000 0.020336 -3.286 0.999788 -75.20 0.999788 -75.20 0.020340 32.886
8.86220000 0.020353 -3.325 0.999788 -75.20 0.999788 -75.20 0.020356 32.919
8.86240000 0.020369 -3.365 0.999787 -75.21 0.999787 -75.21 0.020373 32.953
8.86260000 0.020386 -3.405 0.999787 -75.21 0.999787 -75.21 0.020390 32.986
8.86280000 0.020403 -3.445 0.999787 -75.21 0.999787 -75.21 0.020407 33.021
8.86300000 0.020421 -3.485 0.999786 -75.22 0.999786 -75.22 0.020425 33.055
8.86320000 0.020438 -3.526 0.999786 -75.22 0.999786 -75.22 0.020442 33.089
8.86340000 0.020456 -3.567 0.999785 -75.22 0.999785 -75.22 0.020460 33.124
8.86360000 0.020473 -3.608 0.999785 -75.22 0.999785 -75.22 0.020477 33.159
8.86380000 0.020491 -3.650 0.999785 -75.23 0.999785 -75.23 0.020495 33.195
8.86400000 0.020510 -3.691 0.999784 -75.23 0.999784 -75.23 0.020513 33.231
8.86420000 0.020528 -3.733 0.999784 -75.23 0.999784 -75.23 0.020532 33.266
8.86440000 0.020546 -3.776 0.999783 -75.24 0.999783 -75.24 0.020550 33.303
8.86460000 0.020565 -3.819 0.999783 -75.24 0.999783 -75.24 0.020569 33.339
8.86480000 0.020584 -3.862 0.999783 -75.24 0.999783 -75.24 0.020588 33.376
8.86500000 0.020603 -3.905 0.999782 -75.25 0.999782 -75.25 0.020607 33.413
8.86520000 0.020622 -3.949 0.999782 -75.25 0.999782 -75.25 0.020626 33.450
8.86540000 0.020641 -3.993 0.999781 -75.25 0.999781 -75.25 0.020646 33.488
8.86560000 0.020661 -4.037 0.999781 -75.25 0.999781 -75.25 0.020665 33.526
8.86580000 0.020681 -4.081 0.999780 -75.26 0.999780 -75.26 0.020685 33.564
8.86600000 0.020701 -4.126 0.999780 -75.26 0.999780 -75.26 0.020705 33.603
8.86620000 0.020721 -4.172 0.999780 -75.26 0.999780 -75.26 0.020725 33.642
8.86640000 0.020741 -4.217 0.999779 -75.27 0.999779 -75.27 0.020746 33.681
8.86660000 0.020762 -4.263 0.999779 -75.27 0.999779 -75.27 0.020766 33.720
8.86680000 0.020783 -4.310 0.999778 -75.27 0.999778 -75.27 0.020787 33.760
8.86700000 0.020804 -4.356 0.999778 -75.28 0.999778 -75.28 0.020808 33.800
8.86720000 0.020825 -4.403 0.999777 -75.28 0.999777 -75.28 0.020829 33.841
8.86740000 0.020847 -4.451 0.999777 -75.28 0.999777 -75.28 0.020851 33.881
8.86760000 0.020868 -4.498 0.999776 -75.29 0.999776 -75.29 0.020873 33.922
8.86780000 0.020890 -4.546 0.999776 -75.29 0.999776 -75.29 0.020895 33.964
8.86800000 0.020912 -4.595 0.999775 -75.29 0.999775 -75.29 0.020917 34.006
8.86820000 0.020935 -4.644 0.999775 -75.30 0.999775 -75.30 0.020939 34.048
8.86840000 0.020957 -4.693 0.999774 -75.30 0.999774 -75.30 0.020962 34.090
8.86860000 0.020980 -4.743 0.999774 -75.30 0.999774 -75.30 0.020985 34.133
8.86880000 0.021003 -4.793 0.999773 -75.31 0.999773 -75.31 0.021008 34.176
8.86900000 0.021027 -4.843 0.999773 -75.31 0.999773 -75.31 0.021032 34.220
8.86920000 0.021051 -4.894 0.999772 -75.31 0.999772 -75.31 0.021055 34.263
8.86940000 0.021074 -4.945 0.999772 -75.32 0.999772 -75.32 0.021079 34.308
8.86960000 0.021099 -4.997 0.999771 -75.32 0.999771 -75.32 0.021104 34.352
8.86980000 0.021123 -5.049 0.999771 -75.32 0.999771 -75.32 0.021128 34.397
8.87000000 0.021148 -5.101 0.999770 -75.33 0.999770 -75.33 0.021153 34.443
8.87020000 0.021173 -5.154 0.999770 -75.33 0.999770 -75.33 0.021178 34.488
8.87040000 0.021198 -5.207 0.999769 -75.33 0.999769 -75.33 0.021203 34.535
8.87060000 0.021224 -5.261 0.999768 -75.34 0.999768 -75.34 0.021229 34.581
8.87080000 0.021250 -5.315 0.999768 -75.34 0.999768 -75.34 0.021255 34.628
8.87100000 0.021276 -5.370 0.999767 -75.34 0.999767 -75.34 0.021281 34.675
8.87120000 0.021302 -5.425 0.999767 -75.35 0.999767 -75.35 0.021307 34.723
8.87140000 0.021329 -5.481 0.999766 -75.35 0.999766 -75.35 0.021334 34.771
8.87160000 0.021356 -5.537 0.999765 -75.36 0.999765 -75.36 0.021361 34.820
8.87180000 0.021384 -5.593 0.999765 -75.36 0.999765 -75.36 0.021389 34.869
8.87200000 0.021411 -5.650 0.999764 -75.36 0.999764 -75.36 0.021417 34.918
8.87220000 0.021439 -5.707 0.999764 -75.37 0.999764 -75.37 0.021445 34.968
8.87240000 0.021468 -5.765 0.999763 -75.37 0.999763 -75.37 0.021473 35.019
8.87260000 0.021497 -5.824 0.999762 -75.37 0.999762 -75.37 0.021502 35.069
8.87280000 0.021526 -5.883 0.999762 -75.38 0.999762 -75.38 0.021531 35.121
8.87300000 0.021555 -5.942 0.999761 -75.38 0.999761 -75.38 0.021561 35.172
8.87320000 0.021585 -6.002 0.999760 -75.39 0.999760 -75.39 0.021591 35.224
8.87340000 0.021615 -6.063 0.999759 -75.39 0.999759 -75.39 0.021621 35.277
8.87360000 0.021646 -6.124 0.999759 -75.39 0.999759 -75.39 0.021652 35.330
8.87380000 0.021677 -6.185 0.999758 -75.40 0.999758 -75.40 0.021683 35.384
8.87400000 0.021708 -6.247 0.999757 -75.40 0.999757 -75.40 0.021714 35.438
8.87420000 0.021740 -6.310 0.999757 -75.40 0.999757 -75.40 0.021746 35.492
8.87440000 0.021772 -6.373 0.999756 -75.41 0.999756 -75.41 0.021778 35.547
8.87460000 0.021805 -6.437 0.999755 -75.41 0.999755 -75.41 0.021811 35.603
8.87480000 0.021838 -6.501 0.999754 -75.42 0.999754 -75.42 0.021844 35.659
8.87500000 0.021871 -6.566 0.999754 -75.42 0.999754 -75.42 0.021877 35.716
8.87520000 0.021905 -6.632 0.999753 -75.42 0.999753 -75.42 0.021911 35.773
8.87540000 0.021939 -6.698 0.999752 -75.43 0.999752 -75.43 0.021946 35.830
8.87560000 0.021974 -6.764 0.999751 -75.43 0.999751 -75.43 0.021980 35.889
8.87580000 0.022009 -6.832 0.999750 -75.44 0.999750 -75.44 0.022016 35.947
8.87600000 0.022045 -6.900 0.999749 -75.44 0.999749 -75.44 0.022051 36.007
8.87620000 0.022081 -6.968 0.999749 -75.45 0.999749 -75.45 0.022088 36.067
8.87640000 0.022118 -7.038 0.999748 -75.45 0.999748 -75.45 0.022124 36.127
8.87660000 0.022155 -7.107 0.999747 -75.45 0.999747 -75.45 0.022162 36.188
8.87680000 0.022193 -7.178 0.999746 -75.46 0.999746 -75.46 0.022199 36.250
8.87700000 0.022231 -7.249 0.999745 -75.46 0.999745 -75.46 0.022238 36.312
8.87720000 0.022270 -7.321 0.999744 -75.47 0.999744 -75.47 0.022277 36.375
8.87740000 0.022309 -7.394 0.999743 -75.47 0.999743 -75.47 0.022316 36.438
8.87750349 0.022330 -7.432 0.999743 -75.47 0.999743 -75.47 0.022336 36.471
8.87760000 0.022349 -7.467 0.999742 -75.48 0.999742 -75.48 0.022356 36.502
8.87780000 0.022389 -7.541 0.999741 -75.48 0.999741 -75.48 0.022396 36.567
8.87800000 0.022430 -7.616 0.999740 -75.49 0.999740 -75.49 0.022437 36.633
8.87819086 0.022470 -7.688 0.999739 -75.49 0.999739 -75.49 0.022477 36.696