! Sonnet Data File
! From: emgraph Version : 16.52
! From Project: Resonator2_cp
! Data is De-embedded 
! Data File Written: 10/06/2017 13:30:08
!< HDATE 10/06/2017 09:06:26
!< MDATE 10/06/2017 09:06:26
!< PARAMS
!< gap = 100.0
!< Length = 400.0
!< Pwid1 = 2000.0
!< Pwid2 = 2000.0
!< END PARAMS
# GHZ S MA R 35.97000
8.80000000 0.011164 4.8980 0.999935 -74.10 0.999935 -74.10 0.011165 26.928
!< P1 F=8.8 Eeff=(5.36817953 -2.3731e-5) Z0=(35.9853883 8.0522e-5) R=0.0 C=0.0 
!< P2 F=8.8 Eeff=(5.36817953 -2.3731e-5) Z0=(35.9853883 8.0522e-5) R=0.0 C=0.0 
8.80020000 0.011165 4.8901 0.999935 -74.10 0.999935 -74.10 0.011166 26.933
8.80040000 0.011165 4.8822 0.999935 -74.10 0.999935 -74.10 0.011166 26.937
8.80060000 0.011166 4.8743 0.999935 -74.10 0.999935 -74.10 0.011167 26.942
8.80080000 0.011166 4.8663 0.999935 -74.10 0.999935 -74.10 0.011167 26.946
8.80100000 0.011167 4.8583 0.999935 -74.11 0.999935 -74.11 0.011168 26.950
8.80120000 0.011167 4.8503 0.999935 -74.11 0.999935 -74.11 0.011168 26.955
8.80140000 0.011168 4.8423 0.999935 -74.11 0.999935 -74.11 0.011169 26.959
8.80160000 0.011168 4.8343 0.999935 -74.11 0.999935 -74.11 0.011169 26.964
8.80180000 0.011169 4.8263 0.999935 -74.11 0.999935 -74.11 0.011170 26.968
8.80200000 0.011169 4.8182 0.999935 -74.12 0.999935 -74.12 0.011170 26.973
8.80220000 0.011170 4.8101 0.999935 -74.12 0.999935 -74.12 0.011171 26.977
8.80240000 0.011170 4.8020 0.999935 -74.12 0.999935 -74.12 0.011171 26.982
8.80260000 0.011171 4.7939 0.999935 -74.12 0.999935 -74.12 0.011172 26.986
8.80280000 0.011171 4.7857 0.999935 -74.12 0.999935 -74.12 0.011172 26.991
8.80300000 0.011172 4.7776 0.999935 -74.12 0.999935 -74.12 0.011173 26.995
8.80320000 0.011172 4.7694 0.999935 -74.13 0.999935 -74.13 0.011173 27.000
8.80340000 0.011173 4.7612 0.999935 -74.13 0.999935 -74.13 0.011174 27.004
8.80360000 0.011173 4.7530 0.999935 -74.13 0.999935 -74.13 0.011174 27.009
8.80380000 0.011174 4.7448 0.999935 -74.13 0.999935 -74.13 0.011175 27.014
8.80400000 0.011174 4.7365 0.999935 -74.13 0.999935 -74.13 0.011176 27.018
8.80420000 0.011175 4.7282 0.999935 -74.13 0.999935 -74.13 0.011176 27.023
8.80440000 0.011176 4.7199 0.999935 -74.14 0.999935 -74.14 0.011177 27.028
8.80460000 0.011176 4.7116 0.999935 -74.14 0.999935 -74.14 0.011177 27.033
8.80480000 0.011177 4.7033 0.999935 -74.14 0.999935 -74.14 0.011178 27.037
8.80500000 0.011177 4.6949 0.999934 -74.14 0.999934 -74.14 0.011178 27.042
8.80520000 0.011178 4.6865 0.999934 -74.14 0.999934 -74.14 0.011179 27.047
8.80540000 0.011178 4.6781 0.999934 -74.15 0.999934 -74.15 0.011179 27.052
8.80560000 0.011179 4.6697 0.999934 -74.15 0.999934 -74.15 0.011180 27.057
8.80580000 0.011179 4.6613 0.999934 -74.15 0.999934 -74.15 0.011180 27.061
8.80600000 0.011180 4.6528 0.999934 -74.15 0.999934 -74.15 0.011181 27.066
8.80620000 0.011180 4.6444 0.999934 -74.15 0.999934 -74.15 0.011181 27.071
8.80640000 0.011181 4.6359 0.999934 -74.15 0.999934 -74.15 0.011182 27.076
8.80660000 0.011181 4.6273 0.999934 -74.16 0.999934 -74.16 0.011183 27.081
8.80680000 0.011182 4.6188 0.999934 -74.16 0.999934 -74.16 0.011183 27.086
8.80700000 0.011183 4.6102 0.999934 -74.16 0.999934 -74.16 0.011184 27.091
8.80720000 0.011183 4.6017 0.999934 -74.16 0.999934 -74.16 0.011184 27.096
8.80740000 0.011184 4.5931 0.999934 -74.16 0.999934 -74.16 0.011185 27.101
8.80760000 0.011184 4.5844 0.999934 -74.17 0.999934 -74.17 0.011185 27.106
8.80780000 0.011185 4.5758 0.999934 -74.17 0.999934 -74.17 0.011186 27.111
8.80800000 0.011185 4.5671 0.999934 -74.17 0.999934 -74.17 0.011186 27.116
8.80820000 0.011186 4.5584 0.999934 -74.17 0.999934 -74.17 0.011187 27.121
8.80840000 0.011187 4.5497 0.999934 -74.17 0.999934 -74.17 0.011188 27.126
8.80860000 0.011187 4.5410 0.999934 -74.17 0.999934 -74.17 0.011188 27.131
8.80880000 0.011188 4.5322 0.999934 -74.18 0.999934 -74.18 0.011189 27.137
8.80900000 0.011188 4.5234 0.999934 -74.18 0.999934 -74.18 0.011189 27.142
8.80920000 0.011189 4.5146 0.999934 -74.18 0.999934 -74.18 0.011190 27.147
8.80940000 0.011189 4.5058 0.999934 -74.18 0.999934 -74.18 0.011191 27.152
8.80960000 0.011190 4.4970 0.999934 -74.18 0.999934 -74.18 0.011191 27.157
8.80980000 0.011191 4.4881 0.999934 -74.18 0.999934 -74.18 0.011192 27.163
8.81000000 0.011191 4.4792 0.999934 -74.19 0.999934 -74.19 0.011192 27.168
8.81020000 0.011192 4.4703 0.999934 -74.19 0.999934 -74.19 0.011193 27.173
8.81040000 0.011192 4.4614 0.999934 -74.19 0.999934 -74.19 0.011194 27.179
8.81060000 0.011193 4.4524 0.999934 -74.19 0.999934 -74.19 0.011194 27.184
8.81080000 0.011194 4.4434 0.999934 -74.19 0.999934 -74.19 0.011195 27.189
8.81100000 0.011194 4.4344 0.999934 -74.20 0.999934 -74.20 0.011195 27.195
8.81120000 0.011195 4.4254 0.999934 -74.20 0.999934 -74.20 0.011196 27.200
8.81140000 0.011195 4.4163 0.999934 -74.20 0.999934 -74.20 0.011197 27.206
8.81160000 0.011196 4.4073 0.999934 -74.20 0.999934 -74.20 0.011197 27.211
8.81180000 0.011197 4.3982 0.999934 -74.20 0.999934 -74.20 0.011198 27.217
8.81200000 0.011197 4.3890 0.999934 -74.20 0.999934 -74.20 0.011198 27.222
8.81220000 0.011198 4.3799 0.999934 -74.21 0.999934 -74.21 0.011199 27.228
8.81240000 0.011199 4.3707 0.999934 -74.21 0.999934 -74.21 0.011200 27.233
8.81260000 0.011199 4.3615 0.999934 -74.21 0.999934 -74.21 0.011200 27.239
8.81280000 0.011200 4.3523 0.999934 -74.21 0.999934 -74.21 0.011201 27.244
8.81300000 0.011200 4.3431 0.999934 -74.21 0.999934 -74.21 0.011202 27.250
8.81320000 0.011201 4.3338 0.999934 -74.22 0.999934 -74.22 0.011202 27.256
8.81340000 0.011202 4.3245 0.999934 -74.22 0.999934 -74.22 0.011203 27.261
8.81360000 0.011202 4.3152 0.999934 -74.22 0.999934 -74.22 0.011204 27.267
8.81380000 0.011203 4.3058 0.999934 -74.22 0.999934 -74.22 0.011204 27.273
8.81400000 0.011204 4.2965 0.999934 -74.22 0.999934 -74.22 0.011205 27.279
8.81420000 0.011204 4.2871 0.999934 -74.22 0.999934 -74.22 0.011206 27.284
8.81440000 0.011205 4.2776 0.999934 -74.23 0.999934 -74.23 0.011206 27.290
8.81460000 0.011206 4.2682 0.999934 -74.23 0.999934 -74.23 0.011207 27.296
8.81480000 0.011206 4.2587 0.999934 -74.23 0.999934 -74.23 0.011207 27.302
8.81500000 0.011207 4.2492 0.999934 -74.23 0.999934 -74.23 0.011208 27.308
8.81520000 0.011208 4.2397 0.999934 -74.23 0.999934 -74.23 0.011209 27.314
8.81540000 0.011208 4.2301 0.999934 -74.24 0.999934 -74.24 0.011209 27.320
8.81560000 0.011209 4.2206 0.999934 -74.24 0.999934 -74.24 0.011210 27.326
8.81580000 0.011210 4.2110 0.999934 -74.24 0.999934 -74.24 0.011211 27.332
8.81600000 0.011210 4.2013 0.999934 -74.24 0.999934 -74.24 0.011212 27.338
8.81620000 0.011211 4.1917 0.999934 -74.24 0.999934 -74.24 0.011212 27.344
8.81640000 0.011212 4.1820 0.999934 -74.24 0.999934 -74.24 0.011213 27.350
8.81660000 0.011212 4.1723 0.999934 -74.25 0.999934 -74.25 0.011214 27.356
8.81680000 0.011213 4.1626 0.999934 -74.25 0.999934 -74.25 0.011214 27.362
8.81700000 0.011214 4.1528 0.999934 -74.25 0.999934 -74.25 0.011215 27.368
8.81720000 0.011215 4.1430 0.999934 -74.25 0.999934 -74.25 0.011216 27.374
8.81740000 0.011215 4.1332 0.999934 -74.25 0.999934 -74.25 0.011216 27.380
8.81760000 0.011216 4.1233 0.999934 -74.25 0.999934 -74.25 0.011217 27.387
8.81780000 0.011217 4.1135 0.999934 -74.26 0.999934 -74.26 0.011218 27.393
8.81800000 0.011217 4.1036 0.999934 -74.26 0.999934 -74.26 0.011219 27.399
8.81820000 0.011218 4.0936 0.999934 -74.26 0.999934 -74.26 0.011219 27.405
8.81840000 0.011219 4.0837 0.999934 -74.26 0.999934 -74.26 0.011220 27.412
8.81860000 0.011220 4.0737 0.999934 -74.26 0.999934 -74.26 0.011221 27.418
8.81880000 0.011220 4.0637 0.999934 -74.27 0.999934 -74.27 0.011221 27.424
8.81900000 0.011221 4.0536 0.999934 -74.27 0.999934 -74.27 0.011222 27.431
8.81920000 0.011222 4.0435 0.999934 -74.27 0.999934 -74.27 0.011223 27.437
8.81940000 0.011222 4.0334 0.999934 -74.27 0.999934 -74.27 0.011224 27.444
8.81960000 0.011223 4.0233 0.999934 -74.27 0.999934 -74.27 0.011224 27.450
8.81980000 0.011224 4.0131 0.999934 -74.27 0.999934 -74.27 0.011225 27.457
8.82000000 0.011225 4.0030 0.999934 -74.28 0.999934 -74.28 0.011226 27.463
8.82020000 0.011225 3.9927 0.999934 -74.28 0.999934 -74.28 0.011227 27.470
8.82040000 0.011226 3.9825 0.999934 -74.28 0.999934 -74.28 0.011227 27.477
8.82060000 0.011227 3.9722 0.999934 -74.28 0.999934 -74.28 0.011228 27.483
8.82080000 0.011228 3.9619 0.999934 -74.28 0.999934 -74.28 0.011229 27.490
8.82100000 0.011228 3.9515 0.999934 -74.29 0.999934 -74.29 0.011230 27.497
8.82120000 0.011229 3.9412 0.999934 -74.29 0.999934 -74.29 0.011230 27.503
8.82140000 0.011230 3.9308 0.999934 -74.29 0.999934 -74.29 0.011231 27.510
8.82160000 0.011231 3.9203 0.999934 -74.29 0.999934 -74.29 0.011232 27.517
8.82180000 0.011232 3.9099 0.999934 -74.29 0.999934 -74.29 0.011233 27.524
8.82200000 0.011232 3.8994 0.999934 -74.29 0.999934 -74.29 0.011233 27.531
8.82220000 0.011233 3.8889 0.999934 -74.30 0.999934 -74.30 0.011234 27.538
8.82240000 0.011234 3.8783 0.999934 -74.30 0.999934 -74.30 0.011235 27.544
8.82260000 0.011235 3.8677 0.999934 -74.30 0.999934 -74.30 0.011236 27.551
8.82280000 0.011235 3.8571 0.999934 -74.30 0.999934 -74.30 0.011237 27.558
8.82300000 0.011236 3.8464 0.999934 -74.30 0.999934 -74.30 0.011237 27.565
8.82320000 0.011237 3.8357 0.999934 -74.31 0.999934 -74.31 0.011238 27.572
8.82340000 0.011238 3.8250 0.999934 -74.31 0.999934 -74.31 0.011239 27.579
8.82360000 0.011239 3.8143 0.999934 -74.31 0.999934 -74.31 0.011240 27.587
8.82380000 0.011239 3.8035 0.999934 -74.31 0.999934 -74.31 0.011241 27.594
8.82400000 0.011240 3.7927 0.999934 -74.31 0.999934 -74.31 0.011242 27.601
8.82420000 0.011241 3.7818 0.999934 -74.31 0.999934 -74.31 0.011242 27.608
8.82440000 0.011242 3.7709 0.999934 -74.32 0.999934 -74.32 0.011243 27.615
8.82460000 0.011243 3.7600 0.999934 -74.32 0.999934 -74.32 0.011244 27.623
8.82480000 0.011244 3.7490 0.999934 -74.32 0.999934 -74.32 0.011245 27.630
8.82500000 0.011244 3.7381 0.999934 -74.32 0.999934 -74.32 0.011246 27.637
8.82520000 0.011245 3.7270 0.999934 -74.32 0.999934 -74.32 0.011247 27.645
8.82540000 0.011246 3.7160 0.999934 -74.33 0.999934 -74.33 0.011247 27.652
8.82560000 0.011247 3.7049 0.999934 -74.33 0.999934 -74.33 0.011248 27.659
8.82580000 0.011248 3.6938 0.999934 -74.33 0.999934 -74.33 0.011249 27.667
8.82600000 0.011249 3.6826 0.999934 -74.33 0.999934 -74.33 0.011250 27.674
8.82620000 0.011250 3.6714 0.999934 -74.33 0.999934 -74.33 0.011251 27.682
8.82640000 0.011250 3.6602 0.999934 -74.33 0.999934 -74.33 0.011252 27.690
8.82660000 0.011251 3.6489 0.999934 -74.34 0.999934 -74.34 0.011253 27.697
8.82680000 0.011252 3.6376 0.999934 -74.34 0.999934 -74.34 0.011253 27.705
8.82700000 0.011253 3.6263 0.999933 -74.34 0.999933 -74.34 0.011254 27.712
8.82720000 0.011254 3.6149 0.999933 -74.34 0.999933 -74.34 0.011255 27.720
8.82740000 0.011255 3.6035 0.999933 -74.34 0.999933 -74.34 0.011256 27.728
8.82760000 0.011256 3.5920 0.999933 -74.35 0.999933 -74.35 0.011257 27.736
8.82780000 0.011257 3.5805 0.999933 -74.35 0.999933 -74.35 0.011258 27.744
8.82800000 0.011258 3.5690 0.999933 -74.35 0.999933 -74.35 0.011259 27.751
8.82820000 0.011258 3.5574 0.999933 -74.35 0.999933 -74.35 0.011260 27.759
8.82840000 0.011259 3.5458 0.999933 -74.35 0.999933 -74.35 0.011261 27.767
8.82860000 0.011260 3.5342 0.999933 -74.35 0.999933 -74.35 0.011262 27.775
8.82880000 0.011261 3.5225 0.999933 -74.36 0.999933 -74.36 0.011262 27.783
8.82900000 0.011262 3.5108 0.999933 -74.36 0.999933 -74.36 0.011263 27.791
8.82920000 0.011263 3.4991 0.999933 -74.36 0.999933 -74.36 0.011264 27.799
8.82940000 0.011264 3.4873 0.999933 -74.36 0.999933 -74.36 0.011265 27.807
8.82960000 0.011265 3.4754 0.999933 -74.36 0.999933 -74.36 0.011266 27.816
8.82980000 0.011266 3.4636 0.999933 -74.37 0.999933 -74.37 0.011267 27.824
8.83000000 0.011267 3.4517 0.999933 -74.37 0.999933 -74.37 0.011268 27.832
8.83020000 0.011268 3.4397 0.999933 -74.37 0.999933 -74.37 0.011269 27.840
8.83040000 0.011269 3.4277 0.999933 -74.37 0.999933 -74.37 0.011270 27.849
8.83060000 0.011270 3.4157 0.999933 -74.37 0.999933 -74.37 0.011271 27.857
8.83080000 0.011271 3.4036 0.999933 -74.37 0.999933 -74.37 0.011272 27.865
8.83100000 0.011272 3.3915 0.999933 -74.38 0.999933 -74.38 0.011273 27.874
8.83120000 0.011273 3.3794 0.999933 -74.38 0.999933 -74.38 0.011274 27.882
8.83140000 0.011274 3.3672 0.999933 -74.38 0.999933 -74.38 0.011275 27.891
8.83160000 0.011275 3.3549 0.999933 -74.38 0.999933 -74.38 0.011276 27.899
8.83180000 0.011276 3.3427 0.999933 -74.38 0.999933 -74.38 0.011277 27.908
8.83200000 0.011277 3.3303 0.999933 -74.39 0.999933 -74.39 0.011278 27.917
8.83220000 0.011278 3.3180 0.999933 -74.39 0.999933 -74.39 0.011279 27.925
8.83240000 0.011279 3.3056 0.999933 -74.39 0.999933 -74.39 0.011280 27.934
8.83260000 0.011280 3.2931 0.999933 -74.39 0.999933 -74.39 0.011281 27.943
8.83280000 0.011281 3.2806 0.999933 -74.39 0.999933 -74.39 0.011282 27.951
8.83300000 0.011282 3.2681 0.999933 -74.40 0.999933 -74.40 0.011283 27.960
8.83320000 0.011283 3.2555 0.999933 -74.40 0.999933 -74.40 0.011284 27.969
8.83340000 0.011284 3.2429 0.999933 -74.40 0.999933 -74.40 0.011285 27.978
8.83360000 0.011285 3.2302 0.999933 -74.40 0.999933 -74.40 0.011286 27.987
8.83380000 0.011286 3.2175 0.999933 -74.40 0.999933 -74.40 0.011287 27.996
8.83400000 0.011287 3.2048 0.999933 -74.40 0.999933 -74.40 0.011288 28.005
8.83420000 0.011288 3.1920 0.999933 -74.41 0.999933 -74.41 0.011289 28.014
8.83440000 0.011289 3.1791 0.999933 -74.41 0.999933 -74.41 0.011290 28.023
8.83460000 0.011290 3.1662 0.999933 -74.41 0.999933 -74.41 0.011291 28.033
8.83480000 0.011291 3.1533 0.999933 -74.41 0.999933 -74.41 0.011292 28.042
8.83500000 0.011292 3.1403 0.999933 -74.41 0.999933 -74.41 0.011293 28.051
8.83520000 0.011293 3.1273 0.999933 -74.42 0.999933 -74.42 0.011295 28.060
8.83540000 0.011294 3.1142 0.999933 -74.42 0.999933 -74.42 0.011296 28.070
8.83560000 0.011295 3.1011 0.999933 -74.42 0.999933 -74.42 0.011297 28.079
8.83580000 0.011296 3.0879 0.999933 -74.42 0.999933 -74.42 0.011298 28.089
8.83600000 0.011298 3.0747 0.999933 -74.42 0.999933 -74.42 0.011299 28.098
8.83620000 0.011299 3.0614 0.999933 -74.42 0.999933 -74.42 0.011300 28.108
8.83640000 0.011300 3.0481 0.999933 -74.43 0.999933 -74.43 0.011301 28.117
8.83660000 0.011301 3.0348 0.999933 -74.43 0.999933 -74.43 0.011302 28.127
8.83680000 0.011302 3.0214 0.999933 -74.43 0.999933 -74.43 0.011303 28.137
8.83700000 0.011303 3.0079 0.999933 -74.43 0.999933 -74.43 0.011305 28.146
8.83720000 0.011304 2.9944 0.999933 -74.43 0.999933 -74.43 0.011306 28.156
8.83740000 0.011306 2.9808 0.999933 -74.44 0.999933 -74.44 0.011307 28.166
8.83760000 0.011307 2.9672 0.999933 -74.44 0.999933 -74.44 0.011308 28.176
8.83780000 0.011308 2.9535 0.999933 -74.44 0.999933 -74.44 0.011309 28.186
8.83800000 0.011309 2.9398 0.999933 -74.44 0.999933 -74.44 0.011310 28.196
8.83820000 0.011310 2.9261 0.999933 -74.44 0.999933 -74.44 0.011312 28.206
8.83840000 0.011311 2.9123 0.999933 -74.45 0.999933 -74.45 0.011313 28.216
8.83860000 0.011313 2.8984 0.999933 -74.45 0.999933 -74.45 0.011314 28.226
8.83880000 0.011314 2.8845 0.999933 -74.45 0.999933 -74.45 0.011315 28.236
8.83900000 0.011315 2.8705 0.999933 -74.45 0.999933 -74.45 0.011316 28.247
8.83920000 0.011316 2.8565 0.999933 -74.45 0.999933 -74.45 0.011318 28.257
8.83940000 0.011317 2.8424 0.999933 -74.45 0.999933 -74.45 0.011319 28.267
8.83960000 0.011319 2.8282 0.999933 -74.46 0.999933 -74.46 0.011320 28.278
8.83980000 0.011320 2.8141 0.999933 -74.46 0.999933 -74.46 0.011321 28.288
8.84000000 0.011321 2.7998 0.999933 -74.46 0.999933 -74.46 0.011322 28.299
8.84020000 0.011322 2.7855 0.999933 -74.46 0.999933 -74.46 0.011324 28.309
8.84040000 0.011324 2.7712 0.999933 -74.46 0.999933 -74.46 0.011325 28.320
8.84060000 0.011325 2.7568 0.999933 -74.47 0.999933 -74.47 0.011326 28.330
8.84080000 0.011326 2.7423 0.999933 -74.47 0.999933 -74.47 0.011327 28.341
8.84100000 0.011327 2.7278 0.999933 -74.47 0.999933 -74.47 0.011329 28.352
8.84120000 0.011329 2.7132 0.999933 -74.47 0.999933 -74.47 0.011330 28.363
8.84140000 0.011330 2.6986 0.999933 -74.47 0.999933 -74.47 0.011331 28.374
8.84160000 0.011331 2.6839 0.999933 -74.47 0.999933 -74.47 0.011333 28.385
8.84180000 0.011332 2.6691 0.999933 -74.48 0.999933 -74.48 0.011334 28.396
8.84200000 0.011334 2.6543 0.999932 -74.48 0.999932 -74.48 0.011335 28.407
8.84220000 0.011335 2.6394 0.999932 -74.48 0.999932 -74.48 0.011337 28.418
8.84240000 0.011336 2.6245 0.999932 -74.48 0.999932 -74.48 0.011338 28.429
8.84260000 0.011338 2.6095 0.999932 -74.48 0.999932 -74.48 0.011339 28.440
8.84280000 0.011339 2.5945 0.999932 -74.49 0.999932 -74.49 0.011341 28.451
8.84300000 0.011340 2.5794 0.999932 -74.49 0.999932 -74.49 0.011342 28.463
8.84320000 0.011342 2.5642 0.999932 -74.49 0.999932 -74.49 0.011343 28.474
8.84340000 0.011343 2.5490 0.999932 -74.49 0.999932 -74.49 0.011345 28.486
8.84360000 0.011344 2.5337 0.999932 -74.49 0.999932 -74.49 0.011346 28.497
8.84380000 0.011346 2.5183 0.999932 -74.50 0.999932 -74.50 0.011347 28.509
8.84400000 0.011347 2.5029 0.999932 -74.50 0.999932 -74.50 0.011349 28.520
8.84420000 0.011349 2.4874 0.999932 -74.50 0.999932 -74.50 0.011350 28.532
8.84440000 0.011350 2.4719 0.999932 -74.50 0.999932 -74.50 0.011352 28.544
8.84460000 0.011351 2.4563 0.999932 -74.50 0.999932 -74.50 0.011353 28.556
8.84480000 0.011353 2.4406 0.999932 -74.51 0.999932 -74.51 0.011354 28.568
8.84500000 0.011354 2.4249 0.999932 -74.51 0.999932 -74.51 0.011356 28.580
8.84520000 0.011356 2.4091 0.999932 -74.51 0.999932 -74.51 0.011357 28.592
8.84540000 0.011357 2.3932 0.999932 -74.51 0.999932 -74.51 0.011359 28.604
8.84560000 0.011359 2.3773 0.999932 -74.51 0.999932 -74.51 0.011360 28.616
8.84580000 0.011360 2.3613 0.999932 -74.51 0.999932 -74.51 0.011362 28.628
8.84600000 0.011362 2.3452 0.999932 -74.52 0.999932 -74.52 0.011363 28.640
8.84620000 0.011363 2.3291 0.999932 -74.52 0.999932 -74.52 0.011364 28.653
8.84640000 0.011364 2.3129 0.999932 -74.52 0.999932 -74.52 0.011366 28.665
8.84660000 0.011366 2.2966 0.999932 -74.52 0.999932 -74.52 0.011367 28.677
8.84680000 0.011367 2.2803 0.999932 -74.52 0.999932 -74.52 0.011369 28.690
8.84700000 0.011369 2.2638 0.999932 -74.53 0.999932 -74.53 0.011370 28.703
8.84720000 0.011370 2.2474 0.999932 -74.53 0.999932 -74.53 0.011372 28.715
8.84740000 0.011372 2.2308 0.999932 -74.53 0.999932 -74.53 0.011374 28.728
8.84760000 0.011374 2.2142 0.999932 -74.53 0.999932 -74.53 0.011375 28.741
8.84780000 0.011375 2.1975 0.999932 -74.53 0.999932 -74.53 0.011377 28.754
8.84800000 0.011377 2.1807 0.999932 -74.54 0.999932 -74.54 0.011378 28.767
8.84820000 0.011378 2.1639 0.999932 -74.54 0.999932 -74.54 0.011380 28.780
8.84840000 0.011380 2.1470 0.999932 -74.54 0.999932 -74.54 0.011381 28.793
8.84860000 0.011381 2.1300 0.999932 -74.54 0.999932 -74.54 0.011383 28.806
8.84880000 0.011383 2.1129 0.999932 -74.54 0.999932 -74.54 0.011385 28.819
8.84900000 0.011385 2.0958 0.999932 -74.54 0.999932 -74.54 0.011386 28.833
8.84920000 0.011386 2.0786 0.999932 -74.55 0.999932 -74.55 0.011388 28.846
8.84940000 0.011388 2.0613 0.999932 -74.55 0.999932 -74.55 0.011389 28.859
8.84960000 0.011389 2.0439 0.999932 -74.55 0.999932 -74.55 0.011391 28.873
8.84980000 0.011391 2.0265 0.999932 -74.55 0.999932 -74.55 0.011393 28.887
8.85000000 0.011393 2.0089 0.999932 -74.55 0.999932 -74.55 0.011394 28.900
8.85020000 0.011394 1.9913 0.999932 -74.56 0.999932 -74.56 0.011396 28.914
8.85040000 0.011396 1.9736 0.999932 -74.56 0.999932 -74.56 0.011398 28.928
8.85060000 0.011398 1.9559 0.999932 -74.56 0.999932 -74.56 0.011399 28.942
8.85080000 0.011399 1.9380 0.999932 -74.56 0.999932 -74.56 0.011401 28.956
8.85100000 0.011401 1.9201 0.999932 -74.56 0.999932 -74.56 0.011403 28.970
8.85120000 0.011403 1.9021 0.999932 -74.57 0.999932 -74.57 0.011404 28.984
8.85140000 0.011405 1.8840 0.999932 -74.57 0.999932 -74.57 0.011406 28.998
8.85160000 0.011406 1.8659 0.999932 -74.57 0.999932 -74.57 0.011408 29.013
8.85180000 0.011408 1.8476 0.999932 -74.57 0.999932 -74.57 0.011410 29.027
8.85200000 0.011410 1.8293 0.999932 -74.57 0.999932 -74.57 0.011411 29.042
8.85220000 0.011412 1.8108 0.999932 -74.58 0.999932 -74.58 0.011413 29.056
8.85240000 0.011413 1.7923 0.999931 -74.58 0.999931 -74.58 0.011415 29.071
8.85260000 0.011415 1.7737 0.999931 -74.58 0.999931 -74.58 0.011417 29.085
8.85280000 0.011417 1.7551 0.999931 -74.58 0.999931 -74.58 0.011419 29.100
8.85300000 0.011419 1.7363 0.999931 -74.58 0.999931 -74.58 0.011420 29.115
8.85320000 0.011421 1.7174 0.999931 -74.59 0.999931 -74.59 0.011422 29.130
8.85340000 0.011422 1.6985 0.999931 -74.59 0.999931 -74.59 0.011424 29.145
8.85360000 0.011424 1.6794 0.999931 -74.59 0.999931 -74.59 0.011426 29.160
8.85380000 0.011426 1.6603 0.999931 -74.59 0.999931 -74.59 0.011428 29.176
8.85400000 0.011428 1.6411 0.999931 -74.59 0.999931 -74.59 0.011430 29.191
8.85420000 0.011430 1.6218 0.999931 -74.59 0.999931 -74.59 0.011432 29.206
8.85440000 0.011432 1.6024 0.999931 -74.60 0.999931 -74.60 0.011434 29.222
8.85460000 0.011434 1.5829 0.999931 -74.60 0.999931 -74.60 0.011436 29.238
8.85480000 0.011436 1.5633 0.999931 -74.60 0.999931 -74.60 0.011437 29.253
8.85500000 0.011438 1.5436 0.999931 -74.60 0.999931 -74.60 0.011439 29.269
8.85520000 0.011440 1.5238 0.999931 -74.60 0.999931 -74.60 0.011441 29.285
8.85540000 0.011442 1.5039 0.999931 -74.61 0.999931 -74.61 0.011443 29.301
8.85560000 0.011444 1.4840 0.999931 -74.61 0.999931 -74.61 0.011445 29.317
8.85580000 0.011446 1.4639 0.999931 -74.61 0.999931 -74.61 0.011447 29.333
8.85600000 0.011448 1.4437 0.999931 -74.61 0.999931 -74.61 0.011449 29.349
8.85620000 0.011450 1.4234 0.999931 -74.61 0.999931 -74.61 0.011451 29.366
8.85640000 0.011452 1.4031 0.999931 -74.62 0.999931 -74.62 0.011453 29.382
8.85660000 0.011454 1.3826 0.999931 -74.62 0.999931 -74.62 0.011455 29.399
8.85680000 0.011456 1.3620 0.999931 -74.62 0.999931 -74.62 0.011458 29.416
8.85700000 0.011458 1.3413 0.999931 -74.62 0.999931 -74.62 0.011460 29.432
8.85720000 0.011460 1.3205 0.999931 -74.62 0.999931 -74.62 0.011462 29.449
8.85740000 0.011462 1.2996 0.999931 -74.63 0.999931 -74.63 0.011464 29.466
8.85760000 0.011464 1.2787 0.999931 -74.63 0.999931 -74.63 0.011466 29.483
8.85780000 0.011466 1.2575 0.999931 -74.63 0.999931 -74.63 0.011468 29.500
8.85800000 0.011468 1.2363 0.999931 -74.63 0.999931 -74.63 0.011470 29.518
8.85820000 0.011471 1.2150 0.999931 -74.63 0.999931 -74.63 0.011472 29.535
8.85840000 0.011473 1.1936 0.999931 -74.64 0.999931 -74.64 0.011475 29.552
8.85860000 0.011475 1.1720 0.999931 -74.64 0.999931 -74.64 0.011477 29.570
8.85880000 0.011477 1.1504 0.999931 -74.64 0.999931 -74.64 0.011479 29.588
8.85900000 0.011479 1.1286 0.999931 -74.64 0.999931 -74.64 0.011481 29.606
8.85920000 0.011482 1.1068 0.999931 -74.64 0.999931 -74.64 0.011483 29.623
8.85940000 0.011484 1.0848 0.999931 -74.65 0.999931 -74.65 0.011486 29.642
8.85960000 0.011486 1.0627 0.999931 -74.65 0.999931 -74.65 0.011488 29.660
8.85980000 0.011488 1.0404 0.999931 -74.65 0.999931 -74.65 0.011490 29.678
8.86000000 0.011491 1.0181 0.999931 -74.65 0.999931 -74.65 0.011493 29.696
8.86020000 0.011493 0.9956 0.999930 -74.65 0.999930 -74.65 0.011495 29.715
8.86040000 0.011495 0.9731 0.999930 -74.66 0.999930 -74.66 0.011497 29.733
8.86060000 0.011498 0.9504 0.999930 -74.66 0.999930 -74.66 0.011500 29.752
8.86080000 0.011500 0.9275 0.999930 -74.66 0.999930 -74.66 0.011502 29.771
8.86100000 0.011503 0.9046 0.999930 -74.66 0.999930 -74.66 0.011504 29.790
8.86120000 0.011505 0.8815 0.999930 -74.66 0.999930 -74.66 0.011507 29.809
8.86140000 0.011507 0.8583 0.999930 -74.67 0.999930 -74.67 0.011509 29.828
8.86160000 0.011510 0.8350 0.999930 -74.67 0.999930 -74.67 0.011512 29.847
8.86180000 0.011512 0.8116 0.999930 -74.67 0.999930 -74.67 0.011514 29.867
8.86200000 0.011515 0.7880 0.999930 -74.67 0.999930 -74.67 0.011517 29.886
8.86220000 0.011517 0.7643 0.999930 -74.67 0.999930 -74.67 0.011519 29.906
8.86240000 0.011520 0.7405 0.999930 -74.68 0.999930 -74.68 0.011522 29.926
8.86260000 0.011522 0.7165 0.999930 -74.68 0.999930 -74.68 0.011524 29.946
8.86280000 0.011525 0.6924 0.999930 -74.68 0.999930 -74.68 0.011527 29.966
8.86300000 0.011527 0.6682 0.999930 -74.68 0.999930 -74.68 0.011529 29.986
8.86320000 0.011530 0.6438 0.999930 -74.68 0.999930 -74.68 0.011532 30.007
8.86340000 0.011533 0.6193 0.999930 -74.69 0.999930 -74.69 0.011535 30.027
8.86360000 0.011535 0.5947 0.999930 -74.69 0.999930 -74.69 0.011537 30.048
8.86380000 0.011538 0.5699 0.999930 -74.69 0.999930 -74.69 0.011540 30.068
8.86400000 0.011541 0.5450 0.999930 -74.69 0.999930 -74.69 0.011543 30.089
8.86420000 0.011543 0.5199 0.999930 -74.69 0.999930 -74.69 0.011545 30.110
8.86440000 0.011546 0.4947 0.999930 -74.70 0.999930 -74.70 0.011548 30.131
8.86460000 0.011549 0.4694 0.999930 -74.70 0.999930 -74.70 0.011551 30.153
8.86480000 0.011551 0.4439 0.999930 -74.70 0.999930 -74.70 0.011553 30.174
8.86500000 0.011554 0.4182 0.999930 -74.70 0.999930 -74.70 0.011556 30.196
8.86520000 0.011557 0.3924 0.999930 -74.70 0.999930 -74.70 0.011559 30.217
8.86540000 0.011560 0.3665 0.999930 -74.71 0.999930 -74.71 0.011562 30.239
8.86560000 0.011563 0.3404 0.999930 -74.71 0.999930 -74.71 0.011565 30.261
8.86580000 0.011566 0.3142 0.999930 -74.71 0.999930 -74.71 0.011568 30.283
8.86600000 0.011568 0.2878 0.999930 -74.71 0.999930 -74.71 0.011570 30.306
8.86620000 0.011571 0.2612 0.999929 -74.71 0.999929 -74.71 0.011573 30.328
8.86640000 0.011574 0.2345 0.999929 -74.72 0.999929 -74.72 0.011576 30.351
8.86660000 0.011577 0.2076 0.999929 -74.72 0.999929 -74.72 0.011579 30.373
8.86680000 0.011580 0.1806 0.999929 -74.72 0.999929 -74.72 0.011582 30.396
8.86700000 0.011583 0.1534 0.999929 -74.72 0.999929 -74.72 0.011585 30.419
8.86720000 0.011586 0.1261 0.999929 -74.72 0.999929 -74.72 0.011588 30.443
8.86740000 0.011589 0.0985 0.999929 -74.73 0.999929 -74.73 0.011591 30.466
8.86760000 0.011592 0.0709 0.999929 -74.73 0.999929 -74.73 0.011594 30.490
8.86780000 0.011595 0.0430 0.999929 -74.73 0.999929 -74.73 0.011598 30.513
8.86800000 0.011599 0.0150 0.999929 -74.73 0.999929 -74.73 0.011601 30.537
8.86820000 0.011602 -0.013 0.999929 -74.73 0.999929 -74.73 0.011604 30.561
8.86840000 0.011605 -0.042 0.999929 -74.74 0.999929 -74.74 0.011607 30.585
8.86860000 0.011608 -0.070 0.999929 -74.74 0.999929 -74.74 0.011610 30.610
8.86880000 0.011611 -0.099 0.999929 -74.74 0.999929 -74.74 0.011613 30.634
8.86900000 0.011615 -0.128 0.999929 -74.74 0.999929 -74.74 0.011617 30.659
8.86920000 0.011618 -0.157 0.999929 -74.74 0.999929 -74.74 0.011620 30.684
8.86940000 0.011621 -0.186 0.999929 -74.75 0.999929 -74.75 0.011623 30.709
8.86960000 0.011624 -0.216 0.999929 -74.75 0.999929 -74.75 0.011627 30.734
8.86980000 0.011628 -0.245 0.999929 -74.75 0.999929 -74.75 0.011630 30.760
8.87000000 0.011631 -0.275 0.999929 -74.75 0.999929 -74.75 0.011633 30.785
8.87020000 0.011635 -0.305 0.999929 -74.75 0.999929 -74.75 0.011637 30.811
8.87040000 0.011638 -0.335 0.999929 -74.76 0.999929 -74.76 0.011640 30.837
8.87060000 0.011642 -0.366 0.999929 -74.76 0.999929 -74.76 0.011644 30.863
8.87080000 0.011645 -0.396 0.999929 -74.76 0.999929 -74.76 0.011647 30.890
8.87100000 0.011649 -0.427 0.999928 -74.76 0.999928 -74.76 0.011651 30.916
8.87120000 0.011652 -0.458 0.999928 -74.77 0.999928 -74.77 0.011655 30.943
8.87140000 0.011656 -0.489 0.999928 -74.77 0.999928 -74.77 0.011658 30.970
8.87160000 0.011659 -0.521 0.999928 -74.77 0.999928 -74.77 0.011662 30.997
8.87180000 0.011663 -0.552 0.999928 -74.77 0.999928 -74.77 0.011665 31.024
8.87200000 0.011667 -0.584 0.999928 -74.77 0.999928 -74.77 0.011669 31.052
8.87220000 0.011670 -0.616 0.999928 -74.78 0.999928 -74.78 0.011673 31.080
8.87240000 0.011674 -0.648 0.999928 -74.78 0.999928 -74.78 0.011677 31.108
8.87260000 0.011678 -0.681 0.999928 -74.78 0.999928 -74.78 0.011680 31.136
8.87280000 0.011682 -0.713 0.999928 -74.78 0.999928 -74.78 0.011684 31.164
8.87300000 0.011686 -0.746 0.999928 -74.78 0.999928 -74.78 0.011688 31.193
8.87320000 0.011690 -0.779 0.999928 -74.79 0.999928 -74.79 0.011692 31.222
8.87340000 0.011694 -0.813 0.999928 -74.79 0.999928 -74.79 0.011696 31.251
8.87360000 0.011698 -0.846 0.999928 -74.79 0.999928 -74.79 0.011700 31.280
8.87380000 0.011702 -0.880 0.999928 -74.79 0.999928 -74.79 0.011704 31.309
8.87400000 0.011706 -0.914 0.999928 -74.80 0.999928 -74.80 0.011708 31.339
8.87420000 0.011710 -0.948 0.999928 -74.80 0.999928 -74.80 0.011712 31.369
8.87440000 0.011714 -0.983 0.999928 -74.80 0.999928 -74.80 0.011716 31.399
8.87460000 0.011718 -1.017 0.999928 -74.80 0.999928 -74.80 0.011720 31.429
8.87480000 0.011722 -1.052 0.999928 -74.80 0.999928 -74.80 0.011725 31.460
8.87500000 0.011726 -1.088 0.999927 -74.81 0.999927 -74.81 0.011729 31.491
8.87520000 0.011731 -1.123 0.999927 -74.81 0.999927 -74.81 0.011733 31.522
8.87540000 0.011735 -1.159 0.999927 -74.81 0.999927 -74.81 0.011737 31.553
8.87560000 0.011739 -1.195 0.999927 -74.81 0.999927 -74.81 0.011742 31.585
8.87580000 0.011744 -1.231 0.999927 -74.81 0.999927 -74.81 0.011746 31.617
8.87600000 0.011748 -1.267 0.999927 -74.82 0.999927 -74.82 0.011751 31.649
8.87620000 0.011753 -1.304 0.999927 -74.82 0.999927 -74.82 0.011755 31.681
8.87640000 0.011757 -1.341 0.999927 -74.82 0.999927 -74.82 0.011760 31.714
8.87660000 0.011762 -1.378 0.999927 -74.82 0.999927 -74.82 0.011764 31.746
8.87680000 0.011766 -1.416 0.999927 -74.83 0.999927 -74.83 0.011769 31.779
8.87700000 0.011771 -1.454 0.999927 -74.83 0.999927 -74.83 0.011774 31.813
8.87720000 0.011776 -1.492 0.999927 -74.83 0.999927 -74.83 0.011778 31.846
8.87740000 0.011780 -1.530 0.999927 -74.83 0.999927 -74.83 0.011783 31.880
8.87760000 0.011785 -1.569 0.999927 -74.83 0.999927 -74.83 0.011788 31.914
8.87780000 0.011790 -1.608 0.999927 -74.84 0.999927 -74.84 0.011793 31.949
8.87800000 0.011795 -1.647 0.999927 -74.84 0.999927 -74.84 0.011798 31.984
8.87820000 0.011800 -1.686 0.999926 -74.84 0.999926 -74.84 0.011802 32.019
8.87840000 0.011805 -1.726 0.999926 -74.84 0.999926 -74.84 0.011807 32.054