! Sonnet Data File
! From: emgraph Version : 16.52
! From Project: Resonator2
! Data is De-embedded 
! Data File Written: 10/05/2017 10:46:05
!< HDATE 10/04/2017 20:26:48
!< MDATE 10/05/2017 00:36:07
!< PARAMS
!< gap = 66.0
!< Length = 400.0
!< Pwid1 = 2000.0
!< Pwid2 = 2000.0
!< END PARAMS
# GHZ S MA R 50.00000
8.80000000 0.294161 -164.5 0.955753 -75.01 0.955753 -75.01 0.294161 -165.6
!< P1 F=8.8 Eeff=(5.36817953 -2.3731e-5) Z0=(35.9853883 8.0522e-5) R=0.0 C=0.0 
!< P2 F=8.8 Eeff=(5.36817953 -2.3731e-5) Z0=(35.9853883 8.0522e-5) R=0.0 C=0.0 
8.80020000 0.294163 -164.5 0.955752 -75.01 0.955752 -75.01 0.294162 -165.6
8.80040000 0.294164 -164.5 0.955752 -75.01 0.955752 -75.01 0.294164 -165.6
8.80060000 0.294166 -164.5 0.955751 -75.01 0.955751 -75.01 0.294166 -165.6
8.80080000 0.294168 -164.5 0.955750 -75.01 0.955750 -75.01 0.294168 -165.6
8.80100000 0.294170 -164.5 0.955750 -75.02 0.955750 -75.02 0.294169 -165.6
8.80120000 0.294172 -164.5 0.955749 -75.02 0.955749 -75.02 0.294171 -165.6
8.80140000 0.294173 -164.5 0.955749 -75.02 0.955749 -75.02 0.294173 -165.6
8.80160000 0.294175 -164.5 0.955748 -75.02 0.955748 -75.02 0.294175 -165.6
8.80180000 0.294177 -164.5 0.955748 -75.02 0.955748 -75.02 0.294176 -165.6
8.80200000 0.294179 -164.5 0.955747 -75.02 0.955747 -75.02 0.294178 -165.6
8.80220000 0.294180 -164.5 0.955747 -75.03 0.955747 -75.03 0.294180 -165.6
8.80240000 0.294182 -164.5 0.955746 -75.03 0.955746 -75.03 0.294182 -165.6
8.80260000 0.294184 -164.5 0.955746 -75.03 0.955746 -75.03 0.294183 -165.6
8.80280000 0.294185 -164.5 0.955745 -75.03 0.955745 -75.03 0.294185 -165.6
8.80300000 0.294187 -164.5 0.955745 -75.03 0.955745 -75.03 0.294187 -165.6
8.80320000 0.294189 -164.5 0.955744 -75.03 0.955744 -75.03 0.294189 -165.6
8.80340000 0.294191 -164.5 0.955743 -75.04 0.955743 -75.04 0.294190 -165.6
8.80360000 0.294192 -164.5 0.955743 -75.04 0.955743 -75.04 0.294192 -165.6
8.80380000 0.294194 -164.5 0.955742 -75.04 0.955742 -75.04 0.294194 -165.6
8.80400000 0.294196 -164.5 0.955742 -75.04 0.955742 -75.04 0.294196 -165.6
8.80420000 0.294198 -164.5 0.955741 -75.04 0.955741 -75.04 0.294197 -165.6
8.80440000 0.294199 -164.5 0.955741 -75.04 0.955741 -75.04 0.294199 -165.6
8.80460000 0.294201 -164.5 0.955740 -75.05 0.955740 -75.05 0.294201 -165.6
8.80480000 0.294203 -164.5 0.955740 -75.05 0.955740 -75.05 0.294202 -165.6
8.80500000 0.294204 -164.5 0.955739 -75.05 0.955739 -75.05 0.294204 -165.6
8.80520000 0.294206 -164.5 0.955739 -75.05 0.955739 -75.05 0.294206 -165.6
8.80540000 0.294208 -164.5 0.955738 -75.05 0.955738 -75.05 0.294208 -165.6
8.80560000 0.294209 -164.5 0.955738 -75.06 0.955738 -75.06 0.294209 -165.6
8.80580000 0.294211 -164.5 0.955737 -75.06 0.955737 -75.06 0.294211 -165.6
8.80600000 0.294213 -164.5 0.955737 -75.06 0.955737 -75.06 0.294213 -165.6
8.80620000 0.294215 -164.5 0.955736 -75.06 0.955736 -75.06 0.294214 -165.6
8.80640000 0.294216 -164.5 0.955736 -75.06 0.955736 -75.06 0.294216 -165.6
8.80660000 0.294218 -164.5 0.955735 -75.06 0.955735 -75.06 0.294218 -165.6
8.80680000 0.294220 -164.5 0.955735 -75.07 0.955735 -75.07 0.294219 -165.6
8.80700000 0.294221 -164.5 0.955734 -75.07 0.955734 -75.07 0.294221 -165.6
8.80720000 0.294223 -164.5 0.955734 -75.07 0.955734 -75.07 0.294223 -165.6
8.80740000 0.294225 -164.5 0.955733 -75.07 0.955733 -75.07 0.294224 -165.6
8.80760000 0.294226 -164.5 0.955732 -75.07 0.955732 -75.07 0.294226 -165.6
8.80780000 0.294228 -164.5 0.955732 -75.07 0.955732 -75.07 0.294228 -165.6
8.80800000 0.294230 -164.5 0.955731 -75.08 0.955731 -75.08 0.294229 -165.6
8.80820000 0.294231 -164.5 0.955731 -75.08 0.955731 -75.08 0.294231 -165.6
8.80840000 0.294233 -164.5 0.955730 -75.08 0.955730 -75.08 0.294233 -165.6
8.80860000 0.294235 -164.5 0.955730 -75.08 0.955730 -75.08 0.294234 -165.6
8.80880000 0.294236 -164.5 0.955729 -75.08 0.955729 -75.08 0.294236 -165.7
8.80900000 0.294238 -164.5 0.955729 -75.09 0.955729 -75.09 0.294238 -165.7
8.80920000 0.294240 -164.5 0.955728 -75.09 0.955728 -75.09 0.294239 -165.7
8.80940000 0.294241 -164.5 0.955728 -75.09 0.955728 -75.09 0.294241 -165.7
8.80960000 0.294243 -164.5 0.955727 -75.09 0.955727 -75.09 0.294243 -165.7
8.80980000 0.294245 -164.5 0.955727 -75.09 0.955727 -75.09 0.294244 -165.7
8.81000000 0.294246 -164.5 0.955726 -75.09 0.955726 -75.09 0.294246 -165.7
8.81020000 0.294248 -164.5 0.955726 -75.10 0.955726 -75.10 0.294248 -165.7
8.81040000 0.294249 -164.5 0.955725 -75.10 0.955725 -75.10 0.294249 -165.7
8.81060000 0.294251 -164.5 0.955725 -75.10 0.955725 -75.10 0.294251 -165.7
8.81080000 0.294253 -164.5 0.955724 -75.10 0.955724 -75.10 0.294252 -165.7
8.81100000 0.294254 -164.5 0.955724 -75.10 0.955724 -75.10 0.294254 -165.7
8.81120000 0.294256 -164.5 0.955723 -75.10 0.955723 -75.10 0.294256 -165.7
8.81140000 0.294258 -164.5 0.955723 -75.11 0.955723 -75.11 0.294257 -165.7
8.81160000 0.294259 -164.5 0.955722 -75.11 0.955722 -75.11 0.294259 -165.7
8.81180000 0.294261 -164.5 0.955722 -75.11 0.955722 -75.11 0.294261 -165.7
8.81200000 0.294262 -164.5 0.955721 -75.11 0.955721 -75.11 0.294262 -165.7
8.81220000 0.294264 -164.5 0.955721 -75.11 0.955721 -75.11 0.294264 -165.7
8.81240000 0.294266 -164.5 0.955720 -75.12 0.955720 -75.12 0.294265 -165.7
8.81260000 0.294267 -164.5 0.955720 -75.12 0.955720 -75.12 0.294267 -165.7
8.81280000 0.294269 -164.5 0.955719 -75.12 0.955719 -75.12 0.294269 -165.7
8.81300000 0.294270 -164.5 0.955719 -75.12 0.955719 -75.12 0.294270 -165.7
8.81320000 0.294272 -164.5 0.955718 -75.12 0.955718 -75.12 0.294272 -165.7
8.81340000 0.294274 -164.5 0.955718 -75.12 0.955718 -75.12 0.294273 -165.7
8.81360000 0.294275 -164.5 0.955717 -75.13 0.955717 -75.13 0.294275 -165.7
8.81380000 0.294277 -164.6 0.955717 -75.13 0.955717 -75.13 0.294276 -165.7
8.81400000 0.294278 -164.6 0.955716 -75.13 0.955716 -75.13 0.294278 -165.7
8.81420000 0.294280 -164.6 0.955716 -75.13 0.955716 -75.13 0.294280 -165.7
8.81440000 0.294282 -164.6 0.955715 -75.13 0.955715 -75.13 0.294281 -165.7
8.81460000 0.294283 -164.6 0.955715 -75.13 0.955715 -75.13 0.294283 -165.7
8.81480000 0.294285 -164.6 0.955714 -75.14 0.955714 -75.14 0.294284 -165.7
8.81500000 0.294286 -164.6 0.955714 -75.14 0.955714 -75.14 0.294286 -165.7
8.81520000 0.294288 -164.6 0.955713 -75.14 0.955713 -75.14 0.294287 -165.7
8.81540000 0.294289 -164.6 0.955713 -75.14 0.955713 -75.14 0.294289 -165.7
8.81560000 0.294291 -164.6 0.955713 -75.14 0.955713 -75.14 0.294291 -165.7
8.81580000 0.294292 -164.6 0.955712 -75.15 0.955712 -75.15 0.294292 -165.7
8.81600000 0.294294 -164.6 0.955712 -75.15 0.955712 -75.15 0.294294 -165.7
8.81620000 0.294296 -164.6 0.955711 -75.15 0.955711 -75.15 0.294295 -165.7
8.81640000 0.294297 -164.6 0.955711 -75.15 0.955711 -75.15 0.294297 -165.7
8.81660000 0.294299 -164.6 0.955710 -75.15 0.955710 -75.15 0.294298 -165.7
8.81680000 0.294300 -164.6 0.955710 -75.15 0.955710 -75.15 0.294300 -165.7
8.81700000 0.294302 -164.6 0.955709 -75.16 0.955709 -75.16 0.294301 -165.7
8.81720000 0.294303 -164.6 0.955709 -75.16 0.955709 -75.16 0.294303 -165.7
8.81740000 0.294305 -164.6 0.955708 -75.16 0.955708 -75.16 0.294304 -165.7
8.81760000 0.294306 -164.6 0.955708 -75.16 0.955708 -75.16 0.294306 -165.7
8.81780000 0.294308 -164.6 0.955707 -75.16 0.955707 -75.16 0.294307 -165.7
8.81800000 0.294309 -164.6 0.955707 -75.17 0.955707 -75.17 0.294309 -165.8
8.81820000 0.294311 -164.6 0.955706 -75.17 0.955706 -75.17 0.294310 -165.8
8.81840000 0.294312 -164.6 0.955706 -75.17 0.955706 -75.17 0.294312 -165.8
8.81860000 0.294314 -164.6 0.955705 -75.17 0.955705 -75.17 0.294313 -165.8
8.81880000 0.294315 -164.6 0.955705 -75.17 0.955705 -75.17 0.294315 -165.8
8.81900000 0.294317 -164.6 0.955705 -75.17 0.955705 -75.17 0.294316 -165.8
8.81920000 0.294318 -164.6 0.955704 -75.18 0.955704 -75.18 0.294318 -165.8
8.81940000 0.294320 -164.6 0.955704 -75.18 0.955704 -75.18 0.294319 -165.8
8.81960000 0.294321 -164.6 0.955703 -75.18 0.955703 -75.18 0.294321 -165.8
8.81980000 0.294323 -164.6 0.955703 -75.18 0.955703 -75.18 0.294322 -165.8
8.82000000 0.294324 -164.6 0.955702 -75.18 0.955702 -75.18 0.294324 -165.8
8.82020000 0.294326 -164.6 0.955702 -75.18 0.955702 -75.18 0.294325 -165.8
8.82040000 0.294327 -164.6 0.955701 -75.19 0.955701 -75.19 0.294327 -165.8
8.82060000 0.294329 -164.6 0.955701 -75.19 0.955701 -75.19 0.294328 -165.8
8.82080000 0.294330 -164.6 0.955700 -75.19 0.955700 -75.19 0.294330 -165.8
8.82100000 0.294331 -164.6 0.955700 -75.19 0.955700 -75.19 0.294331 -165.8
8.82120000 0.294333 -164.6 0.955700 -75.19 0.955700 -75.19 0.294333 -165.8
8.82140000 0.294334 -164.6 0.955699 -75.20 0.955699 -75.20 0.294334 -165.8
8.82160000 0.294336 -164.6 0.955699 -75.20 0.955699 -75.20 0.294335 -165.8
8.82180000 0.294337 -164.6 0.955698 -75.20 0.955698 -75.20 0.294337 -165.8
8.82200000 0.294339 -164.6 0.955698 -75.20 0.955698 -75.20 0.294338 -165.8
8.82220000 0.294340 -164.6 0.955697 -75.20 0.955697 -75.20 0.294340 -165.8
8.82240000 0.294342 -164.6 0.955697 -75.20 0.955697 -75.20 0.294341 -165.8
8.82260000 0.294343 -164.6 0.955696 -75.21 0.955696 -75.21 0.294343 -165.8
8.82280000 0.294344 -164.6 0.955696 -75.21 0.955696 -75.21 0.294344 -165.8
8.82300000 0.294346 -164.6 0.955696 -75.21 0.955696 -75.21 0.294345 -165.8
8.82320000 0.294347 -164.6 0.955695 -75.21 0.955695 -75.21 0.294347 -165.8
8.82340000 0.294349 -164.6 0.955695 -75.21 0.955695 -75.21 0.294348 -165.8
8.82360000 0.294350 -164.6 0.955694 -75.22 0.955694 -75.22 0.294350 -165.8
8.82380000 0.294351 -164.6 0.955694 -75.22 0.955694 -75.22 0.294351 -165.8
8.82400000 0.294353 -164.6 0.955693 -75.22 0.955693 -75.22 0.294352 -165.8
8.82420000 0.294354 -164.6 0.955693 -75.22 0.955693 -75.22 0.294354 -165.8
8.82440000 0.294356 -164.6 0.955693 -75.22 0.955693 -75.22 0.294355 -165.8
8.82460000 0.294357 -164.6 0.955692 -75.22 0.955692 -75.22 0.294357 -165.8
8.82480000 0.294358 -164.6 0.955692 -75.23 0.955692 -75.23 0.294358 -165.8
8.82500000 0.294360 -164.6 0.955691 -75.23 0.955691 -75.23 0.294359 -165.8
8.82520000 0.294361 -164.6 0.955691 -75.23 0.955691 -75.23 0.294361 -165.8
8.82540000 0.294363 -164.6 0.955690 -75.23 0.955690 -75.23 0.294362 -165.8
8.82560000 0.294364 -164.6 0.955690 -75.23 0.955690 -75.23 0.294364 -165.8
8.82580000 0.294365 -164.6 0.955690 -75.24 0.955690 -75.24 0.294365 -165.8
8.82600000 0.294367 -164.6 0.955689 -75.24 0.955689 -75.24 0.294366 -165.8
8.82620000 0.294368 -164.6 0.955689 -75.24 0.955689 -75.24 0.294368 -165.8
8.82640000 0.294369 -164.6 0.955688 -75.24 0.955688 -75.24 0.294369 -165.8
8.82660000 0.294371 -164.6 0.955688 -75.24 0.955688 -75.24 0.294370 -165.9
8.82680000 0.294372 -164.6 0.955687 -75.24 0.955687 -75.24 0.294372 -165.9
8.82700000 0.294373 -164.6 0.955687 -75.25 0.955687 -75.25 0.294373 -165.9
8.82720000 0.294375 -164.6 0.955687 -75.25 0.955687 -75.25 0.294374 -165.9
8.82740000 0.294376 -164.6 0.955686 -75.25 0.955686 -75.25 0.294376 -165.9
8.82760000 0.294377 -164.6 0.955686 -75.25 0.955686 -75.25 0.294377 -165.9
8.82780000 0.294379 -164.6 0.955685 -75.25 0.955685 -75.25 0.294378 -165.9
8.82800000 0.294380 -164.6 0.955685 -75.26 0.955685 -75.26 0.294379 -165.9
8.82820000 0.294381 -164.6 0.955685 -75.26 0.955685 -75.26 0.294381 -165.9
8.82840000 0.294383 -164.6 0.955684 -75.26 0.955684 -75.26 0.294382 -165.9
8.82860000 0.294384 -164.6 0.955684 -75.26 0.955684 -75.26 0.294383 -165.9
8.82880000 0.294385 -164.6 0.955683 -75.26 0.955683 -75.26 0.294385 -165.9
8.82900000 0.294386 -164.7 0.955683 -75.26 0.955683 -75.26 0.294386 -165.9
8.82920000 0.294388 -164.7 0.955683 -75.27 0.955683 -75.27 0.294387 -165.9
8.82940000 0.294389 -164.7 0.955682 -75.27 0.955682 -75.27 0.294389 -165.9
8.82960000 0.294390 -164.7 0.955682 -75.27 0.955682 -75.27 0.294390 -165.9
8.82980000 0.294391 -164.7 0.955681 -75.27 0.955681 -75.27 0.294391 -165.9
8.83000000 0.294393 -164.7 0.955681 -75.27 0.955681 -75.27 0.294392 -165.9
8.83020000 0.294394 -164.7 0.955681 -75.28 0.955681 -75.28 0.294394 -165.9
8.83040000 0.294395 -164.7 0.955680 -75.28 0.955680 -75.28 0.294395 -165.9
8.83060000 0.294397 -164.7 0.955680 -75.28 0.955680 -75.28 0.294396 -165.9
8.83080000 0.294398 -164.7 0.955679 -75.28 0.955679 -75.28 0.294397 -165.9
8.83100000 0.294399 -164.7 0.955679 -75.28 0.955679 -75.28 0.294399 -165.9
8.83120000 0.294400 -164.7 0.955679 -75.28 0.955679 -75.28 0.294400 -165.9
8.83140000 0.294401 -164.7 0.955678 -75.29 0.955678 -75.29 0.294401 -165.9
8.83160000 0.294403 -164.7 0.955678 -75.29 0.955678 -75.29 0.294402 -165.9
8.83180000 0.294404 -164.7 0.955678 -75.29 0.955678 -75.29 0.294403 -165.9
8.83200000 0.294405 -164.7 0.955677 -75.29 0.955677 -75.29 0.294405 -165.9
8.83220000 0.294406 -164.7 0.955677 -75.29 0.955677 -75.29 0.294406 -165.9
8.83240000 0.294408 -164.7 0.955676 -75.30 0.955676 -75.30 0.294407 -165.9
8.83260000 0.294409 -164.7 0.955676 -75.30 0.955676 -75.30 0.294408 -165.9
8.83280000 0.294410 -164.7 0.955676 -75.30 0.955676 -75.30 0.294409 -165.9
8.83300000 0.294411 -164.7 0.955675 -75.30 0.955675 -75.30 0.294411 -165.9
8.83320000 0.294412 -164.7 0.955675 -75.30 0.955675 -75.30 0.294412 -165.9
8.83340000 0.294413 -164.7 0.955675 -75.30 0.955675 -75.30 0.294413 -165.9
8.83360000 0.294415 -164.7 0.955674 -75.31 0.955674 -75.31 0.294414 -165.9
8.83380000 0.294416 -164.7 0.955674 -75.31 0.955674 -75.31 0.294415 -165.9
8.83400000 0.294417 -164.7 0.955674 -75.31 0.955674 -75.31 0.294416 -165.9
8.83420000 0.294418 -164.7 0.955673 -75.31 0.955673 -75.31 0.294418 -165.9
8.83440000 0.294419 -164.7 0.955673 -75.31 0.955673 -75.31 0.294419 -165.9
8.83460000 0.294420 -164.7 0.955673 -75.32 0.955673 -75.32 0.294420 -165.9
8.83480000 0.294421 -164.7 0.955672 -75.32 0.955672 -75.32 0.294421 -166.0
8.83500000 0.294423 -164.7 0.955672 -75.32 0.955672 -75.32 0.294422 -166.0
8.83520000 0.294424 -164.7 0.955671 -75.32 0.955671 -75.32 0.294423 -166.0
8.83540000 0.294425 -164.7 0.955671 -75.32 0.955671 -75.32 0.294424 -166.0
8.83560000 0.294426 -164.7 0.955671 -75.32 0.955671 -75.32 0.294425 -166.0
8.83580000 0.294427 -164.7 0.955670 -75.33 0.955670 -75.33 0.294427 -166.0
8.83600000 0.294428 -164.7 0.955670 -75.33 0.955670 -75.33 0.294428 -166.0
8.83620000 0.294429 -164.7 0.955670 -75.33 0.955670 -75.33 0.294429 -166.0
8.83640000 0.294430 -164.7 0.955669 -75.33 0.955669 -75.33 0.294430 -166.0
8.83660000 0.294431 -164.7 0.955669 -75.33 0.955669 -75.33 0.294431 -166.0
8.83680000 0.294432 -164.7 0.955669 -75.34 0.955669 -75.34 0.294432 -166.0
8.83700000 0.294434 -164.7 0.955668 -75.34 0.955668 -75.34 0.294433 -166.0
8.83720000 0.294435 -164.7 0.955668 -75.34 0.955668 -75.34 0.294434 -166.0
8.83740000 0.294436 -164.7 0.955668 -75.34 0.955668 -75.34 0.294435 -166.0
8.83760000 0.294437 -164.7 0.955667 -75.34 0.955667 -75.34 0.294436 -166.0
8.83780000 0.294438 -164.7 0.955667 -75.35 0.955667 -75.35 0.294437 -166.0
8.83800000 0.294439 -164.7 0.955667 -75.35 0.955667 -75.35 0.294438 -166.0
8.83820000 0.294440 -164.7 0.955666 -75.35 0.955666 -75.35 0.294439 -166.0
8.83840000 0.294441 -164.7 0.955666 -75.35 0.955666 -75.35 0.294440 -166.0
8.83860000 0.294442 -164.7 0.955666 -75.35 0.955666 -75.35 0.294441 -166.0
8.83880000 0.294443 -164.7 0.955666 -75.35 0.955666 -75.35 0.294442 -166.0
8.83900000 0.294444 -164.7 0.955665 -75.36 0.955665 -75.36 0.294443 -166.0
8.83920000 0.294445 -164.7 0.955665 -75.36 0.955665 -75.36 0.294444 -166.0
8.83940000 0.294446 -164.7 0.955665 -75.36 0.955665 -75.36 0.294445 -166.0
8.83960000 0.294447 -164.7 0.955664 -75.36 0.955664 -75.36 0.294446 -166.0
8.83980000 0.294448 -164.7 0.955664 -75.36 0.955664 -75.36 0.294447 -166.0
8.84000000 0.294449 -164.7 0.955664 -75.37 0.955664 -75.37 0.294448 -166.0
8.84020000 0.294450 -164.7 0.955663 -75.37 0.955663 -75.37 0.294449 -166.0
8.84040000 0.294451 -164.7 0.955663 -75.37 0.955663 -75.37 0.294450 -166.0
8.84060000 0.294452 -164.7 0.955663 -75.37 0.955663 -75.37 0.294451 -166.0
8.84080000 0.294453 -164.7 0.955663 -75.37 0.955663 -75.37 0.294452 -166.0
8.84100000 0.294454 -164.7 0.955662 -75.38 0.955662 -75.38 0.294453 -166.0
8.84120000 0.294454 -164.7 0.955662 -75.38 0.955662 -75.38 0.294454 -166.0
8.84140000 0.294455 -164.7 0.955662 -75.38 0.955662 -75.38 0.294455 -166.0
8.84160000 0.294456 -164.7 0.955661 -75.38 0.955661 -75.38 0.294456 -166.0
8.84180000 0.294457 -164.7 0.955661 -75.38 0.955661 -75.38 0.294457 -166.0
8.84200000 0.294458 -164.7 0.955661 -75.38 0.955661 -75.38 0.294458 -166.0
8.84220000 0.294459 -164.7 0.955661 -75.39 0.955661 -75.39 0.294458 -166.0
8.84240000 0.294460 -164.7 0.955660 -75.39 0.955660 -75.39 0.294459 -166.0
8.84260000 0.294461 -164.7 0.955660 -75.39 0.955660 -75.39 0.294460 -166.1
8.84280000 0.294462 -164.7 0.955660 -75.39 0.955660 -75.39 0.294461 -166.1
8.84300000 0.294463 -164.7 0.955659 -75.39 0.955659 -75.39 0.294462 -166.1
8.84320000 0.294463 -164.7 0.955659 -75.40 0.955659 -75.40 0.294463 -166.1
8.84340000 0.294464 -164.7 0.955659 -75.40 0.955659 -75.40 0.294464 -166.1
8.84360000 0.294465 -164.7 0.955659 -75.40 0.955659 -75.40 0.294464 -166.1
8.84380000 0.294466 -164.7 0.955658 -75.40 0.955658 -75.40 0.294465 -166.1
8.84400000 0.294467 -164.7 0.955658 -75.40 0.955658 -75.40 0.294466 -166.1
8.84420000 0.294468 -164.7 0.955658 -75.41 0.955658 -75.41 0.294467 -166.1
8.84440000 0.294468 -164.7 0.955658 -75.41 0.955658 -75.41 0.294468 -166.1
8.84460000 0.294469 -164.7 0.955657 -75.41 0.955657 -75.41 0.294468 -166.1
8.84480000 0.294470 -164.7 0.955657 -75.41 0.955657 -75.41 0.294469 -166.1
8.84500000 0.294471 -164.7 0.955657 -75.41 0.955657 -75.41 0.294470 -166.1
8.84520000 0.294472 -164.7 0.955657 -75.41 0.955657 -75.41 0.294471 -166.1
8.84540000 0.294472 -164.7 0.955656 -75.42 0.955656 -75.42 0.294472 -166.1
8.84560000 0.294473 -164.7 0.955656 -75.42 0.955656 -75.42 0.294472 -166.1
8.84580000 0.294474 -164.7 0.955656 -75.42 0.955656 -75.42 0.294473 -166.1
8.84600000 0.294475 -164.7 0.955656 -75.42 0.955656 -75.42 0.294474 -166.1
8.84620000 0.294475 -164.8 0.955655 -75.42 0.955655 -75.42 0.294475 -166.1
8.84640000 0.294476 -164.8 0.955655 -75.43 0.955655 -75.43 0.294475 -166.1
8.84660000 0.294477 -164.8 0.955655 -75.43 0.955655 -75.43 0.294476 -166.1
8.84680000 0.294477 -164.8 0.955655 -75.43 0.955655 -75.43 0.294477 -166.1
8.84700000 0.294478 -164.8 0.955655 -75.43 0.955655 -75.43 0.294477 -166.1
8.84720000 0.294479 -164.8 0.955654 -75.43 0.955654 -75.43 0.294478 -166.1
8.84740000 0.294479 -164.8 0.955654 -75.44 0.955654 -75.44 0.294479 -166.1
8.84760000 0.294480 -164.8 0.955654 -75.44 0.955654 -75.44 0.294479 -166.1
8.84780000 0.294481 -164.8 0.955654 -75.44 0.955654 -75.44 0.294480 -166.1
8.84800000 0.294481 -164.8 0.955654 -75.44 0.955654 -75.44 0.294481 -166.1
8.84820000 0.294482 -164.8 0.955653 -75.44 0.955653 -75.44 0.294481 -166.1
8.84840000 0.294483 -164.8 0.955653 -75.45 0.955653 -75.45 0.294482 -166.1
8.84860000 0.294483 -164.8 0.955653 -75.45 0.955653 -75.45 0.294483 -166.1
8.84880000 0.294484 -164.8 0.955653 -75.45 0.955653 -75.45 0.294483 -166.1
8.84900000 0.294485 -164.8 0.955653 -75.45 0.955653 -75.45 0.294484 -166.1
8.84920000 0.294485 -164.8 0.955652 -75.45 0.955652 -75.45 0.294484 -166.1
8.84940000 0.294486 -164.8 0.955652 -75.46 0.955652 -75.46 0.294485 -166.1
8.84960000 0.294486 -164.8 0.955652 -75.46 0.955652 -75.46 0.294486 -166.1
8.84980000 0.294487 -164.8 0.955652 -75.46 0.955652 -75.46 0.294486 -166.1
8.85000000 0.294487 -164.8 0.955652 -75.46 0.955652 -75.46 0.294487 -166.2
8.85020000 0.294488 -164.8 0.955652 -75.46 0.955652 -75.46 0.294487 -166.2
8.85040000 0.294489 -164.8 0.955651 -75.46 0.955651 -75.46 0.294488 -166.2
8.85060000 0.294489 -164.8 0.955651 -75.47 0.955651 -75.47 0.294488 -166.2
8.85080000 0.294490 -164.8 0.955651 -75.47 0.955651 -75.47 0.294489 -166.2
8.85100000 0.294490 -164.8 0.955651 -75.47 0.955651 -75.47 0.294489 -166.2
8.85120000 0.294491 -164.8 0.955651 -75.47 0.955651 -75.47 0.294490 -166.2
8.85140000 0.294491 -164.8 0.955651 -75.47 0.955651 -75.47 0.294490 -166.2
8.85160000 0.294492 -164.8 0.955650 -75.48 0.955650 -75.48 0.294491 -166.2
8.85180000 0.294492 -164.8 0.955650 -75.48 0.955650 -75.48 0.294491 -166.2
8.85200000 0.294493 -164.8 0.955650 -75.48 0.955650 -75.48 0.294492 -166.2
8.85220000 0.294493 -164.8 0.955650 -75.48 0.955650 -75.48 0.294492 -166.2
8.85240000 0.294493 -164.8 0.955650 -75.48 0.955650 -75.48 0.294493 -166.2
8.85260000 0.294494 -164.8 0.955650 -75.49 0.955650 -75.49 0.294493 -166.2
8.85280000 0.294494 -164.8 0.955650 -75.49 0.955650 -75.49 0.294493 -166.2
8.85300000 0.294495 -164.8 0.955649 -75.49 0.955649 -75.49 0.294494 -166.2
8.85320000 0.294495 -164.8 0.955649 -75.49 0.955649 -75.49 0.294494 -166.2
8.85340000 0.294495 -164.8 0.955649 -75.49 0.955649 -75.49 0.294495 -166.2
8.85360000 0.294496 -164.8 0.955649 -75.50 0.955649 -75.50 0.294495 -166.2
8.85380000 0.294496 -164.8 0.955649 -75.50 0.955649 -75.50 0.294495 -166.2
8.85400000 0.294496 -164.8 0.955649 -75.50 0.955649 -75.50 0.294496 -166.2
8.85420000 0.294497 -164.8 0.955649 -75.50 0.955649 -75.50 0.294496 -166.2
8.85440000 0.294497 -164.8 0.955649 -75.50 0.955649 -75.50 0.294496 -166.2
8.85460000 0.294497 -164.8 0.955649 -75.51 0.955649 -75.51 0.294496 -166.2
8.85480000 0.294498 -164.8 0.955648 -75.51 0.955648 -75.51 0.294497 -166.2
8.85500000 0.294498 -164.8 0.955648 -75.51 0.955648 -75.51 0.294497 -166.2
8.85520000 0.294498 -164.8 0.955648 -75.51 0.955648 -75.51 0.294497 -166.2
8.85540000 0.294499 -164.8 0.955648 -75.51 0.955648 -75.51 0.294498 -166.2
8.85560000 0.294499 -164.8 0.955648 -75.52 0.955648 -75.52 0.294498 -166.2
8.85580000 0.294499 -164.8 0.955648 -75.52 0.955648 -75.52 0.294498 -166.2
8.85600000 0.294499 -164.8 0.955648 -75.52 0.955648 -75.52 0.294498 -166.2
8.85620000 0.294499 -164.8 0.955648 -75.52 0.955648 -75.52 0.294498 -166.2
8.85640000 0.294500 -164.8 0.955648 -75.52 0.955648 -75.52 0.294499 -166.2
8.85660000 0.294500 -164.8 0.955648 -75.53 0.955648 -75.53 0.294499 -166.3
8.85680000 0.294500 -164.8 0.955648 -75.53 0.955648 -75.53 0.294499 -166.3
8.85700000 0.294500 -164.8 0.955648 -75.53 0.955648 -75.53 0.294499 -166.3
8.85720000 0.294500 -164.8 0.955648 -75.53 0.955648 -75.53 0.294499 -166.3
8.85740000 0.294500 -164.8 0.955648 -75.53 0.955648 -75.53 0.294499 -166.3
8.85760000 0.294501 -164.8 0.955648 -75.54 0.955648 -75.54 0.294500 -166.3
8.85780000 0.294501 -164.8 0.955648 -75.54 0.955648 -75.54 0.294500 -166.3
8.85800000 0.294501 -164.8 0.955647 -75.54 0.955647 -75.54 0.294500 -166.3
8.85820000 0.294501 -164.8 0.955647 -75.54 0.955647 -75.54 0.294500 -166.3
8.85840000 0.294501 -164.8 0.955647 -75.54 0.955647 -75.54 0.294500 -166.3
8.85860000 0.294501 -164.8 0.955647 -75.55 0.955647 -75.55 0.294500 -166.3
8.85880000 0.294501 -164.8 0.955647 -75.55 0.955647 -75.55 0.294500 -166.3
8.85900000 0.294501 -164.8 0.955647 -75.55 0.955647 -75.55 0.294500 -166.3
8.85920000 0.294501 -164.8 0.955647 -75.55 0.955647 -75.55 0.294500 -166.3
8.85940000 0.294501 -164.8 0.955647 -75.55 0.955647 -75.55 0.294500 -166.3
8.85960000 0.294501 -164.8 0.955647 -75.56 0.955647 -75.56 0.294500 -166.3
8.85980000 0.294501 -164.8 0.955647 -75.56 0.955647 -75.56 0.294500 -166.3
8.86000000 0.294501 -164.8 0.955647 -75.56 0.955647 -75.56 0.294500 -166.3
8.86020000 0.294501 -164.8 0.955647 -75.56 0.955647 -75.56 0.294500 -166.3
8.86040000 0.294501 -164.8 0.955647 -75.56 0.955647 -75.56 0.294500 -166.3
8.86060000 0.294501 -164.8 0.955647 -75.57 0.955647 -75.57 0.294499 -166.3
8.86080000 0.294501 -164.8 0.955648 -75.57 0.955648 -75.57 0.294499 -166.3
8.86100000 0.294500 -164.8 0.955648 -75.57 0.955648 -75.57 0.294499 -166.3
8.86120000 0.294500 -164.8 0.955648 -75.57 0.955648 -75.57 0.294499 -166.3
8.86140000 0.294500 -164.8 0.955648 -75.57 0.955648 -75.57 0.294499 -166.3
8.86160000 0.294500 -164.8 0.955648 -75.58 0.955648 -75.58 0.294499 -166.3
8.86180000 0.294500 -164.8 0.955648 -75.58 0.955648 -75.58 0.294498 -166.3
8.86200000 0.294499 -164.8 0.955648 -75.58 0.955648 -75.58 0.294498 -166.3
8.86220000 0.294499 -164.8 0.955648 -75.58 0.955648 -75.58 0.294498 -166.3
8.86240000 0.294499 -164.8 0.955648 -75.58 0.955648 -75.58 0.294498 -166.3
8.86260000 0.294499 -164.8 0.955648 -75.59 0.955648 -75.59 0.294497 -166.3
8.86280000 0.294498 -164.8 0.955648 -75.59 0.955648 -75.59 0.294497 -166.4
8.86300000 0.294498 -164.8 0.955648 -75.59 0.955648 -75.59 0.294497 -166.4
8.86320000 0.294498 -164.8 0.955648 -75.59 0.955648 -75.59 0.294497 -166.4
8.86340000 0.294498 -164.8 0.955648 -75.60 0.955648 -75.60 0.294496 -166.4
8.86360000 0.294497 -164.8 0.955649 -75.60 0.955649 -75.60 0.294496 -166.4
8.86380000 0.294497 -164.8 0.955649 -75.60 0.955649 -75.60 0.294495 -166.4
8.86400000 0.294496 -164.8 0.955649 -75.60 0.955649 -75.60 0.294495 -166.4
8.86420000 0.294496 -164.8 0.955649 -75.60 0.955649 -75.60 0.294495 -166.4
8.86440000 0.294496 -164.8 0.955649 -75.61 0.955649 -75.61 0.294494 -166.4
8.86460000 0.294495 -164.8 0.955649 -75.61 0.955649 -75.61 0.294494 -166.4
8.86480000 0.294495 -164.8 0.955649 -75.61 0.955649 -75.61 0.294493 -166.4
8.86500000 0.294494 -164.8 0.955649 -75.61 0.955649 -75.61 0.294493 -166.4
8.86520000 0.294494 -164.8 0.955650 -75.61 0.955650 -75.61 0.294492 -166.4
8.86540000 0.294493 -164.8 0.955650 -75.62 0.955650 -75.62 0.294492 -166.4
8.86560000 0.294493 -164.8 0.955650 -75.62 0.955650 -75.62 0.294491 -166.4
8.86580000 0.294492 -164.8 0.955650 -75.62 0.955650 -75.62 0.294491 -166.4
8.86600000 0.294491 -164.8 0.955650 -75.62 0.955650 -75.62 0.294490 -166.4
8.86620000 0.294491 -164.8 0.955650 -75.62 0.955650 -75.62 0.294489 -166.4
8.86640000 0.294490 -164.8 0.955651 -75.63 0.955651 -75.63 0.294489 -166.4
8.86660000 0.294490 -164.8 0.955651 -75.63 0.955651 -75.63 0.294488 -166.4
8.86680000 0.294489 -164.8 0.955651 -75.63 0.955651 -75.63 0.294487 -166.4
8.86700000 0.294488 -164.8 0.955651 -75.63 0.955651 -75.63 0.294487 -166.4
8.86720000 0.294488 -164.8 0.955651 -75.64 0.955651 -75.64 0.294486 -166.4
8.86740000 0.294487 -164.8 0.955652 -75.64 0.955652 -75.64 0.294485 -166.4
8.86760000 0.294486 -164.8 0.955652 -75.64 0.955652 -75.64 0.294485 -166.4
8.86780000 0.294485 -164.8 0.955652 -75.64 0.955652 -75.64 0.294484 -166.4
8.86800000 0.294484 -164.8 0.955652 -75.64 0.955652 -75.64 0.294483 -166.4
8.86820000 0.294484 -164.8 0.955653 -75.65 0.955653 -75.65 0.294482 -166.5
8.86840000 0.294483 -164.8 0.955653 -75.65 0.955653 -75.65 0.294481 -166.5
8.86860000 0.294482 -164.8 0.955653 -75.65 0.955653 -75.65 0.294480 -166.5
8.86880000 0.294481 -164.8 0.955653 -75.65 0.955653 -75.65 0.294479 -166.5
8.86900000 0.294480 -164.8 0.955654 -75.65 0.955654 -75.65 0.294479 -166.5
8.86920000 0.294479 -164.8 0.955654 -75.66 0.955654 -75.66 0.294478 -166.5
8.86940000 0.294478 -164.8 0.955654 -75.66 0.955654 -75.66 0.294477 -166.5
8.86960000 0.294477 -164.8 0.955655 -75.66 0.955655 -75.66 0.294476 -166.5
8.86980000 0.294476 -164.8 0.955655 -75.66 0.955655 -75.66 0.294475 -166.5
8.87000000 0.294475 -164.8 0.955655 -75.67 0.955655 -75.67 0.294474 -166.5
8.87020000 0.294474 -164.8 0.955655 -75.67 0.955655 -75.67 0.294472 -166.5
8.87040000 0.294473 -164.8 0.955656 -75.67 0.955656 -75.67 0.294471 -166.5
8.87060000 0.294472 -164.8 0.955656 -75.67 0.955656 -75.67 0.294470 -166.5
8.87080000 0.294471 -164.8 0.955656 -75.67 0.955656 -75.67 0.294469 -166.5
8.87100000 0.294470 -164.8 0.955657 -75.68 0.955657 -75.68 0.294468 -166.5
8.87120000 0.294469 -164.8 0.955657 -75.68 0.955657 -75.68 0.294467 -166.5
8.87140000 0.294467 -164.8 0.955658 -75.68 0.955658 -75.68 0.294465 -166.5
8.87160000 0.294466 -164.8 0.955658 -75.68 0.955658 -75.68 0.294464 -166.5
8.87180000 0.294465 -164.8 0.955658 -75.69 0.955658 -75.69 0.294463 -166.5
8.87200000 0.294463 -164.8 0.955659 -75.69 0.955659 -75.69 0.294462 -166.5
8.87220000 0.294462 -164.9 0.955659 -75.69 0.955659 -75.69 0.294460 -166.5
8.87240000 0.294461 -164.9 0.955660 -75.69 0.955660 -75.69 0.294459 -166.5
8.87260000 0.294459 -164.9 0.955660 -75.69 0.955660 -75.69 0.294458 -166.5
8.87280000 0.294458 -164.9 0.955660 -75.70 0.955660 -75.70 0.294456 -166.5
8.87300000 0.294457 -164.9 0.955661 -75.70 0.955661 -75.70 0.294455 -166.5
8.87320000 0.294455 -164.9 0.955661 -75.70 0.955661 -75.70 0.294453 -166.6
8.87340000 0.294454 -164.9 0.955662 -75.70 0.955662 -75.70 0.294452 -166.6
8.87360000 0.294452 -164.9 0.955662 -75.71 0.955662 -75.71 0.294450 -166.6
8.87380000 0.294450 -164.9 0.955663 -75.71 0.955663 -75.71 0.294448 -166.6
8.87400000 0.294449 -164.9 0.955663 -75.71 0.955663 -75.71 0.294447 -166.6
8.87420000 0.294447 -164.9 0.955664 -75.71 0.955664 -75.71 0.294445 -166.6
8.87440000 0.294446 -164.9 0.955664 -75.72 0.955664 -75.72 0.294444 -166.6
8.87460000 0.294444 -164.9 0.955665 -75.72 0.955665 -75.72 0.294442 -166.6
8.87480000 0.294442 -164.9 0.955665 -75.72 0.955665 -75.72 0.294440 -166.6
8.87500000 0.294440 -164.9 0.955666 -75.72 0.955666 -75.72 0.294438 -166.6
8.87520000 0.294439 -164.9 0.955666 -75.72 0.955666 -75.72 0.294436 -166.6
8.87540000 0.294437 -164.9 0.955667 -75.73 0.955667 -75.73 0.294435 -166.6
8.87560000 0.294435 -164.9 0.955667 -75.73 0.955667 -75.73 0.294433 -166.6
8.87580000 0.294433 -164.9 0.955668 -75.73 0.955668 -75.73 0.294431 -166.6
8.87600000 0.294431 -164.9 0.955669 -75.73 0.955669 -75.73 0.294429 -166.6
8.87620000 0.294429 -164.9 0.955669 -75.74 0.955669 -75.74 0.294427 -166.6
8.87640000 0.294427 -164.9 0.955670 -75.74 0.955670 -75.74 0.294425 -166.6
8.87660000 0.294425 -164.9 0.955670 -75.74 0.955670 -75.74 0.294423 -166.6
8.87680000 0.294423 -164.9 0.955671 -75.74 0.955671 -75.74 0.294421 -166.6
8.87700000 0.294421 -164.9 0.955672 -75.75 0.955672 -75.75 0.294419 -166.6
8.87720000 0.294419 -164.9 0.955672 -75.75 0.955672 -75.75 0.294416 -166.6
8.87740000 0.294417 -164.9 0.955673 -75.75 0.955673 -75.75 0.294414 -166.6
8.87760000 0.294414 -164.9 0.955674 -75.75 0.955674 -75.75 0.294412 -166.7
8.87780000 0.294412 -164.9 0.955674 -75.76 0.955674 -75.76 0.294410 -166.7
8.87800000 0.294410 -164.9 0.955675 -75.76 0.955675 -75.76 0.294407 -166.7
8.87820000 0.294407 -164.9 0.955676 -75.76 0.955676 -75.76 0.294405 -166.7
8.87840000 0.294405 -164.9 0.955676 -75.76 0.955676 -75.76 0.294402 -166.7