! Sonnet Data File
! From: emgraph Version : 16.52
! From Project: Resonator2
! Data is De-embedded 
! Data File Written: 10/05/2017 10:46:05
!< HDATE 10/04/2017 20:26:48
!< MDATE 10/05/2017 00:36:07
!< PARAMS
!< gap = 56.0
!< Length = 400.0
!< Pwid1 = 2000.0
!< Pwid2 = 2000.0
!< END PARAMS
# GHZ S MA R 50.00000
8.80000000 0.292892 -164.4 0.956142 -75.09 0.956142 -75.09 0.292892 -165.7
!< P1 F=8.8 Eeff=(5.36817953 -2.3731e-5) Z0=(35.9853883 8.0522e-5) R=0.0 C=0.0 
!< P2 F=8.8 Eeff=(5.36817953 -2.3731e-5) Z0=(35.9853883 8.0522e-5) R=0.0 C=0.0 
8.80020000 0.292893 -164.4 0.956142 -75.09 0.956142 -75.09 0.292893 -165.7
8.80040000 0.292895 -164.4 0.956141 -75.10 0.956141 -75.10 0.292894 -165.7
8.80060000 0.292896 -164.4 0.956141 -75.10 0.956141 -75.10 0.292895 -165.8
8.80080000 0.292897 -164.4 0.956141 -75.10 0.956141 -75.10 0.292897 -165.8
8.80100000 0.292898 -164.4 0.956140 -75.10 0.956140 -75.10 0.292898 -165.8
8.80120000 0.292900 -164.4 0.956140 -75.10 0.956140 -75.10 0.292899 -165.8
8.80140000 0.292901 -164.4 0.956140 -75.10 0.956140 -75.10 0.292900 -165.8
8.80160000 0.292902 -164.5 0.956139 -75.11 0.956139 -75.11 0.292902 -165.8
8.80180000 0.292903 -164.5 0.956139 -75.11 0.956139 -75.11 0.292903 -165.8
8.80200000 0.292904 -164.5 0.956138 -75.11 0.956138 -75.11 0.292904 -165.8
8.80220000 0.292906 -164.5 0.956138 -75.11 0.956138 -75.11 0.292905 -165.8
8.80240000 0.292907 -164.5 0.956138 -75.11 0.956138 -75.11 0.292906 -165.8
8.80260000 0.292908 -164.5 0.956137 -75.12 0.956137 -75.12 0.292908 -165.8
8.80280000 0.292909 -164.5 0.956137 -75.12 0.956137 -75.12 0.292909 -165.8
8.80300000 0.292910 -164.5 0.956137 -75.12 0.956137 -75.12 0.292910 -165.8
8.80320000 0.292912 -164.5 0.956136 -75.12 0.956136 -75.12 0.292911 -165.8
8.80340000 0.292913 -164.5 0.956136 -75.12 0.956136 -75.12 0.292912 -165.8
8.80360000 0.292914 -164.5 0.956136 -75.12 0.956136 -75.12 0.292914 -165.8
8.80380000 0.292915 -164.5 0.956135 -75.13 0.956135 -75.13 0.292915 -165.8
8.80400000 0.292916 -164.5 0.956135 -75.13 0.956135 -75.13 0.292916 -165.8
8.80420000 0.292918 -164.5 0.956134 -75.13 0.956134 -75.13 0.292917 -165.8
8.80440000 0.292919 -164.5 0.956134 -75.13 0.956134 -75.13 0.292918 -165.8
8.80460000 0.292920 -164.5 0.956134 -75.13 0.956134 -75.13 0.292919 -165.8
8.80480000 0.292921 -164.5 0.956133 -75.14 0.956133 -75.14 0.292920 -165.8
8.80500000 0.292922 -164.5 0.956133 -75.14 0.956133 -75.14 0.292922 -165.8
8.80520000 0.292923 -164.5 0.956133 -75.14 0.956133 -75.14 0.292923 -165.8
8.80540000 0.292924 -164.5 0.956132 -75.14 0.956132 -75.14 0.292924 -165.8
8.80560000 0.292926 -164.5 0.956132 -75.14 0.956132 -75.14 0.292925 -165.8
8.80580000 0.292927 -164.5 0.956132 -75.14 0.956132 -75.14 0.292926 -165.8
8.80600000 0.292928 -164.5 0.956131 -75.15 0.956131 -75.15 0.292927 -165.8
8.80620000 0.292929 -164.5 0.956131 -75.15 0.956131 -75.15 0.292928 -165.8
8.80640000 0.292930 -164.5 0.956131 -75.15 0.956131 -75.15 0.292929 -165.8
8.80660000 0.292931 -164.5 0.956130 -75.15 0.956130 -75.15 0.292931 -165.8
8.80680000 0.292932 -164.5 0.956130 -75.15 0.956130 -75.15 0.292932 -165.8
8.80700000 0.292933 -164.5 0.956130 -75.16 0.956130 -75.16 0.292933 -165.8
8.80720000 0.292934 -164.5 0.956129 -75.16 0.956129 -75.16 0.292934 -165.8
8.80740000 0.292935 -164.5 0.956129 -75.16 0.956129 -75.16 0.292935 -165.8
8.80760000 0.292936 -164.5 0.956129 -75.16 0.956129 -75.16 0.292936 -165.8
8.80780000 0.292938 -164.5 0.956128 -75.16 0.956128 -75.16 0.292937 -165.8
8.80800000 0.292939 -164.5 0.956128 -75.16 0.956128 -75.16 0.292938 -165.8
8.80820000 0.292940 -164.5 0.956128 -75.17 0.956128 -75.17 0.292939 -165.8
8.80840000 0.292941 -164.5 0.956127 -75.17 0.956127 -75.17 0.292940 -165.8
8.80860000 0.292942 -164.5 0.956127 -75.17 0.956127 -75.17 0.292941 -165.8
8.80880000 0.292943 -164.5 0.956127 -75.17 0.956127 -75.17 0.292942 -165.8
8.80900000 0.292944 -164.5 0.956126 -75.17 0.956126 -75.17 0.292943 -165.9
8.80920000 0.292945 -164.5 0.956126 -75.18 0.956126 -75.18 0.292944 -165.9
8.80940000 0.292946 -164.5 0.956126 -75.18 0.956126 -75.18 0.292945 -165.9
8.80960000 0.292947 -164.5 0.956125 -75.18 0.956125 -75.18 0.292946 -165.9
8.80980000 0.292948 -164.5 0.956125 -75.18 0.956125 -75.18 0.292947 -165.9
8.81000000 0.292949 -164.5 0.956125 -75.18 0.956125 -75.18 0.292948 -165.9
8.81020000 0.292950 -164.5 0.956124 -75.18 0.956124 -75.18 0.292949 -165.9
8.81040000 0.292951 -164.5 0.956124 -75.19 0.956124 -75.19 0.292950 -165.9
8.81060000 0.292952 -164.5 0.956124 -75.19 0.956124 -75.19 0.292951 -165.9
8.81080000 0.292953 -164.5 0.956124 -75.19 0.956124 -75.19 0.292952 -165.9
8.81100000 0.292954 -164.5 0.956123 -75.19 0.956123 -75.19 0.292953 -165.9
8.81120000 0.292955 -164.5 0.956123 -75.19 0.956123 -75.19 0.292954 -165.9
8.81140000 0.292956 -164.5 0.956123 -75.20 0.956123 -75.20 0.292955 -165.9
8.81160000 0.292957 -164.5 0.956122 -75.20 0.956122 -75.20 0.292956 -165.9
8.81180000 0.292958 -164.5 0.956122 -75.20 0.956122 -75.20 0.292957 -165.9
8.81200000 0.292959 -164.5 0.956122 -75.20 0.956122 -75.20 0.292958 -165.9
8.81220000 0.292960 -164.5 0.956121 -75.20 0.956121 -75.20 0.292959 -165.9
8.81240000 0.292961 -164.5 0.956121 -75.21 0.956121 -75.21 0.292960 -165.9
8.81260000 0.292962 -164.5 0.956121 -75.21 0.956121 -75.21 0.292961 -165.9
8.81280000 0.292962 -164.5 0.956121 -75.21 0.956121 -75.21 0.292962 -165.9
8.81300000 0.292963 -164.5 0.956120 -75.21 0.956120 -75.21 0.292963 -165.9
8.81320000 0.292964 -164.5 0.956120 -75.21 0.956120 -75.21 0.292964 -165.9
8.81340000 0.292965 -164.5 0.956120 -75.21 0.956120 -75.21 0.292965 -165.9
8.81360000 0.292966 -164.5 0.956119 -75.22 0.956119 -75.22 0.292966 -165.9
8.81380000 0.292967 -164.5 0.956119 -75.22 0.956119 -75.22 0.292966 -165.9
8.81400000 0.292968 -164.5 0.956119 -75.22 0.956119 -75.22 0.292967 -165.9
8.81420000 0.292969 -164.5 0.956119 -75.22 0.956119 -75.22 0.292968 -165.9
8.81440000 0.292970 -164.5 0.956118 -75.22 0.956118 -75.22 0.292969 -165.9
8.81460000 0.292971 -164.5 0.956118 -75.23 0.956118 -75.23 0.292970 -165.9
8.81480000 0.292971 -164.5 0.956118 -75.23 0.956118 -75.23 0.292971 -165.9
8.81500000 0.292972 -164.5 0.956118 -75.23 0.956118 -75.23 0.292972 -165.9
8.81520000 0.292973 -164.5 0.956117 -75.23 0.956117 -75.23 0.292972 -165.9
8.81540000 0.292974 -164.5 0.956117 -75.23 0.956117 -75.23 0.292973 -165.9
8.81560000 0.292975 -164.5 0.956117 -75.23 0.956117 -75.23 0.292974 -165.9
8.81580000 0.292976 -164.5 0.956117 -75.24 0.956117 -75.24 0.292975 -165.9
8.81600000 0.292976 -164.5 0.956116 -75.24 0.956116 -75.24 0.292976 -165.9
8.81620000 0.292977 -164.5 0.956116 -75.24 0.956116 -75.24 0.292977 -165.9
8.81640000 0.292978 -164.5 0.956116 -75.24 0.956116 -75.24 0.292977 -165.9
8.81660000 0.292979 -164.5 0.956116 -75.24 0.956116 -75.24 0.292978 -165.9
8.81680000 0.292980 -164.5 0.956115 -75.25 0.956115 -75.25 0.292979 -165.9
8.81700000 0.292980 -164.5 0.956115 -75.25 0.956115 -75.25 0.292980 -166.0
8.81720000 0.292981 -164.5 0.956115 -75.25 0.956115 -75.25 0.292981 -166.0
8.81740000 0.292982 -164.5 0.956115 -75.25 0.956115 -75.25 0.292981 -166.0
8.81760000 0.292983 -164.5 0.956114 -75.25 0.956114 -75.25 0.292982 -166.0
8.81780000 0.292983 -164.5 0.956114 -75.26 0.956114 -75.26 0.292983 -166.0
8.81800000 0.292984 -164.6 0.956114 -75.26 0.956114 -75.26 0.292984 -166.0
8.81820000 0.292985 -164.6 0.956114 -75.26 0.956114 -75.26 0.292984 -166.0
8.81840000 0.292986 -164.6 0.956113 -75.26 0.956113 -75.26 0.292985 -166.0
8.81860000 0.292986 -164.6 0.956113 -75.26 0.956113 -75.26 0.292986 -166.0
8.81880000 0.292987 -164.6 0.956113 -75.26 0.956113 -75.26 0.292986 -166.0
8.81900000 0.292988 -164.6 0.956113 -75.27 0.956113 -75.27 0.292987 -166.0
8.81920000 0.292989 -164.6 0.956113 -75.27 0.956113 -75.27 0.292988 -166.0
8.81940000 0.292989 -164.6 0.956112 -75.27 0.956112 -75.27 0.292989 -166.0
8.81960000 0.292990 -164.6 0.956112 -75.27 0.956112 -75.27 0.292989 -166.0
8.81980000 0.292991 -164.6 0.956112 -75.27 0.956112 -75.27 0.292990 -166.0
8.82000000 0.292991 -164.6 0.956112 -75.28 0.956112 -75.28 0.292991 -166.0
8.82020000 0.292992 -164.6 0.956112 -75.28 0.956112 -75.28 0.292991 -166.0
8.82040000 0.292993 -164.6 0.956111 -75.28 0.956111 -75.28 0.292992 -166.0
8.82060000 0.292993 -164.6 0.956111 -75.28 0.956111 -75.28 0.292993 -166.0
8.82080000 0.292994 -164.6 0.956111 -75.28 0.956111 -75.28 0.292993 -166.0
8.82100000 0.292995 -164.6 0.956111 -75.29 0.956111 -75.29 0.292994 -166.0
8.82120000 0.292995 -164.6 0.956111 -75.29 0.956111 -75.29 0.292994 -166.0
8.82140000 0.292996 -164.6 0.956110 -75.29 0.956110 -75.29 0.292995 -166.0
8.82160000 0.292996 -164.6 0.956110 -75.29 0.956110 -75.29 0.292996 -166.0
8.82180000 0.292997 -164.6 0.956110 -75.29 0.956110 -75.29 0.292996 -166.0
8.82200000 0.292998 -164.6 0.956110 -75.29 0.956110 -75.29 0.292997 -166.0
8.82220000 0.292998 -164.6 0.956110 -75.30 0.956110 -75.30 0.292997 -166.0
8.82240000 0.292999 -164.6 0.956109 -75.30 0.956109 -75.30 0.292998 -166.0
8.82260000 0.292999 -164.6 0.956109 -75.30 0.956109 -75.30 0.292999 -166.0
8.82280000 0.293000 -164.6 0.956109 -75.30 0.956109 -75.30 0.292999 -166.0
8.82300000 0.293000 -164.6 0.956109 -75.30 0.956109 -75.30 0.293000 -166.0
8.82320000 0.293001 -164.6 0.956109 -75.31 0.956109 -75.31 0.293000 -166.0
8.82340000 0.293002 -164.6 0.956109 -75.31 0.956109 -75.31 0.293001 -166.0
8.82360000 0.293002 -164.6 0.956108 -75.31 0.956108 -75.31 0.293001 -166.0
8.82380000 0.293003 -164.6 0.956108 -75.31 0.956108 -75.31 0.293002 -166.0
8.82400000 0.293003 -164.6 0.956108 -75.31 0.956108 -75.31 0.293002 -166.0
8.82420000 0.293004 -164.6 0.956108 -75.32 0.956108 -75.32 0.293003 -166.0
8.82440000 0.293004 -164.6 0.956108 -75.32 0.956108 -75.32 0.293003 -166.0
8.82460000 0.293005 -164.6 0.956108 -75.32 0.956108 -75.32 0.293004 -166.1
8.82480000 0.293005 -164.6 0.956107 -75.32 0.956107 -75.32 0.293004 -166.1
8.82500000 0.293006 -164.6 0.956107 -75.32 0.956107 -75.32 0.293005 -166.1
8.82520000 0.293006 -164.6 0.956107 -75.33 0.956107 -75.33 0.293005 -166.1
8.82540000 0.293006 -164.6 0.956107 -75.33 0.956107 -75.33 0.293006 -166.1
8.82560000 0.293007 -164.6 0.956107 -75.33 0.956107 -75.33 0.293006 -166.1
8.82580000 0.293007 -164.6 0.956107 -75.33 0.956107 -75.33 0.293006 -166.1
8.82600000 0.293008 -164.6 0.956107 -75.33 0.956107 -75.33 0.293007 -166.1
8.82620000 0.293008 -164.6 0.956107 -75.33 0.956107 -75.33 0.293007 -166.1
8.82640000 0.293009 -164.6 0.956106 -75.34 0.956106 -75.34 0.293008 -166.1
8.82660000 0.293009 -164.6 0.956106 -75.34 0.956106 -75.34 0.293008 -166.1
8.82680000 0.293009 -164.6 0.956106 -75.34 0.956106 -75.34 0.293008 -166.1
8.82700000 0.293010 -164.6 0.956106 -75.34 0.956106 -75.34 0.293009 -166.1
8.82720000 0.293010 -164.6 0.956106 -75.34 0.956106 -75.34 0.293009 -166.1
8.82740000 0.293010 -164.6 0.956106 -75.35 0.956106 -75.35 0.293010 -166.1
8.82760000 0.293011 -164.6 0.956106 -75.35 0.956106 -75.35 0.293010 -166.1
8.82780000 0.293011 -164.6 0.956106 -75.35 0.956106 -75.35 0.293010 -166.1
8.82800000 0.293011 -164.6 0.956106 -75.35 0.956106 -75.35 0.293011 -166.1
8.82820000 0.293012 -164.6 0.956105 -75.35 0.956105 -75.35 0.293011 -166.1
8.82840000 0.293012 -164.6 0.956105 -75.36 0.956105 -75.36 0.293011 -166.1
8.82860000 0.293012 -164.6 0.956105 -75.36 0.956105 -75.36 0.293011 -166.1
8.82880000 0.293013 -164.6 0.956105 -75.36 0.956105 -75.36 0.293012 -166.1
8.82900000 0.293013 -164.6 0.956105 -75.36 0.956105 -75.36 0.293012 -166.1
8.82920000 0.293013 -164.6 0.956105 -75.36 0.956105 -75.36 0.293012 -166.1
8.82940000 0.293013 -164.6 0.956105 -75.37 0.956105 -75.37 0.293012 -166.1
8.82960000 0.293014 -164.6 0.956105 -75.37 0.956105 -75.37 0.293013 -166.1
8.82980000 0.293014 -164.6 0.956105 -75.37 0.956105 -75.37 0.293013 -166.1
8.83000000 0.293014 -164.6 0.956105 -75.37 0.956105 -75.37 0.293013 -166.1
8.83020000 0.293014 -164.6 0.956105 -75.37 0.956105 -75.37 0.293013 -166.1
8.83040000 0.293014 -164.6 0.956105 -75.38 0.956105 -75.38 0.293013 -166.1
8.83060000 0.293015 -164.6 0.956105 -75.38 0.956105 -75.38 0.293014 -166.1
8.83080000 0.293015 -164.6 0.956104 -75.38 0.956104 -75.38 0.293014 -166.1
8.83100000 0.293015 -164.6 0.956104 -75.38 0.956104 -75.38 0.293014 -166.1
8.83120000 0.293015 -164.6 0.956104 -75.38 0.956104 -75.38 0.293014 -166.1
8.83140000 0.293015 -164.6 0.956104 -75.39 0.956104 -75.39 0.293014 -166.1
8.83160000 0.293015 -164.6 0.956104 -75.39 0.956104 -75.39 0.293014 -166.2
8.83180000 0.293015 -164.6 0.956104 -75.39 0.956104 -75.39 0.293014 -166.2
8.83200000 0.293015 -164.6 0.956104 -75.39 0.956104 -75.39 0.293015 -166.2
8.83220000 0.293016 -164.6 0.956104 -75.39 0.956104 -75.39 0.293015 -166.2
8.83240000 0.293016 -164.6 0.956104 -75.40 0.956104 -75.40 0.293015 -166.2
8.83260000 0.293016 -164.6 0.956104 -75.40 0.956104 -75.40 0.293015 -166.2
8.83280000 0.293016 -164.6 0.956104 -75.40 0.956104 -75.40 0.293015 -166.2
8.83300000 0.293016 -164.6 0.956104 -75.40 0.956104 -75.40 0.293015 -166.2
8.83320000 0.293016 -164.6 0.956104 -75.40 0.956104 -75.40 0.293015 -166.2
8.83340000 0.293016 -164.6 0.956104 -75.41 0.956104 -75.41 0.293015 -166.2
8.83360000 0.293016 -164.6 0.956104 -75.41 0.956104 -75.41 0.293015 -166.2
8.83380000 0.293016 -164.6 0.956104 -75.41 0.956104 -75.41 0.293015 -166.2
8.83400000 0.293016 -164.6 0.956104 -75.41 0.956104 -75.41 0.293015 -166.2
8.83420000 0.293016 -164.6 0.956104 -75.41 0.956104 -75.41 0.293015 -166.2
8.83440000 0.293016 -164.6 0.956104 -75.41 0.956104 -75.41 0.293015 -166.2
8.83460000 0.293016 -164.6 0.956104 -75.42 0.956104 -75.42 0.293015 -166.2
8.83480000 0.293016 -164.6 0.956104 -75.42 0.956104 -75.42 0.293015 -166.2
8.83500000 0.293015 -164.6 0.956104 -75.42 0.956104 -75.42 0.293014 -166.2
8.83520000 0.293015 -164.6 0.956104 -75.42 0.956104 -75.42 0.293014 -166.2
8.83540000 0.293015 -164.6 0.956104 -75.42 0.956104 -75.42 0.293014 -166.2
8.83560000 0.293015 -164.6 0.956104 -75.43 0.956104 -75.43 0.293014 -166.2
8.83580000 0.293015 -164.6 0.956104 -75.43 0.956104 -75.43 0.293014 -166.2
8.83600000 0.293015 -164.6 0.956104 -75.43 0.956104 -75.43 0.293014 -166.2
8.83620000 0.293015 -164.6 0.956104 -75.43 0.956104 -75.43 0.293014 -166.2
8.83640000 0.293014 -164.6 0.956104 -75.43 0.956104 -75.43 0.293013 -166.2
8.83660000 0.293014 -164.6 0.956105 -75.44 0.956105 -75.44 0.293013 -166.2
8.83680000 0.293014 -164.6 0.956105 -75.44 0.956105 -75.44 0.293013 -166.2
8.83700000 0.293014 -164.6 0.956105 -75.44 0.956105 -75.44 0.293013 -166.2
8.83720000 0.293014 -164.6 0.956105 -75.44 0.956105 -75.44 0.293012 -166.2
8.83740000 0.293013 -164.7 0.956105 -75.44 0.956105 -75.44 0.293012 -166.2
8.83760000 0.293013 -164.7 0.956105 -75.45 0.956105 -75.45 0.293012 -166.2
8.83780000 0.293013 -164.7 0.956105 -75.45 0.956105 -75.45 0.293012 -166.2
8.83800000 0.293012 -164.7 0.956105 -75.45 0.956105 -75.45 0.293011 -166.2
8.83820000 0.293012 -164.7 0.956105 -75.45 0.956105 -75.45 0.293011 -166.3
8.83840000 0.293012 -164.7 0.956105 -75.46 0.956105 -75.46 0.293011 -166.3
8.83860000 0.293011 -164.7 0.956105 -75.46 0.956105 -75.46 0.293010 -166.3
8.83880000 0.293011 -164.7 0.956105 -75.46 0.956105 -75.46 0.293010 -166.3
8.83900000 0.293011 -164.7 0.956106 -75.46 0.956106 -75.46 0.293009 -166.3
8.83920000 0.293010 -164.7 0.956106 -75.46 0.956106 -75.46 0.293009 -166.3
8.83940000 0.293010 -164.7 0.956106 -75.47 0.956106 -75.47 0.293009 -166.3
8.83960000 0.293009 -164.7 0.956106 -75.47 0.956106 -75.47 0.293008 -166.3
8.83980000 0.293009 -164.7 0.956106 -75.47 0.956106 -75.47 0.293008 -166.3
8.84000000 0.293009 -164.7 0.956106 -75.47 0.956106 -75.47 0.293007 -166.3
8.84020000 0.293008 -164.7 0.956106 -75.47 0.956106 -75.47 0.293007 -166.3
8.84040000 0.293008 -164.7 0.956107 -75.48 0.956107 -75.48 0.293006 -166.3
8.84060000 0.293007 -164.7 0.956107 -75.48 0.956107 -75.48 0.293006 -166.3
8.84080000 0.293006 -164.7 0.956107 -75.48 0.956107 -75.48 0.293005 -166.3
8.84100000 0.293006 -164.7 0.956107 -75.48 0.956107 -75.48 0.293005 -166.3
8.84120000 0.293005 -164.7 0.956107 -75.48 0.956107 -75.48 0.293004 -166.3
8.84140000 0.293005 -164.7 0.956107 -75.49 0.956107 -75.49 0.293004 -166.3
8.84160000 0.293004 -164.7 0.956108 -75.49 0.956108 -75.49 0.293003 -166.3
8.84180000 0.293004 -164.7 0.956108 -75.49 0.956108 -75.49 0.293002 -166.3
8.84200000 0.293003 -164.7 0.956108 -75.49 0.956108 -75.49 0.293002 -166.3
8.84220000 0.293002 -164.7 0.956108 -75.49 0.956108 -75.49 0.293001 -166.3
8.84240000 0.293002 -164.7 0.956108 -75.50 0.956108 -75.50 0.293000 -166.3
8.84260000 0.293001 -164.7 0.956109 -75.50 0.956109 -75.50 0.293000 -166.3
8.84280000 0.293000 -164.7 0.956109 -75.50 0.956109 -75.50 0.292999 -166.3
8.84300000 0.293000 -164.7 0.956109 -75.50 0.956109 -75.50 0.292998 -166.3
8.84320000 0.292999 -164.7 0.956109 -75.50 0.956109 -75.50 0.292997 -166.3
8.84340000 0.292998 -164.7 0.956109 -75.51 0.956109 -75.51 0.292997 -166.3
8.84360000 0.292997 -164.7 0.956110 -75.51 0.956110 -75.51 0.292996 -166.3
8.84380000 0.292996 -164.7 0.956110 -75.51 0.956110 -75.51 0.292995 -166.3
8.84400000 0.292996 -164.7 0.956110 -75.51 0.956110 -75.51 0.292994 -166.3
8.84420000 0.292995 -164.7 0.956110 -75.51 0.956110 -75.51 0.292993 -166.4
8.84440000 0.292994 -164.7 0.956111 -75.52 0.956111 -75.52 0.292993 -166.4
8.84460000 0.292993 -164.7 0.956111 -75.52 0.956111 -75.52 0.292992 -166.4
8.84480000 0.292992 -164.7 0.956111 -75.52 0.956111 -75.52 0.292991 -166.4
8.84500000 0.292991 -164.7 0.956111 -75.52 0.956111 -75.52 0.292990 -166.4
8.84520000 0.292990 -164.7 0.956112 -75.53 0.956112 -75.53 0.292989 -166.4
8.84540000 0.292989 -164.7 0.956112 -75.53 0.956112 -75.53 0.292988 -166.4
8.84560000 0.292988 -164.7 0.956112 -75.53 0.956112 -75.53 0.292987 -166.4
8.84580000 0.292987 -164.7 0.956113 -75.53 0.956113 -75.53 0.292986 -166.4
8.84600000 0.292986 -164.7 0.956113 -75.53 0.956113 -75.53 0.292985 -166.4
8.84620000 0.292985 -164.7 0.956113 -75.54 0.956113 -75.54 0.292984 -166.4
8.84640000 0.292984 -164.7 0.956114 -75.54 0.956114 -75.54 0.292983 -166.4
8.84660000 0.292983 -164.7 0.956114 -75.54 0.956114 -75.54 0.292982 -166.4
8.84680000 0.292982 -164.7 0.956114 -75.54 0.956114 -75.54 0.292980 -166.4
8.84700000 0.292981 -164.7 0.956115 -75.54 0.956115 -75.54 0.292979 -166.4
8.84720000 0.292980 -164.7 0.956115 -75.55 0.956115 -75.55 0.292978 -166.4
8.84740000 0.292978 -164.7 0.956115 -75.55 0.956115 -75.55 0.292977 -166.4
8.84760000 0.292977 -164.7 0.956116 -75.55 0.956116 -75.55 0.292976 -166.4
8.84780000 0.292976 -164.7 0.956116 -75.55 0.956116 -75.55 0.292974 -166.4
8.84800000 0.292975 -164.7 0.956116 -75.56 0.956116 -75.56 0.292973 -166.4
8.84820000 0.292973 -164.7 0.956117 -75.56 0.956117 -75.56 0.292972 -166.4
8.84840000 0.292972 -164.7 0.956117 -75.56 0.956117 -75.56 0.292971 -166.4
8.84860000 0.292971 -164.7 0.956118 -75.56 0.956118 -75.56 0.292969 -166.4
8.84880000 0.292969 -164.7 0.956118 -75.56 0.956118 -75.56 0.292968 -166.4
8.84900000 0.292968 -164.7 0.956118 -75.57 0.956118 -75.57 0.292966 -166.4
8.84920000 0.292967 -164.7 0.956119 -75.57 0.956119 -75.57 0.292965 -166.4
8.84940000 0.292965 -164.7 0.956119 -75.57 0.956119 -75.57 0.292964 -166.4
8.84960000 0.292964 -164.7 0.956120 -75.57 0.956120 -75.57 0.292962 -166.5
8.84980000 0.292962 -164.7 0.956120 -75.57 0.956120 -75.57 0.292961 -166.5
8.85000000 0.292961 -164.7 0.956121 -75.58 0.956121 -75.58 0.292959 -166.5
8.85020000 0.292959 -164.7 0.956121 -75.58 0.956121 -75.58 0.292958 -166.5
8.85040000 0.292958 -164.7 0.956122 -75.58 0.956122 -75.58 0.292956 -166.5
8.85060000 0.292956 -164.7 0.956122 -75.58 0.956122 -75.58 0.292954 -166.5
8.85080000 0.292955 -164.7 0.956123 -75.59 0.956123 -75.59 0.292953 -166.5
8.85100000 0.292953 -164.7 0.956123 -75.59 0.956123 -75.59 0.292951 -166.5
8.85120000 0.292951 -164.7 0.956124 -75.59 0.956124 -75.59 0.292949 -166.5
8.85140000 0.292950 -164.7 0.956124 -75.59 0.956124 -75.59 0.292948 -166.5
8.85160000 0.292948 -164.7 0.956125 -75.59 0.956125 -75.59 0.292946 -166.5
8.85180000 0.292946 -164.7 0.956125 -75.60 0.956125 -75.60 0.292944 -166.5
8.85200000 0.292944 -164.7 0.956126 -75.60 0.956126 -75.60 0.292942 -166.5
8.85220000 0.292942 -164.7 0.956126 -75.60 0.956126 -75.60 0.292941 -166.5
8.85240000 0.292941 -164.7 0.956127 -75.60 0.956127 -75.60 0.292939 -166.5
8.85260000 0.292939 -164.7 0.956127 -75.61 0.956127 -75.61 0.292937 -166.5
8.85280000 0.292937 -164.7 0.956128 -75.61 0.956128 -75.61 0.292935 -166.5
8.85300000 0.292935 -164.7 0.956128 -75.61 0.956128 -75.61 0.292933 -166.5
8.85320000 0.292933 -164.7 0.956129 -75.61 0.956129 -75.61 0.292931 -166.5
8.85340000 0.292931 -164.7 0.956130 -75.61 0.956130 -75.61 0.292929 -166.5
8.85360000 0.292929 -164.7 0.956130 -75.62 0.956130 -75.62 0.292927 -166.5
8.85380000 0.292927 -164.7 0.956131 -75.62 0.956131 -75.62 0.292925 -166.5
8.85400000 0.292925 -164.7 0.956132 -75.62 0.956132 -75.62 0.292923 -166.5
8.85420000 0.292923 -164.7 0.956132 -75.62 0.956132 -75.62 0.292921 -166.5
8.85440000 0.292921 -164.7 0.956133 -75.63 0.956133 -75.63 0.292919 -166.6
8.85460000 0.292918 -164.7 0.956134 -75.63 0.956134 -75.63 0.292916 -166.6
8.85480000 0.292916 -164.7 0.956134 -75.63 0.956134 -75.63 0.292914 -166.6
8.85500000 0.292914 -164.7 0.956135 -75.63 0.956135 -75.63 0.292912 -166.6
8.85520000 0.292912 -164.7 0.956136 -75.64 0.956136 -75.64 0.292910 -166.6
8.85540000 0.292909 -164.7 0.956136 -75.64 0.956136 -75.64 0.292907 -166.6
8.85560000 0.292907 -164.7 0.956137 -75.64 0.956137 -75.64 0.292905 -166.6
8.85580000 0.292905 -164.7 0.956138 -75.64 0.956138 -75.64 0.292902 -166.6
8.85600000 0.292902 -164.7 0.956138 -75.64 0.956138 -75.64 0.292900 -166.6
8.85620000 0.292900 -164.7 0.956139 -75.65 0.956139 -75.65 0.292897 -166.6
8.85640000 0.292897 -164.7 0.956140 -75.65 0.956140 -75.65 0.292895 -166.6
8.85660000 0.292895 -164.7 0.956141 -75.65 0.956141 -75.65 0.292892 -166.6
8.85680000 0.292892 -164.7 0.956142 -75.65 0.956142 -75.65 0.292890 -166.6
8.85700000 0.292889 -164.7 0.956142 -75.66 0.956142 -75.66 0.292887 -166.6
8.85720000 0.292887 -164.7 0.956143 -75.66 0.956143 -75.66 0.292885 -166.6
8.85740000 0.292884 -164.7 0.956144 -75.66 0.956144 -75.66 0.292882 -166.6
8.85760000 0.292881 -164.7 0.956145 -75.66 0.956145 -75.66 0.292879 -166.6
8.85780000 0.292879 -164.7 0.956146 -75.67 0.956146 -75.67 0.292876 -166.6
8.85800000 0.292876 -164.7 0.956146 -75.67 0.956146 -75.67 0.292873 -166.6
8.85820000 0.292873 -164.7 0.956147 -75.67 0.956147 -75.67 0.292871 -166.6
8.85840000 0.292870 -164.7 0.956148 -75.67 0.956148 -75.67 0.292868 -166.6
8.85860000 0.292867 -164.7 0.956149 -75.68 0.956149 -75.68 0.292865 -166.6
8.85880000 0.292864 -164.7 0.956150 -75.68 0.956150 -75.68 0.292862 -166.6
8.85900000 0.292861 -164.7 0.956151 -75.68 0.956151 -75.68 0.292859 -166.7
8.85920000 0.292858 -164.7 0.956152 -75.68 0.956152 -75.68 0.292856 -166.7
8.85940000 0.292855 -164.7 0.956153 -75.69 0.956153 -75.69 0.292852 -166.7
8.85960000 0.292852 -164.7 0.956154 -75.69 0.956154 -75.69 0.292849 -166.7
8.85980000 0.292848 -164.7 0.956155 -75.69 0.956155 -75.69 0.292846 -166.7
8.86000000 0.292845 -164.7 0.956156 -75.69 0.956156 -75.69 0.292843 -166.7
8.86020000 0.292842 -164.7 0.956157 -75.69 0.956157 -75.69 0.292839 -166.7
8.86040000 0.292839 -164.7 0.956158 -75.70 0.956158 -75.70 0.292836 -166.7
8.86060000 0.292835 -164.7 0.956159 -75.70 0.956159 -75.70 0.292833 -166.7
8.86080000 0.292832 -164.7 0.956160 -75.70 0.956160 -75.70 0.292829 -166.7
8.86100000 0.292828 -164.7 0.956161 -75.70 0.956161 -75.70 0.292826 -166.7
8.86120000 0.292825 -164.7 0.956162 -75.71 0.956162 -75.71 0.292822 -166.7
8.86140000 0.292821 -164.7 0.956163 -75.71 0.956163 -75.71 0.292818 -166.7
8.86160000 0.292818 -164.7 0.956164 -75.71 0.956164 -75.71 0.292815 -166.7
8.86180000 0.292814 -164.7 0.956165 -75.71 0.956165 -75.71 0.292811 -166.7
8.86200000 0.292810 -164.7 0.956166 -75.72 0.956166 -75.72 0.292807 -166.7
8.86220000 0.292806 -164.7 0.956168 -75.72 0.956168 -75.72 0.292804 -166.7
8.86240000 0.292802 -164.7 0.956169 -75.72 0.956169 -75.72 0.292800 -166.7
8.86260000 0.292799 -164.7 0.956170 -75.72 0.956170 -75.72 0.292796 -166.7
8.86280000 0.292795 -164.7 0.956171 -75.73 0.956171 -75.73 0.292792 -166.8
8.86300000 0.292791 -164.7 0.956172 -75.73 0.956172 -75.73 0.292788 -166.8
8.86320000 0.292787 -164.7 0.956174 -75.73 0.956174 -75.73 0.292784 -166.8
8.86340000 0.292782 -164.7 0.956175 -75.73 0.956175 -75.73 0.292780 -166.8
8.86360000 0.292778 -164.7 0.956176 -75.74 0.956176 -75.74 0.292775 -166.8
8.86380000 0.292774 -164.7 0.956177 -75.74 0.956177 -75.74 0.292771 -166.8
8.86400000 0.292770 -164.7 0.956179 -75.74 0.956179 -75.74 0.292767 -166.8
8.86420000 0.292765 -164.7 0.956180 -75.75 0.956180 -75.75 0.292762 -166.8
8.86440000 0.292761 -164.7 0.956181 -75.75 0.956181 -75.75 0.292758 -166.8
8.86460000 0.292756 -164.7 0.956183 -75.75 0.956183 -75.75 0.292753 -166.8
8.86480000 0.292752 -164.7 0.956184 -75.75 0.956184 -75.75 0.292749 -166.8
8.86500000 0.292747 -164.7 0.956185 -75.76 0.956185 -75.76 0.292744 -166.8
8.86520000 0.292743 -164.7 0.956187 -75.76 0.956187 -75.76 0.292740 -166.8
8.86540000 0.292738 -164.7 0.956188 -75.76 0.956188 -75.76 0.292735 -166.8
8.86560000 0.292733 -164.7 0.956190 -75.76 0.956190 -75.76 0.292730 -166.8
8.86580000 0.292728 -164.7 0.956191 -75.77 0.956191 -75.77 0.292725 -166.8
8.86600000 0.292723 -164.7 0.956193 -75.77 0.956193 -75.77 0.292720 -166.8
8.86620000 0.292718 -164.7 0.956194 -75.77 0.956194 -75.77 0.292715 -166.8
8.86640000 0.292713 -164.7 0.956196 -75.77 0.956196 -75.77 0.292710 -166.9
8.86660000 0.292708 -164.7 0.956197 -75.78 0.956197 -75.78 0.292705 -166.9
8.86680000 0.292703 -164.7 0.956199 -75.78 0.956199 -75.78 0.292700 -166.9
8.86700000 0.292698 -164.7 0.956200 -75.78 0.956200 -75.78 0.292694 -166.9
8.86720000 0.292692 -164.7 0.956202 -75.79 0.956202 -75.79 0.292689 -166.9
8.86740000 0.292687 -164.7 0.956204 -75.79 0.956204 -75.79 0.292683 -166.9
8.86760000 0.292681 -164.7 0.956205 -75.79 0.956205 -75.79 0.292678 -166.9
8.86780000 0.292676 -164.7 0.956207 -75.79 0.956207 -75.79 0.292672 -166.9
8.86800000 0.292670 -164.7 0.956209 -75.80 0.956209 -75.80 0.292667 -166.9
8.86820000 0.292664 -164.7 0.956211 -75.80 0.956211 -75.80 0.292661 -166.9
8.86840000 0.292659 -164.7 0.956212 -75.80 0.956212 -75.80 0.292655 -166.9
8.86860000 0.292653 -164.7 0.956214 -75.81 0.956214 -75.81 0.292649 -166.9
8.86880000 0.292647 -164.7 0.956216 -75.81 0.956216 -75.81 0.292643 -166.9
8.86900000 0.292641 -164.7 0.956218 -75.81 0.956218 -75.81 0.292637 -166.9
8.86920000 0.292635 -164.7 0.956220 -75.81 0.956220 -75.81 0.292631 -166.9
8.86940000 0.292628 -164.7 0.956222 -75.82 0.956222 -75.82 0.292624 -166.9
8.86960000 0.292622 -164.7 0.956223 -75.82 0.956223 -75.82 0.292618 -167.0
8.86980000 0.292616 -164.7 0.956225 -75.82 0.956225 -75.82 0.292612 -167.0
8.87000000 0.292609 -164.7 0.956227 -75.83 0.956227 -75.83 0.292605 -167.0
8.87020000 0.292602 -164.7 0.956229 -75.83 0.956229 -75.83 0.292598 -167.0
8.87040000 0.292596 -164.7 0.956231 -75.83 0.956231 -75.83 0.292592 -167.0
8.87060000 0.292589 -164.7 0.956233 -75.83 0.956233 -75.83 0.292585 -167.0
8.87080000 0.292582 -164.7 0.956236 -75.84 0.956236 -75.84 0.292578 -167.0
8.87100000 0.292575 -164.7 0.956238 -75.84 0.956238 -75.84 0.292571 -167.0
8.87120000 0.292568 -164.7 0.956240 -75.84 0.956240 -75.84 0.292564 -167.0
8.87140000 0.292561 -164.7 0.956242 -75.85 0.956242 -75.85 0.292556 -167.0
8.87160000 0.292554 -164.7 0.956244 -75.85 0.956244 -75.85 0.292549 -167.0
8.87180000 0.292546 -164.7 0.956246 -75.85 0.956246 -75.85 0.292542 -167.0
8.87200000 0.292539 -164.7 0.956249 -75.86 0.956249 -75.86 0.292534 -167.0
8.87220000 0.292531 -164.7 0.956251 -75.86 0.956251 -75.86 0.292526 -167.0
8.87240000 0.292523 -164.7 0.956253 -75.86 0.956253 -75.86 0.292519 -167.1
8.87260000 0.292515 -164.7 0.956256 -75.86 0.956256 -75.86 0.292511 -167.1
8.87280000 0.292508 -164.7 0.956258 -75.87 0.956258 -75.87 0.292503 -167.1
8.87300000 0.292499 -164.7 0.956261 -75.87 0.956261 -75.87 0.292495 -167.1
8.87320000 0.292491 -164.7 0.956263 -75.87 0.956263 -75.87 0.292486 -167.1
8.87340000 0.292483 -164.7 0.956266 -75.88 0.956266 -75.88 0.292478 -167.1
8.87360000 0.292475 -164.7 0.956268 -75.88 0.956268 -75.88 0.292470 -167.1
8.87380000 0.292466 -164.7 0.956271 -75.88 0.956271 -75.88 0.292461 -167.1
8.87400000 0.292457 -164.7 0.956273 -75.89 0.956273 -75.89 0.292452 -167.1
8.87420000 0.292449 -164.7 0.956276 -75.89 0.956276 -75.89 0.292443 -167.1
8.87440000 0.292440 -164.7 0.956279 -75.89 0.956279 -75.89 0.292434 -167.1
8.87460000 0.292431 -164.6 0.956281 -75.90 0.956281 -75.90 0.292425 -167.1
8.87480000 0.292421 -164.6 0.956284 -75.90 0.956284 -75.90 0.292416 -167.2
8.87500000 0.292412 -164.6 0.956287 -75.90 0.956287 -75.90 0.292407 -167.2
8.87520000 0.292403 -164.6 0.956290 -75.91 0.956290 -75.91 0.292397 -167.2
8.87540000 0.292393 -164.6 0.956293 -75.91 0.956293 -75.91 0.292388 -167.2
8.87560000 0.292383 -164.6 0.956296 -75.91 0.956296 -75.91 0.292378 -167.2
8.87580000 0.292373 -164.6 0.956299 -75.92 0.956299 -75.92 0.292368 -167.2
8.87600000 0.292363 -164.6 0.956302 -75.92 0.956302 -75.92 0.292358 -167.2
8.87620000 0.292353 -164.6 0.956305 -75.92 0.956305 -75.92 0.292347 -167.2
8.87640000 0.292343 -164.6 0.956308 -75.93 0.956308 -75.93 0.292337 -167.2
8.87660000 0.292332 -164.6 0.956311 -75.93 0.956311 -75.93 0.292326 -167.2
8.87680000 0.292322 -164.6 0.956314 -75.93 0.956314 -75.93 0.292316 -167.2
8.87700000 0.292311 -164.6 0.956318 -75.94 0.956318 -75.94 0.292305 -167.3
8.87720000 0.292300 -164.6 0.956321 -75.94 0.956321 -75.94 0.292293 -167.3
8.87740000 0.292288 -164.6 0.956324 -75.94 0.956324 -75.94 0.292282 -167.3
8.87760000 0.292277 -164.6 0.956328 -75.95 0.956328 -75.95 0.292271 -167.3
8.87780000 0.292266 -164.6 0.956331 -75.95 0.956331 -75.95 0.292259 -167.3
8.87790371 0.292260 -164.6 0.956333 -75.95 0.956333 -75.95 0.292253 -167.3
8.87800000 0.292254 -164.6 0.956335 -75.96 0.956335 -75.96 0.292247 -167.3
8.87820000 0.292242 -164.6 0.956339 -75.96 0.956339 -75.96 0.292235 -167.3