! Sonnet Data File
! From: emgraph Version : 16.52
! From Project: Resonator2
! Data is De-embedded 
! Data File Written: 10/05/2017 10:46:05
!< HDATE 10/04/2017 20:26:48
!< MDATE 10/05/2017 00:36:07
!< PARAMS
!< gap = 36.0
!< Length = 400.0
!< Pwid1 = 2000.0
!< Pwid2 = 2000.0
!< END PARAMS
# GHZ S MA R 50.00000
8.80000000 0.288966 -164.4 0.957336 -75.34 0.957336 -75.34 0.288965 -166.2
!< P1 F=8.8 Eeff=(5.36817953 -2.3731e-5) Z0=(35.9853883 8.0522e-5) R=0.0 C=0.0 
!< P2 F=8.8 Eeff=(5.36817953 -2.3731e-5) Z0=(35.9853883 8.0522e-5) R=0.0 C=0.0 
8.80020000 0.288965 -164.4 0.957336 -75.34 0.957336 -75.34 0.288965 -166.2
8.80040000 0.288965 -164.4 0.957336 -75.34 0.957336 -75.34 0.288965 -166.2
8.80060000 0.288965 -164.4 0.957336 -75.34 0.957336 -75.34 0.288964 -166.2
8.80080000 0.288965 -164.4 0.957336 -75.35 0.957336 -75.35 0.288964 -166.3
8.80100000 0.288964 -164.4 0.957336 -75.35 0.957336 -75.35 0.288964 -166.3
8.80120000 0.288964 -164.4 0.957336 -75.35 0.957336 -75.35 0.288963 -166.3
8.80140000 0.288964 -164.4 0.957337 -75.35 0.957337 -75.35 0.288963 -166.3
8.80160000 0.288963 -164.4 0.957337 -75.35 0.957337 -75.35 0.288963 -166.3
8.80180000 0.288963 -164.4 0.957337 -75.36 0.957337 -75.36 0.288962 -166.3
8.80200000 0.288963 -164.5 0.957337 -75.36 0.957337 -75.36 0.288962 -166.3
8.80220000 0.288962 -164.5 0.957337 -75.36 0.957337 -75.36 0.288962 -166.3
8.80240000 0.288962 -164.5 0.957337 -75.36 0.957337 -75.36 0.288961 -166.3
8.80260000 0.288962 -164.5 0.957337 -75.36 0.957337 -75.36 0.288961 -166.3
8.80280000 0.288961 -164.5 0.957337 -75.37 0.957337 -75.37 0.288961 -166.3
8.80300000 0.288961 -164.5 0.957337 -75.37 0.957337 -75.37 0.288960 -166.3
8.80320000 0.288961 -164.5 0.957338 -75.37 0.957338 -75.37 0.288960 -166.3
8.80340000 0.288960 -164.5 0.957338 -75.37 0.957338 -75.37 0.288959 -166.3
8.80360000 0.288960 -164.5 0.957338 -75.37 0.957338 -75.37 0.288959 -166.3
8.80380000 0.288959 -164.5 0.957338 -75.38 0.957338 -75.38 0.288959 -166.3
8.80400000 0.288959 -164.5 0.957338 -75.38 0.957338 -75.38 0.288958 -166.3
8.80420000 0.288958 -164.5 0.957338 -75.38 0.957338 -75.38 0.288958 -166.3
8.80440000 0.288958 -164.5 0.957338 -75.38 0.957338 -75.38 0.288957 -166.3
8.80460000 0.288957 -164.5 0.957338 -75.38 0.957338 -75.38 0.288957 -166.3
8.80480000 0.288957 -164.5 0.957339 -75.39 0.957339 -75.39 0.288956 -166.3
8.80500000 0.288956 -164.5 0.957339 -75.39 0.957339 -75.39 0.288956 -166.3
8.80520000 0.288956 -164.5 0.957339 -75.39 0.957339 -75.39 0.288955 -166.3
8.80540000 0.288955 -164.5 0.957339 -75.39 0.957339 -75.39 0.288955 -166.3
8.80560000 0.288955 -164.5 0.957339 -75.39 0.957339 -75.39 0.288954 -166.3
8.80580000 0.288954 -164.5 0.957339 -75.40 0.957339 -75.40 0.288954 -166.3
8.80600000 0.288954 -164.5 0.957340 -75.40 0.957340 -75.40 0.288953 -166.3
8.80620000 0.288953 -164.5 0.957340 -75.40 0.957340 -75.40 0.288952 -166.3
8.80640000 0.288953 -164.5 0.957340 -75.40 0.957340 -75.40 0.288952 -166.3
8.80660000 0.288952 -164.5 0.957340 -75.40 0.957340 -75.40 0.288951 -166.3
8.80680000 0.288951 -164.5 0.957340 -75.40 0.957340 -75.40 0.288951 -166.3
8.80700000 0.288951 -164.5 0.957340 -75.41 0.957340 -75.41 0.288950 -166.3
8.80720000 0.288950 -164.5 0.957341 -75.41 0.957341 -75.41 0.288949 -166.3
8.80740000 0.288950 -164.5 0.957341 -75.41 0.957341 -75.41 0.288949 -166.3
8.80760000 0.288949 -164.5 0.957341 -75.41 0.957341 -75.41 0.288948 -166.3
8.80780000 0.288948 -164.5 0.957341 -75.41 0.957341 -75.41 0.288948 -166.3
8.80800000 0.288948 -164.5 0.957341 -75.42 0.957341 -75.42 0.288947 -166.4
8.80820000 0.288947 -164.5 0.957342 -75.42 0.957342 -75.42 0.288946 -166.4
8.80840000 0.288946 -164.5 0.957342 -75.42 0.957342 -75.42 0.288945 -166.4
8.80860000 0.288946 -164.5 0.957342 -75.42 0.957342 -75.42 0.288945 -166.4
8.80880000 0.288945 -164.5 0.957342 -75.42 0.957342 -75.42 0.288944 -166.4
8.80900000 0.288944 -164.5 0.957342 -75.43 0.957342 -75.43 0.288943 -166.4
8.80920000 0.288943 -164.5 0.957343 -75.43 0.957343 -75.43 0.288943 -166.4
8.80940000 0.288943 -164.5 0.957343 -75.43 0.957343 -75.43 0.288942 -166.4
8.80960000 0.288942 -164.5 0.957343 -75.43 0.957343 -75.43 0.288941 -166.4
8.80980000 0.288941 -164.5 0.957343 -75.43 0.957343 -75.43 0.288940 -166.4
8.81000000 0.288940 -164.5 0.957344 -75.44 0.957344 -75.44 0.288939 -166.4
8.81020000 0.288939 -164.5 0.957344 -75.44 0.957344 -75.44 0.288939 -166.4
8.81040000 0.288939 -164.5 0.957344 -75.44 0.957344 -75.44 0.288938 -166.4
8.81060000 0.288938 -164.5 0.957344 -75.44 0.957344 -75.44 0.288937 -166.4
8.81080000 0.288937 -164.5 0.957345 -75.44 0.957345 -75.44 0.288936 -166.4
8.81100000 0.288936 -164.5 0.957345 -75.45 0.957345 -75.45 0.288935 -166.4
8.81120000 0.288935 -164.5 0.957345 -75.45 0.957345 -75.45 0.288934 -166.4
8.81140000 0.288934 -164.5 0.957345 -75.45 0.957345 -75.45 0.288934 -166.4
8.81160000 0.288933 -164.5 0.957346 -75.45 0.957346 -75.45 0.288933 -166.4
8.81180000 0.288933 -164.5 0.957346 -75.45 0.957346 -75.45 0.288932 -166.4
8.81200000 0.288932 -164.5 0.957346 -75.46 0.957346 -75.46 0.288931 -166.4
8.81220000 0.288931 -164.5 0.957346 -75.46 0.957346 -75.46 0.288930 -166.4
8.81240000 0.288930 -164.5 0.957347 -75.46 0.957347 -75.46 0.288929 -166.4
8.81260000 0.288929 -164.5 0.957347 -75.46 0.957347 -75.46 0.288928 -166.4
8.81280000 0.288928 -164.5 0.957347 -75.46 0.957347 -75.46 0.288927 -166.4
8.81300000 0.288927 -164.5 0.957348 -75.47 0.957348 -75.47 0.288926 -166.4
8.81320000 0.288926 -164.5 0.957348 -75.47 0.957348 -75.47 0.288925 -166.4
8.81340000 0.288925 -164.5 0.957348 -75.47 0.957348 -75.47 0.288924 -166.4
8.81360000 0.288924 -164.5 0.957349 -75.47 0.957349 -75.47 0.288923 -166.4
8.81380000 0.288923 -164.5 0.957349 -75.47 0.957349 -75.47 0.288922 -166.4
8.81400000 0.288922 -164.5 0.957349 -75.48 0.957349 -75.48 0.288921 -166.4
8.81420000 0.288921 -164.5 0.957349 -75.48 0.957349 -75.48 0.288920 -166.4
8.81440000 0.288919 -164.5 0.957350 -75.48 0.957350 -75.48 0.288919 -166.4
8.81460000 0.288918 -164.5 0.957350 -75.48 0.957350 -75.48 0.288917 -166.4
8.81480000 0.288917 -164.5 0.957350 -75.48 0.957350 -75.48 0.288916 -166.4
8.81500000 0.288916 -164.5 0.957351 -75.49 0.957351 -75.49 0.288915 -166.5
8.81520000 0.288915 -164.5 0.957351 -75.49 0.957351 -75.49 0.288914 -166.5
8.81540000 0.288914 -164.5 0.957351 -75.49 0.957351 -75.49 0.288913 -166.5
8.81560000 0.288913 -164.5 0.957352 -75.49 0.957352 -75.49 0.288912 -166.5
8.81580000 0.288911 -164.5 0.957352 -75.49 0.957352 -75.49 0.288910 -166.5
8.81600000 0.288910 -164.5 0.957353 -75.50 0.957353 -75.50 0.288909 -166.5
8.81620000 0.288909 -164.5 0.957353 -75.50 0.957353 -75.50 0.288908 -166.5
8.81640000 0.288908 -164.5 0.957353 -75.50 0.957353 -75.50 0.288907 -166.5
8.81660000 0.288906 -164.5 0.957354 -75.50 0.957354 -75.50 0.288906 -166.5
8.81680000 0.288905 -164.5 0.957354 -75.50 0.957354 -75.50 0.288904 -166.5
8.81700000 0.288904 -164.5 0.957354 -75.51 0.957354 -75.51 0.288903 -166.5
8.81720000 0.288903 -164.5 0.957355 -75.51 0.957355 -75.51 0.288902 -166.5
8.81740000 0.288901 -164.5 0.957355 -75.51 0.957355 -75.51 0.288900 -166.5
8.81760000 0.288900 -164.5 0.957356 -75.51 0.957356 -75.51 0.288899 -166.5
8.81780000 0.288899 -164.5 0.957356 -75.51 0.957356 -75.51 0.288898 -166.5
8.81800000 0.288897 -164.5 0.957356 -75.52 0.957356 -75.52 0.288896 -166.5
8.81820000 0.288896 -164.5 0.957357 -75.52 0.957357 -75.52 0.288895 -166.5
8.81840000 0.288894 -164.5 0.957357 -75.52 0.957357 -75.52 0.288893 -166.5
8.81860000 0.288893 -164.5 0.957358 -75.52 0.957358 -75.52 0.288892 -166.5
8.81880000 0.288892 -164.5 0.957358 -75.52 0.957358 -75.52 0.288891 -166.5
8.81900000 0.288890 -164.5 0.957359 -75.53 0.957359 -75.53 0.288889 -166.5
8.81920000 0.288889 -164.5 0.957359 -75.53 0.957359 -75.53 0.288888 -166.5
8.81940000 0.288887 -164.5 0.957359 -75.53 0.957359 -75.53 0.288886 -166.5
8.81960000 0.288886 -164.5 0.957360 -75.53 0.957360 -75.53 0.288885 -166.5
8.81980000 0.288884 -164.5 0.957360 -75.53 0.957360 -75.53 0.288883 -166.5
8.82000000 0.288883 -164.5 0.957361 -75.54 0.957361 -75.54 0.288882 -166.5
8.82020000 0.288881 -164.5 0.957361 -75.54 0.957361 -75.54 0.288880 -166.5
8.82040000 0.288879 -164.5 0.957362 -75.54 0.957362 -75.54 0.288878 -166.5
8.82060000 0.288878 -164.5 0.957362 -75.54 0.957362 -75.54 0.288877 -166.5
8.82080000 0.288876 -164.5 0.957363 -75.54 0.957363 -75.54 0.288875 -166.5
8.82100000 0.288875 -164.5 0.957363 -75.55 0.957363 -75.55 0.288874 -166.5
8.82120000 0.288873 -164.5 0.957364 -75.55 0.957364 -75.55 0.288872 -166.6
8.82140000 0.288871 -164.5 0.957364 -75.55 0.957364 -75.55 0.288870 -166.6
8.82160000 0.288870 -164.6 0.957365 -75.55 0.957365 -75.55 0.288869 -166.6
8.82180000 0.288868 -164.6 0.957365 -75.56 0.957365 -75.56 0.288867 -166.6
8.82200000 0.288866 -164.6 0.957366 -75.56 0.957366 -75.56 0.288865 -166.6
8.82220000 0.288864 -164.6 0.957366 -75.56 0.957366 -75.56 0.288863 -166.6
8.82240000 0.288863 -164.6 0.957367 -75.56 0.957367 -75.56 0.288862 -166.6
8.82260000 0.288861 -164.6 0.957367 -75.56 0.957367 -75.56 0.288860 -166.6
8.82280000 0.288859 -164.6 0.957368 -75.57 0.957368 -75.57 0.288858 -166.6
8.82300000 0.288857 -164.6 0.957368 -75.57 0.957368 -75.57 0.288856 -166.6
8.82320000 0.288855 -164.6 0.957369 -75.57 0.957369 -75.57 0.288854 -166.6
8.82340000 0.288854 -164.6 0.957370 -75.57 0.957370 -75.57 0.288852 -166.6
8.82360000 0.288852 -164.6 0.957370 -75.57 0.957370 -75.57 0.288851 -166.6
8.82380000 0.288850 -164.6 0.957371 -75.58 0.957371 -75.58 0.288849 -166.6
8.82400000 0.288848 -164.6 0.957371 -75.58 0.957371 -75.58 0.288847 -166.6
8.82420000 0.288846 -164.6 0.957372 -75.58 0.957372 -75.58 0.288845 -166.6
8.82440000 0.288844 -164.6 0.957372 -75.58 0.957372 -75.58 0.288843 -166.6
8.82460000 0.288842 -164.6 0.957373 -75.58 0.957373 -75.58 0.288841 -166.6
8.82480000 0.288840 -164.6 0.957374 -75.59 0.957374 -75.59 0.288839 -166.6
8.82500000 0.288838 -164.6 0.957374 -75.59 0.957374 -75.59 0.288837 -166.6
8.82520000 0.288836 -164.6 0.957375 -75.59 0.957375 -75.59 0.288835 -166.6
8.82540000 0.288834 -164.6 0.957375 -75.59 0.957375 -75.59 0.288833 -166.6
8.82560000 0.288832 -164.6 0.957376 -75.59 0.957376 -75.59 0.288831 -166.6
8.82580000 0.288830 -164.6 0.957377 -75.60 0.957377 -75.60 0.288829 -166.6
8.82600000 0.288828 -164.6 0.957377 -75.60 0.957377 -75.60 0.288826 -166.6
8.82620000 0.288825 -164.6 0.957378 -75.60 0.957378 -75.60 0.288824 -166.6
8.82640000 0.288823 -164.6 0.957379 -75.60 0.957379 -75.60 0.288822 -166.6
8.82660000 0.288821 -164.6 0.957379 -75.61 0.957379 -75.61 0.288820 -166.6
8.82680000 0.288819 -164.6 0.957380 -75.61 0.957380 -75.61 0.288818 -166.6
8.82700000 0.288817 -164.6 0.957381 -75.61 0.957381 -75.61 0.288815 -166.6
8.82720000 0.288814 -164.6 0.957381 -75.61 0.957381 -75.61 0.288813 -166.7
8.82740000 0.288812 -164.6 0.957382 -75.61 0.957382 -75.61 0.288811 -166.7
8.82760000 0.288810 -164.6 0.957383 -75.62 0.957383 -75.62 0.288809 -166.7
8.82780000 0.288808 -164.6 0.957383 -75.62 0.957383 -75.62 0.288806 -166.7
8.82800000 0.288805 -164.6 0.957384 -75.62 0.957384 -75.62 0.288804 -166.7
8.82820000 0.288803 -164.6 0.957385 -75.62 0.957385 -75.62 0.288801 -166.7
8.82840000 0.288800 -164.6 0.957386 -75.62 0.957386 -75.62 0.288799 -166.7
8.82860000 0.288798 -164.6 0.957386 -75.63 0.957386 -75.63 0.288797 -166.7
8.82880000 0.288796 -164.6 0.957387 -75.63 0.957387 -75.63 0.288794 -166.7
8.82900000 0.288793 -164.6 0.957388 -75.63 0.957388 -75.63 0.288792 -166.7
8.82920000 0.288791 -164.6 0.957388 -75.63 0.957388 -75.63 0.288789 -166.7
8.82940000 0.288788 -164.6 0.957389 -75.64 0.957389 -75.64 0.288787 -166.7
8.82960000 0.288786 -164.6 0.957390 -75.64 0.957390 -75.64 0.288784 -166.7
8.82980000 0.288783 -164.6 0.957391 -75.64 0.957391 -75.64 0.288782 -166.7
8.83000000 0.288780 -164.6 0.957392 -75.64 0.957392 -75.64 0.288779 -166.7
8.83020000 0.288778 -164.6 0.957392 -75.64 0.957392 -75.64 0.288776 -166.7
8.83040000 0.288775 -164.6 0.957393 -75.65 0.957393 -75.65 0.288774 -166.7
8.83060000 0.288772 -164.6 0.957394 -75.65 0.957394 -75.65 0.288771 -166.7
8.83080000 0.288770 -164.6 0.957395 -75.65 0.957395 -75.65 0.288768 -166.7
8.83100000 0.288767 -164.6 0.957396 -75.65 0.957396 -75.65 0.288766 -166.7
8.83120000 0.288764 -164.6 0.957396 -75.65 0.957396 -75.65 0.288763 -166.7
8.83140000 0.288762 -164.6 0.957397 -75.66 0.957397 -75.66 0.288760 -166.7
8.83160000 0.288759 -164.6 0.957398 -75.66 0.957398 -75.66 0.288757 -166.7
8.83180000 0.288756 -164.6 0.957399 -75.66 0.957399 -75.66 0.288754 -166.7
8.83200000 0.288753 -164.6 0.957400 -75.66 0.957400 -75.66 0.288752 -166.7
8.83220000 0.288750 -164.6 0.957401 -75.67 0.957401 -75.67 0.288749 -166.7
8.83240000 0.288747 -164.6 0.957401 -75.67 0.957401 -75.67 0.288746 -166.7
8.83260000 0.288744 -164.6 0.957402 -75.67 0.957402 -75.67 0.288743 -166.7
8.83280000 0.288741 -164.6 0.957403 -75.67 0.957403 -75.67 0.288740 -166.8
8.83300000 0.288738 -164.6 0.957404 -75.67 0.957404 -75.67 0.288737 -166.8
8.83320000 0.288735 -164.6 0.957405 -75.68 0.957405 -75.68 0.288734 -166.8
8.83340000 0.288732 -164.6 0.957406 -75.68 0.957406 -75.68 0.288731 -166.8
8.83360000 0.288729 -164.6 0.957407 -75.68 0.957407 -75.68 0.288728 -166.8
8.83380000 0.288726 -164.6 0.957408 -75.68 0.957408 -75.68 0.288725 -166.8
8.83400000 0.288723 -164.6 0.957409 -75.69 0.957409 -75.69 0.288721 -166.8
8.83420000 0.288720 -164.6 0.957410 -75.69 0.957410 -75.69 0.288718 -166.8
8.83440000 0.288717 -164.6 0.957411 -75.69 0.957411 -75.69 0.288715 -166.8
8.83460000 0.288713 -164.6 0.957412 -75.69 0.957412 -75.69 0.288712 -166.8
8.83480000 0.288710 -164.6 0.957413 -75.69 0.957413 -75.69 0.288709 -166.8
8.83500000 0.288707 -164.6 0.957414 -75.70 0.957414 -75.70 0.288705 -166.8
8.83520000 0.288704 -164.6 0.957415 -75.70 0.957415 -75.70 0.288702 -166.8
8.83540000 0.288700 -164.6 0.957416 -75.70 0.957416 -75.70 0.288699 -166.8
8.83560000 0.288697 -164.6 0.957417 -75.70 0.957417 -75.70 0.288695 -166.8
8.83580000 0.288693 -164.6 0.957418 -75.71 0.957418 -75.71 0.288692 -166.8
8.83600000 0.288690 -164.6 0.957419 -75.71 0.957419 -75.71 0.288688 -166.8
8.83620000 0.288686 -164.6 0.957420 -75.71 0.957420 -75.71 0.288685 -166.8
8.83640000 0.288683 -164.6 0.957421 -75.71 0.957421 -75.71 0.288681 -166.8
8.83660000 0.288679 -164.6 0.957422 -75.71 0.957422 -75.71 0.288678 -166.8
8.83680000 0.288676 -164.6 0.957423 -75.72 0.957423 -75.72 0.288674 -166.8
8.83700000 0.288672 -164.6 0.957424 -75.72 0.957424 -75.72 0.288671 -166.8
8.83720000 0.288669 -164.6 0.957425 -75.72 0.957425 -75.72 0.288667 -166.8
8.83740000 0.288665 -164.6 0.957426 -75.72 0.957426 -75.72 0.288663 -166.8
8.83760000 0.288661 -164.6 0.957427 -75.73 0.957427 -75.73 0.288660 -166.8
8.83780000 0.288657 -164.6 0.957428 -75.73 0.957428 -75.73 0.288656 -166.9
8.83800000 0.288654 -164.6 0.957430 -75.73 0.957430 -75.73 0.288652 -166.9
8.83820000 0.288650 -164.6 0.957431 -75.73 0.957431 -75.73 0.288648 -166.9
8.83840000 0.288646 -164.6 0.957432 -75.74 0.957432 -75.74 0.288644 -166.9
8.83860000 0.288642 -164.6 0.957433 -75.74 0.957433 -75.74 0.288640 -166.9
8.83880000 0.288638 -164.6 0.957434 -75.74 0.957434 -75.74 0.288636 -166.9
8.83900000 0.288634 -164.6 0.957435 -75.74 0.957435 -75.74 0.288633 -166.9
8.83920000 0.288630 -164.6 0.957437 -75.74 0.957437 -75.74 0.288629 -166.9
8.83940000 0.288626 -164.6 0.957438 -75.75 0.957438 -75.75 0.288624 -166.9
8.83960000 0.288622 -164.6 0.957439 -75.75 0.957439 -75.75 0.288620 -166.9
8.83980000 0.288618 -164.6 0.957440 -75.75 0.957440 -75.75 0.288616 -166.9
8.84000000 0.288614 -164.6 0.957441 -75.75 0.957441 -75.75 0.288612 -166.9
8.84020000 0.288610 -164.6 0.957443 -75.76 0.957443 -75.76 0.288608 -166.9
8.84040000 0.288606 -164.6 0.957444 -75.76 0.957444 -75.76 0.288604 -166.9
8.84060000 0.288601 -164.6 0.957445 -75.76 0.957445 -75.76 0.288599 -166.9
8.84080000 0.288597 -164.6 0.957447 -75.76 0.957447 -75.76 0.288595 -166.9
8.84100000 0.288593 -164.6 0.957448 -75.77 0.957448 -75.77 0.288591 -166.9
8.84120000 0.288588 -164.6 0.957449 -75.77 0.957449 -75.77 0.288586 -166.9
8.84140000 0.288584 -164.6 0.957450 -75.77 0.957450 -75.77 0.288582 -166.9
8.84160000 0.288579 -164.6 0.957452 -75.77 0.957452 -75.77 0.288578 -166.9
8.84180000 0.288575 -164.6 0.957453 -75.77 0.957453 -75.77 0.288573 -166.9
8.84200000 0.288570 -164.6 0.957455 -75.78 0.957455 -75.78 0.288568 -166.9
8.84220000 0.288566 -164.6 0.957456 -75.78 0.957456 -75.78 0.288564 -166.9
8.84240000 0.288561 -164.6 0.957457 -75.78 0.957457 -75.78 0.288559 -166.9
8.84260000 0.288557 -164.6 0.957459 -75.78 0.957459 -75.78 0.288555 -167.0
8.84280000 0.288552 -164.6 0.957460 -75.79 0.957460 -75.79 0.288550 -167.0
8.84300000 0.288547 -164.6 0.957462 -75.79 0.957462 -75.79 0.288545 -167.0
8.84320000 0.288542 -164.6 0.957463 -75.79 0.957463 -75.79 0.288540 -167.0
8.84340000 0.288537 -164.6 0.957464 -75.79 0.957464 -75.79 0.288535 -167.0
8.84360000 0.288533 -164.6 0.957466 -75.80 0.957466 -75.80 0.288530 -167.0
8.84380000 0.288528 -164.6 0.957467 -75.80 0.957467 -75.80 0.288526 -167.0
8.84400000 0.288523 -164.6 0.957469 -75.80 0.957469 -75.80 0.288521 -167.0
8.84420000 0.288518 -164.6 0.957470 -75.80 0.957470 -75.80 0.288516 -167.0
8.84440000 0.288513 -164.6 0.957472 -75.81 0.957472 -75.81 0.288510 -167.0
8.84460000 0.288507 -164.6 0.957473 -75.81 0.957473 -75.81 0.288505 -167.0
8.84480000 0.288502 -164.6 0.957475 -75.81 0.957475 -75.81 0.288500 -167.0
8.84500000 0.288497 -164.6 0.957477 -75.81 0.957477 -75.81 0.288495 -167.0
8.84520000 0.288492 -164.6 0.957478 -75.82 0.957478 -75.82 0.288490 -167.0
8.84540000 0.288487 -164.6 0.957480 -75.82 0.957480 -75.82 0.288484 -167.0
8.84560000 0.288481 -164.6 0.957481 -75.82 0.957481 -75.82 0.288479 -167.0
8.84580000 0.288476 -164.6 0.957483 -75.82 0.957483 -75.82 0.288474 -167.0
8.84600000 0.288470 -164.6 0.957485 -75.83 0.957485 -75.83 0.288468 -167.0
8.84620000 0.288465 -164.6 0.957486 -75.83 0.957486 -75.83 0.288463 -167.0
8.84640000 0.288459 -164.6 0.957488 -75.83 0.957488 -75.83 0.288457 -167.0
8.84660000 0.288454 -164.6 0.957490 -75.83 0.957490 -75.83 0.288451 -167.0
8.84680000 0.288448 -164.6 0.957491 -75.84 0.957491 -75.84 0.288446 -167.1
8.84700000 0.288442 -164.6 0.957493 -75.84 0.957493 -75.84 0.288440 -167.1
8.84720000 0.288437 -164.6 0.957495 -75.84 0.957495 -75.84 0.288434 -167.1
8.84740000 0.288431 -164.6 0.957496 -75.84 0.957496 -75.84 0.288428 -167.1
8.84760000 0.288425 -164.6 0.957498 -75.85 0.957498 -75.85 0.288422 -167.1
8.84780000 0.288419 -164.6 0.957500 -75.85 0.957500 -75.85 0.288417 -167.1
8.84800000 0.288413 -164.6 0.957502 -75.85 0.957502 -75.85 0.288411 -167.1
8.84820000 0.288407 -164.6 0.957504 -75.85 0.957504 -75.85 0.288404 -167.1
8.84840000 0.288401 -164.6 0.957505 -75.86 0.957505 -75.86 0.288398 -167.1
8.84860000 0.288395 -164.6 0.957507 -75.86 0.957507 -75.86 0.288392 -167.1
8.84880000 0.288388 -164.6 0.957509 -75.86 0.957509 -75.86 0.288386 -167.1
8.84900000 0.288382 -164.6 0.957511 -75.86 0.957511 -75.86 0.288380 -167.1
8.84920000 0.288376 -164.6 0.957513 -75.87 0.957513 -75.87 0.288373 -167.1
8.84940000 0.288369 -164.6 0.957515 -75.87 0.957515 -75.87 0.288367 -167.1
8.84960000 0.288363 -164.6 0.957517 -75.87 0.957517 -75.87 0.288360 -167.1
8.84980000 0.288357 -164.6 0.957519 -75.87 0.957519 -75.87 0.288354 -167.1
8.85000000 0.288350 -164.6 0.957521 -75.88 0.957521 -75.88 0.288347 -167.1
8.85020000 0.288343 -164.6 0.957523 -75.88 0.957523 -75.88 0.288341 -167.1
8.85040000 0.288337 -164.6 0.957525 -75.88 0.957525 -75.88 0.288334 -167.1
8.85060000 0.288330 -164.6 0.957527 -75.88 0.957527 -75.88 0.288327 -167.1
8.85080000 0.288323 -164.6 0.957529 -75.89 0.957529 -75.89 0.288320 -167.2
8.85100000 0.288316 -164.6 0.957531 -75.89 0.957531 -75.89 0.288314 -167.2
8.85120000 0.288309 -164.6 0.957533 -75.89 0.957533 -75.89 0.288307 -167.2
8.85140000 0.288302 -164.6 0.957535 -75.89 0.957535 -75.89 0.288300 -167.2
8.85160000 0.288295 -164.6 0.957537 -75.90 0.957537 -75.90 0.288292 -167.2
8.85180000 0.288288 -164.6 0.957539 -75.90 0.957539 -75.90 0.288285 -167.2
8.85200000 0.288281 -164.6 0.957541 -75.90 0.957541 -75.90 0.288278 -167.2
8.85220000 0.288274 -164.6 0.957544 -75.90 0.957544 -75.90 0.288271 -167.2
8.85240000 0.288266 -164.6 0.957546 -75.91 0.957546 -75.91 0.288263 -167.2
8.85260000 0.288259 -164.6 0.957548 -75.91 0.957548 -75.91 0.288256 -167.2
8.85280000 0.288251 -164.6 0.957550 -75.91 0.957550 -75.91 0.288248 -167.2
8.85300000 0.288244 -164.6 0.957552 -75.92 0.957552 -75.92 0.288241 -167.2
8.85320000 0.288236 -164.6 0.957555 -75.92 0.957555 -75.92 0.288233 -167.2
8.85340000 0.288228 -164.6 0.957557 -75.92 0.957557 -75.92 0.288225 -167.2
8.85360000 0.288221 -164.6 0.957559 -75.92 0.957559 -75.92 0.288218 -167.2
8.85380000 0.288213 -164.6 0.957562 -75.93 0.957562 -75.93 0.288210 -167.2
8.85400000 0.288205 -164.6 0.957564 -75.93 0.957564 -75.93 0.288202 -167.2
8.85420000 0.288197 -164.6 0.957567 -75.93 0.957567 -75.93 0.288194 -167.2
8.85440000 0.288189 -164.6 0.957569 -75.93 0.957569 -75.93 0.288186 -167.3
8.85460000 0.288181 -164.6 0.957571 -75.94 0.957571 -75.94 0.288177 -167.3
8.85480000 0.288172 -164.6 0.957574 -75.94 0.957574 -75.94 0.288169 -167.3
8.85500000 0.288164 -164.6 0.957576 -75.94 0.957576 -75.94 0.288161 -167.3
8.85520000 0.288156 -164.6 0.957579 -75.95 0.957579 -75.95 0.288152 -167.3
8.85540000 0.288147 -164.6 0.957581 -75.95 0.957581 -75.95 0.288144 -167.3
8.85560000 0.288138 -164.6 0.957584 -75.95 0.957584 -75.95 0.288135 -167.3
8.85580000 0.288130 -164.6 0.957587 -75.95 0.957587 -75.95 0.288127 -167.3
8.85600000 0.288121 -164.6 0.957589 -75.96 0.957589 -75.96 0.288118 -167.3
8.85620000 0.288112 -164.6 0.957592 -75.96 0.957592 -75.96 0.288109 -167.3
8.85640000 0.288103 -164.6 0.957595 -75.96 0.957595 -75.96 0.288100 -167.3
8.85660000 0.288094 -164.6 0.957597 -75.97 0.957597 -75.97 0.288091 -167.3
8.85680000 0.288085 -164.6 0.957600 -75.97 0.957600 -75.97 0.288082 -167.3
8.85700000 0.288076 -164.6 0.957603 -75.97 0.957603 -75.97 0.288073 -167.3
8.85720000 0.288067 -164.6 0.957605 -75.97 0.957605 -75.97 0.288063 -167.3
8.85740000 0.288057 -164.6 0.957608 -75.98 0.957608 -75.98 0.288054 -167.3
8.85760000 0.288048 -164.6 0.957611 -75.98 0.957611 -75.98 0.288044 -167.4
8.85780000 0.288038 -164.6 0.957614 -75.98 0.957614 -75.98 0.288035 -167.4
8.85800000 0.288029 -164.6 0.957617 -75.99 0.957617 -75.99 0.288025 -167.4
8.85820000 0.288019 -164.6 0.957620 -75.99 0.957620 -75.99 0.288015 -167.4
8.85840000 0.288009 -164.6 0.957623 -75.99 0.957623 -75.99 0.288005 -167.4
8.85860000 0.287999 -164.6 0.957626 -75.99 0.957626 -75.99 0.287995 -167.4
8.85880000 0.287989 -164.6 0.957629 -76.00 0.957629 -76.00 0.287985 -167.4
8.85900000 0.287979 -164.6 0.957632 -76.00 0.957632 -76.00 0.287975 -167.4
8.85920000 0.287969 -164.6 0.957635 -76.00 0.957635 -76.00 0.287965 -167.4
8.85940000 0.287958 -164.6 0.957638 -76.01 0.957638 -76.01 0.287955 -167.4
8.85960000 0.287948 -164.6 0.957641 -76.01 0.957641 -76.01 0.287944 -167.4
8.85980000 0.287937 -164.6 0.957644 -76.01 0.957644 -76.01 0.287933 -167.4
8.86000000 0.287927 -164.6 0.957647 -76.01 0.957647 -76.01 0.287923 -167.4
8.86020000 0.287916 -164.6 0.957651 -76.02 0.957651 -76.02 0.287912 -167.4
8.86040000 0.287905 -164.6 0.957654 -76.02 0.957654 -76.02 0.287901 -167.4
8.86060000 0.287894 -164.6 0.957657 -76.02 0.957657 -76.02 0.287890 -167.5
8.86080000 0.287883 -164.6 0.957661 -76.03 0.957661 -76.03 0.287879 -167.5
8.86100000 0.287872 -164.6 0.957664 -76.03 0.957664 -76.03 0.287867 -167.5
8.86120000 0.287860 -164.6 0.957667 -76.03 0.957667 -76.03 0.287856 -167.5
8.86140000 0.287849 -164.6 0.957671 -76.04 0.957671 -76.04 0.287845 -167.5
8.86160000 0.287837 -164.6 0.957674 -76.04 0.957674 -76.04 0.287833 -167.5
8.86180000 0.287825 -164.6 0.957678 -76.04 0.957678 -76.04 0.287821 -167.5
8.86200000 0.287814 -164.6 0.957681 -76.05 0.957681 -76.05 0.287809 -167.5
8.86220000 0.287802 -164.6 0.957685 -76.05 0.957685 -76.05 0.287797 -167.5
8.86240000 0.287789 -164.6 0.957688 -76.05 0.957688 -76.05 0.287785 -167.5
8.86260000 0.287777 -164.6 0.957692 -76.06 0.957692 -76.06 0.287773 -167.5
8.86280000 0.287765 -164.6 0.957696 -76.06 0.957696 -76.06 0.287760 -167.5
8.86300000 0.287752 -164.6 0.957699 -76.06 0.957699 -76.06 0.287748 -167.5
8.86320000 0.287740 -164.6 0.957703 -76.06 0.957703 -76.06 0.287735 -167.6
8.86340000 0.287727 -164.6 0.957707 -76.07 0.957707 -76.07 0.287722 -167.6
8.86360000 0.287714 -164.6 0.957711 -76.07 0.957711 -76.07 0.287710 -167.6
8.86380000 0.287701 -164.6 0.957715 -76.07 0.957715 -76.07 0.287696 -167.6
8.86400000 0.287688 -164.6 0.957719 -76.08 0.957719 -76.08 0.287683 -167.6
8.86420000 0.287675 -164.6 0.957723 -76.08 0.957723 -76.08 0.287670 -167.6
8.86440000 0.287661 -164.6 0.957727 -76.08 0.957727 -76.08 0.287656 -167.6
8.86460000 0.287647 -164.6 0.957731 -76.09 0.957731 -76.09 0.287643 -167.6
8.86480000 0.287634 -164.6 0.957735 -76.09 0.957735 -76.09 0.287629 -167.6
8.86500000 0.287620 -164.6 0.957739 -76.09 0.957739 -76.09 0.287615 -167.6
8.86520000 0.287606 -164.6 0.957743 -76.10 0.957743 -76.10 0.287601 -167.6
8.86540000 0.287592 -164.6 0.957748 -76.10 0.957748 -76.10 0.287586 -167.6
8.86560000 0.287577 -164.6 0.957752 -76.10 0.957752 -76.10 0.287572 -167.6
8.86580000 0.287563 -164.6 0.957756 -76.11 0.957756 -76.11 0.287557 -167.7
8.86600000 0.287548 -164.6 0.957761 -76.11 0.957761 -76.11 0.287543 -167.7
8.86620000 0.287533 -164.6 0.957765 -76.12 0.957765 -76.12 0.287528 -167.7
8.86640000 0.287518 -164.6 0.957770 -76.12 0.957770 -76.12 0.287513 -167.7
8.86660000 0.287503 -164.6 0.957774 -76.12 0.957774 -76.12 0.287497 -167.7
8.86680000 0.287487 -164.6 0.957779 -76.13 0.957779 -76.13 0.287482 -167.7
8.86700000 0.287472 -164.5 0.957783 -76.13 0.957783 -76.13 0.287466 -167.7
8.86720000 0.287456 -164.5 0.957788 -76.13 0.957788 -76.13 0.287451 -167.7
8.86740000 0.287440 -164.5 0.957793 -76.14 0.957793 -76.14 0.287435 -167.7
8.86760000 0.287424 -164.5 0.957798 -76.14 0.957798 -76.14 0.287418 -167.7
8.86780000 0.287408 -164.5 0.957802 -76.14 0.957802 -76.14 0.287402 -167.7
8.86800000 0.287391 -164.5 0.957807 -76.15 0.957807 -76.15 0.287386 -167.8
8.86820000 0.287375 -164.5 0.957812 -76.15 0.957812 -76.15 0.287369 -167.8
8.86840000 0.287358 -164.5 0.957817 -76.15 0.957817 -76.15 0.287352 -167.8
8.86860000 0.287341 -164.5 0.957822 -76.16 0.957822 -76.16 0.287335 -167.8
8.86880000 0.287323 -164.5 0.957828 -76.16 0.957828 -76.16 0.287317 -167.8
8.86900000 0.287306 -164.5 0.957833 -76.17 0.957833 -76.17 0.287300 -167.8
8.86920000 0.287288 -164.5 0.957838 -76.17 0.957838 -76.17 0.287282 -167.8
8.86940000 0.287270 -164.5 0.957843 -76.17 0.957843 -76.17 0.287264 -167.8
8.86960000 0.287252 -164.5 0.957849 -76.18 0.957849 -76.18 0.287246 -167.8
8.86980000 0.287234 -164.5 0.957854 -76.18 0.957854 -76.18 0.287228 -167.8
8.87000000 0.287215 -164.5 0.957860 -76.18 0.957860 -76.18 0.287209 -167.9
8.87020000 0.287197 -164.5 0.957865 -76.19 0.957865 -76.19 0.287190 -167.9
8.87040000 0.287178 -164.5 0.957871 -76.19 0.957871 -76.19 0.287171 -167.9
8.87060000 0.287158 -164.5 0.957877 -76.20 0.957877 -76.20 0.287152 -167.9
8.87080000 0.287139 -164.5 0.957883 -76.20 0.957883 -76.20 0.287132 -167.9
8.87100000 0.287119 -164.5 0.957888 -76.20 0.957888 -76.20 0.287113 -167.9
8.87120000 0.287099 -164.5 0.957894 -76.21 0.957894 -76.21 0.287093 -167.9
8.87140000 0.287079 -164.5 0.957900 -76.21 0.957900 -76.21 0.287072 -167.9
8.87160000 0.287059 -164.5 0.957906 -76.22 0.957906 -76.22 0.287052 -167.9
8.87180000 0.287038 -164.5 0.957913 -76.22 0.957913 -76.22 0.287031 -168.0
8.87200000 0.287017 -164.5 0.957919 -76.22 0.957919 -76.22 0.287010 -168.0
8.87220000 0.286996 -164.5 0.957925 -76.23 0.957925 -76.23 0.286989 -168.0
8.87240000 0.286974 -164.5 0.957932 -76.23 0.957932 -76.23 0.286967 -168.0
8.87260000 0.286953 -164.5 0.957938 -76.24 0.957938 -76.24 0.286945 -168.0
8.87280000 0.286931 -164.5 0.957945 -76.24 0.957945 -76.24 0.286923 -168.0
8.87300000 0.286908 -164.5 0.957951 -76.25 0.957951 -76.25 0.286901 -168.0
8.87320000 0.286886 -164.5 0.957958 -76.25 0.957958 -76.25 0.286878 -168.0
8.87340000 0.286863 -164.5 0.957965 -76.25 0.957965 -76.25 0.286855 -168.0
8.87360000 0.286839 -164.5 0.957972 -76.26 0.957972 -76.26 0.286831 -168.1
8.87380000 0.286816 -164.5 0.957979 -76.26 0.957979 -76.26 0.286808 -168.1
8.87400000 0.286792 -164.5 0.957986 -76.27 0.957986 -76.27 0.286784 -168.1
8.87420000 0.286768 -164.5 0.957993 -76.27 0.957993 -76.27 0.286760 -168.1
8.87440000 0.286743 -164.4 0.958000 -76.28 0.958000 -76.28 0.286735 -168.1
8.87460000 0.286719 -164.4 0.958008 -76.28 0.958008 -76.28 0.286710 -168.1
8.87480000 0.286693 -164.4 0.958015 -76.29 0.958015 -76.29 0.286685 -168.1
8.87500000 0.286668 -164.4 0.958023 -76.29 0.958023 -76.29 0.286659 -168.1
8.87520000 0.286642 -164.4 0.958030 -76.30 0.958030 -76.30 0.286633 -168.2
8.87540000 0.286616 -164.4 0.958038 -76.30 0.958038 -76.30 0.286607 -168.2
8.87560000 0.286589 -164.4 0.958046 -76.30 0.958046 -76.30 0.286580 -168.2
8.87580000 0.286563 -164.4 0.958054 -76.31 0.958054 -76.31 0.286553 -168.2
8.87600000 0.286535 -164.4 0.958062 -76.31 0.958062 -76.31 0.286526 -168.2
8.87620000 0.286508 -164.4 0.958070 -76.32 0.958070 -76.32 0.286498 -168.2
8.87640000 0.286480 -164.4 0.958079 -76.32 0.958079 -76.32 0.286470 -168.2
8.87660000 0.286451 -164.4 0.958087 -76.33 0.958087 -76.33 0.286442 -168.3
8.87670048 0.286437 -164.4 0.958091 -76.33 0.958091 -76.33 0.286427 -168.3
8.87680000 0.286422 -164.4 0.958096 -76.33 0.958096 -76.33 0.286413 -168.3
8.87700000 0.286393 -164.4 0.958104 -76.34 0.958104 -76.34 0.286383 -168.3
8.87720000 0.286363 -164.4 0.958113 -76.34 0.958113 -76.34 0.286353 -168.3
8.87738491 0.286336 -164.4 0.958121 -76.35 0.958121 -76.35 0.286325 -168.3
8.87740000 0.286333 -164.4 0.958122 -76.35 0.958122 -76.35 0.286323 -168.3
8.87760000 0.286303 -164.4 0.958131 -76.35 0.958131 -76.35 0.286292 -168.3
8.87780000 0.286272 -164.4 0.958140 -76.36 0.958140 -76.36 0.286261 -168.3
8.87800000 0.286240 -164.4 0.958150 -76.36 0.958150 -76.36 0.286230 -168.4