! Sonnet Data File
! From: emgraph Version : 16.52
! From Emgraph Data: Resonator2
! Data File Written: 10/04/2017 19:40:02
!< HDATE 10/04/2017 18:31:41
!< MDATE 10/04/2017 18:32:09
!< PARAMS
!< gap = 6.0
!< Length = 400.0
!< END PARAMS
# GHZ S MA R 34.95000
6.00000000 0.026680 55.070 0.999643 -28.81 0.999643 -28.81 0.026680 67.306
!< P1 F=6.0 Eeff=(6.35492107 -2.8385e-5) Z0=(34.8782112 7.75473e-5) R=0.0 C=0.0 
!< P2 F=6.0 Eeff=(6.35492107 -2.8385e-5) Z0=(34.8782112 7.75473e-5) R=0.0 C=0.0 
6.00500000 0.026708 55.042 0.999644 -28.84 0.999644 -28.84 0.026710 67.289
6.01000000 0.026737 55.014 0.999646 -28.86 0.999646 -28.86 0.026739 67.273
6.01500000 0.026766 54.987 0.999647 -28.89 0.999647 -28.89 0.026769 67.256
6.02000000 0.026795 54.959 0.999648 -28.91 0.999648 -28.91 0.026799 67.239
6.02500000 0.026824 54.931 0.999650 -28.94 0.999650 -28.94 0.026828 67.222
6.03000000 0.026853 54.904 0.999651 -28.96 0.999651 -28.96 0.026858 67.205
6.03500000 0.026882 54.876 0.999653 -28.98 0.999653 -28.98 0.026888 67.189
6.04000000 0.026911 54.848 0.999654 -29.01 0.999654 -29.01 0.026917 67.172
6.04500000 0.026940 54.820 0.999655 -29.03 0.999655 -29.03 0.026947 67.155
6.05000000 0.026968 54.792 0.999656 -29.06 0.999656 -29.06 0.026977 67.138
6.05500000 0.026997 54.765 0.999658 -29.08 0.999658 -29.08 0.027006 67.120
6.06000000 0.027026 54.737 0.999659 -29.11 0.999659 -29.11 0.027036 67.103
6.06500000 0.027055 54.709 0.999660 -29.13 0.999660 -29.13 0.027065 67.086
6.07000000 0.027084 54.681 0.999661 -29.15 0.999661 -29.15 0.027095 67.069
6.07500000 0.027113 54.653 0.999662 -29.18 0.999662 -29.18 0.027125 67.051
6.08000000 0.027141 54.625 0.999663 -29.20 0.999663 -29.20 0.027154 67.034
6.08500000 0.027170 54.596 0.999665 -29.23 0.999665 -29.23 0.027184 67.017
6.09000000 0.027199 54.568 0.999666 -29.25 0.999666 -29.25 0.027213 66.999
6.09500000 0.027228 54.540 0.999667 -29.28 0.999667 -29.28 0.027243 66.982
6.10000000 0.027257 54.512 0.999668 -29.30 0.999668 -29.30 0.027272 66.964
6.10500000 0.027285 54.484 0.999669 -29.32 0.999669 -29.32 0.027302 66.947
6.11000000 0.027314 54.455 0.999670 -29.35 0.999670 -29.35 0.027331 66.929
6.11500000 0.027343 54.427 0.999670 -29.37 0.999670 -29.37 0.027360 66.911
6.12000000 0.027372 54.399 0.999671 -29.40 0.999671 -29.40 0.027390 66.894
6.12500000 0.027400 54.370 0.999672 -29.42 0.999672 -29.42 0.027419 66.876
6.13000000 0.027429 54.342 0.999673 -29.45 0.999673 -29.45 0.027449 66.858
6.13500000 0.027458 54.313 0.999674 -29.47 0.999674 -29.47 0.027478 66.840
6.14000000 0.027487 54.285 0.999675 -29.49 0.999675 -29.49 0.027507 66.822
6.14500000 0.027515 54.257 0.999676 -29.52 0.999676 -29.52 0.027537 66.804
6.15000000 0.027544 54.228 0.999676 -29.54 0.999676 -29.54 0.027566 66.786
6.15500000 0.027573 54.199 0.999677 -29.57 0.999677 -29.57 0.027595 66.768
6.16000000 0.027602 54.171 0.999678 -29.59 0.999678 -29.59 0.027625 66.750
6.16500000 0.027630 54.142 0.999678 -29.62 0.999678 -29.62 0.027654 66.732
6.17000000 0.027659 54.114 0.999679 -29.64 0.999679 -29.64 0.027683 66.714
6.17500000 0.027688 54.085 0.999680 -29.66 0.999680 -29.66 0.027713 66.696
6.18000000 0.027717 54.056 0.999680 -29.69 0.999680 -29.69 0.027742 66.678
6.18500000 0.027745 54.028 0.999681 -29.71 0.999681 -29.71 0.027771 66.659
6.19000000 0.027774 53.999 0.999682 -29.74 0.999682 -29.74 0.027801 66.641
6.19500000 0.027803 53.970 0.999682 -29.76 0.999682 -29.76 0.027830 66.623
6.20000000 0.027831 53.941 0.999683 -29.79 0.999683 -29.79 0.027859 66.604
6.20500000 0.027860 53.912 0.999683 -29.81 0.999683 -29.81 0.027888 66.586
6.21000000 0.027889 53.884 0.999684 -29.83 0.999684 -29.83 0.027917 66.568
6.21500000 0.027918 53.855 0.999684 -29.86 0.999684 -29.86 0.027947 66.549
6.22000000 0.027946 53.826 0.999685 -29.88 0.999685 -29.88 0.027976 66.531
6.22500000 0.027975 53.797 0.999685 -29.91 0.999685 -29.91 0.028005 66.512
6.23000000 0.028004 53.768 0.999686 -29.93 0.999686 -29.93 0.028034 66.494
6.23500000 0.028032 53.739 0.999686 -29.96 0.999686 -29.96 0.028063 66.475
6.24000000 0.028061 53.710 0.999686 -29.98 0.999686 -29.98 0.028093 66.457
6.24500000 0.028090 53.681 0.999687 -30.00 0.999687 -30.00 0.028122 66.438
6.25000000 0.028118 53.652 0.999687 -30.03 0.999687 -30.03 0.028151 66.419
6.25500000 0.028147 53.623 0.999687 -30.05 0.999687 -30.05 0.028180 66.401
6.26000000 0.028176 53.594 0.999688 -30.08 0.999688 -30.08 0.028209 66.382
6.26500000 0.028204 53.565 0.999688 -30.10 0.999688 -30.10 0.028238 66.363
6.27000000 0.028233 53.535 0.999688 -30.13 0.999688 -30.13 0.028267 66.344
6.27500000 0.028262 53.506 0.999688 -30.15 0.999688 -30.15 0.028296 66.326
6.28000000 0.028290 53.477 0.999689 -30.18 0.999689 -30.18 0.028325 66.307
6.28500000 0.028319 53.448 0.999689 -30.20 0.999689 -30.20 0.028354 66.288
6.29000000 0.028348 53.419 0.999689 -30.22 0.999689 -30.22 0.028384 66.269
6.29500000 0.028376 53.389 0.999689 -30.25 0.999689 -30.25 0.028413 66.250
6.30000000 0.028405 53.360 0.999689 -30.27 0.999689 -30.27 0.028442 66.231
6.30500000 0.028434 53.331 0.999689 -30.30 0.999689 -30.30 0.028471 66.212
6.31000000 0.028462 53.302 0.999689 -30.32 0.999689 -30.32 0.028500 66.193
6.31500000 0.028491 53.272 0.999690 -30.35 0.999690 -30.35 0.028529 66.174
6.32000000 0.028520 53.243 0.999690 -30.37 0.999690 -30.37 0.028558 66.155
6.32500000 0.028548 53.214 0.999690 -30.39 0.999690 -30.39 0.028587 66.136
6.33000000 0.028577 53.184 0.999690 -30.42 0.999690 -30.42 0.028616 66.117
6.33500000 0.028606 53.155 0.999690 -30.44 0.999690 -30.44 0.028645 66.098
6.34000000 0.028634 53.125 0.999690 -30.47 0.999690 -30.47 0.028674 66.079
6.34500000 0.028663 53.096 0.999690 -30.49 0.999690 -30.49 0.028703 66.060
6.35000000 0.028692 53.066 0.999690 -30.52 0.999690 -30.52 0.028732 66.041
6.35500000 0.028720 53.037 0.999690 -30.54 0.999690 -30.54 0.028761 66.022
6.36000000 0.028749 53.007 0.999690 -30.56 0.999690 -30.56 0.028790 66.002
6.36500000 0.028778 52.978 0.999689 -30.59 0.999689 -30.59 0.028819 65.983
6.37000000 0.028806 52.948 0.999689 -30.61 0.999689 -30.61 0.028848 65.964
6.37500000 0.028835 52.919 0.999689 -30.64 0.999689 -30.64 0.028877 65.945
6.38000000 0.028864 52.889 0.999689 -30.66 0.999689 -30.66 0.028905 65.926
6.38500000 0.028892 52.860 0.999689 -30.69 0.999689 -30.69 0.028934 65.906
6.39000000 0.028921 52.830 0.999689 -30.71 0.999689 -30.71 0.028963 65.887
6.39500000 0.028950 52.801 0.999689 -30.73 0.999689 -30.73 0.028992 65.868
6.40000000 0.028978 52.771 0.999688 -30.76 0.999688 -30.76 0.029021 65.848
6.40500000 0.029007 52.741 0.999688 -30.78 0.999688 -30.78 0.029050 65.829
6.41000000 0.029036 52.712 0.999688 -30.81 0.999688 -30.81 0.029079 65.810
6.41500000 0.029064 52.682 0.999688 -30.83 0.999688 -30.83 0.029108 65.790
6.42000000 0.029093 52.652 0.999687 -30.86 0.999687 -30.86 0.029137 65.771
6.42500000 0.029122 52.622 0.999687 -30.88 0.999687 -30.88 0.029166 65.752
6.43000000 0.029150 52.593 0.999687 -30.91 0.999687 -30.91 0.029195 65.732
6.43500000 0.029179 52.563 0.999687 -30.93 0.999687 -30.93 0.029224 65.713
6.44000000 0.029208 52.533 0.999686 -30.95 0.999686 -30.95 0.029252 65.693
6.44500000 0.029237 52.503 0.999686 -30.98 0.999686 -30.98 0.029281 65.674
6.45000000 0.029265 52.474 0.999686 -31.00 0.999686 -31.00 0.029310 65.655
6.45500000 0.029294 52.444 0.999685 -31.03 0.999685 -31.03 0.029339 65.635
6.46000000 0.029323 52.414 0.999685 -31.05 0.999685 -31.05 0.029368 65.616
6.46500000 0.029351 52.384 0.999684 -31.08 0.999684 -31.08 0.029397 65.596
6.47000000 0.029380 52.354 0.999684 -31.10 0.999684 -31.10 0.029426 65.577
6.47500000 0.029409 52.325 0.999684 -31.12 0.999684 -31.12 0.029455 65.557
6.48000000 0.029438 52.295 0.999683 -31.15 0.999683 -31.15 0.029483 65.538
6.48500000 0.029466 52.265 0.999683 -31.17 0.999683 -31.17 0.029512 65.518
6.49000000 0.029495 52.235 0.999682 -31.20 0.999682 -31.20 0.029541 65.499
6.49500000 0.029524 52.205 0.999682 -31.22 0.999682 -31.22 0.029570 65.479
6.50000000 0.029552 52.175 0.999681 -31.25 0.999681 -31.25 0.029599 65.460
6.50500000 0.029581 52.145 0.999681 -31.27 0.999681 -31.27 0.029628 65.440
6.51000000 0.029610 52.115 0.999680 -31.29 0.999680 -31.29 0.029657 65.420
6.51500000 0.029639 52.085 0.999680 -31.32 0.999680 -31.32 0.029686 65.401
6.52000000 0.029667 52.055 0.999679 -31.34 0.999679 -31.34 0.029714 65.381
6.52500000 0.029696 52.025 0.999678 -31.37 0.999678 -31.37 0.029743 65.362
6.53000000 0.029725 51.995 0.999678 -31.39 0.999678 -31.39 0.029772 65.342
6.53500000 0.029754 51.965 0.999677 -31.42 0.999677 -31.42 0.029801 65.322
6.54000000 0.029783 51.935 0.999677 -31.44 0.999677 -31.44 0.029830 65.303
6.54500000 0.029811 51.905 0.999676 -31.47 0.999676 -31.47 0.029859 65.283
6.55000000 0.029840 51.875 0.999675 -31.49 0.999675 -31.49 0.029888 65.264
6.55500000 0.029869 51.845 0.999675 -31.51 0.999675 -31.51 0.029916 65.244
6.56000000 0.029898 51.815 0.999674 -31.54 0.999674 -31.54 0.029945 65.224
6.56500000 0.029927 51.785 0.999674 -31.56 0.999674 -31.56 0.029974 65.205
6.57000000 0.029955 51.755 0.999673 -31.59 0.999673 -31.59 0.030003 65.185
6.57500000 0.029984 51.725 0.999672 -31.61 0.999672 -31.61 0.030032 65.166
6.58000000 0.030013 51.695 0.999671 -31.64 0.999671 -31.64 0.030061 65.146
6.58500000 0.030042 51.665 0.999671 -31.66 0.999671 -31.66 0.030090 65.126
6.59000000 0.030071 51.634 0.999670 -31.68 0.999670 -31.68 0.030119 65.107
6.59500000 0.030099 51.604 0.999669 -31.71 0.999669 -31.71 0.030147 65.087
6.60000000 0.030128 51.574 0.999669 -31.73 0.999669 -31.73 0.030176 65.067
6.60500000 0.030157 51.544 0.999668 -31.76 0.999668 -31.76 0.030205 65.048
6.61000000 0.030186 51.514 0.999667 -31.78 0.999667 -31.78 0.030234 65.028
6.61500000 0.030215 51.484 0.999666 -31.81 0.999666 -31.81 0.030263 65.008
6.62000000 0.030244 51.454 0.999665 -31.83 0.999665 -31.83 0.030292 64.989
6.62500000 0.030273 51.423 0.999665 -31.85 0.999665 -31.85 0.030321 64.969
6.63000000 0.030302 51.393 0.999664 -31.88 0.999664 -31.88 0.030350 64.949
6.63500000 0.030331 51.363 0.999663 -31.90 0.999663 -31.90 0.030379 64.930
6.64000000 0.030359 51.333 0.999662 -31.93 0.999662 -31.93 0.030407 64.910
6.64500000 0.030388 51.302 0.999661 -31.95 0.999661 -31.95 0.030436 64.890
6.65000000 0.030417 51.272 0.999661 -31.98 0.999661 -31.98 0.030465 64.871
6.65500000 0.030446 51.242 0.999660 -32.00 0.999660 -32.00 0.030494 64.851
6.66000000 0.030475 51.212 0.999659 -32.03 0.999659 -32.03 0.030523 64.831
6.66500000 0.030504 51.181 0.999658 -32.05 0.999658 -32.05 0.030552 64.812
6.67000000 0.030533 51.151 0.999657 -32.07 0.999657 -32.07 0.030581 64.792
6.67500000 0.030562 51.121 0.999656 -32.10 0.999656 -32.10 0.030610 64.772
6.68000000 0.030591 51.091 0.999655 -32.12 0.999655 -32.12 0.030639 64.753
6.68500000 0.030620 51.060 0.999654 -32.15 0.999654 -32.15 0.030668 64.733
6.69000000 0.030649 51.030 0.999653 -32.17 0.999653 -32.17 0.030697 64.713
6.69500000 0.030678 51.000 0.999652 -32.20 0.999652 -32.20 0.030726 64.694
6.70000000 0.030707 50.969 0.999651 -32.22 0.999651 -32.22 0.030755 64.674
6.70500000 0.030736 50.939 0.999650 -32.24 0.999650 -32.24 0.030784 64.654
6.71000000 0.030765 50.909 0.999650 -32.27 0.999650 -32.27 0.030813 64.635
6.71500000 0.030794 50.878 0.999649 -32.29 0.999649 -32.29 0.030842 64.615
6.72000000 0.030823 50.848 0.999648 -32.32 0.999648 -32.32 0.030871 64.596
6.72500000 0.030853 50.818 0.999647 -32.34 0.999647 -32.34 0.030900 64.576
6.73000000 0.030882 50.787 0.999646 -32.37 0.999646 -32.37 0.030929 64.556
6.73500000 0.030911 50.757 0.999645 -32.39 0.999645 -32.39 0.030958 64.537
6.74000000 0.030940 50.726 0.999644 -32.42 0.999644 -32.42 0.030987 64.517
6.74500000 0.030969 50.696 0.999642 -32.44 0.999642 -32.44 0.031016 64.497
6.75000000 0.030998 50.666 0.999641 -32.46 0.999641 -32.46 0.031045 64.478
6.75500000 0.031027 50.635 0.999640 -32.49 0.999640 -32.49 0.031074 64.458
6.76000000 0.031057 50.605 0.999639 -32.51 0.999639 -32.51 0.031103 64.439
6.76500000 0.031086 50.574 0.999638 -32.54 0.999638 -32.54 0.031132 64.419
6.77000000 0.031115 50.544 0.999637 -32.56 0.999637 -32.56 0.031161 64.399
6.77500000 0.031144 50.513 0.999636 -32.59 0.999636 -32.59 0.031190 64.380
6.78000000 0.031173 50.483 0.999635 -32.61 0.999635 -32.61 0.031219 64.360
6.78500000 0.031203 50.453 0.999634 -32.64 0.999634 -32.64 0.031248 64.341
6.79000000 0.031232 50.422 0.999633 -32.66 0.999633 -32.66 0.031278 64.321
6.79500000 0.031261 50.392 0.999632 -32.68 0.999632 -32.68 0.031307 64.301
6.80000000 0.031290 50.361 0.999631 -32.71 0.999631 -32.71 0.031336 64.282
6.80500000 0.031320 50.331 0.999629 -32.73 0.999629 -32.73 0.031365 64.262
6.81000000 0.031349 50.300 0.999628 -32.76 0.999628 -32.76 0.031394 64.243
6.81500000 0.031378 50.270 0.999627 -32.78 0.999627 -32.78 0.031423 64.223
6.82000000 0.031408 50.239 0.999626 -32.81 0.999626 -32.81 0.031452 64.204
6.82500000 0.031437 50.209 0.999625 -32.83 0.999625 -32.83 0.031482 64.184
6.83000000 0.031466 50.178 0.999624 -32.85 0.999624 -32.85 0.031511 64.165
6.83500000 0.031496 50.148 0.999623 -32.88 0.999623 -32.88 0.031540 64.145
6.84000000 0.031525 50.117 0.999621 -32.90 0.999621 -32.90 0.031569 64.126
6.84500000 0.031554 50.087 0.999620 -32.93 0.999620 -32.93 0.031599 64.106
6.85000000 0.031584 50.056 0.999619 -32.95 0.999619 -32.95 0.031628 64.087
6.85500000 0.031613 50.026 0.999618 -32.98 0.999618 -32.98 0.031657 64.067
6.86000000 0.031643 49.995 0.999617 -33.00 0.999617 -33.00 0.031686 64.048
6.86500000 0.031672 49.964 0.999615 -33.03 0.999615 -33.03 0.031716 64.028
6.87000000 0.031702 49.934 0.999614 -33.05 0.999614 -33.05 0.031745 64.009
6.87500000 0.031731 49.903 0.999613 -33.07 0.999613 -33.07 0.031774 63.989
6.88000000 0.031761 49.873 0.999612 -33.10 0.999612 -33.10 0.031804 63.970
6.88500000 0.031790 49.842 0.999611 -33.12 0.999611 -33.12 0.031833 63.950
6.89000000 0.031820 49.811 0.999609 -33.15 0.999609 -33.15 0.031862 63.931
6.89500000 0.031849 49.781 0.999608 -33.17 0.999608 -33.17 0.031892 63.912
6.90000000 0.031879 49.750 0.999607 -33.20 0.999607 -33.20 0.031921 63.892
6.90500000 0.031909 49.720 0.999605 -33.22 0.999605 -33.22 0.031951 63.873
6.91000000 0.031938 49.689 0.999604 -33.25 0.999604 -33.25 0.031980 63.853
6.91500000 0.031968 49.658 0.999603 -33.27 0.999603 -33.27 0.032009 63.834
6.92000000 0.031998 49.628 0.999602 -33.29 0.999602 -33.29 0.032039 63.815
6.92500000 0.032027 49.597 0.999600 -33.32 0.999600 -33.32 0.032068 63.795
6.93000000 0.032057 49.567 0.999599 -33.34 0.999599 -33.34 0.032098 63.776
6.93500000 0.032087 49.536 0.999598 -33.37 0.999598 -33.37 0.032127 63.757
6.94000000 0.032116 49.505 0.999596 -33.39 0.999596 -33.39 0.032157 63.737
6.94500000 0.032146 49.475 0.999595 -33.42 0.999595 -33.42 0.032186 63.718
6.95000000 0.032176 49.444 0.999594 -33.44 0.999594 -33.44 0.032216 63.699
6.95500000 0.032206 49.413 0.999593 -33.47 0.999593 -33.47 0.032246 63.679
6.96000000 0.032235 49.383 0.999591 -33.49 0.999591 -33.49 0.032275 63.660
6.96500000 0.032265 49.352 0.999590 -33.51 0.999590 -33.51 0.032305 63.641
6.97000000 0.032295 49.321 0.999589 -33.54 0.999589 -33.54 0.032334 63.621
6.97500000 0.032325 49.290 0.999587 -33.56 0.999587 -33.56 0.032364 63.602
6.98000000 0.032355 49.260 0.999586 -33.59 0.999586 -33.59 0.032394 63.583
6.98500000 0.032385 49.229 0.999585 -33.61 0.999585 -33.61 0.032423 63.564
6.99000000 0.032415 49.198 0.999583 -33.64 0.999583 -33.64 0.032453 63.544
6.99500000 0.032445 49.168 0.999582 -33.66 0.999582 -33.66 0.032483 63.525
7.00000000 0.032475 49.137 0.999580 -33.69 0.999580 -33.69 0.032513 63.506
7.00500000 0.032505 49.106 0.999579 -33.71 0.999579 -33.71 0.032542 63.487
7.01000000 0.032535 49.075 0.999578 -33.73 0.999578 -33.73 0.032572 63.468
7.01500000 0.032565 49.045 0.999576 -33.76 0.999576 -33.76 0.032602 63.449
7.02000000 0.032595 49.014 0.999575 -33.78 0.999575 -33.78 0.032632 63.429
7.02500000 0.032625 48.983 0.999574 -33.81 0.999574 -33.81 0.032662 63.410
7.03000000 0.032655 48.952 0.999572 -33.83 0.999572 -33.83 0.032691 63.391
7.03500000 0.032685 48.921 0.999571 -33.86 0.999571 -33.86 0.032721 63.372
7.04000000 0.032715 48.891 0.999569 -33.88 0.999569 -33.88 0.032751 63.353
7.04500000 0.032745 48.860 0.999568 -33.91 0.999568 -33.91 0.032781 63.334
7.05000000 0.032775 48.829 0.999567 -33.93 0.999567 -33.93 0.032811 63.315
7.05500000 0.032806 48.798 0.999565 -33.95 0.999565 -33.95 0.032841 63.296
7.06000000 0.032836 48.767 0.999564 -33.98 0.999564 -33.98 0.032871 63.277
7.06500000 0.032866 48.737 0.999562 -34.00 0.999562 -34.00 0.032901 63.258
7.07000000 0.032896 48.706 0.999561 -34.03 0.999561 -34.03 0.032931 63.239
7.07500000 0.032927 48.675 0.999559 -34.05 0.999559 -34.05 0.032961 63.220
7.08000000 0.032957 48.644 0.999558 -34.08 0.999558 -34.08 0.032991 63.201
7.08500000 0.032987 48.613 0.999557 -34.10 0.999557 -34.10 0.033021 63.182
7.09000000 0.033018 48.582 0.999555 -34.13 0.999555 -34.13 0.033052 63.163
7.09500000 0.033048 48.552 0.999554 -34.15 0.999554 -34.15 0.033082 63.144
7.10000000 0.033079 48.521 0.999552 -34.17 0.999552 -34.17 0.033112 63.125
7.10500000 0.033109 48.490 0.999551 -34.20 0.999551 -34.20 0.033142 63.106
7.11000000 0.033140 48.459 0.999549 -34.22 0.999549 -34.22 0.033172 63.087
7.11500000 0.033170 48.428 0.999548 -34.25 0.999548 -34.25 0.033203 63.068
7.12000000 0.033201 48.397 0.999546 -34.27 0.999546 -34.27 0.033233 63.049
7.12500000 0.033231 48.366 0.999545 -34.30 0.999545 -34.30 0.033263 63.030
7.13000000 0.033262 48.335 0.999543 -34.32 0.999543 -34.32 0.033293 63.011
7.13500000 0.033292 48.304 0.999542 -34.35 0.999542 -34.35 0.033324 62.992
7.14000000 0.033323 48.273 0.999540 -34.37 0.999540 -34.37 0.033354 62.974
7.14500000 0.033354 48.242 0.999539 -34.39 0.999539 -34.39 0.033385 62.955
7.15000000 0.033384 48.212 0.999537 -34.42 0.999537 -34.42 0.033415 62.936
7.15500000 0.033415 48.181 0.999536 -34.44 0.999536 -34.44 0.033446 62.917
7.16000000 0.033446 48.150 0.999534 -34.47 0.999534 -34.47 0.033476 62.898
7.16500000 0.033476 48.119 0.999533 -34.49 0.999533 -34.49 0.033507 62.880
7.17000000 0.033507 48.088 0.999531 -34.52 0.999531 -34.52 0.033537 62.861
7.17500000 0.033538 48.057 0.999530 -34.54 0.999530 -34.54 0.033568 62.842
7.18000000 0.033569 48.026 0.999528 -34.57 0.999528 -34.57 0.033598 62.824
7.18500000 0.033600 47.995 0.999527 -34.59 0.999527 -34.59 0.033629 62.805
7.19000000 0.033631 47.964 0.999525 -34.62 0.999525 -34.62 0.033660 62.786
7.19500000 0.033662 47.933 0.999524 -34.64 0.999524 -34.64 0.033690 62.767
7.20000000 0.033693 47.902 0.999522 -34.66 0.999522 -34.66 0.033721 62.749
7.20500000 0.033724 47.871 0.999521 -34.69 0.999521 -34.69 0.033752 62.730
7.21000000 0.033755 47.839 0.999519 -34.71 0.999519 -34.71 0.033783 62.712
7.21500000 0.033786 47.808 0.999518 -34.74 0.999518 -34.74 0.033813 62.693
7.22000000 0.033817 47.777 0.999516 -34.76 0.999516 -34.76 0.033844 62.674
7.22500000 0.033848 47.746 0.999515 -34.79 0.999515 -34.79 0.033875 62.656
7.23000000 0.033879 47.715 0.999513 -34.81 0.999513 -34.81 0.033906 62.637
7.23500000 0.033910 47.684 0.999512 -34.84 0.999512 -34.84 0.033937 62.619
7.24000000 0.033942 47.653 0.999510 -34.86 0.999510 -34.86 0.033968 62.600
7.24500000 0.033973 47.622 0.999509 -34.89 0.999509 -34.89 0.033999 62.582
7.25000000 0.034004 47.591 0.999507 -34.91 0.999507 -34.91 0.034030 62.563
7.25500000 0.034035 47.560 0.999505 -34.93 0.999505 -34.93 0.034061 62.545
7.26000000 0.034067 47.528 0.999504 -34.96 0.999504 -34.96 0.034092 62.526
7.26500000 0.034098 47.497 0.999502 -34.98 0.999502 -34.98 0.034123 62.508
7.27000000 0.034130 47.466 0.999501 -35.01 0.999501 -35.01 0.034154 62.489
7.27500000 0.034161 47.435 0.999499 -35.03 0.999499 -35.03 0.034186 62.471
7.28000000 0.034193 47.404 0.999498 -35.06 0.999498 -35.06 0.034217 62.453
7.28500000 0.034224 47.373 0.999496 -35.08 0.999496 -35.08 0.034248 62.434
7.29000000 0.034256 47.341 0.999494 -35.11 0.999494 -35.11 0.034279 62.416
7.29500000 0.034287 47.310 0.999493 -35.13 0.999493 -35.13 0.034311 62.397
7.30000000 0.034319 47.279 0.999491 -35.15 0.999491 -35.15 0.034342 62.379
7.30500000 0.034351 47.248 0.999490 -35.18 0.999490 -35.18 0.034374 62.361
7.31000000 0.034382 47.216 0.999488 -35.20 0.999488 -35.20 0.034405 62.342
7.31500000 0.034414 47.185 0.999487 -35.23 0.999487 -35.23 0.034436 62.324
7.32000000 0.034446 47.154 0.999485 -35.25 0.999485 -35.25 0.034468 62.306
7.32500000 0.034478 47.122 0.999483 -35.28 0.999483 -35.28 0.034500 62.288
7.33000000 0.034509 47.091 0.999482 -35.30 0.999482 -35.30 0.034531 62.269
7.33500000 0.034541 47.060 0.999480 -35.33 0.999480 -35.33 0.034563 62.251
7.34000000 0.034573 47.029 0.999479 -35.35 0.999479 -35.35 0.034594 62.233
7.34500000 0.034605 46.997 0.999477 -35.38 0.999477 -35.38 0.034626 62.215
7.35000000 0.034637 46.966 0.999475 -35.40 0.999475 -35.40 0.034658 62.197
7.35500000 0.034669 46.934 0.999474 -35.43 0.999474 -35.43 0.034690 62.179
7.36000000 0.034701 46.903 0.999472 -35.45 0.999472 -35.45 0.034722 62.160
7.36500000 0.034733 46.872 0.999471 -35.47 0.999471 -35.47 0.034753 62.142
7.37000000 0.034765 46.840 0.999469 -35.50 0.999469 -35.50 0.034785 62.124
7.37500000 0.034798 46.809 0.999467 -35.52 0.999467 -35.52 0.034817 62.106
7.38000000 0.034830 46.777 0.999466 -35.55 0.999466 -35.55 0.034849 62.088
7.38500000 0.034862 46.746 0.999464 -35.57 0.999464 -35.57 0.034881 62.070
7.39000000 0.034894 46.714 0.999463 -35.60 0.999463 -35.60 0.034913 62.052
7.39500000 0.034927 46.683 0.999461 -35.62 0.999461 -35.62 0.034946 62.034
7.40000000 0.034959 46.652 0.999459 -35.65 0.999459 -35.65 0.034978 62.016
7.40500000 0.034992 46.620 0.999458 -35.67 0.999458 -35.67 0.035010 61.998
7.41000000 0.035024 46.588 0.999456 -35.70 0.999456 -35.70 0.035042 61.980
7.41500000 0.035057 46.557 0.999454 -35.72 0.999454 -35.72 0.035074 61.962
7.42000000 0.035089 46.525 0.999453 -35.74 0.999453 -35.74 0.035107 61.944
7.42500000 0.035122 46.494 0.999451 -35.77 0.999451 -35.77 0.035139 61.927
7.43000000 0.035154 46.462 0.999450 -35.79 0.999450 -35.79 0.035172 61.909
7.43500000 0.035187 46.431 0.999448 -35.82 0.999448 -35.82 0.035204 61.891
7.44000000 0.035220 46.399 0.999446 -35.84 0.999446 -35.84 0.035237 61.873
7.44500000 0.035253 46.367 0.999445 -35.87 0.999445 -35.87 0.035269 61.855
7.45000000 0.035285 46.336 0.999443 -35.89 0.999443 -35.89 0.035302 61.837
7.45500000 0.035318 46.304 0.999441 -35.92 0.999441 -35.92 0.035334 61.820
7.46000000 0.035351 46.272 0.999440 -35.94 0.999440 -35.94 0.035367 61.802
7.46500000 0.035384 46.241 0.999438 -35.97 0.999438 -35.97 0.035400 61.784
7.47000000 0.035417 46.209 0.999436 -35.99 0.999436 -35.99 0.035433 61.767
7.47500000 0.035450 46.177 0.999435 -36.02 0.999435 -36.02 0.035465 61.749
7.48000000 0.035483 46.145 0.999433 -36.04 0.999433 -36.04 0.035498 61.731
7.48500000 0.035517 46.114 0.999431 -36.06 0.999431 -36.06 0.035531 61.714
7.49000000 0.035550 46.082 0.999430 -36.09 0.999430 -36.09 0.035564 61.696
7.49500000 0.035583 46.050 0.999428 -36.11 0.999428 -36.11 0.035597 61.678
7.50000000 0.035616 46.018 0.999426 -36.14 0.999426 -36.14 0.035630 61.661
7.50500000 0.035650 45.986 0.999425 -36.16 0.999425 -36.16 0.035663 61.643
7.51000000 0.035683 45.955 0.999423 -36.19 0.999423 -36.19 0.035697 61.626
7.51500000 0.035716 45.923 0.999421 -36.21 0.999421 -36.21 0.035730 61.608
7.52000000 0.035750 45.891 0.999420 -36.24 0.999420 -36.24 0.035763 61.591
7.52500000 0.035784 45.859 0.999418 -36.26 0.999418 -36.26 0.035797 61.573
7.53000000 0.035817 45.827 0.999416 -36.29 0.999416 -36.29 0.035830 61.556
7.53500000 0.035851 45.795 0.999415 -36.31 0.999415 -36.31 0.035863 61.538
7.54000000 0.035885 45.763 0.999413 -36.34 0.999413 -36.34 0.035897 61.521
7.54500000 0.035918 45.731 0.999411 -36.36 0.999411 -36.36 0.035930 61.504
7.55000000 0.035952 45.699 0.999410 -36.39 0.999410 -36.39 0.035964 61.486
7.55500000 0.035986 45.667 0.999408 -36.41 0.999408 -36.41 0.035998 61.469
7.56000000 0.036020 45.635 0.999406 -36.43 0.999406 -36.43 0.036032 61.452
7.56500000 0.036054 45.603 0.999405 -36.46 0.999405 -36.46 0.036065 61.434
7.57000000 0.036088 45.571 0.999403 -36.48 0.999403 -36.48 0.036099 61.417
7.57500000 0.036122 45.538 0.999401 -36.51 0.999401 -36.51 0.036133 61.400
7.58000000 0.036156 45.506 0.999400 -36.53 0.999400 -36.53 0.036167 61.383
7.58500000 0.036190 45.474 0.999398 -36.56 0.999398 -36.56 0.036201 61.365
7.59000000 0.036225 45.442 0.999396 -36.58 0.999396 -36.58 0.036235 61.348
7.59500000 0.036259 45.410 0.999395 -36.61 0.999395 -36.61 0.036269 61.331
7.60000000 0.036293 45.377 0.999393 -36.63 0.999393 -36.63 0.036303 61.314
7.60500000 0.036328 45.345 0.999391 -36.66 0.999391 -36.66 0.036338 61.297
7.61000000 0.036362 45.313 0.999389 -36.68 0.999389 -36.68 0.036372 61.280
7.61500000 0.036397 45.281 0.999388 -36.71 0.999388 -36.71 0.036406 61.263
7.62000000 0.036431 45.248 0.999386 -36.73 0.999386 -36.73 0.036441 61.246
7.62500000 0.036466 45.216 0.999384 -36.76 0.999384 -36.76 0.036475 61.229
7.63000000 0.036501 45.183 0.999383 -36.78 0.999383 -36.78 0.036510 61.212
7.63500000 0.036536 45.151 0.999381 -36.81 0.999381 -36.81 0.036545 61.195
7.64000000 0.036571 45.118 0.999379 -36.83 0.999379 -36.83 0.036579 61.178
7.64500000 0.036605 45.086 0.999377 -36.86 0.999377 -36.86 0.036614 61.161
7.65000000 0.036641 45.053 0.999376 -36.88 0.999376 -36.88 0.036649 61.144
7.65500000 0.036676 45.021 0.999374 -36.90 0.999374 -36.90 0.036684 61.127
7.66000000 0.036711 44.988 0.999372 -36.93 0.999372 -36.93 0.036719 61.110
7.66500000 0.036746 44.956 0.999371 -36.95 0.999371 -36.95 0.036754 61.094
7.67000000 0.036781 44.923 0.999369 -36.98 0.999369 -36.98 0.036789 61.077
7.67500000 0.036817 44.890 0.999367 -37.00 0.999367 -37.00 0.036824 61.060
7.68000000 0.036852 44.858 0.999365 -37.03 0.999365 -37.03 0.036859 61.043
7.68500000 0.036887 44.825 0.999364 -37.05 0.999364 -37.05 0.036895 61.027
7.69000000 0.036923 44.792 0.999362 -37.08 0.999362 -37.08 0.036930 61.010
7.69500000 0.036959 44.759 0.999360 -37.10 0.999360 -37.10 0.036966 60.993
7.70000000 0.036994 44.727 0.999358 -37.13 0.999358 -37.13 0.037001 60.977
7.70500000 0.037030 44.694 0.999357 -37.15 0.999357 -37.15 0.037037 60.960
7.71000000 0.037066 44.661 0.999355 -37.18 0.999355 -37.18 0.037072 60.944
7.71500000 0.037102 44.628 0.999353 -37.20 0.999353 -37.20 0.037108 60.927
7.72000000 0.037138 44.595 0.999351 -37.23 0.999351 -37.23 0.037144 60.911
7.72500000 0.037174 44.562 0.999350 -37.25 0.999350 -37.25 0.037180 60.894
7.73000000 0.037210 44.529 0.999348 -37.28 0.999348 -37.28 0.037216 60.878
7.73500000 0.037246 44.496 0.999346 -37.30 0.999346 -37.30 0.037252 60.861
7.74000000 0.037282 44.463 0.999344 -37.33 0.999344 -37.33 0.037288 60.845
7.74500000 0.037319 44.430 0.999343 -37.35 0.999343 -37.35 0.037324 60.829
7.75000000 0.037355 44.396 0.999341 -37.38 0.999341 -37.38 0.037361 60.812
7.75500000 0.037392 44.363 0.999339 -37.40 0.999339 -37.40 0.037397 60.796
7.76000000 0.037428 44.330 0.999337 -37.43 0.999337 -37.43 0.037434 60.780
7.76500000 0.037465 44.297 0.999336 -37.45 0.999336 -37.45 0.037470 60.764
7.77000000 0.037502 44.263 0.999334 -37.48 0.999334 -37.48 0.037507 60.747
7.77500000 0.037539 44.230 0.999332 -37.50 0.999332 -37.50 0.037544 60.731
7.78000000 0.037576 44.197 0.999330 -37.52 0.999330 -37.52 0.037580 60.715
7.78500000 0.037613 44.163 0.999328 -37.55 0.999328 -37.55 0.037617 60.699
7.79000000 0.037650 44.130 0.999327 -37.57 0.999327 -37.57 0.037654 60.683
7.79500000 0.037687 44.096 0.999325 -37.60 0.999325 -37.60 0.037691 60.667
7.80000000 0.037724 44.063 0.999323 -37.62 0.999323 -37.62 0.037729 60.651
7.80500000 0.037762 44.029 0.999321 -37.65 0.999321 -37.65 0.037766 60.635
7.81000000 0.037799 43.995 0.999320 -37.67 0.999320 -37.67 0.037803 60.619
7.81500000 0.037837 43.962 0.999318 -37.70 0.999318 -37.70 0.037841 60.603
7.82000000 0.037874 43.928 0.999316 -37.72 0.999316 -37.72 0.037878 60.588
7.82500000 0.037912 43.894 0.999314 -37.75 0.999314 -37.75 0.037916 60.572
7.83000000 0.037950 43.860 0.999312 -37.77 0.999312 -37.77 0.037954 60.556
7.83500000 0.037988 43.826 0.999310 -37.80 0.999310 -37.80 0.037991 60.540
7.84000000 0.038026 43.792 0.999309 -37.82 0.999309 -37.82 0.038029 60.525
7.84500000 0.038064 43.759 0.999307 -37.85 0.999307 -37.85 0.038067 60.509
7.85000000 0.038103 43.724 0.999305 -37.87 0.999305 -37.87 0.038106 60.493
7.85500000 0.038141 43.690 0.999303 -37.90 0.999303 -37.90 0.038144 60.478
7.86000000 0.038179 43.656 0.999301 -37.92 0.999301 -37.92 0.038182 60.462
7.86500000 0.038218 43.622 0.999300 -37.95 0.999300 -37.95 0.038221 60.447
7.87000000 0.038257 43.588 0.999298 -37.97 0.999298 -37.97 0.038259 60.431
7.87500000 0.038295 43.554 0.999296 -38.00 0.999296 -38.00 0.038298 60.416
7.88000000 0.038334 43.519 0.999294 -38.02 0.999294 -38.02 0.038337 60.401
7.88500000 0.038373 43.485 0.999292 -38.05 0.999292 -38.05 0.038376 60.385
7.89000000 0.038412 43.450 0.999290 -38.07 0.999290 -38.07 0.038415 60.370
7.89500000 0.038451 43.416 0.999288 -38.10 0.999288 -38.10 0.038454 60.355
7.90000000 0.038491 43.381 0.999287 -38.12 0.999287 -38.12 0.038493 60.340
7.90500000 0.038530 43.347 0.999285 -38.15 0.999285 -38.15 0.038532 60.325
7.91000000 0.038570 43.312 0.999283 -38.17 0.999283 -38.17 0.038572 60.310
7.91500000 0.038609 43.277 0.999281 -38.20 0.999281 -38.20 0.038611 60.295
7.92000000 0.038649 43.243 0.999279 -38.22 0.999279 -38.22 0.038651 60.280
7.92500000 0.038689 43.208 0.999277 -38.25 0.999277 -38.25 0.038691 60.265
7.93000000 0.038729 43.173 0.999275 -38.27 0.999275 -38.27 0.038731 60.250
7.93500000 0.038769 43.138 0.999274 -38.30 0.999274 -38.30 0.038771 60.235
7.94000000 0.038810 43.103 0.999272 -38.32 0.999272 -38.32 0.038811 60.220
7.94500000 0.038850 43.068 0.999270 -38.35 0.999270 -38.35 0.038852 60.205
7.95000000 0.038891 43.032 0.999268 -38.37 0.999268 -38.37 0.038892 60.191
7.95500000 0.038931 42.997 0.999266 -38.40 0.999266 -38.40 0.038933 60.176
7.96000000 0.038972 42.962 0.999264 -38.42 0.999264 -38.42 0.038973 60.162
7.96500000 0.039013 42.927 0.999262 -38.45 0.999262 -38.45 0.039014 60.147