! Sonnet Data File
! From: emgraph Version : 16.52
! From Project: Resonator2
! Data is De-embedded 
! Data File Written: 10/05/2017 10:46:04
!< HDATE 10/04/2017 20:26:48
!< MDATE 10/05/2017 00:36:07
!< PARAMS
!< gap = 6.0
!< Length = 400.0
!< Pwid1 = 1500.0
!< Pwid2 = 1500.0
!< END PARAMS
# GHZ S MA R 50.00000
8.80000000 0.207008 -164.4 0.978332 -78.78 0.978332 -78.78 0.207003 -173.2
!< P1 F=8.8 Eeff=(5.57630778 -2.4821e-5) Z0=(37.9068886 8.51285e-5) R=0.0 C=0.0 
!< P2 F=8.8 Eeff=(5.57630778 -2.4821e-5) Z0=(37.9068886 8.51285e-5) R=0.0 C=0.0 
8.80020000 0.206972 -164.4 0.978340 -78.78 0.978340 -78.78 0.206967 -173.2
8.80040000 0.206936 -164.4 0.978347 -78.79 0.978347 -78.79 0.206931 -173.2
8.80060000 0.206900 -164.4 0.978355 -78.79 0.978355 -78.79 0.206895 -173.2
8.80080000 0.206864 -164.4 0.978363 -78.79 0.978363 -78.79 0.206859 -173.2
8.80100000 0.206827 -164.4 0.978370 -78.80 0.978370 -78.80 0.206822 -173.2
8.80120000 0.206790 -164.4 0.978378 -78.80 0.978378 -78.80 0.206786 -173.2
8.80140000 0.206754 -164.4 0.978386 -78.81 0.978386 -78.81 0.206749 -173.3
8.80160000 0.206717 -164.4 0.978393 -78.81 0.978393 -78.81 0.206712 -173.3
8.80180000 0.206680 -164.4 0.978401 -78.82 0.978401 -78.82 0.206675 -173.3
8.80200000 0.206642 -164.4 0.978409 -78.82 0.978409 -78.82 0.206638 -173.3
8.80220000 0.206605 -164.4 0.978417 -78.83 0.978417 -78.83 0.206600 -173.3
8.80240000 0.206567 -164.3 0.978425 -78.83 0.978425 -78.83 0.206563 -173.3
8.80260000 0.206530 -164.3 0.978433 -78.83 0.978433 -78.83 0.206525 -173.3
8.80280000 0.206492 -164.3 0.978441 -78.84 0.978441 -78.84 0.206487 -173.3
8.80300000 0.206454 -164.3 0.978449 -78.84 0.978449 -78.84 0.206449 -173.3
8.80320000 0.206415 -164.3 0.978457 -78.85 0.978457 -78.85 0.206410 -173.4
8.80340000 0.206377 -164.3 0.978465 -78.85 0.978465 -78.85 0.206372 -173.4
8.80360000 0.206338 -164.3 0.978473 -78.86 0.978473 -78.86 0.206333 -173.4
8.80380000 0.206299 -164.3 0.978481 -78.86 0.978481 -78.86 0.206294 -173.4
8.80400000 0.206260 -164.3 0.978490 -78.87 0.978490 -78.87 0.206256 -173.4
8.80420000 0.206221 -164.3 0.978498 -78.87 0.978498 -78.87 0.206216 -173.4
8.80440000 0.206182 -164.3 0.978506 -78.87 0.978506 -78.87 0.206177 -173.4
8.80460000 0.206143 -164.3 0.978514 -78.88 0.978514 -78.88 0.206138 -173.4
8.80480000 0.206103 -164.3 0.978523 -78.88 0.978523 -78.88 0.206098 -173.4
8.80500000 0.206063 -164.3 0.978531 -78.89 0.978531 -78.89 0.206058 -173.5
8.80520000 0.206023 -164.3 0.978539 -78.89 0.978539 -78.89 0.206018 -173.5
8.80540000 0.205983 -164.3 0.978548 -78.90 0.978548 -78.90 0.205978 -173.5
8.80560000 0.205943 -164.3 0.978556 -78.90 0.978556 -78.90 0.205937 -173.5
8.80580000 0.205902 -164.3 0.978565 -78.91 0.978565 -78.91 0.205897 -173.5
8.80600000 0.205861 -164.3 0.978573 -78.91 0.978573 -78.91 0.205856 -173.5
8.80620000 0.205820 -164.3 0.978582 -78.92 0.978582 -78.92 0.205815 -173.5
8.80640000 0.205779 -164.3 0.978591 -78.92 0.978591 -78.92 0.205774 -173.5
8.80660000 0.205738 -164.3 0.978599 -78.93 0.978599 -78.93 0.205733 -173.6
8.80680000 0.205697 -164.3 0.978608 -78.93 0.978608 -78.93 0.205691 -173.6
8.80700000 0.205655 -164.3 0.978617 -78.93 0.978617 -78.93 0.205649 -173.6
8.80720000 0.205613 -164.3 0.978625 -78.94 0.978625 -78.94 0.205608 -173.6
8.80740000 0.205571 -164.3 0.978634 -78.94 0.978634 -78.94 0.205566 -173.6
8.80760000 0.205529 -164.3 0.978643 -78.95 0.978643 -78.95 0.205523 -173.6
8.80780000 0.205486 -164.3 0.978652 -78.95 0.978652 -78.95 0.205481 -173.6
8.80800000 0.205444 -164.3 0.978661 -78.96 0.978661 -78.96 0.205438 -173.6
8.80820000 0.205401 -164.3 0.978670 -78.96 0.978670 -78.96 0.205395 -173.7
8.80840000 0.205358 -164.3 0.978679 -78.97 0.978679 -78.97 0.205352 -173.7
8.80860000 0.205314 -164.3 0.978688 -78.97 0.978688 -78.97 0.205309 -173.7
8.80880000 0.205271 -164.3 0.978697 -78.98 0.978697 -78.98 0.205265 -173.7
8.80900000 0.205227 -164.3 0.978706 -78.98 0.978706 -78.98 0.205222 -173.7
8.80920000 0.205184 -164.2 0.978715 -78.99 0.978715 -78.99 0.205178 -173.7
8.80940000 0.205139 -164.2 0.978725 -78.99 0.978725 -78.99 0.205134 -173.7
8.80960000 0.205095 -164.2 0.978734 -79.00 0.978734 -79.00 0.205090 -173.8
8.80980000 0.205051 -164.2 0.978743 -79.00 0.978743 -79.00 0.205045 -173.8
8.81000000 0.205006 -164.2 0.978752 -79.01 0.978752 -79.01 0.205000 -173.8
8.81020000 0.204961 -164.2 0.978762 -79.01 0.978762 -79.01 0.204955 -173.8
8.81040000 0.204916 -164.2 0.978771 -79.02 0.978771 -79.02 0.204910 -173.8
8.81060000 0.204871 -164.2 0.978781 -79.02 0.978781 -79.02 0.204865 -173.8
8.81080000 0.204825 -164.2 0.978790 -79.03 0.978790 -79.03 0.204819 -173.8
8.81100000 0.204779 -164.2 0.978800 -79.03 0.978800 -79.03 0.204774 -173.8
8.81120000 0.204733 -164.2 0.978809 -79.04 0.978809 -79.04 0.204728 -173.9
8.81140000 0.204687 -164.2 0.978819 -79.04 0.978819 -79.04 0.204681 -173.9
8.81160000 0.204641 -164.2 0.978829 -79.05 0.978829 -79.05 0.204635 -173.9
8.81180000 0.204594 -164.2 0.978838 -79.05 0.978838 -79.05 0.204588 -173.9
8.81200000 0.204547 -164.2 0.978848 -79.06 0.978848 -79.06 0.204541 -173.9
8.81220000 0.204500 -164.2 0.978858 -79.06 0.978858 -79.06 0.204494 -173.9
8.81240000 0.204453 -164.2 0.978868 -79.07 0.978868 -79.07 0.204447 -173.9
8.81260000 0.204405 -164.2 0.978878 -79.07 0.978878 -79.07 0.204399 -174.0
8.81280000 0.204358 -164.2 0.978888 -79.08 0.978888 -79.08 0.204351 -174.0
8.81300000 0.204310 -164.2 0.978898 -79.08 0.978898 -79.08 0.204303 -174.0
8.81320000 0.204261 -164.2 0.978908 -79.09 0.978908 -79.09 0.204255 -174.0
8.81340000 0.204213 -164.2 0.978918 -79.09 0.978918 -79.09 0.204206 -174.0
8.81360000 0.204164 -164.2 0.978928 -79.10 0.978928 -79.10 0.204158 -174.0
8.81380000 0.204115 -164.2 0.978938 -79.10 0.978938 -79.10 0.204109 -174.0
8.81400000 0.204066 -164.2 0.978948 -79.11 0.978948 -79.11 0.204059 -174.1
8.81420000 0.204016 -164.2 0.978959 -79.11 0.978959 -79.11 0.204010 -174.1
8.81440000 0.203967 -164.2 0.978969 -79.12 0.978969 -79.12 0.203960 -174.1
8.81460000 0.203917 -164.1 0.978979 -79.12 0.978979 -79.12 0.203910 -174.1
8.81480000 0.203867 -164.1 0.978990 -79.13 0.978990 -79.13 0.203860 -174.1
8.81500000 0.203816 -164.1 0.979000 -79.14 0.979000 -79.14 0.203809 -174.1
8.81520000 0.203765 -164.1 0.979011 -79.14 0.979011 -79.14 0.203759 -174.1
8.81540000 0.203714 -164.1 0.979021 -79.15 0.979021 -79.15 0.203708 -174.2
8.81560000 0.203663 -164.1 0.979032 -79.15 0.979032 -79.15 0.203656 -174.2
8.81580000 0.203612 -164.1 0.979043 -79.16 0.979043 -79.16 0.203605 -174.2
8.81600000 0.203560 -164.1 0.979053 -79.16 0.979053 -79.16 0.203553 -174.2
8.81620000 0.203508 -164.1 0.979064 -79.17 0.979064 -79.17 0.203501 -174.2
8.81640000 0.203456 -164.1 0.979075 -79.17 0.979075 -79.17 0.203449 -174.2
8.81660000 0.203403 -164.1 0.979086 -79.18 0.979086 -79.18 0.203396 -174.3
8.81680000 0.203350 -164.1 0.979097 -79.18 0.979097 -79.18 0.203343 -174.3
8.81700000 0.203297 -164.1 0.979108 -79.19 0.979108 -79.19 0.203290 -174.3
8.81720000 0.203244 -164.1 0.979119 -79.19 0.979119 -79.19 0.203237 -174.3
8.81740000 0.203190 -164.1 0.979130 -79.20 0.979130 -79.20 0.203183 -174.3
8.81760000 0.203136 -164.1 0.979141 -79.21 0.979141 -79.21 0.203129 -174.3
8.81780000 0.203082 -164.1 0.979152 -79.21 0.979152 -79.21 0.203075 -174.3
8.81800000 0.203028 -164.1 0.979164 -79.22 0.979164 -79.22 0.203021 -174.4
8.81820000 0.202973 -164.1 0.979175 -79.22 0.979175 -79.22 0.202966 -174.4
8.81840000 0.202918 -164.1 0.979186 -79.23 0.979186 -79.23 0.202911 -174.4
8.81860000 0.202863 -164.1 0.979198 -79.23 0.979198 -79.23 0.202855 -174.4
8.81880000 0.202807 -164.0 0.979209 -79.24 0.979209 -79.24 0.202800 -174.4
8.81900000 0.202751 -164.0 0.979221 -79.25 0.979221 -79.25 0.202744 -174.4
8.81920000 0.202695 -164.0 0.979232 -79.25 0.979232 -79.25 0.202687 -174.5
8.81940000 0.202638 -164.0 0.979244 -79.26 0.979244 -79.26 0.202631 -174.5
8.81960000 0.202582 -164.0 0.979256 -79.26 0.979256 -79.26 0.202574 -174.5
8.81980000 0.202524 -164.0 0.979268 -79.27 0.979268 -79.27 0.202517 -174.5
8.82000000 0.202467 -164.0 0.979279 -79.27 0.979279 -79.27 0.202459 -174.5
8.82020000 0.202409 -164.0 0.979291 -79.28 0.979291 -79.28 0.202402 -174.5
8.82040000 0.202351 -164.0 0.979303 -79.29 0.979303 -79.29 0.202344 -174.6
8.82060000 0.202293 -164.0 0.979315 -79.29 0.979315 -79.29 0.202285 -174.6
8.82080000 0.202234 -164.0 0.979327 -79.30 0.979327 -79.30 0.202227 -174.6
8.82100000 0.202175 -164.0 0.979339 -79.30 0.979339 -79.30 0.202168 -174.6
8.82120000 0.202116 -164.0 0.979352 -79.31 0.979352 -79.31 0.202108 -174.6
8.82140000 0.202057 -164.0 0.979364 -79.32 0.979364 -79.32 0.202049 -174.6
8.82160000 0.201997 -164.0 0.979376 -79.32 0.979376 -79.32 0.201989 -174.7
8.82180000 0.201936 -164.0 0.979389 -79.33 0.979389 -79.33 0.201928 -174.7
8.82200000 0.201876 -164.0 0.979401 -79.33 0.979401 -79.33 0.201868 -174.7
8.82220000 0.201815 -164.0 0.979414 -79.34 0.979414 -79.34 0.201807 -174.7
8.82240000 0.201754 -164.0 0.979426 -79.35 0.979426 -79.35 0.201746 -174.7
8.82260000 0.201692 -163.9 0.979439 -79.35 0.979439 -79.35 0.201684 -174.8
8.82280000 0.201630 -163.9 0.979451 -79.36 0.979451 -79.36 0.201622 -174.8
8.82300000 0.201568 -163.9 0.979464 -79.36 0.979464 -79.36 0.201560 -174.8
8.82320000 0.201505 -163.9 0.979477 -79.37 0.979477 -79.37 0.201497 -174.8
8.82340000 0.201442 -163.9 0.979490 -79.38 0.979490 -79.38 0.201434 -174.8
8.82360000 0.201379 -163.9 0.979503 -79.38 0.979503 -79.38 0.201371 -174.8
8.82380000 0.201315 -163.9 0.979516 -79.39 0.979516 -79.39 0.201307 -174.9
8.82400000 0.201251 -163.9 0.979529 -79.40 0.979529 -79.40 0.201243 -174.9
8.82420000 0.201187 -163.9 0.979542 -79.40 0.979542 -79.40 0.201178 -174.9
8.82440000 0.201122 -163.9 0.979556 -79.41 0.979556 -79.41 0.201114 -174.9
8.82460000 0.201057 -163.9 0.979569 -79.41 0.979569 -79.41 0.201048 -174.9
8.82480000 0.200992 -163.9 0.979582 -79.42 0.979582 -79.42 0.200983 -175.0
8.82500000 0.200926 -163.9 0.979596 -79.43 0.979596 -79.43 0.200917 -175.0
8.82520000 0.200860 -163.9 0.979609 -79.43 0.979609 -79.43 0.200851 -175.0
8.82540000 0.200793 -163.9 0.979623 -79.44 0.979623 -79.44 0.200784 -175.0
8.82560000 0.200726 -163.9 0.979637 -79.45 0.979637 -79.45 0.200717 -175.0
8.82580000 0.200659 -163.8 0.979650 -79.45 0.979650 -79.45 0.200650 -175.1
8.82600000 0.200591 -163.8 0.979664 -79.46 0.979664 -79.46 0.200582 -175.1
8.82620000 0.200523 -163.8 0.979678 -79.47 0.979678 -79.47 0.200514 -175.1
8.82640000 0.200454 -163.8 0.979692 -79.47 0.979692 -79.47 0.200445 -175.1
8.82660000 0.200385 -163.8 0.979706 -79.48 0.979706 -79.48 0.200376 -175.1
8.82680000 0.200316 -163.8 0.979720 -79.49 0.979720 -79.49 0.200307 -175.2
8.82700000 0.200246 -163.8 0.979734 -79.49 0.979734 -79.49 0.200237 -175.2
8.82720000 0.200176 -163.8 0.979749 -79.50 0.979749 -79.50 0.200167 -175.2
8.82740000 0.200106 -163.8 0.979763 -79.51 0.979763 -79.51 0.200096 -175.2
8.82760000 0.200035 -163.8 0.979778 -79.51 0.979778 -79.51 0.200025 -175.2
8.82780000 0.199963 -163.8 0.979792 -79.52 0.979792 -79.52 0.199954 -175.3
8.82800000 0.199891 -163.8 0.979807 -79.53 0.979807 -79.53 0.199882 -175.3
8.82820000 0.199819 -163.8 0.979821 -79.53 0.979821 -79.53 0.199809 -175.3
8.82840000 0.199747 -163.8 0.979836 -79.54 0.979836 -79.54 0.199737 -175.3
8.82860000 0.199673 -163.7 0.979851 -79.55 0.979851 -79.55 0.199664 -175.3
8.82880000 0.199600 -163.7 0.979866 -79.55 0.979866 -79.55 0.199590 -175.4
8.82900000 0.199526 -163.7 0.979881 -79.56 0.979881 -79.56 0.199516 -175.4
8.82920000 0.199451 -163.7 0.979896 -79.57 0.979896 -79.57 0.199441 -175.4
8.82940000 0.199377 -163.7 0.979911 -79.58 0.979911 -79.58 0.199366 -175.4
8.82960000 0.199301 -163.7 0.979926 -79.58 0.979926 -79.58 0.199291 -175.5
8.82980000 0.199226 -163.7 0.979942 -79.59 0.979942 -79.59 0.199215 -175.5
8.83000000 0.199149 -163.7 0.979957 -79.60 0.979957 -79.60 0.199139 -175.5
8.83020000 0.199073 -163.7 0.979973 -79.60 0.979973 -79.60 0.199062 -175.5
8.83040000 0.198995 -163.7 0.979988 -79.61 0.979988 -79.61 0.198985 -175.5
8.83060000 0.198918 -163.7 0.980004 -79.62 0.980004 -79.62 0.198907 -175.6
8.83080000 0.198840 -163.7 0.980020 -79.63 0.980020 -79.63 0.198829 -175.6
8.83100000 0.198761 -163.7 0.980036 -79.63 0.980036 -79.63 0.198750 -175.6
8.83120000 0.198682 -163.6 0.980052 -79.64 0.980052 -79.64 0.198671 -175.6
8.83140000 0.198602 -163.6 0.980068 -79.65 0.980068 -79.65 0.198591 -175.7
8.83160000 0.198522 -163.6 0.980084 -79.66 0.980084 -79.66 0.198511 -175.7
8.83180000 0.198442 -163.6 0.980100 -79.66 0.980100 -79.66 0.198431 -175.7
8.83200000 0.198361 -163.6 0.980117 -79.67 0.980117 -79.67 0.198349 -175.7
8.83220000 0.198279 -163.6 0.980133 -79.68 0.980133 -79.68 0.198268 -175.8
8.83240000 0.198197 -163.6 0.980150 -79.69 0.980150 -79.69 0.198186 -175.8
8.83260000 0.198114 -163.6 0.980166 -79.69 0.980166 -79.69 0.198103 -175.8
8.83280000 0.198031 -163.6 0.980183 -79.70 0.980183 -79.70 0.198020 -175.8
8.83300000 0.197947 -163.6 0.980200 -79.71 0.980200 -79.71 0.197936 -175.9
8.83320000 0.197863 -163.6 0.980217 -79.72 0.980217 -79.72 0.197852 -175.9
8.83340000 0.197778 -163.5 0.980234 -79.72 0.980234 -79.72 0.197767 -175.9
8.83360000 0.197693 -163.5 0.980251 -79.73 0.980251 -79.73 0.197681 -175.9
8.83380000 0.197607 -163.5 0.980268 -79.74 0.980268 -79.74 0.197595 -176.0
8.83400000 0.197521 -163.5 0.980286 -79.75 0.980286 -79.75 0.197509 -176.0
8.83420000 0.197434 -163.5 0.980303 -79.76 0.980303 -79.76 0.197422 -176.0
8.83440000 0.197346 -163.5 0.980321 -79.76 0.980321 -79.76 0.197334 -176.0
8.83460000 0.197258 -163.5 0.980338 -79.77 0.980338 -79.77 0.197246 -176.1
8.83480000 0.197169 -163.5 0.980356 -79.78 0.980356 -79.78 0.197157 -176.1
8.83500000 0.197080 -163.5 0.980374 -79.79 0.980374 -79.79 0.197068 -176.1
8.83520000 0.196990 -163.5 0.980392 -79.80 0.980392 -79.80 0.196978 -176.1
8.83540000 0.196900 -163.4 0.980410 -79.80 0.980410 -79.80 0.196887 -176.2
8.83560000 0.196809 -163.4 0.980428 -79.81 0.980428 -79.81 0.196796 -176.2
8.83580000 0.196717 -163.4 0.980447 -79.82 0.980447 -79.82 0.196705 -176.2
8.83600000 0.196625 -163.4 0.980465 -79.83 0.980465 -79.83 0.196612 -176.2
8.83620000 0.196532 -163.4 0.980484 -79.84 0.980484 -79.84 0.196519 -176.3
8.83640000 0.196439 -163.4 0.980502 -79.85 0.980502 -79.85 0.196426 -176.3
8.83660000 0.196344 -163.4 0.980521 -79.85 0.980521 -79.85 0.196331 -176.3
8.83680000 0.196250 -163.4 0.980540 -79.86 0.980540 -79.86 0.196237 -176.4
8.83700000 0.196154 -163.4 0.980559 -79.87 0.980559 -79.87 0.196141 -176.4
8.83720000 0.196058 -163.3 0.980578 -79.88 0.980578 -79.88 0.196045 -176.4
8.83740000 0.195962 -163.3 0.980597 -79.89 0.980597 -79.89 0.195948 -176.4
8.83760000 0.195864 -163.3 0.980617 -79.90 0.980617 -79.90 0.195851 -176.5
8.83780000 0.195766 -163.3 0.980636 -79.91 0.980636 -79.91 0.195752 -176.5
8.83800000 0.195667 -163.3 0.980656 -79.92 0.980656 -79.92 0.195654 -176.5
8.83820000 0.195568 -163.3 0.980675 -79.92 0.980675 -79.92 0.195554 -176.6
8.83840000 0.195468 -163.3 0.980695 -79.93 0.980695 -79.93 0.195454 -176.6
8.83860000 0.195367 -163.3 0.980715 -79.94 0.980715 -79.94 0.195353 -176.6
8.83880000 0.195266 -163.3 0.980735 -79.95 0.980735 -79.95 0.195251 -176.6
8.83900000 0.195163 -163.2 0.980756 -79.96 0.980756 -79.96 0.195149 -176.7
8.83920000 0.195061 -163.2 0.980776 -79.97 0.980776 -79.97 0.195046 -176.7
8.83940000 0.194957 -163.2 0.980797 -79.98 0.980797 -79.98 0.194942 -176.7
8.83960000 0.194853 -163.2 0.980817 -79.99 0.980817 -79.99 0.194838 -176.8
8.83980000 0.194747 -163.2 0.980838 -80.00 0.980838 -80.00 0.194733 -176.8
8.84000000 0.194642 -163.2 0.980859 -80.01 0.980859 -80.01 0.194627 -176.8
8.84020000 0.194535 -163.2 0.980880 -80.02 0.980880 -80.02 0.194520 -176.9
8.84040000 0.194428 -163.2 0.980901 -80.03 0.980901 -80.03 0.194413 -176.9
8.84060000 0.194320 -163.1 0.980923 -80.03 0.980923 -80.03 0.194304 -176.9
8.84080000 0.194211 -163.1 0.980944 -80.04 0.980944 -80.04 0.194195 -177.0
8.84100000 0.194101 -163.1 0.980966 -80.05 0.980966 -80.05 0.194085 -177.0
8.84120000 0.193990 -163.1 0.980987 -80.06 0.980987 -80.06 0.193975 -177.0
8.84140000 0.193879 -163.1 0.981009 -80.07 0.981009 -80.07 0.193863 -177.1
8.84160000 0.193767 -163.1 0.981031 -80.08 0.981031 -80.08 0.193751 -177.1
8.84180000 0.193654 -163.1 0.981054 -80.09 0.981054 -80.09 0.193638 -177.1
8.84200000 0.193540 -163.0 0.981076 -80.10 0.981076 -80.10 0.193524 -177.2
8.84220000 0.193426 -163.0 0.981098 -80.11 0.981098 -80.11 0.193409 -177.2
8.84240000 0.193310 -163.0 0.981121 -80.12 0.981121 -80.12 0.193294 -177.2
8.84260000 0.193194 -163.0 0.981144 -80.13 0.981144 -80.13 0.193177 -177.3
8.84280000 0.193077 -163.0 0.981167 -80.14 0.981167 -80.14 0.193060 -177.3
8.84300000 0.192959 -163.0 0.981190 -80.15 0.981190 -80.15 0.192942 -177.3
8.84320000 0.192840 -163.0 0.981213 -80.16 0.981213 -80.16 0.192823 -177.4
8.84340000 0.192720 -162.9 0.981237 -80.17 0.981237 -80.17 0.192703 -177.4
8.84360000 0.192599 -162.9 0.981260 -80.18 0.981260 -80.18 0.192582 -177.4
8.84380000 0.192477 -162.9 0.981284 -80.19 0.981284 -80.19 0.192460 -177.5
8.84400000 0.192355 -162.9 0.981308 -80.21 0.981308 -80.21 0.192337 -177.5
8.84420000 0.192231 -162.9 0.981332 -80.22 0.981332 -80.22 0.192213 -177.6
8.84440000 0.192107 -162.9 0.981356 -80.23 0.981356 -80.23 0.192089 -177.6
8.84460000 0.191981 -162.8 0.981381 -80.24 0.981381 -80.24 0.191963 -177.6
8.84480000 0.191855 -162.8 0.981405 -80.25 0.981405 -80.25 0.191837 -177.7
8.84500000 0.191727 -162.8 0.981430 -80.26 0.981430 -80.26 0.191709 -177.7
8.84520000 0.191599 -162.8 0.981455 -80.27 0.981455 -80.27 0.191580 -177.7
8.84540000 0.191469 -162.8 0.981480 -80.28 0.981480 -80.28 0.191451 -177.8
8.84560000 0.191339 -162.8 0.981506 -80.29 0.981506 -80.29 0.191320 -177.8
8.84580000 0.191208 -162.7 0.981531 -80.30 0.981531 -80.30 0.191189 -177.9
8.84600000 0.191075 -162.7 0.981557 -80.31 0.981557 -80.31 0.191056 -177.9
8.84620000 0.190942 -162.7 0.981583 -80.33 0.981583 -80.33 0.190922 -177.9
8.84640000 0.190807 -162.7 0.981609 -80.34 0.981609 -80.34 0.190787 -178.0
8.84660000 0.190671 -162.7 0.981635 -80.35 0.981635 -80.35 0.190651 -178.0
8.84680000 0.190534 -162.6 0.981661 -80.36 0.981661 -80.36 0.190515 -178.1
8.84700000 0.190397 -162.6 0.981688 -80.37 0.981688 -80.37 0.190376 -178.1
8.84720000 0.190258 -162.6 0.981715 -80.38 0.981715 -80.38 0.190237 -178.1
8.84740000 0.190117 -162.6 0.981742 -80.40 0.981742 -80.40 0.190097 -178.2
8.84760000 0.189976 -162.6 0.981769 -80.41 0.981769 -80.41 0.189955 -178.2
8.84780000 0.189834 -162.6 0.981796 -80.42 0.981796 -80.42 0.189813 -178.3
8.84800000 0.189690 -162.5 0.981824 -80.43 0.981824 -80.43 0.189669 -178.3
8.84820000 0.189545 -162.5 0.981852 -80.44 0.981852 -80.44 0.189524 -178.4
8.84840000 0.189399 -162.5 0.981880 -80.46 0.981880 -80.46 0.189378 -178.4
8.84860000 0.189252 -162.5 0.981908 -80.47 0.981908 -80.47 0.189230 -178.5
8.84880000 0.189104 -162.5 0.981937 -80.48 0.981937 -80.48 0.189082 -178.5
8.84900000 0.188954 -162.4 0.981965 -80.49 0.981965 -80.49 0.188932 -178.5
8.84920000 0.188803 -162.4 0.981994 -80.51 0.981994 -80.51 0.188781 -178.6
8.84940000 0.188651 -162.4 0.982023 -80.52 0.982023 -80.52 0.188628 -178.6
8.84960000 0.188497 -162.4 0.982053 -80.53 0.982053 -80.53 0.188475 -178.7
8.84980000 0.188343 -162.3 0.982082 -80.55 0.982082 -80.55 0.188320 -178.7
8.85000000 0.188186 -162.3 0.982112 -80.56 0.982112 -80.56 0.188163 -178.8
8.85020000 0.188029 -162.3 0.982142 -80.57 0.982142 -80.57 0.188005 -178.8
8.85040000 0.187870 -162.3 0.982172 -80.59 0.982172 -80.59 0.187846 -178.9
8.85060000 0.187710 -162.3 0.982203 -80.60 0.982203 -80.60 0.187686 -178.9
8.85080000 0.187548 -162.2 0.982233 -80.61 0.982233 -80.61 0.187524 -179.0
8.85100000 0.187385 -162.2 0.982264 -80.63 0.982264 -80.63 0.187361 -179.0
8.85120000 0.187221 -162.2 0.982295 -80.64 0.982295 -80.64 0.187196 -179.1
8.85140000 0.187055 -162.2 0.982327 -80.65 0.982327 -80.65 0.187030 -179.1
8.85160000 0.186888 -162.1 0.982358 -80.67 0.982358 -80.67 0.186862 -179.2
8.85180000 0.186719 -162.1 0.982390 -80.68 0.982390 -80.68 0.186693 -179.2
8.85200000 0.186548 -162.1 0.982423 -80.70 0.982423 -80.70 0.186523 -179.3
8.85220000 0.186376 -162.1 0.982455 -80.71 0.982455 -80.71 0.186350 -179.4
8.85240000 0.186203 -162.0 0.982488 -80.72 0.982488 -80.72 0.186177 -179.4
8.85260000 0.186028 -162.0 0.982521 -80.74 0.982521 -80.74 0.186002 -179.5
8.85280000 0.185851 -162.0 0.982554 -80.75 0.982554 -80.75 0.185825 -179.5
8.85300000 0.185673 -161.9 0.982587 -80.77 0.982587 -80.77 0.185646 -179.6
8.85320000 0.185494 -161.9 0.982621 -80.78 0.982621 -80.78 0.185466 -179.6
8.85340000 0.185312 -161.9 0.982655 -80.80 0.982655 -80.80 0.185284 -179.7
8.85360000 0.185129 -161.9 0.982689 -80.81 0.982689 -80.81 0.185101 -179.7
8.85380000 0.184944 -161.8 0.982724 -80.83 0.982724 -80.83 0.184916 -179.8
8.85400000 0.184758 -161.8 0.982759 -80.84 0.982759 -80.84 0.184729 -179.9
8.85420000 0.184569 -161.8 0.982794 -80.86 0.982794 -80.86 0.184540 -179.9
8.85440000 0.184379 -161.7 0.982829 -80.87 0.982829 -80.87 0.184350 -180.0
8.85460000 0.184187 -161.7 0.982865 -80.89 0.982865 -80.89 0.184158 179.95
8.85480000 0.183994 -161.7 0.982901 -80.91 0.982901 -80.91 0.183964 179.89
8.85500000 0.183798 -161.7 0.982938 -80.92 0.982938 -80.92 0.183768 179.82
8.85520000 0.183601 -161.6 0.982974 -80.94 0.982974 -80.94 0.183570 179.76
8.85540000 0.183402 -161.6 0.983011 -80.96 0.983011 -80.96 0.183371 179.70
8.85560000 0.183200 -161.6 0.983049 -80.97 0.983049 -80.97 0.183169 179.63
8.85580000 0.182997 -161.5 0.983086 -80.99 0.983086 -80.99 0.182966 179.57
8.85600000 0.182792 -161.5 0.983124 -81.01 0.983124 -81.01 0.182760 179.50
8.85620000 0.182585 -161.5 0.983162 -81.02 0.983162 -81.02 0.182553 179.43
8.85640000 0.182376 -161.4 0.983201 -81.04 0.983201 -81.04 0.182343 179.36
8.85660000 0.182165 -161.4 0.983240 -81.06 0.983240 -81.06 0.182132 179.29
8.85680000 0.181952 -161.4 0.983279 -81.07 0.983279 -81.07 0.181918 179.22
8.85700000 0.181736 -161.3 0.983318 -81.09 0.983318 -81.09 0.181702 179.15
8.85720000 0.181519 -161.3 0.983358 -81.11 0.983358 -81.11 0.181484 179.08
8.85740000 0.181299 -161.3 0.983399 -81.13 0.983399 -81.13 0.181264 179.01
8.85760000 0.181077 -161.2 0.983439 -81.15 0.983439 -81.15 0.181042 178.94
8.85780000 0.180853 -161.2 0.983480 -81.16 0.983480 -81.16 0.180817 178.86
8.85800000 0.180626 -161.1 0.983522 -81.18 0.983522 -81.18 0.180590 178.79
8.85820000 0.180398 -161.1 0.983563 -81.20 0.983563 -81.20 0.180361 178.71
8.85840000 0.180166 -161.1 0.983605 -81.22 0.983605 -81.22 0.180130 178.63
8.85860000 0.179933 -161.0 0.983648 -81.24 0.983648 -81.24 0.179896 178.55
8.85880000 0.179697 -161.0 0.983691 -81.26 0.983691 -81.26 0.179659 178.47
8.85900000 0.179459 -160.9 0.983734 -81.28 0.983734 -81.28 0.179420 178.39
8.85920000 0.179218 -160.9 0.983777 -81.30 0.983777 -81.30 0.179179 178.31
8.85940000 0.178974 -160.9 0.983821 -81.32 0.983821 -81.32 0.178935 178.23
8.85960000 0.178728 -160.8 0.983866 -81.34 0.983866 -81.34 0.178689 178.15
8.85980000 0.178480 -160.8 0.983910 -81.36 0.983910 -81.36 0.178439 178.06
8.86000000 0.178229 -160.7 0.983956 -81.38 0.983956 -81.38 0.178188 177.98
8.86020000 0.177975 -160.7 0.984001 -81.40 0.984001 -81.40 0.177933 177.89
8.86040000 0.177718 -160.6 0.984047 -81.42 0.984047 -81.42 0.177676 177.80
8.86060000 0.177459 -160.6 0.984094 -81.44 0.984094 -81.44 0.177416 177.71
8.86080000 0.177196 -160.5 0.984141 -81.46 0.984141 -81.46 0.177153 177.62
8.86100000 0.176931 -160.5 0.984188 -81.48 0.984188 -81.48 0.176887 177.53
8.86120000 0.176663 -160.4 0.984236 -81.51 0.984236 -81.51 0.176619 177.44
8.86140000 0.176392 -160.4 0.984284 -81.53 0.984284 -81.53 0.176347 177.34
8.86160000 0.176118 -160.3 0.984333 -81.55 0.984333 -81.55 0.176073 177.25
8.86180000 0.175841 -160.3 0.984382 -81.57 0.984382 -81.57 0.175795 177.15
8.86200000 0.175561 -160.2 0.984431 -81.60 0.984431 -81.60 0.175514 177.05
8.86220000 0.175278 -160.2 0.984481 -81.62 0.984481 -81.62 0.175230 176.95
8.86240000 0.174991 -160.1 0.984532 -81.64 0.984532 -81.64 0.174943 176.85
8.86260000 0.174702 -160.1 0.984583 -81.67 0.984583 -81.67 0.174653 176.75
8.86280000 0.174408 -160.0 0.984634 -81.69 0.984634 -81.69 0.174359 176.65
8.86300000 0.174112 -159.9 0.984686 -81.71 0.984686 -81.71 0.174062 176.54
8.86320000 0.173812 -159.9 0.984739 -81.74 0.984739 -81.74 0.173761 176.43
8.86340000 0.173509 -159.8 0.984792 -81.76 0.984792 -81.76 0.173457 176.32
8.86360000 0.173202 -159.8 0.984845 -81.79 0.984845 -81.79 0.173150 176.21
8.86380000 0.172892 -159.7 0.984899 -81.81 0.984899 -81.81 0.172839 176.10
8.86400000 0.172578 -159.6 0.984954 -81.84 0.984954 -81.84 0.172524 175.99
8.86420000 0.172260 -159.6 0.985009 -81.86 0.985009 -81.86 0.172205 175.87
8.86440000 0.171938 -159.5 0.985065 -81.89 0.985065 -81.89 0.171883 175.75
8.86460000 0.171613 -159.4 0.985121 -81.92 0.985121 -81.92 0.171556 175.63
8.86480000 0.171284 -159.4 0.985178 -81.94 0.985178 -81.94 0.171226 175.51
8.86490075 0.171116 -159.3 0.985207 -81.96 0.985207 -81.96 0.171059 175.45
8.86500000 0.170951 -159.3 0.985235 -81.97 0.985235 -81.97 0.170892 175.39
8.86520000 0.170613 -159.2 0.985293 -82.00 0.985293 -82.00 0.170554 175.26
8.86540000 0.170272 -159.2 0.985352 -82.03 0.985352 -82.03 0.170212 175.13
8.86558545 0.169952 -159.1 0.985406 -82.05 0.985406 -82.05 0.169891 175.01
8.86560000 0.169926 -159.1 0.985411 -82.06 0.985411 -82.06 0.169865 175.00
8.86580000 0.169577 -159.0 0.985470 -82.08 0.985470 -82.08 0.169514 174.87
8.86600000 0.169222 -158.9 0.985531 -82.11 0.985531 -82.11 0.169159 174.74
8.86620000 0.168864 -158.9 0.985591 -82.14 0.985591 -82.14 0.168800 174.60
8.86625445 0.168766 -158.8 0.985608 -82.15 0.985608 -82.15 0.168701 174.56
8.86640000 0.168501 -158.8 0.985653 -82.17 0.985653 -82.17 0.168436 174.46
8.86660000 0.168133 -158.7 0.985715 -82.20 0.985715 -82.20 0.168067 174.32
8.86680000 0.167761 -158.6 0.985778 -82.23 0.985778 -82.23 0.167694 174.18
8.86690813 0.167558 -158.6 0.985812 -82.25 0.985812 -82.25 0.167490 174.10
8.86700000 0.167384 -158.5 0.985841 -82.26 0.985841 -82.26 0.167316 174.03
8.86720000 0.167003 -158.4 0.985905 -82.30 0.985905 -82.30 0.166933 173.88
8.86740000 0.166616 -158.4 0.985970 -82.33 0.985970 -82.33 0.166545 173.73
8.86754683 0.166329 -158.3 0.986018 -82.35 0.986018 -82.35 0.166257 173.62
8.86760000 0.166224 -158.3 0.986035 -82.36 0.986035 -82.36 0.166152 173.58
8.86780000 0.165828 -158.2 0.986101 -82.39 0.986101 -82.39 0.165755 173.42
8.86800000 0.165426 -158.1 0.986168 -82.43 0.986168 -82.43 0.165352 173.26
8.86817089 0.165079 -158.0 0.986226 -82.45 0.986226 -82.45 0.165003 173.12
8.86820000 0.165019 -158.0 0.986235 -82.46 0.986235 -82.46 0.164943 173.10
8.86840000 0.164607 -157.9 0.986304 -82.49 0.986304 -82.49 0.164530 172.93
8.86860000 0.164189 -157.8 0.986372 -82.53 0.986372 -82.53 0.164110 172.76
8.86878066 0.163807 -157.7 0.986435 -82.56 0.986435 -82.56 0.163727 172.60
8.86880000 0.163766 -157.7 0.986442 -82.56 0.986442 -82.56 0.163686 172.59
8.86900000 0.163337 -157.6 0.986512 -82.60 0.986512 -82.60 0.163255 172.41
8.86920000 0.162902 -157.5 0.986583 -82.64 0.986583 -82.64 0.162819 172.23
8.86937645 0.162514 -157.4 0.986646 -82.67 0.986646 -82.67 0.162430 172.07
8.86940000 0.162462 -157.4 0.986655 -82.67 0.986655 -82.67 0.162377 172.05
8.86960000 0.162016 -157.2 0.986727 -82.71 0.986727 -82.71 0.161929 171.86
8.86980000 0.161563 -157.1 0.986801 -82.75 0.986801 -82.75 0.161475 171.67
8.86995859 0.161200 -157.0 0.986859 -82.78 0.986859 -82.78 0.161111 171.52
8.87000000 0.161105 -157.0 0.986875 -82.79 0.986875 -82.79 0.161015 171.48
8.87020000 0.160640 -156.9 0.986949 -82.83 0.986949 -82.83 0.160549 171.28
8.87040000 0.160169 -156.8 0.987025 -82.87 0.987025 -82.87 0.160076 171.07
8.87052739 0.159865 -156.7 0.987074 -82.89 0.987074 -82.89 0.159771 170.94
8.87060000 0.159691 -156.6 0.987101 -82.91 0.987101 -82.91 0.159596 170.87
8.87080000 0.159207 -156.5 0.987179 -82.95 0.987179 -82.95 0.159110 170.66
8.87100000 0.158716 -156.4 0.987257 -82.99 0.987257 -82.99 0.158617 170.44
8.87108316 0.158510 -156.3 0.987289 -83.01 0.987289 -83.01 0.158410 170.35
8.87120000 0.158218 -156.2 0.987335 -83.03 0.987335 -83.03 0.158117 170.22
8.87140000 0.157713 -156.1 0.987415 -83.07 0.987415 -83.07 0.157610 169.99
8.87160000 0.157201 -156.0 0.987496 -83.12 0.987496 -83.12 0.157096 169.76
8.87162619 0.157134 -155.9 0.987506 -83.12 0.987506 -83.12 0.157028 169.73
8.87180000 0.156682 -155.8 0.987577 -83.16 0.987577 -83.16 0.156575 169.53
8.87200000 0.156156 -155.7 0.987659 -83.21 0.987659 -83.21 0.156046 169.29
8.87215678 0.155738 -155.5 0.987724 -83.24 0.987724 -83.24 0.155627 169.09
8.87220000 0.155622 -155.5 0.987742 -83.25 0.987742 -83.25 0.155510 169.04
8.87240000 0.155080 -155.3 0.987826 -83.30 0.987826 -83.30 0.154966 168.79
8.87260000 0.154531 -155.2 0.987911 -83.35 0.987911 -83.35 0.154415 168.53
8.87267522 0.154323 -155.1 0.987943 -83.36 0.987943 -83.36 0.154205 168.43
8.87280000 0.153974 -155.0 0.987996 -83.39 0.987996 -83.39 0.153855 168.26
8.87300000 0.153409 -154.8 0.988083 -83.44 0.988083 -83.44 0.153287 167.99
8.87318177 0.152889 -154.7 0.988162 -83.49 0.988162 -83.49 0.152764 167.74
8.87320000 0.152836 -154.7 0.988170 -83.49 0.988170 -83.49 0.152712 167.71
8.87340000 0.152255 -154.5 0.988258 -83.55 0.988258 -83.55 0.152127 167.43
8.87360000 0.151665 -154.3 0.988348 -83.60 0.988348 -83.60 0.151535 167.14
8.87367671 0.151437 -154.2 0.988382 -83.62 0.988382 -83.62 0.151305 167.02
8.87380000 0.151067 -154.1 0.988438 -83.65 0.988438 -83.65 0.150934 166.84
8.87400000 0.150460 -153.9 0.988529 -83.70 0.988529 -83.70 0.150324 166.53
8.87416032 0.149967 -153.7 0.988602 -83.75 0.988602 -83.75 0.149828 166.28
8.87420000 0.149844 -153.7 0.988621 -83.76 0.988621 -83.76 0.149705 166.22
8.87440000 0.149220 -153.5 0.988713 -83.81 0.988713 -83.81 0.149077 165.89
8.87460000 0.148586 -153.3 0.988807 -83.87 0.988807 -83.87 0.148440 165.56
8.87463284 0.148482 -153.2 0.988822 -83.88 0.988822 -83.88 0.148334 165.51
8.87480000 0.147944 -153.0 0.988902 -83.93 0.988902 -83.93 0.147794 165.22