! Sonnet Data File
! From: emgraph Version : 16.52
! From Project: Resonator2_cp
! Data is De-embedded 
! Data File Written: 10/06/2017 13:30:08
!< HDATE 10/06/2017 09:06:26
!< MDATE 10/06/2017 09:06:26
!< PARAMS
!< gap = 96.0
!< Length = 400.0
!< Pwid1 = 2000.0
!< Pwid2 = 2000.0
!< END PARAMS
# GHZ S MA R 35.97000
8.80000000 0.011470 4.8012 0.999931 -74.12 0.999931 -74.12 0.011471 26.989
!< P1 F=8.8 Eeff=(5.36817953 -2.3731e-5) Z0=(35.9853883 8.0522e-5) R=0.0 C=0.0 
!< P2 F=8.8 Eeff=(5.36817953 -2.3731e-5) Z0=(35.9853883 8.0522e-5) R=0.0 C=0.0 
8.80020000 0.011471 4.7934 0.999931 -74.12 0.999931 -74.12 0.011472 26.993
8.80040000 0.011471 4.7855 0.999931 -74.12 0.999931 -74.12 0.011472 26.997
8.80060000 0.011472 4.7775 0.999931 -74.12 0.999931 -74.12 0.011473 27.002
8.80080000 0.011472 4.7695 0.999931 -74.12 0.999931 -74.12 0.011473 27.006
8.80100000 0.011473 4.7615 0.999931 -74.12 0.999931 -74.12 0.011474 27.011
8.80120000 0.011473 4.7535 0.999931 -74.13 0.999931 -74.13 0.011475 27.015
8.80140000 0.011474 4.7455 0.999931 -74.13 0.999931 -74.13 0.011475 27.019
8.80160000 0.011475 4.7374 0.999931 -74.13 0.999931 -74.13 0.011476 27.024
8.80180000 0.011475 4.7293 0.999931 -74.13 0.999931 -74.13 0.011476 27.028
8.80200000 0.011476 4.7213 0.999931 -74.13 0.999931 -74.13 0.011477 27.033
8.80220000 0.011476 4.7131 0.999931 -74.13 0.999931 -74.13 0.011477 27.037
8.80240000 0.011477 4.7050 0.999931 -74.14 0.999931 -74.14 0.011478 27.042
8.80260000 0.011477 4.6969 0.999931 -74.14 0.999931 -74.14 0.011478 27.047
8.80280000 0.011478 4.6887 0.999931 -74.14 0.999931 -74.14 0.011479 27.051
8.80300000 0.011479 4.6805 0.999931 -74.14 0.999931 -74.14 0.011480 27.056
8.80320000 0.011479 4.6723 0.999931 -74.14 0.999931 -74.14 0.011480 27.060
8.80340000 0.011480 4.6641 0.999931 -74.15 0.999931 -74.15 0.011481 27.065
8.80360000 0.011480 4.6558 0.999931 -74.15 0.999931 -74.15 0.011481 27.070
8.80380000 0.011481 4.6476 0.999931 -74.15 0.999931 -74.15 0.011482 27.074
8.80400000 0.011481 4.6393 0.999931 -74.15 0.999931 -74.15 0.011483 27.079
8.80420000 0.011482 4.6310 0.999931 -74.15 0.999931 -74.15 0.011483 27.084
8.80440000 0.011483 4.6227 0.999931 -74.15 0.999931 -74.15 0.011484 27.089
8.80460000 0.011483 4.6143 0.999931 -74.16 0.999931 -74.16 0.011484 27.093
8.80480000 0.011484 4.6060 0.999931 -74.16 0.999931 -74.16 0.011485 27.098
8.80500000 0.011484 4.5976 0.999931 -74.16 0.999931 -74.16 0.011485 27.103
8.80520000 0.011485 4.5892 0.999931 -74.16 0.999931 -74.16 0.011486 27.108
8.80540000 0.011486 4.5807 0.999931 -74.16 0.999931 -74.16 0.011487 27.113
8.80560000 0.011486 4.5723 0.999931 -74.17 0.999931 -74.17 0.011487 27.117
8.80580000 0.011487 4.5638 0.999931 -74.17 0.999931 -74.17 0.011488 27.122
8.80600000 0.011487 4.5553 0.999931 -74.17 0.999931 -74.17 0.011488 27.127
8.80620000 0.011488 4.5468 0.999931 -74.17 0.999931 -74.17 0.011489 27.132
8.80640000 0.011489 4.5383 0.999931 -74.17 0.999931 -74.17 0.011490 27.137
8.80660000 0.011489 4.5298 0.999931 -74.17 0.999931 -74.17 0.011490 27.142
8.80680000 0.011490 4.5212 0.999931 -74.18 0.999931 -74.18 0.011491 27.147
8.80700000 0.011490 4.5126 0.999931 -74.18 0.999931 -74.18 0.011492 27.152
8.80720000 0.011491 4.5040 0.999931 -74.18 0.999931 -74.18 0.011492 27.157
8.80740000 0.011492 4.4954 0.999931 -74.18 0.999931 -74.18 0.011493 27.162
8.80760000 0.011492 4.4867 0.999931 -74.18 0.999931 -74.18 0.011493 27.167
8.80780000 0.011493 4.4780 0.999931 -74.18 0.999931 -74.18 0.011494 27.172
8.80800000 0.011494 4.4693 0.999931 -74.19 0.999931 -74.19 0.011495 27.177
8.80820000 0.011494 4.4606 0.999931 -74.19 0.999931 -74.19 0.011495 27.182
8.80840000 0.011495 4.4519 0.999931 -74.19 0.999931 -74.19 0.011496 27.188
8.80860000 0.011495 4.4431 0.999931 -74.19 0.999931 -74.19 0.011497 27.193
8.80880000 0.011496 4.4343 0.999931 -74.19 0.999931 -74.19 0.011497 27.198
8.80900000 0.011497 4.4255 0.999931 -74.20 0.999931 -74.20 0.011498 27.203
8.80920000 0.011497 4.4167 0.999931 -74.20 0.999931 -74.20 0.011499 27.208
8.80940000 0.011498 4.4078 0.999931 -74.20 0.999931 -74.20 0.011499 27.214
8.80960000 0.011499 4.3989 0.999931 -74.20 0.999931 -74.20 0.011500 27.219
8.80980000 0.011499 4.3900 0.999931 -74.20 0.999931 -74.20 0.011500 27.224
8.81000000 0.011500 4.3811 0.999931 -74.20 0.999931 -74.20 0.011501 27.230
8.81020000 0.011501 4.3722 0.999931 -74.21 0.999931 -74.21 0.011502 27.235
8.81040000 0.011501 4.3632 0.999931 -74.21 0.999931 -74.21 0.011502 27.240
8.81060000 0.011502 4.3542 0.999931 -74.21 0.999931 -74.21 0.011503 27.246
8.81080000 0.011503 4.3452 0.999931 -74.21 0.999931 -74.21 0.011504 27.251
8.81100000 0.011503 4.3362 0.999931 -74.21 0.999931 -74.21 0.011504 27.257
8.81120000 0.011504 4.3271 0.999931 -74.22 0.999931 -74.22 0.011505 27.262
8.81140000 0.011505 4.3180 0.999931 -74.22 0.999931 -74.22 0.011506 27.267
8.81160000 0.011505 4.3089 0.999931 -74.22 0.999931 -74.22 0.011507 27.273
8.81180000 0.011506 4.2998 0.999931 -74.22 0.999931 -74.22 0.011507 27.278
8.81200000 0.011507 4.2906 0.999931 -74.22 0.999931 -74.22 0.011508 27.284
8.81220000 0.011507 4.2814 0.999931 -74.22 0.999931 -74.22 0.011509 27.290
8.81240000 0.011508 4.2722 0.999931 -74.23 0.999931 -74.23 0.011509 27.295
8.81260000 0.011509 4.2630 0.999931 -74.23 0.999931 -74.23 0.011510 27.301
8.81280000 0.011509 4.2537 0.999931 -74.23 0.999931 -74.23 0.011511 27.306
8.81300000 0.011510 4.2445 0.999931 -74.23 0.999931 -74.23 0.011511 27.312
8.81320000 0.011511 4.2352 0.999931 -74.23 0.999931 -74.23 0.011512 27.318
8.81340000 0.011512 4.2258 0.999931 -74.24 0.999931 -74.24 0.011513 27.324
8.81360000 0.011512 4.2165 0.999931 -74.24 0.999931 -74.24 0.011513 27.329
8.81380000 0.011513 4.2071 0.999931 -74.24 0.999931 -74.24 0.011514 27.335
8.81400000 0.011514 4.1977 0.999931 -74.24 0.999931 -74.24 0.011515 27.341
8.81420000 0.011514 4.1883 0.999931 -74.24 0.999931 -74.24 0.011516 27.347
8.81440000 0.011515 4.1788 0.999931 -74.24 0.999931 -74.24 0.011516 27.353
8.81460000 0.011516 4.1693 0.999931 -74.25 0.999931 -74.25 0.011517 27.358
8.81480000 0.011517 4.1598 0.999931 -74.25 0.999931 -74.25 0.011518 27.364
8.81500000 0.011517 4.1503 0.999931 -74.25 0.999931 -74.25 0.011519 27.370
8.81520000 0.011518 4.1407 0.999931 -74.25 0.999931 -74.25 0.011519 27.376
8.81540000 0.011519 4.1311 0.999931 -74.25 0.999931 -74.25 0.011520 27.382
8.81560000 0.011520 4.1215 0.999931 -74.26 0.999931 -74.26 0.011521 27.388
8.81580000 0.011520 4.1119 0.999931 -74.26 0.999931 -74.26 0.011522 27.394
8.81600000 0.011521 4.1022 0.999931 -74.26 0.999931 -74.26 0.011522 27.400
8.81620000 0.011522 4.0925 0.999931 -74.26 0.999931 -74.26 0.011523 27.406
8.81640000 0.011523 4.0828 0.999931 -74.26 0.999931 -74.26 0.011524 27.412
8.81660000 0.011523 4.0731 0.999931 -74.26 0.999931 -74.26 0.011525 27.418
8.81680000 0.011524 4.0633 0.999931 -74.27 0.999931 -74.27 0.011525 27.425
8.81700000 0.011525 4.0535 0.999931 -74.27 0.999931 -74.27 0.011526 27.431
8.81720000 0.011526 4.0436 0.999931 -74.27 0.999931 -74.27 0.011527 27.437
8.81740000 0.011526 4.0338 0.999931 -74.27 0.999931 -74.27 0.011528 27.443
8.81760000 0.011527 4.0239 0.999931 -74.27 0.999931 -74.27 0.011528 27.449
8.81780000 0.011528 4.0140 0.999931 -74.28 0.999931 -74.28 0.011529 27.456
8.81800000 0.011529 4.0041 0.999931 -74.28 0.999931 -74.28 0.011530 27.462
8.81820000 0.011530 3.9941 0.999931 -74.28 0.999931 -74.28 0.011531 27.468
8.81840000 0.011530 3.9841 0.999931 -74.28 0.999931 -74.28 0.011532 27.475
8.81860000 0.011531 3.9741 0.999931 -74.28 0.999931 -74.28 0.011532 27.481
8.81880000 0.011532 3.9640 0.999930 -74.28 0.999930 -74.28 0.011533 27.488
8.81900000 0.011533 3.9539 0.999930 -74.29 0.999930 -74.29 0.011534 27.494
8.81920000 0.011534 3.9438 0.999930 -74.29 0.999930 -74.29 0.011535 27.501
8.81940000 0.011534 3.9337 0.999930 -74.29 0.999930 -74.29 0.011536 27.507
8.81960000 0.011535 3.9235 0.999930 -74.29 0.999930 -74.29 0.011536 27.514
8.81980000 0.011536 3.9133 0.999930 -74.29 0.999930 -74.29 0.011537 27.520
8.82000000 0.011537 3.9031 0.999930 -74.29 0.999930 -74.29 0.011538 27.527
8.82020000 0.011538 3.8928 0.999930 -74.30 0.999930 -74.30 0.011539 27.533
8.82040000 0.011538 3.8825 0.999930 -74.30 0.999930 -74.30 0.011540 27.540
8.82060000 0.011539 3.8722 0.999930 -74.30 0.999930 -74.30 0.011540 27.547
8.82080000 0.011540 3.8618 0.999930 -74.30 0.999930 -74.30 0.011541 27.553
8.82100000 0.011541 3.8515 0.999930 -74.30 0.999930 -74.30 0.011542 27.560
8.82120000 0.011542 3.8410 0.999930 -74.31 0.999930 -74.31 0.011543 27.567
8.82140000 0.011543 3.8306 0.999930 -74.31 0.999930 -74.31 0.011544 27.574
8.82160000 0.011543 3.8201 0.999930 -74.31 0.999930 -74.31 0.011545 27.581
8.82180000 0.011544 3.8096 0.999930 -74.31 0.999930 -74.31 0.011546 27.587
8.82200000 0.011545 3.7991 0.999930 -74.31 0.999930 -74.31 0.011546 27.594
8.82220000 0.011546 3.7885 0.999930 -74.31 0.999930 -74.31 0.011547 27.601
8.82240000 0.011547 3.7779 0.999930 -74.32 0.999930 -74.32 0.011548 27.608
8.82260000 0.011548 3.7673 0.999930 -74.32 0.999930 -74.32 0.011549 27.615
8.82280000 0.011549 3.7566 0.999930 -74.32 0.999930 -74.32 0.011550 27.622
8.82300000 0.011550 3.7459 0.999930 -74.32 0.999930 -74.32 0.011551 27.629
8.82320000 0.011550 3.7352 0.999930 -74.32 0.999930 -74.32 0.011552 27.636
8.82340000 0.011551 3.7244 0.999930 -74.33 0.999930 -74.33 0.011553 27.643
8.82360000 0.011552 3.7136 0.999930 -74.33 0.999930 -74.33 0.011553 27.651
8.82380000 0.011553 3.7028 0.999930 -74.33 0.999930 -74.33 0.011554 27.658
8.82400000 0.011554 3.6919 0.999930 -74.33 0.999930 -74.33 0.011555 27.665
8.82420000 0.011555 3.6810 0.999930 -74.33 0.999930 -74.33 0.011556 27.672
8.82440000 0.011556 3.6701 0.999930 -74.33 0.999930 -74.33 0.011557 27.680
8.82460000 0.011557 3.6591 0.999930 -74.34 0.999930 -74.34 0.011558 27.687
8.82480000 0.011558 3.6481 0.999930 -74.34 0.999930 -74.34 0.011559 27.694
8.82500000 0.011559 3.6371 0.999930 -74.34 0.999930 -74.34 0.011560 27.702
8.82520000 0.011559 3.6260 0.999930 -74.34 0.999930 -74.34 0.011561 27.709
8.82540000 0.011560 3.6149 0.999930 -74.34 0.999930 -74.34 0.011562 27.716
8.82560000 0.011561 3.6038 0.999930 -74.35 0.999930 -74.35 0.011563 27.724
8.82580000 0.011562 3.5926 0.999930 -74.35 0.999930 -74.35 0.011564 27.731
8.82600000 0.011563 3.5814 0.999930 -74.35 0.999930 -74.35 0.011564 27.739
8.82620000 0.011564 3.5702 0.999930 -74.35 0.999930 -74.35 0.011565 27.746
8.82640000 0.011565 3.5589 0.999930 -74.35 0.999930 -74.35 0.011566 27.754
8.82660000 0.011566 3.5476 0.999930 -74.36 0.999930 -74.36 0.011567 27.762
8.82680000 0.011567 3.5362 0.999930 -74.36 0.999930 -74.36 0.011568 27.769
8.82700000 0.011568 3.5248 0.999930 -74.36 0.999930 -74.36 0.011569 27.777
8.82720000 0.011569 3.5134 0.999930 -74.36 0.999930 -74.36 0.011570 27.785
8.82740000 0.011570 3.5020 0.999930 -74.36 0.999930 -74.36 0.011571 27.793
8.82760000 0.011571 3.4905 0.999930 -74.36 0.999930 -74.36 0.011572 27.801
8.82780000 0.011572 3.4789 0.999930 -74.37 0.999930 -74.37 0.011573 27.808
8.82800000 0.011573 3.4674 0.999930 -74.37 0.999930 -74.37 0.011574 27.816
8.82820000 0.011574 3.4558 0.999930 -74.37 0.999930 -74.37 0.011575 27.824
8.82840000 0.011575 3.4441 0.999930 -74.37 0.999930 -74.37 0.011576 27.832
8.82860000 0.011576 3.4324 0.999930 -74.37 0.999930 -74.37 0.011577 27.840
8.82880000 0.011577 3.4207 0.999930 -74.38 0.999930 -74.38 0.011578 27.848
8.82900000 0.011578 3.4089 0.999930 -74.38 0.999930 -74.38 0.011579 27.856
8.82920000 0.011579 3.3971 0.999930 -74.38 0.999930 -74.38 0.011580 27.864
8.82940000 0.011580 3.3853 0.999930 -74.38 0.999930 -74.38 0.011581 27.873
8.82960000 0.011581 3.3734 0.999930 -74.38 0.999930 -74.38 0.011582 27.881
8.82980000 0.011582 3.3615 0.999930 -74.38 0.999930 -74.38 0.011583 27.889
8.83000000 0.011583 3.3495 0.999930 -74.39 0.999930 -74.39 0.011584 27.897
8.83020000 0.011584 3.3375 0.999930 -74.39 0.999930 -74.39 0.011585 27.906
8.83040000 0.011585 3.3255 0.999930 -74.39 0.999930 -74.39 0.011586 27.914
8.83060000 0.011586 3.3134 0.999930 -74.39 0.999930 -74.39 0.011587 27.922
8.83080000 0.011587 3.3013 0.999930 -74.39 0.999930 -74.39 0.011589 27.931
8.83100000 0.011588 3.2891 0.999930 -74.40 0.999930 -74.40 0.011590 27.939
8.83120000 0.011589 3.2769 0.999930 -74.40 0.999930 -74.40 0.011591 27.948
8.83140000 0.011590 3.2647 0.999930 -74.40 0.999930 -74.40 0.011592 27.956
8.83160000 0.011591 3.2524 0.999930 -74.40 0.999930 -74.40 0.011593 27.965
8.83180000 0.011593 3.2401 0.999930 -74.40 0.999930 -74.40 0.011594 27.974
8.83200000 0.011594 3.2277 0.999930 -74.40 0.999930 -74.40 0.011595 27.982
8.83220000 0.011595 3.2153 0.999930 -74.41 0.999930 -74.41 0.011596 27.991
8.83240000 0.011596 3.2029 0.999930 -74.41 0.999930 -74.41 0.011597 28.000
8.83260000 0.011597 3.1904 0.999930 -74.41 0.999930 -74.41 0.011598 28.008
8.83280000 0.011598 3.1778 0.999930 -74.41 0.999930 -74.41 0.011599 28.017
8.83300000 0.011599 3.1652 0.999930 -74.41 0.999930 -74.41 0.011601 28.026
8.83320000 0.011600 3.1526 0.999930 -74.42 0.999930 -74.42 0.011602 28.035
8.83340000 0.011601 3.1399 0.999930 -74.42 0.999930 -74.42 0.011603 28.044
8.83360000 0.011603 3.1272 0.999930 -74.42 0.999930 -74.42 0.011604 28.053
8.83380000 0.011604 3.1145 0.999930 -74.42 0.999930 -74.42 0.011605 28.062
8.83400000 0.011605 3.1016 0.999930 -74.42 0.999930 -74.42 0.011606 28.071
8.83420000 0.011606 3.0888 0.999930 -74.43 0.999930 -74.43 0.011607 28.080
8.83440000 0.011607 3.0759 0.999930 -74.43 0.999930 -74.43 0.011609 28.090
8.83460000 0.011608 3.0630 0.999930 -74.43 0.999930 -74.43 0.011610 28.099
8.83480000 0.011610 3.0500 0.999930 -74.43 0.999930 -74.43 0.011611 28.108
8.83500000 0.011611 3.0369 0.999930 -74.43 0.999930 -74.43 0.011612 28.117
8.83520000 0.011612 3.0238 0.999930 -74.43 0.999930 -74.43 0.011613 28.127
8.83540000 0.011613 3.0107 0.999929 -74.44 0.999929 -74.44 0.011614 28.136
8.83560000 0.011614 2.9975 0.999929 -74.44 0.999929 -74.44 0.011616 28.146
8.83580000 0.011615 2.9843 0.999929 -74.44 0.999929 -74.44 0.011617 28.155
8.83600000 0.011617 2.9710 0.999929 -74.44 0.999929 -74.44 0.011618 28.165
8.83620000 0.011618 2.9577 0.999929 -74.44 0.999929 -74.44 0.011619 28.174
8.83640000 0.011619 2.9443 0.999929 -74.45 0.999929 -74.45 0.011621 28.184
8.83660000 0.011620 2.9309 0.999929 -74.45 0.999929 -74.45 0.011622 28.194
8.83680000 0.011622 2.9175 0.999929 -74.45 0.999929 -74.45 0.011623 28.203
8.83700000 0.011623 2.9039 0.999929 -74.45 0.999929 -74.45 0.011624 28.213
8.83720000 0.011624 2.8904 0.999929 -74.45 0.999929 -74.45 0.011626 28.223
8.83740000 0.011625 2.8768 0.999929 -74.45 0.999929 -74.45 0.011627 28.233
8.83760000 0.011627 2.8631 0.999929 -74.46 0.999929 -74.46 0.011628 28.243
8.83780000 0.011628 2.8494 0.999929 -74.46 0.999929 -74.46 0.011629 28.253
8.83800000 0.011629 2.8356 0.999929 -74.46 0.999929 -74.46 0.011631 28.263
8.83820000 0.011630 2.8218 0.999929 -74.46 0.999929 -74.46 0.011632 28.273
8.83840000 0.011632 2.8079 0.999929 -74.46 0.999929 -74.46 0.011633 28.283
8.83860000 0.011633 2.7940 0.999929 -74.47 0.999929 -74.47 0.011634 28.293
8.83880000 0.011634 2.7800 0.999929 -74.47 0.999929 -74.47 0.011636 28.303
8.83900000 0.011636 2.7660 0.999929 -74.47 0.999929 -74.47 0.011637 28.314
8.83920000 0.011637 2.7519 0.999929 -74.47 0.999929 -74.47 0.011638 28.324
8.83940000 0.011638 2.7377 0.999929 -74.47 0.999929 -74.47 0.011640 28.334
8.83960000 0.011640 2.7236 0.999929 -74.48 0.999929 -74.48 0.011641 28.345
8.83980000 0.011641 2.7093 0.999929 -74.48 0.999929 -74.48 0.011642 28.355
8.84000000 0.011642 2.6950 0.999929 -74.48 0.999929 -74.48 0.011644 28.366
8.84020000 0.011644 2.6807 0.999929 -74.48 0.999929 -74.48 0.011645 28.376
8.84040000 0.011645 2.6662 0.999929 -74.48 0.999929 -74.48 0.011646 28.387
8.84060000 0.011646 2.6518 0.999929 -74.48 0.999929 -74.48 0.011648 28.398
8.84080000 0.011648 2.6372 0.999929 -74.49 0.999929 -74.49 0.011649 28.409
8.84100000 0.011649 2.6227 0.999929 -74.49 0.999929 -74.49 0.011651 28.419
8.84120000 0.011650 2.6080 0.999929 -74.49 0.999929 -74.49 0.011652 28.430
8.84140000 0.011652 2.5933 0.999929 -74.49 0.999929 -74.49 0.011653 28.441
8.84160000 0.011653 2.5786 0.999929 -74.49 0.999929 -74.49 0.011655 28.452
8.84180000 0.011655 2.5638 0.999929 -74.50 0.999929 -74.50 0.011656 28.463
8.84200000 0.011656 2.5489 0.999929 -74.50 0.999929 -74.50 0.011658 28.474
8.84220000 0.011658 2.5340 0.999929 -74.50 0.999929 -74.50 0.011659 28.486
8.84240000 0.011659 2.5190 0.999929 -74.50 0.999929 -74.50 0.011661 28.497
8.84260000 0.011660 2.5039 0.999929 -74.50 0.999929 -74.50 0.011662 28.508
8.84280000 0.011662 2.4888 0.999929 -74.51 0.999929 -74.51 0.011663 28.519
8.84300000 0.011663 2.4737 0.999929 -74.51 0.999929 -74.51 0.011665 28.531
8.84320000 0.011665 2.4584 0.999929 -74.51 0.999929 -74.51 0.011666 28.542
8.84340000 0.011666 2.4431 0.999929 -74.51 0.999929 -74.51 0.011668 28.554
8.84360000 0.011668 2.4278 0.999929 -74.51 0.999929 -74.51 0.011669 28.565
8.84380000 0.011669 2.4124 0.999929 -74.51 0.999929 -74.51 0.011671 28.577
8.84400000 0.011671 2.3969 0.999929 -74.52 0.999929 -74.52 0.011672 28.589
8.84420000 0.011672 2.3813 0.999929 -74.52 0.999929 -74.52 0.011674 28.600
8.84440000 0.011674 2.3657 0.999929 -74.52 0.999929 -74.52 0.011675 28.612
8.84460000 0.011675 2.3501 0.999929 -74.52 0.999929 -74.52 0.011677 28.624
8.84480000 0.011677 2.3343 0.999929 -74.52 0.999929 -74.52 0.011678 28.636
8.84500000 0.011678 2.3185 0.999929 -74.53 0.999929 -74.53 0.011680 28.648
8.84520000 0.011680 2.3027 0.999929 -74.53 0.999929 -74.53 0.011682 28.660
8.84540000 0.011682 2.2867 0.999929 -74.53 0.999929 -74.53 0.011683 28.672
8.84560000 0.011683 2.2707 0.999929 -74.53 0.999929 -74.53 0.011685 28.684
8.84580000 0.011685 2.2547 0.999929 -74.53 0.999929 -74.53 0.011686 28.697
8.84600000 0.011686 2.2385 0.999929 -74.54 0.999929 -74.54 0.011688 28.709
8.84620000 0.011688 2.2223 0.999929 -74.54 0.999929 -74.54 0.011690 28.721
8.84640000 0.011690 2.2061 0.999929 -74.54 0.999929 -74.54 0.011691 28.734
8.84660000 0.011691 2.1897 0.999928 -74.54 0.999928 -74.54 0.011693 28.746
8.84680000 0.011693 2.1733 0.999928 -74.54 0.999928 -74.54 0.011694 28.759
8.84700000 0.011694 2.1568 0.999928 -74.55 0.999928 -74.55 0.011696 28.772
8.84720000 0.011696 2.1403 0.999928 -74.55 0.999928 -74.55 0.011698 28.784
8.84740000 0.011698 2.1237 0.999928 -74.55 0.999928 -74.55 0.011699 28.797
8.84760000 0.011699 2.1070 0.999928 -74.55 0.999928 -74.55 0.011701 28.810
8.84780000 0.011701 2.0902 0.999928 -74.55 0.999928 -74.55 0.011703 28.823
8.84800000 0.011703 2.0734 0.999928 -74.55 0.999928 -74.55 0.011704 28.836
8.84820000 0.011704 2.0565 0.999928 -74.56 0.999928 -74.56 0.011706 28.849
8.84840000 0.011706 2.0395 0.999928 -74.56 0.999928 -74.56 0.011708 28.862
8.84860000 0.011708 2.0224 0.999928 -74.56 0.999928 -74.56 0.011710 28.875
8.84880000 0.011710 2.0053 0.999928 -74.56 0.999928 -74.56 0.011711 28.889
8.84900000 0.011711 1.9881 0.999928 -74.56 0.999928 -74.56 0.011713 28.902
8.84920000 0.011713 1.9708 0.999928 -74.57 0.999928 -74.57 0.011715 28.915
8.84940000 0.011715 1.9535 0.999928 -74.57 0.999928 -74.57 0.011717 28.929
8.84960000 0.011717 1.9360 0.999928 -74.57 0.999928 -74.57 0.011718 28.943
8.84980000 0.011718 1.9185 0.999928 -74.57 0.999928 -74.57 0.011720 28.956
8.85000000 0.011720 1.9009 0.999928 -74.57 0.999928 -74.57 0.011722 28.970
8.85020000 0.011722 1.8832 0.999928 -74.58 0.999928 -74.58 0.011724 28.984
8.85040000 0.011724 1.8655 0.999928 -74.58 0.999928 -74.58 0.011726 28.998
8.85060000 0.011726 1.8477 0.999928 -74.58 0.999928 -74.58 0.011727 29.012
8.85080000 0.011728 1.8297 0.999928 -74.58 0.999928 -74.58 0.011729 29.026
8.85100000 0.011729 1.8117 0.999928 -74.58 0.999928 -74.58 0.011731 29.040
8.85120000 0.011731 1.7937 0.999928 -74.59 0.999928 -74.59 0.011733 29.054
8.85140000 0.011733 1.7755 0.999928 -74.59 0.999928 -74.59 0.011735 29.068
8.85160000 0.011735 1.7573 0.999928 -74.59 0.999928 -74.59 0.011737 29.083
8.85180000 0.011737 1.7389 0.999928 -74.59 0.999928 -74.59 0.011739 29.097
8.85200000 0.011739 1.7205 0.999928 -74.59 0.999928 -74.59 0.011741 29.112
8.85220000 0.011741 1.7020 0.999928 -74.59 0.999928 -74.59 0.011742 29.126
8.85240000 0.011743 1.6835 0.999928 -74.60 0.999928 -74.60 0.011744 29.141
8.85260000 0.011745 1.6648 0.999928 -74.60 0.999928 -74.60 0.011746 29.156
8.85280000 0.011747 1.6460 0.999928 -74.60 0.999928 -74.60 0.011748 29.171
8.85300000 0.011749 1.6272 0.999928 -74.60 0.999928 -74.60 0.011750 29.186
8.85320000 0.011751 1.6083 0.999928 -74.60 0.999928 -74.60 0.011752 29.201
8.85340000 0.011753 1.5892 0.999928 -74.61 0.999928 -74.61 0.011754 29.216
8.85360000 0.011755 1.5701 0.999928 -74.61 0.999928 -74.61 0.011756 29.231
8.85380000 0.011757 1.5509 0.999928 -74.61 0.999928 -74.61 0.011758 29.246
8.85400000 0.011759 1.5316 0.999928 -74.61 0.999928 -74.61 0.011760 29.262
8.85420000 0.011761 1.5122 0.999928 -74.61 0.999928 -74.61 0.011762 29.277
8.85440000 0.011763 1.4928 0.999928 -74.62 0.999928 -74.62 0.011765 29.293
8.85460000 0.011765 1.4732 0.999928 -74.62 0.999928 -74.62 0.011767 29.308
8.85480000 0.011767 1.4535 0.999928 -74.62 0.999928 -74.62 0.011769 29.324
8.85500000 0.011769 1.4338 0.999927 -74.62 0.999927 -74.62 0.011771 29.340
8.85520000 0.011771 1.4139 0.999927 -74.62 0.999927 -74.62 0.011773 29.356
8.85540000 0.011773 1.3940 0.999927 -74.63 0.999927 -74.63 0.011775 29.372
8.85560000 0.011775 1.3739 0.999927 -74.63 0.999927 -74.63 0.011777 29.388
8.85580000 0.011778 1.3538 0.999927 -74.63 0.999927 -74.63 0.011779 29.404
8.85600000 0.011780 1.3335 0.999927 -74.63 0.999927 -74.63 0.011782 29.421
8.85620000 0.011782 1.3131 0.999927 -74.63 0.999927 -74.63 0.011784 29.437
8.85640000 0.011784 1.2927 0.999927 -74.64 0.999927 -74.64 0.011786 29.454
8.85660000 0.011786 1.2721 0.999927 -74.64 0.999927 -74.64 0.011788 29.470
8.85680000 0.011789 1.2515 0.999927 -74.64 0.999927 -74.64 0.011790 29.487
8.85700000 0.011791 1.2307 0.999927 -74.64 0.999927 -74.64 0.011793 29.504
8.85720000 0.011793 1.2099 0.999927 -74.64 0.999927 -74.64 0.011795 29.521
8.85740000 0.011795 1.1889 0.999927 -74.65 0.999927 -74.65 0.011797 29.538
8.85760000 0.011798 1.1678 0.999927 -74.65 0.999927 -74.65 0.011800 29.555
8.85780000 0.011800 1.1466 0.999927 -74.65 0.999927 -74.65 0.011802 29.572
8.85800000 0.011802 1.1253 0.999927 -74.65 0.999927 -74.65 0.011804 29.589
8.85820000 0.011805 1.1039 0.999927 -74.65 0.999927 -74.65 0.011807 29.607
8.85840000 0.011807 1.0824 0.999927 -74.66 0.999927 -74.66 0.011809 29.624
8.85860000 0.011809 1.0608 0.999927 -74.66 0.999927 -74.66 0.011811 29.642
8.85880000 0.011812 1.0391 0.999927 -74.66 0.999927 -74.66 0.011814 29.660
8.85900000 0.011814 1.0172 0.999927 -74.66 0.999927 -74.66 0.011816 29.677
8.85920000 0.011817 0.9953 0.999927 -74.66 0.999927 -74.66 0.011819 29.695
8.85940000 0.011819 0.9732 0.999927 -74.67 0.999927 -74.67 0.011821 29.714
8.85960000 0.011822 0.9510 0.999927 -74.67 0.999927 -74.67 0.011824 29.732
8.85980000 0.011824 0.9287 0.999927 -74.67 0.999927 -74.67 0.011826 29.750
8.86000000 0.011827 0.9063 0.999927 -74.67 0.999927 -74.67 0.011829 29.768
8.86020000 0.011829 0.8838 0.999927 -74.67 0.999927 -74.67 0.011831 29.787
8.86040000 0.011832 0.8611 0.999927 -74.68 0.999927 -74.68 0.011834 29.806
8.86060000 0.011834 0.8383 0.999927 -74.68 0.999927 -74.68 0.011836 29.824
8.86080000 0.011837 0.8154 0.999927 -74.68 0.999927 -74.68 0.011839 29.843
8.86100000 0.011839 0.7924 0.999927 -74.68 0.999927 -74.68 0.011841 29.862
8.86120000 0.011842 0.7693 0.999927 -74.68 0.999927 -74.68 0.011844 29.881
8.86140000 0.011845 0.7460 0.999927 -74.69 0.999927 -74.69 0.011847 29.901
8.86160000 0.011847 0.7226 0.999926 -74.69 0.999926 -74.69 0.011849 29.920
8.86180000 0.011850 0.6991 0.999926 -74.69 0.999926 -74.69 0.011852 29.940
8.86200000 0.011853 0.6754 0.999926 -74.69 0.999926 -74.69 0.011855 29.959
8.86220000 0.011855 0.6516 0.999926 -74.69 0.999926 -74.69 0.011857 29.979
8.86240000 0.011858 0.6277 0.999926 -74.70 0.999926 -74.70 0.011860 29.999
8.86260000 0.011861 0.6037 0.999926 -74.70 0.999926 -74.70 0.011863 30.019
8.86280000 0.011863 0.5795 0.999926 -74.70 0.999926 -74.70 0.011865 30.039
8.86300000 0.011866 0.5552 0.999926 -74.70 0.999926 -74.70 0.011868 30.059
8.86320000 0.011869 0.5307 0.999926 -74.70 0.999926 -74.70 0.011871 30.080
8.86340000 0.011872 0.5061 0.999926 -74.71 0.999926 -74.71 0.011874 30.100
8.86360000 0.011875 0.4814 0.999926 -74.71 0.999926 -74.71 0.011877 30.121
8.86380000 0.011878 0.4565 0.999926 -74.71 0.999926 -74.71 0.011880 30.141
8.86400000 0.011880 0.4315 0.999926 -74.71 0.999926 -74.71 0.011883 30.162
8.86420000 0.011883 0.4064 0.999926 -74.71 0.999926 -74.71 0.011885 30.183
8.86440000 0.011886 0.3811 0.999926 -74.72 0.999926 -74.72 0.011888 30.205
8.86460000 0.011889 0.3557 0.999926 -74.72 0.999926 -74.72 0.011891 30.226
8.86480000 0.011892 0.3301 0.999926 -74.72 0.999926 -74.72 0.011894 30.247
8.86500000 0.011895 0.3044 0.999926 -74.72 0.999926 -74.72 0.011897 30.269
8.86520000 0.011898 0.2785 0.999926 -74.72 0.999926 -74.72 0.011900 30.291
8.86540000 0.011901 0.2525 0.999926 -74.73 0.999926 -74.73 0.011903 30.313
8.86560000 0.011904 0.2263 0.999926 -74.73 0.999926 -74.73 0.011907 30.335
8.86580000 0.011907 0.2000 0.999926 -74.73 0.999926 -74.73 0.011910 30.357
8.86600000 0.011911 0.1735 0.999926 -74.73 0.999926 -74.73 0.011913 30.379
8.86620000 0.011914 0.1468 0.999926 -74.73 0.999926 -74.73 0.011916 30.402
8.86640000 0.011917 0.1200 0.999926 -74.74 0.999926 -74.74 0.011919 30.425
8.86660000 0.011920 0.0931 0.999926 -74.74 0.999926 -74.74 0.011922 30.447
8.86680000 0.011923 0.0660 0.999925 -74.74 0.999925 -74.74 0.011925 30.470
8.86700000 0.011927 0.0387 0.999925 -74.74 0.999925 -74.74 0.011929 30.493
8.86720000 0.011930 0.0112 0.999925 -74.74 0.999925 -74.74 0.011932 30.517
8.86740000 0.011933 -0.016 0.999925 -74.75 0.999925 -74.75 0.011935 30.540
8.86760000 0.011936 -0.044 0.999925 -74.75 0.999925 -74.75 0.011939 30.564
8.86780000 0.011940 -0.072 0.999925 -74.75 0.999925 -74.75 0.011942 30.588
8.86800000 0.011943 -0.100 0.999925 -74.75 0.999925 -74.75 0.011945 30.611
8.86820000 0.011947 -0.128 0.999925 -74.75 0.999925 -74.75 0.011949 30.636
8.86840000 0.011950 -0.157 0.999925 -74.76 0.999925 -74.76 0.011952 30.660
8.86860000 0.011953 -0.186 0.999925 -74.76 0.999925 -74.76 0.011956 30.684
8.86880000 0.011957 -0.214 0.999925 -74.76 0.999925 -74.76 0.011959 30.709
8.86900000 0.011960 -0.243 0.999925 -74.76 0.999925 -74.76 0.011963 30.734
8.86920000 0.011964 -0.273 0.999925 -74.76 0.999925 -74.76 0.011966 30.759
8.86940000 0.011968 -0.302 0.999925 -74.77 0.999925 -74.77 0.011970 30.784
8.86960000 0.011971 -0.331 0.999925 -74.77 0.999925 -74.77 0.011973 30.809
8.86980000 0.011975 -0.361 0.999925 -74.77 0.999925 -74.77 0.011977 30.835
8.87000000 0.011978 -0.391 0.999925 -74.77 0.999925 -74.77 0.011981 30.860
8.87020000 0.011982 -0.421 0.999925 -74.78 0.999925 -74.78 0.011984 30.886
8.87040000 0.011986 -0.451 0.999925 -74.78 0.999925 -74.78 0.011988 30.912
8.87060000 0.011990 -0.482 0.999925 -74.78 0.999925 -74.78 0.011992 30.938
8.87080000 0.011993 -0.513 0.999925 -74.78 0.999925 -74.78 0.011996 30.965
8.87100000 0.011997 -0.543 0.999924 -74.78 0.999924 -74.78 0.012000 30.991
8.87120000 0.012001 -0.575 0.999924 -74.79 0.999924 -74.79 0.012003 31.018
8.87140000 0.012005 -0.606 0.999924 -74.79 0.999924 -74.79 0.012007 31.045
8.87160000 0.012009 -0.637 0.999924 -74.79 0.999924 -74.79 0.012011 31.072
8.87180000 0.012013 -0.669 0.999924 -74.79 0.999924 -74.79 0.012015 31.100
8.87200000 0.012017 -0.701 0.999924 -74.79 0.999924 -74.79 0.012019 31.127
8.87220000 0.012021 -0.733 0.999924 -74.80 0.999924 -74.80 0.012023 31.155
8.87240000 0.012025 -0.765 0.999924 -74.80 0.999924 -74.80 0.012027 31.183
8.87260000 0.012029 -0.798 0.999924 -74.80 0.999924 -74.80 0.012031 31.211
8.87280000 0.012033 -0.831 0.999924 -74.80 0.999924 -74.80 0.012036 31.240
8.87300000 0.012037 -0.864 0.999924 -74.81 0.999924 -74.81 0.012040 31.268
8.87320000 0.012041 -0.897 0.999924 -74.81 0.999924 -74.81 0.012044 31.297
8.87340000 0.012046 -0.930 0.999924 -74.81 0.999924 -74.81 0.012048 31.326
8.87360000 0.012050 -0.964 0.999924 -74.81 0.999924 -74.81 0.012053 31.355
8.87380000 0.012054 -0.998 0.999924 -74.81 0.999924 -74.81 0.012057 31.385
8.87400000 0.012059 -1.032 0.999924 -74.82 0.999924 -74.82 0.012061 31.415
8.87420000 0.012063 -1.066 0.999924 -74.82 0.999924 -74.82 0.012066 31.445
8.87440000 0.012067 -1.101 0.999924 -74.82 0.999924 -74.82 0.012070 31.475
8.87460000 0.012072 -1.135 0.999923 -74.82 0.999923 -74.82 0.012075 31.505
8.87480000 0.012076 -1.170 0.999923 -74.82 0.999923 -74.82 0.012079 31.536
8.87500000 0.012081 -1.206 0.999923 -74.83 0.999923 -74.83 0.012084 31.567
8.87520000 0.012086 -1.241 0.999923 -74.83 0.999923 -74.83 0.012088 31.598
8.87540000 0.012090 -1.277 0.999923 -74.83 0.999923 -74.83 0.012093 31.629
8.87560000 0.012095 -1.313 0.999923 -74.83 0.999923 -74.83 0.012098 31.661
8.87580000 0.012100 -1.349 0.999923 -74.84 0.999923 -74.84 0.012102 31.693
8.87600000 0.012104 -1.386 0.999923 -74.84 0.999923 -74.84 0.012107 31.725
8.87620000 0.012109 -1.423 0.999923 -74.84 0.999923 -74.84 0.012112 31.757
8.87640000 0.012114 -1.460 0.999923 -74.84 0.999923 -74.84 0.012117 31.790
8.87660000 0.012119 -1.497 0.999923 -74.84 0.999923 -74.84 0.012122 31.823
8.87680000 0.012124 -1.535 0.999923 -74.85 0.999923 -74.85 0.012127 31.856
8.87700000 0.012129 -1.573 0.999923 -74.85 0.999923 -74.85 0.012132 31.889
8.87720000 0.012134 -1.611 0.999923 -74.85 0.999923 -74.85 0.012137 31.923
8.87740000 0.012139 -1.649 0.999923 -74.85 0.999923 -74.85 0.012142 31.957
8.87760000 0.012144 -1.688 0.999922 -74.86 0.999922 -74.86 0.012147 31.991
8.87780000 0.012150 -1.727 0.999922 -74.86 0.999922 -74.86 0.012152 32.025
8.87800000 0.012155 -1.767 0.999922 -74.86 0.999922 -74.86 0.012158 32.060
8.87820000 0.012160 -1.806 0.999922 -74.86 0.999922 -74.86 0.012163 32.095
8.87840000 0.012165 -1.846 0.999922 -74.86 0.999922 -74.86 0.012168 32.130