! Sonnet Data File
! From: emgraph Version : 16.52
! From Emgraph Data: Resonator2
! Data File Written: 10/05/2017 00:32:33
!< HDATE 10/04/2017 20:26:48
!< MDATE 10/04/2017 20:26:48
!< PARAMS
!< gap = 6.0
!< Length = 400.0
!< Pwid1 = 2000.0
!< END PARAMS
# GHZ S MA R 35.98000
8.80000000 0.060501 -2.451 0.998159 -76.93 0.998159 -76.93 0.060505 28.586
!< P1 F=8.8 Eeff=(5.36817953 -2.3731e-5) Z0=(35.9853883 8.0522e-5) R=0.0 C=0.0 
!< P2 F=8.8 Eeff=(5.36817953 -2.3731e-5) Z0=(35.9853883 8.0522e-5) R=0.0 C=0.0 
8.80020000 0.060559 -2.467 0.998156 -76.93 0.998156 -76.93 0.060563 28.591
8.80040000 0.060617 -2.482 0.998152 -76.94 0.998152 -76.94 0.060621 28.597
8.80060000 0.060676 -2.498 0.998149 -76.94 0.998149 -76.94 0.060679 28.602
8.80080000 0.060735 -2.514 0.998145 -76.95 0.998145 -76.95 0.060738 28.608
8.80100000 0.060794 -2.530 0.998141 -76.95 0.998141 -76.95 0.060797 28.613
8.80120000 0.060853 -2.546 0.998138 -76.96 0.998138 -76.96 0.060856 28.619
8.80140000 0.060912 -2.562 0.998134 -76.97 0.998134 -76.97 0.060916 28.624
8.80160000 0.060972 -2.578 0.998130 -76.97 0.998130 -76.97 0.060976 28.630
8.80180000 0.061033 -2.594 0.998127 -76.98 0.998127 -76.98 0.061036 28.635
8.80200000 0.061093 -2.610 0.998123 -76.98 0.998123 -76.98 0.061097 28.641
8.80220000 0.061154 -2.627 0.998119 -76.99 0.998119 -76.99 0.061157 28.647
8.80240000 0.061215 -2.643 0.998115 -76.99 0.998115 -76.99 0.061219 28.652
8.80260000 0.061277 -2.659 0.998111 -77.00 0.998111 -77.00 0.061280 28.658
8.80280000 0.061338 -2.675 0.998108 -77.00 0.998108 -77.00 0.061342 28.664
8.80300000 0.061400 -2.692 0.998104 -77.01 0.998104 -77.01 0.061404 28.669
8.80320000 0.061463 -2.708 0.998100 -77.01 0.998100 -77.01 0.061466 28.675
8.80340000 0.061525 -2.725 0.998096 -77.02 0.998096 -77.02 0.061529 28.681
8.80360000 0.061588 -2.741 0.998092 -77.02 0.998092 -77.02 0.061592 28.686
8.80380000 0.061652 -2.758 0.998088 -77.03 0.998088 -77.03 0.061655 28.692
8.80400000 0.061716 -2.775 0.998084 -77.03 0.998084 -77.03 0.061719 28.698
8.80420000 0.061780 -2.791 0.998080 -77.04 0.998080 -77.04 0.061783 28.704
8.80440000 0.061844 -2.808 0.998076 -77.05 0.998076 -77.05 0.061848 28.709
8.80460000 0.061909 -2.825 0.998072 -77.05 0.998072 -77.05 0.061912 28.715
8.80480000 0.061974 -2.842 0.998068 -77.06 0.998068 -77.06 0.061977 28.721
8.80500000 0.062039 -2.859 0.998064 -77.06 0.998064 -77.06 0.062043 28.727
8.80520000 0.062105 -2.876 0.998060 -77.07 0.998060 -77.07 0.062108 28.733
8.80540000 0.062171 -2.893 0.998056 -77.07 0.998056 -77.07 0.062174 28.739
8.80560000 0.062237 -2.910 0.998052 -77.08 0.998052 -77.08 0.062241 28.744
8.80580000 0.062304 -2.927 0.998047 -77.08 0.998047 -77.08 0.062308 28.750
8.80600000 0.062371 -2.944 0.998043 -77.09 0.998043 -77.09 0.062375 28.756
8.80620000 0.062438 -2.962 0.998039 -77.10 0.998039 -77.10 0.062442 28.762
8.80640000 0.062506 -2.979 0.998035 -77.10 0.998035 -77.10 0.062510 28.768
8.80660000 0.062574 -2.997 0.998030 -77.11 0.998030 -77.11 0.062578 28.774
8.80680000 0.062643 -3.014 0.998026 -77.11 0.998026 -77.11 0.062647 28.780
8.80700000 0.062712 -3.032 0.998022 -77.12 0.998022 -77.12 0.062716 28.786
8.80720000 0.062781 -3.049 0.998017 -77.12 0.998017 -77.12 0.062785 28.792
8.80740000 0.062851 -3.067 0.998013 -77.13 0.998013 -77.13 0.062855 28.798
8.80760000 0.062921 -3.084 0.998008 -77.14 0.998008 -77.14 0.062925 28.804
8.80780000 0.062991 -3.102 0.998004 -77.14 0.998004 -77.14 0.062995 28.810
8.80800000 0.063062 -3.120 0.997999 -77.15 0.997999 -77.15 0.063066 28.816
8.80820000 0.063134 -3.138 0.997995 -77.15 0.997995 -77.15 0.063137 28.822
8.80840000 0.063205 -3.156 0.997990 -77.16 0.997990 -77.16 0.063209 28.828
8.80860000 0.063277 -3.174 0.997986 -77.16 0.997986 -77.16 0.063281 28.834
8.80880000 0.063350 -3.192 0.997981 -77.17 0.997981 -77.17 0.063353 28.841
8.80900000 0.063422 -3.210 0.997976 -77.18 0.997976 -77.18 0.063426 28.847
8.80920000 0.063496 -3.228 0.997972 -77.18 0.997972 -77.18 0.063499 28.853
8.80940000 0.063569 -3.246 0.997967 -77.19 0.997967 -77.19 0.063573 28.859
8.80960000 0.063643 -3.265 0.997962 -77.19 0.997962 -77.19 0.063647 28.865
8.80980000 0.063718 -3.283 0.997957 -77.20 0.997957 -77.20 0.063722 28.871
8.81000000 0.063793 -3.302 0.997952 -77.21 0.997952 -77.21 0.063796 28.878
8.81020000 0.063868 -3.320 0.997948 -77.21 0.997948 -77.21 0.063872 28.884
8.81040000 0.063943 -3.339 0.997943 -77.22 0.997943 -77.22 0.063948 28.890
8.81060000 0.064020 -3.357 0.997938 -77.23 0.997938 -77.23 0.064024 28.896
8.81080000 0.064096 -3.376 0.997933 -77.23 0.997933 -77.23 0.064100 28.903
8.81100000 0.064173 -3.395 0.997928 -77.24 0.997928 -77.24 0.064177 28.909
8.81120000 0.064251 -3.414 0.997923 -77.24 0.997923 -77.24 0.064255 28.915
8.81140000 0.064329 -3.433 0.997918 -77.25 0.997918 -77.25 0.064333 28.922
8.81160000 0.064407 -3.452 0.997913 -77.26 0.997913 -77.26 0.064411 28.928
8.81180000 0.064486 -3.471 0.997907 -77.26 0.997907 -77.26 0.064490 28.934
8.81200000 0.064565 -3.490 0.997902 -77.27 0.997902 -77.27 0.064569 28.941
8.81220000 0.064645 -3.509 0.997897 -77.28 0.997897 -77.28 0.064649 28.947
8.81240000 0.064725 -3.528 0.997892 -77.28 0.997892 -77.28 0.064729 28.953
8.81260000 0.064806 -3.548 0.997887 -77.29 0.997887 -77.29 0.064810 28.960
8.81280000 0.064887 -3.567 0.997881 -77.29 0.997881 -77.29 0.064891 28.966
8.81300000 0.064968 -3.586 0.997876 -77.30 0.997876 -77.30 0.064972 28.973
8.81320000 0.065050 -3.606 0.997870 -77.31 0.997870 -77.31 0.065055 28.979
8.81340000 0.065133 -3.626 0.997865 -77.31 0.997865 -77.31 0.065137 28.986
8.81360000 0.065216 -3.645 0.997860 -77.32 0.997860 -77.32 0.065220 28.992
8.81380000 0.065299 -3.665 0.997854 -77.33 0.997854 -77.33 0.065304 28.999
8.81400000 0.065384 -3.685 0.997848 -77.33 0.997848 -77.33 0.065388 29.005
8.81420000 0.065468 -3.705 0.997843 -77.34 0.997843 -77.34 0.065472 29.012
8.81440000 0.065553 -3.725 0.997837 -77.35 0.997837 -77.35 0.065557 29.018
8.81460000 0.065639 -3.745 0.997832 -77.35 0.997832 -77.35 0.065643 29.025
8.81480000 0.065725 -3.765 0.997826 -77.36 0.997826 -77.36 0.065729 29.031
8.81500000 0.065811 -3.785 0.997820 -77.37 0.997820 -77.37 0.065816 29.038
8.81520000 0.065899 -3.805 0.997814 -77.37 0.997814 -77.37 0.065903 29.045
8.81540000 0.065986 -3.826 0.997808 -77.38 0.997808 -77.38 0.065991 29.051
8.81560000 0.066074 -3.846 0.997803 -77.39 0.997803 -77.39 0.066079 29.058
8.81580000 0.066163 -3.867 0.997797 -77.39 0.997797 -77.39 0.066168 29.065
8.81600000 0.066252 -3.887 0.997791 -77.40 0.997791 -77.40 0.066257 29.071
8.81620000 0.066342 -3.908 0.997785 -77.41 0.997785 -77.41 0.066347 29.078
8.81640000 0.066433 -3.929 0.997779 -77.42 0.997779 -77.42 0.066437 29.085
8.81660000 0.066524 -3.949 0.997772 -77.42 0.997772 -77.42 0.066528 29.091
8.81680000 0.066615 -3.970 0.997766 -77.43 0.997766 -77.43 0.066620 29.098
8.81700000 0.066707 -3.991 0.997760 -77.44 0.997760 -77.44 0.066712 29.105
8.81720000 0.066800 -4.012 0.997754 -77.44 0.997754 -77.44 0.066804 29.112
8.81740000 0.066893 -4.034 0.997747 -77.45 0.997747 -77.45 0.066898 29.118
8.81760000 0.066987 -4.055 0.997741 -77.46 0.997741 -77.46 0.066992 29.125
8.81780000 0.067082 -4.076 0.997735 -77.47 0.997735 -77.47 0.067086 29.132
8.81800000 0.067177 -4.098 0.997728 -77.47 0.997728 -77.47 0.067181 29.139
8.81820000 0.067272 -4.119 0.997722 -77.48 0.997722 -77.48 0.067277 29.146
8.81840000 0.067368 -4.141 0.997715 -77.49 0.997715 -77.49 0.067373 29.152
8.81860000 0.067465 -4.162 0.997709 -77.49 0.997709 -77.49 0.067470 29.159
8.81880000 0.067563 -4.184 0.997702 -77.50 0.997702 -77.50 0.067567 29.166
8.81900000 0.067661 -4.206 0.997695 -77.51 0.997695 -77.51 0.067666 29.173
8.81920000 0.067760 -4.228 0.997688 -77.52 0.997688 -77.52 0.067764 29.180
8.81940000 0.067859 -4.250 0.997682 -77.52 0.997682 -77.52 0.067864 29.187
8.81960000 0.067959 -4.272 0.997675 -77.53 0.997675 -77.53 0.067964 29.194
8.81980000 0.068060 -4.294 0.997668 -77.54 0.997668 -77.54 0.068065 29.201
8.82000000 0.068161 -4.316 0.997661 -77.55 0.997661 -77.55 0.068166 29.208
8.82020000 0.068263 -4.339 0.997654 -77.56 0.997654 -77.56 0.068268 29.215
8.82040000 0.068366 -4.361 0.997647 -77.56 0.997647 -77.56 0.068371 29.222
8.82060000 0.068469 -4.384 0.997639 -77.57 0.997639 -77.57 0.068474 29.229
8.82080000 0.068574 -4.406 0.997632 -77.58 0.997632 -77.58 0.068578 29.236
8.82100000 0.068678 -4.429 0.997625 -77.59 0.997625 -77.59 0.068683 29.243
8.82120000 0.068784 -4.452 0.997618 -77.59 0.997618 -77.59 0.068789 29.250
8.82140000 0.068890 -4.475 0.997610 -77.60 0.997610 -77.60 0.068895 29.257
8.82160000 0.068997 -4.498 0.997603 -77.61 0.997603 -77.61 0.069002 29.264
8.82180000 0.069104 -4.521 0.997595 -77.62 0.997595 -77.62 0.069109 29.271
8.82200000 0.069213 -4.544 0.997588 -77.63 0.997588 -77.63 0.069218 29.278
8.82220000 0.069322 -4.568 0.997580 -77.63 0.997580 -77.63 0.069327 29.285
8.82240000 0.069432 -4.591 0.997572 -77.64 0.997572 -77.64 0.069437 29.292
8.82260000 0.069542 -4.615 0.997564 -77.65 0.997564 -77.65 0.069547 29.299
8.82280000 0.069654 -4.638 0.997557 -77.66 0.997557 -77.66 0.069659 29.306
8.82300000 0.069766 -4.662 0.997549 -77.67 0.997549 -77.67 0.069771 29.313
8.82320000 0.069879 -4.686 0.997541 -77.67 0.997541 -77.67 0.069884 29.320
8.82340000 0.069992 -4.710 0.997533 -77.68 0.997533 -77.68 0.069998 29.328
8.82360000 0.070107 -4.734 0.997525 -77.69 0.997525 -77.69 0.070112 29.335
8.82380000 0.070222 -4.758 0.997516 -77.70 0.997516 -77.70 0.070227 29.342
8.82400000 0.070338 -4.782 0.997508 -77.71 0.997508 -77.71 0.070343 29.349
8.82420000 0.070455 -4.806 0.997500 -77.72 0.997500 -77.72 0.070460 29.356
8.82440000 0.070573 -4.831 0.997491 -77.73 0.997491 -77.73 0.070578 29.364
8.82460000 0.070692 -4.855 0.997483 -77.73 0.997483 -77.73 0.070697 29.371
8.82480000 0.070811 -4.880 0.997474 -77.74 0.997474 -77.74 0.070816 29.378
8.82500000 0.070931 -4.905 0.997466 -77.75 0.997466 -77.75 0.070937 29.385
8.82520000 0.071052 -4.930 0.997457 -77.76 0.997457 -77.76 0.071058 29.392
8.82540000 0.071174 -4.955 0.997448 -77.77 0.997448 -77.77 0.071180 29.400
8.82560000 0.071297 -4.980 0.997439 -77.78 0.997439 -77.78 0.071303 29.407
8.82580000 0.071421 -5.005 0.997430 -77.79 0.997430 -77.79 0.071426 29.414
8.82600000 0.071546 -5.030 0.997421 -77.80 0.997421 -77.80 0.071551 29.421
8.82620000 0.071671 -5.056 0.997412 -77.80 0.997412 -77.80 0.071677 29.429
8.82640000 0.071798 -5.081 0.997403 -77.81 0.997403 -77.81 0.071803 29.436
8.82660000 0.071925 -5.107 0.997394 -77.82 0.997394 -77.82 0.071931 29.443
8.82680000 0.072054 -5.133 0.997384 -77.83 0.997384 -77.83 0.072059 29.451
8.82700000 0.072183 -5.159 0.997375 -77.84 0.997375 -77.84 0.072189 29.458
8.82720000 0.072313 -5.185 0.997365 -77.85 0.997365 -77.85 0.072319 29.465
8.82740000 0.072445 -5.211 0.997356 -77.86 0.997356 -77.86 0.072450 29.473
8.82760000 0.072577 -5.237 0.997346 -77.87 0.997346 -77.87 0.072583 29.480
8.82780000 0.072710 -5.264 0.997336 -77.88 0.997336 -77.88 0.072716 29.487
8.82800000 0.072845 -5.290 0.997326 -77.89 0.997326 -77.89 0.072850 29.495
8.82820000 0.072980 -5.317 0.997316 -77.90 0.997316 -77.90 0.072986 29.502
8.82840000 0.073116 -5.344 0.997306 -77.91 0.997306 -77.91 0.073122 29.509
8.82860000 0.073254 -5.371 0.997296 -77.92 0.997296 -77.92 0.073259 29.517
8.82880000 0.073392 -5.398 0.997286 -77.93 0.997286 -77.93 0.073398 29.524
8.82900000 0.073531 -5.425 0.997275 -77.94 0.997275 -77.94 0.073537 29.531
8.82920000 0.073672 -5.452 0.997265 -77.95 0.997265 -77.95 0.073678 29.539
8.82940000 0.073814 -5.479 0.997254 -77.96 0.997254 -77.96 0.073820 29.546
8.82960000 0.073957 -5.507 0.997244 -77.97 0.997244 -77.97 0.073962 29.554
8.82980000 0.074100 -5.535 0.997233 -77.98 0.997233 -77.98 0.074106 29.561
8.83000000 0.074245 -5.563 0.997222 -77.99 0.997222 -77.99 0.074251 29.568
8.83020000 0.074392 -5.590 0.997211 -78.00 0.997211 -78.00 0.074398 29.576
8.83040000 0.074539 -5.619 0.997200 -78.01 0.997200 -78.01 0.074545 29.583
8.83060000 0.074687 -5.647 0.997188 -78.02 0.997188 -78.02 0.074693 29.591
8.83080000 0.074837 -5.675 0.997177 -78.03 0.997177 -78.03 0.074843 29.598
8.83100000 0.074988 -5.704 0.997166 -78.04 0.997166 -78.04 0.074994 29.605
8.83120000 0.075140 -5.732 0.997154 -78.05 0.997154 -78.05 0.075146 29.613
8.83140000 0.075293 -5.761 0.997142 -78.06 0.997142 -78.06 0.075300 29.620
8.83160000 0.075448 -5.790 0.997131 -78.07 0.997131 -78.07 0.075454 29.627
8.83180000 0.075604 -5.819 0.997119 -78.08 0.997119 -78.08 0.075610 29.635
8.83200000 0.075761 -5.848 0.997107 -78.09 0.997107 -78.09 0.075767 29.642
8.83220000 0.075919 -5.878 0.997094 -78.10 0.997094 -78.10 0.075926 29.650
8.83240000 0.076079 -5.907 0.997082 -78.11 0.997082 -78.11 0.076085 29.657
8.83260000 0.076240 -5.937 0.997070 -78.13 0.997070 -78.13 0.076246 29.664
8.83280000 0.076403 -5.967 0.997057 -78.14 0.997057 -78.14 0.076409 29.672
8.83300000 0.076566 -5.997 0.997044 -78.15 0.997044 -78.15 0.076573 29.679
8.83320000 0.076731 -6.027 0.997032 -78.16 0.997032 -78.16 0.076738 29.687
8.83340000 0.076898 -6.057 0.997019 -78.17 0.997019 -78.17 0.076904 29.694
8.83360000 0.077066 -6.088 0.997005 -78.18 0.997005 -78.18 0.077072 29.701
8.83380000 0.077235 -6.118 0.996992 -78.19 0.996992 -78.19 0.077242 29.709
8.83400000 0.077406 -6.149 0.996979 -78.21 0.996979 -78.21 0.077412 29.716
8.83420000 0.077578 -6.180 0.996965 -78.22 0.996965 -78.22 0.077585 29.723
8.83440000 0.077752 -6.211 0.996952 -78.23 0.996952 -78.23 0.077759 29.731
8.83460000 0.077927 -6.243 0.996938 -78.24 0.996938 -78.24 0.077934 29.738
8.83480000 0.078104 -6.274 0.996924 -78.25 0.996924 -78.25 0.078111 29.745
8.83500000 0.078282 -6.306 0.996910 -78.26 0.996910 -78.26 0.078289 29.753
8.83520000 0.078462 -6.337 0.996895 -78.28 0.996895 -78.28 0.078469 29.760
8.83540000 0.078643 -6.369 0.996881 -78.29 0.996881 -78.29 0.078650 29.767
8.83560000 0.078827 -6.402 0.996866 -78.30 0.996866 -78.30 0.078833 29.774
8.83580000 0.079011 -6.434 0.996851 -78.31 0.996851 -78.31 0.079018 29.782
8.83600000 0.079197 -6.466 0.996836 -78.33 0.996836 -78.33 0.079204 29.789
8.83620000 0.079385 -6.499 0.996821 -78.34 0.996821 -78.34 0.079392 29.796
8.83640000 0.079575 -6.532 0.996806 -78.35 0.996806 -78.35 0.079582 29.803
8.83660000 0.079767 -6.565 0.996791 -78.36 0.996791 -78.36 0.079774 29.810
8.83680000 0.079960 -6.598 0.996775 -78.38 0.996775 -78.38 0.079967 29.818
8.83700000 0.080155 -6.632 0.996759 -78.39 0.996759 -78.39 0.080162 29.825
8.83720000 0.080351 -6.665 0.996743 -78.40 0.996743 -78.40 0.080358 29.832
8.83740000 0.080550 -6.699 0.996727 -78.42 0.996727 -78.42 0.080557 29.839
8.83760000 0.080750 -6.733 0.996710 -78.43 0.996710 -78.43 0.080757 29.846
8.83780000 0.080952 -6.767 0.996694 -78.44 0.996694 -78.44 0.080959 29.853
8.83800000 0.081156 -6.802 0.996677 -78.46 0.996677 -78.46 0.081164 29.860
8.83820000 0.081362 -6.836 0.996660 -78.47 0.996660 -78.47 0.081370 29.867
8.83840000 0.081570 -6.871 0.996643 -78.48 0.996643 -78.48 0.081578 29.874
8.83860000 0.081780 -6.906 0.996625 -78.50 0.996625 -78.50 0.081788 29.881
8.83880000 0.081992 -6.941 0.996608 -78.51 0.996608 -78.51 0.081999 29.888
8.83900000 0.082206 -6.977 0.996590 -78.53 0.996590 -78.53 0.082213 29.895
8.83920000 0.082422 -7.012 0.996572 -78.54 0.996572 -78.54 0.082429 29.902
8.83940000 0.082640 -7.048 0.996554 -78.56 0.996554 -78.56 0.082647 29.909
8.83960000 0.082860 -7.084 0.996535 -78.57 0.996535 -78.57 0.082868 29.916
8.83980000 0.083082 -7.120 0.996516 -78.58 0.996516 -78.58 0.083090 29.923
8.84000000 0.083307 -7.157 0.996497 -78.60 0.996497 -78.60 0.083315 29.929
8.84020000 0.083533 -7.194 0.996478 -78.61 0.996478 -78.61 0.083541 29.936
8.84040000 0.083762 -7.231 0.996459 -78.63 0.996459 -78.63 0.083770 29.943
8.84060000 0.083994 -7.268 0.996439 -78.64 0.996439 -78.64 0.084002 29.949
8.84080000 0.084227 -7.305 0.996419 -78.66 0.996419 -78.66 0.084235 29.956
8.84100000 0.084463 -7.343 0.996399 -78.68 0.996399 -78.68 0.084471 29.963
8.84120000 0.084701 -7.381 0.996378 -78.69 0.996378 -78.69 0.084709 29.969
8.84140000 0.084942 -7.419 0.996358 -78.71 0.996358 -78.71 0.084950 29.976
8.84160000 0.085185 -7.457 0.996337 -78.72 0.996337 -78.72 0.085193 29.982
8.84180000 0.085431 -7.496 0.996315 -78.74 0.996315 -78.74 0.085439 29.988
8.84200000 0.085679 -7.535 0.996294 -78.75 0.996294 -78.75 0.085687 29.995
8.84220000 0.085929 -7.574 0.996272 -78.77 0.996272 -78.77 0.085938 30.001
8.84240000 0.086183 -7.613 0.996250 -78.79 0.996250 -78.79 0.086191 30.007
8.84260000 0.086439 -7.653 0.996227 -78.80 0.996227 -78.80 0.086447 30.014
8.84280000 0.086697 -7.692 0.996205 -78.82 0.996205 -78.82 0.086706 30.020
8.84300000 0.086958 -7.733 0.996182 -78.84 0.996182 -78.84 0.086967 30.026
8.84320000 0.087223 -7.773 0.996158 -78.85 0.996158 -78.85 0.087231 30.032
8.84340000 0.087490 -7.814 0.996134 -78.87 0.996134 -78.87 0.087498 30.038
8.84360000 0.087759 -7.855 0.996110 -78.89 0.996110 -78.89 0.087768 30.044
8.84380000 0.088032 -7.896 0.996086 -78.91 0.996086 -78.91 0.088041 30.050
8.84400000 0.088308 -7.937 0.996061 -78.92 0.996061 -78.92 0.088317 30.055
8.84420000 0.088586 -7.979 0.996036 -78.94 0.996036 -78.94 0.088595 30.061
8.84440000 0.088868 -8.021 0.996011 -78.96 0.996011 -78.96 0.088877 30.067
8.84460000 0.089153 -8.064 0.995985 -78.98 0.995985 -78.98 0.089162 30.072
8.84480000 0.089441 -8.106 0.995959 -79.00 0.995959 -79.00 0.089450 30.078
8.84500000 0.089732 -8.149 0.995932 -79.02 0.995932 -79.02 0.089741 30.083
8.84520000 0.090027 -8.192 0.995905 -79.03 0.995905 -79.03 0.090036 30.089
8.84540000 0.090324 -8.236 0.995878 -79.05 0.995878 -79.05 0.090334 30.094
8.84560000 0.090626 -8.280 0.995850 -79.07 0.995850 -79.07 0.090635 30.099
8.84580000 0.090930 -8.324 0.995822 -79.09 0.995822 -79.09 0.090940 30.104
8.84600000 0.091238 -8.368 0.995794 -79.11 0.995794 -79.11 0.091248 30.109
8.84620000 0.091550 -8.413 0.995765 -79.13 0.995765 -79.13 0.091560 30.114
8.84640000 0.091865 -8.458 0.995735 -79.15 0.995735 -79.15 0.091875 30.119
8.84660000 0.092184 -8.504 0.995705 -79.17 0.995705 -79.17 0.092194 30.124
8.84680000 0.092507 -8.550 0.995675 -79.19 0.995675 -79.19 0.092517 30.128
8.84700000 0.092833 -8.596 0.995644 -79.21 0.995644 -79.21 0.092843 30.133
8.84720000 0.093164 -8.642 0.995613 -79.23 0.995613 -79.23 0.093174 30.137
8.84740000 0.093498 -8.689 0.995581 -79.25 0.995581 -79.25 0.093508 30.141
8.84760000 0.093836 -8.736 0.995549 -79.28 0.995549 -79.28 0.093846 30.146
8.84780000 0.094179 -8.784 0.995516 -79.30 0.995516 -79.30 0.094189 30.150
8.84800000 0.094525 -8.832 0.995483 -79.32 0.995483 -79.32 0.094536 30.154
8.84820000 0.094876 -8.880 0.995449 -79.34 0.995449 -79.34 0.094886 30.157
8.84840000 0.095231 -8.929 0.995415 -79.36 0.995415 -79.36 0.095242 30.161
8.84860000 0.095591 -8.978 0.995380 -79.39 0.995380 -79.39 0.095601 30.165
8.84880000 0.095955 -9.028 0.995344 -79.41 0.995344 -79.41 0.095965 30.168
8.84900000 0.096323 -9.077 0.995308 -79.43 0.995308 -79.43 0.096334 30.171
8.84920000 0.096697 -9.128 0.995272 -79.45 0.995272 -79.45 0.096707 30.174
8.84940000 0.097075 -9.178 0.995234 -79.48 0.995234 -79.48 0.097085 30.177
8.84960000 0.097457 -9.229 0.995196 -79.50 0.995196 -79.50 0.097468 30.180
8.84980000 0.097845 -9.281 0.995158 -79.53 0.995158 -79.53 0.097856 30.183
8.85000000 0.098238 -9.333 0.995119 -79.55 0.995119 -79.55 0.098249 30.185
8.85020000 0.098636 -9.385 0.995079 -79.58 0.995079 -79.58 0.098647 30.188
8.85030394 0.098844 -9.413 0.995058 -79.59 0.995058 -79.59 0.098856 30.189
8.85040000 0.099039 -9.438 0.995038 -79.60 0.995038 -79.60 0.099050 30.190
8.85060000 0.099447 -9.491 0.994997 -79.63 0.994997 -79.63 0.099458 30.192
8.85080000 0.099861 -9.545 0.994955 -79.65 0.994955 -79.65 0.099872 30.194
8.85099176 0.100263 -9.597 0.994914 -79.68 0.994914 -79.68 0.100274 30.195
8.85100000 0.100280 -9.599 0.994912 -79.68 0.994912 -79.68 0.100292 30.195
8.85120000 0.100705 -9.654 0.994869 -79.70 0.994869 -79.70 0.100717 30.197
8.85140000 0.101136 -9.709 0.994824 -79.73 0.994824 -79.73 0.101147 30.198
8.85160000 0.101572 -9.764 0.994779 -79.76 0.994779 -79.76 0.101584 30.199
8.85166381 0.101713 -9.782 0.994765 -79.77 0.994765 -79.77 0.101725 30.200
8.85180000 0.102015 -9.820 0.994733 -79.79 0.994733 -79.79 0.102027 30.200
8.85200000 0.102464 -9.877 0.994686 -79.81 0.994686 -79.81 0.102476 30.201
8.85220000 0.102919 -9.934 0.994639 -79.84 0.994639 -79.84 0.102931 30.201
8.85232047 0.103196 -9.969 0.994610 -79.86 0.994610 -79.86 0.103208 30.201
8.85240000 0.103380 -9.992 0.994590 -79.87 0.994590 -79.87 0.103392 30.201
8.85260000 0.103848 -10.05 0.994541 -79.90 0.994541 -79.90 0.103860 30.201
8.85280000 0.104322 -10.11 0.994491 -79.93 0.994491 -79.93 0.104334 30.201
8.85296208 0.104712 -10.16 0.994449 -79.95 0.994449 -79.95 0.104724 30.200
8.85300000 0.104803 -10.17 0.994439 -79.96 0.994439 -79.96 0.104816 30.200
8.85320000 0.105292 -10.23 0.994387 -79.99 0.994387 -79.99 0.105304 30.200
8.85340000 0.105787 -10.29 0.994334 -80.02 0.994334 -80.02 0.105800 30.198
8.85358899 0.106262 -10.35 0.994282 -80.05 0.994282 -80.05 0.106274 30.197
8.85360000 0.106289 -10.35 0.994279 -80.05 0.994279 -80.05 0.106302 30.197
8.85380000 0.106799 -10.41 0.994224 -80.08 0.994224 -80.08 0.106812 30.195
8.85400000 0.107317 -10.47 0.994167 -80.11 0.994167 -80.11 0.107330 30.194
8.85420000 0.107842 -10.53 0.994110 -80.14 0.994110 -80.14 0.107855 30.191
8.85420153 0.107846 -10.54 0.994109 -80.14 0.994109 -80.14 0.107859 30.191
8.85440000 0.108375 -10.60 0.994051 -80.18 0.994051 -80.18 0.108388 30.189
8.85460000 0.108916 -10.66 0.993991 -80.21 0.993991 -80.21 0.108930 30.186
8.85480000 0.109466 -10.73 0.993930 -80.24 0.993930 -80.24 0.109479 30.183
8.85480003 0.109466 -10.73 0.993930 -80.24 0.993930 -80.24 0.109480 30.183
8.85500000 0.110024 -10.79 0.993867 -80.28 0.993867 -80.28 0.110038 30.179
8.85520000 0.110591 -10.86 0.993803 -80.31 0.993803 -80.31 0.110604 30.175
8.85538483 0.111122 -10.92 0.993743 -80.34 0.993743 -80.34 0.111136 30.172
8.85540000 0.111166 -10.92 0.993738 -80.35 0.993738 -80.35 0.111180 30.171
8.85560000 0.111751 -10.99 0.993672 -80.38 0.993672 -80.38 0.111765 30.167
8.85580000 0.112344 -11.06 0.993604 -80.42 0.993604 -80.42 0.112359 30.162
8.85595622 0.112815 -11.11 0.993549 -80.45 0.993549 -80.45 0.112829 30.157
8.85600000 0.112948 -11.13 0.993534 -80.46 0.993534 -80.46 0.112962 30.156
8.85620000 0.113561 -11.20 0.993463 -80.49 0.993463 -80.49 0.113575 30.151
8.85640000 0.114184 -11.27 0.993391 -80.53 0.993391 -80.53 0.114198 30.144
8.85651452 0.114545 -11.31 0.993349 -80.55 0.993349 -80.55 0.114560 30.141
8.85660000 0.114817 -11.34 0.993317 -80.57 0.993317 -80.57 0.114832 30.138
8.85680000 0.115461 -11.41 0.993241 -80.61 0.993241 -80.61 0.115476 30.131
8.85700000 0.116115 -11.48 0.993163 -80.65 0.993163 -80.65 0.116130 30.123
8.85706003 0.116314 -11.51 0.993140 -80.66 0.993140 -80.66 0.116329 30.121
8.85720000 0.116781 -11.56 0.993084 -80.69 0.993084 -80.69 0.116796 30.115
8.85740000 0.117458 -11.63 0.993003 -80.73 0.993003 -80.73 0.117473 30.107
8.85759303 0.118122 -11.70 0.992923 -80.77 0.992923 -80.77 0.118137 30.098
8.85760000 0.118146 -11.71 0.992920 -80.77 0.992920 -80.77 0.118162 30.098
8.85780000 0.118846 -11.78 0.992836 -80.81 0.992836 -80.81 0.118862 30.088
8.85800000 0.119559 -11.86 0.992749 -80.86 0.992749 -80.86 0.119574 30.078
8.85811383 0.119970 -11.90 0.992698 -80.88 0.992698 -80.88 0.119985 30.072
8.85820000 0.120283 -11.94 0.992660 -80.90 0.992660 -80.90 0.120299 30.068
8.85840000 0.121021 -12.02 0.992569 -80.94 0.992569 -80.94 0.121037 30.057
8.85860000 0.121772 -12.10 0.992475 -80.99 0.992475 -80.99 0.121788 30.045
8.85862269 0.121858 -12.10 0.992465 -80.99 0.992465 -80.99 0.121874 30.043
8.85880000 0.122536 -12.18 0.992380 -81.04 0.992380 -81.04 0.122553 30.033
8.85900000 0.123315 -12.26 0.992282 -81.08 0.992282 -81.08 0.123331 30.020
8.85911989 0.123788 -12.31 0.992222 -81.11 0.992222 -81.11 0.123805 30.011
8.85920000 0.124107 -12.34 0.992182 -81.13 0.992182 -81.13 0.124124 30.006
8.85940000 0.124914 -12.42 0.992079 -81.18 0.992079 -81.18 0.124931 29.992
8.85960000 0.125737 -12.51 0.991973 -81.23 0.991973 -81.23 0.125754 29.977
8.85960570 0.125760 -12.51 0.991970 -81.23 0.991970 -81.23 0.125777 29.976
8.85980000 0.126574 -12.59 0.991865 -81.28 0.991865 -81.28 0.126592 29.961
8.86000000 0.127428 -12.68 0.991754 -81.33 0.991754 -81.33 0.127445 29.945
8.86008037 0.127776 -12.72 0.991709 -81.35 0.991709 -81.35 0.127793 29.938
8.86020000 0.128298 -12.77 0.991640 -81.38 0.991640 -81.38 0.128316 29.927
8.86040000 0.129185 -12.86 0.991523 -81.43 0.991523 -81.43 0.129203 29.909
8.86054417 0.129835 -12.92 0.991437 -81.47 0.991437 -81.47 0.129853 29.896
8.86060000 0.130089 -12.95 0.991403 -81.49 0.991403 -81.49 0.130107 29.890
8.86080000 0.131011 -13.04 0.991280 -81.54 0.991280 -81.54 0.131030 29.871
8.86099735 0.131939 -13.13 0.991155 -81.60 0.991155 -81.60 0.131958 29.851
8.86100000 0.131952 -13.13 0.991153 -81.60 0.991153 -81.60 0.131970 29.850
8.86120000 0.132911 -13.23 0.991023 -81.66 0.991023 -81.66 0.132930 29.829
8.86140000 0.133890 -13.32 0.990889 -81.72 0.990889 -81.72 0.133909 29.806
8.86144014 0.134089 -13.34 0.990862 -81.73 0.990862 -81.73 0.134108 29.802
8.86160000 0.134889 -13.42 0.990751 -81.78 0.990751 -81.78 0.134908 29.783
8.86180000 0.135909 -13.52 0.990610 -81.84 0.990610 -81.84 0.135928 29.759
8.86187278 0.136285 -13.56 0.990557 -81.86 0.990557 -81.86 0.136305 29.749
8.86200000 0.136950 -13.62 0.990464 -81.90 0.990464 -81.90 0.136970 29.733
8.86220000 0.138013 -13.72 0.990314 -81.96 0.990314 -81.96 0.138033 29.707
8.86229551 0.138529 -13.77 0.990241 -81.99 0.990241 -81.99 0.138549 29.694
8.86240000 0.139099 -13.83 0.990160 -82.03 0.990160 -82.03 0.139120 29.679
8.86260000 0.140209 -13.93 0.990001 -82.09 0.990001 -82.09 0.140229 29.650
8.86270855 0.140821 -13.99 0.989912 -82.13 0.989912 -82.13 0.140842 29.634
8.86280000 0.141342 -14.04 0.989837 -82.16 0.989837 -82.16 0.141363 29.620
8.86300000 0.142501 -14.15 0.989668 -82.23 0.989668 -82.23 0.142522 29.589
8.86311213 0.143162 -14.21 0.989571 -82.27 0.989571 -82.27 0.143183 29.571
8.86320000 0.143686 -14.25 0.989494 -82.30 0.989494 -82.30 0.143707 29.556
8.86340000 0.144897 -14.37 0.989314 -82.37 0.989314 -82.37 0.144919 29.522
8.86350646 0.145554 -14.43 0.989216 -82.41 0.989216 -82.41 0.145575 29.504
8.86360000 0.146137 -14.48 0.989129 -82.45 0.989129 -82.45 0.146159 29.487
8.86380000 0.147404 -14.60 0.988938 -82.52 0.988938 -82.52 0.147427 29.450
8.86389176 0.147996 -14.65 0.988848 -82.56 0.988848 -82.56 0.148018 29.433
8.86400000 0.148702 -14.71 0.988740 -82.60 0.988740 -82.60 0.148724 29.412
8.86420000 0.150030 -14.83 0.988536 -82.68 0.988536 -82.68 0.150053 29.372
8.86426822 0.150490 -14.87 0.988465 -82.70 0.988465 -82.70 0.150513 29.358
8.86440000 0.151390 -14.95 0.988325 -82.76 0.988325 -82.76 0.151413 29.330
8.86460000 0.152782 -15.08 0.988107 -82.84 0.988107 -82.84 0.152806 29.287
8.86463606 0.153037 -15.10 0.988067 -82.86 0.988067 -82.86 0.153061 29.279
8.86480000 0.154209 -15.20 0.987882 -82.93 0.987882 -82.93 0.154233 29.242
8.86499547 0.155638 -15.33 0.987654 -83.01 0.987654 -83.01 0.155662 29.196
8.86500000 0.155672 -15.33 0.987649 -83.01 0.987649 -83.01 0.155696 29.195
8.86520000 0.157170 -15.46 0.987407 -83.10 0.987407 -83.10 0.157195 29.146
8.86534665 0.158294 -15.56 0.987225 -83.17 0.987225 -83.17 0.158318 29.109
8.86540000 0.158707 -15.60 0.987157 -83.19 0.987157 -83.19 0.158732 29.095
8.86560000 0.160284 -15.73 0.986898 -83.29 0.986898 -83.29 0.160309 29.042
8.86568978 0.161005 -15.79 0.986779 -83.33 0.986779 -83.33 0.161030 29.018
8.86580000 0.161901 -15.87 0.986630 -83.38 0.986630 -83.38 0.161927 28.987
8.86600000 0.163561 -16.01 0.986351 -83.48 0.986351 -83.48 0.163588 28.930
8.86602505 0.163772 -16.03 0.986316 -83.49 0.986316 -83.49 0.163799 28.922
8.86620000 0.165266 -16.16 0.986062 -83.58 0.986062 -83.58 0.165293 28.870
8.86635263 0.166598 -16.27 0.985834 -83.66 0.985834 -83.66 0.166625 28.823
8.86640000 0.167017 -16.30 0.985762 -83.68 0.985762 -83.68 0.167044 28.808
8.86660000 0.168815 -16.45 0.985450 -83.79 0.985450 -83.79 0.168843 28.743
8.86667271 0.169481 -16.51 0.985334 -83.83 0.985334 -83.83 0.169509 28.718
8.86680000 0.170664 -16.61 0.985126 -83.90 0.985126 -83.90 0.170692 28.675
8.86698546 0.172425 -16.75 0.984815 -84.01 0.984815 -84.01 0.172453 28.610
8.86700000 0.172565 -16.76 0.984790 -84.01 0.984790 -84.01 0.172593 28.605
8.86720000 0.174520 -16.93 0.984439 -84.13 0.984439 -84.13 0.174548 28.531
8.86729103 0.175428 -17.00 0.984275 -84.18 0.984275 -84.18 0.175457 28.497
8.86740000 0.176531 -17.09 0.984074 -84.25 0.984074 -84.25 0.176561 28.455
8.86758961 0.178493 -17.25 0.983714 -84.36 0.983714 -84.36 0.178523 28.379
8.86760000 0.178602 -17.26 0.983694 -84.37 0.983694 -84.37 0.178632 28.375
8.86780000 0.180734 -17.43 0.983297 -84.50 0.983297 -84.50 0.180765 28.292
8.86788135 0.181620 -17.50 0.983131 -84.55 0.983131 -84.55 0.181650 28.257
8.86800000 0.182931 -17.61 0.982884 -84.63 0.982884 -84.63 0.182962 28.205
8.86816640 0.184810 -17.75 0.982526 -84.74 0.982526 -84.74 0.184841 28.130
8.86820000 0.185195 -17.79 0.982452 -84.76 0.982452 -84.76 0.185227 28.115
8.86840000 0.187530 -17.97 0.982002 -84.90 0.982002 -84.90 0.187562 28.020
8.86844491 0.188064 -18.01 0.981897 -84.93 0.981897 -84.93 0.188097 27.998
8.86860000 0.189939 -18.16 0.981530 -85.04 0.981530 -85.04 0.189971 27.922
8.86871705 0.191384 -18.27 0.981245 -85.13 0.981245 -85.13 0.191417 27.862
8.86880000 0.192424 -18.35 0.981037 -85.19 0.981037 -85.19 0.192457 27.819
8.86898295 0.194769 -18.54 0.980566 -85.33 0.980566 -85.33 0.194803 27.720
8.86900000 0.194991 -18.55 0.980521 -85.34 0.980521 -85.34 0.195025 27.711
8.86920000 0.197643 -18.76 0.979981 -85.50 0.979981 -85.50 0.197677 27.599
8.86924276 0.198221 -18.80 0.979862 -85.53 0.979862 -85.53 0.198256 27.574
8.86940000 0.200384 -18.97 0.979414 -85.66 0.979414 -85.66 0.200419 27.481
8.86949661 0.201741 -19.07 0.979130 -85.74 0.979130 -85.74 0.201777 27.423
8.86960000 0.203218 -19.19 0.978819 -85.83 0.978819 -85.83 0.203254 27.359