! Sonnet Data File
! From: emgraph Version : 16.52
! From Project: transmon_brg
! Data is De-embedded 
! Data File Written: 11/11/2017 22:44:25
!< HDATE 11/11/2017 16:55:33
!< MDATE 11/11/2017 17:38:18
!< PARAMS
!< Lj = 15.24
!< Gap = 6.0
!< Width = 10.0
!< Airgap = 6.0
!< Pwidth = 2000.0
!< Dist = 1600.0
!< END PARAMS
# GHZ S MA R 51.80000
8.50000000 0.003397 -172.7 0.999990 -79.80 0.999990 -79.80 0.003396 -167.0
!< P1 F=8.5 Eeff=(6.44695349 -2.9785e-5) Z0=(51.7999087 1.19092e-4) R=0.0 C=0.0 
!< P2 F=8.5 Eeff=(6.44695349 -2.9785e-5) Z0=(51.7999087 1.19092e-4) R=0.0 C=0.0 
8.50020000 0.003412 -172.7 0.999990 -79.80 0.999990 -79.80 0.003412 -167.0
8.50040000 0.003428 -172.7 0.999990 -79.80 0.999990 -79.80 0.003427 -167.0
8.50060000 0.003443 -172.7 0.999990 -79.81 0.999990 -79.81 0.003443 -167.0
8.50080000 0.003459 -172.7 0.999989 -79.81 0.999989 -79.81 0.003458 -167.0
8.50100000 0.003474 -172.7 0.999989 -79.81 0.999989 -79.81 0.003474 -167.1
8.50120000 0.003490 -172.7 0.999989 -79.82 0.999989 -79.82 0.003489 -167.1
8.50140000 0.003505 -172.7 0.999989 -79.82 0.999989 -79.82 0.003505 -167.1
8.50160000 0.003521 -172.7 0.999989 -79.82 0.999989 -79.82 0.003521 -167.1
8.50180000 0.003537 -172.7 0.999989 -79.82 0.999989 -79.82 0.003536 -167.1
8.50200000 0.003552 -172.6 0.999989 -79.83 0.999989 -79.83 0.003552 -167.1
8.50220000 0.003568 -172.6 0.999989 -79.83 0.999989 -79.83 0.003568 -167.1
8.50240000 0.003584 -172.6 0.999989 -79.83 0.999989 -79.83 0.003583 -167.2
8.50260000 0.003599 -172.6 0.999989 -79.83 0.999989 -79.83 0.003599 -167.2
8.50280000 0.003615 -172.6 0.999989 -79.84 0.999989 -79.84 0.003615 -167.2
8.50300000 0.003631 -172.6 0.999989 -79.84 0.999989 -79.84 0.003630 -167.2
8.50320000 0.003647 -172.6 0.999989 -79.84 0.999989 -79.84 0.003646 -167.2
8.50340000 0.003662 -172.6 0.999989 -79.85 0.999989 -79.85 0.003662 -167.2
8.50360000 0.003678 -172.6 0.999989 -79.85 0.999989 -79.85 0.003678 -167.2
8.50380000 0.003694 -172.6 0.999989 -79.85 0.999989 -79.85 0.003694 -167.2
8.50400000 0.003710 -172.6 0.999989 -79.85 0.999989 -79.85 0.003710 -167.3
8.50420000 0.003726 -172.6 0.999988 -79.86 0.999988 -79.86 0.003725 -167.3
8.50440000 0.003742 -172.6 0.999988 -79.86 0.999988 -79.86 0.003741 -167.3
8.50460000 0.003758 -172.5 0.999988 -79.86 0.999988 -79.86 0.003757 -167.3
8.50480000 0.003774 -172.5 0.999988 -79.87 0.999988 -79.87 0.003773 -167.3
8.50500000 0.003789 -172.5 0.999988 -79.87 0.999988 -79.87 0.003789 -167.3
8.50520000 0.003805 -172.5 0.999988 -79.87 0.999988 -79.87 0.003805 -167.3
8.50540000 0.003822 -172.5 0.999988 -79.87 0.999988 -79.87 0.003821 -167.3
8.50560000 0.003838 -172.5 0.999988 -79.88 0.999988 -79.88 0.003837 -167.3
8.50580000 0.003854 -172.5 0.999988 -79.88 0.999988 -79.88 0.003853 -167.4
8.50600000 0.003870 -172.5 0.999988 -79.88 0.999988 -79.88 0.003869 -167.4
8.50620000 0.003886 -172.5 0.999988 -79.88 0.999988 -79.88 0.003886 -167.4
8.50640000 0.003902 -172.5 0.999988 -79.89 0.999988 -79.89 0.003902 -167.4
8.50660000 0.003918 -172.5 0.999988 -79.89 0.999988 -79.89 0.003918 -167.4
8.50680000 0.003934 -172.5 0.999988 -79.89 0.999988 -79.89 0.003934 -167.4
8.50700000 0.003951 -172.5 0.999988 -79.90 0.999988 -79.90 0.003950 -167.4
8.50720000 0.003967 -172.5 0.999988 -79.90 0.999988 -79.90 0.003966 -167.4
8.50740000 0.003983 -172.5 0.999987 -79.90 0.999987 -79.90 0.003983 -167.4
8.50760000 0.003999 -172.5 0.999987 -79.90 0.999987 -79.90 0.003999 -167.5
8.50780000 0.004016 -172.4 0.999987 -79.91 0.999987 -79.91 0.004015 -167.5
8.50800000 0.004032 -172.4 0.999987 -79.91 0.999987 -79.91 0.004032 -167.5
8.50820000 0.004048 -172.4 0.999987 -79.91 0.999987 -79.91 0.004048 -167.5
8.50840000 0.004065 -172.4 0.999987 -79.92 0.999987 -79.92 0.004064 -167.5
8.50860000 0.004081 -172.4 0.999987 -79.92 0.999987 -79.92 0.004081 -167.5
8.50880000 0.004098 -172.4 0.999987 -79.92 0.999987 -79.92 0.004097 -167.5
8.50900000 0.004114 -172.4 0.999987 -79.92 0.999987 -79.92 0.004114 -167.5
8.50920000 0.004130 -172.4 0.999987 -79.93 0.999987 -79.93 0.004130 -167.5
8.50940000 0.004147 -172.4 0.999987 -79.93 0.999987 -79.93 0.004147 -167.6
8.50960000 0.004163 -172.4 0.999987 -79.93 0.999987 -79.93 0.004163 -167.6
8.50980000 0.004180 -172.4 0.999987 -79.94 0.999987 -79.94 0.004180 -167.6
8.51000000 0.004197 -172.4 0.999987 -79.94 0.999987 -79.94 0.004196 -167.6
8.51020000 0.004213 -172.4 0.999986 -79.94 0.999986 -79.94 0.004213 -167.6
8.51040000 0.004230 -172.4 0.999986 -79.94 0.999986 -79.94 0.004230 -167.6
8.51060000 0.004246 -172.4 0.999986 -79.95 0.999986 -79.95 0.004246 -167.6
8.51080000 0.004263 -172.4 0.999986 -79.95 0.999986 -79.95 0.004263 -167.6
8.51100000 0.004280 -172.4 0.999986 -79.95 0.999986 -79.95 0.004280 -167.6
8.51120000 0.004297 -172.4 0.999986 -79.96 0.999986 -79.96 0.004296 -167.7
8.51140000 0.004313 -172.4 0.999986 -79.96 0.999986 -79.96 0.004313 -167.7
8.51160000 0.004330 -172.3 0.999986 -79.96 0.999986 -79.96 0.004330 -167.7
8.51180000 0.004347 -172.3 0.999986 -79.96 0.999986 -79.96 0.004347 -167.7
8.51200000 0.004364 -172.3 0.999986 -79.97 0.999986 -79.97 0.004363 -167.7
8.51220000 0.004380 -172.3 0.999986 -79.97 0.999986 -79.97 0.004380 -167.7
8.51240000 0.004397 -172.3 0.999986 -79.97 0.999986 -79.97 0.004397 -167.7
8.51260000 0.004414 -172.3 0.999986 -79.98 0.999986 -79.98 0.004414 -167.7
8.51280000 0.004431 -172.3 0.999985 -79.98 0.999985 -79.98 0.004431 -167.7
8.51300000 0.004448 -172.3 0.999985 -79.98 0.999985 -79.98 0.004448 -167.7
8.51320000 0.004465 -172.3 0.999985 -79.98 0.999985 -79.98 0.004465 -167.8
8.51340000 0.004482 -172.3 0.999985 -79.99 0.999985 -79.99 0.004482 -167.8
8.51360000 0.004499 -172.3 0.999985 -79.99 0.999985 -79.99 0.004499 -167.8
8.51380000 0.004516 -172.3 0.999985 -79.99 0.999985 -79.99 0.004516 -167.8
8.51400000 0.004533 -172.3 0.999985 -80.00 0.999985 -80.00 0.004533 -167.8
8.51420000 0.004550 -172.3 0.999985 -80.00 0.999985 -80.00 0.004550 -167.8
8.51440000 0.004567 -172.3 0.999985 -80.00 0.999985 -80.00 0.004567 -167.8
8.51460000 0.004585 -172.3 0.999985 -80.00 0.999985 -80.00 0.004584 -167.8
8.51480000 0.004602 -172.3 0.999985 -80.01 0.999985 -80.01 0.004601 -167.8
8.51500000 0.004619 -172.3 0.999985 -80.01 0.999985 -80.01 0.004619 -167.8
8.51520000 0.004636 -172.3 0.999985 -80.01 0.999985 -80.01 0.004636 -167.8
8.51540000 0.004653 -172.3 0.999984 -80.02 0.999984 -80.02 0.004653 -167.9
8.51560000 0.004671 -172.3 0.999984 -80.02 0.999984 -80.02 0.004670 -167.9
8.51580000 0.004688 -172.3 0.999984 -80.02 0.999984 -80.02 0.004688 -167.9
8.51600000 0.004705 -172.3 0.999984 -80.02 0.999984 -80.02 0.004705 -167.9
8.51620000 0.004723 -172.3 0.999984 -80.03 0.999984 -80.03 0.004722 -167.9
8.51640000 0.004740 -172.2 0.999984 -80.03 0.999984 -80.03 0.004740 -167.9
8.51660000 0.004757 -172.2 0.999984 -80.03 0.999984 -80.03 0.004757 -167.9
8.51680000 0.004775 -172.2 0.999984 -80.04 0.999984 -80.04 0.004775 -167.9
8.51700000 0.004792 -172.2 0.999984 -80.04 0.999984 -80.04 0.004792 -167.9
8.51720000 0.004810 -172.2 0.999984 -80.04 0.999984 -80.04 0.004809 -167.9
8.51740000 0.004827 -172.2 0.999984 -80.04 0.999984 -80.04 0.004827 -167.9
8.51760000 0.004845 -172.2 0.999984 -80.05 0.999984 -80.05 0.004844 -168.0
8.51780000 0.004862 -172.2 0.999983 -80.05 0.999983 -80.05 0.004862 -168.0
8.51800000 0.004880 -172.2 0.999983 -80.05 0.999983 -80.05 0.004880 -168.0
8.51820000 0.004898 -172.2 0.999983 -80.06 0.999983 -80.06 0.004897 -168.0
8.51840000 0.004915 -172.2 0.999983 -80.06 0.999983 -80.06 0.004915 -168.0
8.51860000 0.004933 -172.2 0.999983 -80.06 0.999983 -80.06 0.004933 -168.0
8.51880000 0.004950 -172.2 0.999983 -80.06 0.999983 -80.06 0.004950 -168.0
8.51900000 0.004968 -172.2 0.999983 -80.07 0.999983 -80.07 0.004968 -168.0
8.51920000 0.004986 -172.2 0.999983 -80.07 0.999983 -80.07 0.004986 -168.0
8.51940000 0.005004 -172.2 0.999983 -80.07 0.999983 -80.07 0.005003 -168.0
8.51960000 0.005022 -172.2 0.999983 -80.08 0.999983 -80.08 0.005021 -168.0
8.51980000 0.005039 -172.2 0.999983 -80.08 0.999983 -80.08 0.005039 -168.1
8.52000000 0.005057 -172.2 0.999982 -80.08 0.999982 -80.08 0.005057 -168.1
8.52020000 0.005075 -172.2 0.999982 -80.08 0.999982 -80.08 0.005075 -168.1
8.52040000 0.005093 -172.2 0.999982 -80.09 0.999982 -80.09 0.005093 -168.1
8.52060000 0.005111 -172.2 0.999982 -80.09 0.999982 -80.09 0.005111 -168.1
8.52080000 0.005129 -172.2 0.999982 -80.09 0.999982 -80.09 0.005129 -168.1
8.52100000 0.005147 -172.2 0.999982 -80.10 0.999982 -80.10 0.005147 -168.1
8.52120000 0.005165 -172.2 0.999982 -80.10 0.999982 -80.10 0.005165 -168.1
8.52140000 0.005183 -172.2 0.999982 -80.10 0.999982 -80.10 0.005183 -168.1
8.52160000 0.005201 -172.2 0.999982 -80.10 0.999982 -80.10 0.005201 -168.1
8.52180000 0.005219 -172.2 0.999982 -80.11 0.999982 -80.11 0.005219 -168.1
8.52200000 0.005237 -172.2 0.999981 -80.11 0.999981 -80.11 0.005237 -168.1
8.52220000 0.005255 -172.2 0.999981 -80.11 0.999981 -80.11 0.005255 -168.2
8.52240000 0.005274 -172.2 0.999981 -80.12 0.999981 -80.12 0.005273 -168.2
8.52260000 0.005292 -172.2 0.999981 -80.12 0.999981 -80.12 0.005292 -168.2
8.52280000 0.005310 -172.1 0.999981 -80.12 0.999981 -80.12 0.005310 -168.2
8.52300000 0.005328 -172.1 0.999981 -80.13 0.999981 -80.13 0.005328 -168.2
8.52320000 0.005347 -172.1 0.999981 -80.13 0.999981 -80.13 0.005346 -168.2
8.52340000 0.005365 -172.1 0.999981 -80.13 0.999981 -80.13 0.005365 -168.2
8.52360000 0.005383 -172.1 0.999981 -80.13 0.999981 -80.13 0.005383 -168.2
8.52380000 0.005402 -172.1 0.999981 -80.14 0.999981 -80.14 0.005401 -168.2
8.52400000 0.005420 -172.1 0.999980 -80.14 0.999980 -80.14 0.005420 -168.2
8.52420000 0.005438 -172.1 0.999980 -80.14 0.999980 -80.14 0.005438 -168.2
8.52440000 0.005457 -172.1 0.999980 -80.15 0.999980 -80.15 0.005457 -168.2
8.52460000 0.005475 -172.1 0.999980 -80.15 0.999980 -80.15 0.005475 -168.3
8.52480000 0.005494 -172.1 0.999980 -80.15 0.999980 -80.15 0.005494 -168.3
8.52500000 0.005512 -172.1 0.999980 -80.15 0.999980 -80.15 0.005512 -168.3
8.52520000 0.005531 -172.1 0.999980 -80.16 0.999980 -80.16 0.005531 -168.3
8.52540000 0.005550 -172.1 0.999980 -80.16 0.999980 -80.16 0.005549 -168.3
8.52560000 0.005568 -172.1 0.999980 -80.16 0.999980 -80.16 0.005568 -168.3
8.52580000 0.005587 -172.1 0.999980 -80.17 0.999980 -80.17 0.005587 -168.3
8.52600000 0.005606 -172.1 0.999979 -80.17 0.999979 -80.17 0.005605 -168.3
8.52620000 0.005624 -172.1 0.999979 -80.17 0.999979 -80.17 0.005624 -168.3
8.52640000 0.005643 -172.1 0.999979 -80.18 0.999979 -80.18 0.005643 -168.3
8.52660000 0.005662 -172.1 0.999979 -80.18 0.999979 -80.18 0.005662 -168.3
8.52680000 0.005681 -172.1 0.999979 -80.18 0.999979 -80.18 0.005680 -168.3
8.52700000 0.005699 -172.1 0.999979 -80.18 0.999979 -80.18 0.005699 -168.3
8.52720000 0.005718 -172.1 0.999979 -80.19 0.999979 -80.19 0.005718 -168.4
8.52740000 0.005737 -172.1 0.999979 -80.19 0.999979 -80.19 0.005737 -168.4
8.52760000 0.005756 -172.1 0.999979 -80.19 0.999979 -80.19 0.005756 -168.4
8.52780000 0.005775 -172.1 0.999978 -80.20 0.999978 -80.20 0.005775 -168.4
8.52800000 0.005794 -172.1 0.999978 -80.20 0.999978 -80.20 0.005794 -168.4
8.52820000 0.005813 -172.1 0.999978 -80.20 0.999978 -80.20 0.005813 -168.4
8.52840000 0.005832 -172.1 0.999978 -80.20 0.999978 -80.20 0.005832 -168.4
8.52860000 0.005851 -172.1 0.999978 -80.21 0.999978 -80.21 0.005851 -168.4
8.52880000 0.005870 -172.1 0.999978 -80.21 0.999978 -80.21 0.005870 -168.4
8.52900000 0.005889 -172.1 0.999978 -80.21 0.999978 -80.21 0.005889 -168.4
8.52920000 0.005909 -172.1 0.999978 -80.22 0.999978 -80.22 0.005908 -168.4
8.52940000 0.005928 -172.1 0.999978 -80.22 0.999978 -80.22 0.005928 -168.4
8.52960000 0.005947 -172.1 0.999977 -80.22 0.999977 -80.22 0.005947 -168.4
8.52980000 0.005966 -172.1 0.999977 -80.23 0.999977 -80.23 0.005966 -168.4
8.53000000 0.005986 -172.1 0.999977 -80.23 0.999977 -80.23 0.005985 -168.5
8.53020000 0.006005 -172.1 0.999977 -80.23 0.999977 -80.23 0.006005 -168.5
8.53040000 0.006024 -172.1 0.999977 -80.23 0.999977 -80.23 0.006024 -168.5
8.53060000 0.006044 -172.1 0.999977 -80.24 0.999977 -80.24 0.006043 -168.5
8.53080000 0.006063 -172.1 0.999977 -80.24 0.999977 -80.24 0.006063 -168.5
8.53100000 0.006082 -172.1 0.999977 -80.24 0.999977 -80.24 0.006082 -168.5
8.53120000 0.006102 -172.1 0.999976 -80.25 0.999976 -80.25 0.006102 -168.5
8.53140000 0.006121 -172.1 0.999976 -80.25 0.999976 -80.25 0.006121 -168.5
8.53160000 0.006141 -172.1 0.999976 -80.25 0.999976 -80.25 0.006141 -168.5
8.53180000 0.006160 -172.1 0.999976 -80.26 0.999976 -80.26 0.006160 -168.5
8.53200000 0.006180 -172.1 0.999976 -80.26 0.999976 -80.26 0.006180 -168.5
8.53220000 0.006200 -172.1 0.999976 -80.26 0.999976 -80.26 0.006199 -168.5
8.53240000 0.006219 -172.1 0.999976 -80.26 0.999976 -80.26 0.006219 -168.5
8.53260000 0.006239 -172.1 0.999976 -80.27 0.999976 -80.27 0.006239 -168.6
8.53280000 0.006259 -172.1 0.999975 -80.27 0.999975 -80.27 0.006258 -168.6
8.53300000 0.006278 -172.1 0.999975 -80.27 0.999975 -80.27 0.006278 -168.6
8.53320000 0.006298 -172.1 0.999975 -80.28 0.999975 -80.28 0.006298 -168.6
8.53340000 0.006318 -172.1 0.999975 -80.28 0.999975 -80.28 0.006318 -168.6
8.53360000 0.006338 -172.1 0.999975 -80.28 0.999975 -80.28 0.006338 -168.6
8.53380000 0.006358 -172.0 0.999975 -80.29 0.999975 -80.29 0.006357 -168.6
8.53400000 0.006378 -172.0 0.999975 -80.29 0.999975 -80.29 0.006377 -168.6
8.53420000 0.006398 -172.0 0.999975 -80.29 0.999975 -80.29 0.006397 -168.6
8.53440000 0.006417 -172.0 0.999974 -80.29 0.999974 -80.29 0.006417 -168.6
8.53460000 0.006437 -172.0 0.999974 -80.30 0.999974 -80.30 0.006437 -168.6
8.53480000 0.006457 -172.0 0.999974 -80.30 0.999974 -80.30 0.006457 -168.6
8.53500000 0.006478 -172.0 0.999974 -80.30 0.999974 -80.30 0.006477 -168.6
8.53520000 0.006498 -172.0 0.999974 -80.31 0.999974 -80.31 0.006497 -168.6
8.53540000 0.006518 -172.0 0.999974 -80.31 0.999974 -80.31 0.006518 -168.6
8.53560000 0.006538 -172.0 0.999974 -80.31 0.999974 -80.31 0.006538 -168.7
8.53580000 0.006558 -172.0 0.999973 -80.32 0.999973 -80.32 0.006558 -168.7
8.53600000 0.006578 -172.0 0.999973 -80.32 0.999973 -80.32 0.006578 -168.7
8.53620000 0.006599 -172.0 0.999973 -80.32 0.999973 -80.32 0.006598 -168.7
8.53640000 0.006619 -172.0 0.999973 -80.32 0.999973 -80.32 0.006619 -168.7
8.53660000 0.006639 -172.0 0.999973 -80.33 0.999973 -80.33 0.006639 -168.7
8.53680000 0.006660 -172.0 0.999973 -80.33 0.999973 -80.33 0.006659 -168.7
8.53700000 0.006680 -172.0 0.999973 -80.33 0.999973 -80.33 0.006680 -168.7
8.53720000 0.006700 -172.0 0.999973 -80.34 0.999973 -80.34 0.006700 -168.7
8.53740000 0.006721 -172.0 0.999972 -80.34 0.999972 -80.34 0.006721 -168.7
8.53760000 0.006741 -172.0 0.999972 -80.34 0.999972 -80.34 0.006741 -168.7
8.53780000 0.006762 -172.0 0.999972 -80.35 0.999972 -80.35 0.006762 -168.7
8.53800000 0.006782 -172.0 0.999972 -80.35 0.999972 -80.35 0.006782 -168.7
8.53820000 0.006803 -172.0 0.999972 -80.35 0.999972 -80.35 0.006803 -168.7
8.53840000 0.006823 -172.0 0.999972 -80.36 0.999972 -80.36 0.006823 -168.7
8.53860000 0.006844 -172.0 0.999972 -80.36 0.999972 -80.36 0.006844 -168.8
8.53880000 0.006865 -172.0 0.999971 -80.36 0.999971 -80.36 0.006865 -168.8
8.53900000 0.006886 -172.0 0.999971 -80.36 0.999971 -80.36 0.006885 -168.8
8.53920000 0.006906 -172.0 0.999971 -80.37 0.999971 -80.37 0.006906 -168.8
8.53940000 0.006927 -172.0 0.999971 -80.37 0.999971 -80.37 0.006927 -168.8
8.53960000 0.006948 -172.0 0.999971 -80.37 0.999971 -80.37 0.006948 -168.8
8.53980000 0.006969 -172.0 0.999971 -80.38 0.999971 -80.38 0.006969 -168.8
8.54000000 0.006990 -172.0 0.999970 -80.38 0.999970 -80.38 0.006989 -168.8
8.54020000 0.007011 -172.0 0.999970 -80.38 0.999970 -80.38 0.007010 -168.8
8.54040000 0.007031 -172.0 0.999970 -80.39 0.999970 -80.39 0.007031 -168.8
8.54060000 0.007052 -172.0 0.999970 -80.39 0.999970 -80.39 0.007052 -168.8
8.54080000 0.007073 -172.0 0.999970 -80.39 0.999970 -80.39 0.007073 -168.8
8.54100000 0.007095 -172.0 0.999970 -80.40 0.999970 -80.40 0.007094 -168.8
8.54120000 0.007116 -172.0 0.999970 -80.40 0.999970 -80.40 0.007115 -168.8
8.54140000 0.007137 -172.0 0.999969 -80.40 0.999969 -80.40 0.007137 -168.8
8.54160000 0.007158 -172.0 0.999969 -80.40 0.999969 -80.40 0.007158 -168.9
8.54180000 0.007179 -172.0 0.999969 -80.41 0.999969 -80.41 0.007179 -168.9
8.54200000 0.007200 -172.0 0.999969 -80.41 0.999969 -80.41 0.007200 -168.9
8.54220000 0.007222 -172.0 0.999969 -80.41 0.999969 -80.41 0.007221 -168.9
8.54240000 0.007243 -172.0 0.999969 -80.42 0.999969 -80.42 0.007243 -168.9
8.54260000 0.007264 -172.0 0.999968 -80.42 0.999968 -80.42 0.007264 -168.9
8.54280000 0.007286 -172.0 0.999968 -80.42 0.999968 -80.42 0.007285 -168.9
8.54300000 0.007307 -172.0 0.999968 -80.43 0.999968 -80.43 0.007307 -168.9
8.54320000 0.007328 -172.0 0.999968 -80.43 0.999968 -80.43 0.007328 -168.9
8.54340000 0.007350 -172.0 0.999968 -80.43 0.999968 -80.43 0.007350 -168.9
8.54360000 0.007371 -172.0 0.999968 -80.44 0.999968 -80.44 0.007371 -168.9
8.54380000 0.007393 -172.0 0.999968 -80.44 0.999968 -80.44 0.007393 -168.9
8.54400000 0.007414 -172.0 0.999967 -80.44 0.999967 -80.44 0.007414 -168.9
8.54420000 0.007436 -172.0 0.999967 -80.44 0.999967 -80.44 0.007436 -168.9
8.54440000 0.007458 -172.0 0.999967 -80.45 0.999967 -80.45 0.007458 -168.9
8.54460000 0.007479 -172.0 0.999967 -80.45 0.999967 -80.45 0.007479 -168.9
8.54480000 0.007501 -172.0 0.999967 -80.45 0.999967 -80.45 0.007501 -169.0
8.54500000 0.007523 -172.0 0.999967 -80.46 0.999967 -80.46 0.007523 -169.0
8.54520000 0.007545 -172.0 0.999966 -80.46 0.999966 -80.46 0.007544 -169.0
8.54540000 0.007566 -172.0 0.999966 -80.46 0.999966 -80.46 0.007566 -169.0
8.54560000 0.007588 -172.0 0.999966 -80.47 0.999966 -80.47 0.007588 -169.0
8.54580000 0.007610 -172.0 0.999966 -80.47 0.999966 -80.47 0.007610 -169.0
8.54600000 0.007632 -172.0 0.999966 -80.47 0.999966 -80.47 0.007632 -169.0
8.54620000 0.007654 -172.0 0.999966 -80.48 0.999966 -80.48 0.007654 -169.0
8.54640000 0.007676 -172.0 0.999965 -80.48 0.999965 -80.48 0.007676 -169.0
8.54660000 0.007698 -172.0 0.999965 -80.48 0.999965 -80.48 0.007698 -169.0
8.54680000 0.007720 -172.0 0.999965 -80.49 0.999965 -80.49 0.007720 -169.0
8.54700000 0.007742 -172.0 0.999965 -80.49 0.999965 -80.49 0.007742 -169.0
8.54720000 0.007765 -172.0 0.999965 -80.49 0.999965 -80.49 0.007764 -169.0
8.54740000 0.007787 -172.0 0.999964 -80.50 0.999964 -80.50 0.007787 -169.0
8.54760000 0.007809 -172.0 0.999964 -80.50 0.999964 -80.50 0.007809 -169.0
8.54780000 0.007831 -172.0 0.999964 -80.50 0.999964 -80.50 0.007831 -169.0
8.54800000 0.007854 -172.0 0.999964 -80.50 0.999964 -80.50 0.007853 -169.1
8.54820000 0.007876 -172.0 0.999964 -80.51 0.999964 -80.51 0.007876 -169.1
8.54840000 0.007898 -172.0 0.999964 -80.51 0.999964 -80.51 0.007898 -169.1
8.54860000 0.007921 -172.0 0.999963 -80.51 0.999963 -80.51 0.007921 -169.1
8.54880000 0.007943 -172.0 0.999963 -80.52 0.999963 -80.52 0.007943 -169.1
8.54900000 0.007966 -172.0 0.999963 -80.52 0.999963 -80.52 0.007965 -169.1
8.54920000 0.007988 -172.0 0.999963 -80.52 0.999963 -80.52 0.007988 -169.1
8.54940000 0.008011 -172.0 0.999963 -80.53 0.999963 -80.53 0.008011 -169.1
8.54960000 0.008033 -172.0 0.999962 -80.53 0.999962 -80.53 0.008033 -169.1
8.54980000 0.008056 -172.0 0.999962 -80.53 0.999962 -80.53 0.008056 -169.1
8.55000000 0.008079 -172.0 0.999962 -80.54 0.999962 -80.54 0.008079 -169.1
8.55020000 0.008101 -172.0 0.999962 -80.54 0.999962 -80.54 0.008101 -169.1
8.55040000 0.008124 -172.0 0.999962 -80.54 0.999962 -80.54 0.008124 -169.1
8.55060000 0.008147 -172.0 0.999962 -80.55 0.999962 -80.55 0.008147 -169.1
8.55080000 0.008170 -172.0 0.999961 -80.55 0.999961 -80.55 0.008170 -169.1
8.55100000 0.008193 -172.0 0.999961 -80.55 0.999961 -80.55 0.008193 -169.1
8.55120000 0.008216 -172.0 0.999961 -80.56 0.999961 -80.56 0.008215 -169.2
8.55140000 0.008239 -172.0 0.999961 -80.56 0.999961 -80.56 0.008238 -169.2
8.55160000 0.008262 -172.0 0.999961 -80.56 0.999961 -80.56 0.008261 -169.2
8.55180000 0.008285 -172.0 0.999960 -80.56 0.999960 -80.56 0.008284 -169.2
8.55200000 0.008308 -172.0 0.999960 -80.57 0.999960 -80.57 0.008307 -169.2
8.55220000 0.008331 -172.0 0.999960 -80.57 0.999960 -80.57 0.008331 -169.2
8.55240000 0.008354 -172.0 0.999960 -80.57 0.999960 -80.57 0.008354 -169.2
8.55260000 0.008377 -172.0 0.999960 -80.58 0.999960 -80.58 0.008377 -169.2
8.55280000 0.008400 -172.0 0.999959 -80.58 0.999959 -80.58 0.008400 -169.2
8.55300000 0.008424 -172.0 0.999959 -80.58 0.999959 -80.58 0.008423 -169.2
8.55320000 0.008447 -172.0 0.999959 -80.59 0.999959 -80.59 0.008447 -169.2
8.55340000 0.008470 -172.0 0.999959 -80.59 0.999959 -80.59 0.008470 -169.2
8.55360000 0.008494 -172.0 0.999959 -80.59 0.999959 -80.59 0.008493 -169.2
8.55380000 0.008517 -172.0 0.999958 -80.60 0.999958 -80.60 0.008517 -169.2
8.55400000 0.008541 -172.0 0.999958 -80.60 0.999958 -80.60 0.008540 -169.2
8.55420000 0.008564 -172.0 0.999958 -80.60 0.999958 -80.60 0.008564 -169.2
8.55440000 0.008588 -172.0 0.999958 -80.61 0.999958 -80.61 0.008587 -169.2
8.55460000 0.008611 -172.0 0.999958 -80.61 0.999958 -80.61 0.008611 -169.3
8.55480000 0.008635 -172.0 0.999957 -80.61 0.999957 -80.61 0.008635 -169.3
8.55500000 0.008659 -172.0 0.999957 -80.62 0.999957 -80.62 0.008658 -169.3
8.55520000 0.008682 -172.0 0.999957 -80.62 0.999957 -80.62 0.008682 -169.3
8.55540000 0.008706 -172.0 0.999957 -80.62 0.999957 -80.62 0.008706 -169.3
8.55560000 0.008730 -172.0 0.999957 -80.63 0.999957 -80.63 0.008730 -169.3
8.55580000 0.008754 -172.0 0.999956 -80.63 0.999956 -80.63 0.008753 -169.3
8.55600000 0.008777 -172.0 0.999956 -80.63 0.999956 -80.63 0.008777 -169.3
8.55620000 0.008801 -172.0 0.999956 -80.64 0.999956 -80.64 0.008801 -169.3
8.55640000 0.008825 -172.0 0.999956 -80.64 0.999956 -80.64 0.008825 -169.3
8.55660000 0.008849 -172.0 0.999955 -80.64 0.999955 -80.64 0.008849 -169.3
8.55680000 0.008873 -172.0 0.999955 -80.65 0.999955 -80.65 0.008873 -169.3
8.55700000 0.008897 -172.0 0.999955 -80.65 0.999955 -80.65 0.008897 -169.3
8.55720000 0.008922 -172.0 0.999955 -80.65 0.999955 -80.65 0.008921 -169.3
8.55740000 0.008946 -172.0 0.999955 -80.66 0.999955 -80.66 0.008946 -169.3
8.55760000 0.008970 -172.0 0.999954 -80.66 0.999954 -80.66 0.008970 -169.3
8.55780000 0.008994 -172.0 0.999954 -80.66 0.999954 -80.66 0.008994 -169.3
8.55800000 0.009019 -172.0 0.999954 -80.67 0.999954 -80.67 0.009018 -169.3
8.55820000 0.009043 -172.0 0.999954 -80.67 0.999954 -80.67 0.009043 -169.4
8.55840000 0.009067 -172.0 0.999953 -80.67 0.999953 -80.67 0.009067 -169.4
8.55860000 0.009092 -172.0 0.999953 -80.67 0.999953 -80.67 0.009092 -169.4
8.55880000 0.009116 -172.0 0.999953 -80.68 0.999953 -80.68 0.009116 -169.4
8.55900000 0.009141 -172.0 0.999953 -80.68 0.999953 -80.68 0.009140 -169.4
8.55920000 0.009165 -172.0 0.999953 -80.68 0.999953 -80.68 0.009165 -169.4
8.55940000 0.009190 -172.0 0.999952 -80.69 0.999952 -80.69 0.009190 -169.4
8.55960000 0.009214 -172.0 0.999952 -80.69 0.999952 -80.69 0.009214 -169.4
8.55980000 0.009239 -172.0 0.999952 -80.69 0.999952 -80.69 0.009239 -169.4
8.56000000 0.009264 -172.0 0.999952 -80.70 0.999952 -80.70 0.009264 -169.4
8.56020000 0.009289 -172.0 0.999951 -80.70 0.999951 -80.70 0.009288 -169.4
8.56040000 0.009313 -172.0 0.999951 -80.70 0.999951 -80.70 0.009313 -169.4
8.56060000 0.009338 -172.0 0.999951 -80.71 0.999951 -80.71 0.009338 -169.4
8.56080000 0.009363 -172.0 0.999951 -80.71 0.999951 -80.71 0.009363 -169.4
8.56100000 0.009388 -172.0 0.999950 -80.71 0.999950 -80.71 0.009388 -169.4
8.56120000 0.009413 -172.0 0.999950 -80.72 0.999950 -80.72 0.009413 -169.4
8.56140000 0.009438 -172.1 0.999950 -80.72 0.999950 -80.72 0.009438 -169.4
8.56160000 0.009463 -172.1 0.999950 -80.72 0.999950 -80.72 0.009463 -169.5
8.56180000 0.009488 -172.1 0.999949 -80.73 0.999949 -80.73 0.009488 -169.5
8.56200000 0.009514 -172.1 0.999949 -80.73 0.999949 -80.73 0.009513 -169.5
8.56220000 0.009539 -172.1 0.999949 -80.73 0.999949 -80.73 0.009539 -169.5
8.56240000 0.009564 -172.1 0.999949 -80.74 0.999949 -80.74 0.009564 -169.5
8.56260000 0.009589 -172.1 0.999949 -80.74 0.999949 -80.74 0.009589 -169.5
8.56280000 0.009615 -172.1 0.999948 -80.74 0.999948 -80.74 0.009614 -169.5
8.56300000 0.009640 -172.1 0.999948 -80.75 0.999948 -80.75 0.009640 -169.5
8.56320000 0.009665 -172.1 0.999948 -80.75 0.999948 -80.75 0.009665 -169.5
8.56340000 0.009691 -172.1 0.999948 -80.75 0.999948 -80.75 0.009691 -169.5
8.56360000 0.009716 -172.1 0.999947 -80.76 0.999947 -80.76 0.009716 -169.5
8.56380000 0.009742 -172.1 0.999947 -80.76 0.999947 -80.76 0.009742 -169.5
8.56400000 0.009768 -172.1 0.999947 -80.76 0.999947 -80.76 0.009767 -169.5
8.56420000 0.009793 -172.1 0.999947 -80.77 0.999947 -80.77 0.009793 -169.5
8.56440000 0.009819 -172.1 0.999946 -80.77 0.999946 -80.77 0.009819 -169.5
8.56460000 0.009845 -172.1 0.999946 -80.77 0.999946 -80.77 0.009845 -169.5
8.56480000 0.009871 -172.1 0.999946 -80.78 0.999946 -80.78 0.009870 -169.5
8.56500000 0.009896 -172.1 0.999945 -80.78 0.999945 -80.78 0.009896 -169.5
8.56520000 0.009922 -172.1 0.999945 -80.78 0.999945 -80.78 0.009922 -169.6
8.56540000 0.009948 -172.1 0.999945 -80.79 0.999945 -80.79 0.009948 -169.6
8.56560000 0.009974 -172.1 0.999945 -80.79 0.999945 -80.79 0.009974 -169.6
8.56580000 0.010000 -172.1 0.999944 -80.79 0.999944 -80.79 0.010000 -169.6
8.56600000 0.010026 -172.1 0.999944 -80.80 0.999944 -80.80 0.010026 -169.6
8.56620000 0.010052 -172.1 0.999944 -80.80 0.999944 -80.80 0.010052 -169.6
8.56640000 0.010079 -172.1 0.999944 -80.80 0.999944 -80.80 0.010078 -169.6
8.56660000 0.010105 -172.1 0.999943 -80.81 0.999943 -80.81 0.010105 -169.6
8.56680000 0.010131 -172.1 0.999943 -80.81 0.999943 -80.81 0.010131 -169.6
8.56700000 0.010157 -172.1 0.999943 -80.81 0.999943 -80.81 0.010157 -169.6
8.56720000 0.010184 -172.1 0.999943 -80.82 0.999943 -80.82 0.010184 -169.6
8.56740000 0.010210 -172.1 0.999942 -80.82 0.999942 -80.82 0.010210 -169.6
8.56760000 0.010237 -172.1 0.999942 -80.82 0.999942 -80.82 0.010237 -169.6
8.56780000 0.010263 -172.1 0.999942 -80.83 0.999942 -80.83 0.010263 -169.6
8.56800000 0.010290 -172.1 0.999941 -80.83 0.999941 -80.83 0.010290 -169.6
8.56820000 0.010316 -172.1 0.999941 -80.84 0.999941 -80.84 0.010316 -169.6
8.56840000 0.010343 -172.1 0.999941 -80.84 0.999941 -80.84 0.010343 -169.6
8.56860000 0.010370 -172.1 0.999941 -80.84 0.999941 -80.84 0.010370 -169.6
8.56880000 0.010396 -172.1 0.999940 -80.85 0.999940 -80.85 0.010396 -169.6
8.56900000 0.010423 -172.1 0.999940 -80.85 0.999940 -80.85 0.010423 -169.7
8.56920000 0.010450 -172.1 0.999940 -80.85 0.999940 -80.85 0.010450 -169.7
8.56940000 0.010477 -172.1 0.999939 -80.86 0.999939 -80.86 0.010477 -169.7
8.56960000 0.010504 -172.1 0.999939 -80.86 0.999939 -80.86 0.010504 -169.7
8.56980000 0.010531 -172.1 0.999939 -80.86 0.999939 -80.86 0.010531 -169.7
8.57000000 0.010558 -172.1 0.999939 -80.87 0.999939 -80.87 0.010558 -169.7
8.57020000 0.010585 -172.1 0.999938 -80.87 0.999938 -80.87 0.010585 -169.7
8.57040000 0.010612 -172.1 0.999938 -80.87 0.999938 -80.87 0.010612 -169.7
8.57060000 0.010639 -172.1 0.999938 -80.88 0.999938 -80.88 0.010639 -169.7
8.57080000 0.010667 -172.1 0.999937 -80.88 0.999937 -80.88 0.010667 -169.7
8.57100000 0.010694 -172.1 0.999937 -80.88 0.999937 -80.88 0.010694 -169.7
8.57120000 0.010721 -172.1 0.999937 -80.89 0.999937 -80.89 0.010721 -169.7
8.57140000 0.010749 -172.1 0.999937 -80.89 0.999937 -80.89 0.010749 -169.7
8.57160000 0.010776 -172.1 0.999936 -80.89 0.999936 -80.89 0.010776 -169.7
8.57180000 0.010804 -172.1 0.999936 -80.90 0.999936 -80.90 0.010803 -169.7
8.57200000 0.010831 -172.1 0.999936 -80.90 0.999936 -80.90 0.010831 -169.7
8.57220000 0.010859 -172.1 0.999935 -80.90 0.999935 -80.90 0.010859 -169.7
8.57240000 0.010886 -172.1 0.999935 -80.91 0.999935 -80.91 0.010886 -169.7
8.57260000 0.010914 -172.1 0.999935 -80.91 0.999935 -80.91 0.010914 -169.8
8.57280000 0.010942 -172.1 0.999934 -80.91 0.999934 -80.91 0.010942 -169.8
8.57300000 0.010970 -172.1 0.999934 -80.92 0.999934 -80.92 0.010970 -169.8
8.57320000 0.010998 -172.1 0.999934 -80.92 0.999934 -80.92 0.010997 -169.8
8.57340000 0.011025 -172.1 0.999933 -80.92 0.999933 -80.92 0.011025 -169.8
8.57360000 0.011053 -172.1 0.999933 -80.93 0.999933 -80.93 0.011053 -169.8
8.57380000 0.011081 -172.1 0.999933 -80.93 0.999933 -80.93 0.011081 -169.8
8.57400000 0.011109 -172.1 0.999933 -80.94 0.999933 -80.94 0.011109 -169.8
8.57420000 0.011138 -172.1 0.999932 -80.94 0.999932 -80.94 0.011137 -169.8
8.57440000 0.011166 -172.1 0.999932 -80.94 0.999932 -80.94 0.011166 -169.8
8.57460000 0.011194 -172.1 0.999932 -80.95 0.999932 -80.95 0.011194 -169.8
8.57480000 0.011222 -172.1 0.999931 -80.95 0.999931 -80.95 0.011222 -169.8
8.57500000 0.011251 -172.1 0.999931 -80.95 0.999931 -80.95 0.011250 -169.8
8.57520000 0.011279 -172.1 0.999931 -80.96 0.999931 -80.96 0.011279 -169.8
8.57540000 0.011307 -172.1 0.999930 -80.96 0.999930 -80.96 0.011307 -169.8
8.57560000 0.011336 -172.1 0.999930 -80.96 0.999930 -80.96 0.011336 -169.8
8.57580000 0.011364 -172.1 0.999930 -80.97 0.999930 -80.97 0.011364 -169.8
8.57600000 0.011393 -172.1 0.999929 -80.97 0.999929 -80.97 0.011393 -169.8
8.57620000 0.011422 -172.1 0.999929 -80.97 0.999929 -80.97 0.011422 -169.8
8.57640000 0.011450 -172.1 0.999929 -80.98 0.999929 -80.98 0.011450 -169.9
8.57660000 0.011479 -172.1 0.999928 -80.98 0.999928 -80.98 0.011479 -169.9
8.57680000 0.011508 -172.2 0.999928 -80.98 0.999928 -80.98 0.011508 -169.9
8.57700000 0.011537 -172.2 0.999928 -80.99 0.999928 -80.99 0.011537 -169.9
8.57720000 0.011566 -172.2 0.999927 -80.99 0.999927 -80.99 0.011566 -169.9
8.57740000 0.011595 -172.2 0.999927 -80.99 0.999927 -80.99 0.011595 -169.9
8.57760000 0.011624 -172.2 0.999927 -81.00 0.999927 -81.00 0.011624 -169.9
8.57780000 0.011653 -172.2 0.999926 -81.00 0.999926 -81.00 0.011653 -169.9
8.57800000 0.011682 -172.2 0.999926 -81.01 0.999926 -81.01 0.011682 -169.9
8.57820000 0.011711 -172.2 0.999926 -81.01 0.999926 -81.01 0.011711 -169.9
8.57840000 0.011740 -172.2 0.999925 -81.01 0.999925 -81.01 0.011740 -169.9