! Sonnet Data File
! From: emgraph Version : 16.52
! From Project: 171114transmon_trace_brg2
! Data is De-embedded 
! Data File Written: 11/14/2017 18:06:48
!< HDATE 11/14/2017 15:42:32
!< MDATE 11/14/2017 15:42:32
!< PARAMS
!< Lj = 15.24
!< Gap = 14.0
!< Width = 10.0
!< Airgap = 6.0
!< Pwidth = 2000.0
!< Dist = 400.0
!< END PARAMS
# GHZ S MA R 51.90000
8.615000000000000 0.0348195728664 -170.7092757490 0.9993210283799 -80.66784055549 0.9993210283793 -80.66784055537 0.0348192916354 -170.8622812831
!< P1 F=8.615 Eeff=(6.44688234 -2.9785e-5) Z0=(51.7995732 1.19081e-4) R=0.0 C=0.0 
!< P2 F=8.615 Eeff=(6.44688234 -2.9785e-5) Z0=(51.7995732 1.19081e-4) R=0.0 C=0.0 
8.615005000000000 0.0348392972953 -170.7104713187 0.9993202478487 -80.66901703002 0.9993202478487 -80.66901703002 0.0348390155577 -170.8636114784
8.615010000000000 0.0348590517563 -170.7116757562 0.9993194614680 -80.67019523638 0.9993194614680 -80.67019523638 0.0348587697834 -170.8649503534
8.615015000000001 0.0348788338562 -170.7128818987 0.9993186735266 -80.67137502804 0.9993186735266 -80.67137502804 0.0348785516477 -170.8662909692
8.615020000000001 0.0348986435645 -170.7140897444 0.9993178840238 -80.67255640327 0.9993178840238 -80.67255640327 0.0348983611201 -170.8676333237
8.615025000000001 0.0349184810407 -170.7152993022 0.9993170929518 -80.67373937119 0.9993170929518 -80.67373937119 0.0349181983599 -170.8689774261
8.615030000000001 0.0349383462556 -170.7165105685 0.9993163003110 -80.67492393016 0.9993163003110 -80.67492393016 0.0349380633382 -170.8703232726
8.615035000000001 0.0349582393255 -170.7177235547 0.9993155060923 -80.67611008682 0.9993155060923 -80.67611008682 0.0349579561710 -170.8716708747
8.615040000000000 0.0349781602436 -170.7189382570 0.9993147102960 -80.67729784082 0.9993147102960 -80.67729784082 0.0349778768518 -170.8730202284
8.615045000000000 0.0349981091464 -170.7201546857 0.9993139129137 -80.67848719996 0.9993139129137 -80.67848719996 0.0349978255169 -170.8743713444
8.615050000000000 0.0350180860665 -170.7213728417 0.9993131139426 -80.67967816612 0.9993131139426 -80.67967816612 0.0350178021989 -170.8757242234
8.615055000000000 0.0350380910411 -170.7225927275 0.9993123133794 -80.68087074144 0.9993123133794 -80.68087074144 0.0350378069352 -170.8770788679
8.615060000000000 0.0350581241494 -170.7238143496 0.9993115112177 -80.68206493047 0.9993115112177 -80.68206493047 0.0350578398047 -170.8784352846
8.615065000000001 0.0350781854369 -170.7250377074 0.9993107074561 -80.68326073581 0.9993107074561 -80.68326073581 0.0350779008531 -170.8797934726
8.615070000000001 0.0350982749791 -170.7262628093 0.9993099020870 -80.68445816180 0.9993099020870 -80.68445816180 0.0350979901558 -170.8811534405
8.615075000000001 0.0351183928081 -170.7274896575 0.9993090951072 -80.68565721028 0.9993090951072 -80.68565721028 0.0351181077450 -170.8825151905
8.615080000000001 0.0351385390338 -170.7287182560 0.9993082865119 -80.68685788755 0.9993082865119 -80.68685788755 0.0351382537305 -170.8838787268
8.615085000000001 0.0351587136333 -170.7299486044 0.9993074762996 -80.68806019232 0.9993074762996 -80.68806019232 0.0351584280895 -170.8852440483
8.615090000000000 0.0351789167545 -170.7311807119 0.9993066644620 -80.68926413305 0.9993066644620 -80.68926413305 0.0351786309699 -170.8866111651
8.615095000000000 0.0351991484437 -170.7324145803 0.9993058509960 -80.69046971242 0.9993058509960 -80.69046971242 0.0351988624179 -170.8879800788
8.615100000000000 0.0352194087015 -170.7336502129 0.9993050358977 -80.69167693045 0.9993050358977 -80.69167693045 0.0352191224341 -170.8893507923
8.615105000000000 0.0352396976588 -170.7348876150 0.9993042191613 -80.69288579466 0.9993042191613 -80.69288579466 0.0352394111494 -170.8907233113
8.615110000000001 0.0352600153018 -170.7361267870 0.9993034007847 -80.69409630425 0.9993034007847 -80.69409630425 0.0352597285501 -170.8920976359
8.615115000000001 0.0352803617662 -170.7373677382 0.9993025807597 -80.69530846702 0.9993025807597 -80.69530846702 0.0352800747719 -170.8934737759
8.615120000000001 0.0353007370602 -170.7386104651 0.9993017590865 -80.69652228343 0.9993017590865 -80.69652228343 0.0353004498228 -170.8948517273
8.615125000000001 0.0353211412938 -170.7398549772 0.9993009357569 -80.69773775980 0.9993009357569 -80.69773775980 0.0353208538131 -170.8962314999
8.615130000000001 0.0353415744709 -170.7411012781 0.9993001107666 -80.69895489636 0.9993001107666 -80.69895489636 0.0353412867465 -170.8976130972
8.615135000000000 0.0353620367048 -170.7423493709 0.9992992841113 -80.70017369959 0.9992992841113 -80.70017369959 0.0353617487362 -170.8989965224
8.615140000000000 0.0353825280660 -170.7435992561 0.9992984557884 -80.70139417357 0.9992984557884 -80.70139417357 0.0353822398531 -170.9003817763
8.615145000000000 0.0354030484994 -170.7448509395 0.9992976257927 -80.70261631511 0.9992976257927 -80.70261631511 0.0354027600416 -170.9017688638
8.615150000000000 0.0354235982318 -170.7461044283 0.9992967941168 -80.70384013723 0.9992967941168 -80.70384013723 0.0354233095288 -170.9031577931
8.615155000000000 0.0354441771987 -170.7473597214 0.9992959607595 -80.70506563625 0.9992959607595 -80.70506563625 0.0354438882502 -170.9045485625
8.615160000000001 0.0354647855452 -170.7486168287 0.9992951257122 -80.70629282047 0.9992951257122 -80.70629282047 0.0354644963508 -170.9059411823
8.615165000000001 0.0354854232812 -170.7498757475 0.9992942889746 -80.70752169047 0.9992942889746 -80.70752169047 0.0354851338405 -170.9073356496
8.615170000000001 0.0355060905075 -170.7511364861 0.9992934505390 -80.70875225204 0.9992934505390 -80.70875225204 0.0355058008201 -170.9087319728
8.615175000000001 0.0355267872658 -170.7523990473 0.9992926104015 -80.70998450757 0.9992926104015 -80.70998450757 0.0355264973315 -170.9101301547
8.615180000000001 0.0355475135988 -170.7536634349 0.9992917685577 -80.71121845951 0.9992917685577 -80.71121845951 0.0355472234170 -170.9115301989
8.615185000000000 0.0355682696182 -170.7549296525 0.9992909250026 -80.71245411428 0.9992909250026 -80.71245411428 0.0355679791887 -170.9129321093
8.615190000000000 0.0355890553656 -170.7561977028 0.9992900797325 -80.71369147425 0.9992900797325 -80.71369147425 0.0355887646880 -170.9143358887
8.615195000000000 0.0356098709088 -170.7574675951 0.9992892327393 -80.71493054333 0.9992892327393 -80.71493054333 0.0356095799827 -170.9157415461
8.615200000000000 0.0356307162590 -170.7587393269 0.9992883840224 -80.71617132215 0.9992883840224 -80.71617132215 0.0356304250840 -170.9171490790
8.615205000000001 0.0356515915781 -170.7600129040 0.9992875335755 -80.71741382000 0.9992875335755 -80.71741382000 0.0356513001538 -170.9185584936
8.615210000000001 0.0356724968571 -170.7612883343 0.9992866813915 -80.71865803638 0.9992866813915 -80.71865803638 0.0356722051833 -170.9199697975
8.615215000000001 0.0356934322140 -170.7625656185 0.9992858274677 -80.71990397805 0.9992858274677 -80.71990397805 0.0356931402902 -170.9213829915
8.615220000000001 0.0357143976481 -170.7638447578 0.9992849718009 -80.72115164497 0.9992849718009 -80.72115164497 0.0357141054739 -170.9227980768
8.615225000000001 0.0357353932657 -170.7651257620 0.9992841143828 -80.72240104325 0.9992841143828 -80.72240104325 0.0357351008408 -170.9242150631
8.615230000000000 0.0357564191393 -170.7664086321 0.9992832552102 -80.72365217705 0.9992832552102 -80.72365217705 0.0357561264633 -170.9256339518
8.615235000000000 0.0357774752945 -170.7676933729 0.9992823942779 -80.72490504783 0.9992823942779 -80.72490504783 0.0357771823669 -170.9270547471
8.615240000000000 0.0357985618638 -170.7689799886 0.9992815315807 -80.72615966320 0.9992815315807 -80.72615966320 0.0357982686844 -170.9284774540
8.615245000000000 0.0358196788107 -170.7702684807 0.9992806671156 -80.72741602107 0.9992806671156 -80.72741602107 0.0358193853791 -170.9299020731
8.615250000000001 0.0358408262925 -170.7715588567 0.9992798008751 -80.72867413046 0.9992798008751 -80.72867413046 0.0358405326082 -170.9313286126
8.615255000000001 0.0358620043522 -170.7728511195 0.9992789328551 -80.72993399384 0.9992789328551 -80.72993399384 0.0358617104149 -170.9327570752
8.615260000000001 0.0358832130562 -170.7741452770 0.9992780630484 -80.73119561503 0.9992780630484 -80.73119561503 0.0358829188655 -170.9341874689
8.615265000000001 0.0359044524348 -170.7754413250 0.9992771914551 -80.73245899576 0.9992771914551 -80.73245899576 0.0359041579904 -170.9356197892
8.615270000000001 0.0359257226139 -170.7767392733 0.9992763180665 -80.73372414326 0.9992763180665 -80.73372414326 0.0359254279153 -170.9370540464
8.615275000000000 0.0359470236194 -170.7780391263 0.9992754428776 -80.73499105902 0.9992754428776 -80.73499105902 0.0359467286663 -170.9384902446
8.615280000000000 0.0359683555509 -170.7793408882 0.9992745658830 -80.73625974875 0.9992745658830 -80.73625974875 0.0359680603428 -170.9399283882
8.615285000000000 0.0359897184211 -170.7806445580 0.9992736870813 -80.73753021318 0.9992736870813 -80.73753021319 0.0359894229578 -170.9413684760
8.615290000000000 0.0360111123349 -170.7819501480 0.9992728064620 -80.73880245834 0.9992728064620 -80.73880245834 0.0360108166158 -170.9428105203
8.615295000000000 0.0360325373981 -170.7832576562 0.9992719240239 -80.74007649030 0.9992719240239 -80.74007649030 0.0360322414230 -170.9442545195
8.615300000000001 0.0360539935904 -170.7845670899 0.9992710397600 -80.74135230788 0.9992710397600 -80.74135230788 0.0360536973587 -170.9457004804
8.615305000000001 0.0360754810206 -170.7858784499 0.9992701536674 -80.74262991734 0.9992701536674 -80.74262991734 0.0360751845321 -170.9471484040
8.615310000000001 0.0360969997908 -170.7871917451 0.9992692657376 -80.74390932454 0.9992692657376 -80.74390932454 0.0360967030451 -170.9485982994
8.615315000000001 0.0361185499079 -170.7885069760 0.9992683759682 -80.74519052987 0.9992683759682 -80.74519052987 0.0361182529045 -170.9500501669
8.615320000000001 0.0361401314872 -170.7898241498 0.9992674843519 -80.74647353995 0.9992674843519 -80.74647353995 0.0361398342257 -170.9515040138
8.615325000000000 0.0361617446192 -170.7911432692 0.9992665908843 -80.74775835999 0.9992665908843 -80.74775835999 0.0361614470994 -170.9529598431
8.615330000000000 0.0361833892946 -170.7924643390 0.9992656955602 -80.74904498943 0.9992656955602 -80.74904498943 0.0361830915160 -170.9544176590
8.615335000000000 0.0362050656648 -170.7937873632 0.9992647983742 -80.75033343698 0.9992647983742 -80.75033343698 0.0362047676270 -170.9558774660
8.615340000000000 0.0362267737113 -170.7951123468 0.9992638993209 -80.75162370156 0.9992638993209 -80.75162370156 0.0362264754138 -170.9573392688
8.615345000000001 0.0362485135660 -170.7964392913 0.9992629983966 -80.75291579076 0.9992629983966 -80.75291579076 0.0362482150085 -170.9588030690
8.615350000000001 0.0362702853201 -170.7977682064 0.9992620955923 -80.75420970981 0.9992620955923 -80.75420970981 0.0362699865022 -170.9602688768
8.615355000000001 0.0362920889614 -170.7990990904 0.9992611909069 -80.75550545800 0.9992611909069 -80.75550545800 0.0362917898827 -170.9617366897
8.615360000000001 0.0363139246479 -170.8004319534 0.9992602843313 -80.75680304441 0.9992602843313 -80.75680304441 0.0363136253079 -170.9632065185
8.615365000000001 0.0363357923795 -170.8017667951 0.9992593758629 -80.75810246903 0.9992593758629 -80.75810246903 0.0363354927780 -170.9646783624
8.615370000000000 0.0363576922796 -170.8031036220 0.9992584654951 -80.75940373895 0.9992584654951 -80.75940373895 0.0363573924161 -170.9661522283
8.615375000000000 0.0363796243638 -170.8044424357 0.9992575532244 -80.76070685506 0.9992575532244 -80.76070685506 0.0363793242379 -170.9676281174
8.615380000000000 0.0364015887827 -170.8057832509 0.9992566390384 -80.76201182600 0.9992566390384 -80.76201182600 0.0364012883940 -170.9691060450
8.615385000000000 0.0364235855113 -170.8071260561 0.9992557229422 -80.76331865034 0.9992557229422 -80.76331865034 0.0364232848594 -170.9705859990
8.615390000000000 0.0364456147088 -170.8084708705 0.9992548049205 -80.76462733721 0.9992548049205 -80.76462733721 0.0364453137932 -170.9720679992
8.615395000000001 0.0364676764121 -170.8098176884 0.9992538849746 -80.76593788875 0.9992538849746 -80.76593788875 0.0364673752325 -170.9735520395
8.615400000000001 0.0364897706353 -170.8111665182 0.9992529630965 -80.76725030575 0.9992529630965 -80.76725030575 0.0364894691913 -170.9750381281
8.615405000000001 0.0365118975502 -170.8125173645 0.9992520392803 -80.76856459808 0.9992520392803 -80.76856459808 0.0365115958414 -170.9765262703
8.615410000000001 0.0365340571710 -170.8138702295 0.9992511135221 -80.76988076654 0.9992511135221 -80.76988076654 0.0365337551969 -170.9780164679
8.615415000000000 0.0365562495857 -170.8152251243 0.9992501858120 -80.77119881621 0.9992501858120 -80.77119881621 0.0365559473460 -170.9795087320
8.615420000000000 0.0365784748780 -170.8165820470 0.9992492561485 -80.77251875187 0.9992492561485 -80.77251875187 0.0365781723723 -170.9810030610
8.615425000000000 0.0366007331066 -170.8179410029 0.9992483245254 -80.77384057690 0.9992483245254 -80.77384057690 0.0366004303343 -170.9824994599
8.615430000000000 0.0366230243038 -170.8193019970 0.9992473909372 -80.77516429316 0.9992473909372 -80.77516429316 0.0366227212647 -170.9839979336
8.615435000000000 0.0366453486602 -170.8206650402 0.9992464553734 -80.77648991158 0.9992464553734 -80.77648991158 0.0366450453538 -170.9854984937
8.615440000000001 0.0366677060882 -170.8220301239 0.9992455178377 -80.77781742713 0.9992455178377 -80.77781742713 0.0366674025141 -170.9870011306
8.615445000000001 0.0366900968171 -170.8233972665 0.9992445783147 -80.77914685298 0.9992445783147 -80.77914685298 0.0366897929749 -170.9885058636
8.615450000000001 0.0367125208538 -170.8247664619 0.9992436368059 -80.78047818952 0.9992436368059 -80.78047818952 0.0367122167430 -170.9900126863
8.615455000000001 0.0367349782126 -170.8261377232 0.9992426933003 -80.78181143758 0.9992426933003 -80.78181143758 0.0367346738329 -170.9915216116
8.615460000000001 0.0367574690783 -170.8275110500 0.9992417477949 -80.78314660777 0.9992417477949 -80.78314660777 0.0367571644292 -170.9930326395
8.615465000000000 0.0367799934347 -170.8288864447 0.9992408002857 -80.78448369914 0.9992408002857 -80.78448369914 0.0367796885158 -170.9945457720
8.615470000000000 0.0368025514290 -170.8302639163 0.9992398507639 -80.78582272016 0.9992398507639 -80.78582272016 0.0368022462400 -170.9960610186
8.615475000000000 0.0368251430908 -170.8316434710 0.9992388992228 -80.78716367252 0.9992388992228 -80.78716367252 0.0368248376311 -170.9975783850
8.615480000000000 0.0368477685091 -170.8330251098 0.9992379456588 -80.78850656134 0.9992379456588 -80.78850656134 0.0368474627784 -170.9990978727
8.615485000000001 0.0368704277460 -170.8344088388 0.9992369900653 -80.78985139017 0.9992369900653 -80.78985139016 0.0368701217438 -171.0006194874
8.615490000000001 0.0368931208995 -170.8357946626 0.9992360324363 -80.79119816464 0.9992360324363 -80.79119816464 0.0368928146254 -171.0021432339
8.615495000000001 0.0369158480423 -170.8371825874 0.9992350727650 -80.79254688893 0.9992350727650 -80.79254688893 0.0369155414959 -171.0036691185
8.615500000000001 0.0369386092425 -170.8385726131 0.9992341110485 -80.79389756694 0.9992341110485 -80.79389756694 0.0369383024234 -171.0051971411
8.615505000000001 0.0369614045693 -170.8399647475 0.9992331472790 -80.79525020265 0.9992331472790 -80.79525020265 0.0369610974770 -171.0067273093
8.615510000000000 0.0369842341160 -170.8413589978 0.9992321814488 -80.79660480142 0.9992321814488 -80.79660480142 0.0369839267501 -171.0082596305
8.615515000000000 0.0370070979790 -170.8427553681 0.9992312135524 -80.79796136877 0.9992312135524 -80.79796136877 0.0370067903391 -171.0097941089
8.615520000000000 0.0370299961307 -170.8441538580 0.9992302435874 -80.79931990313 0.9992302435874 -80.79931990313 0.0370296882164 -171.0113307436
8.615525000000000 0.0370529288025 -170.8455544818 0.9992292715411 -80.80068041777 0.9992292715411 -80.80068041777 0.0370526206133 -171.0128695497
8.615530000000000 0.0370758959520 -170.8469572329 0.9992282974152 -80.80204291026 0.9992282974152 -80.80204291026 0.0370755874875 -171.0144105200
8.615535000000001 0.0370988977175 -170.8483621241 0.9992273211982 -80.80340738855 0.9992273211982 -80.80340738855 0.0370985889772 -171.0159536675
8.615540000000001 0.0371219341732 -170.8497691600 0.9992263428843 -80.80477385689 0.9992263428843 -80.80477385689 0.0371216251568 -171.0174989970
8.615545000000001 0.0371450054039 -170.8511783415 0.9992253624697 -80.80614232014 0.9992253624697 -80.80614232014 0.0371446961109 -171.0190465094
8.615550000000001 0.0371681114272 -170.8525896771 0.9992243799463 -80.80751277933 0.9992243799463 -80.80751277933 0.0371678018571 -171.0205962127
8.615555000000001 0.0371912523527 -170.8540031658 0.9992233953115 -80.80888524074 0.9992233953115 -80.80888524074 0.0371909425051 -171.0221481064
8.615560000000000 0.0372144283395 -170.8554188237 0.9992224085517 -80.81025971351 0.9992224085517 -80.81025971351 0.0372141182140 -171.0237022068
8.615565000000000 0.0372376393571 -170.8568366444 0.9992214196682 -80.81163619588 0.9992214196682 -80.81163619588 0.0372373289533 -171.0252585069
8.615570000000000 0.0372608855056 -170.8582566372 0.9992204286520 -80.81301469361 0.9992204286520 -80.81301469361 0.0372605748230 -171.0268170163
8.615575000000000 0.0372841669283 -170.8596788116 0.9992194354935 -80.81439521491 0.9992194354935 -80.81439521491 0.0372838559665 -171.0283777448
8.615580000000001 0.0373074836425 -170.8611031635 0.9992184401927 -80.81577776078 0.9992184401927 -80.81577776078 0.0373071724010 -171.0299406879
8.615585000000001 0.0373308357743 -170.8625297070 0.9992174427371 -80.81716233846 0.9992174427371 -80.81716233846 0.0373305242527 -171.0315058600
8.615590000000001 0.0373542233319 -170.8639584395 0.9992164431255 -80.81854894843 0.9992164431255 -80.81854894843 0.0373539115297 -171.0330732582
8.615595000000001 0.0373776464937 -170.8653893723 0.9992154413471 -80.81993760092 0.9992154413471 -80.81993760092 0.0373773344106 -171.0346428942
8.615600000000001 0.0374011052559 -170.8668225050 0.9992144373993 -80.82132829571 0.9992144373993 -80.82132829571 0.0374007928913 -171.0362147673
8.615605000000000 0.0374245997613 -170.8682578459 0.9992134312735 -80.82272104101 0.9992134312735 -80.82272104101 0.0374242871149 -171.0377888861
8.615610000000000 0.0374481300514 -170.8696953996 0.9992124229636 -80.82411583918 0.9992124229636 -80.82411583918 0.0374478171226 -171.0393652549
8.615615000000000 0.0374716962324 -170.8711351733 0.9992114124616 -80.82551269635 0.9992114124616 -80.82551269635 0.0374713830209 -171.0409438811
8.615620000000000 0.0374952983763 -170.8725771693 0.9992103997629 -80.82691161662 0.9992103997629 -80.82691161662 0.0374949848815 -171.0425247671
8.615625000000001 0.0375189365595 -170.8740213923 0.9992093848613 -80.82831260440 0.9992093848613 -80.82831260440 0.0375186227811 -171.0441079174
8.615630000000001 0.0375426108554 -170.8754678460 0.9992083677513 -80.82971566389 0.9992083677513 -80.82971566389 0.0375422967928 -171.0456933357
8.615635000000001 0.0375663213827 -170.8769165403 0.9992073484229 -80.83112080192 0.9992073484229 -80.83112080192 0.0375660070355 -171.0472810322
8.615640000000001 0.0375900681972 -170.8783674760 0.9992063268726 -80.83252802168 0.9992063268726 -80.83252802168 0.0375897535650 -171.0488710075
8.615645000000001 0.0376138513766 -170.8798206619 0.9992053030914 -80.83393732763 0.9992053030914 -80.83393732763 0.0376135364589 -171.0504632704
8.615650000000000 0.0376376710556 -170.8812761039 0.9992042770719 -80.83534872751 0.9992042770719 -80.83534872751 0.0376373558520 -171.0520578271
8.615655000000000 0.0376615272348 -170.8827338017 0.9992032488115 -80.83676222136 0.9992032488115 -80.83676222136 0.0376612117449 -171.0536546768
8.615660000000000 0.0376854200735 -170.8841937678 0.9992022182984 -80.83817781830 0.9992022182984 -80.83817781830 0.0376851042967 -171.0552538325
8.615665000000000 0.0377093496058 -170.8856560002 0.9992011855307 -80.83959552032 0.9992011855307 -80.83959552032 0.0377090335417 -171.0568552920
8.615670000000000 0.0377333159260 -170.8871205077 0.9992001504995 -80.84101533281 0.9992001504995 -80.84101533281 0.0377329995741 -171.0584590640
8.615675000000001 0.0377573191880 -170.8885872972 0.9991991131965 -80.84243726461 0.9991991131965 -80.84243726461 0.0377570025478 -171.0600651558
8.615680000000001 0.0377813593336 -170.8900563687 0.9991980736191 -80.84386131240 0.9991980736191 -80.84386131240 0.0377810424048 -171.0616735669
8.615685000000001 0.0378054365894 -170.8915277343 0.9991970317553 -80.84528748917 0.9991970317553 -80.84528748917 0.0378051193715 -171.0632843098
8.615690000000001 0.0378295509319 -170.8930013939 0.9991959876023 -80.84671579356 0.9991959876023 -80.84671579356 0.0378292334243 -171.0648973841
8.615695000000001 0.0378537025444 -170.8944773561 0.9991949411508 -80.84814623612 0.9991949411508 -80.84814623612 0.0378533847467 -171.0665127988
8.615700000000000 0.0378778914714 -170.8959556274 0.9991938923932 -80.84957881939 0.9991938923932 -80.84957881939 0.0378775733832 -171.0681305603
8.615705000000000 0.0379021177905 -170.8974362087 0.9991928413255 -80.85101354782 0.9991928413255 -80.85101354782 0.0379017994113 -171.0697506695
8.615710000000000 0.0379263815800 -170.8989191074 0.9991917879395 -80.85245042592 0.9991917879395 -80.85245042592 0.0379260629094 -171.0713731335
8.615715000000000 0.0379506829621 -170.9004043307 0.9991907322270 -80.85388946069 0.9991907322270 -80.85388946069 0.0379503639995 -171.0729979600
8.615720000000001 0.0379750219638 -170.9018918795 0.9991896741841 -80.85533065370 0.9991896741841 -80.85533065370 0.0379747027088 -171.0746251495
8.615725000000001 0.0379993987333 -170.9033817660 0.9991886137991 -80.85677401344 0.9991886137991 -80.85677401344 0.0379990791853 -171.0762547144
8.615730000000001 0.0380238133345 -170.9048739883 0.9991875510698 -80.85821954359 0.9991875510698 -80.85821954359 0.0380234934933 -171.0778866529
8.615735000000001 0.0380482658676 -170.9063685586 0.9991864859848 -80.85966724989 0.9991864859848 -80.85966724989 0.0380479457325 -171.0795209771
8.615740000000001 0.0380727563774 -170.9078654776 0.9991854185403 -80.86111713494 0.9991854185403 -80.86111713494 0.0380724359480 -171.0811576877
8.615745000000000 0.0380972850339 -170.9093647550 0.9991843487258 -80.86256920846 0.9991843487258 -80.86256920846 0.0380969643097 -171.0827967946
8.615750000000000 0.0381218518649 -170.9108663916 0.9991832765378 -80.86402347207 0.9991832765378 -80.86402347207 0.0381215308455 -171.0844382985
8.615755000000000 0.0381464569736 -170.9123703954 0.9991822019672 -80.86547993170 0.9991822019672 -80.86547993170 0.0381461356585 -171.0860822074
8.615760000000000 0.0381711004166 -170.9138767730 0.9991811250064 -80.86693859059 0.9991811250064 -80.86693859059 0.0381707788052 -171.0877285277
8.615765000000000 0.0381957823424 -170.9153855290 0.9991800456484 -80.86839945727 0.9991800456484 -80.86839945727 0.0381954604343 -171.0893772643
8.615770000000001 0.0382205028270 -170.9168966685 0.9991789638864 -80.86986253609 0.9991789638864 -80.86986253609 0.0382201806217 -171.0910284223
8.615775000000001 0.0382452619120 -170.9184101986 0.9991778797123 -80.87132782947 0.9991778797123 -80.87132782947 0.0382449394091 -171.0926820087
8.615780000000001 0.0382700597800 -170.9199261233 0.9991767931194 -80.87279534786 0.9991767931194 -80.87279534786 0.0382697369790 -171.0943380278
8.615785000000001 0.0382948964352 -170.9214444479 0.9991757041010 -80.87426509151 0.9991757041010 -80.87426509151 0.0382945733355 -171.0959964845
8.615790000000001 0.0383197719947 -170.9229651786 0.9991746126491 -80.87573706716 0.9991746126491 -80.87573706716 0.0383194485959 -171.0976573852
8.615795000000000 0.0383446865362 -170.9244883232 0.9991735187551 -80.87721127925 0.9991735187551 -80.87721127925 0.0383443628378 -171.0993207376
8.615800000000000 0.0383696402061 -170.9260138835 0.9991724224139 -80.87868773620 0.9991724224139 -80.87868773620 0.0383693162076 -171.1009865438
8.615805000000000 0.0383946330145 -170.9275418687 0.9991713236159 -80.88016643859 0.9991713236159 -80.88016643859 0.0383943087155 -171.1026548126
8.615810000000000 0.0384196651497 -170.9290722821 0.9991702223549 -80.88164739722 0.9991702223549 -80.88164739722 0.0384193405496 -171.1043255478
8.615815000000001 0.0384447366585 -170.9306051343 0.9991691186203 -80.88313061478 0.9991691186203 -80.88313061478 0.0384444117568 -171.1059987599
8.615820000000001 0.0384698475928 -170.9321404249 0.9991680124089 -80.88461609426 0.9991680124089 -80.88461609426 0.0384695223891 -171.1076744482
8.615825000000001 0.0384949981092 -170.9336781635 0.9991669037102 -80.88610384464 0.9991669037102 -80.88610384464 0.0384946726030 -171.1093526226
8.615830000000001 0.0385201882687 -170.9352183568 0.9991657925162 -80.88759386942 0.9991657925162 -80.88759386942 0.0385198624594 -171.1110332896
8.615835000000001 0.0385454181517 -170.9367610032 0.9991646788242 -80.88908617324 0.9991646788242 -80.88908617324 0.0385450920389 -171.1127164477
8.615840000000000 0.0385706879199 -170.9383061188 0.9991635626193 -80.89058076536 0.9991635626193 -80.89058076536 0.0385703615031 -171.1144021133
8.615845000000000 0.0385959975649 -170.9398537028 0.9991624438989 -80.89207764530 0.9991624438989 -80.89207764530 0.0385956708436 -171.1160902851
8.615850000000000 0.0386213472545 -170.9414037608 0.9991613226549 -80.89357682270 0.9991613226549 -80.89357682270 0.0386210202281 -171.1177809691
8.615855000000000 0.0386467370765 -170.9429563025 0.9991601988771 -80.89507830261 0.9991601988771 -80.89507830261 0.0386464097446 -171.1194741750
8.615860000000001 0.0386721671201 -170.9445113377 0.9991590725551 -80.89658209013 0.9991590725550 -80.89658209013 0.0386718394822 -171.1211699124
8.615865000000001 0.0386976374524 -170.9460688571 0.9991579436914 -80.89808818914 0.9991579436914 -80.89808818914 0.0386973095080 -171.1228681722
8.615870000000001 0.0387231482250 -170.9476288829 0.9991568122670 -80.89959660832 0.9991568122670 -80.89959660832 0.0387228199735 -171.1245689766
8.615875000000001 0.0387486994561 -170.9491914100 0.9991556782819 -80.90110734873 0.9991556782819 -80.90110734873 0.0387483708970 -171.1262723202
8.615880000000001 0.0387742913224 -170.9507564550 0.9991545417205 -80.90262042051 0.9991545417205 -80.90262042051 0.0387739624553 -171.1279782202
8.615885000000000 0.0387999238509 -170.9523240113 0.9991534025838 -80.90413582521 0.9991534025838 -80.90413582521 0.0387995946753 -171.1296866693
8.615890000000000 0.0388255971953 -170.9538940948 0.9991522608568 -80.90565357165 0.9991522608568 -80.90565357165 0.0388252677106 -171.1313976840
8.615895000000000 0.0388513114688 -170.9554667137 0.9991511165299 -80.90717366634 0.9991511165299 -80.90717366634 0.0388509816745 -171.1331112727
8.615900000000000 0.0388770666848 -170.9570418626 0.9991499696033 -80.90869611005 0.9991499696033 -80.90869611005 0.0388767365805 -171.1348274292
8.615905000000000 0.0389028630138 -170.9586195574 0.9991488200620 -80.91022091255 0.9991488200620 -80.91022091255 0.0389025325988 -171.1365461700
8.615910000000001 0.0389287005178 -170.9601997984 0.9991476679018 -80.91174807743 0.9991476679018 -80.91174807743 0.0389283697917 -171.1382674952
8.615915000000001 0.0389545793193 -170.9617825951 0.9991465131123 -80.91327761170 0.9991465131123 -80.91327761170 0.0389542482816 -171.1399914145
8.615920000000001 0.0389804994750 -170.9633679516 0.9991453556868 -80.91480951863 0.9991453556868 -80.91480951863 0.0389801681251 -171.1417179318
8.615925000000001 0.0390064611372 -170.9649558751 0.9991441956163 -80.91634380697 0.9991441956163 -80.91634380697 0.0390061294747 -171.1434470544
8.615930000000001 0.0390324643946 -170.9665463728 0.9991430328917 -80.91788048179 0.9991430328917 -80.91788048179 0.0390321324189 -171.1451787898
8.615935000000000 0.0390585092958 -170.9681394494 0.9991418675062 -80.91941954589 0.9991418675062 -80.91941954589 0.0390581770064 -171.1469131421
8.615940000000000 0.0390845959755 -170.9697351093 0.9991406994524 -80.92096100702 0.9991406994524 -80.92096100702 0.0390842633718 -171.1486501160
8.615945000000000 0.0391107245878 -170.9713333653 0.9991395287174 -80.92250487401 0.9991395287174 -80.92250487401 0.0391103916695 -171.1503897248
8.615950000000000 0.0391368951938 -170.9729342190 0.9991383552960 -80.92405115037 0.9991383552960 -80.92405115037 0.0391365619601 -171.1521319696
8.615955000000001 0.0391631078359 -170.9745376756 0.9991371791810 -80.92559983855 0.9991371791810 -80.92559983855 0.0391627742864 -171.1538768555
8.615960000000001 0.0391893626983 -170.9761437429 0.9991360003625 -80.92715094911 0.9991360003625 -80.92715094911 0.0391890288325 -171.1556243907
8.615965000000001 0.0392156598011 -170.9777524267 0.9991348188327 -80.92870448321 0.9991348188327 -80.92870448321 0.0392153256185 -171.1573745806
8.615970000000001 0.0392419993270 -170.9793637346 0.9991336345818 -80.93026045135 0.9991336345818 -80.93026045135 0.0392416648270 -171.1591274333
8.615975000000001 0.0392683813271 -170.9809776732 0.9991324476016 -80.93181885644 0.9991324476016 -80.93181885644 0.0392680465092 -171.1608829549
8.615980000000000 0.0392948059831 -170.9825942506 0.9991312578817 -80.93337970894 0.9991312578817 -80.93337970894 0.0392944708468 -171.1626411542
8.615985000000000 0.0393212732653 -170.9842134679 0.9991300654179 -80.93494300714 0.9991300654179 -80.93494300714 0.0393209378100 -171.1644020316
8.615990000000000 0.0393477834076 -170.9858353323 0.9991288702004 -80.93650876445 0.9991288702004 -80.93650876445 0.0393474476328 -171.1661655947
8.615995000000000 0.0393743364238 -170.9874598573 0.9991276722161 -80.93807698168 0.9991276722161 -80.93807698168 0.0393740003289 -171.1679318570
8.616000000000000 0.0394009324856 -170.9890870456 0.9991264714585 -80.93964766869 0.9991264714585 -80.93964766869 0.0394005960701 -171.1697008212