! Sonnet Data File
! From: emgraph Version : 16.52
! From Project: transmon_brg
! Data is De-embedded 
! Data File Written: 11/11/2017 22:44:25
!< HDATE 11/11/2017 16:55:33
!< MDATE 11/11/2017 17:38:18
!< PARAMS
!< Lj = 15.24
!< Gap = 6.0
!< Width = 10.0
!< Airgap = 6.0
!< Pwidth = 2000.0
!< Dist = 1200.0
!< END PARAMS
# GHZ S MA R 51.80000
8.50000000 0.004256 -172.1 0.999986 -79.79 0.999986 -79.79 0.004256 -167.5
!< P1 F=8.5 Eeff=(6.44695349 -2.9785e-5) Z0=(51.7999087 1.19092e-4) R=0.0 C=0.0 
!< P2 F=8.5 Eeff=(6.44695349 -2.9785e-5) Z0=(51.7999087 1.19092e-4) R=0.0 C=0.0 
8.50020000 0.004272 -172.1 0.999986 -79.79 0.999986 -79.79 0.004272 -167.5
8.50040000 0.004287 -172.1 0.999986 -79.79 0.999986 -79.79 0.004287 -167.6
8.50060000 0.004303 -172.1 0.999986 -79.79 0.999986 -79.79 0.004303 -167.6
8.50080000 0.004318 -172.1 0.999986 -79.80 0.999986 -79.80 0.004318 -167.6
8.50100000 0.004334 -172.1 0.999986 -79.80 0.999986 -79.80 0.004334 -167.6
8.50120000 0.004350 -172.1 0.999986 -79.80 0.999986 -79.80 0.004349 -167.6
8.50140000 0.004365 -172.1 0.999986 -79.80 0.999986 -79.80 0.004365 -167.6
8.50160000 0.004381 -172.1 0.999986 -79.81 0.999986 -79.81 0.004381 -167.6
8.50180000 0.004396 -172.1 0.999986 -79.81 0.999986 -79.81 0.004396 -167.6
8.50200000 0.004412 -172.1 0.999986 -79.81 0.999986 -79.81 0.004412 -167.6
8.50220000 0.004428 -172.1 0.999986 -79.82 0.999986 -79.82 0.004428 -167.6
8.50240000 0.004444 -172.1 0.999986 -79.82 0.999986 -79.82 0.004443 -167.7
8.50260000 0.004459 -172.1 0.999985 -79.82 0.999985 -79.82 0.004459 -167.7
8.50280000 0.004475 -172.1 0.999985 -79.82 0.999985 -79.82 0.004475 -167.7
8.50300000 0.004491 -172.1 0.999985 -79.83 0.999985 -79.83 0.004491 -167.7
8.50320000 0.004507 -172.1 0.999985 -79.83 0.999985 -79.83 0.004506 -167.7
8.50340000 0.004523 -172.1 0.999985 -79.83 0.999985 -79.83 0.004522 -167.7
8.50360000 0.004538 -172.1 0.999985 -79.84 0.999985 -79.84 0.004538 -167.7
8.50380000 0.004554 -172.1 0.999985 -79.84 0.999985 -79.84 0.004554 -167.7
8.50400000 0.004570 -172.1 0.999985 -79.84 0.999985 -79.84 0.004570 -167.7
8.50420000 0.004586 -172.0 0.999985 -79.84 0.999985 -79.84 0.004586 -167.7
8.50440000 0.004602 -172.0 0.999985 -79.85 0.999985 -79.85 0.004602 -167.7
8.50460000 0.004618 -172.0 0.999985 -79.85 0.999985 -79.85 0.004618 -167.7
8.50480000 0.004634 -172.0 0.999985 -79.85 0.999985 -79.85 0.004634 -167.8
8.50500000 0.004650 -172.0 0.999985 -79.85 0.999985 -79.85 0.004650 -167.8
8.50520000 0.004666 -172.0 0.999984 -79.86 0.999984 -79.86 0.004666 -167.8
8.50540000 0.004682 -172.0 0.999984 -79.86 0.999984 -79.86 0.004682 -167.8
8.50560000 0.004698 -172.0 0.999984 -79.86 0.999984 -79.86 0.004698 -167.8
8.50580000 0.004714 -172.0 0.999984 -79.87 0.999984 -79.87 0.004714 -167.8
8.50600000 0.004731 -172.0 0.999984 -79.87 0.999984 -79.87 0.004730 -167.8
8.50620000 0.004747 -172.0 0.999984 -79.87 0.999984 -79.87 0.004747 -167.8
8.50640000 0.004763 -172.0 0.999984 -79.87 0.999984 -79.87 0.004763 -167.8
8.50660000 0.004779 -172.0 0.999984 -79.88 0.999984 -79.88 0.004779 -167.8
8.50680000 0.004795 -172.0 0.999984 -79.88 0.999984 -79.88 0.004795 -167.8
8.50700000 0.004812 -172.0 0.999984 -79.88 0.999984 -79.88 0.004811 -167.8
8.50720000 0.004828 -172.0 0.999984 -79.89 0.999984 -79.89 0.004828 -167.9
8.50740000 0.004844 -172.0 0.999984 -79.89 0.999984 -79.89 0.004844 -167.9
8.50760000 0.004861 -172.0 0.999984 -79.89 0.999984 -79.89 0.004860 -167.9
8.50780000 0.004877 -172.0 0.999983 -79.89 0.999983 -79.89 0.004877 -167.9
8.50800000 0.004893 -172.0 0.999983 -79.90 0.999983 -79.90 0.004893 -167.9
8.50820000 0.004910 -172.0 0.999983 -79.90 0.999983 -79.90 0.004909 -167.9
8.50840000 0.004926 -172.0 0.999983 -79.90 0.999983 -79.90 0.004926 -167.9
8.50860000 0.004943 -172.0 0.999983 -79.91 0.999983 -79.91 0.004942 -167.9
8.50880000 0.004959 -172.0 0.999983 -79.91 0.999983 -79.91 0.004959 -167.9
8.50900000 0.004976 -172.0 0.999983 -79.91 0.999983 -79.91 0.004975 -167.9
8.50920000 0.004992 -172.0 0.999983 -79.91 0.999983 -79.91 0.004992 -167.9
8.50940000 0.005009 -172.0 0.999983 -79.92 0.999983 -79.92 0.005008 -167.9
8.50960000 0.005025 -172.0 0.999983 -79.92 0.999983 -79.92 0.005025 -168.0
8.50980000 0.005042 -172.0 0.999983 -79.92 0.999983 -79.92 0.005041 -168.0
8.51000000 0.005058 -172.0 0.999983 -79.92 0.999983 -79.92 0.005058 -168.0
8.51020000 0.005075 -172.0 0.999982 -79.93 0.999982 -79.93 0.005075 -168.0
8.51040000 0.005092 -172.0 0.999982 -79.93 0.999982 -79.93 0.005091 -168.0
8.51060000 0.005108 -172.0 0.999982 -79.93 0.999982 -79.93 0.005108 -168.0
8.51080000 0.005125 -172.0 0.999982 -79.94 0.999982 -79.94 0.005125 -168.0
8.51100000 0.005142 -172.0 0.999982 -79.94 0.999982 -79.94 0.005142 -168.0
8.51120000 0.005159 -172.0 0.999982 -79.94 0.999982 -79.94 0.005158 -168.0
8.51140000 0.005175 -171.9 0.999982 -79.94 0.999982 -79.94 0.005175 -168.0
8.51160000 0.005192 -171.9 0.999982 -79.95 0.999982 -79.95 0.005192 -168.0
8.51180000 0.005209 -171.9 0.999982 -79.95 0.999982 -79.95 0.005209 -168.0
8.51200000 0.005226 -171.9 0.999982 -79.95 0.999982 -79.95 0.005226 -168.0
8.51220000 0.005243 -171.9 0.999982 -79.96 0.999982 -79.96 0.005242 -168.1
8.51240000 0.005260 -171.9 0.999981 -79.96 0.999981 -79.96 0.005259 -168.1
8.51260000 0.005277 -171.9 0.999981 -79.96 0.999981 -79.96 0.005276 -168.1
8.51280000 0.005294 -171.9 0.999981 -79.96 0.999981 -79.96 0.005293 -168.1
8.51300000 0.005310 -171.9 0.999981 -79.97 0.999981 -79.97 0.005310 -168.1
8.51320000 0.005327 -171.9 0.999981 -79.97 0.999981 -79.97 0.005327 -168.1
8.51340000 0.005345 -171.9 0.999981 -79.97 0.999981 -79.97 0.005344 -168.1
8.51360000 0.005362 -171.9 0.999981 -79.98 0.999981 -79.98 0.005361 -168.1
8.51380000 0.005379 -171.9 0.999981 -79.98 0.999981 -79.98 0.005378 -168.1
8.51400000 0.005396 -171.9 0.999981 -79.98 0.999981 -79.98 0.005396 -168.1
8.51420000 0.005413 -171.9 0.999981 -79.98 0.999981 -79.98 0.005413 -168.1
8.51440000 0.005430 -171.9 0.999980 -79.99 0.999980 -79.99 0.005430 -168.1
8.51460000 0.005447 -171.9 0.999980 -79.99 0.999980 -79.99 0.005447 -168.1
8.51480000 0.005464 -171.9 0.999980 -79.99 0.999980 -79.99 0.005464 -168.2
8.51500000 0.005482 -171.9 0.999980 -80.00 0.999980 -80.00 0.005481 -168.2
8.51520000 0.005499 -171.9 0.999980 -80.00 0.999980 -80.00 0.005499 -168.2
8.51540000 0.005516 -171.9 0.999980 -80.00 0.999980 -80.00 0.005516 -168.2
8.51560000 0.005534 -171.9 0.999980 -80.00 0.999980 -80.00 0.005533 -168.2
8.51580000 0.005551 -171.9 0.999980 -80.01 0.999980 -80.01 0.005551 -168.2
8.51600000 0.005568 -171.9 0.999980 -80.01 0.999980 -80.01 0.005568 -168.2
8.51620000 0.005586 -171.9 0.999980 -80.01 0.999980 -80.01 0.005585 -168.2
8.51640000 0.005603 -171.9 0.999980 -80.02 0.999980 -80.02 0.005603 -168.2
8.51660000 0.005621 -171.9 0.999979 -80.02 0.999979 -80.02 0.005620 -168.2
8.51680000 0.005638 -171.9 0.999979 -80.02 0.999979 -80.02 0.005638 -168.2
8.51700000 0.005655 -171.9 0.999979 -80.02 0.999979 -80.02 0.005655 -168.2
8.51720000 0.005673 -171.9 0.999979 -80.03 0.999979 -80.03 0.005673 -168.2
8.51740000 0.005691 -171.9 0.999979 -80.03 0.999979 -80.03 0.005690 -168.2
8.51760000 0.005708 -171.9 0.999979 -80.03 0.999979 -80.03 0.005708 -168.3
8.51780000 0.005726 -171.9 0.999979 -80.04 0.999979 -80.04 0.005725 -168.3
8.51800000 0.005743 -171.9 0.999979 -80.04 0.999979 -80.04 0.005743 -168.3
8.51820000 0.005761 -171.9 0.999979 -80.04 0.999979 -80.04 0.005761 -168.3
8.51840000 0.005779 -171.9 0.999978 -80.04 0.999978 -80.04 0.005778 -168.3
8.51860000 0.005796 -171.9 0.999978 -80.05 0.999978 -80.05 0.005796 -168.3
8.51880000 0.005814 -171.9 0.999978 -80.05 0.999978 -80.05 0.005814 -168.3
8.51900000 0.005832 -171.9 0.999978 -80.05 0.999978 -80.05 0.005832 -168.3
8.51920000 0.005850 -171.9 0.999978 -80.06 0.999978 -80.06 0.005849 -168.3
8.51940000 0.005867 -171.9 0.999978 -80.06 0.999978 -80.06 0.005867 -168.3
8.51960000 0.005885 -171.9 0.999978 -80.06 0.999978 -80.06 0.005885 -168.3
8.51980000 0.005903 -171.9 0.999978 -80.07 0.999978 -80.07 0.005903 -168.3
8.52000000 0.005921 -171.9 0.999978 -80.07 0.999978 -80.07 0.005921 -168.3
8.52020000 0.005939 -171.9 0.999978 -80.07 0.999978 -80.07 0.005939 -168.3
8.52040000 0.005957 -171.9 0.999977 -80.07 0.999977 -80.07 0.005957 -168.4
8.52060000 0.005975 -171.9 0.999977 -80.08 0.999977 -80.08 0.005975 -168.4
8.52080000 0.005993 -171.9 0.999977 -80.08 0.999977 -80.08 0.005993 -168.4
8.52100000 0.006011 -171.9 0.999977 -80.08 0.999977 -80.08 0.006011 -168.4
8.52120000 0.006029 -171.9 0.999977 -80.09 0.999977 -80.09 0.006029 -168.4
8.52140000 0.006047 -171.9 0.999977 -80.09 0.999977 -80.09 0.006047 -168.4
8.52160000 0.006065 -171.9 0.999977 -80.09 0.999977 -80.09 0.006065 -168.4
8.52180000 0.006083 -171.9 0.999977 -80.09 0.999977 -80.09 0.006083 -168.4
8.52200000 0.006101 -171.9 0.999977 -80.10 0.999977 -80.10 0.006101 -168.4
8.52220000 0.006120 -171.9 0.999976 -80.10 0.999976 -80.10 0.006119 -168.4
8.52240000 0.006138 -171.9 0.999976 -80.10 0.999976 -80.10 0.006138 -168.4
8.52260000 0.006156 -171.9 0.999976 -80.11 0.999976 -80.11 0.006156 -168.4
8.52280000 0.006174 -171.9 0.999976 -80.11 0.999976 -80.11 0.006174 -168.4
8.52300000 0.006193 -171.9 0.999976 -80.11 0.999976 -80.11 0.006192 -168.4
8.52320000 0.006211 -171.9 0.999976 -80.11 0.999976 -80.11 0.006211 -168.4
8.52340000 0.006229 -171.9 0.999976 -80.12 0.999976 -80.12 0.006229 -168.5
8.52360000 0.006248 -171.9 0.999976 -80.12 0.999976 -80.12 0.006248 -168.5
8.52380000 0.006266 -171.9 0.999975 -80.12 0.999975 -80.12 0.006266 -168.5
8.52400000 0.006285 -171.9 0.999975 -80.13 0.999975 -80.13 0.006284 -168.5
8.52420000 0.006303 -171.9 0.999975 -80.13 0.999975 -80.13 0.006303 -168.5
8.52440000 0.006322 -171.9 0.999975 -80.13 0.999975 -80.13 0.006321 -168.5
8.52460000 0.006340 -171.9 0.999975 -80.14 0.999975 -80.14 0.006340 -168.5
8.52480000 0.006359 -171.9 0.999975 -80.14 0.999975 -80.14 0.006358 -168.5
8.52500000 0.006377 -171.8 0.999975 -80.14 0.999975 -80.14 0.006377 -168.5
8.52520000 0.006396 -171.8 0.999975 -80.14 0.999975 -80.14 0.006396 -168.5
8.52540000 0.006415 -171.8 0.999974 -80.15 0.999974 -80.15 0.006414 -168.5
8.52560000 0.006433 -171.8 0.999974 -80.15 0.999974 -80.15 0.006433 -168.5
8.52580000 0.006452 -171.8 0.999974 -80.15 0.999974 -80.15 0.006452 -168.5
8.52600000 0.006471 -171.8 0.999974 -80.16 0.999974 -80.16 0.006470 -168.5
8.52620000 0.006489 -171.8 0.999974 -80.16 0.999974 -80.16 0.006489 -168.5
8.52640000 0.006508 -171.8 0.999974 -80.16 0.999974 -80.16 0.006508 -168.6
8.52660000 0.006527 -171.8 0.999974 -80.16 0.999974 -80.16 0.006527 -168.6
8.52680000 0.006546 -171.8 0.999974 -80.17 0.999974 -80.17 0.006546 -168.6
8.52700000 0.006565 -171.8 0.999973 -80.17 0.999973 -80.17 0.006564 -168.6
8.52720000 0.006584 -171.8 0.999973 -80.17 0.999973 -80.17 0.006583 -168.6
8.52740000 0.006603 -171.8 0.999973 -80.18 0.999973 -80.18 0.006602 -168.6
8.52760000 0.006621 -171.8 0.999973 -80.18 0.999973 -80.18 0.006621 -168.6
8.52780000 0.006640 -171.8 0.999973 -80.18 0.999973 -80.18 0.006640 -168.6
8.52800000 0.006659 -171.8 0.999973 -80.19 0.999973 -80.19 0.006659 -168.6
8.52820000 0.006679 -171.8 0.999973 -80.19 0.999973 -80.19 0.006678 -168.6
8.52840000 0.006698 -171.8 0.999973 -80.19 0.999973 -80.19 0.006697 -168.6
8.52860000 0.006717 -171.8 0.999972 -80.19 0.999972 -80.19 0.006717 -168.6
8.52880000 0.006736 -171.8 0.999972 -80.20 0.999972 -80.20 0.006736 -168.6
8.52900000 0.006755 -171.8 0.999972 -80.20 0.999972 -80.20 0.006755 -168.6
8.52920000 0.006774 -171.8 0.999972 -80.20 0.999972 -80.20 0.006774 -168.6
8.52940000 0.006793 -171.8 0.999972 -80.21 0.999972 -80.21 0.006793 -168.6
8.52960000 0.006813 -171.8 0.999972 -80.21 0.999972 -80.21 0.006813 -168.7
8.52980000 0.006832 -171.8 0.999972 -80.21 0.999972 -80.21 0.006832 -168.7
8.53000000 0.006851 -171.8 0.999972 -80.21 0.999972 -80.21 0.006851 -168.7
8.53020000 0.006871 -171.8 0.999971 -80.22 0.999971 -80.22 0.006870 -168.7
8.53040000 0.006890 -171.8 0.999971 -80.22 0.999971 -80.22 0.006890 -168.7
8.53060000 0.006909 -171.8 0.999971 -80.22 0.999971 -80.22 0.006909 -168.7
8.53080000 0.006929 -171.8 0.999971 -80.23 0.999971 -80.23 0.006929 -168.7
8.53100000 0.006948 -171.8 0.999971 -80.23 0.999971 -80.23 0.006948 -168.7
8.53120000 0.006968 -171.8 0.999971 -80.23 0.999971 -80.23 0.006968 -168.7
8.53140000 0.006987 -171.8 0.999971 -80.24 0.999971 -80.24 0.006987 -168.7
8.53160000 0.007007 -171.8 0.999970 -80.24 0.999970 -80.24 0.007007 -168.7
8.53180000 0.007027 -171.8 0.999970 -80.24 0.999970 -80.24 0.007026 -168.7
8.53200000 0.007046 -171.8 0.999970 -80.24 0.999970 -80.24 0.007046 -168.7
8.53220000 0.007066 -171.8 0.999970 -80.25 0.999970 -80.25 0.007066 -168.7
8.53240000 0.007085 -171.8 0.999970 -80.25 0.999970 -80.25 0.007085 -168.7
8.53260000 0.007105 -171.8 0.999970 -80.25 0.999970 -80.25 0.007105 -168.7
8.53280000 0.007125 -171.8 0.999970 -80.26 0.999970 -80.26 0.007125 -168.8
8.53300000 0.007145 -171.8 0.999969 -80.26 0.999969 -80.26 0.007145 -168.8
8.53320000 0.007165 -171.8 0.999969 -80.26 0.999969 -80.26 0.007164 -168.8
8.53340000 0.007184 -171.8 0.999969 -80.27 0.999969 -80.27 0.007184 -168.8
8.53360000 0.007204 -171.8 0.999969 -80.27 0.999969 -80.27 0.007204 -168.8
8.53380000 0.007224 -171.8 0.999969 -80.27 0.999969 -80.27 0.007224 -168.8
8.53400000 0.007244 -171.8 0.999969 -80.27 0.999969 -80.27 0.007244 -168.8
8.53420000 0.007264 -171.8 0.999969 -80.28 0.999969 -80.28 0.007264 -168.8
8.53440000 0.007284 -171.8 0.999968 -80.28 0.999968 -80.28 0.007284 -168.8
8.53460000 0.007304 -171.8 0.999968 -80.28 0.999968 -80.28 0.007304 -168.8
8.53480000 0.007324 -171.8 0.999968 -80.29 0.999968 -80.29 0.007324 -168.8
8.53500000 0.007344 -171.8 0.999968 -80.29 0.999968 -80.29 0.007344 -168.8
8.53520000 0.007364 -171.8 0.999968 -80.29 0.999968 -80.29 0.007364 -168.8
8.53540000 0.007385 -171.8 0.999968 -80.30 0.999968 -80.30 0.007384 -168.8
8.53560000 0.007405 -171.8 0.999967 -80.30 0.999967 -80.30 0.007405 -168.8
8.53580000 0.007425 -171.8 0.999967 -80.30 0.999967 -80.30 0.007425 -168.8
8.53600000 0.007445 -171.8 0.999967 -80.31 0.999967 -80.31 0.007445 -168.8
8.53620000 0.007465 -171.8 0.999967 -80.31 0.999967 -80.31 0.007465 -168.9
8.53640000 0.007486 -171.8 0.999967 -80.31 0.999967 -80.31 0.007486 -168.9
8.53660000 0.007506 -171.8 0.999967 -80.31 0.999967 -80.31 0.007506 -168.9
8.53680000 0.007527 -171.8 0.999967 -80.32 0.999967 -80.32 0.007526 -168.9
8.53700000 0.007547 -171.8 0.999966 -80.32 0.999966 -80.32 0.007547 -168.9
8.53720000 0.007567 -171.8 0.999966 -80.32 0.999966 -80.32 0.007567 -168.9
8.53740000 0.007588 -171.8 0.999966 -80.33 0.999966 -80.33 0.007588 -168.9
8.53760000 0.007608 -171.8 0.999966 -80.33 0.999966 -80.33 0.007608 -168.9
8.53780000 0.007629 -171.8 0.999966 -80.33 0.999966 -80.33 0.007629 -168.9
8.53800000 0.007649 -171.8 0.999966 -80.34 0.999966 -80.34 0.007649 -168.9
8.53820000 0.007670 -171.8 0.999965 -80.34 0.999965 -80.34 0.007670 -168.9
8.53840000 0.007691 -171.8 0.999965 -80.34 0.999965 -80.34 0.007691 -168.9
8.53860000 0.007711 -171.8 0.999965 -80.34 0.999965 -80.34 0.007711 -168.9
8.53880000 0.007732 -171.8 0.999965 -80.35 0.999965 -80.35 0.007732 -168.9
8.53900000 0.007753 -171.8 0.999965 -80.35 0.999965 -80.35 0.007753 -168.9
8.53920000 0.007774 -171.8 0.999965 -80.35 0.999965 -80.35 0.007773 -168.9
8.53940000 0.007794 -171.8 0.999964 -80.36 0.999964 -80.36 0.007794 -168.9
8.53960000 0.007815 -171.8 0.999964 -80.36 0.999964 -80.36 0.007815 -169.0
8.53980000 0.007836 -171.8 0.999964 -80.36 0.999964 -80.36 0.007836 -169.0
8.54000000 0.007857 -171.8 0.999964 -80.37 0.999964 -80.37 0.007857 -169.0
8.54020000 0.007878 -171.8 0.999964 -80.37 0.999964 -80.37 0.007878 -169.0
8.54040000 0.007899 -171.8 0.999964 -80.37 0.999964 -80.37 0.007899 -169.0
8.54060000 0.007920 -171.8 0.999963 -80.38 0.999963 -80.38 0.007920 -169.0
8.54080000 0.007941 -171.8 0.999963 -80.38 0.999963 -80.38 0.007941 -169.0
8.54100000 0.007962 -171.8 0.999963 -80.38 0.999963 -80.38 0.007962 -169.0
8.54120000 0.007983 -171.8 0.999963 -80.38 0.999963 -80.38 0.007983 -169.0
8.54140000 0.008004 -171.8 0.999963 -80.39 0.999963 -80.39 0.008004 -169.0
8.54160000 0.008026 -171.8 0.999963 -80.39 0.999963 -80.39 0.008025 -169.0
8.54180000 0.008047 -171.8 0.999962 -80.39 0.999962 -80.39 0.008047 -169.0
8.54200000 0.008068 -171.8 0.999962 -80.40 0.999962 -80.40 0.008068 -169.0
8.54220000 0.008089 -171.8 0.999962 -80.40 0.999962 -80.40 0.008089 -169.0
8.54240000 0.008111 -171.8 0.999962 -80.40 0.999962 -80.40 0.008111 -169.0
8.54260000 0.008132 -171.8 0.999962 -80.41 0.999962 -80.41 0.008132 -169.0
8.54280000 0.008154 -171.8 0.999961 -80.41 0.999961 -80.41 0.008153 -169.0
8.54300000 0.008175 -171.8 0.999961 -80.41 0.999961 -80.41 0.008175 -169.0
8.54320000 0.008196 -171.8 0.999961 -80.42 0.999961 -80.42 0.008196 -169.1
8.54340000 0.008218 -171.8 0.999961 -80.42 0.999961 -80.42 0.008218 -169.1
8.54360000 0.008239 -171.8 0.999961 -80.42 0.999961 -80.42 0.008239 -169.1
8.54380000 0.008261 -171.8 0.999961 -80.42 0.999961 -80.42 0.008261 -169.1
8.54400000 0.008283 -171.8 0.999960 -80.43 0.999960 -80.43 0.008282 -169.1
8.54420000 0.008304 -171.8 0.999960 -80.43 0.999960 -80.43 0.008304 -169.1
8.54440000 0.008326 -171.8 0.999960 -80.43 0.999960 -80.43 0.008326 -169.1
8.54460000 0.008348 -171.8 0.999960 -80.44 0.999960 -80.44 0.008348 -169.1
8.54480000 0.008369 -171.8 0.999960 -80.44 0.999960 -80.44 0.008369 -169.1
8.54500000 0.008391 -171.8 0.999959 -80.44 0.999959 -80.44 0.008391 -169.1
8.54520000 0.008413 -171.8 0.999959 -80.45 0.999959 -80.45 0.008413 -169.1
8.54540000 0.008435 -171.8 0.999959 -80.45 0.999959 -80.45 0.008435 -169.1
8.54560000 0.008457 -171.8 0.999959 -80.45 0.999959 -80.45 0.008457 -169.1
8.54580000 0.008479 -171.8 0.999959 -80.46 0.999959 -80.46 0.008479 -169.1
8.54600000 0.008501 -171.8 0.999959 -80.46 0.999959 -80.46 0.008501 -169.1
8.54620000 0.008523 -171.8 0.999958 -80.46 0.999958 -80.46 0.008523 -169.1
8.54640000 0.008545 -171.9 0.999958 -80.47 0.999958 -80.47 0.008545 -169.1
8.54660000 0.008567 -171.9 0.999958 -80.47 0.999958 -80.47 0.008567 -169.1
8.54680000 0.008589 -171.9 0.999958 -80.47 0.999958 -80.47 0.008589 -169.2
8.54700000 0.008611 -171.9 0.999958 -80.47 0.999958 -80.47 0.008611 -169.2
8.54720000 0.008633 -171.9 0.999957 -80.48 0.999957 -80.48 0.008633 -169.2
8.54740000 0.008656 -171.9 0.999957 -80.48 0.999957 -80.48 0.008655 -169.2
8.54760000 0.008678 -171.9 0.999957 -80.48 0.999957 -80.48 0.008678 -169.2
8.54780000 0.008700 -171.9 0.999957 -80.49 0.999957 -80.49 0.008700 -169.2
8.54800000 0.008722 -171.9 0.999957 -80.49 0.999957 -80.49 0.008722 -169.2
8.54820000 0.008745 -171.9 0.999956 -80.49 0.999956 -80.49 0.008745 -169.2
8.54840000 0.008767 -171.9 0.999956 -80.50 0.999956 -80.50 0.008767 -169.2
8.54860000 0.008790 -171.9 0.999956 -80.50 0.999956 -80.50 0.008789 -169.2
8.54880000 0.008812 -171.9 0.999956 -80.50 0.999956 -80.50 0.008812 -169.2
8.54900000 0.008835 -171.9 0.999956 -80.51 0.999956 -80.51 0.008834 -169.2
8.54920000 0.008857 -171.9 0.999955 -80.51 0.999955 -80.51 0.008857 -169.2
8.54940000 0.008880 -171.9 0.999955 -80.51 0.999955 -80.51 0.008880 -169.2
8.54960000 0.008902 -171.9 0.999955 -80.52 0.999955 -80.52 0.008902 -169.2
8.54980000 0.008925 -171.9 0.999955 -80.52 0.999955 -80.52 0.008925 -169.2
8.55000000 0.008948 -171.9 0.999955 -80.52 0.999955 -80.52 0.008948 -169.2
8.55020000 0.008971 -171.9 0.999954 -80.53 0.999954 -80.53 0.008970 -169.2
8.55040000 0.008993 -171.9 0.999954 -80.53 0.999954 -80.53 0.008993 -169.3
8.55060000 0.009016 -171.9 0.999954 -80.53 0.999954 -80.53 0.009016 -169.3
8.55080000 0.009039 -171.9 0.999954 -80.54 0.999954 -80.54 0.009039 -169.3
8.55100000 0.009062 -171.9 0.999954 -80.54 0.999954 -80.54 0.009062 -169.3
8.55120000 0.009085 -171.9 0.999953 -80.54 0.999953 -80.54 0.009085 -169.3
8.55140000 0.009108 -171.9 0.999953 -80.54 0.999953 -80.54 0.009108 -169.3
8.55160000 0.009131 -171.9 0.999953 -80.55 0.999953 -80.55 0.009131 -169.3
8.55180000 0.009154 -171.9 0.999953 -80.55 0.999953 -80.55 0.009154 -169.3
8.55200000 0.009177 -171.9 0.999952 -80.55 0.999952 -80.55 0.009177 -169.3
8.55220000 0.009200 -171.9 0.999952 -80.56 0.999952 -80.56 0.009200 -169.3
8.55240000 0.009223 -171.9 0.999952 -80.56 0.999952 -80.56 0.009223 -169.3
8.55260000 0.009247 -171.9 0.999952 -80.56 0.999952 -80.56 0.009246 -169.3
8.55280000 0.009270 -171.9 0.999952 -80.57 0.999952 -80.57 0.009270 -169.3
8.55300000 0.009293 -171.9 0.999951 -80.57 0.999951 -80.57 0.009293 -169.3
8.55320000 0.009317 -171.9 0.999951 -80.57 0.999951 -80.57 0.009316 -169.3
8.55340000 0.009340 -171.9 0.999951 -80.58 0.999951 -80.58 0.009340 -169.3
8.55360000 0.009363 -171.9 0.999951 -80.58 0.999951 -80.58 0.009363 -169.3
8.55380000 0.009387 -171.9 0.999950 -80.58 0.999950 -80.58 0.009387 -169.3
8.55400000 0.009410 -171.9 0.999950 -80.59 0.999950 -80.59 0.009410 -169.3
8.55420000 0.009434 -171.9 0.999950 -80.59 0.999950 -80.59 0.009434 -169.4
8.55440000 0.009457 -171.9 0.999950 -80.59 0.999950 -80.59 0.009457 -169.4
8.55460000 0.009481 -171.9 0.999950 -80.60 0.999950 -80.60 0.009481 -169.4
8.55480000 0.009505 -171.9 0.999949 -80.60 0.999949 -80.60 0.009504 -169.4
8.55500000 0.009528 -171.9 0.999949 -80.60 0.999949 -80.60 0.009528 -169.4
8.55520000 0.009552 -171.9 0.999949 -80.61 0.999949 -80.61 0.009552 -169.4
8.55540000 0.009576 -171.9 0.999949 -80.61 0.999949 -80.61 0.009576 -169.4
8.55560000 0.009600 -171.9 0.999948 -80.61 0.999948 -80.61 0.009600 -169.4
8.55580000 0.009624 -171.9 0.999948 -80.62 0.999948 -80.62 0.009623 -169.4
8.55600000 0.009647 -171.9 0.999948 -80.62 0.999948 -80.62 0.009647 -169.4
8.55620000 0.009671 -171.9 0.999948 -80.62 0.999948 -80.62 0.009671 -169.4
8.55640000 0.009695 -171.9 0.999947 -80.63 0.999947 -80.63 0.009695 -169.4
8.55660000 0.009719 -171.9 0.999947 -80.63 0.999947 -80.63 0.009719 -169.4
8.55680000 0.009743 -171.9 0.999947 -80.63 0.999947 -80.63 0.009743 -169.4
8.55700000 0.009768 -171.9 0.999947 -80.63 0.999947 -80.63 0.009767 -169.4
8.55720000 0.009792 -171.9 0.999946 -80.64 0.999946 -80.64 0.009792 -169.4
8.55740000 0.009816 -171.9 0.999946 -80.64 0.999946 -80.64 0.009816 -169.4
8.55760000 0.009840 -171.9 0.999946 -80.64 0.999946 -80.64 0.009840 -169.4
8.55780000 0.009864 -171.9 0.999946 -80.65 0.999946 -80.65 0.009864 -169.4
8.55800000 0.009889 -171.9 0.999946 -80.65 0.999946 -80.65 0.009889 -169.5
8.55820000 0.009913 -171.9 0.999945 -80.65 0.999945 -80.65 0.009913 -169.5
8.55840000 0.009938 -171.9 0.999945 -80.66 0.999945 -80.66 0.009937 -169.5
8.55860000 0.009962 -171.9 0.999945 -80.66 0.999945 -80.66 0.009962 -169.5
8.55880000 0.009986 -171.9 0.999945 -80.66 0.999945 -80.66 0.009986 -169.5
8.55900000 0.010011 -171.9 0.999944 -80.67 0.999944 -80.67 0.010011 -169.5
8.55920000 0.010036 -171.9 0.999944 -80.67 0.999944 -80.67 0.010035 -169.5
8.55940000 0.010060 -171.9 0.999944 -80.67 0.999944 -80.67 0.010060 -169.5
8.55960000 0.010085 -171.9 0.999944 -80.68 0.999944 -80.68 0.010085 -169.5
8.55980000 0.010110 -171.9 0.999943 -80.68 0.999943 -80.68 0.010109 -169.5
8.56000000 0.010134 -171.9 0.999943 -80.68 0.999943 -80.68 0.010134 -169.5
8.56020000 0.010159 -171.9 0.999943 -80.69 0.999943 -80.69 0.010159 -169.5
8.56040000 0.010184 -171.9 0.999942 -80.69 0.999942 -80.69 0.010184 -169.5
8.56060000 0.010209 -171.9 0.999942 -80.69 0.999942 -80.69 0.010209 -169.5
8.56080000 0.010234 -171.9 0.999942 -80.70 0.999942 -80.70 0.010234 -169.5
8.56100000 0.010259 -171.9 0.999942 -80.70 0.999942 -80.70 0.010259 -169.5
8.56120000 0.010284 -171.9 0.999941 -80.70 0.999941 -80.70 0.010284 -169.5
8.56140000 0.010309 -171.9 0.999941 -80.71 0.999941 -80.71 0.010309 -169.5
8.56160000 0.010334 -171.9 0.999941 -80.71 0.999941 -80.71 0.010334 -169.5
8.56180000 0.010359 -171.9 0.999941 -80.71 0.999941 -80.71 0.010359 -169.6
8.56200000 0.010384 -171.9 0.999940 -80.72 0.999940 -80.72 0.010384 -169.6
8.56220000 0.010409 -171.9 0.999940 -80.72 0.999940 -80.72 0.010409 -169.6
8.56240000 0.010435 -171.9 0.999940 -80.72 0.999940 -80.72 0.010435 -169.6
8.56260000 0.010460 -171.9 0.999940 -80.73 0.999940 -80.73 0.010460 -169.6
8.56280000 0.010485 -171.9 0.999939 -80.73 0.999939 -80.73 0.010485 -169.6
8.56300000 0.010511 -171.9 0.999939 -80.73 0.999939 -80.73 0.010511 -169.6
8.56320000 0.010536 -171.9 0.999939 -80.74 0.999939 -80.74 0.010536 -169.6
8.56340000 0.010562 -171.9 0.999938 -80.74 0.999938 -80.74 0.010562 -169.6
8.56360000 0.010587 -171.9 0.999938 -80.74 0.999938 -80.74 0.010587 -169.6
8.56380000 0.010613 -171.9 0.999938 -80.75 0.999938 -80.75 0.010613 -169.6
8.56400000 0.010639 -171.9 0.999938 -80.75 0.999938 -80.75 0.010638 -169.6
8.56420000 0.010664 -171.9 0.999937 -80.75 0.999937 -80.75 0.010664 -169.6
8.56440000 0.010690 -172.0 0.999937 -80.76 0.999937 -80.76 0.010690 -169.6
8.56460000 0.010716 -172.0 0.999937 -80.76 0.999937 -80.76 0.010716 -169.6
8.56480000 0.010742 -172.0 0.999937 -80.76 0.999937 -80.76 0.010741 -169.6
8.56500000 0.010767 -172.0 0.999936 -80.77 0.999936 -80.77 0.010767 -169.6
8.56520000 0.010793 -172.0 0.999936 -80.77 0.999936 -80.77 0.010793 -169.6
8.56540000 0.010819 -172.0 0.999936 -80.77 0.999936 -80.77 0.010819 -169.6
8.56560000 0.010845 -172.0 0.999935 -80.78 0.999935 -80.78 0.010845 -169.6
8.56580000 0.010871 -172.0 0.999935 -80.78 0.999935 -80.78 0.010871 -169.7
8.56600000 0.010897 -172.0 0.999935 -80.78 0.999935 -80.78 0.010897 -169.7
8.56620000 0.010924 -172.0 0.999935 -80.79 0.999935 -80.79 0.010923 -169.7
8.56640000 0.010950 -172.0 0.999934 -80.79 0.999934 -80.79 0.010950 -169.7
8.56660000 0.010976 -172.0 0.999934 -80.79 0.999934 -80.79 0.010976 -169.7
8.56680000 0.011002 -172.0 0.999934 -80.80 0.999934 -80.80 0.011002 -169.7
8.56700000 0.011029 -172.0 0.999933 -80.80 0.999933 -80.80 0.011029 -169.7
8.56720000 0.011055 -172.0 0.999933 -80.80 0.999933 -80.80 0.011055 -169.7
8.56740000 0.011082 -172.0 0.999933 -80.81 0.999933 -80.81 0.011081 -169.7
8.56760000 0.011108 -172.0 0.999932 -80.81 0.999932 -80.81 0.011108 -169.7
8.56780000 0.011135 -172.0 0.999932 -80.81 0.999932 -80.81 0.011134 -169.7
8.56800000 0.011161 -172.0 0.999932 -80.82 0.999932 -80.82 0.011161 -169.7
8.56820000 0.011188 -172.0 0.999932 -80.82 0.999932 -80.82 0.011188 -169.7
8.56840000 0.011214 -172.0 0.999931 -80.82 0.999931 -80.82 0.011214 -169.7
8.56860000 0.011241 -172.0 0.999931 -80.83 0.999931 -80.83 0.011241 -169.7
8.56880000 0.011268 -172.0 0.999931 -80.83 0.999931 -80.83 0.011268 -169.7
8.56900000 0.011295 -172.0 0.999930 -80.83 0.999930 -80.83 0.011295 -169.7
8.56920000 0.011322 -172.0 0.999930 -80.84 0.999930 -80.84 0.011321 -169.7
8.56940000 0.011348 -172.0 0.999930 -80.84 0.999930 -80.84 0.011348 -169.7
8.56960000 0.011375 -172.0 0.999929 -80.85 0.999929 -80.85 0.011375 -169.7
8.56980000 0.011402 -172.0 0.999929 -80.85 0.999929 -80.85 0.011402 -169.8
8.57000000 0.011430 -172.0 0.999929 -80.85 0.999929 -80.85 0.011429 -169.8
8.57020000 0.011457 -172.0 0.999928 -80.86 0.999928 -80.86 0.011456 -169.8
8.57040000 0.011484 -172.0 0.999928 -80.86 0.999928 -80.86 0.011484 -169.8
8.57060000 0.011511 -172.0 0.999928 -80.86 0.999928 -80.86 0.011511 -169.8
8.57080000 0.011538 -172.0 0.999928 -80.87 0.999928 -80.87 0.011538 -169.8
8.57100000 0.011566 -172.0 0.999927 -80.87 0.999927 -80.87 0.011565 -169.8
8.57120000 0.011593 -172.0 0.999927 -80.87 0.999927 -80.87 0.011593 -169.8
8.57140000 0.011620 -172.0 0.999927 -80.88 0.999927 -80.88 0.011620 -169.8
8.57160000 0.011648 -172.0 0.999926 -80.88 0.999926 -80.88 0.011648 -169.8
8.57180000 0.011675 -172.0 0.999926 -80.88 0.999926 -80.88 0.011675 -169.8
8.57200000 0.011703 -172.0 0.999926 -80.89 0.999926 -80.89 0.011703 -169.8
8.57220000 0.011731 -172.0 0.999925 -80.89 0.999925 -80.89 0.011730 -169.8
8.57240000 0.011758 -172.0 0.999925 -80.89 0.999925 -80.89 0.011758 -169.8
8.57260000 0.011786 -172.0 0.999925 -80.90 0.999925 -80.90 0.011786 -169.8
8.57280000 0.011814 -172.0 0.999924 -80.90 0.999924 -80.90 0.011814 -169.8
8.57300000 0.011841 -172.0 0.999924 -80.90 0.999924 -80.90 0.011841 -169.8
8.57320000 0.011869 -172.0 0.999924 -80.91 0.999924 -80.91 0.011869 -169.8
8.57340000 0.011897 -172.0 0.999923 -80.91 0.999923 -80.91 0.011897 -169.8
8.57360000 0.011925 -172.0 0.999923 -80.91 0.999923 -80.91 0.011925 -169.8
8.57380000 0.011953 -172.0 0.999923 -80.92 0.999923 -80.92 0.011953 -169.9
8.57400000 0.011981 -172.0 0.999922 -80.92 0.999922 -80.92 0.011981 -169.9
8.57420000 0.012010 -172.0 0.999922 -80.92 0.999922 -80.92 0.012009 -169.9
8.57440000 0.012038 -172.0 0.999922 -80.93 0.999922 -80.93 0.012038 -169.9
8.57460000 0.012066 -172.0 0.999921 -80.93 0.999921 -80.93 0.012066 -169.9
8.57480000 0.012094 -172.0 0.999921 -80.93 0.999921 -80.93 0.012094 -169.9
8.57500000 0.012123 -172.0 0.999920 -80.94 0.999920 -80.94 0.012122 -169.9
8.57520000 0.012151 -172.0 0.999920 -80.94 0.999920 -80.94 0.012151 -169.9
8.57540000 0.012179 -172.0 0.999920 -80.95 0.999920 -80.95 0.012179 -169.9
8.57560000 0.012208 -172.0 0.999919 -80.95 0.999919 -80.95 0.012208 -169.9
8.57580000 0.012236 -172.0 0.999919 -80.95 0.999919 -80.95 0.012236 -169.9
8.57600000 0.012265 -172.1 0.999919 -80.96 0.999919 -80.96 0.012265 -169.9
8.57620000 0.012294 -172.1 0.999918 -80.96 0.999918 -80.96 0.012294 -169.9
8.57640000 0.012322 -172.1 0.999918 -80.96 0.999918 -80.96 0.012322 -169.9
8.57660000 0.012351 -172.1 0.999918 -80.97 0.999918 -80.97 0.012351 -169.9
8.57680000 0.012380 -172.1 0.999917 -80.97 0.999917 -80.97 0.012380 -169.9
8.57700000 0.012409 -172.1 0.999917 -80.97 0.999917 -80.97 0.012409 -169.9
8.57720000 0.012438 -172.1 0.999917 -80.98 0.999917 -80.98 0.012438 -169.9
8.57740000 0.012467 -172.1 0.999916 -80.98 0.999916 -80.98 0.012467 -169.9
8.57760000 0.012496 -172.1 0.999916 -80.98 0.999916 -80.98 0.012496 -170.0
8.57780000 0.012525 -172.1 0.999915 -80.99 0.999915 -80.99 0.012525 -170.0
8.57800000 0.012554 -172.1 0.999915 -80.99 0.999915 -80.99 0.012554 -170.0
8.57820000 0.012583 -172.1 0.999915 -80.99 0.999915 -80.99 0.012583 -170.0
8.57840000 0.012613 -172.1 0.999914 -81.00 0.999914 -81.00 0.012612 -170.0