! Sonnet Data File
! From: emgraph Version : 16.52
! From Project: transmon_brg
! Data is De-embedded 
! Data File Written: 11/11/2017 22:44:26
!< HDATE 11/11/2017 16:55:33
!< MDATE 11/11/2017 17:38:18
!< PARAMS
!< Lj = 15.24
!< Gap = 6.0
!< Width = 10.0
!< Airgap = 6.0
!< Pwidth = 2000.0
!< Dist = 2400.0
!< END PARAMS
# GHZ S MA R 51.80000
8.50000000 0.001499 -177.2 0.999994 -79.81 0.999994 -79.81 0.001498 -162.7
!< P1 F=8.5 Eeff=(6.44695349 -2.9785e-5) Z0=(51.7999087 1.19092e-4) R=0.0 C=0.0 
!< P2 F=8.5 Eeff=(6.44695349 -2.9785e-5) Z0=(51.7999087 1.19092e-4) R=0.0 C=0.0 
8.50020000 0.001514 -177.1 0.999994 -79.81 0.999994 -79.81 0.001513 -162.7
8.50040000 0.001529 -177.1 0.999994 -79.81 0.999994 -79.81 0.001529 -162.8
8.50060000 0.001545 -177.0 0.999994 -79.82 0.999994 -79.82 0.001544 -162.9
8.50080000 0.001560 -176.9 0.999994 -79.82 0.999994 -79.82 0.001559 -163.0
8.50100000 0.001575 -176.9 0.999994 -79.82 0.999994 -79.82 0.001575 -163.0
8.50120000 0.001591 -176.8 0.999994 -79.83 0.999994 -79.83 0.001590 -163.1
8.50140000 0.001606 -176.8 0.999994 -79.83 0.999994 -79.83 0.001605 -163.1
8.50160000 0.001622 -176.7 0.999994 -79.83 0.999994 -79.83 0.001621 -163.2
8.50180000 0.001637 -176.6 0.999994 -79.83 0.999994 -79.83 0.001636 -163.3
8.50200000 0.001652 -176.6 0.999994 -79.84 0.999994 -79.84 0.001652 -163.3
8.50220000 0.001668 -176.5 0.999994 -79.84 0.999994 -79.84 0.001667 -163.4
8.50240000 0.001683 -176.5 0.999994 -79.84 0.999994 -79.84 0.001683 -163.5
8.50260000 0.001699 -176.4 0.999994 -79.84 0.999994 -79.84 0.001698 -163.5
8.50280000 0.001715 -176.4 0.999994 -79.85 0.999994 -79.85 0.001714 -163.6
8.50300000 0.001730 -176.3 0.999994 -79.85 0.999994 -79.85 0.001729 -163.6
8.50320000 0.001746 -176.3 0.999994 -79.85 0.999994 -79.85 0.001745 -163.7
8.50340000 0.001761 -176.2 0.999994 -79.86 0.999994 -79.86 0.001761 -163.7
8.50360000 0.001777 -176.2 0.999994 -79.86 0.999994 -79.86 0.001776 -163.8
8.50380000 0.001793 -176.1 0.999994 -79.86 0.999994 -79.86 0.001792 -163.8
8.50400000 0.001808 -176.1 0.999994 -79.86 0.999994 -79.86 0.001808 -163.9
8.50420000 0.001824 -176.0 0.999994 -79.87 0.999994 -79.87 0.001823 -163.9
8.50440000 0.001840 -176.0 0.999994 -79.87 0.999994 -79.87 0.001839 -164.0
8.50460000 0.001856 -175.9 0.999994 -79.87 0.999994 -79.87 0.001855 -164.0
8.50480000 0.001871 -175.9 0.999994 -79.88 0.999994 -79.88 0.001871 -164.1
8.50500000 0.001887 -175.8 0.999994 -79.88 0.999994 -79.88 0.001887 -164.1
8.50520000 0.001903 -175.8 0.999994 -79.88 0.999994 -79.88 0.001902 -164.2
8.50540000 0.001919 -175.7 0.999994 -79.88 0.999994 -79.88 0.001918 -164.2
8.50560000 0.001935 -175.7 0.999994 -79.89 0.999994 -79.89 0.001934 -164.3
8.50580000 0.001951 -175.7 0.999993 -79.89 0.999993 -79.89 0.001950 -164.3
8.50600000 0.001967 -175.6 0.999993 -79.89 0.999993 -79.89 0.001966 -164.4
8.50620000 0.001983 -175.6 0.999993 -79.89 0.999993 -79.89 0.001982 -164.4
8.50640000 0.001999 -175.5 0.999993 -79.90 0.999993 -79.90 0.001998 -164.5
8.50660000 0.002015 -175.5 0.999993 -79.90 0.999993 -79.90 0.002014 -164.5
8.50680000 0.002031 -175.5 0.999993 -79.90 0.999993 -79.90 0.002030 -164.5
8.50700000 0.002047 -175.4 0.999993 -79.91 0.999993 -79.91 0.002046 -164.6
8.50720000 0.002063 -175.4 0.999993 -79.91 0.999993 -79.91 0.002062 -164.6
8.50740000 0.002079 -175.4 0.999993 -79.91 0.999993 -79.91 0.002078 -164.7
8.50760000 0.002095 -175.3 0.999993 -79.91 0.999993 -79.91 0.002094 -164.7
8.50780000 0.002111 -175.3 0.999993 -79.92 0.999993 -79.92 0.002111 -164.7
8.50800000 0.002128 -175.2 0.999993 -79.92 0.999993 -79.92 0.002127 -164.8
8.50820000 0.002144 -175.2 0.999993 -79.92 0.999993 -79.92 0.002143 -164.8
8.50840000 0.002160 -175.2 0.999993 -79.93 0.999993 -79.93 0.002159 -164.9
8.50860000 0.002176 -175.1 0.999993 -79.93 0.999993 -79.93 0.002176 -164.9
8.50880000 0.002193 -175.1 0.999993 -79.93 0.999993 -79.93 0.002192 -164.9
8.50900000 0.002209 -175.1 0.999993 -79.93 0.999993 -79.93 0.002208 -165.0
8.50920000 0.002225 -175.0 0.999993 -79.94 0.999993 -79.94 0.002225 -165.0
8.50940000 0.002242 -175.0 0.999993 -79.94 0.999993 -79.94 0.002241 -165.0
8.50960000 0.002258 -175.0 0.999993 -79.94 0.999993 -79.94 0.002257 -165.1
8.50980000 0.002274 -175.0 0.999993 -79.95 0.999993 -79.95 0.002274 -165.1
8.51000000 0.002291 -174.9 0.999993 -79.95 0.999993 -79.95 0.002290 -165.2
8.51020000 0.002307 -174.9 0.999993 -79.95 0.999993 -79.95 0.002307 -165.2
8.51040000 0.002324 -174.9 0.999993 -79.95 0.999993 -79.95 0.002323 -165.2
8.51060000 0.002340 -174.8 0.999993 -79.96 0.999993 -79.96 0.002340 -165.3
8.51080000 0.002357 -174.8 0.999993 -79.96 0.999993 -79.96 0.002356 -165.3
8.51100000 0.002373 -174.8 0.999993 -79.96 0.999993 -79.96 0.002373 -165.3
8.51120000 0.002390 -174.8 0.999992 -79.97 0.999992 -79.97 0.002389 -165.4
8.51140000 0.002407 -174.7 0.999992 -79.97 0.999992 -79.97 0.002406 -165.4
8.51160000 0.002423 -174.7 0.999992 -79.97 0.999992 -79.97 0.002423 -165.4
8.51180000 0.002440 -174.7 0.999992 -79.97 0.999992 -79.97 0.002439 -165.5
8.51200000 0.002457 -174.6 0.999992 -79.98 0.999992 -79.98 0.002456 -165.5
8.51220000 0.002473 -174.6 0.999992 -79.98 0.999992 -79.98 0.002473 -165.5
8.51240000 0.002490 -174.6 0.999992 -79.98 0.999992 -79.98 0.002489 -165.5
8.51260000 0.002507 -174.6 0.999992 -79.99 0.999992 -79.99 0.002506 -165.6
8.51280000 0.002524 -174.5 0.999992 -79.99 0.999992 -79.99 0.002523 -165.6
8.51300000 0.002540 -174.5 0.999992 -79.99 0.999992 -79.99 0.002540 -165.6
8.51320000 0.002557 -174.5 0.999992 -79.99 0.999992 -79.99 0.002557 -165.7
8.51340000 0.002574 -174.5 0.999992 -80.00 0.999992 -80.00 0.002573 -165.7
8.51360000 0.002591 -174.4 0.999992 -80.00 0.999992 -80.00 0.002590 -165.7
8.51380000 0.002608 -174.4 0.999992 -80.00 0.999992 -80.00 0.002607 -165.7
8.51400000 0.002625 -174.4 0.999992 -80.01 0.999992 -80.01 0.002624 -165.8
8.51420000 0.002642 -174.4 0.999992 -80.01 0.999992 -80.01 0.002641 -165.8
8.51440000 0.002659 -174.4 0.999992 -80.01 0.999992 -80.01 0.002658 -165.8
8.51460000 0.002676 -174.3 0.999992 -80.01 0.999992 -80.01 0.002675 -165.9
8.51480000 0.002693 -174.3 0.999992 -80.02 0.999992 -80.02 0.002692 -165.9
8.51500000 0.002710 -174.3 0.999992 -80.02 0.999992 -80.02 0.002709 -165.9
8.51520000 0.002727 -174.3 0.999992 -80.02 0.999992 -80.02 0.002726 -165.9
8.51540000 0.002744 -174.2 0.999992 -80.03 0.999992 -80.03 0.002744 -166.0
8.51560000 0.002761 -174.2 0.999991 -80.03 0.999991 -80.03 0.002761 -166.0
8.51580000 0.002778 -174.2 0.999991 -80.03 0.999991 -80.03 0.002778 -166.0
8.51600000 0.002796 -174.2 0.999991 -80.03 0.999991 -80.03 0.002795 -166.0
8.51620000 0.002813 -174.2 0.999991 -80.04 0.999991 -80.04 0.002812 -166.1
8.51640000 0.002830 -174.1 0.999991 -80.04 0.999991 -80.04 0.002830 -166.1
8.51660000 0.002847 -174.1 0.999991 -80.04 0.999991 -80.04 0.002847 -166.1
8.51680000 0.002865 -174.1 0.999991 -80.05 0.999991 -80.05 0.002864 -166.1
8.51700000 0.002882 -174.1 0.999991 -80.05 0.999991 -80.05 0.002882 -166.2
8.51720000 0.002899 -174.1 0.999991 -80.05 0.999991 -80.05 0.002899 -166.2
8.51740000 0.002917 -174.0 0.999991 -80.05 0.999991 -80.05 0.002916 -166.2
8.51760000 0.002934 -174.0 0.999991 -80.06 0.999991 -80.06 0.002934 -166.2
8.51780000 0.002952 -174.0 0.999991 -80.06 0.999991 -80.06 0.002951 -166.3
8.51800000 0.002969 -174.0 0.999991 -80.06 0.999991 -80.06 0.002969 -166.3
8.51820000 0.002987 -174.0 0.999991 -80.07 0.999991 -80.07 0.002986 -166.3
8.51840000 0.003004 -174.0 0.999991 -80.07 0.999991 -80.07 0.003004 -166.3
8.51860000 0.003022 -173.9 0.999991 -80.07 0.999991 -80.07 0.003021 -166.3
8.51880000 0.003039 -173.9 0.999991 -80.07 0.999991 -80.07 0.003039 -166.4
8.51900000 0.003057 -173.9 0.999991 -80.08 0.999991 -80.08 0.003057 -166.4
8.51920000 0.003075 -173.9 0.999990 -80.08 0.999990 -80.08 0.003074 -166.4
8.51940000 0.003092 -173.9 0.999990 -80.08 0.999990 -80.08 0.003092 -166.4
8.51960000 0.003110 -173.9 0.999990 -80.09 0.999990 -80.09 0.003109 -166.5
8.51980000 0.003128 -173.8 0.999990 -80.09 0.999990 -80.09 0.003127 -166.5
8.52000000 0.003145 -173.8 0.999990 -80.09 0.999990 -80.09 0.003145 -166.5
8.52020000 0.003163 -173.8 0.999990 -80.09 0.999990 -80.09 0.003163 -166.5
8.52040000 0.003181 -173.8 0.999990 -80.10 0.999990 -80.10 0.003181 -166.5
8.52060000 0.003199 -173.8 0.999990 -80.10 0.999990 -80.10 0.003198 -166.6
8.52080000 0.003217 -173.8 0.999990 -80.10 0.999990 -80.10 0.003216 -166.6
8.52100000 0.003235 -173.7 0.999990 -80.11 0.999990 -80.11 0.003234 -166.6
8.52120000 0.003252 -173.7 0.999990 -80.11 0.999990 -80.11 0.003252 -166.6
8.52140000 0.003270 -173.7 0.999990 -80.11 0.999990 -80.11 0.003270 -166.6
8.52160000 0.003288 -173.7 0.999990 -80.11 0.999990 -80.11 0.003288 -166.7
8.52180000 0.003306 -173.7 0.999990 -80.12 0.999990 -80.12 0.003306 -166.7
8.52200000 0.003324 -173.7 0.999990 -80.12 0.999990 -80.12 0.003324 -166.7
8.52220000 0.003342 -173.7 0.999990 -80.12 0.999990 -80.12 0.003342 -166.7
8.52240000 0.003360 -173.6 0.999990 -80.13 0.999990 -80.13 0.003360 -166.7
8.52260000 0.003379 -173.6 0.999989 -80.13 0.999989 -80.13 0.003378 -166.8
8.52280000 0.003397 -173.6 0.999989 -80.13 0.999989 -80.13 0.003396 -166.8
8.52300000 0.003415 -173.6 0.999989 -80.14 0.999989 -80.14 0.003414 -166.8
8.52320000 0.003433 -173.6 0.999989 -80.14 0.999989 -80.14 0.003433 -166.8
8.52340000 0.003451 -173.6 0.999989 -80.14 0.999989 -80.14 0.003451 -166.8
8.52360000 0.003470 -173.6 0.999989 -80.14 0.999989 -80.14 0.003469 -166.9
8.52380000 0.003488 -173.6 0.999989 -80.15 0.999989 -80.15 0.003487 -166.9
8.52400000 0.003506 -173.5 0.999989 -80.15 0.999989 -80.15 0.003506 -166.9
8.52420000 0.003524 -173.5 0.999989 -80.15 0.999989 -80.15 0.003524 -166.9
8.52440000 0.003543 -173.5 0.999989 -80.16 0.999989 -80.16 0.003542 -166.9
8.52460000 0.003561 -173.5 0.999989 -80.16 0.999989 -80.16 0.003561 -166.9
8.52480000 0.003580 -173.5 0.999989 -80.16 0.999989 -80.16 0.003579 -167.0
8.52500000 0.003598 -173.5 0.999989 -80.16 0.999989 -80.16 0.003598 -167.0
8.52520000 0.003617 -173.5 0.999989 -80.17 0.999989 -80.17 0.003616 -167.0
8.52540000 0.003635 -173.5 0.999989 -80.17 0.999989 -80.17 0.003635 -167.0
8.52560000 0.003654 -173.4 0.999988 -80.17 0.999988 -80.17 0.003653 -167.0
8.52580000 0.003672 -173.4 0.999988 -80.18 0.999988 -80.18 0.003672 -167.0
8.52600000 0.003691 -173.4 0.999988 -80.18 0.999988 -80.18 0.003690 -167.1
8.52620000 0.003709 -173.4 0.999988 -80.18 0.999988 -80.18 0.003709 -167.1
8.52640000 0.003728 -173.4 0.999988 -80.19 0.999988 -80.19 0.003728 -167.1
8.52660000 0.003747 -173.4 0.999988 -80.19 0.999988 -80.19 0.003746 -167.1
8.52680000 0.003765 -173.4 0.999988 -80.19 0.999988 -80.19 0.003765 -167.1
8.52700000 0.003784 -173.4 0.999988 -80.19 0.999988 -80.19 0.003784 -167.1
8.52720000 0.003803 -173.4 0.999988 -80.20 0.999988 -80.20 0.003803 -167.2
8.52740000 0.003822 -173.3 0.999988 -80.20 0.999988 -80.20 0.003821 -167.2
8.52760000 0.003841 -173.3 0.999988 -80.20 0.999988 -80.20 0.003840 -167.2
8.52780000 0.003859 -173.3 0.999988 -80.21 0.999988 -80.21 0.003859 -167.2
8.52800000 0.003878 -173.3 0.999988 -80.21 0.999988 -80.21 0.003878 -167.2
8.52820000 0.003897 -173.3 0.999988 -80.21 0.999988 -80.21 0.003897 -167.2
8.52840000 0.003916 -173.3 0.999987 -80.21 0.999987 -80.21 0.003916 -167.3
8.52860000 0.003935 -173.3 0.999987 -80.22 0.999987 -80.22 0.003935 -167.3
8.52880000 0.003954 -173.3 0.999987 -80.22 0.999987 -80.22 0.003954 -167.3
8.52900000 0.003973 -173.3 0.999987 -80.22 0.999987 -80.22 0.003973 -167.3
8.52920000 0.003992 -173.3 0.999987 -80.23 0.999987 -80.23 0.003992 -167.3
8.52940000 0.004011 -173.2 0.999987 -80.23 0.999987 -80.23 0.004011 -167.3
8.52960000 0.004030 -173.2 0.999987 -80.23 0.999987 -80.23 0.004030 -167.3
8.52980000 0.004050 -173.2 0.999987 -80.24 0.999987 -80.24 0.004049 -167.4
8.53000000 0.004069 -173.2 0.999987 -80.24 0.999987 -80.24 0.004068 -167.4
8.53020000 0.004088 -173.2 0.999987 -80.24 0.999987 -80.24 0.004088 -167.4
8.53040000 0.004107 -173.2 0.999987 -80.24 0.999987 -80.24 0.004107 -167.4
8.53060000 0.004127 -173.2 0.999987 -80.25 0.999987 -80.25 0.004126 -167.4
8.53080000 0.004146 -173.2 0.999986 -80.25 0.999986 -80.25 0.004145 -167.4
8.53100000 0.004165 -173.2 0.999986 -80.25 0.999986 -80.25 0.004165 -167.4
8.53120000 0.004185 -173.2 0.999986 -80.26 0.999986 -80.26 0.004184 -167.5
8.53140000 0.004204 -173.2 0.999986 -80.26 0.999986 -80.26 0.004204 -167.5
8.53160000 0.004223 -173.1 0.999986 -80.26 0.999986 -80.26 0.004223 -167.5
8.53180000 0.004243 -173.1 0.999986 -80.27 0.999986 -80.27 0.004242 -167.5
8.53200000 0.004262 -173.1 0.999986 -80.27 0.999986 -80.27 0.004262 -167.5
8.53220000 0.004282 -173.1 0.999986 -80.27 0.999986 -80.27 0.004282 -167.5
8.53240000 0.004301 -173.1 0.999986 -80.27 0.999986 -80.27 0.004301 -167.5
8.53260000 0.004321 -173.1 0.999986 -80.28 0.999986 -80.28 0.004321 -167.6
8.53280000 0.004341 -173.1 0.999986 -80.28 0.999986 -80.28 0.004340 -167.6
8.53300000 0.004360 -173.1 0.999986 -80.28 0.999986 -80.28 0.004360 -167.6
8.53320000 0.004380 -173.1 0.999985 -80.29 0.999985 -80.29 0.004380 -167.6
8.53340000 0.004400 -173.1 0.999985 -80.29 0.999985 -80.29 0.004399 -167.6
8.53360000 0.004419 -173.1 0.999985 -80.29 0.999985 -80.29 0.004419 -167.6
8.53380000 0.004439 -173.1 0.999985 -80.30 0.999985 -80.30 0.004439 -167.6
8.53400000 0.004459 -173.0 0.999985 -80.30 0.999985 -80.30 0.004459 -167.7
8.53420000 0.004479 -173.0 0.999985 -80.30 0.999985 -80.30 0.004479 -167.7
8.53440000 0.004499 -173.0 0.999985 -80.30 0.999985 -80.30 0.004498 -167.7
8.53460000 0.004519 -173.0 0.999985 -80.31 0.999985 -80.31 0.004518 -167.7
8.53480000 0.004539 -173.0 0.999985 -80.31 0.999985 -80.31 0.004538 -167.7
8.53500000 0.004559 -173.0 0.999985 -80.31 0.999985 -80.31 0.004558 -167.7
8.53520000 0.004579 -173.0 0.999985 -80.32 0.999985 -80.32 0.004578 -167.7
8.53540000 0.004599 -173.0 0.999984 -80.32 0.999984 -80.32 0.004598 -167.7
8.53560000 0.004619 -173.0 0.999984 -80.32 0.999984 -80.32 0.004618 -167.8
8.53580000 0.004639 -173.0 0.999984 -80.33 0.999984 -80.33 0.004638 -167.8
8.53600000 0.004659 -173.0 0.999984 -80.33 0.999984 -80.33 0.004659 -167.8
8.53620000 0.004679 -173.0 0.999984 -80.33 0.999984 -80.33 0.004679 -167.8
8.53640000 0.004699 -173.0 0.999984 -80.33 0.999984 -80.33 0.004699 -167.8
8.53660000 0.004720 -173.0 0.999984 -80.34 0.999984 -80.34 0.004719 -167.8
8.53680000 0.004740 -173.0 0.999984 -80.34 0.999984 -80.34 0.004739 -167.8
8.53700000 0.004760 -172.9 0.999984 -80.34 0.999984 -80.34 0.004760 -167.8
8.53720000 0.004780 -172.9 0.999984 -80.35 0.999984 -80.35 0.004780 -167.9
8.53740000 0.004801 -172.9 0.999983 -80.35 0.999983 -80.35 0.004800 -167.9
8.53760000 0.004821 -172.9 0.999983 -80.35 0.999983 -80.35 0.004821 -167.9
8.53780000 0.004842 -172.9 0.999983 -80.36 0.999983 -80.36 0.004841 -167.9
8.53800000 0.004862 -172.9 0.999983 -80.36 0.999983 -80.36 0.004862 -167.9
8.53820000 0.004883 -172.9 0.999983 -80.36 0.999983 -80.36 0.004882 -167.9
8.53840000 0.004903 -172.9 0.999983 -80.37 0.999983 -80.37 0.004903 -167.9
8.53860000 0.004924 -172.9 0.999983 -80.37 0.999983 -80.37 0.004923 -167.9
8.53880000 0.004944 -172.9 0.999983 -80.37 0.999983 -80.37 0.004944 -167.9
8.53900000 0.004965 -172.9 0.999983 -80.37 0.999983 -80.37 0.004965 -168.0
8.53920000 0.004986 -172.9 0.999983 -80.38 0.999983 -80.38 0.004985 -168.0
8.53940000 0.005006 -172.9 0.999982 -80.38 0.999982 -80.38 0.005006 -168.0
8.53960000 0.005027 -172.9 0.999982 -80.38 0.999982 -80.38 0.005027 -168.0
8.53980000 0.005048 -172.9 0.999982 -80.39 0.999982 -80.39 0.005047 -168.0
8.54000000 0.005069 -172.9 0.999982 -80.39 0.999982 -80.39 0.005068 -168.0
8.54020000 0.005089 -172.9 0.999982 -80.39 0.999982 -80.39 0.005089 -168.0
8.54040000 0.005110 -172.8 0.999982 -80.40 0.999982 -80.40 0.005110 -168.0
8.54060000 0.005131 -172.8 0.999982 -80.40 0.999982 -80.40 0.005131 -168.0
8.54080000 0.005152 -172.8 0.999982 -80.40 0.999982 -80.40 0.005152 -168.1
8.54100000 0.005173 -172.8 0.999982 -80.41 0.999982 -80.41 0.005173 -168.1
8.54120000 0.005194 -172.8 0.999981 -80.41 0.999981 -80.41 0.005194 -168.1
8.54140000 0.005215 -172.8 0.999981 -80.41 0.999981 -80.41 0.005215 -168.1
8.54160000 0.005236 -172.8 0.999981 -80.41 0.999981 -80.41 0.005236 -168.1
8.54180000 0.005257 -172.8 0.999981 -80.42 0.999981 -80.42 0.005257 -168.1
8.54200000 0.005278 -172.8 0.999981 -80.42 0.999981 -80.42 0.005278 -168.1
8.54220000 0.005300 -172.8 0.999981 -80.42 0.999981 -80.42 0.005299 -168.1
8.54240000 0.005321 -172.8 0.999981 -80.43 0.999981 -80.43 0.005321 -168.1
8.54260000 0.005342 -172.8 0.999981 -80.43 0.999981 -80.43 0.005342 -168.2
8.54280000 0.005363 -172.8 0.999980 -80.43 0.999980 -80.43 0.005363 -168.2
8.54300000 0.005385 -172.8 0.999980 -80.44 0.999980 -80.44 0.005384 -168.2
8.54320000 0.005406 -172.8 0.999980 -80.44 0.999980 -80.44 0.005406 -168.2
8.54340000 0.005428 -172.8 0.999980 -80.44 0.999980 -80.44 0.005427 -168.2
8.54360000 0.005449 -172.8 0.999980 -80.45 0.999980 -80.45 0.005449 -168.2
8.54380000 0.005470 -172.8 0.999980 -80.45 0.999980 -80.45 0.005470 -168.2
8.54400000 0.005492 -172.8 0.999980 -80.45 0.999980 -80.45 0.005492 -168.2
8.54420000 0.005513 -172.8 0.999980 -80.46 0.999980 -80.46 0.005513 -168.2
8.54440000 0.005535 -172.8 0.999980 -80.46 0.999980 -80.46 0.005535 -168.3
8.54460000 0.005557 -172.7 0.999979 -80.46 0.999979 -80.46 0.005556 -168.3
8.54480000 0.005578 -172.7 0.999979 -80.46 0.999979 -80.46 0.005578 -168.3
8.54500000 0.005600 -172.7 0.999979 -80.47 0.999979 -80.47 0.005600 -168.3
8.54520000 0.005622 -172.7 0.999979 -80.47 0.999979 -80.47 0.005621 -168.3
8.54540000 0.005643 -172.7 0.999979 -80.47 0.999979 -80.47 0.005643 -168.3
8.54560000 0.005665 -172.7 0.999979 -80.48 0.999979 -80.48 0.005665 -168.3
8.54580000 0.005687 -172.7 0.999979 -80.48 0.999979 -80.48 0.005687 -168.3
8.54600000 0.005709 -172.7 0.999979 -80.48 0.999979 -80.48 0.005709 -168.3
8.54620000 0.005731 -172.7 0.999978 -80.49 0.999978 -80.49 0.005731 -168.3
8.54640000 0.005753 -172.7 0.999978 -80.49 0.999978 -80.49 0.005752 -168.4
8.54660000 0.005775 -172.7 0.999978 -80.49 0.999978 -80.49 0.005774 -168.4
8.54680000 0.005797 -172.7 0.999978 -80.50 0.999978 -80.50 0.005796 -168.4
8.54700000 0.005819 -172.7 0.999978 -80.50 0.999978 -80.50 0.005819 -168.4
8.54720000 0.005841 -172.7 0.999978 -80.50 0.999978 -80.50 0.005841 -168.4
8.54740000 0.005863 -172.7 0.999978 -80.51 0.999978 -80.51 0.005863 -168.4
8.54760000 0.005885 -172.7 0.999977 -80.51 0.999977 -80.51 0.005885 -168.4
8.54780000 0.005907 -172.7 0.999977 -80.51 0.999977 -80.51 0.005907 -168.4
8.54800000 0.005930 -172.7 0.999977 -80.51 0.999977 -80.51 0.005929 -168.4
8.54820000 0.005952 -172.7 0.999977 -80.52 0.999977 -80.52 0.005952 -168.4
8.54840000 0.005974 -172.7 0.999977 -80.52 0.999977 -80.52 0.005974 -168.4
8.54860000 0.005997 -172.7 0.999977 -80.52 0.999977 -80.52 0.005996 -168.5
8.54880000 0.006019 -172.7 0.999977 -80.53 0.999977 -80.53 0.006019 -168.5
8.54900000 0.006041 -172.7 0.999977 -80.53 0.999977 -80.53 0.006041 -168.5
8.54920000 0.006064 -172.7 0.999976 -80.53 0.999976 -80.53 0.006064 -168.5
8.54940000 0.006086 -172.7 0.999976 -80.54 0.999976 -80.54 0.006086 -168.5
8.54960000 0.006109 -172.7 0.999976 -80.54 0.999976 -80.54 0.006109 -168.5
8.54980000 0.006131 -172.7 0.999976 -80.54 0.999976 -80.54 0.006131 -168.5
8.55000000 0.006154 -172.6 0.999976 -80.55 0.999976 -80.55 0.006154 -168.5
8.55020000 0.006177 -172.6 0.999976 -80.55 0.999976 -80.55 0.006176 -168.5
8.55040000 0.006199 -172.6 0.999976 -80.55 0.999976 -80.55 0.006199 -168.5
8.55060000 0.006222 -172.6 0.999975 -80.56 0.999975 -80.56 0.006222 -168.6
8.55080000 0.006245 -172.6 0.999975 -80.56 0.999975 -80.56 0.006245 -168.6
8.55100000 0.006268 -172.6 0.999975 -80.56 0.999975 -80.56 0.006267 -168.6
8.55120000 0.006291 -172.6 0.999975 -80.57 0.999975 -80.57 0.006290 -168.6
8.55140000 0.006313 -172.6 0.999975 -80.57 0.999975 -80.57 0.006313 -168.6
8.55160000 0.006336 -172.6 0.999975 -80.57 0.999975 -80.57 0.006336 -168.6
8.55180000 0.006359 -172.6 0.999975 -80.58 0.999975 -80.58 0.006359 -168.6
8.55200000 0.006382 -172.6 0.999974 -80.58 0.999974 -80.58 0.006382 -168.6
8.55220000 0.006405 -172.6 0.999974 -80.58 0.999974 -80.58 0.006405 -168.6
8.55240000 0.006428 -172.6 0.999974 -80.58 0.999974 -80.58 0.006428 -168.6
8.55260000 0.006452 -172.6 0.999974 -80.59 0.999974 -80.59 0.006451 -168.6
8.55280000 0.006475 -172.6 0.999974 -80.59 0.999974 -80.59 0.006475 -168.6
8.55300000 0.006498 -172.6 0.999974 -80.59 0.999974 -80.59 0.006498 -168.7
8.55320000 0.006521 -172.6 0.999973 -80.60 0.999973 -80.60 0.006521 -168.7
8.55340000 0.006545 -172.6 0.999973 -80.60 0.999973 -80.60 0.006544 -168.7
8.55360000 0.006568 -172.6 0.999973 -80.60 0.999973 -80.60 0.006568 -168.7
8.55380000 0.006591 -172.6 0.999973 -80.61 0.999973 -80.61 0.006591 -168.7
8.55400000 0.006615 -172.6 0.999973 -80.61 0.999973 -80.61 0.006614 -168.7
8.55420000 0.006638 -172.6 0.999973 -80.61 0.999973 -80.61 0.006638 -168.7
8.55440000 0.006662 -172.6 0.999972 -80.62 0.999972 -80.62 0.006661 -168.7
8.55460000 0.006685 -172.6 0.999972 -80.62 0.999972 -80.62 0.006685 -168.7
8.55480000 0.006709 -172.6 0.999972 -80.62 0.999972 -80.62 0.006708 -168.7
8.55500000 0.006732 -172.6 0.999972 -80.63 0.999972 -80.63 0.006732 -168.7
8.55520000 0.006756 -172.6 0.999972 -80.63 0.999972 -80.63 0.006756 -168.8
8.55540000 0.006780 -172.6 0.999972 -80.63 0.999972 -80.63 0.006779 -168.8
8.55560000 0.006803 -172.6 0.999972 -80.64 0.999972 -80.64 0.006803 -168.8
8.55580000 0.006827 -172.6 0.999971 -80.64 0.999971 -80.64 0.006827 -168.8
8.55600000 0.006851 -172.6 0.999971 -80.64 0.999971 -80.64 0.006851 -168.8
8.55620000 0.006875 -172.6 0.999971 -80.65 0.999971 -80.65 0.006875 -168.8
8.55640000 0.006899 -172.6 0.999971 -80.65 0.999971 -80.65 0.006898 -168.8
8.55660000 0.006923 -172.6 0.999971 -80.65 0.999971 -80.65 0.006922 -168.8
8.55680000 0.006947 -172.6 0.999971 -80.66 0.999971 -80.66 0.006946 -168.8
8.55700000 0.006971 -172.6 0.999970 -80.66 0.999970 -80.66 0.006970 -168.8
8.55720000 0.006995 -172.6 0.999970 -80.66 0.999970 -80.66 0.006995 -168.8
8.55740000 0.007019 -172.6 0.999970 -80.67 0.999970 -80.67 0.007019 -168.8
8.55760000 0.007043 -172.6 0.999970 -80.67 0.999970 -80.67 0.007043 -168.9
8.55780000 0.007067 -172.6 0.999970 -80.67 0.999970 -80.67 0.007067 -168.9
8.55800000 0.007091 -172.6 0.999969 -80.68 0.999969 -80.68 0.007091 -168.9
8.55820000 0.007116 -172.5 0.999969 -80.68 0.999969 -80.68 0.007115 -168.9
8.55840000 0.007140 -172.5 0.999969 -80.68 0.999969 -80.68 0.007140 -168.9
8.55860000 0.007164 -172.5 0.999969 -80.69 0.999969 -80.69 0.007164 -168.9
8.55880000 0.007189 -172.5 0.999969 -80.69 0.999969 -80.69 0.007189 -168.9
8.55900000 0.007213 -172.5 0.999969 -80.69 0.999969 -80.69 0.007213 -168.9
8.55920000 0.007238 -172.5 0.999968 -80.70 0.999968 -80.70 0.007238 -168.9
8.55940000 0.007262 -172.5 0.999968 -80.70 0.999968 -80.70 0.007262 -168.9
8.55960000 0.007287 -172.5 0.999968 -80.70 0.999968 -80.70 0.007287 -168.9
8.55980000 0.007312 -172.5 0.999968 -80.71 0.999968 -80.71 0.007311 -168.9
8.56000000 0.007336 -172.5 0.999968 -80.71 0.999968 -80.71 0.007336 -169.0
8.56020000 0.007361 -172.5 0.999967 -80.71 0.999967 -80.71 0.007361 -169.0
8.56040000 0.007386 -172.5 0.999967 -80.71 0.999967 -80.71 0.007385 -169.0
8.56060000 0.007410 -172.5 0.999967 -80.72 0.999967 -80.72 0.007410 -169.0
8.56080000 0.007435 -172.5 0.999967 -80.72 0.999967 -80.72 0.007435 -169.0
8.56100000 0.007460 -172.5 0.999967 -80.72 0.999967 -80.72 0.007460 -169.0
8.56120000 0.007485 -172.5 0.999967 -80.73 0.999967 -80.73 0.007485 -169.0
8.56140000 0.007510 -172.5 0.999966 -80.73 0.999966 -80.73 0.007510 -169.0
8.56160000 0.007535 -172.5 0.999966 -80.73 0.999966 -80.73 0.007535 -169.0
8.56180000 0.007560 -172.5 0.999966 -80.74 0.999966 -80.74 0.007560 -169.0
8.56200000 0.007585 -172.5 0.999966 -80.74 0.999966 -80.74 0.007585 -169.0
8.56220000 0.007611 -172.5 0.999966 -80.74 0.999966 -80.74 0.007610 -169.0
8.56240000 0.007636 -172.5 0.999965 -80.75 0.999965 -80.75 0.007635 -169.0
8.56260000 0.007661 -172.5 0.999965 -80.75 0.999965 -80.75 0.007661 -169.1
8.56280000 0.007686 -172.5 0.999965 -80.75 0.999965 -80.75 0.007686 -169.1
8.56300000 0.007712 -172.5 0.999965 -80.76 0.999965 -80.76 0.007711 -169.1
8.56320000 0.007737 -172.5 0.999965 -80.76 0.999965 -80.76 0.007737 -169.1
8.56340000 0.007762 -172.5 0.999964 -80.76 0.999964 -80.76 0.007762 -169.1
8.56360000 0.007788 -172.5 0.999964 -80.77 0.999964 -80.77 0.007788 -169.1
8.56380000 0.007813 -172.5 0.999964 -80.77 0.999964 -80.77 0.007813 -169.1
8.56400000 0.007839 -172.5 0.999964 -80.77 0.999964 -80.77 0.007839 -169.1
8.56420000 0.007865 -172.5 0.999964 -80.78 0.999964 -80.78 0.007864 -169.1
8.56440000 0.007890 -172.5 0.999963 -80.78 0.999963 -80.78 0.007890 -169.1
8.56460000 0.007916 -172.5 0.999963 -80.78 0.999963 -80.78 0.007916 -169.1
8.56480000 0.007942 -172.5 0.999963 -80.79 0.999963 -80.79 0.007942 -169.1
8.56500000 0.007968 -172.5 0.999963 -80.79 0.999963 -80.79 0.007967 -169.1
8.56520000 0.007993 -172.5 0.999963 -80.79 0.999963 -80.79 0.007993 -169.2
8.56540000 0.008019 -172.5 0.999962 -80.80 0.999962 -80.80 0.008019 -169.2
8.56560000 0.008045 -172.5 0.999962 -80.80 0.999962 -80.80 0.008045 -169.2
8.56580000 0.008071 -172.5 0.999962 -80.81 0.999962 -80.81 0.008071 -169.2
8.56600000 0.008097 -172.5 0.999962 -80.81 0.999962 -80.81 0.008097 -169.2
8.56620000 0.008123 -172.5 0.999961 -80.81 0.999961 -80.81 0.008123 -169.2
8.56640000 0.008149 -172.5 0.999961 -80.82 0.999961 -80.82 0.008149 -169.2
8.56660000 0.008176 -172.5 0.999961 -80.82 0.999961 -80.82 0.008175 -169.2
8.56680000 0.008202 -172.5 0.999961 -80.82 0.999961 -80.82 0.008202 -169.2
8.56700000 0.008228 -172.5 0.999961 -80.83 0.999961 -80.83 0.008228 -169.2
8.56720000 0.008254 -172.5 0.999960 -80.83 0.999960 -80.83 0.008254 -169.2
8.56740000 0.008281 -172.5 0.999960 -80.83 0.999960 -80.83 0.008281 -169.2
8.56760000 0.008307 -172.5 0.999960 -80.84 0.999960 -80.84 0.008307 -169.2
8.56780000 0.008334 -172.5 0.999960 -80.84 0.999960 -80.84 0.008333 -169.2
8.56800000 0.008360 -172.5 0.999959 -80.84 0.999959 -80.84 0.008360 -169.3
8.56820000 0.008387 -172.5 0.999959 -80.85 0.999959 -80.85 0.008387 -169.3
8.56840000 0.008413 -172.5 0.999959 -80.85 0.999959 -80.85 0.008413 -169.3
8.56860000 0.008440 -172.5 0.999959 -80.85 0.999959 -80.85 0.008440 -169.3
8.56880000 0.008467 -172.5 0.999959 -80.86 0.999959 -80.86 0.008467 -169.3
8.56900000 0.008494 -172.5 0.999958 -80.86 0.999958 -80.86 0.008493 -169.3
8.56920000 0.008520 -172.5 0.999958 -80.86 0.999958 -80.86 0.008520 -169.3
8.56940000 0.008547 -172.5 0.999958 -80.87 0.999958 -80.87 0.008547 -169.3
8.56960000 0.008574 -172.5 0.999958 -80.87 0.999958 -80.87 0.008574 -169.3
8.56980000 0.008601 -172.5 0.999957 -80.87 0.999957 -80.87 0.008601 -169.3
8.57000000 0.008628 -172.5 0.999957 -80.88 0.999957 -80.88 0.008628 -169.3
8.57020000 0.008655 -172.5 0.999957 -80.88 0.999957 -80.88 0.008655 -169.3
8.57040000 0.008682 -172.5 0.999957 -80.88 0.999957 -80.88 0.008682 -169.3
8.57060000 0.008709 -172.5 0.999956 -80.89 0.999956 -80.89 0.008709 -169.3
8.57080000 0.008737 -172.5 0.999956 -80.89 0.999956 -80.89 0.008736 -169.4
8.57100000 0.008764 -172.5 0.999956 -80.89 0.999956 -80.89 0.008764 -169.4
8.57120000 0.008791 -172.5 0.999956 -80.90 0.999956 -80.90 0.008791 -169.4
8.57140000 0.008819 -172.5 0.999955 -80.90 0.999955 -80.90 0.008818 -169.4
8.57160000 0.008846 -172.5 0.999955 -80.90 0.999955 -80.90 0.008846 -169.4
8.57180000 0.008873 -172.5 0.999955 -80.91 0.999955 -80.91 0.008873 -169.4
8.57200000 0.008901 -172.5 0.999955 -80.91 0.999955 -80.91 0.008901 -169.4
8.57220000 0.008929 -172.5 0.999954 -80.91 0.999954 -80.91 0.008928 -169.4
8.57240000 0.008956 -172.5 0.999954 -80.92 0.999954 -80.92 0.008956 -169.4
8.57260000 0.008984 -172.5 0.999954 -80.92 0.999954 -80.92 0.008984 -169.4
8.57280000 0.009012 -172.5 0.999954 -80.92 0.999954 -80.92 0.009011 -169.4
8.57300000 0.009039 -172.5 0.999953 -80.93 0.999953 -80.93 0.009039 -169.4
8.57320000 0.009067 -172.5 0.999953 -80.93 0.999953 -80.93 0.009067 -169.4
8.57340000 0.009095 -172.5 0.999953 -80.94 0.999953 -80.94 0.009095 -169.4
8.57360000 0.009123 -172.5 0.999953 -80.94 0.999953 -80.94 0.009123 -169.5
8.57380000 0.009151 -172.5 0.999952 -80.94 0.999952 -80.94 0.009151 -169.5
8.57400000 0.009179 -172.5 0.999952 -80.95 0.999952 -80.95 0.009179 -169.5
8.57420000 0.009207 -172.5 0.999952 -80.95 0.999952 -80.95 0.009207 -169.5
8.57440000 0.009235 -172.5 0.999952 -80.95 0.999952 -80.95 0.009235 -169.5
8.57460000 0.009263 -172.5 0.999951 -80.96 0.999951 -80.96 0.009263 -169.5
8.57480000 0.009292 -172.5 0.999951 -80.96 0.999951 -80.96 0.009291 -169.5
8.57500000 0.009320 -172.5 0.999951 -80.96 0.999951 -80.96 0.009320 -169.5
8.57520000 0.009348 -172.5 0.999951 -80.97 0.999951 -80.97 0.009348 -169.5
8.57540000 0.009377 -172.5 0.999950 -80.97 0.999950 -80.97 0.009376 -169.5
8.57560000 0.009405 -172.5 0.999950 -80.97 0.999950 -80.97 0.009405 -169.5
8.57580000 0.009434 -172.5 0.999950 -80.98 0.999950 -80.98 0.009433 -169.5
8.57600000 0.009462 -172.5 0.999949 -80.98 0.999949 -80.98 0.009462 -169.5
8.57620000 0.009491 -172.5 0.999949 -80.98 0.999949 -80.98 0.009491 -169.5
8.57640000 0.009520 -172.5 0.999949 -80.99 0.999949 -80.99 0.009519 -169.5
8.57660000 0.009548 -172.5 0.999949 -80.99 0.999949 -80.99 0.009548 -169.6
8.57680000 0.009577 -172.5 0.999948 -80.99 0.999948 -80.99 0.009577 -169.6
8.57700000 0.009606 -172.5 0.999948 -81.00 0.999948 -81.00 0.009606 -169.6
8.57720000 0.009635 -172.5 0.999948 -81.00 0.999948 -81.00 0.009635 -169.6
8.57740000 0.009664 -172.5 0.999947 -81.01 0.999947 -81.01 0.009664 -169.6
8.57760000 0.009693 -172.5 0.999947 -81.01 0.999947 -81.01 0.009693 -169.6
8.57780000 0.009722 -172.5 0.999947 -81.01 0.999947 -81.01 0.009722 -169.6
8.57800000 0.009751 -172.5 0.999947 -81.02 0.999947 -81.02 0.009751 -169.6
8.57820000 0.009780 -172.5 0.999946 -81.02 0.999946 -81.02 0.009780 -169.6
8.57840000 0.009809 -172.5 0.999946 -81.02 0.999946 -81.02 0.009809 -169.6