! Sonnet Data File
! From: emgraph Version : 16.52
! From Project: transmon_brg
! Data is De-embedded 
! Data File Written: 11/11/2017 22:44:24
!< HDATE 11/11/2017 16:55:33
!< MDATE 11/11/2017 17:38:18
!< PARAMS
!< Lj = 15.24
!< Gap = 6.0
!< Width = 10.0
!< Airgap = 6.0
!< Pwidth = 2000.0
!< Dist = 399.999916
!< END PARAMS
# GHZ S MA R 51.80000
8.50000000 0.007595 -169.8 0.999966 -79.72 0.999966 -79.72 0.007595 -169.7
!< P1 F=8.5 Eeff=(6.44695349 -2.9785e-5) Z0=(51.7999087 1.19092e-4) R=0.0 C=0.0 
!< P2 F=8.5 Eeff=(6.44695349 -2.9785e-5) Z0=(51.7999087 1.19092e-4) R=0.0 C=0.0 
8.50020000 0.007612 -169.8 0.999966 -79.72 0.999966 -79.72 0.007612 -169.7
8.50040000 0.007629 -169.8 0.999966 -79.73 0.999966 -79.73 0.007629 -169.7
8.50060000 0.007646 -169.8 0.999966 -79.73 0.999966 -79.73 0.007646 -169.7
8.50080000 0.007664 -169.8 0.999966 -79.73 0.999966 -79.73 0.007664 -169.7
8.50100000 0.007681 -169.8 0.999966 -79.74 0.999966 -79.74 0.007681 -169.7
8.50120000 0.007698 -169.8 0.999966 -79.74 0.999966 -79.74 0.007698 -169.7
8.50140000 0.007715 -169.8 0.999966 -79.74 0.999966 -79.74 0.007715 -169.7
8.50160000 0.007732 -169.8 0.999965 -79.74 0.999965 -79.74 0.007732 -169.7
8.50180000 0.007749 -169.8 0.999965 -79.75 0.999965 -79.75 0.007749 -169.7
8.50200000 0.007766 -169.8 0.999965 -79.75 0.999965 -79.75 0.007766 -169.7
8.50220000 0.007784 -169.8 0.999965 -79.75 0.999965 -79.75 0.007784 -169.7
8.50240000 0.007801 -169.8 0.999965 -79.76 0.999965 -79.76 0.007801 -169.7
8.50260000 0.007818 -169.8 0.999965 -79.76 0.999965 -79.76 0.007818 -169.7
8.50280000 0.007836 -169.8 0.999965 -79.76 0.999965 -79.76 0.007836 -169.7
8.50300000 0.007853 -169.8 0.999964 -79.76 0.999964 -79.76 0.007853 -169.7
8.50320000 0.007870 -169.8 0.999964 -79.77 0.999964 -79.77 0.007870 -169.7
8.50340000 0.007888 -169.8 0.999964 -79.77 0.999964 -79.77 0.007888 -169.7
8.50360000 0.007905 -169.8 0.999964 -79.77 0.999964 -79.77 0.007905 -169.8
8.50380000 0.007923 -169.9 0.999964 -79.78 0.999964 -79.78 0.007923 -169.8
8.50400000 0.007940 -169.9 0.999964 -79.78 0.999964 -79.78 0.007940 -169.8
8.50420000 0.007958 -169.9 0.999964 -79.78 0.999964 -79.78 0.007958 -169.8
8.50440000 0.007975 -169.9 0.999963 -79.78 0.999963 -79.78 0.007975 -169.8
8.50460000 0.007993 -169.9 0.999963 -79.79 0.999963 -79.79 0.007993 -169.8
8.50480000 0.008010 -169.9 0.999963 -79.79 0.999963 -79.79 0.008010 -169.8
8.50500000 0.008028 -169.9 0.999963 -79.79 0.999963 -79.79 0.008028 -169.8
8.50520000 0.008045 -169.9 0.999963 -79.80 0.999963 -79.80 0.008045 -169.8
8.50540000 0.008063 -169.9 0.999963 -79.80 0.999963 -79.80 0.008063 -169.8
8.50560000 0.008081 -169.9 0.999963 -79.80 0.999963 -79.80 0.008081 -169.8
8.50580000 0.008098 -169.9 0.999962 -79.80 0.999962 -79.80 0.008098 -169.8
8.50600000 0.008116 -169.9 0.999962 -79.81 0.999962 -79.81 0.008116 -169.8
8.50620000 0.008134 -169.9 0.999962 -79.81 0.999962 -79.81 0.008134 -169.8
8.50640000 0.008152 -169.9 0.999962 -79.81 0.999962 -79.81 0.008152 -169.8
8.50660000 0.008170 -169.9 0.999962 -79.82 0.999962 -79.82 0.008170 -169.8
8.50680000 0.008187 -169.9 0.999962 -79.82 0.999962 -79.82 0.008187 -169.8
8.50700000 0.008205 -169.9 0.999962 -79.82 0.999962 -79.82 0.008205 -169.8
8.50720000 0.008223 -169.9 0.999961 -79.82 0.999961 -79.82 0.008223 -169.8
8.50740000 0.008241 -169.9 0.999961 -79.83 0.999961 -79.83 0.008241 -169.8
8.50760000 0.008259 -169.9 0.999961 -79.83 0.999961 -79.83 0.008259 -169.8
8.50780000 0.008277 -169.9 0.999961 -79.83 0.999961 -79.83 0.008277 -169.8
8.50800000 0.008295 -169.9 0.999961 -79.84 0.999961 -79.84 0.008295 -169.8
8.50820000 0.008313 -169.9 0.999961 -79.84 0.999961 -79.84 0.008313 -169.8
8.50840000 0.008331 -169.9 0.999961 -79.84 0.999961 -79.84 0.008331 -169.8
8.50860000 0.008349 -169.9 0.999960 -79.85 0.999960 -79.85 0.008349 -169.8
8.50880000 0.008367 -169.9 0.999960 -79.85 0.999960 -79.85 0.008367 -169.8
8.50900000 0.008386 -169.9 0.999960 -79.85 0.999960 -79.85 0.008386 -169.8
8.50920000 0.008404 -169.9 0.999960 -79.85 0.999960 -79.85 0.008404 -169.8
8.50940000 0.008422 -169.9 0.999960 -79.86 0.999960 -79.86 0.008422 -169.8
8.50960000 0.008440 -169.9 0.999960 -79.86 0.999960 -79.86 0.008440 -169.8
8.50980000 0.008458 -169.9 0.999959 -79.86 0.999959 -79.86 0.008458 -169.9
8.51000000 0.008477 -169.9 0.999959 -79.87 0.999959 -79.87 0.008477 -169.9
8.51020000 0.008495 -169.9 0.999959 -79.87 0.999959 -79.87 0.008495 -169.9
8.51040000 0.008513 -169.9 0.999959 -79.87 0.999959 -79.87 0.008513 -169.9
8.51060000 0.008532 -169.9 0.999959 -79.87 0.999959 -79.87 0.008532 -169.9
8.51080000 0.008550 -169.9 0.999959 -79.88 0.999959 -79.88 0.008550 -169.9
8.51100000 0.008569 -169.9 0.999958 -79.88 0.999958 -79.88 0.008569 -169.9
8.51120000 0.008587 -169.9 0.999958 -79.88 0.999958 -79.88 0.008587 -169.9
8.51140000 0.008606 -169.9 0.999958 -79.89 0.999958 -79.89 0.008606 -169.9
8.51160000 0.008624 -169.9 0.999958 -79.89 0.999958 -79.89 0.008624 -169.9
8.51180000 0.008643 -170.0 0.999958 -79.89 0.999958 -79.89 0.008643 -169.9
8.51200000 0.008661 -170.0 0.999958 -79.89 0.999958 -79.89 0.008661 -169.9
8.51220000 0.008680 -170.0 0.999958 -79.90 0.999958 -79.90 0.008680 -169.9
8.51240000 0.008698 -170.0 0.999957 -79.90 0.999957 -79.90 0.008698 -169.9
8.51260000 0.008717 -170.0 0.999957 -79.90 0.999957 -79.90 0.008717 -169.9
8.51280000 0.008736 -170.0 0.999957 -79.91 0.999957 -79.91 0.008736 -169.9
8.51300000 0.008754 -170.0 0.999957 -79.91 0.999957 -79.91 0.008754 -169.9
8.51320000 0.008773 -170.0 0.999957 -79.91 0.999957 -79.91 0.008773 -169.9
8.51340000 0.008792 -170.0 0.999957 -79.92 0.999957 -79.92 0.008792 -169.9
8.51360000 0.008811 -170.0 0.999956 -79.92 0.999956 -79.92 0.008811 -169.9
8.51380000 0.008830 -170.0 0.999956 -79.92 0.999956 -79.92 0.008830 -169.9
8.51400000 0.008849 -170.0 0.999956 -79.92 0.999956 -79.92 0.008849 -169.9
8.51420000 0.008867 -170.0 0.999956 -79.93 0.999956 -79.93 0.008867 -169.9
8.51440000 0.008886 -170.0 0.999956 -79.93 0.999956 -79.93 0.008886 -169.9
8.51460000 0.008905 -170.0 0.999955 -79.93 0.999955 -79.93 0.008905 -169.9
8.51480000 0.008924 -170.0 0.999955 -79.94 0.999955 -79.94 0.008924 -169.9
8.51500000 0.008943 -170.0 0.999955 -79.94 0.999955 -79.94 0.008943 -169.9
8.51520000 0.008962 -170.0 0.999955 -79.94 0.999955 -79.94 0.008962 -169.9
8.51540000 0.008981 -170.0 0.999955 -79.94 0.999955 -79.94 0.008981 -169.9
8.51560000 0.009000 -170.0 0.999955 -79.95 0.999955 -79.95 0.009000 -169.9
8.51580000 0.009020 -170.0 0.999954 -79.95 0.999954 -79.95 0.009020 -170.0
8.51600000 0.009039 -170.0 0.999954 -79.95 0.999954 -79.95 0.009039 -170.0
8.51620000 0.009058 -170.0 0.999954 -79.96 0.999954 -79.96 0.009058 -170.0
8.51640000 0.009077 -170.0 0.999954 -79.96 0.999954 -79.96 0.009077 -170.0
8.51660000 0.009096 -170.0 0.999954 -79.96 0.999954 -79.96 0.009096 -170.0
8.51680000 0.009116 -170.0 0.999954 -79.97 0.999954 -79.97 0.009116 -170.0
8.51700000 0.009135 -170.0 0.999953 -79.97 0.999953 -79.97 0.009135 -170.0
8.51720000 0.009154 -170.0 0.999953 -79.97 0.999953 -79.97 0.009154 -170.0
8.51740000 0.009174 -170.0 0.999953 -79.97 0.999953 -79.97 0.009174 -170.0
8.51760000 0.009193 -170.0 0.999953 -79.98 0.999953 -79.98 0.009193 -170.0
8.51780000 0.009213 -170.0 0.999953 -79.98 0.999953 -79.98 0.009213 -170.0
8.51800000 0.009232 -170.0 0.999952 -79.98 0.999952 -79.98 0.009232 -170.0
8.51820000 0.009251 -170.0 0.999952 -79.99 0.999952 -79.99 0.009251 -170.0
8.51840000 0.009271 -170.0 0.999952 -79.99 0.999952 -79.99 0.009271 -170.0
8.51860000 0.009291 -170.0 0.999952 -79.99 0.999952 -79.99 0.009291 -170.0
8.51880000 0.009310 -170.0 0.999952 -80.00 0.999952 -80.00 0.009310 -170.0
8.51900000 0.009330 -170.0 0.999952 -80.00 0.999952 -80.00 0.009330 -170.0
8.51920000 0.009349 -170.0 0.999951 -80.00 0.999951 -80.00 0.009349 -170.0
8.51940000 0.009369 -170.0 0.999951 -80.00 0.999951 -80.00 0.009369 -170.0
8.51960000 0.009389 -170.1 0.999951 -80.01 0.999951 -80.01 0.009389 -170.0
8.51980000 0.009409 -170.1 0.999951 -80.01 0.999951 -80.01 0.009409 -170.0
8.52000000 0.009428 -170.1 0.999951 -80.01 0.999951 -80.01 0.009428 -170.0
8.52020000 0.009448 -170.1 0.999950 -80.02 0.999950 -80.02 0.009448 -170.0
8.52040000 0.009468 -170.1 0.999950 -80.02 0.999950 -80.02 0.009468 -170.0
8.52060000 0.009488 -170.1 0.999950 -80.02 0.999950 -80.02 0.009488 -170.0
8.52080000 0.009508 -170.1 0.999950 -80.03 0.999950 -80.03 0.009508 -170.0
8.52100000 0.009528 -170.1 0.999950 -80.03 0.999950 -80.03 0.009528 -170.0
8.52120000 0.009548 -170.1 0.999949 -80.03 0.999949 -80.03 0.009548 -170.0
8.52140000 0.009568 -170.1 0.999949 -80.03 0.999949 -80.03 0.009568 -170.0
8.52160000 0.009588 -170.1 0.999949 -80.04 0.999949 -80.04 0.009588 -170.0
8.52180000 0.009608 -170.1 0.999949 -80.04 0.999949 -80.04 0.009608 -170.0
8.52200000 0.009628 -170.1 0.999949 -80.04 0.999949 -80.04 0.009628 -170.1
8.52220000 0.009648 -170.1 0.999948 -80.05 0.999948 -80.05 0.009648 -170.1
8.52240000 0.009668 -170.1 0.999948 -80.05 0.999948 -80.05 0.009668 -170.1
8.52260000 0.009688 -170.1 0.999948 -80.05 0.999948 -80.05 0.009688 -170.1
8.52280000 0.009708 -170.1 0.999948 -80.06 0.999948 -80.06 0.009708 -170.1
8.52300000 0.009729 -170.1 0.999948 -80.06 0.999948 -80.06 0.009729 -170.1
8.52320000 0.009749 -170.1 0.999947 -80.06 0.999947 -80.06 0.009749 -170.1
8.52340000 0.009769 -170.1 0.999947 -80.06 0.999947 -80.06 0.009769 -170.1
8.52360000 0.009790 -170.1 0.999947 -80.07 0.999947 -80.07 0.009790 -170.1
8.52380000 0.009810 -170.1 0.999947 -80.07 0.999947 -80.07 0.009810 -170.1
8.52400000 0.009830 -170.1 0.999947 -80.07 0.999947 -80.07 0.009830 -170.1
8.52420000 0.009851 -170.1 0.999946 -80.08 0.999946 -80.08 0.009851 -170.1
8.52440000 0.009871 -170.1 0.999946 -80.08 0.999946 -80.08 0.009871 -170.1
8.52460000 0.009892 -170.1 0.999946 -80.08 0.999946 -80.08 0.009892 -170.1
8.52480000 0.009912 -170.1 0.999946 -80.09 0.999946 -80.09 0.009912 -170.1
8.52500000 0.009933 -170.1 0.999946 -80.09 0.999946 -80.09 0.009933 -170.1
8.52520000 0.009954 -170.1 0.999945 -80.09 0.999945 -80.09 0.009954 -170.1
8.52540000 0.009974 -170.1 0.999945 -80.09 0.999945 -80.09 0.009974 -170.1
8.52560000 0.009995 -170.1 0.999945 -80.10 0.999945 -80.10 0.009995 -170.1
8.52580000 0.010016 -170.1 0.999945 -80.10 0.999945 -80.10 0.010016 -170.1
8.52600000 0.010036 -170.1 0.999945 -80.10 0.999945 -80.10 0.010036 -170.1
8.52620000 0.010057 -170.1 0.999944 -80.11 0.999944 -80.11 0.010057 -170.1
8.52640000 0.010078 -170.1 0.999944 -80.11 0.999944 -80.11 0.010078 -170.1
8.52660000 0.010099 -170.1 0.999944 -80.11 0.999944 -80.11 0.010099 -170.1
8.52680000 0.010120 -170.1 0.999944 -80.12 0.999944 -80.12 0.010120 -170.1
8.52700000 0.010141 -170.1 0.999944 -80.12 0.999944 -80.12 0.010141 -170.1
8.52720000 0.010162 -170.2 0.999943 -80.12 0.999943 -80.12 0.010162 -170.1
8.52740000 0.010183 -170.2 0.999943 -80.13 0.999943 -80.13 0.010183 -170.1
8.52760000 0.010204 -170.2 0.999943 -80.13 0.999943 -80.13 0.010204 -170.1
8.52780000 0.010225 -170.2 0.999943 -80.13 0.999943 -80.13 0.010225 -170.1
8.52800000 0.010246 -170.2 0.999942 -80.13 0.999942 -80.13 0.010246 -170.2
8.52820000 0.010267 -170.2 0.999942 -80.14 0.999942 -80.14 0.010267 -170.2
8.52840000 0.010288 -170.2 0.999942 -80.14 0.999942 -80.14 0.010288 -170.2
8.52860000 0.010309 -170.2 0.999942 -80.14 0.999942 -80.14 0.010309 -170.2
8.52880000 0.010331 -170.2 0.999942 -80.15 0.999942 -80.15 0.010331 -170.2
8.52900000 0.010352 -170.2 0.999941 -80.15 0.999941 -80.15 0.010352 -170.2
8.52920000 0.010373 -170.2 0.999941 -80.15 0.999941 -80.15 0.010373 -170.2
8.52940000 0.010394 -170.2 0.999941 -80.16 0.999941 -80.16 0.010394 -170.2
8.52960000 0.010416 -170.2 0.999941 -80.16 0.999941 -80.16 0.010416 -170.2
8.52980000 0.010437 -170.2 0.999940 -80.16 0.999940 -80.16 0.010437 -170.2
8.53000000 0.010459 -170.2 0.999940 -80.17 0.999940 -80.17 0.010459 -170.2
8.53020000 0.010480 -170.2 0.999940 -80.17 0.999940 -80.17 0.010480 -170.2
8.53040000 0.010502 -170.2 0.999940 -80.17 0.999940 -80.17 0.010502 -170.2
8.53060000 0.010523 -170.2 0.999940 -80.17 0.999940 -80.17 0.010523 -170.2
8.53080000 0.010545 -170.2 0.999939 -80.18 0.999939 -80.18 0.010545 -170.2
8.53100000 0.010566 -170.2 0.999939 -80.18 0.999939 -80.18 0.010566 -170.2
8.53120000 0.010588 -170.2 0.999939 -80.18 0.999939 -80.18 0.010588 -170.2
8.53140000 0.010610 -170.2 0.999939 -80.19 0.999939 -80.19 0.010610 -170.2
8.53160000 0.010631 -170.2 0.999938 -80.19 0.999938 -80.19 0.010631 -170.2
8.53180000 0.010653 -170.2 0.999938 -80.19 0.999938 -80.19 0.010653 -170.2
8.53200000 0.010675 -170.2 0.999938 -80.20 0.999938 -80.20 0.010675 -170.2
8.53220000 0.010697 -170.2 0.999938 -80.20 0.999938 -80.20 0.010697 -170.2
8.53240000 0.010719 -170.2 0.999937 -80.20 0.999937 -80.20 0.010719 -170.2
8.53260000 0.010741 -170.2 0.999937 -80.21 0.999937 -80.21 0.010741 -170.2
8.53280000 0.010763 -170.2 0.999937 -80.21 0.999937 -80.21 0.010763 -170.2
8.53300000 0.010785 -170.2 0.999937 -80.21 0.999937 -80.21 0.010785 -170.2
8.53320000 0.010807 -170.2 0.999936 -80.22 0.999936 -80.22 0.010807 -170.2
8.53340000 0.010829 -170.2 0.999936 -80.22 0.999936 -80.22 0.010829 -170.2
8.53360000 0.010851 -170.2 0.999936 -80.22 0.999936 -80.22 0.010851 -170.2
8.53380000 0.010873 -170.2 0.999936 -80.22 0.999936 -80.22 0.010873 -170.3
8.53400000 0.010895 -170.2 0.999935 -80.23 0.999935 -80.23 0.010895 -170.3
8.53420000 0.010917 -170.2 0.999935 -80.23 0.999935 -80.23 0.010917 -170.3
8.53440000 0.010939 -170.3 0.999935 -80.23 0.999935 -80.23 0.010939 -170.3
8.53460000 0.010962 -170.3 0.999935 -80.24 0.999935 -80.24 0.010962 -170.3
8.53480000 0.010984 -170.3 0.999934 -80.24 0.999934 -80.24 0.010984 -170.3
8.53500000 0.011006 -170.3 0.999934 -80.24 0.999934 -80.24 0.011006 -170.3
8.53520000 0.011029 -170.3 0.999934 -80.25 0.999934 -80.25 0.011029 -170.3
8.53540000 0.011051 -170.3 0.999934 -80.25 0.999934 -80.25 0.011051 -170.3
8.53560000 0.011074 -170.3 0.999933 -80.25 0.999933 -80.25 0.011074 -170.3
8.53580000 0.011096 -170.3 0.999933 -80.26 0.999933 -80.26 0.011096 -170.3
8.53600000 0.011119 -170.3 0.999933 -80.26 0.999933 -80.26 0.011119 -170.3
8.53620000 0.011141 -170.3 0.999933 -80.26 0.999933 -80.26 0.011141 -170.3
8.53640000 0.011164 -170.3 0.999932 -80.27 0.999932 -80.27 0.011164 -170.3
8.53660000 0.011187 -170.3 0.999932 -80.27 0.999932 -80.27 0.011187 -170.3
8.53680000 0.011209 -170.3 0.999932 -80.27 0.999932 -80.27 0.011209 -170.3
8.53700000 0.011232 -170.3 0.999932 -80.28 0.999932 -80.28 0.011232 -170.3
8.53720000 0.011255 -170.3 0.999931 -80.28 0.999931 -80.28 0.011255 -170.3
8.53740000 0.011278 -170.3 0.999931 -80.28 0.999931 -80.28 0.011278 -170.3
8.53760000 0.011300 -170.3 0.999931 -80.28 0.999931 -80.28 0.011300 -170.3
8.53780000 0.011323 -170.3 0.999931 -80.29 0.999931 -80.29 0.011323 -170.3
8.53800000 0.011346 -170.3 0.999930 -80.29 0.999930 -80.29 0.011346 -170.3
8.53820000 0.011369 -170.3 0.999930 -80.29 0.999930 -80.29 0.011369 -170.3
8.53840000 0.011392 -170.3 0.999930 -80.30 0.999930 -80.30 0.011392 -170.3
8.53860000 0.011415 -170.3 0.999930 -80.30 0.999930 -80.30 0.011415 -170.3
8.53880000 0.011438 -170.3 0.999929 -80.30 0.999929 -80.30 0.011438 -170.3
8.53900000 0.011462 -170.3 0.999929 -80.31 0.999929 -80.31 0.011462 -170.3
8.53920000 0.011485 -170.3 0.999929 -80.31 0.999929 -80.31 0.011485 -170.3
8.53940000 0.011508 -170.3 0.999929 -80.31 0.999929 -80.31 0.011508 -170.3
8.53960000 0.011531 -170.3 0.999928 -80.32 0.999928 -80.32 0.011531 -170.3
8.53980000 0.011554 -170.3 0.999928 -80.32 0.999928 -80.32 0.011554 -170.4
8.54000000 0.011578 -170.3 0.999928 -80.32 0.999928 -80.32 0.011578 -170.4
8.54020000 0.011601 -170.3 0.999927 -80.33 0.999927 -80.33 0.011601 -170.4
8.54040000 0.011625 -170.3 0.999927 -80.33 0.999927 -80.33 0.011625 -170.4
8.54060000 0.011648 -170.3 0.999927 -80.33 0.999927 -80.33 0.011648 -170.4
8.54080000 0.011671 -170.3 0.999927 -80.34 0.999927 -80.34 0.011671 -170.4
8.54100000 0.011695 -170.3 0.999926 -80.34 0.999926 -80.34 0.011695 -170.4
8.54120000 0.011719 -170.3 0.999926 -80.34 0.999926 -80.34 0.011719 -170.4
8.54140000 0.011742 -170.4 0.999926 -80.35 0.999926 -80.35 0.011742 -170.4
8.54160000 0.011766 -170.4 0.999925 -80.35 0.999925 -80.35 0.011766 -170.4
8.54180000 0.011790 -170.4 0.999925 -80.35 0.999925 -80.35 0.011790 -170.4
8.54200000 0.011813 -170.4 0.999925 -80.35 0.999925 -80.35 0.011813 -170.4
8.54220000 0.011837 -170.4 0.999925 -80.36 0.999925 -80.36 0.011837 -170.4
8.54240000 0.011861 -170.4 0.999924 -80.36 0.999924 -80.36 0.011861 -170.4
8.54260000 0.011885 -170.4 0.999924 -80.36 0.999924 -80.36 0.011885 -170.4
8.54280000 0.011909 -170.4 0.999924 -80.37 0.999924 -80.37 0.011909 -170.4
8.54300000 0.011933 -170.4 0.999923 -80.37 0.999923 -80.37 0.011933 -170.4
8.54320000 0.011956 -170.4 0.999923 -80.37 0.999923 -80.37 0.011956 -170.4
8.54340000 0.011981 -170.4 0.999923 -80.38 0.999923 -80.38 0.011981 -170.4
8.54360000 0.012005 -170.4 0.999923 -80.38 0.999923 -80.38 0.012005 -170.4
8.54380000 0.012029 -170.4 0.999922 -80.38 0.999922 -80.38 0.012029 -170.4
8.54400000 0.012053 -170.4 0.999922 -80.39 0.999922 -80.39 0.012053 -170.4
8.54420000 0.012077 -170.4 0.999922 -80.39 0.999922 -80.39 0.012077 -170.4
8.54440000 0.012101 -170.4 0.999921 -80.39 0.999921 -80.39 0.012101 -170.4
8.54460000 0.012126 -170.4 0.999921 -80.40 0.999921 -80.40 0.012126 -170.4
8.54480000 0.012150 -170.4 0.999921 -80.40 0.999921 -80.40 0.012150 -170.4
8.54500000 0.012174 -170.4 0.999921 -80.40 0.999921 -80.40 0.012174 -170.4
8.54520000 0.012199 -170.4 0.999920 -80.41 0.999920 -80.41 0.012199 -170.4
8.54540000 0.012223 -170.4 0.999920 -80.41 0.999920 -80.41 0.012223 -170.4
8.54560000 0.012248 -170.4 0.999920 -80.41 0.999920 -80.41 0.012248 -170.5
8.54580000 0.012272 -170.4 0.999919 -80.42 0.999919 -80.42 0.012272 -170.5
8.54600000 0.012297 -170.4 0.999919 -80.42 0.999919 -80.42 0.012297 -170.5
8.54620000 0.012321 -170.4 0.999919 -80.42 0.999919 -80.42 0.012321 -170.5
8.54640000 0.012346 -170.4 0.999918 -80.43 0.999918 -80.43 0.012346 -170.5
8.54660000 0.012371 -170.4 0.999918 -80.43 0.999918 -80.43 0.012371 -170.5
8.54680000 0.012395 -170.4 0.999918 -80.43 0.999918 -80.43 0.012395 -170.5
8.54700000 0.012420 -170.4 0.999917 -80.44 0.999917 -80.44 0.012420 -170.5
8.54720000 0.012445 -170.4 0.999917 -80.44 0.999917 -80.44 0.012445 -170.5
8.54740000 0.012470 -170.4 0.999917 -80.44 0.999917 -80.44 0.012470 -170.5
8.54760000 0.012495 -170.4 0.999917 -80.45 0.999917 -80.45 0.012495 -170.5
8.54780000 0.012520 -170.4 0.999916 -80.45 0.999916 -80.45 0.012520 -170.5
8.54800000 0.012545 -170.5 0.999916 -80.45 0.999916 -80.45 0.012545 -170.5
8.54820000 0.012570 -170.5 0.999916 -80.46 0.999916 -80.46 0.012570 -170.5
8.54840000 0.012595 -170.5 0.999915 -80.46 0.999915 -80.46 0.012595 -170.5
8.54860000 0.012620 -170.5 0.999915 -80.46 0.999915 -80.46 0.012620 -170.5
8.54880000 0.012645 -170.5 0.999915 -80.47 0.999915 -80.47 0.012645 -170.5
8.54900000 0.012671 -170.5 0.999914 -80.47 0.999914 -80.47 0.012671 -170.5
8.54920000 0.012696 -170.5 0.999914 -80.47 0.999914 -80.47 0.012696 -170.5
8.54940000 0.012721 -170.5 0.999914 -80.48 0.999914 -80.48 0.012721 -170.5
8.54960000 0.012747 -170.5 0.999913 -80.48 0.999913 -80.48 0.012747 -170.5
8.54980000 0.012772 -170.5 0.999913 -80.48 0.999913 -80.48 0.012772 -170.5
8.55000000 0.012797 -170.5 0.999913 -80.49 0.999913 -80.49 0.012797 -170.5
8.55020000 0.012823 -170.5 0.999912 -80.49 0.999912 -80.49 0.012823 -170.5
8.55040000 0.012848 -170.5 0.999912 -80.49 0.999912 -80.49 0.012848 -170.5
8.55060000 0.012874 -170.5 0.999912 -80.50 0.999912 -80.50 0.012874 -170.5
8.55080000 0.012900 -170.5 0.999911 -80.50 0.999911 -80.50 0.012900 -170.5
8.55100000 0.012925 -170.5 0.999911 -80.50 0.999911 -80.50 0.012925 -170.5
8.55120000 0.012951 -170.5 0.999911 -80.51 0.999911 -80.51 0.012951 -170.6
8.55140000 0.012977 -170.5 0.999910 -80.51 0.999910 -80.51 0.012977 -170.6
8.55160000 0.013003 -170.5 0.999910 -80.51 0.999910 -80.51 0.013003 -170.6
8.55180000 0.013029 -170.5 0.999910 -80.52 0.999910 -80.52 0.013029 -170.6
8.55200000 0.013055 -170.5 0.999909 -80.52 0.999909 -80.52 0.013055 -170.6
8.55220000 0.013081 -170.5 0.999909 -80.52 0.999909 -80.52 0.013081 -170.6
8.55240000 0.013107 -170.5 0.999909 -80.53 0.999909 -80.53 0.013107 -170.6
8.55260000 0.013133 -170.5 0.999908 -80.53 0.999908 -80.53 0.013133 -170.6
8.55280000 0.013159 -170.5 0.999908 -80.53 0.999908 -80.53 0.013159 -170.6
8.55300000 0.013185 -170.5 0.999908 -80.54 0.999908 -80.54 0.013185 -170.6
8.55320000 0.013211 -170.5 0.999907 -80.54 0.999907 -80.54 0.013211 -170.6
8.55340000 0.013237 -170.5 0.999907 -80.54 0.999907 -80.54 0.013237 -170.6
8.55360000 0.013264 -170.5 0.999906 -80.55 0.999906 -80.55 0.013264 -170.6
8.55380000 0.013290 -170.5 0.999906 -80.55 0.999906 -80.55 0.013290 -170.6
8.55400000 0.013316 -170.5 0.999906 -80.55 0.999906 -80.55 0.013316 -170.6
8.55420000 0.013343 -170.5 0.999905 -80.56 0.999905 -80.56 0.013343 -170.6
8.55440000 0.013369 -170.5 0.999905 -80.56 0.999905 -80.56 0.013369 -170.6
8.55460000 0.013396 -170.6 0.999905 -80.56 0.999905 -80.56 0.013396 -170.6
8.55480000 0.013423 -170.6 0.999904 -80.57 0.999904 -80.57 0.013423 -170.6
8.55500000 0.013449 -170.6 0.999904 -80.57 0.999904 -80.57 0.013449 -170.6
8.55520000 0.013476 -170.6 0.999904 -80.57 0.999904 -80.57 0.013476 -170.6
8.55540000 0.013503 -170.6 0.999903 -80.58 0.999903 -80.58 0.013503 -170.6
8.55560000 0.013529 -170.6 0.999903 -80.58 0.999903 -80.58 0.013529 -170.6
8.55580000 0.013556 -170.6 0.999903 -80.58 0.999903 -80.58 0.013556 -170.6
8.55600000 0.013583 -170.6 0.999902 -80.59 0.999902 -80.59 0.013583 -170.6
8.55620000 0.013610 -170.6 0.999902 -80.59 0.999902 -80.59 0.013610 -170.6
8.55640000 0.013637 -170.6 0.999901 -80.59 0.999901 -80.59 0.013637 -170.6
8.55660000 0.013664 -170.6 0.999901 -80.60 0.999901 -80.60 0.013664 -170.6
8.55680000 0.013691 -170.6 0.999901 -80.60 0.999901 -80.60 0.013691 -170.7
8.55700000 0.013718 -170.6 0.999900 -80.60 0.999900 -80.60 0.013718 -170.7
8.55720000 0.013746 -170.6 0.999900 -80.61 0.999900 -80.61 0.013746 -170.7
8.55740000 0.013773 -170.6 0.999900 -80.61 0.999900 -80.61 0.013773 -170.7
8.55760000 0.013800 -170.6 0.999899 -80.61 0.999899 -80.61 0.013800 -170.7
8.55780000 0.013827 -170.6 0.999899 -80.62 0.999899 -80.62 0.013827 -170.7
8.55800000 0.013855 -170.6 0.999898 -80.62 0.999898 -80.62 0.013855 -170.7
8.55820000 0.013882 -170.6 0.999898 -80.62 0.999898 -80.62 0.013882 -170.7
8.55840000 0.013910 -170.6 0.999898 -80.63 0.999898 -80.63 0.013910 -170.7
8.55860000 0.013937 -170.6 0.999897 -80.63 0.999897 -80.63 0.013937 -170.7
8.55880000 0.013965 -170.6 0.999897 -80.63 0.999897 -80.63 0.013965 -170.7
8.55900000 0.013993 -170.6 0.999896 -80.64 0.999896 -80.64 0.013993 -170.7
8.55920000 0.014020 -170.6 0.999896 -80.64 0.999896 -80.64 0.014020 -170.7
8.55940000 0.014048 -170.6 0.999896 -80.65 0.999896 -80.65 0.014048 -170.7
8.55960000 0.014076 -170.6 0.999895 -80.65 0.999895 -80.65 0.014076 -170.7
8.55980000 0.014104 -170.6 0.999895 -80.65 0.999895 -80.65 0.014104 -170.7
8.56000000 0.014132 -170.6 0.999894 -80.66 0.999894 -80.66 0.014132 -170.7
8.56020000 0.014160 -170.6 0.999894 -80.66 0.999894 -80.66 0.014160 -170.7
8.56040000 0.014188 -170.6 0.999894 -80.66 0.999894 -80.66 0.014188 -170.7
8.56060000 0.014216 -170.6 0.999893 -80.67 0.999893 -80.67 0.014216 -170.7
8.56080000 0.014244 -170.7 0.999893 -80.67 0.999893 -80.67 0.014244 -170.7
8.56100000 0.014272 -170.7 0.999892 -80.67 0.999892 -80.67 0.014272 -170.7
8.56120000 0.014300 -170.7 0.999892 -80.68 0.999892 -80.68 0.014300 -170.7
8.56140000 0.014328 -170.7 0.999892 -80.68 0.999892 -80.68 0.014328 -170.7
8.56160000 0.014357 -170.7 0.999891 -80.68 0.999891 -80.68 0.014357 -170.7
8.56180000 0.014385 -170.7 0.999891 -80.69 0.999891 -80.69 0.014385 -170.7
8.56200000 0.014414 -170.7 0.999890 -80.69 0.999890 -80.69 0.014414 -170.7
8.56220000 0.014442 -170.7 0.999890 -80.69 0.999890 -80.69 0.014442 -170.8
8.56240000 0.014471 -170.7 0.999890 -80.70 0.999890 -80.70 0.014471 -170.8
8.56260000 0.014499 -170.7 0.999889 -80.70 0.999889 -80.70 0.014499 -170.8
8.56280000 0.014528 -170.7 0.999889 -80.70 0.999889 -80.70 0.014528 -170.8
8.56300000 0.014557 -170.7 0.999888 -80.71 0.999888 -80.71 0.014557 -170.8
8.56320000 0.014585 -170.7 0.999888 -80.71 0.999888 -80.71 0.014585 -170.8
8.56340000 0.014614 -170.7 0.999887 -80.71 0.999887 -80.71 0.014614 -170.8
8.56360000 0.014643 -170.7 0.999887 -80.72 0.999887 -80.72 0.014643 -170.8
8.56380000 0.014672 -170.7 0.999887 -80.72 0.999887 -80.72 0.014672 -170.8
8.56400000 0.014701 -170.7 0.999886 -80.73 0.999886 -80.73 0.014701 -170.8
8.56420000 0.014730 -170.7 0.999886 -80.73 0.999886 -80.73 0.014730 -170.8
8.56440000 0.014759 -170.7 0.999885 -80.73 0.999885 -80.73 0.014759 -170.8
8.56460000 0.014788 -170.7 0.999885 -80.74 0.999885 -80.74 0.014788 -170.8
8.56480000 0.014817 -170.7 0.999884 -80.74 0.999884 -80.74 0.014817 -170.8
8.56500000 0.014847 -170.7 0.999884 -80.74 0.999884 -80.74 0.014847 -170.8
8.56520000 0.014876 -170.7 0.999884 -80.75 0.999884 -80.75 0.014876 -170.8
8.56540000 0.014905 -170.7 0.999883 -80.75 0.999883 -80.75 0.014905 -170.8
8.56560000 0.014935 -170.7 0.999883 -80.75 0.999883 -80.75 0.014935 -170.8
8.56580000 0.014964 -170.7 0.999882 -80.76 0.999882 -80.76 0.014964 -170.8
8.56600000 0.014994 -170.7 0.999882 -80.76 0.999882 -80.76 0.014994 -170.8
8.56620000 0.015023 -170.7 0.999881 -80.76 0.999881 -80.76 0.015023 -170.8
8.56640000 0.015053 -170.7 0.999881 -80.77 0.999881 -80.77 0.015053 -170.8
8.56660000 0.015083 -170.7 0.999880 -80.77 0.999880 -80.77 0.015083 -170.8
8.56680000 0.015112 -170.8 0.999880 -80.78 0.999880 -80.78 0.015112 -170.8
8.56700000 0.015142 -170.8 0.999879 -80.78 0.999879 -80.78 0.015142 -170.8
8.56720000 0.015172 -170.8 0.999879 -80.78 0.999879 -80.78 0.015172 -170.8
8.56740000 0.015202 -170.8 0.999879 -80.79 0.999879 -80.79 0.015202 -170.8
8.56760000 0.015232 -170.8 0.999878 -80.79 0.999878 -80.79 0.015232 -170.9
8.56780000 0.015262 -170.8 0.999878 -80.79 0.999878 -80.79 0.015262 -170.9
8.56800000 0.015292 -170.8 0.999877 -80.80 0.999877 -80.80 0.015292 -170.9
8.56820000 0.015323 -170.8 0.999877 -80.80 0.999877 -80.80 0.015323 -170.9
8.56840000 0.015353 -170.8 0.999876 -80.80 0.999876 -80.80 0.015353 -170.9
8.56860000 0.015383 -170.8 0.999876 -80.81 0.999876 -80.81 0.015383 -170.9
8.56880000 0.015413 -170.8 0.999875 -80.81 0.999875 -80.81 0.015413 -170.9
8.56900000 0.015444 -170.8 0.999875 -80.81 0.999875 -80.81 0.015444 -170.9
8.56920000 0.015474 -170.8 0.999874 -80.82 0.999874 -80.82 0.015474 -170.9
8.56940000 0.015505 -170.8 0.999874 -80.82 0.999874 -80.82 0.015505 -170.9
8.56960000 0.015535 -170.8 0.999873 -80.83 0.999873 -80.83 0.015535 -170.9
8.56980000 0.015566 -170.8 0.999873 -80.83 0.999873 -80.83 0.015566 -170.9
8.57000000 0.015597 -170.8 0.999872 -80.83 0.999872 -80.83 0.015597 -170.9
8.57020000 0.015628 -170.8 0.999872 -80.84 0.999872 -80.84 0.015628 -170.9
8.57040000 0.015658 -170.8 0.999871 -80.84 0.999871 -80.84 0.015658 -170.9
8.57060000 0.015689 -170.8 0.999871 -80.84 0.999871 -80.84 0.015689 -170.9
8.57080000 0.015720 -170.8 0.999870 -80.85 0.999870 -80.85 0.015720 -170.9
8.57100000 0.015751 -170.8 0.999870 -80.85 0.999870 -80.85 0.015751 -170.9
8.57120000 0.015782 -170.8 0.999869 -80.85 0.999869 -80.85 0.015782 -170.9
8.57140000 0.015813 -170.8 0.999869 -80.86 0.999869 -80.86 0.015813 -170.9
8.57160000 0.015845 -170.8 0.999868 -80.86 0.999868 -80.86 0.015845 -170.9
8.57180000 0.015876 -170.8 0.999868 -80.87 0.999868 -80.87 0.015876 -170.9
8.57200000 0.015907 -170.8 0.999867 -80.87 0.999867 -80.87 0.015907 -170.9
8.57220000 0.015939 -170.8 0.999867 -80.87 0.999867 -80.87 0.015939 -170.9
8.57240000 0.015970 -170.8 0.999866 -80.88 0.999866 -80.88 0.015970 -170.9
8.57260000 0.016002 -170.8 0.999866 -80.88 0.999866 -80.88 0.016002 -170.9
8.57280000 0.016033 -170.9 0.999865 -80.88 0.999865 -80.88 0.016033 -171.0
8.57300000 0.016065 -170.9 0.999865 -80.89 0.999865 -80.89 0.016065 -171.0
8.57320000 0.016097 -170.9 0.999864 -80.89 0.999864 -80.89 0.016097 -171.0
8.57340000 0.016128 -170.9 0.999864 -80.89 0.999864 -80.89 0.016128 -171.0
8.57360000 0.016160 -170.9 0.999863 -80.90 0.999863 -80.90 0.016160 -171.0
8.57380000 0.016192 -170.9 0.999863 -80.90 0.999863 -80.90 0.016192 -171.0
8.57400000 0.016224 -170.9 0.999862 -80.91 0.999862 -80.91 0.016224 -171.0
8.57420000 0.016256 -170.9 0.999862 -80.91 0.999862 -80.91 0.016256 -171.0
8.57440000 0.016288 -170.9 0.999861 -80.91 0.999861 -80.91 0.016288 -171.0
8.57460000 0.016320 -170.9 0.999861 -80.92 0.999861 -80.92 0.016320 -171.0
8.57480000 0.016352 -170.9 0.999860 -80.92 0.999860 -80.92 0.016352 -171.0
8.57500000 0.016385 -170.9 0.999860 -80.92 0.999860 -80.92 0.016385 -171.0
8.57520000 0.016417 -170.9 0.999859 -80.93 0.999859 -80.93 0.016417 -171.0
8.57540000 0.016449 -170.9 0.999859 -80.93 0.999859 -80.93 0.016449 -171.0
8.57560000 0.016482 -170.9 0.999858 -80.94 0.999858 -80.94 0.016482 -171.0
8.57580000 0.016514 -170.9 0.999858 -80.94 0.999858 -80.94 0.016514 -171.0
8.57600000 0.016547 -170.9 0.999857 -80.94 0.999857 -80.94 0.016547 -171.0
8.57620000 0.016580 -170.9 0.999856 -80.95 0.999856 -80.95 0.016580 -171.0
8.57640000 0.016612 -170.9 0.999856 -80.95 0.999856 -80.95 0.016612 -171.0
8.57660000 0.016645 -170.9 0.999855 -80.95 0.999855 -80.95 0.016645 -171.0
8.57680000 0.016678 -170.9 0.999855 -80.96 0.999855 -80.96 0.016678 -171.0
8.57700000 0.016711 -170.9 0.999854 -80.96 0.999854 -80.96 0.016711 -171.0
8.57720000 0.016744 -170.9 0.999854 -80.97 0.999854 -80.97 0.016744 -171.0
8.57740000 0.016777 -170.9 0.999853 -80.97 0.999853 -80.97 0.016777 -171.0
8.57760000 0.016810 -170.9 0.999853 -80.97 0.999853 -80.97 0.016810 -171.0
8.57780000 0.016843 -170.9 0.999852 -80.98 0.999852 -80.98 0.016843 -171.0
8.57800000 0.016877 -170.9 0.999851 -80.98 0.999851 -80.98 0.016877 -171.1
8.57820000 0.016910 -170.9 0.999851 -80.98 0.999851 -80.98 0.016910 -171.1
8.57840000 0.016943 -171.0 0.999850 -80.99 0.999850 -80.99 0.016943 -171.1