! Sonnet Data File
! From: emgraph Version : 16.52
! From Project: transmon_brg
! Data is De-embedded 
! Data File Written: 11/11/2017 22:44:26
!< HDATE 11/11/2017 16:55:33
!< MDATE 11/11/2017 17:38:18
!< PARAMS
!< Lj = 15.24
!< Gap = 6.0
!< Width = 10.0
!< Airgap = 6.0
!< Pwidth = 2000.0
!< Dist = 2200.0
!< END PARAMS
# GHZ S MA R 51.80000
8.50000000 0.001746 -169.3 0.999994 -79.79 0.999994 -79.79 0.001746 -170.5
!< P1 F=8.5 Eeff=(6.44695349 -2.9785e-5) Z0=(51.7999087 1.19092e-4) R=0.0 C=0.0 
!< P2 F=8.5 Eeff=(6.44695349 -2.9785e-5) Z0=(51.7999087 1.19092e-4) R=0.0 C=0.0 
8.50020000 0.001761 -169.3 0.999994 -79.80 0.999994 -79.80 0.001761 -170.5
8.50040000 0.001776 -169.3 0.999994 -79.80 0.999994 -79.80 0.001776 -170.5
8.50060000 0.001791 -169.3 0.999994 -79.80 0.999994 -79.80 0.001791 -170.5
8.50080000 0.001806 -169.3 0.999994 -79.80 0.999994 -79.80 0.001806 -170.5
8.50100000 0.001821 -169.3 0.999994 -79.81 0.999994 -79.81 0.001821 -170.5
8.50120000 0.001836 -169.3 0.999994 -79.81 0.999994 -79.81 0.001836 -170.5
8.50140000 0.001851 -169.3 0.999994 -79.81 0.999994 -79.81 0.001851 -170.5
8.50160000 0.001866 -169.3 0.999994 -79.81 0.999994 -79.81 0.001866 -170.5
8.50180000 0.001881 -169.3 0.999994 -79.82 0.999994 -79.82 0.001881 -170.5
8.50200000 0.001897 -169.3 0.999994 -79.82 0.999994 -79.82 0.001897 -170.5
8.50220000 0.001912 -169.3 0.999994 -79.82 0.999994 -79.82 0.001912 -170.5
8.50240000 0.001927 -169.3 0.999994 -79.83 0.999994 -79.83 0.001927 -170.5
8.50260000 0.001942 -169.4 0.999994 -79.83 0.999994 -79.83 0.001942 -170.5
8.50280000 0.001957 -169.4 0.999994 -79.83 0.999994 -79.83 0.001957 -170.5
8.50300000 0.001973 -169.4 0.999994 -79.83 0.999994 -79.83 0.001973 -170.5
8.50320000 0.001988 -169.4 0.999993 -79.84 0.999993 -79.84 0.001988 -170.5
8.50340000 0.002003 -169.4 0.999993 -79.84 0.999993 -79.84 0.002003 -170.5
8.50360000 0.002019 -169.4 0.999993 -79.84 0.999993 -79.84 0.002019 -170.5
8.50380000 0.002034 -169.4 0.999993 -79.84 0.999993 -79.84 0.002034 -170.5
8.50400000 0.002049 -169.4 0.999993 -79.85 0.999993 -79.85 0.002049 -170.5
8.50420000 0.002065 -169.4 0.999993 -79.85 0.999993 -79.85 0.002065 -170.5
8.50440000 0.002080 -169.4 0.999993 -79.85 0.999993 -79.85 0.002080 -170.5
8.50460000 0.002096 -169.4 0.999993 -79.86 0.999993 -79.86 0.002096 -170.5
8.50480000 0.002111 -169.4 0.999993 -79.86 0.999993 -79.86 0.002111 -170.5
8.50500000 0.002126 -169.4 0.999993 -79.86 0.999993 -79.86 0.002127 -170.5
8.50520000 0.002142 -169.4 0.999993 -79.86 0.999993 -79.86 0.002142 -170.5
8.50540000 0.002157 -169.4 0.999993 -79.87 0.999993 -79.87 0.002158 -170.5
8.50560000 0.002173 -169.4 0.999993 -79.87 0.999993 -79.87 0.002173 -170.5
8.50580000 0.002189 -169.4 0.999993 -79.87 0.999993 -79.87 0.002189 -170.5
8.50600000 0.002204 -169.4 0.999993 -79.88 0.999993 -79.88 0.002204 -170.5
8.50620000 0.002220 -169.4 0.999993 -79.88 0.999993 -79.88 0.002220 -170.5
8.50640000 0.002235 -169.4 0.999993 -79.88 0.999993 -79.88 0.002235 -170.5
8.50660000 0.002251 -169.4 0.999993 -79.88 0.999993 -79.88 0.002251 -170.5
8.50680000 0.002267 -169.4 0.999993 -79.89 0.999993 -79.89 0.002267 -170.5
8.50700000 0.002282 -169.4 0.999993 -79.89 0.999993 -79.89 0.002282 -170.5
8.50720000 0.002298 -169.4 0.999993 -79.89 0.999993 -79.89 0.002298 -170.5
8.50740000 0.002314 -169.4 0.999993 -79.89 0.999993 -79.89 0.002314 -170.5
8.50760000 0.002330 -169.5 0.999993 -79.90 0.999993 -79.90 0.002330 -170.5
8.50780000 0.002345 -169.5 0.999993 -79.90 0.999993 -79.90 0.002345 -170.5
8.50800000 0.002361 -169.5 0.999993 -79.90 0.999993 -79.90 0.002361 -170.5
8.50820000 0.002377 -169.5 0.999993 -79.91 0.999993 -79.91 0.002377 -170.5
8.50840000 0.002393 -169.5 0.999993 -79.91 0.999993 -79.91 0.002393 -170.5
8.50860000 0.002409 -169.5 0.999992 -79.91 0.999992 -79.91 0.002409 -170.5
8.50880000 0.002425 -169.5 0.999992 -79.91 0.999992 -79.91 0.002425 -170.5
8.50900000 0.002441 -169.5 0.999992 -79.92 0.999992 -79.92 0.002441 -170.5
8.50920000 0.002457 -169.5 0.999992 -79.92 0.999992 -79.92 0.002457 -170.5
8.50940000 0.002473 -169.5 0.999992 -79.92 0.999992 -79.92 0.002473 -170.5
8.50960000 0.002489 -169.5 0.999992 -79.93 0.999992 -79.93 0.002489 -170.5
8.50980000 0.002505 -169.5 0.999992 -79.93 0.999992 -79.93 0.002505 -170.5
8.51000000 0.002521 -169.5 0.999992 -79.93 0.999992 -79.93 0.002521 -170.5
8.51020000 0.002537 -169.5 0.999992 -79.93 0.999992 -79.93 0.002537 -170.5
8.51040000 0.002553 -169.5 0.999992 -79.94 0.999992 -79.94 0.002553 -170.5
8.51060000 0.002569 -169.5 0.999992 -79.94 0.999992 -79.94 0.002569 -170.5
8.51080000 0.002585 -169.5 0.999992 -79.94 0.999992 -79.94 0.002585 -170.5
8.51100000 0.002601 -169.5 0.999992 -79.95 0.999992 -79.95 0.002601 -170.5
8.51120000 0.002617 -169.5 0.999992 -79.95 0.999992 -79.95 0.002617 -170.5
8.51140000 0.002634 -169.5 0.999992 -79.95 0.999992 -79.95 0.002634 -170.5
8.51160000 0.002650 -169.5 0.999992 -79.95 0.999992 -79.95 0.002650 -170.5
8.51180000 0.002666 -169.5 0.999992 -79.96 0.999992 -79.96 0.002666 -170.5
8.51200000 0.002682 -169.5 0.999992 -79.96 0.999992 -79.96 0.002682 -170.5
8.51220000 0.002699 -169.5 0.999992 -79.96 0.999992 -79.96 0.002699 -170.5
8.51240000 0.002715 -169.5 0.999992 -79.96 0.999992 -79.96 0.002715 -170.5
8.51260000 0.002731 -169.5 0.999992 -79.97 0.999992 -79.97 0.002731 -170.5
8.51280000 0.002748 -169.5 0.999992 -79.97 0.999992 -79.97 0.002748 -170.5
8.51300000 0.002764 -169.6 0.999991 -79.97 0.999991 -79.97 0.002764 -170.5
8.51320000 0.002780 -169.6 0.999991 -79.98 0.999991 -79.98 0.002780 -170.5
8.51340000 0.002797 -169.6 0.999991 -79.98 0.999991 -79.98 0.002797 -170.6
8.51360000 0.002813 -169.6 0.999991 -79.98 0.999991 -79.98 0.002813 -170.6
8.51380000 0.002830 -169.6 0.999991 -79.98 0.999991 -79.98 0.002830 -170.6
8.51400000 0.002846 -169.6 0.999991 -79.99 0.999991 -79.99 0.002846 -170.6
8.51420000 0.002863 -169.6 0.999991 -79.99 0.999991 -79.99 0.002863 -170.6
8.51440000 0.002879 -169.6 0.999991 -79.99 0.999991 -79.99 0.002879 -170.6
8.51460000 0.002896 -169.6 0.999991 -80.00 0.999991 -80.00 0.002896 -170.6
8.51480000 0.002913 -169.6 0.999991 -80.00 0.999991 -80.00 0.002913 -170.6
8.51500000 0.002929 -169.6 0.999991 -80.00 0.999991 -80.00 0.002929 -170.6
8.51520000 0.002946 -169.6 0.999991 -80.00 0.999991 -80.00 0.002946 -170.6
8.51540000 0.002963 -169.6 0.999991 -80.01 0.999991 -80.01 0.002963 -170.6
8.51560000 0.002979 -169.6 0.999991 -80.01 0.999991 -80.01 0.002979 -170.6
8.51580000 0.002996 -169.6 0.999991 -80.01 0.999991 -80.01 0.002996 -170.6
8.51600000 0.003013 -169.6 0.999991 -80.02 0.999991 -80.02 0.003013 -170.6
8.51620000 0.003030 -169.6 0.999991 -80.02 0.999991 -80.02 0.003030 -170.6
8.51640000 0.003046 -169.6 0.999991 -80.02 0.999991 -80.02 0.003046 -170.6
8.51660000 0.003063 -169.6 0.999991 -80.02 0.999991 -80.02 0.003063 -170.6
8.51680000 0.003080 -169.6 0.999991 -80.03 0.999991 -80.03 0.003080 -170.6
8.51700000 0.003097 -169.6 0.999990 -80.03 0.999990 -80.03 0.003097 -170.6
8.51720000 0.003114 -169.6 0.999990 -80.03 0.999990 -80.03 0.003114 -170.6
8.51740000 0.003131 -169.6 0.999990 -80.04 0.999990 -80.04 0.003131 -170.6
8.51760000 0.003148 -169.6 0.999990 -80.04 0.999990 -80.04 0.003148 -170.6
8.51780000 0.003165 -169.6 0.999990 -80.04 0.999990 -80.04 0.003165 -170.6
8.51800000 0.003182 -169.6 0.999990 -80.04 0.999990 -80.04 0.003182 -170.6
8.51820000 0.003199 -169.6 0.999990 -80.05 0.999990 -80.05 0.003199 -170.6
8.51840000 0.003216 -169.6 0.999990 -80.05 0.999990 -80.05 0.003216 -170.6
8.51860000 0.003233 -169.7 0.999990 -80.05 0.999990 -80.05 0.003233 -170.6
8.51880000 0.003250 -169.7 0.999990 -80.06 0.999990 -80.06 0.003250 -170.6
8.51900000 0.003267 -169.7 0.999990 -80.06 0.999990 -80.06 0.003267 -170.6
8.51920000 0.003284 -169.7 0.999990 -80.06 0.999990 -80.06 0.003284 -170.6
8.51940000 0.003301 -169.7 0.999990 -80.06 0.999990 -80.06 0.003301 -170.6
8.51960000 0.003319 -169.7 0.999990 -80.07 0.999990 -80.07 0.003319 -170.6
8.51980000 0.003336 -169.7 0.999990 -80.07 0.999990 -80.07 0.003336 -170.6
8.52000000 0.003353 -169.7 0.999990 -80.07 0.999990 -80.07 0.003353 -170.6
8.52020000 0.003370 -169.7 0.999990 -80.08 0.999990 -80.08 0.003370 -170.6
8.52040000 0.003388 -169.7 0.999989 -80.08 0.999989 -80.08 0.003388 -170.6
8.52060000 0.003405 -169.7 0.999989 -80.08 0.999989 -80.08 0.003405 -170.6
8.52080000 0.003422 -169.7 0.999989 -80.08 0.999989 -80.08 0.003422 -170.6
8.52100000 0.003440 -169.7 0.999989 -80.09 0.999989 -80.09 0.003440 -170.6
8.52120000 0.003457 -169.7 0.999989 -80.09 0.999989 -80.09 0.003457 -170.6
8.52140000 0.003475 -169.7 0.999989 -80.09 0.999989 -80.09 0.003475 -170.6
8.52160000 0.003492 -169.7 0.999989 -80.10 0.999989 -80.10 0.003492 -170.6
8.52180000 0.003510 -169.7 0.999989 -80.10 0.999989 -80.10 0.003510 -170.6
8.52200000 0.003527 -169.7 0.999989 -80.10 0.999989 -80.10 0.003527 -170.6
8.52220000 0.003545 -169.7 0.999989 -80.10 0.999989 -80.10 0.003545 -170.6
8.52240000 0.003562 -169.7 0.999989 -80.11 0.999989 -80.11 0.003562 -170.6
8.52260000 0.003580 -169.7 0.999989 -80.11 0.999989 -80.11 0.003580 -170.6
8.52280000 0.003597 -169.7 0.999989 -80.11 0.999989 -80.11 0.003597 -170.6
8.52300000 0.003615 -169.7 0.999989 -80.12 0.999989 -80.12 0.003615 -170.6
8.52320000 0.003633 -169.7 0.999989 -80.12 0.999989 -80.12 0.003633 -170.6
8.52340000 0.003650 -169.7 0.999988 -80.12 0.999988 -80.12 0.003650 -170.6
8.52360000 0.003668 -169.7 0.999988 -80.12 0.999988 -80.12 0.003668 -170.6
8.52380000 0.003686 -169.7 0.999988 -80.13 0.999988 -80.13 0.003686 -170.6
8.52400000 0.003704 -169.7 0.999988 -80.13 0.999988 -80.13 0.003704 -170.6
8.52420000 0.003721 -169.7 0.999988 -80.13 0.999988 -80.13 0.003722 -170.6
8.52440000 0.003739 -169.8 0.999988 -80.14 0.999988 -80.14 0.003739 -170.6
8.52460000 0.003757 -169.8 0.999988 -80.14 0.999988 -80.14 0.003757 -170.6
8.52480000 0.003775 -169.8 0.999988 -80.14 0.999988 -80.14 0.003775 -170.6
8.52500000 0.003793 -169.8 0.999988 -80.15 0.999988 -80.15 0.003793 -170.6
8.52520000 0.003811 -169.8 0.999988 -80.15 0.999988 -80.15 0.003811 -170.7
8.52540000 0.003829 -169.8 0.999988 -80.15 0.999988 -80.15 0.003829 -170.7
8.52560000 0.003847 -169.8 0.999988 -80.15 0.999988 -80.15 0.003847 -170.7
8.52580000 0.003865 -169.8 0.999988 -80.16 0.999988 -80.16 0.003865 -170.7
8.52600000 0.003883 -169.8 0.999988 -80.16 0.999988 -80.16 0.003883 -170.7
8.52620000 0.003901 -169.8 0.999987 -80.16 0.999987 -80.16 0.003901 -170.7
8.52640000 0.003919 -169.8 0.999987 -80.17 0.999987 -80.17 0.003919 -170.7
8.52660000 0.003937 -169.8 0.999987 -80.17 0.999987 -80.17 0.003937 -170.7
8.52680000 0.003955 -169.8 0.999987 -80.17 0.999987 -80.17 0.003955 -170.7
8.52700000 0.003974 -169.8 0.999987 -80.17 0.999987 -80.17 0.003974 -170.7
8.52720000 0.003992 -169.8 0.999987 -80.18 0.999987 -80.18 0.003992 -170.7
8.52740000 0.004010 -169.8 0.999987 -80.18 0.999987 -80.18 0.004010 -170.7
8.52760000 0.004028 -169.8 0.999987 -80.18 0.999987 -80.18 0.004028 -170.7
8.52780000 0.004047 -169.8 0.999987 -80.19 0.999987 -80.19 0.004047 -170.7
8.52800000 0.004065 -169.8 0.999987 -80.19 0.999987 -80.19 0.004065 -170.7
8.52820000 0.004083 -169.8 0.999987 -80.19 0.999987 -80.19 0.004083 -170.7
8.52840000 0.004102 -169.8 0.999987 -80.19 0.999987 -80.19 0.004102 -170.7
8.52860000 0.004120 -169.8 0.999987 -80.20 0.999987 -80.20 0.004120 -170.7
8.52880000 0.004139 -169.8 0.999986 -80.20 0.999986 -80.20 0.004139 -170.7
8.52900000 0.004157 -169.8 0.999986 -80.20 0.999986 -80.20 0.004157 -170.7
8.52920000 0.004176 -169.8 0.999986 -80.21 0.999986 -80.21 0.004176 -170.7
8.52940000 0.004194 -169.8 0.999986 -80.21 0.999986 -80.21 0.004194 -170.7
8.52960000 0.004213 -169.8 0.999986 -80.21 0.999986 -80.21 0.004213 -170.7
8.52980000 0.004231 -169.8 0.999986 -80.22 0.999986 -80.22 0.004231 -170.7
8.53000000 0.004250 -169.8 0.999986 -80.22 0.999986 -80.22 0.004250 -170.7
8.53020000 0.004268 -169.8 0.999986 -80.22 0.999986 -80.22 0.004269 -170.7
8.53040000 0.004287 -169.9 0.999986 -80.22 0.999986 -80.22 0.004287 -170.7
8.53060000 0.004306 -169.9 0.999986 -80.23 0.999986 -80.23 0.004306 -170.7
8.53080000 0.004325 -169.9 0.999986 -80.23 0.999986 -80.23 0.004325 -170.7
8.53100000 0.004343 -169.9 0.999986 -80.23 0.999986 -80.23 0.004343 -170.7
8.53120000 0.004362 -169.9 0.999986 -80.24 0.999986 -80.24 0.004362 -170.7
8.53140000 0.004381 -169.9 0.999985 -80.24 0.999985 -80.24 0.004381 -170.7
8.53160000 0.004400 -169.9 0.999985 -80.24 0.999985 -80.24 0.004400 -170.7
8.53180000 0.004419 -169.9 0.999985 -80.24 0.999985 -80.24 0.004419 -170.7
8.53200000 0.004438 -169.9 0.999985 -80.25 0.999985 -80.25 0.004438 -170.7
8.53220000 0.004456 -169.9 0.999985 -80.25 0.999985 -80.25 0.004457 -170.7
8.53240000 0.004475 -169.9 0.999985 -80.25 0.999985 -80.25 0.004475 -170.7
8.53260000 0.004494 -169.9 0.999985 -80.26 0.999985 -80.26 0.004494 -170.7
8.53280000 0.004513 -169.9 0.999985 -80.26 0.999985 -80.26 0.004513 -170.7
8.53300000 0.004532 -169.9 0.999985 -80.26 0.999985 -80.26 0.004533 -170.7
8.53320000 0.004552 -169.9 0.999985 -80.27 0.999985 -80.27 0.004552 -170.7
8.53340000 0.004571 -169.9 0.999985 -80.27 0.999985 -80.27 0.004571 -170.7
8.53360000 0.004590 -169.9 0.999984 -80.27 0.999984 -80.27 0.004590 -170.7
8.53380000 0.004609 -169.9 0.999984 -80.27 0.999984 -80.27 0.004609 -170.7
8.53400000 0.004628 -169.9 0.999984 -80.28 0.999984 -80.28 0.004628 -170.7
8.53420000 0.004647 -169.9 0.999984 -80.28 0.999984 -80.28 0.004647 -170.7
8.53440000 0.004667 -169.9 0.999984 -80.28 0.999984 -80.28 0.004667 -170.8
8.53460000 0.004686 -169.9 0.999984 -80.29 0.999984 -80.29 0.004686 -170.8
8.53480000 0.004705 -169.9 0.999984 -80.29 0.999984 -80.29 0.004705 -170.8
8.53500000 0.004725 -169.9 0.999984 -80.29 0.999984 -80.29 0.004725 -170.8
8.53520000 0.004744 -169.9 0.999984 -80.30 0.999984 -80.30 0.004744 -170.8
8.53540000 0.004763 -169.9 0.999984 -80.30 0.999984 -80.30 0.004763 -170.8
8.53560000 0.004783 -169.9 0.999984 -80.30 0.999984 -80.30 0.004783 -170.8
8.53580000 0.004802 -169.9 0.999983 -80.30 0.999983 -80.30 0.004802 -170.8
8.53600000 0.004822 -169.9 0.999983 -80.31 0.999983 -80.31 0.004822 -170.8
8.53620000 0.004841 -169.9 0.999983 -80.31 0.999983 -80.31 0.004841 -170.8
8.53640000 0.004861 -169.9 0.999983 -80.31 0.999983 -80.31 0.004861 -170.8
8.53660000 0.004881 -170.0 0.999983 -80.32 0.999983 -80.32 0.004881 -170.8
8.53680000 0.004900 -170.0 0.999983 -80.32 0.999983 -80.32 0.004900 -170.8
8.53700000 0.004920 -170.0 0.999983 -80.32 0.999983 -80.32 0.004920 -170.8
8.53720000 0.004939 -170.0 0.999983 -80.33 0.999983 -80.33 0.004940 -170.8
8.53740000 0.004959 -170.0 0.999983 -80.33 0.999983 -80.33 0.004959 -170.8
8.53760000 0.004979 -170.0 0.999983 -80.33 0.999983 -80.33 0.004979 -170.8
8.53780000 0.004999 -170.0 0.999982 -80.33 0.999982 -80.33 0.004999 -170.8
8.53800000 0.005019 -170.0 0.999982 -80.34 0.999982 -80.34 0.005019 -170.8
8.53820000 0.005038 -170.0 0.999982 -80.34 0.999982 -80.34 0.005038 -170.8
8.53840000 0.005058 -170.0 0.999982 -80.34 0.999982 -80.34 0.005058 -170.8
8.53860000 0.005078 -170.0 0.999982 -80.35 0.999982 -80.35 0.005078 -170.8
8.53880000 0.005098 -170.0 0.999982 -80.35 0.999982 -80.35 0.005098 -170.8
8.53900000 0.005118 -170.0 0.999982 -80.35 0.999982 -80.35 0.005118 -170.8
8.53920000 0.005138 -170.0 0.999982 -80.36 0.999982 -80.36 0.005138 -170.8
8.53940000 0.005158 -170.0 0.999982 -80.36 0.999982 -80.36 0.005158 -170.8
8.53960000 0.005178 -170.0 0.999981 -80.36 0.999981 -80.36 0.005178 -170.8
8.53980000 0.005198 -170.0 0.999981 -80.36 0.999981 -80.36 0.005198 -170.8
8.54000000 0.005218 -170.0 0.999981 -80.37 0.999981 -80.37 0.005218 -170.8
8.54020000 0.005239 -170.0 0.999981 -80.37 0.999981 -80.37 0.005239 -170.8
8.54040000 0.005259 -170.0 0.999981 -80.37 0.999981 -80.37 0.005259 -170.8
8.54060000 0.005279 -170.0 0.999981 -80.38 0.999981 -80.38 0.005279 -170.8
8.54080000 0.005299 -170.0 0.999981 -80.38 0.999981 -80.38 0.005299 -170.8
8.54100000 0.005320 -170.0 0.999981 -80.38 0.999981 -80.38 0.005320 -170.8
8.54120000 0.005340 -170.0 0.999981 -80.39 0.999981 -80.39 0.005340 -170.8
8.54140000 0.005360 -170.0 0.999980 -80.39 0.999980 -80.39 0.005360 -170.8
8.54160000 0.005381 -170.0 0.999980 -80.39 0.999980 -80.39 0.005381 -170.8
8.54180000 0.005401 -170.0 0.999980 -80.40 0.999980 -80.40 0.005401 -170.8
8.54200000 0.005421 -170.0 0.999980 -80.40 0.999980 -80.40 0.005421 -170.8
8.54220000 0.005442 -170.0 0.999980 -80.40 0.999980 -80.40 0.005442 -170.8
8.54240000 0.005462 -170.0 0.999980 -80.40 0.999980 -80.40 0.005462 -170.8
8.54260000 0.005483 -170.1 0.999980 -80.41 0.999980 -80.41 0.005483 -170.9
8.54280000 0.005504 -170.1 0.999980 -80.41 0.999980 -80.41 0.005504 -170.9
8.54300000 0.005524 -170.1 0.999980 -80.41 0.999980 -80.41 0.005524 -170.9
8.54320000 0.005545 -170.1 0.999979 -80.42 0.999979 -80.42 0.005545 -170.9
8.54340000 0.005566 -170.1 0.999979 -80.42 0.999979 -80.42 0.005566 -170.9
8.54360000 0.005586 -170.1 0.999979 -80.42 0.999979 -80.42 0.005586 -170.9
8.54380000 0.005607 -170.1 0.999979 -80.43 0.999979 -80.43 0.005607 -170.9
8.54400000 0.005628 -170.1 0.999979 -80.43 0.999979 -80.43 0.005628 -170.9
8.54420000 0.005649 -170.1 0.999979 -80.43 0.999979 -80.43 0.005649 -170.9
8.54440000 0.005669 -170.1 0.999979 -80.44 0.999979 -80.44 0.005670 -170.9
8.54460000 0.005690 -170.1 0.999979 -80.44 0.999979 -80.44 0.005690 -170.9
8.54480000 0.005711 -170.1 0.999978 -80.44 0.999978 -80.44 0.005711 -170.9
8.54500000 0.005732 -170.1 0.999978 -80.44 0.999978 -80.44 0.005732 -170.9
8.54520000 0.005753 -170.1 0.999978 -80.45 0.999978 -80.45 0.005753 -170.9
8.54540000 0.005774 -170.1 0.999978 -80.45 0.999978 -80.45 0.005774 -170.9
8.54560000 0.005795 -170.1 0.999978 -80.45 0.999978 -80.45 0.005795 -170.9
8.54580000 0.005816 -170.1 0.999978 -80.46 0.999978 -80.46 0.005816 -170.9
8.54600000 0.005838 -170.1 0.999978 -80.46 0.999978 -80.46 0.005838 -170.9
8.54620000 0.005859 -170.1 0.999978 -80.46 0.999978 -80.46 0.005859 -170.9
8.54640000 0.005880 -170.1 0.999977 -80.47 0.999977 -80.47 0.005880 -170.9
8.54660000 0.005901 -170.1 0.999977 -80.47 0.999977 -80.47 0.005901 -170.9
8.54680000 0.005922 -170.1 0.999977 -80.47 0.999977 -80.47 0.005922 -170.9
8.54700000 0.005944 -170.1 0.999977 -80.48 0.999977 -80.48 0.005944 -170.9
8.54720000 0.005965 -170.1 0.999977 -80.48 0.999977 -80.48 0.005965 -170.9
8.54740000 0.005986 -170.1 0.999977 -80.48 0.999977 -80.48 0.005986 -170.9
8.54760000 0.006008 -170.1 0.999977 -80.48 0.999977 -80.48 0.006008 -170.9
8.54780000 0.006029 -170.1 0.999977 -80.49 0.999977 -80.49 0.006029 -170.9
8.54800000 0.006051 -170.1 0.999976 -80.49 0.999976 -80.49 0.006051 -170.9
8.54820000 0.006072 -170.1 0.999976 -80.49 0.999976 -80.49 0.006072 -170.9
8.54840000 0.006094 -170.1 0.999976 -80.50 0.999976 -80.50 0.006094 -170.9
8.54860000 0.006115 -170.2 0.999976 -80.50 0.999976 -80.50 0.006115 -170.9
8.54880000 0.006137 -170.2 0.999976 -80.50 0.999976 -80.50 0.006137 -170.9
8.54900000 0.006159 -170.2 0.999976 -80.51 0.999976 -80.51 0.006159 -170.9
8.54920000 0.006180 -170.2 0.999976 -80.51 0.999976 -80.51 0.006180 -170.9
8.54940000 0.006202 -170.2 0.999975 -80.51 0.999975 -80.51 0.006202 -170.9
8.54960000 0.006224 -170.2 0.999975 -80.52 0.999975 -80.52 0.006224 -170.9
8.54980000 0.006246 -170.2 0.999975 -80.52 0.999975 -80.52 0.006246 -170.9
8.55000000 0.006267 -170.2 0.999975 -80.52 0.999975 -80.52 0.006267 -170.9
8.55020000 0.006289 -170.2 0.999975 -80.53 0.999975 -80.53 0.006289 -171.0
8.55040000 0.006311 -170.2 0.999975 -80.53 0.999975 -80.53 0.006311 -171.0
8.55060000 0.006333 -170.2 0.999975 -80.53 0.999975 -80.53 0.006333 -171.0
8.55080000 0.006355 -170.2 0.999974 -80.53 0.999974 -80.53 0.006355 -171.0
8.55100000 0.006377 -170.2 0.999974 -80.54 0.999974 -80.54 0.006377 -171.0
8.55120000 0.006399 -170.2 0.999974 -80.54 0.999974 -80.54 0.006399 -171.0
8.55140000 0.006421 -170.2 0.999974 -80.54 0.999974 -80.54 0.006421 -171.0
8.55160000 0.006443 -170.2 0.999974 -80.55 0.999974 -80.55 0.006443 -171.0
8.55180000 0.006466 -170.2 0.999974 -80.55 0.999974 -80.55 0.006466 -171.0
8.55200000 0.006488 -170.2 0.999974 -80.55 0.999974 -80.55 0.006488 -171.0
8.55220000 0.006510 -170.2 0.999973 -80.56 0.999973 -80.56 0.006510 -171.0
8.55240000 0.006532 -170.2 0.999973 -80.56 0.999973 -80.56 0.006532 -171.0
8.55260000 0.006555 -170.2 0.999973 -80.56 0.999973 -80.56 0.006555 -171.0
8.55280000 0.006577 -170.2 0.999973 -80.57 0.999973 -80.57 0.006577 -171.0
8.55300000 0.006599 -170.2 0.999973 -80.57 0.999973 -80.57 0.006599 -171.0
8.55320000 0.006622 -170.2 0.999973 -80.57 0.999973 -80.57 0.006622 -171.0
8.55340000 0.006644 -170.2 0.999973 -80.58 0.999973 -80.58 0.006644 -171.0
8.55360000 0.006667 -170.2 0.999972 -80.58 0.999972 -80.58 0.006667 -171.0
8.55380000 0.006689 -170.2 0.999972 -80.58 0.999972 -80.58 0.006689 -171.0
8.55400000 0.006712 -170.2 0.999972 -80.59 0.999972 -80.59 0.006712 -171.0
8.55420000 0.006734 -170.2 0.999972 -80.59 0.999972 -80.59 0.006734 -171.0
8.55440000 0.006757 -170.2 0.999972 -80.59 0.999972 -80.59 0.006757 -171.0
8.55460000 0.006780 -170.3 0.999972 -80.59 0.999972 -80.59 0.006780 -171.0
8.55480000 0.006802 -170.3 0.999971 -80.60 0.999971 -80.60 0.006802 -171.0
8.55500000 0.006825 -170.3 0.999971 -80.60 0.999971 -80.60 0.006825 -171.0
8.55520000 0.006848 -170.3 0.999971 -80.60 0.999971 -80.60 0.006848 -171.0
8.55540000 0.006871 -170.3 0.999971 -80.61 0.999971 -80.61 0.006871 -171.0
8.55560000 0.006894 -170.3 0.999971 -80.61 0.999971 -80.61 0.006894 -171.0
8.55580000 0.006917 -170.3 0.999971 -80.61 0.999971 -80.61 0.006917 -171.0
8.55600000 0.006940 -170.3 0.999970 -80.62 0.999970 -80.62 0.006940 -171.0
8.55620000 0.006963 -170.3 0.999970 -80.62 0.999970 -80.62 0.006963 -171.0
8.55640000 0.006986 -170.3 0.999970 -80.62 0.999970 -80.62 0.006986 -171.0
8.55660000 0.007009 -170.3 0.999970 -80.63 0.999970 -80.63 0.007009 -171.0
8.55680000 0.007032 -170.3 0.999970 -80.63 0.999970 -80.63 0.007032 -171.0
8.55700000 0.007055 -170.3 0.999970 -80.63 0.999970 -80.63 0.007055 -171.0
8.55720000 0.007078 -170.3 0.999969 -80.64 0.999969 -80.64 0.007078 -171.1
8.55740000 0.007101 -170.3 0.999969 -80.64 0.999969 -80.64 0.007101 -171.1
8.55760000 0.007125 -170.3 0.999969 -80.64 0.999969 -80.64 0.007125 -171.1
8.55780000 0.007148 -170.3 0.999969 -80.65 0.999969 -80.65 0.007148 -171.1
8.55800000 0.007171 -170.3 0.999969 -80.65 0.999969 -80.65 0.007171 -171.1
8.55820000 0.007195 -170.3 0.999969 -80.65 0.999969 -80.65 0.007195 -171.1
8.55840000 0.007218 -170.3 0.999968 -80.66 0.999968 -80.66 0.007218 -171.1
8.55860000 0.007242 -170.3 0.999968 -80.66 0.999968 -80.66 0.007242 -171.1
8.55880000 0.007265 -170.3 0.999968 -80.66 0.999968 -80.66 0.007265 -171.1
8.55900000 0.007289 -170.3 0.999968 -80.67 0.999968 -80.67 0.007289 -171.1
8.55920000 0.007312 -170.3 0.999968 -80.67 0.999968 -80.67 0.007312 -171.1
8.55940000 0.007336 -170.3 0.999968 -80.67 0.999968 -80.67 0.007336 -171.1
8.55960000 0.007360 -170.3 0.999967 -80.67 0.999967 -80.67 0.007360 -171.1
8.55980000 0.007383 -170.3 0.999967 -80.68 0.999967 -80.68 0.007383 -171.1
8.56000000 0.007407 -170.3 0.999967 -80.68 0.999967 -80.68 0.007407 -171.1
8.56020000 0.007431 -170.3 0.999967 -80.68 0.999967 -80.68 0.007431 -171.1
8.56040000 0.007455 -170.3 0.999967 -80.69 0.999967 -80.69 0.007455 -171.1
8.56060000 0.007478 -170.4 0.999967 -80.69 0.999967 -80.69 0.007479 -171.1
8.56080000 0.007502 -170.4 0.999966 -80.69 0.999966 -80.69 0.007502 -171.1
8.56100000 0.007526 -170.4 0.999966 -80.70 0.999966 -80.70 0.007526 -171.1
8.56120000 0.007550 -170.4 0.999966 -80.70 0.999966 -80.70 0.007550 -171.1
8.56140000 0.007574 -170.4 0.999966 -80.70 0.999966 -80.70 0.007574 -171.1
8.56160000 0.007598 -170.4 0.999966 -80.71 0.999966 -80.71 0.007599 -171.1
8.56180000 0.007623 -170.4 0.999965 -80.71 0.999965 -80.71 0.007623 -171.1
8.56200000 0.007647 -170.4 0.999965 -80.71 0.999965 -80.71 0.007647 -171.1
8.56220000 0.007671 -170.4 0.999965 -80.72 0.999965 -80.72 0.007671 -171.1
8.56240000 0.007695 -170.4 0.999965 -80.72 0.999965 -80.72 0.007695 -171.1
8.56260000 0.007720 -170.4 0.999965 -80.72 0.999965 -80.72 0.007720 -171.1
8.56280000 0.007744 -170.4 0.999964 -80.73 0.999964 -80.73 0.007744 -171.1
8.56300000 0.007768 -170.4 0.999964 -80.73 0.999964 -80.73 0.007768 -171.1
8.56320000 0.007793 -170.4 0.999964 -80.73 0.999964 -80.73 0.007793 -171.1
8.56340000 0.007817 -170.4 0.999964 -80.74 0.999964 -80.74 0.007817 -171.1
8.56360000 0.007842 -170.4 0.999964 -80.74 0.999964 -80.74 0.007842 -171.1
8.56380000 0.007866 -170.4 0.999963 -80.74 0.999963 -80.74 0.007866 -171.1
8.56400000 0.007891 -170.4 0.999963 -80.75 0.999963 -80.75 0.007891 -171.2
8.56420000 0.007915 -170.4 0.999963 -80.75 0.999963 -80.75 0.007915 -171.2
8.56440000 0.007940 -170.4 0.999963 -80.75 0.999963 -80.75 0.007940 -171.2
8.56460000 0.007965 -170.4 0.999963 -80.76 0.999963 -80.76 0.007965 -171.2
8.56480000 0.007990 -170.4 0.999962 -80.76 0.999962 -80.76 0.007990 -171.2
8.56500000 0.008014 -170.4 0.999962 -80.76 0.999962 -80.76 0.008014 -171.2
8.56520000 0.008039 -170.4 0.999962 -80.77 0.999962 -80.77 0.008039 -171.2
8.56540000 0.008064 -170.4 0.999962 -80.77 0.999962 -80.77 0.008064 -171.2
8.56560000 0.008089 -170.4 0.999962 -80.77 0.999962 -80.77 0.008089 -171.2
8.56580000 0.008114 -170.4 0.999961 -80.78 0.999961 -80.78 0.008114 -171.2
8.56600000 0.008139 -170.4 0.999961 -80.78 0.999961 -80.78 0.008139 -171.2
8.56620000 0.008164 -170.4 0.999961 -80.78 0.999961 -80.78 0.008164 -171.2
8.56640000 0.008189 -170.5 0.999961 -80.79 0.999961 -80.79 0.008189 -171.2
8.56660000 0.008214 -170.5 0.999961 -80.79 0.999961 -80.79 0.008214 -171.2
8.56680000 0.008240 -170.5 0.999960 -80.79 0.999960 -80.79 0.008240 -171.2
8.56700000 0.008265 -170.5 0.999960 -80.80 0.999960 -80.80 0.008265 -171.2
8.56720000 0.008290 -170.5 0.999960 -80.80 0.999960 -80.80 0.008290 -171.2
8.56740000 0.008316 -170.5 0.999960 -80.80 0.999960 -80.80 0.008316 -171.2
8.56760000 0.008341 -170.5 0.999960 -80.81 0.999960 -80.81 0.008341 -171.2
8.56780000 0.008366 -170.5 0.999959 -80.81 0.999959 -80.81 0.008366 -171.2
8.56800000 0.008392 -170.5 0.999959 -80.81 0.999959 -80.81 0.008392 -171.2
8.56820000 0.008417 -170.5 0.999959 -80.82 0.999959 -80.82 0.008417 -171.2
8.56840000 0.008443 -170.5 0.999959 -80.82 0.999959 -80.82 0.008443 -171.2
8.56860000 0.008469 -170.5 0.999958 -80.82 0.999958 -80.82 0.008469 -171.2
8.56880000 0.008494 -170.5 0.999958 -80.83 0.999958 -80.83 0.008494 -171.2
8.56900000 0.008520 -170.5 0.999958 -80.83 0.999958 -80.83 0.008520 -171.2
8.56920000 0.008546 -170.5 0.999958 -80.83 0.999958 -80.83 0.008546 -171.2
8.56940000 0.008571 -170.5 0.999958 -80.84 0.999958 -80.84 0.008571 -171.2
8.56960000 0.008597 -170.5 0.999957 -80.84 0.999957 -80.84 0.008597 -171.2
8.56980000 0.008623 -170.5 0.999957 -80.84 0.999957 -80.84 0.008623 -171.2
8.57000000 0.008649 -170.5 0.999957 -80.85 0.999957 -80.85 0.008649 -171.2
8.57020000 0.008675 -170.5 0.999957 -80.85 0.999957 -80.85 0.008675 -171.2
8.57040000 0.008701 -170.5 0.999956 -80.85 0.999956 -80.85 0.008701 -171.2
8.57060000 0.008727 -170.5 0.999956 -80.86 0.999956 -80.86 0.008727 -171.3
8.57080000 0.008753 -170.5 0.999956 -80.86 0.999956 -80.86 0.008753 -171.3
8.57100000 0.008779 -170.5 0.999956 -80.86 0.999956 -80.86 0.008779 -171.3
8.57120000 0.008806 -170.5 0.999955 -80.87 0.999955 -80.87 0.008806 -171.3
8.57140000 0.008832 -170.5 0.999955 -80.87 0.999955 -80.87 0.008832 -171.3
8.57160000 0.008858 -170.5 0.999955 -80.87 0.999955 -80.87 0.008858 -171.3
8.57180000 0.008885 -170.5 0.999955 -80.88 0.999955 -80.88 0.008885 -171.3
8.57200000 0.008911 -170.5 0.999955 -80.88 0.999955 -80.88 0.008911 -171.3
8.57220000 0.008937 -170.6 0.999954 -80.88 0.999954 -80.88 0.008937 -171.3
8.57240000 0.008964 -170.6 0.999954 -80.89 0.999954 -80.89 0.008964 -171.3
8.57260000 0.008990 -170.6 0.999954 -80.89 0.999954 -80.89 0.008991 -171.3
8.57280000 0.009017 -170.6 0.999954 -80.89 0.999954 -80.89 0.009017 -171.3
8.57300000 0.009044 -170.6 0.999953 -80.90 0.999953 -80.90 0.009044 -171.3
8.57320000 0.009070 -170.6 0.999953 -80.90 0.999953 -80.90 0.009070 -171.3
8.57340000 0.009097 -170.6 0.999953 -80.90 0.999953 -80.90 0.009097 -171.3
8.57360000 0.009124 -170.6 0.999953 -80.91 0.999953 -80.91 0.009124 -171.3
8.57380000 0.009151 -170.6 0.999952 -80.91 0.999952 -80.91 0.009151 -171.3
8.57400000 0.009178 -170.6 0.999952 -80.91 0.999952 -80.91 0.009178 -171.3
8.57420000 0.009205 -170.6 0.999952 -80.92 0.999952 -80.92 0.009205 -171.3
8.57440000 0.009232 -170.6 0.999952 -80.92 0.999952 -80.92 0.009232 -171.3
8.57460000 0.009259 -170.6 0.999951 -80.92 0.999951 -80.92 0.009259 -171.3
8.57480000 0.009286 -170.6 0.999951 -80.93 0.999951 -80.93 0.009286 -171.3
8.57500000 0.009313 -170.6 0.999951 -80.93 0.999951 -80.93 0.009313 -171.3
8.57520000 0.009340 -170.6 0.999951 -80.94 0.999951 -80.94 0.009340 -171.3
8.57540000 0.009367 -170.6 0.999950 -80.94 0.999950 -80.94 0.009367 -171.3
8.57560000 0.009395 -170.6 0.999950 -80.94 0.999950 -80.94 0.009395 -171.3
8.57580000 0.009422 -170.6 0.999950 -80.95 0.999950 -80.95 0.009422 -171.3
8.57600000 0.009449 -170.6 0.999949 -80.95 0.999949 -80.95 0.009449 -171.3
8.57620000 0.009477 -170.6 0.999949 -80.95 0.999949 -80.95 0.009477 -171.3
8.57640000 0.009504 -170.6 0.999949 -80.96 0.999949 -80.96 0.009504 -171.3
8.57660000 0.009532 -170.6 0.999949 -80.96 0.999949 -80.96 0.009532 -171.3
8.57680000 0.009559 -170.6 0.999948 -80.96 0.999948 -80.96 0.009559 -171.4
8.57700000 0.009587 -170.6 0.999948 -80.97 0.999948 -80.97 0.009587 -171.4
8.57720000 0.009615 -170.6 0.999948 -80.97 0.999948 -80.97 0.009615 -171.4
8.57740000 0.009642 -170.6 0.999948 -80.97 0.999948 -80.97 0.009642 -171.4
8.57760000 0.009670 -170.6 0.999947 -80.98 0.999947 -80.98 0.009670 -171.4
8.57780000 0.009698 -170.7 0.999947 -80.98 0.999947 -80.98 0.009698 -171.4
8.57800000 0.009726 -170.7 0.999947 -80.98 0.999947 -80.98 0.009726 -171.4
8.57820000 0.009754 -170.7 0.999947 -80.99 0.999947 -80.99 0.009754 -171.4
8.57840000 0.009782 -170.7 0.999946 -80.99 0.999946 -80.99 0.009782 -171.4