! Sonnet Data File
! From: emgraph Version : 16.52
! From Project: transmon_brg
! Data is De-embedded 
! Data File Written: 11/11/2017 22:44:24
!< HDATE 11/11/2017 16:55:33
!< MDATE 11/11/2017 17:38:18
!< PARAMS
!< Lj = 15.24
!< Gap = 6.0
!< Width = 10.0
!< Airgap = 6.0
!< Pwidth = 2000.0
!< Dist = 600.0
!< END PARAMS
# GHZ S MA R 51.80000
8.50000000 0.005795 -169.8 0.999979 -79.73 0.999979 -79.73 0.005795 -169.8
!< P1 F=8.5 Eeff=(6.44695349 -2.9785e-5) Z0=(51.7999087 1.19092e-4) R=0.0 C=0.0 
!< P2 F=8.5 Eeff=(6.44695349 -2.9785e-5) Z0=(51.7999087 1.19092e-4) R=0.0 C=0.0 
8.50020000 0.005811 -169.8 0.999979 -79.74 0.999979 -79.74 0.005811 -169.8
8.50040000 0.005826 -169.8 0.999978 -79.74 0.999978 -79.74 0.005826 -169.8
8.50060000 0.005842 -169.8 0.999978 -79.74 0.999978 -79.74 0.005842 -169.8
8.50080000 0.005858 -169.8 0.999978 -79.75 0.999978 -79.75 0.005858 -169.8
8.50100000 0.005873 -169.8 0.999978 -79.75 0.999978 -79.75 0.005873 -169.8
8.50120000 0.005889 -169.8 0.999978 -79.75 0.999978 -79.75 0.005889 -169.8
8.50140000 0.005904 -169.8 0.999978 -79.75 0.999978 -79.75 0.005904 -169.8
8.50160000 0.005920 -169.8 0.999978 -79.76 0.999978 -79.76 0.005920 -169.8
8.50180000 0.005936 -169.8 0.999978 -79.76 0.999978 -79.76 0.005936 -169.8
8.50200000 0.005951 -169.8 0.999978 -79.76 0.999978 -79.76 0.005951 -169.8
8.50220000 0.005967 -169.8 0.999978 -79.77 0.999978 -79.77 0.005967 -169.8
8.50240000 0.005983 -169.8 0.999978 -79.77 0.999978 -79.77 0.005983 -169.8
8.50260000 0.005998 -169.8 0.999977 -79.77 0.999977 -79.77 0.005998 -169.8
8.50280000 0.006014 -169.8 0.999977 -79.77 0.999977 -79.77 0.006014 -169.8
8.50300000 0.006030 -169.8 0.999977 -79.78 0.999977 -79.78 0.006030 -169.8
8.50320000 0.006046 -169.8 0.999977 -79.78 0.999977 -79.78 0.006046 -169.8
8.50340000 0.006062 -169.8 0.999977 -79.78 0.999977 -79.78 0.006062 -169.8
8.50360000 0.006077 -169.8 0.999977 -79.78 0.999977 -79.78 0.006078 -169.8
8.50380000 0.006093 -169.8 0.999977 -79.79 0.999977 -79.79 0.006093 -169.8
8.50400000 0.006109 -169.8 0.999977 -79.79 0.999977 -79.79 0.006109 -169.8
8.50420000 0.006125 -169.8 0.999977 -79.79 0.999977 -79.79 0.006125 -169.8
8.50440000 0.006141 -169.8 0.999977 -79.80 0.999977 -79.80 0.006141 -169.8
8.50460000 0.006157 -169.8 0.999976 -79.80 0.999976 -79.80 0.006157 -169.8
8.50480000 0.006173 -169.8 0.999976 -79.80 0.999976 -79.80 0.006173 -169.8
8.50500000 0.006189 -169.8 0.999976 -79.80 0.999976 -79.80 0.006189 -169.8
8.50520000 0.006205 -169.8 0.999976 -79.81 0.999976 -79.81 0.006205 -169.9
8.50540000 0.006221 -169.8 0.999976 -79.81 0.999976 -79.81 0.006221 -169.9
8.50560000 0.006237 -169.8 0.999976 -79.81 0.999976 -79.81 0.006237 -169.9
8.50580000 0.006253 -169.8 0.999976 -79.82 0.999976 -79.82 0.006253 -169.9
8.50600000 0.006269 -169.8 0.999976 -79.82 0.999976 -79.82 0.006270 -169.9
8.50620000 0.006286 -169.8 0.999976 -79.82 0.999976 -79.82 0.006286 -169.9
8.50640000 0.006302 -169.8 0.999976 -79.82 0.999976 -79.82 0.006302 -169.9
8.50660000 0.006318 -169.8 0.999975 -79.83 0.999975 -79.83 0.006318 -169.9
8.50680000 0.006334 -169.8 0.999975 -79.83 0.999975 -79.83 0.006334 -169.9
8.50700000 0.006350 -169.9 0.999975 -79.83 0.999975 -79.83 0.006351 -169.9
8.50720000 0.006367 -169.9 0.999975 -79.83 0.999975 -79.83 0.006367 -169.9
8.50740000 0.006383 -169.9 0.999975 -79.84 0.999975 -79.84 0.006383 -169.9
8.50760000 0.006399 -169.9 0.999975 -79.84 0.999975 -79.84 0.006399 -169.9
8.50780000 0.006416 -169.9 0.999975 -79.84 0.999975 -79.84 0.006416 -169.9
8.50800000 0.006432 -169.9 0.999975 -79.85 0.999975 -79.85 0.006432 -169.9
8.50820000 0.006448 -169.9 0.999975 -79.85 0.999975 -79.85 0.006448 -169.9
8.50840000 0.006465 -169.9 0.999974 -79.85 0.999974 -79.85 0.006465 -169.9
8.50860000 0.006481 -169.9 0.999974 -79.85 0.999974 -79.85 0.006481 -169.9
8.50880000 0.006498 -169.9 0.999974 -79.86 0.999974 -79.86 0.006498 -169.9
8.50900000 0.006514 -169.9 0.999974 -79.86 0.999974 -79.86 0.006514 -169.9
8.50920000 0.006531 -169.9 0.999974 -79.86 0.999974 -79.86 0.006531 -169.9
8.50940000 0.006547 -169.9 0.999974 -79.87 0.999974 -79.87 0.006547 -169.9
8.50960000 0.006564 -169.9 0.999974 -79.87 0.999974 -79.87 0.006564 -169.9
8.50980000 0.006580 -169.9 0.999974 -79.87 0.999974 -79.87 0.006580 -169.9
8.51000000 0.006597 -169.9 0.999974 -79.87 0.999974 -79.87 0.006597 -169.9
8.51020000 0.006613 -169.9 0.999973 -79.88 0.999973 -79.88 0.006614 -169.9
8.51040000 0.006630 -169.9 0.999973 -79.88 0.999973 -79.88 0.006630 -169.9
8.51060000 0.006647 -169.9 0.999973 -79.88 0.999973 -79.88 0.006647 -169.9
8.51080000 0.006663 -169.9 0.999973 -79.89 0.999973 -79.89 0.006664 -169.9
8.51100000 0.006680 -169.9 0.999973 -79.89 0.999973 -79.89 0.006680 -169.9
8.51120000 0.006697 -169.9 0.999973 -79.89 0.999973 -79.89 0.006697 -169.9
8.51140000 0.006714 -169.9 0.999973 -79.89 0.999973 -79.89 0.006714 -169.9
8.51160000 0.006730 -169.9 0.999973 -79.90 0.999973 -79.90 0.006731 -170.0
8.51180000 0.006747 -169.9 0.999973 -79.90 0.999973 -79.90 0.006747 -170.0
8.51200000 0.006764 -169.9 0.999972 -79.90 0.999972 -79.90 0.006764 -170.0
8.51220000 0.006781 -169.9 0.999972 -79.91 0.999972 -79.91 0.006781 -170.0
8.51240000 0.006798 -169.9 0.999972 -79.91 0.999972 -79.91 0.006798 -170.0
8.51260000 0.006815 -169.9 0.999972 -79.91 0.999972 -79.91 0.006815 -170.0
8.51280000 0.006832 -169.9 0.999972 -79.91 0.999972 -79.91 0.006832 -170.0
8.51300000 0.006849 -169.9 0.999972 -79.92 0.999972 -79.92 0.006849 -170.0
8.51320000 0.006866 -169.9 0.999972 -79.92 0.999972 -79.92 0.006866 -170.0
8.51340000 0.006883 -169.9 0.999972 -79.92 0.999972 -79.92 0.006883 -170.0
8.51360000 0.006900 -169.9 0.999971 -79.93 0.999971 -79.93 0.006900 -170.0
8.51380000 0.006917 -169.9 0.999971 -79.93 0.999971 -79.93 0.006917 -170.0
8.51400000 0.006934 -169.9 0.999971 -79.93 0.999971 -79.93 0.006934 -170.0
8.51420000 0.006951 -169.9 0.999971 -79.93 0.999971 -79.93 0.006951 -170.0
8.51440000 0.006968 -169.9 0.999971 -79.94 0.999971 -79.94 0.006968 -170.0
8.51460000 0.006985 -169.9 0.999971 -79.94 0.999971 -79.94 0.006985 -170.0
8.51480000 0.007002 -169.9 0.999971 -79.94 0.999971 -79.94 0.007003 -170.0
8.51500000 0.007020 -169.9 0.999971 -79.95 0.999971 -79.95 0.007020 -170.0
8.51520000 0.007037 -169.9 0.999970 -79.95 0.999970 -79.95 0.007037 -170.0
8.51540000 0.007054 -170.0 0.999970 -79.95 0.999970 -79.95 0.007054 -170.0
8.51560000 0.007071 -170.0 0.999970 -79.95 0.999970 -79.95 0.007072 -170.0
8.51580000 0.007089 -170.0 0.999970 -79.96 0.999970 -79.96 0.007089 -170.0
8.51600000 0.007106 -170.0 0.999970 -79.96 0.999970 -79.96 0.007106 -170.0
8.51620000 0.007123 -170.0 0.999970 -79.96 0.999970 -79.96 0.007124 -170.0
8.51640000 0.007141 -170.0 0.999970 -79.97 0.999970 -79.97 0.007141 -170.0
8.51660000 0.007158 -170.0 0.999970 -79.97 0.999970 -79.97 0.007158 -170.0
8.51680000 0.007176 -170.0 0.999969 -79.97 0.999969 -79.97 0.007176 -170.0
8.51700000 0.007193 -170.0 0.999969 -79.97 0.999969 -79.97 0.007193 -170.0
8.51720000 0.007211 -170.0 0.999969 -79.98 0.999969 -79.98 0.007211 -170.0
8.51740000 0.007228 -170.0 0.999969 -79.98 0.999969 -79.98 0.007228 -170.0
8.51760000 0.007246 -170.0 0.999969 -79.98 0.999969 -79.98 0.007246 -170.0
8.51780000 0.007263 -170.0 0.999969 -79.99 0.999969 -79.99 0.007263 -170.0
8.51800000 0.007281 -170.0 0.999969 -79.99 0.999969 -79.99 0.007281 -170.1
8.51820000 0.007298 -170.0 0.999969 -79.99 0.999969 -79.99 0.007299 -170.1
8.51840000 0.007316 -170.0 0.999968 -79.99 0.999968 -79.99 0.007316 -170.1
8.51860000 0.007334 -170.0 0.999968 -80.00 0.999968 -80.00 0.007334 -170.1
8.51880000 0.007351 -170.0 0.999968 -80.00 0.999968 -80.00 0.007352 -170.1
8.51900000 0.007369 -170.0 0.999968 -80.00 0.999968 -80.00 0.007369 -170.1
8.51920000 0.007387 -170.0 0.999968 -80.01 0.999968 -80.01 0.007387 -170.1
8.51940000 0.007405 -170.0 0.999968 -80.01 0.999968 -80.01 0.007405 -170.1
8.51960000 0.007422 -170.0 0.999968 -80.01 0.999968 -80.01 0.007423 -170.1
8.51980000 0.007440 -170.0 0.999968 -80.01 0.999968 -80.01 0.007441 -170.1
8.52000000 0.007458 -170.0 0.999967 -80.02 0.999967 -80.02 0.007458 -170.1
8.52020000 0.007476 -170.0 0.999967 -80.02 0.999967 -80.02 0.007476 -170.1
8.52040000 0.007494 -170.0 0.999967 -80.02 0.999967 -80.02 0.007494 -170.1
8.52060000 0.007512 -170.0 0.999967 -80.03 0.999967 -80.03 0.007512 -170.1
8.52080000 0.007530 -170.0 0.999967 -80.03 0.999967 -80.03 0.007530 -170.1
8.52100000 0.007548 -170.0 0.999967 -80.03 0.999967 -80.03 0.007548 -170.1
8.52120000 0.007566 -170.0 0.999967 -80.03 0.999967 -80.03 0.007566 -170.1
8.52140000 0.007584 -170.0 0.999966 -80.04 0.999966 -80.04 0.007584 -170.1
8.52160000 0.007602 -170.0 0.999966 -80.04 0.999966 -80.04 0.007602 -170.1
8.52180000 0.007620 -170.0 0.999966 -80.04 0.999966 -80.04 0.007620 -170.1
8.52200000 0.007638 -170.0 0.999966 -80.05 0.999966 -80.05 0.007638 -170.1
8.52220000 0.007656 -170.0 0.999966 -80.05 0.999966 -80.05 0.007657 -170.1
8.52240000 0.007674 -170.0 0.999966 -80.05 0.999966 -80.05 0.007675 -170.1
8.52260000 0.007693 -170.0 0.999966 -80.05 0.999966 -80.05 0.007693 -170.1
8.52280000 0.007711 -170.0 0.999965 -80.06 0.999965 -80.06 0.007711 -170.1
8.52300000 0.007729 -170.0 0.999965 -80.06 0.999965 -80.06 0.007730 -170.1
8.52320000 0.007747 -170.1 0.999965 -80.06 0.999965 -80.06 0.007748 -170.1
8.52340000 0.007766 -170.1 0.999965 -80.07 0.999965 -80.07 0.007766 -170.1
8.52360000 0.007784 -170.1 0.999965 -80.07 0.999965 -80.07 0.007785 -170.1
8.52380000 0.007803 -170.1 0.999965 -80.07 0.999965 -80.07 0.007803 -170.1
8.52400000 0.007821 -170.1 0.999965 -80.08 0.999965 -80.08 0.007821 -170.1
8.52420000 0.007839 -170.1 0.999964 -80.08 0.999964 -80.08 0.007840 -170.1
8.52440000 0.007858 -170.1 0.999964 -80.08 0.999964 -80.08 0.007858 -170.2
8.52460000 0.007876 -170.1 0.999964 -80.08 0.999964 -80.08 0.007877 -170.2
8.52480000 0.007895 -170.1 0.999964 -80.09 0.999964 -80.09 0.007895 -170.2
8.52500000 0.007913 -170.1 0.999964 -80.09 0.999964 -80.09 0.007914 -170.2
8.52520000 0.007932 -170.1 0.999964 -80.09 0.999964 -80.09 0.007932 -170.2
8.52540000 0.007950 -170.1 0.999963 -80.10 0.999963 -80.10 0.007951 -170.2
8.52560000 0.007969 -170.1 0.999963 -80.10 0.999963 -80.10 0.007970 -170.2
8.52580000 0.007988 -170.1 0.999963 -80.10 0.999963 -80.10 0.007988 -170.2
8.52600000 0.008006 -170.1 0.999963 -80.10 0.999963 -80.10 0.008007 -170.2
8.52620000 0.008025 -170.1 0.999963 -80.11 0.999963 -80.11 0.008026 -170.2
8.52640000 0.008044 -170.1 0.999963 -80.11 0.999963 -80.11 0.008044 -170.2
8.52660000 0.008063 -170.1 0.999963 -80.11 0.999963 -80.11 0.008063 -170.2
8.52680000 0.008081 -170.1 0.999962 -80.12 0.999962 -80.12 0.008082 -170.2
8.52700000 0.008100 -170.1 0.999962 -80.12 0.999962 -80.12 0.008101 -170.2
8.52720000 0.008119 -170.1 0.999962 -80.12 0.999962 -80.12 0.008120 -170.2
8.52740000 0.008138 -170.1 0.999962 -80.13 0.999962 -80.13 0.008138 -170.2
8.52760000 0.008157 -170.1 0.999962 -80.13 0.999962 -80.13 0.008157 -170.2
8.52780000 0.008176 -170.1 0.999962 -80.13 0.999962 -80.13 0.008176 -170.2
8.52800000 0.008195 -170.1 0.999961 -80.13 0.999961 -80.13 0.008195 -170.2
8.52820000 0.008214 -170.1 0.999961 -80.14 0.999961 -80.14 0.008214 -170.2
8.52840000 0.008233 -170.1 0.999961 -80.14 0.999961 -80.14 0.008233 -170.2
8.52860000 0.008252 -170.1 0.999961 -80.14 0.999961 -80.14 0.008252 -170.2
8.52880000 0.008271 -170.1 0.999961 -80.15 0.999961 -80.15 0.008271 -170.2
8.52900000 0.008290 -170.1 0.999961 -80.15 0.999961 -80.15 0.008291 -170.2
8.52920000 0.008309 -170.1 0.999961 -80.15 0.999961 -80.15 0.008310 -170.2
8.52940000 0.008328 -170.1 0.999960 -80.15 0.999960 -80.15 0.008329 -170.2
8.52960000 0.008348 -170.1 0.999960 -80.16 0.999960 -80.16 0.008348 -170.2
8.52980000 0.008367 -170.1 0.999960 -80.16 0.999960 -80.16 0.008367 -170.2
8.53000000 0.008386 -170.1 0.999960 -80.16 0.999960 -80.16 0.008387 -170.2
8.53020000 0.008405 -170.1 0.999960 -80.17 0.999960 -80.17 0.008406 -170.2
8.53040000 0.008425 -170.1 0.999960 -80.17 0.999960 -80.17 0.008425 -170.2
8.53060000 0.008444 -170.1 0.999959 -80.17 0.999959 -80.17 0.008445 -170.2
8.53080000 0.008463 -170.2 0.999959 -80.18 0.999959 -80.18 0.008464 -170.3
8.53100000 0.008483 -170.2 0.999959 -80.18 0.999959 -80.18 0.008483 -170.3
8.53120000 0.008502 -170.2 0.999959 -80.18 0.999959 -80.18 0.008503 -170.3
8.53140000 0.008522 -170.2 0.999959 -80.18 0.999959 -80.18 0.008522 -170.3
8.53160000 0.008541 -170.2 0.999959 -80.19 0.999959 -80.19 0.008542 -170.3
8.53180000 0.008561 -170.2 0.999958 -80.19 0.999958 -80.19 0.008561 -170.3
8.53200000 0.008580 -170.2 0.999958 -80.19 0.999958 -80.19 0.008581 -170.3
8.53220000 0.008600 -170.2 0.999958 -80.20 0.999958 -80.20 0.008600 -170.3
8.53240000 0.008620 -170.2 0.999958 -80.20 0.999958 -80.20 0.008620 -170.3
8.53260000 0.008639 -170.2 0.999958 -80.20 0.999958 -80.20 0.008640 -170.3
8.53280000 0.008659 -170.2 0.999957 -80.21 0.999957 -80.21 0.008659 -170.3
8.53300000 0.008679 -170.2 0.999957 -80.21 0.999957 -80.21 0.008679 -170.3
8.53320000 0.008698 -170.2 0.999957 -80.21 0.999957 -80.21 0.008699 -170.3
8.53340000 0.008718 -170.2 0.999957 -80.21 0.999957 -80.21 0.008719 -170.3
8.53360000 0.008738 -170.2 0.999957 -80.22 0.999957 -80.22 0.008739 -170.3
8.53380000 0.008758 -170.2 0.999957 -80.22 0.999957 -80.22 0.008758 -170.3
8.53400000 0.008778 -170.2 0.999956 -80.22 0.999956 -80.22 0.008778 -170.3
8.53420000 0.008798 -170.2 0.999956 -80.23 0.999956 -80.23 0.008798 -170.3
8.53440000 0.008818 -170.2 0.999956 -80.23 0.999956 -80.23 0.008818 -170.3
8.53460000 0.008838 -170.2 0.999956 -80.23 0.999956 -80.23 0.008838 -170.3
8.53480000 0.008858 -170.2 0.999956 -80.24 0.999956 -80.24 0.008858 -170.3
8.53500000 0.008878 -170.2 0.999956 -80.24 0.999956 -80.24 0.008878 -170.3
8.53520000 0.008898 -170.2 0.999955 -80.24 0.999955 -80.24 0.008898 -170.3
8.53540000 0.008918 -170.2 0.999955 -80.24 0.999955 -80.24 0.008918 -170.3
8.53560000 0.008938 -170.2 0.999955 -80.25 0.999955 -80.25 0.008938 -170.3
8.53580000 0.008958 -170.2 0.999955 -80.25 0.999955 -80.25 0.008959 -170.3
8.53600000 0.008978 -170.2 0.999955 -80.25 0.999955 -80.25 0.008979 -170.3
8.53620000 0.008998 -170.2 0.999954 -80.26 0.999954 -80.26 0.008999 -170.3
8.53640000 0.009019 -170.2 0.999954 -80.26 0.999954 -80.26 0.009019 -170.3
8.53660000 0.009039 -170.2 0.999954 -80.26 0.999954 -80.26 0.009039 -170.3
8.53680000 0.009059 -170.2 0.999954 -80.27 0.999954 -80.27 0.009060 -170.3
8.53700000 0.009080 -170.2 0.999954 -80.27 0.999954 -80.27 0.009080 -170.4
8.53720000 0.009100 -170.2 0.999954 -80.27 0.999954 -80.27 0.009101 -170.4
8.53740000 0.009120 -170.2 0.999953 -80.27 0.999953 -80.27 0.009121 -170.4
8.53760000 0.009141 -170.2 0.999953 -80.28 0.999953 -80.28 0.009141 -170.4
8.53780000 0.009161 -170.2 0.999953 -80.28 0.999953 -80.28 0.009162 -170.4
8.53800000 0.009182 -170.3 0.999953 -80.28 0.999953 -80.28 0.009182 -170.4
8.53820000 0.009202 -170.3 0.999953 -80.29 0.999953 -80.29 0.009203 -170.4
8.53840000 0.009223 -170.3 0.999952 -80.29 0.999952 -80.29 0.009224 -170.4
8.53860000 0.009244 -170.3 0.999952 -80.29 0.999952 -80.29 0.009244 -170.4
8.53880000 0.009264 -170.3 0.999952 -80.30 0.999952 -80.30 0.009265 -170.4
8.53900000 0.009285 -170.3 0.999952 -80.30 0.999952 -80.30 0.009285 -170.4
8.53920000 0.009306 -170.3 0.999952 -80.30 0.999952 -80.30 0.009306 -170.4
8.53940000 0.009326 -170.3 0.999951 -80.31 0.999951 -80.31 0.009327 -170.4
8.53960000 0.009347 -170.3 0.999951 -80.31 0.999951 -80.31 0.009348 -170.4
8.53980000 0.009368 -170.3 0.999951 -80.31 0.999951 -80.31 0.009368 -170.4
8.54000000 0.009389 -170.3 0.999951 -80.31 0.999951 -80.31 0.009389 -170.4
8.54020000 0.009410 -170.3 0.999951 -80.32 0.999951 -80.32 0.009410 -170.4
8.54040000 0.009431 -170.3 0.999950 -80.32 0.999950 -80.32 0.009431 -170.4
8.54060000 0.009451 -170.3 0.999950 -80.32 0.999950 -80.32 0.009452 -170.4
8.54080000 0.009472 -170.3 0.999950 -80.33 0.999950 -80.33 0.009473 -170.4
8.54100000 0.009493 -170.3 0.999950 -80.33 0.999950 -80.33 0.009494 -170.4
8.54120000 0.009514 -170.3 0.999950 -80.33 0.999950 -80.33 0.009515 -170.4
8.54140000 0.009536 -170.3 0.999949 -80.34 0.999949 -80.34 0.009536 -170.4
8.54160000 0.009557 -170.3 0.999949 -80.34 0.999949 -80.34 0.009557 -170.4
8.54180000 0.009578 -170.3 0.999949 -80.34 0.999949 -80.34 0.009578 -170.4
8.54200000 0.009599 -170.3 0.999949 -80.35 0.999949 -80.35 0.009600 -170.4
8.54220000 0.009620 -170.3 0.999949 -80.35 0.999949 -80.35 0.009621 -170.4
8.54240000 0.009641 -170.3 0.999948 -80.35 0.999948 -80.35 0.009642 -170.4
8.54260000 0.009663 -170.3 0.999948 -80.35 0.999948 -80.35 0.009663 -170.4
8.54280000 0.009684 -170.3 0.999948 -80.36 0.999948 -80.36 0.009685 -170.4
8.54300000 0.009705 -170.3 0.999948 -80.36 0.999948 -80.36 0.009706 -170.4
8.54320000 0.009727 -170.3 0.999947 -80.36 0.999947 -80.36 0.009727 -170.5
8.54340000 0.009748 -170.3 0.999947 -80.37 0.999947 -80.37 0.009749 -170.5
8.54360000 0.009770 -170.3 0.999947 -80.37 0.999947 -80.37 0.009770 -170.5
8.54380000 0.009791 -170.3 0.999947 -80.37 0.999947 -80.37 0.009792 -170.5
8.54400000 0.009813 -170.3 0.999947 -80.38 0.999947 -80.38 0.009813 -170.5
8.54420000 0.009834 -170.3 0.999946 -80.38 0.999946 -80.38 0.009835 -170.5
8.54440000 0.009856 -170.3 0.999946 -80.38 0.999946 -80.38 0.009856 -170.5
8.54460000 0.009877 -170.3 0.999946 -80.39 0.999946 -80.39 0.009878 -170.5
8.54480000 0.009899 -170.3 0.999946 -80.39 0.999946 -80.39 0.009900 -170.5
8.54500000 0.009921 -170.3 0.999946 -80.39 0.999946 -80.39 0.009921 -170.5
8.54520000 0.009943 -170.4 0.999945 -80.39 0.999945 -80.39 0.009943 -170.5
8.54540000 0.009964 -170.4 0.999945 -80.40 0.999945 -80.40 0.009965 -170.5
8.54560000 0.009986 -170.4 0.999945 -80.40 0.999945 -80.40 0.009987 -170.5
8.54580000 0.010008 -170.4 0.999945 -80.40 0.999945 -80.40 0.010009 -170.5
8.54600000 0.010030 -170.4 0.999944 -80.41 0.999944 -80.41 0.010031 -170.5
8.54620000 0.010052 -170.4 0.999944 -80.41 0.999944 -80.41 0.010052 -170.5
8.54640000 0.010074 -170.4 0.999944 -80.41 0.999944 -80.41 0.010074 -170.5
8.54660000 0.010096 -170.4 0.999944 -80.42 0.999944 -80.42 0.010096 -170.5
8.54680000 0.010118 -170.4 0.999944 -80.42 0.999944 -80.42 0.010118 -170.5
8.54700000 0.010140 -170.4 0.999943 -80.42 0.999943 -80.42 0.010140 -170.5
8.54720000 0.010162 -170.4 0.999943 -80.43 0.999943 -80.43 0.010163 -170.5
8.54740000 0.010184 -170.4 0.999943 -80.43 0.999943 -80.43 0.010185 -170.5
8.54760000 0.010206 -170.4 0.999943 -80.43 0.999943 -80.43 0.010207 -170.5
8.54780000 0.010228 -170.4 0.999942 -80.44 0.999942 -80.44 0.010229 -170.5
8.54800000 0.010251 -170.4 0.999942 -80.44 0.999942 -80.44 0.010251 -170.5
8.54820000 0.010273 -170.4 0.999942 -80.44 0.999942 -80.44 0.010274 -170.5
8.54840000 0.010295 -170.4 0.999942 -80.44 0.999942 -80.44 0.010296 -170.5
8.54860000 0.010318 -170.4 0.999941 -80.45 0.999941 -80.45 0.010318 -170.5
8.54880000 0.010340 -170.4 0.999941 -80.45 0.999941 -80.45 0.010341 -170.5
8.54900000 0.010362 -170.4 0.999941 -80.45 0.999941 -80.45 0.010363 -170.5
8.54920000 0.010385 -170.4 0.999941 -80.46 0.999941 -80.46 0.010386 -170.6
8.54940000 0.010407 -170.4 0.999941 -80.46 0.999941 -80.46 0.010408 -170.6
8.54960000 0.010430 -170.4 0.999940 -80.46 0.999940 -80.46 0.010431 -170.6
8.54980000 0.010452 -170.4 0.999940 -80.47 0.999940 -80.47 0.010453 -170.6
8.55000000 0.010475 -170.4 0.999940 -80.47 0.999940 -80.47 0.010476 -170.6
8.55020000 0.010498 -170.4 0.999940 -80.47 0.999940 -80.47 0.010498 -170.6
8.55040000 0.010520 -170.4 0.999939 -80.48 0.999939 -80.48 0.010521 -170.6
8.55060000 0.010543 -170.4 0.999939 -80.48 0.999939 -80.48 0.010544 -170.6
8.55080000 0.010566 -170.4 0.999939 -80.48 0.999939 -80.48 0.010567 -170.6
8.55100000 0.010589 -170.4 0.999939 -80.49 0.999939 -80.49 0.010589 -170.6
8.55120000 0.010612 -170.4 0.999938 -80.49 0.999938 -80.49 0.010612 -170.6
8.55140000 0.010634 -170.4 0.999938 -80.49 0.999938 -80.49 0.010635 -170.6
8.55160000 0.010657 -170.4 0.999938 -80.50 0.999938 -80.50 0.010658 -170.6
8.55180000 0.010680 -170.4 0.999938 -80.50 0.999938 -80.50 0.010681 -170.6
8.55200000 0.010703 -170.5 0.999937 -80.50 0.999937 -80.50 0.010704 -170.6
8.55220000 0.010726 -170.5 0.999937 -80.51 0.999937 -80.51 0.010727 -170.6
8.55240000 0.010749 -170.5 0.999937 -80.51 0.999937 -80.51 0.010750 -170.6
8.55260000 0.010773 -170.5 0.999937 -80.51 0.999937 -80.51 0.010773 -170.6
8.55280000 0.010796 -170.5 0.999936 -80.51 0.999936 -80.51 0.010796 -170.6
8.55300000 0.010819 -170.5 0.999936 -80.52 0.999936 -80.52 0.010820 -170.6
8.55320000 0.010842 -170.5 0.999936 -80.52 0.999936 -80.52 0.010843 -170.6
8.55340000 0.010865 -170.5 0.999936 -80.52 0.999936 -80.52 0.010866 -170.6
8.55360000 0.010889 -170.5 0.999935 -80.53 0.999935 -80.53 0.010889 -170.6
8.55380000 0.010912 -170.5 0.999935 -80.53 0.999935 -80.53 0.010913 -170.6
8.55400000 0.010935 -170.5 0.999935 -80.53 0.999935 -80.53 0.010936 -170.6
8.55420000 0.010959 -170.5 0.999935 -80.54 0.999935 -80.54 0.010960 -170.6
8.55440000 0.010982 -170.5 0.999934 -80.54 0.999934 -80.54 0.010983 -170.6
8.55460000 0.011006 -170.5 0.999934 -80.54 0.999934 -80.54 0.011007 -170.6
8.55480000 0.011029 -170.5 0.999934 -80.55 0.999934 -80.55 0.011030 -170.6
8.55500000 0.011053 -170.5 0.999933 -80.55 0.999933 -80.55 0.011054 -170.6
8.55520000 0.011077 -170.5 0.999933 -80.55 0.999933 -80.55 0.011077 -170.7
8.55540000 0.011100 -170.5 0.999933 -80.56 0.999933 -80.56 0.011101 -170.7
8.55560000 0.011124 -170.5 0.999933 -80.56 0.999933 -80.56 0.011125 -170.7
8.55580000 0.011148 -170.5 0.999932 -80.56 0.999932 -80.56 0.011148 -170.7
8.55600000 0.011172 -170.5 0.999932 -80.57 0.999932 -80.57 0.011172 -170.7
8.55620000 0.011195 -170.5 0.999932 -80.57 0.999932 -80.57 0.011196 -170.7
8.55640000 0.011219 -170.5 0.999932 -80.57 0.999932 -80.57 0.011220 -170.7
8.55660000 0.011243 -170.5 0.999931 -80.58 0.999931 -80.58 0.011244 -170.7
8.55680000 0.011267 -170.5 0.999931 -80.58 0.999931 -80.58 0.011268 -170.7
8.55700000 0.011291 -170.5 0.999931 -80.58 0.999931 -80.58 0.011292 -170.7
8.55720000 0.011315 -170.5 0.999931 -80.59 0.999931 -80.59 0.011316 -170.7
8.55740000 0.011339 -170.5 0.999930 -80.59 0.999930 -80.59 0.011340 -170.7
8.55760000 0.011363 -170.5 0.999930 -80.59 0.999930 -80.59 0.011364 -170.7
8.55780000 0.011387 -170.5 0.999930 -80.60 0.999930 -80.60 0.011388 -170.7
8.55800000 0.011412 -170.5 0.999929 -80.60 0.999929 -80.60 0.011412 -170.7
8.55820000 0.011436 -170.5 0.999929 -80.60 0.999929 -80.60 0.011437 -170.7
8.55840000 0.011460 -170.5 0.999929 -80.60 0.999929 -80.60 0.011461 -170.7
8.55860000 0.011484 -170.6 0.999929 -80.61 0.999929 -80.61 0.011485 -170.7
8.55880000 0.011509 -170.6 0.999928 -80.61 0.999928 -80.61 0.011510 -170.7
8.55900000 0.011533 -170.6 0.999928 -80.61 0.999928 -80.61 0.011534 -170.7
8.55920000 0.011558 -170.6 0.999928 -80.62 0.999928 -80.62 0.011558 -170.7
8.55940000 0.011582 -170.6 0.999927 -80.62 0.999927 -80.62 0.011583 -170.7
8.55960000 0.011607 -170.6 0.999927 -80.62 0.999927 -80.62 0.011608 -170.7
8.55980000 0.011631 -170.6 0.999927 -80.63 0.999927 -80.63 0.011632 -170.7
8.56000000 0.011656 -170.6 0.999927 -80.63 0.999927 -80.63 0.011657 -170.7
8.56020000 0.011681 -170.6 0.999926 -80.63 0.999926 -80.63 0.011681 -170.7
8.56040000 0.011705 -170.6 0.999926 -80.64 0.999926 -80.64 0.011706 -170.7
8.56060000 0.011730 -170.6 0.999926 -80.64 0.999926 -80.64 0.011731 -170.7
8.56080000 0.011755 -170.6 0.999925 -80.64 0.999925 -80.64 0.011756 -170.7
8.56100000 0.011780 -170.6 0.999925 -80.65 0.999925 -80.65 0.011780 -170.8
8.56120000 0.011805 -170.6 0.999925 -80.65 0.999925 -80.65 0.011805 -170.8
8.56140000 0.011829 -170.6 0.999924 -80.65 0.999924 -80.65 0.011830 -170.8
8.56160000 0.011854 -170.6 0.999924 -80.66 0.999924 -80.66 0.011855 -170.8
8.56180000 0.011879 -170.6 0.999924 -80.66 0.999924 -80.66 0.011880 -170.8
8.56200000 0.011905 -170.6 0.999924 -80.66 0.999924 -80.66 0.011905 -170.8
8.56220000 0.011930 -170.6 0.999923 -80.67 0.999923 -80.67 0.011930 -170.8
8.56240000 0.011955 -170.6 0.999923 -80.67 0.999923 -80.67 0.011956 -170.8
8.56260000 0.011980 -170.6 0.999923 -80.67 0.999923 -80.67 0.011981 -170.8
8.56280000 0.012005 -170.6 0.999922 -80.68 0.999922 -80.68 0.012006 -170.8
8.56300000 0.012030 -170.6 0.999922 -80.68 0.999922 -80.68 0.012031 -170.8
8.56320000 0.012056 -170.6 0.999922 -80.68 0.999922 -80.68 0.012057 -170.8
8.56340000 0.012081 -170.6 0.999921 -80.69 0.999921 -80.69 0.012082 -170.8
8.56360000 0.012107 -170.6 0.999921 -80.69 0.999921 -80.69 0.012107 -170.8
8.56380000 0.012132 -170.6 0.999921 -80.69 0.999921 -80.69 0.012133 -170.8
8.56400000 0.012157 -170.6 0.999920 -80.70 0.999920 -80.70 0.012158 -170.8
8.56420000 0.012183 -170.6 0.999920 -80.70 0.999920 -80.70 0.012184 -170.8
8.56440000 0.012209 -170.6 0.999920 -80.70 0.999920 -80.70 0.012209 -170.8
8.56460000 0.012234 -170.6 0.999920 -80.71 0.999920 -80.71 0.012235 -170.8
8.56480000 0.012260 -170.6 0.999919 -80.71 0.999919 -80.71 0.012261 -170.8
8.56500000 0.012286 -170.7 0.999919 -80.71 0.999919 -80.71 0.012286 -170.8
8.56520000 0.012311 -170.7 0.999919 -80.72 0.999919 -80.72 0.012312 -170.8
8.56540000 0.012337 -170.7 0.999918 -80.72 0.999918 -80.72 0.012338 -170.8
8.56560000 0.012363 -170.7 0.999918 -80.72 0.999918 -80.72 0.012364 -170.8
8.56580000 0.012389 -170.7 0.999918 -80.73 0.999918 -80.73 0.012390 -170.8
8.56600000 0.012415 -170.7 0.999917 -80.73 0.999917 -80.73 0.012416 -170.8
8.56620000 0.012441 -170.7 0.999917 -80.73 0.999917 -80.73 0.012442 -170.8
8.56640000 0.012467 -170.7 0.999917 -80.74 0.999917 -80.74 0.012468 -170.8
8.56660000 0.012493 -170.7 0.999916 -80.74 0.999916 -80.74 0.012494 -170.8
8.56680000 0.012519 -170.7 0.999916 -80.74 0.999916 -80.74 0.012520 -170.9
8.56700000 0.012545 -170.7 0.999916 -80.75 0.999916 -80.75 0.012546 -170.9
8.56720000 0.012572 -170.7 0.999915 -80.75 0.999915 -80.75 0.012572 -170.9
8.56740000 0.012598 -170.7 0.999915 -80.75 0.999915 -80.75 0.012599 -170.9
8.56760000 0.012624 -170.7 0.999915 -80.76 0.999915 -80.76 0.012625 -170.9
8.56780000 0.012651 -170.7 0.999914 -80.76 0.999914 -80.76 0.012651 -170.9
8.56800000 0.012677 -170.7 0.999914 -80.76 0.999914 -80.76 0.012678 -170.9
8.56820000 0.012703 -170.7 0.999914 -80.77 0.999914 -80.77 0.012704 -170.9
8.56840000 0.012730 -170.7 0.999913 -80.77 0.999913 -80.77 0.012731 -170.9
8.56860000 0.012757 -170.7 0.999913 -80.77 0.999913 -80.77 0.012757 -170.9
8.56880000 0.012783 -170.7 0.999913 -80.78 0.999913 -80.78 0.012784 -170.9
8.56900000 0.012810 -170.7 0.999912 -80.78 0.999912 -80.78 0.012811 -170.9
8.56920000 0.012837 -170.7 0.999912 -80.78 0.999912 -80.78 0.012837 -170.9
8.56940000 0.012863 -170.7 0.999912 -80.79 0.999912 -80.79 0.012864 -170.9
8.56960000 0.012890 -170.7 0.999911 -80.79 0.999911 -80.79 0.012891 -170.9
8.56980000 0.012917 -170.7 0.999911 -80.79 0.999911 -80.79 0.012918 -170.9
8.57000000 0.012944 -170.7 0.999910 -80.80 0.999910 -80.80 0.012945 -170.9
8.57020000 0.012971 -170.7 0.999910 -80.80 0.999910 -80.80 0.012972 -170.9
8.57040000 0.012998 -170.7 0.999910 -80.81 0.999910 -80.81 0.012999 -170.9
8.57060000 0.013025 -170.7 0.999909 -80.81 0.999909 -80.81 0.013026 -170.9
8.57080000 0.013052 -170.7 0.999909 -80.81 0.999909 -80.81 0.013053 -170.9
8.57100000 0.013079 -170.7 0.999909 -80.82 0.999909 -80.82 0.013080 -170.9
8.57120000 0.013106 -170.8 0.999908 -80.82 0.999908 -80.82 0.013107 -170.9
8.57140000 0.013134 -170.8 0.999908 -80.82 0.999908 -80.82 0.013134 -170.9
8.57160000 0.013161 -170.8 0.999908 -80.83 0.999908 -80.83 0.013162 -170.9
8.57180000 0.013188 -170.8 0.999907 -80.83 0.999907 -80.83 0.013189 -170.9
8.57200000 0.013216 -170.8 0.999907 -80.83 0.999907 -80.83 0.013216 -170.9
8.57220000 0.013243 -170.8 0.999907 -80.84 0.999907 -80.84 0.013244 -170.9
8.57240000 0.013271 -170.8 0.999906 -80.84 0.999906 -80.84 0.013271 -170.9
8.57260000 0.013298 -170.8 0.999906 -80.84 0.999906 -80.84 0.013299 -171.0
8.57280000 0.013326 -170.8 0.999905 -80.85 0.999905 -80.85 0.013327 -171.0
8.57300000 0.013353 -170.8 0.999905 -80.85 0.999905 -80.85 0.013354 -171.0
8.57320000 0.013381 -170.8 0.999905 -80.85 0.999905 -80.85 0.013382 -171.0
8.57340000 0.013409 -170.8 0.999904 -80.86 0.999904 -80.86 0.013410 -171.0
8.57360000 0.013437 -170.8 0.999904 -80.86 0.999904 -80.86 0.013437 -171.0
8.57380000 0.013464 -170.8 0.999904 -80.86 0.999904 -80.86 0.013465 -171.0
8.57400000 0.013492 -170.8 0.999903 -80.87 0.999903 -80.87 0.013493 -171.0
8.57420000 0.013520 -170.8 0.999903 -80.87 0.999903 -80.87 0.013521 -171.0
8.57440000 0.013548 -170.8 0.999902 -80.87 0.999902 -80.87 0.013549 -171.0
8.57460000 0.013576 -170.8 0.999902 -80.88 0.999902 -80.88 0.013577 -171.0
8.57480000 0.013604 -170.8 0.999902 -80.88 0.999902 -80.88 0.013605 -171.0
8.57500000 0.013633 -170.8 0.999901 -80.88 0.999901 -80.88 0.013633 -171.0
8.57520000 0.013661 -170.8 0.999901 -80.89 0.999901 -80.89 0.013662 -171.0
8.57540000 0.013689 -170.8 0.999900 -80.89 0.999900 -80.89 0.013690 -171.0
8.57560000 0.013717 -170.8 0.999900 -80.89 0.999900 -80.89 0.013718 -171.0
8.57580000 0.013746 -170.8 0.999900 -80.90 0.999900 -80.90 0.013747 -171.0
8.57600000 0.013774 -170.8 0.999899 -80.90 0.999899 -80.90 0.013775 -171.0
8.57620000 0.013803 -170.8 0.999899 -80.91 0.999899 -80.91 0.013804 -171.0
8.57640000 0.013831 -170.8 0.999898 -80.91 0.999898 -80.91 0.013832 -171.0
8.57660000 0.013860 -170.8 0.999898 -80.91 0.999898 -80.91 0.013861 -171.0
8.57680000 0.013888 -170.8 0.999898 -80.92 0.999898 -80.92 0.013889 -171.0
8.57700000 0.013917 -170.8 0.999897 -80.92 0.999897 -80.92 0.013918 -171.0
8.57720000 0.013946 -170.8 0.999897 -80.92 0.999897 -80.92 0.013947 -171.0
8.57740000 0.013975 -170.9 0.999896 -80.93 0.999896 -80.93 0.013976 -171.0
8.57760000 0.014003 -170.9 0.999896 -80.93 0.999896 -80.93 0.014004 -171.0
8.57780000 0.014032 -170.9 0.999896 -80.93 0.999896 -80.93 0.014033 -171.0
8.57800000 0.014061 -170.9 0.999895 -80.94 0.999895 -80.94 0.014062 -171.1
8.57820000 0.014090 -170.9 0.999895 -80.94 0.999895 -80.94 0.014091 -171.1
8.57840000 0.014119 -170.9 0.999894 -80.94 0.999894 -80.94 0.014120 -171.1