! Sonnet Data File
! From: emgraph Version : 16.52
! From Emgraph Data: 171113transmon_trace_noBrg
! Data File Written: 11/14/2017 19:36:20
!< HDATE 11/14/2017 18:17:25
!< MDATE 11/14/2017 18:17:25
!< PARAMS
!< Lj = 15.24
!< Gap = 14.0
!< Width = 10.0
!< Pwidth = 2000.0
!< END PARAMS
# GHZ S MA R 51.90000
8.615000000000000 0.0249371165127 -172.1016118123 0.9996300738612 -80.26236923130 0.9996300738611 -80.26236923147 0.0249334007234 -168.6898652501
!< P1 F=8.615 Eeff=(6.44688234 -2.9785e-5) Z0=(51.7995732 1.19081e-4) R=0.0 C=0.0 
!< P2 F=8.615 Eeff=(6.44688234 -2.9785e-5) Z0=(51.7995732 1.19081e-4) R=0.0 C=0.0 
8.615005000000000 0.0249529873106 -172.1013865610 0.9996296453354 -80.26332505998 0.9996296453354 -80.26332505998 0.0249492718963 -168.6919817375
8.615010000000000 0.0249688306479 -172.1012517480 0.9996291787905 -80.26427922985 0.9996291787905 -80.26427922985 0.0249651130409 -168.6941816038
8.615015000000001 0.0249846938009 -172.1011181862 0.9996287113687 -80.26523453569 0.9996287113687 -80.26523453569 0.0249809739986 -168.6963826790
8.615020000000001 0.0250005768335 -172.1009858824 0.9996282430649 -80.26619098117 0.9996282430649 -80.26619098117 0.0249968548331 -168.6985849739
8.615025000000001 0.0250164797752 -172.1008548382 0.9996277738775 -80.26714856796 0.9996277738775 -80.26714856796 0.0250127555739 -168.7007884888
8.615030000000001 0.0250324026725 -172.1007250577 0.9996273038032 -80.26810729874 0.9996273038032 -80.26810729874 0.0250286762675 -168.7029932292
8.615035000000001 0.0250483455335 -172.1005965411 0.9996268328417 -80.26906717398 0.9996268328417 -80.26906717398 0.0250446169222 -168.7051991910
8.615040000000000 0.0250643084329 -172.1004692928 0.9996263609886 -80.27002819796 0.9996263609886 -80.27002819796 0.0250605776123 -168.7074063840
8.615045000000000 0.0250802914292 -172.1003433127 0.9996258882421 -80.27099037402 0.9996258882421 -80.27099037402 0.0250765583966 -168.7096148111
8.615050000000000 0.0250962944434 -172.1002186055 0.9996254146028 -80.27195369765 0.9996254146028 -80.27195369765 0.0250925591959 -168.7118244601
8.615055000000000 0.0251123176951 -172.1000951718 0.9996249400630 -80.27291818144 0.9996249400630 -80.27291818144 0.0251085802301 -168.7140353579
8.615060000000000 0.0251283610427 -172.0999730150 0.9996244646262 -80.27388381727 0.9996244646262 -80.27388381727 0.0251246213572 -168.7162474818
8.615065000000001 0.0251444246396 -172.0998521382 0.9996239882859 -80.27485061392 0.9996239882859 -80.27485061392 0.0251406827308 -168.7184608518
8.615070000000001 0.0251605085003 -172.0997325382 0.9996235110430 -80.27581857225 0.9996235110430 -80.27581857225 0.0251567643656 -168.7206754611
8.615075000000001 0.0251766126157 -172.0996142255 0.9996230328932 -80.27678769171 0.9996230328932 -80.27678769171 0.0251728662521 -168.7228913134
8.615080000000001 0.0251927370761 -172.0994971995 0.9996225538340 -80.27775797750 0.9996225538340 -80.27775797750 0.0251889884808 -168.7251084155
8.615085000000001 0.0252088819241 -172.0993814607 0.9996220738635 -80.27872943205 0.9996220738635 -80.27872943205 0.0252051310942 -168.7273267687
8.615090000000000 0.0252250471806 -172.0992670133 0.9996215929794 -80.27970205657 0.9996215929794 -80.27970205657 0.0252212941133 -168.7295463745
8.615095000000000 0.0252412328613 -172.0991538605 0.9996211111798 -80.28067585195 0.9996211111798 -80.28067585195 0.0252374775537 -168.7317672327
8.615100000000000 0.0252574390305 -172.0990420006 0.9996206284633 -80.28165082188 0.9996206284633 -80.28165082188 0.0252536814799 -168.7339893456
8.615105000000000 0.0252736657284 -172.0989314400 0.9996201448257 -80.28262696868 0.9996201448257 -80.28262696868 0.0252699059320 -168.7362127195
8.615110000000001 0.0252899129937 -172.0988221819 0.9996196602645 -80.28360429454 0.9996196602645 -80.28360429454 0.0252861509483 -168.7384373576
8.615115000000001 0.0253061808511 -172.0987142248 0.9996191747793 -80.28458280090 0.9996191747793 -80.28458280090 0.0253024165541 -168.7406632565
8.615120000000001 0.0253224693345 -172.0986075721 0.9996186883679 -80.28556248970 0.9996186883679 -80.28556248970 0.0253187027830 -168.7428904186
8.615125000000001 0.0253387785104 -172.0985022287 0.9996182010256 -80.28654336475 0.9996182010256 -80.28654336475 0.0253350097015 -168.7451188528
8.615130000000001 0.0253551083914 -172.0983981957 0.9996177127516 -80.28752542678 0.9996177127516 -80.28752542678 0.0253513373223 -168.7473485566
8.615135000000000 0.0253714590620 -172.0982954761 0.9996172235419 -80.28850868063 0.9996172235419 -80.28850868063 0.0253676857297 -168.7495795391
8.615140000000000 0.0253878305259 -172.0981940701 0.9996167333963 -80.28949312651 0.9996167333963 -80.28949312651 0.0253840549275 -168.7518117955
8.615145000000000 0.0254042228001 -172.0980939850 0.9996162423109 -80.29047876540 0.9996162423109 -80.29047876540 0.0254004449327 -168.7540453298
8.615150000000000 0.0254206359777 -172.0979952186 0.9996157502837 -80.29146560264 0.9996157502837 -80.29146560264 0.0254168558384 -168.7562801477
8.615155000000000 0.0254370700593 -172.0978977711 0.9996152573146 -80.29245363826 0.9996152573146 -80.29245363826 0.0254332876454 -168.7585162433
8.615160000000001 0.0254535250943 -172.0978016536 0.9996147633971 -80.29344287509 0.9996147633971 -80.29344287509 0.0254497404026 -168.7607536295
8.615165000000001 0.0254700011251 -172.0977068619 0.9996142685316 -80.29443331557 0.9996142685316 -80.29443331557 0.0254662141528 -168.7629923022
8.615170000000001 0.0254864981864 -172.0976134008 0.9996137727149 -80.29542496169 0.9996137727149 -80.29542496169 0.0254827089306 -168.7652322655
8.615175000000001 0.0255030163641 -172.0975212723 0.9996132759432 -80.29641781837 0.9996132759432 -80.29641781837 0.0254992248218 -168.7674735278
8.615180000000001 0.0255195556312 -172.0974304781 0.9996127782167 -80.29741188407 0.9996127782167 -80.29741188407 0.0255157617994 -168.7697160813
8.615185000000000 0.0255361160534 -172.0973410218 0.9996122795317 -80.29840716255 0.9996122795317 -80.29840716255 0.0255323199294 -168.7719599331
8.615190000000000 0.0255526976991 -172.0972529079 0.9996117798838 -80.29940365774 0.9996117798838 -80.29940365774 0.0255488992798 -168.7742050918
8.615195000000000 0.0255693005434 -172.0971661365 0.9996112792739 -80.30040136820 0.9996112792739 -80.30040136820 0.0255654998257 -168.7764515481
8.615200000000000 0.0255859246870 -172.0970807104 0.9996107776974 -80.30140029972 0.9996107776974 -80.30140029972 0.0255821216681 -168.7786993132
8.615205000000001 0.0256025701653 -172.0969966323 0.9996102751520 -80.30240045432 0.9996102751520 -80.30240045432 0.0255987648422 -168.7809483892
8.615210000000001 0.0256192370033 -172.0969139041 0.9996097716359 -80.30340183344 0.9996097716359 -80.30340183344 0.0256154293731 -168.7831987755
8.615215000000001 0.0256359252417 -172.0968325292 0.9996092671463 -80.30440443942 0.9996092671463 -80.30440443942 0.0256321153013 -168.7854504756
8.615220000000001 0.0256526349092 -172.0967525084 0.9996087616819 -80.30540827389 0.9996087616819 -80.30540827389 0.0256488226558 -168.7877034887
8.615225000000001 0.0256693660792 -172.0966738464 0.9996082552382 -80.30641334107 0.9996082552382 -80.30641334107 0.0256655515096 -168.7899578237
8.615230000000000 0.0256861187561 -172.0965965472 0.9996077478133 -80.30741964121 0.9996077478133 -80.30741964121 0.0256823018674 -168.7922134796
8.615235000000000 0.0257028930286 -172.0965206090 0.9996072394049 -80.30842717940 0.9996072394049 -80.30842717940 0.0256990738178 -168.7944704611
8.615240000000000 0.0257196889019 -172.0964460369 0.9996067300108 -80.30943595593 0.9996067300108 -80.30943595593 0.0257158673660 -168.7967287682
8.615245000000000 0.0257365064326 -172.0963728354 0.9996062196269 -80.31044597406 0.9996062196269 -80.31044597406 0.0257326825686 -168.7989884075
8.615250000000001 0.0257533456570 -172.0963010006 0.9996057082539 -80.31145723586 0.9996057082539 -80.31145723586 0.0257495194619 -168.8012493744
8.615255000000001 0.0257702065895 -172.0962305431 0.9996051958865 -80.31246974216 0.9996051958865 -80.31246974216 0.0257663780602 -168.8035116756
8.615260000000001 0.0257870893351 -172.0961614606 0.9996046825222 -80.31348349898 0.9996046825222 -80.31348349898 0.0257832584686 -168.8057753175
8.615265000000001 0.0258039938914 -172.0960937600 0.9996041681580 -80.31449850619 0.9996041681580 -80.31449850619 0.0258001606847 -168.8080403008
8.615270000000001 0.0258209203185 -172.0960274379 0.9996036527935 -80.31551476723 0.9996036527935 -80.31551476723 0.0258170847685 -168.8103066247
8.615275000000000 0.0258378686230 -172.0959625011 0.9996031364254 -80.31653228248 0.9996031364254 -80.31653228248 0.0258340307267 -168.8125742910
8.615280000000000 0.0258548389059 -172.0958989517 0.9996026190494 -80.31755105774 0.9996026190494 -80.31755105774 0.0258509986603 -168.8148433098
8.615285000000000 0.0258718311525 -172.0958367947 0.9996021006637 -80.31857109215 0.9996021006637 -80.31857109215 0.0258679885544 -168.8171136783
8.615290000000000 0.0258888454538 -172.0957760255 0.9996015812674 -80.31959239094 0.9996015812674 -80.31959239094 0.0258850005002 -168.8193853984
8.615295000000000 0.0259058818177 -172.0957166497 0.9996010608576 -80.32061495457 0.9996010608576 -80.32061495457 0.0259020345057 -168.8216584710
8.615300000000001 0.0259229403118 -172.0956586765 0.9996005394281 -80.32163878690 0.9996005394281 -80.32163878690 0.0259190906381 -168.8239329087
8.615305000000001 0.0259400209566 -172.0956021018 0.9996000169799 -80.32266388912 0.9996000169799 -80.32266388912 0.0259361689182 -168.8262087042
8.615310000000001 0.0259571238197 -172.0955469295 0.9995994935090 -80.32369026510 0.9995994935090 -80.32369026510 0.0259532694135 -168.8284858648
8.615315000000001 0.0259742489338 -172.0954931651 0.9995989690119 -80.32471791672 0.9995989690119 -80.32471791672 0.0259703921566 -168.8307643946
8.615320000000001 0.0259913963253 -172.0954408052 0.9995984434892 -80.32574684550 0.9995984434892 -80.32574684550 0.0259875371742 -168.8330442879
8.615325000000000 0.0260085660578 -172.0953898611 0.9995979169336 -80.32677705506 0.9995979169336 -80.32677705506 0.0260047045295 -168.8353255586
8.615330000000000 0.0260257581700 -172.0953403249 0.9995973893476 -80.32780854766 0.9995973893476 -80.32780854766 0.0260218942616 -168.8376081982
8.615335000000000 0.0260429727024 -172.0952922117 0.9995968607227 -80.32884132560 0.9995968607227 -80.32884132560 0.0260391064106 -168.8398922214
8.615340000000000 0.0260602097059 -172.0952455141 0.9995963310608 -80.32987539179 0.9995963310608 -80.32987539179 0.0260563410277 -168.8421776217
8.615345000000001 0.0260774692162 -172.0952002388 0.9995958003575 -80.33091074830 0.9995958003575 -80.33091074830 0.0260735981484 -168.8444644047
8.615350000000001 0.0260947512867 -172.0951563887 0.9995952686098 -80.33194739818 0.9995952686098 -80.33194739818 0.0260908778262 -168.8467525746
8.615355000000001 0.0261120559397 -172.0951139643 0.9995947358167 -80.33298534272 0.9995947358167 -80.33298534272 0.0261081800834 -168.8490421288
8.615360000000001 0.0261293832504 -172.0950729751 0.9995942019714 -80.33402458621 0.9995942019714 -80.33402458621 0.0261255049949 -168.8513330812
8.615365000000001 0.0261467332261 -172.0950334160 0.9995936670758 -80.33506512909 0.9995936670758 -80.33506512909 0.0261428525685 -168.8536254215
8.615370000000000 0.0261641059681 -172.0949952921 0.9995931311243 -80.33610697716 0.9995931311243 -80.33610697716 0.0261602229051 -168.8559191624
8.615375000000000 0.0261815014842 -172.0949586074 0.9995925941149 -80.33715013088 0.9995925941149 -80.33715013088 0.0261776160128 -168.8582143031
8.615380000000000 0.0261989198044 -172.0949233642 0.9995920560454 -80.33819459195 0.9995920560454 -80.33819459195 0.0261950319212 -168.8605108439
8.615385000000000 0.0262163609719 -172.0948895654 0.9995915169130 -80.33924036287 0.9995915169130 -80.33924036287 0.0262124706739 -168.8628087874
8.615390000000000 0.0262338250753 -172.0948572139 0.9995909767135 -80.34028744871 0.9995909767135 -80.34028744871 0.0262299323592 -168.8651081424
8.615395000000001 0.0262513121569 -172.0948263135 0.9995904354437 -80.34133585189 0.9995904354437 -80.34133585189 0.0262474170196 -168.8674089123
8.615400000000001 0.0262688222067 -172.0947968620 0.9995898931050 -80.34238557185 0.9995898931050 -80.34238557185 0.0262649246450 -168.8697110874
8.615405000000001 0.0262863553236 -172.0947688684 0.9995893496899 -80.34343661425 0.9995893496899 -80.34343661425 0.0262824553342 -168.8720146839
8.615410000000001 0.0263039115214 -172.0947423347 0.9995888051969 -80.34448897990 0.9995888051969 -80.34448897990 0.0263000091011 -168.8743196997
8.615415000000000 0.0263214908719 -172.0947172587 0.9995882596247 -80.34554267290 0.9995882596247 -80.34554267290 0.0263175860176 -168.8766261361
8.615420000000000 0.0263390933997 -172.0946936472 0.9995877129693 -80.34659769467 0.9995877129693 -80.34659769467 0.0263351861081 -168.8789339969
8.615425000000000 0.0263567191528 -172.0946715044 0.9995871652273 -80.34765404796 0.9995871652273 -80.34765404796 0.0263528094207 -168.8812432866
8.615430000000000 0.0263743681540 -172.0946508305 0.9995866163976 -80.34871173407 0.9995866163976 -80.34871173407 0.0263704559782 -168.8835540025
8.615435000000000 0.0263920405405 -172.0946316283 0.9995860664744 -80.34977076089 0.9995860664744 -80.34977076089 0.0263881259177 -168.8858661593
8.615440000000001 0.0264097362541 -172.0946139032 0.9995855154572 -80.35083112506 0.9995855154572 -80.35083112506 0.0264058191810 -168.8881797486
8.615445000000001 0.0264274553683 -172.0945976579 0.9995849633422 -80.35189283081 0.9995849633422 -80.35189283081 0.0264235358417 -168.8904947769
8.615450000000001 0.0264451979778 -172.0945828903 0.9995844101272 -80.35295588357 0.9995844101272 -80.35295588357 0.0264412759945 -168.8928112483
8.615455000000001 0.0264629640800 -172.0945696069 0.9995838558093 -80.35402028318 0.9995838558093 -80.35402028318 0.0264590396366 -168.8951291627
8.615460000000001 0.0264807537391 -172.0945578183 0.9995833003814 -80.35508603333 0.9995833003814 -80.35508603333 0.0264768268322 -168.8974485331
8.615465000000000 0.0264985669673 -172.0945475105 0.9995827438494 -80.35615313473 0.9995827438494 -80.35615313473 0.0264946375940 -168.8997693412
8.615470000000000 0.0265164038922 -172.0945386975 0.9995821862028 -80.35722159468 0.9995821862028 -80.35722159468 0.0265124720491 -168.9020916111
8.615475000000000 0.0265342644984 -172.0945313819 0.9995816274408 -80.35829141231 0.9995816274408 -80.35829141231 0.0265303301821 -168.9044153376
8.615480000000000 0.0265521488526 -172.0945255639 0.9995810675609 -80.35936259144 0.9995810675609 -80.35936259144 0.0265482120598 -168.9067405233
8.615485000000001 0.0265700569690 -172.0945212508 0.9995805065594 -80.36043513289 0.9995805065594 -80.36043513289 0.0265661176964 -168.9090671712
8.615490000000001 0.0265879889431 -172.0945184392 0.9995799444345 -80.36150904213 0.9995799444345 -80.36150904213 0.0265840471874 -168.9113952841
8.615495000000001 0.0266059448023 -172.0945171415 0.9995793811796 -80.36258432072 0.9995793811796 -80.36258432072 0.0266020005600 -168.9137248718
8.615500000000001 0.0266239246051 -172.0945173440 0.9995788167990 -80.36366097205 0.9995788167990 -80.36366097205 0.0266199778732 -168.9160559221
8.615505000000001 0.0266419283467 -172.0945190651 0.9995782512843 -80.36473899582 0.9995782512843 -80.36473899582 0.0266379791217 -168.9183884465
8.615510000000000 0.0266599561502 -172.0945223052 0.9995776846313 -80.36581839910 0.9995776846313 -80.36581839910 0.0266560044287 -168.9207224551
8.615515000000000 0.0266780080415 -172.0945270647 0.9995771168387 -80.36689918337 0.9995771168387 -80.36689918337 0.0266740538203 -168.9230579455
8.615520000000000 0.0266960840052 -172.0945333416 0.9995765479079 -80.36798134775 0.9995765479079 -80.36798134775 0.0266921272810 -168.9253949074
8.615525000000000 0.0267141842120 -172.0945411499 0.9995759778269 -80.36906490203 0.9995759778269 -80.36906490203 0.0267102249811 -168.9277333705
8.615530000000000 0.0267323085985 -172.0945504851 0.9995754065996 -80.37014984257 0.9995754065996 -80.37014984257 0.0267283468578 -168.9300733162
8.615535000000001 0.0267504572366 -172.0945613513 0.9995748342218 -80.37123617350 0.9995748342218 -80.37123617350 0.0267464929827 -168.9324147513
8.615540000000001 0.0267686302266 -172.0945737523 0.9995742606882 -80.37232390057 0.9995742606882 -80.37232390057 0.0267646634561 -168.9347576864
8.615545000000001 0.0267868275830 -172.0945876914 0.9995736859969 -80.37341302461 0.9995736859969 -80.37341302461 0.0267828582925 -168.9371021203
8.615550000000001 0.0268050493437 -172.0946031728 0.9995731101445 -80.37450354779 0.9995731101445 -80.37450354779 0.0268010775297 -168.9394480557
8.615555000000001 0.0268232955891 -172.0946201968 0.9995725331281 -80.37559547474 0.9995725331281 -80.37559547474 0.0268193212484 -168.9417954970
8.615560000000000 0.0268415663225 -172.0946387667 0.9995719549461 -80.37668880563 0.9995719549461 -80.37668880563 0.0268375894515 -168.9441444417
8.615565000000000 0.0268598616187 -172.0946588894 0.9995713755926 -80.37778354476 0.9995713755926 -80.37778354476 0.0268558822141 -168.9464948998
8.615570000000000 0.0268781815418 -172.0946805634 0.9995707950662 -80.37887969581 0.9995707950662 -80.37887969581 0.0268741996002 -168.9488468718
8.615575000000000 0.0268965261324 -172.0947037938 0.9995702133631 -80.37997726109 0.9995702133631 -80.37997726109 0.0268925416503 -168.9512003615
8.615580000000001 0.0269148954343 -172.0947285835 0.9995696304804 -80.38107624314 0.9995696304804 -80.38107624314 0.0269109084083 -168.9535553712
8.615585000000001 0.0269332895080 -172.0947549347 0.9995690464150 -80.38217664541 0.9995690464150 -80.38217664541 0.0269292999346 -168.9559119042
8.615590000000001 0.0269517083819 -172.0947828530 0.9995684611632 -80.38327846953 0.9995684611632 -80.38327846953 0.0269477162577 -168.9582699635
8.615595000000001 0.0269701521290 -172.0948123366 0.9995678747234 -80.38438171970 0.9995678747234 -80.38438171970 0.0269661574507 -168.9606295503
8.615600000000001 0.0269886207893 -172.0948433962 0.9995672870892 -80.38548639820 0.9995672870892 -80.38548639820 0.0269846235532 -168.9629906737
8.615605000000000 0.0270071143931 -172.0948760306 0.9995666982600 -80.38659250678 0.9995666982600 -80.38659250678 0.0270031145958 -168.9653533303
8.615610000000000 0.0270256330449 -172.0949102427 0.9995661082310 -80.38770005143 0.9995661082310 -80.38770005143 0.0270216306829 -168.9677175295
8.615615000000000 0.0270441767286 -172.0949460349 0.9995655170014 -80.38880903122 0.9995655170014 -80.38880903122 0.0270401717985 -168.9700832654
8.615620000000000 0.0270627455255 -172.0949834111 0.9995649245667 -80.38991945082 0.9995649245667 -80.38991945082 0.0270587380237 -168.9724505457
8.615625000000001 0.0270813395131 -172.0950223787 0.9995643309206 -80.39103131468 0.9995643309206 -80.39103131468 0.0270773294362 -168.9748193813
8.615630000000001 0.0270999587347 -172.0950629304 0.9995637360653 -80.39214462527 0.9995637360653 -80.39214462527 0.0270959460792 -168.9771897636
8.615635000000001 0.0271186031900 -172.0951050808 0.9995631399936 -80.39325938259 0.9995631399936 -80.39325938259 0.0271145879524 -168.9795617011
8.615640000000001 0.0271372729947 -172.0951488298 0.9995625427017 -80.39437559325 0.9995625427017 -80.39437559325 0.0271332551712 -168.9819352014
8.615645000000001 0.0271559681500 -172.0951941800 0.9995619441882 -80.39549325736 0.9995619441882 -80.39549325736 0.0271519477373 -168.9843102609
8.615650000000000 0.0271746887670 -172.0952411276 0.9995613444512 -80.39661238125 0.9995613444512 -80.39661238125 0.0271706657617 -168.9866868834
8.615655000000000 0.0271934348162 -172.0952896864 0.9995607434851 -80.39773296326 0.9995607434851 -80.39773296326 0.0271894092146 -168.9890650722
8.615660000000000 0.0272122064281 -172.0953398542 0.9995601412863 -80.39885501085 0.9995601412863 -80.39885501085 0.0272081782266 -168.9914448353
8.615665000000000 0.0272310036055 -172.0953916376 0.9995595378517 -80.39997852420 0.9995595378517 -80.39997852420 0.0272269728006 -168.9938261729
8.615670000000000 0.0272498264181 -172.0954450340 0.9995589331800 -80.40110350731 0.9995589331800 -80.40110350731 0.0272457930063 -168.9962090846
8.615675000000001 0.0272686748980 -172.0955000539 0.9995583272651 -80.40222996200 0.9995583272651 -80.40222996200 0.0272646388756 -168.9985935784
8.615680000000001 0.0272875491447 -172.0955566954 0.9995577201046 -80.40335789399 0.9995577201046 -80.40335789399 0.0272835105082 -169.0009796581
8.615685000000001 0.0273064491591 -172.0956149634 0.9995571116958 -80.40448730335 0.9995571116958 -80.40448730335 0.0273024079050 -169.0033673225
8.615690000000001 0.0273253750355 -172.0956748621 0.9995565020338 -80.40561819545 0.9995565020338 -80.40561819545 0.0273213311600 -169.0057565805
8.615695000000001 0.0273443268101 -172.0957363949 0.9995558911154 -80.40675057240 0.9995558911154 -80.40675057240 0.0273402803097 -169.0081474338
8.615700000000000 0.0273633045308 -172.0957995619 0.9995552789390 -80.40788443693 0.9995552789390 -80.40788443693 0.0273592554020 -169.0105398816
8.615705000000000 0.0273823082398 -172.0958643695 0.9995546654999 -80.40901979147 0.9995546654999 -80.40901979147 0.0273782564788 -169.0129339291
8.615710000000000 0.0274013380006 -172.0959308199 0.9995540507951 -80.41015663965 0.9995540507951 -80.41015663965 0.0273972836039 -169.0153295796
8.615715000000000 0.0274203939142 -172.0959989153 0.9995534348198 -80.41129498728 0.9995534348198 -80.41129498728 0.0274163368782 -169.0177268413
8.615720000000001 0.0274394759404 -172.0960686600 0.9995528175734 -80.41243483205 0.9995528175734 -80.41243483205 0.0274354162615 -169.0201257067
8.615725000000001 0.0274585842245 -172.0961400622 0.9995521990469 -80.41357618228 0.9995521990469 -80.41357618228 0.0274545218988 -169.0225261955
8.615730000000001 0.0274777187463 -172.0962131191 0.9995515792423 -80.41471903683 0.9995515792423 -80.41471903683 0.0274736537703 -169.0249282956
8.615735000000001 0.0274968796019 -172.0962878323 0.9995509581554 -80.41586340120 0.9995509581554 -80.41586340120 0.0274928119720 -169.0273320139
8.615740000000001 0.0275160668426 -172.0963642153 0.9995503357781 -80.41700927834 0.9995503357781 -80.41700927834 0.0275119965550 -169.0297373635
8.615745000000000 0.0275352805357 -172.0964422586 0.9995497121124 -80.41815667211 0.9995497121124 -80.41815667211 0.0275312075869 -169.0321443363
8.615750000000000 0.0275545206936 -172.0965219779 0.9995490871504 -80.41930558322 0.9995490871504 -80.41930558322 0.0275504450798 -169.0345529429
8.615755000000000 0.0275737874031 -172.0966033650 0.9995484608930 -80.42045601665 0.9995484608930 -80.42045601665 0.0275697091207 -169.0369631791
8.615760000000000 0.0275930807049 -172.0966864316 0.9995478333330 -80.42160797472 0.9995478333330 -80.42160797472 0.0275889997501 -169.0393750550
8.615765000000000 0.0276124006866 -172.0967711781 0.9995472044673 -80.42276146248 0.9995472044673 -80.42276146248 0.0276083170557 -169.0417885746
8.615770000000001 0.0276317473791 -172.0968576113 0.9995465742914 -80.42391648169 0.9995465742914 -80.42391648169 0.0276276610684 -169.0442037420
8.615775000000001 0.0276511207921 -172.0969457273 0.9995459428068 -80.42507303291 0.9995459428068 -80.42507303291 0.0276470317979 -169.0466205476
8.615780000000001 0.0276705210398 -172.0970355350 0.9995453100052 -80.42623112268 0.9995453100052 -80.42623112268 0.0276664293584 -169.0490390076
8.615785000000001 0.0276899481875 -172.0971270374 0.9995446758830 -80.42739075476 0.9995446758830 -80.42739075476 0.0276858538151 -169.0514591260
8.615790000000001 0.0277094022365 -172.0972202383 0.9995440404380 -80.42855192922 0.9995440404380 -80.42855192922 0.0277053051694 -169.0538809000
8.615795000000000 0.0277288832952 -172.0973151373 0.9995434036669 -80.42971465228 0.9995434036669 -80.42971465228 0.0277247835297 -169.0563043357
8.615800000000000 0.0277483913981 -172.0974117436 0.9995427655637 -80.43087892591 0.9995427655637 -80.43087892591 0.0277442889304 -169.0587294396
8.615805000000000 0.0277679265769 -172.0975100579 0.9995421261270 -80.43204475193 0.9995421261270 -80.43204475193 0.0277638214032 -169.0611562094
8.615810000000000 0.0277874889465 -172.0976100852 0.9995414853506 -80.43321213695 0.9995414853506 -80.43321213695 0.0277833810630 -169.0635846570
8.615815000000001 0.0278070785149 -172.0977118267 0.9995408432332 -80.43438108140 0.9995408432332 -80.43438108140 0.0278029679178 -169.0660147781
8.615820000000001 0.0278266953436 -172.0978152859 0.9995401997712 -80.43555158883 0.9995401997712 -80.43555158883 0.0278225820292 -169.0684465765
8.615825000000001 0.0278463395159 -172.0979204689 0.9995395549585 -80.43672366401 0.9995395549585 -80.43672366401 0.0278422234803 -169.0708800615
8.615830000000001 0.0278660110593 -172.0980273759 0.9995389087941 -80.43789730852 0.9995389087941 -80.43789730852 0.0278618922989 -169.0733152298
8.615835000000001 0.0278857100444 -172.0981360115 0.9995382612732 -80.43907252641 0.9995382612732 -80.43907252641 0.0278815885553 -169.0757520876
8.615840000000000 0.0279054365470 -172.0982463784 0.9995376123919 -80.44024932202 0.9995376123919 -80.44024932202 0.0279013123253 -169.0781906397
8.615845000000000 0.0279251905736 -172.0983584886 0.9995369621438 -80.44142769574 0.9995369621438 -80.44142769574 0.0279210636154 -169.0806308922
8.615850000000000 0.0279449722289 -172.0984723341 0.9995363105294 -80.44260765356 0.9995363105294 -80.44260765356 0.0279408425306 -169.0830728425
8.615855000000000 0.0279647815815 -172.0985879287 0.9995356575395 -80.44378919942 0.9995356575395 -80.44378919942 0.0279606491390 -169.0855165058
8.615860000000001 0.0279846185991 -172.0987052664 0.9995350031778 -80.44497233146 0.9995350031778 -80.44497233146 0.0279804834086 -169.0879618653
8.615865000000001 0.0280044834430 -172.0988243549 0.9995343474352 -80.44615705896 0.9995343474352 -80.44615705896 0.0280003455008 -169.0904089410
8.615870000000001 0.0280243761610 -172.0989451969 0.9995336903086 -80.44734338464 0.9995336903086 -80.44734338464 0.0280202354632 -169.0928577341
8.615875000000001 0.0280442967520 -172.0990678003 0.9995330317939 -80.44853130843 0.9995330317939 -80.44853130843 0.0280401532946 -169.0953082459
8.615880000000001 0.0280642453077 -172.0991921634 0.9995323718888 -80.44972083561 0.9995323718888 -80.44972083561 0.0280600990868 -169.0977604782
8.615885000000000 0.0280842218857 -172.0993182930 0.9995317105878 -80.45091196947 0.9995317105878 -80.45091196947 0.0280800728975 -169.1002144378
8.615890000000000 0.0281042265655 -172.0994461920 0.9995310478870 -80.45210471458 0.9995310478870 -80.45210471458 0.0281000748061 -169.1026701300
8.615895000000000 0.0281242593625 -172.0995758637 0.9995303837837 -80.45329907182 0.9995303837837 -80.45329907182 0.0281201048280 -169.1051275529
8.615900000000000 0.0281443203651 -172.0997073142 0.9995297182720 -80.45449504625 0.9995297182720 -80.45449504625 0.0281401630514 -169.1075867162
8.615905000000000 0.0281644096239 -172.0998405418 0.9995290513508 -80.45569264079 0.9995290513508 -80.45569264079 0.0281602495272 -169.1100476168
8.615910000000001 0.0281845272313 -172.0999755574 0.9995283830117 -80.45689186073 0.9995283830117 -80.45689186073 0.0281803643476 -169.1125102697
8.615915000000001 0.0282046731843 -172.1001123567 0.9995277132565 -80.45809270591 0.9995277132565 -80.45809270591 0.0282005075098 -169.1149746632
8.615920000000001 0.0282248475931 -172.1002509506 0.9995270420761 -80.45929518264 0.9995270420761 -80.45929518264 0.0282206791237 -169.1174408141
8.615925000000001 0.0282450504933 -172.1003913379 0.9995263694698 -80.46049929297 0.9995263694698 -80.46049929297 0.0282408792253 -169.1199087182
8.615930000000001 0.0282652819468 -172.1005335232 0.9995256954329 -80.46170504044 0.9995256954329 -80.46170504044 0.0282611078760 -169.1223783804
8.615935000000000 0.0282855420144 -172.1006775149 0.9995250199592 -80.46291242854 0.9995250199592 -80.46291242854 0.0282813651368 -169.1248498090
8.615940000000000 0.0283058308255 -172.1008233116 0.9995243430450 -80.46412146471 0.9995243430450 -80.46412146471 0.0283016511372 -169.1273230106
8.615945000000000 0.0283261483100 -172.1009709181 0.9995236646898 -80.46533214491 0.9995236646898 -80.46533214491 0.0283219658070 -169.1297979749
8.615950000000000 0.0283464946294 -172.1011203414 0.9995229848848 -80.46654447841 0.9995229848848 -80.46654447841 0.0283423093077 -169.1322747204
8.615955000000001 0.0283668697773 -172.1012715787 0.9995223036313 -80.46775846486 0.9995223036313 -80.46775846486 0.0283626816330 -169.1347532368
8.615960000000001 0.0283872738679 -172.1014246407 0.9995216209200 -80.46897411078 0.9995216209201 -80.46897411078 0.0283830828968 -169.1372335405
8.615965000000001 0.0284077069769 -172.1015795308 0.9995209367468 -80.47019142053 0.9995209367468 -80.47019142053 0.0284035131750 -169.1397156367
8.615970000000001 0.0284281690866 -172.1017362480 0.9995202511121 -80.47141039309 0.9995202511121 -80.47141039309 0.0284239724498 -169.1421995151
8.615975000000001 0.0284486603420 -172.1018947970 0.9995195640089 -80.47263103679 0.9995195640089 -80.47263103679 0.0284444608664 -169.1446851903
8.615980000000000 0.0284691807687 -172.1020551831 0.9995188754335 -80.47385335309 0.9995188754335 -80.47385335309 0.0284649784503 -169.1471726630
8.615985000000000 0.0284897304131 -172.1022174169 0.9995181853788 -80.47507734465 0.9995181853788 -80.47507734465 0.0284855252476 -169.1496619423
8.615990000000000 0.0285103093681 -172.1023814880 0.9995174938466 -80.47630301680 0.9995174938466 -80.47630301680 0.0285061013516 -169.1521530212
8.615995000000000 0.0285309177084 -172.1025474123 0.9995168008265 -80.47753037382 0.9995168008265 -80.47753037382 0.0285267068368 -169.1546459167
8.616000000000000 0.0285515554554 -172.1027151895 0.9995161063175 -80.47875941695 0.9995161063175 -80.47875941695 0.0285473417245 -169.1571406242
8.616005000000001 0.0285722226491 -172.1028848216 0.9995154103171 -80.47999014848 0.9995154103171 -80.47999014848 0.0285680060549 -169.1596371428