! Sonnet Data File
! From: emgraph Version : 16.52
! From Project: 171113transmon_trace_brgOdd
! Data is De-embedded 
! Data File Written: 11/14/2017 13:05:38
!< HDATE 11/14/2017 11:57:26
!< MDATE 11/14/2017 11:57:26
!< PARAMS
!< Lj = 15.24
!< Gap = 16.0
!< Width = 10.0
!< Airgap = 6.0
!< Pwidth = 2000.0
!< Dist = 2000.0
!< END PARAMS
# GHZ S MA R 51.90000
8.71400000 0.066248 -173.9 0.997525 -83.52 0.997525 -83.52 0.066248 -173.6
!< P1 F=8.714 Eeff=(6.44682036 -2.9786e-5) Z0=(51.7992801 1.19072e-4) R=0.0 C=0.0 
!< P2 F=8.714 Eeff=(6.44682036 -2.9786e-5) Z0=(51.7992801 1.19072e-4) R=0.0 C=0.0 
8.71400200 0.066279 -173.9 0.997523 -83.53 0.997523 -83.53 0.066279 -173.6
8.71400400 0.066310 -173.9 0.997521 -83.53 0.997521 -83.53 0.066310 -173.6
8.71400600 0.066341 -173.9 0.997518 -83.53 0.997518 -83.53 0.066341 -173.6
8.71400800 0.066372 -173.9 0.997516 -83.53 0.997516 -83.53 0.066372 -173.6
8.71401000 0.066403 -173.9 0.997514 -83.53 0.997514 -83.53 0.066404 -173.6
8.71401200 0.066435 -173.9 0.997511 -83.54 0.997511 -83.54 0.066435 -173.6
8.71401400 0.066466 -173.9 0.997509 -83.54 0.997509 -83.54 0.066466 -173.7
8.71401600 0.066497 -173.9 0.997507 -83.54 0.997507 -83.54 0.066497 -173.7
8.71401800 0.066528 -173.9 0.997504 -83.54 0.997504 -83.54 0.066528 -173.7
8.71402000 0.066559 -173.9 0.997502 -83.54 0.997502 -83.54 0.066560 -173.7
8.71402200 0.066591 -173.9 0.997500 -83.54 0.997500 -83.54 0.066591 -173.7
8.71402400 0.066622 -173.9 0.997497 -83.55 0.997497 -83.55 0.066622 -173.7
8.71402600 0.066653 -173.9 0.997495 -83.55 0.997495 -83.55 0.066654 -173.7
8.71402800 0.066685 -173.9 0.997492 -83.55 0.997492 -83.55 0.066685 -173.7
8.71403000 0.066716 -173.9 0.997490 -83.55 0.997490 -83.55 0.066716 -173.7
8.71403200 0.066748 -173.9 0.997488 -83.55 0.997488 -83.55 0.066748 -173.7
8.71403400 0.066779 -173.9 0.997485 -83.56 0.997485 -83.56 0.066779 -173.7
8.71403600 0.066811 -173.9 0.997483 -83.56 0.997483 -83.56 0.066811 -173.7
8.71403800 0.066842 -173.9 0.997481 -83.56 0.997481 -83.56 0.066842 -173.7
8.71404000 0.066874 -173.9 0.997478 -83.56 0.997478 -83.56 0.066874 -173.7
8.71404200 0.066906 -173.9 0.997476 -83.56 0.997476 -83.56 0.066906 -173.7
8.71404400 0.066937 -173.9 0.997473 -83.56 0.997473 -83.56 0.066937 -173.7
8.71404600 0.066969 -173.9 0.997471 -83.57 0.997471 -83.57 0.066969 -173.7
8.71404800 0.067001 -173.9 0.997468 -83.57 0.997468 -83.57 0.067001 -173.7
8.71405000 0.067032 -173.9 0.997466 -83.57 0.997466 -83.57 0.067032 -173.7
8.71405200 0.067064 -173.9 0.997464 -83.57 0.997464 -83.57 0.067064 -173.7
8.71405400 0.067096 -173.9 0.997461 -83.57 0.997461 -83.57 0.067096 -173.7
8.71405600 0.067128 -173.9 0.997459 -83.58 0.997459 -83.58 0.067128 -173.7
8.71405800 0.067160 -173.9 0.997456 -83.58 0.997456 -83.58 0.067160 -173.7
8.71406000 0.067192 -173.9 0.997454 -83.58 0.997454 -83.58 0.067192 -173.7
8.71406200 0.067223 -174.0 0.997451 -83.58 0.997451 -83.58 0.067224 -173.7
8.71406400 0.067255 -174.0 0.997449 -83.58 0.997449 -83.58 0.067256 -173.7
8.71406600 0.067287 -174.0 0.997447 -83.58 0.997447 -83.58 0.067288 -173.7
8.71406800 0.067319 -174.0 0.997444 -83.59 0.997444 -83.59 0.067320 -173.7
8.71407000 0.067352 -174.0 0.997442 -83.59 0.997442 -83.59 0.067352 -173.7
8.71407200 0.067384 -174.0 0.997439 -83.59 0.997439 -83.59 0.067384 -173.7
8.71407400 0.067416 -174.0 0.997437 -83.59 0.997437 -83.59 0.067416 -173.7
8.71407600 0.067448 -174.0 0.997434 -83.59 0.997434 -83.59 0.067448 -173.7
8.71407800 0.067480 -174.0 0.997432 -83.60 0.997432 -83.60 0.067480 -173.7
8.71408000 0.067512 -174.0 0.997429 -83.60 0.997429 -83.60 0.067512 -173.7
8.71408200 0.067545 -174.0 0.997427 -83.60 0.997427 -83.60 0.067545 -173.7
8.71408400 0.067577 -174.0 0.997424 -83.60 0.997424 -83.60 0.067577 -173.7
8.71408600 0.067609 -174.0 0.997422 -83.60 0.997422 -83.60 0.067609 -173.7
8.71408800 0.067642 -174.0 0.997419 -83.61 0.997419 -83.61 0.067642 -173.7
8.71409000 0.067674 -174.0 0.997417 -83.61 0.997417 -83.61 0.067674 -173.7
8.71409200 0.067706 -174.0 0.997414 -83.61 0.997414 -83.61 0.067707 -173.7
8.71409400 0.067739 -174.0 0.997412 -83.61 0.997412 -83.61 0.067739 -173.7
8.71409600 0.067771 -174.0 0.997409 -83.61 0.997409 -83.61 0.067771 -173.7
8.71409800 0.067804 -174.0 0.997407 -83.61 0.997407 -83.61 0.067804 -173.7
8.71410000 0.067837 -174.0 0.997404 -83.62 0.997404 -83.62 0.067837 -173.7
8.71410200 0.067869 -174.0 0.997402 -83.62 0.997402 -83.62 0.067869 -173.7
8.71410400 0.067902 -174.0 0.997399 -83.62 0.997399 -83.62 0.067902 -173.7
8.71410600 0.067934 -174.0 0.997397 -83.62 0.997397 -83.62 0.067934 -173.7
8.71410800 0.067967 -174.0 0.997394 -83.62 0.997394 -83.62 0.067967 -173.7
8.71411000 0.068000 -174.0 0.997392 -83.63 0.997392 -83.63 0.068000 -173.7
8.71411200 0.068033 -174.0 0.997389 -83.63 0.997389 -83.63 0.068033 -173.7
8.71411400 0.068065 -174.0 0.997387 -83.63 0.997387 -83.63 0.068065 -173.7
8.71411600 0.068098 -174.0 0.997384 -83.63 0.997384 -83.63 0.068098 -173.8
8.71411800 0.068131 -174.0 0.997382 -83.63 0.997382 -83.63 0.068131 -173.8
8.71412000 0.068164 -174.0 0.997379 -83.64 0.997379 -83.64 0.068164 -173.8
8.71412200 0.068197 -174.0 0.997377 -83.64 0.997377 -83.64 0.068197 -173.8
8.71412400 0.068230 -174.0 0.997374 -83.64 0.997374 -83.64 0.068230 -173.8
8.71412600 0.068263 -174.0 0.997371 -83.64 0.997371 -83.64 0.068263 -173.8
8.71412800 0.068296 -174.0 0.997369 -83.64 0.997369 -83.64 0.068296 -173.8
8.71413000 0.068329 -174.0 0.997366 -83.65 0.997366 -83.65 0.068329 -173.8
8.71413200 0.068362 -174.0 0.997364 -83.65 0.997364 -83.65 0.068362 -173.8
8.71413400 0.068395 -174.0 0.997361 -83.65 0.997361 -83.65 0.068395 -173.8
8.71413600 0.068428 -174.0 0.997359 -83.65 0.997359 -83.65 0.068428 -173.8
8.71413800 0.068462 -174.0 0.997356 -83.65 0.997356 -83.65 0.068462 -173.8
8.71414000 0.068495 -174.0 0.997353 -83.65 0.997353 -83.65 0.068495 -173.8
8.71414200 0.068528 -174.0 0.997351 -83.66 0.997351 -83.66 0.068528 -173.8
8.71414400 0.068561 -174.0 0.997348 -83.66 0.997348 -83.66 0.068561 -173.8
8.71414600 0.068595 -174.0 0.997346 -83.66 0.997346 -83.66 0.068595 -173.8
8.71414800 0.068628 -174.0 0.997343 -83.66 0.997343 -83.66 0.068628 -173.8
8.71415000 0.068661 -174.0 0.997340 -83.66 0.997340 -83.66 0.068661 -173.8
8.71415200 0.068695 -174.0 0.997338 -83.67 0.997338 -83.67 0.068695 -173.8
8.71415400 0.068728 -174.0 0.997335 -83.67 0.997335 -83.67 0.068728 -173.8
8.71415600 0.068762 -174.0 0.997333 -83.67 0.997333 -83.67 0.068762 -173.8
8.71415800 0.068795 -174.0 0.997330 -83.67 0.997330 -83.67 0.068795 -173.8
8.71416000 0.068829 -174.1 0.997327 -83.67 0.997327 -83.67 0.068829 -173.8
8.71416200 0.068863 -174.1 0.997325 -83.68 0.997325 -83.68 0.068863 -173.8
8.71416400 0.068896 -174.1 0.997322 -83.68 0.997322 -83.68 0.068896 -173.8
8.71416600 0.068930 -174.1 0.997319 -83.68 0.997319 -83.68 0.068930 -173.8
8.71416800 0.068964 -174.1 0.997317 -83.68 0.997317 -83.68 0.068964 -173.8
8.71417000 0.068997 -174.1 0.997314 -83.68 0.997314 -83.68 0.068997 -173.8
8.71417200 0.069031 -174.1 0.997312 -83.69 0.997312 -83.69 0.069031 -173.8
8.71417400 0.069065 -174.1 0.997309 -83.69 0.997309 -83.69 0.069065 -173.8
8.71417600 0.069099 -174.1 0.997306 -83.69 0.997306 -83.69 0.069099 -173.8
8.71417800 0.069133 -174.1 0.997304 -83.69 0.997304 -83.69 0.069133 -173.8
8.71418000 0.069167 -174.1 0.997301 -83.69 0.997301 -83.69 0.069167 -173.8
8.71418200 0.069201 -174.1 0.997298 -83.70 0.997298 -83.70 0.069201 -173.8
8.71418400 0.069235 -174.1 0.997296 -83.70 0.997296 -83.70 0.069235 -173.8
8.71418600 0.069269 -174.1 0.997293 -83.70 0.997293 -83.70 0.069269 -173.8
8.71418800 0.069303 -174.1 0.997290 -83.70 0.997290 -83.70 0.069303 -173.8
8.71419000 0.069337 -174.1 0.997287 -83.70 0.997287 -83.70 0.069337 -173.8
8.71419200 0.069371 -174.1 0.997285 -83.71 0.997285 -83.71 0.069371 -173.8
8.71419400 0.069405 -174.1 0.997282 -83.71 0.997282 -83.71 0.069405 -173.8
8.71419600 0.069439 -174.1 0.997279 -83.71 0.997279 -83.71 0.069439 -173.8
8.71419800 0.069474 -174.1 0.997277 -83.71 0.997277 -83.71 0.069474 -173.8
8.71420000 0.069508 -174.1 0.997274 -83.71 0.997274 -83.71 0.069508 -173.8
8.71420200 0.069542 -174.1 0.997271 -83.72 0.997271 -83.72 0.069542 -173.8
8.71420400 0.069577 -174.1 0.997269 -83.72 0.997269 -83.72 0.069577 -173.8
8.71420600 0.069611 -174.1 0.997266 -83.72 0.997266 -83.72 0.069611 -173.8
8.71420800 0.069645 -174.1 0.997263 -83.72 0.997263 -83.72 0.069645 -173.8
8.71421000 0.069680 -174.1 0.997260 -83.72 0.997260 -83.72 0.069680 -173.8
8.71421200 0.069714 -174.1 0.997258 -83.73 0.997258 -83.73 0.069714 -173.9
8.71421400 0.069749 -174.1 0.997255 -83.73 0.997255 -83.73 0.069749 -173.9
8.71421600 0.069783 -174.1 0.997252 -83.73 0.997252 -83.73 0.069784 -173.9
8.71421800 0.069818 -174.1 0.997249 -83.73 0.997249 -83.73 0.069818 -173.9
8.71422000 0.069853 -174.1 0.997247 -83.73 0.997247 -83.73 0.069853 -173.9
8.71422200 0.069887 -174.1 0.997244 -83.74 0.997244 -83.74 0.069887 -173.9
8.71422400 0.069922 -174.1 0.997241 -83.74 0.997241 -83.74 0.069922 -173.9
8.71422600 0.069957 -174.1 0.997238 -83.74 0.997238 -83.74 0.069957 -173.9
8.71422800 0.069992 -174.1 0.997236 -83.74 0.997236 -83.74 0.069992 -173.9
8.71423000 0.070027 -174.1 0.997233 -83.74 0.997233 -83.74 0.070027 -173.9
8.71423200 0.070061 -174.1 0.997230 -83.75 0.997230 -83.75 0.070061 -173.9
8.71423400 0.070096 -174.1 0.997227 -83.75 0.997227 -83.75 0.070096 -173.9
8.71423600 0.070131 -174.1 0.997225 -83.75 0.997225 -83.75 0.070131 -173.9
8.71423800 0.070166 -174.1 0.997222 -83.75 0.997222 -83.75 0.070166 -173.9
8.71424000 0.070201 -174.1 0.997219 -83.75 0.997219 -83.75 0.070201 -173.9
8.71424200 0.070236 -174.1 0.997216 -83.76 0.997216 -83.76 0.070236 -173.9
8.71424400 0.070271 -174.1 0.997213 -83.76 0.997213 -83.76 0.070271 -173.9
8.71424600 0.070306 -174.1 0.997211 -83.76 0.997211 -83.76 0.070307 -173.9
8.71424800 0.070342 -174.1 0.997208 -83.76 0.997208 -83.76 0.070342 -173.9
8.71425000 0.070377 -174.1 0.997205 -83.76 0.997205 -83.76 0.070377 -173.9
8.71425200 0.070412 -174.1 0.997202 -83.77 0.997202 -83.77 0.070412 -173.9
8.71425400 0.070447 -174.2 0.997199 -83.77 0.997199 -83.77 0.070447 -173.9
8.71425600 0.070483 -174.2 0.997196 -83.77 0.997196 -83.77 0.070483 -173.9
8.71425800 0.070518 -174.2 0.997194 -83.77 0.997194 -83.77 0.070518 -173.9
8.71426000 0.070553 -174.2 0.997191 -83.77 0.997191 -83.77 0.070553 -173.9
8.71426200 0.070589 -174.2 0.997188 -83.78 0.997188 -83.78 0.070589 -173.9
8.71426400 0.070624 -174.2 0.997185 -83.78 0.997185 -83.78 0.070624 -173.9
8.71426600 0.070660 -174.2 0.997182 -83.78 0.997182 -83.78 0.070660 -173.9
8.71426800 0.070695 -174.2 0.997179 -83.78 0.997179 -83.78 0.070695 -173.9
8.71427000 0.070731 -174.2 0.997177 -83.78 0.997177 -83.78 0.070731 -173.9
8.71427200 0.070766 -174.2 0.997174 -83.79 0.997174 -83.79 0.070767 -173.9
8.71427400 0.070802 -174.2 0.997171 -83.79 0.997171 -83.79 0.070802 -173.9
8.71427600 0.070838 -174.2 0.997168 -83.79 0.997168 -83.79 0.070838 -173.9
8.71427800 0.070874 -174.2 0.997165 -83.79 0.997165 -83.79 0.070874 -173.9
8.71428000 0.070909 -174.2 0.997162 -83.79 0.997162 -83.79 0.070909 -173.9
8.71428200 0.070945 -174.2 0.997159 -83.80 0.997159 -83.80 0.070945 -173.9
8.71428400 0.070981 -174.2 0.997156 -83.80 0.997156 -83.80 0.070981 -173.9
8.71428600 0.071017 -174.2 0.997153 -83.80 0.997153 -83.80 0.071017 -173.9
8.71428800 0.071053 -174.2 0.997151 -83.80 0.997151 -83.80 0.071053 -173.9
8.71429000 0.071089 -174.2 0.997148 -83.81 0.997148 -83.81 0.071089 -173.9
8.71429200 0.071125 -174.2 0.997145 -83.81 0.997145 -83.81 0.071125 -173.9
8.71429400 0.071161 -174.2 0.997142 -83.81 0.997142 -83.81 0.071161 -173.9
8.71429600 0.071197 -174.2 0.997139 -83.81 0.997139 -83.81 0.071197 -173.9
8.71429800 0.071233 -174.2 0.997136 -83.81 0.997136 -83.81 0.071233 -173.9
8.71430000 0.071269 -174.2 0.997133 -83.82 0.997133 -83.82 0.071269 -173.9
8.71430200 0.071305 -174.2 0.997130 -83.82 0.997130 -83.82 0.071305 -174.0
8.71430400 0.071341 -174.2 0.997127 -83.82 0.997127 -83.82 0.071342 -174.0
8.71430600 0.071378 -174.2 0.997124 -83.82 0.997124 -83.82 0.071378 -174.0
8.71430800 0.071414 -174.2 0.997121 -83.82 0.997121 -83.82 0.071414 -174.0
8.71431000 0.071450 -174.2 0.997118 -83.83 0.997118 -83.83 0.071450 -174.0
8.71431200 0.071487 -174.2 0.997115 -83.83 0.997115 -83.83 0.071487 -174.0
8.71431400 0.071523 -174.2 0.997112 -83.83 0.997112 -83.83 0.071523 -174.0
8.71431600 0.071560 -174.2 0.997109 -83.83 0.997109 -83.83 0.071560 -174.0
8.71431800 0.071596 -174.2 0.997107 -83.83 0.997107 -83.83 0.071596 -174.0
8.71432000 0.071633 -174.2 0.997104 -83.84 0.997104 -83.84 0.071633 -174.0
8.71432200 0.071669 -174.2 0.997101 -83.84 0.997101 -83.84 0.071669 -174.0
8.71432400 0.071706 -174.2 0.997098 -83.84 0.997098 -83.84 0.071706 -174.0
8.71432600 0.071743 -174.2 0.997095 -83.84 0.997095 -83.84 0.071743 -174.0
8.71432800 0.071779 -174.2 0.997092 -83.85 0.997092 -83.85 0.071779 -174.0
8.71433000 0.071816 -174.2 0.997089 -83.85 0.997089 -83.85 0.071816 -174.0
8.71433200 0.071853 -174.2 0.997086 -83.85 0.997086 -83.85 0.071853 -174.0
8.71433400 0.071890 -174.2 0.997083 -83.85 0.997083 -83.85 0.071890 -174.0
8.71433600 0.071926 -174.2 0.997080 -83.85 0.997080 -83.85 0.071927 -174.0
8.71433800 0.071963 -174.2 0.997077 -83.86 0.997077 -83.86 0.071963 -174.0
8.71434000 0.072000 -174.2 0.997074 -83.86 0.997074 -83.86 0.072000 -174.0
8.71434200 0.072037 -174.3 0.997070 -83.86 0.997070 -83.86 0.072037 -174.0
8.71434400 0.072074 -174.3 0.997067 -83.86 0.997067 -83.86 0.072074 -174.0
8.71434600 0.072111 -174.3 0.997064 -83.86 0.997064 -83.86 0.072111 -174.0
8.71434800 0.072148 -174.3 0.997061 -83.87 0.997061 -83.87 0.072149 -174.0
8.71435000 0.072186 -174.3 0.997058 -83.87 0.997058 -83.87 0.072186 -174.0
8.71435200 0.072223 -174.3 0.997055 -83.87 0.997055 -83.87 0.072223 -174.0
8.71435400 0.072260 -174.3 0.997052 -83.87 0.997052 -83.87 0.072260 -174.0
8.71435600 0.072297 -174.3 0.997049 -83.88 0.997049 -83.88 0.072297 -174.0
8.71435800 0.072335 -174.3 0.997046 -83.88 0.997046 -83.88 0.072335 -174.0
8.71436000 0.072372 -174.3 0.997043 -83.88 0.997043 -83.88 0.072372 -174.0
8.71436200 0.072409 -174.3 0.997040 -83.88 0.997040 -83.88 0.072409 -174.0
8.71436400 0.072447 -174.3 0.997037 -83.88 0.997037 -83.88 0.072447 -174.0
8.71436600 0.072484 -174.3 0.997034 -83.89 0.997034 -83.89 0.072484 -174.0
8.71436800 0.072522 -174.3 0.997031 -83.89 0.997031 -83.89 0.072522 -174.0
8.71437000 0.072559 -174.3 0.997028 -83.89 0.997028 -83.89 0.072559 -174.0
8.71437200 0.072597 -174.3 0.997024 -83.89 0.997024 -83.89 0.072597 -174.0
8.71437400 0.072634 -174.3 0.997021 -83.89 0.997021 -83.89 0.072635 -174.0
8.71437600 0.072672 -174.3 0.997018 -83.90 0.997018 -83.90 0.072672 -174.0
8.71437800 0.072710 -174.3 0.997015 -83.90 0.997015 -83.90 0.072710 -174.0
8.71438000 0.072748 -174.3 0.997012 -83.90 0.997012 -83.90 0.072748 -174.0
8.71438200 0.072785 -174.3 0.997009 -83.90 0.997009 -83.90 0.072785 -174.0
8.71438400 0.072823 -174.3 0.997006 -83.91 0.997006 -83.91 0.072823 -174.0
8.71438600 0.072861 -174.3 0.997003 -83.91 0.997003 -83.91 0.072861 -174.0
8.71438800 0.072899 -174.3 0.996999 -83.91 0.996999 -83.91 0.072899 -174.0
8.71439000 0.072937 -174.3 0.996996 -83.91 0.996996 -83.91 0.072937 -174.1
8.71439200 0.072975 -174.3 0.996993 -83.91 0.996993 -83.91 0.072975 -174.1
8.71439400 0.073013 -174.3 0.996990 -83.92 0.996990 -83.92 0.073013 -174.1
8.71439600 0.073051 -174.3 0.996987 -83.92 0.996987 -83.92 0.073051 -174.1
8.71439800 0.073089 -174.3 0.996984 -83.92 0.996984 -83.92 0.073089 -174.1
8.71440000 0.073127 -174.3 0.996980 -83.92 0.996980 -83.92 0.073127 -174.1
8.71440200 0.073166 -174.3 0.996977 -83.93 0.996977 -83.93 0.073166 -174.1
8.71440400 0.073204 -174.3 0.996974 -83.93 0.996974 -83.93 0.073204 -174.1
8.71440600 0.073242 -174.3 0.996971 -83.93 0.996971 -83.93 0.073242 -174.1
8.71440800 0.073281 -174.3 0.996968 -83.93 0.996968 -83.93 0.073281 -174.1
8.71441000 0.073319 -174.3 0.996965 -83.93 0.996965 -83.93 0.073319 -174.1
8.71441200 0.073357 -174.3 0.996961 -83.94 0.996961 -83.94 0.073357 -174.1
8.71441400 0.073396 -174.3 0.996958 -83.94 0.996958 -83.94 0.073396 -174.1
8.71441600 0.073434 -174.3 0.996955 -83.94 0.996955 -83.94 0.073434 -174.1
8.71441800 0.073473 -174.3 0.996952 -83.94 0.996952 -83.94 0.073473 -174.1
8.71442000 0.073511 -174.3 0.996948 -83.95 0.996948 -83.95 0.073512 -174.1
8.71442200 0.073550 -174.3 0.996945 -83.95 0.996945 -83.95 0.073550 -174.1
8.71442400 0.073589 -174.3 0.996942 -83.95 0.996942 -83.95 0.073589 -174.1
8.71442600 0.073627 -174.3 0.996939 -83.95 0.996939 -83.95 0.073628 -174.1
8.71442800 0.073666 -174.4 0.996936 -83.95 0.996936 -83.95 0.073666 -174.1
8.71443000 0.073705 -174.4 0.996932 -83.96 0.996932 -83.96 0.073705 -174.1
8.71443200 0.073744 -174.4 0.996929 -83.96 0.996929 -83.96 0.073744 -174.1
8.71443400 0.073783 -174.4 0.996926 -83.96 0.996926 -83.96 0.073783 -174.1
8.71443600 0.073822 -174.4 0.996922 -83.96 0.996922 -83.96 0.073822 -174.1
8.71443800 0.073861 -174.4 0.996919 -83.97 0.996919 -83.97 0.073861 -174.1
8.71444000 0.073900 -174.4 0.996916 -83.97 0.996916 -83.97 0.073900 -174.1
8.71444200 0.073939 -174.4 0.996913 -83.97 0.996913 -83.97 0.073939 -174.1
8.71444400 0.073978 -174.4 0.996909 -83.97 0.996909 -83.97 0.073978 -174.1
8.71444600 0.074017 -174.4 0.996906 -83.97 0.996906 -83.97 0.074017 -174.1
8.71444800 0.074056 -174.4 0.996903 -83.98 0.996903 -83.98 0.074056 -174.1
8.71445000 0.074096 -174.4 0.996899 -83.98 0.996899 -83.98 0.074096 -174.1
8.71445200 0.074135 -174.4 0.996896 -83.98 0.996896 -83.98 0.074135 -174.1
8.71445400 0.074174 -174.4 0.996893 -83.98 0.996893 -83.98 0.074174 -174.1
8.71445600 0.074214 -174.4 0.996889 -83.99 0.996889 -83.99 0.074214 -174.1
8.71445800 0.074253 -174.4 0.996886 -83.99 0.996886 -83.99 0.074253 -174.1
8.71446000 0.074292 -174.4 0.996883 -83.99 0.996883 -83.99 0.074292 -174.1
8.71446200 0.074332 -174.4 0.996879 -83.99 0.996879 -83.99 0.074332 -174.1
8.71446400 0.074371 -174.4 0.996876 -84.00 0.996876 -84.00 0.074372 -174.1
8.71446600 0.074411 -174.4 0.996873 -84.00 0.996873 -84.00 0.074411 -174.1
8.71446800 0.074451 -174.4 0.996869 -84.00 0.996869 -84.00 0.074451 -174.1
8.71447000 0.074490 -174.4 0.996866 -84.00 0.996866 -84.00 0.074490 -174.1
8.71447200 0.074530 -174.4 0.996863 -84.00 0.996863 -84.00 0.074530 -174.1
8.71447400 0.074570 -174.4 0.996859 -84.01 0.996859 -84.01 0.074570 -174.2
8.71447600 0.074610 -174.4 0.996856 -84.01 0.996856 -84.01 0.074610 -174.2
8.71447800 0.074650 -174.4 0.996853 -84.01 0.996853 -84.01 0.074650 -174.2
8.71448000 0.074690 -174.4 0.996849 -84.01 0.996849 -84.01 0.074690 -174.2
8.71448200 0.074729 -174.4 0.996846 -84.02 0.996846 -84.02 0.074730 -174.2
8.71448400 0.074769 -174.4 0.996842 -84.02 0.996842 -84.02 0.074770 -174.2
8.71448600 0.074810 -174.4 0.996839 -84.02 0.996839 -84.02 0.074810 -174.2
8.71448800 0.074850 -174.4 0.996836 -84.02 0.996836 -84.02 0.074850 -174.2
8.71449000 0.074890 -174.4 0.996832 -84.03 0.996832 -84.03 0.074890 -174.2
8.71449200 0.074930 -174.4 0.996829 -84.03 0.996829 -84.03 0.074930 -174.2
8.71449400 0.074970 -174.4 0.996825 -84.03 0.996825 -84.03 0.074970 -174.2
8.71449600 0.075010 -174.4 0.996822 -84.03 0.996822 -84.03 0.075011 -174.2
8.71449800 0.075051 -174.4 0.996818 -84.03 0.996818 -84.03 0.075051 -174.2
8.71450000 0.075091 -174.4 0.996815 -84.04 0.996815 -84.04 0.075091 -174.2
8.71450200 0.075132 -174.4 0.996811 -84.04 0.996811 -84.04 0.075132 -174.2
8.71450400 0.075172 -174.4 0.996808 -84.04 0.996808 -84.04 0.075172 -174.2
8.71450600 0.075212 -174.4 0.996805 -84.04 0.996805 -84.04 0.075213 -174.2
8.71450800 0.075253 -174.4 0.996801 -84.05 0.996801 -84.05 0.075253 -174.2
8.71451000 0.075294 -174.5 0.996798 -84.05 0.996798 -84.05 0.075294 -174.2
8.71451200 0.075334 -174.5 0.996794 -84.05 0.996794 -84.05 0.075334 -174.2
8.71451400 0.075375 -174.5 0.996791 -84.05 0.996791 -84.05 0.075375 -174.2
8.71451600 0.075416 -174.5 0.996787 -84.06 0.996787 -84.06 0.075416 -174.2
8.71451800 0.075456 -174.5 0.996784 -84.06 0.996784 -84.06 0.075457 -174.2
8.71452000 0.075497 -174.5 0.996780 -84.06 0.996780 -84.06 0.075497 -174.2
8.71452200 0.075538 -174.5 0.996777 -84.06 0.996777 -84.06 0.075538 -174.2
8.71452400 0.075579 -174.5 0.996773 -84.07 0.996773 -84.07 0.075579 -174.2
8.71452600 0.075620 -174.5 0.996770 -84.07 0.996770 -84.07 0.075620 -174.2
8.71452800 0.075661 -174.5 0.996766 -84.07 0.996766 -84.07 0.075661 -174.2
8.71453000 0.075702 -174.5 0.996763 -84.07 0.996763 -84.07 0.075702 -174.2
8.71453200 0.075743 -174.5 0.996759 -84.07 0.996759 -84.07 0.075743 -174.2
8.71453400 0.075784 -174.5 0.996755 -84.08 0.996755 -84.08 0.075784 -174.2
8.71453600 0.075826 -174.5 0.996752 -84.08 0.996752 -84.08 0.075826 -174.2
8.71453800 0.075867 -174.5 0.996748 -84.08 0.996748 -84.08 0.075867 -174.2
8.71454000 0.075908 -174.5 0.996745 -84.08 0.996745 -84.08 0.075908 -174.2
8.71454200 0.075949 -174.5 0.996741 -84.09 0.996741 -84.09 0.075950 -174.2
8.71454400 0.075991 -174.5 0.996738 -84.09 0.996738 -84.09 0.075991 -174.2
8.71454600 0.076032 -174.5 0.996734 -84.09 0.996734 -84.09 0.076032 -174.2
8.71454800 0.076074 -174.5 0.996730 -84.09 0.996730 -84.09 0.076074 -174.2
8.71455000 0.076115 -174.5 0.996727 -84.10 0.996727 -84.10 0.076115 -174.2
8.71455200 0.076157 -174.5 0.996723 -84.10 0.996723 -84.10 0.076157 -174.3
8.71455400 0.076199 -174.5 0.996720 -84.10 0.996720 -84.10 0.076199 -174.3
8.71455600 0.076240 -174.5 0.996716 -84.10 0.996716 -84.10 0.076240 -174.3
8.71455800 0.076282 -174.5 0.996712 -84.11 0.996712 -84.11 0.076282 -174.3
8.71456000 0.076324 -174.5 0.996709 -84.11 0.996709 -84.11 0.076324 -174.3
8.71456200 0.076366 -174.5 0.996705 -84.11 0.996705 -84.11 0.076366 -174.3
8.71456400 0.076407 -174.5 0.996701 -84.11 0.996701 -84.11 0.076408 -174.3
8.71456600 0.076449 -174.5 0.996698 -84.12 0.996698 -84.12 0.076449 -174.3
8.71456800 0.076491 -174.5 0.996694 -84.12 0.996694 -84.12 0.076491 -174.3
8.71457000 0.076533 -174.5 0.996691 -84.12 0.996691 -84.12 0.076533 -174.3
8.71457200 0.076575 -174.5 0.996687 -84.12 0.996687 -84.12 0.076575 -174.3
8.71457400 0.076618 -174.5 0.996683 -84.13 0.996683 -84.13 0.076618 -174.3
8.71457600 0.076660 -174.5 0.996680 -84.13 0.996680 -84.13 0.076660 -174.3
8.71457800 0.076702 -174.5 0.996676 -84.13 0.996676 -84.13 0.076702 -174.3
8.71458000 0.076744 -174.5 0.996672 -84.13 0.996672 -84.13 0.076744 -174.3
8.71458200 0.076786 -174.5 0.996668 -84.14 0.996668 -84.14 0.076787 -174.3
8.71458400 0.076829 -174.5 0.996665 -84.14 0.996665 -84.14 0.076829 -174.3
8.71458600 0.076871 -174.6 0.996661 -84.14 0.996661 -84.14 0.076871 -174.3
8.71458800 0.076914 -174.6 0.996657 -84.14 0.996657 -84.14 0.076914 -174.3
8.71459000 0.076956 -174.6 0.996654 -84.14 0.996654 -84.14 0.076956 -174.3
8.71459200 0.076999 -174.6 0.996650 -84.15 0.996650 -84.15 0.076999 -174.3
8.71459400 0.077041 -174.6 0.996646 -84.15 0.996646 -84.15 0.077041 -174.3
8.71459600 0.077084 -174.6 0.996642 -84.15 0.996642 -84.15 0.077084 -174.3
8.71459800 0.077127 -174.6 0.996639 -84.15 0.996639 -84.15 0.077127 -174.3
8.71460000 0.077169 -174.6 0.996635 -84.16 0.996635 -84.16 0.077170 -174.3
8.71460200 0.077212 -174.6 0.996631 -84.16 0.996631 -84.16 0.077212 -174.3
8.71460400 0.077255 -174.6 0.996627 -84.16 0.996627 -84.16 0.077255 -174.3
8.71460600 0.077298 -174.6 0.996624 -84.16 0.996624 -84.16 0.077298 -174.3
8.71460800 0.077341 -174.6 0.996620 -84.17 0.996620 -84.17 0.077341 -174.3
8.71461000 0.077384 -174.6 0.996616 -84.17 0.996616 -84.17 0.077384 -174.3
8.71461200 0.077427 -174.6 0.996612 -84.17 0.996612 -84.17 0.077427 -174.3
8.71461400 0.077470 -174.6 0.996608 -84.17 0.996608 -84.17 0.077470 -174.3
8.71461600 0.077513 -174.6 0.996605 -84.18 0.996605 -84.18 0.077513 -174.3
8.71461800 0.077556 -174.6 0.996601 -84.18 0.996601 -84.18 0.077557 -174.3
8.71462000 0.077600 -174.6 0.996597 -84.18 0.996597 -84.18 0.077600 -174.3
8.71462200 0.077643 -174.6 0.996593 -84.18 0.996593 -84.18 0.077643 -174.3
8.71462400 0.077686 -174.6 0.996589 -84.19 0.996589 -84.19 0.077687 -174.3
8.71462600 0.077730 -174.6 0.996585 -84.19 0.996585 -84.19 0.077730 -174.3
8.71462800 0.077773 -174.6 0.996582 -84.19 0.996582 -84.19 0.077773 -174.4
8.71463000 0.077817 -174.6 0.996578 -84.19 0.996578 -84.19 0.077817 -174.4
8.71463200 0.077860 -174.6 0.996574 -84.20 0.996574 -84.20 0.077860 -174.4
8.71463400 0.077904 -174.6 0.996570 -84.20 0.996570 -84.20 0.077904 -174.4
8.71463600 0.077948 -174.6 0.996566 -84.20 0.996566 -84.20 0.077948 -174.4
8.71463800 0.077991 -174.6 0.996562 -84.20 0.996562 -84.20 0.077991 -174.4
8.71464000 0.078035 -174.6 0.996558 -84.21 0.996558 -84.21 0.078035 -174.4
8.71464200 0.078079 -174.6 0.996555 -84.21 0.996555 -84.21 0.078079 -174.4
8.71464400 0.078123 -174.6 0.996551 -84.21 0.996551 -84.21 0.078123 -174.4
8.71464600 0.078167 -174.6 0.996547 -84.22 0.996547 -84.22 0.078167 -174.4
8.71464800 0.078211 -174.6 0.996543 -84.22 0.996543 -84.22 0.078211 -174.4
8.71465000 0.078255 -174.6 0.996539 -84.22 0.996539 -84.22 0.078255 -174.4
8.71465200 0.078299 -174.6 0.996535 -84.22 0.996535 -84.22 0.078299 -174.4
8.71465400 0.078343 -174.6 0.996531 -84.23 0.996531 -84.23 0.078343 -174.4
8.71465600 0.078387 -174.6 0.996527 -84.23 0.996527 -84.23 0.078387 -174.4
8.71465800 0.078431 -174.6 0.996523 -84.23 0.996523 -84.23 0.078431 -174.4
8.71466000 0.078476 -174.6 0.996519 -84.23 0.996519 -84.23 0.078476 -174.4
8.71466200 0.078520 -174.7 0.996515 -84.24 0.996515 -84.24 0.078520 -174.4
8.71466400 0.078564 -174.7 0.996511 -84.24 0.996511 -84.24 0.078565 -174.4
8.71466600 0.078609 -174.7 0.996507 -84.24 0.996507 -84.24 0.078609 -174.4
8.71466800 0.078653 -174.7 0.996503 -84.24 0.996503 -84.24 0.078653 -174.4
8.71467000 0.078698 -174.7 0.996499 -84.25 0.996499 -84.25 0.078698 -174.4
8.71467200 0.078743 -174.7 0.996495 -84.25 0.996495 -84.25 0.078743 -174.4
8.71467400 0.078787 -174.7 0.996491 -84.25 0.996491 -84.25 0.078787 -174.4
8.71467600 0.078832 -174.7 0.996487 -84.25 0.996487 -84.25 0.078832 -174.4
8.71467800 0.078877 -174.7 0.996483 -84.26 0.996483 -84.26 0.078877 -174.4
8.71468000 0.078922 -174.7 0.996479 -84.26 0.996479 -84.26 0.078922 -174.4
8.71468200 0.078966 -174.7 0.996475 -84.26 0.996475 -84.26 0.078966 -174.4
8.71468400 0.079011 -174.7 0.996471 -84.26 0.996471 -84.26 0.079011 -174.4
8.71468600 0.079056 -174.7 0.996467 -84.27 0.996467 -84.27 0.079056 -174.4
8.71468800 0.079101 -174.7 0.996463 -84.27 0.996463 -84.27 0.079101 -174.4
8.71469000 0.079146 -174.7 0.996459 -84.27 0.996459 -84.27 0.079147 -174.4
8.71469200 0.079192 -174.7 0.996455 -84.27 0.996455 -84.27 0.079192 -174.4
8.71469400 0.079237 -174.7 0.996451 -84.28 0.996451 -84.28 0.079237 -174.4
8.71469600 0.079282 -174.7 0.996447 -84.28 0.996447 -84.28 0.079282 -174.4
8.71469800 0.079327 -174.7 0.996443 -84.28 0.996443 -84.28 0.079327 -174.4
8.71470000 0.079373 -174.7 0.996439 -84.28 0.996439 -84.28 0.079373 -174.4
8.71470200 0.079418 -174.7 0.996434 -84.29 0.996434 -84.29 0.079418 -174.5
8.71470400 0.079464 -174.7 0.996430 -84.29 0.996430 -84.29 0.079464 -174.5
8.71470600 0.079509 -174.7 0.996426 -84.29 0.996426 -84.29 0.079509 -174.5
8.71470800 0.079555 -174.7 0.996422 -84.30 0.996422 -84.30 0.079555 -174.5
8.71471000 0.079600 -174.7 0.996418 -84.30 0.996418 -84.30 0.079600 -174.5
8.71471200 0.079646 -174.7 0.996414 -84.30 0.996414 -84.30 0.079646 -174.5
8.71471400 0.079692 -174.7 0.996410 -84.30 0.996410 -84.30 0.079692 -174.5
8.71471600 0.079738 -174.7 0.996406 -84.31 0.996406 -84.31 0.079738 -174.5
8.71471800 0.079783 -174.7 0.996401 -84.31 0.996401 -84.31 0.079783 -174.5
8.71472000 0.079829 -174.7 0.996397 -84.31 0.996397 -84.31 0.079829 -174.5
8.71472200 0.079875 -174.7 0.996393 -84.31 0.996393 -84.31 0.079875 -174.5
8.71472400 0.079921 -174.7 0.996389 -84.32 0.996389 -84.32 0.079921 -174.5
8.71472600 0.079967 -174.7 0.996385 -84.32 0.996385 -84.32 0.079967 -174.5
8.71472800 0.080014 -174.7 0.996380 -84.32 0.996380 -84.32 0.080014 -174.5
8.71473000 0.080060 -174.7 0.996376 -84.32 0.996376 -84.32 0.080060 -174.5
8.71473200 0.080106 -174.8 0.996372 -84.33 0.996372 -84.33 0.080106 -174.5
8.71473400 0.080152 -174.8 0.996368 -84.33 0.996368 -84.33 0.080152 -174.5
8.71473600 0.080199 -174.8 0.996364 -84.33 0.996364 -84.33 0.080199 -174.5
8.71473800 0.080245 -174.8 0.996359 -84.34 0.996359 -84.34 0.080245 -174.5
8.71474000 0.080292 -174.8 0.996355 -84.34 0.996355 -84.34 0.080292 -174.5
8.71474200 0.080338 -174.8 0.996351 -84.34 0.996351 -84.34 0.080338 -174.5
8.71474400 0.080385 -174.8 0.996347 -84.34 0.996347 -84.34 0.080385 -174.5
8.71474600 0.080431 -174.8 0.996342 -84.35 0.996342 -84.35 0.080431 -174.5
8.71474800 0.080478 -174.8 0.996338 -84.35 0.996338 -84.35 0.080478 -174.5
8.71475000 0.080525 -174.8 0.996334 -84.35 0.996334 -84.35 0.080525 -174.5
8.71475200 0.080572 -174.8 0.996329 -84.35 0.996329 -84.35 0.080572 -174.5
8.71475400 0.080618 -174.8 0.996325 -84.36 0.996325 -84.36 0.080618 -174.5
8.71475600 0.080665 -174.8 0.996321 -84.36 0.996321 -84.36 0.080665 -174.5
8.71475800 0.080712 -174.8 0.996316 -84.36 0.996316 -84.36 0.080712 -174.5
8.71476000 0.080759 -174.8 0.996312 -84.37 0.996312 -84.37 0.080759 -174.5
8.71476200 0.080806 -174.8 0.996308 -84.37 0.996308 -84.37 0.080807 -174.5
8.71476400 0.080854 -174.8 0.996303 -84.37 0.996303 -84.37 0.080854 -174.5
8.71476600 0.080901 -174.8 0.996299 -84.37 0.996299 -84.37 0.080901 -174.5
8.71476800 0.080948 -174.8 0.996295 -84.38 0.996295 -84.38 0.080948 -174.5
8.71477000 0.080995 -174.8 0.996290 -84.38 0.996290 -84.38 0.080995 -174.6
8.71477200 0.081043 -174.8 0.996286 -84.38 0.996286 -84.38 0.081043 -174.6
8.71477400 0.081090 -174.8 0.996282 -84.38 0.996282 -84.38 0.081090 -174.6
8.71477600 0.081138 -174.8 0.996277 -84.39 0.996277 -84.39 0.081138 -174.6
8.71477800 0.081185 -174.8 0.996273 -84.39 0.996273 -84.39 0.081185 -174.6
8.71478000 0.081233 -174.8 0.996268 -84.39 0.996268 -84.39 0.081233 -174.6
8.71478200 0.081281 -174.8 0.996264 -84.40 0.996264 -84.40 0.081281 -174.6
8.71478400 0.081328 -174.8 0.996260 -84.40 0.996260 -84.40 0.081328 -174.6