! Sonnet Data File
! From: emgraph Version : 16.52
! From Emgraph Data: 171113transmon_trace_brgOdd
! Data File Written: 11/13/2017 17:41:36
!< HDATE 11/13/2017 17:09:24
!< MDATE 11/13/2017 17:09:24
!< PARAMS
!< Lj = 15.24
!< Gap = 16.0
!< Width = 10.0
!< Pwidth = 2000.0
!< Dist = 400.0
!< END PARAMS
# GHZ S MA R 51.90000
8.71000000 0.039615 -171.7 0.999134 -81.82 0.999134 -81.82 0.039615 -172.1
!< P1 F=8.71 Eeff=(6.44682305 -2.9786e-5) Z0=(51.7992916 1.19073e-4) R=0.0 C=0.0 
!< P2 F=8.71 Eeff=(6.44682305 -2.9786e-5) Z0=(51.7992916 1.19073e-4) R=0.0 C=0.0 
8.71000500 0.039637 -171.7 0.999133 -81.82 0.999133 -81.82 0.039637 -172.1
8.71001000 0.039659 -171.7 0.999132 -81.82 0.999132 -81.82 0.039659 -172.1
8.71001500 0.039682 -171.7 0.999131 -81.82 0.999131 -81.82 0.039682 -172.1
8.71002000 0.039704 -171.7 0.999130 -81.83 0.999130 -81.83 0.039704 -172.1
8.71002500 0.039726 -171.7 0.999129 -81.83 0.999129 -81.83 0.039726 -172.1
8.71003000 0.039748 -171.7 0.999128 -81.83 0.999128 -81.83 0.039748 -172.1
8.71003500 0.039770 -171.8 0.999127 -81.83 0.999127 -81.83 0.039770 -172.1
8.71004000 0.039792 -171.8 0.999126 -81.83 0.999126 -81.83 0.039792 -172.1
8.71004500 0.039815 -171.8 0.999125 -81.83 0.999125 -81.83 0.039815 -172.1
8.71005000 0.039837 -171.8 0.999124 -81.83 0.999124 -81.83 0.039837 -172.1
8.71005500 0.039859 -171.8 0.999123 -81.83 0.999123 -81.83 0.039859 -172.1
8.71006000 0.039882 -171.8 0.999122 -81.84 0.999122 -81.84 0.039882 -172.1
8.71006500 0.039904 -171.8 0.999121 -81.84 0.999121 -81.84 0.039904 -172.1
8.71007000 0.039927 -171.8 0.999120 -81.84 0.999120 -81.84 0.039927 -172.2
8.71007500 0.039949 -171.8 0.999119 -81.84 0.999119 -81.84 0.039949 -172.2
8.71008000 0.039971 -171.8 0.999118 -81.84 0.999118 -81.84 0.039971 -172.2
8.71008500 0.039994 -171.8 0.999117 -81.84 0.999117 -81.84 0.039994 -172.2
8.71009000 0.040017 -171.8 0.999116 -81.84 0.999116 -81.84 0.040017 -172.2
8.71009500 0.040039 -171.8 0.999115 -81.85 0.999115 -81.85 0.040039 -172.2
8.71010000 0.040062 -171.8 0.999114 -81.85 0.999114 -81.85 0.040062 -172.2
8.71010500 0.040084 -171.8 0.999113 -81.85 0.999113 -81.85 0.040084 -172.2
8.71011000 0.040107 -171.8 0.999112 -81.85 0.999112 -81.85 0.040107 -172.2
8.71011500 0.040130 -171.8 0.999111 -81.85 0.999111 -81.85 0.040130 -172.2
8.71012000 0.040152 -171.8 0.999110 -81.85 0.999110 -81.85 0.040152 -172.2
8.71012500 0.040175 -171.8 0.999109 -81.85 0.999109 -81.85 0.040175 -172.2
8.71013000 0.040198 -171.8 0.999108 -81.85 0.999108 -81.85 0.040198 -172.2
8.71013500 0.040221 -171.8 0.999107 -81.86 0.999107 -81.86 0.040221 -172.2
8.71014000 0.040244 -171.8 0.999106 -81.86 0.999106 -81.86 0.040244 -172.2
8.71014500 0.040266 -171.8 0.999105 -81.86 0.999105 -81.86 0.040266 -172.2
8.71015000 0.040289 -171.8 0.999104 -81.86 0.999104 -81.86 0.040289 -172.2
8.71015500 0.040312 -171.8 0.999103 -81.86 0.999103 -81.86 0.040312 -172.2
8.71016000 0.040335 -171.8 0.999102 -81.86 0.999102 -81.86 0.040335 -172.2
8.71016500 0.040358 -171.8 0.999101 -81.86 0.999101 -81.86 0.040358 -172.2
8.71017000 0.040381 -171.8 0.999100 -81.87 0.999100 -81.87 0.040381 -172.2
8.71017500 0.040404 -171.8 0.999099 -81.87 0.999099 -81.87 0.040404 -172.2
8.71018000 0.040427 -171.8 0.999098 -81.87 0.999098 -81.87 0.040427 -172.2
8.71018500 0.040451 -171.8 0.999097 -81.87 0.999097 -81.87 0.040451 -172.2
8.71019000 0.040474 -171.8 0.999096 -81.87 0.999096 -81.87 0.040474 -172.2
8.71019500 0.040497 -171.8 0.999095 -81.87 0.999095 -81.87 0.040497 -172.2
8.71020000 0.040520 -171.8 0.999094 -81.87 0.999094 -81.87 0.040520 -172.2
8.71020500 0.040543 -171.8 0.999093 -81.88 0.999093 -81.88 0.040543 -172.2
8.71021000 0.040567 -171.8 0.999091 -81.88 0.999091 -81.88 0.040567 -172.2
8.71021500 0.040590 -171.8 0.999090 -81.88 0.999090 -81.88 0.040590 -172.2
8.71022000 0.040613 -171.8 0.999089 -81.88 0.999089 -81.88 0.040613 -172.2
8.71022500 0.040637 -171.8 0.999088 -81.88 0.999088 -81.88 0.040637 -172.2
8.71023000 0.040660 -171.8 0.999087 -81.88 0.999087 -81.88 0.040660 -172.2
8.71023500 0.040684 -171.8 0.999086 -81.88 0.999086 -81.88 0.040684 -172.2
8.71024000 0.040707 -171.8 0.999085 -81.89 0.999085 -81.89 0.040707 -172.2
8.71024500 0.040731 -171.8 0.999084 -81.89 0.999084 -81.89 0.040731 -172.2
8.71025000 0.040754 -171.8 0.999083 -81.89 0.999083 -81.89 0.040754 -172.2
8.71025500 0.040778 -171.8 0.999082 -81.89 0.999082 -81.89 0.040778 -172.2
8.71026000 0.040801 -171.8 0.999081 -81.89 0.999081 -81.89 0.040801 -172.2
8.71026500 0.040825 -171.8 0.999080 -81.89 0.999080 -81.89 0.040825 -172.2
8.71027000 0.040849 -171.8 0.999079 -81.89 0.999079 -81.89 0.040849 -172.2
8.71027500 0.040872 -171.8 0.999078 -81.89 0.999078 -81.89 0.040872 -172.2
8.71028000 0.040896 -171.8 0.999076 -81.90 0.999076 -81.90 0.040896 -172.2
8.71028500 0.040920 -171.8 0.999075 -81.90 0.999075 -81.90 0.040920 -172.2
8.71029000 0.040944 -171.8 0.999074 -81.90 0.999074 -81.90 0.040944 -172.2
8.71029500 0.040967 -171.8 0.999073 -81.90 0.999073 -81.90 0.040967 -172.2
8.71030000 0.040991 -171.8 0.999072 -81.90 0.999072 -81.90 0.040991 -172.2
8.71030500 0.041015 -171.8 0.999071 -81.90 0.999071 -81.90 0.041015 -172.2
8.71031000 0.041039 -171.8 0.999070 -81.90 0.999070 -81.90 0.041039 -172.2
8.71031500 0.041063 -171.8 0.999069 -81.91 0.999069 -81.91 0.041063 -172.2
8.71032000 0.041087 -171.8 0.999068 -81.91 0.999068 -81.91 0.041087 -172.2
8.71032500 0.041111 -171.8 0.999067 -81.91 0.999067 -81.91 0.041111 -172.2
8.71033000 0.041135 -171.8 0.999066 -81.91 0.999066 -81.91 0.041135 -172.2
8.71033500 0.041159 -171.8 0.999064 -81.91 0.999064 -81.91 0.041159 -172.2
8.71034000 0.041183 -171.8 0.999063 -81.91 0.999063 -81.91 0.041183 -172.2
8.71034500 0.041208 -171.8 0.999062 -81.91 0.999062 -81.91 0.041208 -172.2
8.71035000 0.041232 -171.8 0.999061 -81.92 0.999061 -81.92 0.041232 -172.2
8.71035500 0.041256 -171.8 0.999060 -81.92 0.999060 -81.92 0.041256 -172.2
8.71036000 0.041280 -171.8 0.999059 -81.92 0.999059 -81.92 0.041280 -172.2
8.71036500 0.041305 -171.8 0.999058 -81.92 0.999058 -81.92 0.041304 -172.2
8.71037000 0.041329 -171.8 0.999057 -81.92 0.999057 -81.92 0.041329 -172.2
8.71037500 0.041353 -171.9 0.999055 -81.92 0.999055 -81.92 0.041353 -172.2
8.71038000 0.041378 -171.9 0.999054 -81.92 0.999054 -81.92 0.041378 -172.2
8.71038500 0.041402 -171.9 0.999053 -81.93 0.999053 -81.93 0.041402 -172.2
8.71039000 0.041427 -171.9 0.999052 -81.93 0.999052 -81.93 0.041426 -172.2
8.71039500 0.041451 -171.9 0.999051 -81.93 0.999051 -81.93 0.041451 -172.2
8.71040000 0.041476 -171.9 0.999050 -81.93 0.999050 -81.93 0.041476 -172.2
8.71040500 0.041500 -171.9 0.999049 -81.93 0.999049 -81.93 0.041500 -172.2
8.71041000 0.041525 -171.9 0.999048 -81.93 0.999048 -81.93 0.041525 -172.3
8.71041500 0.041549 -171.9 0.999046 -81.94 0.999046 -81.94 0.041549 -172.3
8.71042000 0.041574 -171.9 0.999045 -81.94 0.999045 -81.94 0.041574 -172.3
8.71042500 0.041599 -171.9 0.999044 -81.94 0.999044 -81.94 0.041599 -172.3
8.71043000 0.041623 -171.9 0.999043 -81.94 0.999043 -81.94 0.041623 -172.3
8.71043500 0.041648 -171.9 0.999042 -81.94 0.999042 -81.94 0.041648 -172.3
8.71044000 0.041673 -171.9 0.999041 -81.94 0.999041 -81.94 0.041673 -172.3
8.71044500 0.041698 -171.9 0.999039 -81.94 0.999039 -81.94 0.041698 -172.3
8.71045000 0.041723 -171.9 0.999038 -81.95 0.999038 -81.95 0.041723 -172.3
8.71045500 0.041748 -171.9 0.999037 -81.95 0.999037 -81.95 0.041748 -172.3
8.71046000 0.041773 -171.9 0.999036 -81.95 0.999036 -81.95 0.041773 -172.3
8.71046500 0.041798 -171.9 0.999035 -81.95 0.999035 -81.95 0.041798 -172.3
8.71047000 0.041823 -171.9 0.999034 -81.95 0.999034 -81.95 0.041823 -172.3
8.71047500 0.041848 -171.9 0.999032 -81.95 0.999032 -81.95 0.041848 -172.3
8.71048000 0.041873 -171.9 0.999031 -81.95 0.999031 -81.95 0.041873 -172.3
8.71048500 0.041898 -171.9 0.999030 -81.96 0.999030 -81.96 0.041898 -172.3
8.71049000 0.041923 -171.9 0.999029 -81.96 0.999029 -81.96 0.041923 -172.3
8.71049500 0.041948 -171.9 0.999028 -81.96 0.999028 -81.96 0.041948 -172.3
8.71050000 0.041974 -171.9 0.999027 -81.96 0.999027 -81.96 0.041974 -172.3
8.71050500 0.041999 -171.9 0.999025 -81.96 0.999025 -81.96 0.041999 -172.3
8.71051000 0.042024 -171.9 0.999024 -81.96 0.999024 -81.96 0.042024 -172.3
8.71051500 0.042050 -171.9 0.999023 -81.96 0.999023 -81.96 0.042050 -172.3
8.71052000 0.042075 -171.9 0.999022 -81.97 0.999022 -81.97 0.042075 -172.3
8.71052500 0.042100 -171.9 0.999021 -81.97 0.999021 -81.97 0.042100 -172.3
8.71053000 0.042126 -171.9 0.999019 -81.97 0.999019 -81.97 0.042126 -172.3
8.71053500 0.042151 -171.9 0.999018 -81.97 0.999018 -81.97 0.042151 -172.3
8.71054000 0.042177 -171.9 0.999017 -81.97 0.999017 -81.97 0.042177 -172.3
8.71054500 0.042202 -171.9 0.999016 -81.97 0.999016 -81.97 0.042202 -172.3
8.71055000 0.042228 -171.9 0.999015 -81.98 0.999015 -81.98 0.042228 -172.3
8.71055500 0.042254 -171.9 0.999013 -81.98 0.999013 -81.98 0.042254 -172.3
8.71056000 0.042279 -171.9 0.999012 -81.98 0.999012 -81.98 0.042279 -172.3
8.71056500 0.042305 -171.9 0.999011 -81.98 0.999011 -81.98 0.042305 -172.3
8.71057000 0.042331 -171.9 0.999010 -81.98 0.999010 -81.98 0.042331 -172.3
8.71057500 0.042357 -171.9 0.999008 -81.98 0.999008 -81.98 0.042357 -172.3
8.71058000 0.042382 -171.9 0.999007 -81.98 0.999007 -81.98 0.042382 -172.3
8.71058500 0.042408 -171.9 0.999006 -81.99 0.999006 -81.99 0.042408 -172.3
8.71059000 0.042434 -171.9 0.999005 -81.99 0.999005 -81.99 0.042434 -172.3
8.71059500 0.042460 -171.9 0.999004 -81.99 0.999004 -81.99 0.042460 -172.3
8.71060000 0.042486 -171.9 0.999002 -81.99 0.999002 -81.99 0.042486 -172.3
8.71060500 0.042512 -171.9 0.999001 -81.99 0.999001 -81.99 0.042512 -172.3
8.71061000 0.042538 -171.9 0.999000 -81.99 0.999000 -81.99 0.042538 -172.3
8.71061500 0.042564 -171.9 0.998999 -82.00 0.998999 -82.00 0.042564 -172.3
8.71062000 0.042590 -171.9 0.998997 -82.00 0.998997 -82.00 0.042590 -172.3
8.71062500 0.042616 -171.9 0.998996 -82.00 0.998996 -82.00 0.042616 -172.3
8.71063000 0.042643 -171.9 0.998995 -82.00 0.998995 -82.00 0.042643 -172.3
8.71063500 0.042669 -171.9 0.998994 -82.00 0.998994 -82.00 0.042669 -172.3
8.71064000 0.042695 -171.9 0.998992 -82.00 0.998992 -82.00 0.042695 -172.3
8.71064500 0.042721 -171.9 0.998991 -82.00 0.998991 -82.00 0.042721 -172.3
8.71065000 0.042748 -171.9 0.998990 -82.01 0.998990 -82.01 0.042748 -172.3
8.71065500 0.042774 -171.9 0.998989 -82.01 0.998989 -82.01 0.042774 -172.3
8.71066000 0.042801 -171.9 0.998987 -82.01 0.998987 -82.01 0.042801 -172.3
8.71066500 0.042827 -171.9 0.998986 -82.01 0.998986 -82.01 0.042827 -172.3
8.71067000 0.042854 -171.9 0.998985 -82.01 0.998985 -82.01 0.042854 -172.3
8.71067500 0.042880 -171.9 0.998984 -82.01 0.998984 -82.01 0.042880 -172.3
8.71068000 0.042907 -171.9 0.998982 -82.02 0.998982 -82.02 0.042907 -172.3
8.71068500 0.042933 -171.9 0.998981 -82.02 0.998981 -82.02 0.042933 -172.3
8.71069000 0.042960 -172.0 0.998980 -82.02 0.998980 -82.02 0.042960 -172.3
8.71069500 0.042987 -172.0 0.998978 -82.02 0.998978 -82.02 0.042987 -172.3
8.71070000 0.043013 -172.0 0.998977 -82.02 0.998977 -82.02 0.043013 -172.3
8.71070500 0.043040 -172.0 0.998976 -82.02 0.998976 -82.02 0.043040 -172.3
8.71071000 0.043067 -172.0 0.998975 -82.02 0.998975 -82.02 0.043067 -172.3
8.71071500 0.043094 -172.0 0.998973 -82.03 0.998973 -82.03 0.043094 -172.4
8.71072000 0.043121 -172.0 0.998972 -82.03 0.998972 -82.03 0.043121 -172.4
8.71072500 0.043148 -172.0 0.998971 -82.03 0.998971 -82.03 0.043148 -172.4
8.71073000 0.043175 -172.0 0.998969 -82.03 0.998969 -82.03 0.043175 -172.4
8.71073500 0.043202 -172.0 0.998968 -82.03 0.998968 -82.03 0.043202 -172.4
8.71074000 0.043229 -172.0 0.998967 -82.03 0.998967 -82.03 0.043229 -172.4
8.71074500 0.043256 -172.0 0.998965 -82.04 0.998965 -82.04 0.043256 -172.4
8.71075000 0.043283 -172.0 0.998964 -82.04 0.998964 -82.04 0.043283 -172.4
8.71075500 0.043310 -172.0 0.998963 -82.04 0.998963 -82.04 0.043310 -172.4
8.71076000 0.043337 -172.0 0.998961 -82.04 0.998961 -82.04 0.043337 -172.4
8.71076500 0.043365 -172.0 0.998960 -82.04 0.998960 -82.04 0.043365 -172.4
8.71077000 0.043392 -172.0 0.998959 -82.04 0.998959 -82.04 0.043392 -172.4
8.71077500 0.043419 -172.0 0.998957 -82.05 0.998957 -82.05 0.043419 -172.4
8.71078000 0.043446 -172.0 0.998956 -82.05 0.998956 -82.05 0.043446 -172.4
8.71078500 0.043474 -172.0 0.998955 -82.05 0.998955 -82.05 0.043474 -172.4
8.71079000 0.043501 -172.0 0.998953 -82.05 0.998953 -82.05 0.043501 -172.4
8.71079500 0.043529 -172.0 0.998952 -82.05 0.998952 -82.05 0.043529 -172.4
8.71080000 0.043556 -172.0 0.998951 -82.05 0.998951 -82.05 0.043556 -172.4
8.71080500 0.043584 -172.0 0.998949 -82.06 0.998949 -82.06 0.043584 -172.4
8.71081000 0.043612 -172.0 0.998948 -82.06 0.998948 -82.06 0.043612 -172.4
8.71081500 0.043639 -172.0 0.998947 -82.06 0.998947 -82.06 0.043639 -172.4
8.71082000 0.043667 -172.0 0.998945 -82.06 0.998945 -82.06 0.043667 -172.4
8.71082500 0.043695 -172.0 0.998944 -82.06 0.998944 -82.06 0.043695 -172.4
8.71083000 0.043722 -172.0 0.998943 -82.06 0.998943 -82.06 0.043722 -172.4
8.71083500 0.043750 -172.0 0.998941 -82.07 0.998941 -82.07 0.043750 -172.4
8.71084000 0.043778 -172.0 0.998940 -82.07 0.998940 -82.07 0.043778 -172.4
8.71084500 0.043806 -172.0 0.998939 -82.07 0.998939 -82.07 0.043806 -172.4
8.71085000 0.043834 -172.0 0.998937 -82.07 0.998937 -82.07 0.043834 -172.4
8.71085500 0.043862 -172.0 0.998936 -82.07 0.998936 -82.07 0.043862 -172.4
8.71086000 0.043890 -172.0 0.998934 -82.07 0.998934 -82.07 0.043890 -172.4
8.71086500 0.043918 -172.0 0.998933 -82.08 0.998933 -82.08 0.043918 -172.4
8.71087000 0.043946 -172.0 0.998932 -82.08 0.998932 -82.08 0.043946 -172.4
8.71087500 0.043974 -172.0 0.998930 -82.08 0.998930 -82.08 0.043974 -172.4
8.71088000 0.044003 -172.0 0.998929 -82.08 0.998929 -82.08 0.044003 -172.4
8.71088500 0.044031 -172.0 0.998928 -82.08 0.998928 -82.08 0.044031 -172.4
8.71089000 0.044059 -172.0 0.998926 -82.08 0.998926 -82.08 0.044059 -172.4
8.71089500 0.044087 -172.0 0.998925 -82.09 0.998925 -82.09 0.044087 -172.4
8.71090000 0.044116 -172.0 0.998923 -82.09 0.998923 -82.09 0.044116 -172.4
8.71090500 0.044144 -172.0 0.998922 -82.09 0.998922 -82.09 0.044144 -172.4
8.71091000 0.044173 -172.0 0.998921 -82.09 0.998921 -82.09 0.044173 -172.4
8.71091500 0.044201 -172.0 0.998919 -82.09 0.998919 -82.09 0.044201 -172.4
8.71092000 0.044230 -172.0 0.998918 -82.09 0.998918 -82.09 0.044230 -172.4
8.71092500 0.044258 -172.0 0.998916 -82.10 0.998916 -82.10 0.044258 -172.4
8.71093000 0.044287 -172.0 0.998915 -82.10 0.998915 -82.10 0.044287 -172.4
8.71093500 0.044316 -172.0 0.998913 -82.10 0.998913 -82.10 0.044316 -172.4
8.71094000 0.044344 -172.0 0.998912 -82.10 0.998912 -82.10 0.044344 -172.4
8.71094500 0.044373 -172.0 0.998911 -82.10 0.998911 -82.10 0.044373 -172.4
8.71095000 0.044402 -172.0 0.998909 -82.10 0.998909 -82.10 0.044402 -172.4
8.71095500 0.044431 -172.0 0.998908 -82.11 0.998908 -82.11 0.044431 -172.4
8.71096000 0.044460 -172.0 0.998906 -82.11 0.998906 -82.11 0.044460 -172.4
8.71096500 0.044488 -172.0 0.998905 -82.11 0.998905 -82.11 0.044488 -172.4
8.71097000 0.044517 -172.0 0.998903 -82.11 0.998903 -82.11 0.044517 -172.4
8.71097500 0.044546 -172.1 0.998902 -82.11 0.998902 -82.11 0.044546 -172.4
8.71098000 0.044576 -172.1 0.998901 -82.11 0.998901 -82.11 0.044575 -172.4
8.71098500 0.044605 -172.1 0.998899 -82.12 0.998899 -82.12 0.044605 -172.4
8.71099000 0.044634 -172.1 0.998898 -82.12 0.998898 -82.12 0.044634 -172.4
8.71099500 0.044663 -172.1 0.998896 -82.12 0.998896 -82.12 0.044663 -172.4
8.71100000 0.044692 -172.1 0.998895 -82.12 0.998895 -82.12 0.044692 -172.5
8.71100500 0.044721 -172.1 0.998893 -82.12 0.998893 -82.12 0.044721 -172.5
8.71101000 0.044751 -172.1 0.998892 -82.12 0.998892 -82.12 0.044751 -172.5
8.71101500 0.044780 -172.1 0.998890 -82.13 0.998890 -82.13 0.044780 -172.5
8.71102000 0.044810 -172.1 0.998889 -82.13 0.998889 -82.13 0.044810 -172.5
8.71102500 0.044839 -172.1 0.998887 -82.13 0.998887 -82.13 0.044839 -172.5
8.71103000 0.044869 -172.1 0.998886 -82.13 0.998886 -82.13 0.044869 -172.5
8.71103500 0.044898 -172.1 0.998884 -82.13 0.998884 -82.13 0.044898 -172.5
8.71104000 0.044928 -172.1 0.998883 -82.13 0.998883 -82.13 0.044928 -172.5
8.71104500 0.044957 -172.1 0.998881 -82.14 0.998881 -82.14 0.044957 -172.5
8.71105000 0.044987 -172.1 0.998880 -82.14 0.998880 -82.14 0.044987 -172.5
8.71105500 0.045017 -172.1 0.998878 -82.14 0.998878 -82.14 0.045017 -172.5
8.71106000 0.045047 -172.1 0.998877 -82.14 0.998877 -82.14 0.045047 -172.5
8.71106500 0.045076 -172.1 0.998875 -82.14 0.998875 -82.14 0.045076 -172.5
8.71107000 0.045106 -172.1 0.998874 -82.15 0.998874 -82.15 0.045106 -172.5
8.71107500 0.045136 -172.1 0.998872 -82.15 0.998872 -82.15 0.045136 -172.5
8.71108000 0.045166 -172.1 0.998871 -82.15 0.998871 -82.15 0.045166 -172.5
8.71108500 0.045196 -172.1 0.998869 -82.15 0.998869 -82.15 0.045196 -172.5
8.71109000 0.045226 -172.1 0.998868 -82.15 0.998868 -82.15 0.045226 -172.5
8.71109500 0.045256 -172.1 0.998866 -82.15 0.998866 -82.15 0.045256 -172.5
8.71110000 0.045287 -172.1 0.998865 -82.16 0.998865 -82.16 0.045287 -172.5
8.71110500 0.045317 -172.1 0.998863 -82.16 0.998863 -82.16 0.045317 -172.5
8.71111000 0.045347 -172.1 0.998862 -82.16 0.998862 -82.16 0.045347 -172.5
8.71111500 0.045377 -172.1 0.998860 -82.16 0.998860 -82.16 0.045377 -172.5
8.71112000 0.045408 -172.1 0.998859 -82.16 0.998859 -82.16 0.045408 -172.5
8.71112500 0.045438 -172.1 0.998857 -82.16 0.998857 -82.16 0.045438 -172.5
8.71113000 0.045468 -172.1 0.998855 -82.17 0.998855 -82.17 0.045468 -172.5
8.71113500 0.045499 -172.1 0.998854 -82.17 0.998854 -82.17 0.045499 -172.5
8.71114000 0.045529 -172.1 0.998852 -82.17 0.998852 -82.17 0.045529 -172.5
8.71114500 0.045560 -172.1 0.998851 -82.17 0.998851 -82.17 0.045560 -172.5
8.71115000 0.045591 -172.1 0.998849 -82.17 0.998849 -82.17 0.045591 -172.5
8.71115500 0.045621 -172.1 0.998848 -82.18 0.998848 -82.18 0.045621 -172.5
8.71116000 0.045652 -172.1 0.998846 -82.18 0.998846 -82.18 0.045652 -172.5
8.71116500 0.045683 -172.1 0.998845 -82.18 0.998845 -82.18 0.045683 -172.5
8.71117000 0.045714 -172.1 0.998843 -82.18 0.998843 -82.18 0.045714 -172.5
8.71117500 0.045745 -172.1 0.998841 -82.18 0.998841 -82.18 0.045745 -172.5
8.71118000 0.045775 -172.1 0.998840 -82.18 0.998840 -82.18 0.045775 -172.5
8.71118500 0.045806 -172.1 0.998838 -82.19 0.998838 -82.19 0.045806 -172.5
8.71119000 0.045837 -172.1 0.998837 -82.19 0.998837 -82.19 0.045837 -172.5
8.71119500 0.045869 -172.1 0.998835 -82.19 0.998835 -82.19 0.045869 -172.5
8.71120000 0.045900 -172.1 0.998833 -82.19 0.998833 -82.19 0.045900 -172.5
8.71120500 0.045931 -172.1 0.998832 -82.19 0.998832 -82.19 0.045931 -172.5
8.71121000 0.045962 -172.1 0.998830 -82.20 0.998830 -82.20 0.045962 -172.5
8.71121500 0.045993 -172.1 0.998829 -82.20 0.998829 -82.20 0.045993 -172.5
8.71122000 0.046025 -172.1 0.998827 -82.20 0.998827 -82.20 0.046025 -172.5
8.71122500 0.046056 -172.1 0.998825 -82.20 0.998825 -82.20 0.046056 -172.5
8.71123000 0.046087 -172.1 0.998824 -82.20 0.998824 -82.20 0.046087 -172.5
8.71123500 0.046119 -172.1 0.998822 -82.20 0.998822 -82.20 0.046119 -172.5
8.71124000 0.046150 -172.2 0.998820 -82.21 0.998820 -82.21 0.046150 -172.5
8.71124500 0.046182 -172.2 0.998819 -82.21 0.998819 -82.21 0.046182 -172.5
8.71125000 0.046213 -172.2 0.998817 -82.21 0.998817 -82.21 0.046213 -172.5
8.71125500 0.046245 -172.2 0.998816 -82.21 0.998816 -82.21 0.046245 -172.5
8.71126000 0.046277 -172.2 0.998814 -82.21 0.998814 -82.21 0.046277 -172.6
8.71126500 0.046309 -172.2 0.998812 -82.22 0.998812 -82.22 0.046309 -172.6
8.71127000 0.046340 -172.2 0.998811 -82.22 0.998811 -82.22 0.046340 -172.6
8.71127500 0.046372 -172.2 0.998809 -82.22 0.998809 -82.22 0.046372 -172.6
8.71128000 0.046404 -172.2 0.998807 -82.22 0.998807 -82.22 0.046404 -172.6
8.71128500 0.046436 -172.2 0.998806 -82.22 0.998806 -82.22 0.046436 -172.6
8.71129000 0.046468 -172.2 0.998804 -82.23 0.998804 -82.23 0.046468 -172.6
8.71129500 0.046500 -172.2 0.998802 -82.23 0.998802 -82.23 0.046500 -172.6
8.71130000 0.046532 -172.2 0.998801 -82.23 0.998801 -82.23 0.046532 -172.6
8.71130500 0.046565 -172.2 0.998799 -82.23 0.998799 -82.23 0.046565 -172.6
8.71131000 0.046597 -172.2 0.998797 -82.23 0.998797 -82.23 0.046597 -172.6
8.71131500 0.046629 -172.2 0.998796 -82.23 0.998796 -82.23 0.046629 -172.6
8.71132000 0.046661 -172.2 0.998794 -82.24 0.998794 -82.24 0.046661 -172.6
8.71132500 0.046694 -172.2 0.998792 -82.24 0.998792 -82.24 0.046694 -172.6
8.71133000 0.046726 -172.2 0.998790 -82.24 0.998790 -82.24 0.046726 -172.6
8.71133500 0.046759 -172.2 0.998789 -82.24 0.998789 -82.24 0.046759 -172.6
8.71134000 0.046791 -172.2 0.998787 -82.24 0.998787 -82.24 0.046791 -172.6
8.71134500 0.046824 -172.2 0.998785 -82.25 0.998785 -82.25 0.046824 -172.6
8.71135000 0.046856 -172.2 0.998784 -82.25 0.998784 -82.25 0.046856 -172.6
8.71135500 0.046889 -172.2 0.998782 -82.25 0.998782 -82.25 0.046889 -172.6
8.71136000 0.046922 -172.2 0.998780 -82.25 0.998780 -82.25 0.046922 -172.6
8.71136500 0.046955 -172.2 0.998778 -82.25 0.998778 -82.25 0.046955 -172.6
8.71137000 0.046987 -172.2 0.998777 -82.26 0.998777 -82.26 0.046987 -172.6
8.71137500 0.047020 -172.2 0.998775 -82.26 0.998775 -82.26 0.047020 -172.6
8.71138000 0.047053 -172.2 0.998773 -82.26 0.998773 -82.26 0.047053 -172.6
8.71138500 0.047086 -172.2 0.998772 -82.26 0.998772 -82.26 0.047086 -172.6
8.71139000 0.047119 -172.2 0.998770 -82.26 0.998770 -82.26 0.047119 -172.6
8.71139500 0.047152 -172.2 0.998768 -82.27 0.998768 -82.27 0.047152 -172.6
8.71140000 0.047186 -172.2 0.998766 -82.27 0.998766 -82.27 0.047186 -172.6
8.71140500 0.047219 -172.2 0.998765 -82.27 0.998765 -82.27 0.047219 -172.6
8.71141000 0.047252 -172.2 0.998763 -82.27 0.998763 -82.27 0.047252 -172.6
8.71141500 0.047285 -172.2 0.998761 -82.27 0.998761 -82.27 0.047285 -172.6
8.71142000 0.047319 -172.2 0.998759 -82.28 0.998759 -82.28 0.047319 -172.6
8.71142500 0.047352 -172.2 0.998757 -82.28 0.998757 -82.28 0.047352 -172.6
8.71143000 0.047386 -172.2 0.998756 -82.28 0.998756 -82.28 0.047386 -172.6
8.71143500 0.047419 -172.2 0.998754 -82.28 0.998754 -82.28 0.047419 -172.6
8.71144000 0.047453 -172.2 0.998752 -82.28 0.998752 -82.28 0.047453 -172.6
8.71144500 0.047487 -172.2 0.998750 -82.29 0.998750 -82.29 0.047487 -172.6
8.71145000 0.047520 -172.2 0.998749 -82.29 0.998749 -82.29 0.047520 -172.6
8.71145500 0.047554 -172.2 0.998747 -82.29 0.998747 -82.29 0.047554 -172.6
8.71146000 0.047588 -172.2 0.998745 -82.29 0.998745 -82.29 0.047588 -172.6
8.71146500 0.047622 -172.2 0.998743 -82.29 0.998743 -82.29 0.047622 -172.6
8.71147000 0.047656 -172.2 0.998741 -82.29 0.998741 -82.29 0.047656 -172.6
8.71147500 0.047690 -172.2 0.998739 -82.30 0.998739 -82.30 0.047690 -172.6
8.71148000 0.047724 -172.2 0.998738 -82.30 0.998738 -82.30 0.047724 -172.6
8.71148500 0.047758 -172.3 0.998736 -82.30 0.998736 -82.30 0.047758 -172.6
8.71149000 0.047792 -172.3 0.998734 -82.30 0.998734 -82.30 0.047792 -172.6
8.71149500 0.047826 -172.3 0.998732 -82.30 0.998732 -82.30 0.047826 -172.6
8.71150000 0.047861 -172.3 0.998730 -82.31 0.998730 -82.31 0.047861 -172.6
8.71150500 0.047895 -172.3 0.998728 -82.31 0.998728 -82.31 0.047895 -172.7
8.71151000 0.047929 -172.3 0.998727 -82.31 0.998727 -82.31 0.047929 -172.7
8.71151500 0.047964 -172.3 0.998725 -82.31 0.998725 -82.31 0.047964 -172.7
8.71152000 0.047998 -172.3 0.998723 -82.32 0.998723 -82.32 0.047998 -172.7
8.71152500 0.048033 -172.3 0.998721 -82.32 0.998721 -82.32 0.048033 -172.7
8.71153000 0.048067 -172.3 0.998719 -82.32 0.998719 -82.32 0.048067 -172.7
8.71153500 0.048102 -172.3 0.998717 -82.32 0.998717 -82.32 0.048102 -172.7
8.71154000 0.048137 -172.3 0.998715 -82.32 0.998715 -82.32 0.048137 -172.7
8.71154500 0.048172 -172.3 0.998714 -82.33 0.998714 -82.33 0.048172 -172.7
8.71155000 0.048206 -172.3 0.998712 -82.33 0.998712 -82.33 0.048206 -172.7
8.71155500 0.048241 -172.3 0.998710 -82.33 0.998710 -82.33 0.048241 -172.7
8.71156000 0.048276 -172.3 0.998708 -82.33 0.998708 -82.33 0.048276 -172.7
8.71156500 0.048311 -172.3 0.998706 -82.33 0.998706 -82.33 0.048311 -172.7
8.71157000 0.048346 -172.3 0.998704 -82.34 0.998704 -82.34 0.048346 -172.7
8.71157500 0.048382 -172.3 0.998702 -82.34 0.998702 -82.34 0.048382 -172.7
8.71158000 0.048417 -172.3 0.998700 -82.34 0.998700 -82.34 0.048417 -172.7
8.71158500 0.048452 -172.3 0.998698 -82.34 0.998698 -82.34 0.048452 -172.7
8.71159000 0.048487 -172.3 0.998696 -82.34 0.998696 -82.34 0.048487 -172.7
8.71159500 0.048523 -172.3 0.998694 -82.35 0.998694 -82.35 0.048523 -172.7
8.71160000 0.048558 -172.3 0.998693 -82.35 0.998693 -82.35 0.048558 -172.7
8.71160500 0.048594 -172.3 0.998691 -82.35 0.998691 -82.35 0.048594 -172.7
8.71161000 0.048629 -172.3 0.998689 -82.35 0.998689 -82.35 0.048629 -172.7
8.71161500 0.048665 -172.3 0.998687 -82.35 0.998687 -82.35 0.048665 -172.7
8.71162000 0.048701 -172.3 0.998685 -82.36 0.998685 -82.36 0.048701 -172.7
8.71162500 0.048736 -172.3 0.998683 -82.36 0.998683 -82.36 0.048736 -172.7
8.71163000 0.048772 -172.3 0.998681 -82.36 0.998681 -82.36 0.048772 -172.7
8.71163500 0.048808 -172.3 0.998679 -82.36 0.998679 -82.36 0.048808 -172.7
8.71164000 0.048844 -172.3 0.998677 -82.36 0.998677 -82.36 0.048844 -172.7
8.71164500 0.048880 -172.3 0.998675 -82.37 0.998675 -82.37 0.048880 -172.7
8.71165000 0.048916 -172.3 0.998673 -82.37 0.998673 -82.37 0.048916 -172.7
8.71165500 0.048952 -172.3 0.998671 -82.37 0.998671 -82.37 0.048952 -172.7
8.71166000 0.048988 -172.3 0.998669 -82.37 0.998669 -82.37 0.048988 -172.7
8.71166500 0.049024 -172.3 0.998667 -82.38 0.998667 -82.38 0.049024 -172.7
8.71167000 0.049061 -172.3 0.998665 -82.38 0.998665 -82.38 0.049061 -172.7
8.71167500 0.049097 -172.3 0.998663 -82.38 0.998663 -82.38 0.049097 -172.7
8.71168000 0.049133 -172.3 0.998661 -82.38 0.998661 -82.38 0.049133 -172.7
8.71168500 0.049170 -172.3 0.998659 -82.38 0.998659 -82.38 0.049170 -172.7
8.71169000 0.049206 -172.3 0.998657 -82.39 0.998657 -82.39 0.049206 -172.7
8.71169500 0.049243 -172.3 0.998655 -82.39 0.998655 -82.39 0.049243 -172.7
8.71170000 0.049280 -172.3 0.998653 -82.39 0.998653 -82.39 0.049280 -172.7
8.71170500 0.049316 -172.3 0.998651 -82.39 0.998651 -82.39 0.049316 -172.7
8.71171000 0.049353 -172.4 0.998649 -82.39 0.998649 -82.39 0.049353 -172.7
8.71171500 0.049390 -172.4 0.998647 -82.40 0.998647 -82.40 0.049390 -172.7
8.71172000 0.049427 -172.4 0.998645 -82.40 0.998645 -82.40 0.049427 -172.7
8.71172500 0.049464 -172.4 0.998643 -82.40 0.998643 -82.40 0.049464 -172.8
8.71173000 0.049501 -172.4 0.998641 -82.40 0.998641 -82.40 0.049501 -172.8
8.71173500 0.049538 -172.4 0.998639 -82.41 0.998639 -82.41 0.049538 -172.8
8.71174000 0.049575 -172.4 0.998637 -82.41 0.998637 -82.41 0.049575 -172.8
8.71174500 0.049612 -172.4 0.998634 -82.41 0.998634 -82.41 0.049612 -172.8
8.71175000 0.049650 -172.4 0.998632 -82.41 0.998632 -82.41 0.049650 -172.8
8.71175500 0.049687 -172.4 0.998630 -82.41 0.998630 -82.41 0.049687 -172.8
8.71176000 0.049725 -172.4 0.998628 -82.42 0.998628 -82.42 0.049725 -172.8
8.71176500 0.049762 -172.4 0.998626 -82.42 0.998626 -82.42 0.049762 -172.8
8.71177000 0.049800 -172.4 0.998624 -82.42 0.998624 -82.42 0.049800 -172.8
8.71177500 0.049837 -172.4 0.998622 -82.42 0.998622 -82.42 0.049837 -172.8
8.71178000 0.049875 -172.4 0.998620 -82.43 0.998620 -82.43 0.049875 -172.8
8.71178500 0.049913 -172.4 0.998618 -82.43 0.998618 -82.43 0.049913 -172.8
8.71179000 0.049950 -172.4 0.998616 -82.43 0.998616 -82.43 0.049950 -172.8
8.71179500 0.049988 -172.4 0.998613 -82.43 0.998613 -82.43 0.049988 -172.8
8.71180000 0.050026 -172.4 0.998611 -82.43 0.998611 -82.43 0.050026 -172.8
8.71180500 0.050064 -172.4 0.998609 -82.44 0.998609 -82.44 0.050064 -172.8
8.71181000 0.050102 -172.4 0.998607 -82.44 0.998607 -82.44 0.050102 -172.8
8.71181500 0.050141 -172.4 0.998605 -82.44 0.998605 -82.44 0.050141 -172.8
8.71182000 0.050179 -172.4 0.998603 -82.44 0.998603 -82.44 0.050179 -172.8
8.71182500 0.050217 -172.4 0.998601 -82.45 0.998601 -82.45 0.050217 -172.8
8.71183000 0.050255 -172.4 0.998598 -82.45 0.998598 -82.45 0.050255 -172.8
8.71183500 0.050294 -172.4 0.998596 -82.45 0.998596 -82.45 0.050294 -172.8
8.71184000 0.050332 -172.4 0.998594 -82.45 0.998594 -82.45 0.050332 -172.8
8.71184500 0.050371 -172.4 0.998592 -82.45 0.998592 -82.45 0.050371 -172.8
8.71185000 0.050409 -172.4 0.998590 -82.46 0.998590 -82.46 0.050409 -172.8
8.71185500 0.050448 -172.4 0.998588 -82.46 0.998588 -82.46 0.050448 -172.8
8.71186000 0.050487 -172.4 0.998585 -82.46 0.998585 -82.46 0.050487 -172.8
8.71186500 0.050526 -172.4 0.998583 -82.46 0.998583 -82.46 0.050526 -172.8
8.71187000 0.050565 -172.4 0.998581 -82.47 0.998581 -82.47 0.050565 -172.8
8.71187500 0.050604 -172.4 0.998579 -82.47 0.998579 -82.47 0.050603 -172.8
8.71188000 0.050643 -172.4 0.998576 -82.47 0.998576 -82.47 0.050643 -172.8
8.71188500 0.050682 -172.4 0.998574 -82.47 0.998574 -82.47 0.050682 -172.8
8.71189000 0.050721 -172.4 0.998572 -82.47 0.998572 -82.47 0.050721 -172.8
8.71189500 0.050760 -172.4 0.998570 -82.48 0.998570 -82.48 0.050760 -172.8
8.71190000 0.050799 -172.4 0.998568 -82.48 0.998568 -82.48 0.050799 -172.8
8.71190500 0.050839 -172.4 0.998565 -82.48 0.998565 -82.48 0.050839 -172.8
8.71191000 0.050878 -172.4 0.998563 -82.48 0.998563 -82.48 0.050878 -172.8
8.71191500 0.050918 -172.4 0.998561 -82.49 0.998561 -82.49 0.050918 -172.8
8.71192000 0.050957 -172.5 0.998559 -82.49 0.998559 -82.49 0.050957 -172.8
8.71192500 0.050997 -172.5 0.998556 -82.49 0.998556 -82.49 0.050997 -172.8
8.71193000 0.051037 -172.5 0.998554 -82.49 0.998554 -82.49 0.051037 -172.8
8.71193500 0.051076 -172.5 0.998552 -82.50 0.998552 -82.50 0.051076 -172.9
8.71194000 0.051116 -172.5 0.998549 -82.50 0.998549 -82.50 0.051116 -172.9
8.71194500 0.051156 -172.5 0.998547 -82.50 0.998547 -82.50 0.051156 -172.9
8.71195000 0.051196 -172.5 0.998545 -82.50 0.998545 -82.50 0.051196 -172.9
8.71195500 0.051236 -172.5 0.998543 -82.50 0.998543 -82.50 0.051236 -172.9
8.71196000 0.051276 -172.5 0.998540 -82.51 0.998540 -82.51 0.051276 -172.9