! Sonnet Data File
! From: emgraph Version : 16.52
! From Project: 171114transmon_trace_brg2
! Data is De-embedded 
! Data File Written: 11/14/2017 15:35:21
!< HDATE 11/14/2017 14:44:41
!< MDATE 11/14/2017 14:44:41
!< PARAMS
!< Lj = 15.24
!< Gap = 14.0
!< Width = 10.0
!< Airgap = 6.0
!< Pwidth = 2000.0
!< Dist = 2000.0
!< END PARAMS
# GHZ S MA R 51.90000
8.50000000 0.005982 -168.2 0.999979 -78.09 0.999979 -78.09 0.005982 -168.1
!< P1 F=8.5 Eeff=(6.44695349 -2.9785e-5) Z0=(51.7999087 1.19092e-4) R=0.0 C=0.0 
!< P2 F=8.5 Eeff=(6.44695349 -2.9785e-5) Z0=(51.7999087 1.19092e-4) R=0.0 C=0.0 
8.50010000 0.005984 -168.2 0.999979 -78.09 0.999979 -78.09 0.005984 -168.1
8.50020000 0.005985 -168.2 0.999979 -78.09 0.999979 -78.09 0.005985 -168.1
8.50030000 0.005986 -168.2 0.999979 -78.09 0.999979 -78.09 0.005986 -168.1
8.50040000 0.005988 -168.2 0.999979 -78.09 0.999979 -78.09 0.005988 -168.1
8.50050000 0.005989 -168.2 0.999979 -78.09 0.999979 -78.09 0.005989 -168.1
8.50060000 0.005990 -168.2 0.999979 -78.10 0.999979 -78.10 0.005990 -168.1
8.50070000 0.005992 -168.2 0.999979 -78.10 0.999979 -78.10 0.005992 -168.1
8.50080000 0.005993 -168.2 0.999979 -78.10 0.999979 -78.10 0.005993 -168.1
8.50090000 0.005994 -168.2 0.999979 -78.10 0.999979 -78.10 0.005994 -168.1
8.50100000 0.005996 -168.2 0.999979 -78.10 0.999979 -78.10 0.005996 -168.1
8.50110000 0.005997 -168.2 0.999979 -78.10 0.999979 -78.10 0.005997 -168.1
8.50120000 0.005999 -168.2 0.999979 -78.10 0.999979 -78.10 0.005999 -168.1
8.50130000 0.006000 -168.2 0.999979 -78.10 0.999979 -78.10 0.006000 -168.1
8.50140000 0.006001 -168.2 0.999979 -78.10 0.999979 -78.10 0.006001 -168.1
8.50150000 0.006003 -168.2 0.999979 -78.10 0.999979 -78.10 0.006003 -168.1
8.50160000 0.006004 -168.2 0.999979 -78.11 0.999979 -78.11 0.006004 -168.1
8.50170000 0.006005 -168.2 0.999979 -78.11 0.999979 -78.11 0.006005 -168.1
8.50180000 0.006007 -168.2 0.999979 -78.11 0.999979 -78.11 0.006007 -168.1
8.50190000 0.006008 -168.2 0.999979 -78.11 0.999979 -78.11 0.006008 -168.1
8.50200000 0.006009 -168.2 0.999979 -78.11 0.999979 -78.11 0.006009 -168.1
8.50210000 0.006011 -168.2 0.999979 -78.11 0.999979 -78.11 0.006011 -168.1
8.50220000 0.006012 -168.2 0.999979 -78.11 0.999979 -78.11 0.006012 -168.1
8.50230000 0.006014 -168.2 0.999979 -78.11 0.999979 -78.11 0.006014 -168.1
8.50240000 0.006015 -168.2 0.999979 -78.11 0.999979 -78.11 0.006015 -168.1
8.50250000 0.006016 -168.2 0.999979 -78.11 0.999979 -78.11 0.006016 -168.1
8.50260000 0.006018 -168.2 0.999979 -78.12 0.999979 -78.12 0.006018 -168.1
8.50270000 0.006019 -168.2 0.999979 -78.12 0.999979 -78.12 0.006019 -168.1
8.50280000 0.006021 -168.2 0.999978 -78.12 0.999978 -78.12 0.006021 -168.1
8.50290000 0.006022 -168.2 0.999978 -78.12 0.999978 -78.12 0.006022 -168.1
8.50300000 0.006023 -168.2 0.999978 -78.12 0.999978 -78.12 0.006023 -168.1
8.50310000 0.006025 -168.2 0.999978 -78.12 0.999978 -78.12 0.006025 -168.1
8.50320000 0.006026 -168.2 0.999978 -78.12 0.999978 -78.12 0.006026 -168.1
8.50330000 0.006028 -168.2 0.999978 -78.12 0.999978 -78.12 0.006028 -168.1
8.50340000 0.006029 -168.2 0.999978 -78.12 0.999978 -78.12 0.006029 -168.1
8.50350000 0.006030 -168.2 0.999978 -78.12 0.999978 -78.12 0.006030 -168.1
8.50360000 0.006032 -168.2 0.999978 -78.13 0.999978 -78.13 0.006032 -168.1
8.50370000 0.006033 -168.2 0.999978 -78.13 0.999978 -78.13 0.006033 -168.1
8.50380000 0.006035 -168.2 0.999978 -78.13 0.999978 -78.13 0.006035 -168.1
8.50390000 0.006036 -168.2 0.999978 -78.13 0.999978 -78.13 0.006036 -168.1
8.50400000 0.006037 -168.2 0.999978 -78.13 0.999978 -78.13 0.006037 -168.1
8.50410000 0.006039 -168.2 0.999978 -78.13 0.999978 -78.13 0.006039 -168.1
8.50420000 0.006040 -168.2 0.999978 -78.13 0.999978 -78.13 0.006040 -168.1
8.50430000 0.006042 -168.2 0.999978 -78.13 0.999978 -78.13 0.006042 -168.1
8.50440000 0.006043 -168.2 0.999978 -78.13 0.999978 -78.13 0.006043 -168.1
8.50450000 0.006045 -168.2 0.999978 -78.13 0.999978 -78.13 0.006045 -168.1
8.50460000 0.006046 -168.2 0.999978 -78.14 0.999978 -78.14 0.006046 -168.1
8.50470000 0.006047 -168.2 0.999978 -78.14 0.999978 -78.14 0.006047 -168.1
8.50480000 0.006049 -168.2 0.999978 -78.14 0.999978 -78.14 0.006049 -168.1
8.50490000 0.006050 -168.2 0.999978 -78.14 0.999978 -78.14 0.006050 -168.1
8.50500000 0.006052 -168.2 0.999978 -78.14 0.999978 -78.14 0.006052 -168.1
8.50510000 0.006053 -168.2 0.999978 -78.14 0.999978 -78.14 0.006053 -168.1
8.50520000 0.006055 -168.2 0.999978 -78.14 0.999978 -78.14 0.006055 -168.1
8.50530000 0.006056 -168.2 0.999978 -78.14 0.999978 -78.14 0.006056 -168.1
8.50540000 0.006058 -168.2 0.999978 -78.14 0.999978 -78.14 0.006058 -168.1
8.50550000 0.006059 -168.2 0.999978 -78.14 0.999978 -78.14 0.006059 -168.1
8.50560000 0.006061 -168.2 0.999978 -78.15 0.999978 -78.15 0.006061 -168.1
8.50570000 0.006062 -168.2 0.999978 -78.15 0.999978 -78.15 0.006062 -168.1
8.50580000 0.006063 -168.2 0.999978 -78.15 0.999978 -78.15 0.006063 -168.1
8.50590000 0.006065 -168.2 0.999978 -78.15 0.999978 -78.15 0.006065 -168.1
8.50600000 0.006066 -168.2 0.999978 -78.15 0.999978 -78.15 0.006066 -168.1
8.50610000 0.006068 -168.2 0.999978 -78.15 0.999978 -78.15 0.006068 -168.1
8.50620000 0.006069 -168.2 0.999978 -78.15 0.999978 -78.15 0.006069 -168.1
8.50630000 0.006071 -168.2 0.999978 -78.15 0.999978 -78.15 0.006071 -168.1
8.50640000 0.006072 -168.2 0.999978 -78.15 0.999978 -78.15 0.006072 -168.1
8.50650000 0.006074 -168.2 0.999978 -78.15 0.999978 -78.15 0.006074 -168.1
8.50660000 0.006075 -168.2 0.999978 -78.16 0.999978 -78.16 0.006075 -168.1
8.50670000 0.006077 -168.2 0.999978 -78.16 0.999978 -78.16 0.006077 -168.1
8.50680000 0.006078 -168.2 0.999978 -78.16 0.999978 -78.16 0.006078 -168.1
8.50690000 0.006080 -168.2 0.999978 -78.16 0.999978 -78.16 0.006080 -168.1
8.50700000 0.006081 -168.2 0.999978 -78.16 0.999978 -78.16 0.006081 -168.1
8.50710000 0.006083 -168.2 0.999978 -78.16 0.999978 -78.16 0.006083 -168.1
8.50720000 0.006084 -168.2 0.999978 -78.16 0.999978 -78.16 0.006084 -168.1
8.50730000 0.006086 -168.2 0.999978 -78.16 0.999978 -78.16 0.006086 -168.1
8.50740000 0.006087 -168.2 0.999978 -78.16 0.999978 -78.16 0.006087 -168.1
8.50750000 0.006089 -168.2 0.999978 -78.16 0.999978 -78.16 0.006089 -168.1
8.50760000 0.006090 -168.2 0.999978 -78.17 0.999978 -78.17 0.006090 -168.1
8.50770000 0.006092 -168.2 0.999978 -78.17 0.999978 -78.17 0.006092 -168.1
8.50780000 0.006093 -168.2 0.999978 -78.17 0.999978 -78.17 0.006093 -168.1
8.50790000 0.006095 -168.2 0.999978 -78.17 0.999978 -78.17 0.006095 -168.1
8.50800000 0.006096 -168.2 0.999978 -78.17 0.999978 -78.17 0.006096 -168.1
8.50810000 0.006098 -168.2 0.999978 -78.17 0.999978 -78.17 0.006098 -168.1
8.50820000 0.006099 -168.2 0.999978 -78.17 0.999978 -78.17 0.006099 -168.1
8.50830000 0.006101 -168.2 0.999978 -78.17 0.999978 -78.17 0.006101 -168.1
8.50840000 0.006103 -168.2 0.999978 -78.17 0.999978 -78.17 0.006103 -168.1
8.50850000 0.006104 -168.2 0.999978 -78.17 0.999978 -78.17 0.006104 -168.1
8.50860000 0.006106 -168.2 0.999978 -78.18 0.999978 -78.18 0.006106 -168.2
8.50870000 0.006107 -168.2 0.999978 -78.18 0.999978 -78.18 0.006107 -168.2
8.50880000 0.006109 -168.3 0.999978 -78.18 0.999978 -78.18 0.006109 -168.2
8.50890000 0.006110 -168.3 0.999978 -78.18 0.999978 -78.18 0.006110 -168.2
8.50900000 0.006112 -168.3 0.999978 -78.18 0.999978 -78.18 0.006112 -168.2
8.50910000 0.006113 -168.3 0.999978 -78.18 0.999978 -78.18 0.006113 -168.2
8.50920000 0.006115 -168.3 0.999978 -78.18 0.999978 -78.18 0.006115 -168.2
8.50930000 0.006116 -168.3 0.999978 -78.18 0.999978 -78.18 0.006116 -168.2
8.50940000 0.006118 -168.3 0.999978 -78.18 0.999978 -78.18 0.006118 -168.2
8.50950000 0.006120 -168.3 0.999978 -78.18 0.999978 -78.18 0.006120 -168.2
8.50960000 0.006121 -168.3 0.999978 -78.19 0.999978 -78.19 0.006121 -168.2
8.50970000 0.006123 -168.3 0.999978 -78.19 0.999978 -78.19 0.006123 -168.2
8.50980000 0.006124 -168.3 0.999978 -78.19 0.999978 -78.19 0.006124 -168.2
8.50990000 0.006126 -168.3 0.999978 -78.19 0.999978 -78.19 0.006126 -168.2
8.51000000 0.006127 -168.3 0.999978 -78.19 0.999978 -78.19 0.006127 -168.2
8.51010000 0.006129 -168.3 0.999978 -78.19 0.999978 -78.19 0.006129 -168.2
8.51020000 0.006131 -168.3 0.999978 -78.19 0.999978 -78.19 0.006131 -168.2
8.51030000 0.006132 -168.3 0.999978 -78.19 0.999978 -78.19 0.006132 -168.2
8.51040000 0.006134 -168.3 0.999978 -78.19 0.999978 -78.19 0.006134 -168.2
8.51050000 0.006135 -168.3 0.999978 -78.19 0.999978 -78.19 0.006135 -168.2
8.51060000 0.006137 -168.3 0.999978 -78.20 0.999978 -78.20 0.006137 -168.2
8.51070000 0.006139 -168.3 0.999978 -78.20 0.999978 -78.20 0.006139 -168.2
8.51080000 0.006140 -168.3 0.999978 -78.20 0.999978 -78.20 0.006140 -168.2
8.51090000 0.006142 -168.3 0.999978 -78.20 0.999978 -78.20 0.006142 -168.2
8.51100000 0.006143 -168.3 0.999978 -78.20 0.999978 -78.20 0.006143 -168.2
8.51110000 0.006145 -168.3 0.999978 -78.20 0.999978 -78.20 0.006145 -168.2
8.51120000 0.006147 -168.3 0.999978 -78.20 0.999978 -78.20 0.006147 -168.2
8.51130000 0.006148 -168.3 0.999978 -78.20 0.999978 -78.20 0.006148 -168.2
8.51140000 0.006150 -168.3 0.999978 -78.20 0.999978 -78.20 0.006150 -168.2
8.51150000 0.006151 -168.3 0.999978 -78.20 0.999978 -78.20 0.006151 -168.2
8.51160000 0.006153 -168.3 0.999978 -78.21 0.999978 -78.21 0.006153 -168.2
8.51170000 0.006155 -168.3 0.999978 -78.21 0.999978 -78.21 0.006155 -168.2
8.51180000 0.006156 -168.3 0.999978 -78.21 0.999978 -78.21 0.006156 -168.2
8.51190000 0.006158 -168.3 0.999978 -78.21 0.999978 -78.21 0.006158 -168.2
8.51200000 0.006160 -168.3 0.999978 -78.21 0.999978 -78.21 0.006160 -168.2
8.51210000 0.006161 -168.3 0.999978 -78.21 0.999978 -78.21 0.006161 -168.2
8.51220000 0.006163 -168.3 0.999978 -78.21 0.999978 -78.21 0.006163 -168.2
8.51230000 0.006165 -168.3 0.999978 -78.21 0.999978 -78.21 0.006165 -168.2
8.51240000 0.006166 -168.3 0.999978 -78.21 0.999978 -78.21 0.006166 -168.2
8.51250000 0.006168 -168.3 0.999978 -78.22 0.999978 -78.22 0.006168 -168.2
8.51260000 0.006170 -168.3 0.999978 -78.22 0.999978 -78.22 0.006170 -168.2
8.51270000 0.006171 -168.3 0.999978 -78.22 0.999978 -78.22 0.006171 -168.2
8.51280000 0.006173 -168.3 0.999977 -78.22 0.999977 -78.22 0.006173 -168.2
8.51290000 0.006175 -168.3 0.999977 -78.22 0.999977 -78.22 0.006175 -168.2
8.51300000 0.006176 -168.3 0.999977 -78.22 0.999977 -78.22 0.006176 -168.2
8.51310000 0.006178 -168.3 0.999977 -78.22 0.999977 -78.22 0.006178 -168.2
8.51320000 0.006180 -168.3 0.999977 -78.22 0.999977 -78.22 0.006180 -168.2
8.51330000 0.006181 -168.3 0.999977 -78.22 0.999977 -78.22 0.006181 -168.2
8.51340000 0.006183 -168.3 0.999977 -78.22 0.999977 -78.22 0.006183 -168.2
8.51350000 0.006185 -168.3 0.999977 -78.23 0.999977 -78.23 0.006185 -168.2
8.51360000 0.006186 -168.3 0.999977 -78.23 0.999977 -78.23 0.006186 -168.2
8.51370000 0.006188 -168.3 0.999977 -78.23 0.999977 -78.23 0.006188 -168.2
8.51380000 0.006190 -168.3 0.999977 -78.23 0.999977 -78.23 0.006190 -168.2
8.51390000 0.006191 -168.3 0.999977 -78.23 0.999977 -78.23 0.006191 -168.2
8.51400000 0.006193 -168.3 0.999977 -78.23 0.999977 -78.23 0.006193 -168.2
8.51410000 0.006195 -168.3 0.999977 -78.23 0.999977 -78.23 0.006195 -168.2
8.51420000 0.006196 -168.3 0.999977 -78.23 0.999977 -78.23 0.006196 -168.2
8.51430000 0.006198 -168.3 0.999977 -78.23 0.999977 -78.23 0.006198 -168.2
8.51440000 0.006200 -168.3 0.999977 -78.23 0.999977 -78.23 0.006200 -168.2
8.51450000 0.006202 -168.3 0.999977 -78.24 0.999977 -78.24 0.006202 -168.2
8.51460000 0.006203 -168.3 0.999977 -78.24 0.999977 -78.24 0.006203 -168.2
8.51470000 0.006205 -168.3 0.999977 -78.24 0.999977 -78.24 0.006205 -168.2
8.51480000 0.006207 -168.3 0.999977 -78.24 0.999977 -78.24 0.006207 -168.2
8.51490000 0.006208 -168.3 0.999977 -78.24 0.999977 -78.24 0.006208 -168.2
8.51500000 0.006210 -168.3 0.999977 -78.24 0.999977 -78.24 0.006210 -168.2
8.51510000 0.006212 -168.3 0.999977 -78.24 0.999977 -78.24 0.006212 -168.2
8.51520000 0.006214 -168.3 0.999977 -78.24 0.999977 -78.24 0.006214 -168.2
8.51530000 0.006215 -168.3 0.999977 -78.24 0.999977 -78.24 0.006215 -168.2
8.51540000 0.006217 -168.3 0.999977 -78.24 0.999977 -78.24 0.006217 -168.2
8.51550000 0.006219 -168.3 0.999977 -78.25 0.999977 -78.25 0.006219 -168.2
8.51560000 0.006221 -168.3 0.999977 -78.25 0.999977 -78.25 0.006221 -168.2
8.51570000 0.006222 -168.3 0.999977 -78.25 0.999977 -78.25 0.006222 -168.2
8.51580000 0.006224 -168.3 0.999977 -78.25 0.999977 -78.25 0.006224 -168.2
8.51590000 0.006226 -168.3 0.999977 -78.25 0.999977 -78.25 0.006226 -168.2
8.51600000 0.006228 -168.3 0.999977 -78.25 0.999977 -78.25 0.006228 -168.2
8.51610000 0.006229 -168.3 0.999977 -78.25 0.999977 -78.25 0.006229 -168.2
8.51620000 0.006231 -168.3 0.999977 -78.25 0.999977 -78.25 0.006231 -168.2
8.51630000 0.006233 -168.3 0.999977 -78.25 0.999977 -78.25 0.006233 -168.2
8.51640000 0.006235 -168.3 0.999977 -78.25 0.999977 -78.25 0.006235 -168.2
8.51650000 0.006237 -168.3 0.999977 -78.26 0.999977 -78.26 0.006237 -168.2
8.51660000 0.006238 -168.3 0.999977 -78.26 0.999977 -78.26 0.006238 -168.2
8.51670000 0.006240 -168.3 0.999977 -78.26 0.999977 -78.26 0.006240 -168.2
8.51680000 0.006242 -168.3 0.999977 -78.26 0.999977 -78.26 0.006242 -168.2
8.51690000 0.006244 -168.3 0.999977 -78.26 0.999977 -78.26 0.006244 -168.2
8.51700000 0.006245 -168.3 0.999977 -78.26 0.999977 -78.26 0.006245 -168.2
8.51710000 0.006247 -168.3 0.999977 -78.26 0.999977 -78.26 0.006247 -168.2
8.51720000 0.006249 -168.3 0.999977 -78.26 0.999977 -78.26 0.006249 -168.2
8.51730000 0.006251 -168.3 0.999977 -78.26 0.999977 -78.26 0.006251 -168.2
8.51740000 0.006253 -168.3 0.999977 -78.26 0.999977 -78.26 0.006253 -168.2
8.51750000 0.006255 -168.3 0.999977 -78.27 0.999977 -78.27 0.006255 -168.2
8.51760000 0.006256 -168.3 0.999977 -78.27 0.999977 -78.27 0.006256 -168.2
8.51770000 0.006258 -168.3 0.999977 -78.27 0.999977 -78.27 0.006258 -168.2
8.51780000 0.006260 -168.3 0.999977 -78.27 0.999977 -78.27 0.006260 -168.2
8.51790000 0.006262 -168.3 0.999977 -78.27 0.999977 -78.27 0.006262 -168.2
8.51800000 0.006264 -168.3 0.999977 -78.27 0.999977 -78.27 0.006264 -168.2
8.51810000 0.006265 -168.3 0.999977 -78.27 0.999977 -78.27 0.006265 -168.2
8.51820000 0.006267 -168.3 0.999977 -78.27 0.999977 -78.27 0.006267 -168.2
8.51830000 0.006269 -168.3 0.999977 -78.27 0.999977 -78.27 0.006269 -168.2
8.51840000 0.006271 -168.4 0.999977 -78.28 0.999977 -78.28 0.006271 -168.2
8.51850000 0.006273 -168.4 0.999977 -78.28 0.999977 -78.28 0.006273 -168.2
8.51860000 0.006275 -168.4 0.999977 -78.28 0.999977 -78.28 0.006275 -168.2
8.51870000 0.006277 -168.4 0.999977 -78.28 0.999977 -78.28 0.006277 -168.2
8.51880000 0.006278 -168.4 0.999977 -78.28 0.999977 -78.28 0.006278 -168.3
8.51890000 0.006280 -168.4 0.999977 -78.28 0.999977 -78.28 0.006280 -168.3
8.51900000 0.006282 -168.4 0.999977 -78.28 0.999977 -78.28 0.006282 -168.3
8.51910000 0.006284 -168.4 0.999977 -78.28 0.999977 -78.28 0.006284 -168.3
8.51920000 0.006286 -168.4 0.999977 -78.28 0.999977 -78.28 0.006286 -168.3
8.51930000 0.006288 -168.4 0.999977 -78.28 0.999977 -78.28 0.006288 -168.3
8.51940000 0.006290 -168.4 0.999977 -78.29 0.999977 -78.29 0.006290 -168.3
8.51950000 0.006292 -168.4 0.999977 -78.29 0.999977 -78.29 0.006292 -168.3
8.51960000 0.006293 -168.4 0.999977 -78.29 0.999977 -78.29 0.006293 -168.3
8.51970000 0.006295 -168.4 0.999977 -78.29 0.999977 -78.29 0.006295 -168.3
8.51980000 0.006297 -168.4 0.999977 -78.29 0.999977 -78.29 0.006297 -168.3
8.51990000 0.006299 -168.4 0.999977 -78.29 0.999977 -78.29 0.006299 -168.3
8.52000000 0.006301 -168.4 0.999977 -78.29 0.999977 -78.29 0.006301 -168.3
8.52010000 0.006303 -168.4 0.999977 -78.29 0.999977 -78.29 0.006303 -168.3
8.52020000 0.006305 -168.4 0.999977 -78.29 0.999977 -78.29 0.006305 -168.3
8.52030000 0.006307 -168.4 0.999977 -78.29 0.999977 -78.29 0.006307 -168.3
8.52040000 0.006309 -168.4 0.999977 -78.30 0.999977 -78.30 0.006309 -168.3
8.52050000 0.006311 -168.4 0.999977 -78.30 0.999977 -78.30 0.006311 -168.3
8.52060000 0.006313 -168.4 0.999977 -78.30 0.999977 -78.30 0.006313 -168.3
8.52070000 0.006314 -168.4 0.999977 -78.30 0.999977 -78.30 0.006314 -168.3
8.52080000 0.006316 -168.4 0.999977 -78.30 0.999977 -78.30 0.006316 -168.3
8.52090000 0.006318 -168.4 0.999977 -78.30 0.999977 -78.30 0.006318 -168.3
8.52100000 0.006320 -168.4 0.999977 -78.30 0.999977 -78.30 0.006320 -168.3
8.52110000 0.006322 -168.4 0.999977 -78.30 0.999977 -78.30 0.006322 -168.3
8.52120000 0.006324 -168.4 0.999976 -78.30 0.999976 -78.30 0.006324 -168.3
8.52130000 0.006326 -168.4 0.999976 -78.30 0.999976 -78.30 0.006326 -168.3
8.52140000 0.006328 -168.4 0.999976 -78.31 0.999976 -78.31 0.006328 -168.3
8.52150000 0.006330 -168.4 0.999976 -78.31 0.999976 -78.31 0.006330 -168.3
8.52160000 0.006332 -168.4 0.999976 -78.31 0.999976 -78.31 0.006332 -168.3
8.52170000 0.006334 -168.4 0.999976 -78.31 0.999976 -78.31 0.006334 -168.3
8.52180000 0.006336 -168.4 0.999976 -78.31 0.999976 -78.31 0.006336 -168.3
8.52190000 0.006338 -168.4 0.999976 -78.31 0.999976 -78.31 0.006338 -168.3
8.52200000 0.006340 -168.4 0.999976 -78.31 0.999976 -78.31 0.006340 -168.3
8.52210000 0.006342 -168.4 0.999976 -78.31 0.999976 -78.31 0.006342 -168.3
8.52220000 0.006344 -168.4 0.999976 -78.31 0.999976 -78.31 0.006344 -168.3
8.52230000 0.006346 -168.4 0.999976 -78.32 0.999976 -78.32 0.006346 -168.3
8.52240000 0.006348 -168.4 0.999976 -78.32 0.999976 -78.32 0.006348 -168.3
8.52250000 0.006350 -168.4 0.999976 -78.32 0.999976 -78.32 0.006350 -168.3
8.52260000 0.006352 -168.4 0.999976 -78.32 0.999976 -78.32 0.006352 -168.3
8.52270000 0.006354 -168.4 0.999976 -78.32 0.999976 -78.32 0.006354 -168.3
8.52280000 0.006356 -168.4 0.999976 -78.32 0.999976 -78.32 0.006356 -168.3
8.52290000 0.006358 -168.4 0.999976 -78.32 0.999976 -78.32 0.006358 -168.3
8.52300000 0.006360 -168.4 0.999976 -78.32 0.999976 -78.32 0.006360 -168.3
8.52310000 0.006362 -168.4 0.999976 -78.32 0.999976 -78.32 0.006362 -168.3
8.52320000 0.006364 -168.4 0.999976 -78.32 0.999976 -78.32 0.006364 -168.3
8.52330000 0.006366 -168.4 0.999976 -78.33 0.999976 -78.33 0.006366 -168.3
8.52340000 0.006368 -168.4 0.999976 -78.33 0.999976 -78.33 0.006368 -168.3
8.52350000 0.006370 -168.4 0.999976 -78.33 0.999976 -78.33 0.006370 -168.3
8.52360000 0.006372 -168.4 0.999976 -78.33 0.999976 -78.33 0.006372 -168.3
8.52370000 0.006374 -168.4 0.999976 -78.33 0.999976 -78.33 0.006374 -168.3
8.52380000 0.006376 -168.4 0.999976 -78.33 0.999976 -78.33 0.006376 -168.3
8.52390000 0.006378 -168.4 0.999976 -78.33 0.999976 -78.33 0.006378 -168.3
8.52400000 0.006380 -168.4 0.999976 -78.33 0.999976 -78.33 0.006380 -168.3
8.52410000 0.006382 -168.4 0.999976 -78.33 0.999976 -78.33 0.006382 -168.3
8.52420000 0.006385 -168.4 0.999976 -78.33 0.999976 -78.33 0.006385 -168.3
8.52430000 0.006387 -168.4 0.999976 -78.34 0.999976 -78.34 0.006387 -168.3
8.52440000 0.006389 -168.4 0.999976 -78.34 0.999976 -78.34 0.006389 -168.3
8.52450000 0.006391 -168.4 0.999976 -78.34 0.999976 -78.34 0.006391 -168.3
8.52460000 0.006393 -168.4 0.999976 -78.34 0.999976 -78.34 0.006393 -168.3
8.52470000 0.006395 -168.4 0.999976 -78.34 0.999976 -78.34 0.006395 -168.3
8.52480000 0.006397 -168.4 0.999976 -78.34 0.999976 -78.34 0.006397 -168.3
8.52490000 0.006399 -168.4 0.999976 -78.34 0.999976 -78.34 0.006399 -168.3
8.52500000 0.006401 -168.4 0.999976 -78.34 0.999976 -78.34 0.006401 -168.3
8.52510000 0.006403 -168.4 0.999976 -78.34 0.999976 -78.34 0.006403 -168.3
8.52520000 0.006405 -168.4 0.999976 -78.35 0.999976 -78.35 0.006405 -168.3
8.52530000 0.006408 -168.4 0.999976 -78.35 0.999976 -78.35 0.006408 -168.3
8.52540000 0.006410 -168.4 0.999976 -78.35 0.999976 -78.35 0.006410 -168.3
8.52550000 0.006412 -168.4 0.999976 -78.35 0.999976 -78.35 0.006412 -168.3
8.52560000 0.006414 -168.4 0.999976 -78.35 0.999976 -78.35 0.006414 -168.3
8.52570000 0.006416 -168.4 0.999976 -78.35 0.999976 -78.35 0.006416 -168.3
8.52580000 0.006418 -168.4 0.999976 -78.35 0.999976 -78.35 0.006418 -168.3
8.52590000 0.006420 -168.4 0.999976 -78.35 0.999976 -78.35 0.006420 -168.3
8.52600000 0.006423 -168.4 0.999976 -78.35 0.999976 -78.35 0.006423 -168.3
8.52610000 0.006425 -168.4 0.999976 -78.35 0.999976 -78.35 0.006425 -168.3
8.52620000 0.006427 -168.4 0.999976 -78.36 0.999976 -78.36 0.006427 -168.3
8.52630000 0.006429 -168.4 0.999976 -78.36 0.999976 -78.36 0.006429 -168.3
8.52640000 0.006431 -168.4 0.999976 -78.36 0.999976 -78.36 0.006431 -168.3
8.52650000 0.006433 -168.4 0.999976 -78.36 0.999976 -78.36 0.006433 -168.3
8.52660000 0.006436 -168.4 0.999976 -78.36 0.999976 -78.36 0.006436 -168.3
8.52670000 0.006438 -168.4 0.999976 -78.36 0.999976 -78.36 0.006438 -168.3
8.52680000 0.006440 -168.4 0.999976 -78.36 0.999976 -78.36 0.006440 -168.3
8.52690000 0.006442 -168.4 0.999976 -78.36 0.999976 -78.36 0.006442 -168.3
8.52700000 0.006444 -168.4 0.999976 -78.36 0.999976 -78.36 0.006444 -168.3
8.52710000 0.006446 -168.4 0.999976 -78.37 0.999976 -78.37 0.006446 -168.3
8.52720000 0.006449 -168.4 0.999976 -78.37 0.999976 -78.37 0.006449 -168.3
8.52730000 0.006451 -168.4 0.999976 -78.37 0.999976 -78.37 0.006451 -168.3
8.52740000 0.006453 -168.4 0.999976 -78.37 0.999976 -78.37 0.006453 -168.3
8.52750000 0.006455 -168.4 0.999976 -78.37 0.999976 -78.37 0.006455 -168.3
8.52760000 0.006458 -168.4 0.999976 -78.37 0.999976 -78.37 0.006458 -168.3
8.52770000 0.006460 -168.4 0.999976 -78.37 0.999976 -78.37 0.006460 -168.3
8.52780000 0.006462 -168.5 0.999976 -78.37 0.999976 -78.37 0.006462 -168.3
8.52790000 0.006464 -168.5 0.999976 -78.37 0.999976 -78.37 0.006464 -168.3
8.52800000 0.006467 -168.5 0.999976 -78.37 0.999976 -78.37 0.006466 -168.3
8.52810000 0.006469 -168.5 0.999976 -78.38 0.999976 -78.38 0.006469 -168.3
8.52820000 0.006471 -168.5 0.999975 -78.38 0.999975 -78.38 0.006471 -168.3
8.52830000 0.006473 -168.5 0.999975 -78.38 0.999975 -78.38 0.006473 -168.3
8.52840000 0.006476 -168.5 0.999975 -78.38 0.999975 -78.38 0.006476 -168.3
8.52850000 0.006478 -168.5 0.999975 -78.38 0.999975 -78.38 0.006478 -168.3
8.52860000 0.006480 -168.5 0.999975 -78.38 0.999975 -78.38 0.006480 -168.3
8.52870000 0.006482 -168.5 0.999975 -78.38 0.999975 -78.38 0.006482 -168.3
8.52880000 0.006485 -168.5 0.999975 -78.38 0.999975 -78.38 0.006485 -168.4
8.52890000 0.006487 -168.5 0.999975 -78.38 0.999975 -78.38 0.006487 -168.4
8.52900000 0.006489 -168.5 0.999975 -78.38 0.999975 -78.38 0.006489 -168.4
8.52910000 0.006491 -168.5 0.999975 -78.39 0.999975 -78.39 0.006491 -168.4
8.52920000 0.006494 -168.5 0.999975 -78.39 0.999975 -78.39 0.006494 -168.4
8.52930000 0.006496 -168.5 0.999975 -78.39 0.999975 -78.39 0.006496 -168.4
8.52940000 0.006498 -168.5 0.999975 -78.39 0.999975 -78.39 0.006498 -168.4
8.52950000 0.006501 -168.5 0.999975 -78.39 0.999975 -78.39 0.006501 -168.4
8.52960000 0.006503 -168.5 0.999975 -78.39 0.999975 -78.39 0.006503 -168.4
8.52970000 0.006505 -168.5 0.999975 -78.39 0.999975 -78.39 0.006505 -168.4
8.52980000 0.006508 -168.5 0.999975 -78.39 0.999975 -78.39 0.006508 -168.4
8.52990000 0.006510 -168.5 0.999975 -78.39 0.999975 -78.39 0.006510 -168.4
8.53000000 0.006512 -168.5 0.999975 -78.40 0.999975 -78.40 0.006512 -168.4
8.53010000 0.006515 -168.5 0.999975 -78.40 0.999975 -78.40 0.006515 -168.4
8.53020000 0.006517 -168.5 0.999975 -78.40 0.999975 -78.40 0.006517 -168.4
8.53030000 0.006519 -168.5 0.999975 -78.40 0.999975 -78.40 0.006519 -168.4
8.53040000 0.006522 -168.5 0.999975 -78.40 0.999975 -78.40 0.006522 -168.4
8.53050000 0.006524 -168.5 0.999975 -78.40 0.999975 -78.40 0.006524 -168.4
8.53060000 0.006527 -168.5 0.999975 -78.40 0.999975 -78.40 0.006527 -168.4
8.53070000 0.006529 -168.5 0.999975 -78.40 0.999975 -78.40 0.006529 -168.4
8.53080000 0.006531 -168.5 0.999975 -78.40 0.999975 -78.40 0.006531 -168.4
8.53090000 0.006534 -168.5 0.999975 -78.40 0.999975 -78.40 0.006534 -168.4
8.53100000 0.006536 -168.5 0.999975 -78.41 0.999975 -78.41 0.006536 -168.4
8.53110000 0.006538 -168.5 0.999975 -78.41 0.999975 -78.41 0.006538 -168.4
8.53120000 0.006541 -168.5 0.999975 -78.41 0.999975 -78.41 0.006541 -168.4
8.53130000 0.006543 -168.5 0.999975 -78.41 0.999975 -78.41 0.006543 -168.4
8.53140000 0.006546 -168.5 0.999975 -78.41 0.999975 -78.41 0.006546 -168.4
8.53150000 0.006548 -168.5 0.999975 -78.41 0.999975 -78.41 0.006548 -168.4
8.53160000 0.006551 -168.5 0.999975 -78.41 0.999975 -78.41 0.006551 -168.4
8.53170000 0.006553 -168.5 0.999975 -78.41 0.999975 -78.41 0.006553 -168.4
8.53180000 0.006555 -168.5 0.999975 -78.41 0.999975 -78.41 0.006555 -168.4
8.53190000 0.006558 -168.5 0.999975 -78.42 0.999975 -78.42 0.006558 -168.4
8.53200000 0.006560 -168.5 0.999975 -78.42 0.999975 -78.42 0.006560 -168.4
8.53210000 0.006563 -168.5 0.999975 -78.42 0.999975 -78.42 0.006563 -168.4
8.53220000 0.006565 -168.5 0.999975 -78.42 0.999975 -78.42 0.006565 -168.4
8.53230000 0.006568 -168.5 0.999975 -78.42 0.999975 -78.42 0.006568 -168.4
8.53240000 0.006570 -168.5 0.999975 -78.42 0.999975 -78.42 0.006570 -168.4
8.53250000 0.006573 -168.5 0.999975 -78.42 0.999975 -78.42 0.006573 -168.4
8.53260000 0.006575 -168.5 0.999975 -78.42 0.999975 -78.42 0.006575 -168.4
8.53270000 0.006578 -168.5 0.999975 -78.42 0.999975 -78.42 0.006578 -168.4
8.53280000 0.006580 -168.5 0.999975 -78.43 0.999975 -78.43 0.006580 -168.4
8.53290000 0.006583 -168.5 0.999975 -78.43 0.999975 -78.43 0.006583 -168.4
8.53300000 0.006585 -168.5 0.999975 -78.43 0.999975 -78.43 0.006585 -168.4
8.53310000 0.006588 -168.5 0.999975 -78.43 0.999975 -78.43 0.006588 -168.4
8.53320000 0.006590 -168.5 0.999975 -78.43 0.999975 -78.43 0.006590 -168.4
8.53330000 0.006593 -168.5 0.999975 -78.43 0.999975 -78.43 0.006593 -168.4
8.53340000 0.006595 -168.5 0.999975 -78.43 0.999975 -78.43 0.006595 -168.4
8.53350000 0.006598 -168.5 0.999975 -78.43 0.999975 -78.43 0.006598 -168.4
8.53360000 0.006600 -168.5 0.999975 -78.43 0.999975 -78.43 0.006600 -168.4
8.53370000 0.006603 -168.5 0.999975 -78.43 0.999975 -78.43 0.006603 -168.4
8.53380000 0.006605 -168.5 0.999975 -78.44 0.999975 -78.44 0.006605 -168.4
8.53390000 0.006608 -168.5 0.999975 -78.44 0.999975 -78.44 0.006608 -168.4
8.53400000 0.006610 -168.5 0.999975 -78.44 0.999975 -78.44 0.006610 -168.4
8.53410000 0.006613 -168.5 0.999974 -78.44 0.999974 -78.44 0.006613 -168.4
8.53420000 0.006615 -168.5 0.999974 -78.44 0.999974 -78.44 0.006615 -168.4
8.53430000 0.006618 -168.5 0.999974 -78.44 0.999974 -78.44 0.006618 -168.4
8.53440000 0.006621 -168.5 0.999974 -78.44 0.999974 -78.44 0.006621 -168.4
8.53450000 0.006623 -168.5 0.999974 -78.44 0.999974 -78.44 0.006623 -168.4
8.53460000 0.006626 -168.5 0.999974 -78.44 0.999974 -78.44 0.006626 -168.4
8.53470000 0.006628 -168.5 0.999974 -78.45 0.999974 -78.45 0.006628 -168.4
8.53480000 0.006631 -168.5 0.999974 -78.45 0.999974 -78.45 0.006631 -168.4
8.53490000 0.006634 -168.5 0.999974 -78.45 0.999974 -78.45 0.006634 -168.4
8.53500000 0.006636 -168.5 0.999974 -78.45 0.999974 -78.45 0.006636 -168.4
8.53510000 0.006639 -168.5 0.999974 -78.45 0.999974 -78.45 0.006639 -168.4
8.53520000 0.006641 -168.5 0.999974 -78.45 0.999974 -78.45 0.006641 -168.4
8.53530000 0.006644 -168.5 0.999974 -78.45 0.999974 -78.45 0.006644 -168.4
8.53540000 0.006647 -168.5 0.999974 -78.45 0.999974 -78.45 0.006647 -168.4
8.53550000 0.006649 -168.5 0.999974 -78.45 0.999974 -78.45 0.006649 -168.4
8.53560000 0.006652 -168.5 0.999974 -78.45 0.999974 -78.45 0.006652 -168.4
8.53570000 0.006655 -168.5 0.999974 -78.46 0.999974 -78.46 0.006655 -168.4
8.53580000 0.006657 -168.5 0.999974 -78.46 0.999974 -78.46 0.006657 -168.4
8.53590000 0.006660 -168.5 0.999974 -78.46 0.999974 -78.46 0.006660 -168.4
8.53600000 0.006663 -168.5 0.999974 -78.46 0.999974 -78.46 0.006663 -168.4
8.53610000 0.006665 -168.5 0.999974 -78.46 0.999974 -78.46 0.006665 -168.4
8.53620000 0.006668 -168.5 0.999974 -78.46 0.999974 -78.46 0.006668 -168.4
8.53630000 0.006671 -168.5 0.999974 -78.46 0.999974 -78.46 0.006671 -168.4
8.53640000 0.006673 -168.5 0.999974 -78.46 0.999974 -78.46 0.006673 -168.4
8.53650000 0.006676 -168.5 0.999974 -78.46 0.999974 -78.46 0.006676 -168.4
8.53660000 0.006679 -168.5 0.999974 -78.47 0.999974 -78.47 0.006679 -168.4
8.53670000 0.006682 -168.5 0.999974 -78.47 0.999974 -78.47 0.006682 -168.4
8.53680000 0.006684 -168.5 0.999974 -78.47 0.999974 -78.47 0.006684 -168.4
8.53690000 0.006687 -168.6 0.999974 -78.47 0.999974 -78.47 0.006687 -168.4
8.53700000 0.006690 -168.6 0.999974 -78.47 0.999974 -78.47 0.006690 -168.4
8.53710000 0.006693 -168.6 0.999974 -78.47 0.999974 -78.47 0.006693 -168.4
8.53720000 0.006695 -168.6 0.999974 -78.47 0.999974 -78.47 0.006695 -168.4
8.53730000 0.006698 -168.6 0.999974 -78.47 0.999974 -78.47 0.006698 -168.4
8.53740000 0.006701 -168.6 0.999974 -78.47 0.999974 -78.47 0.006701 -168.4
8.53750000 0.006704 -168.6 0.999974 -78.48 0.999974 -78.48 0.006704 -168.4
8.53760000 0.006706 -168.6 0.999974 -78.48 0.999974 -78.48 0.006706 -168.4
8.53770000 0.006709 -168.6 0.999974 -78.48 0.999974 -78.48 0.006709 -168.4
8.53780000 0.006712 -168.6 0.999974 -78.48 0.999974 -78.48 0.006712 -168.4
8.53790000 0.006715 -168.6 0.999974 -78.48 0.999974 -78.48 0.006715 -168.4
8.53800000 0.006718 -168.6 0.999974 -78.48 0.999974 -78.48 0.006718 -168.4
8.53810000 0.006720 -168.6 0.999974 -78.48 0.999974 -78.48 0.006720 -168.4
8.53820000 0.006723 -168.6 0.999974 -78.48 0.999974 -78.48 0.006723 -168.4
8.53830000 0.006726 -168.6 0.999974 -78.48 0.999974 -78.48 0.006726 -168.4
8.53840000 0.006729 -168.6 0.999974 -78.49 0.999974 -78.49 0.006729 -168.4
8.53850000 0.006732 -168.6 0.999974 -78.49 0.999974 -78.49 0.006732 -168.4
8.53860000 0.006735 -168.6 0.999974 -78.49 0.999974 -78.49 0.006735 -168.5
8.53870000 0.006737 -168.6 0.999974 -78.49 0.999974 -78.49 0.006737 -168.5
8.53880000 0.006740 -168.6 0.999974 -78.49 0.999974 -78.49 0.006740 -168.5
8.53890000 0.006743 -168.6 0.999974 -78.49 0.999974 -78.49 0.006743 -168.5
8.53900000 0.006746 -168.6 0.999974 -78.49 0.999974 -78.49 0.006746 -168.5
8.53910000 0.006749 -168.6 0.999974 -78.49 0.999974 -78.49 0.006749 -168.5
8.53920000 0.006752 -168.6 0.999974 -78.49 0.999974 -78.49 0.006752 -168.5