! Sonnet Data File
! From: emgraph Version : 16.52
! From Project: transmon_brg
! Data is De-embedded 
! Data File Written: 11/11/2017 22:44:25
!< HDATE 11/11/2017 16:55:33
!< MDATE 11/11/2017 17:38:18
!< PARAMS
!< Lj = 15.24
!< Gap = 6.0
!< Width = 10.0
!< Airgap = 6.0
!< Pwidth = 2000.0
!< Dist = 2000.0
!< END PARAMS
# GHZ S MA R 51.80000
8.50000000 0.002456 -173.8 0.999992 -79.80 0.999992 -79.80 0.002455 -166.0
!< P1 F=8.5 Eeff=(6.44695349 -2.9785e-5) Z0=(51.7999087 1.19092e-4) R=0.0 C=0.0 
!< P2 F=8.5 Eeff=(6.44695349 -2.9785e-5) Z0=(51.7999087 1.19092e-4) R=0.0 C=0.0 
8.50020000 0.002471 -173.8 0.999992 -79.81 0.999992 -79.81 0.002470 -166.0
8.50040000 0.002486 -173.7 0.999992 -79.81 0.999992 -79.81 0.002486 -166.0
8.50060000 0.002502 -173.7 0.999992 -79.81 0.999992 -79.81 0.002501 -166.1
8.50080000 0.002517 -173.7 0.999992 -79.82 0.999992 -79.82 0.002517 -166.1
8.50100000 0.002533 -173.7 0.999992 -79.82 0.999992 -79.82 0.002532 -166.1
8.50120000 0.002548 -173.7 0.999992 -79.82 0.999992 -79.82 0.002548 -166.1
8.50140000 0.002564 -173.6 0.999992 -79.82 0.999992 -79.82 0.002563 -166.2
8.50160000 0.002579 -173.6 0.999992 -79.83 0.999992 -79.83 0.002579 -166.2
8.50180000 0.002595 -173.6 0.999992 -79.83 0.999992 -79.83 0.002594 -166.2
8.50200000 0.002610 -173.6 0.999992 -79.83 0.999992 -79.83 0.002610 -166.2
8.50220000 0.002626 -173.6 0.999992 -79.83 0.999992 -79.83 0.002625 -166.2
8.50240000 0.002642 -173.6 0.999992 -79.84 0.999992 -79.84 0.002641 -166.3
8.50260000 0.002657 -173.5 0.999992 -79.84 0.999992 -79.84 0.002657 -166.3
8.50280000 0.002673 -173.5 0.999992 -79.84 0.999992 -79.84 0.002672 -166.3
8.50300000 0.002689 -173.5 0.999992 -79.85 0.999992 -79.85 0.002688 -166.3
8.50320000 0.002704 -173.5 0.999992 -79.85 0.999992 -79.85 0.002704 -166.4
8.50340000 0.002720 -173.5 0.999992 -79.85 0.999992 -79.85 0.002720 -166.4
8.50360000 0.002736 -173.5 0.999992 -79.85 0.999992 -79.85 0.002735 -166.4
8.50380000 0.002752 -173.4 0.999992 -79.86 0.999992 -79.86 0.002751 -166.4
8.50400000 0.002767 -173.4 0.999992 -79.86 0.999992 -79.86 0.002767 -166.4
8.50420000 0.002783 -173.4 0.999992 -79.86 0.999992 -79.86 0.002783 -166.5
8.50440000 0.002799 -173.4 0.999991 -79.87 0.999991 -79.87 0.002799 -166.5
8.50460000 0.002815 -173.4 0.999991 -79.87 0.999991 -79.87 0.002814 -166.5
8.50480000 0.002831 -173.4 0.999991 -79.87 0.999991 -79.87 0.002830 -166.5
8.50500000 0.002847 -173.4 0.999991 -79.87 0.999991 -79.87 0.002846 -166.5
8.50520000 0.002863 -173.3 0.999991 -79.88 0.999991 -79.88 0.002862 -166.6
8.50540000 0.002879 -173.3 0.999991 -79.88 0.999991 -79.88 0.002878 -166.6
8.50560000 0.002895 -173.3 0.999991 -79.88 0.999991 -79.88 0.002894 -166.6
8.50580000 0.002911 -173.3 0.999991 -79.89 0.999991 -79.89 0.002910 -166.6
8.50600000 0.002927 -173.3 0.999991 -79.89 0.999991 -79.89 0.002926 -166.6
8.50620000 0.002943 -173.3 0.999991 -79.89 0.999991 -79.89 0.002942 -166.6
8.50640000 0.002959 -173.3 0.999991 -79.89 0.999991 -79.89 0.002958 -166.7
8.50660000 0.002975 -173.3 0.999991 -79.90 0.999991 -79.90 0.002975 -166.7
8.50680000 0.002991 -173.2 0.999991 -79.90 0.999991 -79.90 0.002991 -166.7
8.50700000 0.003007 -173.2 0.999991 -79.90 0.999991 -79.90 0.003007 -166.7
8.50720000 0.003023 -173.2 0.999991 -79.90 0.999991 -79.90 0.003023 -166.7
8.50740000 0.003040 -173.2 0.999991 -79.91 0.999991 -79.91 0.003039 -166.8
8.50760000 0.003056 -173.2 0.999991 -79.91 0.999991 -79.91 0.003055 -166.8
8.50780000 0.003072 -173.2 0.999991 -79.91 0.999991 -79.91 0.003072 -166.8
8.50800000 0.003088 -173.2 0.999991 -79.92 0.999991 -79.92 0.003088 -166.8
8.50820000 0.003105 -173.2 0.999991 -79.92 0.999991 -79.92 0.003104 -166.8
8.50840000 0.003121 -173.1 0.999990 -79.92 0.999990 -79.92 0.003121 -166.8
8.50860000 0.003137 -173.1 0.999990 -79.92 0.999990 -79.92 0.003137 -166.9
8.50880000 0.003154 -173.1 0.999990 -79.93 0.999990 -79.93 0.003153 -166.9
8.50900000 0.003170 -173.1 0.999990 -79.93 0.999990 -79.93 0.003170 -166.9
8.50920000 0.003187 -173.1 0.999990 -79.93 0.999990 -79.93 0.003186 -166.9
8.50940000 0.003203 -173.1 0.999990 -79.94 0.999990 -79.94 0.003203 -166.9
8.50960000 0.003219 -173.1 0.999990 -79.94 0.999990 -79.94 0.003219 -166.9
8.50980000 0.003236 -173.1 0.999990 -79.94 0.999990 -79.94 0.003236 -167.0
8.51000000 0.003252 -173.0 0.999990 -79.94 0.999990 -79.94 0.003252 -167.0
8.51020000 0.003269 -173.0 0.999990 -79.95 0.999990 -79.95 0.003269 -167.0
8.51040000 0.003286 -173.0 0.999990 -79.95 0.999990 -79.95 0.003285 -167.0
8.51060000 0.003302 -173.0 0.999990 -79.95 0.999990 -79.95 0.003302 -167.0
8.51080000 0.003319 -173.0 0.999990 -79.96 0.999990 -79.96 0.003318 -167.0
8.51100000 0.003335 -173.0 0.999990 -79.96 0.999990 -79.96 0.003335 -167.0
8.51120000 0.003352 -173.0 0.999990 -79.96 0.999990 -79.96 0.003352 -167.1
8.51140000 0.003369 -173.0 0.999990 -79.96 0.999990 -79.96 0.003368 -167.1
8.51160000 0.003385 -173.0 0.999990 -79.97 0.999990 -79.97 0.003385 -167.1
8.51180000 0.003402 -173.0 0.999990 -79.97 0.999990 -79.97 0.003402 -167.1
8.51200000 0.003419 -172.9 0.999989 -79.97 0.999989 -79.97 0.003419 -167.1
8.51220000 0.003436 -172.9 0.999989 -79.98 0.999989 -79.98 0.003435 -167.1
8.51240000 0.003453 -172.9 0.999989 -79.98 0.999989 -79.98 0.003452 -167.2
8.51260000 0.003469 -172.9 0.999989 -79.98 0.999989 -79.98 0.003469 -167.2
8.51280000 0.003486 -172.9 0.999989 -79.98 0.999989 -79.98 0.003486 -167.2
8.51300000 0.003503 -172.9 0.999989 -79.99 0.999989 -79.99 0.003503 -167.2
8.51320000 0.003520 -172.9 0.999989 -79.99 0.999989 -79.99 0.003520 -167.2
8.51340000 0.003537 -172.9 0.999989 -79.99 0.999989 -79.99 0.003537 -167.2
8.51360000 0.003554 -172.9 0.999989 -80.00 0.999989 -80.00 0.003554 -167.2
8.51380000 0.003571 -172.9 0.999989 -80.00 0.999989 -80.00 0.003571 -167.3
8.51400000 0.003588 -172.9 0.999989 -80.00 0.999989 -80.00 0.003588 -167.3
8.51420000 0.003605 -172.8 0.999989 -80.00 0.999989 -80.00 0.003605 -167.3
8.51440000 0.003622 -172.8 0.999989 -80.01 0.999989 -80.01 0.003622 -167.3
8.51460000 0.003639 -172.8 0.999989 -80.01 0.999989 -80.01 0.003639 -167.3
8.51480000 0.003656 -172.8 0.999989 -80.01 0.999989 -80.01 0.003656 -167.3
8.51500000 0.003673 -172.8 0.999989 -80.02 0.999989 -80.02 0.003673 -167.3
8.51520000 0.003691 -172.8 0.999988 -80.02 0.999988 -80.02 0.003690 -167.3
8.51540000 0.003708 -172.8 0.999988 -80.02 0.999988 -80.02 0.003708 -167.4
8.51560000 0.003725 -172.8 0.999988 -80.02 0.999988 -80.02 0.003725 -167.4
8.51580000 0.003742 -172.8 0.999988 -80.03 0.999988 -80.03 0.003742 -167.4
8.51600000 0.003760 -172.8 0.999988 -80.03 0.999988 -80.03 0.003759 -167.4
8.51620000 0.003777 -172.8 0.999988 -80.03 0.999988 -80.03 0.003777 -167.4
8.51640000 0.003794 -172.8 0.999988 -80.04 0.999988 -80.04 0.003794 -167.4
8.51660000 0.003812 -172.8 0.999988 -80.04 0.999988 -80.04 0.003811 -167.4
8.51680000 0.003829 -172.7 0.999988 -80.04 0.999988 -80.04 0.003829 -167.5
8.51700000 0.003846 -172.7 0.999988 -80.04 0.999988 -80.04 0.003846 -167.5
8.51720000 0.003864 -172.7 0.999988 -80.05 0.999988 -80.05 0.003863 -167.5
8.51740000 0.003881 -172.7 0.999988 -80.05 0.999988 -80.05 0.003881 -167.5
8.51760000 0.003899 -172.7 0.999988 -80.05 0.999988 -80.05 0.003898 -167.5
8.51780000 0.003916 -172.7 0.999988 -80.06 0.999988 -80.06 0.003916 -167.5
8.51800000 0.003934 -172.7 0.999987 -80.06 0.999987 -80.06 0.003933 -167.5
8.51820000 0.003951 -172.7 0.999987 -80.06 0.999987 -80.06 0.003951 -167.5
8.51840000 0.003969 -172.7 0.999987 -80.06 0.999987 -80.06 0.003969 -167.6
8.51860000 0.003987 -172.7 0.999987 -80.07 0.999987 -80.07 0.003986 -167.6
8.51880000 0.004004 -172.7 0.999987 -80.07 0.999987 -80.07 0.004004 -167.6
8.51900000 0.004022 -172.7 0.999987 -80.07 0.999987 -80.07 0.004022 -167.6
8.51920000 0.004040 -172.7 0.999987 -80.08 0.999987 -80.08 0.004039 -167.6
8.51940000 0.004057 -172.7 0.999987 -80.08 0.999987 -80.08 0.004057 -167.6
8.51960000 0.004075 -172.6 0.999987 -80.08 0.999987 -80.08 0.004075 -167.6
8.51980000 0.004093 -172.6 0.999987 -80.08 0.999987 -80.08 0.004092 -167.6
8.52000000 0.004111 -172.6 0.999987 -80.09 0.999987 -80.09 0.004110 -167.6
8.52020000 0.004128 -172.6 0.999987 -80.09 0.999987 -80.09 0.004128 -167.7
8.52040000 0.004146 -172.6 0.999987 -80.09 0.999987 -80.09 0.004146 -167.7
8.52060000 0.004164 -172.6 0.999987 -80.10 0.999987 -80.10 0.004164 -167.7
8.52080000 0.004182 -172.6 0.999986 -80.10 0.999986 -80.10 0.004182 -167.7
8.52100000 0.004200 -172.6 0.999986 -80.10 0.999986 -80.10 0.004200 -167.7
8.52120000 0.004218 -172.6 0.999986 -80.10 0.999986 -80.10 0.004218 -167.7
8.52140000 0.004236 -172.6 0.999986 -80.11 0.999986 -80.11 0.004236 -167.7
8.52160000 0.004254 -172.6 0.999986 -80.11 0.999986 -80.11 0.004254 -167.7
8.52180000 0.004272 -172.6 0.999986 -80.11 0.999986 -80.11 0.004272 -167.7
8.52200000 0.004290 -172.6 0.999986 -80.12 0.999986 -80.12 0.004290 -167.8
8.52220000 0.004308 -172.6 0.999986 -80.12 0.999986 -80.12 0.004308 -167.8
8.52240000 0.004326 -172.6 0.999986 -80.12 0.999986 -80.12 0.004326 -167.8
8.52260000 0.004345 -172.6 0.999986 -80.13 0.999986 -80.13 0.004344 -167.8
8.52280000 0.004363 -172.6 0.999986 -80.13 0.999986 -80.13 0.004362 -167.8
8.52300000 0.004381 -172.5 0.999986 -80.13 0.999986 -80.13 0.004381 -167.8
8.52320000 0.004399 -172.5 0.999985 -80.13 0.999985 -80.13 0.004399 -167.8
8.52340000 0.004417 -172.5 0.999985 -80.14 0.999985 -80.14 0.004417 -167.8
8.52360000 0.004436 -172.5 0.999985 -80.14 0.999985 -80.14 0.004435 -167.8
8.52380000 0.004454 -172.5 0.999985 -80.14 0.999985 -80.14 0.004454 -167.9
8.52400000 0.004472 -172.5 0.999985 -80.15 0.999985 -80.15 0.004472 -167.9
8.52420000 0.004491 -172.5 0.999985 -80.15 0.999985 -80.15 0.004491 -167.9
8.52440000 0.004509 -172.5 0.999985 -80.15 0.999985 -80.15 0.004509 -167.9
8.52460000 0.004528 -172.5 0.999985 -80.15 0.999985 -80.15 0.004527 -167.9
8.52480000 0.004546 -172.5 0.999985 -80.16 0.999985 -80.16 0.004546 -167.9
8.52500000 0.004565 -172.5 0.999985 -80.16 0.999985 -80.16 0.004564 -167.9
8.52520000 0.004583 -172.5 0.999985 -80.16 0.999985 -80.16 0.004583 -167.9
8.52540000 0.004602 -172.5 0.999985 -80.17 0.999985 -80.17 0.004601 -167.9
8.52560000 0.004620 -172.5 0.999984 -80.17 0.999984 -80.17 0.004620 -168.0
8.52580000 0.004639 -172.5 0.999984 -80.17 0.999984 -80.17 0.004639 -168.0
8.52600000 0.004658 -172.5 0.999984 -80.18 0.999984 -80.18 0.004657 -168.0
8.52620000 0.004676 -172.5 0.999984 -80.18 0.999984 -80.18 0.004676 -168.0
8.52640000 0.004695 -172.5 0.999984 -80.18 0.999984 -80.18 0.004695 -168.0
8.52660000 0.004714 -172.5 0.999984 -80.18 0.999984 -80.18 0.004713 -168.0
8.52680000 0.004732 -172.5 0.999984 -80.19 0.999984 -80.19 0.004732 -168.0
8.52700000 0.004751 -172.5 0.999984 -80.19 0.999984 -80.19 0.004751 -168.0
8.52720000 0.004770 -172.4 0.999984 -80.19 0.999984 -80.19 0.004770 -168.0
8.52740000 0.004789 -172.4 0.999984 -80.20 0.999984 -80.20 0.004789 -168.0
8.52760000 0.004808 -172.4 0.999984 -80.20 0.999984 -80.20 0.004808 -168.1
8.52780000 0.004827 -172.4 0.999983 -80.20 0.999983 -80.20 0.004826 -168.1
8.52800000 0.004846 -172.4 0.999983 -80.20 0.999983 -80.20 0.004845 -168.1
8.52820000 0.004865 -172.4 0.999983 -80.21 0.999983 -80.21 0.004864 -168.1
8.52840000 0.004884 -172.4 0.999983 -80.21 0.999983 -80.21 0.004883 -168.1
8.52860000 0.004903 -172.4 0.999983 -80.21 0.999983 -80.21 0.004902 -168.1
8.52880000 0.004922 -172.4 0.999983 -80.22 0.999983 -80.22 0.004921 -168.1
8.52900000 0.004941 -172.4 0.999983 -80.22 0.999983 -80.22 0.004941 -168.1
8.52920000 0.004960 -172.4 0.999983 -80.22 0.999983 -80.22 0.004960 -168.1
8.52940000 0.004979 -172.4 0.999983 -80.23 0.999983 -80.23 0.004979 -168.1
8.52960000 0.004998 -172.4 0.999983 -80.23 0.999983 -80.23 0.004998 -168.1
8.52980000 0.005017 -172.4 0.999982 -80.23 0.999982 -80.23 0.005017 -168.2
8.53000000 0.005037 -172.4 0.999982 -80.23 0.999982 -80.23 0.005036 -168.2
8.53020000 0.005056 -172.4 0.999982 -80.24 0.999982 -80.24 0.005056 -168.2
8.53040000 0.005075 -172.4 0.999982 -80.24 0.999982 -80.24 0.005075 -168.2
8.53060000 0.005095 -172.4 0.999982 -80.24 0.999982 -80.24 0.005094 -168.2
8.53080000 0.005114 -172.4 0.999982 -80.25 0.999982 -80.25 0.005114 -168.2
8.53100000 0.005133 -172.4 0.999982 -80.25 0.999982 -80.25 0.005133 -168.2
8.53120000 0.005153 -172.4 0.999982 -80.25 0.999982 -80.25 0.005152 -168.2
8.53140000 0.005172 -172.4 0.999982 -80.26 0.999982 -80.26 0.005172 -168.2
8.53160000 0.005192 -172.4 0.999982 -80.26 0.999982 -80.26 0.005191 -168.2
8.53180000 0.005211 -172.4 0.999981 -80.26 0.999981 -80.26 0.005211 -168.2
8.53200000 0.005231 -172.4 0.999981 -80.26 0.999981 -80.26 0.005230 -168.3
8.53220000 0.005250 -172.4 0.999981 -80.27 0.999981 -80.27 0.005250 -168.3
8.53240000 0.005270 -172.4 0.999981 -80.27 0.999981 -80.27 0.005270 -168.3
8.53260000 0.005290 -172.3 0.999981 -80.27 0.999981 -80.27 0.005289 -168.3
8.53280000 0.005309 -172.3 0.999981 -80.28 0.999981 -80.28 0.005309 -168.3
8.53300000 0.005329 -172.3 0.999981 -80.28 0.999981 -80.28 0.005329 -168.3
8.53320000 0.005349 -172.3 0.999981 -80.28 0.999981 -80.28 0.005348 -168.3
8.53340000 0.005368 -172.3 0.999981 -80.29 0.999981 -80.29 0.005368 -168.3
8.53360000 0.005388 -172.3 0.999980 -80.29 0.999980 -80.29 0.005388 -168.3
8.53380000 0.005408 -172.3 0.999980 -80.29 0.999980 -80.29 0.005408 -168.3
8.53400000 0.005428 -172.3 0.999980 -80.29 0.999980 -80.29 0.005428 -168.3
8.53420000 0.005448 -172.3 0.999980 -80.30 0.999980 -80.30 0.005448 -168.4
8.53440000 0.005468 -172.3 0.999980 -80.30 0.999980 -80.30 0.005467 -168.4
8.53460000 0.005488 -172.3 0.999980 -80.30 0.999980 -80.30 0.005487 -168.4
8.53480000 0.005508 -172.3 0.999980 -80.31 0.999980 -80.31 0.005507 -168.4
8.53500000 0.005528 -172.3 0.999980 -80.31 0.999980 -80.31 0.005527 -168.4
8.53520000 0.005548 -172.3 0.999980 -80.31 0.999980 -80.31 0.005547 -168.4
8.53540000 0.005568 -172.3 0.999979 -80.32 0.999979 -80.32 0.005568 -168.4
8.53560000 0.005588 -172.3 0.999979 -80.32 0.999979 -80.32 0.005588 -168.4
8.53580000 0.005608 -172.3 0.999979 -80.32 0.999979 -80.32 0.005608 -168.4
8.53600000 0.005628 -172.3 0.999979 -80.32 0.999979 -80.32 0.005628 -168.4
8.53620000 0.005648 -172.3 0.999979 -80.33 0.999979 -80.33 0.005648 -168.4
8.53640000 0.005669 -172.3 0.999979 -80.33 0.999979 -80.33 0.005668 -168.4
8.53660000 0.005689 -172.3 0.999979 -80.33 0.999979 -80.33 0.005689 -168.5
8.53680000 0.005709 -172.3 0.999979 -80.34 0.999979 -80.34 0.005709 -168.5
8.53700000 0.005730 -172.3 0.999979 -80.34 0.999979 -80.34 0.005729 -168.5
8.53720000 0.005750 -172.3 0.999978 -80.34 0.999978 -80.34 0.005750 -168.5
8.53740000 0.005770 -172.3 0.999978 -80.35 0.999978 -80.35 0.005770 -168.5
8.53760000 0.005791 -172.3 0.999978 -80.35 0.999978 -80.35 0.005791 -168.5
8.53780000 0.005811 -172.3 0.999978 -80.35 0.999978 -80.35 0.005811 -168.5
8.53800000 0.005832 -172.3 0.999978 -80.36 0.999978 -80.36 0.005832 -168.5
8.53820000 0.005852 -172.3 0.999978 -80.36 0.999978 -80.36 0.005852 -168.5
8.53840000 0.005873 -172.3 0.999978 -80.36 0.999978 -80.36 0.005873 -168.5
8.53860000 0.005894 -172.3 0.999978 -80.36 0.999978 -80.36 0.005893 -168.5
8.53880000 0.005914 -172.3 0.999977 -80.37 0.999977 -80.37 0.005914 -168.5
8.53900000 0.005935 -172.3 0.999977 -80.37 0.999977 -80.37 0.005935 -168.6
8.53920000 0.005956 -172.3 0.999977 -80.37 0.999977 -80.37 0.005955 -168.6
8.53940000 0.005976 -172.3 0.999977 -80.38 0.999977 -80.38 0.005976 -168.6
8.53960000 0.005997 -172.3 0.999977 -80.38 0.999977 -80.38 0.005997 -168.6
8.53980000 0.006018 -172.3 0.999977 -80.38 0.999977 -80.38 0.006018 -168.6
8.54000000 0.006039 -172.3 0.999977 -80.39 0.999977 -80.39 0.006038 -168.6
8.54020000 0.006060 -172.3 0.999977 -80.39 0.999977 -80.39 0.006059 -168.6
8.54040000 0.006081 -172.3 0.999976 -80.39 0.999976 -80.39 0.006080 -168.6
8.54060000 0.006101 -172.3 0.999976 -80.40 0.999976 -80.40 0.006101 -168.6
8.54080000 0.006122 -172.3 0.999976 -80.40 0.999976 -80.40 0.006122 -168.6
8.54100000 0.006143 -172.2 0.999976 -80.40 0.999976 -80.40 0.006143 -168.6
8.54120000 0.006165 -172.2 0.999976 -80.40 0.999976 -80.40 0.006164 -168.6
8.54140000 0.006186 -172.2 0.999976 -80.41 0.999976 -80.41 0.006185 -168.6
8.54160000 0.006207 -172.2 0.999976 -80.41 0.999976 -80.41 0.006206 -168.7
8.54180000 0.006228 -172.2 0.999975 -80.41 0.999975 -80.41 0.006228 -168.7
8.54200000 0.006249 -172.2 0.999975 -80.42 0.999975 -80.42 0.006249 -168.7
8.54220000 0.006270 -172.2 0.999975 -80.42 0.999975 -80.42 0.006270 -168.7
8.54240000 0.006292 -172.2 0.999975 -80.42 0.999975 -80.42 0.006291 -168.7
8.54260000 0.006313 -172.2 0.999975 -80.43 0.999975 -80.43 0.006313 -168.7
8.54280000 0.006334 -172.2 0.999975 -80.43 0.999975 -80.43 0.006334 -168.7
8.54300000 0.006356 -172.2 0.999975 -80.43 0.999975 -80.43 0.006355 -168.7
8.54320000 0.006377 -172.2 0.999975 -80.44 0.999975 -80.44 0.006377 -168.7
8.54340000 0.006398 -172.2 0.999974 -80.44 0.999974 -80.44 0.006398 -168.7
8.54360000 0.006420 -172.2 0.999974 -80.44 0.999974 -80.44 0.006420 -168.7
8.54380000 0.006441 -172.2 0.999974 -80.44 0.999974 -80.44 0.006441 -168.7
8.54400000 0.006463 -172.2 0.999974 -80.45 0.999974 -80.45 0.006463 -168.7
8.54420000 0.006484 -172.2 0.999974 -80.45 0.999974 -80.45 0.006484 -168.7
8.54440000 0.006506 -172.2 0.999974 -80.45 0.999974 -80.45 0.006506 -168.8
8.54460000 0.006528 -172.2 0.999974 -80.46 0.999974 -80.46 0.006527 -168.8
8.54480000 0.006549 -172.2 0.999973 -80.46 0.999973 -80.46 0.006549 -168.8
8.54500000 0.006571 -172.2 0.999973 -80.46 0.999973 -80.46 0.006571 -168.8
8.54520000 0.006593 -172.2 0.999973 -80.47 0.999973 -80.47 0.006593 -168.8
8.54540000 0.006615 -172.2 0.999973 -80.47 0.999973 -80.47 0.006614 -168.8
8.54560000 0.006636 -172.2 0.999973 -80.47 0.999973 -80.47 0.006636 -168.8
8.54580000 0.006658 -172.2 0.999973 -80.48 0.999973 -80.48 0.006658 -168.8
8.54600000 0.006680 -172.2 0.999972 -80.48 0.999972 -80.48 0.006680 -168.8
8.54620000 0.006702 -172.2 0.999972 -80.48 0.999972 -80.48 0.006702 -168.8
8.54640000 0.006724 -172.2 0.999972 -80.49 0.999972 -80.49 0.006724 -168.8
8.54660000 0.006746 -172.2 0.999972 -80.49 0.999972 -80.49 0.006746 -168.8
8.54680000 0.006768 -172.2 0.999972 -80.49 0.999972 -80.49 0.006768 -168.8
8.54700000 0.006790 -172.2 0.999972 -80.49 0.999972 -80.49 0.006790 -168.9
8.54720000 0.006812 -172.2 0.999972 -80.50 0.999972 -80.50 0.006812 -168.9
8.54740000 0.006835 -172.2 0.999971 -80.50 0.999971 -80.50 0.006834 -168.9
8.54760000 0.006857 -172.2 0.999971 -80.50 0.999971 -80.50 0.006857 -168.9
8.54780000 0.006879 -172.2 0.999971 -80.51 0.999971 -80.51 0.006879 -168.9
8.54800000 0.006901 -172.2 0.999971 -80.51 0.999971 -80.51 0.006901 -168.9
8.54820000 0.006924 -172.2 0.999971 -80.51 0.999971 -80.51 0.006923 -168.9
8.54840000 0.006946 -172.2 0.999971 -80.52 0.999971 -80.52 0.006946 -168.9
8.54860000 0.006968 -172.2 0.999970 -80.52 0.999970 -80.52 0.006968 -168.9
8.54880000 0.006991 -172.2 0.999970 -80.52 0.999970 -80.52 0.006991 -168.9
8.54900000 0.007013 -172.2 0.999970 -80.53 0.999970 -80.53 0.007013 -168.9
8.54920000 0.007036 -172.2 0.999970 -80.53 0.999970 -80.53 0.007036 -168.9
8.54940000 0.007058 -172.2 0.999970 -80.53 0.999970 -80.53 0.007058 -168.9
8.54960000 0.007081 -172.2 0.999970 -80.54 0.999970 -80.54 0.007081 -168.9
8.54980000 0.007103 -172.2 0.999970 -80.54 0.999970 -80.54 0.007103 -168.9
8.55000000 0.007126 -172.2 0.999969 -80.54 0.999969 -80.54 0.007126 -169.0
8.55020000 0.007149 -172.2 0.999969 -80.55 0.999969 -80.55 0.007149 -169.0
8.55040000 0.007172 -172.2 0.999969 -80.55 0.999969 -80.55 0.007171 -169.0
8.55060000 0.007194 -172.2 0.999969 -80.55 0.999969 -80.55 0.007194 -169.0
8.55080000 0.007217 -172.2 0.999969 -80.55 0.999969 -80.55 0.007217 -169.0
8.55100000 0.007240 -172.2 0.999969 -80.56 0.999969 -80.56 0.007240 -169.0
8.55120000 0.007263 -172.2 0.999968 -80.56 0.999968 -80.56 0.007263 -169.0
8.55140000 0.007286 -172.2 0.999968 -80.56 0.999968 -80.56 0.007286 -169.0
8.55160000 0.007309 -172.2 0.999968 -80.57 0.999968 -80.57 0.007308 -169.0
8.55180000 0.007332 -172.2 0.999968 -80.57 0.999968 -80.57 0.007331 -169.0
8.55200000 0.007355 -172.2 0.999968 -80.57 0.999968 -80.57 0.007355 -169.0
8.55220000 0.007378 -172.2 0.999967 -80.58 0.999967 -80.58 0.007378 -169.0
8.55240000 0.007401 -172.2 0.999967 -80.58 0.999967 -80.58 0.007401 -169.0
8.55260000 0.007424 -172.2 0.999967 -80.58 0.999967 -80.58 0.007424 -169.0
8.55280000 0.007447 -172.2 0.999967 -80.59 0.999967 -80.59 0.007447 -169.1
8.55300000 0.007471 -172.2 0.999967 -80.59 0.999967 -80.59 0.007470 -169.1
8.55320000 0.007494 -172.2 0.999967 -80.59 0.999967 -80.59 0.007494 -169.1
8.55340000 0.007517 -172.2 0.999966 -80.60 0.999966 -80.60 0.007517 -169.1
8.55360000 0.007540 -172.2 0.999966 -80.60 0.999966 -80.60 0.007540 -169.1
8.55380000 0.007564 -172.2 0.999966 -80.60 0.999966 -80.60 0.007564 -169.1
8.55400000 0.007587 -172.2 0.999966 -80.61 0.999966 -80.61 0.007587 -169.1
8.55420000 0.007611 -172.2 0.999966 -80.61 0.999966 -80.61 0.007611 -169.1
8.55440000 0.007634 -172.2 0.999966 -80.61 0.999966 -80.61 0.007634 -169.1
8.55460000 0.007658 -172.2 0.999965 -80.62 0.999965 -80.62 0.007658 -169.1
8.55480000 0.007681 -172.2 0.999965 -80.62 0.999965 -80.62 0.007681 -169.1
8.55500000 0.007705 -172.2 0.999965 -80.62 0.999965 -80.62 0.007705 -169.1
8.55520000 0.007729 -172.2 0.999965 -80.63 0.999965 -80.63 0.007729 -169.1
8.55540000 0.007753 -172.2 0.999965 -80.63 0.999965 -80.63 0.007752 -169.1
8.55560000 0.007776 -172.2 0.999964 -80.63 0.999964 -80.63 0.007776 -169.1
8.55580000 0.007800 -172.2 0.999964 -80.64 0.999964 -80.64 0.007800 -169.2
8.55600000 0.007824 -172.2 0.999964 -80.64 0.999964 -80.64 0.007824 -169.2
8.55620000 0.007848 -172.2 0.999964 -80.64 0.999964 -80.64 0.007848 -169.2
8.55640000 0.007872 -172.2 0.999964 -80.65 0.999964 -80.65 0.007872 -169.2
8.55660000 0.007896 -172.2 0.999963 -80.65 0.999963 -80.65 0.007896 -169.2
8.55680000 0.007920 -172.2 0.999963 -80.65 0.999963 -80.65 0.007920 -169.2
8.55700000 0.007944 -172.2 0.999963 -80.65 0.999963 -80.65 0.007944 -169.2
8.55720000 0.007968 -172.2 0.999963 -80.66 0.999963 -80.66 0.007968 -169.2
8.55740000 0.007992 -172.2 0.999963 -80.66 0.999963 -80.66 0.007992 -169.2
8.55760000 0.008016 -172.2 0.999962 -80.66 0.999962 -80.66 0.008016 -169.2
8.55780000 0.008040 -172.2 0.999962 -80.67 0.999962 -80.67 0.008040 -169.2
8.55800000 0.008065 -172.2 0.999962 -80.67 0.999962 -80.67 0.008065 -169.2
8.55820000 0.008089 -172.2 0.999962 -80.67 0.999962 -80.67 0.008089 -169.2
8.55840000 0.008113 -172.2 0.999962 -80.68 0.999962 -80.68 0.008113 -169.2
8.55860000 0.008138 -172.2 0.999961 -80.68 0.999961 -80.68 0.008138 -169.2
8.55880000 0.008162 -172.2 0.999961 -80.68 0.999961 -80.68 0.008162 -169.2
8.55900000 0.008187 -172.2 0.999961 -80.69 0.999961 -80.69 0.008187 -169.3
8.55920000 0.008211 -172.2 0.999961 -80.69 0.999961 -80.69 0.008211 -169.3
8.55940000 0.008236 -172.2 0.999961 -80.69 0.999961 -80.69 0.008236 -169.3
8.55960000 0.008260 -172.2 0.999960 -80.70 0.999960 -80.70 0.008260 -169.3
8.55980000 0.008285 -172.2 0.999960 -80.70 0.999960 -80.70 0.008285 -169.3
8.56000000 0.008310 -172.2 0.999960 -80.70 0.999960 -80.70 0.008310 -169.3
8.56020000 0.008334 -172.2 0.999960 -80.71 0.999960 -80.71 0.008334 -169.3
8.56040000 0.008359 -172.2 0.999960 -80.71 0.999960 -80.71 0.008359 -169.3
8.56060000 0.008384 -172.2 0.999959 -80.71 0.999959 -80.71 0.008384 -169.3
8.56080000 0.008409 -172.2 0.999959 -80.72 0.999959 -80.72 0.008409 -169.3
8.56100000 0.008434 -172.2 0.999959 -80.72 0.999959 -80.72 0.008434 -169.3
8.56120000 0.008459 -172.2 0.999959 -80.72 0.999959 -80.72 0.008459 -169.3
8.56140000 0.008484 -172.2 0.999959 -80.73 0.999959 -80.73 0.008484 -169.3
8.56160000 0.008509 -172.2 0.999958 -80.73 0.999958 -80.73 0.008509 -169.3
8.56180000 0.008534 -172.2 0.999958 -80.73 0.999958 -80.73 0.008534 -169.3
8.56200000 0.008559 -172.2 0.999958 -80.74 0.999958 -80.74 0.008559 -169.3
8.56220000 0.008584 -172.2 0.999958 -80.74 0.999958 -80.74 0.008584 -169.4
8.56240000 0.008610 -172.2 0.999957 -80.74 0.999957 -80.74 0.008609 -169.4
8.56260000 0.008635 -172.2 0.999957 -80.75 0.999957 -80.75 0.008635 -169.4
8.56280000 0.008660 -172.2 0.999957 -80.75 0.999957 -80.75 0.008660 -169.4
8.56300000 0.008686 -172.2 0.999957 -80.75 0.999957 -80.75 0.008685 -169.4
8.56320000 0.008711 -172.2 0.999957 -80.76 0.999957 -80.76 0.008711 -169.4
8.56340000 0.008736 -172.2 0.999956 -80.76 0.999956 -80.76 0.008736 -169.4
8.56360000 0.008762 -172.2 0.999956 -80.76 0.999956 -80.76 0.008762 -169.4
8.56380000 0.008787 -172.2 0.999956 -80.77 0.999956 -80.77 0.008787 -169.4
8.56400000 0.008813 -172.2 0.999956 -80.77 0.999956 -80.77 0.008813 -169.4
8.56420000 0.008839 -172.2 0.999955 -80.77 0.999955 -80.77 0.008838 -169.4
8.56440000 0.008864 -172.2 0.999955 -80.78 0.999955 -80.78 0.008864 -169.4
8.56460000 0.008890 -172.2 0.999955 -80.78 0.999955 -80.78 0.008890 -169.4
8.56480000 0.008916 -172.2 0.999955 -80.78 0.999955 -80.78 0.008916 -169.4
8.56500000 0.008942 -172.2 0.999954 -80.79 0.999954 -80.79 0.008941 -169.4
8.56520000 0.008968 -172.2 0.999954 -80.79 0.999954 -80.79 0.008967 -169.4
8.56540000 0.008993 -172.2 0.999954 -80.79 0.999954 -80.79 0.008993 -169.5
8.56560000 0.009019 -172.2 0.999954 -80.80 0.999954 -80.80 0.009019 -169.5
8.56580000 0.009045 -172.2 0.999954 -80.80 0.999954 -80.80 0.009045 -169.5
8.56600000 0.009071 -172.2 0.999953 -80.80 0.999953 -80.80 0.009071 -169.5
8.56620000 0.009098 -172.2 0.999953 -80.81 0.999953 -80.81 0.009097 -169.5
8.56640000 0.009124 -172.2 0.999953 -80.81 0.999953 -80.81 0.009124 -169.5
8.56660000 0.009150 -172.2 0.999953 -80.81 0.999953 -80.81 0.009150 -169.5
8.56680000 0.009176 -172.2 0.999952 -80.82 0.999952 -80.82 0.009176 -169.5
8.56700000 0.009202 -172.2 0.999952 -80.82 0.999952 -80.82 0.009202 -169.5
8.56720000 0.009229 -172.2 0.999952 -80.82 0.999952 -80.82 0.009229 -169.5
8.56740000 0.009255 -172.2 0.999952 -80.83 0.999952 -80.83 0.009255 -169.5
8.56760000 0.009282 -172.2 0.999951 -80.83 0.999951 -80.83 0.009281 -169.5
8.56780000 0.009308 -172.2 0.999951 -80.83 0.999951 -80.83 0.009308 -169.5
8.56800000 0.009335 -172.2 0.999951 -80.84 0.999951 -80.84 0.009334 -169.5
8.56820000 0.009361 -172.2 0.999951 -80.84 0.999951 -80.84 0.009361 -169.5
8.56840000 0.009388 -172.2 0.999950 -80.84 0.999950 -80.84 0.009388 -169.5
8.56860000 0.009415 -172.2 0.999950 -80.85 0.999950 -80.85 0.009414 -169.5
8.56880000 0.009441 -172.2 0.999950 -80.85 0.999950 -80.85 0.009441 -169.6
8.56900000 0.009468 -172.2 0.999950 -80.85 0.999950 -80.85 0.009468 -169.6
8.56920000 0.009495 -172.2 0.999949 -80.86 0.999949 -80.86 0.009495 -169.6
8.56940000 0.009522 -172.2 0.999949 -80.86 0.999949 -80.86 0.009522 -169.6
8.56960000 0.009549 -172.2 0.999949 -80.87 0.999949 -80.87 0.009549 -169.6
8.56980000 0.009576 -172.2 0.999948 -80.87 0.999948 -80.87 0.009576 -169.6
8.57000000 0.009603 -172.2 0.999948 -80.87 0.999948 -80.87 0.009603 -169.6
8.57020000 0.009630 -172.2 0.999948 -80.88 0.999948 -80.88 0.009630 -169.6
8.57040000 0.009657 -172.2 0.999948 -80.88 0.999948 -80.88 0.009657 -169.6
8.57060000 0.009684 -172.2 0.999947 -80.88 0.999947 -80.88 0.009684 -169.6
8.57080000 0.009711 -172.2 0.999947 -80.89 0.999947 -80.89 0.009711 -169.6
8.57100000 0.009739 -172.2 0.999947 -80.89 0.999947 -80.89 0.009738 -169.6
8.57120000 0.009766 -172.2 0.999947 -80.89 0.999947 -80.89 0.009766 -169.6
8.57140000 0.009793 -172.2 0.999946 -80.90 0.999946 -80.90 0.009793 -169.6
8.57160000 0.009821 -172.2 0.999946 -80.90 0.999946 -80.90 0.009821 -169.6
8.57180000 0.009848 -172.2 0.999946 -80.90 0.999946 -80.90 0.009848 -169.6
8.57200000 0.009876 -172.2 0.999946 -80.91 0.999946 -80.91 0.009876 -169.6
8.57220000 0.009903 -172.2 0.999945 -80.91 0.999945 -80.91 0.009903 -169.7
8.57240000 0.009931 -172.2 0.999945 -80.91 0.999945 -80.91 0.009931 -169.7
8.57260000 0.009959 -172.2 0.999945 -80.92 0.999945 -80.92 0.009958 -169.7
8.57280000 0.009986 -172.2 0.999944 -80.92 0.999944 -80.92 0.009986 -169.7
8.57300000 0.010014 -172.2 0.999944 -80.92 0.999944 -80.92 0.010014 -169.7
8.57320000 0.010042 -172.2 0.999944 -80.93 0.999944 -80.93 0.010042 -169.7
8.57340000 0.010070 -172.2 0.999944 -80.93 0.999944 -80.93 0.010070 -169.7
8.57360000 0.010098 -172.2 0.999943 -80.93 0.999943 -80.93 0.010098 -169.7
8.57380000 0.010126 -172.2 0.999943 -80.94 0.999943 -80.94 0.010126 -169.7
8.57400000 0.010154 -172.2 0.999943 -80.94 0.999943 -80.94 0.010154 -169.7
8.57420000 0.010182 -172.2 0.999942 -80.94 0.999942 -80.94 0.010182 -169.7
8.57440000 0.010210 -172.2 0.999942 -80.95 0.999942 -80.95 0.010210 -169.7
8.57460000 0.010238 -172.2 0.999942 -80.95 0.999942 -80.95 0.010238 -169.7
8.57480000 0.010267 -172.2 0.999942 -80.96 0.999942 -80.96 0.010266 -169.7
8.57500000 0.010295 -172.2 0.999941 -80.96 0.999941 -80.96 0.010295 -169.7
8.57520000 0.010323 -172.2 0.999941 -80.96 0.999941 -80.96 0.010323 -169.7
8.57540000 0.010352 -172.2 0.999941 -80.97 0.999941 -80.97 0.010352 -169.7
8.57560000 0.010380 -172.2 0.999940 -80.97 0.999940 -80.97 0.010380 -169.8
8.57580000 0.010409 -172.2 0.999940 -80.97 0.999940 -80.97 0.010409 -169.8
8.57600000 0.010437 -172.2 0.999940 -80.98 0.999940 -80.98 0.010437 -169.8
8.57620000 0.010466 -172.2 0.999939 -80.98 0.999939 -80.98 0.010466 -169.8
8.57640000 0.010495 -172.2 0.999939 -80.98 0.999939 -80.98 0.010494 -169.8
8.57660000 0.010523 -172.2 0.999939 -80.99 0.999939 -80.99 0.010523 -169.8
8.57680000 0.010552 -172.2 0.999938 -80.99 0.999938 -80.99 0.010552 -169.8
8.57700000 0.010581 -172.2 0.999938 -80.99 0.999938 -80.99 0.010581 -169.8
8.57720000 0.010610 -172.2 0.999938 -81.00 0.999938 -81.00 0.010610 -169.8
8.57740000 0.010639 -172.3 0.999938 -81.00 0.999938 -81.00 0.010639 -169.8
8.57760000 0.010668 -172.3 0.999937 -81.00 0.999937 -81.00 0.010668 -169.8
8.57780000 0.010697 -172.3 0.999937 -81.01 0.999937 -81.01 0.010697 -169.8
8.57800000 0.010726 -172.3 0.999937 -81.01 0.999937 -81.01 0.010726 -169.8
8.57820000 0.010755 -172.3 0.999936 -81.02 0.999936 -81.02 0.010755 -169.8
8.57840000 0.010784 -172.3 0.999936 -81.02 0.999936 -81.02 0.010784 -169.8