! Sonnet Data File
! From: emgraph Version : 16.52
! From Emgraph Data: transmon_brgOdd_brg2
! Data File Written: 11/13/2017 14:23:15
!< HDATE 11/12/2017 21:22:12
!< MDATE 11/13/2017 09:18:20
!< PARAMS
!< Lj = 15.24
!< Gap = 6.0
!< Width = 10.0
!< Pwidth = 2000.0
!< Dist = 800.0
!< Dist2 = 1600.0
!< END PARAMS
# GHZ S MA R 51.90000
8.30000000 0.002546 -168.8 0.999993 -77.61 0.999993 -77.61 0.002546 -166.6
!< P1 F=8.3 Eeff=(6.44707497 -2.9785e-5) Z0=(51.8004798 1.1911e-4) R=0.0 C=0.0 
!< P2 F=8.3 Eeff=(6.44707497 -2.9785e-5) Z0=(51.8004798 1.1911e-4) R=0.0 C=0.0 
8.30025000 0.002553 -168.8 0.999993 -77.61 0.999993 -77.61 0.002553 -166.6
8.30050000 0.002559 -168.8 0.999993 -77.62 0.999993 -77.62 0.002559 -166.6
8.30075000 0.002566 -168.8 0.999993 -77.62 0.999993 -77.62 0.002566 -166.6
8.30100000 0.002573 -168.8 0.999993 -77.62 0.999993 -77.62 0.002573 -166.6
8.30125000 0.002580 -168.8 0.999993 -77.62 0.999993 -77.62 0.002579 -166.6
8.30150000 0.002586 -168.8 0.999993 -77.63 0.999993 -77.63 0.002586 -166.6
8.30175000 0.002593 -168.8 0.999993 -77.63 0.999993 -77.63 0.002593 -166.6
8.30200000 0.002600 -168.8 0.999993 -77.63 0.999993 -77.63 0.002600 -166.6
8.30225000 0.002606 -168.8 0.999993 -77.63 0.999993 -77.63 0.002606 -166.6
8.30250000 0.002613 -168.8 0.999993 -77.64 0.999993 -77.64 0.002613 -166.6
8.30275000 0.002620 -168.8 0.999993 -77.64 0.999993 -77.64 0.002620 -166.6
8.30300000 0.002627 -168.8 0.999993 -77.64 0.999993 -77.64 0.002627 -166.6
8.30325000 0.002634 -168.8 0.999993 -77.65 0.999993 -77.65 0.002634 -166.6
8.30350000 0.002640 -168.8 0.999993 -77.65 0.999993 -77.65 0.002640 -166.6
8.30375000 0.002647 -168.8 0.999993 -77.65 0.999993 -77.65 0.002647 -166.7
8.30400000 0.002654 -168.8 0.999993 -77.65 0.999993 -77.65 0.002654 -166.7
8.30425000 0.002661 -168.8 0.999993 -77.66 0.999993 -77.66 0.002661 -166.7
8.30450000 0.002667 -168.8 0.999993 -77.66 0.999993 -77.66 0.002668 -166.7
8.30475000 0.002674 -168.8 0.999993 -77.66 0.999993 -77.66 0.002674 -166.7
8.30500000 0.002681 -168.8 0.999993 -77.66 0.999993 -77.66 0.002681 -166.7
8.30525000 0.002688 -168.8 0.999993 -77.67 0.999993 -77.67 0.002688 -166.7
8.30550000 0.002695 -168.8 0.999993 -77.67 0.999993 -77.67 0.002695 -166.7
8.30575000 0.002702 -168.8 0.999993 -77.67 0.999993 -77.67 0.002702 -166.7
8.30600000 0.002709 -168.8 0.999993 -77.68 0.999993 -77.68 0.002709 -166.7
8.30625000 0.002715 -168.8 0.999993 -77.68 0.999993 -77.68 0.002715 -166.7
8.30650000 0.002722 -168.8 0.999993 -77.68 0.999993 -77.68 0.002722 -166.7
8.30675000 0.002729 -168.8 0.999993 -77.68 0.999993 -77.68 0.002729 -166.7
8.30700000 0.002736 -168.8 0.999993 -77.69 0.999993 -77.69 0.002736 -166.7
8.30725000 0.002743 -168.8 0.999993 -77.69 0.999993 -77.69 0.002743 -166.7
8.30750000 0.002750 -168.8 0.999993 -77.69 0.999993 -77.69 0.002750 -166.7
8.30775000 0.002757 -168.8 0.999993 -77.69 0.999993 -77.69 0.002757 -166.7
8.30800000 0.002764 -168.8 0.999993 -77.70 0.999993 -77.70 0.002764 -166.7
8.30825000 0.002771 -168.8 0.999993 -77.70 0.999993 -77.70 0.002771 -166.7
8.30850000 0.002778 -168.8 0.999993 -77.70 0.999993 -77.70 0.002778 -166.8
8.30875000 0.002784 -168.8 0.999993 -77.71 0.999993 -77.71 0.002785 -166.8
8.30900000 0.002791 -168.8 0.999993 -77.71 0.999993 -77.71 0.002792 -166.8
8.30925000 0.002798 -168.8 0.999992 -77.71 0.999992 -77.71 0.002799 -166.8
8.30950000 0.002805 -168.8 0.999992 -77.71 0.999992 -77.71 0.002806 -166.8
8.30975000 0.002812 -168.8 0.999992 -77.72 0.999992 -77.72 0.002813 -166.8
8.31000000 0.002819 -168.8 0.999992 -77.72 0.999992 -77.72 0.002820 -166.8
8.31025000 0.002826 -168.8 0.999992 -77.72 0.999992 -77.72 0.002827 -166.8
8.31050000 0.002833 -168.8 0.999992 -77.72 0.999992 -77.72 0.002834 -166.8
8.31075000 0.002840 -168.8 0.999992 -77.73 0.999992 -77.73 0.002841 -166.8
8.31100000 0.002847 -168.8 0.999992 -77.73 0.999992 -77.73 0.002848 -166.8
8.31125000 0.002854 -168.8 0.999992 -77.73 0.999992 -77.73 0.002855 -166.8
8.31150000 0.002861 -168.8 0.999992 -77.74 0.999992 -77.74 0.002862 -166.8
8.31175000 0.002868 -168.8 0.999992 -77.74 0.999992 -77.74 0.002869 -166.8
8.31200000 0.002875 -168.8 0.999992 -77.74 0.999992 -77.74 0.002876 -166.8
8.31225000 0.002883 -168.8 0.999992 -77.74 0.999992 -77.74 0.002883 -166.8
8.31250000 0.002890 -168.8 0.999992 -77.75 0.999992 -77.75 0.002890 -166.8
8.31275000 0.002897 -168.8 0.999992 -77.75 0.999992 -77.75 0.002897 -166.8
8.31300000 0.002904 -168.8 0.999992 -77.75 0.999992 -77.75 0.002904 -166.8
8.31325000 0.002911 -168.8 0.999992 -77.75 0.999992 -77.75 0.002911 -166.9
8.31350000 0.002918 -168.8 0.999992 -77.76 0.999992 -77.76 0.002918 -166.9
8.31375000 0.002925 -168.8 0.999992 -77.76 0.999992 -77.76 0.002925 -166.9
8.31400000 0.002932 -168.8 0.999992 -77.76 0.999992 -77.76 0.002932 -166.9
8.31425000 0.002939 -168.8 0.999992 -77.77 0.999992 -77.77 0.002940 -166.9
8.31450000 0.002946 -168.8 0.999992 -77.77 0.999992 -77.77 0.002947 -166.9
8.31475000 0.002954 -168.8 0.999992 -77.77 0.999992 -77.77 0.002954 -166.9
8.31500000 0.002961 -168.8 0.999992 -77.77 0.999992 -77.77 0.002961 -166.9
8.31525000 0.002968 -168.8 0.999992 -77.78 0.999992 -77.78 0.002968 -166.9
8.31550000 0.002975 -168.8 0.999992 -77.78 0.999992 -77.78 0.002975 -166.9
8.31575000 0.002982 -168.8 0.999992 -77.78 0.999992 -77.78 0.002982 -166.9
8.31600000 0.002989 -168.8 0.999992 -77.79 0.999992 -77.79 0.002990 -166.9
8.31625000 0.002996 -168.8 0.999992 -77.79 0.999992 -77.79 0.002997 -166.9
8.31650000 0.003004 -168.8 0.999992 -77.79 0.999992 -77.79 0.003004 -166.9
8.31675000 0.003011 -168.8 0.999992 -77.79 0.999992 -77.79 0.003011 -166.9
8.31700000 0.003018 -168.8 0.999992 -77.80 0.999992 -77.80 0.003018 -166.9
8.31725000 0.003025 -168.8 0.999992 -77.80 0.999992 -77.80 0.003026 -166.9
8.31750000 0.003033 -168.8 0.999992 -77.80 0.999992 -77.80 0.003033 -166.9
8.31775000 0.003040 -168.8 0.999992 -77.80 0.999992 -77.80 0.003040 -166.9
8.31800000 0.003047 -168.8 0.999992 -77.81 0.999992 -77.81 0.003047 -166.9
8.31825000 0.003054 -168.8 0.999992 -77.81 0.999992 -77.81 0.003055 -167.0
8.31850000 0.003062 -168.8 0.999992 -77.81 0.999992 -77.81 0.003062 -167.0
8.31875000 0.003069 -168.8 0.999992 -77.82 0.999992 -77.82 0.003069 -167.0
8.31900000 0.003076 -168.8 0.999992 -77.82 0.999992 -77.82 0.003076 -167.0
8.31925000 0.003083 -168.8 0.999992 -77.82 0.999992 -77.82 0.003084 -167.0
8.31950000 0.003091 -168.8 0.999992 -77.82 0.999992 -77.82 0.003091 -167.0
8.31975000 0.003098 -168.8 0.999992 -77.83 0.999992 -77.83 0.003098 -167.0
8.32000000 0.003105 -168.8 0.999992 -77.83 0.999992 -77.83 0.003106 -167.0
8.32025000 0.003113 -168.8 0.999992 -77.83 0.999992 -77.83 0.003113 -167.0
8.32050000 0.003120 -168.8 0.999991 -77.83 0.999991 -77.83 0.003120 -167.0
8.32075000 0.003127 -168.8 0.999991 -77.84 0.999991 -77.84 0.003128 -167.0
8.32100000 0.003135 -168.8 0.999991 -77.84 0.999991 -77.84 0.003135 -167.0
8.32125000 0.003142 -168.8 0.999991 -77.84 0.999991 -77.84 0.003142 -167.0
8.32150000 0.003149 -168.8 0.999991 -77.85 0.999991 -77.85 0.003150 -167.0
8.32175000 0.003157 -168.8 0.999991 -77.85 0.999991 -77.85 0.003157 -167.0
8.32200000 0.003164 -168.8 0.999991 -77.85 0.999991 -77.85 0.003165 -167.0
8.32225000 0.003171 -168.8 0.999991 -77.85 0.999991 -77.85 0.003172 -167.0
8.32250000 0.003179 -168.8 0.999991 -77.86 0.999991 -77.86 0.003179 -167.0
8.32275000 0.003186 -168.8 0.999991 -77.86 0.999991 -77.86 0.003187 -167.0
8.32300000 0.003194 -168.8 0.999991 -77.86 0.999991 -77.86 0.003194 -167.0
8.32325000 0.003201 -168.8 0.999991 -77.87 0.999991 -77.87 0.003202 -167.1
8.32350000 0.003208 -168.8 0.999991 -77.87 0.999991 -77.87 0.003209 -167.1
8.32375000 0.003216 -168.8 0.999991 -77.87 0.999991 -77.87 0.003216 -167.1
8.32400000 0.003223 -168.8 0.999991 -77.87 0.999991 -77.87 0.003224 -167.1
8.32425000 0.003231 -168.8 0.999991 -77.88 0.999991 -77.88 0.003231 -167.1
8.32450000 0.003238 -168.8 0.999991 -77.88 0.999991 -77.88 0.003239 -167.1
8.32475000 0.003246 -168.8 0.999991 -77.88 0.999991 -77.88 0.003246 -167.1
8.32500000 0.003253 -168.8 0.999991 -77.88 0.999991 -77.88 0.003254 -167.1
8.32525000 0.003261 -168.8 0.999991 -77.89 0.999991 -77.89 0.003261 -167.1
8.32550000 0.003268 -168.8 0.999991 -77.89 0.999991 -77.89 0.003269 -167.1
8.32575000 0.003276 -168.8 0.999991 -77.89 0.999991 -77.89 0.003276 -167.1
8.32600000 0.003283 -168.8 0.999991 -77.90 0.999991 -77.90 0.003284 -167.1
8.32625000 0.003291 -168.8 0.999991 -77.90 0.999991 -77.90 0.003291 -167.1
8.32650000 0.003298 -168.8 0.999991 -77.90 0.999991 -77.90 0.003299 -167.1
8.32675000 0.003306 -168.8 0.999991 -77.90 0.999991 -77.90 0.003306 -167.1
8.32700000 0.003313 -168.8 0.999991 -77.91 0.999991 -77.91 0.003314 -167.1
8.32725000 0.003321 -168.8 0.999991 -77.91 0.999991 -77.91 0.003322 -167.1
8.32750000 0.003329 -168.8 0.999991 -77.91 0.999991 -77.91 0.003329 -167.1
8.32775000 0.003336 -168.8 0.999991 -77.92 0.999991 -77.92 0.003337 -167.1
8.32800000 0.003344 -168.8 0.999991 -77.92 0.999991 -77.92 0.003344 -167.1
8.32825000 0.003351 -168.8 0.999991 -77.92 0.999991 -77.92 0.003352 -167.1
8.32850000 0.003359 -168.8 0.999991 -77.92 0.999991 -77.92 0.003360 -167.2
8.32875000 0.003366 -168.8 0.999991 -77.93 0.999991 -77.93 0.003367 -167.2
8.32900000 0.003374 -168.8 0.999991 -77.93 0.999991 -77.93 0.003375 -167.2
8.32925000 0.003382 -168.8 0.999991 -77.93 0.999991 -77.93 0.003382 -167.2
8.32950000 0.003389 -168.8 0.999991 -77.93 0.999991 -77.93 0.003390 -167.2
8.32975000 0.003397 -168.8 0.999991 -77.94 0.999991 -77.94 0.003398 -167.2
8.33000000 0.003405 -168.8 0.999991 -77.94 0.999991 -77.94 0.003405 -167.2
8.33025000 0.003412 -168.8 0.999990 -77.94 0.999990 -77.94 0.003413 -167.2
8.33050000 0.003420 -168.8 0.999990 -77.95 0.999990 -77.95 0.003421 -167.2
8.33075000 0.003428 -168.8 0.999990 -77.95 0.999990 -77.95 0.003428 -167.2
8.33100000 0.003435 -168.8 0.999990 -77.95 0.999990 -77.95 0.003436 -167.2
8.33125000 0.003443 -168.8 0.999990 -77.95 0.999990 -77.95 0.003444 -167.2
8.33150000 0.003451 -168.8 0.999990 -77.96 0.999990 -77.96 0.003452 -167.2
8.33175000 0.003459 -168.8 0.999990 -77.96 0.999990 -77.96 0.003459 -167.2
8.33200000 0.003466 -168.8 0.999990 -77.96 0.999990 -77.96 0.003467 -167.2
8.33225000 0.003474 -168.8 0.999990 -77.97 0.999990 -77.97 0.003475 -167.2
8.33250000 0.003482 -168.8 0.999990 -77.97 0.999990 -77.97 0.003482 -167.2
8.33275000 0.003489 -168.8 0.999990 -77.97 0.999990 -77.97 0.003490 -167.2
8.33300000 0.003497 -168.8 0.999990 -77.97 0.999990 -77.97 0.003498 -167.2
8.33325000 0.003505 -168.8 0.999990 -77.98 0.999990 -77.98 0.003506 -167.2
8.33350000 0.003513 -168.8 0.999990 -77.98 0.999990 -77.98 0.003514 -167.2
8.33375000 0.003521 -168.8 0.999990 -77.98 0.999990 -77.98 0.003521 -167.2
8.33400000 0.003528 -168.8 0.999990 -77.98 0.999990 -77.98 0.003529 -167.3
8.33425000 0.003536 -168.8 0.999990 -77.99 0.999990 -77.99 0.003537 -167.3
8.33450000 0.003544 -168.8 0.999990 -77.99 0.999990 -77.99 0.003545 -167.3
8.33475000 0.003552 -168.8 0.999990 -77.99 0.999990 -77.99 0.003553 -167.3
8.33500000 0.003560 -168.8 0.999990 -78.00 0.999990 -78.00 0.003561 -167.3
8.33525000 0.003568 -168.8 0.999990 -78.00 0.999990 -78.00 0.003568 -167.3
8.33550000 0.003575 -168.8 0.999990 -78.00 0.999990 -78.00 0.003576 -167.3
8.33575000 0.003583 -168.8 0.999990 -78.00 0.999990 -78.00 0.003584 -167.3
8.33600000 0.003591 -168.8 0.999990 -78.01 0.999990 -78.01 0.003592 -167.3
8.33625000 0.003599 -168.8 0.999990 -78.01 0.999990 -78.01 0.003600 -167.3
8.33650000 0.003607 -168.8 0.999990 -78.01 0.999990 -78.01 0.003608 -167.3
8.33675000 0.003615 -168.8 0.999990 -78.02 0.999990 -78.02 0.003616 -167.3
8.33700000 0.003623 -168.8 0.999990 -78.02 0.999990 -78.02 0.003624 -167.3
8.33725000 0.003631 -168.8 0.999990 -78.02 0.999990 -78.02 0.003632 -167.3
8.33750000 0.003639 -168.8 0.999990 -78.02 0.999990 -78.02 0.003639 -167.3
8.33775000 0.003647 -168.8 0.999990 -78.03 0.999990 -78.03 0.003647 -167.3
8.33800000 0.003655 -168.8 0.999990 -78.03 0.999990 -78.03 0.003655 -167.3
8.33825000 0.003662 -168.8 0.999990 -78.03 0.999990 -78.03 0.003663 -167.3
8.33850000 0.003670 -168.8 0.999990 -78.03 0.999990 -78.03 0.003671 -167.3
8.33875000 0.003678 -168.8 0.999989 -78.04 0.999989 -78.04 0.003679 -167.3
8.33900000 0.003686 -168.8 0.999989 -78.04 0.999989 -78.04 0.003687 -167.3
8.33925000 0.003694 -168.8 0.999989 -78.04 0.999989 -78.04 0.003695 -167.3
8.33950000 0.003702 -168.8 0.999989 -78.05 0.999989 -78.05 0.003703 -167.4
8.33975000 0.003710 -168.8 0.999989 -78.05 0.999989 -78.05 0.003711 -167.4
8.34000000 0.003718 -168.8 0.999989 -78.05 0.999989 -78.05 0.003719 -167.4
8.34025000 0.003727 -168.8 0.999989 -78.05 0.999989 -78.05 0.003727 -167.4
8.34050000 0.003735 -168.8 0.999989 -78.06 0.999989 -78.06 0.003735 -167.4
8.34075000 0.003743 -168.8 0.999989 -78.06 0.999989 -78.06 0.003744 -167.4
8.34100000 0.003751 -168.8 0.999989 -78.06 0.999989 -78.06 0.003752 -167.4
8.34125000 0.003759 -168.8 0.999989 -78.07 0.999989 -78.07 0.003760 -167.4
8.34150000 0.003767 -168.8 0.999989 -78.07 0.999989 -78.07 0.003768 -167.4
8.34175000 0.003775 -168.8 0.999989 -78.07 0.999989 -78.07 0.003776 -167.4
8.34200000 0.003783 -168.8 0.999989 -78.07 0.999989 -78.07 0.003784 -167.4
8.34225000 0.003791 -168.8 0.999989 -78.08 0.999989 -78.08 0.003792 -167.4
8.34250000 0.003799 -168.8 0.999989 -78.08 0.999989 -78.08 0.003800 -167.4
8.34275000 0.003807 -168.8 0.999989 -78.08 0.999989 -78.08 0.003808 -167.4
8.34300000 0.003816 -168.8 0.999989 -78.09 0.999989 -78.09 0.003817 -167.4
8.34325000 0.003824 -168.8 0.999989 -78.09 0.999989 -78.09 0.003825 -167.4
8.34350000 0.003832 -168.8 0.999989 -78.09 0.999989 -78.09 0.003833 -167.4
8.34375000 0.003840 -168.8 0.999989 -78.09 0.999989 -78.09 0.003841 -167.4
8.34400000 0.003848 -168.8 0.999989 -78.10 0.999989 -78.10 0.003849 -167.4
8.34425000 0.003856 -168.8 0.999989 -78.10 0.999989 -78.10 0.003857 -167.4
8.34450000 0.003865 -168.9 0.999989 -78.10 0.999989 -78.10 0.003866 -167.4
8.34475000 0.003873 -168.9 0.999989 -78.11 0.999989 -78.11 0.003874 -167.4
8.34500000 0.003881 -168.9 0.999989 -78.11 0.999989 -78.11 0.003882 -167.5
8.34525000 0.003889 -168.9 0.999989 -78.11 0.999989 -78.11 0.003890 -167.5
8.34550000 0.003898 -168.9 0.999989 -78.11 0.999989 -78.11 0.003899 -167.5
8.34575000 0.003906 -168.9 0.999989 -78.12 0.999989 -78.12 0.003907 -167.5
8.34600000 0.003914 -168.9 0.999989 -78.12 0.999989 -78.12 0.003915 -167.5
8.34625000 0.003922 -168.9 0.999989 -78.12 0.999989 -78.12 0.003923 -167.5
8.34650000 0.003931 -168.9 0.999989 -78.12 0.999989 -78.12 0.003932 -167.5
8.34675000 0.003939 -168.9 0.999988 -78.13 0.999988 -78.13 0.003940 -167.5
8.34700000 0.003947 -168.9 0.999988 -78.13 0.999988 -78.13 0.003948 -167.5
8.34725000 0.003956 -168.9 0.999988 -78.13 0.999988 -78.13 0.003957 -167.5
8.34750000 0.003964 -168.9 0.999988 -78.14 0.999988 -78.14 0.003965 -167.5
8.34775000 0.003972 -168.9 0.999988 -78.14 0.999988 -78.14 0.003973 -167.5
8.34800000 0.003981 -168.9 0.999988 -78.14 0.999988 -78.14 0.003982 -167.5
8.34825000 0.003989 -168.9 0.999988 -78.14 0.999988 -78.14 0.003990 -167.5
8.34850000 0.003997 -168.9 0.999988 -78.15 0.999988 -78.15 0.003998 -167.5
8.34875000 0.004006 -168.9 0.999988 -78.15 0.999988 -78.15 0.004007 -167.5
8.34900000 0.004014 -168.9 0.999988 -78.15 0.999988 -78.15 0.004015 -167.5
8.34925000 0.004022 -168.9 0.999988 -78.16 0.999988 -78.16 0.004024 -167.5
8.34950000 0.004031 -168.9 0.999988 -78.16 0.999988 -78.16 0.004032 -167.5
8.34975000 0.004039 -168.9 0.999988 -78.16 0.999988 -78.16 0.004040 -167.5
8.35000000 0.004048 -168.9 0.999988 -78.16 0.999988 -78.16 0.004049 -167.5
8.35025000 0.004056 -168.9 0.999988 -78.17 0.999988 -78.17 0.004057 -167.5
8.35050000 0.004065 -168.9 0.999988 -78.17 0.999988 -78.17 0.004066 -167.5
8.35075000 0.004073 -168.9 0.999988 -78.17 0.999988 -78.17 0.004074 -167.5
8.35100000 0.004081 -168.9 0.999988 -78.18 0.999988 -78.18 0.004083 -167.6
8.35125000 0.004090 -168.9 0.999988 -78.18 0.999988 -78.18 0.004091 -167.6
8.35150000 0.004098 -168.9 0.999988 -78.18 0.999988 -78.18 0.004100 -167.6
8.35175000 0.004107 -168.9 0.999988 -78.18 0.999988 -78.18 0.004108 -167.6
8.35200000 0.004115 -168.9 0.999988 -78.19 0.999988 -78.19 0.004117 -167.6
8.35225000 0.004124 -168.9 0.999988 -78.19 0.999988 -78.19 0.004125 -167.6
8.35250000 0.004132 -168.9 0.999988 -78.19 0.999988 -78.19 0.004134 -167.6
8.35275000 0.004141 -168.9 0.999988 -78.20 0.999988 -78.20 0.004142 -167.6
8.35300000 0.004150 -168.9 0.999988 -78.20 0.999988 -78.20 0.004151 -167.6
8.35325000 0.004158 -168.9 0.999988 -78.20 0.999988 -78.20 0.004159 -167.6
8.35350000 0.004167 -168.9 0.999988 -78.20 0.999988 -78.20 0.004168 -167.6
8.35375000 0.004175 -168.9 0.999987 -78.21 0.999987 -78.21 0.004176 -167.6
8.35400000 0.004184 -168.9 0.999987 -78.21 0.999987 -78.21 0.004185 -167.6
8.35425000 0.004192 -168.9 0.999987 -78.21 0.999987 -78.21 0.004194 -167.6
8.35450000 0.004201 -168.9 0.999987 -78.22 0.999987 -78.22 0.004202 -167.6
8.35475000 0.004210 -168.9 0.999987 -78.22 0.999987 -78.22 0.004211 -167.6
8.35500000 0.004218 -168.9 0.999987 -78.22 0.999987 -78.22 0.004220 -167.6
8.35525000 0.004227 -168.9 0.999987 -78.22 0.999987 -78.22 0.004228 -167.6
8.35550000 0.004236 -168.9 0.999987 -78.23 0.999987 -78.23 0.004237 -167.6
8.35575000 0.004244 -168.9 0.999987 -78.23 0.999987 -78.23 0.004246 -167.6
8.35600000 0.004253 -168.9 0.999987 -78.23 0.999987 -78.23 0.004254 -167.6
8.35625000 0.004262 -168.9 0.999987 -78.24 0.999987 -78.24 0.004263 -167.6
8.35650000 0.004270 -168.9 0.999987 -78.24 0.999987 -78.24 0.004272 -167.6
8.35675000 0.004279 -168.9 0.999987 -78.24 0.999987 -78.24 0.004280 -167.7
8.35700000 0.004288 -168.9 0.999987 -78.24 0.999987 -78.24 0.004289 -167.7
8.35725000 0.004297 -168.9 0.999987 -78.25 0.999987 -78.25 0.004298 -167.7
8.35750000 0.004305 -168.9 0.999987 -78.25 0.999987 -78.25 0.004307 -167.7
8.35775000 0.004314 -168.9 0.999987 -78.25 0.999987 -78.25 0.004315 -167.7
8.35800000 0.004323 -168.9 0.999987 -78.25 0.999987 -78.25 0.004324 -167.7
8.35825000 0.004332 -168.9 0.999987 -78.26 0.999987 -78.26 0.004333 -167.7
8.35850000 0.004340 -168.9 0.999987 -78.26 0.999987 -78.26 0.004342 -167.7
8.35875000 0.004349 -168.9 0.999987 -78.26 0.999987 -78.26 0.004350 -167.7
8.35900000 0.004358 -168.9 0.999987 -78.27 0.999987 -78.27 0.004359 -167.7
8.35925000 0.004367 -168.9 0.999987 -78.27 0.999987 -78.27 0.004368 -167.7
8.35950000 0.004376 -168.9 0.999987 -78.27 0.999987 -78.27 0.004377 -167.7
8.35975000 0.004384 -168.9 0.999987 -78.27 0.999987 -78.27 0.004386 -167.7
8.36000000 0.004393 -168.9 0.999987 -78.28 0.999987 -78.28 0.004395 -167.7
8.36025000 0.004402 -168.9 0.999986 -78.28 0.999986 -78.28 0.004403 -167.7
8.36050000 0.004411 -168.9 0.999986 -78.28 0.999986 -78.28 0.004412 -167.7
8.36075000 0.004420 -168.9 0.999986 -78.29 0.999986 -78.29 0.004421 -167.7
8.36100000 0.004429 -168.9 0.999986 -78.29 0.999986 -78.29 0.004430 -167.7
8.36125000 0.004438 -168.9 0.999986 -78.29 0.999986 -78.29 0.004439 -167.7
8.36150000 0.004447 -168.9 0.999986 -78.29 0.999986 -78.29 0.004448 -167.7
8.36175000 0.004456 -168.9 0.999986 -78.30 0.999986 -78.30 0.004457 -167.7
8.36200000 0.004465 -168.9 0.999986 -78.30 0.999986 -78.30 0.004466 -167.7
8.36225000 0.004474 -168.9 0.999986 -78.30 0.999986 -78.30 0.004475 -167.7
8.36250000 0.004482 -168.9 0.999986 -78.31 0.999986 -78.31 0.004484 -167.7
8.36275000 0.004491 -168.9 0.999986 -78.31 0.999986 -78.31 0.004493 -167.8
8.36300000 0.004500 -168.9 0.999986 -78.31 0.999986 -78.31 0.004502 -167.8
8.36325000 0.004509 -168.9 0.999986 -78.31 0.999986 -78.31 0.004511 -167.8
8.36350000 0.004518 -168.9 0.999986 -78.32 0.999986 -78.32 0.004520 -167.8
8.36375000 0.004527 -169.0 0.999986 -78.32 0.999986 -78.32 0.004529 -167.8
8.36400000 0.004536 -169.0 0.999986 -78.32 0.999986 -78.32 0.004538 -167.8
8.36425000 0.004546 -169.0 0.999986 -78.33 0.999986 -78.33 0.004547 -167.8
8.36450000 0.004555 -169.0 0.999986 -78.33 0.999986 -78.33 0.004556 -167.8
8.36475000 0.004564 -169.0 0.999986 -78.33 0.999986 -78.33 0.004565 -167.8
8.36500000 0.004573 -169.0 0.999986 -78.33 0.999986 -78.33 0.004574 -167.8
8.36525000 0.004582 -169.0 0.999986 -78.34 0.999986 -78.34 0.004583 -167.8
8.36550000 0.004591 -169.0 0.999986 -78.34 0.999986 -78.34 0.004592 -167.8
8.36575000 0.004600 -169.0 0.999986 -78.34 0.999986 -78.34 0.004601 -167.8
8.36600000 0.004609 -169.0 0.999986 -78.35 0.999986 -78.35 0.004611 -167.8
8.36625000 0.004618 -169.0 0.999985 -78.35 0.999985 -78.35 0.004620 -167.8
8.36650000 0.004627 -169.0 0.999985 -78.35 0.999985 -78.35 0.004629 -167.8
8.36675000 0.004637 -169.0 0.999985 -78.35 0.999985 -78.35 0.004638 -167.8
8.36700000 0.004646 -169.0 0.999985 -78.36 0.999985 -78.36 0.004647 -167.8
8.36725000 0.004655 -169.0 0.999985 -78.36 0.999985 -78.36 0.004656 -167.8
8.36750000 0.004664 -169.0 0.999985 -78.36 0.999985 -78.36 0.004666 -167.8
8.36775000 0.004673 -169.0 0.999985 -78.37 0.999985 -78.37 0.004675 -167.8
8.36800000 0.004683 -169.0 0.999985 -78.37 0.999985 -78.37 0.004684 -167.8
8.36825000 0.004692 -169.0 0.999985 -78.37 0.999985 -78.37 0.004693 -167.8
8.36850000 0.004701 -169.0 0.999985 -78.38 0.999985 -78.38 0.004702 -167.8
8.36875000 0.004710 -169.0 0.999985 -78.38 0.999985 -78.38 0.004712 -167.8
8.36900000 0.004720 -169.0 0.999985 -78.38 0.999985 -78.38 0.004721 -167.9
8.36925000 0.004729 -169.0 0.999985 -78.38 0.999985 -78.38 0.004730 -167.9
8.36950000 0.004738 -169.0 0.999985 -78.39 0.999985 -78.39 0.004740 -167.9
8.36975000 0.004747 -169.0 0.999985 -78.39 0.999985 -78.39 0.004749 -167.9
8.37000000 0.004757 -169.0 0.999985 -78.39 0.999985 -78.39 0.004758 -167.9
8.37025000 0.004766 -169.0 0.999985 -78.40 0.999985 -78.40 0.004767 -167.9
8.37050000 0.004775 -169.0 0.999985 -78.40 0.999985 -78.40 0.004777 -167.9
8.37075000 0.004785 -169.0 0.999985 -78.40 0.999985 -78.40 0.004786 -167.9
8.37100000 0.004794 -169.0 0.999985 -78.40 0.999985 -78.40 0.004795 -167.9
8.37125000 0.004803 -169.0 0.999985 -78.41 0.999985 -78.41 0.004805 -167.9
8.37150000 0.004813 -169.0 0.999985 -78.41 0.999985 -78.41 0.004814 -167.9
8.37175000 0.004822 -169.0 0.999984 -78.41 0.999984 -78.41 0.004824 -167.9
8.37200000 0.004832 -169.0 0.999984 -78.42 0.999984 -78.42 0.004833 -167.9
8.37225000 0.004841 -169.0 0.999984 -78.42 0.999984 -78.42 0.004842 -167.9
8.37250000 0.004850 -169.0 0.999984 -78.42 0.999984 -78.42 0.004852 -167.9
8.37275000 0.004860 -169.0 0.999984 -78.42 0.999984 -78.42 0.004861 -167.9
8.37300000 0.004869 -169.0 0.999984 -78.43 0.999984 -78.43 0.004871 -167.9
8.37325000 0.004879 -169.0 0.999984 -78.43 0.999984 -78.43 0.004880 -167.9
8.37350000 0.004888 -169.0 0.999984 -78.43 0.999984 -78.43 0.004890 -167.9
8.37375000 0.004898 -169.0 0.999984 -78.44 0.999984 -78.44 0.004899 -167.9
8.37400000 0.004907 -169.0 0.999984 -78.44 0.999984 -78.44 0.004909 -167.9
8.37425000 0.004917 -169.0 0.999984 -78.44 0.999984 -78.44 0.004918 -167.9
8.37450000 0.004926 -169.0 0.999984 -78.44 0.999984 -78.44 0.004928 -167.9
8.37475000 0.004936 -169.0 0.999984 -78.45 0.999984 -78.45 0.004937 -167.9
8.37500000 0.004945 -169.0 0.999984 -78.45 0.999984 -78.45 0.004947 -168.0
8.37525000 0.004955 -169.0 0.999984 -78.45 0.999984 -78.45 0.004956 -168.0
8.37550000 0.004965 -169.0 0.999984 -78.46 0.999984 -78.46 0.004966 -168.0
8.37575000 0.004974 -169.0 0.999984 -78.46 0.999984 -78.46 0.004976 -168.0
8.37600000 0.004984 -169.0 0.999984 -78.46 0.999984 -78.46 0.004985 -168.0
8.37625000 0.004993 -169.0 0.999984 -78.46 0.999984 -78.46 0.004995 -168.0
8.37650000 0.005003 -169.0 0.999984 -78.47 0.999984 -78.47 0.005004 -168.0
8.37675000 0.005013 -169.0 0.999984 -78.47 0.999984 -78.47 0.005014 -168.0
8.37700000 0.005022 -169.0 0.999983 -78.47 0.999983 -78.47 0.005024 -168.0
8.37725000 0.005032 -169.0 0.999983 -78.48 0.999983 -78.48 0.005033 -168.0
8.37750000 0.005042 -169.0 0.999983 -78.48 0.999983 -78.48 0.005043 -168.0
8.37775000 0.005051 -169.0 0.999983 -78.48 0.999983 -78.48 0.005053 -168.0
8.37800000 0.005061 -169.0 0.999983 -78.48 0.999983 -78.48 0.005063 -168.0
8.37825000 0.005071 -169.0 0.999983 -78.49 0.999983 -78.49 0.005072 -168.0
8.37850000 0.005080 -169.0 0.999983 -78.49 0.999983 -78.49 0.005082 -168.0
8.37875000 0.005090 -169.0 0.999983 -78.49 0.999983 -78.49 0.005092 -168.0
8.37900000 0.005100 -169.0 0.999983 -78.50 0.999983 -78.50 0.005101 -168.0
8.37925000 0.005110 -169.1 0.999983 -78.50 0.999983 -78.50 0.005111 -168.0
8.37950000 0.005119 -169.1 0.999983 -78.50 0.999983 -78.50 0.005121 -168.0
8.37975000 0.005129 -169.1 0.999983 -78.50 0.999983 -78.50 0.005131 -168.0
8.38000000 0.005139 -169.1 0.999983 -78.51 0.999983 -78.51 0.005141 -168.0
8.38025000 0.005149 -169.1 0.999983 -78.51 0.999983 -78.51 0.005150 -168.0
8.38050000 0.005159 -169.1 0.999983 -78.51 0.999983 -78.51 0.005160 -168.0
8.38075000 0.005168 -169.1 0.999983 -78.52 0.999983 -78.52 0.005170 -168.0
8.38100000 0.005178 -169.1 0.999983 -78.52 0.999983 -78.52 0.005180 -168.0
8.38125000 0.005188 -169.1 0.999983 -78.52 0.999983 -78.52 0.005190 -168.0
8.38150000 0.005198 -169.1 0.999983 -78.53 0.999983 -78.53 0.005200 -168.1
8.38175000 0.005208 -169.1 0.999982 -78.53 0.999982 -78.53 0.005210 -168.1
8.38200000 0.005218 -169.1 0.999982 -78.53 0.999982 -78.53 0.005219 -168.1
8.38225000 0.005228 -169.1 0.999982 -78.53 0.999982 -78.53 0.005229 -168.1
8.38250000 0.005238 -169.1 0.999982 -78.54 0.999982 -78.54 0.005239 -168.1
8.38275000 0.005248 -169.1 0.999982 -78.54 0.999982 -78.54 0.005249 -168.1
8.38300000 0.005258 -169.1 0.999982 -78.54 0.999982 -78.54 0.005259 -168.1
8.38325000 0.005268 -169.1 0.999982 -78.55 0.999982 -78.55 0.005269 -168.1
8.38350000 0.005278 -169.1 0.999982 -78.55 0.999982 -78.55 0.005279 -168.1
8.38375000 0.005288 -169.1 0.999982 -78.55 0.999982 -78.55 0.005289 -168.1
8.38400000 0.005298 -169.1 0.999982 -78.55 0.999982 -78.55 0.005299 -168.1
8.38425000 0.005308 -169.1 0.999982 -78.56 0.999982 -78.56 0.005309 -168.1
8.38450000 0.005318 -169.1 0.999982 -78.56 0.999982 -78.56 0.005319 -168.1
8.38475000 0.005328 -169.1 0.999982 -78.56 0.999982 -78.56 0.005329 -168.1
8.38500000 0.005338 -169.1 0.999982 -78.57 0.999982 -78.57 0.005339 -168.1
8.38525000 0.005348 -169.1 0.999982 -78.57 0.999982 -78.57 0.005349 -168.1
8.38550000 0.005358 -169.1 0.999982 -78.57 0.999982 -78.57 0.005360 -168.1
8.38575000 0.005368 -169.1 0.999982 -78.57 0.999982 -78.57 0.005370 -168.1
8.38600000 0.005378 -169.1 0.999982 -78.58 0.999982 -78.58 0.005380 -168.1
8.38625000 0.005388 -169.1 0.999982 -78.58 0.999982 -78.58 0.005390 -168.1
8.38650000 0.005398 -169.1 0.999981 -78.58 0.999981 -78.58 0.005400 -168.1
8.38675000 0.005409 -169.1 0.999981 -78.59 0.999981 -78.59 0.005410 -168.1
8.38700000 0.005419 -169.1 0.999981 -78.59 0.999981 -78.59 0.005420 -168.1
8.38725000 0.005429 -169.1 0.999981 -78.59 0.999981 -78.59 0.005431 -168.1
8.38750000 0.005439 -169.1 0.999981 -78.60 0.999981 -78.60 0.005441 -168.1
8.38775000 0.005449 -169.1 0.999981 -78.60 0.999981 -78.60 0.005451 -168.2
8.38800000 0.005460 -169.1 0.999981 -78.60 0.999981 -78.60 0.005461 -168.2
8.38825000 0.005470 -169.1 0.999981 -78.60 0.999981 -78.60 0.005471 -168.2
8.38850000 0.005480 -169.1 0.999981 -78.61 0.999981 -78.61 0.005482 -168.2
8.38875000 0.005490 -169.1 0.999981 -78.61 0.999981 -78.61 0.005492 -168.2
8.38900000 0.005501 -169.1 0.999981 -78.61 0.999981 -78.61 0.005502 -168.2
8.38925000 0.005511 -169.1 0.999981 -78.62 0.999981 -78.62 0.005513 -168.2
8.38950000 0.005521 -169.1 0.999981 -78.62 0.999981 -78.62 0.005523 -168.2
8.38975000 0.005531 -169.1 0.999981 -78.62 0.999981 -78.62 0.005533 -168.2
8.39000000 0.005542 -169.1 0.999981 -78.62 0.999981 -78.62 0.005543 -168.2
8.39025000 0.005552 -169.1 0.999981 -78.63 0.999981 -78.63 0.005554 -168.2
8.39050000 0.005563 -169.1 0.999981 -78.63 0.999981 -78.63 0.005564 -168.2
8.39075000 0.005573 -169.1 0.999980 -78.63 0.999980 -78.63 0.005575 -168.2
8.39100000 0.005583 -169.1 0.999980 -78.64 0.999980 -78.64 0.005585 -168.2
8.39125000 0.005594 -169.1 0.999980 -78.64 0.999980 -78.64 0.005595 -168.2
8.39150000 0.005604 -169.1 0.999980 -78.64 0.999980 -78.64 0.005606 -168.2
8.39175000 0.005615 -169.1 0.999980 -78.65 0.999980 -78.65 0.005616 -168.2
8.39200000 0.005625 -169.1 0.999980 -78.65 0.999980 -78.65 0.005627 -168.2
8.39225000 0.005635 -169.1 0.999980 -78.65 0.999980 -78.65 0.005637 -168.2
8.39250000 0.005646 -169.1 0.999980 -78.65 0.999980 -78.65 0.005648 -168.2
8.39275000 0.005656 -169.1 0.999980 -78.66 0.999980 -78.66 0.005658 -168.2
8.39300000 0.005667 -169.2 0.999980 -78.66 0.999980 -78.66 0.005669 -168.2
8.39325000 0.005677 -169.2 0.999980 -78.66 0.999980 -78.66 0.005679 -168.2
8.39350000 0.005688 -169.2 0.999980 -78.67 0.999980 -78.67 0.005690 -168.2
8.39375000 0.005698 -169.2 0.999980 -78.67 0.999980 -78.67 0.005700 -168.2
8.39400000 0.005709 -169.2 0.999980 -78.67 0.999980 -78.67 0.005711 -168.2
8.39425000 0.005720 -169.2 0.999980 -78.67 0.999980 -78.67 0.005721 -168.3
8.39450000 0.005730 -169.2 0.999980 -78.68 0.999980 -78.68 0.005732 -168.3
8.39475000 0.005741 -169.2 0.999980 -78.68 0.999980 -78.68 0.005742 -168.3
8.39500000 0.005751 -169.2 0.999979 -78.68 0.999979 -78.68 0.005753 -168.3
8.39525000 0.005762 -169.2 0.999979 -78.69 0.999979 -78.69 0.005764 -168.3
8.39550000 0.005773 -169.2 0.999979 -78.69 0.999979 -78.69 0.005774 -168.3
8.39575000 0.005783 -169.2 0.999979 -78.69 0.999979 -78.69 0.005785 -168.3
8.39600000 0.005794 -169.2 0.999979 -78.70 0.999979 -78.70 0.005796 -168.3
8.39625000 0.005805 -169.2 0.999979 -78.70 0.999979 -78.70 0.005806 -168.3
8.39650000 0.005815 -169.2 0.999979 -78.70 0.999979 -78.70 0.005817 -168.3
8.39675000 0.005826 -169.2 0.999979 -78.70 0.999979 -78.70 0.005828 -168.3
8.39700000 0.005837 -169.2 0.999979 -78.71 0.999979 -78.71 0.005839 -168.3
8.39725000 0.005847 -169.2 0.999979 -78.71 0.999979 -78.71 0.005849 -168.3
8.39750000 0.005858 -169.2 0.999979 -78.71 0.999979 -78.71 0.005860 -168.3
8.39775000 0.005869 -169.2 0.999979 -78.72 0.999979 -78.72 0.005871 -168.3
8.39800000 0.005880 -169.2 0.999979 -78.72 0.999979 -78.72 0.005882 -168.3