! Sonnet Data File
! From: emgraph Version : 16.52
! From Project: transmon_brg
! Data is De-embedded 
! Data File Written: 11/11/2017 22:44:25
!< HDATE 11/11/2017 16:55:33
!< MDATE 11/11/2017 17:38:18
!< PARAMS
!< Lj = 15.24
!< Gap = 6.0
!< Width = 10.0
!< Airgap = 6.0
!< Pwidth = 2000.0
!< Dist = 1400.0
!< END PARAMS
# GHZ S MA R 51.80000
8.50000000 0.003645 -169.5 0.999989 -79.78 0.999989 -79.78 0.003645 -170.2
!< P1 F=8.5 Eeff=(6.44695349 -2.9785e-5) Z0=(51.7999087 1.19092e-4) R=0.0 C=0.0 
!< P2 F=8.5 Eeff=(6.44695349 -2.9785e-5) Z0=(51.7999087 1.19092e-4) R=0.0 C=0.0 
8.50020000 0.003660 -169.5 0.999989 -79.79 0.999989 -79.79 0.003660 -170.2
8.50040000 0.003675 -169.5 0.999989 -79.79 0.999989 -79.79 0.003675 -170.2
8.50060000 0.003690 -169.5 0.999989 -79.79 0.999989 -79.79 0.003690 -170.2
8.50080000 0.003705 -169.5 0.999989 -79.79 0.999989 -79.79 0.003705 -170.2
8.50100000 0.003720 -169.5 0.999989 -79.80 0.999989 -79.80 0.003720 -170.2
8.50120000 0.003736 -169.5 0.999989 -79.80 0.999989 -79.80 0.003736 -170.2
8.50140000 0.003751 -169.5 0.999988 -79.80 0.999988 -79.80 0.003751 -170.2
8.50160000 0.003766 -169.5 0.999988 -79.81 0.999988 -79.81 0.003766 -170.2
8.50180000 0.003781 -169.6 0.999988 -79.81 0.999988 -79.81 0.003781 -170.2
8.50200000 0.003796 -169.6 0.999988 -79.81 0.999988 -79.81 0.003796 -170.2
8.50220000 0.003812 -169.6 0.999988 -79.81 0.999988 -79.81 0.003812 -170.2
8.50240000 0.003827 -169.6 0.999988 -79.82 0.999988 -79.82 0.003827 -170.2
8.50260000 0.003842 -169.6 0.999988 -79.82 0.999988 -79.82 0.003842 -170.2
8.50280000 0.003858 -169.6 0.999988 -79.82 0.999988 -79.82 0.003858 -170.2
8.50300000 0.003873 -169.6 0.999988 -79.82 0.999988 -79.82 0.003873 -170.2
8.50320000 0.003888 -169.6 0.999988 -79.83 0.999988 -79.83 0.003888 -170.2
8.50340000 0.003904 -169.6 0.999988 -79.83 0.999988 -79.83 0.003904 -170.2
8.50360000 0.003919 -169.6 0.999988 -79.83 0.999988 -79.83 0.003919 -170.2
8.50380000 0.003935 -169.6 0.999988 -79.84 0.999988 -79.84 0.003935 -170.2
8.50400000 0.003950 -169.6 0.999988 -79.84 0.999988 -79.84 0.003950 -170.2
8.50420000 0.003966 -169.6 0.999988 -79.84 0.999988 -79.84 0.003966 -170.2
8.50440000 0.003981 -169.6 0.999988 -79.84 0.999988 -79.84 0.003981 -170.2
8.50460000 0.003997 -169.6 0.999987 -79.85 0.999987 -79.85 0.003997 -170.2
8.50480000 0.004012 -169.6 0.999987 -79.85 0.999987 -79.85 0.004012 -170.2
8.50500000 0.004028 -169.6 0.999987 -79.85 0.999987 -79.85 0.004028 -170.2
8.50520000 0.004043 -169.6 0.999987 -79.85 0.999987 -79.85 0.004043 -170.2
8.50540000 0.004059 -169.6 0.999987 -79.86 0.999987 -79.86 0.004059 -170.2
8.50560000 0.004074 -169.6 0.999987 -79.86 0.999987 -79.86 0.004074 -170.2
8.50580000 0.004090 -169.6 0.999987 -79.86 0.999987 -79.86 0.004090 -170.2
8.50600000 0.004106 -169.6 0.999987 -79.87 0.999987 -79.87 0.004106 -170.2
8.50620000 0.004121 -169.6 0.999987 -79.87 0.999987 -79.87 0.004122 -170.2
8.50640000 0.004137 -169.6 0.999987 -79.87 0.999987 -79.87 0.004137 -170.2
8.50660000 0.004153 -169.6 0.999987 -79.87 0.999987 -79.87 0.004153 -170.2
8.50680000 0.004169 -169.6 0.999987 -79.88 0.999987 -79.88 0.004169 -170.2
8.50700000 0.004184 -169.6 0.999987 -79.88 0.999987 -79.88 0.004185 -170.2
8.50720000 0.004200 -169.6 0.999987 -79.88 0.999987 -79.88 0.004200 -170.2
8.50740000 0.004216 -169.6 0.999987 -79.89 0.999987 -79.89 0.004216 -170.2
8.50760000 0.004232 -169.6 0.999986 -79.89 0.999986 -79.89 0.004232 -170.2
8.50780000 0.004248 -169.6 0.999986 -79.89 0.999986 -79.89 0.004248 -170.2
8.50800000 0.004264 -169.6 0.999986 -79.89 0.999986 -79.89 0.004264 -170.3
8.50820000 0.004280 -169.6 0.999986 -79.90 0.999986 -79.90 0.004280 -170.3
8.50840000 0.004296 -169.6 0.999986 -79.90 0.999986 -79.90 0.004296 -170.3
8.50860000 0.004312 -169.6 0.999986 -79.90 0.999986 -79.90 0.004312 -170.3
8.50880000 0.004328 -169.6 0.999986 -79.90 0.999986 -79.90 0.004328 -170.3
8.50900000 0.004344 -169.6 0.999986 -79.91 0.999986 -79.91 0.004344 -170.3
8.50920000 0.004360 -169.7 0.999986 -79.91 0.999986 -79.91 0.004360 -170.3
8.50940000 0.004376 -169.7 0.999986 -79.91 0.999986 -79.91 0.004376 -170.3
8.50960000 0.004392 -169.7 0.999986 -79.92 0.999986 -79.92 0.004392 -170.3
8.50980000 0.004408 -169.7 0.999986 -79.92 0.999986 -79.92 0.004408 -170.3
8.51000000 0.004424 -169.7 0.999986 -79.92 0.999986 -79.92 0.004424 -170.3
8.51020000 0.004440 -169.7 0.999986 -79.92 0.999986 -79.92 0.004440 -170.3
8.51040000 0.004456 -169.7 0.999985 -79.93 0.999985 -79.93 0.004456 -170.3
8.51060000 0.004472 -169.7 0.999985 -79.93 0.999985 -79.93 0.004473 -170.3
8.51080000 0.004489 -169.7 0.999985 -79.93 0.999985 -79.93 0.004489 -170.3
8.51100000 0.004505 -169.7 0.999985 -79.94 0.999985 -79.94 0.004505 -170.3
8.51120000 0.004521 -169.7 0.999985 -79.94 0.999985 -79.94 0.004521 -170.3
8.51140000 0.004537 -169.7 0.999985 -79.94 0.999985 -79.94 0.004538 -170.3
8.51160000 0.004554 -169.7 0.999985 -79.94 0.999985 -79.94 0.004554 -170.3
8.51180000 0.004570 -169.7 0.999985 -79.95 0.999985 -79.95 0.004570 -170.3
8.51200000 0.004586 -169.7 0.999985 -79.95 0.999985 -79.95 0.004587 -170.3
8.51220000 0.004603 -169.7 0.999985 -79.95 0.999985 -79.95 0.004603 -170.3
8.51240000 0.004619 -169.7 0.999985 -79.96 0.999985 -79.96 0.004619 -170.3
8.51260000 0.004636 -169.7 0.999985 -79.96 0.999985 -79.96 0.004636 -170.3
8.51280000 0.004652 -169.7 0.999985 -79.96 0.999985 -79.96 0.004652 -170.3
8.51300000 0.004669 -169.7 0.999984 -79.96 0.999984 -79.96 0.004669 -170.3
8.51320000 0.004685 -169.7 0.999984 -79.97 0.999984 -79.97 0.004685 -170.3
8.51340000 0.004702 -169.7 0.999984 -79.97 0.999984 -79.97 0.004702 -170.3
8.51360000 0.004718 -169.7 0.999984 -79.97 0.999984 -79.97 0.004718 -170.3
8.51380000 0.004735 -169.7 0.999984 -79.98 0.999984 -79.98 0.004735 -170.3
8.51400000 0.004751 -169.7 0.999984 -79.98 0.999984 -79.98 0.004751 -170.3
8.51420000 0.004768 -169.7 0.999984 -79.98 0.999984 -79.98 0.004768 -170.3
8.51440000 0.004785 -169.7 0.999984 -79.98 0.999984 -79.98 0.004785 -170.3
8.51460000 0.004801 -169.7 0.999984 -79.99 0.999984 -79.99 0.004801 -170.3
8.51480000 0.004818 -169.7 0.999984 -79.99 0.999984 -79.99 0.004818 -170.3
8.51500000 0.004835 -169.7 0.999984 -79.99 0.999984 -79.99 0.004835 -170.3
8.51520000 0.004851 -169.7 0.999984 -79.99 0.999984 -79.99 0.004851 -170.3
8.51540000 0.004868 -169.7 0.999983 -80.00 0.999983 -80.00 0.004868 -170.3
8.51560000 0.004885 -169.7 0.999983 -80.00 0.999983 -80.00 0.004885 -170.4
8.51580000 0.004902 -169.7 0.999983 -80.00 0.999983 -80.00 0.004902 -170.4
8.51600000 0.004919 -169.7 0.999983 -80.01 0.999983 -80.01 0.004919 -170.4
8.51620000 0.004936 -169.7 0.999983 -80.01 0.999983 -80.01 0.004936 -170.4
8.51640000 0.004952 -169.7 0.999983 -80.01 0.999983 -80.01 0.004952 -170.4
8.51660000 0.004969 -169.8 0.999983 -80.01 0.999983 -80.01 0.004969 -170.4
8.51680000 0.004986 -169.8 0.999983 -80.02 0.999983 -80.02 0.004986 -170.4
8.51700000 0.005003 -169.8 0.999983 -80.02 0.999983 -80.02 0.005003 -170.4
8.51720000 0.005020 -169.8 0.999983 -80.02 0.999983 -80.02 0.005020 -170.4
8.51740000 0.005037 -169.8 0.999983 -80.03 0.999983 -80.03 0.005037 -170.4
8.51760000 0.005054 -169.8 0.999983 -80.03 0.999983 -80.03 0.005054 -170.4
8.51780000 0.005071 -169.8 0.999982 -80.03 0.999982 -80.03 0.005071 -170.4
8.51800000 0.005088 -169.8 0.999982 -80.03 0.999982 -80.03 0.005088 -170.4
8.51820000 0.005105 -169.8 0.999982 -80.04 0.999982 -80.04 0.005106 -170.4
8.51840000 0.005123 -169.8 0.999982 -80.04 0.999982 -80.04 0.005123 -170.4
8.51860000 0.005140 -169.8 0.999982 -80.04 0.999982 -80.04 0.005140 -170.4
8.51880000 0.005157 -169.8 0.999982 -80.05 0.999982 -80.05 0.005157 -170.4
8.51900000 0.005174 -169.8 0.999982 -80.05 0.999982 -80.05 0.005174 -170.4
8.51920000 0.005191 -169.8 0.999982 -80.05 0.999982 -80.05 0.005191 -170.4
8.51940000 0.005209 -169.8 0.999982 -80.05 0.999982 -80.05 0.005209 -170.4
8.51960000 0.005226 -169.8 0.999982 -80.06 0.999982 -80.06 0.005226 -170.4
8.51980000 0.005243 -169.8 0.999982 -80.06 0.999982 -80.06 0.005243 -170.4
8.52000000 0.005261 -169.8 0.999981 -80.06 0.999981 -80.06 0.005261 -170.4
8.52020000 0.005278 -169.8 0.999981 -80.07 0.999981 -80.07 0.005278 -170.4
8.52040000 0.005295 -169.8 0.999981 -80.07 0.999981 -80.07 0.005295 -170.4
8.52060000 0.005313 -169.8 0.999981 -80.07 0.999981 -80.07 0.005313 -170.4
8.52080000 0.005330 -169.8 0.999981 -80.07 0.999981 -80.07 0.005330 -170.4
8.52100000 0.005348 -169.8 0.999981 -80.08 0.999981 -80.08 0.005348 -170.4
8.52120000 0.005365 -169.8 0.999981 -80.08 0.999981 -80.08 0.005365 -170.4
8.52140000 0.005383 -169.8 0.999981 -80.08 0.999981 -80.08 0.005383 -170.4
8.52160000 0.005400 -169.8 0.999981 -80.09 0.999981 -80.09 0.005400 -170.4
8.52180000 0.005418 -169.8 0.999981 -80.09 0.999981 -80.09 0.005418 -170.4
8.52200000 0.005435 -169.8 0.999980 -80.09 0.999980 -80.09 0.005435 -170.4
8.52220000 0.005453 -169.8 0.999980 -80.10 0.999980 -80.10 0.005453 -170.4
8.52240000 0.005471 -169.8 0.999980 -80.10 0.999980 -80.10 0.005471 -170.4
8.52260000 0.005488 -169.8 0.999980 -80.10 0.999980 -80.10 0.005488 -170.4
8.52280000 0.005506 -169.8 0.999980 -80.10 0.999980 -80.10 0.005506 -170.5
8.52300000 0.005524 -169.8 0.999980 -80.11 0.999980 -80.11 0.005524 -170.5
8.52320000 0.005542 -169.8 0.999980 -80.11 0.999980 -80.11 0.005542 -170.5
8.52340000 0.005559 -169.8 0.999980 -80.11 0.999980 -80.11 0.005559 -170.5
8.52360000 0.005577 -169.9 0.999980 -80.12 0.999980 -80.12 0.005577 -170.5
8.52380000 0.005595 -169.9 0.999980 -80.12 0.999980 -80.12 0.005595 -170.5
8.52400000 0.005613 -169.9 0.999979 -80.12 0.999979 -80.12 0.005613 -170.5
8.52420000 0.005631 -169.9 0.999979 -80.12 0.999979 -80.12 0.005631 -170.5
8.52440000 0.005649 -169.9 0.999979 -80.13 0.999979 -80.13 0.005649 -170.5
8.52460000 0.005667 -169.9 0.999979 -80.13 0.999979 -80.13 0.005667 -170.5
8.52480000 0.005684 -169.9 0.999979 -80.13 0.999979 -80.13 0.005685 -170.5
8.52500000 0.005702 -169.9 0.999979 -80.14 0.999979 -80.14 0.005703 -170.5
8.52520000 0.005720 -169.9 0.999979 -80.14 0.999979 -80.14 0.005721 -170.5
8.52540000 0.005739 -169.9 0.999979 -80.14 0.999979 -80.14 0.005739 -170.5
8.52560000 0.005757 -169.9 0.999979 -80.14 0.999979 -80.14 0.005757 -170.5
8.52580000 0.005775 -169.9 0.999979 -80.15 0.999979 -80.15 0.005775 -170.5
8.52600000 0.005793 -169.9 0.999978 -80.15 0.999978 -80.15 0.005793 -170.5
8.52620000 0.005811 -169.9 0.999978 -80.15 0.999978 -80.15 0.005811 -170.5
8.52640000 0.005829 -169.9 0.999978 -80.16 0.999978 -80.16 0.005829 -170.5
8.52660000 0.005847 -169.9 0.999978 -80.16 0.999978 -80.16 0.005847 -170.5
8.52680000 0.005866 -169.9 0.999978 -80.16 0.999978 -80.16 0.005866 -170.5
8.52700000 0.005884 -169.9 0.999978 -80.16 0.999978 -80.16 0.005884 -170.5
8.52720000 0.005902 -169.9 0.999978 -80.17 0.999978 -80.17 0.005902 -170.5
8.52740000 0.005921 -169.9 0.999978 -80.17 0.999978 -80.17 0.005921 -170.5
8.52760000 0.005939 -169.9 0.999978 -80.17 0.999978 -80.17 0.005939 -170.5
8.52780000 0.005957 -169.9 0.999977 -80.18 0.999977 -80.18 0.005957 -170.5
8.52800000 0.005976 -169.9 0.999977 -80.18 0.999977 -80.18 0.005976 -170.5
8.52820000 0.005994 -169.9 0.999977 -80.18 0.999977 -80.18 0.005994 -170.5
8.52840000 0.006013 -169.9 0.999977 -80.19 0.999977 -80.19 0.006013 -170.5
8.52860000 0.006031 -169.9 0.999977 -80.19 0.999977 -80.19 0.006031 -170.5
8.52880000 0.006050 -169.9 0.999977 -80.19 0.999977 -80.19 0.006050 -170.5
8.52900000 0.006068 -169.9 0.999977 -80.19 0.999977 -80.19 0.006068 -170.5
8.52920000 0.006087 -169.9 0.999977 -80.20 0.999977 -80.20 0.006087 -170.5
8.52940000 0.006105 -169.9 0.999977 -80.20 0.999977 -80.20 0.006105 -170.5
8.52960000 0.006124 -169.9 0.999976 -80.20 0.999976 -80.20 0.006124 -170.5
8.52980000 0.006143 -169.9 0.999976 -80.21 0.999976 -80.21 0.006143 -170.5
8.53000000 0.006161 -169.9 0.999976 -80.21 0.999976 -80.21 0.006161 -170.6
8.53020000 0.006180 -169.9 0.999976 -80.21 0.999976 -80.21 0.006180 -170.6
8.53040000 0.006199 -169.9 0.999976 -80.21 0.999976 -80.21 0.006199 -170.6
8.53060000 0.006217 -170.0 0.999976 -80.22 0.999976 -80.22 0.006218 -170.6
8.53080000 0.006236 -170.0 0.999976 -80.22 0.999976 -80.22 0.006236 -170.6
8.53100000 0.006255 -170.0 0.999976 -80.22 0.999976 -80.22 0.006255 -170.6
8.53120000 0.006274 -170.0 0.999975 -80.23 0.999975 -80.23 0.006274 -170.6
8.53140000 0.006293 -170.0 0.999975 -80.23 0.999975 -80.23 0.006293 -170.6
8.53160000 0.006312 -170.0 0.999975 -80.23 0.999975 -80.23 0.006312 -170.6
8.53180000 0.006331 -170.0 0.999975 -80.24 0.999975 -80.24 0.006331 -170.6
8.53200000 0.006350 -170.0 0.999975 -80.24 0.999975 -80.24 0.006350 -170.6
8.53220000 0.006369 -170.0 0.999975 -80.24 0.999975 -80.24 0.006369 -170.6
8.53240000 0.006388 -170.0 0.999975 -80.24 0.999975 -80.24 0.006388 -170.6
8.53260000 0.006407 -170.0 0.999975 -80.25 0.999975 -80.25 0.006407 -170.6
8.53280000 0.006426 -170.0 0.999974 -80.25 0.999974 -80.25 0.006426 -170.6
8.53300000 0.006445 -170.0 0.999974 -80.25 0.999974 -80.25 0.006445 -170.6
8.53320000 0.006464 -170.0 0.999974 -80.26 0.999974 -80.26 0.006464 -170.6
8.53340000 0.006483 -170.0 0.999974 -80.26 0.999974 -80.26 0.006483 -170.6
8.53360000 0.006503 -170.0 0.999974 -80.26 0.999974 -80.26 0.006503 -170.6
8.53380000 0.006522 -170.0 0.999974 -80.27 0.999974 -80.27 0.006522 -170.6
8.53400000 0.006541 -170.0 0.999974 -80.27 0.999974 -80.27 0.006541 -170.6
8.53420000 0.006560 -170.0 0.999974 -80.27 0.999974 -80.27 0.006560 -170.6
8.53440000 0.006580 -170.0 0.999973 -80.27 0.999973 -80.27 0.006580 -170.6
8.53460000 0.006599 -170.0 0.999973 -80.28 0.999973 -80.28 0.006599 -170.6
8.53480000 0.006618 -170.0 0.999973 -80.28 0.999973 -80.28 0.006618 -170.6
8.53500000 0.006638 -170.0 0.999973 -80.28 0.999973 -80.28 0.006638 -170.6
8.53520000 0.006657 -170.0 0.999973 -80.29 0.999973 -80.29 0.006657 -170.6
8.53540000 0.006677 -170.0 0.999973 -80.29 0.999973 -80.29 0.006677 -170.6
8.53560000 0.006696 -170.0 0.999973 -80.29 0.999973 -80.29 0.006696 -170.6
8.53580000 0.006716 -170.0 0.999973 -80.29 0.999973 -80.29 0.006716 -170.6
8.53600000 0.006735 -170.0 0.999972 -80.30 0.999972 -80.30 0.006735 -170.6
8.53620000 0.006755 -170.0 0.999972 -80.30 0.999972 -80.30 0.006755 -170.6
8.53640000 0.006775 -170.0 0.999972 -80.30 0.999972 -80.30 0.006775 -170.6
8.53660000 0.006794 -170.0 0.999972 -80.31 0.999972 -80.31 0.006794 -170.6
8.53680000 0.006814 -170.0 0.999972 -80.31 0.999972 -80.31 0.006814 -170.6
8.53700000 0.006834 -170.0 0.999972 -80.31 0.999972 -80.31 0.006834 -170.7
8.53720000 0.006853 -170.0 0.999972 -80.32 0.999972 -80.32 0.006854 -170.7
8.53740000 0.006873 -170.1 0.999971 -80.32 0.999971 -80.32 0.006873 -170.7
8.53760000 0.006893 -170.1 0.999971 -80.32 0.999971 -80.32 0.006893 -170.7
8.53780000 0.006913 -170.1 0.999971 -80.32 0.999971 -80.32 0.006913 -170.7
8.53800000 0.006933 -170.1 0.999971 -80.33 0.999971 -80.33 0.006933 -170.7
8.53820000 0.006953 -170.1 0.999971 -80.33 0.999971 -80.33 0.006953 -170.7
8.53840000 0.006973 -170.1 0.999971 -80.33 0.999971 -80.33 0.006973 -170.7
8.53860000 0.006993 -170.1 0.999971 -80.34 0.999971 -80.34 0.006993 -170.7
8.53880000 0.007013 -170.1 0.999970 -80.34 0.999970 -80.34 0.007013 -170.7
8.53900000 0.007033 -170.1 0.999970 -80.34 0.999970 -80.34 0.007033 -170.7
8.53920000 0.007053 -170.1 0.999970 -80.35 0.999970 -80.35 0.007053 -170.7
8.53940000 0.007073 -170.1 0.999970 -80.35 0.999970 -80.35 0.007073 -170.7
8.53960000 0.007093 -170.1 0.999970 -80.35 0.999970 -80.35 0.007093 -170.7
8.53980000 0.007113 -170.1 0.999970 -80.36 0.999970 -80.36 0.007113 -170.7
8.54000000 0.007133 -170.1 0.999970 -80.36 0.999970 -80.36 0.007133 -170.7
8.54020000 0.007154 -170.1 0.999969 -80.36 0.999969 -80.36 0.007154 -170.7
8.54040000 0.007174 -170.1 0.999969 -80.36 0.999969 -80.36 0.007174 -170.7
8.54060000 0.007194 -170.1 0.999969 -80.37 0.999969 -80.37 0.007194 -170.7
8.54080000 0.007214 -170.1 0.999969 -80.37 0.999969 -80.37 0.007214 -170.7
8.54100000 0.007235 -170.1 0.999969 -80.37 0.999969 -80.37 0.007235 -170.7
8.54120000 0.007255 -170.1 0.999969 -80.38 0.999969 -80.38 0.007255 -170.7
8.54140000 0.007276 -170.1 0.999969 -80.38 0.999969 -80.38 0.007276 -170.7
8.54160000 0.007296 -170.1 0.999968 -80.38 0.999968 -80.38 0.007296 -170.7
8.54180000 0.007317 -170.1 0.999968 -80.39 0.999968 -80.39 0.007317 -170.7
8.54200000 0.007337 -170.1 0.999968 -80.39 0.999968 -80.39 0.007337 -170.7
8.54220000 0.007358 -170.1 0.999968 -80.39 0.999968 -80.39 0.007358 -170.7
8.54240000 0.007378 -170.1 0.999968 -80.39 0.999968 -80.39 0.007378 -170.7
8.54260000 0.007399 -170.1 0.999968 -80.40 0.999968 -80.40 0.007399 -170.7
8.54280000 0.007419 -170.1 0.999967 -80.40 0.999967 -80.40 0.007420 -170.7
8.54300000 0.007440 -170.1 0.999967 -80.40 0.999967 -80.40 0.007440 -170.7
8.54320000 0.007461 -170.1 0.999967 -80.41 0.999967 -80.41 0.007461 -170.7
8.54340000 0.007482 -170.1 0.999967 -80.41 0.999967 -80.41 0.007482 -170.7
8.54360000 0.007502 -170.1 0.999967 -80.41 0.999967 -80.41 0.007502 -170.7
8.54380000 0.007523 -170.1 0.999967 -80.42 0.999967 -80.42 0.007523 -170.8
8.54400000 0.007544 -170.1 0.999966 -80.42 0.999966 -80.42 0.007544 -170.8
8.54420000 0.007565 -170.2 0.999966 -80.42 0.999966 -80.42 0.007565 -170.8
8.54440000 0.007586 -170.2 0.999966 -80.43 0.999966 -80.43 0.007586 -170.8
8.54460000 0.007607 -170.2 0.999966 -80.43 0.999966 -80.43 0.007607 -170.8
8.54480000 0.007628 -170.2 0.999966 -80.43 0.999966 -80.43 0.007628 -170.8
8.54500000 0.007649 -170.2 0.999966 -80.43 0.999966 -80.43 0.007649 -170.8
8.54520000 0.007670 -170.2 0.999966 -80.44 0.999966 -80.44 0.007670 -170.8
8.54540000 0.007691 -170.2 0.999965 -80.44 0.999965 -80.44 0.007691 -170.8
8.54560000 0.007712 -170.2 0.999965 -80.44 0.999965 -80.44 0.007712 -170.8
8.54580000 0.007733 -170.2 0.999965 -80.45 0.999965 -80.45 0.007733 -170.8
8.54600000 0.007754 -170.2 0.999965 -80.45 0.999965 -80.45 0.007754 -170.8
8.54620000 0.007776 -170.2 0.999965 -80.45 0.999965 -80.45 0.007776 -170.8
8.54640000 0.007797 -170.2 0.999965 -80.46 0.999965 -80.46 0.007797 -170.8
8.54660000 0.007818 -170.2 0.999964 -80.46 0.999964 -80.46 0.007818 -170.8
8.54680000 0.007840 -170.2 0.999964 -80.46 0.999964 -80.46 0.007840 -170.8
8.54700000 0.007861 -170.2 0.999964 -80.47 0.999964 -80.47 0.007861 -170.8
8.54720000 0.007882 -170.2 0.999964 -80.47 0.999964 -80.47 0.007882 -170.8
8.54740000 0.007904 -170.2 0.999964 -80.47 0.999964 -80.47 0.007904 -170.8
8.54760000 0.007925 -170.2 0.999963 -80.47 0.999963 -80.47 0.007925 -170.8
8.54780000 0.007947 -170.2 0.999963 -80.48 0.999963 -80.48 0.007947 -170.8
8.54800000 0.007968 -170.2 0.999963 -80.48 0.999963 -80.48 0.007968 -170.8
8.54820000 0.007990 -170.2 0.999963 -80.48 0.999963 -80.48 0.007990 -170.8
8.54840000 0.008011 -170.2 0.999963 -80.49 0.999963 -80.49 0.008011 -170.8
8.54860000 0.008033 -170.2 0.999963 -80.49 0.999963 -80.49 0.008033 -170.8
8.54880000 0.008055 -170.2 0.999962 -80.49 0.999962 -80.49 0.008055 -170.8
8.54900000 0.008076 -170.2 0.999962 -80.50 0.999962 -80.50 0.008076 -170.8
8.54920000 0.008098 -170.2 0.999962 -80.50 0.999962 -80.50 0.008098 -170.8
8.54940000 0.008120 -170.2 0.999962 -80.50 0.999962 -80.50 0.008120 -170.8
8.54960000 0.008142 -170.2 0.999962 -80.51 0.999962 -80.51 0.008142 -170.8
8.54980000 0.008164 -170.2 0.999962 -80.51 0.999962 -80.51 0.008164 -170.8
8.55000000 0.008186 -170.2 0.999961 -80.51 0.999961 -80.51 0.008186 -170.8
8.55020000 0.008207 -170.2 0.999961 -80.52 0.999961 -80.52 0.008207 -170.8
8.55040000 0.008229 -170.2 0.999961 -80.52 0.999961 -80.52 0.008229 -170.9
8.55060000 0.008251 -170.3 0.999961 -80.52 0.999961 -80.52 0.008251 -170.9
8.55080000 0.008273 -170.3 0.999961 -80.52 0.999961 -80.52 0.008273 -170.9
8.55100000 0.008296 -170.3 0.999960 -80.53 0.999960 -80.53 0.008296 -170.9
8.55120000 0.008318 -170.3 0.999960 -80.53 0.999960 -80.53 0.008318 -170.9
8.55140000 0.008340 -170.3 0.999960 -80.53 0.999960 -80.53 0.008340 -170.9
8.55160000 0.008362 -170.3 0.999960 -80.54 0.999960 -80.54 0.008362 -170.9
8.55180000 0.008384 -170.3 0.999960 -80.54 0.999960 -80.54 0.008384 -170.9
8.55200000 0.008406 -170.3 0.999959 -80.54 0.999959 -80.54 0.008406 -170.9
8.55220000 0.008429 -170.3 0.999959 -80.55 0.999959 -80.55 0.008429 -170.9
8.55240000 0.008451 -170.3 0.999959 -80.55 0.999959 -80.55 0.008451 -170.9
8.55260000 0.008473 -170.3 0.999959 -80.55 0.999959 -80.55 0.008473 -170.9
8.55280000 0.008496 -170.3 0.999959 -80.56 0.999959 -80.56 0.008496 -170.9
8.55300000 0.008518 -170.3 0.999959 -80.56 0.999959 -80.56 0.008518 -170.9
8.55320000 0.008541 -170.3 0.999958 -80.56 0.999958 -80.56 0.008541 -170.9
8.55340000 0.008563 -170.3 0.999958 -80.57 0.999958 -80.57 0.008563 -170.9
8.55360000 0.008586 -170.3 0.999958 -80.57 0.999958 -80.57 0.008586 -170.9
8.55380000 0.008608 -170.3 0.999958 -80.57 0.999958 -80.57 0.008608 -170.9
8.55400000 0.008631 -170.3 0.999958 -80.58 0.999958 -80.58 0.008631 -170.9
8.55420000 0.008654 -170.3 0.999957 -80.58 0.999957 -80.58 0.008654 -170.9
8.55440000 0.008676 -170.3 0.999957 -80.58 0.999957 -80.58 0.008676 -170.9
8.55460000 0.008699 -170.3 0.999957 -80.58 0.999957 -80.58 0.008699 -170.9
8.55480000 0.008722 -170.3 0.999957 -80.59 0.999957 -80.59 0.008722 -170.9
8.55500000 0.008745 -170.3 0.999957 -80.59 0.999957 -80.59 0.008745 -170.9
8.55520000 0.008768 -170.3 0.999956 -80.59 0.999956 -80.59 0.008768 -170.9
8.55540000 0.008790 -170.3 0.999956 -80.60 0.999956 -80.60 0.008790 -170.9
8.55560000 0.008813 -170.3 0.999956 -80.60 0.999956 -80.60 0.008813 -170.9
8.55580000 0.008836 -170.3 0.999956 -80.60 0.999956 -80.60 0.008836 -170.9
8.55600000 0.008859 -170.3 0.999955 -80.61 0.999955 -80.61 0.008859 -170.9
8.55620000 0.008882 -170.3 0.999955 -80.61 0.999955 -80.61 0.008882 -170.9
8.55640000 0.008906 -170.3 0.999955 -80.61 0.999955 -80.61 0.008906 -170.9
8.55660000 0.008929 -170.3 0.999955 -80.62 0.999955 -80.62 0.008929 -170.9
8.55680000 0.008952 -170.3 0.999955 -80.62 0.999955 -80.62 0.008952 -171.0
8.55700000 0.008975 -170.4 0.999954 -80.62 0.999954 -80.62 0.008975 -171.0
8.55720000 0.008998 -170.4 0.999954 -80.63 0.999954 -80.63 0.008998 -171.0
8.55740000 0.009022 -170.4 0.999954 -80.63 0.999954 -80.63 0.009022 -171.0
8.55760000 0.009045 -170.4 0.999954 -80.63 0.999954 -80.63 0.009045 -171.0
8.55780000 0.009068 -170.4 0.999954 -80.64 0.999954 -80.64 0.009068 -171.0
8.55800000 0.009092 -170.4 0.999953 -80.64 0.999953 -80.64 0.009092 -171.0
8.55820000 0.009115 -170.4 0.999953 -80.64 0.999953 -80.64 0.009115 -171.0
8.55840000 0.009139 -170.4 0.999953 -80.65 0.999953 -80.65 0.009139 -171.0
8.55860000 0.009162 -170.4 0.999953 -80.65 0.999953 -80.65 0.009162 -171.0
8.55880000 0.009186 -170.4 0.999952 -80.65 0.999952 -80.65 0.009186 -171.0
8.55900000 0.009209 -170.4 0.999952 -80.66 0.999952 -80.66 0.009209 -171.0
8.55920000 0.009233 -170.4 0.999952 -80.66 0.999952 -80.66 0.009233 -171.0
8.55940000 0.009257 -170.4 0.999952 -80.66 0.999952 -80.66 0.009257 -171.0
8.55960000 0.009280 -170.4 0.999952 -80.66 0.999952 -80.66 0.009280 -171.0
8.55980000 0.009304 -170.4 0.999951 -80.67 0.999951 -80.67 0.009304 -171.0
8.56000000 0.009328 -170.4 0.999951 -80.67 0.999951 -80.67 0.009328 -171.0
8.56020000 0.009352 -170.4 0.999951 -80.67 0.999951 -80.67 0.009352 -171.0
8.56040000 0.009376 -170.4 0.999951 -80.68 0.999951 -80.68 0.009376 -171.0
8.56060000 0.009399 -170.4 0.999950 -80.68 0.999950 -80.68 0.009399 -171.0
8.56080000 0.009423 -170.4 0.999950 -80.68 0.999950 -80.68 0.009423 -171.0
8.56100000 0.009447 -170.4 0.999950 -80.69 0.999950 -80.69 0.009447 -171.0
8.56120000 0.009471 -170.4 0.999950 -80.69 0.999950 -80.69 0.009472 -171.0
8.56140000 0.009496 -170.4 0.999950 -80.69 0.999950 -80.69 0.009496 -171.0
8.56160000 0.009520 -170.4 0.999949 -80.70 0.999949 -80.70 0.009520 -171.0
8.56180000 0.009544 -170.4 0.999949 -80.70 0.999949 -80.70 0.009544 -171.0
8.56200000 0.009568 -170.4 0.999949 -80.70 0.999949 -80.70 0.009568 -171.0
8.56220000 0.009592 -170.4 0.999949 -80.71 0.999949 -80.71 0.009592 -171.0
8.56240000 0.009617 -170.4 0.999948 -80.71 0.999948 -80.71 0.009617 -171.0
8.56260000 0.009641 -170.4 0.999948 -80.71 0.999948 -80.71 0.009641 -171.0
8.56280000 0.009665 -170.4 0.999948 -80.72 0.999948 -80.72 0.009665 -171.0
8.56300000 0.009690 -170.4 0.999948 -80.72 0.999948 -80.72 0.009690 -171.0
8.56320000 0.009714 -170.4 0.999947 -80.72 0.999947 -80.72 0.009714 -171.1
8.56340000 0.009739 -170.5 0.999947 -80.73 0.999947 -80.73 0.009739 -171.1
8.56360000 0.009763 -170.5 0.999947 -80.73 0.999947 -80.73 0.009763 -171.1
8.56380000 0.009788 -170.5 0.999947 -80.73 0.999947 -80.73 0.009788 -171.1
8.56400000 0.009813 -170.5 0.999946 -80.74 0.999946 -80.74 0.009813 -171.1
8.56420000 0.009837 -170.5 0.999946 -80.74 0.999946 -80.74 0.009837 -171.1
8.56440000 0.009862 -170.5 0.999946 -80.74 0.999946 -80.74 0.009862 -171.1
8.56460000 0.009887 -170.5 0.999946 -80.75 0.999946 -80.75 0.009887 -171.1
8.56480000 0.009911 -170.5 0.999945 -80.75 0.999945 -80.75 0.009912 -171.1
8.56500000 0.009936 -170.5 0.999945 -80.75 0.999945 -80.75 0.009936 -171.1
8.56520000 0.009961 -170.5 0.999945 -80.76 0.999945 -80.76 0.009961 -171.1
8.56540000 0.009986 -170.5 0.999945 -80.76 0.999945 -80.76 0.009986 -171.1
8.56560000 0.010011 -170.5 0.999944 -80.76 0.999944 -80.76 0.010011 -171.1
8.56580000 0.010036 -170.5 0.999944 -80.77 0.999944 -80.77 0.010036 -171.1
8.56600000 0.010061 -170.5 0.999944 -80.77 0.999944 -80.77 0.010061 -171.1
8.56620000 0.010086 -170.5 0.999944 -80.77 0.999944 -80.77 0.010086 -171.1
8.56640000 0.010112 -170.5 0.999943 -80.78 0.999943 -80.78 0.010112 -171.1
8.56660000 0.010137 -170.5 0.999943 -80.78 0.999943 -80.78 0.010137 -171.1
8.56680000 0.010162 -170.5 0.999943 -80.78 0.999943 -80.78 0.010162 -171.1
8.56700000 0.010187 -170.5 0.999943 -80.79 0.999943 -80.79 0.010187 -171.1
8.56720000 0.010213 -170.5 0.999942 -80.79 0.999942 -80.79 0.010213 -171.1
8.56740000 0.010238 -170.5 0.999942 -80.79 0.999942 -80.79 0.010238 -171.1
8.56760000 0.010263 -170.5 0.999942 -80.80 0.999942 -80.80 0.010263 -171.1
8.56780000 0.010289 -170.5 0.999942 -80.80 0.999942 -80.80 0.010289 -171.1
8.56800000 0.010314 -170.5 0.999941 -80.80 0.999941 -80.80 0.010314 -171.1
8.56820000 0.010340 -170.5 0.999941 -80.81 0.999941 -80.81 0.010340 -171.1
8.56840000 0.010366 -170.5 0.999941 -80.81 0.999941 -80.81 0.010366 -171.1
8.56860000 0.010391 -170.5 0.999941 -80.81 0.999941 -80.81 0.010391 -171.1
8.56880000 0.010417 -170.5 0.999940 -80.82 0.999940 -80.82 0.010417 -171.1
8.56900000 0.010443 -170.5 0.999940 -80.82 0.999940 -80.82 0.010443 -171.1
8.56920000 0.010468 -170.5 0.999940 -80.82 0.999940 -80.82 0.010468 -171.2
8.56940000 0.010494 -170.6 0.999939 -80.83 0.999939 -80.83 0.010494 -171.2
8.56960000 0.010520 -170.6 0.999939 -80.83 0.999939 -80.83 0.010520 -171.2
8.56980000 0.010546 -170.6 0.999939 -80.83 0.999939 -80.83 0.010546 -171.2
8.57000000 0.010572 -170.6 0.999939 -80.84 0.999939 -80.84 0.010572 -171.2
8.57020000 0.010598 -170.6 0.999938 -80.84 0.999938 -80.84 0.010598 -171.2
8.57040000 0.010624 -170.6 0.999938 -80.84 0.999938 -80.84 0.010624 -171.2
8.57060000 0.010650 -170.6 0.999938 -80.85 0.999938 -80.85 0.010650 -171.2
8.57080000 0.010676 -170.6 0.999937 -80.85 0.999937 -80.85 0.010676 -171.2
8.57100000 0.010703 -170.6 0.999937 -80.85 0.999937 -80.85 0.010703 -171.2
8.57120000 0.010729 -170.6 0.999937 -80.86 0.999937 -80.86 0.010729 -171.2
8.57140000 0.010755 -170.6 0.999937 -80.86 0.999937 -80.86 0.010755 -171.2
8.57160000 0.010781 -170.6 0.999936 -80.86 0.999936 -80.86 0.010781 -171.2
8.57180000 0.010808 -170.6 0.999936 -80.87 0.999936 -80.87 0.010808 -171.2
8.57200000 0.010834 -170.6 0.999936 -80.87 0.999936 -80.87 0.010834 -171.2
8.57220000 0.010861 -170.6 0.999935 -80.87 0.999935 -80.87 0.010861 -171.2
8.57240000 0.010887 -170.6 0.999935 -80.88 0.999935 -80.88 0.010887 -171.2
8.57260000 0.010914 -170.6 0.999935 -80.88 0.999935 -80.88 0.010914 -171.2
8.57280000 0.010940 -170.6 0.999935 -80.88 0.999935 -80.88 0.010940 -171.2
8.57300000 0.010967 -170.6 0.999934 -80.89 0.999934 -80.89 0.010967 -171.2
8.57320000 0.010994 -170.6 0.999934 -80.89 0.999934 -80.89 0.010994 -171.2
8.57340000 0.011021 -170.6 0.999934 -80.89 0.999934 -80.89 0.011021 -171.2
8.57360000 0.011047 -170.6 0.999933 -80.90 0.999933 -80.90 0.011047 -171.2
8.57380000 0.011074 -170.6 0.999933 -80.90 0.999933 -80.90 0.011074 -171.2
8.57400000 0.011101 -170.6 0.999933 -80.90 0.999933 -80.90 0.011101 -171.2
8.57420000 0.011128 -170.6 0.999932 -80.91 0.999932 -80.91 0.011128 -171.2
8.57440000 0.011155 -170.6 0.999932 -80.91 0.999932 -80.91 0.011155 -171.2
8.57460000 0.011182 -170.6 0.999932 -80.91 0.999932 -80.91 0.011182 -171.2
8.57480000 0.011209 -170.6 0.999932 -80.92 0.999932 -80.92 0.011209 -171.2
8.57500000 0.011237 -170.6 0.999931 -80.92 0.999931 -80.92 0.011237 -171.2
8.57520000 0.011264 -170.6 0.999931 -80.92 0.999931 -80.92 0.011264 -171.3
8.57540000 0.011291 -170.7 0.999931 -80.93 0.999931 -80.93 0.011291 -171.3
8.57560000 0.011318 -170.7 0.999930 -80.93 0.999930 -80.93 0.011318 -171.3
8.57580000 0.011346 -170.7 0.999930 -80.94 0.999930 -80.94 0.011346 -171.3
8.57600000 0.011373 -170.7 0.999930 -80.94 0.999930 -80.94 0.011373 -171.3
8.57620000 0.011401 -170.7 0.999929 -80.94 0.999929 -80.94 0.011401 -171.3
8.57640000 0.011428 -170.7 0.999929 -80.95 0.999929 -80.95 0.011428 -171.3
8.57660000 0.011456 -170.7 0.999929 -80.95 0.999929 -80.95 0.011456 -171.3
8.57680000 0.011483 -170.7 0.999928 -80.95 0.999928 -80.95 0.011483 -171.3
8.57700000 0.011511 -170.7 0.999928 -80.96 0.999928 -80.96 0.011511 -171.3
8.57720000 0.011539 -170.7 0.999928 -80.96 0.999928 -80.96 0.011539 -171.3
8.57740000 0.011566 -170.7 0.999927 -80.96 0.999927 -80.96 0.011566 -171.3
8.57760000 0.011594 -170.7 0.999927 -80.97 0.999927 -80.97 0.011594 -171.3
8.57780000 0.011622 -170.7 0.999927 -80.97 0.999927 -80.97 0.011622 -171.3
8.57800000 0.011650 -170.7 0.999926 -80.97 0.999926 -80.97 0.011650 -171.3
8.57820000 0.011678 -170.7 0.999926 -80.98 0.999926 -80.98 0.011678 -171.3
8.57840000 0.011706 -170.7 0.999926 -80.98 0.999926 -80.98 0.011706 -171.3