! Sonnet Data File
! From: emgraph Version : 16.52
! From Project: transmon_brg
! Data is De-embedded 
! Data File Written: 11/11/2017 22:44:24
!< HDATE 11/11/2017 16:55:33
!< MDATE 11/11/2017 17:38:18
!< PARAMS
!< Lj = 15.24
!< Gap = 6.0
!< Width = 10.0
!< Airgap = 6.0
!< Pwidth = 2000.0
!< Dist = 800.0
!< END PARAMS
# GHZ S MA R 51.80000
8.50000000 0.005602 -170.1 0.999980 -79.78 0.999980 -79.78 0.005602 -169.6
!< P1 F=8.5 Eeff=(6.44695349 -2.9785e-5) Z0=(51.7999087 1.19092e-4) R=0.0 C=0.0 
!< P2 F=8.5 Eeff=(6.44695349 -2.9785e-5) Z0=(51.7999087 1.19092e-4) R=0.0 C=0.0 
8.50020000 0.005618 -170.1 0.999980 -79.79 0.999980 -79.79 0.005618 -169.6
8.50040000 0.005635 -170.1 0.999980 -79.79 0.999980 -79.79 0.005635 -169.6
8.50060000 0.005651 -170.1 0.999979 -79.79 0.999979 -79.79 0.005651 -169.6
8.50080000 0.005668 -170.1 0.999979 -79.80 0.999979 -79.80 0.005668 -169.6
8.50100000 0.005684 -170.1 0.999979 -79.80 0.999979 -79.80 0.005684 -169.6
8.50120000 0.005701 -170.1 0.999979 -79.80 0.999979 -79.80 0.005701 -169.6
8.50140000 0.005717 -170.1 0.999979 -79.80 0.999979 -79.80 0.005717 -169.6
8.50160000 0.005734 -170.1 0.999979 -79.81 0.999979 -79.81 0.005734 -169.6
8.50180000 0.005750 -170.1 0.999979 -79.81 0.999979 -79.81 0.005750 -169.6
8.50200000 0.005767 -170.1 0.999979 -79.81 0.999979 -79.81 0.005767 -169.6
8.50220000 0.005783 -170.1 0.999979 -79.82 0.999979 -79.82 0.005783 -169.6
8.50240000 0.005800 -170.1 0.999979 -79.82 0.999979 -79.82 0.005800 -169.6
8.50260000 0.005817 -170.1 0.999978 -79.82 0.999978 -79.82 0.005817 -169.6
8.50280000 0.005833 -170.1 0.999978 -79.82 0.999978 -79.82 0.005833 -169.6
8.50300000 0.005850 -170.1 0.999978 -79.83 0.999978 -79.83 0.005850 -169.6
8.50320000 0.005867 -170.1 0.999978 -79.83 0.999978 -79.83 0.005867 -169.6
8.50340000 0.005883 -170.1 0.999978 -79.83 0.999978 -79.83 0.005883 -169.6
8.50360000 0.005900 -170.1 0.999978 -79.84 0.999978 -79.84 0.005900 -169.6
8.50380000 0.005917 -170.1 0.999978 -79.84 0.999978 -79.84 0.005917 -169.6
8.50400000 0.005934 -170.1 0.999978 -79.84 0.999978 -79.84 0.005934 -169.6
8.50420000 0.005951 -170.1 0.999978 -79.84 0.999978 -79.84 0.005951 -169.6
8.50440000 0.005967 -170.1 0.999978 -79.85 0.999978 -79.85 0.005967 -169.6
8.50460000 0.005984 -170.1 0.999977 -79.85 0.999977 -79.85 0.005984 -169.7
8.50480000 0.006001 -170.1 0.999977 -79.85 0.999977 -79.85 0.006001 -169.7
8.50500000 0.006018 -170.1 0.999977 -79.86 0.999977 -79.86 0.006018 -169.7
8.50520000 0.006035 -170.1 0.999977 -79.86 0.999977 -79.86 0.006035 -169.7
8.50540000 0.006052 -170.1 0.999977 -79.86 0.999977 -79.86 0.006052 -169.7
8.50560000 0.006069 -170.1 0.999977 -79.86 0.999977 -79.86 0.006069 -169.7
8.50580000 0.006086 -170.1 0.999977 -79.87 0.999977 -79.87 0.006086 -169.7
8.50600000 0.006103 -170.1 0.999977 -79.87 0.999977 -79.87 0.006103 -169.7
8.50620000 0.006120 -170.1 0.999977 -79.87 0.999977 -79.87 0.006120 -169.7
8.50640000 0.006137 -170.1 0.999976 -79.88 0.999976 -79.88 0.006138 -169.7
8.50660000 0.006155 -170.1 0.999976 -79.88 0.999976 -79.88 0.006155 -169.7
8.50680000 0.006172 -170.1 0.999976 -79.88 0.999976 -79.88 0.006172 -169.7
8.50700000 0.006189 -170.1 0.999976 -79.88 0.999976 -79.88 0.006189 -169.7
8.50720000 0.006206 -170.1 0.999976 -79.89 0.999976 -79.89 0.006206 -169.7
8.50740000 0.006223 -170.1 0.999976 -79.89 0.999976 -79.89 0.006224 -169.7
8.50760000 0.006241 -170.1 0.999976 -79.89 0.999976 -79.89 0.006241 -169.7
8.50780000 0.006258 -170.1 0.999976 -79.90 0.999976 -79.90 0.006258 -169.7
8.50800000 0.006275 -170.2 0.999976 -79.90 0.999976 -79.90 0.006275 -169.7
8.50820000 0.006293 -170.2 0.999975 -79.90 0.999975 -79.90 0.006293 -169.7
8.50840000 0.006310 -170.2 0.999975 -79.90 0.999975 -79.90 0.006310 -169.7
8.50860000 0.006327 -170.2 0.999975 -79.91 0.999975 -79.91 0.006328 -169.7
8.50880000 0.006345 -170.2 0.999975 -79.91 0.999975 -79.91 0.006345 -169.7
8.50900000 0.006362 -170.2 0.999975 -79.91 0.999975 -79.91 0.006362 -169.7
8.50920000 0.006380 -170.2 0.999975 -79.92 0.999975 -79.92 0.006380 -169.7
8.50940000 0.006397 -170.2 0.999975 -79.92 0.999975 -79.92 0.006397 -169.7
8.50960000 0.006415 -170.2 0.999975 -79.92 0.999975 -79.92 0.006415 -169.7
8.50980000 0.006432 -170.2 0.999975 -79.92 0.999975 -79.92 0.006432 -169.7
8.51000000 0.006450 -170.2 0.999974 -79.93 0.999974 -79.93 0.006450 -169.8
8.51020000 0.006468 -170.2 0.999974 -79.93 0.999974 -79.93 0.006468 -169.8
8.51040000 0.006485 -170.2 0.999974 -79.93 0.999974 -79.93 0.006485 -169.8
8.51060000 0.006503 -170.2 0.999974 -79.94 0.999974 -79.94 0.006503 -169.8
8.51080000 0.006521 -170.2 0.999974 -79.94 0.999974 -79.94 0.006521 -169.8
8.51100000 0.006538 -170.2 0.999974 -79.94 0.999974 -79.94 0.006538 -169.8
8.51120000 0.006556 -170.2 0.999974 -79.94 0.999974 -79.94 0.006556 -169.8
8.51140000 0.006574 -170.2 0.999974 -79.95 0.999974 -79.95 0.006574 -169.8
8.51160000 0.006592 -170.2 0.999973 -79.95 0.999973 -79.95 0.006592 -169.8
8.51180000 0.006609 -170.2 0.999973 -79.95 0.999973 -79.95 0.006610 -169.8
8.51200000 0.006627 -170.2 0.999973 -79.96 0.999973 -79.96 0.006627 -169.8
8.51220000 0.006645 -170.2 0.999973 -79.96 0.999973 -79.96 0.006645 -169.8
8.51240000 0.006663 -170.2 0.999973 -79.96 0.999973 -79.96 0.006663 -169.8
8.51260000 0.006681 -170.2 0.999973 -79.96 0.999973 -79.96 0.006681 -169.8
8.51280000 0.006699 -170.2 0.999973 -79.97 0.999973 -79.97 0.006699 -169.8
8.51300000 0.006717 -170.2 0.999973 -79.97 0.999973 -79.97 0.006717 -169.8
8.51320000 0.006735 -170.2 0.999973 -79.97 0.999973 -79.97 0.006735 -169.8
8.51340000 0.006753 -170.2 0.999972 -79.98 0.999972 -79.98 0.006753 -169.8
8.51360000 0.006771 -170.2 0.999972 -79.98 0.999972 -79.98 0.006771 -169.8
8.51380000 0.006789 -170.2 0.999972 -79.98 0.999972 -79.98 0.006789 -169.8
8.51400000 0.006807 -170.2 0.999972 -79.98 0.999972 -79.98 0.006807 -169.8
8.51420000 0.006825 -170.2 0.999972 -79.99 0.999972 -79.99 0.006826 -169.8
8.51440000 0.006844 -170.2 0.999972 -79.99 0.999972 -79.99 0.006844 -169.8
8.51460000 0.006862 -170.2 0.999972 -79.99 0.999972 -79.99 0.006862 -169.8
8.51480000 0.006880 -170.2 0.999971 -80.00 0.999971 -80.00 0.006880 -169.8
8.51500000 0.006898 -170.2 0.999971 -80.00 0.999971 -80.00 0.006898 -169.8
8.51520000 0.006916 -170.2 0.999971 -80.00 0.999971 -80.00 0.006917 -169.8
8.51540000 0.006935 -170.2 0.999971 -80.01 0.999971 -80.01 0.006935 -169.8
8.51560000 0.006953 -170.2 0.999971 -80.01 0.999971 -80.01 0.006953 -169.9
8.51580000 0.006972 -170.2 0.999971 -80.01 0.999971 -80.01 0.006972 -169.9
8.51600000 0.006990 -170.2 0.999971 -80.01 0.999971 -80.01 0.006990 -169.9
8.51620000 0.007008 -170.2 0.999971 -80.02 0.999971 -80.02 0.007009 -169.9
8.51640000 0.007027 -170.2 0.999970 -80.02 0.999970 -80.02 0.007027 -169.9
8.51660000 0.007045 -170.2 0.999970 -80.02 0.999970 -80.02 0.007046 -169.9
8.51680000 0.007064 -170.2 0.999970 -80.03 0.999970 -80.03 0.007064 -169.9
8.51700000 0.007082 -170.2 0.999970 -80.03 0.999970 -80.03 0.007083 -169.9
8.51720000 0.007101 -170.2 0.999970 -80.03 0.999970 -80.03 0.007101 -169.9
8.51740000 0.007120 -170.2 0.999970 -80.03 0.999970 -80.03 0.007120 -169.9
8.51760000 0.007138 -170.3 0.999970 -80.04 0.999970 -80.04 0.007138 -169.9
8.51780000 0.007157 -170.3 0.999969 -80.04 0.999969 -80.04 0.007157 -169.9
8.51800000 0.007175 -170.3 0.999969 -80.04 0.999969 -80.04 0.007176 -169.9
8.51820000 0.007194 -170.3 0.999969 -80.05 0.999969 -80.05 0.007195 -169.9
8.51840000 0.007213 -170.3 0.999969 -80.05 0.999969 -80.05 0.007213 -169.9
8.51860000 0.007232 -170.3 0.999969 -80.05 0.999969 -80.05 0.007232 -169.9
8.51880000 0.007251 -170.3 0.999969 -80.05 0.999969 -80.05 0.007251 -169.9
8.51900000 0.007269 -170.3 0.999969 -80.06 0.999969 -80.06 0.007270 -169.9
8.51920000 0.007288 -170.3 0.999969 -80.06 0.999969 -80.06 0.007289 -169.9
8.51940000 0.007307 -170.3 0.999968 -80.06 0.999968 -80.06 0.007307 -169.9
8.51960000 0.007326 -170.3 0.999968 -80.07 0.999968 -80.07 0.007326 -169.9
8.51980000 0.007345 -170.3 0.999968 -80.07 0.999968 -80.07 0.007345 -169.9
8.52000000 0.007364 -170.3 0.999968 -80.07 0.999968 -80.07 0.007364 -169.9
8.52020000 0.007383 -170.3 0.999968 -80.08 0.999968 -80.08 0.007383 -169.9
8.52040000 0.007402 -170.3 0.999968 -80.08 0.999968 -80.08 0.007402 -169.9
8.52060000 0.007421 -170.3 0.999968 -80.08 0.999968 -80.08 0.007421 -169.9
8.52080000 0.007440 -170.3 0.999967 -80.08 0.999967 -80.08 0.007441 -169.9
8.52100000 0.007459 -170.3 0.999967 -80.09 0.999967 -80.09 0.007460 -169.9
8.52120000 0.007478 -170.3 0.999967 -80.09 0.999967 -80.09 0.007479 -170.0
8.52140000 0.007498 -170.3 0.999967 -80.09 0.999967 -80.09 0.007498 -170.0
8.52160000 0.007517 -170.3 0.999967 -80.10 0.999967 -80.10 0.007517 -170.0
8.52180000 0.007536 -170.3 0.999967 -80.10 0.999967 -80.10 0.007536 -170.0
8.52200000 0.007555 -170.3 0.999966 -80.10 0.999966 -80.10 0.007556 -170.0
8.52220000 0.007575 -170.3 0.999966 -80.11 0.999966 -80.11 0.007575 -170.0
8.52240000 0.007594 -170.3 0.999966 -80.11 0.999966 -80.11 0.007594 -170.0
8.52260000 0.007613 -170.3 0.999966 -80.11 0.999966 -80.11 0.007614 -170.0
8.52280000 0.007633 -170.3 0.999966 -80.11 0.999966 -80.11 0.007633 -170.0
8.52300000 0.007652 -170.3 0.999966 -80.12 0.999966 -80.12 0.007653 -170.0
8.52320000 0.007672 -170.3 0.999966 -80.12 0.999966 -80.12 0.007672 -170.0
8.52340000 0.007691 -170.3 0.999965 -80.12 0.999965 -80.12 0.007692 -170.0
8.52360000 0.007711 -170.3 0.999965 -80.13 0.999965 -80.13 0.007711 -170.0
8.52380000 0.007730 -170.3 0.999965 -80.13 0.999965 -80.13 0.007731 -170.0
8.52400000 0.007750 -170.3 0.999965 -80.13 0.999965 -80.13 0.007750 -170.0
8.52420000 0.007769 -170.3 0.999965 -80.14 0.999965 -80.14 0.007770 -170.0
8.52440000 0.007789 -170.3 0.999965 -80.14 0.999965 -80.14 0.007790 -170.0
8.52460000 0.007809 -170.3 0.999965 -80.14 0.999965 -80.14 0.007809 -170.0
8.52480000 0.007829 -170.3 0.999964 -80.14 0.999964 -80.14 0.007829 -170.0
8.52500000 0.007848 -170.3 0.999964 -80.15 0.999964 -80.15 0.007849 -170.0
8.52520000 0.007868 -170.3 0.999964 -80.15 0.999964 -80.15 0.007868 -170.0
8.52540000 0.007888 -170.3 0.999964 -80.15 0.999964 -80.15 0.007888 -170.0
8.52560000 0.007908 -170.3 0.999964 -80.16 0.999964 -80.16 0.007908 -170.0
8.52580000 0.007928 -170.3 0.999964 -80.16 0.999964 -80.16 0.007928 -170.0
8.52600000 0.007947 -170.3 0.999963 -80.16 0.999963 -80.16 0.007948 -170.0
8.52620000 0.007967 -170.3 0.999963 -80.17 0.999963 -80.17 0.007968 -170.0
8.52640000 0.007987 -170.4 0.999963 -80.17 0.999963 -80.17 0.007988 -170.0
8.52660000 0.008007 -170.4 0.999963 -80.17 0.999963 -80.17 0.008008 -170.0
8.52680000 0.008027 -170.4 0.999963 -80.17 0.999963 -80.17 0.008028 -170.1
8.52700000 0.008047 -170.4 0.999963 -80.18 0.999963 -80.18 0.008048 -170.1
8.52720000 0.008067 -170.4 0.999962 -80.18 0.999962 -80.18 0.008068 -170.1
8.52740000 0.008088 -170.4 0.999962 -80.18 0.999962 -80.18 0.008088 -170.1
8.52760000 0.008108 -170.4 0.999962 -80.19 0.999962 -80.19 0.008108 -170.1
8.52780000 0.008128 -170.4 0.999962 -80.19 0.999962 -80.19 0.008128 -170.1
8.52800000 0.008148 -170.4 0.999962 -80.19 0.999962 -80.19 0.008149 -170.1
8.52820000 0.008168 -170.4 0.999962 -80.20 0.999962 -80.20 0.008169 -170.1
8.52840000 0.008189 -170.4 0.999961 -80.20 0.999961 -80.20 0.008189 -170.1
8.52860000 0.008209 -170.4 0.999961 -80.20 0.999961 -80.20 0.008209 -170.1
8.52880000 0.008229 -170.4 0.999961 -80.20 0.999961 -80.20 0.008230 -170.1
8.52900000 0.008250 -170.4 0.999961 -80.21 0.999961 -80.21 0.008250 -170.1
8.52920000 0.008270 -170.4 0.999961 -80.21 0.999961 -80.21 0.008271 -170.1
8.52940000 0.008291 -170.4 0.999961 -80.21 0.999961 -80.21 0.008291 -170.1
8.52960000 0.008311 -170.4 0.999960 -80.22 0.999960 -80.22 0.008312 -170.1
8.52980000 0.008332 -170.4 0.999960 -80.22 0.999960 -80.22 0.008332 -170.1
8.53000000 0.008352 -170.4 0.999960 -80.22 0.999960 -80.22 0.008353 -170.1
8.53020000 0.008373 -170.4 0.999960 -80.23 0.999960 -80.23 0.008373 -170.1
8.53040000 0.008393 -170.4 0.999960 -80.23 0.999960 -80.23 0.008394 -170.1
8.53060000 0.008414 -170.4 0.999959 -80.23 0.999959 -80.23 0.008414 -170.1
8.53080000 0.008435 -170.4 0.999959 -80.24 0.999959 -80.24 0.008435 -170.1
8.53100000 0.008455 -170.4 0.999959 -80.24 0.999959 -80.24 0.008456 -170.1
8.53120000 0.008476 -170.4 0.999959 -80.24 0.999959 -80.24 0.008477 -170.1
8.53140000 0.008497 -170.4 0.999959 -80.24 0.999959 -80.24 0.008497 -170.1
8.53160000 0.008518 -170.4 0.999959 -80.25 0.999959 -80.25 0.008518 -170.1
8.53180000 0.008539 -170.4 0.999958 -80.25 0.999958 -80.25 0.008539 -170.1
8.53200000 0.008559 -170.4 0.999958 -80.25 0.999958 -80.25 0.008560 -170.1
8.53220000 0.008580 -170.4 0.999958 -80.26 0.999958 -80.26 0.008581 -170.1
8.53240000 0.008601 -170.4 0.999958 -80.26 0.999958 -80.26 0.008602 -170.2
8.53260000 0.008622 -170.4 0.999958 -80.26 0.999958 -80.26 0.008623 -170.2
8.53280000 0.008643 -170.4 0.999957 -80.27 0.999957 -80.27 0.008644 -170.2
8.53300000 0.008664 -170.4 0.999957 -80.27 0.999957 -80.27 0.008665 -170.2
8.53320000 0.008685 -170.4 0.999957 -80.27 0.999957 -80.27 0.008686 -170.2
8.53340000 0.008707 -170.4 0.999957 -80.27 0.999957 -80.27 0.008707 -170.2
8.53360000 0.008728 -170.4 0.999957 -80.28 0.999957 -80.28 0.008728 -170.2
8.53380000 0.008749 -170.4 0.999957 -80.28 0.999957 -80.28 0.008749 -170.2
8.53400000 0.008770 -170.4 0.999956 -80.28 0.999956 -80.28 0.008771 -170.2
8.53420000 0.008791 -170.4 0.999956 -80.29 0.999956 -80.29 0.008792 -170.2
8.53440000 0.008813 -170.4 0.999956 -80.29 0.999956 -80.29 0.008813 -170.2
8.53460000 0.008834 -170.5 0.999956 -80.29 0.999956 -80.29 0.008835 -170.2
8.53480000 0.008855 -170.5 0.999956 -80.30 0.999956 -80.30 0.008856 -170.2
8.53500000 0.008877 -170.5 0.999955 -80.30 0.999955 -80.30 0.008877 -170.2
8.53520000 0.008898 -170.5 0.999955 -80.30 0.999955 -80.30 0.008899 -170.2
8.53540000 0.008920 -170.5 0.999955 -80.31 0.999955 -80.31 0.008920 -170.2
8.53560000 0.008941 -170.5 0.999955 -80.31 0.999955 -80.31 0.008942 -170.2
8.53580000 0.008963 -170.5 0.999955 -80.31 0.999955 -80.31 0.008963 -170.2
8.53600000 0.008984 -170.5 0.999954 -80.32 0.999954 -80.32 0.008985 -170.2
8.53620000 0.009006 -170.5 0.999954 -80.32 0.999954 -80.32 0.009007 -170.2
8.53640000 0.009028 -170.5 0.999954 -80.32 0.999954 -80.32 0.009028 -170.2
8.53660000 0.009049 -170.5 0.999954 -80.32 0.999954 -80.32 0.009050 -170.2
8.53680000 0.009071 -170.5 0.999954 -80.33 0.999954 -80.33 0.009072 -170.2
8.53700000 0.009093 -170.5 0.999953 -80.33 0.999953 -80.33 0.009093 -170.2
8.53720000 0.009115 -170.5 0.999953 -80.33 0.999953 -80.33 0.009115 -170.2
8.53740000 0.009136 -170.5 0.999953 -80.34 0.999953 -80.34 0.009137 -170.2
8.53760000 0.009158 -170.5 0.999953 -80.34 0.999953 -80.34 0.009159 -170.2
8.53780000 0.009180 -170.5 0.999953 -80.34 0.999953 -80.34 0.009181 -170.2
8.53800000 0.009202 -170.5 0.999952 -80.35 0.999952 -80.35 0.009203 -170.3
8.53820000 0.009224 -170.5 0.999952 -80.35 0.999952 -80.35 0.009225 -170.3
8.53840000 0.009246 -170.5 0.999952 -80.35 0.999952 -80.35 0.009247 -170.3
8.53860000 0.009268 -170.5 0.999952 -80.36 0.999952 -80.36 0.009269 -170.3
8.53880000 0.009290 -170.5 0.999952 -80.36 0.999952 -80.36 0.009291 -170.3
8.53900000 0.009312 -170.5 0.999951 -80.36 0.999951 -80.36 0.009313 -170.3
8.53920000 0.009335 -170.5 0.999951 -80.37 0.999951 -80.37 0.009335 -170.3
8.53940000 0.009357 -170.5 0.999951 -80.37 0.999951 -80.37 0.009357 -170.3
8.53960000 0.009379 -170.5 0.999951 -80.37 0.999951 -80.37 0.009380 -170.3
8.53980000 0.009401 -170.5 0.999951 -80.37 0.999951 -80.37 0.009402 -170.3
8.54000000 0.009424 -170.5 0.999950 -80.38 0.999950 -80.38 0.009424 -170.3
8.54020000 0.009446 -170.5 0.999950 -80.38 0.999950 -80.38 0.009447 -170.3
8.54040000 0.009468 -170.5 0.999950 -80.38 0.999950 -80.38 0.009469 -170.3
8.54060000 0.009491 -170.5 0.999950 -80.39 0.999950 -80.39 0.009491 -170.3
8.54080000 0.009513 -170.5 0.999949 -80.39 0.999949 -80.39 0.009514 -170.3
8.54100000 0.009536 -170.5 0.999949 -80.39 0.999949 -80.39 0.009536 -170.3
8.54120000 0.009558 -170.5 0.999949 -80.40 0.999949 -80.40 0.009559 -170.3
8.54140000 0.009581 -170.5 0.999949 -80.40 0.999949 -80.40 0.009581 -170.3
8.54160000 0.009603 -170.5 0.999949 -80.40 0.999949 -80.40 0.009604 -170.3
8.54180000 0.009626 -170.5 0.999948 -80.41 0.999948 -80.41 0.009627 -170.3
8.54200000 0.009649 -170.5 0.999948 -80.41 0.999948 -80.41 0.009649 -170.3
8.54220000 0.009672 -170.6 0.999948 -80.41 0.999948 -80.41 0.009672 -170.3
8.54240000 0.009694 -170.6 0.999948 -80.42 0.999948 -80.42 0.009695 -170.3
8.54260000 0.009717 -170.6 0.999947 -80.42 0.999947 -80.42 0.009718 -170.3
8.54280000 0.009740 -170.6 0.999947 -80.42 0.999947 -80.42 0.009741 -170.3
8.54300000 0.009763 -170.6 0.999947 -80.43 0.999947 -80.43 0.009763 -170.3
8.54320000 0.009786 -170.6 0.999947 -80.43 0.999947 -80.43 0.009786 -170.3
8.54340000 0.009809 -170.6 0.999947 -80.43 0.999947 -80.43 0.009809 -170.3
8.54360000 0.009832 -170.6 0.999946 -80.43 0.999946 -80.43 0.009832 -170.4
8.54380000 0.009855 -170.6 0.999946 -80.44 0.999946 -80.44 0.009855 -170.4
8.54400000 0.009878 -170.6 0.999946 -80.44 0.999946 -80.44 0.009879 -170.4
8.54420000 0.009901 -170.6 0.999946 -80.44 0.999946 -80.44 0.009902 -170.4
8.54440000 0.009924 -170.6 0.999945 -80.45 0.999945 -80.45 0.009925 -170.4
8.54460000 0.009947 -170.6 0.999945 -80.45 0.999945 -80.45 0.009948 -170.4
8.54480000 0.009971 -170.6 0.999945 -80.45 0.999945 -80.45 0.009971 -170.4
8.54500000 0.009994 -170.6 0.999945 -80.46 0.999945 -80.46 0.009995 -170.4
8.54520000 0.010017 -170.6 0.999944 -80.46 0.999944 -80.46 0.010018 -170.4
8.54540000 0.010041 -170.6 0.999944 -80.46 0.999944 -80.46 0.010041 -170.4
8.54560000 0.010064 -170.6 0.999944 -80.47 0.999944 -80.47 0.010065 -170.4
8.54580000 0.010087 -170.6 0.999944 -80.47 0.999944 -80.47 0.010088 -170.4
8.54600000 0.010111 -170.6 0.999943 -80.47 0.999943 -80.47 0.010112 -170.4
8.54620000 0.010134 -170.6 0.999943 -80.48 0.999943 -80.48 0.010135 -170.4
8.54640000 0.010158 -170.6 0.999943 -80.48 0.999943 -80.48 0.010159 -170.4
8.54660000 0.010182 -170.6 0.999943 -80.48 0.999943 -80.48 0.010182 -170.4
8.54680000 0.010205 -170.6 0.999943 -80.49 0.999943 -80.49 0.010206 -170.4
8.54700000 0.010229 -170.6 0.999942 -80.49 0.999942 -80.49 0.010230 -170.4
8.54720000 0.010253 -170.6 0.999942 -80.49 0.999942 -80.49 0.010253 -170.4
8.54740000 0.010276 -170.6 0.999942 -80.50 0.999942 -80.50 0.010277 -170.4
8.54760000 0.010300 -170.6 0.999942 -80.50 0.999942 -80.50 0.010301 -170.4
8.54780000 0.010324 -170.6 0.999941 -80.50 0.999941 -80.50 0.010325 -170.4
8.54800000 0.010348 -170.6 0.999941 -80.51 0.999941 -80.51 0.010349 -170.4
8.54820000 0.010372 -170.6 0.999941 -80.51 0.999941 -80.51 0.010373 -170.4
8.54840000 0.010396 -170.6 0.999941 -80.51 0.999941 -80.51 0.010397 -170.4
8.54860000 0.010420 -170.6 0.999940 -80.52 0.999940 -80.52 0.010421 -170.4
8.54880000 0.010444 -170.6 0.999940 -80.52 0.999940 -80.52 0.010445 -170.4
8.54900000 0.010468 -170.6 0.999940 -80.52 0.999940 -80.52 0.010469 -170.4
8.54920000 0.010492 -170.6 0.999939 -80.52 0.999939 -80.52 0.010493 -170.5
8.54940000 0.010516 -170.6 0.999939 -80.53 0.999939 -80.53 0.010517 -170.5
8.54960000 0.010541 -170.7 0.999939 -80.53 0.999939 -80.53 0.010541 -170.5
8.54980000 0.010565 -170.7 0.999939 -80.53 0.999939 -80.53 0.010566 -170.5
8.55000000 0.010589 -170.7 0.999938 -80.54 0.999938 -80.54 0.010590 -170.5
8.55020000 0.010613 -170.7 0.999938 -80.54 0.999938 -80.54 0.010614 -170.5
8.55040000 0.010638 -170.7 0.999938 -80.54 0.999938 -80.54 0.010639 -170.5
8.55060000 0.010662 -170.7 0.999938 -80.55 0.999938 -80.55 0.010663 -170.5
8.55080000 0.010687 -170.7 0.999937 -80.55 0.999937 -80.55 0.010688 -170.5
8.55100000 0.010711 -170.7 0.999937 -80.55 0.999937 -80.55 0.010712 -170.5
8.55120000 0.010736 -170.7 0.999937 -80.56 0.999937 -80.56 0.010737 -170.5
8.55140000 0.010760 -170.7 0.999937 -80.56 0.999937 -80.56 0.010761 -170.5
8.55160000 0.010785 -170.7 0.999936 -80.56 0.999936 -80.56 0.010786 -170.5
8.55180000 0.010810 -170.7 0.999936 -80.57 0.999936 -80.57 0.010811 -170.5
8.55200000 0.010835 -170.7 0.999936 -80.57 0.999936 -80.57 0.010835 -170.5
8.55220000 0.010859 -170.7 0.999935 -80.57 0.999935 -80.57 0.010860 -170.5
8.55240000 0.010884 -170.7 0.999935 -80.58 0.999935 -80.58 0.010885 -170.5
8.55260000 0.010909 -170.7 0.999935 -80.58 0.999935 -80.58 0.010910 -170.5
8.55280000 0.010934 -170.7 0.999935 -80.58 0.999935 -80.58 0.010935 -170.5
8.55300000 0.010959 -170.7 0.999934 -80.59 0.999934 -80.59 0.010960 -170.5
8.55320000 0.010984 -170.7 0.999934 -80.59 0.999934 -80.59 0.010985 -170.5
8.55340000 0.011009 -170.7 0.999934 -80.59 0.999934 -80.59 0.011010 -170.5
8.55360000 0.011034 -170.7 0.999934 -80.60 0.999934 -80.60 0.011035 -170.5
8.55380000 0.011059 -170.7 0.999933 -80.60 0.999933 -80.60 0.011060 -170.5
8.55400000 0.011084 -170.7 0.999933 -80.60 0.999933 -80.60 0.011085 -170.5
8.55420000 0.011110 -170.7 0.999933 -80.61 0.999933 -80.61 0.011110 -170.5
8.55440000 0.011135 -170.7 0.999932 -80.61 0.999932 -80.61 0.011136 -170.5
8.55460000 0.011160 -170.7 0.999932 -80.61 0.999932 -80.61 0.011161 -170.6
8.55480000 0.011186 -170.7 0.999932 -80.62 0.999932 -80.62 0.011186 -170.6
8.55500000 0.011211 -170.7 0.999932 -80.62 0.999932 -80.62 0.011212 -170.6
8.55520000 0.011236 -170.7 0.999931 -80.62 0.999931 -80.62 0.011237 -170.6
8.55540000 0.011262 -170.7 0.999931 -80.63 0.999931 -80.63 0.011263 -170.6
8.55560000 0.011288 -170.7 0.999931 -80.63 0.999931 -80.63 0.011288 -170.6
8.55580000 0.011313 -170.7 0.999930 -80.63 0.999930 -80.63 0.011314 -170.6
8.55600000 0.011339 -170.7 0.999930 -80.64 0.999930 -80.64 0.011340 -170.6
8.55620000 0.011364 -170.7 0.999930 -80.64 0.999930 -80.64 0.011365 -170.6
8.55640000 0.011390 -170.8 0.999929 -80.64 0.999929 -80.64 0.011391 -170.6
8.55660000 0.011416 -170.8 0.999929 -80.65 0.999929 -80.65 0.011417 -170.6
8.55680000 0.011442 -170.8 0.999929 -80.65 0.999929 -80.65 0.011443 -170.6
8.55700000 0.011468 -170.8 0.999929 -80.65 0.999929 -80.65 0.011468 -170.6
8.55720000 0.011494 -170.8 0.999928 -80.66 0.999928 -80.66 0.011494 -170.6
8.55740000 0.011520 -170.8 0.999928 -80.66 0.999928 -80.66 0.011520 -170.6
8.55760000 0.011546 -170.8 0.999928 -80.66 0.999928 -80.66 0.011546 -170.6
8.55780000 0.011572 -170.8 0.999927 -80.67 0.999927 -80.67 0.011572 -170.6
8.55800000 0.011598 -170.8 0.999927 -80.67 0.999927 -80.67 0.011598 -170.6
8.55820000 0.011624 -170.8 0.999927 -80.67 0.999927 -80.67 0.011625 -170.6
8.55840000 0.011650 -170.8 0.999926 -80.68 0.999926 -80.68 0.011651 -170.6
8.55860000 0.011676 -170.8 0.999926 -80.68 0.999926 -80.68 0.011677 -170.6
8.55880000 0.011703 -170.8 0.999926 -80.68 0.999926 -80.68 0.011703 -170.6
8.55900000 0.011729 -170.8 0.999926 -80.69 0.999926 -80.69 0.011730 -170.6
8.55920000 0.011755 -170.8 0.999925 -80.69 0.999925 -80.69 0.011756 -170.6
8.55940000 0.011782 -170.8 0.999925 -80.69 0.999925 -80.69 0.011783 -170.6
8.55960000 0.011808 -170.8 0.999925 -80.70 0.999925 -80.70 0.011809 -170.6
8.55980000 0.011835 -170.8 0.999924 -80.70 0.999924 -80.70 0.011836 -170.6
8.56000000 0.011861 -170.8 0.999924 -80.70 0.999924 -80.70 0.011862 -170.7
8.56020000 0.011888 -170.8 0.999924 -80.71 0.999924 -80.71 0.011889 -170.7
8.56040000 0.011915 -170.8 0.999923 -80.71 0.999923 -80.71 0.011915 -170.7
8.56060000 0.011941 -170.8 0.999923 -80.71 0.999923 -80.71 0.011942 -170.7
8.56080000 0.011968 -170.8 0.999923 -80.72 0.999923 -80.72 0.011969 -170.7
8.56100000 0.011995 -170.8 0.999922 -80.72 0.999922 -80.72 0.011996 -170.7
8.56120000 0.012022 -170.8 0.999922 -80.72 0.999922 -80.72 0.012023 -170.7
8.56140000 0.012049 -170.8 0.999922 -80.73 0.999922 -80.73 0.012050 -170.7
8.56160000 0.012076 -170.8 0.999921 -80.73 0.999921 -80.73 0.012077 -170.7
8.56180000 0.012103 -170.8 0.999921 -80.74 0.999921 -80.74 0.012104 -170.7
8.56200000 0.012130 -170.8 0.999921 -80.74 0.999921 -80.74 0.012131 -170.7
8.56220000 0.012157 -170.8 0.999920 -80.74 0.999920 -80.74 0.012158 -170.7
8.56240000 0.012184 -170.8 0.999920 -80.75 0.999920 -80.75 0.012185 -170.7
8.56260000 0.012211 -170.8 0.999920 -80.75 0.999920 -80.75 0.012212 -170.7
8.56280000 0.012239 -170.8 0.999919 -80.75 0.999919 -80.75 0.012240 -170.7
8.56300000 0.012266 -170.8 0.999919 -80.76 0.999919 -80.76 0.012267 -170.7
8.56320000 0.012293 -170.9 0.999919 -80.76 0.999919 -80.76 0.012294 -170.7
8.56340000 0.012321 -170.9 0.999918 -80.76 0.999918 -80.76 0.012322 -170.7
8.56360000 0.012348 -170.9 0.999918 -80.77 0.999918 -80.77 0.012349 -170.7
8.56380000 0.012376 -170.9 0.999918 -80.77 0.999918 -80.77 0.012377 -170.7
8.56400000 0.012403 -170.9 0.999917 -80.77 0.999917 -80.77 0.012404 -170.7
8.56420000 0.012431 -170.9 0.999917 -80.78 0.999917 -80.78 0.012432 -170.7
8.56440000 0.012459 -170.9 0.999917 -80.78 0.999917 -80.78 0.012460 -170.7
8.56460000 0.012486 -170.9 0.999916 -80.78 0.999916 -80.78 0.012487 -170.7
8.56480000 0.012514 -170.9 0.999916 -80.79 0.999916 -80.79 0.012515 -170.7
8.56500000 0.012542 -170.9 0.999916 -80.79 0.999916 -80.79 0.012543 -170.7
8.56520000 0.012570 -170.9 0.999915 -80.79 0.999915 -80.79 0.012571 -170.7
8.56540000 0.012598 -170.9 0.999915 -80.80 0.999915 -80.80 0.012599 -170.8
8.56560000 0.012626 -170.9 0.999914 -80.80 0.999914 -80.80 0.012627 -170.8
8.56580000 0.012654 -170.9 0.999914 -80.80 0.999914 -80.80 0.012655 -170.8
8.56600000 0.012682 -170.9 0.999914 -80.81 0.999914 -80.81 0.012683 -170.8
8.56620000 0.012710 -170.9 0.999913 -80.81 0.999913 -80.81 0.012711 -170.8
8.56640000 0.012738 -170.9 0.999913 -80.81 0.999913 -80.81 0.012739 -170.8
8.56660000 0.012767 -170.9 0.999913 -80.82 0.999913 -80.82 0.012768 -170.8
8.56680000 0.012795 -170.9 0.999912 -80.82 0.999912 -80.82 0.012796 -170.8
8.56700000 0.012823 -170.9 0.999912 -80.82 0.999912 -80.82 0.012824 -170.8
8.56720000 0.012852 -170.9 0.999912 -80.83 0.999912 -80.83 0.012853 -170.8
8.56740000 0.012880 -170.9 0.999911 -80.83 0.999911 -80.83 0.012881 -170.8
8.56760000 0.012909 -170.9 0.999911 -80.84 0.999911 -80.84 0.012910 -170.8
8.56780000 0.012937 -170.9 0.999910 -80.84 0.999910 -80.84 0.012938 -170.8
8.56800000 0.012966 -170.9 0.999910 -80.84 0.999910 -80.84 0.012967 -170.8
8.56820000 0.012995 -170.9 0.999910 -80.85 0.999910 -80.85 0.012996 -170.8
8.56840000 0.013023 -170.9 0.999909 -80.85 0.999909 -80.85 0.013024 -170.8
8.56860000 0.013052 -170.9 0.999909 -80.85 0.999909 -80.85 0.013053 -170.8
8.56880000 0.013081 -170.9 0.999908 -80.86 0.999908 -80.86 0.013082 -170.8
8.56900000 0.013110 -170.9 0.999908 -80.86 0.999908 -80.86 0.013111 -170.8
8.56920000 0.013139 -170.9 0.999908 -80.86 0.999908 -80.86 0.013140 -170.8
8.56940000 0.013168 -170.9 0.999907 -80.87 0.999907 -80.87 0.013169 -170.8
8.56960000 0.013197 -171.0 0.999907 -80.87 0.999907 -80.87 0.013198 -170.8
8.56980000 0.013226 -171.0 0.999907 -80.87 0.999907 -80.87 0.013227 -170.8
8.57000000 0.013255 -171.0 0.999906 -80.88 0.999906 -80.88 0.013256 -170.8
8.57020000 0.013285 -171.0 0.999906 -80.88 0.999906 -80.88 0.013285 -170.8
8.57040000 0.013314 -171.0 0.999905 -80.88 0.999905 -80.88 0.013315 -170.8
8.57060000 0.013343 -171.0 0.999905 -80.89 0.999905 -80.89 0.013344 -170.9
8.57080000 0.013373 -171.0 0.999905 -80.89 0.999905 -80.89 0.013374 -170.9
8.57100000 0.013402 -171.0 0.999904 -80.90 0.999904 -80.90 0.013403 -170.9
8.57120000 0.013432 -171.0 0.999904 -80.90 0.999904 -80.90 0.013433 -170.9
8.57140000 0.013461 -171.0 0.999903 -80.90 0.999903 -80.90 0.013462 -170.9
8.57160000 0.013491 -171.0 0.999903 -80.91 0.999903 -80.91 0.013492 -170.9
8.57180000 0.013521 -171.0 0.999903 -80.91 0.999903 -80.91 0.013521 -170.9
8.57200000 0.013550 -171.0 0.999902 -80.91 0.999902 -80.91 0.013551 -170.9
8.57220000 0.013580 -171.0 0.999902 -80.92 0.999902 -80.92 0.013581 -170.9
8.57240000 0.013610 -171.0 0.999901 -80.92 0.999901 -80.92 0.013611 -170.9
8.57260000 0.013640 -171.0 0.999901 -80.92 0.999901 -80.92 0.013641 -170.9
8.57280000 0.013670 -171.0 0.999901 -80.93 0.999901 -80.93 0.013671 -170.9
8.57300000 0.013700 -171.0 0.999900 -80.93 0.999900 -80.93 0.013701 -170.9
8.57320000 0.013730 -171.0 0.999900 -80.93 0.999900 -80.93 0.013731 -170.9
8.57340000 0.013760 -171.0 0.999899 -80.94 0.999899 -80.94 0.013761 -170.9
8.57360000 0.013790 -171.0 0.999899 -80.94 0.999899 -80.94 0.013791 -170.9
8.57380000 0.013821 -171.0 0.999898 -80.95 0.999898 -80.95 0.013822 -170.9
8.57400000 0.013851 -171.0 0.999898 -80.95 0.999898 -80.95 0.013852 -170.9
8.57420000 0.013881 -171.0 0.999898 -80.95 0.999898 -80.95 0.013882 -170.9
8.57440000 0.013912 -171.0 0.999897 -80.96 0.999897 -80.96 0.013913 -170.9
8.57460000 0.013942 -171.0 0.999897 -80.96 0.999897 -80.96 0.013943 -170.9
8.57480000 0.013973 -171.0 0.999896 -80.96 0.999896 -80.96 0.013974 -170.9
8.57500000 0.014003 -171.0 0.999896 -80.97 0.999896 -80.97 0.014004 -170.9
8.57520000 0.014034 -171.0 0.999895 -80.97 0.999895 -80.97 0.014035 -170.9
8.57540000 0.014065 -171.0 0.999895 -80.97 0.999895 -80.97 0.014066 -170.9
8.57560000 0.014096 -171.1 0.999895 -80.98 0.999895 -80.98 0.014097 -170.9
8.57580000 0.014127 -171.1 0.999894 -80.98 0.999894 -80.98 0.014128 -171.0
8.57600000 0.014158 -171.1 0.999894 -80.99 0.999894 -80.99 0.014158 -171.0
8.57620000 0.014189 -171.1 0.999893 -80.99 0.999893 -80.99 0.014189 -171.0
8.57640000 0.014220 -171.1 0.999893 -80.99 0.999893 -80.99 0.014221 -171.0
8.57660000 0.014251 -171.1 0.999892 -81.00 0.999892 -81.00 0.014252 -171.0
8.57680000 0.014282 -171.1 0.999892 -81.00 0.999892 -81.00 0.014283 -171.0
8.57700000 0.014313 -171.1 0.999891 -81.00 0.999891 -81.00 0.014314 -171.0
8.57720000 0.014344 -171.1 0.999891 -81.01 0.999891 -81.01 0.014345 -171.0
8.57740000 0.014376 -171.1 0.999890 -81.01 0.999890 -81.01 0.014377 -171.0
8.57760000 0.014407 -171.1 0.999890 -81.01 0.999890 -81.01 0.014408 -171.0
8.57780000 0.014439 -171.1 0.999890 -81.02 0.999890 -81.02 0.014440 -171.0
8.57800000 0.014470 -171.1 0.999889 -81.02 0.999889 -81.02 0.014471 -171.0
8.57820000 0.014502 -171.1 0.999889 -81.03 0.999889 -81.03 0.014503 -171.0
8.57840000 0.014533 -171.1 0.999888 -81.03 0.999888 -81.03 0.014534 -171.0