! Sonnet Data File
! From: emgraph Version : 16.52
! From Project: 171114transmon_trace_brg2
! Data is De-embedded 
! Data File Written: 11/14/2017 18:06:48
!< HDATE 11/14/2017 15:42:32
!< MDATE 11/14/2017 15:42:32
!< PARAMS
!< Lj = 15.24
!< Gap = 14.0
!< Width = 10.0
!< Airgap = 6.0
!< Pwidth = 2000.0
!< Dist = 2000.0
!< END PARAMS
# GHZ S MA R 51.90000
8.615000000000000 0.0308781264888 -170.8316309144 0.9994585276715 -80.57217986926 0.9994585276708 -80.57217986888 0.0308781641610 -170.5491392778
!< P1 F=8.615 Eeff=(6.44688234 -2.9785e-5) Z0=(51.7995732 1.19081e-4) R=0.0 C=0.0 
!< P2 F=8.615 Eeff=(6.44688234 -2.9785e-5) Z0=(51.7995732 1.19081e-4) R=0.0 C=0.0 
8.615005000000000 0.0308955928517 -170.8327401678 0.9994579254466 -80.57322701193 0.9994579254466 -80.57322701193 0.0308956305879 -170.5502231069
8.615010000000000 0.0309130952466 -170.8338729922 0.9994573099875 -80.57427620624 0.9994573099875 -80.57427620624 0.0309131330135 -170.5513301960
8.615015000000001 0.0309306206306 -170.8350072482 0.9994566933595 -80.57532671888 0.9994566933595 -80.57532671888 0.0309306584282 -170.5524387120
8.615020000000001 0.0309481691251 -170.8361429480 0.9994560755546 -80.57637855682 0.9994560755546 -80.57637855682 0.0309482069534 -170.5535486670
8.615025000000001 0.0309657407853 -170.8372800900 0.9994554565719 -80.57743172323 0.9994554565719 -80.57743172323 0.0309657786444 -170.5546600595
8.615030000000001 0.0309833355659 -170.8384186748 0.9994548364100 -80.57848621551 0.9994548364100 -80.57848621551 0.0309833734558 -170.5557728901
8.615035000000001 0.0310009536144 -170.8395587056 0.9994542150653 -80.57954204212 0.9994542150653 -80.57954204212 0.0310009915353 -170.5568871620
8.615040000000000 0.0310185948796 -170.8407001865 0.9994535925343 -80.58059920012 0.9994535925343 -80.58059920012 0.0310186328313 -170.5580028793
8.615045000000000 0.0310362595343 -170.8418431260 0.9994529688105 -80.58165769942 0.9994529688105 -80.58165769942 0.0310362975170 -170.5591200505
8.615050000000000 0.0310539475019 -170.8429875173 0.9994523438966 -80.58271753564 0.9994523438966 -80.58271753564 0.0310539855157 -170.5602386686
8.615055000000000 0.0310716588712 -170.8441333687 0.9994517177862 -80.58377871387 0.9994517177862 -80.58377871387 0.0310716969161 -170.5613587423
8.615060000000000 0.0310893937077 -170.8452806799 0.9994510904781 -80.58484123787 0.9994510904781 -80.58484123787 0.0310894317837 -170.5624802709
8.615065000000001 0.0311071520491 -170.8464294600 0.9994504619657 -80.58590510979 0.9994504619657 -80.58590510979 0.0311071901563 -170.5636032638
8.615070000000001 0.0311249339195 -170.8475797047 0.9994498322499 -80.58697033102 0.9994498322499 -80.58697033102 0.0311249720579 -170.5647277165
8.615075000000001 0.0311427394017 -170.8487314203 0.9994492013256 -80.58803690632 0.9994492013256 -80.58803690632 0.0311427775714 -170.5658536354
8.615080000000001 0.0311605685117 -170.8498846116 0.9994485691887 -80.58910483660 0.9994485691887 -80.58910483660 0.0311606067127 -170.5669810253
8.615085000000001 0.0311784213397 -170.8510392787 0.9994479358376 -80.59017412703 0.9994479358376 -80.59017412703 0.0311784595721 -170.5681098862
8.615090000000000 0.0311962978969 -170.8521954240 0.9994473012693 -80.59124477826 0.9994473012693 -80.59124477826 0.0311963361607 -170.5692402206
8.615095000000000 0.0312141982145 -170.8533530544 0.9994466654787 -80.59231679208 0.9994466654787 -80.59231679208 0.0312142365098 -170.5703720354
8.615100000000000 0.0312321223847 -170.8545121698 0.9994460284641 -80.59339017378 0.9994460284641 -80.59339017378 0.0312321607115 -170.5715053304
8.615105000000000 0.0312500704039 -170.8556727687 0.9994453902249 -80.59446492316 0.9994453902249 -80.59446492316 0.0312501087623 -170.5726401042
8.615110000000001 0.0312680423979 -170.8568348678 0.9994447507501 -80.59554104742 0.9994447507501 -80.59554104742 0.0312680807879 -170.5737763734
8.615115000000001 0.0312860383257 -170.8579984540 0.9994441100456 -80.59661854422 0.9994441100456 -80.59661854422 0.0312860767474 -170.5749141250
8.615120000000001 0.0313040582639 -170.8591635393 0.9994434681032 -80.59769741795 0.9994434681032 -80.59769741795 0.0313040967172 -170.5760533711
8.615125000000001 0.0313221022968 -170.8603301255 0.9994428249200 -80.59877767346 0.9994428249200 -80.59877767346 0.0313221407820 -170.5771941132
8.615130000000001 0.0313401704533 -170.8614982161 0.9994421804928 -80.59985931239 0.9994421804928 -80.59985931239 0.0313402089703 -170.5783363550
8.615135000000000 0.0313582627691 -170.8626678123 0.9994415348192 -80.60094233680 0.9994415348192 -80.60094233680 0.0313583013179 -170.5794800977
8.615140000000000 0.0313763793030 -170.8638389206 0.9994408878940 -80.60202675006 0.9994408878940 -80.60202675006 0.0313764178838 -170.5806253476
8.615145000000000 0.0313945200867 -170.8650115369 0.9994402397180 -80.60311255399 0.9994402397180 -80.60311255399 0.0313945586994 -170.5817721008
8.615150000000000 0.0314126852119 -170.8661856716 0.9994395902835 -80.60419975386 0.9994395902835 -80.60419975386 0.0314127238567 -170.5829203678
8.615155000000000 0.0314308746834 -170.8673613211 0.9994389395912 -80.60528834992 0.9994389395912 -80.60528834992 0.0314309133603 -170.5840701447
8.615160000000001 0.0314490885395 -170.8685384953 0.9994382876340 -80.60637834440 0.9994382876340 -80.60637834440 0.0314491272484 -170.5852214416
8.615165000000001 0.0314673268811 -170.8697171929 0.9994376344108 -80.60746974306 0.9994376344108 -80.60746974306 0.0314673656223 -170.5863742572
8.615170000000001 0.0314855897565 -170.8708974217 0.9994369799156 -80.60856254869 0.9994369799156 -80.60856254869 0.0314856285299 -170.5875285992
8.615175000000001 0.0315038771672 -170.8720791807 0.9994363241475 -80.60965676137 0.9994363241475 -80.60965676137 0.0315039159728 -170.5886844665
8.615180000000001 0.0315221891575 -170.8732624686 0.9994356671055 -80.61075238366 0.9994356671055 -80.61075238366 0.0315222279955 -170.5898418582
8.615185000000000 0.0315405258277 -170.8744472969 0.9994350087816 -80.61184942128 0.9994350087816 -80.61184942128 0.0315405646981 -170.5910007854
8.615190000000000 0.0315588872120 -170.8756336654 0.9994343491741 -80.61294787622 0.9994343491741 -80.61294787622 0.0315589261148 -170.5921612481
8.615195000000000 0.0315772733486 -170.8768215775 0.9994336882796 -80.61404775065 0.9994336882796 -80.61404775065 0.0315773122839 -170.5933232496
8.615200000000000 0.0315956842944 -170.8780110360 0.9994330260948 -80.61514904786 0.9994330260948 -80.61514904786 0.0315957232622 -170.5944867927
8.615205000000001 0.0316141200979 -170.8792020427 0.9994323626170 -80.61625177061 0.9994323626170 -80.61625177061 0.0316141590983 -170.5956518793
8.615210000000001 0.0316325808002 -170.8803946023 0.9994316978420 -80.61735592128 0.9994316978420 -80.61735592128 0.0316326198333 -170.5968185140
8.615215000000001 0.0316510664425 -170.8815887185 0.9994310317661 -80.61846150222 0.9994310317661 -80.61846150222 0.0316511055083 -170.5979867006
8.615220000000001 0.0316695771242 -170.8827843929 0.9994303643864 -80.61956851913 0.9994303643864 -80.61956851913 0.0316696162227 -170.5991564406
8.615225000000001 0.0316881128714 -170.8839816307 0.9994296956986 -80.62067697351 0.9994296956986 -80.62067697352 0.0316881520027 -170.6003277392
8.615230000000000 0.0317066737087 -170.8851804341 0.9994290256997 -80.62178686679 0.9994290256997 -80.62178686679 0.0317067128728 -170.6015005986
8.615235000000000 0.0317252597156 -170.8863808032 0.9994283543879 -80.62289820351 0.9994283543879 -80.62289820351 0.0317252989126 -170.6026750190
8.615240000000000 0.0317438709528 -170.8875827469 0.9994276817564 -80.62401098716 0.9994276817564 -80.62401098716 0.0317439101829 -170.6038510092
8.615245000000000 0.0317625074368 -170.8887862651 0.9994270078038 -80.62512521869 0.9994270078038 -80.62512521869 0.0317625466998 -170.6050285691
8.615250000000001 0.0317811692197 -170.8899913606 0.9994263325266 -80.62624090108 0.9994263325266 -80.62624090108 0.0317812085157 -170.6062077016
8.615255000000001 0.0317998564147 -170.8911980375 0.9994256559208 -80.62735804084 0.9994256559208 -80.62735804084 0.0317998957439 -170.6073884107
8.615260000000001 0.0318185689726 -170.8924062976 0.9994249779837 -80.62847663514 0.9994249779837 -80.62847663514 0.0318186083349 -170.6085706982
8.615265000000001 0.0318373070320 -170.8936161479 0.9994242987096 -80.62959669192 0.9994242987096 -80.62959669192 0.0318373464275 -170.6097545711
8.615270000000001 0.0318560705956 -170.8948275862 0.9994236180980 -80.63071821136 0.9994236180980 -80.63071821136 0.0318561100245 -170.6109400273
8.615275000000000 0.0318748597674 -170.8960406234 0.9994229361410 -80.63184119941 0.9994229361410 -80.63184119941 0.0318748992295 -170.6121270775
8.615280000000000 0.0318936745231 -170.8972552526 0.9994222528407 -80.63296565468 0.9994222528407 -80.63296565468 0.0318937140187 -170.6133157150
8.615285000000000 0.0319125150041 -170.8984714895 0.9994215681865 -80.63409158529 0.9994215681865 -80.63409158529 0.0319125545331 -170.6145059554
8.615290000000000 0.0319313812052 -170.8996893257 0.9994208821814 -80.63521899092 0.9994208821814 -80.63521899092 0.0319314207676 -170.6156977903
8.615295000000000 0.0319502731802 -170.9009087707 0.9994201948183 -80.63634787468 0.9994201948183 -80.63634787468 0.0319503127762 -170.6168912293
8.615300000000001 0.0319691909991 -170.9021298240 0.9994195060956 -80.63747824058 0.9994195060956 -80.63747824058 0.0319692306287 -170.6180862716
8.615305000000001 0.0319881347156 -170.9033524952 0.9994188160061 -80.63861009171 0.9994188160061 -80.63861009171 0.0319881743789 -170.6192829272
8.615310000000001 0.0320071043438 -170.9045767802 0.9994181245504 -80.63974342886 0.9994181245504 -80.63974342886 0.0320071440407 -170.6204811918
8.615315000000001 0.0320260999982 -170.9058026873 0.9994174317219 -80.64087825861 0.9994174317219 -80.64087825861 0.0320261397289 -170.6216810737
8.615320000000001 0.0320451217083 -170.9070302206 0.9994167375166 -80.64201458266 0.9994167375166 -80.64201458266 0.0320451614728 -170.6228825769
8.615325000000000 0.0320641694997 -170.9082593792 0.9994160419331 -80.64315240247 0.9994160419331 -80.64315240247 0.0320642092981 -170.6240857007
8.615330000000000 0.0320832434705 -170.9094901694 0.9994153449660 -80.64429172366 0.9994153449660 -80.64429172366 0.0320832833028 -170.6252904512
8.615335000000000 0.0321023436478 -170.9107225909 0.9994146466137 -80.64543254781 0.9994146466137 -80.64543254781 0.0321023835141 -170.6264968283
8.615340000000000 0.0321214700712 -170.9119566511 0.9994139468701 -80.64657487717 0.9994139468701 -80.64657487717 0.0321215099715 -170.6277048394
8.615345000000001 0.0321406228358 -170.9131923520 0.9994132457323 -80.64771871721 0.9994132457323 -80.64771871721 0.0321406627702 -170.6289144863
8.615350000000001 0.0321598019715 -170.9144296977 0.9994125431962 -80.64886406964 0.9994125431962 -80.64886406964 0.0321598419400 -170.6301257732
8.615355000000001 0.0321790075499 -170.9156686926 0.9994118392572 -80.65001093857 0.9994118392572 -80.65001093857 0.0321790475526 -170.6313387044
8.615360000000001 0.0321982395847 -170.9169093373 0.9994111339134 -80.65115932479 0.9994111339134 -80.65115932479 0.0321982796217 -170.6325532807
8.615365000000001 0.0322174981740 -170.9181516340 0.9994104271614 -80.65230923392 0.9994104271614 -80.65230923392 0.0322175382453 -170.6337695042
8.615370000000000 0.0322367833614 -170.9193955928 0.9994097189937 -80.65346066847 0.9994097189937 -80.65346066847 0.0322368234671 -170.6349873850
8.615375000000000 0.0322560951825 -170.9206412106 0.9994090094103 -80.65461363047 0.9994090094103 -80.65461363047 0.0322561353225 -170.6362069199
8.615380000000000 0.0322754337393 -170.9218884963 0.9994082984041 -80.65576812579 0.9994082984041 -80.65576812579 0.0322754739138 -170.6374281179
8.615385000000000 0.0322947990304 -170.9231374447 0.9994075859762 -80.65692415435 0.9994075859762 -80.65692415435 0.0322948392395 -170.6386509738
8.615390000000000 0.0323141911260 -170.9243880683 0.9994068721176 -80.65808172017 0.9994068721176 -80.65808172017 0.0323142313696 -170.6398755002
8.615395000000001 0.0323336101090 -170.9256403669 0.9994061568264 -80.65924082801 0.9994061568264 -80.65924082801 0.0323336503873 -170.6411016968
8.615400000000001 0.0323530559957 -170.9268943401 0.9994054401012 -80.66040147879 0.9994054401012 -80.66040147879 0.0323530963087 -170.6423295630
8.615405000000001 0.0323725288844 -170.9281500011 0.9994047219322 -80.66156367818 0.9994047219322 -80.66156367818 0.0323725692321 -170.6435591124
8.615410000000001 0.0323920288192 -170.9294073454 0.9994040023203 -80.66272742869 0.9994040023203 -80.66272742869 0.0323920692018 -170.6447903401
8.615415000000000 0.0324115558271 -170.9306663783 0.9994032812603 -80.66389273187 0.9994032812603 -80.66389273187 0.0324115962446 -170.6460232517
8.615420000000000 0.0324311100064 -170.9319271032 0.9994025587485 -80.66505959337 0.9994025587485 -80.66505959337 0.0324311504587 -170.6472578504
8.615425000000000 0.0324506913690 -170.9331895259 0.9994018347797 -80.66622801387 0.9994018347797 -80.66622801387 0.0324507318563 -170.6484941421
8.615430000000000 0.0324703000448 -170.9344536470 0.9994011093513 -80.66739800082 0.9994011093513 -80.66739800082 0.0324703405672 -170.6497321274
8.615435000000000 0.0324899359918 -170.9357194745 0.9994003824571 -80.66856955181 0.9994003824571 -80.66856955181 0.0324899765492 -170.6509718143
8.615440000000001 0.0325095993585 -170.9369870055 0.9993996540965 -80.66974267537 0.9993996540965 -80.66974267537 0.0325096399511 -170.6522131998
8.615445000000001 0.0325292901321 -170.9382562512 0.9993989242614 -80.67091737076 0.9993989242614 -80.67091737076 0.0325293307599 -170.6534562951
8.615450000000001 0.0325490083990 -170.9395272043 0.9993981929537 -80.67209364293 0.9993981929537 -80.67209364293 0.0325490490621 -170.6547010931
8.615455000000001 0.0325687542230 -170.9407998805 0.9993974601626 -80.67327149556 0.9993974601626 -80.67327149556 0.0325687949214 -170.6559476094
8.615460000000001 0.0325885276461 -170.9420742727 0.9993967258901 -80.67445093104 0.9993967258901 -80.67445093104 0.0325885683799 -170.6571958369
8.615465000000000 0.0326083287590 -170.9433503939 0.9993959901267 -80.67563195459 0.9993959901267 -80.67563195459 0.0326083695282 -170.6584457885
8.615470000000000 0.0326281575949 -170.9446282436 0.9993952528708 -80.67681456810 0.9993952528708 -80.67681456810 0.0326281983996 -170.6596974637
8.615475000000000 0.0326480142047 -170.9459078242 0.9993945141189 -80.67799877451 0.9993945141189 -80.67799877451 0.0326480550450 -170.6609508650
8.615480000000000 0.0326678986493 -170.9471891436 0.9993937738645 -80.67918457730 0.9993937738645 -80.67918457730 0.0326679395252 -170.6622060004
8.615485000000001 0.0326878109894 -170.9484721965 0.9993930321085 -80.68037197996 0.9993930321085 -80.68037197996 0.0326878519010 -170.6634628643
8.615490000000001 0.0327077513084 -170.9497569977 0.9993922888405 -80.68156098727 0.9993922888405 -80.68156098727 0.0327077922557 -170.6647214717
8.615495000000001 0.0327277196307 -170.9510435404 0.9993915440622 -80.68275160064 0.9993915440622 -80.68275160064 0.0327277606138 -170.6659818157
8.615500000000001 0.0327477160353 -170.9523318391 0.9993907977632 -80.68394382459 0.9993907977632 -80.68394382459 0.0327477570542 -170.6672439110
8.615505000000001 0.0327677405688 -170.9536218872 0.9993900499454 -80.68513766182 0.9993900499454 -80.68513766182 0.0327677816237 -170.6685077508
8.615510000000000 0.0327877933237 -170.9549136980 0.9993893005989 -80.68633311760 0.9993893005989 -80.68633311760 0.0327878344145 -170.6697733484
8.615515000000000 0.0328078743252 -170.9562072671 0.9993885497242 -80.68753019341 0.9993885497242 -80.68753019341 0.0328079154520 -170.6710406995
8.615520000000000 0.0328279836210 -170.9575026017 0.9993877973151 -80.68872889196 0.9993877973151 -80.68872889196 0.0328280247839 -170.6723098113
8.615525000000000 0.0328481212853 -170.9587997052 0.9993870433676 -80.68992921754 0.9993870433676 -80.68992921754 0.0328481624843 -170.6735806871
8.615530000000000 0.0328682874050 -170.9600985825 0.9993862878766 -80.69113117510 0.9993862878766 -80.69113117510 0.0328683286402 -170.6748533319
8.615535000000001 0.0328884820145 -170.9613992378 0.9993855308376 -80.69233476665 0.9993855308376 -80.69233476665 0.0328885232860 -170.6761277498
8.615540000000001 0.0329087051936 -170.9627016726 0.9993847722477 -80.69353999675 0.9993847722477 -80.69353999675 0.0329087465015 -170.6774039424
8.615545000000001 0.0329289569585 -170.9640058879 0.9993840121042 -80.69474686632 0.9993840121042 -80.69474686632 0.0329289983027 -170.6786819105
8.615550000000001 0.0329492374261 -170.9653118965 0.9993832503974 -80.69595538209 0.9993832503974 -80.69595538209 0.0329492788068 -170.6799616672
8.615555000000001 0.0329695466091 -170.9666196918 0.9993824871292 -80.69716554478 0.9993824871292 -80.69716554478 0.0329695880263 -170.6812432057
8.615560000000000 0.0329898845892 -170.9679292801 0.9993817222936 -80.69837735908 0.9993817222936 -80.69837735908 0.0329899260429 -170.6825265324
8.615565000000000 0.0330102514805 -170.9692406742 0.9993809558810 -80.69959083153 0.9993809558810 -80.69959083153 0.0330102929708 -170.6838116599
8.615570000000000 0.0330306472304 -170.9705538706 0.9993801878916 -80.70080595911 0.9993801878916 -80.70080595911 0.0330306887574 -170.6850985850
8.615575000000000 0.0330510719937 -170.9718688740 0.9993794183201 -80.70202275073 0.9993794183201 -80.70202275073 0.0330511135574 -170.6863873121
8.615580000000001 0.0330715257993 -170.9731856849 0.9993786471643 -80.70324120802 0.9993786471643 -80.70324120802 0.0330715673999 -170.6876778419
8.615585000000001 0.0330920087349 -170.9745043139 0.9993778744156 -80.70446133602 0.9993778744156 -80.70446133602 0.0330920503724 -170.6889701849
8.615590000000001 0.0331125208018 -170.9758247607 0.9993771000723 -80.70568313481 0.9993771000723 -80.70568313481 0.0331125624761 -170.6902643408
8.615595000000001 0.0331330621217 -170.9771470298 0.9993763241293 -80.70690661137 0.9993763241293 -80.70690661137 0.0331331038330 -170.6915603142
8.615600000000001 0.0331536327147 -170.9784711246 0.9993755465825 -80.70813176686 0.9993755465825 -80.70813176686 0.0331536744631 -170.6928581085
8.615605000000000 0.0331742326797 -170.9797970529 0.9993747674251 -80.70935860695 0.9993747674251 -80.70935860695 0.0331742744652 -170.6941577314
8.615610000000000 0.0331948620601 -170.9811248114 0.9993739866569 -80.71058713413 0.9993739866569 -80.71058713413 0.0331949038827 -170.6954591796
8.615615000000000 0.0332155209192 -170.9824544090 0.9993732042704 -80.71181735203 0.9993732042704 -80.71181735203 0.0332155627791 -170.6967624620
8.615620000000000 0.0332362093211 -170.9837858487 0.9993724202616 -80.71304926434 0.9993724202616 -80.71304926434 0.0332362512183 -170.6980675816
8.615625000000001 0.0332569273253 -170.9851191342 0.9993716346262 -80.71428287446 0.9993716346262 -80.71428287446 0.0332569692598 -170.6993745422
8.615630000000001 0.0332776750310 -170.9864542675 0.9993708473605 -80.71551818809 0.9993708473605 -80.71551818809 0.0332777170029 -170.7006833457
8.615635000000001 0.0332984524613 -170.9877912593 0.9993700584562 -80.71675520657 0.9993700584562 -80.71675520657 0.0332984944708 -170.7019940028
8.615640000000001 0.0333192596618 -170.9891301050 0.9993692679137 -80.71799393249 0.9993692679137 -80.71799393249 0.0333193017088 -170.7033065090
8.615645000000001 0.0333400967595 -170.9904708174 0.9993684757231 -80.71923437315 0.9993684757231 -80.71923437315 0.0333401388441 -170.7046208769
8.615650000000000 0.0333609637914 -170.9918133937 0.9993676818838 -80.72047653068 0.9993676818838 -80.72047653068 0.0333610059137 -170.7059371039
8.615655000000000 0.0333818607704 -170.9931578386 0.9993668863909 -80.72172040582 0.9993668863909 -80.72172040582 0.0333819029304 -170.7072551947
8.615660000000000 0.0334027878620 -170.9945041595 0.9993660892375 -80.72296600805 0.9993660892375 -80.72296600805 0.0334028300597 -170.7085751564
8.615665000000000 0.0334237450522 -170.9958523575 0.9993652904208 -80.72421333659 0.9993652904208 -80.72421333659 0.0334237872878 -170.7098969905
8.615670000000000 0.0334447324412 -170.9972024397 0.9993644899342 -80.72546239718 0.9993644899342 -80.72546239718 0.0334447747147 -170.7112207038
8.615675000000001 0.0334657500702 -170.9985544054 0.9993636877759 -80.72671319219 0.9993636877759 -80.72671319219 0.0334657923818 -170.7125462957
8.615680000000001 0.0334867980218 -170.9999082628 0.9993628839386 -80.72796572635 0.9993628839386 -80.72796572635 0.0334868403714 -170.7138737745
8.615685000000001 0.0335078763634 -171.0012640126 0.9993620784196 -80.72922000353 0.9993620784196 -80.72922000353 0.0335079187511 -170.7152031408
8.615690000000001 0.0335289851340 -171.0026216657 0.9993612712102 -80.73047602597 0.9993612712102 -80.73047602597 0.0335290275598 -170.7165344055
8.615695000000001 0.0335501244353 -171.0039812159 0.9993604623115 -80.73173379952 0.9993604623115 -80.73173379952 0.0335501668994 -170.7178675623
8.615700000000000 0.0335712943026 -171.0053426769 0.9993596517132 -80.73299332618 0.9993596517132 -80.73299332618 0.0335713368050 -170.7192026251
8.615705000000000 0.0335924948505 -171.0067060438 0.9993588394156 -80.73425461255 0.9993588394156 -80.73425461255 0.0335925373913 -170.7205395889
8.615710000000000 0.0336137260973 -171.0080713310 0.9993580254081 -80.73551765967 0.9993580254081 -80.73551765967 0.0336137686765 -170.7218784681
8.615715000000000 0.0336349881307 -171.0094385355 0.9993572096899 -80.73678247258 0.9993572096899 -80.73678247258 0.0336350307485 -170.7232192597
8.615720000000001 0.0336562810055 -171.0108076633 0.9993563922550 -80.73804905441 0.9993563922550 -80.73804905441 0.0336563236618 -170.7245619697
8.615725000000001 0.0336776047783 -171.0121787174 0.9993555730994 -80.73931740843 0.9993555730994 -80.73931740843 0.0336776474732 -170.7259066011
8.615730000000001 0.0336989595718 -171.0135517056 0.9993547522157 -80.74058754166 0.9993547522157 -80.74058754166 0.0336990023054 -170.7272531617
8.615735000000001 0.0337203453916 -171.0149266284 0.9993539296015 -80.74185945444 0.9993539296015 -80.74185945444 0.0337203881640 -170.7286016520
8.615740000000001 0.0337417623345 -171.0163034951 0.9993531052488 -80.74313315231 0.9993531052488 -80.74313315231 0.0337418051457 -170.7299520813
8.615745000000000 0.0337632104390 -171.0176822996 0.9993522791586 -80.74440863749 0.9993522791586 -80.74440863749 0.0337632532890 -170.7313044435
8.615750000000000 0.0337846898512 -171.0190630603 0.9993514513176 -80.74568591836 0.9993514513176 -80.74568591836 0.0337847327402 -170.7326587569
8.615755000000000 0.0338062005335 -171.0204457650 0.9993506217306 -80.74696499277 0.9993506217306 -80.74696499277 0.0338062434615 -170.7340150095
8.615760000000000 0.0338277426425 -171.0218304359 0.9993497903818 -80.74824586969 0.9993497903818 -80.74824586969 0.0338277856096 -170.7353732233
8.615765000000000 0.0338493161917 -171.0232170623 0.9993489572752 -80.74952854992 0.9993489572752 -80.74952854992 0.0338493591980 -170.7367333878
8.615770000000001 0.0338709212741 -171.0246056604 0.9993481223987 -80.75081303877 0.9993481223987 -80.75081303877 0.0338709643195 -170.7380955190
8.615775000000001 0.0338925579559 -171.0259962242 0.9993472857532 -80.75209934007 0.9993472857532 -80.75209934007 0.0338926010407 -170.7394596110
8.615780000000001 0.0339142263241 -171.0273887609 0.9993464473319 -80.75338745878 0.9993464473319 -80.75338745878 0.0339142694482 -170.7408256710
8.615785000000001 0.0339359264077 -171.0287832826 0.9993456071252 -80.75467739659 0.9993456071252 -80.75467739659 0.0339359695712 -170.7421937111
8.615790000000001 0.0339576582901 -171.0301797815 0.9993447651352 -80.75596915828 0.9993447651352 -80.75596915828 0.0339577014931 -170.7435637234
8.615795000000000 0.0339794220811 -171.0315782719 0.9993439213506 -80.75726275014 0.9993439213506 -80.75726275014 0.0339794653236 -170.7449357223
8.615800000000000 0.0340012178042 -171.0329787544 0.9993430757688 -80.75855817353 0.9993430757688 -80.75855817353 0.0340012610863 -170.7463097084
8.615805000000000 0.0340230455539 -171.0343812334 0.9993422283843 -80.75985543388 0.9993422283843 -80.75985543388 0.0340230888757 -170.7476856861
8.615810000000000 0.0340449053777 -171.0357857107 0.9993413791937 -80.76115453390 0.9993413791937 -80.76115453390 0.0340449487393 -170.7490636572
8.615815000000001 0.0340667973358 -171.0371921940 0.9993405281897 -80.76245547706 0.9993405281897 -80.76245547706 0.0340668407372 -170.7504436293
8.615820000000001 0.0340887215584 -171.0386006874 0.9993396753672 -80.76375827082 0.9993396753672 -80.76375827082 0.0340887649996 -170.7518256066
8.615825000000001 0.0341106780895 -171.0400111956 0.9993388207207 -80.76506291771 0.9993388207207 -80.76506291771 0.0341107215707 -170.7532095938
8.615830000000001 0.0341326669432 -171.0414237181 0.9993379642482 -80.76636941855 0.9993379642482 -80.76636941855 0.0341327104644 -170.7545955903
8.615835000000001 0.0341546882458 -171.0428382668 0.9993371059397 -80.76767778058 0.9993371059397 -80.76767778058 0.0341547318071 -170.7559836081
8.615840000000000 0.0341767421288 -171.0442548439 0.9993362457912 -80.76898801133 0.9993362457912 -80.76898801133 0.0341767857302 -170.7573736494
8.615845000000000 0.0341988285484 -171.0456734532 0.9993353837979 -80.77030010832 0.9993353837979 -80.77030010832 0.0341988721901 -170.7587657179
8.615850000000000 0.0342209476614 -171.0470940997 0.9993345199541 -80.77161408052 0.9993345199541 -80.77161408052 0.0342209913434 -170.7601598187
8.615855000000000 0.0342430994767 -171.0485167852 0.9993336542560 -80.77292992846 0.9993336542560 -80.77292992846 0.0342431431990 -170.7615559537
8.615860000000001 0.0342652840954 -171.0499415168 0.9993327866968 -80.77424765794 0.9993327866968 -80.77424765794 0.0342653278582 -170.7629541296
8.615865000000001 0.0342875016128 -171.0513682969 0.9993319172722 -80.77556727442 0.9993319172722 -80.77556727442 0.0342875454161 -170.7643543492
8.615870000000001 0.0343097520591 -171.0527971321 0.9993310459756 -80.77688877964 0.9993310459756 -80.77688877964 0.0343097959030 -170.7657566190
8.615875000000001 0.0343320355474 -171.0542280272 0.9993301728014 -80.77821218009 0.9993301728014 -80.77821218009 0.0343320794318 -170.7671609437
8.615880000000001 0.0343543521210 -171.0556609854 0.9993292977450 -80.77953747826 0.9993292977450 -80.77953747826 0.0343543960462 -170.7685673266
8.615885000000000 0.0343767018600 -171.0570960127 0.9993284208000 -80.78086467874 0.9993284208000 -80.78086467874 0.0343767458259 -170.7699757736
8.615890000000000 0.0343990848410 -171.0585331125 0.9993275419617 -80.78219378593 0.9993275419617 -80.78219378593 0.0343991288478 -170.7713862881
8.615895000000000 0.0344215011490 -171.0599722902 0.9993266612239 -80.78352480471 0.9993266612239 -80.78352480471 0.0344215451967 -170.7727988757
8.615900000000000 0.0344439509063 -171.0614135524 0.9993257785799 -80.78485774209 0.9993257785799 -80.78485774209 0.0344439949949 -170.7742135427
8.615905000000000 0.0344664340474 -171.0628568968 0.9993248940285 -80.78619259433 0.9993248940285 -80.78619259433 0.0344664781771 -170.7756302870
8.615910000000001 0.0344889507693 -171.0643023395 0.9993240075570 -80.78752937272 0.9993240075570 -80.78752937272 0.0344889949401 -170.7770491248
8.615915000000001 0.0345115011034 -171.0657498695 0.9993231191694 -80.78886807908 0.9993231191694 -80.78886807908 0.0345115453155 -170.7784700448
8.615920000000001 0.0345340851281 -171.0671995079 0.9993222288501 -80.79020871788 0.9993222288501 -80.79020871788 0.0345341293814 -170.7798930682
8.615925000000001 0.0345567029642 -171.0686512537 0.9993213365967 -80.79155129608 0.9993213365967 -80.79155129608 0.0345567472588 -170.7813181941
8.615930000000001 0.0345793545966 -171.0701051055 0.9993204424075 -80.79289581280 0.9993204424075 -80.79289581280 0.0345793989327 -170.7827454211
8.615935000000000 0.0346020401649 -171.0715610717 0.9993195462744 -80.79424227606 0.9993195462744 -80.79424227606 0.0346020845424 -170.7841747574
8.615940000000000 0.0346247597242 -171.0730191576 0.9993186481913 -80.79559068902 0.9993186481913 -80.79559068902 0.0346248041433 -170.7856062086
8.615945000000000 0.0346475133436 -171.0744793686 0.9993177481523 -80.79694105565 0.9993177481523 -80.79694105565 0.0346475578043 -170.7870397798
8.615950000000000 0.0346703011383 -171.0759417106 0.9993168461507 -80.79829338256 0.9993168461507 -80.79829338256 0.0346703456407 -170.7884754772
8.615955000000001 0.0346931231680 -171.0774061896 0.9993159421801 -80.79964767317 0.9993159421801 -80.79964767317 0.0346931677122 -170.7899133065
8.615960000000001 0.0347159794994 -171.0788728063 0.9993150362371 -80.80100393131 0.9993150362371 -80.80100393131 0.0347160240855 -170.7913532686
8.615965000000001 0.0347388701950 -171.0803415654 0.9993141283161 -80.80236216058 0.9993141283161 -80.80236216058 0.0347389148229 -170.7927953680
8.615970000000001 0.0347617953481 -171.0818124724 0.9993132184106 -80.80372236632 0.9993132184106 -80.80372236632 0.0347618400180 -170.7942396105
8.615975000000001 0.0347847550489 -171.0832855342 0.9993123065137 -80.80508455371 0.9993123065137 -80.80508455371 0.0347847997609 -170.7956860028
8.615980000000000 0.0348077493752 -171.0847607564 0.9993113926189 -80.80644872723 0.9993113926189 -80.80644872723 0.0348077941293 -170.7971345504
8.615985000000000 0.0348307783892 -171.0862381401 0.9993104767227 -80.80781489043 0.9993104767227 -80.80781489043 0.0348308231854 -170.7985852546
8.615990000000000 0.0348538421834 -171.0877176939 0.9993095588167 -80.80918304863 0.9993095588167 -80.80918304863 0.0348538870220 -170.8000381240
8.615995000000000 0.0348769408070 -171.0891994183 0.9993086388979 -80.81055320466 0.9993086388979 -80.81055320466 0.0348769856879 -170.8014931589
8.616000000000000 0.0349000743507 -171.0906833207 0.9993077169587 -80.81192536371 0.9993077169587 -80.81192536371 0.0349001192741 -170.8029503669