! Sonnet Data File
! From: emgraph Version : 16.52
! From Project: transmon_brg
! Data is De-embedded 
! Data File Written: 11/11/2017 22:44:25
!< HDATE 11/11/2017 16:55:33
!< MDATE 11/11/2017 17:38:18
!< PARAMS
!< Lj = 15.24
!< Gap = 6.0
!< Width = 10.0
!< Airgap = 6.0
!< Pwidth = 2000.0
!< Dist = 1000.0
!< END PARAMS
# GHZ S MA R 51.80000
8.50000000 0.004498 -169.5 0.999985 -79.77 0.999985 -79.77 0.004498 -170.1
!< P1 F=8.5 Eeff=(6.44695349 -2.9785e-5) Z0=(51.7999087 1.19092e-4) R=0.0 C=0.0 
!< P2 F=8.5 Eeff=(6.44695349 -2.9785e-5) Z0=(51.7999087 1.19092e-4) R=0.0 C=0.0 
8.50020000 0.004514 -169.5 0.999985 -79.77 0.999985 -79.77 0.004514 -170.1
8.50040000 0.004529 -169.5 0.999985 -79.77 0.999985 -79.77 0.004529 -170.1
8.50060000 0.004544 -169.5 0.999985 -79.77 0.999985 -79.77 0.004544 -170.1
8.50080000 0.004559 -169.5 0.999985 -79.78 0.999985 -79.78 0.004559 -170.1
8.50100000 0.004574 -169.6 0.999985 -79.78 0.999985 -79.78 0.004574 -170.1
8.50120000 0.004589 -169.6 0.999985 -79.78 0.999985 -79.78 0.004589 -170.1
8.50140000 0.004605 -169.6 0.999985 -79.79 0.999985 -79.79 0.004605 -170.1
8.50160000 0.004620 -169.6 0.999985 -79.79 0.999985 -79.79 0.004620 -170.1
8.50180000 0.004635 -169.6 0.999985 -79.79 0.999985 -79.79 0.004635 -170.1
8.50200000 0.004650 -169.6 0.999985 -79.79 0.999985 -79.79 0.004650 -170.1
8.50220000 0.004666 -169.6 0.999985 -79.80 0.999985 -79.80 0.004666 -170.1
8.50240000 0.004681 -169.6 0.999985 -79.80 0.999985 -79.80 0.004681 -170.1
8.50260000 0.004696 -169.6 0.999984 -79.80 0.999984 -79.80 0.004696 -170.1
8.50280000 0.004712 -169.6 0.999984 -79.80 0.999984 -79.80 0.004712 -170.1
8.50300000 0.004727 -169.6 0.999984 -79.81 0.999984 -79.81 0.004727 -170.1
8.50320000 0.004743 -169.6 0.999984 -79.81 0.999984 -79.81 0.004742 -170.1
8.50340000 0.004758 -169.6 0.999984 -79.81 0.999984 -79.81 0.004758 -170.1
8.50360000 0.004773 -169.6 0.999984 -79.82 0.999984 -79.82 0.004773 -170.1
8.50380000 0.004789 -169.6 0.999984 -79.82 0.999984 -79.82 0.004789 -170.1
8.50400000 0.004804 -169.6 0.999984 -79.82 0.999984 -79.82 0.004804 -170.1
8.50420000 0.004820 -169.6 0.999984 -79.82 0.999984 -79.82 0.004820 -170.1
8.50440000 0.004835 -169.6 0.999984 -79.83 0.999984 -79.83 0.004835 -170.1
8.50460000 0.004851 -169.6 0.999984 -79.83 0.999984 -79.83 0.004851 -170.1
8.50480000 0.004867 -169.6 0.999984 -79.83 0.999984 -79.83 0.004867 -170.2
8.50500000 0.004882 -169.6 0.999984 -79.83 0.999984 -79.83 0.004882 -170.2
8.50520000 0.004898 -169.6 0.999983 -79.84 0.999983 -79.84 0.004898 -170.2
8.50540000 0.004913 -169.6 0.999983 -79.84 0.999983 -79.84 0.004913 -170.2
8.50560000 0.004929 -169.6 0.999983 -79.84 0.999983 -79.84 0.004929 -170.2
8.50580000 0.004945 -169.6 0.999983 -79.85 0.999983 -79.85 0.004945 -170.2
8.50600000 0.004961 -169.6 0.999983 -79.85 0.999983 -79.85 0.004960 -170.2
8.50620000 0.004976 -169.6 0.999983 -79.85 0.999983 -79.85 0.004976 -170.2
8.50640000 0.004992 -169.6 0.999983 -79.85 0.999983 -79.85 0.004992 -170.2
8.50660000 0.005008 -169.6 0.999983 -79.86 0.999983 -79.86 0.005008 -170.2
8.50680000 0.005024 -169.6 0.999983 -79.86 0.999983 -79.86 0.005024 -170.2
8.50700000 0.005039 -169.6 0.999983 -79.86 0.999983 -79.86 0.005039 -170.2
8.50720000 0.005055 -169.6 0.999983 -79.87 0.999983 -79.87 0.005055 -170.2
8.50740000 0.005071 -169.6 0.999983 -79.87 0.999983 -79.87 0.005071 -170.2
8.50760000 0.005087 -169.6 0.999982 -79.87 0.999982 -79.87 0.005087 -170.2
8.50780000 0.005103 -169.6 0.999982 -79.87 0.999982 -79.87 0.005103 -170.2
8.50800000 0.005119 -169.6 0.999982 -79.88 0.999982 -79.88 0.005119 -170.2
8.50820000 0.005135 -169.6 0.999982 -79.88 0.999982 -79.88 0.005135 -170.2
8.50840000 0.005151 -169.6 0.999982 -79.88 0.999982 -79.88 0.005151 -170.2
8.50860000 0.005167 -169.6 0.999982 -79.88 0.999982 -79.88 0.005167 -170.2
8.50880000 0.005183 -169.7 0.999982 -79.89 0.999982 -79.89 0.005183 -170.2
8.50900000 0.005199 -169.7 0.999982 -79.89 0.999982 -79.89 0.005199 -170.2
8.50920000 0.005215 -169.7 0.999982 -79.89 0.999982 -79.89 0.005215 -170.2
8.50940000 0.005231 -169.7 0.999982 -79.90 0.999982 -79.90 0.005231 -170.2
8.50960000 0.005247 -169.7 0.999982 -79.90 0.999982 -79.90 0.005247 -170.2
8.50980000 0.005263 -169.7 0.999982 -79.90 0.999982 -79.90 0.005263 -170.2
8.51000000 0.005280 -169.7 0.999981 -79.90 0.999981 -79.90 0.005279 -170.2
8.51020000 0.005296 -169.7 0.999981 -79.91 0.999981 -79.91 0.005296 -170.2
8.51040000 0.005312 -169.7 0.999981 -79.91 0.999981 -79.91 0.005312 -170.2
8.51060000 0.005328 -169.7 0.999981 -79.91 0.999981 -79.91 0.005328 -170.2
8.51080000 0.005344 -169.7 0.999981 -79.92 0.999981 -79.92 0.005344 -170.2
8.51100000 0.005361 -169.7 0.999981 -79.92 0.999981 -79.92 0.005361 -170.2
8.51120000 0.005377 -169.7 0.999981 -79.92 0.999981 -79.92 0.005377 -170.2
8.51140000 0.005393 -169.7 0.999981 -79.92 0.999981 -79.92 0.005393 -170.2
8.51160000 0.005410 -169.7 0.999981 -79.93 0.999981 -79.93 0.005410 -170.2
8.51180000 0.005426 -169.7 0.999981 -79.93 0.999981 -79.93 0.005426 -170.2
8.51200000 0.005443 -169.7 0.999981 -79.93 0.999981 -79.93 0.005442 -170.2
8.51220000 0.005459 -169.7 0.999980 -79.94 0.999980 -79.94 0.005459 -170.3
8.51240000 0.005475 -169.7 0.999980 -79.94 0.999980 -79.94 0.005475 -170.3
8.51260000 0.005492 -169.7 0.999980 -79.94 0.999980 -79.94 0.005492 -170.3
8.51280000 0.005508 -169.7 0.999980 -79.94 0.999980 -79.94 0.005508 -170.3
8.51300000 0.005525 -169.7 0.999980 -79.95 0.999980 -79.95 0.005525 -170.3
8.51320000 0.005541 -169.7 0.999980 -79.95 0.999980 -79.95 0.005541 -170.3
8.51340000 0.005558 -169.7 0.999980 -79.95 0.999980 -79.95 0.005558 -170.3
8.51360000 0.005575 -169.7 0.999980 -79.95 0.999980 -79.95 0.005574 -170.3
8.51380000 0.005591 -169.7 0.999980 -79.96 0.999980 -79.96 0.005591 -170.3
8.51400000 0.005608 -169.7 0.999980 -79.96 0.999980 -79.96 0.005608 -170.3
8.51420000 0.005624 -169.7 0.999979 -79.96 0.999979 -79.96 0.005624 -170.3
8.51440000 0.005641 -169.7 0.999979 -79.97 0.999979 -79.97 0.005641 -170.3
8.51460000 0.005658 -169.7 0.999979 -79.97 0.999979 -79.97 0.005658 -170.3
8.51480000 0.005675 -169.7 0.999979 -79.97 0.999979 -79.97 0.005674 -170.3
8.51500000 0.005691 -169.7 0.999979 -79.97 0.999979 -79.97 0.005691 -170.3
8.51520000 0.005708 -169.7 0.999979 -79.98 0.999979 -79.98 0.005708 -170.3
8.51540000 0.005725 -169.7 0.999979 -79.98 0.999979 -79.98 0.005725 -170.3
8.51560000 0.005742 -169.7 0.999979 -79.98 0.999979 -79.98 0.005741 -170.3
8.51580000 0.005759 -169.7 0.999979 -79.99 0.999979 -79.99 0.005758 -170.3
8.51600000 0.005775 -169.7 0.999979 -79.99 0.999979 -79.99 0.005775 -170.3
8.51620000 0.005792 -169.7 0.999978 -79.99 0.999978 -79.99 0.005792 -170.3
8.51640000 0.005809 -169.8 0.999978 -79.99 0.999978 -79.99 0.005809 -170.3
8.51660000 0.005826 -169.8 0.999978 -80.00 0.999978 -80.00 0.005826 -170.3
8.51680000 0.005843 -169.8 0.999978 -80.00 0.999978 -80.00 0.005843 -170.3
8.51700000 0.005860 -169.8 0.999978 -80.00 0.999978 -80.00 0.005860 -170.3
8.51720000 0.005877 -169.8 0.999978 -80.01 0.999978 -80.01 0.005877 -170.3
8.51740000 0.005894 -169.8 0.999978 -80.01 0.999978 -80.01 0.005894 -170.3
8.51760000 0.005911 -169.8 0.999978 -80.01 0.999978 -80.01 0.005911 -170.3
8.51780000 0.005928 -169.8 0.999978 -80.01 0.999978 -80.01 0.005928 -170.3
8.51800000 0.005946 -169.8 0.999978 -80.02 0.999978 -80.02 0.005945 -170.3
8.51820000 0.005963 -169.8 0.999977 -80.02 0.999977 -80.02 0.005962 -170.3
8.51840000 0.005980 -169.8 0.999977 -80.02 0.999977 -80.02 0.005980 -170.3
8.51860000 0.005997 -169.8 0.999977 -80.03 0.999977 -80.03 0.005997 -170.3
8.51880000 0.006014 -169.8 0.999977 -80.03 0.999977 -80.03 0.006014 -170.3
8.51900000 0.006032 -169.8 0.999977 -80.03 0.999977 -80.03 0.006031 -170.3
8.51920000 0.006049 -169.8 0.999977 -80.03 0.999977 -80.03 0.006049 -170.4
8.51940000 0.006066 -169.8 0.999977 -80.04 0.999977 -80.04 0.006066 -170.4
8.51960000 0.006083 -169.8 0.999977 -80.04 0.999977 -80.04 0.006083 -170.4
8.51980000 0.006101 -169.8 0.999977 -80.04 0.999977 -80.04 0.006100 -170.4
8.52000000 0.006118 -169.8 0.999976 -80.05 0.999976 -80.05 0.006118 -170.4
8.52020000 0.006136 -169.8 0.999976 -80.05 0.999976 -80.05 0.006135 -170.4
8.52040000 0.006153 -169.8 0.999976 -80.05 0.999976 -80.05 0.006153 -170.4
8.52060000 0.006170 -169.8 0.999976 -80.05 0.999976 -80.05 0.006170 -170.4
8.52080000 0.006188 -169.8 0.999976 -80.06 0.999976 -80.06 0.006188 -170.4
8.52100000 0.006205 -169.8 0.999976 -80.06 0.999976 -80.06 0.006205 -170.4
8.52120000 0.006223 -169.8 0.999976 -80.06 0.999976 -80.06 0.006223 -170.4
8.52140000 0.006241 -169.8 0.999976 -80.07 0.999976 -80.07 0.006240 -170.4
8.52160000 0.006258 -169.8 0.999976 -80.07 0.999976 -80.07 0.006258 -170.4
8.52180000 0.006276 -169.8 0.999975 -80.07 0.999975 -80.07 0.006275 -170.4
8.52200000 0.006293 -169.8 0.999975 -80.07 0.999975 -80.07 0.006293 -170.4
8.52220000 0.006311 -169.8 0.999975 -80.08 0.999975 -80.08 0.006311 -170.4
8.52240000 0.006329 -169.8 0.999975 -80.08 0.999975 -80.08 0.006328 -170.4
8.52260000 0.006346 -169.8 0.999975 -80.08 0.999975 -80.08 0.006346 -170.4
8.52280000 0.006364 -169.8 0.999975 -80.09 0.999975 -80.09 0.006364 -170.4
8.52300000 0.006382 -169.8 0.999975 -80.09 0.999975 -80.09 0.006382 -170.4
8.52320000 0.006400 -169.8 0.999975 -80.09 0.999975 -80.09 0.006399 -170.4
8.52340000 0.006418 -169.8 0.999975 -80.09 0.999975 -80.09 0.006417 -170.4
8.52360000 0.006435 -169.9 0.999974 -80.10 0.999974 -80.10 0.006435 -170.4
8.52380000 0.006453 -169.9 0.999974 -80.10 0.999974 -80.10 0.006453 -170.4
8.52400000 0.006471 -169.9 0.999974 -80.10 0.999974 -80.10 0.006471 -170.4
8.52420000 0.006489 -169.9 0.999974 -80.11 0.999974 -80.11 0.006489 -170.4
8.52440000 0.006507 -169.9 0.999974 -80.11 0.999974 -80.11 0.006507 -170.4
8.52460000 0.006525 -169.9 0.999974 -80.11 0.999974 -80.11 0.006525 -170.4
8.52480000 0.006543 -169.9 0.999974 -80.12 0.999974 -80.12 0.006543 -170.4
8.52500000 0.006561 -169.9 0.999974 -80.12 0.999974 -80.12 0.006561 -170.4
8.52520000 0.006579 -169.9 0.999973 -80.12 0.999973 -80.12 0.006579 -170.4
8.52540000 0.006597 -169.9 0.999973 -80.12 0.999973 -80.12 0.006597 -170.4
8.52560000 0.006615 -169.9 0.999973 -80.13 0.999973 -80.13 0.006615 -170.4
8.52580000 0.006633 -169.9 0.999973 -80.13 0.999973 -80.13 0.006633 -170.4
8.52600000 0.006652 -169.9 0.999973 -80.13 0.999973 -80.13 0.006651 -170.4
8.52620000 0.006670 -169.9 0.999973 -80.14 0.999973 -80.14 0.006669 -170.5
8.52640000 0.006688 -169.9 0.999973 -80.14 0.999973 -80.14 0.006688 -170.5
8.52660000 0.006706 -169.9 0.999973 -80.14 0.999973 -80.14 0.006706 -170.5
8.52680000 0.006725 -169.9 0.999973 -80.14 0.999973 -80.14 0.006724 -170.5
8.52700000 0.006743 -169.9 0.999972 -80.15 0.999972 -80.15 0.006742 -170.5
8.52720000 0.006761 -169.9 0.999972 -80.15 0.999972 -80.15 0.006761 -170.5
8.52740000 0.006780 -169.9 0.999972 -80.15 0.999972 -80.15 0.006779 -170.5
8.52760000 0.006798 -169.9 0.999972 -80.16 0.999972 -80.16 0.006797 -170.5
8.52780000 0.006816 -169.9 0.999972 -80.16 0.999972 -80.16 0.006816 -170.5
8.52800000 0.006835 -169.9 0.999972 -80.16 0.999972 -80.16 0.006834 -170.5
8.52820000 0.006853 -169.9 0.999972 -80.16 0.999972 -80.16 0.006853 -170.5
8.52840000 0.006872 -169.9 0.999971 -80.17 0.999971 -80.17 0.006871 -170.5
8.52860000 0.006890 -169.9 0.999971 -80.17 0.999971 -80.17 0.006890 -170.5
8.52880000 0.006909 -169.9 0.999971 -80.17 0.999971 -80.17 0.006908 -170.5
8.52900000 0.006927 -169.9 0.999971 -80.18 0.999971 -80.18 0.006927 -170.5
8.52920000 0.006946 -169.9 0.999971 -80.18 0.999971 -80.18 0.006946 -170.5
8.52940000 0.006965 -169.9 0.999971 -80.18 0.999971 -80.18 0.006964 -170.5
8.52960000 0.006983 -169.9 0.999971 -80.19 0.999971 -80.19 0.006983 -170.5
8.52980000 0.007002 -169.9 0.999971 -80.19 0.999971 -80.19 0.007002 -170.5
8.53000000 0.007021 -169.9 0.999970 -80.19 0.999970 -80.19 0.007020 -170.5
8.53020000 0.007040 -169.9 0.999970 -80.19 0.999970 -80.19 0.007039 -170.5
8.53040000 0.007058 -169.9 0.999970 -80.20 0.999970 -80.20 0.007058 -170.5
8.53060000 0.007077 -169.9 0.999970 -80.20 0.999970 -80.20 0.007077 -170.5
8.53080000 0.007096 -170.0 0.999970 -80.20 0.999970 -80.20 0.007095 -170.5
8.53100000 0.007115 -170.0 0.999970 -80.21 0.999970 -80.21 0.007114 -170.5
8.53120000 0.007134 -170.0 0.999970 -80.21 0.999970 -80.21 0.007133 -170.5
8.53140000 0.007153 -170.0 0.999969 -80.21 0.999969 -80.21 0.007152 -170.5
8.53160000 0.007172 -170.0 0.999969 -80.21 0.999969 -80.21 0.007171 -170.5
8.53180000 0.007191 -170.0 0.999969 -80.22 0.999969 -80.22 0.007190 -170.5
8.53200000 0.007210 -170.0 0.999969 -80.22 0.999969 -80.22 0.007209 -170.5
8.53220000 0.007229 -170.0 0.999969 -80.22 0.999969 -80.22 0.007228 -170.5
8.53240000 0.007248 -170.0 0.999969 -80.23 0.999969 -80.23 0.007247 -170.5
8.53260000 0.007267 -170.0 0.999969 -80.23 0.999969 -80.23 0.007266 -170.5
8.53280000 0.007286 -170.0 0.999968 -80.23 0.999968 -80.23 0.007285 -170.5
8.53300000 0.007305 -170.0 0.999968 -80.24 0.999968 -80.24 0.007305 -170.5
8.53320000 0.007324 -170.0 0.999968 -80.24 0.999968 -80.24 0.007324 -170.6
8.53340000 0.007343 -170.0 0.999968 -80.24 0.999968 -80.24 0.007343 -170.6
8.53360000 0.007363 -170.0 0.999968 -80.24 0.999968 -80.24 0.007362 -170.6
8.53380000 0.007382 -170.0 0.999968 -80.25 0.999968 -80.25 0.007381 -170.6
8.53400000 0.007401 -170.0 0.999968 -80.25 0.999968 -80.25 0.007401 -170.6
8.53420000 0.007421 -170.0 0.999967 -80.25 0.999967 -80.25 0.007420 -170.6
8.53440000 0.007440 -170.0 0.999967 -80.26 0.999967 -80.26 0.007439 -170.6
8.53460000 0.007459 -170.0 0.999967 -80.26 0.999967 -80.26 0.007459 -170.6
8.53480000 0.007479 -170.0 0.999967 -80.26 0.999967 -80.26 0.007478 -170.6
8.53500000 0.007498 -170.0 0.999967 -80.27 0.999967 -80.27 0.007498 -170.6
8.53520000 0.007518 -170.0 0.999967 -80.27 0.999967 -80.27 0.007517 -170.6
8.53540000 0.007537 -170.0 0.999967 -80.27 0.999967 -80.27 0.007537 -170.6
8.53560000 0.007557 -170.0 0.999966 -80.27 0.999966 -80.27 0.007556 -170.6
8.53580000 0.007576 -170.0 0.999966 -80.28 0.999966 -80.28 0.007576 -170.6
8.53600000 0.007596 -170.0 0.999966 -80.28 0.999966 -80.28 0.007595 -170.6
8.53620000 0.007616 -170.0 0.999966 -80.28 0.999966 -80.28 0.007615 -170.6
8.53640000 0.007635 -170.0 0.999966 -80.29 0.999966 -80.29 0.007635 -170.6
8.53660000 0.007655 -170.0 0.999966 -80.29 0.999966 -80.29 0.007654 -170.6
8.53680000 0.007675 -170.0 0.999966 -80.29 0.999966 -80.29 0.007674 -170.6
8.53700000 0.007694 -170.0 0.999965 -80.30 0.999965 -80.30 0.007694 -170.6
8.53720000 0.007714 -170.0 0.999965 -80.30 0.999965 -80.30 0.007714 -170.6
8.53740000 0.007734 -170.0 0.999965 -80.30 0.999965 -80.30 0.007733 -170.6
8.53760000 0.007754 -170.1 0.999965 -80.30 0.999965 -80.30 0.007753 -170.6
8.53780000 0.007774 -170.1 0.999965 -80.31 0.999965 -80.31 0.007773 -170.6
8.53800000 0.007794 -170.1 0.999965 -80.31 0.999965 -80.31 0.007793 -170.6
8.53820000 0.007814 -170.1 0.999964 -80.31 0.999964 -80.31 0.007813 -170.6
8.53840000 0.007834 -170.1 0.999964 -80.32 0.999964 -80.32 0.007833 -170.6
8.53860000 0.007854 -170.1 0.999964 -80.32 0.999964 -80.32 0.007853 -170.6
8.53880000 0.007874 -170.1 0.999964 -80.32 0.999964 -80.32 0.007873 -170.6
8.53900000 0.007894 -170.1 0.999964 -80.33 0.999964 -80.33 0.007893 -170.6
8.53920000 0.007914 -170.1 0.999964 -80.33 0.999964 -80.33 0.007913 -170.6
8.53940000 0.007934 -170.1 0.999963 -80.33 0.999963 -80.33 0.007933 -170.6
8.53960000 0.007954 -170.1 0.999963 -80.33 0.999963 -80.33 0.007954 -170.6
8.53980000 0.007974 -170.1 0.999963 -80.34 0.999963 -80.34 0.007974 -170.7
8.54000000 0.007995 -170.1 0.999963 -80.34 0.999963 -80.34 0.007994 -170.7
8.54020000 0.008015 -170.1 0.999963 -80.34 0.999963 -80.34 0.008014 -170.7
8.54040000 0.008035 -170.1 0.999963 -80.35 0.999963 -80.35 0.008035 -170.7
8.54060000 0.008055 -170.1 0.999962 -80.35 0.999962 -80.35 0.008055 -170.7
8.54080000 0.008076 -170.1 0.999962 -80.35 0.999962 -80.35 0.008075 -170.7
8.54100000 0.008096 -170.1 0.999962 -80.36 0.999962 -80.36 0.008096 -170.7
8.54120000 0.008117 -170.1 0.999962 -80.36 0.999962 -80.36 0.008116 -170.7
8.54140000 0.008137 -170.1 0.999962 -80.36 0.999962 -80.36 0.008136 -170.7
8.54160000 0.008158 -170.1 0.999962 -80.37 0.999962 -80.37 0.008157 -170.7
8.54180000 0.008178 -170.1 0.999961 -80.37 0.999961 -80.37 0.008177 -170.7
8.54200000 0.008199 -170.1 0.999961 -80.37 0.999961 -80.37 0.008198 -170.7
8.54220000 0.008219 -170.1 0.999961 -80.37 0.999961 -80.37 0.008219 -170.7
8.54240000 0.008240 -170.1 0.999961 -80.38 0.999961 -80.38 0.008239 -170.7
8.54260000 0.008261 -170.1 0.999961 -80.38 0.999961 -80.38 0.008260 -170.7
8.54280000 0.008281 -170.1 0.999961 -80.38 0.999961 -80.38 0.008281 -170.7
8.54300000 0.008302 -170.1 0.999960 -80.39 0.999960 -80.39 0.008301 -170.7
8.54320000 0.008323 -170.1 0.999960 -80.39 0.999960 -80.39 0.008322 -170.7
8.54340000 0.008343 -170.1 0.999960 -80.39 0.999960 -80.39 0.008343 -170.7
8.54360000 0.008364 -170.1 0.999960 -80.40 0.999960 -80.40 0.008364 -170.7
8.54380000 0.008385 -170.1 0.999960 -80.40 0.999960 -80.40 0.008384 -170.7
8.54400000 0.008406 -170.1 0.999960 -80.40 0.999960 -80.40 0.008405 -170.7
8.54420000 0.008427 -170.1 0.999959 -80.40 0.999959 -80.40 0.008426 -170.7
8.54440000 0.008448 -170.2 0.999959 -80.41 0.999959 -80.41 0.008447 -170.7
8.54460000 0.008469 -170.2 0.999959 -80.41 0.999959 -80.41 0.008468 -170.7
8.54480000 0.008490 -170.2 0.999959 -80.41 0.999959 -80.41 0.008489 -170.7
8.54500000 0.008511 -170.2 0.999959 -80.42 0.999959 -80.42 0.008510 -170.7
8.54520000 0.008532 -170.2 0.999958 -80.42 0.999958 -80.42 0.008531 -170.7
8.54540000 0.008553 -170.2 0.999958 -80.42 0.999958 -80.42 0.008552 -170.7
8.54560000 0.008574 -170.2 0.999958 -80.43 0.999958 -80.43 0.008574 -170.7
8.54580000 0.008595 -170.2 0.999958 -80.43 0.999958 -80.43 0.008595 -170.7
8.54600000 0.008617 -170.2 0.999958 -80.43 0.999958 -80.43 0.008616 -170.7
8.54620000 0.008638 -170.2 0.999957 -80.44 0.999957 -80.44 0.008637 -170.7
8.54640000 0.008659 -170.2 0.999957 -80.44 0.999957 -80.44 0.008658 -170.8
8.54660000 0.008681 -170.2 0.999957 -80.44 0.999957 -80.44 0.008680 -170.8
8.54680000 0.008702 -170.2 0.999957 -80.44 0.999957 -80.44 0.008701 -170.8
8.54700000 0.008723 -170.2 0.999957 -80.45 0.999957 -80.45 0.008723 -170.8
8.54720000 0.008745 -170.2 0.999957 -80.45 0.999957 -80.45 0.008744 -170.8
8.54740000 0.008766 -170.2 0.999956 -80.45 0.999956 -80.45 0.008765 -170.8
8.54760000 0.008788 -170.2 0.999956 -80.46 0.999956 -80.46 0.008787 -170.8
8.54780000 0.008809 -170.2 0.999956 -80.46 0.999956 -80.46 0.008808 -170.8
8.54800000 0.008831 -170.2 0.999956 -80.46 0.999956 -80.46 0.008830 -170.8
8.54820000 0.008852 -170.2 0.999956 -80.47 0.999956 -80.47 0.008852 -170.8
8.54840000 0.008874 -170.2 0.999955 -80.47 0.999955 -80.47 0.008873 -170.8
8.54860000 0.008896 -170.2 0.999955 -80.47 0.999955 -80.47 0.008895 -170.8
8.54880000 0.008917 -170.2 0.999955 -80.48 0.999955 -80.48 0.008917 -170.8
8.54900000 0.008939 -170.2 0.999955 -80.48 0.999955 -80.48 0.008938 -170.8
8.54920000 0.008961 -170.2 0.999955 -80.48 0.999955 -80.48 0.008960 -170.8
8.54940000 0.008983 -170.2 0.999954 -80.49 0.999954 -80.49 0.008982 -170.8
8.54960000 0.009005 -170.2 0.999954 -80.49 0.999954 -80.49 0.009004 -170.8
8.54980000 0.009026 -170.2 0.999954 -80.49 0.999954 -80.49 0.009026 -170.8
8.55000000 0.009048 -170.2 0.999954 -80.49 0.999954 -80.49 0.009048 -170.8
8.55020000 0.009070 -170.2 0.999954 -80.50 0.999954 -80.50 0.009070 -170.8
8.55040000 0.009092 -170.2 0.999953 -80.50 0.999953 -80.50 0.009092 -170.8
8.55060000 0.009114 -170.2 0.999953 -80.50 0.999953 -80.50 0.009114 -170.8
8.55080000 0.009136 -170.2 0.999953 -80.51 0.999953 -80.51 0.009136 -170.8
8.55100000 0.009158 -170.3 0.999953 -80.51 0.999953 -80.51 0.009158 -170.8
8.55120000 0.009181 -170.3 0.999953 -80.51 0.999953 -80.51 0.009180 -170.8
8.55140000 0.009203 -170.3 0.999952 -80.52 0.999952 -80.52 0.009202 -170.8
8.55160000 0.009225 -170.3 0.999952 -80.52 0.999952 -80.52 0.009224 -170.8
8.55180000 0.009247 -170.3 0.999952 -80.52 0.999952 -80.52 0.009246 -170.8
8.55200000 0.009270 -170.3 0.999952 -80.53 0.999952 -80.53 0.009269 -170.8
8.55220000 0.009292 -170.3 0.999952 -80.53 0.999952 -80.53 0.009291 -170.8
8.55240000 0.009314 -170.3 0.999951 -80.53 0.999951 -80.53 0.009313 -170.8
8.55260000 0.009337 -170.3 0.999951 -80.54 0.999951 -80.54 0.009336 -170.8
8.55280000 0.009359 -170.3 0.999951 -80.54 0.999951 -80.54 0.009358 -170.9
8.55300000 0.009381 -170.3 0.999951 -80.54 0.999951 -80.54 0.009381 -170.9
8.55320000 0.009404 -170.3 0.999950 -80.54 0.999950 -80.54 0.009403 -170.9
8.55340000 0.009427 -170.3 0.999950 -80.55 0.999950 -80.55 0.009426 -170.9
8.55360000 0.009449 -170.3 0.999950 -80.55 0.999950 -80.55 0.009448 -170.9
8.55380000 0.009472 -170.3 0.999950 -80.55 0.999950 -80.55 0.009471 -170.9
8.55400000 0.009494 -170.3 0.999950 -80.56 0.999950 -80.56 0.009494 -170.9
8.55420000 0.009517 -170.3 0.999949 -80.56 0.999949 -80.56 0.009516 -170.9
8.55440000 0.009540 -170.3 0.999949 -80.56 0.999949 -80.56 0.009539 -170.9
8.55460000 0.009563 -170.3 0.999949 -80.57 0.999949 -80.57 0.009562 -170.9
8.55480000 0.009585 -170.3 0.999949 -80.57 0.999949 -80.57 0.009585 -170.9
8.55500000 0.009608 -170.3 0.999948 -80.57 0.999948 -80.57 0.009607 -170.9
8.55520000 0.009631 -170.3 0.999948 -80.58 0.999948 -80.58 0.009630 -170.9
8.55540000 0.009654 -170.3 0.999948 -80.58 0.999948 -80.58 0.009653 -170.9
8.55560000 0.009677 -170.3 0.999948 -80.58 0.999948 -80.58 0.009676 -170.9
8.55580000 0.009700 -170.3 0.999948 -80.59 0.999948 -80.59 0.009699 -170.9
8.55600000 0.009723 -170.3 0.999947 -80.59 0.999947 -80.59 0.009722 -170.9
8.55620000 0.009746 -170.3 0.999947 -80.59 0.999947 -80.59 0.009745 -170.9
8.55640000 0.009769 -170.3 0.999947 -80.60 0.999947 -80.60 0.009768 -170.9
8.55660000 0.009792 -170.3 0.999947 -80.60 0.999947 -80.60 0.009791 -170.9
8.55680000 0.009816 -170.3 0.999946 -80.60 0.999946 -80.60 0.009815 -170.9
8.55700000 0.009839 -170.3 0.999946 -80.61 0.999946 -80.61 0.009838 -170.9
8.55720000 0.009862 -170.3 0.999946 -80.61 0.999946 -80.61 0.009861 -170.9
8.55740000 0.009885 -170.4 0.999946 -80.61 0.999946 -80.61 0.009884 -170.9
8.55760000 0.009909 -170.4 0.999945 -80.62 0.999945 -80.62 0.009908 -170.9
8.55780000 0.009932 -170.4 0.999945 -80.62 0.999945 -80.62 0.009931 -170.9
8.55800000 0.009955 -170.4 0.999945 -80.62 0.999945 -80.62 0.009955 -170.9
8.55820000 0.009979 -170.4 0.999945 -80.62 0.999945 -80.62 0.009978 -170.9
8.55840000 0.010002 -170.4 0.999945 -80.63 0.999945 -80.63 0.010002 -170.9
8.55860000 0.010026 -170.4 0.999944 -80.63 0.999944 -80.63 0.010025 -170.9
8.55880000 0.010050 -170.4 0.999944 -80.63 0.999944 -80.63 0.010049 -170.9
8.55900000 0.010073 -170.4 0.999944 -80.64 0.999944 -80.64 0.010072 -170.9
8.55920000 0.010097 -170.4 0.999944 -80.64 0.999944 -80.64 0.010096 -171.0
8.55940000 0.010121 -170.4 0.999943 -80.64 0.999943 -80.64 0.010120 -171.0
8.55960000 0.010144 -170.4 0.999943 -80.65 0.999943 -80.65 0.010143 -171.0
8.55980000 0.010168 -170.4 0.999943 -80.65 0.999943 -80.65 0.010167 -171.0
8.56000000 0.010192 -170.4 0.999943 -80.65 0.999943 -80.65 0.010191 -171.0
8.56020000 0.010216 -170.4 0.999942 -80.66 0.999942 -80.66 0.010215 -171.0
8.56040000 0.010240 -170.4 0.999942 -80.66 0.999942 -80.66 0.010239 -171.0
8.56060000 0.010264 -170.4 0.999942 -80.66 0.999942 -80.66 0.010263 -171.0
8.56080000 0.010288 -170.4 0.999942 -80.67 0.999942 -80.67 0.010287 -171.0
8.56100000 0.010312 -170.4 0.999941 -80.67 0.999941 -80.67 0.010311 -171.0
8.56120000 0.010336 -170.4 0.999941 -80.67 0.999941 -80.67 0.010335 -171.0
8.56140000 0.010360 -170.4 0.999941 -80.68 0.999941 -80.68 0.010359 -171.0
8.56160000 0.010384 -170.4 0.999941 -80.68 0.999941 -80.68 0.010383 -171.0
8.56180000 0.010408 -170.4 0.999940 -80.68 0.999940 -80.68 0.010407 -171.0
8.56200000 0.010432 -170.4 0.999940 -80.69 0.999940 -80.69 0.010432 -171.0
8.56220000 0.010457 -170.4 0.999940 -80.69 0.999940 -80.69 0.010456 -171.0
8.56240000 0.010481 -170.4 0.999940 -80.69 0.999940 -80.69 0.010480 -171.0
8.56260000 0.010505 -170.4 0.999939 -80.70 0.999939 -80.70 0.010504 -171.0
8.56280000 0.010530 -170.4 0.999939 -80.70 0.999939 -80.70 0.010529 -171.0
8.56300000 0.010554 -170.4 0.999939 -80.70 0.999939 -80.70 0.010553 -171.0
8.56320000 0.010579 -170.4 0.999939 -80.71 0.999939 -80.71 0.010578 -171.0
8.56340000 0.010603 -170.4 0.999938 -80.71 0.999938 -80.71 0.010602 -171.0
8.56360000 0.010628 -170.4 0.999938 -80.71 0.999938 -80.71 0.010627 -171.0
8.56380000 0.010652 -170.5 0.999938 -80.72 0.999938 -80.72 0.010652 -171.0
8.56400000 0.010677 -170.5 0.999937 -80.72 0.999937 -80.72 0.010676 -171.0
8.56420000 0.010702 -170.5 0.999937 -80.72 0.999937 -80.72 0.010701 -171.0
8.56440000 0.010727 -170.5 0.999937 -80.73 0.999937 -80.73 0.010726 -171.0
8.56460000 0.010751 -170.5 0.999937 -80.73 0.999937 -80.73 0.010750 -171.0
8.56480000 0.010776 -170.5 0.999936 -80.73 0.999936 -80.73 0.010775 -171.0
8.56500000 0.010801 -170.5 0.999936 -80.74 0.999936 -80.74 0.010800 -171.0
8.56520000 0.010826 -170.5 0.999936 -80.74 0.999936 -80.74 0.010825 -171.1
8.56540000 0.010851 -170.5 0.999936 -80.74 0.999936 -80.74 0.010850 -171.1
8.56560000 0.010876 -170.5 0.999935 -80.75 0.999935 -80.75 0.010875 -171.1
8.56580000 0.010901 -170.5 0.999935 -80.75 0.999935 -80.75 0.010900 -171.1
8.56600000 0.010926 -170.5 0.999935 -80.75 0.999935 -80.75 0.010925 -171.1
8.56620000 0.010951 -170.5 0.999934 -80.76 0.999934 -80.76 0.010950 -171.1
8.56640000 0.010976 -170.5 0.999934 -80.76 0.999934 -80.76 0.010975 -171.1
8.56660000 0.011002 -170.5 0.999934 -80.76 0.999934 -80.76 0.011001 -171.1
8.56680000 0.011027 -170.5 0.999934 -80.77 0.999934 -80.77 0.011026 -171.1
8.56700000 0.011052 -170.5 0.999933 -80.77 0.999933 -80.77 0.011051 -171.1
8.56720000 0.011078 -170.5 0.999933 -80.77 0.999933 -80.77 0.011077 -171.1
8.56740000 0.011103 -170.5 0.999933 -80.78 0.999933 -80.78 0.011102 -171.1
8.56760000 0.011128 -170.5 0.999932 -80.78 0.999932 -80.78 0.011127 -171.1
8.56780000 0.011154 -170.5 0.999932 -80.78 0.999932 -80.78 0.011153 -171.1
8.56800000 0.011179 -170.5 0.999932 -80.79 0.999932 -80.79 0.011178 -171.1
8.56820000 0.011205 -170.5 0.999932 -80.79 0.999932 -80.79 0.011204 -171.1
8.56840000 0.011231 -170.5 0.999931 -80.79 0.999931 -80.79 0.011230 -171.1
8.56860000 0.011256 -170.5 0.999931 -80.80 0.999931 -80.80 0.011255 -171.1
8.56880000 0.011282 -170.5 0.999931 -80.80 0.999931 -80.80 0.011281 -171.1
8.56900000 0.011308 -170.5 0.999930 -80.80 0.999930 -80.80 0.011307 -171.1
8.56920000 0.011334 -170.5 0.999930 -80.81 0.999930 -80.81 0.011333 -171.1
8.56940000 0.011359 -170.5 0.999930 -80.81 0.999930 -80.81 0.011358 -171.1
8.56960000 0.011385 -170.5 0.999930 -80.81 0.999930 -80.81 0.011384 -171.1
8.56980000 0.011411 -170.5 0.999929 -80.82 0.999929 -80.82 0.011410 -171.1
8.57000000 0.011437 -170.6 0.999929 -80.82 0.999929 -80.82 0.011436 -171.1
8.57020000 0.011463 -170.6 0.999929 -80.82 0.999929 -80.82 0.011462 -171.1
8.57040000 0.011489 -170.6 0.999928 -80.83 0.999928 -80.83 0.011488 -171.1
8.57060000 0.011515 -170.6 0.999928 -80.83 0.999928 -80.83 0.011514 -171.1
8.57080000 0.011542 -170.6 0.999928 -80.83 0.999928 -80.83 0.011541 -171.1
8.57100000 0.011568 -170.6 0.999927 -80.84 0.999927 -80.84 0.011567 -171.1
8.57120000 0.011594 -170.6 0.999927 -80.84 0.999927 -80.84 0.011593 -171.2
8.57140000 0.011620 -170.6 0.999927 -80.84 0.999927 -80.84 0.011619 -171.2
8.57160000 0.011647 -170.6 0.999926 -80.85 0.999926 -80.85 0.011646 -171.2
8.57180000 0.011673 -170.6 0.999926 -80.85 0.999926 -80.85 0.011672 -171.2
8.57200000 0.011700 -170.6 0.999926 -80.85 0.999926 -80.85 0.011699 -171.2
8.57220000 0.011726 -170.6 0.999926 -80.86 0.999926 -80.86 0.011725 -171.2
8.57240000 0.011753 -170.6 0.999925 -80.86 0.999925 -80.86 0.011752 -171.2
8.57260000 0.011779 -170.6 0.999925 -80.86 0.999925 -80.86 0.011778 -171.2
8.57280000 0.011806 -170.6 0.999925 -80.87 0.999925 -80.87 0.011805 -171.2
8.57300000 0.011833 -170.6 0.999924 -80.87 0.999924 -80.87 0.011832 -171.2
8.57320000 0.011859 -170.6 0.999924 -80.87 0.999924 -80.87 0.011858 -171.2
8.57340000 0.011886 -170.6 0.999924 -80.88 0.999924 -80.88 0.011885 -171.2
8.57360000 0.011913 -170.6 0.999923 -80.88 0.999923 -80.88 0.011912 -171.2
8.57380000 0.011940 -170.6 0.999923 -80.88 0.999923 -80.88 0.011939 -171.2
8.57400000 0.011967 -170.6 0.999923 -80.89 0.999923 -80.89 0.011966 -171.2
8.57420000 0.011994 -170.6 0.999922 -80.89 0.999922 -80.89 0.011993 -171.2
8.57440000 0.012021 -170.6 0.999922 -80.89 0.999922 -80.89 0.012020 -171.2
8.57460000 0.012048 -170.6 0.999922 -80.90 0.999922 -80.90 0.012047 -171.2
8.57480000 0.012075 -170.6 0.999921 -80.90 0.999921 -80.90 0.012074 -171.2
8.57500000 0.012102 -170.6 0.999921 -80.90 0.999921 -80.90 0.012101 -171.2
8.57520000 0.012129 -170.6 0.999921 -80.91 0.999921 -80.91 0.012128 -171.2
8.57540000 0.012157 -170.6 0.999920 -80.91 0.999920 -80.91 0.012156 -171.2
8.57560000 0.012184 -170.6 0.999920 -80.91 0.999920 -80.91 0.012183 -171.2
8.57580000 0.012211 -170.7 0.999920 -80.92 0.999920 -80.92 0.012210 -171.2
8.57600000 0.012239 -170.7 0.999919 -80.92 0.999919 -80.92 0.012238 -171.2
8.57620000 0.012266 -170.7 0.999919 -80.92 0.999919 -80.92 0.012265 -171.2
8.57640000 0.012294 -170.7 0.999919 -80.93 0.999919 -80.93 0.012293 -171.2
8.57660000 0.012321 -170.7 0.999918 -80.93 0.999918 -80.93 0.012320 -171.2
8.57680000 0.012349 -170.7 0.999918 -80.93 0.999918 -80.93 0.012348 -171.2
8.57700000 0.012377 -170.7 0.999918 -80.94 0.999918 -80.94 0.012376 -171.2
8.57720000 0.012404 -170.7 0.999917 -80.94 0.999917 -80.94 0.012403 -171.3
8.57740000 0.012432 -170.7 0.999917 -80.94 0.999917 -80.94 0.012431 -171.3
8.57760000 0.012460 -170.7 0.999917 -80.95 0.999917 -80.95 0.012459 -171.3
8.57780000 0.012488 -170.7 0.999916 -80.95 0.999916 -80.95 0.012487 -171.3
8.57800000 0.012516 -170.7 0.999916 -80.96 0.999916 -80.96 0.012515 -171.3
8.57820000 0.012544 -170.7 0.999915 -80.96 0.999915 -80.96 0.012543 -171.3
8.57840000 0.012572 -170.7 0.999915 -80.96 0.999915 -80.96 0.012571 -171.3