! Sonnet Data File
! From: emgraph Version : 16.52
! From Project: transmon_brg
! Data is De-embedded 
! Data File Written: 11/11/2017 22:44:25
!< HDATE 11/11/2017 16:55:33
!< MDATE 11/11/2017 17:38:18
!< PARAMS
!< Lj = 15.24
!< Gap = 6.0
!< Width = 10.0
!< Airgap = 6.0
!< Pwidth = 2000.0
!< Dist = 1800.0
!< END PARAMS
# GHZ S MA R 51.80000
8.50000000 0.002744 -169.5 0.999992 -79.79 0.999992 -79.79 0.002744 -170.3
!< P1 F=8.5 Eeff=(6.44695349 -2.9785e-5) Z0=(51.7999087 1.19092e-4) R=0.0 C=0.0 
!< P2 F=8.5 Eeff=(6.44695349 -2.9785e-5) Z0=(51.7999087 1.19092e-4) R=0.0 C=0.0 
8.50020000 0.002759 -169.5 0.999992 -79.79 0.999992 -79.79 0.002759 -170.3
8.50040000 0.002774 -169.5 0.999992 -79.80 0.999992 -79.80 0.002774 -170.3
8.50060000 0.002789 -169.5 0.999992 -79.80 0.999992 -79.80 0.002789 -170.3
8.50080000 0.002804 -169.5 0.999992 -79.80 0.999992 -79.80 0.002804 -170.3
8.50100000 0.002819 -169.5 0.999992 -79.80 0.999992 -79.80 0.002819 -170.3
8.50120000 0.002834 -169.5 0.999991 -79.81 0.999991 -79.81 0.002834 -170.3
8.50140000 0.002849 -169.5 0.999991 -79.81 0.999991 -79.81 0.002849 -170.3
8.50160000 0.002865 -169.5 0.999991 -79.81 0.999991 -79.81 0.002865 -170.3
8.50180000 0.002880 -169.5 0.999991 -79.82 0.999991 -79.82 0.002880 -170.3
8.50200000 0.002895 -169.5 0.999991 -79.82 0.999991 -79.82 0.002895 -170.3
8.50220000 0.002910 -169.5 0.999991 -79.82 0.999991 -79.82 0.002910 -170.3
8.50240000 0.002925 -169.5 0.999991 -79.82 0.999991 -79.82 0.002925 -170.3
8.50260000 0.002941 -169.5 0.999991 -79.83 0.999991 -79.83 0.002941 -170.3
8.50280000 0.002956 -169.5 0.999991 -79.83 0.999991 -79.83 0.002956 -170.3
8.50300000 0.002971 -169.5 0.999991 -79.83 0.999991 -79.83 0.002971 -170.3
8.50320000 0.002987 -169.5 0.999991 -79.83 0.999991 -79.83 0.002987 -170.3
8.50340000 0.003002 -169.5 0.999991 -79.84 0.999991 -79.84 0.003002 -170.3
8.50360000 0.003017 -169.5 0.999991 -79.84 0.999991 -79.84 0.003017 -170.3
8.50380000 0.003033 -169.5 0.999991 -79.84 0.999991 -79.84 0.003033 -170.3
8.50400000 0.003048 -169.5 0.999991 -79.85 0.999991 -79.85 0.003048 -170.3
8.50420000 0.003064 -169.5 0.999991 -79.85 0.999991 -79.85 0.003064 -170.3
8.50440000 0.003079 -169.5 0.999991 -79.85 0.999991 -79.85 0.003079 -170.3
8.50460000 0.003094 -169.5 0.999991 -79.85 0.999991 -79.85 0.003094 -170.3
8.50480000 0.003110 -169.5 0.999991 -79.86 0.999991 -79.86 0.003110 -170.3
8.50500000 0.003125 -169.5 0.999991 -79.86 0.999991 -79.86 0.003126 -170.3
8.50520000 0.003141 -169.5 0.999990 -79.86 0.999990 -79.86 0.003141 -170.3
8.50540000 0.003157 -169.5 0.999990 -79.86 0.999990 -79.86 0.003157 -170.3
8.50560000 0.003172 -169.5 0.999990 -79.87 0.999990 -79.87 0.003172 -170.3
8.50580000 0.003188 -169.6 0.999990 -79.87 0.999990 -79.87 0.003188 -170.3
8.50600000 0.003203 -169.6 0.999990 -79.87 0.999990 -79.87 0.003203 -170.3
8.50620000 0.003219 -169.6 0.999990 -79.88 0.999990 -79.88 0.003219 -170.3
8.50640000 0.003235 -169.6 0.999990 -79.88 0.999990 -79.88 0.003235 -170.3
8.50660000 0.003250 -169.6 0.999990 -79.88 0.999990 -79.88 0.003250 -170.3
8.50680000 0.003266 -169.6 0.999990 -79.88 0.999990 -79.88 0.003266 -170.3
8.50700000 0.003282 -169.6 0.999990 -79.89 0.999990 -79.89 0.003282 -170.3
8.50720000 0.003298 -169.6 0.999990 -79.89 0.999990 -79.89 0.003298 -170.3
8.50740000 0.003313 -169.6 0.999990 -79.89 0.999990 -79.89 0.003314 -170.3
8.50760000 0.003329 -169.6 0.999990 -79.90 0.999990 -79.90 0.003329 -170.3
8.50780000 0.003345 -169.6 0.999990 -79.90 0.999990 -79.90 0.003345 -170.3
8.50800000 0.003361 -169.6 0.999990 -79.90 0.999990 -79.90 0.003361 -170.3
8.50820000 0.003377 -169.6 0.999990 -79.90 0.999990 -79.90 0.003377 -170.3
8.50840000 0.003393 -169.6 0.999990 -79.91 0.999990 -79.91 0.003393 -170.3
8.50860000 0.003409 -169.6 0.999990 -79.91 0.999990 -79.91 0.003409 -170.4
8.50880000 0.003425 -169.6 0.999990 -79.91 0.999990 -79.91 0.003425 -170.4
8.50900000 0.003441 -169.6 0.999989 -79.91 0.999989 -79.91 0.003441 -170.4
8.50920000 0.003457 -169.6 0.999989 -79.92 0.999989 -79.92 0.003457 -170.4
8.50940000 0.003473 -169.6 0.999989 -79.92 0.999989 -79.92 0.003473 -170.4
8.50960000 0.003489 -169.6 0.999989 -79.92 0.999989 -79.92 0.003489 -170.4
8.50980000 0.003505 -169.6 0.999989 -79.93 0.999989 -79.93 0.003505 -170.4
8.51000000 0.003521 -169.6 0.999989 -79.93 0.999989 -79.93 0.003521 -170.4
8.51020000 0.003537 -169.6 0.999989 -79.93 0.999989 -79.93 0.003537 -170.4
8.51040000 0.003553 -169.6 0.999989 -79.93 0.999989 -79.93 0.003553 -170.4
8.51060000 0.003569 -169.6 0.999989 -79.94 0.999989 -79.94 0.003569 -170.4
8.51080000 0.003585 -169.6 0.999989 -79.94 0.999989 -79.94 0.003585 -170.4
8.51100000 0.003602 -169.6 0.999989 -79.94 0.999989 -79.94 0.003602 -170.4
8.51120000 0.003618 -169.6 0.999989 -79.95 0.999989 -79.95 0.003618 -170.4
8.51140000 0.003634 -169.6 0.999989 -79.95 0.999989 -79.95 0.003634 -170.4
8.51160000 0.003650 -169.6 0.999989 -79.95 0.999989 -79.95 0.003650 -170.4
8.51180000 0.003667 -169.6 0.999989 -79.95 0.999989 -79.95 0.003667 -170.4
8.51200000 0.003683 -169.6 0.999989 -79.96 0.999989 -79.96 0.003683 -170.4
8.51220000 0.003699 -169.6 0.999988 -79.96 0.999988 -79.96 0.003699 -170.4
8.51240000 0.003716 -169.6 0.999988 -79.96 0.999988 -79.96 0.003716 -170.4
8.51260000 0.003732 -169.6 0.999988 -79.97 0.999988 -79.97 0.003732 -170.4
8.51280000 0.003748 -169.7 0.999988 -79.97 0.999988 -79.97 0.003748 -170.4
8.51300000 0.003765 -169.7 0.999988 -79.97 0.999988 -79.97 0.003765 -170.4
8.51320000 0.003781 -169.7 0.999988 -79.97 0.999988 -79.97 0.003781 -170.4
8.51340000 0.003798 -169.7 0.999988 -79.98 0.999988 -79.98 0.003798 -170.4
8.51360000 0.003814 -169.7 0.999988 -79.98 0.999988 -79.98 0.003814 -170.4
8.51380000 0.003831 -169.7 0.999988 -79.98 0.999988 -79.98 0.003831 -170.4
8.51400000 0.003847 -169.7 0.999988 -79.99 0.999988 -79.99 0.003847 -170.4
8.51420000 0.003864 -169.7 0.999988 -79.99 0.999988 -79.99 0.003864 -170.4
8.51440000 0.003881 -169.7 0.999988 -79.99 0.999988 -79.99 0.003881 -170.4
8.51460000 0.003897 -169.7 0.999988 -79.99 0.999988 -79.99 0.003897 -170.4
8.51480000 0.003914 -169.7 0.999988 -80.00 0.999988 -80.00 0.003914 -170.4
8.51500000 0.003930 -169.7 0.999988 -80.00 0.999988 -80.00 0.003931 -170.4
8.51520000 0.003947 -169.7 0.999987 -80.00 0.999987 -80.00 0.003947 -170.4
8.51540000 0.003964 -169.7 0.999987 -80.00 0.999987 -80.00 0.003964 -170.4
8.51560000 0.003981 -169.7 0.999987 -80.01 0.999987 -80.01 0.003981 -170.4
8.51580000 0.003997 -169.7 0.999987 -80.01 0.999987 -80.01 0.003997 -170.4
8.51600000 0.004014 -169.7 0.999987 -80.01 0.999987 -80.01 0.004014 -170.4
8.51620000 0.004031 -169.7 0.999987 -80.02 0.999987 -80.02 0.004031 -170.4
8.51640000 0.004048 -169.7 0.999987 -80.02 0.999987 -80.02 0.004048 -170.4
8.51660000 0.004065 -169.7 0.999987 -80.02 0.999987 -80.02 0.004065 -170.4
8.51680000 0.004082 -169.7 0.999987 -80.02 0.999987 -80.02 0.004082 -170.4
8.51700000 0.004099 -169.7 0.999987 -80.03 0.999987 -80.03 0.004099 -170.4
8.51720000 0.004116 -169.7 0.999987 -80.03 0.999987 -80.03 0.004116 -170.4
8.51740000 0.004133 -169.7 0.999987 -80.03 0.999987 -80.03 0.004133 -170.5
8.51760000 0.004150 -169.7 0.999987 -80.04 0.999987 -80.04 0.004150 -170.5
8.51780000 0.004167 -169.7 0.999987 -80.04 0.999987 -80.04 0.004167 -170.5
8.51800000 0.004184 -169.7 0.999986 -80.04 0.999986 -80.04 0.004184 -170.5
8.51820000 0.004201 -169.7 0.999986 -80.04 0.999986 -80.04 0.004201 -170.5
8.51840000 0.004218 -169.7 0.999986 -80.05 0.999986 -80.05 0.004218 -170.5
8.51860000 0.004235 -169.7 0.999986 -80.05 0.999986 -80.05 0.004235 -170.5
8.51880000 0.004252 -169.7 0.999986 -80.05 0.999986 -80.05 0.004252 -170.5
8.51900000 0.004269 -169.7 0.999986 -80.06 0.999986 -80.06 0.004269 -170.5
8.51920000 0.004286 -169.7 0.999986 -80.06 0.999986 -80.06 0.004286 -170.5
8.51940000 0.004304 -169.8 0.999986 -80.06 0.999986 -80.06 0.004304 -170.5
8.51960000 0.004321 -169.8 0.999986 -80.06 0.999986 -80.06 0.004321 -170.5
8.51980000 0.004338 -169.8 0.999986 -80.07 0.999986 -80.07 0.004338 -170.5
8.52000000 0.004355 -169.8 0.999986 -80.07 0.999986 -80.07 0.004355 -170.5
8.52020000 0.004373 -169.8 0.999986 -80.07 0.999986 -80.07 0.004373 -170.5
8.52040000 0.004390 -169.8 0.999986 -80.08 0.999986 -80.08 0.004390 -170.5
8.52060000 0.004407 -169.8 0.999985 -80.08 0.999985 -80.08 0.004407 -170.5
8.52080000 0.004425 -169.8 0.999985 -80.08 0.999985 -80.08 0.004425 -170.5
8.52100000 0.004442 -169.8 0.999985 -80.08 0.999985 -80.08 0.004442 -170.5
8.52120000 0.004460 -169.8 0.999985 -80.09 0.999985 -80.09 0.004460 -170.5
8.52140000 0.004477 -169.8 0.999985 -80.09 0.999985 -80.09 0.004477 -170.5
8.52160000 0.004495 -169.8 0.999985 -80.09 0.999985 -80.09 0.004495 -170.5
8.52180000 0.004512 -169.8 0.999985 -80.10 0.999985 -80.10 0.004512 -170.5
8.52200000 0.004530 -169.8 0.999985 -80.10 0.999985 -80.10 0.004530 -170.5
8.52220000 0.004547 -169.8 0.999985 -80.10 0.999985 -80.10 0.004547 -170.5
8.52240000 0.004565 -169.8 0.999985 -80.11 0.999985 -80.11 0.004565 -170.5
8.52260000 0.004583 -169.8 0.999985 -80.11 0.999985 -80.11 0.004583 -170.5
8.52280000 0.004600 -169.8 0.999985 -80.11 0.999985 -80.11 0.004600 -170.5
8.52300000 0.004618 -169.8 0.999985 -80.11 0.999985 -80.11 0.004618 -170.5
8.52320000 0.004636 -169.8 0.999984 -80.12 0.999984 -80.12 0.004636 -170.5
8.52340000 0.004653 -169.8 0.999984 -80.12 0.999984 -80.12 0.004653 -170.5
8.52360000 0.004671 -169.8 0.999984 -80.12 0.999984 -80.12 0.004671 -170.5
8.52380000 0.004689 -169.8 0.999984 -80.13 0.999984 -80.13 0.004689 -170.5
8.52400000 0.004707 -169.8 0.999984 -80.13 0.999984 -80.13 0.004707 -170.5
8.52420000 0.004725 -169.8 0.999984 -80.13 0.999984 -80.13 0.004725 -170.5
8.52440000 0.004743 -169.8 0.999984 -80.13 0.999984 -80.13 0.004743 -170.5
8.52460000 0.004760 -169.8 0.999984 -80.14 0.999984 -80.14 0.004760 -170.5
8.52480000 0.004778 -169.8 0.999984 -80.14 0.999984 -80.14 0.004778 -170.5
8.52500000 0.004796 -169.8 0.999984 -80.14 0.999984 -80.14 0.004796 -170.5
8.52520000 0.004814 -169.8 0.999984 -80.15 0.999984 -80.15 0.004814 -170.5
8.52540000 0.004832 -169.8 0.999983 -80.15 0.999983 -80.15 0.004832 -170.6
8.52560000 0.004850 -169.8 0.999983 -80.15 0.999983 -80.15 0.004850 -170.6
8.52580000 0.004868 -169.8 0.999983 -80.15 0.999983 -80.15 0.004868 -170.6
8.52600000 0.004887 -169.8 0.999983 -80.16 0.999983 -80.16 0.004887 -170.6
8.52620000 0.004905 -169.9 0.999983 -80.16 0.999983 -80.16 0.004905 -170.6
8.52640000 0.004923 -169.9 0.999983 -80.16 0.999983 -80.16 0.004923 -170.6
8.52660000 0.004941 -169.9 0.999983 -80.17 0.999983 -80.17 0.004941 -170.6
8.52680000 0.004959 -169.9 0.999983 -80.17 0.999983 -80.17 0.004959 -170.6
8.52700000 0.004977 -169.9 0.999983 -80.17 0.999983 -80.17 0.004977 -170.6
8.52720000 0.004996 -169.9 0.999983 -80.17 0.999983 -80.17 0.004996 -170.6
8.52740000 0.005014 -169.9 0.999983 -80.18 0.999983 -80.18 0.005014 -170.6
8.52760000 0.005032 -169.9 0.999982 -80.18 0.999982 -80.18 0.005032 -170.6
8.52780000 0.005051 -169.9 0.999982 -80.18 0.999982 -80.18 0.005051 -170.6
8.52800000 0.005069 -169.9 0.999982 -80.19 0.999982 -80.19 0.005069 -170.6
8.52820000 0.005087 -169.9 0.999982 -80.19 0.999982 -80.19 0.005087 -170.6
8.52840000 0.005106 -169.9 0.999982 -80.19 0.999982 -80.19 0.005106 -170.6
8.52860000 0.005124 -169.9 0.999982 -80.20 0.999982 -80.20 0.005124 -170.6
8.52880000 0.005143 -169.9 0.999982 -80.20 0.999982 -80.20 0.005143 -170.6
8.52900000 0.005161 -169.9 0.999982 -80.20 0.999982 -80.20 0.005161 -170.6
8.52920000 0.005180 -169.9 0.999982 -80.20 0.999982 -80.20 0.005180 -170.6
8.52940000 0.005198 -169.9 0.999982 -80.21 0.999982 -80.21 0.005198 -170.6
8.52960000 0.005217 -169.9 0.999981 -80.21 0.999981 -80.21 0.005217 -170.6
8.52980000 0.005236 -169.9 0.999981 -80.21 0.999981 -80.21 0.005236 -170.6
8.53000000 0.005254 -169.9 0.999981 -80.22 0.999981 -80.22 0.005254 -170.6
8.53020000 0.005273 -169.9 0.999981 -80.22 0.999981 -80.22 0.005273 -170.6
8.53040000 0.005292 -169.9 0.999981 -80.22 0.999981 -80.22 0.005292 -170.6
8.53060000 0.005310 -169.9 0.999981 -80.22 0.999981 -80.22 0.005310 -170.6
8.53080000 0.005329 -169.9 0.999981 -80.23 0.999981 -80.23 0.005329 -170.6
8.53100000 0.005348 -169.9 0.999981 -80.23 0.999981 -80.23 0.005348 -170.6
8.53120000 0.005367 -169.9 0.999981 -80.23 0.999981 -80.23 0.005367 -170.6
8.53140000 0.005386 -169.9 0.999981 -80.24 0.999981 -80.24 0.005386 -170.6
8.53160000 0.005404 -169.9 0.999980 -80.24 0.999980 -80.24 0.005404 -170.6
8.53180000 0.005423 -169.9 0.999980 -80.24 0.999980 -80.24 0.005423 -170.6
8.53200000 0.005442 -169.9 0.999980 -80.25 0.999980 -80.25 0.005442 -170.6
8.53220000 0.005461 -169.9 0.999980 -80.25 0.999980 -80.25 0.005461 -170.6
8.53240000 0.005480 -169.9 0.999980 -80.25 0.999980 -80.25 0.005480 -170.6
8.53260000 0.005499 -169.9 0.999980 -80.25 0.999980 -80.25 0.005499 -170.6
8.53280000 0.005518 -170.0 0.999980 -80.26 0.999980 -80.26 0.005518 -170.6
8.53300000 0.005537 -170.0 0.999980 -80.26 0.999980 -80.26 0.005537 -170.7
8.53320000 0.005557 -170.0 0.999980 -80.26 0.999980 -80.26 0.005557 -170.7
8.53340000 0.005576 -170.0 0.999979 -80.27 0.999979 -80.27 0.005576 -170.7
8.53360000 0.005595 -170.0 0.999979 -80.27 0.999979 -80.27 0.005595 -170.7
8.53380000 0.005614 -170.0 0.999979 -80.27 0.999979 -80.27 0.005614 -170.7
8.53400000 0.005633 -170.0 0.999979 -80.28 0.999979 -80.28 0.005633 -170.7
8.53420000 0.005653 -170.0 0.999979 -80.28 0.999979 -80.28 0.005653 -170.7
8.53440000 0.005672 -170.0 0.999979 -80.28 0.999979 -80.28 0.005672 -170.7
8.53460000 0.005691 -170.0 0.999979 -80.28 0.999979 -80.28 0.005691 -170.7
8.53480000 0.005711 -170.0 0.999979 -80.29 0.999979 -80.29 0.005711 -170.7
8.53500000 0.005730 -170.0 0.999979 -80.29 0.999979 -80.29 0.005730 -170.7
8.53520000 0.005749 -170.0 0.999978 -80.29 0.999978 -80.29 0.005749 -170.7
8.53540000 0.005769 -170.0 0.999978 -80.30 0.999978 -80.30 0.005769 -170.7
8.53560000 0.005788 -170.0 0.999978 -80.30 0.999978 -80.30 0.005788 -170.7
8.53580000 0.005808 -170.0 0.999978 -80.30 0.999978 -80.30 0.005808 -170.7
8.53600000 0.005827 -170.0 0.999978 -80.31 0.999978 -80.31 0.005827 -170.7
8.53620000 0.005847 -170.0 0.999978 -80.31 0.999978 -80.31 0.005847 -170.7
8.53640000 0.005867 -170.0 0.999978 -80.31 0.999978 -80.31 0.005867 -170.7
8.53660000 0.005886 -170.0 0.999978 -80.31 0.999978 -80.31 0.005886 -170.7
8.53680000 0.005906 -170.0 0.999978 -80.32 0.999978 -80.32 0.005906 -170.7
8.53700000 0.005925 -170.0 0.999977 -80.32 0.999977 -80.32 0.005926 -170.7
8.53720000 0.005945 -170.0 0.999977 -80.32 0.999977 -80.32 0.005945 -170.7
8.53740000 0.005965 -170.0 0.999977 -80.33 0.999977 -80.33 0.005965 -170.7
8.53760000 0.005985 -170.0 0.999977 -80.33 0.999977 -80.33 0.005985 -170.7
8.53780000 0.006005 -170.0 0.999977 -80.33 0.999977 -80.33 0.006005 -170.7
8.53800000 0.006024 -170.0 0.999977 -80.34 0.999977 -80.34 0.006024 -170.7
8.53820000 0.006044 -170.0 0.999977 -80.34 0.999977 -80.34 0.006044 -170.7
8.53840000 0.006064 -170.0 0.999977 -80.34 0.999977 -80.34 0.006064 -170.7
8.53860000 0.006084 -170.0 0.999976 -80.34 0.999976 -80.34 0.006084 -170.7
8.53880000 0.006104 -170.0 0.999976 -80.35 0.999976 -80.35 0.006104 -170.7
8.53900000 0.006124 -170.0 0.999976 -80.35 0.999976 -80.35 0.006124 -170.7
8.53920000 0.006144 -170.0 0.999976 -80.35 0.999976 -80.35 0.006144 -170.7
8.53940000 0.006164 -170.1 0.999976 -80.36 0.999976 -80.36 0.006164 -170.7
8.53960000 0.006184 -170.1 0.999976 -80.36 0.999976 -80.36 0.006184 -170.7
8.53980000 0.006204 -170.1 0.999976 -80.36 0.999976 -80.36 0.006204 -170.7
8.54000000 0.006225 -170.1 0.999976 -80.37 0.999976 -80.37 0.006225 -170.7
8.54020000 0.006245 -170.1 0.999975 -80.37 0.999975 -80.37 0.006245 -170.8
8.54040000 0.006265 -170.1 0.999975 -80.37 0.999975 -80.37 0.006265 -170.8
8.54060000 0.006285 -170.1 0.999975 -80.37 0.999975 -80.37 0.006285 -170.8
8.54080000 0.006306 -170.1 0.999975 -80.38 0.999975 -80.38 0.006306 -170.8
8.54100000 0.006326 -170.1 0.999975 -80.38 0.999975 -80.38 0.006326 -170.8
8.54120000 0.006346 -170.1 0.999975 -80.38 0.999975 -80.38 0.006346 -170.8
8.54140000 0.006367 -170.1 0.999975 -80.39 0.999975 -80.39 0.006367 -170.8
8.54160000 0.006387 -170.1 0.999974 -80.39 0.999974 -80.39 0.006387 -170.8
8.54180000 0.006408 -170.1 0.999974 -80.39 0.999974 -80.39 0.006408 -170.8
8.54200000 0.006428 -170.1 0.999974 -80.40 0.999974 -80.40 0.006428 -170.8
8.54220000 0.006449 -170.1 0.999974 -80.40 0.999974 -80.40 0.006449 -170.8
8.54240000 0.006469 -170.1 0.999974 -80.40 0.999974 -80.40 0.006469 -170.8
8.54260000 0.006490 -170.1 0.999974 -80.41 0.999974 -80.41 0.006490 -170.8
8.54280000 0.006510 -170.1 0.999974 -80.41 0.999974 -80.41 0.006510 -170.8
8.54300000 0.006531 -170.1 0.999974 -80.41 0.999974 -80.41 0.006531 -170.8
8.54320000 0.006552 -170.1 0.999973 -80.41 0.999973 -80.41 0.006552 -170.8
8.54340000 0.006572 -170.1 0.999973 -80.42 0.999973 -80.42 0.006572 -170.8
8.54360000 0.006593 -170.1 0.999973 -80.42 0.999973 -80.42 0.006593 -170.8
8.54380000 0.006614 -170.1 0.999973 -80.42 0.999973 -80.42 0.006614 -170.8
8.54400000 0.006635 -170.1 0.999973 -80.43 0.999973 -80.43 0.006635 -170.8
8.54420000 0.006656 -170.1 0.999973 -80.43 0.999973 -80.43 0.006656 -170.8
8.54440000 0.006676 -170.1 0.999973 -80.43 0.999973 -80.43 0.006677 -170.8
8.54460000 0.006697 -170.1 0.999972 -80.44 0.999972 -80.44 0.006697 -170.8
8.54480000 0.006718 -170.1 0.999972 -80.44 0.999972 -80.44 0.006718 -170.8
8.54500000 0.006739 -170.1 0.999972 -80.44 0.999972 -80.44 0.006739 -170.8
8.54520000 0.006760 -170.1 0.999972 -80.44 0.999972 -80.44 0.006760 -170.8
8.54540000 0.006781 -170.1 0.999972 -80.45 0.999972 -80.45 0.006781 -170.8
8.54560000 0.006803 -170.1 0.999972 -80.45 0.999972 -80.45 0.006803 -170.8
8.54580000 0.006824 -170.2 0.999972 -80.45 0.999972 -80.45 0.006824 -170.8
8.54600000 0.006845 -170.2 0.999971 -80.46 0.999971 -80.46 0.006845 -170.8
8.54620000 0.006866 -170.2 0.999971 -80.46 0.999971 -80.46 0.006866 -170.8
8.54640000 0.006887 -170.2 0.999971 -80.46 0.999971 -80.46 0.006887 -170.8
8.54660000 0.006908 -170.2 0.999971 -80.47 0.999971 -80.47 0.006909 -170.8
8.54680000 0.006930 -170.2 0.999971 -80.47 0.999971 -80.47 0.006930 -170.8
8.54700000 0.006951 -170.2 0.999971 -80.47 0.999971 -80.47 0.006951 -170.8
8.54720000 0.006972 -170.2 0.999970 -80.48 0.999970 -80.48 0.006972 -170.8
8.54740000 0.006994 -170.2 0.999970 -80.48 0.999970 -80.48 0.006994 -170.9
8.54760000 0.007015 -170.2 0.999970 -80.48 0.999970 -80.48 0.007015 -170.9
8.54780000 0.007037 -170.2 0.999970 -80.49 0.999970 -80.49 0.007037 -170.9
8.54800000 0.007058 -170.2 0.999970 -80.49 0.999970 -80.49 0.007058 -170.9
8.54820000 0.007080 -170.2 0.999970 -80.49 0.999970 -80.49 0.007080 -170.9
8.54840000 0.007101 -170.2 0.999970 -80.49 0.999970 -80.49 0.007101 -170.9
8.54860000 0.007123 -170.2 0.999969 -80.50 0.999969 -80.50 0.007123 -170.9
8.54880000 0.007145 -170.2 0.999969 -80.50 0.999969 -80.50 0.007145 -170.9
8.54900000 0.007166 -170.2 0.999969 -80.50 0.999969 -80.50 0.007166 -170.9
8.54920000 0.007188 -170.2 0.999969 -80.51 0.999969 -80.51 0.007188 -170.9
8.54940000 0.007210 -170.2 0.999969 -80.51 0.999969 -80.51 0.007210 -170.9
8.54960000 0.007232 -170.2 0.999969 -80.51 0.999969 -80.51 0.007232 -170.9
8.54980000 0.007253 -170.2 0.999968 -80.52 0.999968 -80.52 0.007253 -170.9
8.55000000 0.007275 -170.2 0.999968 -80.52 0.999968 -80.52 0.007275 -170.9
8.55020000 0.007297 -170.2 0.999968 -80.52 0.999968 -80.52 0.007297 -170.9
8.55040000 0.007319 -170.2 0.999968 -80.53 0.999968 -80.53 0.007319 -170.9
8.55060000 0.007341 -170.2 0.999968 -80.53 0.999968 -80.53 0.007341 -170.9
8.55080000 0.007363 -170.2 0.999968 -80.53 0.999968 -80.53 0.007363 -170.9
8.55100000 0.007385 -170.2 0.999967 -80.54 0.999967 -80.54 0.007385 -170.9
8.55120000 0.007407 -170.2 0.999967 -80.54 0.999967 -80.54 0.007407 -170.9
8.55140000 0.007429 -170.2 0.999967 -80.54 0.999967 -80.54 0.007429 -170.9
8.55160000 0.007452 -170.2 0.999967 -80.54 0.999967 -80.54 0.007452 -170.9
8.55180000 0.007474 -170.2 0.999967 -80.55 0.999967 -80.55 0.007474 -170.9
8.55200000 0.007496 -170.2 0.999967 -80.55 0.999967 -80.55 0.007496 -170.9
8.55220000 0.007518 -170.3 0.999966 -80.55 0.999966 -80.55 0.007518 -170.9
8.55240000 0.007540 -170.3 0.999966 -80.56 0.999966 -80.56 0.007541 -170.9
8.55260000 0.007563 -170.3 0.999966 -80.56 0.999966 -80.56 0.007563 -170.9
8.55280000 0.007585 -170.3 0.999966 -80.56 0.999966 -80.56 0.007585 -170.9
8.55300000 0.007608 -170.3 0.999966 -80.57 0.999966 -80.57 0.007608 -170.9
8.55320000 0.007630 -170.3 0.999966 -80.57 0.999966 -80.57 0.007630 -170.9
8.55340000 0.007653 -170.3 0.999965 -80.57 0.999965 -80.57 0.007653 -170.9
8.55360000 0.007675 -170.3 0.999965 -80.58 0.999965 -80.58 0.007675 -170.9
8.55380000 0.007698 -170.3 0.999965 -80.58 0.999965 -80.58 0.007698 -170.9
8.55400000 0.007720 -170.3 0.999965 -80.58 0.999965 -80.58 0.007720 -171.0
8.55420000 0.007743 -170.3 0.999965 -80.59 0.999965 -80.59 0.007743 -171.0
8.55440000 0.007766 -170.3 0.999964 -80.59 0.999964 -80.59 0.007766 -171.0
8.55460000 0.007788 -170.3 0.999964 -80.59 0.999964 -80.59 0.007788 -171.0
8.55480000 0.007811 -170.3 0.999964 -80.60 0.999964 -80.60 0.007811 -171.0
8.55500000 0.007834 -170.3 0.999964 -80.60 0.999964 -80.60 0.007834 -171.0
8.55520000 0.007857 -170.3 0.999964 -80.60 0.999964 -80.60 0.007857 -171.0
8.55540000 0.007880 -170.3 0.999964 -80.60 0.999964 -80.60 0.007880 -171.0
8.55560000 0.007902 -170.3 0.999963 -80.61 0.999963 -80.61 0.007902 -171.0
8.55580000 0.007925 -170.3 0.999963 -80.61 0.999963 -80.61 0.007925 -171.0
8.55600000 0.007948 -170.3 0.999963 -80.61 0.999963 -80.61 0.007948 -171.0
8.55620000 0.007971 -170.3 0.999963 -80.62 0.999963 -80.62 0.007971 -171.0
8.55640000 0.007994 -170.3 0.999963 -80.62 0.999963 -80.62 0.007994 -171.0
8.55660000 0.008018 -170.3 0.999962 -80.62 0.999962 -80.62 0.008018 -171.0
8.55680000 0.008041 -170.3 0.999962 -80.63 0.999962 -80.63 0.008041 -171.0
8.55700000 0.008064 -170.3 0.999962 -80.63 0.999962 -80.63 0.008064 -171.0
8.55720000 0.008087 -170.3 0.999962 -80.63 0.999962 -80.63 0.008087 -171.0
8.55740000 0.008110 -170.3 0.999962 -80.64 0.999962 -80.64 0.008110 -171.0
8.55760000 0.008134 -170.3 0.999962 -80.64 0.999962 -80.64 0.008134 -171.0
8.55780000 0.008157 -170.3 0.999961 -80.64 0.999961 -80.64 0.008157 -171.0
8.55800000 0.008180 -170.3 0.999961 -80.65 0.999961 -80.65 0.008180 -171.0
8.55820000 0.008204 -170.3 0.999961 -80.65 0.999961 -80.65 0.008204 -171.0
8.55840000 0.008227 -170.4 0.999961 -80.65 0.999961 -80.65 0.008227 -171.0
8.55860000 0.008251 -170.4 0.999961 -80.66 0.999961 -80.66 0.008251 -171.0
8.55880000 0.008274 -170.4 0.999960 -80.66 0.999960 -80.66 0.008274 -171.0
8.55900000 0.008298 -170.4 0.999960 -80.66 0.999960 -80.66 0.008298 -171.0
8.55920000 0.008321 -170.4 0.999960 -80.67 0.999960 -80.67 0.008321 -171.0
8.55940000 0.008345 -170.4 0.999960 -80.67 0.999960 -80.67 0.008345 -171.0
8.55960000 0.008369 -170.4 0.999960 -80.67 0.999960 -80.67 0.008369 -171.0
8.55980000 0.008393 -170.4 0.999959 -80.68 0.999959 -80.68 0.008393 -171.0
8.56000000 0.008416 -170.4 0.999959 -80.68 0.999959 -80.68 0.008416 -171.0
8.56020000 0.008440 -170.4 0.999959 -80.68 0.999959 -80.68 0.008440 -171.0
8.56040000 0.008464 -170.4 0.999959 -80.69 0.999959 -80.69 0.008464 -171.0
8.56060000 0.008488 -170.4 0.999959 -80.69 0.999959 -80.69 0.008488 -171.1
8.56080000 0.008512 -170.4 0.999958 -80.69 0.999958 -80.69 0.008512 -171.1
8.56100000 0.008536 -170.4 0.999958 -80.70 0.999958 -80.70 0.008536 -171.1
8.56120000 0.008560 -170.4 0.999958 -80.70 0.999958 -80.70 0.008560 -171.1
8.56140000 0.008584 -170.4 0.999958 -80.70 0.999958 -80.70 0.008584 -171.1
8.56160000 0.008608 -170.4 0.999957 -80.70 0.999957 -80.70 0.008608 -171.1
8.56180000 0.008632 -170.4 0.999957 -80.71 0.999957 -80.71 0.008632 -171.1
8.56200000 0.008656 -170.4 0.999957 -80.71 0.999957 -80.71 0.008656 -171.1
8.56220000 0.008681 -170.4 0.999957 -80.71 0.999957 -80.71 0.008681 -171.1
8.56240000 0.008705 -170.4 0.999957 -80.72 0.999957 -80.72 0.008705 -171.1
8.56260000 0.008729 -170.4 0.999956 -80.72 0.999956 -80.72 0.008729 -171.1
8.56280000 0.008754 -170.4 0.999956 -80.72 0.999956 -80.72 0.008754 -171.1
8.56300000 0.008778 -170.4 0.999956 -80.73 0.999956 -80.73 0.008778 -171.1
8.56320000 0.008802 -170.4 0.999956 -80.73 0.999956 -80.73 0.008802 -171.1
8.56340000 0.008827 -170.4 0.999956 -80.73 0.999956 -80.73 0.008827 -171.1
8.56360000 0.008851 -170.4 0.999955 -80.74 0.999955 -80.74 0.008851 -171.1
8.56380000 0.008876 -170.4 0.999955 -80.74 0.999955 -80.74 0.008876 -171.1
8.56400000 0.008901 -170.4 0.999955 -80.74 0.999955 -80.74 0.008901 -171.1
8.56420000 0.008925 -170.4 0.999955 -80.75 0.999955 -80.75 0.008925 -171.1
8.56440000 0.008950 -170.5 0.999954 -80.75 0.999954 -80.75 0.008950 -171.1
8.56460000 0.008975 -170.5 0.999954 -80.75 0.999954 -80.75 0.008975 -171.1
8.56480000 0.008999 -170.5 0.999954 -80.76 0.999954 -80.76 0.009000 -171.1
8.56500000 0.009024 -170.5 0.999954 -80.76 0.999954 -80.76 0.009024 -171.1
8.56520000 0.009049 -170.5 0.999953 -80.76 0.999953 -80.76 0.009049 -171.1
8.56540000 0.009074 -170.5 0.999953 -80.77 0.999953 -80.77 0.009074 -171.1
8.56560000 0.009099 -170.5 0.999953 -80.77 0.999953 -80.77 0.009099 -171.1
8.56580000 0.009124 -170.5 0.999953 -80.77 0.999953 -80.77 0.009124 -171.1
8.56600000 0.009149 -170.5 0.999953 -80.78 0.999953 -80.78 0.009149 -171.1
8.56620000 0.009174 -170.5 0.999952 -80.78 0.999952 -80.78 0.009174 -171.1
8.56640000 0.009199 -170.5 0.999952 -80.78 0.999952 -80.78 0.009199 -171.1
8.56660000 0.009225 -170.5 0.999952 -80.79 0.999952 -80.79 0.009225 -171.1
8.56680000 0.009250 -170.5 0.999952 -80.79 0.999952 -80.79 0.009250 -171.1
8.56700000 0.009275 -170.5 0.999951 -80.79 0.999951 -80.79 0.009275 -171.2
8.56720000 0.009300 -170.5 0.999951 -80.80 0.999951 -80.80 0.009300 -171.2
8.56740000 0.009326 -170.5 0.999951 -80.80 0.999951 -80.80 0.009326 -171.2
8.56760000 0.009351 -170.5 0.999951 -80.80 0.999951 -80.80 0.009351 -171.2
8.56780000 0.009377 -170.5 0.999950 -80.81 0.999950 -80.81 0.009377 -171.2
8.56800000 0.009402 -170.5 0.999950 -80.81 0.999950 -80.81 0.009402 -171.2
8.56820000 0.009428 -170.5 0.999950 -80.81 0.999950 -80.81 0.009428 -171.2
8.56840000 0.009453 -170.5 0.999950 -80.82 0.999950 -80.82 0.009453 -171.2
8.56860000 0.009479 -170.5 0.999949 -80.82 0.999949 -80.82 0.009479 -171.2
8.56880000 0.009504 -170.5 0.999949 -80.82 0.999949 -80.82 0.009505 -171.2
8.56900000 0.009530 -170.5 0.999949 -80.83 0.999949 -80.83 0.009530 -171.2
8.56920000 0.009556 -170.5 0.999949 -80.83 0.999949 -80.83 0.009556 -171.2
8.56940000 0.009582 -170.5 0.999948 -80.83 0.999948 -80.83 0.009582 -171.2
8.56960000 0.009608 -170.5 0.999948 -80.84 0.999948 -80.84 0.009608 -171.2
8.56980000 0.009634 -170.5 0.999948 -80.84 0.999948 -80.84 0.009634 -171.2
8.57000000 0.009660 -170.5 0.999948 -80.84 0.999948 -80.84 0.009660 -171.2
8.57020000 0.009686 -170.5 0.999947 -80.85 0.999947 -80.85 0.009686 -171.2
8.57040000 0.009712 -170.6 0.999947 -80.85 0.999947 -80.85 0.009712 -171.2
8.57060000 0.009738 -170.6 0.999947 -80.85 0.999947 -80.85 0.009738 -171.2
8.57080000 0.009764 -170.6 0.999947 -80.86 0.999947 -80.86 0.009764 -171.2
8.57100000 0.009790 -170.6 0.999946 -80.86 0.999946 -80.86 0.009790 -171.2
8.57120000 0.009816 -170.6 0.999946 -80.86 0.999946 -80.86 0.009816 -171.2
8.57140000 0.009842 -170.6 0.999946 -80.87 0.999946 -80.87 0.009843 -171.2
8.57160000 0.009869 -170.6 0.999946 -80.87 0.999946 -80.87 0.009869 -171.2
8.57180000 0.009895 -170.6 0.999945 -80.87 0.999945 -80.87 0.009895 -171.2
8.57200000 0.009922 -170.6 0.999945 -80.88 0.999945 -80.88 0.009922 -171.2
8.57220000 0.009948 -170.6 0.999945 -80.88 0.999945 -80.88 0.009948 -171.2
8.57240000 0.009975 -170.6 0.999945 -80.88 0.999945 -80.88 0.009975 -171.2
8.57260000 0.010001 -170.6 0.999944 -80.89 0.999944 -80.89 0.010001 -171.2
8.57280000 0.010028 -170.6 0.999944 -80.89 0.999944 -80.89 0.010028 -171.2
8.57300000 0.010054 -170.6 0.999944 -80.89 0.999944 -80.89 0.010054 -171.2
8.57320000 0.010081 -170.6 0.999943 -80.90 0.999943 -80.90 0.010081 -171.3
8.57340000 0.010108 -170.6 0.999943 -80.90 0.999943 -80.90 0.010108 -171.3
8.57360000 0.010135 -170.6 0.999943 -80.90 0.999943 -80.90 0.010135 -171.3
8.57380000 0.010162 -170.6 0.999943 -80.91 0.999943 -80.91 0.010162 -171.3
8.57400000 0.010188 -170.6 0.999942 -80.91 0.999942 -80.91 0.010188 -171.3
8.57420000 0.010215 -170.6 0.999942 -80.92 0.999942 -80.92 0.010215 -171.3
8.57440000 0.010242 -170.6 0.999942 -80.92 0.999942 -80.92 0.010242 -171.3
8.57460000 0.010269 -170.6 0.999941 -80.92 0.999941 -80.92 0.010270 -171.3
8.57480000 0.010297 -170.6 0.999941 -80.93 0.999941 -80.93 0.010297 -171.3
8.57500000 0.010324 -170.6 0.999941 -80.93 0.999941 -80.93 0.010324 -171.3
8.57520000 0.010351 -170.6 0.999941 -80.93 0.999941 -80.93 0.010351 -171.3
8.57540000 0.010378 -170.6 0.999940 -80.94 0.999940 -80.94 0.010378 -171.3
8.57560000 0.010405 -170.6 0.999940 -80.94 0.999940 -80.94 0.010405 -171.3
8.57580000 0.010433 -170.6 0.999940 -80.94 0.999940 -80.94 0.010433 -171.3
8.57600000 0.010460 -170.6 0.999939 -80.95 0.999939 -80.95 0.010460 -171.3
8.57620000 0.010488 -170.7 0.999939 -80.95 0.999939 -80.95 0.010488 -171.3
8.57640000 0.010515 -170.7 0.999939 -80.95 0.999939 -80.95 0.010515 -171.3
8.57660000 0.010543 -170.7 0.999939 -80.96 0.999939 -80.96 0.010543 -171.3
8.57680000 0.010570 -170.7 0.999938 -80.96 0.999938 -80.96 0.010570 -171.3
8.57700000 0.010598 -170.7 0.999938 -80.96 0.999938 -80.96 0.010598 -171.3
8.57720000 0.010626 -170.7 0.999938 -80.97 0.999938 -80.97 0.010626 -171.3
8.57740000 0.010653 -170.7 0.999937 -80.97 0.999937 -80.97 0.010653 -171.3
8.57760000 0.010681 -170.7 0.999937 -80.97 0.999937 -80.97 0.010681 -171.3
8.57780000 0.010709 -170.7 0.999937 -80.98 0.999937 -80.98 0.010709 -171.3
8.57800000 0.010737 -170.7 0.999936 -80.98 0.999936 -80.98 0.010737 -171.3
8.57820000 0.010765 -170.7 0.999936 -80.98 0.999936 -80.98 0.010765 -171.3
8.57840000 0.010793 -170.7 0.999936 -80.99 0.999936 -80.99 0.010793 -171.3