! Sonnet Data File
! From: emgraph Version : 16.52
! From Project: transmon_brgOdd
! Data is De-embedded 
! Data File Written: 11/12/2017 17:05:32
!< HDATE 11/11/2017 22:57:51
!< MDATE 11/11/2017 22:57:51
!< PARAMS
!< Lj = 15.24
!< Gap = 6.0
!< Width = 10.0
!< Airgap = 6.0
!< Pwidth = 2000.0
!< Dist = 1000.0
!< END PARAMS
# GHZ S MA R 34.67000
8.78000000 0.990714 115.52 0.135936 25.514 0.135936 25.514 0.990714 115.51
!< P1 F=8.78 Eeff=(5.13743391 -5.7017e-5) Z0=(34.6430374 -9.7216e-5) R=0.0 C=0.0 
!< P2 F=8.78 Eeff=(5.13743391 -5.7017e-5) Z0=(34.6430374 -9.7216e-5) R=0.0 C=0.0 
8.78001000 0.990713 115.52 0.135937 25.514 0.135937 25.514 0.990713 115.51
8.78002000 0.990713 115.52 0.135937 25.514 0.135937 25.514 0.990713 115.51
8.78003000 0.990713 115.52 0.135938 25.514 0.135938 25.514 0.990713 115.51
8.78004000 0.990713 115.52 0.135938 25.514 0.135938 25.514 0.990713 115.51
8.78005000 0.990713 115.52 0.135939 25.514 0.135939 25.514 0.990713 115.51
8.78006000 0.990713 115.52 0.135939 25.514 0.135939 25.514 0.990713 115.51
8.78007000 0.990713 115.52 0.135940 25.514 0.135940 25.514 0.990713 115.51
8.78008000 0.990713 115.52 0.135940 25.514 0.135940 25.514 0.990713 115.51
8.78009000 0.990713 115.52 0.135941 25.513 0.135941 25.513 0.990713 115.51
8.78010000 0.990713 115.52 0.135941 25.513 0.135941 25.513 0.990713 115.51
8.78011000 0.990713 115.52 0.135942 25.513 0.135942 25.513 0.990713 115.51
8.78012000 0.990713 115.52 0.135942 25.513 0.135942 25.513 0.990713 115.51
8.78013000 0.990713 115.52 0.135943 25.513 0.135943 25.513 0.990713 115.51
8.78014000 0.990713 115.52 0.135943 25.513 0.135943 25.513 0.990713 115.51
8.78015000 0.990712 115.52 0.135944 25.513 0.135944 25.513 0.990712 115.51
8.78016000 0.990712 115.52 0.135944 25.513 0.135944 25.513 0.990712 115.51
8.78017000 0.990712 115.52 0.135945 25.513 0.135945 25.513 0.990712 115.51
8.78018000 0.990712 115.52 0.135946 25.513 0.135946 25.513 0.990712 115.51
8.78019000 0.990712 115.52 0.135946 25.513 0.135946 25.513 0.990712 115.51
8.78020000 0.990712 115.52 0.135947 25.512 0.135947 25.512 0.990712 115.51
8.78021000 0.990712 115.52 0.135947 25.512 0.135947 25.512 0.990712 115.51
8.78022000 0.990712 115.52 0.135948 25.512 0.135948 25.512 0.990712 115.50
8.78023000 0.990712 115.52 0.135948 25.512 0.135948 25.512 0.990712 115.50
8.78024000 0.990712 115.52 0.135949 25.512 0.135949 25.512 0.990712 115.50
8.78025000 0.990712 115.52 0.135949 25.512 0.135949 25.512 0.990712 115.50
8.78026000 0.990712 115.52 0.135950 25.512 0.135950 25.512 0.990712 115.50
8.78027000 0.990712 115.52 0.135950 25.512 0.135950 25.512 0.990712 115.50
8.78028000 0.990711 115.52 0.135951 25.512 0.135951 25.512 0.990711 115.50
8.78029000 0.990711 115.52 0.135951 25.512 0.135951 25.512 0.990711 115.50
8.78030000 0.990711 115.52 0.135952 25.511 0.135952 25.511 0.990711 115.50
8.78031000 0.990711 115.52 0.135952 25.511 0.135952 25.511 0.990711 115.50
8.78032000 0.990711 115.52 0.135953 25.511 0.135953 25.511 0.990711 115.50
8.78033000 0.990711 115.52 0.135954 25.511 0.135954 25.511 0.990711 115.50
8.78034000 0.990711 115.52 0.135954 25.511 0.135954 25.511 0.990711 115.50
8.78035000 0.990711 115.52 0.135955 25.511 0.135955 25.511 0.990711 115.50
8.78036000 0.990711 115.52 0.135955 25.511 0.135955 25.511 0.990711 115.50
8.78037000 0.990711 115.52 0.135956 25.511 0.135956 25.511 0.990711 115.50
8.78038000 0.990711 115.52 0.135956 25.511 0.135956 25.511 0.990711 115.50
8.78039000 0.990711 115.52 0.135957 25.511 0.135957 25.511 0.990711 115.50
8.78040000 0.990711 115.52 0.135957 25.511 0.135957 25.511 0.990711 115.50
8.78041000 0.990711 115.52 0.135958 25.510 0.135958 25.510 0.990711 115.50
8.78042000 0.990710 115.52 0.135958 25.510 0.135958 25.510 0.990710 115.50
8.78043000 0.990710 115.52 0.135959 25.510 0.135959 25.510 0.990710 115.50
8.78044000 0.990710 115.52 0.135959 25.510 0.135959 25.510 0.990710 115.50
8.78045000 0.990710 115.52 0.135960 25.510 0.135960 25.510 0.990710 115.50
8.78046000 0.990710 115.52 0.135961 25.510 0.135961 25.510 0.990710 115.50
8.78047000 0.990710 115.52 0.135961 25.510 0.135961 25.510 0.990710 115.50
8.78048000 0.990710 115.52 0.135962 25.510 0.135962 25.510 0.990710 115.50
8.78049000 0.990710 115.52 0.135962 25.510 0.135962 25.510 0.990710 115.50
8.78050000 0.990710 115.52 0.135963 25.510 0.135963 25.510 0.990710 115.50
8.78051000 0.990710 115.51 0.135963 25.509 0.135963 25.509 0.990710 115.50
8.78052000 0.990710 115.51 0.135964 25.509 0.135964 25.509 0.990710 115.50
8.78053000 0.990710 115.51 0.135964 25.509 0.135964 25.509 0.990710 115.50
8.78054000 0.990710 115.51 0.135965 25.509 0.135965 25.509 0.990710 115.50
8.78055000 0.990709 115.51 0.135965 25.509 0.135965 25.509 0.990709 115.50
8.78056000 0.990709 115.51 0.135966 25.509 0.135966 25.509 0.990709 115.50
8.78057000 0.990709 115.51 0.135967 25.509 0.135967 25.509 0.990709 115.50
8.78058000 0.990709 115.51 0.135967 25.509 0.135967 25.509 0.990709 115.50
8.78059000 0.990709 115.51 0.135968 25.509 0.135968 25.509 0.990709 115.50
8.78060000 0.990709 115.51 0.135968 25.509 0.135968 25.509 0.990709 115.50
8.78061000 0.990709 115.51 0.135969 25.509 0.135969 25.509 0.990709 115.50
8.78062000 0.990709 115.51 0.135969 25.508 0.135969 25.508 0.990709 115.50
8.78063000 0.990709 115.51 0.135970 25.508 0.135970 25.508 0.990709 115.50
8.78064000 0.990709 115.51 0.135970 25.508 0.135970 25.508 0.990709 115.50
8.78065000 0.990709 115.51 0.135971 25.508 0.135971 25.508 0.990709 115.50
8.78066000 0.990709 115.51 0.135971 25.508 0.135971 25.508 0.990709 115.50
8.78067000 0.990709 115.51 0.135972 25.508 0.135972 25.508 0.990709 115.50
8.78068000 0.990708 115.51 0.135973 25.508 0.135973 25.508 0.990708 115.50
8.78069000 0.990708 115.51 0.135973 25.508 0.135973 25.508 0.990708 115.50
8.78070000 0.990708 115.51 0.135974 25.508 0.135974 25.508 0.990708 115.50
8.78071000 0.990708 115.51 0.135974 25.508 0.135974 25.508 0.990708 115.50
8.78072000 0.990708 115.51 0.135975 25.507 0.135975 25.507 0.990708 115.50
8.78073000 0.990708 115.51 0.135975 25.507 0.135975 25.507 0.990708 115.50
8.78074000 0.990708 115.51 0.135976 25.507 0.135976 25.507 0.990708 115.50
8.78075000 0.990708 115.51 0.135976 25.507 0.135976 25.507 0.990708 115.50
8.78076000 0.990708 115.51 0.135977 25.507 0.135977 25.507 0.990708 115.50
8.78077000 0.990708 115.51 0.135978 25.507 0.135978 25.507 0.990708 115.50
8.78078000 0.990708 115.51 0.135978 25.507 0.135978 25.507 0.990708 115.50
8.78079000 0.990708 115.51 0.135979 25.507 0.135979 25.507 0.990708 115.50
8.78080000 0.990708 115.51 0.135979 25.507 0.135979 25.507 0.990708 115.50
8.78081000 0.990707 115.51 0.135980 25.507 0.135980 25.507 0.990707 115.50
8.78082000 0.990707 115.51 0.135980 25.506 0.135980 25.506 0.990707 115.50
8.78083000 0.990707 115.51 0.135981 25.506 0.135981 25.506 0.990707 115.50
8.78084000 0.990707 115.51 0.135981 25.506 0.135981 25.506 0.990707 115.50
8.78085000 0.990707 115.51 0.135982 25.506 0.135982 25.506 0.990707 115.50
8.78086000 0.990707 115.51 0.135983 25.506 0.135983 25.506 0.990707 115.50
8.78087000 0.990707 115.51 0.135983 25.506 0.135983 25.506 0.990707 115.50
8.78088000 0.990707 115.51 0.135984 25.506 0.135984 25.506 0.990707 115.50
8.78089000 0.990707 115.51 0.135984 25.506 0.135984 25.506 0.990707 115.50
8.78090000 0.990707 115.51 0.135985 25.506 0.135985 25.506 0.990707 115.50
8.78091000 0.990707 115.51 0.135985 25.506 0.135985 25.506 0.990707 115.50
8.78092000 0.990707 115.51 0.135986 25.506 0.135986 25.506 0.990707 115.50
8.78093000 0.990707 115.51 0.135986 25.505 0.135986 25.505 0.990707 115.50
8.78094000 0.990706 115.51 0.135987 25.505 0.135987 25.505 0.990706 115.50
8.78095000 0.990706 115.51 0.135988 25.505 0.135988 25.505 0.990706 115.50
8.78096000 0.990706 115.51 0.135988 25.505 0.135988 25.505 0.990706 115.50
8.78097000 0.990706 115.51 0.135989 25.505 0.135989 25.505 0.990706 115.50
8.78098000 0.990706 115.51 0.135989 25.505 0.135989 25.505 0.990706 115.50
8.78099000 0.990706 115.51 0.135990 25.505 0.135990 25.505 0.990706 115.50
8.78100000 0.990706 115.51 0.135990 25.505 0.135990 25.505 0.990706 115.50
8.78101000 0.990706 115.51 0.135991 25.505 0.135991 25.505 0.990706 115.50
8.78102000 0.990706 115.51 0.135992 25.505 0.135992 25.505 0.990706 115.50
8.78103000 0.990706 115.51 0.135992 25.504 0.135992 25.504 0.990706 115.50
8.78104000 0.990706 115.51 0.135993 25.504 0.135993 25.504 0.990706 115.50
8.78105000 0.990706 115.51 0.135993 25.504 0.135993 25.504 0.990706 115.50
8.78106000 0.990706 115.51 0.135994 25.504 0.135994 25.504 0.990706 115.50
8.78107000 0.990705 115.51 0.135994 25.504 0.135994 25.504 0.990705 115.50
8.78108000 0.990705 115.51 0.135995 25.504 0.135995 25.504 0.990705 115.50
8.78109000 0.990705 115.51 0.135995 25.504 0.135995 25.504 0.990705 115.50
8.78110000 0.990705 115.51 0.135996 25.504 0.135996 25.504 0.990705 115.50
8.78111000 0.990705 115.51 0.135997 25.504 0.135997 25.504 0.990705 115.50
8.78112000 0.990705 115.51 0.135997 25.504 0.135997 25.504 0.990705 115.50
8.78113000 0.990705 115.51 0.135998 25.503 0.135998 25.503 0.990705 115.50
8.78114000 0.990705 115.51 0.135998 25.503 0.135998 25.503 0.990705 115.50
8.78115000 0.990705 115.51 0.135999 25.503 0.135999 25.503 0.990705 115.50
8.78116000 0.990705 115.51 0.135999 25.503 0.135999 25.503 0.990705 115.50
8.78117000 0.990705 115.51 0.136000 25.503 0.136000 25.503 0.990705 115.50
8.78118000 0.990705 115.51 0.136001 25.503 0.136001 25.503 0.990705 115.50
8.78119000 0.990705 115.51 0.136001 25.503 0.136001 25.503 0.990705 115.50
8.78120000 0.990704 115.51 0.136002 25.503 0.136002 25.503 0.990704 115.50
8.78121000 0.990704 115.51 0.136002 25.503 0.136002 25.503 0.990704 115.50
8.78122000 0.990704 115.51 0.136003 25.503 0.136003 25.503 0.990704 115.50
8.78123000 0.990704 115.51 0.136003 25.503 0.136003 25.503 0.990704 115.50
8.78124000 0.990704 115.51 0.136004 25.502 0.136004 25.502 0.990704 115.50
8.78125000 0.990704 115.51 0.136005 25.502 0.136005 25.502 0.990704 115.50
8.78126000 0.990704 115.51 0.136005 25.502 0.136005 25.502 0.990704 115.49
8.78127000 0.990704 115.51 0.136006 25.502 0.136006 25.502 0.990704 115.49
8.78128000 0.990704 115.51 0.136006 25.502 0.136006 25.502 0.990704 115.49
8.78129000 0.990704 115.51 0.136007 25.502 0.136007 25.502 0.990704 115.49
8.78130000 0.990704 115.51 0.136007 25.502 0.136007 25.502 0.990704 115.49
8.78131000 0.990704 115.51 0.136008 25.502 0.136008 25.502 0.990704 115.49
8.78132000 0.990703 115.51 0.136009 25.502 0.136009 25.502 0.990703 115.49
8.78133000 0.990703 115.51 0.136009 25.502 0.136009 25.502 0.990703 115.49
8.78134000 0.990703 115.51 0.136010 25.501 0.136010 25.501 0.990703 115.49
8.78135000 0.990703 115.51 0.136010 25.501 0.136010 25.501 0.990703 115.49
8.78136000 0.990703 115.51 0.136011 25.501 0.136011 25.501 0.990703 115.49
8.78137000 0.990703 115.51 0.136012 25.501 0.136012 25.501 0.990703 115.49
8.78138000 0.990703 115.51 0.136012 25.501 0.136012 25.501 0.990703 115.49
8.78139000 0.990703 115.51 0.136013 25.501 0.136013 25.501 0.990703 115.49
8.78140000 0.990703 115.51 0.136013 25.501 0.136013 25.501 0.990703 115.49
8.78141000 0.990703 115.51 0.136014 25.501 0.136014 25.501 0.990703 115.49
8.78142000 0.990703 115.51 0.136014 25.501 0.136014 25.501 0.990703 115.49
8.78143000 0.990703 115.51 0.136015 25.501 0.136015 25.501 0.990703 115.49
8.78144000 0.990703 115.51 0.136016 25.500 0.136016 25.500 0.990703 115.49
8.78145000 0.990702 115.51 0.136016 25.500 0.136016 25.500 0.990702 115.49
8.78146000 0.990702 115.51 0.136017 25.500 0.136017 25.500 0.990702 115.49
8.78147000 0.990702 115.51 0.136017 25.500 0.136017 25.500 0.990702 115.49
8.78148000 0.990702 115.51 0.136018 25.500 0.136018 25.500 0.990702 115.49
8.78149000 0.990702 115.51 0.136018 25.500 0.136018 25.500 0.990702 115.49
8.78150000 0.990702 115.51 0.136019 25.500 0.136019 25.500 0.990702 115.49
8.78151000 0.990702 115.51 0.136020 25.500 0.136020 25.500 0.990702 115.49
8.78152000 0.990702 115.51 0.136020 25.500 0.136020 25.500 0.990702 115.49
8.78153000 0.990702 115.51 0.136021 25.500 0.136021 25.500 0.990702 115.49
8.78154000 0.990702 115.50 0.136021 25.499 0.136021 25.499 0.990702 115.49
8.78155000 0.990702 115.50 0.136022 25.499 0.136022 25.499 0.990702 115.49
8.78156000 0.990702 115.50 0.136023 25.499 0.136023 25.499 0.990702 115.49
8.78157000 0.990701 115.50 0.136023 25.499 0.136023 25.499 0.990701 115.49
8.78158000 0.990701 115.50 0.136024 25.499 0.136024 25.499 0.990701 115.49
8.78159000 0.990701 115.50 0.136024 25.499 0.136024 25.499 0.990701 115.49
8.78160000 0.990701 115.50 0.136025 25.499 0.136025 25.499 0.990701 115.49
8.78161000 0.990701 115.50 0.136026 25.499 0.136026 25.499 0.990701 115.49
8.78162000 0.990701 115.50 0.136026 25.499 0.136026 25.499 0.990701 115.49
8.78163000 0.990701 115.50 0.136027 25.499 0.136027 25.499 0.990701 115.49
8.78164000 0.990701 115.50 0.136027 25.498 0.136027 25.498 0.990701 115.49
8.78165000 0.990701 115.50 0.136028 25.498 0.136028 25.498 0.990701 115.49
8.78166000 0.990701 115.50 0.136028 25.498 0.136028 25.498 0.990701 115.49
8.78167000 0.990701 115.50 0.136029 25.498 0.136029 25.498 0.990701 115.49
8.78168000 0.990701 115.50 0.136030 25.498 0.136030 25.498 0.990701 115.49
8.78169000 0.990700 115.50 0.136030 25.498 0.136030 25.498 0.990700 115.49
8.78170000 0.990700 115.50 0.136031 25.498 0.136031 25.498 0.990700 115.49
8.78171000 0.990700 115.50 0.136031 25.498 0.136031 25.498 0.990700 115.49
8.78172000 0.990700 115.50 0.136032 25.498 0.136032 25.498 0.990700 115.49
8.78173000 0.990700 115.50 0.136033 25.498 0.136033 25.498 0.990700 115.49
8.78174000 0.990700 115.50 0.136033 25.497 0.136033 25.497 0.990700 115.49
8.78175000 0.990700 115.50 0.136034 25.497 0.136034 25.497 0.990700 115.49
8.78176000 0.990700 115.50 0.136034 25.497 0.136034 25.497 0.990700 115.49
8.78177000 0.990700 115.50 0.136035 25.497 0.136035 25.497 0.990700 115.49
8.78178000 0.990700 115.50 0.136036 25.497 0.136036 25.497 0.990700 115.49
8.78179000 0.990700 115.50 0.136036 25.497 0.136036 25.497 0.990700 115.49
8.78180000 0.990700 115.50 0.136037 25.497 0.136037 25.497 0.990700 115.49
8.78181000 0.990700 115.50 0.136037 25.497 0.136037 25.497 0.990700 115.49
8.78182000 0.990699 115.50 0.136038 25.497 0.136038 25.497 0.990699 115.49
8.78183000 0.990699 115.50 0.136039 25.497 0.136039 25.497 0.990699 115.49
8.78184000 0.990699 115.50 0.136039 25.496 0.136039 25.496 0.990699 115.49
8.78185000 0.990699 115.50 0.136040 25.496 0.136040 25.496 0.990699 115.49
8.78186000 0.990699 115.50 0.136040 25.496 0.136040 25.496 0.990699 115.49
8.78187000 0.990699 115.50 0.136041 25.496 0.136041 25.496 0.990699 115.49
8.78188000 0.990699 115.50 0.136042 25.496 0.136042 25.496 0.990699 115.49
8.78189000 0.990699 115.50 0.136042 25.496 0.136042 25.496 0.990699 115.49
8.78190000 0.990699 115.50 0.136043 25.496 0.136043 25.496 0.990699 115.49
8.78191000 0.990699 115.50 0.136043 25.496 0.136043 25.496 0.990699 115.49
8.78192000 0.990699 115.50 0.136044 25.496 0.136044 25.496 0.990699 115.49
8.78193000 0.990699 115.50 0.136045 25.496 0.136045 25.496 0.990699 115.49
8.78194000 0.990698 115.50 0.136045 25.496 0.136045 25.496 0.990698 115.49
8.78195000 0.990698 115.50 0.136046 25.495 0.136046 25.495 0.990698 115.49
8.78196000 0.990698 115.50 0.136046 25.495 0.136046 25.495 0.990698 115.49
8.78197000 0.990698 115.50 0.136047 25.495 0.136047 25.495 0.990698 115.49
8.78198000 0.990698 115.50 0.136048 25.495 0.136048 25.495 0.990698 115.49
8.78199000 0.990698 115.50 0.136048 25.495 0.136048 25.495 0.990698 115.49
8.78200000 0.990698 115.50 0.136049 25.495 0.136049 25.495 0.990698 115.49
8.78201000 0.990698 115.50 0.136049 25.495 0.136049 25.495 0.990698 115.49
8.78202000 0.990698 115.50 0.136050 25.495 0.136050 25.495 0.990698 115.49
8.78203000 0.990698 115.50 0.136051 25.495 0.136051 25.495 0.990698 115.49
8.78204000 0.990698 115.50 0.136051 25.495 0.136051 25.495 0.990698 115.49
8.78205000 0.990697 115.50 0.136052 25.494 0.136052 25.494 0.990698 115.49
8.78206000 0.990697 115.50 0.136052 25.494 0.136052 25.494 0.990697 115.49
8.78207000 0.990697 115.50 0.136053 25.494 0.136053 25.494 0.990697 115.49
8.78208000 0.990697 115.50 0.136054 25.494 0.136054 25.494 0.990697 115.49
8.78209000 0.990697 115.50 0.136054 25.494 0.136054 25.494 0.990697 115.49
8.78210000 0.990697 115.50 0.136055 25.494 0.136055 25.494 0.990697 115.49
8.78211000 0.990697 115.50 0.136056 25.494 0.136056 25.494 0.990697 115.49
8.78212000 0.990697 115.50 0.136056 25.494 0.136056 25.494 0.990697 115.49
8.78213000 0.990697 115.50 0.136057 25.494 0.136057 25.494 0.990697 115.49
8.78214000 0.990697 115.50 0.136057 25.494 0.136057 25.494 0.990697 115.49
8.78215000 0.990697 115.50 0.136058 25.493 0.136058 25.493 0.990697 115.49
8.78216000 0.990697 115.50 0.136059 25.493 0.136059 25.493 0.990697 115.49
8.78217000 0.990696 115.50 0.136059 25.493 0.136059 25.493 0.990696 115.49
8.78218000 0.990696 115.50 0.136060 25.493 0.136060 25.493 0.990696 115.49
8.78219000 0.990696 115.50 0.136060 25.493 0.136060 25.493 0.990696 115.49
8.78220000 0.990696 115.50 0.136061 25.493 0.136061 25.493 0.990696 115.49
8.78221000 0.990696 115.50 0.136062 25.493 0.136062 25.493 0.990696 115.49
8.78222000 0.990696 115.50 0.136062 25.493 0.136062 25.493 0.990696 115.49
8.78223000 0.990696 115.50 0.136063 25.493 0.136063 25.493 0.990696 115.49
8.78224000 0.990696 115.50 0.136064 25.493 0.136064 25.493 0.990696 115.49
8.78225000 0.990696 115.50 0.136064 25.492 0.136064 25.492 0.990696 115.49
8.78226000 0.990696 115.50 0.136065 25.492 0.136065 25.492 0.990696 115.49
8.78227000 0.990696 115.50 0.136065 25.492 0.136065 25.492 0.990696 115.48
8.78228000 0.990696 115.50 0.136066 25.492 0.136066 25.492 0.990696 115.48
8.78229000 0.990695 115.50 0.136067 25.492 0.136067 25.492 0.990695 115.48
8.78230000 0.990695 115.50 0.136067 25.492 0.136067 25.492 0.990695 115.48
8.78231000 0.990695 115.50 0.136068 25.492 0.136068 25.492 0.990695 115.48
8.78232000 0.990695 115.50 0.136068 25.492 0.136068 25.492 0.990695 115.48
8.78233000 0.990695 115.50 0.136069 25.492 0.136069 25.492 0.990695 115.48
8.78234000 0.990695 115.50 0.136070 25.492 0.136070 25.492 0.990695 115.48
8.78235000 0.990695 115.50 0.136070 25.491 0.136070 25.491 0.990695 115.48
8.78236000 0.990695 115.50 0.136071 25.491 0.136071 25.491 0.990695 115.48
8.78237000 0.990695 115.50 0.136072 25.491 0.136072 25.491 0.990695 115.48
8.78238000 0.990695 115.50 0.136072 25.491 0.136072 25.491 0.990695 115.48
8.78239000 0.990695 115.50 0.136073 25.491 0.136073 25.491 0.990695 115.48
8.78240000 0.990694 115.50 0.136073 25.491 0.136073 25.491 0.990695 115.48
8.78241000 0.990694 115.50 0.136074 25.491 0.136074 25.491 0.990694 115.48
8.78242000 0.990694 115.50 0.136075 25.491 0.136075 25.491 0.990694 115.48
8.78243000 0.990694 115.50 0.136075 25.491 0.136075 25.491 0.990694 115.48
8.78244000 0.990694 115.50 0.136076 25.490 0.136076 25.490 0.990694 115.48
8.78245000 0.990694 115.50 0.136077 25.490 0.136077 25.490 0.990694 115.48
8.78246000 0.990694 115.50 0.136077 25.490 0.136077 25.490 0.990694 115.48
8.78247000 0.990694 115.50 0.136078 25.490 0.136078 25.490 0.990694 115.48
8.78248000 0.990694 115.50 0.136079 25.490 0.136079 25.490 0.990694 115.48
8.78249000 0.990694 115.50 0.136079 25.490 0.136079 25.490 0.990694 115.48
8.78250000 0.990694 115.50 0.136080 25.490 0.136080 25.490 0.990694 115.48
8.78251000 0.990694 115.50 0.136080 25.490 0.136080 25.490 0.990694 115.48
8.78252000 0.990693 115.50 0.136081 25.490 0.136081 25.490 0.990693 115.48
8.78253000 0.990693 115.50 0.136082 25.490 0.136082 25.490 0.990693 115.48
8.78254000 0.990693 115.49 0.136082 25.489 0.136082 25.489 0.990693 115.48
8.78255000 0.990693 115.49 0.136083 25.489 0.136083 25.489 0.990693 115.48
8.78256000 0.990693 115.49 0.136084 25.489 0.136084 25.489 0.990693 115.48
8.78257000 0.990693 115.49 0.136084 25.489 0.136084 25.489 0.990693 115.48
8.78258000 0.990693 115.49 0.136085 25.489 0.136085 25.489 0.990693 115.48
8.78259000 0.990693 115.49 0.136085 25.489 0.136085 25.489 0.990693 115.48
8.78260000 0.990693 115.49 0.136086 25.489 0.136086 25.489 0.990693 115.48
8.78261000 0.990693 115.49 0.136087 25.489 0.136087 25.489 0.990693 115.48
8.78262000 0.990693 115.49 0.136087 25.489 0.136087 25.489 0.990693 115.48
8.78263000 0.990692 115.49 0.136088 25.489 0.136088 25.489 0.990692 115.48
8.78264000 0.990692 115.49 0.136089 25.488 0.136089 25.488 0.990692 115.48
8.78265000 0.990692 115.49 0.136089 25.488 0.136089 25.488 0.990692 115.48
8.78266000 0.990692 115.49 0.136090 25.488 0.136090 25.488 0.990692 115.48
8.78267000 0.990692 115.49 0.136091 25.488 0.136091 25.488 0.990692 115.48
8.78268000 0.990692 115.49 0.136091 25.488 0.136091 25.488 0.990692 115.48
8.78269000 0.990692 115.49 0.136092 25.488 0.136092 25.488 0.990692 115.48
8.78270000 0.990692 115.49 0.136092 25.488 0.136092 25.488 0.990692 115.48
8.78271000 0.990692 115.49 0.136093 25.488 0.136093 25.488 0.990692 115.48
8.78272000 0.990692 115.49 0.136094 25.488 0.136094 25.488 0.990692 115.48
8.78273000 0.990692 115.49 0.136094 25.488 0.136094 25.488 0.990692 115.48
8.78274000 0.990692 115.49 0.136095 25.487 0.136095 25.487 0.990692 115.48
8.78275000 0.990691 115.49 0.136096 25.487 0.136096 25.487 0.990691 115.48
8.78276000 0.990691 115.49 0.136096 25.487 0.136096 25.487 0.990691 115.48
8.78277000 0.990691 115.49 0.136097 25.487 0.136097 25.487 0.990691 115.48
8.78278000 0.990691 115.49 0.136098 25.487 0.136098 25.487 0.990691 115.48
8.78279000 0.990691 115.49 0.136098 25.487 0.136098 25.487 0.990691 115.48
8.78280000 0.990691 115.49 0.136099 25.487 0.136099 25.487 0.990691 115.48
8.78281000 0.990691 115.49 0.136100 25.487 0.136100 25.487 0.990691 115.48
8.78282000 0.990691 115.49 0.136100 25.487 0.136100 25.487 0.990691 115.48
8.78283000 0.990691 115.49 0.136101 25.487 0.136101 25.487 0.990691 115.48
8.78284000 0.990691 115.49 0.136102 25.486 0.136102 25.486 0.990691 115.48
8.78285000 0.990691 115.49 0.136102 25.486 0.136102 25.486 0.990691 115.48
8.78286000 0.990690 115.49 0.136103 25.486 0.136103 25.486 0.990690 115.48
8.78287000 0.990690 115.49 0.136103 25.486 0.136103 25.486 0.990690 115.48
8.78288000 0.990690 115.49 0.136104 25.486 0.136104 25.486 0.990690 115.48
8.78289000 0.990690 115.49 0.136105 25.486 0.136105 25.486 0.990690 115.48
8.78290000 0.990690 115.49 0.136105 25.486 0.136105 25.486 0.990690 115.48
8.78291000 0.990690 115.49 0.136106 25.486 0.136106 25.486 0.990690 115.48
8.78292000 0.990690 115.49 0.136107 25.486 0.136107 25.486 0.990690 115.48
8.78293000 0.990690 115.49 0.136107 25.486 0.136107 25.486 0.990690 115.48
8.78294000 0.990690 115.49 0.136108 25.485 0.136108 25.485 0.990690 115.48
8.78295000 0.990690 115.49 0.136109 25.485 0.136109 25.485 0.990690 115.48
8.78296000 0.990690 115.49 0.136109 25.485 0.136109 25.485 0.990690 115.48
8.78297000 0.990689 115.49 0.136110 25.485 0.136110 25.485 0.990689 115.48
8.78298000 0.990689 115.49 0.136111 25.485 0.136111 25.485 0.990689 115.48
8.78299000 0.990689 115.49 0.136111 25.485 0.136111 25.485 0.990689 115.48
8.78300000 0.990689 115.49 0.136112 25.485 0.136112 25.485 0.990689 115.48
8.78301000 0.990689 115.49 0.136113 25.485 0.136113 25.485 0.990689 115.48
8.78302000 0.990689 115.49 0.136113 25.485 0.136113 25.485 0.990689 115.48
8.78303000 0.990689 115.49 0.136114 25.484 0.136114 25.484 0.990689 115.48
8.78304000 0.990689 115.49 0.136115 25.484 0.136115 25.484 0.990689 115.48
8.78305000 0.990689 115.49 0.136115 25.484 0.136115 25.484 0.990689 115.48
8.78306000 0.990689 115.49 0.136116 25.484 0.136116 25.484 0.990689 115.48
8.78307000 0.990689 115.49 0.136117 25.484 0.136117 25.484 0.990689 115.48
8.78308000 0.990688 115.49 0.136117 25.484 0.136117 25.484 0.990688 115.48
8.78309000 0.990688 115.49 0.136118 25.484 0.136118 25.484 0.990688 115.48
8.78310000 0.990688 115.49 0.136119 25.484 0.136119 25.484 0.990688 115.48
8.78311000 0.990688 115.49 0.136119 25.484 0.136119 25.484 0.990688 115.48
8.78312000 0.990688 115.49 0.136120 25.484 0.136120 25.484 0.990688 115.48
8.78313000 0.990688 115.49 0.136121 25.483 0.136121 25.483 0.990688 115.48
8.78314000 0.990688 115.49 0.136121 25.483 0.136121 25.483 0.990688 115.48
8.78315000 0.990688 115.49 0.136122 25.483 0.136122 25.483 0.990688 115.48
8.78316000 0.990688 115.49 0.136123 25.483 0.136123 25.483 0.990688 115.48
8.78317000 0.990688 115.49 0.136123 25.483 0.136123 25.483 0.990688 115.48
8.78318000 0.990687 115.49 0.136124 25.483 0.136124 25.483 0.990688 115.48
8.78319000 0.990687 115.49 0.136125 25.483 0.136125 25.483 0.990687 115.48
8.78320000 0.990687 115.49 0.136125 25.483 0.136125 25.483 0.990687 115.48
8.78321000 0.990687 115.49 0.136126 25.483 0.136126 25.483 0.990687 115.48
8.78322000 0.990687 115.49 0.136127 25.483 0.136127 25.483 0.990687 115.48
8.78323000 0.990687 115.49 0.136127 25.482 0.136127 25.482 0.990687 115.48
8.78324000 0.990687 115.49 0.136128 25.482 0.136128 25.482 0.990687 115.48
8.78325000 0.990687 115.49 0.136129 25.482 0.136129 25.482 0.990687 115.48
8.78326000 0.990687 115.49 0.136129 25.482 0.136129 25.482 0.990687 115.47
8.78327000 0.990687 115.49 0.136130 25.482 0.136130 25.482 0.990687 115.47
8.78328000 0.990687 115.49 0.136131 25.482 0.136131 25.482 0.990687 115.47
8.78329000 0.990686 115.49 0.136131 25.482 0.136131 25.482 0.990686 115.47
8.78330000 0.990686 115.49 0.136132 25.482 0.136132 25.482 0.990686 115.47
8.78331000 0.990686 115.49 0.136133 25.482 0.136133 25.482 0.990686 115.47
8.78332000 0.990686 115.49 0.136133 25.481 0.136133 25.481 0.990686 115.47
8.78333000 0.990686 115.49 0.136134 25.481 0.136134 25.481 0.990686 115.47
8.78334000 0.990686 115.49 0.136135 25.481 0.136135 25.481 0.990686 115.47
8.78335000 0.990686 115.49 0.136135 25.481 0.136135 25.481 0.990686 115.47
8.78336000 0.990686 115.49 0.136136 25.481 0.136136 25.481 0.990686 115.47
8.78337000 0.990686 115.49 0.136137 25.481 0.136137 25.481 0.990686 115.47
8.78338000 0.990686 115.49 0.136137 25.481 0.136137 25.481 0.990686 115.47
8.78339000 0.990686 115.49 0.136138 25.481 0.136138 25.481 0.990686 115.47
8.78340000 0.990685 115.49 0.136139 25.481 0.136139 25.481 0.990685 115.47
8.78341000 0.990685 115.49 0.136139 25.481 0.136139 25.481 0.990685 115.47
8.78342000 0.990685 115.49 0.136140 25.480 0.136140 25.480 0.990685 115.47
8.78343000 0.990685 115.49 0.136141 25.480 0.136141 25.480 0.990685 115.47
8.78344000 0.990685 115.49 0.136141 25.480 0.136141 25.480 0.990685 115.47
8.78345000 0.990685 115.49 0.136142 25.480 0.136142 25.480 0.990685 115.47
8.78346000 0.990685 115.49 0.136143 25.480 0.136143 25.480 0.990685 115.47
8.78347000 0.990685 115.49 0.136144 25.480 0.136144 25.480 0.990685 115.47
8.78348000 0.990685 115.49 0.136144 25.480 0.136144 25.480 0.990685 115.47
8.78349000 0.990685 115.49 0.136145 25.480 0.136145 25.480 0.990685 115.47
8.78350000 0.990684 115.49 0.136146 25.480 0.136146 25.480 0.990685 115.47
8.78351000 0.990684 115.49 0.136146 25.480 0.136146 25.480 0.990684 115.47
8.78352000 0.990684 115.48 0.136147 25.479 0.136147 25.479 0.990684 115.47
8.78353000 0.990684 115.48 0.136148 25.479 0.136148 25.479 0.990684 115.47
8.78354000 0.990684 115.48 0.136148 25.479 0.136148 25.479 0.990684 115.47
8.78355000 0.990684 115.48 0.136149 25.479 0.136149 25.479 0.990684 115.47
8.78356000 0.990684 115.48 0.136150 25.479 0.136150 25.479 0.990684 115.47
8.78357000 0.990684 115.48 0.136150 25.479 0.136150 25.479 0.990684 115.47
8.78358000 0.990684 115.48 0.136151 25.479 0.136151 25.479 0.990684 115.47
8.78359000 0.990684 115.48 0.136152 25.479 0.136152 25.479 0.990684 115.47
8.78360000 0.990684 115.48 0.136152 25.479 0.136152 25.479 0.990684 115.47
8.78361000 0.990683 115.48 0.136153 25.478 0.136153 25.478 0.990683 115.47
8.78362000 0.990683 115.48 0.136154 25.478 0.136154 25.478 0.990683 115.47
8.78363000 0.990683 115.48 0.136155 25.478 0.136155 25.478 0.990683 115.47
8.78364000 0.990683 115.48 0.136155 25.478 0.136155 25.478 0.990683 115.47
8.78365000 0.990683 115.48 0.136156 25.478 0.136156 25.478 0.990683 115.47
8.78366000 0.990683 115.48 0.136157 25.478 0.136157 25.478 0.990683 115.47
8.78367000 0.990683 115.48 0.136157 25.478 0.136157 25.478 0.990683 115.47
8.78368000 0.990683 115.48 0.136158 25.478 0.136158 25.478 0.990683 115.47
8.78369000 0.990683 115.48 0.136159 25.478 0.136159 25.478 0.990683 115.47
8.78370000 0.990683 115.48 0.136159 25.478 0.136159 25.478 0.990683 115.47
8.78371000 0.990682 115.48 0.136160 25.477 0.136160 25.477 0.990682 115.47
8.78372000 0.990682 115.48 0.136161 25.477 0.136161 25.477 0.990682 115.47
8.78373000 0.990682 115.48 0.136162 25.477 0.136162 25.477 0.990682 115.47
8.78374000 0.990682 115.48 0.136162 25.477 0.136162 25.477 0.990682 115.47
8.78375000 0.990682 115.48 0.136163 25.477 0.136163 25.477 0.990682 115.47
8.78376000 0.990682 115.48 0.136164 25.477 0.136164 25.477 0.990682 115.47
8.78377000 0.990682 115.48 0.136164 25.477 0.136164 25.477 0.990682 115.47
8.78378000 0.990682 115.48 0.136165 25.477 0.136165 25.477 0.990682 115.47
8.78379000 0.990682 115.48 0.136166 25.477 0.136166 25.477 0.990682 115.47
8.78380000 0.990682 115.48 0.136166 25.476 0.136166 25.476 0.990682 115.47
8.78381000 0.990681 115.48 0.136167 25.476 0.136167 25.476 0.990682 115.47
8.78382000 0.990681 115.48 0.136168 25.476 0.136168 25.476 0.990681 115.47
8.78383000 0.990681 115.48 0.136169 25.476 0.136169 25.476 0.990681 115.47
8.78384000 0.990681 115.48 0.136169 25.476 0.136169 25.476 0.990681 115.47
8.78385000 0.990681 115.48 0.136170 25.476 0.136170 25.476 0.990681 115.47
8.78386000 0.990681 115.48 0.136171 25.476 0.136171 25.476 0.990681 115.47
8.78387000 0.990681 115.48 0.136171 25.476 0.136171 25.476 0.990681 115.47
8.78388000 0.990681 115.48 0.136172 25.476 0.136172 25.476 0.990681 115.47
8.78389000 0.990681 115.48 0.136173 25.476 0.136173 25.476 0.990681 115.47
8.78390000 0.990681 115.48 0.136174 25.475 0.136174 25.475 0.990681 115.47
8.78391000 0.990681 115.48 0.136174 25.475 0.136174 25.475 0.990681 115.47
8.78392000 0.990680 115.48 0.136175 25.475 0.136175 25.475 0.990680 115.47