! Sonnet Data File
! From: emgraph Version : 16.52
! From Project: 171114transmon_trace_brg
! Data is De-embedded 
! Data File Written: 11/14/2017 17:50:13
!< HDATE 11/14/2017 14:11:39
!< MDATE 11/14/2017 14:11:39
!< PARAMS
!< Lj = 15.24
!< Gap = 14.0
!< Width = 10.0
!< Airgap = 6.0
!< Pwidth = 2000.0
!< Dist = 2000.0
!< END PARAMS
# GHZ S MA R 34.87000
8.615000000000000 0.9985207493460 142.52013688613 0.0543401989816 52.518038219135 0.0543401989815 52.518038219304 0.9985207523407 142.51461560505
!< P1 F=8.615 Eeff=(5.13377404 -5.6313e-5) Z0=(34.6595714 -9.1612e-5) R=0.0 C=0.0 
!< P2 F=8.615 Eeff=(5.13377404 -5.6313e-5) Z0=(34.6595714 -9.1612e-5) R=0.0 C=0.0 
8.615005000000000 0.9985207384942 142.52010710711 0.0543403691253 52.518007413596 0.0543403691253 52.518007413596 0.9985207420240 142.51458584433
8.615010000000000 0.9985207285746 142.52007730931 0.0543405394815 52.517976961836 0.0543405394815 52.517976961836 0.9985207321092 142.51455609867
8.615015000000001 0.9985207186445 142.52004750178 0.0543407100068 52.517946499043 0.0543407100068 52.517946499043 0.9985207221839 142.51452634334
8.615020000000001 0.9985207087039 142.52001768445 0.0543408807021 52.517916025212 0.0543408807021 52.517916025212 0.9985207122481 142.51449657829
8.615025000000001 0.9985206987527 142.51998785733 0.0543410515675 52.517885540315 0.0543410515675 52.517885540315 0.9985207023017 142.51446680352
8.615030000000001 0.9985206887910 142.51995802039 0.0543412226032 52.517855044325 0.0543412226032 52.517855044325 0.9985206923449 142.51443701901
8.615035000000001 0.9985206788188 142.51992817361 0.0543413938099 52.517824537212 0.0543413938099 52.517824537212 0.9985206823774 142.51440722473
8.615040000000000 0.9985206688359 142.51989831697 0.0543415651877 52.517794018967 0.0543415651877 52.517794018967 0.9985206723994 142.51437742067
8.615045000000000 0.9985206588424 142.51986845047 0.0543417367367 52.517763489556 0.0543417367367 52.517763489556 0.9985206624108 142.51434760682
8.615050000000000 0.9985206488382 142.51983857406 0.0543419084579 52.517732948967 0.0543419084579 52.517732948967 0.9985206524115 142.51431778313
8.615055000000000 0.9985206388234 142.51980868775 0.0543420803508 52.517702397169 0.0543420803508 52.517702397169 0.9985206424015 142.51428794961
8.615060000000000 0.9985206287979 142.51977879149 0.0543422524165 52.517671834146 0.0543422524165 52.517671834146 0.9985206323809 142.51425810623
8.615065000000001 0.9985206187617 142.51974888529 0.0543424246549 52.517641259859 0.0543424246549 52.517641259859 0.9985206223496 142.51422825296
8.615070000000001 0.9985206087148 142.51971896911 0.0543425970664 52.517610674325 0.0543425970664 52.517610674325 0.9985206123076 142.51419838981
8.615075000000001 0.9985205986571 142.51968904294 0.0543427696514 52.517580077461 0.0543427696514 52.517580077461 0.9985206022548 142.51416851673
8.615080000000001 0.9985205885887 142.51965910676 0.0543429424102 52.517549469292 0.0543429424102 52.517549469292 0.9985205921913 142.51413863372
8.615085000000001 0.9985205785094 142.51962916054 0.0543431153433 52.517518849773 0.0543431153433 52.517518849773 0.9985205821170 142.51410874074
8.615090000000000 0.9985205684194 142.51959920427 0.0543432884509 52.517488218886 0.0543432884509 52.517488218886 0.9985205720319 142.51407883779
8.615095000000000 0.9985205583184 142.51956923791 0.0543434617336 52.517457576602 0.0543434617336 52.517457576602 0.9985205619359 142.51404892483
8.615100000000000 0.9985205482067 142.51953926149 0.0543436351911 52.517426922920 0.0543436351911 52.517426922920 0.9985205518291 142.51401900188
8.615105000000000 0.9985205380840 142.51950927493 0.0543438088245 52.517396257779 0.0543438088245 52.517396257779 0.9985205417114 142.51398906887
8.615110000000001 0.9985205279504 142.51947927824 0.0543439826338 52.517365581171 0.0543439826338 52.517365581171 0.9985205315828 142.51395912580
8.615115000000001 0.9985205178059 142.51944927140 0.0543441566193 52.517334893095 0.0543441566193 52.517334893095 0.9985205214433 142.51392917266
8.615120000000001 0.9985205076504 142.51941925439 0.0543443307815 52.517304193501 0.0543443307815 52.517304193501 0.9985205112928 142.51389920942
8.615125000000001 0.9985204974840 142.51938922718 0.0543445051206 52.517273482372 0.0543445051206 52.517273482372 0.9985205011314 142.51386923607
8.615130000000001 0.9985204873066 142.51935918977 0.0543446796370 52.517242759694 0.0543446796370 52.517242759694 0.9985204909590 142.51383925258
8.615135000000000 0.9985204771181 142.51932914212 0.0543448543311 52.517212025440 0.0543448543311 52.517212025440 0.9985204807755 142.51380925893
8.615140000000000 0.9985204669186 142.51929908421 0.0543450292033 52.517181279564 0.0543450292033 52.517181279564 0.9985204705811 142.51377925510
8.615145000000000 0.9985204567081 142.51926901603 0.0543452042538 52.517150522073 0.0543452042538 52.517150522073 0.9985204603756 142.51374924108
8.615150000000000 0.9985204464864 142.51923893754 0.0543453794833 52.517119752911 0.0543453794833 52.517119752911 0.9985204501589 142.51371921682
8.615155000000000 0.9985204362536 142.51920884873 0.0543455548918 52.517088972072 0.0543455548918 52.517088972072 0.9985204399312 142.51368918233
8.615160000000001 0.9985204260097 142.51917874961 0.0543457304797 52.517058179540 0.0543457304797 52.517058179540 0.9985204296924 142.51365913759
8.615165000000001 0.9985204157546 142.51914864011 0.0543459062474 52.517027375280 0.0543459062474 52.517027375280 0.9985204194424 142.51362908257
8.615170000000001 0.9985204054883 142.51911852023 0.0543460821956 52.516996559255 0.0543460821956 52.516996559255 0.9985204091812 142.51359901723
8.615175000000001 0.9985203952109 142.51908838996 0.0543462583241 52.516965731474 0.0543462583241 52.516965731474 0.9985203989089 142.51356894158
8.615180000000001 0.9985203849222 142.51905824926 0.0543464346336 52.516934891876 0.0543464346336 52.516934891876 0.9985203886253 142.51353885558
8.615185000000000 0.9985203746222 142.51902809813 0.0543466111242 52.516904040473 0.0543466111242 52.516904040473 0.9985203783305 142.51350875923
8.615190000000000 0.9985203643110 142.51899793653 0.0543467877967 52.516873177212 0.0543467877967 52.516873177212 0.9985203680244 142.51347865248
8.615195000000000 0.9985203539884 142.51896776445 0.0543469646511 52.516842302079 0.0543469646511 52.516842302079 0.9985203577070 142.51344853534
8.615200000000000 0.9985203436546 142.51893758186 0.0543471416879 52.516811415029 0.0543471416879 52.516811415029 0.9985203473783 142.51341840776
8.615205000000001 0.9985203333094 142.51890738875 0.0543473189074 52.516780516075 0.0543473189074 52.516780516075 0.9985203370383 142.51338826974
8.615210000000001 0.9985203229528 142.51887718508 0.0543474963101 52.516749605154 0.0543474963101 52.516749605154 0.9985203266868 142.51335812125
8.615215000000001 0.9985203125848 142.51884697086 0.0543476738962 52.516718682284 0.0543476738962 52.516718682284 0.9985203163241 142.51332796228
8.615220000000001 0.9985203022054 142.51881674603 0.0543478516664 52.516687747389 0.0543478516664 52.516687747389 0.9985203059499 142.51329779278
8.615225000000001 0.9985202918146 142.51878651061 0.0543480296205 52.516656800499 0.0543480296205 52.516656800499 0.9985202955642 142.51326761277
8.615230000000000 0.9985202814123 142.51875626455 0.0543482077593 52.516625841551 0.0543482077593 52.516625841551 0.9985202851672 142.51323742220
8.615235000000000 0.9985202709984 142.51872600782 0.0543483860833 52.516594870505 0.0543483860833 52.516594870505 0.9985202747586 142.51320722103
8.615240000000000 0.9985202605731 142.51869574043 0.0543485645923 52.516563887381 0.0543485645923 52.516563887381 0.9985202643385 142.51317700930
8.615245000000000 0.9985202501362 142.51866546233 0.0543487432874 52.516532892117 0.0543487432874 52.516532892117 0.9985202539069 142.51314678693
8.615250000000001 0.9985202396878 142.51863517352 0.0543489221683 52.516501884710 0.0543489221683 52.516501884710 0.9985202434637 142.51311655393
8.615255000000001 0.9985202292278 142.51860487396 0.0543491012359 52.516470865118 0.0543491012359 52.516470865118 0.9985202330090 142.51308631026
8.615260000000001 0.9985202187562 142.51857456365 0.0543492804902 52.516439833335 0.0543492804902 52.516439833335 0.9985202225426 142.51305605591
8.615265000000001 0.9985202082729 142.51854424254 0.0543494599320 52.516408789310 0.0543494599320 52.516408789310 0.9985202120646 142.51302579085
8.615270000000001 0.9985201977779 142.51851391065 0.0543496395610 52.516377733051 0.0543496395610 52.516377733051 0.9985202015750 142.51299551509
8.615275000000000 0.9985201872713 142.51848356791 0.0543498193781 52.516346664506 0.0543498193781 52.516346664506 0.9985201910737 142.51296522857
8.615280000000000 0.9985201767530 142.51845321431 0.0543499993840 52.516315583637 0.0543499993840 52.516315583637 0.9985201805607 142.51293493127
8.615285000000000 0.9985201662229 142.51842284986 0.0543501795783 52.516284490444 0.0543501795783 52.516284490444 0.9985201700359 142.51290462318
8.615290000000000 0.9985201556810 142.51839247450 0.0543503599619 52.516253384912 0.0543503599619 52.516253384912 0.9985201594995 142.51287430428
8.615295000000000 0.9985201451274 142.51836208823 0.0543505405349 52.516222266970 0.0543505405349 52.516222266970 0.9985201489512 142.51284397455
8.615300000000001 0.9985201345620 142.51833169101 0.0543507212981 52.516191136623 0.0543507212981 52.516191136623 0.9985201383911 142.51281363395
8.615305000000001 0.9985201239847 142.51830128284 0.0543509022513 52.516159993860 0.0543509022513 52.516159993860 0.9985201278192 142.51278328249
8.615310000000001 0.9985201133955 142.51827086369 0.0543510833953 52.516128838620 0.0543510833953 52.516128838620 0.9985201172355 142.51275292011
8.615315000000001 0.9985201027945 142.51824043351 0.0543512647306 52.516097670874 0.0543512647306 52.516097670874 0.9985201066398 142.51272254681
8.615320000000001 0.9985200921815 142.51820999232 0.0543514462573 52.516066490626 0.0543514462573 52.516066490626 0.9985200960323 142.51269216256
8.615325000000000 0.9985200815567 142.51817954007 0.0543516279757 52.516035297835 0.0543516279757 52.516035297835 0.9985200854128 142.51266176735
8.615330000000000 0.9985200709198 142.51814907676 0.0543518098863 52.516004092498 0.0543518098863 52.516004092498 0.9985200747814 142.51263136115
8.615335000000000 0.9985200602710 142.51811860233 0.0543519919900 52.515972874538 0.0543519919900 52.515972874538 0.9985200641380 142.51260094392
8.615340000000000 0.9985200496101 142.51808811679 0.0543521742864 52.515941643946 0.0543521742864 52.515941643946 0.9985200534826 142.51257051567
8.615345000000001 0.9985200389372 142.51805762011 0.0543523567764 52.515910400722 0.0543523567764 52.515910400722 0.9985200428152 142.51254007635
8.615350000000001 0.9985200282522 142.51802711225 0.0543525394604 52.515879144801 0.0543525394604 52.515879144801 0.9985200321357 142.51250962594
8.615355000000001 0.9985200175552 142.51799659321 0.0543527223386 52.515847876185 0.0543527223386 52.515847876185 0.9985200214441 142.51247916443
8.615360000000001 0.9985200068460 142.51796606296 0.0543529054113 52.515816594848 0.0543529054113 52.515816594848 0.9985200107405 142.51244869180
8.615365000000001 0.9985199961247 142.51793552148 0.0543530886791 52.515785300741 0.0543530886791 52.515785300741 0.9985200000246 142.51241820801
8.615370000000000 0.9985199853912 142.51790496873 0.0543532721426 52.515753993852 0.0543532721426 52.515753993852 0.9985199892967 142.51238771305
8.615375000000000 0.9985199746455 142.51787440470 0.0543534558018 52.515722674142 0.0543534558018 52.515722674142 0.9985199785565 142.51235720689
8.615380000000000 0.9985199638876 142.51784382938 0.0543536396570 52.515691341619 0.0543536396570 52.515691341619 0.9985199678042 142.51232668952
8.615385000000000 0.9985199531174 142.51781324271 0.0543538237092 52.515659996205 0.0543538237092 52.515659996205 0.9985199570396 142.51229616089
8.615390000000000 0.9985199423349 142.51778264472 0.0543540079582 52.515628637904 0.0543540079582 52.515628637904 0.9985199462627 142.51226562102
8.615395000000001 0.9985199315402 142.51775203532 0.0543541924050 52.515597266664 0.0543541924050 52.515597266664 0.9985199354735 142.51223506984
8.615400000000001 0.9985199207331 142.51772141453 0.0543543770497 52.515565882462 0.0543543770497 52.515565882462 0.9985199246720 142.51220450734
8.615405000000001 0.9985199099137 142.51769078233 0.0543545618925 52.515534485321 0.0543545618925 52.515534485321 0.9985199138582 142.51217393352
8.615410000000001 0.9985198990819 142.51766013867 0.0543547469342 52.515503075141 0.0543547469342 52.515503075141 0.9985199030320 142.51214334833
8.615415000000000 0.9985198882376 142.51762948355 0.0543549321749 52.515471651936 0.0543549321749 52.515471651936 0.9985198921934 142.51211275176
8.615420000000000 0.9985198773810 142.51759881694 0.0543551176152 52.515440215661 0.0543551176152 52.515440215661 0.9985198813424 142.51208214377
8.615425000000000 0.9985198665118 142.51756813879 0.0543553032556 52.515408766300 0.0543553032556 52.515408766300 0.9985198704789 142.51205152436
8.615430000000000 0.9985198556302 142.51753744914 0.0543554890960 52.515377303837 0.0543554890960 52.515377303838 0.9985198596030 142.51202089351
8.615435000000000 0.9985198447361 142.51750674788 0.0543556751376 52.515345828182 0.0543556751376 52.515345828182 0.9985198487145 142.51199025115
8.615440000000001 0.9985198338294 142.51747603505 0.0543558613803 52.515314339376 0.0543558613803 52.515314339376 0.9985198378135 142.51195959730
8.615445000000001 0.9985198229102 142.51744531061 0.0543560478244 52.515282837364 0.0543560478244 52.515282837364 0.9985198269000 142.51192893193
8.615450000000001 0.9985198119783 142.51741457453 0.0543562344709 52.515251322123 0.0543562344709 52.515251322123 0.9985198159738 142.51189825500
8.615455000000001 0.9985198010339 142.51738382679 0.0543564213196 52.515219793617 0.0543564213196 52.515219793617 0.9985198050351 142.51186756651
8.615460000000001 0.9985197900767 142.51735306735 0.0543566083714 52.515188251820 0.0543566083714 52.515188251820 0.9985197940837 142.51183686640
8.615465000000000 0.9985197791069 142.51732229622 0.0543567956262 52.515156696705 0.0543567956262 52.515156696705 0.9985197831197 142.51180615469
8.615470000000000 0.9985197681244 142.51729151333 0.0543569830853 52.515125128214 0.0543569830853 52.515125128214 0.9985197721429 142.51177543131
8.615475000000000 0.9985197571292 142.51726071870 0.0543571707481 52.515093546377 0.0543571707481 52.515093546377 0.9985197611534 142.51174469627
8.615480000000000 0.9985197461211 142.51722991227 0.0543573586157 52.515061951108 0.0543573586157 52.515061951108 0.9985197501512 142.51171394953
8.615485000000001 0.9985197351003 142.51719909405 0.0543575466881 52.515030342428 0.0543575466881 52.515030342428 0.9985197391362 142.51168319108
8.615490000000001 0.9985197240667 142.51716826398 0.0543577349662 52.514998720263 0.0543577349662 52.514998720263 0.9985197281084 142.51165242087
8.615495000000001 0.9985197130202 142.51713742204 0.0543579234503 52.514967084607 0.0543579234503 52.514967084607 0.9985197170677 142.51162163888
8.615500000000001 0.9985197019609 142.51710656825 0.0543581121403 52.514935435443 0.0543581121403 52.514935435443 0.9985197060142 142.51159084513
8.615505000000001 0.9985196908887 142.51707570253 0.0543583010373 52.514903772712 0.0543583010373 52.514903772713 0.9985196949478 142.51156003954
8.615510000000000 0.9985196798035 142.51704482488 0.0543584901416 52.514872096380 0.0543584901416 52.514872096380 0.9985196838684 142.51152922210
8.615515000000000 0.9985196687053 142.51701393526 0.0543586794535 52.514840406439 0.0543586794535 52.514840406439 0.9985196727762 142.51149839279
8.615520000000000 0.9985196575942 142.51698303368 0.0543588689732 52.514808702879 0.0543588689732 52.514808702879 0.9985196616709 142.51146755160
8.615525000000000 0.9985196464700 142.51695212007 0.0543590587017 52.514776985630 0.0543590587017 52.514776985630 0.9985196505527 142.51143669848
8.615530000000000 0.9985196353328 142.51692119443 0.0543592486391 52.514745254676 0.0543592486391 52.514745254676 0.9985196394214 142.51140583341
8.615535000000001 0.9985196241826 142.51689025674 0.0543594387856 52.514713510001 0.0543594387856 52.514713510001 0.9985196282770 142.51137495639
8.615540000000001 0.9985196130192 142.51685930696 0.0543596291421 52.514681751556 0.0543596291421 52.514681751556 0.9985196171196 142.51134406736
8.615545000000001 0.9985196018427 142.51682834506 0.0543598197089 52.514649979316 0.0543598197089 52.514649979316 0.9985196059490 142.51131316632
8.615550000000001 0.9985195906530 142.51679737103 0.0543600104864 52.514618193256 0.0543600104864 52.514618193256 0.9985195947653 142.51128225323
8.615555000000001 0.9985195794501 142.51676638483 0.0543602014753 52.514586393314 0.0543602014753 52.514586393314 0.9985195835684 142.51125132805
8.615560000000000 0.9985195682341 142.51673538646 0.0543603926754 52.514554579525 0.0543603926754 52.514554579525 0.9985195723583 142.51122039080
8.615565000000000 0.9985195570047 142.51670437586 0.0543605840877 52.514522751806 0.0543605840877 52.514522751806 0.9985195611349 142.51118944141
8.615570000000000 0.9985195457621 142.51667335302 0.0543607757126 52.514490910147 0.0543607757126 52.514490910147 0.9985195498983 142.51115847988
8.615575000000000 0.9985195345062 142.51664231792 0.0543609675503 52.514459054504 0.0543609675503 52.514459054504 0.9985195386484 142.51112750618
8.615580000000001 0.9985195232370 142.51661127052 0.0543611596016 52.514427184850 0.0543611596016 52.514427184850 0.9985195273852 142.51109652027
8.615585000000001 0.9985195119543 142.51658021082 0.0543613518665 52.514395301167 0.0543613518665 52.514395301167 0.9985195161086 142.51106552214
8.615590000000001 0.9985195006583 142.51654913876 0.0543615443459 52.514363403407 0.0543615443459 52.514363403407 0.9985195048187 142.51103451176
8.615595000000001 0.9985194893489 142.51651805433 0.0543617370402 52.514331491546 0.0543617370402 52.514331491546 0.9985194935153 142.51100348909
8.615600000000001 0.9985194780260 142.51648695750 0.0543619299497 52.514299565542 0.0543619299497 52.514299565542 0.9985194821985 142.51097245411
8.615605000000000 0.9985194666896 142.51645584826 0.0543621230746 52.514267625396 0.0543621230746 52.514267625396 0.9985194708682 142.51094140683
8.615610000000000 0.9985194553397 142.51642472657 0.0543623164157 52.514235671048 0.0543623164157 52.514235671048 0.9985194595244 142.51091034718
8.615615000000000 0.9985194439763 142.51639359239 0.0543625099736 52.514203702474 0.0543625099736 52.514203702474 0.9985194481671 142.51087927514
8.615620000000000 0.9985194325993 142.51636244572 0.0543627037484 52.514171719655 0.0543627037484 52.514171719655 0.9985194367962 142.51084819070
8.615625000000001 0.9985194212086 142.51633128652 0.0543628977408 52.514139722519 0.0543628977408 52.514139722519 0.9985194254117 142.51081709382
8.615630000000001 0.9985194098044 142.51630011475 0.0543630919513 52.514107711086 0.0543630919513 52.514107711086 0.9985194140136 142.51078598447
8.615635000000001 0.9985193983865 142.51626893040 0.0543632863803 52.514075685283 0.0543632863803 52.514075685282 0.9985194026019 142.51075486263
8.615640000000001 0.9985193869549 142.51623773346 0.0543634810278 52.514043645120 0.0543634810278 52.514043645120 0.9985193911765 142.51072372830
8.615645000000001 0.9985193755095 142.51620652387 0.0543636758951 52.514011590520 0.0543636758951 52.514011590520 0.9985193797373 142.51069258141
8.615650000000000 0.9985193640504 142.51617530161 0.0543638709822 52.513979521471 0.0543638709822 52.513979521471 0.9985193682844 142.51066142195
8.615655000000000 0.9985193525775 142.51614406666 0.0543640662896 52.513947437947 0.0543640662896 52.513947437947 0.9985193568178 142.51063024989
8.615660000000000 0.9985193410908 142.51611281899 0.0543642618180 52.513915339891 0.0543642618180 52.513915339891 0.9985193453373 142.51059906520
8.615665000000000 0.9985193295902 142.51608155857 0.0543644575677 52.513883227300 0.0543644575677 52.513883227300 0.9985193338430 142.51056786787
8.615670000000000 0.9985193180758 142.51605028539 0.0543646535390 52.513851100138 0.0543646535390 52.513851100138 0.9985193223348 142.51053665786
8.615675000000001 0.9985193065474 142.51601899940 0.0543648497325 52.513818958349 0.0543648497325 52.513818958349 0.9985193108127 142.51050543515
8.615680000000001 0.9985192950052 142.51598770058 0.0543650461488 52.513786801939 0.0543650461488 52.513786801939 0.9985192992767 142.51047419970
8.615685000000001 0.9985192834489 142.51595638891 0.0543652427884 52.513754630826 0.0543652427884 52.513754630826 0.9985192877267 142.51044295149
8.615690000000001 0.9985192718786 142.51592506436 0.0543654396514 52.513722445028 0.0543654396514 52.513722445028 0.9985192761628 142.51041169050
8.615695000000001 0.9985192602943 142.51589372689 0.0543656367388 52.513690244478 0.0543656367388 52.513690244478 0.9985192645848 142.51038041669
8.615700000000000 0.9985192486959 142.51586237648 0.0543658340508 52.513658029149 0.0543658340508 52.513658029149 0.9985192529927 142.51034913004
8.615705000000000 0.9985192370834 142.51583101310 0.0543660315881 52.513625799009 0.0543660315881 52.513625799009 0.9985192413866 142.51031783051
8.615710000000000 0.9985192254568 142.51579963674 0.0543662293506 52.513593554045 0.0543662293506 52.513593554045 0.9985192297664 142.51028651810
8.615715000000000 0.9985192138160 142.51576824733 0.0543664273399 52.513561294168 0.0543664273399 52.513561294168 0.9985192181319 142.51025519273
8.615720000000001 0.9985192021610 142.51573684488 0.0543666255554 52.513529019396 0.0543666255554 52.513529019396 0.9985192064833 142.51022385443
8.615725000000001 0.9985191904918 142.51570542935 0.0543668239979 52.513496729689 0.0543668239979 52.513496729689 0.9985191948205 142.51019250315
8.615730000000001 0.9985191788083 142.51567400072 0.0543670226681 52.513464425006 0.0543670226681 52.513464425006 0.9985191831435 142.51016113885
8.615735000000001 0.9985191671106 142.51564255896 0.0543672215661 52.513432105328 0.0543672215661 52.513432105329 0.9985191714522 142.51012976153
8.615740000000001 0.9985191553984 142.51561110399 0.0543674206933 52.513399770568 0.0543674206933 52.513399770568 0.9985191597465 142.51009837111
8.615745000000000 0.9985191436720 142.51557963587 0.0543676200491 52.513367420757 0.0543676200491 52.513367420757 0.9985191480265 142.51006696762
8.615750000000000 0.9985191319311 142.51554815450 0.0543678196348 52.513335055806 0.0543678196348 52.513335055806 0.9985191362921 142.51003555099
8.615755000000000 0.9985191201759 142.51551665989 0.0543680194504 52.513302675727 0.0543680194504 52.513302675727 0.9985191245434 142.51000412122
8.615760000000000 0.9985191084062 142.51548515201 0.0543682194964 52.513270280489 0.0543682194964 52.513270280489 0.9985191127802 142.50997267827
8.615765000000000 0.9985190966219 142.51545363081 0.0543684197737 52.513237869995 0.0543684197737 52.513237869995 0.9985191010025 142.50994122210
8.615770000000001 0.9985190848232 142.51542209625 0.0543686202828 52.513205444250 0.0543686202828 52.513205444250 0.9985190892103 142.50990975267
8.615775000000001 0.9985190730099 142.51539054836 0.0543688210234 52.513173003252 0.0543688210234 52.513173003252 0.9985190774035 142.50987827002
8.615780000000001 0.9985190611820 142.51535898705 0.0543690219971 52.513140546909 0.0543690219971 52.513140546909 0.9985190655822 142.50984677404
8.615785000000001 0.9985190493395 142.51532741231 0.0543692232038 52.513108075225 0.0543692232038 52.513108075225 0.9985190537463 142.50981526474
8.615790000000001 0.9985190374824 142.51529582413 0.0543694246439 52.513075588158 0.0543694246439 52.513075588158 0.9985190418957 142.50978374210
8.615795000000000 0.9985190256105 142.51526422245 0.0543696263184 52.513043085656 0.0543696263184 52.513043085656 0.9985190300305 142.50975220605
8.615800000000000 0.9985190137239 142.51523260726 0.0543698282274 52.513010567689 0.0543698282274 52.513010567689 0.9985190181505 142.50972065660
8.615805000000000 0.9985190018226 142.51520097853 0.0543700303717 52.512978034229 0.0543700303717 52.512978034229 0.9985190062558 142.50968909370
8.615810000000000 0.9985189899065 142.51516933622 0.0543702327515 52.512945485240 0.0543702327515 52.512945485240 0.9985189943464 142.50965751734
8.615815000000001 0.9985189779756 142.51513768032 0.0543704353673 52.512912920711 0.0543704353673 52.512912920711 0.9985189824221 142.50962592748
8.615820000000001 0.9985189660298 142.51510601079 0.0543706382199 52.512880340566 0.0543706382199 52.512880340566 0.9985189704830 142.50959432409
8.615825000000001 0.9985189540691 142.51507432757 0.0543708413100 52.512847744755 0.0543708413100 52.512847744755 0.9985189585290 142.50956270712
8.615830000000001 0.9985189420935 142.51504263066 0.0543710446378 52.512815133296 0.0543710446378 52.512815133296 0.9985189465601 142.50953107656
8.615835000000001 0.9985189301029 142.51501092004 0.0543712482037 52.512782506136 0.0543712482037 52.512782506136 0.9985189345762 142.50949943239
8.615840000000000 0.9985189180973 142.51497919565 0.0543714520087 52.512749863196 0.0543714520087 52.512749863196 0.9985189225774 142.50946777456
8.615845000000000 0.9985189060767 142.51494745747 0.0543716560530 52.512717204487 0.0543716560530 52.512717204487 0.9985189105635 142.50943610304
8.615850000000000 0.9985188940411 142.51491570550 0.0543718603368 52.512684529962 0.0543718603368 52.512684529962 0.9985188985346 142.50940441783
8.615855000000000 0.9985188819903 142.51488393967 0.0543720648611 52.512651839600 0.0543720648611 52.512651839600 0.9985188864907 142.50937271887
8.615860000000001 0.9985188699244 142.51485215997 0.0543722696264 52.512619133340 0.0543722696264 52.512619133340 0.9985188744316 142.50934100613
8.615865000000001 0.9985188578434 142.51482036635 0.0543724746332 52.512586411157 0.0543724746332 52.512586411157 0.9985188623573 142.50930927959
8.615870000000001 0.9985188457471 142.51478855881 0.0543726798819 52.512553672994 0.0543726798819 52.512553672994 0.9985188502679 142.50927753922
8.615875000000001 0.9985188336356 142.51475673729 0.0543728853732 52.512520918844 0.0543728853732 52.512520918844 0.9985188381632 142.50924578498
8.615880000000001 0.9985188215088 142.51472490177 0.0543730911075 52.512488148658 0.0543730911075 52.512488148658 0.9985188260433 142.50921401685
8.615885000000000 0.9985188093667 142.51469305222 0.0543732970855 52.512455362387 0.0543732970855 52.512455362387 0.9985188139081 142.50918223479
8.615890000000000 0.9985187972093 142.51466118861 0.0543735033075 52.512422560003 0.0543735033075 52.512422560003 0.9985188017575 142.50915043878
8.615895000000000 0.9985187850365 142.51462931092 0.0543737097740 52.512389741499 0.0543737097740 52.512389741499 0.9985187895916 142.50911862879
8.615900000000000 0.9985187728483 142.51459741908 0.0543739164860 52.512356906779 0.0543739164860 52.512356906779 0.9985187774103 142.50908680477
8.615905000000000 0.9985187606446 142.51456551308 0.0543741234440 52.512324055828 0.0543741234440 52.512324055828 0.9985187652136 142.50905496668
8.615910000000001 0.9985187484254 142.51453359292 0.0543743306479 52.512291188641 0.0543743306479 52.512291188641 0.9985187530014 142.50902311454
8.615915000000001 0.9985187361907 142.51450165853 0.0543745380988 52.512258305140 0.0543745380988 52.512258305140 0.9985187407736 142.50899124827
8.615920000000001 0.9985187239405 142.51446970988 0.0543747457972 52.512225405307 0.0543747457972 52.512225405307 0.9985187285304 142.50895936786
8.615925000000001 0.9985187116746 142.51443774695 0.0543749537436 52.512192489085 0.0543749537436 52.512192489085 0.9985187162715 142.50892747327
8.615930000000001 0.9985186993932 142.51440576971 0.0543751619384 52.512159556468 0.0543751619384 52.512159556468 0.9985187039970 142.50889556448
8.615935000000000 0.9985186870960 142.51437377814 0.0543753703821 52.512126607410 0.0543753703821 52.512126607410 0.9985186917069 142.50886364146
8.615940000000000 0.9985186747832 142.51434177216 0.0543755790759 52.512093641826 0.0543755790759 52.512093641826 0.9985186794011 142.50883170414
8.615945000000000 0.9985186624546 142.51430975177 0.0543757880198 52.512060659724 0.0543757880198 52.512060659724 0.9985186670796 142.50879975253
8.615950000000000 0.9985186501102 142.51427771696 0.0543759972141 52.512027661081 0.0543759972141 52.512027661081 0.9985186547423 142.50876778660
8.615955000000001 0.9985186377500 142.51424566767 0.0543762066600 52.511994645815 0.0543762066600 52.511994645815 0.9985186423892 142.50873580629
8.615960000000001 0.9985186253740 142.51421360385 0.0543764163579 52.511961613904 0.0543764163579 52.511961613905 0.9985186300202 142.50870381157
8.615965000000001 0.9985186129821 142.51418152550 0.0543766263081 52.511928565313 0.0543766263081 52.511928565313 0.9985186176354 142.50867180243
8.615970000000001 0.9985186005742 142.51414943261 0.0543768365108 52.511895500021 0.0543768365108 52.511895500021 0.9985186052347 142.50863977885
8.615975000000001 0.9985185881504 142.51411732507 0.0543770469679 52.511862417923 0.0543770469679 52.511862417923 0.9985185928180 142.50860774073
8.615980000000000 0.9985185757106 142.51408520290 0.0543772576789 52.511829319039 0.0543772576789 52.511829319039 0.9985185803854 142.50857568810
8.615985000000000 0.9985185632547 142.51405306607 0.0543774686446 52.511796203325 0.0543774686446 52.511796203325 0.9985185679367 142.50854362090
8.615990000000000 0.9985185507828 142.51402091453 0.0543776798656 52.511763070720 0.0543776798656 52.511763070720 0.9985185554719 142.50851153912
8.615995000000000 0.9985185382947 142.51398874824 0.0543778913425 52.511729921205 0.0543778913425 52.511729921205 0.9985185429911 142.50847944269
8.616000000000000 0.9985185257905 142.51395656720 0.0543781030756 52.511696754742 0.0543781030756 52.511696754742 0.9985185304941 142.50844733163