! Sonnet Data File
! From: emgraph Version : 16.52
! From Emgraph Data: transmon_brgOdd
! Data File Written: 11/11/2017 22:54:51
!< HDATE 11/11/2017 22:31:46
!< MDATE 11/11/2017 22:32:14
!< PARAMS
!< Lj = 15.24
!< Gap = 6.0
!< Width = 10.0
!< Pwidth = 2000.0
!< Dist = 400.0
!< END PARAMS
# GHZ S MA R 34.67000
8.72000000 0.978105 101.53 0.208090 11.527 0.208090 11.527 0.978105 101.52
!< P1 F=8.72 Eeff=(5.13609477 -5.6761e-5) Z0=(34.6490765 -9.5162e-5) R=0.0 C=0.0 
!< P2 F=8.72 Eeff=(5.13609477 -5.6761e-5) Z0=(34.6490765 -9.5162e-5) R=0.0 C=0.0 
8.72005000 0.978105 101.53 0.208091 11.527 0.208091 11.527 0.978105 101.52
8.72010000 0.978104 101.53 0.208092 11.526 0.208092 11.526 0.978104 101.52
8.72015000 0.978104 101.53 0.208094 11.526 0.208094 11.526 0.978104 101.52
8.72020000 0.978104 101.53 0.208095 11.526 0.208095 11.526 0.978104 101.52
8.72025000 0.978103 101.53 0.208096 11.525 0.208096 11.525 0.978103 101.52
8.72030000 0.978103 101.53 0.208098 11.525 0.208098 11.525 0.978103 101.52
8.72035000 0.978103 101.53 0.208099 11.524 0.208099 11.524 0.978103 101.52
8.72040000 0.978103 101.53 0.208100 11.524 0.208100 11.524 0.978103 101.52
8.72045000 0.978102 101.53 0.208101 11.523 0.208101 11.523 0.978102 101.52
8.72050000 0.978102 101.53 0.208103 11.523 0.208103 11.523 0.978102 101.51
8.72055000 0.978102 101.53 0.208104 11.522 0.208104 11.522 0.978102 101.51
8.72060000 0.978102 101.53 0.208105 11.522 0.208105 11.522 0.978102 101.51
8.72065000 0.978101 101.53 0.208107 11.521 0.208107 11.521 0.978101 101.51
8.72070000 0.978101 101.53 0.208108 11.521 0.208108 11.521 0.978101 101.51
8.72075000 0.978101 101.53 0.208109 11.521 0.208109 11.521 0.978101 101.51
8.72080000 0.978100 101.53 0.208111 11.520 0.208111 11.520 0.978100 101.51
8.72085000 0.978100 101.53 0.208112 11.520 0.208112 11.520 0.978100 101.51
8.72090000 0.978100 101.53 0.208113 11.519 0.208113 11.519 0.978100 101.51
8.72095000 0.978100 101.52 0.208114 11.519 0.208114 11.519 0.978100 101.51
8.72100000 0.978099 101.52 0.208116 11.518 0.208116 11.518 0.978099 101.51
8.72105000 0.978099 101.52 0.208117 11.518 0.208117 11.518 0.978099 101.51
8.72110000 0.978099 101.52 0.208118 11.517 0.208118 11.517 0.978099 101.51
8.72115000 0.978098 101.52 0.208120 11.517 0.208120 11.517 0.978098 101.51
8.72120000 0.978098 101.52 0.208121 11.516 0.208121 11.516 0.978098 101.51
8.72125000 0.978098 101.52 0.208122 11.516 0.208122 11.516 0.978098 101.51
8.72130000 0.978098 101.52 0.208123 11.515 0.208123 11.515 0.978098 101.51
8.72135000 0.978097 101.52 0.208125 11.515 0.208125 11.515 0.978097 101.51
8.72140000 0.978097 101.52 0.208126 11.515 0.208126 11.515 0.978097 101.51
8.72145000 0.978097 101.52 0.208127 11.514 0.208127 11.514 0.978097 101.51
8.72150000 0.978097 101.52 0.208129 11.514 0.208129 11.514 0.978097 101.51
8.72155000 0.978096 101.52 0.208130 11.513 0.208130 11.513 0.978096 101.51
8.72160000 0.978096 101.52 0.208131 11.513 0.208131 11.513 0.978096 101.50
8.72165000 0.978096 101.52 0.208133 11.512 0.208133 11.512 0.978096 101.50
8.72170000 0.978095 101.52 0.208134 11.512 0.208134 11.512 0.978095 101.50
8.72175000 0.978095 101.52 0.208135 11.511 0.208135 11.511 0.978095 101.50
8.72180000 0.978095 101.52 0.208136 11.511 0.208136 11.511 0.978095 101.50
8.72185000 0.978095 101.52 0.208138 11.510 0.208138 11.510 0.978095 101.50
8.72190000 0.978094 101.52 0.208139 11.510 0.208139 11.510 0.978094 101.50
8.72195000 0.978094 101.52 0.208140 11.510 0.208140 11.510 0.978094 101.50
8.72200000 0.978094 101.52 0.208142 11.509 0.208142 11.509 0.978094 101.50
8.72205000 0.978094 101.51 0.208143 11.509 0.208143 11.509 0.978094 101.50
8.72210000 0.978093 101.51 0.208144 11.508 0.208144 11.508 0.978093 101.50
8.72215000 0.978093 101.51 0.208146 11.508 0.208146 11.508 0.978093 101.50
8.72220000 0.978093 101.51 0.208147 11.507 0.208147 11.507 0.978093 101.50
8.72225000 0.978092 101.51 0.208148 11.507 0.208148 11.507 0.978092 101.50
8.72230000 0.978092 101.51 0.208149 11.506 0.208149 11.506 0.978092 101.50
8.72235000 0.978092 101.51 0.208151 11.506 0.208151 11.506 0.978092 101.50
8.72240000 0.978092 101.51 0.208152 11.505 0.208152 11.505 0.978092 101.50
8.72245000 0.978091 101.51 0.208153 11.505 0.208153 11.505 0.978091 101.50
8.72250000 0.978091 101.51 0.208155 11.505 0.208155 11.505 0.978091 101.50
8.72255000 0.978091 101.51 0.208156 11.504 0.208156 11.504 0.978091 101.50
8.72260000 0.978090 101.51 0.208157 11.504 0.208157 11.504 0.978090 101.50
8.72265000 0.978090 101.51 0.208159 11.503 0.208159 11.503 0.978090 101.49
8.72270000 0.978090 101.51 0.208160 11.503 0.208160 11.503 0.978090 101.49
8.72275000 0.978090 101.51 0.208161 11.502 0.208161 11.502 0.978090 101.49
8.72280000 0.978089 101.51 0.208162 11.502 0.208162 11.502 0.978089 101.49
8.72285000 0.978089 101.51 0.208164 11.501 0.208164 11.501 0.978089 101.49
8.72290000 0.978089 101.51 0.208165 11.501 0.208165 11.501 0.978089 101.49
8.72295000 0.978089 101.51 0.208166 11.500 0.208166 11.500 0.978089 101.49
8.72300000 0.978088 101.51 0.208168 11.500 0.208168 11.500 0.978088 101.49
8.72305000 0.978088 101.51 0.208169 11.500 0.208169 11.500 0.978088 101.49
8.72310000 0.978088 101.51 0.208170 11.499 0.208170 11.499 0.978088 101.49
8.72315000 0.978087 101.50 0.208172 11.499 0.208172 11.499 0.978087 101.49
8.72320000 0.978087 101.50 0.208173 11.498 0.208173 11.498 0.978087 101.49
8.72325000 0.978087 101.50 0.208174 11.498 0.208174 11.498 0.978087 101.49
8.72330000 0.978087 101.50 0.208175 11.497 0.208175 11.497 0.978087 101.49
8.72335000 0.978086 101.50 0.208177 11.497 0.208177 11.497 0.978086 101.49
8.72340000 0.978086 101.50 0.208178 11.496 0.208178 11.496 0.978086 101.49
8.72345000 0.978086 101.50 0.208179 11.496 0.208179 11.496 0.978086 101.49
8.72350000 0.978085 101.50 0.208181 11.495 0.208181 11.495 0.978085 101.49
8.72355000 0.978085 101.50 0.208182 11.495 0.208182 11.495 0.978085 101.49
8.72360000 0.978085 101.50 0.208183 11.495 0.208183 11.495 0.978085 101.49
8.72365000 0.978085 101.50 0.208185 11.494 0.208185 11.494 0.978085 101.49
8.72370000 0.978084 101.50 0.208186 11.494 0.208186 11.494 0.978084 101.49
8.72375000 0.978084 101.50 0.208187 11.493 0.208187 11.493 0.978084 101.48
8.72380000 0.978084 101.50 0.208189 11.493 0.208189 11.493 0.978084 101.48
8.72385000 0.978084 101.50 0.208190 11.492 0.208190 11.492 0.978084 101.48
8.72390000 0.978083 101.50 0.208191 11.492 0.208191 11.492 0.978083 101.48
8.72395000 0.978083 101.50 0.208192 11.491 0.208192 11.491 0.978083 101.48
8.72400000 0.978083 101.50 0.208194 11.491 0.208194 11.491 0.978083 101.48
8.72405000 0.978082 101.50 0.208195 11.490 0.208195 11.490 0.978082 101.48
8.72410000 0.978082 101.50 0.208196 11.490 0.208196 11.490 0.978082 101.48
8.72415000 0.978082 101.50 0.208198 11.489 0.208198 11.489 0.978082 101.48
8.72420000 0.978082 101.50 0.208199 11.489 0.208199 11.489 0.978082 101.48
8.72425000 0.978081 101.49 0.208200 11.489 0.208200 11.489 0.978081 101.48
8.72430000 0.978081 101.49 0.208202 11.488 0.208202 11.488 0.978081 101.48
8.72435000 0.978081 101.49 0.208203 11.488 0.208203 11.488 0.978081 101.48
8.72440000 0.978080 101.49 0.208204 11.487 0.208204 11.487 0.978080 101.48
8.72445000 0.978080 101.49 0.208206 11.487 0.208206 11.487 0.978080 101.48
8.72450000 0.978080 101.49 0.208207 11.486 0.208207 11.486 0.978080 101.48
8.72455000 0.978080 101.49 0.208208 11.486 0.208208 11.486 0.978080 101.48
8.72460000 0.978079 101.49 0.208209 11.485 0.208209 11.485 0.978079 101.48
8.72465000 0.978079 101.49 0.208211 11.485 0.208211 11.485 0.978079 101.48
8.72470000 0.978079 101.49 0.208212 11.484 0.208212 11.484 0.978079 101.48
8.72475000 0.978078 101.49 0.208213 11.484 0.208213 11.484 0.978078 101.48
8.72480000 0.978078 101.49 0.208215 11.484 0.208215 11.484 0.978078 101.48
8.72485000 0.978078 101.49 0.208216 11.483 0.208216 11.483 0.978078 101.47
8.72490000 0.978078 101.49 0.208217 11.483 0.208217 11.483 0.978078 101.47
8.72495000 0.978077 101.49 0.208219 11.482 0.208219 11.482 0.978077 101.47
8.72500000 0.978077 101.49 0.208220 11.482 0.208220 11.482 0.978077 101.47
8.72505000 0.978077 101.49 0.208221 11.481 0.208221 11.481 0.978077 101.47
8.72510000 0.978077 101.49 0.208223 11.481 0.208223 11.481 0.978077 101.47
8.72515000 0.978076 101.49 0.208224 11.480 0.208224 11.480 0.978076 101.47
8.72520000 0.978076 101.49 0.208225 11.480 0.208225 11.480 0.978076 101.47
8.72525000 0.978076 101.49 0.208227 11.479 0.208227 11.479 0.978076 101.47
8.72530000 0.978075 101.49 0.208228 11.479 0.208228 11.479 0.978075 101.47
8.72535000 0.978075 101.48 0.208229 11.479 0.208229 11.479 0.978075 101.47
8.72540000 0.978075 101.48 0.208231 11.478 0.208231 11.478 0.978075 101.47
8.72545000 0.978075 101.48 0.208232 11.478 0.208232 11.478 0.978075 101.47
8.72550000 0.978074 101.48 0.208233 11.477 0.208233 11.477 0.978074 101.47
8.72555000 0.978074 101.48 0.208234 11.477 0.208234 11.477 0.978074 101.47
8.72560000 0.978074 101.48 0.208236 11.476 0.208236 11.476 0.978074 101.47
8.72565000 0.978073 101.48 0.208237 11.476 0.208237 11.476 0.978073 101.47
8.72570000 0.978073 101.48 0.208238 11.475 0.208238 11.475 0.978073 101.47
8.72575000 0.978073 101.48 0.208240 11.475 0.208240 11.475 0.978073 101.47
8.72580000 0.978073 101.48 0.208241 11.474 0.208241 11.474 0.978073 101.47
8.72585000 0.978072 101.48 0.208242 11.474 0.208242 11.474 0.978072 101.47
8.72590000 0.978072 101.48 0.208244 11.473 0.208244 11.473 0.978072 101.47
8.72595000 0.978072 101.48 0.208245 11.473 0.208245 11.473 0.978072 101.46
8.72600000 0.978071 101.48 0.208246 11.473 0.208246 11.473 0.978071 101.46
8.72605000 0.978071 101.48 0.208248 11.472 0.208248 11.472 0.978071 101.46
8.72610000 0.978071 101.48 0.208249 11.472 0.208249 11.472 0.978071 101.46
8.72615000 0.978071 101.48 0.208250 11.471 0.208250 11.471 0.978071 101.46
8.72620000 0.978070 101.48 0.208252 11.471 0.208252 11.471 0.978070 101.46
8.72625000 0.978070 101.48 0.208253 11.470 0.208253 11.470 0.978070 101.46
8.72630000 0.978070 101.48 0.208254 11.470 0.208254 11.470 0.978070 101.46
8.72635000 0.978069 101.48 0.208256 11.469 0.208256 11.469 0.978069 101.46
8.72640000 0.978069 101.48 0.208257 11.469 0.208257 11.469 0.978069 101.46
8.72645000 0.978069 101.47 0.208258 11.468 0.208258 11.468 0.978069 101.46
8.72650000 0.978069 101.47 0.208260 11.468 0.208260 11.468 0.978069 101.46
8.72655000 0.978068 101.47 0.208261 11.468 0.208261 11.468 0.978068 101.46
8.72660000 0.978068 101.47 0.208262 11.467 0.208262 11.467 0.978068 101.46
8.72665000 0.978068 101.47 0.208264 11.467 0.208264 11.467 0.978068 101.46
8.72670000 0.978068 101.47 0.208265 11.466 0.208265 11.466 0.978068 101.46
8.72675000 0.978067 101.47 0.208266 11.466 0.208266 11.466 0.978067 101.46
8.72680000 0.978067 101.47 0.208268 11.465 0.208268 11.465 0.978067 101.46
8.72685000 0.978067 101.47 0.208269 11.465 0.208269 11.465 0.978067 101.46
8.72690000 0.978066 101.47 0.208270 11.464 0.208270 11.464 0.978066 101.46
8.72695000 0.978066 101.47 0.208271 11.464 0.208271 11.464 0.978066 101.46
8.72700000 0.978066 101.47 0.208273 11.463 0.208273 11.463 0.978066 101.46
8.72705000 0.978066 101.47 0.208274 11.463 0.208274 11.463 0.978066 101.45
8.72710000 0.978065 101.47 0.208275 11.463 0.208275 11.463 0.978065 101.45
8.72715000 0.978065 101.47 0.208277 11.462 0.208277 11.462 0.978065 101.45
8.72720000 0.978065 101.47 0.208278 11.462 0.208278 11.462 0.978065 101.45
8.72725000 0.978064 101.47 0.208279 11.461 0.208279 11.461 0.978064 101.45
8.72730000 0.978064 101.47 0.208281 11.461 0.208281 11.461 0.978064 101.45
8.72735000 0.978064 101.47 0.208282 11.460 0.208282 11.460 0.978064 101.45
8.72740000 0.978064 101.47 0.208283 11.460 0.208283 11.460 0.978064 101.45
8.72745000 0.978063 101.47 0.208285 11.459 0.208285 11.459 0.978063 101.45
8.72750000 0.978063 101.47 0.208286 11.459 0.208286 11.459 0.978063 101.45
8.72755000 0.978063 101.46 0.208287 11.458 0.208287 11.458 0.978063 101.45
8.72760000 0.978062 101.46 0.208289 11.458 0.208289 11.458 0.978062 101.45
8.72765000 0.978062 101.46 0.208290 11.457 0.208290 11.457 0.978062 101.45
8.72770000 0.978062 101.46 0.208291 11.457 0.208291 11.457 0.978062 101.45
8.72775000 0.978062 101.46 0.208293 11.457 0.208293 11.457 0.978062 101.45
8.72780000 0.978061 101.46 0.208294 11.456 0.208294 11.456 0.978061 101.45
8.72785000 0.978061 101.46 0.208295 11.456 0.208295 11.456 0.978061 101.45
8.72790000 0.978061 101.46 0.208297 11.455 0.208297 11.455 0.978061 101.45
8.72795000 0.978060 101.46 0.208298 11.455 0.208298 11.455 0.978060 101.45
8.72800000 0.978060 101.46 0.208299 11.454 0.208299 11.454 0.978060 101.45
8.72805000 0.978060 101.46 0.208301 11.454 0.208301 11.454 0.978060 101.45
8.72810000 0.978060 101.46 0.208302 11.453 0.208302 11.453 0.978060 101.45
8.72815000 0.978059 101.46 0.208303 11.453 0.208303 11.453 0.978059 101.44
8.72820000 0.978059 101.46 0.208305 11.452 0.208305 11.452 0.978059 101.44
8.72825000 0.978059 101.46 0.208306 11.452 0.208306 11.452 0.978059 101.44
8.72830000 0.978058 101.46 0.208307 11.452 0.208307 11.452 0.978058 101.44
8.72835000 0.978058 101.46 0.208309 11.451 0.208309 11.451 0.978058 101.44
8.72840000 0.978058 101.46 0.208310 11.451 0.208310 11.451 0.978058 101.44
8.72845000 0.978058 101.46 0.208311 11.450 0.208311 11.450 0.978058 101.44
8.72850000 0.978057 101.46 0.208313 11.450 0.208313 11.450 0.978057 101.44
8.72855000 0.978057 101.46 0.208314 11.449 0.208314 11.449 0.978057 101.44
8.72860000 0.978057 101.45 0.208315 11.449 0.208315 11.449 0.978057 101.44
8.72865000 0.978056 101.45 0.208317 11.448 0.208317 11.448 0.978056 101.44
8.72870000 0.978056 101.45 0.208318 11.448 0.208318 11.448 0.978056 101.44
8.72875000 0.978056 101.45 0.208319 11.447 0.208319 11.447 0.978056 101.44
8.72880000 0.978056 101.45 0.208321 11.447 0.208321 11.447 0.978056 101.44
8.72885000 0.978055 101.45 0.208322 11.446 0.208322 11.446 0.978055 101.44
8.72890000 0.978055 101.45 0.208323 11.446 0.208323 11.446 0.978055 101.44
8.72895000 0.978055 101.45 0.208325 11.446 0.208325 11.446 0.978055 101.44
8.72900000 0.978054 101.45 0.208326 11.445 0.208326 11.445 0.978054 101.44
8.72905000 0.978054 101.45 0.208328 11.445 0.208328 11.445 0.978054 101.44
8.72910000 0.978054 101.45 0.208329 11.444 0.208329 11.444 0.978054 101.44
8.72915000 0.978054 101.45 0.208330 11.444 0.208330 11.444 0.978054 101.44
8.72920000 0.978053 101.45 0.208332 11.443 0.208332 11.443 0.978053 101.44
8.72925000 0.978053 101.45 0.208333 11.443 0.208333 11.443 0.978053 101.43
8.72930000 0.978053 101.45 0.208334 11.442 0.208334 11.442 0.978053 101.43
8.72935000 0.978052 101.45 0.208336 11.442 0.208336 11.442 0.978052 101.43
8.72940000 0.978052 101.45 0.208337 11.441 0.208337 11.441 0.978052 101.43
8.72945000 0.978052 101.45 0.208338 11.441 0.208338 11.441 0.978052 101.43
8.72950000 0.978052 101.45 0.208340 11.441 0.208340 11.441 0.978052 101.43
8.72955000 0.978051 101.45 0.208341 11.440 0.208341 11.440 0.978051 101.43
8.72960000 0.978051 101.45 0.208342 11.440 0.208342 11.440 0.978051 101.43
8.72965000 0.978051 101.45 0.208344 11.439 0.208344 11.439 0.978051 101.43
8.72970000 0.978050 101.44 0.208345 11.439 0.208345 11.439 0.978050 101.43
8.72975000 0.978050 101.44 0.208346 11.438 0.208346 11.438 0.978050 101.43
8.72980000 0.978050 101.44 0.208348 11.438 0.208348 11.438 0.978050 101.43
8.72985000 0.978050 101.44 0.208349 11.437 0.208349 11.437 0.978050 101.43
8.72990000 0.978049 101.44 0.208350 11.437 0.208350 11.437 0.978049 101.43
8.72995000 0.978049 101.44 0.208352 11.436 0.208352 11.436 0.978049 101.43
8.73000000 0.978049 101.44 0.208353 11.436 0.208353 11.436 0.978049 101.43
8.73005000 0.978048 101.44 0.208354 11.435 0.208354 11.435 0.978048 101.43
8.73010000 0.978048 101.44 0.208356 11.435 0.208356 11.435 0.978048 101.43
8.73015000 0.978048 101.44 0.208357 11.435 0.208357 11.435 0.978048 101.43
8.73020000 0.978048 101.44 0.208358 11.434 0.208358 11.434 0.978048 101.43
8.73025000 0.978047 101.44 0.208360 11.434 0.208360 11.434 0.978047 101.43
8.73030000 0.978047 101.44 0.208361 11.433 0.208361 11.433 0.978047 101.42
8.73035000 0.978047 101.44 0.208363 11.433 0.208363 11.433 0.978047 101.42
8.73040000 0.978046 101.44 0.208364 11.432 0.208364 11.432 0.978046 101.42
8.73045000 0.978046 101.44 0.208365 11.432 0.208365 11.432 0.978046 101.42
8.73050000 0.978046 101.44 0.208367 11.431 0.208367 11.431 0.978046 101.42
8.73055000 0.978046 101.44 0.208368 11.431 0.208368 11.431 0.978046 101.42
8.73060000 0.978045 101.44 0.208369 11.430 0.208369 11.430 0.978045 101.42
8.73065000 0.978045 101.44 0.208371 11.430 0.208371 11.430 0.978045 101.42
8.73070000 0.978045 101.44 0.208372 11.429 0.208372 11.429 0.978045 101.42
8.73075000 0.978044 101.44 0.208373 11.429 0.208373 11.429 0.978044 101.42
8.73080000 0.978044 101.43 0.208375 11.429 0.208375 11.429 0.978044 101.42
8.73085000 0.978044 101.43 0.208376 11.428 0.208376 11.428 0.978044 101.42
8.73090000 0.978044 101.43 0.208377 11.428 0.208377 11.428 0.978044 101.42
8.73095000 0.978043 101.43 0.208379 11.427 0.208379 11.427 0.978043 101.42
8.73100000 0.978043 101.43 0.208380 11.427 0.208380 11.427 0.978043 101.42
8.73105000 0.978043 101.43 0.208381 11.426 0.208381 11.426 0.978043 101.42
8.73110000 0.978042 101.43 0.208383 11.426 0.208383 11.426 0.978042 101.42
8.73115000 0.978042 101.43 0.208384 11.425 0.208384 11.425 0.978042 101.42
8.73120000 0.978042 101.43 0.208386 11.425 0.208386 11.425 0.978042 101.42
8.73125000 0.978041 101.43 0.208387 11.424 0.208387 11.424 0.978041 101.42
8.73130000 0.978041 101.43 0.208388 11.424 0.208388 11.424 0.978041 101.42
8.73135000 0.978041 101.43 0.208390 11.424 0.208390 11.424 0.978041 101.42
8.73140000 0.978041 101.43 0.208391 11.423 0.208391 11.423 0.978041 101.41
8.73145000 0.978040 101.43 0.208392 11.423 0.208392 11.423 0.978040 101.41
8.73150000 0.978040 101.43 0.208394 11.422 0.208394 11.422 0.978040 101.41
8.73155000 0.978040 101.43 0.208395 11.422 0.208395 11.422 0.978040 101.41
8.73160000 0.978039 101.43 0.208396 11.421 0.208396 11.421 0.978039 101.41
8.73165000 0.978039 101.43 0.208398 11.421 0.208398 11.421 0.978039 101.41
8.73170000 0.978039 101.43 0.208399 11.420 0.208399 11.420 0.978039 101.41
8.73175000 0.978039 101.43 0.208401 11.420 0.208401 11.420 0.978039 101.41
8.73180000 0.978038 101.43 0.208402 11.419 0.208402 11.419 0.978038 101.41
8.73185000 0.978038 101.43 0.208403 11.419 0.208403 11.419 0.978038 101.41
8.73190000 0.978038 101.42 0.208405 11.418 0.208405 11.418 0.978038 101.41
8.73195000 0.978037 101.42 0.208406 11.418 0.208406 11.418 0.978037 101.41
8.73200000 0.978037 101.42 0.208407 11.418 0.208407 11.418 0.978037 101.41
8.73205000 0.978037 101.42 0.208409 11.417 0.208409 11.417 0.978037 101.41
8.73210000 0.978037 101.42 0.208410 11.417 0.208410 11.417 0.978037 101.41
8.73215000 0.978036 101.42 0.208411 11.416 0.208411 11.416 0.978036 101.41
8.73220000 0.978036 101.42 0.208413 11.416 0.208413 11.416 0.978036 101.41
8.73225000 0.978036 101.42 0.208414 11.415 0.208414 11.415 0.978036 101.41
8.73230000 0.978035 101.42 0.208416 11.415 0.208416 11.415 0.978035 101.41
8.73235000 0.978035 101.42 0.208417 11.414 0.208417 11.414 0.978035 101.41
8.73240000 0.978035 101.42 0.208418 11.414 0.208418 11.414 0.978035 101.41
8.73245000 0.978034 101.42 0.208420 11.413 0.208420 11.413 0.978034 101.41
8.73250000 0.978034 101.42 0.208421 11.413 0.208421 11.413 0.978034 101.40
8.73255000 0.978034 101.42 0.208422 11.412 0.208422 11.412 0.978034 101.40
8.73260000 0.978034 101.42 0.208424 11.412 0.208424 11.412 0.978034 101.40
8.73265000 0.978033 101.42 0.208425 11.412 0.208425 11.412 0.978033 101.40
8.73270000 0.978033 101.42 0.208426 11.411 0.208426 11.411 0.978033 101.40
8.73275000 0.978033 101.42 0.208428 11.411 0.208428 11.411 0.978033 101.40
8.73280000 0.978032 101.42 0.208429 11.410 0.208429 11.410 0.978032 101.40
8.73285000 0.978032 101.42 0.208431 11.410 0.208431 11.410 0.978032 101.40
8.73290000 0.978032 101.42 0.208432 11.409 0.208432 11.409 0.978032 101.40
8.73295000 0.978032 101.41 0.208433 11.409 0.208433 11.409 0.978032 101.40
8.73300000 0.978031 101.41 0.208435 11.408 0.208435 11.408 0.978031 101.40
8.73305000 0.978031 101.41 0.208436 11.408 0.208436 11.408 0.978031 101.40
8.73310000 0.978031 101.41 0.208437 11.407 0.208437 11.407 0.978031 101.40
8.73315000 0.978030 101.41 0.208439 11.407 0.208439 11.407 0.978030 101.40
8.73320000 0.978030 101.41 0.208440 11.406 0.208440 11.406 0.978030 101.40
8.73325000 0.978030 101.41 0.208442 11.406 0.208442 11.406 0.978030 101.40
8.73330000 0.978030 101.41 0.208443 11.406 0.208443 11.406 0.978030 101.40
8.73335000 0.978029 101.41 0.208444 11.405 0.208444 11.405 0.978029 101.40
8.73340000 0.978029 101.41 0.208446 11.405 0.208446 11.405 0.978029 101.40
8.73345000 0.978029 101.41 0.208447 11.404 0.208447 11.404 0.978029 101.40
8.73350000 0.978028 101.41 0.208449 11.404 0.208449 11.404 0.978028 101.40
8.73355000 0.978028 101.41 0.208450 11.403 0.208450 11.403 0.978028 101.40
8.73360000 0.978028 101.41 0.208451 11.403 0.208451 11.403 0.978028 101.39
8.73365000 0.978027 101.41 0.208453 11.402 0.208453 11.402 0.978027 101.39
8.73370000 0.978027 101.41 0.208454 11.402 0.208454 11.402 0.978027 101.39
8.73375000 0.978027 101.41 0.208455 11.401 0.208455 11.401 0.978027 101.39
8.73380000 0.978027 101.41 0.208457 11.401 0.208457 11.401 0.978027 101.39
8.73385000 0.978026 101.41 0.208458 11.401 0.208458 11.401 0.978026 101.39
8.73390000 0.978026 101.41 0.208460 11.400 0.208460 11.400 0.978026 101.39
8.73395000 0.978026 101.41 0.208461 11.400 0.208461 11.400 0.978026 101.39
8.73400000 0.978025 101.41 0.208462 11.399 0.208462 11.399 0.978025 101.39
8.73405000 0.978025 101.40 0.208464 11.399 0.208464 11.399 0.978025 101.39
8.73410000 0.978025 101.40 0.208465 11.398 0.208465 11.398 0.978025 101.39
8.73415000 0.978024 101.40 0.208466 11.398 0.208466 11.398 0.978024 101.39
8.73420000 0.978024 101.40 0.208468 11.397 0.208468 11.397 0.978024 101.39
8.73425000 0.978024 101.40 0.208469 11.397 0.208469 11.397 0.978024 101.39
8.73430000 0.978024 101.40 0.208471 11.396 0.208471 11.396 0.978024 101.39
8.73435000 0.978023 101.40 0.208472 11.396 0.208472 11.396 0.978023 101.39
8.73440000 0.978023 101.40 0.208473 11.395 0.208473 11.395 0.978023 101.39
8.73445000 0.978023 101.40 0.208475 11.395 0.208475 11.395 0.978023 101.39
8.73450000 0.978022 101.40 0.208476 11.395 0.208476 11.395 0.978022 101.39
8.73455000 0.978022 101.40 0.208478 11.394 0.208478 11.394 0.978022 101.39
8.73460000 0.978022 101.40 0.208479 11.394 0.208479 11.394 0.978022 101.39
8.73465000 0.978022 101.40 0.208480 11.393 0.208480 11.393 0.978022 101.38
8.73470000 0.978021 101.40 0.208482 11.393 0.208482 11.393 0.978021 101.38
8.73475000 0.978021 101.40 0.208483 11.392 0.208483 11.392 0.978021 101.38
8.73480000 0.978021 101.40 0.208485 11.392 0.208485 11.392 0.978021 101.38
8.73485000 0.978020 101.40 0.208486 11.391 0.208486 11.391 0.978020 101.38
8.73490000 0.978020 101.40 0.208487 11.391 0.208487 11.391 0.978020 101.38
8.73495000 0.978020 101.40 0.208489 11.390 0.208489 11.390 0.978020 101.38
8.73500000 0.978019 101.40 0.208490 11.390 0.208490 11.390 0.978019 101.38
8.73505000 0.978019 101.40 0.208492 11.389 0.208492 11.389 0.978019 101.38
8.73510000 0.978019 101.40 0.208493 11.389 0.208493 11.389 0.978019 101.38
8.73515000 0.978019 101.39 0.208494 11.389 0.208494 11.389 0.978019 101.38
8.73520000 0.978018 101.39 0.208496 11.388 0.208496 11.388 0.978018 101.38
8.73525000 0.978018 101.39 0.208497 11.388 0.208497 11.388 0.978018 101.38
8.73530000 0.978018 101.39 0.208499 11.387 0.208499 11.387 0.978018 101.38
8.73535000 0.978017 101.39 0.208500 11.387 0.208500 11.387 0.978017 101.38
8.73540000 0.978017 101.39 0.208501 11.386 0.208501 11.386 0.978017 101.38
8.73545000 0.978017 101.39 0.208503 11.386 0.208503 11.386 0.978017 101.38
8.73550000 0.978016 101.39 0.208504 11.385 0.208504 11.385 0.978016 101.38
8.73555000 0.978016 101.39 0.208506 11.385 0.208506 11.385 0.978016 101.38
8.73560000 0.978016 101.39 0.208507 11.384 0.208507 11.384 0.978016 101.38
8.73565000 0.978016 101.39 0.208508 11.384 0.208508 11.384 0.978016 101.38
8.73570000 0.978015 101.39 0.208510 11.383 0.208510 11.383 0.978015 101.38
8.73575000 0.978015 101.39 0.208511 11.383 0.208511 11.383 0.978015 101.37
8.73580000 0.978015 101.39 0.208513 11.383 0.208513 11.383 0.978015 101.37
8.73585000 0.978014 101.39 0.208514 11.382 0.208514 11.382 0.978014 101.37
8.73590000 0.978014 101.39 0.208515 11.382 0.208515 11.382 0.978014 101.37
8.73595000 0.978014 101.39 0.208517 11.381 0.208517 11.381 0.978014 101.37
8.73600000 0.978013 101.39 0.208518 11.381 0.208518 11.381 0.978013 101.37
8.73605000 0.978013 101.39 0.208520 11.380 0.208520 11.380 0.978013 101.37
8.73610000 0.978013 101.39 0.208521 11.380 0.208521 11.380 0.978013 101.37
8.73615000 0.978013 101.39 0.208522 11.379 0.208522 11.379 0.978013 101.37
8.73620000 0.978012 101.38 0.208524 11.379 0.208524 11.379 0.978012 101.37
8.73625000 0.978012 101.38 0.208525 11.378 0.208525 11.378 0.978012 101.37
8.73630000 0.978012 101.38 0.208527 11.378 0.208527 11.378 0.978012 101.37
8.73635000 0.978011 101.38 0.208528 11.377 0.208528 11.377 0.978011 101.37
8.73640000 0.978011 101.38 0.208529 11.377 0.208529 11.377 0.978011 101.37
8.73645000 0.978011 101.38 0.208531 11.376 0.208531 11.376 0.978011 101.37
8.73650000 0.978010 101.38 0.208532 11.376 0.208532 11.376 0.978010 101.37
8.73655000 0.978010 101.38 0.208534 11.376 0.208534 11.376 0.978010 101.37
8.73660000 0.978010 101.38 0.208535 11.375 0.208535 11.375 0.978010 101.37
8.73665000 0.978010 101.38 0.208536 11.375 0.208536 11.375 0.978010 101.37
8.73670000 0.978009 101.38 0.208538 11.374 0.208538 11.374 0.978009 101.37
8.73675000 0.978009 101.38 0.208539 11.374 0.208539 11.374 0.978009 101.37
8.73680000 0.978009 101.38 0.208541 11.373 0.208541 11.373 0.978009 101.37
8.73685000 0.978008 101.38 0.208542 11.373 0.208542 11.373 0.978008 101.36
8.73690000 0.978008 101.38 0.208544 11.372 0.208544 11.372 0.978008 101.36
8.73695000 0.978008 101.38 0.208545 11.372 0.208545 11.372 0.978008 101.36
8.73700000 0.978007 101.38 0.208546 11.371 0.208546 11.371 0.978007 101.36
8.73705000 0.978007 101.38 0.208548 11.371 0.208548 11.371 0.978007 101.36
8.73710000 0.978007 101.38 0.208549 11.370 0.208549 11.370 0.978007 101.36
8.73715000 0.978007 101.38 0.208551 11.370 0.208551 11.370 0.978007 101.36
8.73720000 0.978006 101.38 0.208552 11.370 0.208552 11.370 0.978006 101.36
8.73725000 0.978006 101.38 0.208553 11.369 0.208553 11.369 0.978006 101.36
8.73730000 0.978006 101.37 0.208555 11.369 0.208555 11.369 0.978006 101.36
8.73735000 0.978005 101.37 0.208556 11.368 0.208556 11.368 0.978005 101.36
8.73740000 0.978005 101.37 0.208558 11.368 0.208558 11.368 0.978005 101.36
8.73745000 0.978005 101.37 0.208559 11.367 0.208559 11.367 0.978005 101.36
8.73750000 0.978004 101.37 0.208561 11.367 0.208561 11.367 0.978004 101.36
8.73755000 0.978004 101.37 0.208562 11.366 0.208562 11.366 0.978004 101.36
8.73760000 0.978004 101.37 0.208563 11.366 0.208563 11.366 0.978004 101.36
8.73765000 0.978003 101.37 0.208565 11.365 0.208565 11.365 0.978003 101.36
8.73770000 0.978003 101.37 0.208566 11.365 0.208566 11.365 0.978003 101.36
8.73775000 0.978003 101.37 0.208568 11.364 0.208568 11.364 0.978003 101.36
8.73780000 0.978003 101.37 0.208569 11.364 0.208569 11.364 0.978003 101.36
8.73785000 0.978002 101.37 0.208571 11.364 0.208571 11.364 0.978002 101.36
8.73790000 0.978002 101.37 0.208572 11.363 0.208572 11.363 0.978002 101.35
8.73795000 0.978002 101.37 0.208573 11.363 0.208573 11.363 0.978002 101.35
8.73800000 0.978001 101.37 0.208575 11.362 0.208575 11.362 0.978001 101.35
8.73805000 0.978001 101.37 0.208576 11.362 0.208576 11.362 0.978001 101.35
8.73810000 0.978001 101.37 0.208578 11.361 0.208578 11.361 0.978001 101.35
8.73815000 0.978000 101.37 0.208579 11.361 0.208579 11.361 0.978000 101.35
8.73820000 0.978000 101.37 0.208581 11.360 0.208581 11.360 0.978000 101.35
8.73825000 0.978000 101.37 0.208582 11.360 0.208582 11.360 0.978000 101.35
8.73830000 0.978000 101.37 0.208584 11.359 0.208584 11.359 0.978000 101.35
8.73835000 0.977999 101.37 0.208585 11.359 0.208585 11.359 0.977999 101.35
8.73840000 0.977999 101.36 0.208586 11.358 0.208586 11.358 0.977999 101.35
8.73845000 0.977999 101.36 0.208588 11.358 0.208588 11.358 0.977999 101.35
8.73850000 0.977998 101.36 0.208589 11.357 0.208589 11.357 0.977998 101.35
8.73855000 0.977998 101.36 0.208591 11.357 0.208591 11.357 0.977998 101.35
8.73860000 0.977998 101.36 0.208592 11.357 0.208592 11.357 0.977998 101.35
8.73865000 0.977997 101.36 0.208594 11.356 0.208594 11.356 0.977997 101.35
8.73870000 0.977997 101.36 0.208595 11.356 0.208595 11.356 0.977997 101.35
8.73875000 0.977997 101.36 0.208596 11.355 0.208596 11.355 0.977997 101.35
8.73880000 0.977996 101.36 0.208598 11.355 0.208598 11.355 0.977996 101.35
8.73885000 0.977996 101.36 0.208599 11.354 0.208599 11.354 0.977996 101.35
8.73890000 0.977996 101.36 0.208601 11.354 0.208601 11.354 0.977996 101.35
8.73895000 0.977996 101.36 0.208602 11.353 0.208602 11.353 0.977996 101.35
8.73900000 0.977995 101.36 0.208604 11.353 0.208604 11.353 0.977995 101.34
8.73905000 0.977995 101.36 0.208605 11.352 0.208605 11.352 0.977995 101.34
8.73910000 0.977995 101.36 0.208607 11.352 0.208607 11.352 0.977995 101.34
8.73915000 0.977994 101.36 0.208608 11.351 0.208608 11.351 0.977994 101.34
8.73920000 0.977994 101.36 0.208609 11.351 0.208609 11.351 0.977994 101.34
8.73925000 0.977994 101.36 0.208611 11.351 0.208611 11.351 0.977994 101.34
8.73930000 0.977993 101.36 0.208612 11.350 0.208612 11.350 0.977993 101.34
8.73935000 0.977993 101.36 0.208614 11.350 0.208614 11.350 0.977993 101.34
8.73940000 0.977993 101.36 0.208615 11.349 0.208615 11.349 0.977993 101.34
8.73945000 0.977992 101.35 0.208617 11.349 0.208617 11.349 0.977992 101.34
8.73950000 0.977992 101.35 0.208618 11.348 0.208618 11.348 0.977992 101.34
8.73955000 0.977992 101.35 0.208620 11.348 0.208620 11.348 0.977992 101.34
8.73960000 0.977991 101.35 0.208621 11.347 0.208621 11.347 0.977991 101.34