! Sonnet Data File
! From: emgraph Version : 16.52
! From Project: transmon_brgOdd
! Data is De-embedded 
! Data File Written: 11/11/2017 22:28:47
!< HDATE 11/11/2017 18:22:48
!< MDATE 11/11/2017 18:22:48
!< PARAMS
!< Lj = 15.24
!< Gap = 6.0
!< Width = 10.0
!< Airgap = 6.0
!< Pwidth = 2000.0
!< Dist = 1400.0
!< END PARAMS
# GHZ S MA R 34.67000
8.72000000 0.995160 125.99 0.098243 35.973 0.098243 35.973 0.995160 125.96
!< P1 F=8.72 Eeff=(5.13609477 -5.6761e-5) Z0=(34.6490765 -9.5162e-5) R=0.0 C=0.0 
!< P2 F=8.72 Eeff=(5.13609477 -5.6761e-5) Z0=(34.6490765 -9.5162e-5) R=0.0 C=0.0 
8.72005000 0.995160 125.99 0.098244 35.972 0.098244 35.972 0.995160 125.96
8.72010000 0.995160 125.99 0.098245 35.972 0.098245 35.972 0.995160 125.96
8.72015000 0.995160 125.98 0.098246 35.972 0.098246 35.972 0.995160 125.96
8.72020000 0.995160 125.98 0.098247 35.971 0.098247 35.971 0.995160 125.96
8.72025000 0.995159 125.98 0.098247 35.971 0.098247 35.971 0.995159 125.96
8.72030000 0.995159 125.98 0.098248 35.971 0.098248 35.971 0.995159 125.96
8.72035000 0.995159 125.98 0.098249 35.971 0.098249 35.971 0.995159 125.96
8.72040000 0.995159 125.98 0.098250 35.970 0.098250 35.970 0.995159 125.95
8.72045000 0.995159 125.98 0.098251 35.970 0.098251 35.970 0.995159 125.95
8.72050000 0.995159 125.98 0.098252 35.970 0.098252 35.970 0.995159 125.95
8.72055000 0.995159 125.98 0.098252 35.969 0.098252 35.969 0.995159 125.95
8.72060000 0.995159 125.98 0.098253 35.969 0.098253 35.969 0.995159 125.95
8.72065000 0.995159 125.98 0.098254 35.969 0.098254 35.969 0.995159 125.95
8.72070000 0.995159 125.98 0.098255 35.968 0.098255 35.968 0.995159 125.95
8.72075000 0.995159 125.98 0.098256 35.968 0.098256 35.968 0.995159 125.95
8.72080000 0.995159 125.98 0.098257 35.968 0.098257 35.968 0.995159 125.95
8.72085000 0.995158 125.98 0.098257 35.967 0.098257 35.967 0.995158 125.95
8.72090000 0.995158 125.98 0.098258 35.967 0.098258 35.967 0.995158 125.95
8.72095000 0.995158 125.98 0.098259 35.967 0.098259 35.967 0.995158 125.95
8.72100000 0.995158 125.98 0.098260 35.966 0.098260 35.966 0.995158 125.95
8.72105000 0.995158 125.98 0.098261 35.966 0.098261 35.966 0.995158 125.95
8.72110000 0.995158 125.98 0.098262 35.966 0.098262 35.966 0.995158 125.95
8.72115000 0.995158 125.98 0.098262 35.965 0.098262 35.965 0.995158 125.95
8.72120000 0.995158 125.98 0.098263 35.965 0.098263 35.965 0.995158 125.95
8.72125000 0.995158 125.98 0.098264 35.965 0.098264 35.965 0.995158 125.95
8.72130000 0.995158 125.98 0.098265 35.964 0.098265 35.964 0.995158 125.95
8.72135000 0.995158 125.98 0.098266 35.964 0.098266 35.964 0.995158 125.95
8.72140000 0.995158 125.98 0.098267 35.964 0.098267 35.964 0.995158 125.95
8.72145000 0.995157 125.98 0.098267 35.963 0.098267 35.963 0.995157 125.95
8.72150000 0.995157 125.98 0.098268 35.963 0.098268 35.963 0.995157 125.95
8.72155000 0.995157 125.98 0.098269 35.963 0.098269 35.963 0.995157 125.95
8.72160000 0.995157 125.98 0.098270 35.962 0.098270 35.962 0.995157 125.95
8.72165000 0.995157 125.98 0.098271 35.962 0.098271 35.962 0.995157 125.95
8.72170000 0.995157 125.97 0.098272 35.962 0.098272 35.962 0.995157 125.95
8.72175000 0.995157 125.97 0.098272 35.961 0.098272 35.961 0.995157 125.95
8.72180000 0.995157 125.97 0.098273 35.961 0.098273 35.961 0.995157 125.95
8.72185000 0.995157 125.97 0.098274 35.961 0.098274 35.961 0.995157 125.95
8.72190000 0.995157 125.97 0.098275 35.960 0.098275 35.960 0.995157 125.95
8.72195000 0.995157 125.97 0.098276 35.960 0.098276 35.960 0.995157 125.94
8.72200000 0.995157 125.97 0.098277 35.960 0.098277 35.960 0.995157 125.94
8.72205000 0.995156 125.97 0.098277 35.959 0.098277 35.959 0.995156 125.94
8.72210000 0.995156 125.97 0.098278 35.959 0.098278 35.959 0.995156 125.94
8.72215000 0.995156 125.97 0.098279 35.959 0.098279 35.959 0.995156 125.94
8.72220000 0.995156 125.97 0.098280 35.959 0.098280 35.959 0.995156 125.94
8.72225000 0.995156 125.97 0.098281 35.958 0.098281 35.958 0.995156 125.94
8.72230000 0.995156 125.97 0.098282 35.958 0.098282 35.958 0.995156 125.94
8.72235000 0.995156 125.97 0.098282 35.958 0.098282 35.958 0.995156 125.94
8.72240000 0.995156 125.97 0.098283 35.957 0.098283 35.957 0.995156 125.94
8.72245000 0.995156 125.97 0.098284 35.957 0.098284 35.957 0.995156 125.94
8.72250000 0.995156 125.97 0.098285 35.957 0.098285 35.957 0.995156 125.94
8.72255000 0.995156 125.97 0.098286 35.956 0.098286 35.956 0.995156 125.94
8.72260000 0.995156 125.97 0.098287 35.956 0.098287 35.956 0.995156 125.94
8.72265000 0.995155 125.97 0.098288 35.956 0.098288 35.956 0.995155 125.94
8.72270000 0.995155 125.97 0.098288 35.955 0.098288 35.955 0.995155 125.94
8.72275000 0.995155 125.97 0.098289 35.955 0.098289 35.955 0.995155 125.94
8.72280000 0.995155 125.97 0.098290 35.955 0.098290 35.955 0.995155 125.94
8.72285000 0.995155 125.97 0.098291 35.954 0.098291 35.954 0.995155 125.94
8.72290000 0.995155 125.97 0.098292 35.954 0.098292 35.954 0.995155 125.94
8.72295000 0.995155 125.97 0.098293 35.954 0.098293 35.954 0.995155 125.94
8.72300000 0.995155 125.97 0.098293 35.953 0.098293 35.953 0.995155 125.94
8.72305000 0.995155 125.97 0.098294 35.953 0.098294 35.953 0.995155 125.94
8.72310000 0.995155 125.97 0.098295 35.953 0.098295 35.953 0.995155 125.94
8.72315000 0.995155 125.97 0.098296 35.952 0.098296 35.952 0.995155 125.94
8.72320000 0.995155 125.97 0.098297 35.952 0.098297 35.952 0.995155 125.94
8.72325000 0.995154 125.96 0.098298 35.952 0.098298 35.952 0.995154 125.94
8.72330000 0.995154 125.96 0.098298 35.951 0.098298 35.951 0.995154 125.94
8.72335000 0.995154 125.96 0.098299 35.951 0.098299 35.951 0.995154 125.94
8.72340000 0.995154 125.96 0.098300 35.951 0.098300 35.951 0.995154 125.94
8.72345000 0.995154 125.96 0.098301 35.950 0.098301 35.950 0.995154 125.93
8.72350000 0.995154 125.96 0.098302 35.950 0.098302 35.950 0.995154 125.93
8.72355000 0.995154 125.96 0.098303 35.950 0.098303 35.950 0.995154 125.93
8.72360000 0.995154 125.96 0.098304 35.949 0.098304 35.949 0.995154 125.93
8.72365000 0.995154 125.96 0.098304 35.949 0.098304 35.949 0.995154 125.93
8.72370000 0.995154 125.96 0.098305 35.949 0.098305 35.949 0.995154 125.93
8.72375000 0.995154 125.96 0.098306 35.948 0.098306 35.948 0.995154 125.93
8.72380000 0.995154 125.96 0.098307 35.948 0.098307 35.948 0.995154 125.93
8.72385000 0.995153 125.96 0.098308 35.948 0.098308 35.948 0.995153 125.93
8.72390000 0.995153 125.96 0.098309 35.947 0.098309 35.947 0.995153 125.93
8.72395000 0.995153 125.96 0.098309 35.947 0.098309 35.947 0.995153 125.93
8.72400000 0.995153 125.96 0.098310 35.947 0.098310 35.947 0.995153 125.93
8.72405000 0.995153 125.96 0.098311 35.946 0.098311 35.946 0.995153 125.93
8.72410000 0.995153 125.96 0.098312 35.946 0.098312 35.946 0.995153 125.93
8.72415000 0.995153 125.96 0.098313 35.946 0.098313 35.946 0.995153 125.93
8.72420000 0.995153 125.96 0.098314 35.946 0.098314 35.946 0.995153 125.93
8.72425000 0.995153 125.96 0.098315 35.945 0.098315 35.945 0.995153 125.93
8.72430000 0.995153 125.96 0.098315 35.945 0.098315 35.945 0.995153 125.93
8.72435000 0.995153 125.96 0.098316 35.945 0.098316 35.945 0.995153 125.93
8.72440000 0.995153 125.96 0.098317 35.944 0.098317 35.944 0.995153 125.93
8.72445000 0.995152 125.96 0.098318 35.944 0.098318 35.944 0.995152 125.93
8.72450000 0.995152 125.96 0.098319 35.944 0.098319 35.944 0.995152 125.93
8.72455000 0.995152 125.96 0.098320 35.943 0.098320 35.943 0.995152 125.93
8.72460000 0.995152 125.96 0.098320 35.943 0.098320 35.943 0.995152 125.93
8.72465000 0.995152 125.96 0.098321 35.943 0.098321 35.943 0.995152 125.93
8.72470000 0.995152 125.96 0.098322 35.942 0.098322 35.942 0.995152 125.93
8.72475000 0.995152 125.96 0.098323 35.942 0.098323 35.942 0.995152 125.93
8.72480000 0.995152 125.95 0.098324 35.942 0.098324 35.942 0.995152 125.93
8.72485000 0.995152 125.95 0.098325 35.941 0.098325 35.941 0.995152 125.93
8.72490000 0.995152 125.95 0.098326 35.941 0.098326 35.941 0.995152 125.93
8.72495000 0.995152 125.95 0.098326 35.941 0.098326 35.941 0.995152 125.93
8.72500000 0.995152 125.95 0.098327 35.940 0.098327 35.940 0.995152 125.92
8.72505000 0.995151 125.95 0.098328 35.940 0.098328 35.940 0.995151 125.92
8.72510000 0.995151 125.95 0.098329 35.940 0.098329 35.940 0.995151 125.92
8.72515000 0.995151 125.95 0.098330 35.939 0.098330 35.939 0.995151 125.92
8.72520000 0.995151 125.95 0.098331 35.939 0.098331 35.939 0.995151 125.92
8.72525000 0.995151 125.95 0.098332 35.939 0.098332 35.939 0.995151 125.92
8.72530000 0.995151 125.95 0.098332 35.938 0.098332 35.938 0.995151 125.92
8.72535000 0.995151 125.95 0.098333 35.938 0.098333 35.938 0.995151 125.92
8.72540000 0.995151 125.95 0.098334 35.938 0.098334 35.938 0.995151 125.92
8.72545000 0.995151 125.95 0.098335 35.937 0.098335 35.937 0.995151 125.92
8.72550000 0.995151 125.95 0.098336 35.937 0.098336 35.937 0.995151 125.92
8.72555000 0.995151 125.95 0.098337 35.937 0.098337 35.937 0.995151 125.92
8.72560000 0.995151 125.95 0.098338 35.936 0.098338 35.936 0.995151 125.92
8.72565000 0.995150 125.95 0.098338 35.936 0.098338 35.936 0.995150 125.92
8.72570000 0.995150 125.95 0.098339 35.936 0.098339 35.936 0.995150 125.92
8.72575000 0.995150 125.95 0.098340 35.935 0.098340 35.935 0.995150 125.92
8.72580000 0.995150 125.95 0.098341 35.935 0.098341 35.935 0.995150 125.92
8.72585000 0.995150 125.95 0.098342 35.935 0.098342 35.935 0.995150 125.92
8.72590000 0.995150 125.95 0.098343 35.934 0.098343 35.934 0.995150 125.92
8.72595000 0.995150 125.95 0.098344 35.934 0.098344 35.934 0.995150 125.92
8.72600000 0.995150 125.95 0.098344 35.934 0.098344 35.934 0.995150 125.92
8.72605000 0.995150 125.95 0.098345 35.933 0.098345 35.933 0.995150 125.92
8.72610000 0.995150 125.95 0.098346 35.933 0.098346 35.933 0.995150 125.92
8.72615000 0.995150 125.95 0.098347 35.933 0.098347 35.933 0.995150 125.92
8.72620000 0.995149 125.95 0.098348 35.932 0.098348 35.932 0.995149 125.92
8.72625000 0.995149 125.95 0.098349 35.932 0.098349 35.932 0.995149 125.92
8.72630000 0.995149 125.94 0.098350 35.932 0.098350 35.932 0.995149 125.92
8.72635000 0.995149 125.94 0.098350 35.932 0.098350 35.932 0.995149 125.92
8.72640000 0.995149 125.94 0.098351 35.931 0.098351 35.931 0.995149 125.92
8.72645000 0.995149 125.94 0.098352 35.931 0.098352 35.931 0.995149 125.92
8.72650000 0.995149 125.94 0.098353 35.931 0.098353 35.931 0.995149 125.92
8.72655000 0.995149 125.94 0.098354 35.930 0.098354 35.930 0.995149 125.91
8.72660000 0.995149 125.94 0.098355 35.930 0.098355 35.930 0.995149 125.91
8.72665000 0.995149 125.94 0.098356 35.930 0.098356 35.930 0.995149 125.91
8.72670000 0.995149 125.94 0.098356 35.929 0.098356 35.929 0.995149 125.91
8.72675000 0.995149 125.94 0.098357 35.929 0.098357 35.929 0.995149 125.91
8.72680000 0.995148 125.94 0.098358 35.929 0.098358 35.929 0.995148 125.91
8.72685000 0.995148 125.94 0.098359 35.928 0.098359 35.928 0.995148 125.91
8.72690000 0.995148 125.94 0.098360 35.928 0.098360 35.928 0.995148 125.91
8.72695000 0.995148 125.94 0.098361 35.928 0.098361 35.928 0.995148 125.91
8.72700000 0.995148 125.94 0.098362 35.927 0.098362 35.927 0.995148 125.91
8.72705000 0.995148 125.94 0.098362 35.927 0.098362 35.927 0.995148 125.91
8.72710000 0.995148 125.94 0.098363 35.927 0.098363 35.927 0.995148 125.91
8.72715000 0.995148 125.94 0.098364 35.926 0.098364 35.926 0.995148 125.91
8.72720000 0.995148 125.94 0.098365 35.926 0.098365 35.926 0.995148 125.91
8.72725000 0.995148 125.94 0.098366 35.926 0.098366 35.926 0.995148 125.91
8.72730000 0.995148 125.94 0.098367 35.925 0.098367 35.925 0.995148 125.91
8.72735000 0.995148 125.94 0.098368 35.925 0.098368 35.925 0.995148 125.91
8.72740000 0.995147 125.94 0.098368 35.925 0.098368 35.925 0.995147 125.91
8.72745000 0.995147 125.94 0.098369 35.924 0.098369 35.924 0.995147 125.91
8.72750000 0.995147 125.94 0.098370 35.924 0.098370 35.924 0.995147 125.91
8.72755000 0.995147 125.94 0.098371 35.924 0.098371 35.924 0.995147 125.91
8.72760000 0.995147 125.94 0.098372 35.923 0.098372 35.923 0.995147 125.91
8.72765000 0.995147 125.94 0.098373 35.923 0.098373 35.923 0.995147 125.91
8.72770000 0.995147 125.94 0.098374 35.923 0.098374 35.923 0.995147 125.91
8.72775000 0.995147 125.94 0.098375 35.922 0.098375 35.922 0.995147 125.91
8.72780000 0.995147 125.94 0.098375 35.922 0.098375 35.922 0.995147 125.91
8.72785000 0.995147 125.93 0.098376 35.922 0.098376 35.922 0.995147 125.91
8.72790000 0.995147 125.93 0.098377 35.921 0.098377 35.921 0.995147 125.91
8.72795000 0.995147 125.93 0.098378 35.921 0.098378 35.921 0.995147 125.91
8.72800000 0.995146 125.93 0.098379 35.921 0.098379 35.921 0.995146 125.91
8.72805000 0.995146 125.93 0.098380 35.920 0.098380 35.920 0.995146 125.90
8.72810000 0.995146 125.93 0.098381 35.920 0.098381 35.920 0.995146 125.90
8.72815000 0.995146 125.93 0.098381 35.920 0.098381 35.920 0.995146 125.90
8.72820000 0.995146 125.93 0.098382 35.919 0.098382 35.919 0.995146 125.90
8.72825000 0.995146 125.93 0.098383 35.919 0.098383 35.919 0.995146 125.90
8.72830000 0.995146 125.93 0.098384 35.919 0.098384 35.919 0.995146 125.90
8.72835000 0.995146 125.93 0.098385 35.918 0.098385 35.918 0.995146 125.90
8.72840000 0.995146 125.93 0.098386 35.918 0.098386 35.918 0.995146 125.90
8.72845000 0.995146 125.93 0.098387 35.918 0.098387 35.918 0.995146 125.90
8.72850000 0.995146 125.93 0.098388 35.917 0.098388 35.917 0.995146 125.90
8.72855000 0.995145 125.93 0.098388 35.917 0.098388 35.917 0.995145 125.90
8.72860000 0.995145 125.93 0.098389 35.917 0.098389 35.917 0.995145 125.90
8.72865000 0.995145 125.93 0.098390 35.916 0.098390 35.916 0.995145 125.90
8.72870000 0.995145 125.93 0.098391 35.916 0.098391 35.916 0.995145 125.90
8.72875000 0.995145 125.93 0.098392 35.916 0.098392 35.916 0.995145 125.90
8.72880000 0.995145 125.93 0.098393 35.916 0.098393 35.916 0.995145 125.90
8.72885000 0.995145 125.93 0.098394 35.915 0.098394 35.915 0.995145 125.90
8.72890000 0.995145 125.93 0.098395 35.915 0.098395 35.915 0.995145 125.90
8.72895000 0.995145 125.93 0.098395 35.915 0.098395 35.915 0.995145 125.90
8.72900000 0.995145 125.93 0.098396 35.914 0.098396 35.914 0.995145 125.90
8.72905000 0.995145 125.93 0.098397 35.914 0.098397 35.914 0.995145 125.90
8.72910000 0.995145 125.93 0.098398 35.914 0.098398 35.914 0.995145 125.90
8.72915000 0.995144 125.93 0.098399 35.913 0.098399 35.913 0.995144 125.90
8.72920000 0.995144 125.93 0.098400 35.913 0.098400 35.913 0.995144 125.90
8.72925000 0.995144 125.93 0.098401 35.913 0.098401 35.913 0.995144 125.90
8.72930000 0.995144 125.93 0.098401 35.912 0.098401 35.912 0.995144 125.90
8.72935000 0.995144 125.92 0.098402 35.912 0.098402 35.912 0.995144 125.90
8.72940000 0.995144 125.92 0.098403 35.912 0.098403 35.912 0.995144 125.90
8.72945000 0.995144 125.92 0.098404 35.911 0.098404 35.911 0.995144 125.90
8.72950000 0.995144 125.92 0.098405 35.911 0.098405 35.911 0.995144 125.90
8.72955000 0.995144 125.92 0.098406 35.911 0.098406 35.911 0.995144 125.90
8.72960000 0.995144 125.92 0.098407 35.910 0.098407 35.910 0.995144 125.89
8.72965000 0.995144 125.92 0.098408 35.910 0.098408 35.910 0.995144 125.89
8.72970000 0.995143 125.92 0.098409 35.910 0.098409 35.910 0.995143 125.89
8.72975000 0.995143 125.92 0.098409 35.909 0.098409 35.909 0.995143 125.89
8.72980000 0.995143 125.92 0.098410 35.909 0.098410 35.909 0.995143 125.89
8.72985000 0.995143 125.92 0.098411 35.909 0.098411 35.909 0.995143 125.89
8.72990000 0.995143 125.92 0.098412 35.908 0.098412 35.908 0.995143 125.89
8.72995000 0.995143 125.92 0.098413 35.908 0.098413 35.908 0.995143 125.89
8.73000000 0.995143 125.92 0.098414 35.908 0.098414 35.908 0.995143 125.89
8.73005000 0.995143 125.92 0.098415 35.907 0.098415 35.907 0.995143 125.89
8.73010000 0.995143 125.92 0.098416 35.907 0.098416 35.907 0.995143 125.89
8.73015000 0.995143 125.92 0.098416 35.907 0.098416 35.907 0.995143 125.89
8.73020000 0.995143 125.92 0.098417 35.906 0.098417 35.906 0.995143 125.89
8.73025000 0.995143 125.92 0.098418 35.906 0.098418 35.906 0.995143 125.89
8.73030000 0.995142 125.92 0.098419 35.906 0.098419 35.906 0.995142 125.89
8.73035000 0.995142 125.92 0.098420 35.905 0.098420 35.905 0.995142 125.89
8.73040000 0.995142 125.92 0.098421 35.905 0.098421 35.905 0.995142 125.89
8.73045000 0.995142 125.92 0.098422 35.905 0.098422 35.905 0.995142 125.89
8.73050000 0.995142 125.92 0.098423 35.904 0.098423 35.904 0.995142 125.89
8.73055000 0.995142 125.92 0.098423 35.904 0.098423 35.904 0.995142 125.89
8.73060000 0.995142 125.92 0.098424 35.904 0.098424 35.904 0.995142 125.89
8.73065000 0.995142 125.92 0.098425 35.903 0.098425 35.903 0.995142 125.89
8.73070000 0.995142 125.92 0.098426 35.903 0.098426 35.903 0.995142 125.89
8.73075000 0.995142 125.92 0.098427 35.903 0.098427 35.903 0.995142 125.89
8.73080000 0.995142 125.92 0.098428 35.902 0.098428 35.902 0.995142 125.89
8.73085000 0.995141 125.92 0.098429 35.902 0.098429 35.902 0.995141 125.89
8.73090000 0.995141 125.91 0.098430 35.902 0.098430 35.902 0.995141 125.89
8.73095000 0.995141 125.91 0.098431 35.901 0.098431 35.901 0.995141 125.89
8.73100000 0.995141 125.91 0.098431 35.901 0.098431 35.901 0.995141 125.89
8.73105000 0.995141 125.91 0.098432 35.901 0.098432 35.901 0.995141 125.89
8.73110000 0.995141 125.91 0.098433 35.900 0.098433 35.900 0.995141 125.89
8.73115000 0.995141 125.91 0.098434 35.900 0.098434 35.900 0.995141 125.88
8.73120000 0.995141 125.91 0.098435 35.900 0.098435 35.900 0.995141 125.88
8.73125000 0.995141 125.91 0.098436 35.899 0.098436 35.899 0.995141 125.88
8.73130000 0.995141 125.91 0.098437 35.899 0.098437 35.899 0.995141 125.88
8.73135000 0.995141 125.91 0.098438 35.899 0.098438 35.899 0.995141 125.88
8.73140000 0.995141 125.91 0.098439 35.898 0.098439 35.898 0.995141 125.88
8.73145000 0.995140 125.91 0.098439 35.898 0.098439 35.898 0.995140 125.88
8.73150000 0.995140 125.91 0.098440 35.898 0.098440 35.898 0.995140 125.88
8.73155000 0.995140 125.91 0.098441 35.898 0.098441 35.898 0.995140 125.88
8.73160000 0.995140 125.91 0.098442 35.897 0.098442 35.897 0.995140 125.88
8.73165000 0.995140 125.91 0.098443 35.897 0.098443 35.897 0.995140 125.88
8.73170000 0.995140 125.91 0.098444 35.897 0.098444 35.897 0.995140 125.88
8.73175000 0.995140 125.91 0.098445 35.896 0.098445 35.896 0.995140 125.88
8.73180000 0.995140 125.91 0.098446 35.896 0.098446 35.896 0.995140 125.88
8.73185000 0.995140 125.91 0.098447 35.896 0.098447 35.896 0.995140 125.88
8.73190000 0.995140 125.91 0.098447 35.895 0.098447 35.895 0.995140 125.88
8.73195000 0.995140 125.91 0.098448 35.895 0.098448 35.895 0.995140 125.88
8.73200000 0.995139 125.91 0.098449 35.895 0.098449 35.895 0.995139 125.88
8.73205000 0.995139 125.91 0.098450 35.894 0.098450 35.894 0.995139 125.88
8.73210000 0.995139 125.91 0.098451 35.894 0.098451 35.894 0.995139 125.88
8.73215000 0.995139 125.91 0.098452 35.894 0.098452 35.894 0.995139 125.88
8.73220000 0.995139 125.91 0.098453 35.893 0.098453 35.893 0.995139 125.88
8.73225000 0.995139 125.91 0.098454 35.893 0.098454 35.893 0.995139 125.88
8.73230000 0.995139 125.91 0.098455 35.893 0.098455 35.893 0.995139 125.88
8.73235000 0.995139 125.91 0.098455 35.892 0.098455 35.892 0.995139 125.88
8.73240000 0.995139 125.91 0.098456 35.892 0.098456 35.892 0.995139 125.88
8.73245000 0.995139 125.90 0.098457 35.892 0.098457 35.892 0.995139 125.88
8.73250000 0.995139 125.90 0.098458 35.891 0.098458 35.891 0.995139 125.88
8.73255000 0.995138 125.90 0.098459 35.891 0.098459 35.891 0.995138 125.88
8.73260000 0.995138 125.90 0.098460 35.891 0.098460 35.891 0.995138 125.88
8.73265000 0.995138 125.90 0.098461 35.890 0.098461 35.890 0.995138 125.87
8.73270000 0.995138 125.90 0.098462 35.890 0.098462 35.890 0.995138 125.87
8.73275000 0.995138 125.90 0.098463 35.890 0.098463 35.890 0.995138 125.87
8.73280000 0.995138 125.90 0.098463 35.889 0.098463 35.889 0.995138 125.87
8.73285000 0.995138 125.90 0.098464 35.889 0.098464 35.889 0.995138 125.87
8.73290000 0.995138 125.90 0.098465 35.889 0.098465 35.889 0.995138 125.87
8.73295000 0.995138 125.90 0.098466 35.888 0.098466 35.888 0.995138 125.87
8.73300000 0.995138 125.90 0.098467 35.888 0.098467 35.888 0.995138 125.87
8.73305000 0.995138 125.90 0.098468 35.888 0.098468 35.888 0.995138 125.87
8.73310000 0.995137 125.90 0.098469 35.887 0.098469 35.887 0.995137 125.87
8.73315000 0.995137 125.90 0.098470 35.887 0.098470 35.887 0.995137 125.87
8.73320000 0.995137 125.90 0.098471 35.887 0.098471 35.887 0.995137 125.87
8.73325000 0.995137 125.90 0.098472 35.886 0.098472 35.886 0.995137 125.87
8.73330000 0.995137 125.90 0.098472 35.886 0.098472 35.886 0.995137 125.87
8.73335000 0.995137 125.90 0.098473 35.886 0.098473 35.886 0.995137 125.87
8.73340000 0.995137 125.90 0.098474 35.885 0.098474 35.885 0.995137 125.87
8.73345000 0.995137 125.90 0.098475 35.885 0.098475 35.885 0.995137 125.87
8.73350000 0.995137 125.90 0.098476 35.885 0.098476 35.885 0.995137 125.87
8.73355000 0.995137 125.90 0.098477 35.884 0.098477 35.884 0.995137 125.87
8.73360000 0.995137 125.90 0.098478 35.884 0.098478 35.884 0.995137 125.87
8.73365000 0.995137 125.90 0.098479 35.884 0.098479 35.884 0.995137 125.87
8.73370000 0.995136 125.90 0.098480 35.883 0.098480 35.883 0.995136 125.87
8.73375000 0.995136 125.90 0.098481 35.883 0.098481 35.883 0.995136 125.87
8.73380000 0.995136 125.90 0.098482 35.883 0.098482 35.883 0.995136 125.87
8.73385000 0.995136 125.90 0.098482 35.882 0.098482 35.882 0.995136 125.87
8.73390000 0.995136 125.90 0.098483 35.882 0.098483 35.882 0.995136 125.87
8.73395000 0.995136 125.89 0.098484 35.882 0.098484 35.882 0.995136 125.87
8.73400000 0.995136 125.89 0.098485 35.881 0.098485 35.881 0.995136 125.87
8.73405000 0.995136 125.89 0.098486 35.881 0.098486 35.881 0.995136 125.87
8.73410000 0.995136 125.89 0.098487 35.881 0.098487 35.881 0.995136 125.87
8.73415000 0.995136 125.89 0.098488 35.880 0.098488 35.880 0.995136 125.87
8.73420000 0.995136 125.89 0.098489 35.880 0.098489 35.880 0.995136 125.86
8.73425000 0.995135 125.89 0.098490 35.880 0.098490 35.880 0.995135 125.86
8.73430000 0.995135 125.89 0.098491 35.879 0.098491 35.879 0.995135 125.86
8.73435000 0.995135 125.89 0.098491 35.879 0.098491 35.879 0.995135 125.86
8.73440000 0.995135 125.89 0.098492 35.879 0.098492 35.879 0.995135 125.86
8.73445000 0.995135 125.89 0.098493 35.878 0.098493 35.878 0.995135 125.86
8.73450000 0.995135 125.89 0.098494 35.878 0.098494 35.878 0.995135 125.86
8.73455000 0.995135 125.89 0.098495 35.878 0.098495 35.878 0.995135 125.86
8.73460000 0.995135 125.89 0.098496 35.877 0.098496 35.877 0.995135 125.86
8.73465000 0.995135 125.89 0.098497 35.877 0.098497 35.877 0.995135 125.86
8.73470000 0.995135 125.89 0.098498 35.877 0.098498 35.877 0.995135 125.86
8.73475000 0.995135 125.89 0.098499 35.876 0.098499 35.876 0.995135 125.86
8.73480000 0.995134 125.89 0.098500 35.876 0.098500 35.876 0.995134 125.86
8.73485000 0.995134 125.89 0.098501 35.876 0.098501 35.876 0.995134 125.86
8.73490000 0.995134 125.89 0.098501 35.876 0.098501 35.876 0.995134 125.86
8.73495000 0.995134 125.89 0.098502 35.875 0.098502 35.875 0.995134 125.86
8.73500000 0.995134 125.89 0.098503 35.875 0.098503 35.875 0.995134 125.86
8.73505000 0.995134 125.89 0.098504 35.875 0.098504 35.875 0.995134 125.86
8.73510000 0.995134 125.89 0.098505 35.874 0.098505 35.874 0.995134 125.86
8.73515000 0.995134 125.89 0.098506 35.874 0.098506 35.874 0.995134 125.86
8.73520000 0.995134 125.89 0.098507 35.874 0.098507 35.874 0.995134 125.86
8.73525000 0.995134 125.89 0.098508 35.873 0.098508 35.873 0.995134 125.86
8.73530000 0.995134 125.89 0.098509 35.873 0.098509 35.873 0.995134 125.86
8.73535000 0.995133 125.89 0.098510 35.873 0.098510 35.873 0.995133 125.86
8.73540000 0.995133 125.89 0.098511 35.872 0.098511 35.872 0.995133 125.86
8.73545000 0.995133 125.88 0.098512 35.872 0.098512 35.872 0.995133 125.86
8.73550000 0.995133 125.88 0.098512 35.872 0.098512 35.872 0.995133 125.86
8.73555000 0.995133 125.88 0.098513 35.871 0.098513 35.871 0.995133 125.86
8.73560000 0.995133 125.88 0.098514 35.871 0.098514 35.871 0.995133 125.86
8.73565000 0.995133 125.88 0.098515 35.871 0.098515 35.871 0.995133 125.86
8.73570000 0.995133 125.88 0.098516 35.870 0.098516 35.870 0.995133 125.85
8.73575000 0.995133 125.88 0.098517 35.870 0.098517 35.870 0.995133 125.85
8.73580000 0.995133 125.88 0.098518 35.870 0.098518 35.870 0.995133 125.85
8.73585000 0.995133 125.88 0.098519 35.869 0.098519 35.869 0.995133 125.85
8.73590000 0.995132 125.88 0.098520 35.869 0.098520 35.869 0.995132 125.85
8.73595000 0.995132 125.88 0.098521 35.869 0.098521 35.869 0.995132 125.85
8.73600000 0.995132 125.88 0.098522 35.868 0.098522 35.868 0.995132 125.85
8.73605000 0.995132 125.88 0.098523 35.868 0.098523 35.868 0.995132 125.85
8.73610000 0.995132 125.88 0.098523 35.868 0.098523 35.868 0.995132 125.85
8.73615000 0.995132 125.88 0.098524 35.867 0.098524 35.867 0.995132 125.85
8.73620000 0.995132 125.88 0.098525 35.867 0.098525 35.867 0.995132 125.85
8.73625000 0.995132 125.88 0.098526 35.867 0.098526 35.867 0.995132 125.85
8.73630000 0.995132 125.88 0.098527 35.866 0.098527 35.866 0.995132 125.85
8.73635000 0.995132 125.88 0.098528 35.866 0.098528 35.866 0.995132 125.85
8.73640000 0.995132 125.88 0.098529 35.866 0.098529 35.866 0.995132 125.85
8.73645000 0.995131 125.88 0.098530 35.865 0.098530 35.865 0.995131 125.85
8.73650000 0.995131 125.88 0.098531 35.865 0.098531 35.865 0.995131 125.85
8.73655000 0.995131 125.88 0.098532 35.865 0.098532 35.865 0.995131 125.85
8.73660000 0.995131 125.88 0.098533 35.864 0.098533 35.864 0.995131 125.85
8.73665000 0.995131 125.88 0.098534 35.864 0.098534 35.864 0.995131 125.85
8.73670000 0.995131 125.88 0.098535 35.864 0.098535 35.864 0.995131 125.85
8.73675000 0.995131 125.88 0.098536 35.863 0.098536 35.863 0.995131 125.85
8.73680000 0.995131 125.88 0.098536 35.863 0.098536 35.863 0.995131 125.85
8.73685000 0.995131 125.88 0.098537 35.863 0.098537 35.863 0.995131 125.85
8.73690000 0.995131 125.88 0.098538 35.862 0.098538 35.862 0.995131 125.85
8.73695000 0.995131 125.88 0.098539 35.862 0.098539 35.862 0.995131 125.85
8.73700000 0.995130 125.87 0.098540 35.862 0.098540 35.862 0.995130 125.85
8.73705000 0.995130 125.87 0.098541 35.861 0.098541 35.861 0.995130 125.85
8.73710000 0.995130 125.87 0.098542 35.861 0.098542 35.861 0.995130 125.85
8.73715000 0.995130 125.87 0.098543 35.861 0.098543 35.861 0.995130 125.85
8.73720000 0.995130 125.87 0.098544 35.860 0.098544 35.860 0.995130 125.84
8.73725000 0.995130 125.87 0.098545 35.860 0.098545 35.860 0.995130 125.84
8.73730000 0.995130 125.87 0.098546 35.860 0.098546 35.860 0.995130 125.84
8.73735000 0.995130 125.87 0.098547 35.859 0.098547 35.859 0.995130 125.84
8.73740000 0.995130 125.87 0.098548 35.859 0.098548 35.859 0.995130 125.84
8.73745000 0.995130 125.87 0.098549 35.859 0.098549 35.859 0.995130 125.84
8.73750000 0.995130 125.87 0.098549 35.858 0.098549 35.858 0.995129 125.84
8.73755000 0.995129 125.87 0.098550 35.858 0.098550 35.858 0.995129 125.84
8.73760000 0.995129 125.87 0.098551 35.858 0.098551 35.858 0.995129 125.84
8.73765000 0.995129 125.87 0.098552 35.857 0.098552 35.857 0.995129 125.84
8.73770000 0.995129 125.87 0.098553 35.857 0.098553 35.857 0.995129 125.84
8.73775000 0.995129 125.87 0.098554 35.857 0.098554 35.857 0.995129 125.84
8.73780000 0.995129 125.87 0.098555 35.856 0.098555 35.856 0.995129 125.84
8.73785000 0.995129 125.87 0.098556 35.856 0.098556 35.856 0.995129 125.84
8.73790000 0.995129 125.87 0.098557 35.856 0.098557 35.856 0.995129 125.84
8.73795000 0.995129 125.87 0.098558 35.855 0.098558 35.855 0.995129 125.84
8.73800000 0.995129 125.87 0.098559 35.855 0.098559 35.855 0.995129 125.84
8.73805000 0.995128 125.87 0.098560 35.855 0.098560 35.855 0.995128 125.84
8.73810000 0.995128 125.87 0.098561 35.854 0.098561 35.854 0.995128 125.84
8.73815000 0.995128 125.87 0.098562 35.854 0.098562 35.854 0.995128 125.84
8.73820000 0.995128 125.87 0.098563 35.854 0.098563 35.854 0.995128 125.84
8.73825000 0.995128 125.87 0.098564 35.853 0.098564 35.853 0.995128 125.84
8.73830000 0.995128 125.87 0.098564 35.853 0.098564 35.853 0.995128 125.84
8.73835000 0.995128 125.87 0.098565 35.853 0.098565 35.853 0.995128 125.84
8.73840000 0.995128 125.87 0.098566 35.852 0.098566 35.852 0.995128 125.84
8.73845000 0.995128 125.87 0.098567 35.852 0.098567 35.852 0.995128 125.84
8.73850000 0.995128 125.86 0.098568 35.852 0.098568 35.852 0.995128 125.84
8.73855000 0.995128 125.86 0.098569 35.851 0.098569 35.851 0.995128 125.84
8.73860000 0.995127 125.86 0.098570 35.851 0.098570 35.851 0.995127 125.84
8.73865000 0.995127 125.86 0.098571 35.851 0.098571 35.851 0.995127 125.84
8.73870000 0.995127 125.86 0.098572 35.850 0.098572 35.850 0.995127 125.84
8.73875000 0.995127 125.86 0.098573 35.850 0.098573 35.850 0.995127 125.83
8.73880000 0.995127 125.86 0.098574 35.850 0.098574 35.850 0.995127 125.83
8.73885000 0.995127 125.86 0.098575 35.849 0.098575 35.849 0.995127 125.83
8.73890000 0.995127 125.86 0.098576 35.849 0.098576 35.849 0.995127 125.83
8.73895000 0.995127 125.86 0.098577 35.849 0.098577 35.849 0.995127 125.83
8.73900000 0.995127 125.86 0.098578 35.848 0.098578 35.848 0.995127 125.83
8.73905000 0.995127 125.86 0.098579 35.848 0.098579 35.848 0.995127 125.83
8.73910000 0.995127 125.86 0.098580 35.848 0.098580 35.848 0.995127 125.83
8.73915000 0.995126 125.86 0.098580 35.847 0.098580 35.847 0.995126 125.83
8.73920000 0.995126 125.86 0.098581 35.847 0.098581 35.847 0.995126 125.83
8.73925000 0.995126 125.86 0.098582 35.847 0.098582 35.847 0.995126 125.83
8.73930000 0.995126 125.86 0.098583 35.846 0.098583 35.846 0.995126 125.83
8.73935000 0.995126 125.86 0.098584 35.846 0.098584 35.846 0.995126 125.83
8.73940000 0.995126 125.86 0.098585 35.846 0.098585 35.846 0.995126 125.83
8.73945000 0.995126 125.86 0.098586 35.845 0.098586 35.845 0.995126 125.83
8.73950000 0.995126 125.86 0.098587 35.845 0.098587 35.845 0.995126 125.83
8.73955000 0.995126 125.86 0.098588 35.845 0.098588 35.845 0.995126 125.83
8.73960000 0.995126 125.86 0.098589 35.844 0.098589 35.844 0.995126 125.83