! Sonnet Data File
! From: emgraph Version : 16.52
! From Project: 171114transmon_trace_brg
! Data is De-embedded 
! Data File Written: 11/14/2017 17:46:15
!< HDATE 11/14/2017 14:11:39
!< MDATE 11/14/2017 14:11:39
!< PARAMS
!< Lj = 15.24
!< Gap = 14.0
!< Width = 10.0
!< Airgap = 6.0
!< Pwidth = 2000.0
!< Dist = 800.0
!< END PARAMS
# GHZ S MA R 34.87000
8.61500000 0.987898 112.17 0.155078 22.075 0.155078 22.075 0.987898 111.98
!< P1 F=8.615 Eeff=(5.13377404 -5.6313e-5) Z0=(34.6595714 -9.1612e-5) R=0.0 C=0.0 
!< P2 F=8.615 Eeff=(5.13377404 -5.6313e-5) Z0=(34.6595714 -9.1612e-5) R=0.0 C=0.0 
8.61500500 0.987898 112.17 0.155079 22.075 0.155079 22.075 0.987898 111.98
8.61501000 0.987898 112.17 0.155079 22.075 0.155079 22.075 0.987898 111.98
8.61501500 0.987898 112.17 0.155079 22.075 0.155079 22.075 0.987898 111.98
8.61502000 0.987898 112.17 0.155079 22.075 0.155079 22.075 0.987898 111.98
8.61502500 0.987898 112.17 0.155079 22.074 0.155079 22.074 0.987898 111.98
8.61503000 0.987898 112.17 0.155080 22.074 0.155080 22.074 0.987898 111.98
8.61503500 0.987898 112.17 0.155080 22.074 0.155080 22.074 0.987898 111.98
8.61504000 0.987898 112.17 0.155080 22.074 0.155080 22.074 0.987898 111.98
8.61504500 0.987898 112.17 0.155080 22.074 0.155080 22.074 0.987898 111.98
8.61505000 0.987898 112.17 0.155080 22.074 0.155080 22.074 0.987898 111.98
8.61505500 0.987898 112.17 0.155081 22.074 0.155081 22.074 0.987898 111.98
8.61506000 0.987898 112.17 0.155081 22.074 0.155081 22.074 0.987898 111.98
8.61506500 0.987898 112.17 0.155081 22.074 0.155081 22.074 0.987898 111.98
8.61507000 0.987898 112.17 0.155081 22.074 0.155081 22.074 0.987897 111.98
8.61507500 0.987897 112.17 0.155082 22.074 0.155082 22.074 0.987897 111.98
8.61508000 0.987897 112.17 0.155082 22.074 0.155082 22.074 0.987897 111.98
8.61508500 0.987897 112.17 0.155082 22.074 0.155082 22.074 0.987897 111.98
8.61509000 0.987897 112.17 0.155082 22.074 0.155082 22.074 0.987897 111.98
8.61509500 0.987897 112.17 0.155082 22.074 0.155082 22.074 0.987897 111.98
8.61510000 0.987897 112.17 0.155083 22.074 0.155083 22.074 0.987897 111.98
8.61510500 0.987897 112.17 0.155083 22.074 0.155083 22.074 0.987897 111.98
8.61511000 0.987897 112.17 0.155083 22.074 0.155083 22.074 0.987897 111.98
8.61511500 0.987897 112.17 0.155083 22.074 0.155083 22.074 0.987897 111.98
8.61512000 0.987897 112.17 0.155083 22.074 0.155083 22.074 0.987897 111.98
8.61512500 0.987897 112.17 0.155084 22.074 0.155084 22.074 0.987897 111.98
8.61513000 0.987897 112.17 0.155084 22.074 0.155084 22.074 0.987897 111.98
8.61513500 0.987897 112.17 0.155084 22.073 0.155084 22.073 0.987897 111.98
8.61514000 0.987897 112.17 0.155084 22.073 0.155084 22.073 0.987897 111.98
8.61514500 0.987897 112.17 0.155085 22.073 0.155085 22.073 0.987897 111.98
8.61515000 0.987897 112.17 0.155085 22.073 0.155085 22.073 0.987897 111.98
8.61515500 0.987897 112.17 0.155085 22.073 0.155085 22.073 0.987897 111.98
8.61516000 0.987897 112.17 0.155085 22.073 0.155085 22.073 0.987897 111.98
8.61516500 0.987897 112.17 0.155085 22.073 0.155085 22.073 0.987897 111.98
8.61517000 0.987897 112.17 0.155086 22.073 0.155086 22.073 0.987897 111.98
8.61517500 0.987897 112.17 0.155086 22.073 0.155086 22.073 0.987897 111.98
8.61518000 0.987897 112.17 0.155086 22.073 0.155086 22.073 0.987897 111.98
8.61518500 0.987897 112.17 0.155086 22.073 0.155086 22.073 0.987897 111.98
8.61519000 0.987897 112.17 0.155086 22.073 0.155086 22.073 0.987897 111.98
8.61519500 0.987897 112.17 0.155087 22.073 0.155087 22.073 0.987897 111.98
8.61520000 0.987897 112.17 0.155087 22.073 0.155087 22.073 0.987897 111.98
8.61520500 0.987897 112.17 0.155087 22.073 0.155087 22.073 0.987897 111.98
8.61521000 0.987897 112.17 0.155087 22.073 0.155087 22.073 0.987897 111.98
8.61521500 0.987897 112.17 0.155088 22.073 0.155088 22.073 0.987896 111.98
8.61522000 0.987896 112.17 0.155088 22.073 0.155088 22.073 0.987896 111.98
8.61522500 0.987896 112.17 0.155088 22.073 0.155088 22.073 0.987896 111.98
8.61523000 0.987896 112.17 0.155088 22.073 0.155088 22.073 0.987896 111.98
8.61523500 0.987896 112.17 0.155088 22.073 0.155088 22.073 0.987896 111.98
8.61524000 0.987896 112.17 0.155089 22.072 0.155089 22.072 0.987896 111.98
8.61524500 0.987896 112.17 0.155089 22.072 0.155089 22.072 0.987896 111.98
8.61525000 0.987896 112.17 0.155089 22.072 0.155089 22.072 0.987896 111.98
8.61525500 0.987896 112.17 0.155089 22.072 0.155089 22.072 0.987896 111.98
8.61526000 0.987896 112.17 0.155089 22.072 0.155089 22.072 0.987896 111.98
8.61526500 0.987896 112.17 0.155090 22.072 0.155090 22.072 0.987896 111.98
8.61527000 0.987896 112.17 0.155090 22.072 0.155090 22.072 0.987896 111.98
8.61527500 0.987896 112.17 0.155090 22.072 0.155090 22.072 0.987896 111.98
8.61528000 0.987896 112.17 0.155090 22.072 0.155090 22.072 0.987896 111.98
8.61528500 0.987896 112.17 0.155091 22.072 0.155091 22.072 0.987896 111.98
8.61529000 0.987896 112.17 0.155091 22.072 0.155091 22.072 0.987896 111.98
8.61529500 0.987896 112.17 0.155091 22.072 0.155091 22.072 0.987896 111.98
8.61530000 0.987896 112.17 0.155091 22.072 0.155091 22.072 0.987896 111.98
8.61530500 0.987896 112.17 0.155091 22.072 0.155091 22.072 0.987896 111.98
8.61531000 0.987896 112.17 0.155092 22.072 0.155092 22.072 0.987896 111.98
8.61531500 0.987896 112.17 0.155092 22.072 0.155092 22.072 0.987896 111.98
8.61532000 0.987896 112.17 0.155092 22.072 0.155092 22.072 0.987896 111.98
8.61532500 0.987896 112.16 0.155092 22.072 0.155092 22.072 0.987896 111.98
8.61533000 0.987896 112.16 0.155093 22.072 0.155093 22.072 0.987896 111.98
8.61533500 0.987896 112.16 0.155093 22.072 0.155093 22.072 0.987896 111.98
8.61534000 0.987896 112.16 0.155093 22.072 0.155093 22.072 0.987896 111.98
8.61534500 0.987896 112.16 0.155093 22.071 0.155093 22.071 0.987896 111.98
8.61535000 0.987896 112.16 0.155093 22.071 0.155093 22.071 0.987896 111.98
8.61535500 0.987896 112.16 0.155094 22.071 0.155094 22.071 0.987896 111.98
8.61536000 0.987896 112.16 0.155094 22.071 0.155094 22.071 0.987895 111.98
8.61536500 0.987895 112.16 0.155094 22.071 0.155094 22.071 0.987895 111.98
8.61537000 0.987895 112.16 0.155094 22.071 0.155094 22.071 0.987895 111.98
8.61537500 0.987895 112.16 0.155094 22.071 0.155094 22.071 0.987895 111.98
8.61538000 0.987895 112.16 0.155095 22.071 0.155095 22.071 0.987895 111.98
8.61538500 0.987895 112.16 0.155095 22.071 0.155095 22.071 0.987895 111.98
8.61539000 0.987895 112.16 0.155095 22.071 0.155095 22.071 0.987895 111.98
8.61539500 0.987895 112.16 0.155095 22.071 0.155095 22.071 0.987895 111.98
8.61540000 0.987895 112.16 0.155096 22.071 0.155096 22.071 0.987895 111.98
8.61540500 0.987895 112.16 0.155096 22.071 0.155096 22.071 0.987895 111.98
8.61541000 0.987895 112.16 0.155096 22.071 0.155096 22.071 0.987895 111.98
8.61541500 0.987895 112.16 0.155096 22.071 0.155096 22.071 0.987895 111.98
8.61542000 0.987895 112.16 0.155096 22.071 0.155096 22.071 0.987895 111.98
8.61542500 0.987895 112.16 0.155097 22.071 0.155097 22.071 0.987895 111.98
8.61543000 0.987895 112.16 0.155097 22.071 0.155097 22.071 0.987895 111.98
8.61543500 0.987895 112.16 0.155097 22.071 0.155097 22.071 0.987895 111.98
8.61544000 0.987895 112.16 0.155097 22.071 0.155097 22.071 0.987895 111.98
8.61544500 0.987895 112.16 0.155098 22.071 0.155098 22.071 0.987895 111.98
8.61545000 0.987895 112.16 0.155098 22.070 0.155098 22.070 0.987895 111.98
8.61545500 0.987895 112.16 0.155098 22.070 0.155098 22.070 0.987895 111.98
8.61546000 0.987895 112.16 0.155098 22.070 0.155098 22.070 0.987895 111.98
8.61546500 0.987895 112.16 0.155099 22.070 0.155099 22.070 0.987895 111.98
8.61547000 0.987895 112.16 0.155099 22.070 0.155099 22.070 0.987895 111.98
8.61547500 0.987895 112.16 0.155099 22.070 0.155099 22.070 0.987895 111.98
8.61548000 0.987895 112.16 0.155099 22.070 0.155099 22.070 0.987895 111.98
8.61548500 0.987895 112.16 0.155099 22.070 0.155099 22.070 0.987895 111.98
8.61549000 0.987895 112.16 0.155100 22.070 0.155100 22.070 0.987895 111.97
8.61549500 0.987895 112.16 0.155100 22.070 0.155100 22.070 0.987895 111.97
8.61550000 0.987895 112.16 0.155100 22.070 0.155100 22.070 0.987894 111.97
8.61550500 0.987894 112.16 0.155100 22.070 0.155100 22.070 0.987894 111.97
8.61551000 0.987894 112.16 0.155101 22.070 0.155101 22.070 0.987894 111.97
8.61551500 0.987894 112.16 0.155101 22.070 0.155101 22.070 0.987894 111.97
8.61552000 0.987894 112.16 0.155101 22.070 0.155101 22.070 0.987894 111.97
8.61552500 0.987894 112.16 0.155101 22.070 0.155101 22.070 0.987894 111.97
8.61553000 0.987894 112.16 0.155101 22.070 0.155101 22.070 0.987894 111.97
8.61553500 0.987894 112.16 0.155102 22.070 0.155102 22.070 0.987894 111.97
8.61554000 0.987894 112.16 0.155102 22.070 0.155102 22.070 0.987894 111.97
8.61554500 0.987894 112.16 0.155102 22.070 0.155102 22.070 0.987894 111.97
8.61555000 0.987894 112.16 0.155102 22.070 0.155102 22.070 0.987894 111.97
8.61555500 0.987894 112.16 0.155103 22.070 0.155103 22.070 0.987894 111.97
8.61556000 0.987894 112.16 0.155103 22.069 0.155103 22.069 0.987894 111.97
8.61556500 0.987894 112.16 0.155103 22.069 0.155103 22.069 0.987894 111.97
8.61557000 0.987894 112.16 0.155103 22.069 0.155103 22.069 0.987894 111.97
8.61557500 0.987894 112.16 0.155103 22.069 0.155103 22.069 0.987894 111.97
8.61558000 0.987894 112.16 0.155104 22.069 0.155104 22.069 0.987894 111.97
8.61558500 0.987894 112.16 0.155104 22.069 0.155104 22.069 0.987894 111.97
8.61559000 0.987894 112.16 0.155104 22.069 0.155104 22.069 0.987894 111.97
8.61559500 0.987894 112.16 0.155104 22.069 0.155104 22.069 0.987894 111.97
8.61560000 0.987894 112.16 0.155105 22.069 0.155105 22.069 0.987894 111.97
8.61560500 0.987894 112.16 0.155105 22.069 0.155105 22.069 0.987894 111.97
8.61561000 0.987894 112.16 0.155105 22.069 0.155105 22.069 0.987894 111.97
8.61561500 0.987894 112.16 0.155105 22.069 0.155105 22.069 0.987894 111.97
8.61562000 0.987894 112.16 0.155106 22.069 0.155106 22.069 0.987894 111.97
8.61562500 0.987894 112.16 0.155106 22.069 0.155106 22.069 0.987894 111.97
8.61563000 0.987894 112.16 0.155106 22.069 0.155106 22.069 0.987894 111.97
8.61563500 0.987894 112.16 0.155106 22.069 0.155106 22.069 0.987893 111.97
8.61564000 0.987893 112.16 0.155106 22.069 0.155106 22.069 0.987893 111.97
8.61564500 0.987893 112.16 0.155107 22.069 0.155107 22.069 0.987893 111.97
8.61565000 0.987893 112.16 0.155107 22.069 0.155107 22.069 0.987893 111.97
8.61565500 0.987893 112.16 0.155107 22.069 0.155107 22.069 0.987893 111.97
8.61566000 0.987893 112.16 0.155107 22.068 0.155107 22.068 0.987893 111.97
8.61566500 0.987893 112.16 0.155108 22.068 0.155108 22.068 0.987893 111.97
8.61567000 0.987893 112.16 0.155108 22.068 0.155108 22.068 0.987893 111.97
8.61567500 0.987893 112.16 0.155108 22.068 0.155108 22.068 0.987893 111.97
8.61568000 0.987893 112.16 0.155108 22.068 0.155108 22.068 0.987893 111.97
8.61568500 0.987893 112.16 0.155109 22.068 0.155109 22.068 0.987893 111.97
8.61569000 0.987893 112.16 0.155109 22.068 0.155109 22.068 0.987893 111.97
8.61569500 0.987893 112.16 0.155109 22.068 0.155109 22.068 0.987893 111.97
8.61570000 0.987893 112.16 0.155109 22.068 0.155109 22.068 0.987893 111.97
8.61570500 0.987893 112.16 0.155109 22.068 0.155109 22.068 0.987893 111.97
8.61571000 0.987893 112.16 0.155110 22.068 0.155110 22.068 0.987893 111.97
8.61571500 0.987893 112.16 0.155110 22.068 0.155110 22.068 0.987893 111.97
8.61572000 0.987893 112.16 0.155110 22.068 0.155110 22.068 0.987893 111.97
8.61572500 0.987893 112.16 0.155110 22.068 0.155110 22.068 0.987893 111.97
8.61573000 0.987893 112.16 0.155111 22.068 0.155111 22.068 0.987893 111.97
8.61573500 0.987893 112.16 0.155111 22.068 0.155111 22.068 0.987893 111.97
8.61574000 0.987893 112.16 0.155111 22.068 0.155111 22.068 0.987893 111.97
8.61574500 0.987893 112.16 0.155111 22.068 0.155111 22.068 0.987893 111.97
8.61575000 0.987893 112.16 0.155112 22.068 0.155112 22.068 0.987893 111.97
8.61575500 0.987893 112.16 0.155112 22.068 0.155112 22.068 0.987893 111.97
8.61576000 0.987893 112.16 0.155112 22.068 0.155112 22.068 0.987893 111.97
8.61576500 0.987893 112.16 0.155112 22.067 0.155112 22.067 0.987893 111.97
8.61577000 0.987893 112.16 0.155113 22.067 0.155113 22.067 0.987892 111.97
8.61577500 0.987892 112.16 0.155113 22.067 0.155113 22.067 0.987892 111.97
8.61578000 0.987892 112.16 0.155113 22.067 0.155113 22.067 0.987892 111.97
8.61578500 0.987892 112.16 0.155113 22.067 0.155113 22.067 0.987892 111.97
8.61579000 0.987892 112.16 0.155113 22.067 0.155113 22.067 0.987892 111.97
8.61579500 0.987892 112.16 0.155114 22.067 0.155114 22.067 0.987892 111.97
8.61580000 0.987892 112.16 0.155114 22.067 0.155114 22.067 0.987892 111.97
8.61580500 0.987892 112.16 0.155114 22.067 0.155114 22.067 0.987892 111.97
8.61581000 0.987892 112.16 0.155114 22.067 0.155114 22.067 0.987892 111.97
8.61581500 0.987892 112.16 0.155115 22.067 0.155115 22.067 0.987892 111.97
8.61582000 0.987892 112.16 0.155115 22.067 0.155115 22.067 0.987892 111.97
8.61582500 0.987892 112.16 0.155115 22.067 0.155115 22.067 0.987892 111.97
8.61583000 0.987892 112.16 0.155115 22.067 0.155115 22.067 0.987892 111.97
8.61583500 0.987892 112.16 0.155116 22.067 0.155116 22.067 0.987892 111.97
8.61584000 0.987892 112.16 0.155116 22.067 0.155116 22.067 0.987892 111.97
8.61584500 0.987892 112.16 0.155116 22.067 0.155116 22.067 0.987892 111.97
8.61585000 0.987892 112.16 0.155116 22.067 0.155116 22.067 0.987892 111.97
8.61585500 0.987892 112.16 0.155117 22.067 0.155117 22.067 0.987892 111.97
8.61586000 0.987892 112.16 0.155117 22.067 0.155117 22.067 0.987892 111.97
8.61586500 0.987892 112.16 0.155117 22.067 0.155117 22.067 0.987892 111.97
8.61587000 0.987892 112.16 0.155117 22.066 0.155117 22.066 0.987892 111.97
8.61587500 0.987892 112.16 0.155118 22.066 0.155118 22.066 0.987892 111.97
8.61588000 0.987892 112.16 0.155118 22.066 0.155118 22.066 0.987892 111.97
8.61588500 0.987892 112.16 0.155118 22.066 0.155118 22.066 0.987892 111.97
8.61589000 0.987892 112.16 0.155118 22.066 0.155118 22.066 0.987892 111.97
8.61589500 0.987892 112.16 0.155119 22.066 0.155119 22.066 0.987892 111.97
8.61590000 0.987892 112.16 0.155119 22.066 0.155119 22.066 0.987891 111.97
8.61590500 0.987891 112.16 0.155119 22.066 0.155119 22.066 0.987891 111.97
8.61591000 0.987891 112.16 0.155119 22.066 0.155119 22.066 0.987891 111.97
8.61591500 0.987891 112.16 0.155119 22.066 0.155119 22.066 0.987891 111.97
8.61592000 0.987891 112.16 0.155120 22.066 0.155120 22.066 0.987891 111.97
8.61592500 0.987891 112.16 0.155120 22.066 0.155120 22.066 0.987891 111.97
8.61593000 0.987891 112.16 0.155120 22.066 0.155120 22.066 0.987891 111.97
8.61593500 0.987891 112.16 0.155120 22.066 0.155120 22.066 0.987891 111.97
8.61594000 0.987891 112.16 0.155121 22.066 0.155121 22.066 0.987891 111.97
8.61594500 0.987891 112.16 0.155121 22.066 0.155121 22.066 0.987891 111.97
8.61595000 0.987891 112.16 0.155121 22.066 0.155121 22.066 0.987891 111.97
8.61595500 0.987891 112.16 0.155121 22.066 0.155121 22.066 0.987891 111.97
8.61596000 0.987891 112.16 0.155122 22.066 0.155122 22.066 0.987891 111.97
8.61596500 0.987891 112.16 0.155122 22.066 0.155122 22.066 0.987891 111.97
8.61597000 0.987891 112.16 0.155122 22.066 0.155122 22.066 0.987891 111.97
8.61597500 0.987891 112.16 0.155122 22.065 0.155122 22.065 0.987891 111.97
8.61598000 0.987891 112.16 0.155123 22.065 0.155123 22.065 0.987891 111.97
8.61598500 0.987891 112.16 0.155123 22.065 0.155123 22.065 0.987891 111.97
8.61599000 0.987891 112.16 0.155123 22.065 0.155123 22.065 0.987891 111.97
8.61599500 0.987891 112.16 0.155123 22.065 0.155123 22.065 0.987891 111.97
8.61600000 0.987891 112.16 0.155124 22.065 0.155124 22.065 0.987891 111.97
8.61600500 0.987891 112.16 0.155124 22.065 0.155124 22.065 0.987891 111.97
8.61601000 0.987891 112.16 0.155124 22.065 0.155124 22.065 0.987891 111.97
8.61601500 0.987891 112.16 0.155124 22.065 0.155124 22.065 0.987891 111.97
8.61602000 0.987891 112.16 0.155125 22.065 0.155125 22.065 0.987891 111.97
8.61602500 0.987891 112.16 0.155125 22.065 0.155125 22.065 0.987891 111.97
8.61603000 0.987890 112.16 0.155125 22.065 0.155125 22.065 0.987890 111.97
8.61603500 0.987890 112.16 0.155125 22.065 0.155125 22.065 0.987890 111.97
8.61604000 0.987890 112.16 0.155126 22.065 0.155126 22.065 0.987890 111.97
8.61604500 0.987890 112.16 0.155126 22.065 0.155126 22.065 0.987890 111.97
8.61605000 0.987890 112.16 0.155126 22.065 0.155126 22.065 0.987890 111.97
8.61605500 0.987890 112.16 0.155126 22.065 0.155126 22.065 0.987890 111.97
8.61606000 0.987890 112.16 0.155127 22.065 0.155127 22.065 0.987890 111.97
8.61606500 0.987890 112.16 0.155127 22.065 0.155127 22.065 0.987890 111.97
8.61607000 0.987890 112.16 0.155127 22.065 0.155127 22.065 0.987890 111.97
8.61607500 0.987890 112.16 0.155127 22.064 0.155127 22.064 0.987890 111.97
8.61608000 0.987890 112.16 0.155128 22.064 0.155128 22.064 0.987890 111.97
8.61608500 0.987890 112.16 0.155128 22.064 0.155128 22.064 0.987890 111.97
8.61609000 0.987890 112.16 0.155128 22.064 0.155128 22.064 0.987890 111.97
8.61609500 0.987890 112.16 0.155128 22.064 0.155128 22.064 0.987890 111.97
8.61610000 0.987890 112.16 0.155129 22.064 0.155129 22.064 0.987890 111.97
8.61610500 0.987890 112.16 0.155129 22.064 0.155129 22.064 0.987890 111.97
8.61611000 0.987890 112.16 0.155129 22.064 0.155129 22.064 0.987890 111.97
8.61611500 0.987890 112.16 0.155129 22.064 0.155129 22.064 0.987890 111.97
8.61612000 0.987890 112.16 0.155130 22.064 0.155130 22.064 0.987890 111.97
8.61612500 0.987890 112.16 0.155130 22.064 0.155130 22.064 0.987890 111.97
8.61613000 0.987890 112.16 0.155130 22.064 0.155130 22.064 0.987890 111.97
8.61613500 0.987890 112.16 0.155130 22.064 0.155130 22.064 0.987890 111.97
8.61614000 0.987890 112.16 0.155131 22.064 0.155131 22.064 0.987890 111.97
8.61614500 0.987890 112.16 0.155131 22.064 0.155131 22.064 0.987890 111.97
8.61615000 0.987890 112.16 0.155131 22.064 0.155131 22.064 0.987889 111.97
8.61615500 0.987889 112.16 0.155131 22.064 0.155131 22.064 0.987889 111.97
8.61616000 0.987889 112.16 0.155132 22.064 0.155132 22.064 0.987889 111.97
8.61616500 0.987889 112.16 0.155132 22.064 0.155132 22.064 0.987889 111.97
8.61617000 0.987889 112.16 0.155132 22.064 0.155132 22.064 0.987889 111.97
8.61617500 0.987889 112.16 0.155132 22.063 0.155132 22.063 0.987889 111.97
8.61618000 0.987889 112.16 0.155133 22.063 0.155133 22.063 0.987889 111.97
8.61618500 0.987889 112.16 0.155133 22.063 0.155133 22.063 0.987889 111.97
8.61619000 0.987889 112.16 0.155133 22.063 0.155133 22.063 0.987889 111.97
8.61619500 0.987889 112.16 0.155133 22.063 0.155133 22.063 0.987889 111.97
8.61620000 0.987889 112.16 0.155134 22.063 0.155134 22.063 0.987889 111.97
8.61620500 0.987889 112.16 0.155134 22.063 0.155134 22.063 0.987889 111.97
8.61621000 0.987889 112.16 0.155134 22.063 0.155134 22.063 0.987889 111.97
8.61621500 0.987889 112.16 0.155134 22.063 0.155134 22.063 0.987889 111.97
8.61622000 0.987889 112.16 0.155135 22.063 0.155135 22.063 0.987889 111.97
8.61622500 0.987889 112.16 0.155135 22.063 0.155135 22.063 0.987889 111.97
8.61623000 0.987889 112.16 0.155135 22.063 0.155135 22.063 0.987889 111.97
8.61623500 0.987889 112.16 0.155136 22.063 0.155136 22.063 0.987889 111.97
8.61624000 0.987889 112.16 0.155136 22.063 0.155136 22.063 0.987889 111.97
8.61624500 0.987889 112.16 0.155136 22.063 0.155136 22.063 0.987889 111.97
8.61625000 0.987889 112.16 0.155136 22.063 0.155136 22.063 0.987889 111.97
8.61625500 0.987889 112.16 0.155137 22.063 0.155137 22.063 0.987889 111.97
8.61626000 0.987889 112.16 0.155137 22.063 0.155137 22.063 0.987889 111.97
8.61626500 0.987889 112.16 0.155137 22.063 0.155137 22.063 0.987889 111.97
8.61627000 0.987889 112.16 0.155137 22.063 0.155137 22.063 0.987889 111.97
8.61627500 0.987888 112.16 0.155138 22.063 0.155138 22.063 0.987888 111.97
8.61628000 0.987888 112.16 0.155138 22.062 0.155138 22.062 0.987888 111.97
8.61628500 0.987888 112.16 0.155138 22.062 0.155138 22.062 0.987888 111.97
8.61629000 0.987888 112.16 0.155138 22.062 0.155138 22.062 0.987888 111.97
8.61629500 0.987888 112.16 0.155139 22.062 0.155139 22.062 0.987888 111.97
8.61630000 0.987888 112.16 0.155139 22.062 0.155139 22.062 0.987888 111.97
8.61630500 0.987888 112.16 0.155139 22.062 0.155139 22.062 0.987888 111.97
8.61631000 0.987888 112.16 0.155139 22.062 0.155139 22.062 0.987888 111.97
8.61631500 0.987888 112.16 0.155140 22.062 0.155140 22.062 0.987888 111.97
8.61632000 0.987888 112.16 0.155140 22.062 0.155140 22.062 0.987888 111.97
8.61632500 0.987888 112.16 0.155140 22.062 0.155140 22.062 0.987888 111.97
8.61633000 0.987888 112.16 0.155140 22.062 0.155140 22.062 0.987888 111.97
8.61633500 0.987888 112.16 0.155141 22.062 0.155141 22.062 0.987888 111.97
8.61634000 0.987888 112.16 0.155141 22.062 0.155141 22.062 0.987888 111.97
8.61634500 0.987888 112.16 0.155141 22.062 0.155141 22.062 0.987888 111.97
8.61635000 0.987888 112.16 0.155142 22.062 0.155142 22.062 0.987888 111.97
8.61635500 0.987888 112.16 0.155142 22.062 0.155142 22.062 0.987888 111.97
8.61636000 0.987888 112.16 0.155142 22.062 0.155142 22.062 0.987888 111.97
8.61636500 0.987888 112.15 0.155142 22.062 0.155142 22.062 0.987888 111.97
8.61637000 0.987888 112.15 0.155143 22.062 0.155143 22.062 0.987888 111.97
8.61637500 0.987888 112.15 0.155143 22.062 0.155143 22.062 0.987888 111.97
8.61638000 0.987888 112.15 0.155143 22.061 0.155143 22.061 0.987888 111.97
8.61638500 0.987888 112.15 0.155143 22.061 0.155143 22.061 0.987888 111.97
8.61639000 0.987888 112.15 0.155144 22.061 0.155144 22.061 0.987887 111.97
8.61639500 0.987887 112.15 0.155144 22.061 0.155144 22.061 0.987887 111.97
8.61640000 0.987887 112.15 0.155144 22.061 0.155144 22.061 0.987887 111.97
8.61640500 0.987887 112.15 0.155144 22.061 0.155144 22.061 0.987887 111.97
8.61641000 0.987887 112.15 0.155145 22.061 0.155145 22.061 0.987887 111.97
8.61641500 0.987887 112.15 0.155145 22.061 0.155145 22.061 0.987887 111.97
8.61642000 0.987887 112.15 0.155145 22.061 0.155145 22.061 0.987887 111.97
8.61642500 0.987887 112.15 0.155146 22.061 0.155146 22.061 0.987887 111.97
8.61643000 0.987887 112.15 0.155146 22.061 0.155146 22.061 0.987887 111.97
8.61643500 0.987887 112.15 0.155146 22.061 0.155146 22.061 0.987887 111.97
8.61644000 0.987887 112.15 0.155146 22.061 0.155146 22.061 0.987887 111.97
8.61644500 0.987887 112.15 0.155147 22.061 0.155147 22.061 0.987887 111.97
8.61645000 0.987887 112.15 0.155147 22.061 0.155147 22.061 0.987887 111.97
8.61645500 0.987887 112.15 0.155147 22.061 0.155147 22.061 0.987887 111.97
8.61646000 0.987887 112.15 0.155147 22.061 0.155147 22.061 0.987887 111.97
8.61646500 0.987887 112.15 0.155148 22.061 0.155148 22.061 0.987887 111.97
8.61647000 0.987887 112.15 0.155148 22.061 0.155148 22.061 0.987887 111.97
8.61647500 0.987887 112.15 0.155148 22.061 0.155148 22.061 0.987887 111.97
8.61648000 0.987887 112.15 0.155149 22.060 0.155149 22.060 0.987887 111.97
8.61648500 0.987887 112.15 0.155149 22.060 0.155149 22.060 0.987887 111.97
8.61649000 0.987887 112.15 0.155149 22.060 0.155149 22.060 0.987887 111.97
8.61649500 0.987887 112.15 0.155149 22.060 0.155149 22.060 0.987887 111.97
8.61650000 0.987887 112.15 0.155150 22.060 0.155150 22.060 0.987887 111.97
8.61650500 0.987887 112.15 0.155150 22.060 0.155150 22.060 0.987886 111.97
8.61651000 0.987886 112.15 0.155150 22.060 0.155150 22.060 0.987886 111.97
8.61651500 0.987886 112.15 0.155150 22.060 0.155150 22.060 0.987886 111.96
8.61652000 0.987886 112.15 0.155151 22.060 0.155151 22.060 0.987886 111.96
8.61652500 0.987886 112.15 0.155151 22.060 0.155151 22.060 0.987886 111.96
8.61653000 0.987886 112.15 0.155151 22.060 0.155151 22.060 0.987886 111.96
8.61653500 0.987886 112.15 0.155152 22.060 0.155152 22.060 0.987886 111.96
8.61654000 0.987886 112.15 0.155152 22.060 0.155152 22.060 0.987886 111.96
8.61654500 0.987886 112.15 0.155152 22.060 0.155152 22.060 0.987886 111.96
8.61655000 0.987886 112.15 0.155152 22.060 0.155152 22.060 0.987886 111.96
8.61655500 0.987886 112.15 0.155153 22.060 0.155153 22.060 0.987886 111.96
8.61656000 0.987886 112.15 0.155153 22.060 0.155153 22.060 0.987886 111.96
8.61656500 0.987886 112.15 0.155153 22.060 0.155153 22.060 0.987886 111.96
8.61657000 0.987886 112.15 0.155153 22.060 0.155153 22.060 0.987886 111.96
8.61657500 0.987886 112.15 0.155154 22.059 0.155154 22.059 0.987886 111.96
8.61658000 0.987886 112.15 0.155154 22.059 0.155154 22.059 0.987886 111.96
8.61658500 0.987886 112.15 0.155154 22.059 0.155154 22.059 0.987886 111.96
8.61659000 0.987886 112.15 0.155155 22.059 0.155155 22.059 0.987886 111.96
8.61659500 0.987886 112.15 0.155155 22.059 0.155155 22.059 0.987886 111.96
8.61660000 0.987886 112.15 0.155155 22.059 0.155155 22.059 0.987886 111.96
8.61660500 0.987886 112.15 0.155155 22.059 0.155155 22.059 0.987886 111.96
8.61661000 0.987886 112.15 0.155156 22.059 0.155156 22.059 0.987886 111.96
8.61661500 0.987886 112.15 0.155156 22.059 0.155156 22.059 0.987885 111.96
8.61662000 0.987885 112.15 0.155156 22.059 0.155156 22.059 0.987885 111.96
8.61662500 0.987885 112.15 0.155157 22.059 0.155157 22.059 0.987885 111.96
8.61663000 0.987885 112.15 0.155157 22.059 0.155157 22.059 0.987885 111.96
8.61663500 0.987885 112.15 0.155157 22.059 0.155157 22.059 0.987885 111.96
8.61664000 0.987885 112.15 0.155157 22.059 0.155157 22.059 0.987885 111.96
8.61664500 0.987885 112.15 0.155158 22.059 0.155158 22.059 0.987885 111.96
8.61665000 0.987885 112.15 0.155158 22.059 0.155158 22.059 0.987885 111.96
8.61665500 0.987885 112.15 0.155158 22.059 0.155158 22.059 0.987885 111.96
8.61666000 0.987885 112.15 0.155159 22.059 0.155159 22.059 0.987885 111.96
8.61666500 0.987885 112.15 0.155159 22.059 0.155159 22.059 0.987885 111.96
8.61667000 0.987885 112.15 0.155159 22.059 0.155159 22.059 0.987885 111.96
8.61667500 0.987885 112.15 0.155159 22.058 0.155159 22.058 0.987885 111.96
8.61668000 0.987885 112.15 0.155160 22.058 0.155160 22.058 0.987885 111.96
8.61668500 0.987885 112.15 0.155160 22.058 0.155160 22.058 0.987885 111.96
8.61669000 0.987885 112.15 0.155160 22.058 0.155160 22.058 0.987885 111.96
8.61669500 0.987885 112.15 0.155161 22.058 0.155161 22.058 0.987885 111.96
8.61670000 0.987885 112.15 0.155161 22.058 0.155161 22.058 0.987885 111.96
8.61670500 0.987885 112.15 0.155161 22.058 0.155161 22.058 0.987885 111.96
8.61671000 0.987885 112.15 0.155161 22.058 0.155161 22.058 0.987885 111.96
8.61671500 0.987885 112.15 0.155162 22.058 0.155162 22.058 0.987885 111.96
8.61672000 0.987885 112.15 0.155162 22.058 0.155162 22.058 0.987885 111.96
8.61672500 0.987885 112.15 0.155162 22.058 0.155162 22.058 0.987884 111.96
8.61673000 0.987884 112.15 0.155163 22.058 0.155163 22.058 0.987884 111.96
8.61673500 0.987884 112.15 0.155163 22.058 0.155163 22.058 0.987884 111.96
8.61674000 0.987884 112.15 0.155163 22.058 0.155163 22.058 0.987884 111.96
8.61674500 0.987884 112.15 0.155163 22.058 0.155163 22.058 0.987884 111.96
8.61675000 0.987884 112.15 0.155164 22.058 0.155164 22.058 0.987884 111.96
8.61675500 0.987884 112.15 0.155164 22.058 0.155164 22.058 0.987884 111.96
8.61676000 0.987884 112.15 0.155164 22.058 0.155164 22.058 0.987884 111.96
8.61676500 0.987884 112.15 0.155165 22.058 0.155165 22.058 0.987884 111.96
8.61677000 0.987884 112.15 0.155165 22.058 0.155165 22.058 0.987884 111.96
8.61677500 0.987884 112.15 0.155165 22.057 0.155165 22.057 0.987884 111.96
8.61678000 0.987884 112.15 0.155165 22.057 0.155165 22.057 0.987884 111.96
8.61678500 0.987884 112.15 0.155166 22.057 0.155166 22.057 0.987884 111.96
8.61679000 0.987884 112.15 0.155166 22.057 0.155166 22.057 0.987884 111.96
8.61679500 0.987884 112.15 0.155166 22.057 0.155166 22.057 0.987884 111.96
8.61680000 0.987884 112.15 0.155167 22.057 0.155167 22.057 0.987884 111.96
8.61680500 0.987884 112.15 0.155167 22.057 0.155167 22.057 0.987884 111.96
8.61681000 0.987884 112.15 0.155167 22.057 0.155167 22.057 0.987884 111.96
8.61681500 0.987884 112.15 0.155167 22.057 0.155167 22.057 0.987884 111.96
8.61682000 0.987884 112.15 0.155168 22.057 0.155168 22.057 0.987884 111.96
8.61682500 0.987884 112.15 0.155168 22.057 0.155168 22.057 0.987884 111.96
8.61683000 0.987884 112.15 0.155168 22.057 0.155168 22.057 0.987883 111.96
8.61683500 0.987883 112.15 0.155169 22.057 0.155169 22.057 0.987883 111.96
8.61684000 0.987883 112.15 0.155169 22.057 0.155169 22.057 0.987883 111.96
8.61684500 0.987883 112.15 0.155169 22.057 0.155169 22.057 0.987883 111.96
8.61685000 0.987883 112.15 0.155170 22.057 0.155170 22.057 0.987883 111.96
8.61685500 0.987883 112.15 0.155170 22.057 0.155170 22.057 0.987883 111.96
8.61686000 0.987883 112.15 0.155170 22.057 0.155170 22.057 0.987883 111.96
8.61686500 0.987883 112.15 0.155170 22.057 0.155170 22.057 0.987883 111.96
8.61687000 0.987883 112.15 0.155171 22.056 0.155171 22.056 0.987883 111.96
8.61687500 0.987883 112.15 0.155171 22.056 0.155171 22.056 0.987883 111.96
8.61688000 0.987883 112.15 0.155171 22.056 0.155171 22.056 0.987883 111.96
8.61688500 0.987883 112.15 0.155172 22.056 0.155172 22.056 0.987883 111.96
8.61689000 0.987883 112.15 0.155172 22.056 0.155172 22.056 0.987883 111.96
8.61689500 0.987883 112.15 0.155172 22.056 0.155172 22.056 0.987883 111.96
8.61690000 0.987883 112.15 0.155173 22.056 0.155173 22.056 0.987883 111.96
8.61690500 0.987883 112.15 0.155173 22.056 0.155173 22.056 0.987883 111.96
8.61691000 0.987883 112.15 0.155173 22.056 0.155173 22.056 0.987883 111.96
8.61691500 0.987883 112.15 0.155173 22.056 0.155173 22.056 0.987883 111.96
8.61692000 0.987883 112.15 0.155174 22.056 0.155174 22.056 0.987883 111.96
8.61692500 0.987883 112.15 0.155174 22.056 0.155174 22.056 0.987883 111.96
8.61693000 0.987883 112.15 0.155174 22.056 0.155174 22.056 0.987883 111.96
8.61693500 0.987883 112.15 0.155175 22.056 0.155175 22.056 0.987882 111.96
8.61694000 0.987882 112.15 0.155175 22.056 0.155175 22.056 0.987882 111.96
8.61694500 0.987882 112.15 0.155175 22.056 0.155175 22.056 0.987882 111.96
8.61695000 0.987882 112.15 0.155176 22.056 0.155176 22.056 0.987882 111.96
8.61695500 0.987882 112.15 0.155176 22.056 0.155176 22.056 0.987882 111.96
8.61696000 0.987882 112.15 0.155176 22.056 0.155176 22.056 0.987882 111.96