! Sonnet Data File
! From: emgraph Version : 16.52
! From Project: transmon_brgOdd
! Data is De-embedded 
! Data File Written: 11/11/2017 22:28:47
!< HDATE 11/11/2017 18:22:48
!< MDATE 11/11/2017 18:22:48
!< PARAMS
!< Lj = 15.24
!< Gap = 6.0
!< Width = 10.0
!< Airgap = 6.0
!< Pwidth = 2000.0
!< Dist = 1200.0
!< END PARAMS
# GHZ S MA R 34.67000
8.72000000 0.993087 120.65 0.117358 30.663 0.117358 30.663 0.993087 120.67
!< P1 F=8.72 Eeff=(5.13609477 -5.6761e-5) Z0=(34.6490765 -9.5162e-5) R=0.0 C=0.0 
!< P2 F=8.72 Eeff=(5.13609477 -5.6761e-5) Z0=(34.6490765 -9.5162e-5) R=0.0 C=0.0 
8.72005000 0.993086 120.65 0.117359 30.662 0.117359 30.662 0.993087 120.67
8.72010000 0.993086 120.65 0.117360 30.662 0.117360 30.662 0.993086 120.67
8.72015000 0.993086 120.65 0.117361 30.662 0.117361 30.662 0.993086 120.67
8.72020000 0.993086 120.65 0.117362 30.661 0.117362 30.661 0.993086 120.67
8.72025000 0.993086 120.65 0.117363 30.661 0.117363 30.661 0.993086 120.67
8.72030000 0.993086 120.65 0.117364 30.661 0.117364 30.661 0.993086 120.67
8.72035000 0.993086 120.65 0.117365 30.660 0.117365 30.660 0.993086 120.67
8.72040000 0.993086 120.65 0.117366 30.660 0.117366 30.660 0.993086 120.67
8.72045000 0.993086 120.65 0.117367 30.659 0.117367 30.659 0.993086 120.67
8.72050000 0.993085 120.64 0.117367 30.659 0.117367 30.659 0.993085 120.67
8.72055000 0.993085 120.64 0.117368 30.659 0.117368 30.659 0.993085 120.67
8.72060000 0.993085 120.64 0.117369 30.658 0.117369 30.658 0.993085 120.67
8.72065000 0.993085 120.64 0.117370 30.658 0.117370 30.658 0.993085 120.67
8.72070000 0.993085 120.64 0.117371 30.658 0.117371 30.658 0.993085 120.67
8.72075000 0.993085 120.64 0.117372 30.657 0.117372 30.657 0.993085 120.67
8.72080000 0.993085 120.64 0.117373 30.657 0.117373 30.657 0.993085 120.67
8.72085000 0.993085 120.64 0.117374 30.657 0.117374 30.657 0.993085 120.67
8.72090000 0.993085 120.64 0.117375 30.656 0.117375 30.656 0.993085 120.67
8.72095000 0.993084 120.64 0.117376 30.656 0.117376 30.656 0.993084 120.67
8.72100000 0.993084 120.64 0.117377 30.656 0.117377 30.656 0.993084 120.67
8.72105000 0.993084 120.64 0.117378 30.655 0.117378 30.655 0.993084 120.67
8.72110000 0.993084 120.64 0.117379 30.655 0.117379 30.655 0.993084 120.67
8.72115000 0.993084 120.64 0.117380 30.655 0.117380 30.655 0.993084 120.67
8.72120000 0.993084 120.64 0.117381 30.654 0.117381 30.654 0.993084 120.67
8.72125000 0.993084 120.64 0.117382 30.654 0.117382 30.654 0.993084 120.67
8.72130000 0.993084 120.64 0.117383 30.653 0.117383 30.653 0.993084 120.67
8.72135000 0.993084 120.64 0.117384 30.653 0.117384 30.653 0.993084 120.67
8.72140000 0.993083 120.64 0.117385 30.653 0.117385 30.653 0.993083 120.66
8.72145000 0.993083 120.64 0.117386 30.652 0.117386 30.652 0.993083 120.66
8.72150000 0.993083 120.64 0.117386 30.652 0.117386 30.652 0.993083 120.66
8.72155000 0.993083 120.64 0.117387 30.652 0.117387 30.652 0.993083 120.66
8.72160000 0.993083 120.64 0.117388 30.651 0.117388 30.651 0.993083 120.66
8.72165000 0.993083 120.64 0.117389 30.651 0.117389 30.651 0.993083 120.66
8.72170000 0.993083 120.64 0.117390 30.651 0.117390 30.651 0.993083 120.66
8.72175000 0.993083 120.64 0.117391 30.650 0.117391 30.650 0.993083 120.66
8.72180000 0.993083 120.64 0.117392 30.650 0.117392 30.650 0.993083 120.66
8.72185000 0.993082 120.64 0.117393 30.650 0.117393 30.650 0.993082 120.66
8.72190000 0.993082 120.63 0.117394 30.649 0.117394 30.649 0.993082 120.66
8.72195000 0.993082 120.63 0.117395 30.649 0.117395 30.649 0.993082 120.66
8.72200000 0.993082 120.63 0.117396 30.648 0.117396 30.648 0.993082 120.66
8.72205000 0.993082 120.63 0.117397 30.648 0.117397 30.648 0.993082 120.66
8.72210000 0.993082 120.63 0.117398 30.648 0.117398 30.648 0.993082 120.66
8.72215000 0.993082 120.63 0.117399 30.647 0.117399 30.647 0.993082 120.66
8.72220000 0.993082 120.63 0.117400 30.647 0.117400 30.647 0.993082 120.66
8.72225000 0.993082 120.63 0.117401 30.647 0.117401 30.647 0.993082 120.66
8.72230000 0.993081 120.63 0.117402 30.646 0.117402 30.646 0.993081 120.66
8.72235000 0.993081 120.63 0.117403 30.646 0.117403 30.646 0.993081 120.66
8.72240000 0.993081 120.63 0.117404 30.646 0.117404 30.646 0.993081 120.66
8.72245000 0.993081 120.63 0.117405 30.645 0.117405 30.645 0.993081 120.66
8.72250000 0.993081 120.63 0.117406 30.645 0.117406 30.645 0.993081 120.66
8.72255000 0.993081 120.63 0.117407 30.645 0.117407 30.645 0.993081 120.66
8.72260000 0.993081 120.63 0.117407 30.644 0.117407 30.644 0.993081 120.66
8.72265000 0.993081 120.63 0.117408 30.644 0.117408 30.644 0.993081 120.66
8.72270000 0.993081 120.63 0.117409 30.643 0.117409 30.643 0.993081 120.66
8.72275000 0.993080 120.63 0.117410 30.643 0.117410 30.643 0.993080 120.66
8.72280000 0.993080 120.63 0.117411 30.643 0.117411 30.643 0.993080 120.65
8.72285000 0.993080 120.63 0.117412 30.642 0.117412 30.642 0.993080 120.65
8.72290000 0.993080 120.63 0.117413 30.642 0.117413 30.642 0.993080 120.65
8.72295000 0.993080 120.63 0.117414 30.642 0.117414 30.642 0.993080 120.65
8.72300000 0.993080 120.63 0.117415 30.641 0.117415 30.641 0.993080 120.65
8.72305000 0.993080 120.63 0.117416 30.641 0.117416 30.641 0.993080 120.65
8.72310000 0.993080 120.63 0.117417 30.641 0.117417 30.641 0.993080 120.65
8.72315000 0.993080 120.63 0.117418 30.640 0.117418 30.640 0.993080 120.65
8.72320000 0.993079 120.63 0.117419 30.640 0.117419 30.640 0.993079 120.65
8.72325000 0.993079 120.63 0.117420 30.640 0.117420 30.640 0.993079 120.65
8.72330000 0.993079 120.62 0.117421 30.639 0.117421 30.639 0.993079 120.65
8.72335000 0.993079 120.62 0.117422 30.639 0.117422 30.639 0.993079 120.65
8.72340000 0.993079 120.62 0.117423 30.639 0.117423 30.639 0.993079 120.65
8.72345000 0.993079 120.62 0.117424 30.638 0.117424 30.638 0.993079 120.65
8.72350000 0.993079 120.62 0.117425 30.638 0.117425 30.638 0.993079 120.65
8.72355000 0.993079 120.62 0.117426 30.637 0.117426 30.637 0.993079 120.65
8.72360000 0.993078 120.62 0.117427 30.637 0.117427 30.637 0.993078 120.65
8.72365000 0.993078 120.62 0.117428 30.637 0.117428 30.637 0.993078 120.65
8.72370000 0.993078 120.62 0.117429 30.636 0.117429 30.636 0.993078 120.65
8.72375000 0.993078 120.62 0.117430 30.636 0.117430 30.636 0.993078 120.65
8.72380000 0.993078 120.62 0.117431 30.636 0.117431 30.636 0.993078 120.65
8.72385000 0.993078 120.62 0.117431 30.635 0.117431 30.635 0.993078 120.65
8.72390000 0.993078 120.62 0.117432 30.635 0.117432 30.635 0.993078 120.65
8.72395000 0.993078 120.62 0.117433 30.635 0.117433 30.635 0.993078 120.65
8.72400000 0.993078 120.62 0.117434 30.634 0.117434 30.634 0.993078 120.65
8.72405000 0.993077 120.62 0.117435 30.634 0.117435 30.634 0.993077 120.65
8.72410000 0.993077 120.62 0.117436 30.634 0.117436 30.634 0.993077 120.65
8.72415000 0.993077 120.62 0.117437 30.633 0.117437 30.633 0.993077 120.65
8.72420000 0.993077 120.62 0.117438 30.633 0.117438 30.633 0.993077 120.64
8.72425000 0.993077 120.62 0.117439 30.632 0.117439 30.632 0.993077 120.64
8.72430000 0.993077 120.62 0.117440 30.632 0.117440 30.632 0.993077 120.64
8.72435000 0.993077 120.62 0.117441 30.632 0.117441 30.632 0.993077 120.64
8.72440000 0.993077 120.62 0.117442 30.631 0.117442 30.631 0.993077 120.64
8.72445000 0.993077 120.62 0.117443 30.631 0.117443 30.631 0.993077 120.64
8.72450000 0.993076 120.62 0.117444 30.631 0.117444 30.631 0.993076 120.64
8.72455000 0.993076 120.62 0.117445 30.630 0.117445 30.630 0.993076 120.64
8.72460000 0.993076 120.62 0.117446 30.630 0.117446 30.630 0.993076 120.64
8.72465000 0.993076 120.62 0.117447 30.630 0.117447 30.630 0.993076 120.64
8.72470000 0.993076 120.61 0.117448 30.629 0.117448 30.629 0.993076 120.64
8.72475000 0.993076 120.61 0.117449 30.629 0.117449 30.629 0.993076 120.64
8.72480000 0.993076 120.61 0.117450 30.629 0.117450 30.629 0.993076 120.64
8.72485000 0.993076 120.61 0.117451 30.628 0.117451 30.628 0.993076 120.64
8.72490000 0.993076 120.61 0.117452 30.628 0.117452 30.628 0.993076 120.64
8.72495000 0.993075 120.61 0.117453 30.627 0.117453 30.627 0.993075 120.64
8.72500000 0.993075 120.61 0.117454 30.627 0.117454 30.627 0.993075 120.64
8.72505000 0.993075 120.61 0.117455 30.627 0.117455 30.627 0.993075 120.64
8.72510000 0.993075 120.61 0.117456 30.626 0.117456 30.626 0.993075 120.64
8.72515000 0.993075 120.61 0.117457 30.626 0.117457 30.626 0.993075 120.64
8.72520000 0.993075 120.61 0.117458 30.626 0.117458 30.626 0.993075 120.64
8.72525000 0.993075 120.61 0.117459 30.625 0.117459 30.625 0.993075 120.64
8.72530000 0.993075 120.61 0.117460 30.625 0.117460 30.625 0.993075 120.64
8.72535000 0.993074 120.61 0.117461 30.625 0.117461 30.625 0.993074 120.64
8.72540000 0.993074 120.61 0.117462 30.624 0.117462 30.624 0.993074 120.64
8.72545000 0.993074 120.61 0.117462 30.624 0.117462 30.624 0.993074 120.64
8.72550000 0.993074 120.61 0.117463 30.624 0.117463 30.624 0.993074 120.64
8.72555000 0.993074 120.61 0.117464 30.623 0.117464 30.623 0.993074 120.64
8.72560000 0.993074 120.61 0.117465 30.623 0.117465 30.623 0.993074 120.63
8.72565000 0.993074 120.61 0.117466 30.622 0.117466 30.622 0.993074 120.63
8.72570000 0.993074 120.61 0.117467 30.622 0.117467 30.622 0.993074 120.63
8.72575000 0.993074 120.61 0.117468 30.622 0.117468 30.622 0.993074 120.63
8.72580000 0.993073 120.61 0.117469 30.621 0.117469 30.621 0.993073 120.63
8.72585000 0.993073 120.61 0.117470 30.621 0.117470 30.621 0.993073 120.63
8.72590000 0.993073 120.61 0.117471 30.621 0.117471 30.621 0.993073 120.63
8.72595000 0.993073 120.61 0.117472 30.620 0.117472 30.620 0.993073 120.63
8.72600000 0.993073 120.61 0.117473 30.620 0.117473 30.620 0.993073 120.63
8.72605000 0.993073 120.61 0.117474 30.620 0.117474 30.620 0.993073 120.63
8.72610000 0.993073 120.60 0.117475 30.619 0.117475 30.619 0.993073 120.63
8.72615000 0.993073 120.60 0.117476 30.619 0.117476 30.619 0.993073 120.63
8.72620000 0.993073 120.60 0.117477 30.619 0.117477 30.619 0.993073 120.63
8.72625000 0.993072 120.60 0.117478 30.618 0.117478 30.618 0.993072 120.63
8.72630000 0.993072 120.60 0.117479 30.618 0.117479 30.618 0.993072 120.63
8.72635000 0.993072 120.60 0.117480 30.617 0.117480 30.617 0.993072 120.63
8.72640000 0.993072 120.60 0.117481 30.617 0.117481 30.617 0.993072 120.63
8.72645000 0.993072 120.60 0.117482 30.617 0.117482 30.617 0.993072 120.63
8.72650000 0.993072 120.60 0.117483 30.616 0.117483 30.616 0.993072 120.63
8.72655000 0.993072 120.60 0.117484 30.616 0.117484 30.616 0.993072 120.63
8.72660000 0.993072 120.60 0.117485 30.616 0.117485 30.616 0.993072 120.63
8.72665000 0.993071 120.60 0.117486 30.615 0.117486 30.615 0.993071 120.63
8.72670000 0.993071 120.60 0.117487 30.615 0.117487 30.615 0.993071 120.63
8.72675000 0.993071 120.60 0.117488 30.615 0.117488 30.615 0.993071 120.63
8.72680000 0.993071 120.60 0.117489 30.614 0.117489 30.614 0.993071 120.63
8.72685000 0.993071 120.60 0.117490 30.614 0.117490 30.614 0.993071 120.63
8.72690000 0.993071 120.60 0.117491 30.614 0.117491 30.614 0.993071 120.63
8.72695000 0.993071 120.60 0.117492 30.613 0.117492 30.613 0.993071 120.63
8.72700000 0.993071 120.60 0.117493 30.613 0.117493 30.613 0.993071 120.62
8.72705000 0.993071 120.60 0.117494 30.612 0.117494 30.612 0.993071 120.62
8.72710000 0.993070 120.60 0.117495 30.612 0.117495 30.612 0.993070 120.62
8.72715000 0.993070 120.60 0.117496 30.612 0.117496 30.612 0.993070 120.62
8.72720000 0.993070 120.60 0.117497 30.611 0.117497 30.611 0.993070 120.62
8.72725000 0.993070 120.60 0.117498 30.611 0.117498 30.611 0.993070 120.62
8.72730000 0.993070 120.60 0.117499 30.611 0.117499 30.611 0.993070 120.62
8.72735000 0.993070 120.60 0.117500 30.610 0.117500 30.610 0.993070 120.62
8.72740000 0.993070 120.60 0.117501 30.610 0.117501 30.610 0.993070 120.62
8.72745000 0.993070 120.60 0.117502 30.610 0.117502 30.610 0.993070 120.62
8.72750000 0.993069 120.60 0.117503 30.609 0.117503 30.609 0.993069 120.62
8.72755000 0.993069 120.59 0.117504 30.609 0.117504 30.609 0.993069 120.62
8.72760000 0.993069 120.59 0.117505 30.609 0.117505 30.609 0.993069 120.62
8.72765000 0.993069 120.59 0.117506 30.608 0.117506 30.608 0.993069 120.62
8.72770000 0.993069 120.59 0.117507 30.608 0.117507 30.608 0.993069 120.62
8.72775000 0.993069 120.59 0.117508 30.607 0.117508 30.607 0.993069 120.62
8.72780000 0.993069 120.59 0.117509 30.607 0.117509 30.607 0.993069 120.62
8.72785000 0.993069 120.59 0.117510 30.607 0.117510 30.607 0.993069 120.62
8.72790000 0.993069 120.59 0.117511 30.606 0.117511 30.606 0.993069 120.62
8.72795000 0.993068 120.59 0.117512 30.606 0.117512 30.606 0.993068 120.62
8.72800000 0.993068 120.59 0.117513 30.606 0.117513 30.606 0.993068 120.62
8.72805000 0.993068 120.59 0.117514 30.605 0.117514 30.605 0.993068 120.62
8.72810000 0.993068 120.59 0.117515 30.605 0.117515 30.605 0.993068 120.62
8.72815000 0.993068 120.59 0.117516 30.605 0.117516 30.605 0.993068 120.62
8.72820000 0.993068 120.59 0.117516 30.604 0.117516 30.604 0.993068 120.62
8.72825000 0.993068 120.59 0.117517 30.604 0.117517 30.604 0.993068 120.62
8.72830000 0.993068 120.59 0.117518 30.604 0.117518 30.604 0.993068 120.62
8.72835000 0.993067 120.59 0.117519 30.603 0.117519 30.603 0.993067 120.62
8.72840000 0.993067 120.59 0.117520 30.603 0.117520 30.603 0.993067 120.61
8.72845000 0.993067 120.59 0.117521 30.602 0.117521 30.602 0.993067 120.61
8.72850000 0.993067 120.59 0.117522 30.602 0.117522 30.602 0.993067 120.61
8.72855000 0.993067 120.59 0.117523 30.602 0.117523 30.602 0.993067 120.61
8.72860000 0.993067 120.59 0.117524 30.601 0.117524 30.601 0.993067 120.61
8.72865000 0.993067 120.59 0.117525 30.601 0.117525 30.601 0.993067 120.61
8.72870000 0.993067 120.59 0.117526 30.601 0.117526 30.601 0.993067 120.61
8.72875000 0.993067 120.59 0.117527 30.600 0.117527 30.600 0.993067 120.61
8.72880000 0.993066 120.59 0.117528 30.600 0.117528 30.600 0.993066 120.61
8.72885000 0.993066 120.59 0.117529 30.600 0.117529 30.600 0.993066 120.61
8.72890000 0.993066 120.58 0.117530 30.599 0.117530 30.599 0.993066 120.61
8.72895000 0.993066 120.58 0.117531 30.599 0.117531 30.599 0.993066 120.61
8.72900000 0.993066 120.58 0.117532 30.599 0.117532 30.599 0.993066 120.61
8.72905000 0.993066 120.58 0.117533 30.598 0.117533 30.598 0.993066 120.61
8.72910000 0.993066 120.58 0.117534 30.598 0.117534 30.598 0.993066 120.61
8.72915000 0.993066 120.58 0.117535 30.597 0.117535 30.597 0.993066 120.61
8.72920000 0.993065 120.58 0.117536 30.597 0.117536 30.597 0.993065 120.61
8.72925000 0.993065 120.58 0.117537 30.597 0.117537 30.597 0.993065 120.61
8.72930000 0.993065 120.58 0.117538 30.596 0.117538 30.596 0.993065 120.61
8.72935000 0.993065 120.58 0.117539 30.596 0.117539 30.596 0.993065 120.61
8.72940000 0.993065 120.58 0.117540 30.596 0.117540 30.596 0.993065 120.61
8.72945000 0.993065 120.58 0.117541 30.595 0.117541 30.595 0.993065 120.61
8.72950000 0.993065 120.58 0.117542 30.595 0.117542 30.595 0.993065 120.61
8.72955000 0.993065 120.58 0.117543 30.595 0.117543 30.595 0.993065 120.61
8.72960000 0.993065 120.58 0.117544 30.594 0.117544 30.594 0.993065 120.61
8.72965000 0.993064 120.58 0.117545 30.594 0.117545 30.594 0.993064 120.61
8.72970000 0.993064 120.58 0.117546 30.594 0.117546 30.594 0.993064 120.61
8.72975000 0.993064 120.58 0.117547 30.593 0.117547 30.593 0.993064 120.61
8.72980000 0.993064 120.58 0.117548 30.593 0.117548 30.593 0.993064 120.60
8.72985000 0.993064 120.58 0.117549 30.592 0.117549 30.592 0.993064 120.60
8.72990000 0.993064 120.58 0.117550 30.592 0.117550 30.592 0.993064 120.60
8.72995000 0.993064 120.58 0.117551 30.592 0.117551 30.592 0.993064 120.60
8.73000000 0.993064 120.58 0.117552 30.591 0.117552 30.591 0.993064 120.60
8.73005000 0.993063 120.58 0.117553 30.591 0.117553 30.591 0.993063 120.60
8.73010000 0.993063 120.58 0.117554 30.591 0.117554 30.591 0.993063 120.60
8.73015000 0.993063 120.58 0.117555 30.590 0.117555 30.590 0.993063 120.60
8.73020000 0.993063 120.58 0.117556 30.590 0.117556 30.590 0.993063 120.60
8.73025000 0.993063 120.58 0.117557 30.590 0.117557 30.590 0.993063 120.60
8.73030000 0.993063 120.57 0.117558 30.589 0.117558 30.589 0.993063 120.60
8.73035000 0.993063 120.57 0.117559 30.589 0.117559 30.589 0.993063 120.60
8.73040000 0.993063 120.57 0.117560 30.589 0.117560 30.589 0.993063 120.60
8.73045000 0.993063 120.57 0.117561 30.588 0.117561 30.588 0.993063 120.60
8.73050000 0.993062 120.57 0.117562 30.588 0.117562 30.588 0.993062 120.60
8.73055000 0.993062 120.57 0.117563 30.587 0.117563 30.587 0.993062 120.60
8.73060000 0.993062 120.57 0.117564 30.587 0.117564 30.587 0.993062 120.60
8.73065000 0.993062 120.57 0.117565 30.587 0.117565 30.587 0.993062 120.60
8.73070000 0.993062 120.57 0.117566 30.586 0.117566 30.586 0.993062 120.60
8.73075000 0.993062 120.57 0.117568 30.586 0.117568 30.586 0.993062 120.60
8.73080000 0.993062 120.57 0.117569 30.586 0.117569 30.586 0.993062 120.60
8.73085000 0.993062 120.57 0.117570 30.585 0.117570 30.585 0.993062 120.60
8.73090000 0.993061 120.57 0.117571 30.585 0.117571 30.585 0.993061 120.60
8.73095000 0.993061 120.57 0.117572 30.585 0.117572 30.585 0.993061 120.60
8.73100000 0.993061 120.57 0.117573 30.584 0.117573 30.584 0.993061 120.60
8.73105000 0.993061 120.57 0.117574 30.584 0.117574 30.584 0.993061 120.60
8.73110000 0.993061 120.57 0.117575 30.584 0.117575 30.584 0.993061 120.60
8.73115000 0.993061 120.57 0.117576 30.583 0.117576 30.583 0.993061 120.60
8.73120000 0.993061 120.57 0.117577 30.583 0.117577 30.583 0.993061 120.59
8.73125000 0.993061 120.57 0.117578 30.582 0.117578 30.582 0.993061 120.59
8.73130000 0.993060 120.57 0.117579 30.582 0.117579 30.582 0.993060 120.59
8.73135000 0.993060 120.57 0.117580 30.582 0.117580 30.582 0.993060 120.59
8.73140000 0.993060 120.57 0.117581 30.581 0.117581 30.581 0.993060 120.59
8.73145000 0.993060 120.57 0.117582 30.581 0.117582 30.581 0.993060 120.59
8.73150000 0.993060 120.57 0.117583 30.581 0.117583 30.581 0.993060 120.59
8.73155000 0.993060 120.57 0.117584 30.580 0.117584 30.580 0.993060 120.59
8.73160000 0.993060 120.57 0.117585 30.580 0.117585 30.580 0.993060 120.59
8.73165000 0.993060 120.57 0.117586 30.580 0.117586 30.580 0.993060 120.59
8.73170000 0.993060 120.56 0.117587 30.579 0.117587 30.579 0.993060 120.59
8.73175000 0.993059 120.56 0.117588 30.579 0.117588 30.579 0.993059 120.59
8.73180000 0.993059 120.56 0.117589 30.578 0.117589 30.578 0.993059 120.59
8.73185000 0.993059 120.56 0.117590 30.578 0.117590 30.578 0.993059 120.59
8.73190000 0.993059 120.56 0.117591 30.578 0.117591 30.578 0.993059 120.59
8.73195000 0.993059 120.56 0.117592 30.577 0.117592 30.577 0.993059 120.59
8.73200000 0.993059 120.56 0.117593 30.577 0.117593 30.577 0.993059 120.59
8.73205000 0.993059 120.56 0.117594 30.577 0.117594 30.577 0.993059 120.59
8.73210000 0.993059 120.56 0.117595 30.576 0.117595 30.576 0.993059 120.59
8.73215000 0.993058 120.56 0.117596 30.576 0.117596 30.576 0.993058 120.59
8.73220000 0.993058 120.56 0.117597 30.576 0.117597 30.576 0.993058 120.59
8.73225000 0.993058 120.56 0.117598 30.575 0.117598 30.575 0.993058 120.59
8.73230000 0.993058 120.56 0.117599 30.575 0.117599 30.575 0.993058 120.59
8.73235000 0.993058 120.56 0.117600 30.575 0.117600 30.575 0.993058 120.59
8.73240000 0.993058 120.56 0.117601 30.574 0.117601 30.574 0.993058 120.59
8.73245000 0.993058 120.56 0.117602 30.574 0.117602 30.574 0.993058 120.59
8.73250000 0.993058 120.56 0.117603 30.573 0.117603 30.573 0.993058 120.59
8.73255000 0.993057 120.56 0.117604 30.573 0.117604 30.573 0.993057 120.59
8.73260000 0.993057 120.56 0.117605 30.573 0.117605 30.573 0.993057 120.58
8.73265000 0.993057 120.56 0.117606 30.572 0.117606 30.572 0.993057 120.58
8.73270000 0.993057 120.56 0.117607 30.572 0.117607 30.572 0.993057 120.58
8.73275000 0.993057 120.56 0.117608 30.572 0.117608 30.572 0.993057 120.58
8.73280000 0.993057 120.56 0.117609 30.571 0.117609 30.571 0.993057 120.58
8.73285000 0.993057 120.56 0.117610 30.571 0.117610 30.571 0.993057 120.58
8.73290000 0.993057 120.56 0.117611 30.571 0.117611 30.571 0.993057 120.58
8.73295000 0.993056 120.56 0.117612 30.570 0.117612 30.570 0.993056 120.58
8.73300000 0.993056 120.56 0.117613 30.570 0.117613 30.570 0.993056 120.58
8.73305000 0.993056 120.56 0.117614 30.570 0.117614 30.570 0.993056 120.58
8.73310000 0.993056 120.55 0.117615 30.569 0.117615 30.569 0.993056 120.58
8.73315000 0.993056 120.55 0.117616 30.569 0.117616 30.569 0.993056 120.58
8.73320000 0.993056 120.55 0.117617 30.568 0.117617 30.568 0.993056 120.58
8.73325000 0.993056 120.55 0.117618 30.568 0.117618 30.568 0.993056 120.58
8.73330000 0.993056 120.55 0.117620 30.568 0.117620 30.568 0.993056 120.58
8.73335000 0.993055 120.55 0.117621 30.567 0.117621 30.567 0.993055 120.58
8.73340000 0.993055 120.55 0.117622 30.567 0.117622 30.567 0.993055 120.58
8.73345000 0.993055 120.55 0.117623 30.567 0.117623 30.567 0.993055 120.58
8.73350000 0.993055 120.55 0.117624 30.566 0.117624 30.566 0.993055 120.58
8.73355000 0.993055 120.55 0.117625 30.566 0.117625 30.566 0.993055 120.58
8.73360000 0.993055 120.55 0.117626 30.566 0.117626 30.566 0.993055 120.58
8.73365000 0.993055 120.55 0.117627 30.565 0.117627 30.565 0.993055 120.58
8.73370000 0.993055 120.55 0.117628 30.565 0.117628 30.565 0.993055 120.58
8.73375000 0.993055 120.55 0.117629 30.564 0.117629 30.564 0.993055 120.58
8.73380000 0.993054 120.55 0.117630 30.564 0.117630 30.564 0.993054 120.58
8.73385000 0.993054 120.55 0.117631 30.564 0.117631 30.564 0.993054 120.58
8.73390000 0.993054 120.55 0.117632 30.563 0.117632 30.563 0.993054 120.58
8.73395000 0.993054 120.55 0.117633 30.563 0.117633 30.563 0.993054 120.58
8.73400000 0.993054 120.55 0.117634 30.563 0.117634 30.563 0.993054 120.57
8.73405000 0.993054 120.55 0.117635 30.562 0.117635 30.562 0.993054 120.57
8.73410000 0.993054 120.55 0.117636 30.562 0.117636 30.562 0.993054 120.57
8.73415000 0.993054 120.55 0.117637 30.562 0.117637 30.562 0.993054 120.57
8.73420000 0.993053 120.55 0.117638 30.561 0.117638 30.561 0.993053 120.57
8.73425000 0.993053 120.55 0.117639 30.561 0.117639 30.561 0.993053 120.57
8.73430000 0.993053 120.55 0.117640 30.561 0.117640 30.561 0.993053 120.57
8.73435000 0.993053 120.55 0.117641 30.560 0.117641 30.560 0.993053 120.57
8.73440000 0.993053 120.55 0.117642 30.560 0.117642 30.560 0.993053 120.57
8.73445000 0.993053 120.55 0.117643 30.559 0.117643 30.559 0.993053 120.57
8.73450000 0.993053 120.54 0.117644 30.559 0.117644 30.559 0.993053 120.57
8.73455000 0.993053 120.54 0.117645 30.559 0.117645 30.559 0.993053 120.57
8.73460000 0.993052 120.54 0.117646 30.558 0.117646 30.558 0.993052 120.57
8.73465000 0.993052 120.54 0.117648 30.558 0.117648 30.558 0.993052 120.57
8.73470000 0.993052 120.54 0.117649 30.558 0.117649 30.558 0.993052 120.57
8.73475000 0.993052 120.54 0.117650 30.557 0.117650 30.557 0.993052 120.57
8.73480000 0.993052 120.54 0.117651 30.557 0.117651 30.557 0.993052 120.57
8.73485000 0.993052 120.54 0.117652 30.557 0.117652 30.557 0.993052 120.57
8.73490000 0.993052 120.54 0.117653 30.556 0.117653 30.556 0.993052 120.57
8.73495000 0.993052 120.54 0.117654 30.556 0.117654 30.556 0.993052 120.57
8.73500000 0.993051 120.54 0.117655 30.555 0.117655 30.555 0.993051 120.57
8.73505000 0.993051 120.54 0.117656 30.555 0.117656 30.555 0.993051 120.57
8.73510000 0.993051 120.54 0.117657 30.555 0.117657 30.555 0.993051 120.57
8.73515000 0.993051 120.54 0.117658 30.554 0.117658 30.554 0.993051 120.57
8.73520000 0.993051 120.54 0.117659 30.554 0.117659 30.554 0.993051 120.57
8.73525000 0.993051 120.54 0.117660 30.554 0.117660 30.554 0.993051 120.57
8.73530000 0.993051 120.54 0.117661 30.553 0.117661 30.553 0.993051 120.57
8.73535000 0.993051 120.54 0.117662 30.553 0.117662 30.553 0.993051 120.56
8.73540000 0.993050 120.54 0.117663 30.553 0.117663 30.553 0.993050 120.56
8.73545000 0.993050 120.54 0.117664 30.552 0.117664 30.552 0.993050 120.56
8.73550000 0.993050 120.54 0.117665 30.552 0.117665 30.552 0.993050 120.56
8.73555000 0.993050 120.54 0.117666 30.551 0.117666 30.551 0.993050 120.56
8.73560000 0.993050 120.54 0.117667 30.551 0.117667 30.551 0.993050 120.56
8.73565000 0.993050 120.54 0.117668 30.551 0.117668 30.551 0.993050 120.56
8.73570000 0.993050 120.54 0.117670 30.550 0.117670 30.550 0.993050 120.56
8.73575000 0.993050 120.54 0.117671 30.550 0.117671 30.550 0.993050 120.56
8.73580000 0.993049 120.54 0.117672 30.550 0.117672 30.550 0.993049 120.56
8.73585000 0.993049 120.54 0.117673 30.549 0.117673 30.549 0.993049 120.56
8.73590000 0.993049 120.53 0.117674 30.549 0.117674 30.549 0.993049 120.56
8.73595000 0.993049 120.53 0.117675 30.549 0.117675 30.549 0.993049 120.56
8.73600000 0.993049 120.53 0.117676 30.548 0.117676 30.548 0.993049 120.56
8.73605000 0.993049 120.53 0.117677 30.548 0.117677 30.548 0.993049 120.56
8.73610000 0.993049 120.53 0.117678 30.548 0.117678 30.548 0.993049 120.56
8.73615000 0.993049 120.53 0.117679 30.547 0.117679 30.547 0.993049 120.56
8.73620000 0.993048 120.53 0.117680 30.547 0.117680 30.547 0.993048 120.56
8.73625000 0.993048 120.53 0.117681 30.546 0.117681 30.546 0.993048 120.56
8.73630000 0.993048 120.53 0.117682 30.546 0.117682 30.546 0.993048 120.56
8.73635000 0.993048 120.53 0.117683 30.546 0.117683 30.546 0.993048 120.56
8.73640000 0.993048 120.53 0.117684 30.545 0.117684 30.545 0.993048 120.56
8.73645000 0.993048 120.53 0.117685 30.545 0.117685 30.545 0.993048 120.56
8.73650000 0.993048 120.53 0.117686 30.545 0.117686 30.545 0.993048 120.56
8.73655000 0.993048 120.53 0.117687 30.544 0.117687 30.544 0.993048 120.56
8.73660000 0.993047 120.53 0.117689 30.544 0.117689 30.544 0.993047 120.56
8.73665000 0.993047 120.53 0.117690 30.544 0.117690 30.544 0.993047 120.56
8.73670000 0.993047 120.53 0.117691 30.543 0.117691 30.543 0.993047 120.56
8.73675000 0.993047 120.53 0.117692 30.543 0.117692 30.543 0.993047 120.55
8.73680000 0.993047 120.53 0.117693 30.542 0.117693 30.542 0.993047 120.55
8.73685000 0.993047 120.53 0.117694 30.542 0.117694 30.542 0.993047 120.55
8.73690000 0.993047 120.53 0.117695 30.542 0.117695 30.542 0.993047 120.55
8.73695000 0.993047 120.53 0.117696 30.541 0.117696 30.541 0.993047 120.55
8.73700000 0.993046 120.53 0.117697 30.541 0.117697 30.541 0.993046 120.55
8.73705000 0.993046 120.53 0.117698 30.541 0.117698 30.541 0.993046 120.55
8.73710000 0.993046 120.53 0.117699 30.540 0.117699 30.540 0.993046 120.55
8.73715000 0.993046 120.53 0.117700 30.540 0.117700 30.540 0.993046 120.55
8.73720000 0.993046 120.53 0.117701 30.540 0.117701 30.540 0.993046 120.55
8.73725000 0.993046 120.52 0.117702 30.539 0.117702 30.539 0.993046 120.55
8.73730000 0.993046 120.52 0.117703 30.539 0.117703 30.539 0.993046 120.55
8.73735000 0.993046 120.52 0.117705 30.538 0.117705 30.538 0.993046 120.55
8.73740000 0.993045 120.52 0.117706 30.538 0.117706 30.538 0.993045 120.55
8.73745000 0.993045 120.52 0.117707 30.538 0.117707 30.538 0.993045 120.55
8.73750000 0.993045 120.52 0.117708 30.537 0.117708 30.537 0.993045 120.55
8.73755000 0.993045 120.52 0.117709 30.537 0.117709 30.537 0.993045 120.55
8.73760000 0.993045 120.52 0.117710 30.537 0.117710 30.537 0.993045 120.55
8.73765000 0.993045 120.52 0.117711 30.536 0.117711 30.536 0.993045 120.55
8.73770000 0.993045 120.52 0.117712 30.536 0.117712 30.536 0.993045 120.55
8.73775000 0.993045 120.52 0.117713 30.536 0.117713 30.536 0.993045 120.55
8.73780000 0.993044 120.52 0.117714 30.535 0.117714 30.535 0.993044 120.55
8.73785000 0.993044 120.52 0.117715 30.535 0.117715 30.535 0.993044 120.55
8.73790000 0.993044 120.52 0.117716 30.534 0.117716 30.534 0.993044 120.55
8.73795000 0.993044 120.52 0.117717 30.534 0.117717 30.534 0.993044 120.55
8.73800000 0.993044 120.52 0.117718 30.534 0.117718 30.534 0.993044 120.55
8.73805000 0.993044 120.52 0.117720 30.533 0.117720 30.533 0.993044 120.55
8.73810000 0.993044 120.52 0.117721 30.533 0.117721 30.533 0.993044 120.55
8.73815000 0.993043 120.52 0.117722 30.533 0.117722 30.533 0.993043 120.54
8.73820000 0.993043 120.52 0.117723 30.532 0.117723 30.532 0.993043 120.54
8.73825000 0.993043 120.52 0.117724 30.532 0.117724 30.532 0.993043 120.54
8.73830000 0.993043 120.52 0.117725 30.532 0.117725 30.532 0.993043 120.54
8.73835000 0.993043 120.52 0.117726 30.531 0.117726 30.531 0.993043 120.54
8.73840000 0.993043 120.52 0.117727 30.531 0.117727 30.531 0.993043 120.54
8.73845000 0.993043 120.52 0.117728 30.531 0.117728 30.531 0.993043 120.54
8.73850000 0.993043 120.52 0.117729 30.530 0.117729 30.530 0.993043 120.54
8.73855000 0.993042 120.52 0.117730 30.530 0.117730 30.530 0.993042 120.54
8.73860000 0.993042 120.52 0.117731 30.529 0.117731 30.529 0.993042 120.54
8.73865000 0.993042 120.51 0.117733 30.529 0.117733 30.529 0.993042 120.54
8.73870000 0.993042 120.51 0.117734 30.529 0.117734 30.529 0.993042 120.54
8.73875000 0.993042 120.51 0.117735 30.528 0.117735 30.528 0.993042 120.54
8.73880000 0.993042 120.51 0.117736 30.528 0.117736 30.528 0.993042 120.54
8.73885000 0.993042 120.51 0.117737 30.528 0.117737 30.528 0.993042 120.54
8.73890000 0.993042 120.51 0.117738 30.527 0.117738 30.527 0.993042 120.54
8.73895000 0.993041 120.51 0.117739 30.527 0.117739 30.527 0.993041 120.54
8.73900000 0.993041 120.51 0.117740 30.527 0.117740 30.527 0.993041 120.54
8.73905000 0.993041 120.51 0.117741 30.526 0.117741 30.526 0.993041 120.54
8.73910000 0.993041 120.51 0.117742 30.526 0.117742 30.526 0.993041 120.54
8.73915000 0.993041 120.51 0.117743 30.525 0.117743 30.525 0.993041 120.54
8.73920000 0.993041 120.51 0.117744 30.525 0.117744 30.525 0.993041 120.54
8.73925000 0.993041 120.51 0.117746 30.525 0.117746 30.525 0.993041 120.54
8.73930000 0.993041 120.51 0.117747 30.524 0.117747 30.524 0.993041 120.54
8.73935000 0.993040 120.51 0.117748 30.524 0.117748 30.524 0.993040 120.54
8.73940000 0.993040 120.51 0.117749 30.524 0.117749 30.524 0.993040 120.54
8.73945000 0.993040 120.51 0.117750 30.523 0.117750 30.523 0.993040 120.54
8.73950000 0.993040 120.51 0.117751 30.523 0.117751 30.523 0.993040 120.53
8.73955000 0.993040 120.51 0.117752 30.523 0.117752 30.523 0.993040 120.53
8.73960000 0.993040 120.51 0.117753 30.522 0.117753 30.522 0.993040 120.53