! Sonnet Data File
! From: emgraph Version : 16.52
! From Project: 171114transmon_trace_brg
! Data is De-embedded 
! Data File Written: 11/14/2017 19:58:17
!< HDATE 11/14/2017 18:03:22
!< MDATE 11/14/2017 18:03:22
!< PARAMS
!< Lj = 15.24
!< Gap = 14.0
!< Width = 10.0
!< Airgap = 6.0
!< Pwidth = 2000.0
!< Dist = 1400.0
!< END PARAMS
# GHZ S MA R 34.87000
8.615000000000000 0.9953233245699 126.92571941397 0.0965705027585 36.913014741590 0.0965705027576 36.913014741466 0.9953233252999 126.89837614887
!< P1 F=8.615 Eeff=(5.13377404 -5.6313e-5) Z0=(34.6595714 -9.1612e-5) R=0.0 C=0.0 
!< P2 F=8.615 Eeff=(5.13377404 -5.6313e-5) Z0=(34.6595714 -9.1612e-5) R=0.0 C=0.0 
8.615005000000000 0.9953233075501 126.92568200129 0.0965706739022 36.912977120670 0.0965706739022 36.912977120670 0.9953233081969 126.89833879934
8.615010000000000 0.9953232904368 126.92564458371 0.0965708453182 36.912939438892 0.0965708453182 36.912939438892 0.9953232910879 126.89830141866
8.615015000000001 0.9953232733095 126.92560715834 0.0965710168691 36.912901748793 0.0965710168691 36.912901748793 0.9953232739649 126.89826403026
8.615020000000001 0.9953232561680 126.92556972513 0.0965711885555 36.912864050353 0.0965711885555 36.912864050353 0.9953232568278 126.89822663408
8.615025000000001 0.9953232390125 126.92553228409 0.0965713603773 36.912826343555 0.0965713603773 36.912826343555 0.9953232396766 126.89818923015
8.615030000000001 0.9953232218428 126.92549483519 0.0965715323351 36.912788628385 0.0965715323351 36.912788628385 0.9953232225112 126.89815181842
8.615035000000001 0.9953232046590 126.92545737841 0.0965717044290 36.912750904823 0.0965717044290 36.912750904823 0.9953232053317 126.89811439888
8.615040000000000 0.9953231874609 126.92541991375 0.0965718766594 36.912713172856 0.0965718766594 36.912713172856 0.9953231881380 126.89807697153
8.615045000000000 0.9953231702486 126.92538244119 0.0965720490264 36.912675432461 0.0965720490264 36.912675432461 0.9953231709300 126.89803953635
8.615050000000000 0.9953231530221 126.92534496071 0.0965722215303 36.912637683632 0.0965722215303 36.912637683632 0.9953231537079 126.89800209332
8.615055000000000 0.9953231357812 126.92530747229 0.0965723941715 36.912599926343 0.0965723941715 36.912599926343 0.9953231364714 126.89796464243
8.615060000000000 0.9953231185261 126.92526997593 0.0965725669500 36.912562160587 0.0965725669500 36.912562160587 0.9953231192206 126.89792718366
8.615065000000001 0.9953231012566 126.92523247161 0.0965727398662 36.912524386344 0.0965727398662 36.912524386344 0.9953231019555 126.89788971700
8.615070000000001 0.9953230839728 126.92519495931 0.0965729129204 36.912486603591 0.0965729129204 36.912486603591 0.9953230846761 126.89785224243
8.615075000000001 0.9953230666745 126.92515743900 0.0965730861132 36.912448812296 0.0965730861132 36.912448812296 0.9953230673822 126.89781475992
8.615080000000001 0.9953230493618 126.92511991070 0.0965732594441 36.912411012484 0.0965732594441 36.912411012484 0.9953230500739 126.89777726950
8.615085000000001 0.9953230320346 126.92508237435 0.0965734329142 36.912373204097 0.0965734329142 36.912373204097 0.9953230327512 126.89773977110
8.615090000000000 0.9953230146930 126.92504482999 0.0965736065229 36.912335387157 0.0965736065229 36.912335387157 0.9953230154140 126.89770226474
8.615095000000000 0.9953229973369 126.92500727755 0.0965737802713 36.912297561603 0.0965737802713 36.912297561603 0.9953229980623 126.89766475039
8.615100000000000 0.9953229799662 126.92496971704 0.0965739541591 36.912259727455 0.0965739541591 36.912259727455 0.9953229806960 126.89762722805
8.615105000000000 0.9953229625809 126.92493214845 0.0965741281869 36.912221884678 0.0965741281869 36.912221884678 0.9953229633152 126.89758969768
8.615110000000001 0.9953229451810 126.92489457175 0.0965743023548 36.912184033250 0.0965743023548 36.912184033250 0.9953229459198 126.89755215928
8.615115000000001 0.9953229277666 126.92485698693 0.0965744766632 36.912146173172 0.0965744766632 36.912146173172 0.9953229285098 126.89751461283
8.615120000000001 0.9953229103374 126.92481939398 0.0965746511123 36.912108304410 0.0965746511123 36.912108304410 0.9953229110851 126.89747705833
8.615125000000001 0.9953228928935 126.92478179287 0.0965748257024 36.912070426949 0.0965748257024 36.912070426949 0.9953228936457 126.89743949573
8.615130000000001 0.9953228754350 126.92474418360 0.0965750004335 36.912032540792 0.0965750004335 36.912032540792 0.9953228761916 126.89740192505
8.615135000000000 0.9953228579617 126.92470656615 0.0965751753063 36.911994645901 0.0965751753063 36.911994645901 0.9953228587228 126.89736434626
8.615140000000000 0.9953228404736 126.92466894049 0.0965753503210 36.911956742252 0.0965753503210 36.911956742252 0.9953228412392 126.89732675933
8.615145000000000 0.9953228229707 126.92463130661 0.0965755254777 36.911918829841 0.0965755254777 36.911918829841 0.9953228237409 126.89728916426
8.615150000000000 0.9953228054529 126.92459366450 0.0965757007769 36.911880908645 0.0965757007769 36.911880908645 0.9953228062276 126.89725156103
8.615155000000000 0.9953227879203 126.92455601415 0.0965758762186 36.911842978652 0.0965758762186 36.911842978652 0.9953227886996 126.89721394962
8.615160000000001 0.9953227703728 126.92451835553 0.0965760518032 36.911805039849 0.0965760518032 36.911805039849 0.9953227711566 126.89717633003
8.615165000000001 0.9953227528104 126.92448068865 0.0965762275309 36.911767092213 0.0965762275309 36.911767092213 0.9953227535988 126.89713870224
8.615170000000001 0.9953227352330 126.92444301345 0.0965764034022 36.911729135716 0.0965764034022 36.911729135716 0.9953227360259 126.89710106621
8.615175000000001 0.9953227176407 126.92440532993 0.0965765794175 36.911691170334 0.0965765794175 36.911691170334 0.9953227184381 126.89706342194
8.615180000000001 0.9953227000333 126.92436763810 0.0965767555767 36.911653196078 0.0965767555767 36.911653196078 0.9953227008353 126.89702576942
8.615185000000000 0.9953226824108 126.92432993792 0.0965769318801 36.911615212918 0.0965769318801 36.911615212918 0.9953226832175 126.89698810863
8.615190000000000 0.9953226647733 126.92429222937 0.0965771083283 36.911577220826 0.0965771083283 36.911577220826 0.9953226655845 126.89695043954
8.615195000000000 0.9953226471207 126.92425451244 0.0965772849213 36.911539219801 0.0965772849213 36.911539219801 0.9953226479365 126.89691276216
8.615200000000000 0.9953226294529 126.92421678712 0.0965774616596 36.911501209804 0.0965774616596 36.911501209804 0.9953226302734 126.89687507645
8.615205000000001 0.9953226117700 126.92417905338 0.0965776385433 36.911463190831 0.0965776385433 36.911463190831 0.9953226125951 126.89683738240
8.615210000000001 0.9953225940719 126.92414131123 0.0965778155727 36.911425162863 0.0965778155727 36.911425162863 0.9953225949016 126.89679968000
8.615215000000001 0.9953225763585 126.92410356063 0.0965779927481 36.911387125884 0.0965779927481 36.911387125884 0.9953225771928 126.89676196923
8.615220000000001 0.9953225586299 126.92406580156 0.0965781700700 36.911349079868 0.0965781700700 36.911349079868 0.9953225594689 126.89672425007
8.615225000000001 0.9953225408860 126.92402803401 0.0965783475385 36.911311024804 0.0965783475385 36.911311024804 0.9953225417296 126.89668652251
8.615230000000000 0.9953225231267 126.92399025797 0.0965785251539 36.911272960664 0.0965785251539 36.911272960664 0.9953225239750 126.89664878653
8.615235000000000 0.9953225053521 126.92395247341 0.0965787029166 36.911234887433 0.0965787029166 36.911234887433 0.9953225062051 126.89661104210
8.615240000000000 0.9953224875622 126.92391468033 0.0965788808267 36.911196805102 0.0965788808267 36.911196805102 0.9953224884198 126.89657328923
8.615245000000000 0.9953224697567 126.92387687869 0.0965790588848 36.911158713642 0.0965790588848 36.911158713642 0.9953224706191 126.89653552788
8.615250000000001 0.9953224519359 126.92383906849 0.0965792370908 36.911120613032 0.0965792370908 36.911120613032 0.9953224528029 126.89649775804
8.615255000000001 0.9953224340996 126.92380124972 0.0965794154453 36.911082503264 0.0965794154453 36.911082503264 0.9953224349713 126.89645997971
8.615260000000001 0.9953224162477 126.92376342235 0.0965795939483 36.911044384317 0.0965795939483 36.911044384317 0.9953224171242 126.89642219285
8.615265000000001 0.9953223983803 126.92372558636 0.0965797726005 36.911006256172 0.0965797726005 36.911006256172 0.9953223992616 126.89638439745
8.615270000000001 0.9953223804974 126.92368774175 0.0965799514018 36.910968118811 0.0965799514018 36.910968118811 0.9953223813833 126.89634659350
8.615275000000000 0.9953223625988 126.92364988848 0.0965801303527 36.910929972210 0.0965801303527 36.910929972210 0.9953223634895 126.89630878097
8.615280000000000 0.9953223446846 126.92361202654 0.0965803094537 36.910891816350 0.0965803094537 36.910891816350 0.9953223455801 126.89627095985
8.615285000000000 0.9953223267547 126.92357415592 0.0965804887047 36.910853651212 0.0965804887047 36.910853651212 0.9953223276550 126.89623313012
8.615290000000000 0.9953223088092 126.92353627661 0.0965806681062 36.910815476781 0.0965806681062 36.910815476781 0.9953223097142 126.89619529178
8.615295000000000 0.9953222908479 126.92349838857 0.0965808476584 36.910777293045 0.0965808476584 36.910777293045 0.9953222917576 126.89615744479
8.615300000000001 0.9953222728708 126.92346049180 0.0965810273617 36.910739099975 0.0965810273617 36.910739099975 0.9953222737854 126.89611958914
8.615305000000001 0.9953222548779 126.92342258627 0.0965812072165 36.910700897543 0.0965812072165 36.910700897543 0.9953222557973 126.89608172482
8.615310000000001 0.9953222368692 126.92338467197 0.0965813872230 36.910662685739 0.0965813872230 36.910662685739 0.9953222377934 126.89604385179
8.615315000000001 0.9953222188446 126.92334674888 0.0965815673814 36.910624464555 0.0965815673814 36.910624464555 0.9953222197736 126.89600597007
8.615320000000001 0.9953222008042 126.92330881700 0.0965817476920 36.910586233967 0.0965817476920 36.910586233967 0.9953222017380 126.89596807962
8.615325000000000 0.9953221827478 126.92327087628 0.0965819281553 36.910547993946 0.0965819281553 36.910547993946 0.9953221836864 126.89593018041
8.615330000000000 0.9953221646754 126.92323292673 0.0965821087714 36.910509744475 0.0965821087714 36.910509744475 0.9953221656189 126.89589227245
8.615335000000000 0.9953221465870 126.92319496831 0.0965822895409 36.910471485527 0.0965822895409 36.910471485527 0.9953221475354 126.89585435570
8.615340000000000 0.9953221284826 126.92315700101 0.0965824704639 36.910433217096 0.0965824704639 36.910433217096 0.9953221294359 126.89581643015
8.615345000000001 0.9953221103622 126.92311902483 0.0965826515406 36.910394939175 0.0965826515406 36.910394939175 0.9953221113203 126.89577849579
8.615350000000001 0.9953220922257 126.92308103974 0.0965828327714 36.910356651723 0.0965828327714 36.910356651723 0.9953220931887 126.89574055260
8.615355000000001 0.9953220740730 126.92304304571 0.0965830141567 36.910318354725 0.0965830141567 36.910318354725 0.9953220750409 126.89570260055
8.615360000000001 0.9953220559041 126.92300504272 0.0965831956969 36.910280048144 0.0965831956969 36.910280048144 0.9953220568770 126.89566463963
8.615365000000001 0.9953220377191 126.92296703077 0.0965833773921 36.910241731995 0.0965833773921 36.910241731995 0.9953220386969 126.89562666982
8.615370000000000 0.9953220195179 126.92292900985 0.0965835592426 36.910203406241 0.0965835592426 36.910203406241 0.9953220205005 126.89558869111
8.615375000000000 0.9953220013004 126.92289097992 0.0965837412488 36.910165070862 0.0965837412488 36.910165070862 0.9953220022880 126.89555070348
8.615380000000000 0.9953219830666 126.92285294096 0.0965839234111 36.910126725839 0.0965839234111 36.910126725839 0.9953219840591 126.89551270691
8.615385000000000 0.9953219648164 126.92281489296 0.0965841057298 36.910088371147 0.0965841057298 36.910088371147 0.9953219658139 126.89547470137
8.615390000000000 0.9953219465499 126.92277683591 0.0965842882050 36.910050006775 0.0965842882050 36.910050006775 0.9953219475524 126.89543668685
8.615395000000001 0.9953219282670 126.92273876978 0.0965844708373 36.910011632696 0.0965844708373 36.910011632696 0.9953219292745 126.89539866334
8.615400000000001 0.9953219099677 126.92270069456 0.0965846536267 36.909973248899 0.0965846536267 36.909973248899 0.9953219109802 126.89536063082
8.615405000000001 0.9953218916519 126.92266261023 0.0965848365738 36.909934855353 0.0965848365738 36.909934855353 0.9953218926694 126.89532258926
8.615410000000001 0.9953218733197 126.92262451676 0.0965850196789 36.909896452036 0.0965850196789 36.909896452036 0.9953218743421 126.89528453866
8.615415000000000 0.9953218549708 126.92258641413 0.0965852029424 36.909858038925 0.0965852029424 36.909858038925 0.9953218559982 126.89524647896
8.615420000000000 0.9953218366054 126.92254830234 0.0965853863641 36.909819616019 0.0965853863641 36.909819616019 0.9953218376379 126.89520841020
8.615425000000000 0.9953218182235 126.92251018138 0.0965855699447 36.909781183308 0.0965855699447 36.909781183308 0.9953218192610 126.89517033234
8.615430000000000 0.9953217998248 126.92247205120 0.0965857536847 36.909742740730 0.0965857536847 36.909742740730 0.9953218008674 126.89513224534
8.615435000000000 0.9953217814095 126.92243391178 0.0965859375844 36.909704288274 0.0965859375844 36.909704288273 0.9953217824571 126.89509414919
8.615440000000001 0.9953217629776 126.92239576315 0.0965861216434 36.909665825966 0.0965861216434 36.909665825966 0.9953217640302 126.89505604390
8.615445000000001 0.9953217445288 126.92235760523 0.0965863058631 36.909627353716 0.0965863058631 36.909627353716 0.9953217455865 126.89501792942
8.615450000000001 0.9953217260633 126.92231943804 0.0965864902431 36.909588871555 0.0965864902431 36.909588871555 0.9953217271261 126.89497980573
8.615455000000001 0.9953217075810 126.92228126155 0.0965866747839 36.909550379441 0.0965866747839 36.909550379441 0.9953217086489 126.89494167284
8.615460000000001 0.9953216890818 126.92224307573 0.0965868594860 36.909511877349 0.0965868594860 36.909511877349 0.9953216901548 126.89490353070
8.615465000000000 0.9953216705657 126.92220488058 0.0965870443495 36.909473365272 0.0965870443495 36.909473365272 0.9953216716438 126.89486537931
8.615470000000000 0.9953216520327 126.92216667607 0.0965872293750 36.909434843177 0.0965872293750 36.909434843177 0.9953216531160 126.89482721863
8.615475000000000 0.9953216334828 126.92212846219 0.0965874145625 36.909396311057 0.0965874145625 36.909396311057 0.9953216345712 126.89478904867
8.615480000000000 0.9953216149159 126.92209023890 0.0965875999126 36.909357768872 0.0965875999126 36.909357768872 0.9953216160094 126.89475086939
8.615485000000001 0.9953215963320 126.92205200620 0.0965877854256 36.909319216616 0.0965877854256 36.909319216616 0.9953215974306 126.89471268078
8.615490000000001 0.9953215777310 126.92201376408 0.0965879711016 36.909280654269 0.0965879711016 36.909280654269 0.9953215788348 126.89467448282
8.615495000000001 0.9953215591129 126.92197551248 0.0965881569412 36.909242081797 0.0965881569412 36.909242081797 0.9953215602219 126.89463627549
8.615500000000001 0.9953215404777 126.92193725144 0.0965883429444 36.909203499201 0.0965883429444 36.909203499201 0.9953215415919 126.89459805878
8.615505000000001 0.9953215218253 126.92189898088 0.0965885291121 36.909164906427 0.0965885291121 36.909164906427 0.9953215229446 126.89455983264
8.615510000000000 0.9953215031556 126.92186070080 0.0965887154443 36.909126303465 0.0965887154443 36.909126303465 0.9953215042802 126.89452159707
8.615515000000000 0.9953214844688 126.92182241121 0.0965889019412 36.909087690308 0.0965889019412 36.909087690308 0.9953214855986 126.89448335207
8.615520000000000 0.9953214657647 126.92178411208 0.0965890886030 36.909049066953 0.0965890886030 36.909049066953 0.9953214668998 126.89444509762
8.615525000000000 0.9953214470433 126.92174580334 0.0965892754310 36.909010433306 0.0965892754310 36.909010433306 0.9953214481835 126.89440683363
8.615530000000000 0.9953214283045 126.92170748503 0.0965894624244 36.908971789416 0.0965894624244 36.908971789416 0.9953214294500 126.89436856017
8.615535000000001 0.9953214095483 126.92166915711 0.0965896495841 36.908933135235 0.0965896495841 36.908933135235 0.9953214106991 126.89433027718
8.615540000000001 0.9953213907748 126.92163081957 0.0965898369102 36.908894470756 0.0965898369102 36.908894470756 0.9953213919308 126.89429198465
8.615545000000001 0.9953213719837 126.92159247236 0.0965900244036 36.908855795914 0.0965900244036 36.908855795914 0.9953213731451 126.89425368253
8.615550000000001 0.9953213531752 126.92155411548 0.0965902120641 36.908817110728 0.0965902120641 36.908817110728 0.9953213543418 126.89421537084
8.615555000000001 0.9953213343491 126.92151574892 0.0965903998920 36.908778415178 0.0965903998920 36.908778415178 0.9953213355210 126.89417704955
8.615560000000000 0.9953213155055 126.92147737264 0.0965905878880 36.908739709209 0.0965905878880 36.908739709209 0.9953213166827 126.89413871863
8.615565000000000 0.9953212966442 126.92143898663 0.0965907760523 36.908700992827 0.0965907760523 36.908700992827 0.9953212978268 126.89410037806
8.615570000000000 0.9953212777653 126.92140059087 0.0965909643852 36.908662266003 0.0965909643852 36.908662266003 0.9953212789532 126.89406202783
8.615575000000000 0.9953212588687 126.92136218535 0.0965911528870 36.908623528720 0.0965911528870 36.908623528720 0.9953212600620 126.89402366792
8.615580000000001 0.9953212399544 126.92132377002 0.0965913415583 36.908584780944 0.0965913415583 36.908584780944 0.9953212411530 126.89398529829
8.615585000000001 0.9953212210224 126.92128534489 0.0965915303992 36.908546022646 0.0965915303992 36.908546022646 0.9953212222263 126.89394691894
8.615590000000001 0.9953212020725 126.92124690992 0.0965917194102 36.908507253833 0.0965917194102 36.908507253833 0.9953212032818 126.89390852985
8.615595000000001 0.9953211831048 126.92120846511 0.0965919085915 36.908468474459 0.0965919085915 36.908468474459 0.9953211843195 126.89387013099
8.615600000000001 0.9953211641193 126.92117001042 0.0965920979436 36.908429684512 0.0965920979436 36.908429684512 0.9953211653394 126.89383172235
8.615605000000000 0.9953211451158 126.92113154582 0.0965922874670 36.908390883951 0.0965922874670 36.908390883951 0.9953211463413 126.89379330389
8.615610000000000 0.9953211260943 126.92109307132 0.0965924771617 36.908352072773 0.0965924771617 36.908352072773 0.9953211273253 126.89375487561
8.615615000000000 0.9953211070549 126.92105458688 0.0965926670282 36.908313250950 0.0965926670282 36.908313250950 0.9953211082913 126.89371643748
8.615620000000000 0.9953210879975 126.92101609249 0.0965928570670 36.908274418457 0.0965928570670 36.908274418457 0.9953210892393 126.89367798948
8.615625000000001 0.9953210689220 126.92097758812 0.0965930472783 36.908235575280 0.0965930472783 36.908235575280 0.9953210701692 126.89363953160
8.615630000000001 0.9953210498284 126.92093907375 0.0965932376624 36.908196721389 0.0965932376624 36.908196721389 0.9953210510811 126.89360106381
8.615635000000001 0.9953210307166 126.92090054936 0.0965934282199 36.908157856750 0.0965934282199 36.908157856750 0.9953210319748 126.89356258608
8.615640000000001 0.9953210115867 126.92086201493 0.0965936189510 36.908118981351 0.0965936189510 36.908118981351 0.9953210128504 126.89352409840
8.615645000000001 0.9953209924385 126.92082347044 0.0965938098561 36.908080095182 0.0965938098561 36.908080095182 0.9953209937077 126.89348560075
8.615650000000000 0.9953209732721 126.92078491587 0.0965940009355 36.908041198203 0.0965940009355 36.908041198203 0.9953209745468 126.89344709311
8.615655000000000 0.9953209540874 126.92074635121 0.0965941921894 36.908002290404 0.0965941921894 36.908002290404 0.9953209553677 126.89340857547
8.615660000000000 0.9953209348844 126.92070777640 0.0965943836189 36.907963371727 0.0965943836189 36.907963371727 0.9953209361701 126.89337004776
8.615665000000000 0.9953209156629 126.92066919144 0.0965945752238 36.907924442176 0.0965945752238 36.907924442176 0.9953209169542 126.89333151000
8.615670000000000 0.9953208964231 126.92063059633 0.0965947670044 36.907885501741 0.0965947670044 36.907885501741 0.9953208977199 126.89329296218
8.615675000000001 0.9953208771648 126.92059199103 0.0965949589611 36.907846550375 0.0965949589611 36.907846550375 0.9953208784672 126.89325440425
8.615680000000001 0.9953208578880 126.92055337552 0.0965951510945 36.907807588063 0.0965951510945 36.907807588063 0.9953208591960 126.89321583621
8.615685000000001 0.9953208385926 126.92051474978 0.0965953434047 36.907768614788 0.0965953434047 36.907768614788 0.9953208399062 126.89317725803
8.615690000000001 0.9953208192787 126.92047611379 0.0965955358923 36.907729630518 0.0965955358923 36.907729630518 0.9953208205979 126.89313866968
8.615695000000001 0.9953207999462 126.92043746751 0.0965957285577 36.907690635218 0.0965957285577 36.907690635218 0.9953208012710 126.89310007114
8.615700000000000 0.9953207805950 126.92039881094 0.0965959214012 36.907651628877 0.0965959214012 36.907651628877 0.9953207819254 126.89306146240
8.615705000000000 0.9953207612251 126.92036014405 0.0965961144230 36.907612611478 0.0965961144230 36.907612611478 0.9953207625612 126.89302284343
8.615710000000000 0.9953207418365 126.92032146682 0.0965963076238 36.907573582986 0.0965963076238 36.907573582986 0.9953207431782 126.89298421421
8.615715000000000 0.9953207224291 126.92028277924 0.0965965010036 36.907534543386 0.0965965010036 36.907534543386 0.9953207237764 126.89294557473
8.615720000000001 0.9953207030029 126.92024408128 0.0965966945628 36.907495492661 0.0965966945628 36.907495492661 0.9953207043559 126.89290692496
8.615725000000001 0.9953206835578 126.92020537289 0.0965968883024 36.907456430739 0.0965968883024 36.907456430739 0.9953206849165 126.89286826485
8.615730000000001 0.9953206640938 126.92016665407 0.0965970822223 36.907417357650 0.0965970822223 36.907417357650 0.9953206654582 126.89282959442
8.615735000000001 0.9953206446109 126.92012792482 0.0965972763227 36.907378273358 0.0965972763227 36.907378273358 0.9953206459810 126.89279091364
8.615740000000001 0.9953206251090 126.92008918510 0.0965974706042 36.907339177829 0.0965974706042 36.907339177829 0.9953206264848 126.89275222248
8.615745000000000 0.9953206055880 126.92005043487 0.0965976650675 36.907300071026 0.0965976650675 36.907300071026 0.9953206069695 126.89271352090
8.615750000000000 0.9953205860480 126.92001167412 0.0965978597125 36.907260952943 0.0965978597125 36.907260952943 0.9953205874353 126.89267480890
8.615755000000000 0.9953205664889 126.91997290285 0.0965980545397 36.907221823565 0.0965980545397 36.907221823565 0.9953205678819 126.89263608647
8.615760000000000 0.9953205469106 126.91993412099 0.0965982495498 36.907182682832 0.0965982495498 36.907182682832 0.9953205483094 126.89259735355
8.615765000000000 0.9953205273131 126.91989532857 0.0965984447427 36.907143530765 0.0965984447427 36.907143530765 0.9953205287177 126.89255861015
8.615770000000001 0.9953205076964 126.91985652553 0.0965986401193 36.907104367292 0.0965986401193 36.907104367292 0.9953205091068 126.89251985623
8.615775000000001 0.9953204880605 126.91981771186 0.0965988356795 36.907065192424 0.0965988356795 36.907065192424 0.9953204894766 126.89248109178
8.615780000000001 0.9953204684051 126.91977888753 0.0965990314243 36.907026006103 0.0965990314243 36.907026006103 0.9953204698271 126.89244231676
8.615785000000001 0.9953204487305 126.91974005256 0.0965992273530 36.906986808371 0.0965992273530 36.906986808371 0.9953204501583 126.89240353119
8.615790000000001 0.9953204290365 126.91970120686 0.0965994234673 36.906947599122 0.0965994234673 36.906947599122 0.9953204304701 126.89236473498
8.615795000000000 0.9953204093230 126.91966235044 0.0965996197670 36.906908378365 0.0965996197670 36.906908378365 0.9953204107624 126.89232592815
8.615800000000000 0.9953203895900 126.91962348329 0.0965998162522 36.906869146084 0.0965998162522 36.906869146084 0.9953203910353 126.89228711069
8.615805000000000 0.9953203698374 126.91958460536 0.0966000129239 36.906829902241 0.0966000129239 36.906829902241 0.9953203712887 126.89224828254
8.615810000000000 0.9953203500653 126.91954571664 0.0966002097821 36.906790646815 0.0966002097821 36.906790646815 0.9953203515224 126.89220944371
8.615815000000001 0.9953203302736 126.91950681711 0.0966004068275 36.906751379768 0.0966004068275 36.906751379768 0.9953203317366 126.89217059414
8.615820000000001 0.9953203104622 126.91946790675 0.0966006040599 36.906712101106 0.0966006040599 36.906712101106 0.9953203119312 126.89213173385
8.615825000000001 0.9953202906312 126.91942898553 0.0966008014803 36.906672810775 0.0966008014803 36.906672810775 0.9953202921060 126.89209286279
8.615830000000001 0.9953202707803 126.91939005342 0.0966009990890 36.906633508754 0.0966009990890 36.906633508754 0.9953202722611 126.89205398094
8.615835000000001 0.9953202509097 126.91935111040 0.0966011968864 36.906594195020 0.0966011968864 36.906594195020 0.9953202523964 126.89201508828
8.615840000000000 0.9953202310192 126.91931215645 0.0966013948727 36.906554869551 0.0966013948727 36.906554869551 0.9953202325119 126.89197618478
8.615845000000000 0.9953202111089 126.91927319154 0.0966015930486 36.906515532310 0.0966015930486 36.906515532310 0.9953202126075 126.89193727042
8.615850000000000 0.9953201911786 126.91923421568 0.0966017914140 36.906476183297 0.0966017914140 36.906476183297 0.9953201926833 126.89189834521
8.615855000000000 0.9953201712284 126.91919522880 0.0966019899699 36.906436822456 0.0966019899699 36.906436822456 0.9953201727391 126.89185940907
8.615860000000001 0.9953201512582 126.91915623088 0.0966021887166 36.906397449767 0.0966021887166 36.906397449767 0.9953201527748 126.89182046199
8.615865000000001 0.9953201312678 126.91911722193 0.0966023876543 36.906358065207 0.0966023876543 36.906358065207 0.9953201327905 126.89178150397
8.615870000000001 0.9953201112575 126.91907820190 0.0966025867834 36.906318668765 0.0966025867834 36.906318668765 0.9953201127862 126.89174253499
8.615875000000001 0.9953200912269 126.91903917078 0.0966027861043 36.906279260403 0.0966027861043 36.906279260403 0.9953200927617 126.89170355500
8.615880000000001 0.9953200711762 126.91900012852 0.0966029856179 36.906239840071 0.0966029856179 36.906239840071 0.9953200727170 126.89166456397
8.615885000000000 0.9953200511052 126.91896107514 0.0966031853239 36.906200407797 0.0966031853239 36.906200407797 0.9953200526521 126.89162556192
8.615890000000000 0.9953200310140 126.91892201058 0.0966033852232 36.906160963499 0.0966033852232 36.906160963499 0.9953200325669 126.89158654879
8.615895000000000 0.9953200109024 126.91888293482 0.0966035853162 36.906121507173 0.0966035853162 36.906121507173 0.9953200124615 126.89154752456
8.615900000000000 0.9953199907704 126.91884384784 0.0966037856032 36.906082038798 0.0966037856032 36.906082038798 0.9953199923356 126.89150848920
8.615905000000000 0.9953199706181 126.91880474964 0.0966039860844 36.906042558347 0.0966039860844 36.906042558347 0.9953199721894 126.89146944272
8.615910000000001 0.9953199504452 126.91876564015 0.0966041867606 36.906003065777 0.0966041867606 36.906003065777 0.9953199520227 126.89143038507
8.615915000000001 0.9953199302519 126.91872651938 0.0966043876321 36.905963561073 0.0966043876321 36.905963561073 0.9953199318355 126.89139131622
8.615920000000001 0.9953199100380 126.91868738730 0.0966045886991 36.905924044225 0.0966045886991 36.905924044225 0.9953199116278 126.89135223616
8.615925000000001 0.9953198898035 126.91864824386 0.0966047899625 36.905884515162 0.0966047899625 36.905884515162 0.9953198913995 126.89131314484
8.615930000000001 0.9953198695484 126.91860908907 0.0966049914222 36.905844973899 0.0966049914222 36.905844973899 0.9953198711506 126.89127404228
8.615935000000000 0.9953198492726 126.91856992288 0.0966051930791 36.905805420380 0.0966051930791 36.905805420380 0.9953198508809 126.89123492842
8.615940000000000 0.9953198289760 126.91853074528 0.0966053949334 36.905765854588 0.0966053949334 36.905765854588 0.9953198305906 126.89119580324
8.615945000000000 0.9953198086587 126.91849155624 0.0966055969855 36.905726276512 0.0966055969855 36.905726276512 0.9953198102795 126.89115666672
8.615950000000000 0.9953197883205 126.91845235573 0.0966057992360 36.905686686089 0.0966057992360 36.905686686089 0.9953197899475 126.89111751884
8.615955000000001 0.9953197679614 126.91841314372 0.0966060016853 36.905647083313 0.0966060016853 36.905647083313 0.9953197695947 126.89107835956
8.615960000000001 0.9953197475814 126.91837392022 0.0966062043333 36.905607468176 0.0966062043333 36.905607468176 0.9953197492210 126.89103918889
8.615965000000001 0.9953197271805 126.91833468516 0.0966064071813 36.905567840608 0.0966064071813 36.905567840608 0.9953197288264 126.89100000676
8.615970000000001 0.9953197067585 126.91829543854 0.0966066102291 36.905528200613 0.0966066102291 36.905528200613 0.9953197084107 126.89096081319
8.615975000000001 0.9953196863155 126.91825618033 0.0966068134775 36.905488548153 0.0966068134775 36.905488548153 0.9953196879740 126.89092160811
8.615980000000000 0.9953196658513 126.91821691049 0.0966070169269 36.905448883180 0.0966070169269 36.905448883180 0.9953196675161 126.89088239151
8.615985000000000 0.9953196453660 126.91817762902 0.0966072205774 36.905409205709 0.0966072205774 36.905409205709 0.9953196470372 126.89084316339
8.615990000000000 0.9953196248594 126.91813833587 0.0966074244301 36.905369515662 0.0966074244301 36.905369515662 0.9953196265370 126.89080392368
8.615995000000000 0.9953196043317 126.91809903104 0.0966076284846 36.905329813057 0.0966076284846 36.905329813057 0.9953196060156 126.89076467240
8.616000000000000 0.9953195837826 126.91805971448 0.0966078327421 36.905290097835 0.0966078327421 36.905290097835 0.9953195854728 126.89072540949