! Sonnet Data File
! From: emgraph Version : 16.52
! From Project: transmon_brgOdd
! Data is De-embedded 
! Data File Written: 11/12/2017 17:05:32
!< HDATE 11/11/2017 22:57:51
!< MDATE 11/11/2017 22:57:51
!< PARAMS
!< Lj = 15.24
!< Gap = 6.0
!< Width = 10.0
!< Airgap = 6.0
!< Pwidth = 2000.0
!< Dist = 1200.0
!< END PARAMS
# GHZ S MA R 34.67000
8.78000000 0.992840 120.17 0.119410 30.183 0.119410 30.183 0.992840 120.20
!< P1 F=8.78 Eeff=(5.13743391 -5.7017e-5) Z0=(34.6430374 -9.7216e-5) R=0.0 C=0.0 
!< P2 F=8.78 Eeff=(5.13743391 -5.7017e-5) Z0=(34.6430374 -9.7216e-5) R=0.0 C=0.0 
8.78001000 0.992840 120.17 0.119411 30.183 0.119411 30.183 0.992840 120.20
8.78002000 0.992840 120.17 0.119412 30.183 0.119412 30.183 0.992840 120.20
8.78003000 0.992840 120.17 0.119413 30.183 0.119413 30.183 0.992840 120.20
8.78004000 0.992840 120.17 0.119415 30.183 0.119415 30.183 0.992840 120.20
8.78005000 0.992840 120.17 0.119416 30.183 0.119416 30.183 0.992840 120.20
8.78006000 0.992839 120.17 0.119417 30.182 0.119417 30.182 0.992839 120.20
8.78007000 0.992839 120.17 0.119418 30.182 0.119418 30.182 0.992839 120.20
8.78008000 0.992839 120.17 0.119419 30.182 0.119419 30.182 0.992839 120.20
8.78009000 0.992839 120.17 0.119420 30.182 0.119420 30.182 0.992839 120.19
8.78010000 0.992839 120.17 0.119422 30.182 0.119422 30.182 0.992839 120.19
8.78011000 0.992839 120.17 0.119423 30.182 0.119423 30.182 0.992839 120.19
8.78012000 0.992839 120.17 0.119424 30.182 0.119424 30.182 0.992839 120.19
8.78013000 0.992838 120.17 0.119425 30.181 0.119425 30.181 0.992838 120.19
8.78014000 0.992838 120.17 0.119426 30.181 0.119426 30.181 0.992838 120.19
8.78015000 0.992838 120.17 0.119427 30.181 0.119427 30.181 0.992838 120.19
8.78016000 0.992838 120.17 0.119429 30.181 0.119429 30.181 0.992838 120.19
8.78017000 0.992838 120.17 0.119430 30.181 0.119430 30.181 0.992838 120.19
8.78018000 0.992838 120.17 0.119431 30.181 0.119431 30.181 0.992838 120.19
8.78019000 0.992838 120.17 0.119432 30.181 0.119432 30.181 0.992838 120.19
8.78020000 0.992837 120.17 0.119433 30.181 0.119433 30.181 0.992837 120.19
8.78021000 0.992837 120.17 0.119435 30.180 0.119435 30.180 0.992837 120.19
8.78022000 0.992837 120.17 0.119436 30.180 0.119436 30.180 0.992837 120.19
8.78023000 0.992837 120.17 0.119437 30.180 0.119437 30.180 0.992837 120.19
8.78024000 0.992837 120.17 0.119438 30.180 0.119438 30.180 0.992837 120.19
8.78025000 0.992837 120.17 0.119439 30.180 0.119439 30.180 0.992837 120.19
8.78026000 0.992837 120.17 0.119441 30.180 0.119441 30.180 0.992837 120.19
8.78027000 0.992836 120.17 0.119442 30.180 0.119442 30.180 0.992836 120.19
8.78028000 0.992836 120.17 0.119443 30.180 0.119443 30.180 0.992836 120.19
8.78029000 0.992836 120.17 0.119444 30.179 0.119444 30.179 0.992836 120.19
8.78030000 0.992836 120.17 0.119445 30.179 0.119445 30.179 0.992836 120.19
8.78031000 0.992836 120.17 0.119447 30.179 0.119447 30.179 0.992836 120.19
8.78032000 0.992836 120.17 0.119448 30.179 0.119448 30.179 0.992836 120.19
8.78033000 0.992836 120.17 0.119449 30.179 0.119449 30.179 0.992836 120.19
8.78034000 0.992835 120.17 0.119450 30.179 0.119450 30.179 0.992835 120.19
8.78035000 0.992835 120.16 0.119451 30.179 0.119451 30.179 0.992835 120.19
8.78036000 0.992835 120.16 0.119453 30.179 0.119453 30.179 0.992835 120.19
8.78037000 0.992835 120.16 0.119454 30.178 0.119454 30.178 0.992835 120.19
8.78038000 0.992835 120.16 0.119455 30.178 0.119455 30.178 0.992835 120.19
8.78039000 0.992835 120.16 0.119456 30.178 0.119456 30.178 0.992835 120.19
8.78040000 0.992835 120.16 0.119457 30.178 0.119457 30.178 0.992835 120.19
8.78041000 0.992834 120.16 0.119459 30.178 0.119459 30.178 0.992834 120.19
8.78042000 0.992834 120.16 0.119460 30.178 0.119460 30.178 0.992834 120.19
8.78043000 0.992834 120.16 0.119461 30.178 0.119461 30.178 0.992834 120.19
8.78044000 0.992834 120.16 0.119462 30.177 0.119462 30.177 0.992834 120.19
8.78045000 0.992834 120.16 0.119464 30.177 0.119464 30.177 0.992834 120.19
8.78046000 0.992834 120.16 0.119465 30.177 0.119465 30.177 0.992834 120.19
8.78047000 0.992833 120.16 0.119466 30.177 0.119466 30.177 0.992833 120.19
8.78048000 0.992833 120.16 0.119467 30.177 0.119467 30.177 0.992833 120.19
8.78049000 0.992833 120.16 0.119469 30.177 0.119469 30.177 0.992833 120.19
8.78050000 0.992833 120.16 0.119470 30.177 0.119470 30.177 0.992833 120.19
8.78051000 0.992833 120.16 0.119471 30.177 0.119471 30.177 0.992833 120.19
8.78052000 0.992833 120.16 0.119472 30.176 0.119472 30.176 0.992833 120.19
8.78053000 0.992833 120.16 0.119473 30.176 0.119473 30.176 0.992833 120.19
8.78054000 0.992832 120.16 0.119475 30.176 0.119475 30.176 0.992832 120.19
8.78055000 0.992832 120.16 0.119476 30.176 0.119476 30.176 0.992832 120.19
8.78056000 0.992832 120.16 0.119477 30.176 0.119477 30.176 0.992832 120.19
8.78057000 0.992832 120.16 0.119478 30.176 0.119478 30.176 0.992832 120.19
8.78058000 0.992832 120.16 0.119480 30.176 0.119480 30.176 0.992832 120.19
8.78059000 0.992832 120.16 0.119481 30.175 0.119481 30.175 0.992832 120.19
8.78060000 0.992831 120.16 0.119482 30.175 0.119482 30.175 0.992831 120.19
8.78061000 0.992831 120.16 0.119483 30.175 0.119483 30.175 0.992831 120.19
8.78062000 0.992831 120.16 0.119485 30.175 0.119485 30.175 0.992831 120.19
8.78063000 0.992831 120.16 0.119486 30.175 0.119486 30.175 0.992831 120.19
8.78064000 0.992831 120.16 0.119487 30.175 0.119487 30.175 0.992831 120.19
8.78065000 0.992831 120.16 0.119488 30.175 0.119488 30.175 0.992831 120.19
8.78066000 0.992831 120.16 0.119490 30.175 0.119490 30.175 0.992831 120.19
8.78067000 0.992830 120.16 0.119491 30.174 0.119491 30.174 0.992830 120.19
8.78068000 0.992830 120.16 0.119492 30.174 0.119492 30.174 0.992830 120.19
8.78069000 0.992830 120.16 0.119494 30.174 0.119494 30.174 0.992830 120.19
8.78070000 0.992830 120.16 0.119495 30.174 0.119495 30.174 0.992830 120.19
8.78071000 0.992830 120.16 0.119496 30.174 0.119496 30.174 0.992830 120.19
8.78072000 0.992830 120.16 0.119497 30.174 0.119497 30.174 0.992830 120.19
8.78073000 0.992829 120.16 0.119499 30.174 0.119499 30.174 0.992829 120.19
8.78074000 0.992829 120.16 0.119500 30.173 0.119500 30.173 0.992829 120.19
8.78075000 0.992829 120.16 0.119501 30.173 0.119501 30.173 0.992829 120.19
8.78076000 0.992829 120.16 0.119502 30.173 0.119502 30.173 0.992829 120.19
8.78077000 0.992829 120.16 0.119504 30.173 0.119504 30.173 0.992829 120.19
8.78078000 0.992829 120.16 0.119505 30.173 0.119505 30.173 0.992829 120.19
8.78079000 0.992829 120.16 0.119506 30.173 0.119506 30.173 0.992829 120.19
8.78080000 0.992828 120.16 0.119508 30.173 0.119508 30.173 0.992828 120.19
8.78081000 0.992828 120.16 0.119509 30.172 0.119509 30.172 0.992828 120.19
8.78082000 0.992828 120.16 0.119510 30.172 0.119510 30.172 0.992828 120.19
8.78083000 0.992828 120.16 0.119511 30.172 0.119511 30.172 0.992828 120.19
8.78084000 0.992828 120.16 0.119513 30.172 0.119513 30.172 0.992828 120.19
8.78085000 0.992828 120.16 0.119514 30.172 0.119514 30.172 0.992828 120.19
8.78086000 0.992827 120.16 0.119515 30.172 0.119515 30.172 0.992827 120.18
8.78087000 0.992827 120.16 0.119517 30.172 0.119517 30.172 0.992827 120.18
8.78088000 0.992827 120.16 0.119518 30.172 0.119518 30.172 0.992827 120.18
8.78089000 0.992827 120.16 0.119519 30.171 0.119519 30.171 0.992827 120.18
8.78090000 0.992827 120.16 0.119521 30.171 0.119521 30.171 0.992827 120.18
8.78091000 0.992827 120.16 0.119522 30.171 0.119522 30.171 0.992827 120.18
8.78092000 0.992826 120.16 0.119523 30.171 0.119523 30.171 0.992826 120.18
8.78093000 0.992826 120.16 0.119524 30.171 0.119524 30.171 0.992826 120.18
8.78094000 0.992826 120.16 0.119526 30.171 0.119526 30.171 0.992826 120.18
8.78095000 0.992826 120.16 0.119527 30.171 0.119527 30.171 0.992826 120.18
8.78096000 0.992826 120.16 0.119528 30.170 0.119528 30.170 0.992826 120.18
8.78097000 0.992826 120.16 0.119530 30.170 0.119530 30.170 0.992826 120.18
8.78098000 0.992825 120.16 0.119531 30.170 0.119531 30.170 0.992826 120.18
8.78099000 0.992825 120.16 0.119532 30.170 0.119532 30.170 0.992825 120.18
8.78100000 0.992825 120.16 0.119534 30.170 0.119534 30.170 0.992825 120.18
8.78101000 0.992825 120.16 0.119535 30.170 0.119535 30.170 0.992825 120.18
8.78102000 0.992825 120.16 0.119536 30.170 0.119536 30.170 0.992825 120.18
8.78103000 0.992825 120.16 0.119538 30.169 0.119538 30.169 0.992825 120.18
8.78104000 0.992825 120.16 0.119539 30.169 0.119539 30.169 0.992825 120.18
8.78105000 0.992824 120.16 0.119540 30.169 0.119540 30.169 0.992824 120.18
8.78106000 0.992824 120.16 0.119542 30.169 0.119542 30.169 0.992824 120.18
8.78107000 0.992824 120.16 0.119543 30.169 0.119543 30.169 0.992824 120.18
8.78108000 0.992824 120.16 0.119544 30.169 0.119544 30.169 0.992824 120.18
8.78109000 0.992824 120.16 0.119546 30.169 0.119546 30.169 0.992824 120.18
8.78110000 0.992824 120.15 0.119547 30.169 0.119547 30.169 0.992824 120.18
8.78111000 0.992823 120.15 0.119548 30.168 0.119548 30.168 0.992823 120.18
8.78112000 0.992823 120.15 0.119550 30.168 0.119550 30.168 0.992823 120.18
8.78113000 0.992823 120.15 0.119551 30.168 0.119551 30.168 0.992823 120.18
8.78114000 0.992823 120.15 0.119552 30.168 0.119552 30.168 0.992823 120.18
8.78115000 0.992823 120.15 0.119554 30.168 0.119554 30.168 0.992823 120.18
8.78116000 0.992823 120.15 0.119555 30.168 0.119555 30.168 0.992823 120.18
8.78117000 0.992822 120.15 0.119556 30.168 0.119556 30.168 0.992822 120.18
8.78118000 0.992822 120.15 0.119558 30.167 0.119558 30.167 0.992822 120.18
8.78119000 0.992822 120.15 0.119559 30.167 0.119559 30.167 0.992822 120.18
8.78120000 0.992822 120.15 0.119561 30.167 0.119561 30.167 0.992822 120.18
8.78121000 0.992822 120.15 0.119562 30.167 0.119562 30.167 0.992822 120.18
8.78122000 0.992822 120.15 0.119563 30.167 0.119563 30.167 0.992822 120.18
8.78123000 0.992821 120.15 0.119565 30.167 0.119565 30.167 0.992821 120.18
8.78124000 0.992821 120.15 0.119566 30.167 0.119566 30.167 0.992821 120.18
8.78125000 0.992821 120.15 0.119567 30.166 0.119567 30.166 0.992821 120.18
8.78126000 0.992821 120.15 0.119569 30.166 0.119569 30.166 0.992821 120.18
8.78127000 0.992821 120.15 0.119570 30.166 0.119570 30.166 0.992821 120.18
8.78128000 0.992821 120.15 0.119571 30.166 0.119571 30.166 0.992821 120.18
8.78129000 0.992820 120.15 0.119573 30.166 0.119573 30.166 0.992820 120.18
8.78130000 0.992820 120.15 0.119574 30.166 0.119574 30.166 0.992820 120.18
8.78131000 0.992820 120.15 0.119576 30.166 0.119576 30.166 0.992820 120.18
8.78132000 0.992820 120.15 0.119577 30.165 0.119577 30.165 0.992820 120.18
8.78133000 0.992820 120.15 0.119578 30.165 0.119578 30.165 0.992820 120.18
8.78134000 0.992820 120.15 0.119580 30.165 0.119580 30.165 0.992820 120.18
8.78135000 0.992819 120.15 0.119581 30.165 0.119581 30.165 0.992819 120.18
8.78136000 0.992819 120.15 0.119583 30.165 0.119583 30.165 0.992819 120.18
8.78137000 0.992819 120.15 0.119584 30.165 0.119584 30.165 0.992819 120.18
8.78138000 0.992819 120.15 0.119585 30.165 0.119585 30.165 0.992819 120.18
8.78139000 0.992819 120.15 0.119587 30.164 0.119587 30.164 0.992819 120.18
8.78140000 0.992818 120.15 0.119588 30.164 0.119588 30.164 0.992818 120.18
8.78141000 0.992818 120.15 0.119590 30.164 0.119590 30.164 0.992818 120.18
8.78142000 0.992818 120.15 0.119591 30.164 0.119591 30.164 0.992818 120.18
8.78143000 0.992818 120.15 0.119592 30.164 0.119592 30.164 0.992818 120.18
8.78144000 0.992818 120.15 0.119594 30.164 0.119594 30.164 0.992818 120.18
8.78145000 0.992818 120.15 0.119595 30.164 0.119595 30.164 0.992818 120.18
8.78146000 0.992817 120.15 0.119597 30.163 0.119597 30.163 0.992817 120.18
8.78147000 0.992817 120.15 0.119598 30.163 0.119598 30.163 0.992817 120.18
8.78148000 0.992817 120.15 0.119599 30.163 0.119599 30.163 0.992817 120.18
8.78149000 0.992817 120.15 0.119601 30.163 0.119601 30.163 0.992817 120.18
8.78150000 0.992817 120.15 0.119602 30.163 0.119602 30.163 0.992817 120.18
8.78151000 0.992817 120.15 0.119604 30.163 0.119604 30.163 0.992817 120.18
8.78152000 0.992816 120.15 0.119605 30.163 0.119605 30.163 0.992816 120.18
8.78153000 0.992816 120.15 0.119606 30.162 0.119606 30.162 0.992816 120.18
8.78154000 0.992816 120.15 0.119608 30.162 0.119608 30.162 0.992816 120.18
8.78155000 0.992816 120.15 0.119609 30.162 0.119609 30.162 0.992816 120.18
8.78156000 0.992816 120.15 0.119611 30.162 0.119611 30.162 0.992816 120.18
8.78157000 0.992816 120.15 0.119612 30.162 0.119612 30.162 0.992816 120.18
8.78158000 0.992815 120.15 0.119614 30.162 0.119614 30.162 0.992815 120.17
8.78159000 0.992815 120.15 0.119615 30.162 0.119615 30.162 0.992815 120.17
8.78160000 0.992815 120.15 0.119616 30.161 0.119616 30.161 0.992815 120.17
8.78161000 0.992815 120.15 0.119618 30.161 0.119618 30.161 0.992815 120.17
8.78162000 0.992815 120.15 0.119619 30.161 0.119619 30.161 0.992815 120.17
8.78163000 0.992814 120.15 0.119621 30.161 0.119621 30.161 0.992814 120.17
8.78164000 0.992814 120.15 0.119622 30.161 0.119622 30.161 0.992814 120.17
8.78165000 0.992814 120.15 0.119624 30.161 0.119624 30.161 0.992814 120.17
8.78166000 0.992814 120.15 0.119625 30.161 0.119625 30.161 0.992814 120.17
8.78167000 0.992814 120.15 0.119627 30.160 0.119627 30.160 0.992814 120.17
8.78168000 0.992814 120.15 0.119628 30.160 0.119628 30.160 0.992814 120.17
8.78169000 0.992813 120.15 0.119630 30.160 0.119630 30.160 0.992813 120.17
8.78170000 0.992813 120.15 0.119631 30.160 0.119631 30.160 0.992813 120.17
8.78171000 0.992813 120.15 0.119632 30.160 0.119632 30.160 0.992813 120.17
8.78172000 0.992813 120.15 0.119634 30.160 0.119634 30.160 0.992813 120.17
8.78173000 0.992813 120.15 0.119635 30.160 0.119635 30.160 0.992813 120.17
8.78174000 0.992812 120.15 0.119637 30.159 0.119637 30.159 0.992813 120.17
8.78175000 0.992812 120.15 0.119638 30.159 0.119638 30.159 0.992812 120.17
8.78176000 0.992812 120.15 0.119640 30.159 0.119640 30.159 0.992812 120.17
8.78177000 0.992812 120.15 0.119641 30.159 0.119641 30.159 0.992812 120.17
8.78178000 0.992812 120.15 0.119643 30.159 0.119643 30.159 0.992812 120.17
8.78179000 0.992812 120.15 0.119644 30.159 0.119644 30.159 0.992812 120.17
8.78180000 0.992811 120.14 0.119646 30.158 0.119646 30.158 0.992811 120.17
8.78181000 0.992811 120.14 0.119647 30.158 0.119647 30.158 0.992811 120.17
8.78182000 0.992811 120.14 0.119649 30.158 0.119649 30.158 0.992811 120.17
8.78183000 0.992811 120.14 0.119650 30.158 0.119650 30.158 0.992811 120.17
8.78184000 0.992811 120.14 0.119652 30.158 0.119652 30.158 0.992811 120.17
8.78185000 0.992810 120.14 0.119653 30.158 0.119653 30.158 0.992810 120.17
8.78186000 0.992810 120.14 0.119655 30.158 0.119655 30.158 0.992810 120.17
8.78187000 0.992810 120.14 0.119656 30.157 0.119656 30.157 0.992810 120.17
8.78188000 0.992810 120.14 0.119658 30.157 0.119658 30.157 0.992810 120.17
8.78189000 0.992810 120.14 0.119659 30.157 0.119659 30.157 0.992810 120.17
8.78190000 0.992810 120.14 0.119661 30.157 0.119661 30.157 0.992810 120.17
8.78191000 0.992809 120.14 0.119662 30.157 0.119662 30.157 0.992809 120.17
8.78192000 0.992809 120.14 0.119664 30.157 0.119664 30.157 0.992809 120.17
8.78193000 0.992809 120.14 0.119665 30.157 0.119665 30.157 0.992809 120.17
8.78194000 0.992809 120.14 0.119667 30.156 0.119667 30.156 0.992809 120.17
8.78195000 0.992809 120.14 0.119668 30.156 0.119668 30.156 0.992809 120.17
8.78196000 0.992808 120.14 0.119670 30.156 0.119670 30.156 0.992808 120.17
8.78197000 0.992808 120.14 0.119671 30.156 0.119671 30.156 0.992808 120.17
8.78198000 0.992808 120.14 0.119673 30.156 0.119673 30.156 0.992808 120.17
8.78199000 0.992808 120.14 0.119674 30.156 0.119674 30.156 0.992808 120.17
8.78200000 0.992808 120.14 0.119676 30.156 0.119676 30.156 0.992808 120.17
8.78201000 0.992808 120.14 0.119677 30.155 0.119677 30.155 0.992808 120.17
8.78202000 0.992807 120.14 0.119679 30.155 0.119679 30.155 0.992807 120.17
8.78203000 0.992807 120.14 0.119680 30.155 0.119680 30.155 0.992807 120.17
8.78204000 0.992807 120.14 0.119682 30.155 0.119682 30.155 0.992807 120.17
8.78205000 0.992807 120.14 0.119684 30.155 0.119684 30.155 0.992807 120.17
8.78206000 0.992807 120.14 0.119685 30.155 0.119685 30.155 0.992807 120.17
8.78207000 0.992806 120.14 0.119687 30.154 0.119687 30.154 0.992806 120.17
8.78208000 0.992806 120.14 0.119688 30.154 0.119688 30.154 0.992806 120.17
8.78209000 0.992806 120.14 0.119690 30.154 0.119690 30.154 0.992806 120.17
8.78210000 0.992806 120.14 0.119691 30.154 0.119691 30.154 0.992806 120.17
8.78211000 0.992806 120.14 0.119693 30.154 0.119693 30.154 0.992806 120.17
8.78212000 0.992805 120.14 0.119694 30.154 0.119694 30.154 0.992805 120.17
8.78213000 0.992805 120.14 0.119696 30.154 0.119696 30.154 0.992805 120.17
8.78214000 0.992805 120.14 0.119697 30.153 0.119697 30.153 0.992805 120.17
8.78215000 0.992805 120.14 0.119699 30.153 0.119699 30.153 0.992805 120.17
8.78216000 0.992805 120.14 0.119701 30.153 0.119701 30.153 0.992805 120.17
8.78217000 0.992804 120.14 0.119702 30.153 0.119702 30.153 0.992804 120.17
8.78218000 0.992804 120.14 0.119704 30.153 0.119704 30.153 0.992804 120.17
8.78219000 0.992804 120.14 0.119705 30.153 0.119705 30.153 0.992804 120.17
8.78220000 0.992804 120.14 0.119707 30.152 0.119707 30.152 0.992804 120.17
8.78221000 0.992804 120.14 0.119708 30.152 0.119708 30.152 0.992804 120.17
8.78222000 0.992803 120.14 0.119710 30.152 0.119710 30.152 0.992803 120.17
8.78223000 0.992803 120.14 0.119712 30.152 0.119712 30.152 0.992803 120.17
8.78224000 0.992803 120.14 0.119713 30.152 0.119713 30.152 0.992803 120.17
8.78225000 0.992803 120.14 0.119715 30.152 0.119715 30.152 0.992803 120.17
8.78226000 0.992803 120.14 0.119716 30.152 0.119716 30.152 0.992803 120.16
8.78227000 0.992803 120.14 0.119718 30.151 0.119718 30.151 0.992803 120.16
8.78228000 0.992802 120.14 0.119720 30.151 0.119720 30.151 0.992802 120.16
8.78229000 0.992802 120.14 0.119721 30.151 0.119721 30.151 0.992802 120.16
8.78230000 0.992802 120.14 0.119723 30.151 0.119723 30.151 0.992802 120.16
8.78231000 0.992802 120.14 0.119724 30.151 0.119724 30.151 0.992802 120.16
8.78232000 0.992802 120.14 0.119726 30.151 0.119726 30.151 0.992802 120.16
8.78233000 0.992801 120.14 0.119728 30.150 0.119728 30.150 0.992801 120.16
8.78234000 0.992801 120.14 0.119729 30.150 0.119729 30.150 0.992801 120.16
8.78235000 0.992801 120.14 0.119731 30.150 0.119731 30.150 0.992801 120.16
8.78236000 0.992801 120.14 0.119732 30.150 0.119732 30.150 0.992801 120.16
8.78237000 0.992801 120.14 0.119734 30.150 0.119734 30.150 0.992801 120.16
8.78238000 0.992800 120.14 0.119736 30.150 0.119736 30.150 0.992800 120.16
8.78239000 0.992800 120.14 0.119737 30.150 0.119737 30.150 0.992800 120.16
8.78240000 0.992800 120.14 0.119739 30.149 0.119739 30.149 0.992800 120.16
8.78241000 0.992800 120.14 0.119741 30.149 0.119741 30.149 0.992800 120.16
8.78242000 0.992800 120.14 0.119742 30.149 0.119742 30.149 0.992800 120.16
8.78243000 0.992799 120.14 0.119744 30.149 0.119744 30.149 0.992799 120.16
8.78244000 0.992799 120.14 0.119745 30.149 0.119745 30.149 0.992799 120.16
8.78245000 0.992799 120.14 0.119747 30.149 0.119747 30.149 0.992799 120.16
8.78246000 0.992799 120.14 0.119749 30.148 0.119749 30.148 0.992799 120.16
8.78247000 0.992799 120.13 0.119750 30.148 0.119750 30.148 0.992799 120.16
8.78248000 0.992798 120.13 0.119752 30.148 0.119752 30.148 0.992798 120.16
8.78249000 0.992798 120.13 0.119754 30.148 0.119754 30.148 0.992798 120.16
8.78250000 0.992798 120.13 0.119755 30.148 0.119755 30.148 0.992798 120.16
8.78251000 0.992798 120.13 0.119757 30.148 0.119757 30.148 0.992798 120.16
8.78252000 0.992797 120.13 0.119759 30.148 0.119759 30.148 0.992798 120.16
8.78253000 0.992797 120.13 0.119760 30.147 0.119760 30.147 0.992797 120.16
8.78254000 0.992797 120.13 0.119762 30.147 0.119762 30.147 0.992797 120.16
8.78255000 0.992797 120.13 0.119764 30.147 0.119764 30.147 0.992797 120.16
8.78256000 0.992797 120.13 0.119765 30.147 0.119765 30.147 0.992797 120.16
8.78257000 0.992796 120.13 0.119767 30.147 0.119767 30.147 0.992796 120.16
8.78258000 0.992796 120.13 0.119769 30.147 0.119769 30.147 0.992796 120.16
8.78259000 0.992796 120.13 0.119770 30.146 0.119770 30.146 0.992796 120.16
8.78260000 0.992796 120.13 0.119772 30.146 0.119772 30.146 0.992796 120.16
8.78261000 0.992796 120.13 0.119774 30.146 0.119774 30.146 0.992796 120.16
8.78262000 0.992795 120.13 0.119775 30.146 0.119775 30.146 0.992795 120.16
8.78263000 0.992795 120.13 0.119777 30.146 0.119777 30.146 0.992795 120.16
8.78264000 0.992795 120.13 0.119779 30.146 0.119779 30.146 0.992795 120.16
8.78265000 0.992795 120.13 0.119780 30.145 0.119780 30.145 0.992795 120.16
8.78266000 0.992795 120.13 0.119782 30.145 0.119782 30.145 0.992795 120.16
8.78267000 0.992794 120.13 0.119784 30.145 0.119784 30.145 0.992794 120.16
8.78268000 0.992794 120.13 0.119786 30.145 0.119786 30.145 0.992794 120.16
8.78269000 0.992794 120.13 0.119787 30.145 0.119787 30.145 0.992794 120.16
8.78270000 0.992794 120.13 0.119789 30.145 0.119789 30.145 0.992794 120.16
8.78271000 0.992794 120.13 0.119791 30.144 0.119791 30.144 0.992794 120.16
8.78272000 0.992793 120.13 0.119792 30.144 0.119792 30.144 0.992793 120.16
8.78273000 0.992793 120.13 0.119794 30.144 0.119794 30.144 0.992793 120.16
8.78274000 0.992793 120.13 0.119796 30.144 0.119796 30.144 0.992793 120.16
8.78275000 0.992793 120.13 0.119798 30.144 0.119798 30.144 0.992793 120.16
8.78276000 0.992792 120.13 0.119799 30.144 0.119799 30.144 0.992793 120.16
8.78277000 0.992792 120.13 0.119801 30.144 0.119801 30.144 0.992792 120.16
8.78278000 0.992792 120.13 0.119803 30.143 0.119803 30.143 0.992792 120.16
8.78279000 0.992792 120.13 0.119804 30.143 0.119804 30.143 0.992792 120.16
8.78280000 0.992792 120.13 0.119806 30.143 0.119806 30.143 0.992792 120.16
8.78281000 0.992791 120.13 0.119808 30.143 0.119808 30.143 0.992791 120.16
8.78282000 0.992791 120.13 0.119810 30.143 0.119810 30.143 0.992791 120.16
8.78283000 0.992791 120.13 0.119811 30.143 0.119811 30.143 0.992791 120.16
8.78284000 0.992791 120.13 0.119813 30.142 0.119813 30.142 0.992791 120.16
8.78285000 0.992791 120.13 0.119815 30.142 0.119815 30.142 0.992791 120.16
8.78286000 0.992790 120.13 0.119817 30.142 0.119817 30.142 0.992790 120.16
8.78287000 0.992790 120.13 0.119818 30.142 0.119818 30.142 0.992790 120.16
8.78288000 0.992790 120.13 0.119820 30.142 0.119820 30.142 0.992790 120.16
8.78289000 0.992790 120.13 0.119822 30.142 0.119822 30.142 0.992790 120.16
8.78290000 0.992789 120.13 0.119824 30.141 0.119824 30.141 0.992789 120.15
8.78291000 0.992789 120.13 0.119825 30.141 0.119825 30.141 0.992789 120.15
8.78292000 0.992789 120.13 0.119827 30.141 0.119827 30.141 0.992789 120.15
8.78293000 0.992789 120.13 0.119829 30.141 0.119829 30.141 0.992789 120.15
8.78294000 0.992789 120.13 0.119831 30.141 0.119831 30.141 0.992789 120.15
8.78295000 0.992788 120.13 0.119833 30.141 0.119833 30.141 0.992788 120.15
8.78296000 0.992788 120.13 0.119834 30.140 0.119834 30.140 0.992788 120.15
8.78297000 0.992788 120.13 0.119836 30.140 0.119836 30.140 0.992788 120.15
8.78298000 0.992788 120.13 0.119838 30.140 0.119838 30.140 0.992788 120.15
8.78299000 0.992788 120.13 0.119840 30.140 0.119840 30.140 0.992788 120.15
8.78300000 0.992787 120.13 0.119841 30.140 0.119841 30.140 0.992787 120.15
8.78301000 0.992787 120.13 0.119843 30.140 0.119843 30.140 0.992787 120.15
8.78302000 0.992787 120.13 0.119845 30.139 0.119845 30.139 0.992787 120.15
8.78303000 0.992787 120.13 0.119847 30.139 0.119847 30.139 0.992787 120.15
8.78304000 0.992786 120.13 0.119849 30.139 0.119849 30.139 0.992786 120.15
8.78305000 0.992786 120.13 0.119850 30.139 0.119850 30.139 0.992786 120.15
8.78306000 0.992786 120.13 0.119852 30.139 0.119852 30.139 0.992786 120.15
8.78307000 0.992786 120.13 0.119854 30.139 0.119854 30.139 0.992786 120.15
8.78308000 0.992785 120.13 0.119856 30.138 0.119856 30.138 0.992786 120.15
8.78309000 0.992785 120.12 0.119858 30.138 0.119858 30.138 0.992785 120.15
8.78310000 0.992785 120.12 0.119860 30.138 0.119860 30.138 0.992785 120.15
8.78311000 0.992785 120.12 0.119861 30.138 0.119861 30.138 0.992785 120.15
8.78312000 0.992785 120.12 0.119863 30.138 0.119863 30.138 0.992785 120.15
8.78313000 0.992784 120.12 0.119865 30.138 0.119865 30.138 0.992784 120.15
8.78314000 0.992784 120.12 0.119867 30.137 0.119867 30.137 0.992784 120.15
8.78315000 0.992784 120.12 0.119869 30.137 0.119869 30.137 0.992784 120.15
8.78316000 0.992784 120.12 0.119871 30.137 0.119871 30.137 0.992784 120.15
8.78317000 0.992783 120.12 0.119872 30.137 0.119872 30.137 0.992783 120.15
8.78318000 0.992783 120.12 0.119874 30.137 0.119874 30.137 0.992783 120.15
8.78319000 0.992783 120.12 0.119876 30.137 0.119876 30.137 0.992783 120.15
8.78320000 0.992783 120.12 0.119878 30.136 0.119878 30.136 0.992783 120.15
8.78321000 0.992783 120.12 0.119880 30.136 0.119880 30.136 0.992783 120.15
8.78322000 0.992782 120.12 0.119882 30.136 0.119882 30.136 0.992782 120.15
8.78323000 0.992782 120.12 0.119884 30.136 0.119884 30.136 0.992782 120.15
8.78324000 0.992782 120.12 0.119885 30.136 0.119885 30.136 0.992782 120.15
8.78325000 0.992782 120.12 0.119887 30.136 0.119887 30.136 0.992782 120.15
8.78326000 0.992781 120.12 0.119889 30.135 0.119889 30.135 0.992781 120.15
8.78327000 0.992781 120.12 0.119891 30.135 0.119891 30.135 0.992781 120.15
8.78328000 0.992781 120.12 0.119893 30.135 0.119893 30.135 0.992781 120.15
8.78329000 0.992781 120.12 0.119895 30.135 0.119895 30.135 0.992781 120.15
8.78330000 0.992780 120.12 0.119897 30.135 0.119897 30.135 0.992780 120.15
8.78331000 0.992780 120.12 0.119899 30.135 0.119899 30.135 0.992780 120.15
8.78332000 0.992780 120.12 0.119901 30.134 0.119901 30.134 0.992780 120.15
8.78333000 0.992780 120.12 0.119902 30.134 0.119902 30.134 0.992780 120.15
8.78334000 0.992780 120.12 0.119904 30.134 0.119904 30.134 0.992780 120.15
8.78335000 0.992779 120.12 0.119906 30.134 0.119906 30.134 0.992779 120.15
8.78336000 0.992779 120.12 0.119908 30.134 0.119908 30.134 0.992779 120.15
8.78337000 0.992779 120.12 0.119910 30.133 0.119910 30.133 0.992779 120.15
8.78338000 0.992779 120.12 0.119912 30.133 0.119912 30.133 0.992779 120.15
8.78339000 0.992778 120.12 0.119914 30.133 0.119914 30.133 0.992778 120.15
8.78340000 0.992778 120.12 0.119916 30.133 0.119916 30.133 0.992778 120.15
8.78341000 0.992778 120.12 0.119918 30.133 0.119918 30.133 0.992778 120.15
8.78342000 0.992778 120.12 0.119920 30.133 0.119920 30.133 0.992778 120.15
8.78343000 0.992777 120.12 0.119922 30.132 0.119922 30.132 0.992777 120.15
8.78344000 0.992777 120.12 0.119924 30.132 0.119924 30.132 0.992777 120.15
8.78345000 0.992777 120.12 0.119925 30.132 0.119925 30.132 0.992777 120.15
8.78346000 0.992777 120.12 0.119927 30.132 0.119927 30.132 0.992777 120.15
8.78347000 0.992776 120.12 0.119929 30.132 0.119929 30.132 0.992776 120.15
8.78348000 0.992776 120.12 0.119931 30.132 0.119931 30.132 0.992776 120.15
8.78349000 0.992776 120.12 0.119933 30.131 0.119933 30.131 0.992776 120.15
8.78350000 0.992776 120.12 0.119935 30.131 0.119935 30.131 0.992776 120.14
8.78351000 0.992775 120.12 0.119937 30.131 0.119937 30.131 0.992775 120.14
8.78352000 0.992775 120.12 0.119939 30.131 0.119939 30.131 0.992775 120.14
8.78353000 0.992775 120.12 0.119941 30.131 0.119941 30.131 0.992775 120.14
8.78354000 0.992775 120.12 0.119943 30.130 0.119943 30.130 0.992775 120.14
8.78355000 0.992774 120.12 0.119945 30.130 0.119945 30.130 0.992774 120.14
8.78356000 0.992774 120.12 0.119947 30.130 0.119947 30.130 0.992774 120.14
8.78357000 0.992774 120.12 0.119949 30.130 0.119949 30.130 0.992774 120.14
8.78358000 0.992774 120.12 0.119951 30.130 0.119951 30.130 0.992774 120.14
8.78359000 0.992773 120.12 0.119953 30.130 0.119953 30.130 0.992774 120.14
8.78360000 0.992773 120.12 0.119955 30.129 0.119955 30.129 0.992773 120.14
8.78361000 0.992773 120.12 0.119957 30.129 0.119957 30.129 0.992773 120.14
8.78362000 0.992773 120.12 0.119959 30.129 0.119959 30.129 0.992773 120.14
8.78363000 0.992773 120.12 0.119961 30.129 0.119961 30.129 0.992773 120.14
8.78364000 0.992772 120.12 0.119963 30.129 0.119963 30.129 0.992772 120.14
8.78365000 0.992772 120.12 0.119965 30.129 0.119965 30.129 0.992772 120.14
8.78366000 0.992772 120.12 0.119967 30.128 0.119967 30.128 0.992772 120.14
8.78367000 0.992772 120.12 0.119969 30.128 0.119969 30.128 0.992772 120.14
8.78368000 0.992771 120.11 0.119971 30.128 0.119971 30.128 0.992771 120.14
8.78369000 0.992771 120.11 0.119973 30.128 0.119973 30.128 0.992771 120.14
8.78370000 0.992771 120.11 0.119975 30.128 0.119975 30.128 0.992771 120.14
8.78371000 0.992770 120.11 0.119977 30.127 0.119977 30.127 0.992771 120.14
8.78372000 0.992770 120.11 0.119979 30.127 0.119979 30.127 0.992770 120.14
8.78373000 0.992770 120.11 0.119981 30.127 0.119981 30.127 0.992770 120.14
8.78374000 0.992770 120.11 0.119983 30.127 0.119983 30.127 0.992770 120.14
8.78375000 0.992769 120.11 0.119985 30.127 0.119985 30.127 0.992770 120.14
8.78376000 0.992769 120.11 0.119987 30.127 0.119987 30.127 0.992769 120.14
8.78377000 0.992769 120.11 0.119989 30.126 0.119989 30.126 0.992769 120.14
8.78378000 0.992769 120.11 0.119991 30.126 0.119991 30.126 0.992769 120.14
8.78379000 0.992768 120.11 0.119994 30.126 0.119994 30.126 0.992768 120.14
8.78380000 0.992768 120.11 0.119996 30.126 0.119996 30.126 0.992768 120.14
8.78381000 0.992768 120.11 0.119998 30.126 0.119998 30.126 0.992768 120.14
8.78382000 0.992768 120.11 0.120000 30.125 0.120000 30.125 0.992768 120.14
8.78383000 0.992767 120.11 0.120002 30.125 0.120002 30.125 0.992767 120.14
8.78384000 0.992767 120.11 0.120004 30.125 0.120004 30.125 0.992767 120.14
8.78385000 0.992767 120.11 0.120006 30.125 0.120006 30.125 0.992767 120.14
8.78386000 0.992767 120.11 0.120008 30.125 0.120008 30.125 0.992767 120.14
8.78387000 0.992766 120.11 0.120010 30.125 0.120010 30.125 0.992766 120.14
8.78388000 0.992766 120.11 0.120012 30.124 0.120012 30.124 0.992766 120.14
8.78389000 0.992766 120.11 0.120014 30.124 0.120014 30.124 0.992766 120.14
8.78390000 0.992766 120.11 0.120016 30.124 0.120016 30.124 0.992766 120.14
8.78391000 0.992765 120.11 0.120019 30.124 0.120019 30.124 0.992765 120.14
8.78392000 0.992765 120.11 0.120021 30.124 0.120021 30.124 0.992765 120.14