! Sonnet Data File
! From: emgraph Version : 16.52
! From Project: 171114transmon_trace_brg
! Data is De-embedded 
! Data File Written: 11/14/2017 17:50:13
!< HDATE 11/14/2017 14:11:39
!< MDATE 11/14/2017 14:11:39
!< PARAMS
!< Lj = 15.24
!< Gap = 14.0
!< Width = 10.0
!< Airgap = 6.0
!< Pwidth = 2000.0
!< Dist = 800.0
!< END PARAMS
# GHZ S MA R 34.87000
8.615000000000000 0.9878979804416 112.16797736347 0.1550783988995 22.074720246111 0.1550783988995 22.074720246062 0.9878979521150 111.97956105647
!< P1 F=8.615 Eeff=(5.13377404 -5.6313e-5) Z0=(34.6595714 -9.1612e-5) R=0.0 C=0.0 
!< P2 F=8.615 Eeff=(5.13377404 -5.6313e-5) Z0=(34.6595714 -9.1612e-5) R=0.0 C=0.0 
8.615005000000000 0.9878979475371 112.16793127125 0.1550786074331 22.074673768166 0.1550786074331 22.074673768166 0.9878979184708 111.97951469226
8.615010000000000 0.9878979141819 112.16788514029 0.1550788162723 22.074627302287 0.1550788162723 22.074627302287 0.9878978851033 111.97946831400
8.615015000000001 0.9878978808014 112.16783900051 0.1550790252649 22.074580827078 0.1550790252649 22.074580827078 0.9878978517106 111.97942192674
8.615020000000001 0.9878978473955 112.16779285190 0.1550792344115 22.074534342509 0.1550792344115 22.074534342509 0.9878978182924 111.97937553045
8.615025000000001 0.9878978139642 112.16774669445 0.1550794437119 22.074487848592 0.1550794437119 22.074487848592 0.9878977848490 111.97932912516
8.615030000000001 0.9878977805075 112.16770052811 0.1550796531672 22.074441345259 0.1550796531672 22.074441345259 0.9878977513799 111.97928271079
8.615035000000001 0.9878977470253 112.16765435292 0.1550798627769 22.074394832542 0.1550798627769 22.074394832542 0.9878977178855 111.97923628737
8.615040000000000 0.9878977135176 112.16760816880 0.1550800725419 22.074348310379 0.1550800725419 22.074348310379 0.9878976843654 111.97918985484
8.615045000000000 0.9878976799842 112.16756197576 0.1550802824623 22.074301778777 0.1550802824623 22.074301778777 0.9878976508197 111.97914341322
8.615050000000000 0.9878976464252 112.16751577379 0.1550804925384 22.074255237700 0.1550804925384 22.074255237701 0.9878976172483 111.97909696247
8.615055000000000 0.9878976128405 112.16746956285 0.1550807027706 22.074208687140 0.1550807027706 22.074208687140 0.9878975836512 111.97905050257
8.615060000000000 0.9878975792300 112.16742334294 0.1550809131591 22.074162127073 0.1550809131591 22.074162127073 0.9878975500283 111.97900403351
8.615065000000001 0.9878975455937 112.16737711403 0.1550811237044 22.074115557471 0.1550811237044 22.074115557471 0.9878975163795 111.97895755526
8.615070000000001 0.9878975119315 112.16733087611 0.1550813344066 22.074068978334 0.1550813344066 22.074068978334 0.9878974827049 111.97891106783
8.615075000000001 0.9878974782434 112.16728462916 0.1550815452662 22.074022389627 0.1550815452662 22.074022389627 0.9878974490043 111.97886457116
8.615080000000001 0.9878974445294 112.16723837315 0.1550817562834 22.073975791331 0.1550817562834 22.073975791331 0.9878974152777 111.97881806526
8.615085000000001 0.9878974107893 112.16719210808 0.1550819674586 22.073929183433 0.1550819674586 22.073929183433 0.9878973815251 111.97877155011
8.615090000000000 0.9878973770231 112.16714583391 0.1550821787922 22.073882565900 0.1550821787922 22.073882565900 0.9878973477464 111.97872502567
8.615095000000000 0.9878973432307 112.16709955064 0.1550823902844 22.073835938723 0.1550823902844 22.073835938723 0.9878973139415 111.97867849194
8.615100000000000 0.9878973094122 112.16705325825 0.1550826019355 22.073789301875 0.1550826019355 22.073789301875 0.9878972801103 111.97863194889
8.615105000000000 0.9878972755674 112.16700695670 0.1550828137460 22.073742655345 0.1550828137460 22.073742655345 0.9878972462529 111.97858539650
8.615110000000001 0.9878972416963 112.16696064600 0.1550830257159 22.073695999109 0.1550830257159 22.073695999109 0.9878972123692 111.97853883477
8.615115000000001 0.9878972077989 112.16691432612 0.1550832378459 22.073649333145 0.1550832378459 22.073649333145 0.9878971784591 111.97849226367
8.615120000000001 0.9878971738750 112.16686799703 0.1550834501361 22.073602657433 0.1550834501362 22.073602657433 0.9878971445225 111.97844568317
8.615125000000001 0.9878971399247 112.16682165872 0.1550836625872 22.073555971942 0.1550836625872 22.073555971942 0.9878971105594 111.97839909325
8.615130000000001 0.9878971059478 112.16677531118 0.1550838751988 22.073509276677 0.1550838751988 22.073509276677 0.9878970765699 111.97835249391
8.615135000000000 0.9878970719444 112.16672895437 0.1550840879720 22.073462571594 0.1550840879720 22.073462571594 0.9878970425536 111.97830588512
8.615140000000000 0.9878970379143 112.16668258829 0.1550843009066 22.073415856685 0.1550843009066 22.073415856685 0.9878970085108 111.97825926686
8.615145000000000 0.9878970038576 112.16663621291 0.1550845140033 22.073369131919 0.1550845140033 22.073369131919 0.9878969744412 111.97821263910
8.615150000000000 0.9878969697740 112.16658982821 0.1550847272623 22.073322397280 0.1550847272623 22.073322397280 0.9878969403448 111.97816600183
8.615155000000000 0.9878969356637 112.16654343418 0.1550849406837 22.073275652759 0.1550849406837 22.073275652759 0.9878969062216 111.97811935505
8.615160000000001 0.9878969015265 112.16649703079 0.1550851542682 22.073228898309 0.1550851542682 22.073228898309 0.9878968720715 111.97807269870
8.615165000000001 0.9878968673624 112.16645061803 0.1550853680160 22.073182133937 0.1550853680160 22.073182133937 0.9878968378945 111.97802603280
8.615170000000001 0.9878968331713 112.16640419588 0.1550855819273 22.073135359607 0.1550855819273 22.073135359607 0.9878968036905 111.97797935730
8.615175000000001 0.9878967989532 112.16635776431 0.1550857960026 22.073088575306 0.1550857960026 22.073088575306 0.9878967694594 111.97793267220
8.615180000000001 0.9878967647079 112.16631132331 0.1550860102424 22.073041780999 0.1550860102424 22.073041780999 0.9878967352012 111.97788597746
8.615185000000000 0.9878967304356 112.16626487286 0.1550862246467 22.072994976671 0.1550862246467 22.072994976671 0.9878967009158 111.97783927307
8.615190000000000 0.9878966961360 112.16621841293 0.1550864392161 22.072948162306 0.1550864392161 22.072948162306 0.9878966666032 111.97779255902
8.615195000000000 0.9878966618092 112.16617194351 0.1550866539508 22.072901337881 0.1550866539508 22.072901337881 0.9878966322633 111.97774583528
8.615200000000000 0.9878966274550 112.16612546459 0.1550868688510 22.072854503382 0.1550868688510 22.072854503382 0.9878965978961 111.97769910183
8.615205000000001 0.9878965930734 112.16607897612 0.1550870839176 22.072807658758 0.1550870839176 22.072807658758 0.9878965635014 111.97765235864
8.615210000000001 0.9878965586645 112.16603247811 0.1550872991502 22.072760804032 0.1550872991502 22.072760804032 0.9878965290793 111.97760560572
8.615215000000001 0.9878965242280 112.16598597053 0.1550875145497 22.072713939146 0.1550875145497 22.072713939146 0.9878964946297 111.97755884302
8.615220000000001 0.9878964897640 112.16593945335 0.1550877301163 22.072667064097 0.1550877301163 22.072667064097 0.9878964601525 111.97751207053
8.615225000000001 0.9878964552723 112.16589292656 0.1550879458503 22.072620178856 0.1550879458503 22.072620178856 0.9878964256477 111.97746528823
8.615230000000000 0.9878964207530 112.16584639015 0.1550881617520 22.072573283409 0.1550881617520 22.072573283409 0.9878963911151 111.97741849610
8.615235000000000 0.9878963862060 112.16579984407 0.1550883778220 22.072526377716 0.1550883778220 22.072526377716 0.9878963565548 111.97737169410
8.615240000000000 0.9878963516312 112.16575328833 0.1550885940604 22.072479461777 0.1550885940604 22.072479461777 0.9878963219667 111.97732488225
8.615245000000000 0.9878963170285 112.16570672289 0.1550888104676 22.072432535563 0.1550888104676 22.072432535563 0.9878962873507 111.97727806050
8.615250000000001 0.9878962823979 112.16566014774 0.1550890270441 22.072385599040 0.1550890270441 22.072385599040 0.9878962527068 111.97723122882
8.615255000000001 0.9878962477393 112.16561356286 0.1550892437900 22.072338652207 0.1550892437900 22.072338652207 0.9878962180349 111.97718438723
8.615260000000001 0.9878962130527 112.16556696821 0.1550894607061 22.072291695018 0.1550894607061 22.072291695018 0.9878961833349 111.97713753565
8.615265000000001 0.9878961783381 112.16552036380 0.1550896777922 22.072244727471 0.1550896777922 22.072244727471 0.9878961486068 111.97709067412
8.615270000000001 0.9878961435952 112.16547374959 0.1550898950490 22.072197749537 0.1550898950490 22.072197749537 0.9878961138506 111.97704380258
8.615275000000000 0.9878961088242 112.16542712558 0.1550901124766 22.072150761200 0.1550901124766 22.072150761200 0.9878960790661 111.97699692103
8.615280000000000 0.9878960740249 112.16538049171 0.1550903300758 22.072103762414 0.1550903300758 22.072103762414 0.9878960442533 111.97695002943
8.615285000000000 0.9878960391973 112.16533384799 0.1550905478466 22.072056753188 0.1550905478466 22.072056753188 0.9878960094122 111.97690312777
8.615290000000000 0.9878960043413 112.16528719440 0.1550907657894 22.072009733482 0.1550907657894 22.072009733482 0.9878959745426 111.97685621604
8.615295000000000 0.9878959694568 112.16524053091 0.1550909839046 22.071962703282 0.1550909839046 22.071962703282 0.9878959396446 111.97680929420
8.615300000000001 0.9878959345438 112.16519385748 0.1550912021930 22.071915662539 0.1550912021930 22.071915662539 0.9878959047180 111.97676236221
8.615305000000001 0.9878958996023 112.16514717414 0.1550914206541 22.071868611274 0.1550914206541 22.071868611274 0.9878958697628 111.97671542010
8.615310000000001 0.9878958646320 112.16510048081 0.1550916392891 22.071821549423 0.1550916392891 22.071821549423 0.9878958347790 111.97666846780
8.615315000000001 0.9878958296332 112.16505377751 0.1550918580977 22.071774477000 0.1550918580977 22.071774477000 0.9878957997664 111.97662150533
8.615320000000001 0.9878957946055 112.16500706420 0.1550920770807 22.071727393956 0.1550920770807 22.071727393956 0.9878957647251 111.97657453264
8.615325000000000 0.9878957595490 112.16496034087 0.1550922962384 22.071680300272 0.1550922962384 22.071680300272 0.9878957296549 111.97652754971
8.615330000000000 0.9878957244637 112.16491360750 0.1550925155709 22.071633195942 0.1550925155709 22.071633195942 0.9878956945558 111.97648055653
8.615335000000000 0.9878956893494 112.16486686404 0.1550927350790 22.071586080914 0.1550927350790 22.071586080914 0.9878956594277 111.97643355307
8.615340000000000 0.9878956542061 112.16482011050 0.1550929547628 22.071538955188 0.1550929547628 22.071538955188 0.9878956242706 111.97638653931
8.615345000000001 0.9878956190337 112.16477334685 0.1550931746228 22.071491818731 0.1550931746228 22.071491818731 0.9878955890844 111.97633951523
8.615350000000001 0.9878955838321 112.16472657307 0.1550933946592 22.071444671528 0.1550933946592 22.071444671528 0.9878955538690 111.97629248081
8.615355000000001 0.9878955486014 112.16467978913 0.1550936148725 22.071397513545 0.1550936148725 22.071397513545 0.9878955186244 111.97624543602
8.615360000000001 0.9878955133415 112.16463299502 0.1550938352630 22.071350344776 0.1550938352630 22.071350344776 0.9878954833505 111.97619838085
8.615365000000001 0.9878954780521 112.16458619070 0.1550940558313 22.071303165170 0.1550940558313 22.071303165170 0.9878954480473 111.97615131526
8.615370000000000 0.9878954427335 112.16453937617 0.1550942765775 22.071255974726 0.1550942765775 22.071255974726 0.9878954127146 111.97610423924
8.615375000000000 0.9878954073853 112.16449255140 0.1550944975021 22.071208773418 0.1550944975021 22.071208773418 0.9878953773525 111.97605715278
8.615380000000000 0.9878953720077 112.16444571636 0.1550947186056 22.071161561207 0.1550947186056 22.071161561207 0.9878953419608 111.97601005582
8.615385000000000 0.9878953366004 112.16439887104 0.1550949398881 22.071114338094 0.1550949398881 22.071114338094 0.9878953065396 111.97596294838
8.615390000000000 0.9878953011636 112.16435201541 0.1550951613502 22.071067104033 0.1550951613502 22.071067104033 0.9878952710886 111.97591583041
8.615395000000001 0.9878952656970 112.16430514944 0.1550953829924 22.071019859008 0.1550953829924 22.071019859008 0.9878952356079 111.97586870189
8.615400000000001 0.9878952302006 112.16425827313 0.1550956048148 22.070972602990 0.1550956048148 22.070972602990 0.9878952000974 111.97582156281
8.615405000000001 0.9878951946744 112.16421138643 0.1550958268180 22.070925335964 0.1550958268180 22.070925335964 0.9878951645570 111.97577441314
8.615410000000001 0.9878951591183 112.16416448935 0.1550960490022 22.070878057908 0.1550960490022 22.070878057908 0.9878951289868 111.97572725286
8.615415000000000 0.9878951235322 112.16411758185 0.1550962713679 22.070830768787 0.1550962713679 22.070830768787 0.9878950933865 111.97568008194
8.615420000000000 0.9878950879160 112.16407066389 0.1550964939157 22.070783468579 0.1550964939157 22.070783468579 0.9878950577561 111.97563290035
8.615425000000000 0.9878950522698 112.16402373550 0.1550967166453 22.070736157277 0.1550967166453 22.070736157277 0.9878950220956 111.97558570811
8.615430000000000 0.9878950165934 112.16397679660 0.1550969395579 22.070688834831 0.1550969395579 22.070688834831 0.9878949864049 111.97553850514
8.615435000000000 0.9878949808868 112.16392984718 0.1550971626536 22.070641501225 0.1550971626536 22.070641501225 0.9878949506840 111.97549129145
8.615440000000001 0.9878949451499 112.16388288726 0.1550973859325 22.070594156454 0.1550973859325 22.070594156454 0.9878949149327 111.97544406702
8.615445000000001 0.9878949093826 112.16383591676 0.1550976093955 22.070546800463 0.1550976093955 22.070546800463 0.9878948791511 111.97539683180
8.615450000000001 0.9878948735849 112.16378893570 0.1550978330425 22.070499433257 0.1550978330425 22.070499433257 0.9878948433390 111.97534958580
8.615455000000001 0.9878948377567 112.16374194402 0.1550980568744 22.070452054775 0.1550980568744 22.070452054775 0.9878948074963 111.97530232896
8.615460000000001 0.9878948018979 112.16369494173 0.1550982808913 22.070404665021 0.1550982808913 22.070404665021 0.9878947716230 111.97525506129
8.615465000000000 0.9878947660085 112.16364792878 0.1550985050937 22.070357263958 0.1550985050937 22.070357263958 0.9878947357191 111.97520778274
8.615470000000000 0.9878947300883 112.16360090517 0.1550987294818 22.070309851573 0.1550987294818 22.070309851573 0.9878946997845 111.97516049331
8.615475000000000 0.9878946941375 112.16355387087 0.1550989540562 22.070262427835 0.1550989540562 22.070262427835 0.9878946638190 111.97511319296
8.615480000000000 0.9878946581557 112.16350682586 0.1550991788172 22.070214992714 0.1550991788172 22.070214992714 0.9878946278227 111.97506588168
8.615485000000001 0.9878946221431 112.16345977009 0.1550994037655 22.070167546182 0.1550994037655 22.070167546182 0.9878945917955 111.97501855942
8.615490000000001 0.9878945860995 112.16341270358 0.1550996289010 22.070120088229 0.1550996289010 22.070120088229 0.9878945557372 111.97497122620
8.615495000000001 0.9878945500248 112.16336562627 0.1550998542245 22.070072618819 0.1550998542245 22.070072618819 0.9878945196479 111.97492388195
8.615500000000001 0.9878945139191 112.16331853815 0.1551000797363 22.070025137922 0.1551000797363 22.070025137922 0.9878944835274 111.97487652667
8.615505000000001 0.9878944777821 112.16327143920 0.1551003054369 22.069977645519 0.1551003054369 22.069977645519 0.9878944473757 111.97482916033
8.615510000000000 0.9878944416139 112.16322432939 0.1551005313266 22.069930141582 0.1551005313266 22.069930141582 0.9878944111928 111.97478178291
8.615515000000000 0.9878944054144 112.16317720871 0.1551007574057 22.069882626096 0.1551007574057 22.069882626095 0.9878943749785 111.97473439439
8.615520000000000 0.9878943691835 112.16313007712 0.1551009836747 22.069835099030 0.1551009836747 22.069835099030 0.9878943387328 111.97468699474
8.615525000000000 0.9878943329211 112.16308293460 0.1551012101342 22.069787560347 0.1551012101342 22.069787560347 0.9878943024556 111.97463958393
8.615530000000000 0.9878942966272 112.16303578113 0.1551014367844 22.069740010025 0.1551014367844 22.069740010025 0.9878942661468 111.97459216194
8.615535000000001 0.9878942603018 112.16298861668 0.1551016636258 22.069692448057 0.1551016636258 22.069692448057 0.9878942298064 111.97454472875
8.615540000000001 0.9878942239446 112.16294144123 0.1551018906588 22.069644874396 0.1551018906588 22.069644874396 0.9878941934343 111.97449728433
8.615545000000001 0.9878941875557 112.16289425476 0.1551021178840 22.069597289013 0.1551021178840 22.069597289013 0.9878941570304 111.97444982865
8.615550000000001 0.9878941511350 112.16284705725 0.1551023453013 22.069549691915 0.1551023453013 22.069549691915 0.9878941205948 111.97440236171
8.615555000000001 0.9878941146824 112.16279984865 0.1551025729118 22.069502083025 0.1551025729118 22.069502083025 0.9878940841271 111.97435488344
8.615560000000000 0.9878940781979 112.16275262897 0.1551028007154 22.069454462368 0.1551028007154 22.069454462368 0.9878940476276 111.97430739387
8.615565000000000 0.9878940416813 112.16270539816 0.1551030287128 22.069406829881 0.1551030287128 22.069406829881 0.9878940110959 111.97425989294
8.615570000000000 0.9878940051327 112.16265815619 0.1551032569044 22.069359185545 0.1551032569044 22.069359185545 0.9878939745321 111.97421238062
8.615575000000000 0.9878939685518 112.16261090307 0.1551034852905 22.069311529353 0.1551034852905 22.069311529353 0.9878939379362 111.97416485691
8.615580000000001 0.9878939319388 112.16256363874 0.1551037138718 22.069263861243 0.1551037138718 22.069263861243 0.9878939013079 111.97411732176
8.615585000000001 0.9878938952934 112.16251636321 0.1551039426482 22.069216181228 0.1551039426482 22.069216181228 0.9878938646473 111.97406977518
8.615590000000001 0.9878938586156 112.16246907642 0.1551041716208 22.069168489251 0.1551041716208 22.069168489251 0.9878938279543 111.97402221710
8.615595000000001 0.9878938219054 112.16242177836 0.1551044007895 22.069120785306 0.1551044007895 22.069120785306 0.9878937912288 111.97397464752
8.615600000000001 0.9878937851627 112.16237446901 0.1551046301551 22.069073069351 0.1551046301551 22.069073069351 0.9878937544708 111.97392706642
8.615605000000000 0.9878937483873 112.16232714833 0.1551048597178 22.069025341361 0.1551048597178 22.069025341361 0.9878937176801 111.97387947376
8.615610000000000 0.9878937115793 112.16227981633 0.1551050894779 22.068977601329 0.1551050894779 22.068977601329 0.9878936808567 111.97383186953
8.615615000000000 0.9878936747385 112.16223247294 0.1551053194363 22.068929849202 0.1551053194363 22.068929849202 0.9878936440005 111.97378425368
8.615620000000000 0.9878936378649 112.16218511817 0.1551055495929 22.068882084969 0.1551055495929 22.068882084969 0.9878936071115 111.97373662622
8.615625000000001 0.9878936009584 112.16213775196 0.1551057799488 22.068834308579 0.1551057799488 22.068834308579 0.9878935701895 111.97368898708
8.615630000000001 0.9878935640189 112.16209037432 0.1551060105039 22.068786520039 0.1551060105039 22.068786520039 0.9878935332346 111.97364133627
8.615635000000001 0.9878935270464 112.16204298520 0.1551062412589 22.068738719290 0.1551062412589 22.068738719290 0.9878934962465 111.97359367374
8.615640000000001 0.9878934900408 112.16199558458 0.1551064722142 22.068690906321 0.1551064722142 22.068690906321 0.9878934592253 111.97354599948
8.615645000000001 0.9878934530019 112.16194817245 0.1551067033700 22.068643081107 0.1551067033700 22.068643081107 0.9878934221709 111.97349831346
8.615650000000000 0.9878934159298 112.16190074878 0.1551069347270 22.068595243622 0.1551069347270 22.068595243622 0.9878933850832 111.97345061566
8.615655000000000 0.9878933788243 112.16185331351 0.1551071662857 22.068547393814 0.1551071662857 22.068547393814 0.9878933479621 111.97340290603
8.615660000000000 0.9878933416855 112.16180586667 0.1551073980463 22.068499531688 0.1551073980463 22.068499531688 0.9878933108075 111.97335518458
8.615665000000000 0.9878933045131 112.16175840818 0.1551076300096 22.068451657192 0.1551076300096 22.068451657192 0.9878932736194 111.97330745124
8.615670000000000 0.9878932673072 112.16171093805 0.1551078621756 22.068403770314 0.1551078621756 22.068403770314 0.9878932363977 111.97325970603
8.615675000000001 0.9878932300676 112.16166345624 0.1551080945452 22.068355871009 0.1551080945452 22.068355871009 0.9878931991423 111.97321194888
8.615680000000001 0.9878931927942 112.16161596273 0.1551083271187 22.068307959264 0.1551083271187 22.068307959264 0.9878931618532 111.97316417980
8.615685000000001 0.9878931554871 112.16156845750 0.1551085598962 22.068260035051 0.1551085598962 22.068260035051 0.9878931245302 111.97311639875
8.615690000000001 0.9878931181461 112.16152094050 0.1551087928787 22.068212098329 0.1551087928787 22.068212098329 0.9878930871733 111.97306860569
8.615695000000001 0.9878930807711 112.16147341172 0.1551090260665 22.068164149070 0.1551090260665 22.068164149070 0.9878930497824 111.97302080060
8.615700000000000 0.9878930433621 112.16142587114 0.1551092594598 22.068116187258 0.1551092594598 22.068116187258 0.9878930123575 111.97297298347
8.615705000000000 0.9878930059190 112.16137831871 0.1551094930594 22.068068212857 0.1551094930594 22.068068212857 0.9878929748984 111.97292515425
8.615710000000000 0.9878929684417 112.16133075442 0.1551097268657 22.068020225833 0.1551097268657 22.068020225833 0.9878929374050 111.97287731291
8.615715000000000 0.9878929309301 112.16128317826 0.1551099608789 22.067972226173 0.1551099608789 22.067972226173 0.9878928998774 111.97282945946
8.615720000000001 0.9878928933842 112.16123559017 0.1551101950997 22.067924213834 0.1551101950997 22.067924213834 0.9878928623154 111.97278159383
8.615725000000001 0.9878928558038 112.16118799013 0.1551104295287 22.067876188783 0.1551104295287 22.067876188782 0.9878928247189 111.97273371601
8.615730000000001 0.9878928181889 112.16114037813 0.1551106641660 22.067828151004 0.1551106641660 22.067828151004 0.9878927870879 111.97268582598
8.615735000000001 0.9878927805395 112.16109275414 0.1551108990123 22.067780100469 0.1551108990123 22.067780100469 0.9878927494223 111.97263792371
8.615740000000001 0.9878927428554 112.16104511814 0.1551111340678 22.067732037146 0.1551111340678 22.067732037146 0.9878927117220 111.97259000917
8.615745000000000 0.9878927051365 112.16099747006 0.1551113693336 22.067683960984 0.1551113693336 22.067683960984 0.9878926739869 111.97254208231
8.615750000000000 0.9878926673828 112.16094980990 0.1551116048098 22.067635871970 0.1551116048098 22.067635871970 0.9878926362169 111.97249414312
8.615755000000000 0.9878926295942 112.16090213766 0.1551118404966 22.067587770093 0.1551118404966 22.067587770093 0.9878925984120 111.97244619159
8.615760000000000 0.9878925917707 112.16085445328 0.1551120763947 22.067539655301 0.1551120763947 22.067539655301 0.9878925605721 111.97239822768
8.615765000000000 0.9878925539121 112.16080675674 0.1551123125047 22.067491527573 0.1551123125047 22.067491527573 0.9878925226971 111.97235025135
8.615770000000001 0.9878925160183 112.16075904802 0.1551125488268 22.067443386884 0.1551125488268 22.067443386884 0.9878924847869 111.97230226259
8.615775000000001 0.9878924780893 112.16071132707 0.1551127853620 22.067395233172 0.1551127853620 22.067395233172 0.9878924468414 111.97225426134
8.615780000000001 0.9878924401250 112.16066359388 0.1551130221104 22.067347066441 0.1551130221104 22.067347066441 0.9878924088606 111.97220624760
8.615785000000001 0.9878924021253 112.16061584842 0.1551132590725 22.067298886655 0.1551132590725 22.067298886655 0.9878923708444 111.97215822134
8.615790000000001 0.9878923640901 112.16056809067 0.1551134962486 22.067250693787 0.1551134962486 22.067250693787 0.9878923327927 111.97211018254
8.615795000000000 0.9878923260194 112.16052032059 0.1551137336396 22.067202487787 0.1551137336396 22.067202487787 0.9878922947053 111.97206213114
8.615800000000000 0.9878922879130 112.16047253815 0.1551139712460 22.067154268629 0.1551139712460 22.067154268629 0.9878922565823 111.97201406712
8.615805000000000 0.9878922497709 112.16042474333 0.1551142090678 22.067106036307 0.1551142090678 22.067106036307 0.9878922184236 111.97196599048
8.615810000000000 0.9878922115930 112.16037693609 0.1551144471060 22.067057790753 0.1551144471060 22.067057790753 0.9878921802289 111.97191790116
8.615815000000001 0.9878921733793 112.16032911643 0.1551146853607 22.067009531983 0.1551146853607 22.067009531983 0.9878921419985 111.97186979915
8.615820000000001 0.9878921351295 112.16028128429 0.1551149238326 22.066961259928 0.1551149238326 22.066961259928 0.9878921037320 111.97182168441
8.615825000000001 0.9878920968437 112.16023343966 0.1551151625222 22.066912974570 0.1551151625222 22.066912974570 0.9878920654294 111.97177355692
8.615830000000001 0.9878920585218 112.16018558249 0.1551154014302 22.066864675869 0.1551154014302 22.066864675869 0.9878920270906 111.97172541663
8.615835000000001 0.9878920201636 112.16013771278 0.1551156405567 22.066816363809 0.1551156405567 22.066816363809 0.9878919887155 111.97167726354
8.615840000000000 0.9878919817692 112.16008983049 0.1551158799023 22.066768038357 0.1551158799023 22.066768038357 0.9878919503042 111.97162909760
8.615845000000000 0.9878919433383 112.16004193558 0.1551161194676 22.066719699474 0.1551161194676 22.066719699474 0.9878919118564 111.97158091879
8.615850000000000 0.9878919048710 112.15999402804 0.1551163592531 22.066671347134 0.1551163592531 22.066671347134 0.9878918733721 111.97153272708
8.615855000000000 0.9878918663671 112.15994610782 0.1551165992594 22.066622981295 0.1551165992594 22.066622981295 0.9878918348512 111.97148452243
8.615860000000001 0.9878918278267 112.15989817492 0.1551168394865 22.066574601954 0.1551168394865 22.066574601954 0.9878917962936 111.97143630483
8.615865000000001 0.9878917892494 112.15985022927 0.1551170799357 22.066526209040 0.1551170799357 22.066526209040 0.9878917576992 111.97138807423
8.615870000000001 0.9878917506353 112.15980227087 0.1551173206070 22.066477802543 0.1551173206070 22.066477802543 0.9878917190680 111.97133983061
8.615875000000001 0.9878917119843 112.15975429968 0.1551175615012 22.066429382421 0.1551175615012 22.066429382421 0.9878916803999 111.97129157393
8.615880000000001 0.9878916732964 112.15970631569 0.1551178026183 22.066380948669 0.1551178026183 22.066380948669 0.9878916416947 111.97124330418
8.615885000000000 0.9878916345714 112.15965831885 0.1551180439592 22.066332501231 0.1551180439592 22.066332501231 0.9878916029525 111.97119502132
8.615890000000000 0.9878915958092 112.15961030913 0.1551182855244 22.066284040076 0.1551182855244 22.066284040076 0.9878915641730 111.97114672532
8.615895000000000 0.9878915570097 112.15956228650 0.1551185273145 22.066235565171 0.1551185273145 22.066235565171 0.9878915253562 111.97109841613
8.615900000000000 0.9878915181729 112.15951425094 0.1551187693299 22.066187076494 0.1551187693299 22.066187076494 0.9878914865021 111.97105009375
8.615905000000000 0.9878914792987 112.15946620243 0.1551190115710 22.066138574011 0.1551190115710 22.066138574011 0.9878914476105 111.97100175814
8.615910000000001 0.9878914403870 112.15941814090 0.1551192540387 22.066090057663 0.1551192540387 22.066090057663 0.9878914086813 111.97095340925
8.615915000000001 0.9878914014377 112.15937006636 0.1551194967331 22.066041527455 0.1551194967331 22.066041527455 0.9878913697145 111.97090504708
8.615920000000001 0.9878913624506 112.15932197875 0.1551197396552 22.065992983326 0.1551197396552 22.065992983326 0.9878913307099 111.97085667156
8.615925000000001 0.9878913234258 112.15927387807 0.1551199828049 22.065944425269 0.1551199828049 22.065944425269 0.9878912916676 111.97080828270
8.615930000000001 0.9878912843631 112.15922576427 0.1551202261831 22.065895853237 0.1551202261831 22.065895853237 0.9878912525873 111.97075988046
8.615935000000000 0.9878912452625 112.15917763733 0.1551204697903 22.065847267199 0.1551204697903 22.065847267199 0.9878912134691 111.97071146480
8.615940000000000 0.9878912061238 112.15912949720 0.1551207136271 22.065798667112 0.1551207136271 22.065798667112 0.9878911743127 111.97066303568
8.615945000000000 0.9878911669470 112.15908134387 0.1551209576939 22.065750052961 0.1551209576939 22.065750052961 0.9878911351182 111.97061459308
8.615950000000000 0.9878911277320 112.15903317731 0.1551212019913 22.065701424697 0.1551212019913 22.065701424697 0.9878910958854 111.97056613697
8.615955000000001 0.9878910884785 112.15898499746 0.1551214465201 22.065652782281 0.1551214465201 22.065652782281 0.9878910566142 111.97051766730
8.615960000000001 0.9878910491868 112.15893680434 0.1551216912800 22.065604125726 0.1551216912800 22.065604125726 0.9878910173047 111.97046918409
8.615965000000001 0.9878910098565 112.15888859785 0.1551219362728 22.065555454914 0.1551219362728 22.065555454914 0.9878909779565 111.97042068723
8.615970000000001 0.9878909704877 112.15884037804 0.1551221814976 22.065506769916 0.1551221814976 22.065506769916 0.9878909385698 111.97037217678
8.615975000000001 0.9878909310801 112.15879214481 0.1551224269563 22.065458070602 0.1551224269563 22.065458070602 0.9878908991442 111.97032365262
8.615980000000000 0.9878908916337 112.15874389815 0.1551226726488 22.065409356983 0.1551226726488 22.065409356983 0.9878908596799 111.97027511475
8.615985000000000 0.9878908521484 112.15869563804 0.1551229185757 22.065360629019 0.1551229185757 22.065360629019 0.9878908201766 111.97022656316
8.615990000000000 0.9878908126243 112.15864736445 0.1551231647373 22.065311886692 0.1551231647373 22.065311886692 0.9878907806344 111.97017799781
8.615995000000000 0.9878907730610 112.15859907733 0.1551234111346 22.065263129937 0.1551234111346 22.065263129937 0.9878907410530 111.97012941864
8.616000000000000 0.9878907334586 112.15855077666 0.1551236577680 22.065214358743 0.1551236577680 22.065214358743 0.9878907014325 111.97008082564