! Sonnet Data File
! From: emgraph Version : 16.52
! From Project: transmon_brgOdd
! Data is De-embedded 
! Data File Written: 11/12/2017 17:05:33
!< HDATE 11/11/2017 22:57:51
!< MDATE 11/11/2017 22:57:51
!< PARAMS
!< Lj = 15.24
!< Gap = 6.0
!< Width = 10.0
!< Airgap = 6.0
!< Pwidth = 2000.0
!< Dist = 2400.0
!< END PARAMS
# GHZ S MA R 34.67000
8.78000000 0.999471 153.52 0.032418 63.638 0.032418 63.638 0.999471 153.76
!< P1 F=8.78 Eeff=(5.13743391 -5.7017e-5) Z0=(34.6430374 -9.7216e-5) R=0.0 C=0.0 
!< P2 F=8.78 Eeff=(5.13743391 -5.7017e-5) Z0=(34.6430374 -9.7216e-5) R=0.0 C=0.0 
8.78001000 0.999471 153.52 0.032420 63.638 0.032420 63.638 0.999471 153.76
8.78002000 0.999471 153.52 0.032422 63.638 0.032422 63.638 0.999471 153.76
8.78003000 0.999471 153.52 0.032424 63.638 0.032424 63.638 0.999471 153.76
8.78004000 0.999471 153.52 0.032425 63.637 0.032425 63.637 0.999471 153.76
8.78005000 0.999471 153.52 0.032427 63.637 0.032427 63.637 0.999471 153.76
8.78006000 0.999471 153.52 0.032429 63.637 0.032429 63.637 0.999471 153.76
8.78007000 0.999471 153.52 0.032430 63.637 0.032430 63.637 0.999471 153.76
8.78008000 0.999470 153.52 0.032432 63.637 0.032432 63.637 0.999471 153.76
8.78009000 0.999470 153.52 0.032434 63.637 0.032434 63.637 0.999471 153.76
8.78010000 0.999470 153.52 0.032436 63.637 0.032436 63.637 0.999471 153.76
8.78011000 0.999470 153.52 0.032437 63.637 0.032437 63.637 0.999470 153.76
8.78012000 0.999470 153.52 0.032439 63.636 0.032439 63.636 0.999470 153.76
8.78013000 0.999470 153.52 0.032441 63.636 0.032441 63.636 0.999470 153.76
8.78014000 0.999470 153.52 0.032443 63.636 0.032443 63.636 0.999470 153.76
8.78015000 0.999470 153.52 0.032444 63.636 0.032444 63.636 0.999470 153.76
8.78016000 0.999470 153.52 0.032446 63.636 0.032446 63.636 0.999470 153.76
8.78017000 0.999470 153.52 0.032448 63.636 0.032448 63.636 0.999470 153.76
8.78018000 0.999470 153.52 0.032450 63.636 0.032450 63.636 0.999470 153.76
8.78019000 0.999470 153.52 0.032451 63.635 0.032451 63.635 0.999470 153.76
8.78020000 0.999470 153.52 0.032453 63.635 0.032453 63.635 0.999470 153.76
8.78021000 0.999470 153.52 0.032455 63.635 0.032455 63.635 0.999470 153.76
8.78022000 0.999470 153.52 0.032457 63.635 0.032457 63.635 0.999470 153.76
8.78023000 0.999470 153.52 0.032458 63.635 0.032458 63.635 0.999470 153.76
8.78024000 0.999470 153.52 0.032460 63.635 0.032460 63.635 0.999470 153.76
8.78025000 0.999469 153.52 0.032462 63.635 0.032462 63.635 0.999470 153.76
8.78026000 0.999469 153.52 0.032464 63.634 0.032464 63.634 0.999470 153.76
8.78027000 0.999469 153.52 0.032466 63.634 0.032466 63.634 0.999469 153.76
8.78028000 0.999469 153.52 0.032467 63.634 0.032467 63.634 0.999469 153.76
8.78029000 0.999469 153.51 0.032469 63.634 0.032469 63.634 0.999469 153.76
8.78030000 0.999469 153.51 0.032471 63.634 0.032471 63.634 0.999469 153.76
8.78031000 0.999469 153.51 0.032473 63.634 0.032473 63.634 0.999469 153.76
8.78032000 0.999469 153.51 0.032474 63.634 0.032474 63.634 0.999469 153.76
8.78033000 0.999469 153.51 0.032476 63.634 0.032476 63.634 0.999469 153.76
8.78034000 0.999469 153.51 0.032478 63.633 0.032478 63.633 0.999469 153.76
8.78035000 0.999469 153.51 0.032480 63.633 0.032480 63.633 0.999469 153.76
8.78036000 0.999469 153.51 0.032482 63.633 0.032482 63.633 0.999469 153.76
8.78037000 0.999469 153.51 0.032483 63.633 0.032483 63.633 0.999469 153.76
8.78038000 0.999469 153.51 0.032485 63.633 0.032485 63.633 0.999469 153.76
8.78039000 0.999469 153.51 0.032487 63.633 0.032487 63.633 0.999469 153.76
8.78040000 0.999468 153.51 0.032489 63.633 0.032489 63.633 0.999469 153.76
8.78041000 0.999468 153.51 0.032491 63.632 0.032491 63.632 0.999469 153.76
8.78042000 0.999468 153.51 0.032493 63.632 0.032493 63.632 0.999469 153.76
8.78043000 0.999468 153.51 0.032494 63.632 0.032494 63.632 0.999468 153.76
8.78044000 0.999468 153.51 0.032496 63.632 0.032496 63.632 0.999468 153.76
8.78045000 0.999468 153.51 0.032498 63.632 0.032498 63.632 0.999468 153.76
8.78046000 0.999468 153.51 0.032500 63.632 0.032500 63.632 0.999468 153.76
8.78047000 0.999468 153.51 0.032502 63.632 0.032502 63.632 0.999468 153.76
8.78048000 0.999468 153.51 0.032504 63.631 0.032504 63.631 0.999468 153.76
8.78049000 0.999468 153.51 0.032505 63.631 0.032505 63.631 0.999468 153.76
8.78050000 0.999468 153.51 0.032507 63.631 0.032507 63.631 0.999468 153.76
8.78051000 0.999468 153.51 0.032509 63.631 0.032509 63.631 0.999468 153.76
8.78052000 0.999468 153.51 0.032511 63.631 0.032511 63.631 0.999468 153.76
8.78053000 0.999468 153.51 0.032513 63.631 0.032513 63.631 0.999468 153.76
8.78054000 0.999468 153.51 0.032515 63.631 0.032515 63.631 0.999468 153.76
8.78055000 0.999468 153.51 0.032516 63.630 0.032516 63.630 0.999468 153.76
8.78056000 0.999467 153.51 0.032518 63.630 0.032518 63.630 0.999468 153.76
8.78057000 0.999467 153.51 0.032520 63.630 0.032520 63.630 0.999468 153.76
8.78058000 0.999467 153.51 0.032522 63.630 0.032522 63.630 0.999467 153.76
8.78059000 0.999467 153.51 0.032524 63.630 0.032524 63.630 0.999467 153.76
8.78060000 0.999467 153.51 0.032526 63.630 0.032526 63.630 0.999467 153.76
8.78061000 0.999467 153.51 0.032528 63.630 0.032528 63.630 0.999467 153.76
8.78062000 0.999467 153.51 0.032530 63.629 0.032530 63.629 0.999467 153.76
8.78063000 0.999467 153.51 0.032531 63.629 0.032531 63.629 0.999467 153.76
8.78064000 0.999467 153.51 0.032533 63.629 0.032533 63.629 0.999467 153.76
8.78065000 0.999467 153.51 0.032535 63.629 0.032535 63.629 0.999467 153.76
8.78066000 0.999467 153.51 0.032537 63.629 0.032537 63.629 0.999467 153.76
8.78067000 0.999467 153.51 0.032539 63.629 0.032539 63.629 0.999467 153.76
8.78068000 0.999467 153.51 0.032541 63.629 0.032541 63.629 0.999467 153.76
8.78069000 0.999467 153.51 0.032543 63.628 0.032543 63.628 0.999467 153.76
8.78070000 0.999467 153.51 0.032545 63.628 0.032545 63.628 0.999467 153.76
8.78071000 0.999466 153.51 0.032547 63.628 0.032547 63.628 0.999467 153.76
8.78072000 0.999466 153.51 0.032549 63.628 0.032549 63.628 0.999467 153.76
8.78073000 0.999466 153.51 0.032550 63.628 0.032550 63.628 0.999466 153.76
8.78074000 0.999466 153.51 0.032552 63.628 0.032552 63.628 0.999466 153.76
8.78075000 0.999466 153.51 0.032554 63.628 0.032554 63.628 0.999466 153.76
8.78076000 0.999466 153.51 0.032556 63.627 0.032556 63.627 0.999466 153.75
8.78077000 0.999466 153.51 0.032558 63.627 0.032558 63.627 0.999466 153.75
8.78078000 0.999466 153.51 0.032560 63.627 0.032560 63.627 0.999466 153.75
8.78079000 0.999466 153.51 0.032562 63.627 0.032562 63.627 0.999466 153.75
8.78080000 0.999466 153.51 0.032564 63.627 0.032564 63.627 0.999466 153.75
8.78081000 0.999466 153.51 0.032566 63.627 0.032566 63.627 0.999466 153.75
8.78082000 0.999466 153.51 0.032568 63.626 0.032568 63.626 0.999466 153.75
8.78083000 0.999466 153.51 0.032570 63.626 0.032570 63.626 0.999466 153.75
8.78084000 0.999466 153.51 0.032572 63.626 0.032572 63.626 0.999466 153.75
8.78085000 0.999466 153.51 0.032574 63.626 0.032574 63.626 0.999466 153.75
8.78086000 0.999465 153.51 0.032576 63.626 0.032576 63.626 0.999466 153.75
8.78087000 0.999465 153.51 0.032578 63.626 0.032578 63.626 0.999466 153.75
8.78088000 0.999465 153.51 0.032580 63.626 0.032580 63.626 0.999465 153.75
8.78089000 0.999465 153.51 0.032582 63.625 0.032582 63.625 0.999465 153.75
8.78090000 0.999465 153.51 0.032584 63.625 0.032584 63.625 0.999465 153.75
8.78091000 0.999465 153.51 0.032586 63.625 0.032586 63.625 0.999465 153.75
8.78092000 0.999465 153.51 0.032587 63.625 0.032587 63.625 0.999465 153.75
8.78093000 0.999465 153.51 0.032589 63.625 0.032589 63.625 0.999465 153.75
8.78094000 0.999465 153.51 0.032591 63.625 0.032591 63.625 0.999465 153.75
8.78095000 0.999465 153.51 0.032593 63.625 0.032593 63.625 0.999465 153.75
8.78096000 0.999465 153.51 0.032595 63.624 0.032595 63.624 0.999465 153.75
8.78097000 0.999465 153.51 0.032597 63.624 0.032597 63.624 0.999465 153.75
8.78098000 0.999465 153.51 0.032599 63.624 0.032599 63.624 0.999465 153.75
8.78099000 0.999465 153.51 0.032601 63.624 0.032601 63.624 0.999465 153.75
8.78100000 0.999464 153.51 0.032603 63.624 0.032603 63.624 0.999465 153.75
8.78101000 0.999464 153.50 0.032605 63.624 0.032605 63.624 0.999465 153.75
8.78102000 0.999464 153.50 0.032607 63.623 0.032607 63.623 0.999464 153.75
8.78103000 0.999464 153.50 0.032609 63.623 0.032609 63.623 0.999464 153.75
8.78104000 0.999464 153.50 0.032611 63.623 0.032611 63.623 0.999464 153.75
8.78105000 0.999464 153.50 0.032613 63.623 0.032613 63.623 0.999464 153.75
8.78106000 0.999464 153.50 0.032616 63.623 0.032616 63.623 0.999464 153.75
8.78107000 0.999464 153.50 0.032618 63.623 0.032618 63.623 0.999464 153.75
8.78108000 0.999464 153.50 0.032620 63.623 0.032620 63.623 0.999464 153.75
8.78109000 0.999464 153.50 0.032622 63.622 0.032622 63.622 0.999464 153.75
8.78110000 0.999464 153.50 0.032624 63.622 0.032624 63.622 0.999464 153.75
8.78111000 0.999464 153.50 0.032626 63.622 0.032626 63.622 0.999464 153.75
8.78112000 0.999464 153.50 0.032628 63.622 0.032628 63.622 0.999464 153.75
8.78113000 0.999464 153.50 0.032630 63.622 0.032630 63.622 0.999464 153.75
8.78114000 0.999463 153.50 0.032632 63.622 0.032632 63.622 0.999464 153.75
8.78115000 0.999463 153.50 0.032634 63.621 0.032634 63.621 0.999464 153.75
8.78116000 0.999463 153.50 0.032636 63.621 0.032636 63.621 0.999463 153.75
8.78117000 0.999463 153.50 0.032638 63.621 0.032638 63.621 0.999463 153.75
8.78118000 0.999463 153.50 0.032640 63.621 0.032640 63.621 0.999463 153.75
8.78119000 0.999463 153.50 0.032642 63.621 0.032642 63.621 0.999463 153.75
8.78120000 0.999463 153.50 0.032644 63.621 0.032644 63.621 0.999463 153.75
8.78121000 0.999463 153.50 0.032646 63.621 0.032646 63.621 0.999463 153.75
8.78122000 0.999463 153.50 0.032648 63.620 0.032648 63.620 0.999463 153.75
8.78123000 0.999463 153.50 0.032650 63.620 0.032650 63.620 0.999463 153.75
8.78124000 0.999463 153.50 0.032653 63.620 0.032653 63.620 0.999463 153.75
8.78125000 0.999463 153.50 0.032655 63.620 0.032655 63.620 0.999463 153.75
8.78126000 0.999463 153.50 0.032657 63.620 0.032657 63.620 0.999463 153.75
8.78127000 0.999462 153.50 0.032659 63.620 0.032659 63.620 0.999463 153.75
8.78128000 0.999462 153.50 0.032661 63.619 0.032661 63.619 0.999463 153.75
8.78129000 0.999462 153.50 0.032663 63.619 0.032663 63.619 0.999463 153.75
8.78130000 0.999462 153.50 0.032665 63.619 0.032665 63.619 0.999462 153.75
8.78131000 0.999462 153.50 0.032667 63.619 0.032667 63.619 0.999462 153.75
8.78132000 0.999462 153.50 0.032669 63.619 0.032669 63.619 0.999462 153.75
8.78133000 0.999462 153.50 0.032672 63.619 0.032672 63.619 0.999462 153.75
8.78134000 0.999462 153.50 0.032674 63.618 0.032674 63.618 0.999462 153.75
8.78135000 0.999462 153.50 0.032676 63.618 0.032676 63.618 0.999462 153.75
8.78136000 0.999462 153.50 0.032678 63.618 0.032678 63.618 0.999462 153.75
8.78137000 0.999462 153.50 0.032680 63.618 0.032680 63.618 0.999462 153.75
8.78138000 0.999462 153.50 0.032682 63.618 0.032682 63.618 0.999462 153.75
8.78139000 0.999462 153.50 0.032684 63.618 0.032684 63.618 0.999462 153.75
8.78140000 0.999462 153.50 0.032686 63.617 0.032686 63.617 0.999462 153.75
8.78141000 0.999461 153.50 0.032689 63.617 0.032689 63.617 0.999462 153.75
8.78142000 0.999461 153.50 0.032691 63.617 0.032691 63.617 0.999462 153.75
8.78143000 0.999461 153.50 0.032693 63.617 0.032693 63.617 0.999461 153.75
8.78144000 0.999461 153.50 0.032695 63.617 0.032695 63.617 0.999461 153.75
8.78145000 0.999461 153.50 0.032697 63.617 0.032697 63.617 0.999461 153.75
8.78146000 0.999461 153.50 0.032699 63.617 0.032699 63.617 0.999461 153.74
8.78147000 0.999461 153.50 0.032702 63.616 0.032702 63.616 0.999461 153.74
8.78148000 0.999461 153.50 0.032704 63.616 0.032704 63.616 0.999461 153.74
8.78149000 0.999461 153.50 0.032706 63.616 0.032706 63.616 0.999461 153.74
8.78150000 0.999461 153.50 0.032708 63.616 0.032708 63.616 0.999461 153.74
8.78151000 0.999461 153.50 0.032710 63.616 0.032710 63.616 0.999461 153.74
8.78152000 0.999461 153.50 0.032713 63.616 0.032713 63.616 0.999461 153.74
8.78153000 0.999460 153.50 0.032715 63.615 0.032715 63.615 0.999461 153.74
8.78154000 0.999460 153.50 0.032717 63.615 0.032717 63.615 0.999461 153.74
8.78155000 0.999460 153.50 0.032719 63.615 0.032719 63.615 0.999461 153.74
8.78156000 0.999460 153.50 0.032721 63.615 0.032721 63.615 0.999460 153.74
8.78157000 0.999460 153.50 0.032724 63.615 0.032724 63.615 0.999460 153.74
8.78158000 0.999460 153.50 0.032726 63.615 0.032726 63.615 0.999460 153.74
8.78159000 0.999460 153.50 0.032728 63.614 0.032728 63.614 0.999460 153.74
8.78160000 0.999460 153.50 0.032730 63.614 0.032730 63.614 0.999460 153.74
8.78161000 0.999460 153.50 0.032732 63.614 0.032732 63.614 0.999460 153.74
8.78162000 0.999460 153.50 0.032735 63.614 0.032735 63.614 0.999460 153.74
8.78163000 0.999460 153.50 0.032737 63.614 0.032737 63.614 0.999460 153.74
8.78164000 0.999460 153.50 0.032739 63.614 0.032739 63.614 0.999460 153.74
8.78165000 0.999460 153.50 0.032741 63.613 0.032741 63.613 0.999460 153.74
8.78166000 0.999459 153.49 0.032744 63.613 0.032744 63.613 0.999460 153.74
8.78167000 0.999459 153.49 0.032746 63.613 0.032746 63.613 0.999460 153.74
8.78168000 0.999459 153.49 0.032748 63.613 0.032748 63.613 0.999459 153.74
8.78169000 0.999459 153.49 0.032750 63.613 0.032750 63.613 0.999459 153.74
8.78170000 0.999459 153.49 0.032753 63.613 0.032753 63.613 0.999459 153.74
8.78171000 0.999459 153.49 0.032755 63.612 0.032755 63.612 0.999459 153.74
8.78172000 0.999459 153.49 0.032757 63.612 0.032757 63.612 0.999459 153.74
8.78173000 0.999459 153.49 0.032759 63.612 0.032759 63.612 0.999459 153.74
8.78174000 0.999459 153.49 0.032762 63.612 0.032762 63.612 0.999459 153.74
8.78175000 0.999459 153.49 0.032764 63.612 0.032764 63.612 0.999459 153.74
8.78176000 0.999459 153.49 0.032766 63.611 0.032766 63.611 0.999459 153.74
8.78177000 0.999459 153.49 0.032769 63.611 0.032769 63.611 0.999459 153.74
8.78178000 0.999458 153.49 0.032771 63.611 0.032771 63.611 0.999459 153.74
8.78179000 0.999458 153.49 0.032773 63.611 0.032773 63.611 0.999459 153.74
8.78180000 0.999458 153.49 0.032776 63.611 0.032776 63.611 0.999459 153.74
8.78181000 0.999458 153.49 0.032778 63.611 0.032778 63.611 0.999458 153.74
8.78182000 0.999458 153.49 0.032780 63.610 0.032780 63.610 0.999458 153.74
8.78183000 0.999458 153.49 0.032782 63.610 0.032782 63.610 0.999458 153.74
8.78184000 0.999458 153.49 0.032785 63.610 0.032785 63.610 0.999458 153.74
8.78185000 0.999458 153.49 0.032787 63.610 0.032787 63.610 0.999458 153.74
8.78186000 0.999458 153.49 0.032789 63.610 0.032789 63.610 0.999458 153.74
8.78187000 0.999458 153.49 0.032792 63.610 0.032792 63.610 0.999458 153.74
8.78188000 0.999458 153.49 0.032794 63.609 0.032794 63.609 0.999458 153.74
8.78189000 0.999458 153.49 0.032796 63.609 0.032796 63.609 0.999458 153.74
8.78190000 0.999457 153.49 0.032799 63.609 0.032799 63.609 0.999458 153.74
8.78191000 0.999457 153.49 0.032801 63.609 0.032801 63.609 0.999458 153.74
8.78192000 0.999457 153.49 0.032804 63.609 0.032804 63.609 0.999458 153.74
8.78193000 0.999457 153.49 0.032806 63.609 0.032806 63.609 0.999457 153.74
8.78194000 0.999457 153.49 0.032808 63.608 0.032808 63.608 0.999457 153.74
8.78195000 0.999457 153.49 0.032811 63.608 0.032811 63.608 0.999457 153.74
8.78196000 0.999457 153.49 0.032813 63.608 0.032813 63.608 0.999457 153.74
8.78197000 0.999457 153.49 0.032815 63.608 0.032815 63.608 0.999457 153.74
8.78198000 0.999457 153.49 0.032818 63.608 0.032818 63.608 0.999457 153.74
8.78199000 0.999457 153.49 0.032820 63.607 0.032820 63.607 0.999457 153.74
8.78200000 0.999457 153.49 0.032823 63.607 0.032823 63.607 0.999457 153.74
8.78201000 0.999457 153.49 0.032825 63.607 0.032825 63.607 0.999457 153.74
8.78202000 0.999456 153.49 0.032827 63.607 0.032827 63.607 0.999457 153.74
8.78203000 0.999456 153.49 0.032830 63.607 0.032830 63.607 0.999457 153.74
8.78204000 0.999456 153.49 0.032832 63.607 0.032832 63.607 0.999456 153.74
8.78205000 0.999456 153.49 0.032835 63.606 0.032835 63.606 0.999456 153.74
8.78206000 0.999456 153.49 0.032837 63.606 0.032837 63.606 0.999456 153.74
8.78207000 0.999456 153.49 0.032839 63.606 0.032839 63.606 0.999456 153.74
8.78208000 0.999456 153.49 0.032842 63.606 0.032842 63.606 0.999456 153.74
8.78209000 0.999456 153.49 0.032844 63.606 0.032844 63.606 0.999456 153.74
8.78210000 0.999456 153.49 0.032847 63.606 0.032847 63.606 0.999456 153.73
8.78211000 0.999456 153.49 0.032849 63.605 0.032849 63.605 0.999456 153.73
8.78212000 0.999456 153.49 0.032852 63.605 0.032852 63.605 0.999456 153.73
8.78213000 0.999456 153.49 0.032854 63.605 0.032854 63.605 0.999456 153.73
8.78214000 0.999455 153.49 0.032857 63.605 0.032857 63.605 0.999456 153.73
8.78215000 0.999455 153.49 0.032859 63.605 0.032859 63.605 0.999456 153.73
8.78216000 0.999455 153.49 0.032861 63.604 0.032861 63.604 0.999455 153.73
8.78217000 0.999455 153.49 0.032864 63.604 0.032864 63.604 0.999455 153.73
8.78218000 0.999455 153.49 0.032866 63.604 0.032866 63.604 0.999455 153.73
8.78219000 0.999455 153.49 0.032869 63.604 0.032869 63.604 0.999455 153.73
8.78220000 0.999455 153.49 0.032871 63.604 0.032871 63.604 0.999455 153.73
8.78221000 0.999455 153.49 0.032874 63.604 0.032874 63.604 0.999455 153.73
8.78222000 0.999455 153.49 0.032876 63.603 0.032876 63.603 0.999455 153.73
8.78223000 0.999455 153.49 0.032879 63.603 0.032879 63.603 0.999455 153.73
8.78224000 0.999455 153.49 0.032881 63.603 0.032881 63.603 0.999455 153.73
8.78225000 0.999454 153.49 0.032884 63.603 0.032884 63.603 0.999455 153.73
8.78226000 0.999454 153.48 0.032886 63.603 0.032886 63.603 0.999455 153.73
8.78227000 0.999454 153.48 0.032889 63.602 0.032889 63.602 0.999454 153.73
8.78228000 0.999454 153.48 0.032891 63.602 0.032891 63.602 0.999454 153.73
8.78229000 0.999454 153.48 0.032894 63.602 0.032894 63.602 0.999454 153.73
8.78230000 0.999454 153.48 0.032896 63.602 0.032896 63.602 0.999454 153.73
8.78231000 0.999454 153.48 0.032899 63.602 0.032899 63.602 0.999454 153.73
8.78232000 0.999454 153.48 0.032902 63.601 0.032902 63.601 0.999454 153.73
8.78233000 0.999454 153.48 0.032904 63.601 0.032904 63.601 0.999454 153.73
8.78234000 0.999454 153.48 0.032907 63.601 0.032907 63.601 0.999454 153.73
8.78235000 0.999454 153.48 0.032909 63.601 0.032909 63.601 0.999454 153.73
8.78236000 0.999453 153.48 0.032912 63.601 0.032912 63.601 0.999454 153.73
8.78237000 0.999453 153.48 0.032914 63.601 0.032914 63.601 0.999454 153.73
8.78238000 0.999453 153.48 0.032917 63.600 0.032917 63.600 0.999453 153.73
8.78239000 0.999453 153.48 0.032919 63.600 0.032919 63.600 0.999453 153.73
8.78240000 0.999453 153.48 0.032922 63.600 0.032922 63.600 0.999453 153.73
8.78241000 0.999453 153.48 0.032925 63.600 0.032925 63.600 0.999453 153.73
8.78242000 0.999453 153.48 0.032927 63.600 0.032927 63.600 0.999453 153.73
8.78243000 0.999453 153.48 0.032930 63.599 0.032930 63.599 0.999453 153.73
8.78244000 0.999453 153.48 0.032932 63.599 0.032932 63.599 0.999453 153.73
8.78245000 0.999453 153.48 0.032935 63.599 0.032935 63.599 0.999453 153.73
8.78246000 0.999452 153.48 0.032938 63.599 0.032938 63.599 0.999453 153.73
8.78247000 0.999452 153.48 0.032940 63.599 0.032940 63.599 0.999453 153.73
8.78248000 0.999452 153.48 0.032943 63.598 0.032943 63.598 0.999453 153.73
8.78249000 0.999452 153.48 0.032945 63.598 0.032945 63.598 0.999452 153.73
8.78250000 0.999452 153.48 0.032948 63.598 0.032948 63.598 0.999452 153.73
8.78251000 0.999452 153.48 0.032951 63.598 0.032951 63.598 0.999452 153.73
8.78252000 0.999452 153.48 0.032953 63.598 0.032953 63.598 0.999452 153.73
8.78253000 0.999452 153.48 0.032956 63.597 0.032956 63.597 0.999452 153.73
8.78254000 0.999452 153.48 0.032959 63.597 0.032959 63.597 0.999452 153.73
8.78255000 0.999452 153.48 0.032961 63.597 0.032961 63.597 0.999452 153.73
8.78256000 0.999452 153.48 0.032964 63.597 0.032964 63.597 0.999452 153.73
8.78257000 0.999451 153.48 0.032967 63.597 0.032967 63.597 0.999452 153.73
8.78258000 0.999451 153.48 0.032969 63.596 0.032969 63.596 0.999452 153.73
8.78259000 0.999451 153.48 0.032972 63.596 0.032972 63.596 0.999451 153.73
8.78260000 0.999451 153.48 0.032975 63.596 0.032975 63.596 0.999451 153.73
8.78261000 0.999451 153.48 0.032977 63.596 0.032977 63.596 0.999451 153.73
8.78262000 0.999451 153.48 0.032980 63.596 0.032980 63.596 0.999451 153.73
8.78263000 0.999451 153.48 0.032983 63.596 0.032983 63.596 0.999451 153.73
8.78264000 0.999451 153.48 0.032985 63.595 0.032985 63.595 0.999451 153.73
8.78265000 0.999451 153.48 0.032988 63.595 0.032988 63.595 0.999451 153.73
8.78266000 0.999451 153.48 0.032991 63.595 0.032991 63.595 0.999451 153.73
8.78267000 0.999450 153.48 0.032994 63.595 0.032994 63.595 0.999451 153.73
8.78268000 0.999450 153.48 0.032996 63.595 0.032996 63.595 0.999451 153.72
8.78269000 0.999450 153.48 0.032999 63.594 0.032999 63.594 0.999450 153.72
8.78270000 0.999450 153.48 0.033002 63.594 0.033002 63.594 0.999450 153.72
8.78271000 0.999450 153.48 0.033005 63.594 0.033005 63.594 0.999450 153.72
8.78272000 0.999450 153.48 0.033007 63.594 0.033007 63.594 0.999450 153.72
8.78273000 0.999450 153.48 0.033010 63.594 0.033010 63.594 0.999450 153.72
8.78274000 0.999450 153.48 0.033013 63.593 0.033013 63.593 0.999450 153.72
8.78275000 0.999450 153.48 0.033016 63.593 0.033016 63.593 0.999450 153.72
8.78276000 0.999450 153.48 0.033018 63.593 0.033018 63.593 0.999450 153.72
8.78277000 0.999449 153.48 0.033021 63.593 0.033021 63.593 0.999450 153.72
8.78278000 0.999449 153.48 0.033024 63.593 0.033024 63.593 0.999450 153.72
8.78279000 0.999449 153.48 0.033027 63.592 0.033027 63.592 0.999449 153.72
8.78280000 0.999449 153.47 0.033030 63.592 0.033030 63.592 0.999449 153.72
8.78281000 0.999449 153.47 0.033032 63.592 0.033032 63.592 0.999449 153.72
8.78282000 0.999449 153.47 0.033035 63.592 0.033035 63.592 0.999449 153.72
8.78283000 0.999449 153.47 0.033038 63.591 0.033038 63.591 0.999449 153.72
8.78284000 0.999449 153.47 0.033041 63.591 0.033041 63.591 0.999449 153.72
8.78285000 0.999449 153.47 0.033044 63.591 0.033044 63.591 0.999449 153.72
8.78286000 0.999449 153.47 0.033046 63.591 0.033046 63.591 0.999449 153.72
8.78287000 0.999448 153.47 0.033049 63.591 0.033049 63.591 0.999449 153.72
8.78288000 0.999448 153.47 0.033052 63.590 0.033052 63.590 0.999449 153.72
8.78289000 0.999448 153.47 0.033055 63.590 0.033055 63.590 0.999448 153.72
8.78290000 0.999448 153.47 0.033058 63.590 0.033058 63.590 0.999448 153.72
8.78291000 0.999448 153.47 0.033061 63.590 0.033061 63.590 0.999448 153.72
8.78292000 0.999448 153.47 0.033063 63.590 0.033063 63.590 0.999448 153.72
8.78293000 0.999448 153.47 0.033066 63.589 0.033066 63.589 0.999448 153.72
8.78294000 0.999448 153.47 0.033069 63.589 0.033069 63.589 0.999448 153.72
8.78295000 0.999448 153.47 0.033072 63.589 0.033072 63.589 0.999448 153.72
8.78296000 0.999447 153.47 0.033075 63.589 0.033075 63.589 0.999448 153.72
8.78297000 0.999447 153.47 0.033078 63.589 0.033078 63.589 0.999448 153.72
8.78298000 0.999447 153.47 0.033081 63.588 0.033081 63.588 0.999448 153.72
8.78299000 0.999447 153.47 0.033084 63.588 0.033084 63.588 0.999447 153.72
8.78300000 0.999447 153.47 0.033087 63.588 0.033087 63.588 0.999447 153.72
8.78301000 0.999447 153.47 0.033089 63.588 0.033089 63.588 0.999447 153.72
8.78302000 0.999447 153.47 0.033092 63.588 0.033092 63.588 0.999447 153.72
8.78303000 0.999447 153.47 0.033095 63.587 0.033095 63.587 0.999447 153.72
8.78304000 0.999447 153.47 0.033098 63.587 0.033098 63.587 0.999447 153.72
8.78305000 0.999447 153.47 0.033101 63.587 0.033101 63.587 0.999447 153.72
8.78306000 0.999446 153.47 0.033104 63.587 0.033104 63.587 0.999447 153.72
8.78307000 0.999446 153.47 0.033107 63.586 0.033107 63.586 0.999447 153.72
8.78308000 0.999446 153.47 0.033110 63.586 0.033110 63.586 0.999446 153.72
8.78309000 0.999446 153.47 0.033113 63.586 0.033113 63.586 0.999446 153.72
8.78310000 0.999446 153.47 0.033116 63.586 0.033116 63.586 0.999446 153.72
8.78311000 0.999446 153.47 0.033119 63.586 0.033119 63.586 0.999446 153.72
8.78312000 0.999446 153.47 0.033122 63.585 0.033122 63.585 0.999446 153.72
8.78313000 0.999446 153.47 0.033125 63.585 0.033125 63.585 0.999446 153.72
8.78314000 0.999446 153.47 0.033128 63.585 0.033128 63.585 0.999446 153.72
8.78315000 0.999445 153.47 0.033131 63.585 0.033131 63.585 0.999446 153.72
8.78316000 0.999445 153.47 0.033134 63.585 0.033134 63.585 0.999446 153.72
8.78317000 0.999445 153.47 0.033137 63.584 0.033137 63.584 0.999445 153.72
8.78318000 0.999445 153.47 0.033140 63.584 0.033140 63.584 0.999445 153.72
8.78319000 0.999445 153.47 0.033143 63.584 0.033143 63.584 0.999445 153.72
8.78320000 0.999445 153.47 0.033146 63.584 0.033146 63.584 0.999445 153.72
8.78321000 0.999445 153.47 0.033149 63.583 0.033149 63.583 0.999445 153.71
8.78322000 0.999445 153.47 0.033152 63.583 0.033152 63.583 0.999445 153.71
8.78323000 0.999445 153.47 0.033155 63.583 0.033155 63.583 0.999445 153.71
8.78324000 0.999444 153.47 0.033158 63.583 0.033158 63.583 0.999445 153.71
8.78325000 0.999444 153.47 0.033161 63.583 0.033161 63.583 0.999445 153.71
8.78326000 0.999444 153.47 0.033164 63.582 0.033164 63.582 0.999444 153.71
8.78327000 0.999444 153.47 0.033167 63.582 0.033167 63.582 0.999444 153.71
8.78328000 0.999444 153.47 0.033171 63.582 0.033171 63.582 0.999444 153.71
8.78329000 0.999444 153.47 0.033174 63.582 0.033174 63.582 0.999444 153.71
8.78330000 0.999444 153.46 0.033177 63.581 0.033177 63.581 0.999444 153.71
8.78331000 0.999444 153.46 0.033180 63.581 0.033180 63.581 0.999444 153.71
8.78332000 0.999444 153.46 0.033183 63.581 0.033183 63.581 0.999444 153.71
8.78333000 0.999443 153.46 0.033186 63.581 0.033186 63.581 0.999444 153.71
8.78334000 0.999443 153.46 0.033189 63.581 0.033189 63.581 0.999444 153.71
8.78335000 0.999443 153.46 0.033192 63.580 0.033192 63.580 0.999443 153.71
8.78336000 0.999443 153.46 0.033195 63.580 0.033195 63.580 0.999443 153.71
8.78337000 0.999443 153.46 0.033199 63.580 0.033199 63.580 0.999443 153.71
8.78338000 0.999443 153.46 0.033202 63.580 0.033202 63.580 0.999443 153.71
8.78339000 0.999443 153.46 0.033205 63.579 0.033205 63.579 0.999443 153.71
8.78340000 0.999443 153.46 0.033208 63.579 0.033208 63.579 0.999443 153.71
8.78341000 0.999443 153.46 0.033211 63.579 0.033211 63.579 0.999443 153.71
8.78342000 0.999442 153.46 0.033214 63.579 0.033214 63.579 0.999443 153.71
8.78343000 0.999442 153.46 0.033218 63.578 0.033218 63.578 0.999443 153.71
8.78344000 0.999442 153.46 0.033221 63.578 0.033221 63.578 0.999442 153.71
8.78345000 0.999442 153.46 0.033224 63.578 0.033224 63.578 0.999442 153.71
8.78346000 0.999442 153.46 0.033227 63.578 0.033227 63.578 0.999442 153.71
8.78347000 0.999442 153.46 0.033230 63.578 0.033230 63.578 0.999442 153.71
8.78348000 0.999442 153.46 0.033234 63.577 0.033234 63.577 0.999442 153.71
8.78349000 0.999442 153.46 0.033237 63.577 0.033237 63.577 0.999442 153.71
8.78350000 0.999441 153.46 0.033240 63.577 0.033240 63.577 0.999442 153.71
8.78351000 0.999441 153.46 0.033243 63.577 0.033243 63.577 0.999442 153.71
8.78352000 0.999441 153.46 0.033247 63.576 0.033247 63.576 0.999441 153.71
8.78353000 0.999441 153.46 0.033250 63.576 0.033250 63.576 0.999441 153.71
8.78354000 0.999441 153.46 0.033253 63.576 0.033253 63.576 0.999441 153.71
8.78355000 0.999441 153.46 0.033256 63.576 0.033256 63.576 0.999441 153.71
8.78356000 0.999441 153.46 0.033260 63.575 0.033260 63.575 0.999441 153.71
8.78357000 0.999441 153.46 0.033263 63.575 0.033263 63.575 0.999441 153.71
8.78358000 0.999440 153.46 0.033266 63.575 0.033266 63.575 0.999441 153.71
8.78359000 0.999440 153.46 0.033269 63.575 0.033269 63.575 0.999441 153.71
8.78360000 0.999440 153.46 0.033273 63.575 0.033273 63.575 0.999440 153.71
8.78361000 0.999440 153.46 0.033276 63.574 0.033276 63.574 0.999440 153.71
8.78362000 0.999440 153.46 0.033279 63.574 0.033279 63.574 0.999440 153.71
8.78363000 0.999440 153.46 0.033283 63.574 0.033283 63.574 0.999440 153.71
8.78364000 0.999440 153.46 0.033286 63.574 0.033286 63.574 0.999440 153.71
8.78365000 0.999440 153.46 0.033289 63.573 0.033289 63.573 0.999440 153.71
8.78366000 0.999439 153.46 0.033293 63.573 0.033293 63.573 0.999440 153.71
8.78367000 0.999439 153.46 0.033296 63.573 0.033296 63.573 0.999440 153.71
8.78368000 0.999439 153.46 0.033300 63.573 0.033300 63.573 0.999439 153.71
8.78369000 0.999439 153.46 0.033303 63.572 0.033303 63.572 0.999439 153.70
8.78370000 0.999439 153.46 0.033306 63.572 0.033306 63.572 0.999439 153.70
8.78371000 0.999439 153.46 0.033310 63.572 0.033310 63.572 0.999439 153.70
8.78372000 0.999439 153.46 0.033313 63.572 0.033313 63.572 0.999439 153.70
8.78373000 0.999439 153.46 0.033316 63.571 0.033316 63.571 0.999439 153.70
8.78374000 0.999438 153.46 0.033320 63.571 0.033320 63.571 0.999439 153.70
8.78375000 0.999438 153.46 0.033323 63.571 0.033323 63.571 0.999439 153.70
8.78376000 0.999438 153.45 0.033327 63.571 0.033327 63.571 0.999438 153.70
8.78377000 0.999438 153.45 0.033330 63.570 0.033330 63.570 0.999438 153.70
8.78378000 0.999438 153.45 0.033334 63.570 0.033334 63.570 0.999438 153.70
8.78379000 0.999438 153.45 0.033337 63.570 0.033337 63.570 0.999438 153.70
8.78380000 0.999438 153.45 0.033340 63.570 0.033340 63.570 0.999438 153.70
8.78381000 0.999438 153.45 0.033344 63.569 0.033344 63.569 0.999438 153.70
8.78382000 0.999437 153.45 0.033347 63.569 0.033347 63.569 0.999438 153.70
8.78383000 0.999437 153.45 0.033351 63.569 0.033351 63.569 0.999438 153.70
8.78384000 0.999437 153.45 0.033354 63.569 0.033354 63.569 0.999437 153.70
8.78385000 0.999437 153.45 0.033358 63.568 0.033358 63.568 0.999437 153.70
8.78386000 0.999437 153.45 0.033361 63.568 0.033361 63.568 0.999437 153.70
8.78387000 0.999437 153.45 0.033365 63.568 0.033365 63.568 0.999437 153.70
8.78388000 0.999437 153.45 0.033368 63.568 0.033368 63.568 0.999437 153.70
8.78389000 0.999437 153.45 0.033372 63.567 0.033372 63.567 0.999437 153.70
8.78390000 0.999436 153.45 0.033375 63.567 0.033375 63.567 0.999437 153.70
8.78391000 0.999436 153.45 0.033379 63.567 0.033379 63.567 0.999437 153.70
8.78392000 0.999436 153.45 0.033383 63.567 0.033383 63.567 0.999436 153.70