! Sonnet Data File
! From: emgraph Version : 16.52
! From Project: transmon_brgOdd
! Data is De-embedded 
! Data File Written: 11/11/2017 22:28:46
!< HDATE 11/11/2017 18:22:48
!< MDATE 11/11/2017 18:22:48
!< PARAMS
!< Lj = 15.24
!< Gap = 6.0
!< Width = 10.0
!< Airgap = 6.0
!< Pwidth = 2000.0
!< Dist = 1000.0
!< END PARAMS
# GHZ S MA R 34.67000
8.72000000 0.990928 116.00 0.134371 25.991 0.134371 25.991 0.990928 115.98
!< P1 F=8.72 Eeff=(5.13609477 -5.6761e-5) Z0=(34.6490765 -9.5162e-5) R=0.0 C=0.0 
!< P2 F=8.72 Eeff=(5.13609477 -5.6761e-5) Z0=(34.6490765 -9.5162e-5) R=0.0 C=0.0 
8.72005000 0.990928 116.00 0.134372 25.990 0.134372 25.990 0.990928 115.98
8.72010000 0.990927 116.00 0.134373 25.990 0.134373 25.990 0.990927 115.98
8.72015000 0.990927 115.99 0.134373 25.989 0.134373 25.989 0.990927 115.98
8.72020000 0.990927 115.99 0.134374 25.989 0.134374 25.989 0.990927 115.98
8.72025000 0.990927 115.99 0.134375 25.989 0.134375 25.989 0.990927 115.98
8.72030000 0.990927 115.99 0.134376 25.988 0.134376 25.988 0.990927 115.98
8.72035000 0.990927 115.99 0.134377 25.988 0.134377 25.988 0.990927 115.98
8.72040000 0.990927 115.99 0.134378 25.988 0.134378 25.988 0.990927 115.98
8.72045000 0.990926 115.99 0.134379 25.987 0.134379 25.987 0.990926 115.98
8.72050000 0.990926 115.99 0.134380 25.987 0.134380 25.987 0.990926 115.98
8.72055000 0.990926 115.99 0.134381 25.986 0.134381 25.986 0.990926 115.98
8.72060000 0.990926 115.99 0.134382 25.986 0.134382 25.986 0.990926 115.98
8.72065000 0.990926 115.99 0.134383 25.986 0.134383 25.986 0.990926 115.98
8.72070000 0.990926 115.99 0.134384 25.985 0.134384 25.985 0.990926 115.98
8.72075000 0.990926 115.99 0.134385 25.985 0.134385 25.985 0.990926 115.98
8.72080000 0.990926 115.99 0.134386 25.985 0.134386 25.985 0.990926 115.98
8.72085000 0.990925 115.99 0.134387 25.984 0.134387 25.984 0.990925 115.98
8.72090000 0.990925 115.99 0.134388 25.984 0.134388 25.984 0.990925 115.98
8.72095000 0.990925 115.99 0.134389 25.983 0.134389 25.983 0.990925 115.98
8.72100000 0.990925 115.99 0.134390 25.983 0.134390 25.983 0.990925 115.98
8.72105000 0.990925 115.99 0.134391 25.983 0.134391 25.983 0.990925 115.97
8.72110000 0.990925 115.99 0.134392 25.982 0.134392 25.982 0.990925 115.97
8.72115000 0.990925 115.99 0.134393 25.982 0.134393 25.982 0.990925 115.97
8.72120000 0.990925 115.99 0.134394 25.981 0.134394 25.981 0.990925 115.97
8.72125000 0.990924 115.99 0.134395 25.981 0.134395 25.981 0.990924 115.97
8.72130000 0.990924 115.99 0.134396 25.981 0.134396 25.981 0.990924 115.97
8.72135000 0.990924 115.99 0.134397 25.980 0.134397 25.980 0.990924 115.97
8.72140000 0.990924 115.99 0.134398 25.980 0.134398 25.980 0.990924 115.97
8.72145000 0.990924 115.99 0.134399 25.980 0.134399 25.980 0.990924 115.97
8.72150000 0.990924 115.98 0.134400 25.979 0.134400 25.979 0.990924 115.97
8.72155000 0.990924 115.98 0.134401 25.979 0.134401 25.979 0.990924 115.97
8.72160000 0.990923 115.98 0.134402 25.978 0.134402 25.978 0.990923 115.97
8.72165000 0.990923 115.98 0.134403 25.978 0.134403 25.978 0.990923 115.97
8.72170000 0.990923 115.98 0.134403 25.978 0.134403 25.978 0.990923 115.97
8.72175000 0.990923 115.98 0.134404 25.977 0.134404 25.977 0.990923 115.97
8.72180000 0.990923 115.98 0.134405 25.977 0.134405 25.977 0.990923 115.97
8.72185000 0.990923 115.98 0.134406 25.977 0.134406 25.977 0.990923 115.97
8.72190000 0.990923 115.98 0.134407 25.976 0.134407 25.976 0.990923 115.97
8.72195000 0.990923 115.98 0.134408 25.976 0.134408 25.976 0.990923 115.97
8.72200000 0.990922 115.98 0.134409 25.975 0.134409 25.975 0.990922 115.97
8.72205000 0.990922 115.98 0.134410 25.975 0.134410 25.975 0.990922 115.97
8.72210000 0.990922 115.98 0.134411 25.975 0.134411 25.975 0.990922 115.97
8.72215000 0.990922 115.98 0.134412 25.974 0.134412 25.974 0.990922 115.97
8.72220000 0.990922 115.98 0.134413 25.974 0.134413 25.974 0.990922 115.97
8.72225000 0.990922 115.98 0.134414 25.974 0.134414 25.974 0.990922 115.97
8.72230000 0.990922 115.98 0.134415 25.973 0.134415 25.973 0.990922 115.97
8.72235000 0.990921 115.98 0.134416 25.973 0.134416 25.973 0.990921 115.97
8.72240000 0.990921 115.98 0.134417 25.972 0.134417 25.972 0.990921 115.96
8.72245000 0.990921 115.98 0.134418 25.972 0.134418 25.972 0.990921 115.96
8.72250000 0.990921 115.98 0.134419 25.972 0.134419 25.972 0.990921 115.96
8.72255000 0.990921 115.98 0.134420 25.971 0.134420 25.971 0.990921 115.96
8.72260000 0.990921 115.98 0.134421 25.971 0.134421 25.971 0.990921 115.96
8.72265000 0.990921 115.98 0.134422 25.971 0.134422 25.971 0.990921 115.96
8.72270000 0.990921 115.98 0.134423 25.970 0.134423 25.970 0.990921 115.96
8.72275000 0.990920 115.98 0.134424 25.970 0.134424 25.970 0.990920 115.96
8.72280000 0.990920 115.97 0.134425 25.969 0.134425 25.969 0.990920 115.96
8.72285000 0.990920 115.97 0.134426 25.969 0.134426 25.969 0.990920 115.96
8.72290000 0.990920 115.97 0.134427 25.969 0.134427 25.969 0.990920 115.96
8.72295000 0.990920 115.97 0.134428 25.968 0.134428 25.968 0.990920 115.96
8.72300000 0.990920 115.97 0.134429 25.968 0.134429 25.968 0.990920 115.96
8.72305000 0.990920 115.97 0.134430 25.968 0.134430 25.968 0.990920 115.96
8.72310000 0.990919 115.97 0.134431 25.967 0.134431 25.967 0.990920 115.96
8.72315000 0.990919 115.97 0.134432 25.967 0.134432 25.967 0.990919 115.96
8.72320000 0.990919 115.97 0.134433 25.966 0.134433 25.966 0.990919 115.96
8.72325000 0.990919 115.97 0.134434 25.966 0.134434 25.966 0.990919 115.96
8.72330000 0.990919 115.97 0.134435 25.966 0.134435 25.966 0.990919 115.96
8.72335000 0.990919 115.97 0.134436 25.965 0.134436 25.965 0.990919 115.96
8.72340000 0.990919 115.97 0.134437 25.965 0.134437 25.965 0.990919 115.96
8.72345000 0.990919 115.97 0.134438 25.965 0.134438 25.965 0.990919 115.96
8.72350000 0.990918 115.97 0.134439 25.964 0.134439 25.964 0.990918 115.96
8.72355000 0.990918 115.97 0.134440 25.964 0.134440 25.964 0.990918 115.96
8.72360000 0.990918 115.97 0.134440 25.963 0.134440 25.963 0.990918 115.96
8.72365000 0.990918 115.97 0.134441 25.963 0.134441 25.963 0.990918 115.96
8.72370000 0.990918 115.97 0.134442 25.963 0.134442 25.963 0.990918 115.95
8.72375000 0.990918 115.97 0.134443 25.962 0.134443 25.962 0.990918 115.95
8.72380000 0.990918 115.97 0.134444 25.962 0.134444 25.962 0.990918 115.95
8.72385000 0.990918 115.97 0.134445 25.961 0.134445 25.961 0.990918 115.95
8.72390000 0.990917 115.97 0.134446 25.961 0.134446 25.961 0.990917 115.95
8.72395000 0.990917 115.97 0.134447 25.961 0.134447 25.961 0.990917 115.95
8.72400000 0.990917 115.97 0.134448 25.960 0.134448 25.960 0.990917 115.95
8.72405000 0.990917 115.97 0.134449 25.960 0.134449 25.960 0.990917 115.95
8.72410000 0.990917 115.97 0.134450 25.960 0.134450 25.960 0.990917 115.95
8.72415000 0.990917 115.96 0.134451 25.959 0.134451 25.959 0.990917 115.95
8.72420000 0.990917 115.96 0.134452 25.959 0.134452 25.959 0.990917 115.95
8.72425000 0.990916 115.96 0.134453 25.958 0.134453 25.958 0.990916 115.95
8.72430000 0.990916 115.96 0.134454 25.958 0.134454 25.958 0.990916 115.95
8.72435000 0.990916 115.96 0.134455 25.958 0.134455 25.958 0.990916 115.95
8.72440000 0.990916 115.96 0.134456 25.957 0.134456 25.957 0.990916 115.95
8.72445000 0.990916 115.96 0.134457 25.957 0.134457 25.957 0.990916 115.95
8.72450000 0.990916 115.96 0.134458 25.957 0.134458 25.957 0.990916 115.95
8.72455000 0.990916 115.96 0.134459 25.956 0.134459 25.956 0.990916 115.95
8.72460000 0.990916 115.96 0.134460 25.956 0.134460 25.956 0.990916 115.95
8.72465000 0.990915 115.96 0.134461 25.955 0.134461 25.955 0.990915 115.95
8.72470000 0.990915 115.96 0.134462 25.955 0.134462 25.955 0.990915 115.95
8.72475000 0.990915 115.96 0.134463 25.955 0.134463 25.955 0.990915 115.95
8.72480000 0.990915 115.96 0.134464 25.954 0.134464 25.954 0.990915 115.95
8.72485000 0.990915 115.96 0.134465 25.954 0.134465 25.954 0.990915 115.95
8.72490000 0.990915 115.96 0.134466 25.954 0.134466 25.954 0.990915 115.95
8.72495000 0.990915 115.96 0.134467 25.953 0.134467 25.953 0.990915 115.95
8.72500000 0.990914 115.96 0.134468 25.953 0.134468 25.953 0.990914 115.95
8.72505000 0.990914 115.96 0.134469 25.952 0.134469 25.952 0.990914 115.94
8.72510000 0.990914 115.96 0.134470 25.952 0.134470 25.952 0.990914 115.94
8.72515000 0.990914 115.96 0.134471 25.952 0.134471 25.952 0.990914 115.94
8.72520000 0.990914 115.96 0.134472 25.951 0.134472 25.951 0.990914 115.94
8.72525000 0.990914 115.96 0.134473 25.951 0.134473 25.951 0.990914 115.94
8.72530000 0.990914 115.96 0.134474 25.951 0.134474 25.951 0.990914 115.94
8.72535000 0.990914 115.96 0.134475 25.950 0.134475 25.950 0.990914 115.94
8.72540000 0.990913 115.96 0.134476 25.950 0.134476 25.950 0.990913 115.94
8.72545000 0.990913 115.95 0.134477 25.949 0.134477 25.949 0.990913 115.94
8.72550000 0.990913 115.95 0.134478 25.949 0.134478 25.949 0.990913 115.94
8.72555000 0.990913 115.95 0.134479 25.949 0.134479 25.949 0.990913 115.94
8.72560000 0.990913 115.95 0.134480 25.948 0.134480 25.948 0.990913 115.94
8.72565000 0.990913 115.95 0.134481 25.948 0.134481 25.948 0.990913 115.94
8.72570000 0.990913 115.95 0.134482 25.948 0.134482 25.948 0.990913 115.94
8.72575000 0.990912 115.95 0.134483 25.947 0.134483 25.947 0.990912 115.94
8.72580000 0.990912 115.95 0.134484 25.947 0.134484 25.947 0.990912 115.94
8.72585000 0.990912 115.95 0.134485 25.946 0.134485 25.946 0.990912 115.94
8.72590000 0.990912 115.95 0.134486 25.946 0.134486 25.946 0.990912 115.94
8.72595000 0.990912 115.95 0.134487 25.946 0.134487 25.946 0.990912 115.94
8.72600000 0.990912 115.95 0.134488 25.945 0.134488 25.945 0.990912 115.94
8.72605000 0.990912 115.95 0.134489 25.945 0.134489 25.945 0.990912 115.94
8.72610000 0.990912 115.95 0.134490 25.944 0.134490 25.944 0.990912 115.94
8.72615000 0.990911 115.95 0.134491 25.944 0.134491 25.944 0.990911 115.94
8.72620000 0.990911 115.95 0.134492 25.944 0.134492 25.944 0.990911 115.94
8.72625000 0.990911 115.95 0.134492 25.943 0.134492 25.943 0.990911 115.94
8.72630000 0.990911 115.95 0.134493 25.943 0.134493 25.943 0.990911 115.94
8.72635000 0.990911 115.95 0.134494 25.943 0.134494 25.943 0.990911 115.93
8.72640000 0.990911 115.95 0.134495 25.942 0.134495 25.942 0.990911 115.93
8.72645000 0.990911 115.95 0.134496 25.942 0.134496 25.942 0.990911 115.93
8.72650000 0.990910 115.95 0.134497 25.941 0.134497 25.941 0.990910 115.93
8.72655000 0.990910 115.95 0.134498 25.941 0.134498 25.941 0.990910 115.93
8.72660000 0.990910 115.95 0.134499 25.941 0.134499 25.941 0.990910 115.93
8.72665000 0.990910 115.95 0.134500 25.940 0.134500 25.940 0.990910 115.93
8.72670000 0.990910 115.95 0.134501 25.940 0.134501 25.940 0.990910 115.93
8.72675000 0.990910 115.94 0.134502 25.940 0.134502 25.940 0.990910 115.93
8.72680000 0.990910 115.94 0.134503 25.939 0.134503 25.939 0.990910 115.93
8.72685000 0.990909 115.94 0.134504 25.939 0.134504 25.939 0.990910 115.93
8.72690000 0.990909 115.94 0.134505 25.938 0.134505 25.938 0.990909 115.93
8.72695000 0.990909 115.94 0.134506 25.938 0.134506 25.938 0.990909 115.93
8.72700000 0.990909 115.94 0.134507 25.938 0.134507 25.938 0.990909 115.93
8.72705000 0.990909 115.94 0.134508 25.937 0.134508 25.937 0.990909 115.93
8.72710000 0.990909 115.94 0.134509 25.937 0.134509 25.937 0.990909 115.93
8.72715000 0.990909 115.94 0.134510 25.937 0.134510 25.937 0.990909 115.93
8.72720000 0.990909 115.94 0.134511 25.936 0.134511 25.936 0.990909 115.93
8.72725000 0.990908 115.94 0.134512 25.936 0.134512 25.936 0.990908 115.93
8.72730000 0.990908 115.94 0.134513 25.935 0.134513 25.935 0.990908 115.93
8.72735000 0.990908 115.94 0.134514 25.935 0.134514 25.935 0.990908 115.93
8.72740000 0.990908 115.94 0.134515 25.935 0.134515 25.935 0.990908 115.93
8.72745000 0.990908 115.94 0.134516 25.934 0.134516 25.934 0.990908 115.93
8.72750000 0.990908 115.94 0.134517 25.934 0.134517 25.934 0.990908 115.93
8.72755000 0.990908 115.94 0.134518 25.934 0.134518 25.934 0.990908 115.93
8.72760000 0.990907 115.94 0.134519 25.933 0.134519 25.933 0.990907 115.93
8.72765000 0.990907 115.94 0.134520 25.933 0.134520 25.933 0.990907 115.93
8.72770000 0.990907 115.94 0.134521 25.932 0.134521 25.932 0.990907 115.92
8.72775000 0.990907 115.94 0.134522 25.932 0.134522 25.932 0.990907 115.92
8.72780000 0.990907 115.94 0.134523 25.932 0.134523 25.932 0.990907 115.92
8.72785000 0.990907 115.94 0.134524 25.931 0.134524 25.931 0.990907 115.92
8.72790000 0.990907 115.94 0.134525 25.931 0.134525 25.931 0.990907 115.92
8.72795000 0.990907 115.94 0.134526 25.930 0.134526 25.930 0.990907 115.92
8.72800000 0.990906 115.94 0.134527 25.930 0.134527 25.930 0.990906 115.92
8.72805000 0.990906 115.94 0.134528 25.930 0.134528 25.930 0.990906 115.92
8.72810000 0.990906 115.93 0.134529 25.929 0.134529 25.929 0.990906 115.92
8.72815000 0.990906 115.93 0.134530 25.929 0.134530 25.929 0.990906 115.92
8.72820000 0.990906 115.93 0.134531 25.929 0.134531 25.929 0.990906 115.92
8.72825000 0.990906 115.93 0.134532 25.928 0.134532 25.928 0.990906 115.92
8.72830000 0.990906 115.93 0.134533 25.928 0.134533 25.928 0.990906 115.92
8.72835000 0.990905 115.93 0.134534 25.927 0.134534 25.927 0.990905 115.92
8.72840000 0.990905 115.93 0.134535 25.927 0.134535 25.927 0.990905 115.92
8.72845000 0.990905 115.93 0.134536 25.927 0.134536 25.927 0.990905 115.92
8.72850000 0.990905 115.93 0.134537 25.926 0.134537 25.926 0.990905 115.92
8.72855000 0.990905 115.93 0.134538 25.926 0.134538 25.926 0.990905 115.92
8.72860000 0.990905 115.93 0.134539 25.926 0.134539 25.926 0.990905 115.92
8.72865000 0.990905 115.93 0.134540 25.925 0.134540 25.925 0.990905 115.92
8.72870000 0.990904 115.93 0.134541 25.925 0.134541 25.925 0.990905 115.92
8.72875000 0.990904 115.93 0.134542 25.924 0.134542 25.924 0.990904 115.92
8.72880000 0.990904 115.93 0.134543 25.924 0.134543 25.924 0.990904 115.92
8.72885000 0.990904 115.93 0.134544 25.924 0.134544 25.924 0.990904 115.92
8.72890000 0.990904 115.93 0.134545 25.923 0.134545 25.923 0.990904 115.92
8.72895000 0.990904 115.93 0.134546 25.923 0.134546 25.923 0.990904 115.92
8.72900000 0.990904 115.93 0.134547 25.923 0.134547 25.923 0.990904 115.91
8.72905000 0.990904 115.93 0.134548 25.922 0.134548 25.922 0.990904 115.91
8.72910000 0.990903 115.93 0.134549 25.922 0.134549 25.922 0.990903 115.91
8.72915000 0.990903 115.93 0.134550 25.921 0.134550 25.921 0.990903 115.91
8.72920000 0.990903 115.93 0.134551 25.921 0.134551 25.921 0.990903 115.91
8.72925000 0.990903 115.93 0.134552 25.921 0.134552 25.921 0.990903 115.91
8.72930000 0.990903 115.93 0.134553 25.920 0.134553 25.920 0.990903 115.91
8.72935000 0.990903 115.93 0.134554 25.920 0.134554 25.920 0.990903 115.91
8.72940000 0.990903 115.92 0.134555 25.919 0.134555 25.919 0.990903 115.91
8.72945000 0.990902 115.92 0.134556 25.919 0.134556 25.919 0.990902 115.91
8.72950000 0.990902 115.92 0.134557 25.919 0.134557 25.919 0.990902 115.91
8.72955000 0.990902 115.92 0.134558 25.918 0.134558 25.918 0.990902 115.91
8.72960000 0.990902 115.92 0.134559 25.918 0.134559 25.918 0.990902 115.91
8.72965000 0.990902 115.92 0.134560 25.918 0.134560 25.918 0.990902 115.91
8.72970000 0.990902 115.92 0.134561 25.917 0.134561 25.917 0.990902 115.91
8.72975000 0.990902 115.92 0.134562 25.917 0.134562 25.917 0.990902 115.91
8.72980000 0.990902 115.92 0.134563 25.916 0.134563 25.916 0.990902 115.91
8.72985000 0.990901 115.92 0.134564 25.916 0.134564 25.916 0.990901 115.91
8.72990000 0.990901 115.92 0.134565 25.916 0.134565 25.916 0.990901 115.91
8.72995000 0.990901 115.92 0.134566 25.915 0.134566 25.915 0.990901 115.91
8.73000000 0.990901 115.92 0.134567 25.915 0.134567 25.915 0.990901 115.91
8.73005000 0.990901 115.92 0.134568 25.915 0.134568 25.915 0.990901 115.91
8.73010000 0.990901 115.92 0.134569 25.914 0.134569 25.914 0.990901 115.91
8.73015000 0.990901 115.92 0.134570 25.914 0.134570 25.914 0.990901 115.91
8.73020000 0.990900 115.92 0.134571 25.913 0.134571 25.913 0.990900 115.91
8.73025000 0.990900 115.92 0.134572 25.913 0.134572 25.913 0.990900 115.91
8.73030000 0.990900 115.92 0.134573 25.913 0.134573 25.913 0.990900 115.90
8.73035000 0.990900 115.92 0.134574 25.912 0.134574 25.912 0.990900 115.90
8.73040000 0.990900 115.92 0.134575 25.912 0.134575 25.912 0.990900 115.90
8.73045000 0.990900 115.92 0.134576 25.912 0.134576 25.912 0.990900 115.90
8.73050000 0.990900 115.92 0.134577 25.911 0.134577 25.911 0.990900 115.90
8.73055000 0.990899 115.92 0.134578 25.911 0.134578 25.911 0.990900 115.90
8.73060000 0.990899 115.92 0.134579 25.910 0.134579 25.910 0.990899 115.90
8.73065000 0.990899 115.92 0.134580 25.910 0.134580 25.910 0.990899 115.90
8.73070000 0.990899 115.92 0.134581 25.910 0.134581 25.910 0.990899 115.90
8.73075000 0.990899 115.91 0.134582 25.909 0.134582 25.909 0.990899 115.90
8.73080000 0.990899 115.91 0.134583 25.909 0.134583 25.909 0.990899 115.90
8.73085000 0.990899 115.91 0.134584 25.908 0.134584 25.908 0.990899 115.90
8.73090000 0.990899 115.91 0.134585 25.908 0.134585 25.908 0.990899 115.90
8.73095000 0.990898 115.91 0.134586 25.908 0.134586 25.908 0.990898 115.90
8.73100000 0.990898 115.91 0.134587 25.907 0.134587 25.907 0.990898 115.90
8.73105000 0.990898 115.91 0.134588 25.907 0.134588 25.907 0.990898 115.90
8.73110000 0.990898 115.91 0.134589 25.907 0.134589 25.907 0.990898 115.90
8.73115000 0.990898 115.91 0.134590 25.906 0.134590 25.906 0.990898 115.90
8.73120000 0.990898 115.91 0.134591 25.906 0.134591 25.906 0.990898 115.90
8.73125000 0.990898 115.91 0.134592 25.905 0.134592 25.905 0.990898 115.90
8.73130000 0.990897 115.91 0.134593 25.905 0.134593 25.905 0.990897 115.90
8.73135000 0.990897 115.91 0.134594 25.905 0.134594 25.905 0.990897 115.90
8.73140000 0.990897 115.91 0.134595 25.904 0.134595 25.904 0.990897 115.90
8.73145000 0.990897 115.91 0.134596 25.904 0.134596 25.904 0.990897 115.90
8.73150000 0.990897 115.91 0.134597 25.904 0.134597 25.904 0.990897 115.90
8.73155000 0.990897 115.91 0.134598 25.903 0.134598 25.903 0.990897 115.90
8.73160000 0.990897 115.91 0.134599 25.903 0.134599 25.903 0.990897 115.90
8.73165000 0.990896 115.91 0.134600 25.902 0.134600 25.902 0.990896 115.89
8.73170000 0.990896 115.91 0.134601 25.902 0.134601 25.902 0.990896 115.89
8.73175000 0.990896 115.91 0.134602 25.902 0.134602 25.902 0.990896 115.89
8.73180000 0.990896 115.91 0.134603 25.901 0.134603 25.901 0.990896 115.89
8.73185000 0.990896 115.91 0.134604 25.901 0.134604 25.901 0.990896 115.89
8.73190000 0.990896 115.91 0.134605 25.901 0.134605 25.901 0.990896 115.89
8.73195000 0.990896 115.91 0.134606 25.900 0.134606 25.900 0.990896 115.89
8.73200000 0.990895 115.91 0.134607 25.900 0.134607 25.900 0.990896 115.89
8.73205000 0.990895 115.90 0.134608 25.899 0.134608 25.899 0.990895 115.89
8.73210000 0.990895 115.90 0.134609 25.899 0.134609 25.899 0.990895 115.89
8.73215000 0.990895 115.90 0.134610 25.899 0.134610 25.899 0.990895 115.89
8.73220000 0.990895 115.90 0.134611 25.898 0.134611 25.898 0.990895 115.89
8.73225000 0.990895 115.90 0.134612 25.898 0.134612 25.898 0.990895 115.89
8.73230000 0.990895 115.90 0.134613 25.897 0.134613 25.897 0.990895 115.89
8.73235000 0.990895 115.90 0.134614 25.897 0.134614 25.897 0.990895 115.89
8.73240000 0.990894 115.90 0.134615 25.897 0.134615 25.897 0.990894 115.89
8.73245000 0.990894 115.90 0.134616 25.896 0.134616 25.896 0.990894 115.89
8.73250000 0.990894 115.90 0.134617 25.896 0.134617 25.896 0.990894 115.89
8.73255000 0.990894 115.90 0.134618 25.896 0.134618 25.896 0.990894 115.89
8.73260000 0.990894 115.90 0.134619 25.895 0.134619 25.895 0.990894 115.89
8.73265000 0.990894 115.90 0.134620 25.895 0.134620 25.895 0.990894 115.89
8.73270000 0.990894 115.90 0.134621 25.894 0.134621 25.894 0.990894 115.89
8.73275000 0.990893 115.90 0.134622 25.894 0.134622 25.894 0.990893 115.89
8.73280000 0.990893 115.90 0.134623 25.894 0.134623 25.894 0.990893 115.89
8.73285000 0.990893 115.90 0.134624 25.893 0.134624 25.893 0.990893 115.89
8.73290000 0.990893 115.90 0.134625 25.893 0.134625 25.893 0.990893 115.89
8.73295000 0.990893 115.90 0.134626 25.893 0.134626 25.893 0.990893 115.88
8.73300000 0.990893 115.90 0.134627 25.892 0.134627 25.892 0.990893 115.88
8.73305000 0.990893 115.90 0.134628 25.892 0.134628 25.892 0.990893 115.88
8.73310000 0.990892 115.90 0.134629 25.891 0.134629 25.891 0.990893 115.88
8.73315000 0.990892 115.90 0.134631 25.891 0.134631 25.891 0.990892 115.88
8.73320000 0.990892 115.90 0.134632 25.891 0.134632 25.891 0.990892 115.88
8.73325000 0.990892 115.90 0.134633 25.890 0.134633 25.890 0.990892 115.88
8.73330000 0.990892 115.90 0.134634 25.890 0.134634 25.890 0.990892 115.88
8.73335000 0.990892 115.89 0.134635 25.890 0.134635 25.890 0.990892 115.88
8.73340000 0.990892 115.89 0.134636 25.889 0.134636 25.889 0.990892 115.88
8.73345000 0.990891 115.89 0.134637 25.889 0.134637 25.889 0.990892 115.88
8.73350000 0.990891 115.89 0.134638 25.888 0.134638 25.888 0.990891 115.88
8.73355000 0.990891 115.89 0.134639 25.888 0.134639 25.888 0.990891 115.88
8.73360000 0.990891 115.89 0.134640 25.888 0.134640 25.888 0.990891 115.88
8.73365000 0.990891 115.89 0.134641 25.887 0.134641 25.887 0.990891 115.88
8.73370000 0.990891 115.89 0.134642 25.887 0.134642 25.887 0.990891 115.88
8.73375000 0.990891 115.89 0.134643 25.886 0.134643 25.886 0.990891 115.88
8.73380000 0.990891 115.89 0.134644 25.886 0.134644 25.886 0.990891 115.88
8.73385000 0.990890 115.89 0.134645 25.886 0.134645 25.886 0.990890 115.88
8.73390000 0.990890 115.89 0.134646 25.885 0.134646 25.885 0.990890 115.88
8.73395000 0.990890 115.89 0.134647 25.885 0.134647 25.885 0.990890 115.88
8.73400000 0.990890 115.89 0.134648 25.885 0.134648 25.885 0.990890 115.88
8.73405000 0.990890 115.89 0.134649 25.884 0.134649 25.884 0.990890 115.88
8.73410000 0.990890 115.89 0.134650 25.884 0.134650 25.884 0.990890 115.88
8.73415000 0.990890 115.89 0.134651 25.883 0.134651 25.883 0.990890 115.88
8.73420000 0.990889 115.89 0.134652 25.883 0.134652 25.883 0.990889 115.88
8.73425000 0.990889 115.89 0.134653 25.883 0.134653 25.883 0.990889 115.87
8.73430000 0.990889 115.89 0.134654 25.882 0.134654 25.882 0.990889 115.87
8.73435000 0.990889 115.89 0.134655 25.882 0.134655 25.882 0.990889 115.87
8.73440000 0.990889 115.89 0.134656 25.882 0.134656 25.882 0.990889 115.87
8.73445000 0.990889 115.89 0.134657 25.881 0.134657 25.881 0.990889 115.87
8.73450000 0.990889 115.89 0.134658 25.881 0.134658 25.881 0.990889 115.87
8.73455000 0.990888 115.89 0.134659 25.880 0.134659 25.880 0.990888 115.87
8.73460000 0.990888 115.89 0.134660 25.880 0.134660 25.880 0.990888 115.87
8.73465000 0.990888 115.89 0.134661 25.880 0.134661 25.880 0.990888 115.87
8.73470000 0.990888 115.88 0.134662 25.879 0.134662 25.879 0.990888 115.87
8.73475000 0.990888 115.88 0.134663 25.879 0.134663 25.879 0.990888 115.87
8.73480000 0.990888 115.88 0.134664 25.878 0.134664 25.878 0.990888 115.87
8.73485000 0.990888 115.88 0.134665 25.878 0.134665 25.878 0.990888 115.87
8.73490000 0.990887 115.88 0.134666 25.878 0.134666 25.878 0.990888 115.87
8.73495000 0.990887 115.88 0.134667 25.877 0.134667 25.877 0.990887 115.87
8.73500000 0.990887 115.88 0.134668 25.877 0.134668 25.877 0.990887 115.87
8.73505000 0.990887 115.88 0.134669 25.877 0.134669 25.877 0.990887 115.87
8.73510000 0.990887 115.88 0.134670 25.876 0.134670 25.876 0.990887 115.87
8.73515000 0.990887 115.88 0.134671 25.876 0.134671 25.876 0.990887 115.87
8.73520000 0.990887 115.88 0.134672 25.875 0.134672 25.875 0.990887 115.87
8.73525000 0.990886 115.88 0.134673 25.875 0.134673 25.875 0.990887 115.87
8.73530000 0.990886 115.88 0.134674 25.875 0.134674 25.875 0.990886 115.87
8.73535000 0.990886 115.88 0.134675 25.874 0.134675 25.874 0.990886 115.87
8.73540000 0.990886 115.88 0.134676 25.874 0.134676 25.874 0.990886 115.87
8.73545000 0.990886 115.88 0.134677 25.874 0.134677 25.874 0.990886 115.87
8.73550000 0.990886 115.88 0.134679 25.873 0.134679 25.873 0.990886 115.87
8.73555000 0.990886 115.88 0.134680 25.873 0.134680 25.873 0.990886 115.87
8.73560000 0.990885 115.88 0.134681 25.872 0.134681 25.872 0.990886 115.86
8.73565000 0.990885 115.88 0.134682 25.872 0.134682 25.872 0.990885 115.86
8.73570000 0.990885 115.88 0.134683 25.872 0.134683 25.872 0.990885 115.86
8.73575000 0.990885 115.88 0.134684 25.871 0.134684 25.871 0.990885 115.86
8.73580000 0.990885 115.88 0.134685 25.871 0.134685 25.871 0.990885 115.86
8.73585000 0.990885 115.88 0.134686 25.870 0.134686 25.870 0.990885 115.86
8.73590000 0.990885 115.88 0.134687 25.870 0.134687 25.870 0.990885 115.86
8.73595000 0.990885 115.88 0.134688 25.870 0.134688 25.870 0.990885 115.86
8.73600000 0.990884 115.87 0.134689 25.869 0.134689 25.869 0.990884 115.86
8.73605000 0.990884 115.87 0.134690 25.869 0.134690 25.869 0.990884 115.86
8.73610000 0.990884 115.87 0.134691 25.869 0.134691 25.869 0.990884 115.86
8.73615000 0.990884 115.87 0.134692 25.868 0.134692 25.868 0.990884 115.86
8.73620000 0.990884 115.87 0.134693 25.868 0.134693 25.868 0.990884 115.86
8.73625000 0.990884 115.87 0.134694 25.867 0.134694 25.867 0.990884 115.86
8.73630000 0.990884 115.87 0.134695 25.867 0.134695 25.867 0.990884 115.86
8.73635000 0.990883 115.87 0.134696 25.867 0.134696 25.867 0.990883 115.86
8.73640000 0.990883 115.87 0.134697 25.866 0.134697 25.866 0.990883 115.86
8.73645000 0.990883 115.87 0.134698 25.866 0.134698 25.866 0.990883 115.86
8.73650000 0.990883 115.87 0.134699 25.866 0.134699 25.866 0.990883 115.86
8.73655000 0.990883 115.87 0.134700 25.865 0.134700 25.865 0.990883 115.86
8.73660000 0.990883 115.87 0.134701 25.865 0.134701 25.865 0.990883 115.86
8.73665000 0.990883 115.87 0.134702 25.864 0.134702 25.864 0.990883 115.86
8.73670000 0.990882 115.87 0.134703 25.864 0.134703 25.864 0.990882 115.86
8.73675000 0.990882 115.87 0.134704 25.864 0.134704 25.864 0.990882 115.86
8.73680000 0.990882 115.87 0.134705 25.863 0.134705 25.863 0.990882 115.86
8.73685000 0.990882 115.87 0.134706 25.863 0.134706 25.863 0.990882 115.86
8.73690000 0.990882 115.87 0.134707 25.862 0.134707 25.862 0.990882 115.85
8.73695000 0.990882 115.87 0.134708 25.862 0.134708 25.862 0.990882 115.85
8.73700000 0.990882 115.87 0.134709 25.862 0.134709 25.862 0.990882 115.85
8.73705000 0.990881 115.87 0.134711 25.861 0.134711 25.861 0.990881 115.85
8.73710000 0.990881 115.87 0.134712 25.861 0.134712 25.861 0.990881 115.85
8.73715000 0.990881 115.87 0.134713 25.861 0.134713 25.861 0.990881 115.85
8.73720000 0.990881 115.87 0.134714 25.860 0.134714 25.860 0.990881 115.85
8.73725000 0.990881 115.87 0.134715 25.860 0.134715 25.860 0.990881 115.85
8.73730000 0.990881 115.86 0.134716 25.859 0.134716 25.859 0.990881 115.85
8.73735000 0.990881 115.86 0.134717 25.859 0.134717 25.859 0.990881 115.85
8.73740000 0.990880 115.86 0.134718 25.859 0.134718 25.859 0.990880 115.85
8.73745000 0.990880 115.86 0.134719 25.858 0.134719 25.858 0.990880 115.85
8.73750000 0.990880 115.86 0.134720 25.858 0.134720 25.858 0.990880 115.85
8.73755000 0.990880 115.86 0.134721 25.858 0.134721 25.858 0.990880 115.85
8.73760000 0.990880 115.86 0.134722 25.857 0.134722 25.857 0.990880 115.85
8.73765000 0.990880 115.86 0.134723 25.857 0.134723 25.857 0.990880 115.85
8.73770000 0.990880 115.86 0.134724 25.856 0.134724 25.856 0.990880 115.85
8.73775000 0.990879 115.86 0.134725 25.856 0.134725 25.856 0.990880 115.85
8.73780000 0.990879 115.86 0.134726 25.856 0.134726 25.856 0.990879 115.85
8.73785000 0.990879 115.86 0.134727 25.855 0.134727 25.855 0.990879 115.85
8.73790000 0.990879 115.86 0.134728 25.855 0.134728 25.855 0.990879 115.85
8.73795000 0.990879 115.86 0.134729 25.854 0.134729 25.854 0.990879 115.85
8.73800000 0.990879 115.86 0.134730 25.854 0.134730 25.854 0.990879 115.85
8.73805000 0.990879 115.86 0.134731 25.854 0.134731 25.854 0.990879 115.85
8.73810000 0.990878 115.86 0.134732 25.853 0.134732 25.853 0.990879 115.85
8.73815000 0.990878 115.86 0.134733 25.853 0.134733 25.853 0.990878 115.85
8.73820000 0.990878 115.86 0.134734 25.853 0.134734 25.853 0.990878 115.84
8.73825000 0.990878 115.86 0.134735 25.852 0.134735 25.852 0.990878 115.84
8.73830000 0.990878 115.86 0.134737 25.852 0.134737 25.852 0.990878 115.84
8.73835000 0.990878 115.86 0.134738 25.851 0.134738 25.851 0.990878 115.84
8.73840000 0.990878 115.86 0.134739 25.851 0.134739 25.851 0.990878 115.84
8.73845000 0.990877 115.86 0.134740 25.851 0.134740 25.851 0.990878 115.84
8.73850000 0.990877 115.86 0.134741 25.850 0.134741 25.850 0.990877 115.84
8.73855000 0.990877 115.86 0.134742 25.850 0.134742 25.850 0.990877 115.84
8.73860000 0.990877 115.85 0.134743 25.850 0.134743 25.850 0.990877 115.84
8.73865000 0.990877 115.85 0.134744 25.849 0.134744 25.849 0.990877 115.84
8.73870000 0.990877 115.85 0.134745 25.849 0.134745 25.849 0.990877 115.84
8.73875000 0.990877 115.85 0.134746 25.848 0.134746 25.848 0.990877 115.84
8.73880000 0.990876 115.85 0.134747 25.848 0.134747 25.848 0.990877 115.84
8.73885000 0.990876 115.85 0.134748 25.848 0.134748 25.848 0.990876 115.84
8.73890000 0.990876 115.85 0.134749 25.847 0.134749 25.847 0.990876 115.84
8.73895000 0.990876 115.85 0.134750 25.847 0.134750 25.847 0.990876 115.84
8.73900000 0.990876 115.85 0.134751 25.846 0.134751 25.846 0.990876 115.84
8.73905000 0.990876 115.85 0.134752 25.846 0.134752 25.846 0.990876 115.84
8.73910000 0.990876 115.85 0.134753 25.846 0.134753 25.846 0.990876 115.84
8.73915000 0.990875 115.85 0.134754 25.845 0.134754 25.845 0.990876 115.84
8.73920000 0.990875 115.85 0.134755 25.845 0.134755 25.845 0.990875 115.84
8.73925000 0.990875 115.85 0.134756 25.845 0.134756 25.845 0.990875 115.84
8.73930000 0.990875 115.85 0.134757 25.844 0.134757 25.844 0.990875 115.84
8.73935000 0.990875 115.85 0.134759 25.844 0.134759 25.844 0.990875 115.84
8.73940000 0.990875 115.85 0.134760 25.843 0.134760 25.843 0.990875 115.84
8.73945000 0.990875 115.85 0.134761 25.843 0.134761 25.843 0.990875 115.84
8.73950000 0.990874 115.85 0.134762 25.843 0.134762 25.843 0.990875 115.83
8.73955000 0.990874 115.85 0.134763 25.842 0.134763 25.842 0.990874 115.83
8.73960000 0.990874 115.85 0.134764 25.842 0.134764 25.842 0.990874 115.83