! Sonnet Data File
! From: emgraph Version : 16.52
! From Emgraph Data: 171114transmon_trace_brgDb
! Data File Written: 11/14/2017 21:02:26
!< HDATE 11/14/2017 20:26:01
!< MDATE 11/14/2017 20:26:01
!< PARAMS
!< Lj = 15.24
!< Gap = 14.0
!< Width = 10.0
!< Pwidth = 2000.0
!< Dist = 800.0
!< Dist1 = 1600.0
!< END PARAMS
# GHZ S MA R 34.87000
8.615000000000000 0.9977022610250 132.94235994735 0.0677204235550 42.944857581951 0.0677204235569 42.944857579471 0.9977022621937 132.94463506572
!< P1 F=8.615 Eeff=(5.13377404 -5.6313e-5) Z0=(34.6595714 -9.1612e-5) R=0.0 C=0.0 
!< P2 F=8.615 Eeff=(5.13377404 -5.6313e-5) Z0=(34.6595714 -9.1612e-5) R=0.0 C=0.0 
8.615005000000000 0.9977022565991 132.94233120927 0.0677204878467 42.944828787916 0.0677204878467 42.944828787916 0.9977022577979 132.94460637696
8.615010000000000 0.9977022521504 132.94230248621 0.0677205521935 42.944800008449 0.0677205521935 42.944800008449 0.9977022533504 132.94457767138
8.615015000000001 0.9977022476999 132.94227376182 0.0677206165631 42.944771227541 0.0677206165631 42.944771227541 0.9977022489012 132.94454896451
8.615020000000001 0.9977022432477 132.94224503612 0.0677206809555 42.944742445185 0.0677206809555 42.944742445185 0.9977022444503 132.94452025633
8.615025000000001 0.9977022387938 132.94221630909 0.0677207453707 42.944713661383 0.0677207453707 42.944713661383 0.9977022399977 132.94449154686
8.615030000000001 0.9977022343382 132.94218758073 0.0677208098088 42.944684876127 0.0677208098088 42.944684876127 0.9977022355433 132.94446283608
8.615035000000001 0.9977022298808 132.94215885105 0.0677208742698 42.944656089419 0.0677208742698 42.944656089419 0.9977022310873 132.94443412399
8.615040000000000 0.9977022254217 132.94213012004 0.0677209387538 42.944627301254 0.0677209387538 42.944627301254 0.9977022266295 132.94440541060
8.615045000000000 0.9977022209609 132.94210138769 0.0677210032609 42.944598511626 0.0677210032609 42.944598511626 0.9977022221700 132.94437669589
8.615050000000000 0.9977022164984 132.94207265401 0.0677210677910 42.944569720535 0.0677210677910 42.944569720535 0.9977022177087 132.94434797987
8.615055000000000 0.9977022120341 132.94204391899 0.0677211323443 42.944540927976 0.0677211323443 42.944540927976 0.9977022132457 132.94431926253
8.615060000000000 0.9977022075681 132.94201518263 0.0677211969206 42.944512133950 0.0677211969206 42.944512133950 0.9977022087810 132.94429054388
8.615065000000001 0.9977022031003 132.94198644492 0.0677212615203 42.944483338449 0.0677212615203 42.944483338449 0.9977022043145 132.94426182390
8.615070000000001 0.9977021986308 132.94195770586 0.0677213261432 42.944454541470 0.0677213261432 42.944454541470 0.9977021998463 132.94423310259
8.615075000000001 0.9977021941595 132.94192896546 0.0677213907894 42.944425743018 0.0677213907894 42.944425743018 0.9977021953764 132.94420437996
8.615080000000001 0.9977021896865 132.94190022370 0.0677214554589 42.944396943078 0.0677214554589 42.944396943078 0.9977021909046 132.94417565600
8.615085000000001 0.9977021852117 132.94187148058 0.0677215201519 42.944368141653 0.0677215201519 42.944368141653 0.9977021864312 132.94414693070
8.615090000000000 0.9977021807351 132.94184273611 0.0677215848683 42.944339338741 0.0677215848683 42.944339338741 0.9977021819559 132.94411820407
8.615095000000000 0.9977021762568 132.94181399028 0.0677216496083 42.944310534334 0.0677216496083 42.944310534334 0.9977021774789 132.94408947610
8.615100000000000 0.9977021717767 132.94178524308 0.0677217143717 42.944281728436 0.0677217143717 42.944281728436 0.9977021730001 132.94406074679
8.615105000000000 0.9977021672948 132.94175649451 0.0677217791588 42.944252921037 0.0677217791588 42.944252921037 0.9977021685196 132.94403201613
8.615110000000001 0.9977021628112 132.94172774458 0.0677218439695 42.944224112139 0.0677218439695 42.944224112139 0.9977021640373 132.94400328413
8.615115000000001 0.9977021583258 132.94169899327 0.0677219088040 42.944195301734 0.0677219088040 42.944195301734 0.9977021595531 132.94397455077
8.615120000000001 0.9977021538385 132.94167024059 0.0677219736622 42.944166489824 0.0677219736622 42.944166489823 0.9977021550673 132.94394581607
8.615125000000001 0.9977021493495 132.94164148653 0.0677220385441 42.944137676401 0.0677220385441 42.944137676401 0.9977021505796 132.94391708001
8.615130000000001 0.9977021448587 132.94161273109 0.0677221034499 42.944108861464 0.0677221034499 42.944108861464 0.9977021460901 132.94388834259
8.615135000000000 0.9977021403661 132.94158397426 0.0677221683797 42.944080045008 0.0677221683797 42.944080045008 0.9977021415988 132.94385960381
8.615140000000000 0.9977021358717 132.94155521605 0.0677222333333 42.944051227035 0.0677222333333 42.944051227035 0.9977021371058 132.94383086366
8.615145000000000 0.9977021313755 132.94152645645 0.0677222983110 42.944022407534 0.0677222983110 42.944022407534 0.9977021326109 132.94380212215
8.615150000000000 0.9977021268775 132.94149769545 0.0677223633127 42.943993586508 0.0677223633127 42.943993586508 0.9977021281142 132.94377337927
8.615155000000000 0.9977021223776 132.94146893306 0.0677224283385 42.943964763951 0.0677224283385 42.943964763951 0.9977021236157 132.94374463502
8.615160000000001 0.9977021178760 132.94144016928 0.0677224933884 42.943935939861 0.0677224933884 42.943935939861 0.9977021191154 132.94371588939
8.615165000000001 0.9977021133725 132.94141140409 0.0677225584625 42.943907114234 0.0677225584625 42.943907114234 0.9977021146133 132.94368714239
8.615170000000001 0.9977021088672 132.94138263749 0.0677226235609 42.943878287066 0.0677226235609 42.943878287066 0.9977021101094 132.94365839400
8.615175000000001 0.9977021043601 132.94135386949 0.0677226886835 42.943849458354 0.0677226886835 42.943849458354 0.9977021056036 132.94362964423
8.615180000000001 0.9977020998511 132.94132510008 0.0677227538305 42.943820628095 0.0677227538305 42.943820628095 0.9977021010960 132.94360089307
8.615185000000000 0.9977020953403 132.94129632926 0.0677228190020 42.943791796285 0.0677228190020 42.943791796285 0.9977020965866 132.94357214053
8.615190000000000 0.9977020908277 132.94126755702 0.0677228841978 42.943762962924 0.0677228841978 42.943762962924 0.9977020920753 132.94354338659
8.615195000000000 0.9977020863132 132.94123878336 0.0677229494181 42.943734128004 0.0677229494181 42.943734128004 0.9977020875622 132.94351463125
8.615200000000000 0.9977020817968 132.94121000828 0.0677230146630 42.943705291524 0.0677230146630 42.943705291524 0.9977020830472 132.94348587452
8.615205000000001 0.9977020772786 132.94118123178 0.0677230799325 42.943676453480 0.0677230799325 42.943676453480 0.9977020785304 132.94345711639
8.615210000000001 0.9977020727586 132.94115245385 0.0677231452267 42.943647613870 0.0677231452267 42.943647613870 0.9977020740117 132.94342835685
8.615215000000001 0.9977020682367 132.94112367448 0.0677232105455 42.943618772687 0.0677232105455 42.943618772687 0.9977020694912 132.94339959591
8.615220000000001 0.9977020637129 132.94109489369 0.0677232758891 42.943589929933 0.0677232758891 42.943589929933 0.9977020649688 132.94337083355
8.615225000000001 0.9977020591872 132.94106611146 0.0677233412575 42.943561085600 0.0677233412575 42.943561085600 0.9977020604446 132.94334206979
8.615230000000000 0.9977020546597 132.94103732778 0.0677234066508 42.943532239688 0.0677234066508 42.943532239688 0.9977020559184 132.94331330460
8.615235000000000 0.9977020501303 132.94100854267 0.0677234720690 42.943503392190 0.0677234720690 42.943503392190 0.9977020513904 132.94328453800
8.615240000000000 0.9977020455991 132.94097975611 0.0677235375121 42.943474543105 0.0677235375121 42.943474543105 0.9977020468606 132.94325576998
8.615245000000000 0.9977020410659 132.94095096810 0.0677236029803 42.943445692429 0.0677236029803 42.943445692430 0.9977020423288 132.94322700053
8.615250000000001 0.9977020365308 132.94092217864 0.0677236684735 42.943416840159 0.0677236684735 42.943416840159 0.9977020377952 132.94319822965
8.615255000000001 0.9977020319939 132.94089338772 0.0677237339918 42.943387986292 0.0677237339918 42.943387986292 0.9977020332596 132.94316945735
8.615260000000001 0.9977020274551 132.94086459535 0.0677237995354 42.943359130822 0.0677237995354 42.943359130822 0.9977020287222 132.94314068361
8.615265000000001 0.9977020229143 132.94083580151 0.0677238651041 42.943330273749 0.0677238651041 42.943330273749 0.9977020241829 132.94311190843
8.615270000000001 0.9977020183717 132.94080700621 0.0677239306981 42.943301415067 0.0677239306981 42.943301415067 0.9977020196416 132.94308313181
8.615275000000000 0.9977020138271 132.94077820944 0.0677239963175 42.943272554772 0.0677239963175 42.943272554772 0.9977020150985 132.94305435375
8.615280000000000 0.9977020092806 132.94074941121 0.0677240619622 42.943243692862 0.0677240619622 42.943243692862 0.9977020105534 132.94302557425
8.615285000000000 0.9977020047322 132.94072061150 0.0677241276324 42.943214829333 0.0677241276324 42.943214829333 0.9977020060065 132.94299679329
8.615290000000000 0.9977020001819 132.94069181031 0.0677241933280 42.943185964182 0.0677241933280 42.943185964182 0.9977020014576 132.94296801088
8.615295000000000 0.9977019956297 132.94066300765 0.0677242590493 42.943157097406 0.0677242590493 42.943157097406 0.9977019969068 132.94293922702
8.615300000000001 0.9977019910755 132.94063420350 0.0677243247961 42.943128228999 0.0677243247961 42.943128228999 0.9977019923540 132.94291044170
8.615305000000001 0.9977019865194 132.94060539786 0.0677243905686 42.943099358959 0.0677243905686 42.943099358959 0.9977019877994 132.94288165492
8.615310000000001 0.9977019819613 132.94057659074 0.0677244563667 42.943070487283 0.0677244563667 42.943070487283 0.9977019832427 132.94285286668
8.615315000000001 0.9977019774013 132.94054778212 0.0677245221907 42.943041613967 0.0677245221907 42.943041613967 0.9977019786842 132.94282407696
8.615320000000001 0.9977019728394 132.94051897201 0.0677245880405 42.943012739007 0.0677245880405 42.943012739007 0.9977019741237 132.94279528578
8.615325000000000 0.9977019682755 132.94049016040 0.0677246539161 42.942983862399 0.0677246539161 42.942983862399 0.9977019695613 132.94276649312
8.615330000000000 0.9977019637096 132.94046134729 0.0677247198177 42.942954984140 0.0677247198177 42.942954984140 0.9977019649969 132.94273769899
8.615335000000000 0.9977019591418 132.94043253268 0.0677247857452 42.942926104226 0.0677247857452 42.942926104226 0.9977019604305 132.94270890337
8.615340000000000 0.9977019545720 132.94040371655 0.0677248516988 42.942897222654 0.0677248516988 42.942897222654 0.9977019558622 132.94268010627
8.615345000000001 0.9977019500003 132.94037489892 0.0677249176785 42.942868339420 0.0677249176785 42.942868339420 0.9977019512919 132.94265130769
8.615350000000001 0.9977019454266 132.94034607977 0.0677249836844 42.942839454521 0.0677249836844 42.942839454521 0.9977019467196 132.94262250762
8.615355000000001 0.9977019408509 132.94031725910 0.0677250497164 42.942810567952 0.0677250497164 42.942810567952 0.9977019421454 132.94259370605
8.615360000000001 0.9977019362732 132.94028843691 0.0677251157747 42.942781679711 0.0677251157747 42.942781679711 0.9977019375692 132.94256490299
8.615365000000001 0.9977019316935 132.94025961320 0.0677251818594 42.942752789792 0.0677251818594 42.942752789792 0.9977019329910 132.94253609843
8.615370000000000 0.9977019271118 132.94023078796 0.0677252479704 42.942723898193 0.0677252479704 42.942723898193 0.9977019284108 132.94250729237
8.615375000000000 0.9977019225282 132.94020196119 0.0677253141078 42.942695004911 0.0677253141078 42.942695004911 0.9977019238287 132.94247848480
8.615380000000000 0.9977019179425 132.94017313288 0.0677253802717 42.942666109940 0.0677253802717 42.942666109940 0.9977019192445 132.94244967572
8.615385000000000 0.9977019133549 132.94014430304 0.0677254464622 42.942637213276 0.0677254464622 42.942637213276 0.9977019146583 132.94242086513
8.615390000000000 0.9977019087652 132.94011547165 0.0677255126792 42.942608314920 0.0677255126792 42.942608314920 0.9977019100701 132.94239205303
8.615395000000001 0.9977019041735 132.94008663873 0.0677255789230 42.942579414863 0.0677255789230 42.942579414863 0.9977019054799 132.94236323941
8.615400000000001 0.9977018995798 132.94005780425 0.0677256451934 42.942550513104 0.0677256451934 42.942550513104 0.9977019008877 132.94233442426
8.615405000000001 0.9977018949841 132.94002896823 0.0677257114906 42.942521609637 0.0677257114906 42.942521609637 0.9977018962935 132.94230560759
8.615410000000001 0.9977018903863 132.94000013065 0.0677257778147 42.942492704460 0.0677257778147 42.942492704460 0.9977018916973 132.94227678940
8.615415000000000 0.9977018857865 132.93997129151 0.0677258441656 42.942463797571 0.0677258441656 42.942463797571 0.9977018870990 132.94224796967
8.615420000000000 0.9977018811847 132.93994245082 0.0677259105435 42.942434888961 0.0677259105435 42.942434888961 0.9977018824987 132.94221914840
8.615425000000000 0.9977018765808 132.93991360856 0.0677259769483 42.942405978632 0.0677259769483 42.942405978632 0.9977018778963 132.94219032560
8.615430000000000 0.9977018719749 132.93988476473 0.0677260433803 42.942377066573 0.0677260433803 42.942377066573 0.9977018732920 132.94216150126
8.615435000000000 0.9977018673670 132.93985591933 0.0677261098394 42.942348152787 0.0677261098394 42.942348152787 0.9977018686855 132.94213267537
8.615440000000001 0.9977018627570 132.93982707236 0.0677261763256 42.942319237270 0.0677261763256 42.942319237270 0.9977018640770 132.94210384794
8.615445000000001 0.9977018581449 132.93979822381 0.0677262428391 42.942290320011 0.0677262428391 42.942290320011 0.9977018594665 132.94207501895
8.615450000000001 0.9977018535308 132.93976937368 0.0677263093799 42.942261401015 0.0677263093799 42.942261401015 0.9977018548539 132.94204618841
8.615455000000001 0.9977018489146 132.93974052196 0.0677263759480 42.942232480271 0.0677263759480 42.942232480271 0.9977018502392 132.94201735631
8.615460000000001 0.9977018442963 132.93971166866 0.0677264425436 42.942203557780 0.0677264425436 42.942203557780 0.9977018456225 132.94198852265
8.615465000000000 0.9977018396759 132.93968281376 0.0677265091666 42.942174633535 0.0677265091666 42.942174633535 0.9977018410037 132.94195968742
8.615470000000000 0.9977018350535 132.93965395727 0.0677265758172 42.942145707533 0.0677265758172 42.942145707533 0.9977018363828 132.94193085063
8.615475000000000 0.9977018304290 132.93962509919 0.0677266424953 42.942116779771 0.0677266424953 42.942116779771 0.9977018317598 132.94190201226
8.615480000000000 0.9977018258024 132.93959623950 0.0677267092011 42.942087850244 0.0677267092011 42.942087850244 0.9977018271348 132.94187317232
8.615485000000001 0.9977018211737 132.93956737821 0.0677267759346 42.942058918950 0.0677267759346 42.942058918950 0.9977018225076 132.94184433080
8.615490000000001 0.9977018165429 132.93953851531 0.0677268426959 42.942029985882 0.0677268426959 42.942029985882 0.9977018178784 132.94181548770
8.615495000000001 0.9977018119100 132.93950965079 0.0677269094851 42.942001051037 0.0677269094851 42.942001051037 0.9977018132470 132.94178664301
8.615500000000001 0.9977018072749 132.93948078466 0.0677269763021 42.941972114412 0.0677269763021 42.941972114412 0.9977018086136 132.94175779674
8.615505000000001 0.9977018026378 132.93945191691 0.0677270431471 42.941943176002 0.0677270431471 42.941943176002 0.9977018039780 132.94172894887
8.615510000000000 0.9977017979985 132.93942304754 0.0677271100201 42.941914235803 0.0677271100201 42.941914235803 0.9977017993403 132.94170009941
8.615515000000000 0.9977017933572 132.93939417654 0.0677271769212 42.941885293812 0.0677271769212 42.941885293812 0.9977017947005 132.94167124835
8.615520000000000 0.9977017887136 132.93936530391 0.0677272438504 42.941856350022 0.0677272438504 42.941856350022 0.9977017900586 132.94164239568
8.615525000000000 0.9977017840680 132.93933642966 0.0677273108078 42.941827404437 0.0677273108078 42.941827404437 0.9977017854145 132.94161354141
8.615530000000000 0.9977017794202 132.93930755376 0.0677273777935 42.941798457042 0.0677273777935 42.941798457042 0.9977017807683 132.94158468553
8.615535000000001 0.9977017747703 132.93927867622 0.0677274448075 42.941769507839 0.0677274448075 42.941769507839 0.9977017761200 132.94155582803
8.615540000000001 0.9977017701182 132.93924979704 0.0677275118499 42.941740556824 0.0677275118499 42.941740556824 0.9977017714695 132.94152696892
8.615545000000001 0.9977017654640 132.93922091621 0.0677275789207 42.941711603991 0.0677275789207 42.941711603991 0.9977017668169 132.94149810819
8.615550000000001 0.9977017608076 132.93919203373 0.0677276460200 42.941682649336 0.0677276460200 42.941682649336 0.9977017621621 132.94146924584
8.615555000000001 0.9977017561490 132.93916314959 0.0677277131480 42.941653692858 0.0677277131480 42.941653692858 0.9977017575052 132.94144038185
8.615560000000000 0.9977017514883 132.93913426380 0.0677277803045 42.941624734548 0.0677277803045 42.941624734548 0.9977017528461 132.94141151624
8.615565000000000 0.9977017468254 132.93910537634 0.0677278474898 42.941595774405 0.0677278474898 42.941595774405 0.9977017481848 132.94138264899
8.615570000000000 0.9977017421603 132.93907648722 0.0677279147039 42.941566812423 0.0677279147039 42.941566812423 0.9977017435213 132.94135378010
8.615575000000000 0.9977017374931 132.93904759643 0.0677279819467 42.941537848600 0.0677279819467 42.941537848600 0.9977017388557 132.94132490957
8.615580000000001 0.9977017328236 132.93901870397 0.0677280492184 42.941508882931 0.0677280492184 42.941508882931 0.9977017341879 132.94129603740
8.615585000000001 0.9977017281520 132.93898980982 0.0677281165191 42.941479915412 0.0677281165191 42.941479915412 0.9977017295179 132.94126716358
8.615590000000001 0.9977017234782 132.93896091400 0.0677281838488 42.941450946038 0.0677281838488 42.941450946038 0.9977017248457 132.94123828810
8.615595000000001 0.9977017188021 132.93893201650 0.0677282512076 42.941421974804 0.0677282512076 42.941421974804 0.9977017201713 132.94120941097
8.615600000000001 0.9977017141239 132.93890311730 0.0677283185956 42.941393001707 0.0677283185956 42.941393001707 0.9977017154947 132.94118053217
8.615605000000000 0.9977017094434 132.93887421642 0.0677283860127 42.941364026743 0.0677283860127 42.941364026743 0.9977017108158 132.94115165172
8.615610000000000 0.9977017047608 132.93884531384 0.0677284534591 42.941335049908 0.0677284534591 42.941335049908 0.9977017061348 132.94112276960
8.615615000000000 0.9977017000759 132.93881640955 0.0677285209349 42.941306071195 0.0677285209349 42.941306071195 0.9977017014516 132.94109388580
8.615620000000000 0.9977016953887 132.93878750357 0.0677285884401 42.941277090604 0.0677285884401 42.941277090604 0.9977016967661 132.94106500033
8.615625000000001 0.9977016906994 132.93875859588 0.0677286559747 42.941248108127 0.0677286559747 42.941248108127 0.9977016920784 132.94103611318
8.615630000000001 0.9977016860078 132.93872968648 0.0677287235389 42.941219123761 0.0677287235389 42.941219123761 0.9977016873884 132.94100722435
8.615635000000001 0.9977016813139 132.93870077537 0.0677287911326 42.941190137502 0.0677287911326 42.941190137501 0.9977016826963 132.94097833384
8.615640000000001 0.9977016766178 132.93867186253 0.0677288587561 42.941161149344 0.0677288587561 42.941161149344 0.9977016780018 132.94094944163
8.615645000000001 0.9977016719195 132.93864294798 0.0677289264093 42.941132159283 0.0677289264093 42.941132159283 0.9977016733052 132.94092054773
8.615650000000000 0.9977016672189 132.93861403170 0.0677289940923 42.941103167318 0.0677289940923 42.941103167318 0.9977016686062 132.94089165214
8.615655000000000 0.9977016625160 132.93858511369 0.0677290618051 42.941074173444 0.0677290618051 42.941074173444 0.9977016639051 132.94086275484
8.615660000000000 0.9977016578109 132.93855619394 0.0677291295478 42.941045177653 0.0677291295478 42.941045177653 0.9977016592016 132.94083385584
8.615665000000000 0.9977016531035 132.93852727246 0.0677291973206 42.941016179942 0.0677291973206 42.941016179942 0.9977016544959 132.94080495513
8.615670000000000 0.9977016483938 132.93849834924 0.0677292651235 42.940987180304 0.0677292651235 42.940987180304 0.9977016497879 132.94077605270
8.615675000000001 0.9977016436818 132.93846942427 0.0677293329564 42.940958178743 0.0677293329564 42.940958178743 0.9977016450776 132.94074714856
8.615680000000001 0.9977016389675 132.93844049756 0.0677294008196 42.940929175246 0.0677294008196 42.940929175246 0.9977016403650 132.94071824271
8.615685000000001 0.9977016342510 132.93841156909 0.0677294687130 42.940900169813 0.0677294687130 42.940900169813 0.9977016356502 132.94068933512
8.615690000000001 0.9977016295321 132.93838263886 0.0677295366368 42.940871162435 0.0677295366368 42.940871162435 0.9977016309330 132.94066042581
8.615695000000001 0.9977016248109 132.93835370687 0.0677296045910 42.940842153112 0.0677296045910 42.940842153112 0.9977016262135 132.94063151477
8.615700000000000 0.9977016200874 132.93832477312 0.0677296725756 42.940813141839 0.0677296725756 42.940813141839 0.9977016214918 132.94060260199
8.615705000000000 0.9977016153616 132.93829583760 0.0677297405908 42.940784128611 0.0677297405908 42.940784128611 0.9977016167677 132.94057368747
8.615710000000000 0.9977016106335 132.93826690031 0.0677298086366 42.940755113422 0.0677298086366 42.940755113422 0.9977016120413 132.94054477121
8.615715000000000 0.9977016059030 132.93823796124 0.0677298767131 42.940726096266 0.0677298767131 42.940726096266 0.9977016073126 132.94051585320
8.615720000000001 0.9977016011703 132.93820902038 0.0677299448203 42.940697077144 0.0677299448203 42.940697077144 0.9977016025815 132.94048693344
8.615725000000001 0.9977015964351 132.93818007775 0.0677300129583 42.940668056048 0.0677300129583 42.940668056048 0.9977015978481 132.94045801193
8.615730000000001 0.9977015916977 132.93815113333 0.0677300811273 42.940639032973 0.0677300811273 42.940639032973 0.9977015931124 132.94042908865
8.615735000000001 0.9977015869578 132.93812218711 0.0677301493272 42.940610007914 0.0677301493272 42.940610007914 0.9977015883743 132.94040016361
8.615740000000001 0.9977015822157 132.93809323910 0.0677302175580 42.940580980870 0.0677302175580 42.940580980870 0.9977015836339 132.94037123681
8.615745000000000 0.9977015774711 132.93806428928 0.0677302858200 42.940551951833 0.0677302858200 42.940551951833 0.9977015788911 132.94034230824
8.615750000000000 0.9977015727242 132.93803533766 0.0677303541132 42.940522920794 0.0677303541132 42.940522920794 0.9977015741459 132.94031337789
8.615755000000000 0.9977015679750 132.93800638423 0.0677304224376 42.940493887760 0.0677304224376 42.940493887760 0.9977015693984 132.94028444576
8.615760000000000 0.9977015632233 132.93797742899 0.0677304907933 42.940464852715 0.0677304907933 42.940464852715 0.9977015646485 132.94025551184
8.615765000000000 0.9977015584693 132.93794847193 0.0677305591804 42.940435815660 0.0677305591804 42.940435815660 0.9977015598963 132.94022657614
8.615770000000001 0.9977015537128 132.93791951305 0.0677306275989 42.940406776592 0.0677306275989 42.940406776592 0.9977015551416 132.94019763865
8.615775000000001 0.9977015489540 132.93789055235 0.0677306960490 42.940377735500 0.0677306960490 42.940377735500 0.9977015503846 132.94016869937
8.615780000000001 0.9977015441928 132.93786158981 0.0677307645306 42.940348692388 0.0677307645306 42.940348692388 0.9977015456251 132.94013975828
8.615785000000001 0.9977015394292 132.93783262544 0.0677308330439 42.940319647242 0.0677308330439 42.940319647242 0.9977015408633 132.94011081540
8.615790000000001 0.9977015346631 132.93780365924 0.0677309015889 42.940290600060 0.0677309015889 42.940290600060 0.9977015360990 132.94008187070
8.615795000000000 0.9977015298947 132.93777469119 0.0677309701658 42.940261550840 0.0677309701658 42.940261550840 0.9977015313324 132.94005292419
8.615800000000000 0.9977015251238 132.93774572129 0.0677310387745 42.940232499577 0.0677310387745 42.940232499577 0.9977015265633 132.94002397587
8.615805000000000 0.9977015203505 132.93771674955 0.0677311074152 42.940203446264 0.0677311074152 42.940203446264 0.9977015217918 132.93999502573
8.615810000000000 0.9977015155748 132.93768777595 0.0677311760879 42.940174390897 0.0677311760879 42.940174390897 0.9977015170179 132.93996607376
8.615815000000001 0.9977015107966 132.93765880048 0.0677312447927 42.940145333468 0.0677312447927 42.940145333468 0.9977015122415 132.93993711996
8.615820000000001 0.9977015060160 132.93762982316 0.0677313135297 42.940116273978 0.0677313135297 42.940116273978 0.9977015074627 132.93990816433
8.615825000000001 0.9977015012329 132.93760084397 0.0677313822989 42.940087212420 0.0677313822989 42.940087212420 0.9977015026814 132.93987920687
8.615830000000001 0.9977014964474 132.93757186291 0.0677314511005 42.940058148789 0.0677314511005 42.940058148789 0.9977014978977 132.93985024757
8.615835000000001 0.9977014916594 132.93754287997 0.0677315199344 42.940029083080 0.0677315199344 42.940029083080 0.9977014931115 132.93982128642
8.615840000000000 0.9977014868689 132.93751389515 0.0677315888008 42.940000015283 0.0677315888008 42.940000015283 0.9977014883229 132.93979232342
8.615845000000000 0.9977014820760 132.93748490845 0.0677316576997 42.939970945402 0.0677316576997 42.939970945402 0.9977014835318 132.93976335856
8.615850000000000 0.9977014772805 132.93745591986 0.0677317266313 42.939941873425 0.0677317266313 42.939941873425 0.9977014787382 132.93973439185
8.615855000000000 0.9977014724826 132.93742692938 0.0677317955955 42.939912799352 0.0677317955955 42.939912799352 0.9977014739422 132.93970542328
8.615860000000001 0.9977014676822 132.93739793699 0.0677318645926 42.939883723174 0.0677318645926 42.939883723174 0.9977014691436 132.93967645284
8.615865000000001 0.9977014628793 132.93736894271 0.0677319336224 42.939854644889 0.0677319336224 42.939854644889 0.9977014643426 132.93964748053
8.615870000000001 0.9977014580739 132.93733994652 0.0677320026852 42.939825564490 0.0677320026852 42.939825564490 0.9977014595390 132.93961850635
8.615875000000001 0.9977014532660 132.93731094841 0.0677320717810 42.939796481973 0.0677320717810 42.939796481973 0.9977014547330 132.93958953029
8.615880000000001 0.9977014484556 132.93728194840 0.0677321409098 42.939767397332 0.0677321409098 42.939767397332 0.9977014499244 132.93956055234
8.615885000000000 0.9977014436426 132.93725294646 0.0677322100718 42.939738310562 0.0677322100718 42.939738310562 0.9977014451133 132.93953157250
8.615890000000000 0.9977014388272 132.93722394260 0.0677322792670 42.939709221661 0.0677322792670 42.939709221661 0.9977014402997 132.93950259078
8.615895000000000 0.9977014340091 132.93719493681 0.0677323484955 42.939680130620 0.0677323484955 42.939680130620 0.9977014354836 132.93947360716
8.615900000000000 0.9977014291886 132.93716592909 0.0677324177574 42.939651037436 0.0677324177574 42.939651037436 0.9977014306649 132.93944462163
8.615905000000000 0.9977014243655 132.93713691943 0.0677324870527 42.939621942102 0.0677324870527 42.939621942102 0.9977014258437 132.93941563420
8.615910000000001 0.9977014195398 132.93710790783 0.0677325563816 42.939592844612 0.0677325563816 42.939592844612 0.9977014210199 132.93938664486
8.615915000000001 0.9977014147116 132.93707889428 0.0677326257441 42.939563744967 0.0677326257441 42.939563744967 0.9977014161936 132.93935765361
8.615920000000001 0.9977014098809 132.93704987878 0.0677326951402 42.939534643153 0.0677326951402 42.939534643153 0.9977014113647 132.93932866044
8.615925000000001 0.9977014050475 132.93702086133 0.0677327645702 42.939505539171 0.0677327645702 42.939505539171 0.9977014065333 132.93929966534
8.615930000000001 0.9977014002116 132.93699184191 0.0677328340339 42.939476433016 0.0677328340339 42.939476433016 0.9977014016993 132.93927066832
8.615935000000000 0.9977013953731 132.93696282053 0.0677329035316 42.939447324680 0.0677329035316 42.939447324680 0.9977013968627 132.93924166937
8.615940000000000 0.9977013905320 132.93693379719 0.0677329730633 42.939418214157 0.0677329730633 42.939418214157 0.9977013920235 132.93921266847
8.615945000000000 0.9977013856883 132.93690477186 0.0677330426291 42.939389101445 0.0677330426291 42.939389101445 0.9977013871817 132.93918366564
8.615950000000000 0.9977013808420 132.93687574457 0.0677331122290 42.939359986537 0.0677331122290 42.939359986537 0.9977013823374 132.93915466086
8.615955000000001 0.9977013759931 132.93684671528 0.0677331818632 42.939330869427 0.0677331818632 42.939330869427 0.9977013774904 132.93912565414
8.615960000000001 0.9977013711416 132.93681768401 0.0677332515317 42.939301750112 0.0677332515317 42.939301750112 0.9977013726408 132.93909664545
8.615965000000001 0.9977013662874 132.93678865075 0.0677333212346 42.939272628583 0.0677333212346 42.939272628583 0.9977013677886 132.93906763481
8.615970000000001 0.9977013614307 132.93675961549 0.0677333909719 42.939243504838 0.0677333909719 42.939243504838 0.9977013629338 132.93903862221
8.615975000000001 0.9977013565713 132.93673057823 0.0677334607438 42.939214378871 0.0677334607438 42.939214378871 0.9977013580764 132.93900960763
8.615980000000000 0.9977013517092 132.93670153896 0.0677335305504 42.939185250675 0.0677335305504 42.939185250675 0.9977013532163 132.93898059109
8.615985000000000 0.9977013468445 132.93667249768 0.0677336003917 42.939156120246 0.0677336003917 42.939156120246 0.9977013483535 132.93895157256
8.615990000000000 0.9977013419772 132.93664345439 0.0677336702678 42.939126987577 0.0677336702678 42.939126987577 0.9977013434882 132.93892255206
8.615995000000000 0.9977013371072 132.93661440908 0.0677337401788 42.939097852664 0.0677337401788 42.939097852664 0.9977013386201 132.93889352956
8.616000000000000 0.9977013322345 132.93658536174 0.0677338101247 42.939068715503 0.0677338101247 42.939068715503 0.9977013337494 132.93886450508
8.616005000000001 0.9977013273592 132.93655631237 0.0677338801057 42.939039576084 0.0677338801057 42.939039576084 0.9977013288761 132.93883547859