! Sonnet Data File
! From: emgraph Version : 16.52
! From Project: 171114transmon_trace_brg
! Data is De-embedded 
! Data File Written: 11/14/2017 19:58:17
!< HDATE 11/14/2017 18:03:22
!< MDATE 11/14/2017 18:03:22
!< PARAMS
!< Lj = 15.24
!< Gap = 14.0
!< Width = 10.0
!< Airgap = 6.0
!< Pwidth = 2000.0
!< Dist = 600.0
!< END PARAMS
# GHZ S MA R 34.87000
8.615000000000000 0.9842214538474 107.58509585511 0.1769151319719 17.567817471973 0.1769151319710 17.567817471910 0.9842214632444 107.54868237471
!< P1 F=8.615 Eeff=(5.13377404 -5.6313e-5) Z0=(34.6595714 -9.1612e-5) R=0.0 C=0.0 
!< P2 F=8.615 Eeff=(5.13377404 -5.6313e-5) Z0=(34.6595714 -9.1612e-5) R=0.0 C=0.0 
8.615005000000000 0.9842214139038 107.58504688344 0.1769153522144 17.567768455352 0.1769153522144 17.567768455352 0.9842214235213 107.54863362855
8.615010000000000 0.9842213737139 107.58499791395 0.1769155725194 17.567719400039 0.1769155725194 17.567719400039 0.9842213833499 107.54858485918
8.615015000000001 0.9842213334959 107.58494893558 0.1769157929745 17.567670335629 0.1769157929745 17.567670335629 0.9842213431504 107.54853608122
8.615020000000001 0.9842212932497 107.58489994832 0.1769160135798 17.567621262119 0.1769160135798 17.567621262119 0.9842213029228 107.54848729466
8.615025000000001 0.9842212529754 107.58485095216 0.1769162343354 17.567572179496 0.1769162343354 17.567572179496 0.9842212626669 107.54843849949
8.615030000000001 0.9842212126727 107.58480194706 0.1769164552419 17.567523087728 0.1769164552419 17.567523087728 0.9842212223828 107.54838969569
8.615035000000001 0.9842211723417 107.58475293302 0.1769166762996 17.567473986793 0.1769166762996 17.567473986793 0.9842211820704 107.54834088322
8.615040000000000 0.9842211319822 107.58470391002 0.1769168975086 17.567424876685 0.1769168975086 17.567424876685 0.9842211417297 107.54829206210
8.615045000000000 0.9842210915943 107.58465487803 0.1769171188694 17.567375757380 0.1769171188694 17.567375757380 0.9842211013605 107.54824323228
8.615050000000000 0.9842210511779 107.58460583705 0.1769173403822 17.567326628858 0.1769173403822 17.567326628858 0.9842210609628 107.54819439376
8.615055000000000 0.9842210107330 107.58455678705 0.1769175620472 17.567277491110 0.1769175620472 17.567277491110 0.9842210205366 107.54814554653
8.615060000000000 0.9842209702594 107.58450772803 0.1769177838646 17.567228344114 0.1769177838646 17.567228344114 0.9842209800818 107.54809669056
8.615065000000001 0.9842209297571 107.58445865995 0.1769180058351 17.567179187846 0.1769180058351 17.567179187846 0.9842209395984 107.54804782583
8.615070000000001 0.9842208892261 107.58440958280 0.1769182279588 17.567130022287 0.1769182279588 17.567130022287 0.9842208990863 107.54799895234
8.615075000000001 0.9842208486663 107.58436049657 0.1769184502360 17.567080847421 0.1769184502360 17.567080847421 0.9842208585454 107.54795007005
8.615080000000001 0.9842208080777 107.58431140125 0.1769186726667 17.567031663250 0.1769186726667 17.567031663250 0.9842208179757 107.54790117897
8.615085000000001 0.9842207674601 107.58426229679 0.1769188952517 17.566982469720 0.1769188952517 17.566982469720 0.9842207773771 107.54785227906
8.615090000000000 0.9842207268135 107.58421318319 0.1769191179912 17.566933266827 0.1769191179912 17.566933266827 0.9842207367496 107.54780337030
8.615095000000000 0.9842206861380 107.58416406043 0.1769193408852 17.566884054559 0.1769193408852 17.566884054559 0.9842206960931 107.54775445270
8.615100000000000 0.9842206454333 107.58411492850 0.1769195639344 17.566834832887 0.1769195639344 17.566834832887 0.9842206554075 107.54770552621
8.615105000000000 0.9842206046995 107.58406578737 0.1769197871388 17.566785601799 0.1769197871388 17.566785601799 0.9842206146928 107.54765659083
8.615110000000001 0.9842205639365 107.58401663704 0.1769200104987 17.566736361283 0.1769200104987 17.566736361283 0.9842205739490 107.54760764655
8.615115000000001 0.9842205231442 107.58396747747 0.1769202340147 17.566687111302 0.1769202340147 17.566687111302 0.9842205331760 107.54755869333
8.615120000000001 0.9842204823226 107.58391830866 0.1769204576868 17.566637851853 0.1769204576868 17.566637851853 0.9842204923737 107.54750973117
8.615125000000001 0.9842204414717 107.58386913057 0.1769206815156 17.566588582903 0.1769206815156 17.566588582903 0.9842204515420 107.54746076005
8.615130000000001 0.9842204005913 107.58381994320 0.1769209055012 17.566539304444 0.1769209055012 17.566539304444 0.9842204106809 107.54741177994
8.615135000000000 0.9842203596814 107.58377074654 0.1769211296438 17.566490016457 0.1769211296438 17.566490016457 0.9842203697904 107.54736279084
8.615140000000000 0.9842203187419 107.58372154053 0.1769213539442 17.566440718909 0.1769213539442 17.566440718909 0.9842203288703 107.54731379271
8.615145000000000 0.9842202777729 107.58367232521 0.1769215784019 17.566391411812 0.1769215784019 17.566391411812 0.9842202879207 107.54726478558
8.615150000000000 0.9842202367741 107.58362310051 0.1769218030183 17.566342095099 0.1769218030183 17.566342095099 0.9842202469414 107.54721576935
8.615155000000000 0.9842201957456 107.58357386644 0.1769220277927 17.566292768796 0.1769220277927 17.566292768796 0.9842202059325 107.54716674408
8.615160000000001 0.9842201546874 107.58352462297 0.1769222527259 17.566243432861 0.1769222527259 17.566243432861 0.9842201648938 107.54711770972
8.615165000000001 0.9842201135992 107.58347537008 0.1769224778183 17.566194087269 0.1769224778183 17.566194087269 0.9842201238252 107.54706866624
8.615170000000001 0.9842200724812 107.58342610777 0.1769227030699 17.566144732019 0.1769227030699 17.566144732019 0.9842200827268 107.54701961365
8.615175000000001 0.9842200313331 107.58337683599 0.1769229284813 17.566095367081 0.1769229284813 17.566095367081 0.9842200415985 107.54697055190
8.615180000000001 0.9842199901551 107.58332755475 0.1769231540527 17.566045992435 0.1769231540527 17.566045992435 0.9842200004401 107.54692148100
8.615185000000000 0.9842199489469 107.58327826402 0.1769233797843 17.565996608072 0.1769233797843 17.565996608072 0.9842199592517 107.54687240093
8.615190000000000 0.9842199077086 107.58322896377 0.1769236056767 17.565947213951 0.1769236056767 17.565947213951 0.9842199180332 107.54682331164
8.615195000000000 0.9842198664401 107.58317965400 0.1769238317299 17.565897810077 0.1769238317299 17.565897810077 0.9842198767845 107.54677421315
8.615200000000000 0.9842198251413 107.58313033468 0.1769240579444 17.565848396416 0.1769240579444 17.565848396416 0.9842198355056 107.54672510542
8.615205000000001 0.9842197838121 107.58308100580 0.1769242843205 17.565798972949 0.1769242843205 17.565798972949 0.9842197941963 107.54667598844
8.615210000000001 0.9842197424526 107.58303166732 0.1769245108587 17.565749539656 0.1769245108587 17.565749539656 0.9842197528567 107.54662686218
8.615215000000001 0.9842197010626 107.58298231925 0.1769247375590 17.565700096520 0.1769247375590 17.565700096520 0.9842197114867 107.54657772664
8.615220000000001 0.9842196596420 107.58293296155 0.1769249644219 17.565650643520 0.1769249644219 17.565650643520 0.9842196700862 107.54652858179
8.615225000000001 0.9842196181909 107.58288359420 0.1769251914478 17.565601180631 0.1769251914478 17.565601180631 0.9842196286551 107.54647942761
8.615230000000000 0.9842195767091 107.58283421719 0.1769254186369 17.565551707838 0.1769254186369 17.565551707838 0.9842195871934 107.54643026408
8.615235000000000 0.9842195351966 107.58278483049 0.1769256459895 17.565502225119 0.1769256459895 17.565502225119 0.9842195457011 107.54638109119
8.615240000000000 0.9842194936533 107.58273543409 0.1769258735062 17.565452732454 0.1769258735062 17.565452732454 0.9842195041780 107.54633190890
8.615245000000000 0.9842194520792 107.58268602798 0.1769261011868 17.565403229836 0.1769261011868 17.565403229836 0.9842194626241 107.54628271723
8.615250000000001 0.9842194104741 107.58263661212 0.1769263290323 17.565353717212 0.1769263290323 17.565353717212 0.9842194210393 107.54623351612
8.615255000000001 0.9842193688382 107.58258718650 0.1769265570426 17.565304194593 0.1769265570426 17.565304194593 0.9842193794237 107.54618430557
8.615260000000001 0.9842193271711 107.58253775110 0.1769267852180 17.565254661947 0.1769267852180 17.565254661947 0.9842193377770 107.54613508557
8.615265000000001 0.9842192854731 107.58248830591 0.1769270135588 17.565205119268 0.1769270135588 17.565205119268 0.9842192960993 107.54608585610
8.615270000000001 0.9842192437437 107.58243885087 0.1769272420659 17.565155566490 0.1769272420659 17.565155566490 0.9842192543904 107.54603661710
8.615275000000000 0.9842192019833 107.58238938603 0.1769274707388 17.565106003656 0.1769274707388 17.565106003656 0.9842192126505 107.54598736862
8.615280000000000 0.9842191601915 107.58233991130 0.1769276995785 17.565056430697 0.1769276995785 17.565056430697 0.9842191708792 107.54593811058
8.615285000000000 0.9842191183684 107.58229042670 0.1769279285851 17.565006847605 0.1769279285851 17.565006847605 0.9842191290766 107.54588884299
8.615290000000000 0.9842190765139 107.58224093220 0.1769281577589 17.564957254368 0.1769281577589 17.564957254368 0.9842190872427 107.54583956582
8.615295000000000 0.9842190346279 107.58219142778 0.1769283871003 17.564907650955 0.1769283871003 17.564907650955 0.9842190453773 107.54579027906
8.615300000000001 0.9842189927103 107.58214191340 0.1769286166097 17.564858037344 0.1769286166097 17.564858037344 0.9842190034804 107.54574098268
8.615305000000001 0.9842189507611 107.58209238909 0.1769288462872 17.564808413537 0.1769288462872 17.564808413537 0.9842189615520 107.54569167667
8.615310000000001 0.9842189087804 107.58204285480 0.1769290761331 17.564758779501 0.1769290761331 17.564758779501 0.9842189195920 107.54564236102
8.615315000000001 0.9842188667678 107.58199331050 0.1769293061481 17.564709135201 0.1769293061481 17.564709135201 0.9842188776002 107.54559303570
8.615320000000001 0.9842188247234 107.58194375617 0.1769295363326 17.564659480615 0.1769295363326 17.564659480615 0.9842188355767 107.54554370066
8.615325000000000 0.9842187826472 107.58189419181 0.1769297666866 17.564609815734 0.1769297666866 17.564609815734 0.9842187935214 107.54549435592
8.615330000000000 0.9842187405390 107.58184461739 0.1769299972104 17.564560140544 0.1769299972104 17.564560140544 0.9842187514341 107.54544500145
8.615335000000000 0.9842186983989 107.58179503288 0.1769302279046 17.564510455010 0.1769302279046 17.564510455010 0.9842187093150 107.54539563723
8.615340000000000 0.9842186562266 107.58174543827 0.1769304587695 17.564460759114 0.1769304587695 17.564460759114 0.9842186671638 107.54534626324
8.615345000000001 0.9842186140223 107.58169583352 0.1769306898056 17.564411052827 0.1769306898056 17.564411052827 0.9842186249804 107.54529687944
8.615350000000001 0.9842185717857 107.58164621865 0.1769309210128 17.564361336147 0.1769309210128 17.564361336147 0.9842185827650 107.54524748585
8.615355000000001 0.9842185295169 107.58159659360 0.1769311523919 17.564311609034 0.1769311523919 17.564311609034 0.9842185405173 107.54519808242
8.615360000000001 0.9842184872157 107.58154695837 0.1769313839429 17.564261871478 0.1769313839429 17.564261871478 0.9842184982373 107.54514866914
8.615365000000001 0.9842184448821 107.58149731293 0.1769316156665 17.564212123442 0.1769316156665 17.564212123442 0.9842184559250 107.54509924598
8.615370000000000 0.9842184025161 107.58144765727 0.1769318475627 17.564162364930 0.1769318475627 17.564162364930 0.9842184135802 107.54504981294
8.615375000000000 0.9842183601176 107.58139799135 0.1769320796322 17.564112595893 0.1769320796322 17.564112595893 0.9842183712030 107.54500036997
8.615380000000000 0.9842183176864 107.58134831517 0.1769323118750 17.564062816331 0.1769323118750 17.564062816331 0.9842183287932 107.54495091708
8.615385000000000 0.9842182752226 107.58129862870 0.1769325442916 17.564013026217 0.1769325442916 17.564013026217 0.9842182863508 107.54490145425
8.615390000000000 0.9842182327260 107.58124893191 0.1769327768826 17.563963225511 0.1769327768826 17.563963225511 0.9842182438757 107.54485198142
8.615395000000001 0.9842181901966 107.58119922479 0.1769330096481 17.563913414208 0.1769330096481 17.563913414208 0.9842182013678 107.54480249861
8.615400000000001 0.9842181476344 107.58114950733 0.1769332425882 17.563863592298 0.1769332425882 17.563863592298 0.9842181588271 107.54475300579
8.615405000000001 0.9842181050393 107.58109977948 0.1769334757039 17.563813759731 0.1769334757039 17.563813759731 0.9842181162535 107.54470350293
8.615410000000001 0.9842180624111 107.58105004123 0.1769337089951 17.563763916495 0.1769337089951 17.563763916495 0.9842180736469 107.54465399001
8.615415000000000 0.9842180197498 107.58100029258 0.1769339424623 17.563714062577 0.1769339424623 17.563714062577 0.9842180310073 107.54460446702
8.615420000000000 0.9842179770554 107.58095053347 0.1769341761059 17.563664197941 0.1769341761059 17.563664197941 0.9842179883346 107.54455493393
8.615425000000000 0.9842179343277 107.58090076391 0.1769344099261 17.563614322575 0.1769344099261 17.563614322575 0.9842179456287 107.54450539072
8.615430000000000 0.9842178915668 107.58085098386 0.1769346439235 17.563564436452 0.1769346439235 17.563564436452 0.9842179028896 107.54445583737
8.615435000000000 0.9842178487725 107.58080119331 0.1769348780983 17.563514539554 0.1769348780983 17.563514539554 0.9842178601172 107.54440627386
8.615440000000001 0.9842178059448 107.58075139222 0.1769351124511 17.563464631836 0.1769351124511 17.563464631836 0.9842178173113 107.54435670016
8.615445000000001 0.9842177630836 107.58070158060 0.1769353469819 17.563414713313 0.1769353469819 17.563414713313 0.9842177744720 107.54430711627
8.615450000000001 0.9842177201888 107.58065175841 0.1769355816912 17.563364783944 0.1769355816912 17.563364783944 0.9842177315993 107.54425752217
8.615455000000001 0.9842176772604 107.58060192562 0.1769358165795 17.563314843699 0.1769358165795 17.563314843699 0.9842176886929 107.54420791780
8.615460000000001 0.9842176342983 107.58055208223 0.1769360516470 17.563264892567 0.1769360516470 17.563264892567 0.9842176457528 107.54415830318
8.615465000000000 0.9842175913023 107.58050222819 0.1769362868943 17.563214930513 0.1769362868943 17.563214930513 0.9842176027790 107.54410867827
8.615470000000000 0.9842175482726 107.58045236350 0.1769365223215 17.563164957532 0.1769365223215 17.563164957532 0.9842175597714 107.54405904305
8.615475000000000 0.9842175052089 107.58040248813 0.1769367579292 17.563114973584 0.1769367579292 17.563114973584 0.9842175167300 107.54400939750
8.615480000000000 0.9842174621112 107.58035260204 0.1769369937178 17.563064978638 0.1769369937178 17.563064978638 0.9842174736545 107.54395974159
8.615485000000001 0.9842174189795 107.58030270524 0.1769372296874 17.563014972701 0.1769372296874 17.563014972701 0.9842174305451 107.54391007532
8.615490000000001 0.9842173758136 107.58025279771 0.1769374658385 17.562964955735 0.1769374658385 17.562964955735 0.9842173874016 107.54386039866
8.615495000000001 0.9842173326136 107.58020287938 0.1769377021717 17.562914927705 0.1769377021717 17.562914927705 0.9842173442239 107.54381071157
8.615500000000001 0.9842172893792 107.58015295028 0.1769379386870 17.562864888604 0.1769379386870 17.562864888604 0.9842173010120 107.54376101405
8.615505000000001 0.9842172461104 107.58010301035 0.1769381753852 17.562814838391 0.1769381753852 17.562814838391 0.9842172577657 107.54371130606
8.615510000000000 0.9842172028073 107.58005305959 0.1769384122664 17.562764777062 0.1769384122664 17.562764777062 0.9842172144851 107.54366158760
8.615515000000000 0.9842171594696 107.58000309797 0.1769386493310 17.562714704584 0.1769386493310 17.562714704584 0.9842171711700 107.54361185863
8.615520000000000 0.9842171160974 107.57995312547 0.1769388865793 17.562664620945 0.1769388865793 17.562664620945 0.9842171278204 107.54356211914
8.615525000000000 0.9842170726906 107.57990314208 0.1769391240117 17.562614526111 0.1769391240118 17.562614526111 0.9842170844362 107.54351236911
8.615530000000000 0.9842170292490 107.57985314774 0.1769393616290 17.562564420046 0.1769393616290 17.562564420046 0.9842170410174 107.54346260850
8.615535000000001 0.9842169857726 107.57980314246 0.1769395994311 17.562514302748 0.1769395994311 17.562514302748 0.9842169975638 107.54341283730
8.615540000000001 0.9842169422613 107.57975312619 0.1769398374189 17.562464174164 0.1769398374189 17.562464174164 0.9842169540753 107.54336305548
8.615545000000001 0.9842168987152 107.57970309895 0.1769400755921 17.562414034314 0.1769400755921 17.562414034314 0.9842169105520 107.54331326304
8.615550000000001 0.9842168551340 107.57965306067 0.1769403139515 17.562363883138 0.1769403139515 17.562363883138 0.9842168669937 107.54326345993
8.615555000000001 0.9842168115177 107.57960301137 0.1769405524974 17.562313720633 0.1769405524974 17.562313720633 0.9842168234004 107.54321364615
8.615560000000000 0.9842167678662 107.57955295097 0.1769407912305 17.562263546743 0.1769407912305 17.562263546743 0.9842167797718 107.54316382165
8.615565000000000 0.9842167241795 107.57950287951 0.1769410301506 17.562213361494 0.1769410301506 17.562213361494 0.9842167361082 107.54311398644
8.615570000000000 0.9842166804575 107.57945279694 0.1769412692584 17.562163164828 0.1769412692584 17.562163164828 0.9842166924093 107.54306414048
8.615575000000000 0.9842166367001 107.57940270321 0.1769415085546 17.562112956712 0.1769415085546 17.562112956712 0.9842166486751 107.54301428374
8.615580000000001 0.9842165929072 107.57935259833 0.1769417480393 17.562062737140 0.1769417480393 17.562062737140 0.9842166049054 107.54296441621
8.615585000000001 0.9842165490788 107.57930248227 0.1769419877128 17.562012506085 0.1769419877128 17.562012506085 0.9842165611002 107.54291453786
8.615590000000001 0.9842165052148 107.57925235501 0.1769422275755 17.561962263535 0.1769422275755 17.561962263535 0.9842165172595 107.54286464869
8.615595000000001 0.9842164613151 107.57920221652 0.1769424676279 17.561912009443 0.1769424676279 17.561912009443 0.9842164733831 107.54281474865
8.615600000000001 0.9842164173795 107.57915206676 0.1769427078706 17.561861743784 0.1769427078706 17.561861743784 0.9842164294710 107.54276483771
8.615605000000000 0.9842163734082 107.57910190574 0.1769429483037 17.561811466551 0.1769429483037 17.561811466551 0.9842163855231 107.54271491588
8.615610000000000 0.9842163294009 107.57905173340 0.1769431889278 17.561761177699 0.1769431889278 17.561761177699 0.9842163415393 107.54266498310
8.615615000000000 0.9842162853576 107.57900154974 0.1769434297431 17.561710877223 0.1769434297431 17.561710877223 0.9842162975195 107.54261503938
8.615620000000000 0.9842162412783 107.57895135474 0.1769436707502 17.561660565093 0.1769436707502 17.561660565093 0.9842162534638 107.54256508468
8.615625000000001 0.9842161971628 107.57890114837 0.1769439119493 17.561610241275 0.1769439119493 17.561610241275 0.9842162093719 107.54251511898
8.615630000000001 0.9842161530110 107.57885093058 0.1769441533412 17.561559905741 0.1769441533412 17.561559905741 0.9842161652438 107.54246514225
8.615635000000001 0.9842161088230 107.57880070139 0.1769443949258 17.561509558487 0.1769443949258 17.561509558487 0.9842161210795 107.54241515448
8.615640000000001 0.9842160645986 107.57875046075 0.1769446367037 17.561459199479 0.1769446367037 17.561459199479 0.9842160768789 107.54236515565
8.615645000000001 0.9842160203376 107.57870020862 0.1769448786757 17.561408828660 0.1769448786757 17.561408828660 0.9842160326417 107.54231514569
8.615650000000000 0.9842159760401 107.57864994502 0.1769451208416 17.561358446056 0.1769451208416 17.561358446056 0.9842159883682 107.54226512464
8.615655000000000 0.9842159317060 107.57859966988 0.1769453632022 17.561308051610 0.1769453632022 17.561308051610 0.9842159440580 107.54221509245
8.615660000000000 0.9842158873352 107.57854938321 0.1769456057578 17.561257645297 0.1769456057578 17.561257645297 0.9842158997112 107.54216504908
8.615665000000000 0.9842158429277 107.57849908497 0.1769458485087 17.561207227119 0.1769458485087 17.561207227119 0.9842158553277 107.54211499454
8.615670000000000 0.9842157984832 107.57844877513 0.1769460914557 17.561156797005 0.1769460914557 17.561156797005 0.9842158109073 107.54206492876
8.615675000000001 0.9842157540017 107.57839845367 0.1769463345989 17.561106354956 0.1769463345989 17.561106354956 0.9842157664500 107.54201485175
8.615680000000001 0.9842157094833 107.57834812058 0.1769465779386 17.561055900958 0.1769465779386 17.561055900958 0.9842157219558 107.54196476349
8.615685000000001 0.9842156649278 107.57829777582 0.1769468214754 17.561005434968 0.1769468214754 17.561005434968 0.9842156774245 107.54191466395
8.615690000000001 0.9842156203351 107.57824741934 0.1769470652101 17.560954956944 0.1769470652101 17.560954956944 0.9842156328560 107.54186455308
8.615695000000001 0.9842155757051 107.57819705117 0.1769473091423 17.560904466899 0.1769473091423 17.560904466899 0.9842155882504 107.54181443089
8.615700000000000 0.9842155310378 107.57814667126 0.1769475532729 17.560853964782 0.1769475532729 17.560853964782 0.9842155436075 107.54176429735
8.615705000000000 0.9842154863330 107.57809627958 0.1769477976024 17.560803450581 0.1769477976024 17.560803450581 0.9842154989272 107.54171415242
8.615710000000000 0.9842154415907 107.57804587608 0.1769480421315 17.560752924223 0.1769480421315 17.560752924223 0.9842154542093 107.54166399606
8.615715000000000 0.9842153968108 107.57799546078 0.1769482868599 17.560702385745 0.1769482868599 17.560702385745 0.9842154094540 107.54161382829
8.615720000000001 0.9842153519933 107.57794503364 0.1769485317881 17.560651835102 0.1769485317881 17.560651835102 0.9842153646611 107.54156364907
8.615725000000001 0.9842153071380 107.57789459463 0.1769487769171 17.560601272252 0.1769487769171 17.560601272252 0.9842153198305 107.54151345837
8.615730000000001 0.9842152622448 107.57784414371 0.1769490222473 17.560550697158 0.1769490222473 17.560550697158 0.9842152749620 107.54146325614
8.615735000000001 0.9842152173138 107.57779368088 0.1769492677785 17.560500109832 0.1769492677785 17.560500109832 0.9842152300557 107.54141304240
8.615740000000001 0.9842151723447 107.57774320611 0.1769495135116 17.560449510218 0.1769495135116 17.560449510218 0.9842151851114 107.54136281710
8.615745000000000 0.9842151273375 107.57769271936 0.1769497594470 17.560398898298 0.1769497594470 17.560398898298 0.9842151401291 107.54131258023
8.615750000000000 0.9842150822922 107.57764222061 0.1769500055850 17.560348274049 0.1769500055850 17.560348274049 0.9842150951087 107.54126233174
8.615755000000000 0.9842150372086 107.57759170982 0.1769502519264 17.560297637423 0.1769502519264 17.560297637423 0.9842150500501 107.54121207162
8.615760000000000 0.9842149920867 107.57754118701 0.1769504984710 17.560246988425 0.1769504984710 17.560246988425 0.9842150049532 107.54116179986
8.615765000000000 0.9842149469263 107.57749065210 0.1769507452199 17.560196327004 0.1769507452199 17.560196327004 0.9842149598179 107.54111151640
8.615770000000001 0.9842149017274 107.57744010510 0.1769509921730 17.560145653145 0.1769509921730 17.560145653145 0.9842149146442 107.54106122125
8.615775000000001 0.9842148564900 107.57738954597 0.1769512393310 17.560094966822 0.1769512393310 17.560094966822 0.9842148694319 107.54101091437
8.615780000000001 0.9842148112139 107.57733897469 0.1769514866943 17.560044268001 0.1769514866943 17.560044268001 0.9842148241811 107.54096059573
8.615785000000001 0.9842147658990 107.57728839122 0.1769517342635 17.559993556652 0.1769517342635 17.559993556652 0.9842147788915 107.54091026531
8.615790000000001 0.9842147205452 107.57723779554 0.1769519820390 17.559942832746 0.1769519820390 17.559942832746 0.9842147335631 107.54085992307
8.615795000000000 0.9842146751525 107.57718718763 0.1769522300211 17.559892096260 0.1769522300211 17.559892096260 0.9842146881958 107.54080956900
8.615800000000000 0.9842146297208 107.57713656745 0.1769524782104 17.559841347167 0.1769524782104 17.559841347167 0.9842146427895 107.54075920307
8.615805000000000 0.9842145842500 107.57708593500 0.1769527266071 17.559790585442 0.1769527266071 17.559790585442 0.9842145973443 107.54070882527
8.615810000000000 0.9842145387400 107.57703529022 0.1769529752119 17.559739811055 0.1769529752119 17.559739811055 0.9842145518598 107.54065843555
8.615815000000001 0.9842144931908 107.57698463311 0.1769532240251 17.559689023977 0.1769532240251 17.559689023977 0.9842145063362 107.54060803389
8.615820000000001 0.9842144476021 107.57693396362 0.1769534730473 17.559638224177 0.1769534730473 17.559638224177 0.9842144607732 107.54055762027
8.615825000000001 0.9842144019740 107.57688328173 0.1769537222792 17.559587411615 0.1769537222792 17.559587411615 0.9842144151708 107.54050719465
8.615830000000001 0.9842143563064 107.57683258745 0.1769539717202 17.559536586318 0.1769539717202 17.559536586318 0.9842143695290 107.54045675705
8.615835000000001 0.9842143105991 107.57678188069 0.1769542213721 17.559485748177 0.1769542213721 17.559485748177 0.9842143238476 107.54040630737
8.615840000000000 0.9842142648521 107.57673116146 0.1769544712346 17.559434897220 0.1769544712346 17.559434897220 0.9842142781265 107.54035584564
8.615845000000000 0.9842142190654 107.57668042974 0.1769547213083 17.559384033408 0.1769547213083 17.559384033408 0.9842142323657 107.54030537182
8.615850000000000 0.9842141732386 107.57662968546 0.1769549715938 17.559333156685 0.1769549715938 17.559333156685 0.9842141865650 107.54025488586
8.615855000000000 0.9842141273719 107.57657892863 0.1769552220915 17.559282267052 0.1769552220915 17.559282267052 0.9842141407244 107.54020438777
8.615860000000001 0.9842140814652 107.57652815924 0.1769554728015 17.559231364490 0.1769554728015 17.559231364490 0.9842140948438 107.54015387751
8.615865000000001 0.9842140355184 107.57647737721 0.1769557237248 17.559180448944 0.1769557237248 17.559180448944 0.9842140489231 107.54010335504
8.615870000000001 0.9842139895312 107.57642658255 0.1769559748616 17.559129520387 0.1769559748616 17.559129520387 0.9842140029622 107.54005282034
8.615875000000001 0.9842139435038 107.57637577522 0.1769562262123 17.559078578808 0.1769562262123 17.559078578808 0.9842139569611 107.54000227340
8.615880000000001 0.9842138974358 107.57632495518 0.1769564777777 17.559027624152 0.1769564777777 17.559027624152 0.9842139109195 107.53995171417
8.615885000000000 0.9842138513274 107.57627412242 0.1769567295581 17.558976656402 0.1769567295581 17.558976656402 0.9842138648374 107.53990114263
8.615890000000000 0.9842138051784 107.57622327692 0.1769569815537 17.558925675547 0.1769569815537 17.558925675547 0.9842138187149 107.53985055876
8.615895000000000 0.9842137589886 107.57617241862 0.1769572337655 17.558874681525 0.1769572337655 17.558874681525 0.9842137725517 107.53979996251
8.615900000000000 0.9842137127580 107.57612154751 0.1769574861936 17.558823674331 0.1769574861936 17.558823674331 0.9842137263477 107.53974935389
8.615905000000000 0.9842136664866 107.57607066357 0.1769577388385 17.558772653924 0.1769577388385 17.558772653924 0.9842136801029 107.53969873284
8.615910000000001 0.9842136201742 107.57601976676 0.1769579917009 17.558721620278 0.1769579917009 17.558721620278 0.9842136338172 107.53964809935
8.615915000000001 0.9842135738208 107.57596885706 0.1769582447809 17.558670573374 0.1769582447809 17.558670573374 0.9842135874905 107.53959745339
8.615920000000001 0.9842135274261 107.57591793443 0.1769584980794 17.558619513160 0.1769584980794 17.558619513160 0.9842135411227 107.53954679493
8.615925000000001 0.9842134809902 107.57586699886 0.1769587515966 17.558568439621 0.1769587515966 17.558568439621 0.9842134947137 107.53949612395
8.615930000000001 0.9842134345130 107.57581605029 0.1769590053331 17.558517352720 0.1769590053331 17.558517352720 0.9842134482634 107.53944544040
8.615935000000000 0.9842133879943 107.57576508872 0.1769592592894 17.558466252432 0.1769592592894 17.558466252432 0.9842134017718 107.53939474427
8.615940000000000 0.9842133414341 107.57571411411 0.1769595134660 17.558415138728 0.1769595134660 17.558415138728 0.9842133552386 107.53934403553
8.615945000000000 0.9842132948323 107.57566312643 0.1769597678634 17.558364011567 0.1769597678634 17.558364011567 0.9842133086639 107.53929331415
8.615950000000000 0.9842132481887 107.57561212565 0.1769600224820 17.558312870929 0.1769600224820 17.558312870929 0.9842132620475 107.53924258010
8.615955000000001 0.9842132015034 107.57556111176 0.1769602773219 17.558261716802 0.1769602773219 17.558261716802 0.9842132153895 107.53919183337
8.615960000000001 0.9842131547761 107.57551008470 0.1769605323845 17.558210549113 0.1769605323845 17.558210549113 0.9842131686895 107.53914107390
8.615965000000001 0.9842131080069 107.57545904448 0.1769607876695 17.558159367871 0.1769607876695 17.558159367871 0.9842131219476 107.53909030170
8.615970000000001 0.9842130611955 107.57540799102 0.1769610431780 17.558108173011 0.1769610431780 17.558108173011 0.9842130751636 107.53903951670
8.615975000000001 0.9842130143419 107.57535692432 0.1769612989101 17.558056964521 0.1769612989101 17.558056964521 0.9842130283375 107.53898871889
8.615980000000000 0.9842129674461 107.57530584435 0.1769615548665 17.558005742371 0.1769615548665 17.558005742371 0.9842129814692 107.53893790825
8.615985000000000 0.9842129205078 107.57525475108 0.1769618110476 17.557954506521 0.1769618110476 17.557954506521 0.9842129345586 107.53888708473
8.615990000000000 0.9842128735271 107.57520364448 0.1769620674538 17.557903256955 0.1769620674538 17.557903256955 0.9842128876055 107.53883624834
8.615995000000000 0.9842128265038 107.57515252451 0.1769623240858 17.557851993629 0.1769623240858 17.557851993628 0.9842128406100 107.53878539900
8.616000000000000 0.9842127794379 107.57510139115 0.1769625809440 17.557800716514 0.1769625809440 17.557800716514 0.9842127935718 107.53873453672