! Sonnet Data File
! From: emgraph Version : 16.52
! From Project: transmon_brgOdd
! Data is De-embedded 
! Data File Written: 11/12/2017 17:05:33
!< HDATE 11/11/2017 22:57:51
!< MDATE 11/11/2017 22:57:51
!< PARAMS
!< Lj = 15.24
!< Gap = 6.0
!< Width = 10.0
!< Airgap = 6.0
!< Pwidth = 2000.0
!< Dist = 1800.0
!< END PARAMS
# GHZ S MA R 34.67000
8.78000000 0.997540 136.03 0.070065 46.026 0.070065 46.026 0.997540 136.02
!< P1 F=8.78 Eeff=(5.13743391 -5.7017e-5) Z0=(34.6430374 -9.7216e-5) R=0.0 C=0.0 
!< P2 F=8.78 Eeff=(5.13743391 -5.7017e-5) Z0=(34.6430374 -9.7216e-5) R=0.0 C=0.0 
8.78001000 0.997540 136.03 0.070065 46.026 0.070065 46.026 0.997540 136.02
8.78002000 0.997539 136.03 0.070066 46.026 0.070066 46.026 0.997540 136.02
8.78003000 0.997539 136.03 0.070067 46.025 0.070067 46.025 0.997539 136.02
8.78004000 0.997539 136.03 0.070068 46.025 0.070068 46.025 0.997539 136.02
8.78005000 0.997539 136.03 0.070069 46.025 0.070069 46.025 0.997539 136.02
8.78006000 0.997539 136.03 0.070069 46.025 0.070069 46.025 0.997539 136.02
8.78007000 0.997539 136.03 0.070070 46.025 0.070070 46.025 0.997539 136.02
8.78008000 0.997539 136.03 0.070071 46.025 0.070071 46.025 0.997539 136.02
8.78009000 0.997539 136.03 0.070072 46.025 0.070072 46.025 0.997539 136.02
8.78010000 0.997539 136.03 0.070073 46.025 0.070073 46.025 0.997539 136.02
8.78011000 0.997539 136.03 0.070073 46.025 0.070073 46.025 0.997539 136.02
8.78012000 0.997539 136.03 0.070074 46.025 0.070074 46.025 0.997539 136.02
8.78013000 0.997539 136.03 0.070075 46.025 0.070075 46.025 0.997539 136.02
8.78014000 0.997539 136.03 0.070076 46.024 0.070076 46.024 0.997539 136.02
8.78015000 0.997539 136.03 0.070076 46.024 0.070076 46.024 0.997539 136.02
8.78016000 0.997539 136.03 0.070077 46.024 0.070077 46.024 0.997539 136.02
8.78017000 0.997539 136.03 0.070078 46.024 0.070078 46.024 0.997539 136.02
8.78018000 0.997539 136.03 0.070079 46.024 0.070079 46.024 0.997539 136.02
8.78019000 0.997539 136.03 0.070080 46.024 0.070080 46.024 0.997539 136.02
8.78020000 0.997538 136.03 0.070080 46.024 0.070080 46.024 0.997538 136.02
8.78021000 0.997538 136.03 0.070081 46.024 0.070081 46.024 0.997538 136.02
8.78022000 0.997538 136.03 0.070082 46.024 0.070082 46.024 0.997538 136.02
8.78023000 0.997538 136.03 0.070083 46.024 0.070083 46.024 0.997538 136.02
8.78024000 0.997538 136.02 0.070084 46.024 0.070084 46.024 0.997538 136.02
8.78025000 0.997538 136.02 0.070084 46.023 0.070084 46.023 0.997538 136.02
8.78026000 0.997538 136.02 0.070085 46.023 0.070085 46.023 0.997538 136.02
8.78027000 0.997538 136.02 0.070086 46.023 0.070086 46.023 0.997538 136.02
8.78028000 0.997538 136.02 0.070087 46.023 0.070087 46.023 0.997538 136.02
8.78029000 0.997538 136.02 0.070088 46.023 0.070088 46.023 0.997538 136.02
8.78030000 0.997538 136.02 0.070088 46.023 0.070088 46.023 0.997538 136.02
8.78031000 0.997538 136.02 0.070089 46.023 0.070089 46.023 0.997538 136.02
8.78032000 0.997538 136.02 0.070090 46.023 0.070090 46.023 0.997538 136.02
8.78033000 0.997538 136.02 0.070091 46.023 0.070091 46.023 0.997538 136.02
8.78034000 0.997538 136.02 0.070092 46.023 0.070092 46.023 0.997538 136.02
8.78035000 0.997538 136.02 0.070092 46.023 0.070092 46.023 0.997538 136.02
8.78036000 0.997538 136.02 0.070093 46.022 0.070093 46.022 0.997538 136.02
8.78037000 0.997537 136.02 0.070094 46.022 0.070094 46.022 0.997538 136.02
8.78038000 0.997537 136.02 0.070095 46.022 0.070095 46.022 0.997537 136.02
8.78039000 0.997537 136.02 0.070096 46.022 0.070096 46.022 0.997537 136.02
8.78040000 0.997537 136.02 0.070097 46.022 0.070097 46.022 0.997537 136.02
8.78041000 0.997537 136.02 0.070097 46.022 0.070097 46.022 0.997537 136.02
8.78042000 0.997537 136.02 0.070098 46.022 0.070098 46.022 0.997537 136.02
8.78043000 0.997537 136.02 0.070099 46.022 0.070099 46.022 0.997537 136.02
8.78044000 0.997537 136.02 0.070100 46.022 0.070100 46.022 0.997537 136.02
8.78045000 0.997537 136.02 0.070101 46.022 0.070101 46.022 0.997537 136.02
8.78046000 0.997537 136.02 0.070101 46.021 0.070101 46.021 0.997537 136.02
8.78047000 0.997537 136.02 0.070102 46.021 0.070102 46.021 0.997537 136.02
8.78048000 0.997537 136.02 0.070103 46.021 0.070103 46.021 0.997537 136.02
8.78049000 0.997537 136.02 0.070104 46.021 0.070104 46.021 0.997537 136.02
8.78050000 0.997537 136.02 0.070105 46.021 0.070105 46.021 0.997537 136.02
8.78051000 0.997537 136.02 0.070105 46.021 0.070105 46.021 0.997537 136.02
8.78052000 0.997537 136.02 0.070106 46.021 0.070106 46.021 0.997537 136.02
8.78053000 0.997537 136.02 0.070107 46.021 0.070107 46.021 0.997537 136.02
8.78054000 0.997536 136.02 0.070108 46.021 0.070108 46.021 0.997537 136.02
8.78055000 0.997536 136.02 0.070109 46.021 0.070109 46.021 0.997536 136.02
8.78056000 0.997536 136.02 0.070110 46.021 0.070110 46.021 0.997536 136.02
8.78057000 0.997536 136.02 0.070110 46.020 0.070110 46.020 0.997536 136.02
8.78058000 0.997536 136.02 0.070111 46.020 0.070111 46.020 0.997536 136.02
8.78059000 0.997536 136.02 0.070112 46.020 0.070112 46.020 0.997536 136.02
8.78060000 0.997536 136.02 0.070113 46.020 0.070113 46.020 0.997536 136.02
8.78061000 0.997536 136.02 0.070114 46.020 0.070114 46.020 0.997536 136.02
8.78062000 0.997536 136.02 0.070115 46.020 0.070115 46.020 0.997536 136.02
8.78063000 0.997536 136.02 0.070115 46.020 0.070115 46.020 0.997536 136.02
8.78064000 0.997536 136.02 0.070116 46.020 0.070116 46.020 0.997536 136.02
8.78065000 0.997536 136.02 0.070117 46.020 0.070117 46.020 0.997536 136.02
8.78066000 0.997536 136.02 0.070118 46.020 0.070118 46.020 0.997536 136.02
8.78067000 0.997536 136.02 0.070119 46.020 0.070119 46.020 0.997536 136.02
8.78068000 0.997536 136.02 0.070120 46.019 0.070120 46.019 0.997536 136.02
8.78069000 0.997536 136.02 0.070120 46.019 0.070120 46.019 0.997536 136.02
8.78070000 0.997536 136.02 0.070121 46.019 0.070121 46.019 0.997536 136.02
8.78071000 0.997535 136.02 0.070122 46.019 0.070122 46.019 0.997535 136.02
8.78072000 0.997535 136.02 0.070123 46.019 0.070123 46.019 0.997535 136.02
8.78073000 0.997535 136.02 0.070124 46.019 0.070124 46.019 0.997535 136.02
8.78074000 0.997535 136.02 0.070125 46.019 0.070125 46.019 0.997535 136.02
8.78075000 0.997535 136.02 0.070125 46.019 0.070125 46.019 0.997535 136.02
8.78076000 0.997535 136.02 0.070126 46.019 0.070126 46.019 0.997535 136.02
8.78077000 0.997535 136.02 0.070127 46.019 0.070127 46.019 0.997535 136.02
8.78078000 0.997535 136.02 0.070128 46.018 0.070128 46.018 0.997535 136.02
8.78079000 0.997535 136.02 0.070129 46.018 0.070129 46.018 0.997535 136.02
8.78080000 0.997535 136.02 0.070130 46.018 0.070130 46.018 0.997535 136.02
8.78081000 0.997535 136.02 0.070130 46.018 0.070130 46.018 0.997535 136.02
8.78082000 0.997535 136.02 0.070131 46.018 0.070131 46.018 0.997535 136.02
8.78083000 0.997535 136.02 0.070132 46.018 0.070132 46.018 0.997535 136.02
8.78084000 0.997535 136.02 0.070133 46.018 0.070133 46.018 0.997535 136.02
8.78085000 0.997535 136.02 0.070134 46.018 0.070134 46.018 0.997535 136.02
8.78086000 0.997535 136.02 0.070135 46.018 0.070135 46.018 0.997535 136.02
8.78087000 0.997535 136.02 0.070135 46.018 0.070135 46.018 0.997535 136.02
8.78088000 0.997534 136.02 0.070136 46.018 0.070136 46.018 0.997534 136.02
8.78089000 0.997534 136.02 0.070137 46.017 0.070137 46.017 0.997534 136.02
8.78090000 0.997534 136.02 0.070138 46.017 0.070138 46.017 0.997534 136.02
8.78091000 0.997534 136.02 0.070139 46.017 0.070139 46.017 0.997534 136.02
8.78092000 0.997534 136.02 0.070140 46.017 0.070140 46.017 0.997534 136.02
8.78093000 0.997534 136.02 0.070141 46.017 0.070141 46.017 0.997534 136.02
8.78094000 0.997534 136.02 0.070141 46.017 0.070141 46.017 0.997534 136.02
8.78095000 0.997534 136.02 0.070142 46.017 0.070142 46.017 0.997534 136.01
8.78096000 0.997534 136.02 0.070143 46.017 0.070143 46.017 0.997534 136.01
8.78097000 0.997534 136.02 0.070144 46.017 0.070144 46.017 0.997534 136.01
8.78098000 0.997534 136.02 0.070145 46.017 0.070145 46.017 0.997534 136.01
8.78099000 0.997534 136.02 0.070146 46.016 0.070146 46.016 0.997534 136.01
8.78100000 0.997534 136.02 0.070147 46.016 0.070147 46.016 0.997534 136.01
8.78101000 0.997534 136.02 0.070147 46.016 0.070147 46.016 0.997534 136.01
8.78102000 0.997534 136.02 0.070148 46.016 0.070148 46.016 0.997534 136.01
8.78103000 0.997534 136.02 0.070149 46.016 0.070149 46.016 0.997534 136.01
8.78104000 0.997533 136.02 0.070150 46.016 0.070150 46.016 0.997533 136.01
8.78105000 0.997533 136.02 0.070151 46.016 0.070151 46.016 0.997533 136.01
8.78106000 0.997533 136.02 0.070152 46.016 0.070152 46.016 0.997533 136.01
8.78107000 0.997533 136.02 0.070153 46.016 0.070153 46.016 0.997533 136.01
8.78108000 0.997533 136.02 0.070153 46.016 0.070153 46.016 0.997533 136.01
8.78109000 0.997533 136.02 0.070154 46.016 0.070154 46.016 0.997533 136.01
8.78110000 0.997533 136.02 0.070155 46.015 0.070155 46.015 0.997533 136.01
8.78111000 0.997533 136.02 0.070156 46.015 0.070156 46.015 0.997533 136.01
8.78112000 0.997533 136.02 0.070157 46.015 0.070157 46.015 0.997533 136.01
8.78113000 0.997533 136.02 0.070158 46.015 0.070158 46.015 0.997533 136.01
8.78114000 0.997533 136.02 0.070159 46.015 0.070159 46.015 0.997533 136.01
8.78115000 0.997533 136.02 0.070160 46.015 0.070160 46.015 0.997533 136.01
8.78116000 0.997533 136.02 0.070160 46.015 0.070160 46.015 0.997533 136.01
8.78117000 0.997533 136.02 0.070161 46.015 0.070161 46.015 0.997533 136.01
8.78118000 0.997533 136.02 0.070162 46.015 0.070162 46.015 0.997533 136.01
8.78119000 0.997533 136.02 0.070163 46.015 0.070163 46.015 0.997533 136.01
8.78120000 0.997532 136.02 0.070164 46.014 0.070164 46.014 0.997532 136.01
8.78121000 0.997532 136.02 0.070165 46.014 0.070165 46.014 0.997532 136.01
8.78122000 0.997532 136.02 0.070166 46.014 0.070166 46.014 0.997532 136.01
8.78123000 0.997532 136.02 0.070166 46.014 0.070166 46.014 0.997532 136.01
8.78124000 0.997532 136.02 0.070167 46.014 0.070167 46.014 0.997532 136.01
8.78125000 0.997532 136.02 0.070168 46.014 0.070168 46.014 0.997532 136.01
8.78126000 0.997532 136.02 0.070169 46.014 0.070169 46.014 0.997532 136.01
8.78127000 0.997532 136.02 0.070170 46.014 0.070170 46.014 0.997532 136.01
8.78128000 0.997532 136.02 0.070171 46.014 0.070171 46.014 0.997532 136.01
8.78129000 0.997532 136.02 0.070172 46.014 0.070172 46.014 0.997532 136.01
8.78130000 0.997532 136.02 0.070173 46.013 0.070173 46.013 0.997532 136.01
8.78131000 0.997532 136.01 0.070174 46.013 0.070174 46.013 0.997532 136.01
8.78132000 0.997532 136.01 0.070174 46.013 0.070174 46.013 0.997532 136.01
8.78133000 0.997532 136.01 0.070175 46.013 0.070175 46.013 0.997532 136.01
8.78134000 0.997532 136.01 0.070176 46.013 0.070176 46.013 0.997532 136.01
8.78135000 0.997532 136.01 0.070177 46.013 0.070177 46.013 0.997532 136.01
8.78136000 0.997531 136.01 0.070178 46.013 0.070178 46.013 0.997531 136.01
8.78137000 0.997531 136.01 0.070179 46.013 0.070179 46.013 0.997531 136.01
8.78138000 0.997531 136.01 0.070180 46.013 0.070180 46.013 0.997531 136.01
8.78139000 0.997531 136.01 0.070181 46.013 0.070181 46.013 0.997531 136.01
8.78140000 0.997531 136.01 0.070182 46.013 0.070182 46.013 0.997531 136.01
8.78141000 0.997531 136.01 0.070182 46.012 0.070182 46.012 0.997531 136.01
8.78142000 0.997531 136.01 0.070183 46.012 0.070183 46.012 0.997531 136.01
8.78143000 0.997531 136.01 0.070184 46.012 0.070184 46.012 0.997531 136.01
8.78144000 0.997531 136.01 0.070185 46.012 0.070185 46.012 0.997531 136.01
8.78145000 0.997531 136.01 0.070186 46.012 0.070186 46.012 0.997531 136.01
8.78146000 0.997531 136.01 0.070187 46.012 0.070187 46.012 0.997531 136.01
8.78147000 0.997531 136.01 0.070188 46.012 0.070188 46.012 0.997531 136.01
8.78148000 0.997531 136.01 0.070189 46.012 0.070189 46.012 0.997531 136.01
8.78149000 0.997531 136.01 0.070190 46.012 0.070190 46.012 0.997531 136.01
8.78150000 0.997531 136.01 0.070190 46.012 0.070190 46.012 0.997531 136.01
8.78151000 0.997530 136.01 0.070191 46.011 0.070191 46.011 0.997531 136.01
8.78152000 0.997530 136.01 0.070192 46.011 0.070192 46.011 0.997530 136.01
8.78153000 0.997530 136.01 0.070193 46.011 0.070193 46.011 0.997530 136.01
8.78154000 0.997530 136.01 0.070194 46.011 0.070194 46.011 0.997530 136.01
8.78155000 0.997530 136.01 0.070195 46.011 0.070195 46.011 0.997530 136.01
8.78156000 0.997530 136.01 0.070196 46.011 0.070196 46.011 0.997530 136.01
8.78157000 0.997530 136.01 0.070197 46.011 0.070197 46.011 0.997530 136.01
8.78158000 0.997530 136.01 0.070198 46.011 0.070198 46.011 0.997530 136.01
8.78159000 0.997530 136.01 0.070199 46.011 0.070199 46.011 0.997530 136.01
8.78160000 0.997530 136.01 0.070200 46.011 0.070200 46.011 0.997530 136.01
8.78161000 0.997530 136.01 0.070200 46.010 0.070200 46.010 0.997530 136.01
8.78162000 0.997530 136.01 0.070201 46.010 0.070201 46.010 0.997530 136.01
8.78163000 0.997530 136.01 0.070202 46.010 0.070202 46.010 0.997530 136.01
8.78164000 0.997530 136.01 0.070203 46.010 0.070203 46.010 0.997530 136.01
8.78165000 0.997530 136.01 0.070204 46.010 0.070204 46.010 0.997530 136.01
8.78166000 0.997530 136.01 0.070205 46.010 0.070205 46.010 0.997530 136.01
8.78167000 0.997529 136.01 0.070206 46.010 0.070206 46.010 0.997529 136.01
8.78168000 0.997529 136.01 0.070207 46.010 0.070207 46.010 0.997529 136.01
8.78169000 0.997529 136.01 0.070208 46.010 0.070208 46.010 0.997529 136.01
8.78170000 0.997529 136.01 0.070209 46.010 0.070209 46.010 0.997529 136.01
8.78171000 0.997529 136.01 0.070210 46.009 0.070210 46.009 0.997529 136.01
8.78172000 0.997529 136.01 0.070210 46.009 0.070210 46.009 0.997529 136.01
8.78173000 0.997529 136.01 0.070211 46.009 0.070211 46.009 0.997529 136.01
8.78174000 0.997529 136.01 0.070212 46.009 0.070212 46.009 0.997529 136.01
8.78175000 0.997529 136.01 0.070213 46.009 0.070213 46.009 0.997529 136.01
8.78176000 0.997529 136.01 0.070214 46.009 0.070214 46.009 0.997529 136.01
8.78177000 0.997529 136.01 0.070215 46.009 0.070215 46.009 0.997529 136.01
8.78178000 0.997529 136.01 0.070216 46.009 0.070216 46.009 0.997529 136.01
8.78179000 0.997529 136.01 0.070217 46.009 0.070217 46.009 0.997529 136.01
8.78180000 0.997529 136.01 0.070218 46.009 0.070218 46.009 0.997529 136.01
8.78181000 0.997529 136.01 0.070219 46.008 0.070219 46.008 0.997529 136.01
8.78182000 0.997528 136.01 0.070220 46.008 0.070220 46.008 0.997528 136.01
8.78183000 0.997528 136.01 0.070221 46.008 0.070221 46.008 0.997528 136.01
8.78184000 0.997528 136.01 0.070222 46.008 0.070222 46.008 0.997528 136.01
8.78185000 0.997528 136.01 0.070223 46.008 0.070223 46.008 0.997528 136.01
8.78186000 0.997528 136.01 0.070223 46.008 0.070223 46.008 0.997528 136.01
8.78187000 0.997528 136.01 0.070224 46.008 0.070224 46.008 0.997528 136.01
8.78188000 0.997528 136.01 0.070225 46.008 0.070225 46.008 0.997528 136.01
8.78189000 0.997528 136.01 0.070226 46.008 0.070226 46.008 0.997528 136.01
8.78190000 0.997528 136.01 0.070227 46.008 0.070227 46.008 0.997528 136.01
8.78191000 0.997528 136.01 0.070228 46.007 0.070228 46.007 0.997528 136.01
8.78192000 0.997528 136.01 0.070229 46.007 0.070229 46.007 0.997528 136.01
8.78193000 0.997528 136.01 0.070230 46.007 0.070230 46.007 0.997528 136.01
8.78194000 0.997528 136.01 0.070231 46.007 0.070231 46.007 0.997528 136.01
8.78195000 0.997528 136.01 0.070232 46.007 0.070232 46.007 0.997528 136.01
8.78196000 0.997528 136.01 0.070233 46.007 0.070233 46.007 0.997528 136.01
8.78197000 0.997527 136.01 0.070234 46.007 0.070234 46.007 0.997527 136.01
8.78198000 0.997527 136.01 0.070235 46.007 0.070235 46.007 0.997527 136.01
8.78199000 0.997527 136.01 0.070236 46.007 0.070236 46.007 0.997527 136.00
8.78200000 0.997527 136.01 0.070237 46.007 0.070237 46.007 0.997527 136.00
8.78201000 0.997527 136.01 0.070238 46.006 0.070238 46.006 0.997527 136.00
8.78202000 0.997527 136.01 0.070238 46.006 0.070238 46.006 0.997527 136.00
8.78203000 0.997527 136.01 0.070239 46.006 0.070239 46.006 0.997527 136.00
8.78204000 0.997527 136.01 0.070240 46.006 0.070240 46.006 0.997527 136.00
8.78205000 0.997527 136.01 0.070241 46.006 0.070241 46.006 0.997527 136.00
8.78206000 0.997527 136.01 0.070242 46.006 0.070242 46.006 0.997527 136.00
8.78207000 0.997527 136.01 0.070243 46.006 0.070243 46.006 0.997527 136.00
8.78208000 0.997527 136.01 0.070244 46.006 0.070244 46.006 0.997527 136.00
8.78209000 0.997527 136.01 0.070245 46.006 0.070245 46.006 0.997527 136.00
8.78210000 0.997527 136.01 0.070246 46.006 0.070246 46.006 0.997527 136.00
8.78211000 0.997526 136.01 0.070247 46.005 0.070247 46.005 0.997527 136.00
8.78212000 0.997526 136.01 0.070248 46.005 0.070248 46.005 0.997526 136.00
8.78213000 0.997526 136.01 0.070249 46.005 0.070249 46.005 0.997526 136.00
8.78214000 0.997526 136.01 0.070250 46.005 0.070250 46.005 0.997526 136.00
8.78215000 0.997526 136.01 0.070251 46.005 0.070251 46.005 0.997526 136.00
8.78216000 0.997526 136.01 0.070252 46.005 0.070252 46.005 0.997526 136.00
8.78217000 0.997526 136.01 0.070253 46.005 0.070253 46.005 0.997526 136.00
8.78218000 0.997526 136.01 0.070254 46.005 0.070254 46.005 0.997526 136.00
8.78219000 0.997526 136.01 0.070255 46.005 0.070255 46.005 0.997526 136.00
8.78220000 0.997526 136.01 0.070256 46.005 0.070256 46.005 0.997526 136.00
8.78221000 0.997526 136.01 0.070257 46.004 0.070257 46.004 0.997526 136.00
8.78222000 0.997526 136.01 0.070258 46.004 0.070258 46.004 0.997526 136.00
8.78223000 0.997526 136.01 0.070259 46.004 0.070259 46.004 0.997526 136.00
8.78224000 0.997526 136.01 0.070260 46.004 0.070260 46.004 0.997526 136.00
8.78225000 0.997526 136.01 0.070261 46.004 0.070261 46.004 0.997526 136.00
8.78226000 0.997525 136.01 0.070261 46.004 0.070261 46.004 0.997525 136.00
8.78227000 0.997525 136.01 0.070262 46.004 0.070262 46.004 0.997525 136.00
8.78228000 0.997525 136.01 0.070263 46.004 0.070263 46.004 0.997525 136.00
8.78229000 0.997525 136.01 0.070264 46.004 0.070264 46.004 0.997525 136.00
8.78230000 0.997525 136.01 0.070265 46.003 0.070265 46.003 0.997525 136.00
8.78231000 0.997525 136.01 0.070266 46.003 0.070266 46.003 0.997525 136.00
8.78232000 0.997525 136.00 0.070267 46.003 0.070267 46.003 0.997525 136.00
8.78233000 0.997525 136.00 0.070268 46.003 0.070268 46.003 0.997525 136.00
8.78234000 0.997525 136.00 0.070269 46.003 0.070269 46.003 0.997525 136.00
8.78235000 0.997525 136.00 0.070270 46.003 0.070270 46.003 0.997525 136.00
8.78236000 0.997525 136.00 0.070271 46.003 0.070271 46.003 0.997525 136.00
8.78237000 0.997525 136.00 0.070272 46.003 0.070272 46.003 0.997525 136.00
8.78238000 0.997525 136.00 0.070273 46.003 0.070273 46.003 0.997525 136.00
8.78239000 0.997525 136.00 0.070274 46.003 0.070274 46.003 0.997525 136.00
8.78240000 0.997524 136.00 0.070275 46.002 0.070275 46.002 0.997524 136.00
8.78241000 0.997524 136.00 0.070276 46.002 0.070276 46.002 0.997524 136.00
8.78242000 0.997524 136.00 0.070277 46.002 0.070277 46.002 0.997524 136.00
8.78243000 0.997524 136.00 0.070278 46.002 0.070278 46.002 0.997524 136.00
8.78244000 0.997524 136.00 0.070279 46.002 0.070279 46.002 0.997524 136.00
8.78245000 0.997524 136.00 0.070280 46.002 0.070280 46.002 0.997524 136.00
8.78246000 0.997524 136.00 0.070281 46.002 0.070281 46.002 0.997524 136.00
8.78247000 0.997524 136.00 0.070282 46.002 0.070282 46.002 0.997524 136.00
8.78248000 0.997524 136.00 0.070283 46.002 0.070283 46.002 0.997524 136.00
8.78249000 0.997524 136.00 0.070284 46.002 0.070284 46.002 0.997524 136.00
8.78250000 0.997524 136.00 0.070285 46.001 0.070285 46.001 0.997524 136.00
8.78251000 0.997524 136.00 0.070286 46.001 0.070286 46.001 0.997524 136.00
8.78252000 0.997524 136.00 0.070287 46.001 0.070287 46.001 0.997524 136.00
8.78253000 0.997524 136.00 0.070288 46.001 0.070288 46.001 0.997524 136.00
8.78254000 0.997523 136.00 0.070289 46.001 0.070289 46.001 0.997523 136.00
8.78255000 0.997523 136.00 0.070290 46.001 0.070290 46.001 0.997523 136.00
8.78256000 0.997523 136.00 0.070291 46.001 0.070291 46.001 0.997523 136.00
8.78257000 0.997523 136.00 0.070292 46.001 0.070292 46.001 0.997523 136.00
8.78258000 0.997523 136.00 0.070293 46.001 0.070293 46.001 0.997523 136.00
8.78259000 0.997523 136.00 0.070294 46.000 0.070294 46.000 0.997523 136.00
8.78260000 0.997523 136.00 0.070295 46.000 0.070295 46.000 0.997523 136.00
8.78261000 0.997523 136.00 0.070296 46.000 0.070296 46.000 0.997523 136.00
8.78262000 0.997523 136.00 0.070297 46.000 0.070297 46.000 0.997523 136.00
8.78263000 0.997523 136.00 0.070298 46.000 0.070298 46.000 0.997523 136.00
8.78264000 0.997523 136.00 0.070299 46.000 0.070299 46.000 0.997523 136.00
8.78265000 0.997523 136.00 0.070300 46.000 0.070300 46.000 0.997523 136.00
8.78266000 0.997523 136.00 0.070301 46.000 0.070301 46.000 0.997523 136.00
8.78267000 0.997523 136.00 0.070302 46.000 0.070302 46.000 0.997523 136.00
8.78268000 0.997522 136.00 0.070303 46.000 0.070303 46.000 0.997522 136.00
8.78269000 0.997522 136.00 0.070304 45.999 0.070304 45.999 0.997522 136.00
8.78270000 0.997522 136.00 0.070305 45.999 0.070305 45.999 0.997522 136.00
8.78271000 0.997522 136.00 0.070306 45.999 0.070306 45.999 0.997522 136.00
8.78272000 0.997522 136.00 0.070307 45.999 0.070307 45.999 0.997522 136.00
8.78273000 0.997522 136.00 0.070308 45.999 0.070308 45.999 0.997522 136.00
8.78274000 0.997522 136.00 0.070309 45.999 0.070309 45.999 0.997522 136.00
8.78275000 0.997522 136.00 0.070310 45.999 0.070310 45.999 0.997522 136.00
8.78276000 0.997522 136.00 0.070311 45.999 0.070311 45.999 0.997522 136.00
8.78277000 0.997522 136.00 0.070312 45.999 0.070312 45.999 0.997522 136.00
8.78278000 0.997522 136.00 0.070313 45.998 0.070313 45.998 0.997522 136.00
8.78279000 0.997522 136.00 0.070314 45.998 0.070314 45.998 0.997522 136.00
8.78280000 0.997522 136.00 0.070315 45.998 0.070315 45.998 0.997522 136.00
8.78281000 0.997521 136.00 0.070316 45.998 0.070316 45.998 0.997521 136.00
8.78282000 0.997521 136.00 0.070317 45.998 0.070317 45.998 0.997521 136.00
8.78283000 0.997521 136.00 0.070318 45.998 0.070318 45.998 0.997521 136.00
8.78284000 0.997521 136.00 0.070319 45.998 0.070319 45.998 0.997521 136.00
8.78285000 0.997521 136.00 0.070321 45.998 0.070321 45.998 0.997521 136.00
8.78286000 0.997521 136.00 0.070322 45.998 0.070322 45.998 0.997521 136.00
8.78287000 0.997521 136.00 0.070323 45.998 0.070323 45.998 0.997521 136.00
8.78288000 0.997521 136.00 0.070324 45.997 0.070324 45.997 0.997521 136.00
8.78289000 0.997521 136.00 0.070325 45.997 0.070325 45.997 0.997521 136.00
8.78290000 0.997521 136.00 0.070326 45.997 0.070326 45.997 0.997521 136.00
8.78291000 0.997521 136.00 0.070327 45.997 0.070327 45.997 0.997521 136.00
8.78292000 0.997521 136.00 0.070328 45.997 0.070328 45.997 0.997521 136.00
8.78293000 0.997521 136.00 0.070329 45.997 0.070329 45.997 0.997521 136.00
8.78294000 0.997521 136.00 0.070330 45.997 0.070330 45.997 0.997521 136.00
8.78295000 0.997520 136.00 0.070331 45.997 0.070331 45.997 0.997520 136.00
8.78296000 0.997520 136.00 0.070332 45.997 0.070332 45.997 0.997520 135.99
8.78297000 0.997520 136.00 0.070333 45.996 0.070333 45.996 0.997520 135.99
8.78298000 0.997520 136.00 0.070334 45.996 0.070334 45.996 0.997520 135.99
8.78299000 0.997520 136.00 0.070335 45.996 0.070335 45.996 0.997520 135.99
8.78300000 0.997520 136.00 0.070336 45.996 0.070336 45.996 0.997520 135.99
8.78301000 0.997520 136.00 0.070337 45.996 0.070337 45.996 0.997520 135.99
8.78302000 0.997520 136.00 0.070338 45.996 0.070338 45.996 0.997520 135.99
8.78303000 0.997520 136.00 0.070339 45.996 0.070339 45.996 0.997520 135.99
8.78304000 0.997520 136.00 0.070340 45.996 0.070340 45.996 0.997520 135.99
8.78305000 0.997520 136.00 0.070341 45.996 0.070341 45.996 0.997520 135.99
8.78306000 0.997520 136.00 0.070342 45.995 0.070342 45.995 0.997520 135.99
8.78307000 0.997520 136.00 0.070344 45.995 0.070344 45.995 0.997520 135.99
8.78308000 0.997519 136.00 0.070345 45.995 0.070345 45.995 0.997519 135.99
8.78309000 0.997519 136.00 0.070346 45.995 0.070346 45.995 0.997519 135.99
8.78310000 0.997519 136.00 0.070347 45.995 0.070347 45.995 0.997519 135.99
8.78311000 0.997519 136.00 0.070348 45.995 0.070348 45.995 0.997519 135.99
8.78312000 0.997519 136.00 0.070349 45.995 0.070349 45.995 0.997519 135.99
8.78313000 0.997519 136.00 0.070350 45.995 0.070350 45.995 0.997519 135.99
8.78314000 0.997519 136.00 0.070351 45.995 0.070351 45.995 0.997519 135.99
8.78315000 0.997519 136.00 0.070352 45.995 0.070352 45.995 0.997519 135.99
8.78316000 0.997519 136.00 0.070353 45.994 0.070353 45.994 0.997519 135.99
8.78317000 0.997519 136.00 0.070354 45.994 0.070354 45.994 0.997519 135.99
8.78318000 0.997519 136.00 0.070355 45.994 0.070355 45.994 0.997519 135.99
8.78319000 0.997519 136.00 0.070356 45.994 0.070356 45.994 0.997519 135.99
8.78320000 0.997519 136.00 0.070357 45.994 0.070357 45.994 0.997519 135.99
8.78321000 0.997518 136.00 0.070358 45.994 0.070358 45.994 0.997518 135.99
8.78322000 0.997518 136.00 0.070359 45.994 0.070359 45.994 0.997518 135.99
8.78323000 0.997518 136.00 0.070361 45.994 0.070361 45.994 0.997518 135.99
8.78324000 0.997518 136.00 0.070362 45.994 0.070362 45.994 0.997518 135.99
8.78325000 0.997518 136.00 0.070363 45.993 0.070363 45.993 0.997518 135.99
8.78326000 0.997518 136.00 0.070364 45.993 0.070364 45.993 0.997518 135.99
8.78327000 0.997518 135.99 0.070365 45.993 0.070365 45.993 0.997518 135.99
8.78328000 0.997518 135.99 0.070366 45.993 0.070366 45.993 0.997518 135.99
8.78329000 0.997518 135.99 0.070367 45.993 0.070367 45.993 0.997518 135.99
8.78330000 0.997518 135.99 0.070368 45.993 0.070368 45.993 0.997518 135.99
8.78331000 0.997518 135.99 0.070369 45.993 0.070369 45.993 0.997518 135.99
8.78332000 0.997518 135.99 0.070370 45.993 0.070370 45.993 0.997518 135.99
8.78333000 0.997518 135.99 0.070371 45.993 0.070371 45.993 0.997518 135.99
8.78334000 0.997517 135.99 0.070372 45.992 0.070372 45.992 0.997517 135.99
8.78335000 0.997517 135.99 0.070374 45.992 0.070374 45.992 0.997517 135.99
8.78336000 0.997517 135.99 0.070375 45.992 0.070375 45.992 0.997517 135.99
8.78337000 0.997517 135.99 0.070376 45.992 0.070376 45.992 0.997517 135.99
8.78338000 0.997517 135.99 0.070377 45.992 0.070377 45.992 0.997517 135.99
8.78339000 0.997517 135.99 0.070378 45.992 0.070378 45.992 0.997517 135.99
8.78340000 0.997517 135.99 0.070379 45.992 0.070379 45.992 0.997517 135.99
8.78341000 0.997517 135.99 0.070380 45.992 0.070380 45.992 0.997517 135.99
8.78342000 0.997517 135.99 0.070381 45.992 0.070381 45.992 0.997517 135.99
8.78343000 0.997517 135.99 0.070382 45.991 0.070382 45.991 0.997517 135.99
8.78344000 0.997517 135.99 0.070383 45.991 0.070383 45.991 0.997517 135.99
8.78345000 0.997517 135.99 0.070385 45.991 0.070385 45.991 0.997517 135.99
8.78346000 0.997516 135.99 0.070386 45.991 0.070386 45.991 0.997516 135.99
8.78347000 0.997516 135.99 0.070387 45.991 0.070387 45.991 0.997516 135.99
8.78348000 0.997516 135.99 0.070388 45.991 0.070388 45.991 0.997516 135.99
8.78349000 0.997516 135.99 0.070389 45.991 0.070389 45.991 0.997516 135.99
8.78350000 0.997516 135.99 0.070390 45.991 0.070390 45.991 0.997516 135.99
8.78351000 0.997516 135.99 0.070391 45.991 0.070391 45.991 0.997516 135.99
8.78352000 0.997516 135.99 0.070392 45.990 0.070392 45.990 0.997516 135.99
8.78353000 0.997516 135.99 0.070393 45.990 0.070393 45.990 0.997516 135.99
8.78354000 0.997516 135.99 0.070394 45.990 0.070394 45.990 0.997516 135.99
8.78355000 0.997516 135.99 0.070396 45.990 0.070396 45.990 0.997516 135.99
8.78356000 0.997516 135.99 0.070397 45.990 0.070397 45.990 0.997516 135.99
8.78357000 0.997516 135.99 0.070398 45.990 0.070398 45.990 0.997516 135.99
8.78358000 0.997516 135.99 0.070399 45.990 0.070399 45.990 0.997516 135.99
8.78359000 0.997515 135.99 0.070400 45.990 0.070400 45.990 0.997515 135.99
8.78360000 0.997515 135.99 0.070401 45.990 0.070401 45.990 0.997515 135.99
8.78361000 0.997515 135.99 0.070402 45.989 0.070402 45.989 0.997515 135.99
8.78362000 0.997515 135.99 0.070403 45.989 0.070403 45.989 0.997515 135.99
8.78363000 0.997515 135.99 0.070405 45.989 0.070405 45.989 0.997515 135.99
8.78364000 0.997515 135.99 0.070406 45.989 0.070406 45.989 0.997515 135.99
8.78365000 0.997515 135.99 0.070407 45.989 0.070407 45.989 0.997515 135.99
8.78366000 0.997515 135.99 0.070408 45.989 0.070408 45.989 0.997515 135.99
8.78367000 0.997515 135.99 0.070409 45.989 0.070409 45.989 0.997515 135.99
8.78368000 0.997515 135.99 0.070410 45.989 0.070410 45.989 0.997515 135.99
8.78369000 0.997515 135.99 0.070411 45.989 0.070411 45.989 0.997515 135.99
8.78370000 0.997515 135.99 0.070412 45.988 0.070412 45.988 0.997515 135.99
8.78371000 0.997514 135.99 0.070414 45.988 0.070414 45.988 0.997514 135.99
8.78372000 0.997514 135.99 0.070415 45.988 0.070415 45.988 0.997514 135.99
8.78373000 0.997514 135.99 0.070416 45.988 0.070416 45.988 0.997514 135.99
8.78374000 0.997514 135.99 0.070417 45.988 0.070417 45.988 0.997514 135.99
8.78375000 0.997514 135.99 0.070418 45.988 0.070418 45.988 0.997514 135.99
8.78376000 0.997514 135.99 0.070419 45.988 0.070419 45.988 0.997514 135.99
8.78377000 0.997514 135.99 0.070420 45.988 0.070420 45.988 0.997514 135.99
8.78378000 0.997514 135.99 0.070422 45.988 0.070422 45.988 0.997514 135.99
8.78379000 0.997514 135.99 0.070423 45.987 0.070423 45.987 0.997514 135.99
8.78380000 0.997514 135.99 0.070424 45.987 0.070424 45.987 0.997514 135.99
8.78381000 0.997514 135.99 0.070425 45.987 0.070425 45.987 0.997514 135.99
8.78382000 0.997514 135.99 0.070426 45.987 0.070426 45.987 0.997514 135.99
8.78383000 0.997513 135.99 0.070427 45.987 0.070427 45.987 0.997513 135.99
8.78384000 0.997513 135.99 0.070428 45.987 0.070428 45.987 0.997513 135.99
8.78385000 0.997513 135.99 0.070430 45.987 0.070430 45.987 0.997513 135.99
8.78386000 0.997513 135.99 0.070431 45.987 0.070431 45.987 0.997513 135.99
8.78387000 0.997513 135.99 0.070432 45.987 0.070432 45.987 0.997513 135.99
8.78388000 0.997513 135.99 0.070433 45.986 0.070433 45.986 0.997513 135.99
8.78389000 0.997513 135.99 0.070434 45.986 0.070434 45.986 0.997513 135.98
8.78390000 0.997513 135.99 0.070435 45.986 0.070435 45.986 0.997513 135.98
8.78391000 0.997513 135.99 0.070437 45.986 0.070437 45.986 0.997513 135.98
8.78392000 0.997513 135.99 0.070438 45.986 0.070438 45.986 0.997513 135.98