! Sonnet Data File
! From: emgraph Version : 16.52
! From Project: 171114transmon_trace_brg
! Data is De-embedded 
! Data File Written: 11/14/2017 17:46:15
!< HDATE 11/14/2017 14:11:39
!< MDATE 11/14/2017 14:11:39
!< PARAMS
!< Lj = 15.24
!< Gap = 14.0
!< Width = 10.0
!< Airgap = 6.0
!< Pwidth = 2000.0
!< Dist = 1200.0
!< END PARAMS
# GHZ S MA R 34.87000
8.61500000 0.993306 121.67 0.115485 31.682 0.115485 31.682 0.993306 121.69
!< P1 F=8.615 Eeff=(5.13377404 -5.6313e-5) Z0=(34.6595714 -9.1612e-5) R=0.0 C=0.0 
!< P2 F=8.615 Eeff=(5.13377404 -5.6313e-5) Z0=(34.6595714 -9.1612e-5) R=0.0 C=0.0 
8.61500500 0.993306 121.67 0.115485 31.682 0.115485 31.682 0.993306 121.69
8.61501000 0.993306 121.67 0.115486 31.682 0.115486 31.682 0.993306 121.69
8.61501500 0.993306 121.67 0.115486 31.682 0.115486 31.682 0.993306 121.69
8.61502000 0.993306 121.67 0.115486 31.682 0.115486 31.682 0.993306 121.69
8.61502500 0.993306 121.67 0.115486 31.682 0.115486 31.682 0.993306 121.69
8.61503000 0.993306 121.67 0.115486 31.682 0.115486 31.682 0.993306 121.69
8.61503500 0.993306 121.67 0.115487 31.682 0.115487 31.682 0.993306 121.69
8.61504000 0.993306 121.67 0.115487 31.682 0.115487 31.682 0.993306 121.69
8.61504500 0.993306 121.67 0.115487 31.682 0.115487 31.682 0.993306 121.69
8.61505000 0.993306 121.67 0.115487 31.682 0.115487 31.682 0.993306 121.69
8.61505500 0.993306 121.67 0.115487 31.682 0.115487 31.682 0.993306 121.69
8.61506000 0.993306 121.67 0.115488 31.682 0.115488 31.682 0.993306 121.69
8.61506500 0.993306 121.67 0.115488 31.682 0.115488 31.682 0.993306 121.69
8.61507000 0.993306 121.67 0.115488 31.682 0.115488 31.682 0.993306 121.69
8.61507500 0.993306 121.67 0.115488 31.682 0.115488 31.682 0.993306 121.69
8.61508000 0.993306 121.67 0.115488 31.681 0.115488 31.681 0.993306 121.69
8.61508500 0.993306 121.67 0.115488 31.681 0.115488 31.681 0.993306 121.69
8.61509000 0.993305 121.67 0.115489 31.681 0.115489 31.681 0.993305 121.69
8.61509500 0.993305 121.67 0.115489 31.681 0.115489 31.681 0.993305 121.69
8.61510000 0.993305 121.67 0.115489 31.681 0.115489 31.681 0.993305 121.69
8.61510500 0.993305 121.67 0.115489 31.681 0.115489 31.681 0.993305 121.69
8.61511000 0.993305 121.67 0.115489 31.681 0.115489 31.681 0.993305 121.69
8.61511500 0.993305 121.67 0.115490 31.681 0.115490 31.681 0.993305 121.69
8.61512000 0.993305 121.67 0.115490 31.681 0.115490 31.681 0.993305 121.69
8.61512500 0.993305 121.67 0.115490 31.681 0.115490 31.681 0.993305 121.69
8.61513000 0.993305 121.67 0.115490 31.681 0.115490 31.681 0.993305 121.69
8.61513500 0.993305 121.67 0.115490 31.681 0.115490 31.681 0.993305 121.69
8.61514000 0.993305 121.67 0.115491 31.681 0.115491 31.681 0.993305 121.69
8.61514500 0.993305 121.67 0.115491 31.681 0.115491 31.681 0.993305 121.69
8.61515000 0.993305 121.67 0.115491 31.681 0.115491 31.681 0.993305 121.69
8.61515500 0.993305 121.67 0.115491 31.681 0.115491 31.681 0.993305 121.69
8.61516000 0.993305 121.67 0.115491 31.681 0.115491 31.681 0.993305 121.69
8.61516500 0.993305 121.67 0.115492 31.681 0.115492 31.681 0.993305 121.69
8.61517000 0.993305 121.67 0.115492 31.681 0.115492 31.681 0.993305 121.69
8.61517500 0.993305 121.67 0.115492 31.681 0.115492 31.681 0.993305 121.69
8.61518000 0.993305 121.67 0.115492 31.681 0.115492 31.681 0.993305 121.69
8.61518500 0.993305 121.67 0.115492 31.681 0.115492 31.681 0.993305 121.69
8.61519000 0.993305 121.67 0.115493 31.681 0.115493 31.681 0.993305 121.69
8.61519500 0.993305 121.67 0.115493 31.681 0.115493 31.681 0.993305 121.69
8.61520000 0.993305 121.67 0.115493 31.681 0.115493 31.681 0.993305 121.69
8.61520500 0.993305 121.67 0.115493 31.680 0.115493 31.680 0.993305 121.69
8.61521000 0.993305 121.67 0.115493 31.680 0.115493 31.680 0.993305 121.69
8.61521500 0.993305 121.67 0.115493 31.680 0.115493 31.680 0.993305 121.69
8.61522000 0.993305 121.67 0.115494 31.680 0.115494 31.680 0.993305 121.69
8.61522500 0.993305 121.67 0.115494 31.680 0.115494 31.680 0.993305 121.69
8.61523000 0.993305 121.67 0.115494 31.680 0.115494 31.680 0.993305 121.69
8.61523500 0.993305 121.67 0.115494 31.680 0.115494 31.680 0.993305 121.69
8.61524000 0.993305 121.67 0.115494 31.680 0.115494 31.680 0.993305 121.69
8.61524500 0.993305 121.67 0.115495 31.680 0.115495 31.680 0.993305 121.69
8.61525000 0.993305 121.67 0.115495 31.680 0.115495 31.680 0.993305 121.69
8.61525500 0.993305 121.67 0.115495 31.680 0.115495 31.680 0.993305 121.69
8.61526000 0.993305 121.67 0.115495 31.680 0.115495 31.680 0.993305 121.69
8.61526500 0.993305 121.67 0.115495 31.680 0.115495 31.680 0.993305 121.69
8.61527000 0.993305 121.67 0.115496 31.680 0.115496 31.680 0.993305 121.69
8.61527500 0.993305 121.67 0.115496 31.680 0.115496 31.680 0.993305 121.69
8.61528000 0.993305 121.67 0.115496 31.680 0.115496 31.680 0.993305 121.69
8.61528500 0.993305 121.67 0.115496 31.680 0.115496 31.680 0.993305 121.69
8.61529000 0.993305 121.67 0.115496 31.680 0.115496 31.680 0.993305 121.69
8.61529500 0.993305 121.67 0.115497 31.680 0.115497 31.680 0.993305 121.69
8.61530000 0.993305 121.67 0.115497 31.680 0.115497 31.680 0.993305 121.69
8.61530500 0.993304 121.67 0.115497 31.680 0.115497 31.680 0.993305 121.69
8.61531000 0.993304 121.67 0.115497 31.680 0.115497 31.680 0.993304 121.69
8.61531500 0.993304 121.67 0.115497 31.680 0.115497 31.680 0.993304 121.69
8.61532000 0.993304 121.67 0.115498 31.680 0.115498 31.680 0.993304 121.69
8.61532500 0.993304 121.67 0.115498 31.679 0.115498 31.679 0.993304 121.69
8.61533000 0.993304 121.67 0.115498 31.679 0.115498 31.679 0.993304 121.69
8.61533500 0.993304 121.67 0.115498 31.679 0.115498 31.679 0.993304 121.69
8.61534000 0.993304 121.67 0.115498 31.679 0.115498 31.679 0.993304 121.69
8.61534500 0.993304 121.67 0.115499 31.679 0.115499 31.679 0.993304 121.69
8.61535000 0.993304 121.67 0.115499 31.679 0.115499 31.679 0.993304 121.69
8.61535500 0.993304 121.66 0.115499 31.679 0.115499 31.679 0.993304 121.69
8.61536000 0.993304 121.66 0.115499 31.679 0.115499 31.679 0.993304 121.69
8.61536500 0.993304 121.66 0.115499 31.679 0.115499 31.679 0.993304 121.69
8.61537000 0.993304 121.66 0.115500 31.679 0.115500 31.679 0.993304 121.69
8.61537500 0.993304 121.66 0.115500 31.679 0.115500 31.679 0.993304 121.69
8.61538000 0.993304 121.66 0.115500 31.679 0.115500 31.679 0.993304 121.69
8.61538500 0.993304 121.66 0.115500 31.679 0.115500 31.679 0.993304 121.69
8.61539000 0.993304 121.66 0.115500 31.679 0.115500 31.679 0.993304 121.69
8.61539500 0.993304 121.66 0.115501 31.679 0.115501 31.679 0.993304 121.69
8.61540000 0.993304 121.66 0.115501 31.679 0.115501 31.679 0.993304 121.69
8.61540500 0.993304 121.66 0.115501 31.679 0.115501 31.679 0.993304 121.69
8.61541000 0.993304 121.66 0.115501 31.679 0.115501 31.679 0.993304 121.69
8.61541500 0.993304 121.66 0.115501 31.679 0.115501 31.679 0.993304 121.69
8.61542000 0.993304 121.66 0.115502 31.679 0.115502 31.679 0.993304 121.69
8.61542500 0.993304 121.66 0.115502 31.679 0.115502 31.679 0.993304 121.69
8.61543000 0.993304 121.66 0.115502 31.679 0.115502 31.679 0.993304 121.69
8.61543500 0.993304 121.66 0.115502 31.679 0.115502 31.679 0.993304 121.69
8.61544000 0.993304 121.66 0.115502 31.679 0.115502 31.679 0.993304 121.69
8.61544500 0.993304 121.66 0.115503 31.678 0.115503 31.678 0.993304 121.69
8.61545000 0.993304 121.66 0.115503 31.678 0.115503 31.678 0.993304 121.69
8.61545500 0.993304 121.66 0.115503 31.678 0.115503 31.678 0.993304 121.69
8.61546000 0.993304 121.66 0.115503 31.678 0.115503 31.678 0.993304 121.69
8.61546500 0.993304 121.66 0.115503 31.678 0.115503 31.678 0.993304 121.69
8.61547000 0.993304 121.66 0.115504 31.678 0.115504 31.678 0.993304 121.69
8.61547500 0.993304 121.66 0.115504 31.678 0.115504 31.678 0.993304 121.69
8.61548000 0.993304 121.66 0.115504 31.678 0.115504 31.678 0.993304 121.69
8.61548500 0.993304 121.66 0.115504 31.678 0.115504 31.678 0.993304 121.69
8.61549000 0.993304 121.66 0.115504 31.678 0.115504 31.678 0.993304 121.69
8.61549500 0.993304 121.66 0.115505 31.678 0.115505 31.678 0.993304 121.69
8.61550000 0.993304 121.66 0.115505 31.678 0.115505 31.678 0.993304 121.69
8.61550500 0.993304 121.66 0.115505 31.678 0.115505 31.678 0.993304 121.69
8.61551000 0.993304 121.66 0.115505 31.678 0.115505 31.678 0.993304 121.69
8.61551500 0.993303 121.66 0.115505 31.678 0.115505 31.678 0.993304 121.69
8.61552000 0.993303 121.66 0.115506 31.678 0.115506 31.678 0.993303 121.69
8.61552500 0.993303 121.66 0.115506 31.678 0.115506 31.678 0.993303 121.69
8.61553000 0.993303 121.66 0.115506 31.678 0.115506 31.678 0.993303 121.69
8.61553500 0.993303 121.66 0.115506 31.678 0.115506 31.678 0.993303 121.69
8.61554000 0.993303 121.66 0.115506 31.678 0.115506 31.678 0.993303 121.69
8.61554500 0.993303 121.66 0.115507 31.678 0.115507 31.678 0.993303 121.69
8.61555000 0.993303 121.66 0.115507 31.678 0.115507 31.678 0.993303 121.69
8.61555500 0.993303 121.66 0.115507 31.678 0.115507 31.678 0.993303 121.69
8.61556000 0.993303 121.66 0.115507 31.678 0.115507 31.678 0.993303 121.69
8.61556500 0.993303 121.66 0.115508 31.677 0.115508 31.677 0.993303 121.69
8.61557000 0.993303 121.66 0.115508 31.677 0.115508 31.677 0.993303 121.69
8.61557500 0.993303 121.66 0.115508 31.677 0.115508 31.677 0.993303 121.69
8.61558000 0.993303 121.66 0.115508 31.677 0.115508 31.677 0.993303 121.69
8.61558500 0.993303 121.66 0.115508 31.677 0.115508 31.677 0.993303 121.69
8.61559000 0.993303 121.66 0.115509 31.677 0.115509 31.677 0.993303 121.69
8.61559500 0.993303 121.66 0.115509 31.677 0.115509 31.677 0.993303 121.69
8.61560000 0.993303 121.66 0.115509 31.677 0.115509 31.677 0.993303 121.69
8.61560500 0.993303 121.66 0.115509 31.677 0.115509 31.677 0.993303 121.69
8.61561000 0.993303 121.66 0.115509 31.677 0.115509 31.677 0.993303 121.69
8.61561500 0.993303 121.66 0.115510 31.677 0.115510 31.677 0.993303 121.69
8.61562000 0.993303 121.66 0.115510 31.677 0.115510 31.677 0.993303 121.69
8.61562500 0.993303 121.66 0.115510 31.677 0.115510 31.677 0.993303 121.69
8.61563000 0.993303 121.66 0.115510 31.677 0.115510 31.677 0.993303 121.69
8.61563500 0.993303 121.66 0.115510 31.677 0.115510 31.677 0.993303 121.69
8.61564000 0.993303 121.66 0.115511 31.677 0.115511 31.677 0.993303 121.69
8.61564500 0.993303 121.66 0.115511 31.677 0.115511 31.677 0.993303 121.69
8.61565000 0.993303 121.66 0.115511 31.677 0.115511 31.677 0.993303 121.69
8.61565500 0.993303 121.66 0.115511 31.677 0.115511 31.677 0.993303 121.69
8.61566000 0.993303 121.66 0.115511 31.677 0.115511 31.677 0.993303 121.69
8.61566500 0.993303 121.66 0.115512 31.677 0.115512 31.677 0.993303 121.69
8.61567000 0.993303 121.66 0.115512 31.677 0.115512 31.677 0.993303 121.69
8.61567500 0.993303 121.66 0.115512 31.677 0.115512 31.677 0.993303 121.69
8.61568000 0.993303 121.66 0.115512 31.676 0.115512 31.676 0.993303 121.69
8.61568500 0.993303 121.66 0.115513 31.676 0.115513 31.676 0.993303 121.69
8.61569000 0.993303 121.66 0.115513 31.676 0.115513 31.676 0.993303 121.69
8.61569500 0.993303 121.66 0.115513 31.676 0.115513 31.676 0.993303 121.69
8.61570000 0.993303 121.66 0.115513 31.676 0.115513 31.676 0.993303 121.69
8.61570500 0.993303 121.66 0.115513 31.676 0.115513 31.676 0.993303 121.69
8.61571000 0.993303 121.66 0.115514 31.676 0.115514 31.676 0.993303 121.69
8.61571500 0.993302 121.66 0.115514 31.676 0.115514 31.676 0.993303 121.69
8.61572000 0.993302 121.66 0.115514 31.676 0.115514 31.676 0.993302 121.69
8.61572500 0.993302 121.66 0.115514 31.676 0.115514 31.676 0.993302 121.69
8.61573000 0.993302 121.66 0.115514 31.676 0.115514 31.676 0.993302 121.69
8.61573500 0.993302 121.66 0.115515 31.676 0.115515 31.676 0.993302 121.69
8.61574000 0.993302 121.66 0.115515 31.676 0.115515 31.676 0.993302 121.69
8.61574500 0.993302 121.66 0.115515 31.676 0.115515 31.676 0.993302 121.69
8.61575000 0.993302 121.66 0.115515 31.676 0.115515 31.676 0.993302 121.69
8.61575500 0.993302 121.66 0.115515 31.676 0.115515 31.676 0.993302 121.69
8.61576000 0.993302 121.66 0.115516 31.676 0.115516 31.676 0.993302 121.69
8.61576500 0.993302 121.66 0.115516 31.676 0.115516 31.676 0.993302 121.69
8.61577000 0.993302 121.66 0.115516 31.676 0.115516 31.676 0.993302 121.69
8.61577500 0.993302 121.66 0.115516 31.676 0.115516 31.676 0.993302 121.69
8.61578000 0.993302 121.66 0.115517 31.676 0.115517 31.676 0.993302 121.69
8.61578500 0.993302 121.66 0.115517 31.676 0.115517 31.676 0.993302 121.69
8.61579000 0.993302 121.66 0.115517 31.676 0.115517 31.676 0.993302 121.69
8.61579500 0.993302 121.66 0.115517 31.676 0.115517 31.676 0.993302 121.69
8.61580000 0.993302 121.66 0.115517 31.675 0.115517 31.675 0.993302 121.69
8.61580500 0.993302 121.66 0.115518 31.675 0.115518 31.675 0.993302 121.69
8.61581000 0.993302 121.66 0.115518 31.675 0.115518 31.675 0.993302 121.69
8.61581500 0.993302 121.66 0.115518 31.675 0.115518 31.675 0.993302 121.69
8.61582000 0.993302 121.66 0.115518 31.675 0.115518 31.675 0.993302 121.69
8.61582500 0.993302 121.66 0.115518 31.675 0.115518 31.675 0.993302 121.69
8.61583000 0.993302 121.66 0.115519 31.675 0.115519 31.675 0.993302 121.69
8.61583500 0.993302 121.66 0.115519 31.675 0.115519 31.675 0.993302 121.69
8.61584000 0.993302 121.66 0.115519 31.675 0.115519 31.675 0.993302 121.69
8.61584500 0.993302 121.66 0.115519 31.675 0.115519 31.675 0.993302 121.69
8.61585000 0.993302 121.66 0.115520 31.675 0.115520 31.675 0.993302 121.69
8.61585500 0.993302 121.66 0.115520 31.675 0.115520 31.675 0.993302 121.69
8.61586000 0.993302 121.66 0.115520 31.675 0.115520 31.675 0.993302 121.69
8.61586500 0.993302 121.66 0.115520 31.675 0.115520 31.675 0.993302 121.69
8.61587000 0.993302 121.66 0.115520 31.675 0.115520 31.675 0.993302 121.69
8.61587500 0.993302 121.66 0.115521 31.675 0.115521 31.675 0.993302 121.69
8.61588000 0.993302 121.66 0.115521 31.675 0.115521 31.675 0.993302 121.69
8.61588500 0.993302 121.66 0.115521 31.675 0.115521 31.675 0.993302 121.69
8.61589000 0.993302 121.66 0.115521 31.675 0.115521 31.675 0.993302 121.69
8.61589500 0.993302 121.66 0.115522 31.675 0.115522 31.675 0.993302 121.69
8.61590000 0.993302 121.66 0.115522 31.675 0.115522 31.675 0.993302 121.69
8.61590500 0.993302 121.66 0.115522 31.675 0.115522 31.675 0.993302 121.69
8.61591000 0.993301 121.66 0.115522 31.675 0.115522 31.675 0.993302 121.69
8.61591500 0.993301 121.66 0.115522 31.674 0.115522 31.674 0.993301 121.69
8.61592000 0.993301 121.66 0.115523 31.674 0.115523 31.674 0.993301 121.69
8.61592500 0.993301 121.66 0.115523 31.674 0.115523 31.674 0.993301 121.69
8.61593000 0.993301 121.66 0.115523 31.674 0.115523 31.674 0.993301 121.69
8.61593500 0.993301 121.66 0.115523 31.674 0.115523 31.674 0.993301 121.69
8.61594000 0.993301 121.66 0.115524 31.674 0.115524 31.674 0.993301 121.69
8.61594500 0.993301 121.66 0.115524 31.674 0.115524 31.674 0.993301 121.69
8.61595000 0.993301 121.66 0.115524 31.674 0.115524 31.674 0.993301 121.69
8.61595500 0.993301 121.66 0.115524 31.674 0.115524 31.674 0.993301 121.69
8.61596000 0.993301 121.66 0.115524 31.674 0.115524 31.674 0.993301 121.69
8.61596500 0.993301 121.66 0.115525 31.674 0.115525 31.674 0.993301 121.69
8.61597000 0.993301 121.66 0.115525 31.674 0.115525 31.674 0.993301 121.69
8.61597500 0.993301 121.66 0.115525 31.674 0.115525 31.674 0.993301 121.69
8.61598000 0.993301 121.66 0.115525 31.674 0.115525 31.674 0.993301 121.69
8.61598500 0.993301 121.66 0.115526 31.674 0.115526 31.674 0.993301 121.69
8.61599000 0.993301 121.66 0.115526 31.674 0.115526 31.674 0.993301 121.69
8.61599500 0.993301 121.66 0.115526 31.674 0.115526 31.674 0.993301 121.69
8.61600000 0.993301 121.66 0.115526 31.674 0.115526 31.674 0.993301 121.69
8.61600500 0.993301 121.66 0.115526 31.674 0.115526 31.674 0.993301 121.69
8.61601000 0.993301 121.66 0.115527 31.674 0.115527 31.674 0.993301 121.69
8.61601500 0.993301 121.66 0.115527 31.674 0.115527 31.674 0.993301 121.69
8.61602000 0.993301 121.66 0.115527 31.674 0.115527 31.674 0.993301 121.69
8.61602500 0.993301 121.66 0.115527 31.674 0.115527 31.674 0.993301 121.69
8.61603000 0.993301 121.66 0.115528 31.673 0.115528 31.673 0.993301 121.69
8.61603500 0.993301 121.66 0.115528 31.673 0.115528 31.673 0.993301 121.69
8.61604000 0.993301 121.66 0.115528 31.673 0.115528 31.673 0.993301 121.69
8.61604500 0.993301 121.66 0.115528 31.673 0.115528 31.673 0.993301 121.69
8.61605000 0.993301 121.66 0.115528 31.673 0.115528 31.673 0.993301 121.69
8.61605500 0.993301 121.66 0.115529 31.673 0.115529 31.673 0.993301 121.69
8.61606000 0.993301 121.66 0.115529 31.673 0.115529 31.673 0.993301 121.69
8.61606500 0.993301 121.66 0.115529 31.673 0.115529 31.673 0.993301 121.69
8.61607000 0.993301 121.66 0.115529 31.673 0.115529 31.673 0.993301 121.69
8.61607500 0.993301 121.66 0.115530 31.673 0.115530 31.673 0.993301 121.69
8.61608000 0.993301 121.66 0.115530 31.673 0.115530 31.673 0.993301 121.69
8.61608500 0.993301 121.66 0.115530 31.673 0.115530 31.673 0.993301 121.69
8.61609000 0.993301 121.66 0.115530 31.673 0.115530 31.673 0.993301 121.69
8.61609500 0.993301 121.66 0.115530 31.673 0.115530 31.673 0.993301 121.69
8.61610000 0.993300 121.66 0.115531 31.673 0.115531 31.673 0.993300 121.69
8.61610500 0.993300 121.66 0.115531 31.673 0.115531 31.673 0.993300 121.69
8.61611000 0.993300 121.66 0.115531 31.673 0.115531 31.673 0.993300 121.69
8.61611500 0.993300 121.66 0.115531 31.673 0.115531 31.673 0.993300 121.69
8.61612000 0.993300 121.66 0.115532 31.673 0.115532 31.673 0.993300 121.69
8.61612500 0.993300 121.66 0.115532 31.673 0.115532 31.673 0.993300 121.69
8.61613000 0.993300 121.66 0.115532 31.673 0.115532 31.673 0.993300 121.69
8.61613500 0.993300 121.66 0.115532 31.673 0.115532 31.673 0.993300 121.69
8.61614000 0.993300 121.66 0.115533 31.673 0.115533 31.673 0.993300 121.68
8.61614500 0.993300 121.66 0.115533 31.672 0.115533 31.672 0.993300 121.68
8.61615000 0.993300 121.66 0.115533 31.672 0.115533 31.672 0.993300 121.68
8.61615500 0.993300 121.66 0.115533 31.672 0.115533 31.672 0.993300 121.68
8.61616000 0.993300 121.66 0.115533 31.672 0.115533 31.672 0.993300 121.68
8.61616500 0.993300 121.66 0.115534 31.672 0.115534 31.672 0.993300 121.68
8.61617000 0.993300 121.66 0.115534 31.672 0.115534 31.672 0.993300 121.68
8.61617500 0.993300 121.66 0.115534 31.672 0.115534 31.672 0.993300 121.68
8.61618000 0.993300 121.66 0.115534 31.672 0.115534 31.672 0.993300 121.68
8.61618500 0.993300 121.66 0.115535 31.672 0.115535 31.672 0.993300 121.68
8.61619000 0.993300 121.66 0.115535 31.672 0.115535 31.672 0.993300 121.68
8.61619500 0.993300 121.66 0.115535 31.672 0.115535 31.672 0.993300 121.68
8.61620000 0.993300 121.66 0.115535 31.672 0.115535 31.672 0.993300 121.68
8.61620500 0.993300 121.66 0.115536 31.672 0.115536 31.672 0.993300 121.68
8.61621000 0.993300 121.66 0.115536 31.672 0.115536 31.672 0.993300 121.68
8.61621500 0.993300 121.66 0.115536 31.672 0.115536 31.672 0.993300 121.68
8.61622000 0.993300 121.66 0.115536 31.672 0.115536 31.672 0.993300 121.68
8.61622500 0.993300 121.66 0.115536 31.672 0.115536 31.672 0.993300 121.68
8.61623000 0.993300 121.66 0.115537 31.672 0.115537 31.672 0.993300 121.68
8.61623500 0.993300 121.66 0.115537 31.672 0.115537 31.672 0.993300 121.68
8.61624000 0.993300 121.66 0.115537 31.672 0.115537 31.672 0.993300 121.68
8.61624500 0.993300 121.66 0.115537 31.672 0.115537 31.672 0.993300 121.68
8.61625000 0.993300 121.66 0.115538 31.672 0.115538 31.672 0.993300 121.68
8.61625500 0.993300 121.66 0.115538 31.672 0.115538 31.672 0.993300 121.68
8.61626000 0.993300 121.66 0.115538 31.671 0.115538 31.671 0.993300 121.68
8.61626500 0.993300 121.66 0.115538 31.671 0.115538 31.671 0.993300 121.68
8.61627000 0.993300 121.66 0.115539 31.671 0.115539 31.671 0.993300 121.68
8.61627500 0.993300 121.66 0.115539 31.671 0.115539 31.671 0.993300 121.68
8.61628000 0.993299 121.66 0.115539 31.671 0.115539 31.671 0.993299 121.68
8.61628500 0.993299 121.66 0.115539 31.671 0.115539 31.671 0.993299 121.68
8.61629000 0.993299 121.66 0.115540 31.671 0.115540 31.671 0.993299 121.68
8.61629500 0.993299 121.66 0.115540 31.671 0.115540 31.671 0.993299 121.68
8.61630000 0.993299 121.66 0.115540 31.671 0.115540 31.671 0.993299 121.68
8.61630500 0.993299 121.66 0.115540 31.671 0.115540 31.671 0.993299 121.68
8.61631000 0.993299 121.66 0.115540 31.671 0.115540 31.671 0.993299 121.68
8.61631500 0.993299 121.66 0.115541 31.671 0.115541 31.671 0.993299 121.68
8.61632000 0.993299 121.66 0.115541 31.671 0.115541 31.671 0.993299 121.68
8.61632500 0.993299 121.66 0.115541 31.671 0.115541 31.671 0.993299 121.68
8.61633000 0.993299 121.66 0.115541 31.671 0.115541 31.671 0.993299 121.68
8.61633500 0.993299 121.66 0.115542 31.671 0.115542 31.671 0.993299 121.68
8.61634000 0.993299 121.66 0.115542 31.671 0.115542 31.671 0.993299 121.68
8.61634500 0.993299 121.66 0.115542 31.671 0.115542 31.671 0.993299 121.68
8.61635000 0.993299 121.66 0.115542 31.671 0.115542 31.671 0.993299 121.68
8.61635500 0.993299 121.66 0.115543 31.671 0.115543 31.671 0.993299 121.68
8.61636000 0.993299 121.66 0.115543 31.671 0.115543 31.671 0.993299 121.68
8.61636500 0.993299 121.66 0.115543 31.671 0.115543 31.671 0.993299 121.68
8.61637000 0.993299 121.66 0.115543 31.671 0.115543 31.671 0.993299 121.68
8.61637500 0.993299 121.66 0.115544 31.670 0.115544 31.670 0.993299 121.68
8.61638000 0.993299 121.66 0.115544 31.670 0.115544 31.670 0.993299 121.68
8.61638500 0.993299 121.66 0.115544 31.670 0.115544 31.670 0.993299 121.68
8.61639000 0.993299 121.66 0.115544 31.670 0.115544 31.670 0.993299 121.68
8.61639500 0.993299 121.66 0.115545 31.670 0.115545 31.670 0.993299 121.68
8.61640000 0.993299 121.66 0.115545 31.670 0.115545 31.670 0.993299 121.68
8.61640500 0.993299 121.66 0.115545 31.670 0.115545 31.670 0.993299 121.68
8.61641000 0.993299 121.66 0.115545 31.670 0.115545 31.670 0.993299 121.68
8.61641500 0.993299 121.66 0.115546 31.670 0.115546 31.670 0.993299 121.68
8.61642000 0.993299 121.66 0.115546 31.670 0.115546 31.670 0.993299 121.68
8.61642500 0.993299 121.66 0.115546 31.670 0.115546 31.670 0.993299 121.68
8.61643000 0.993299 121.66 0.115546 31.670 0.115546 31.670 0.993299 121.68
8.61643500 0.993299 121.66 0.115547 31.670 0.115547 31.670 0.993299 121.68
8.61644000 0.993299 121.66 0.115547 31.670 0.115547 31.670 0.993299 121.68
8.61644500 0.993299 121.66 0.115547 31.670 0.115547 31.670 0.993299 121.68
8.61645000 0.993298 121.66 0.115547 31.670 0.115547 31.670 0.993299 121.68
8.61645500 0.993298 121.66 0.115548 31.670 0.115548 31.670 0.993298 121.68
8.61646000 0.993298 121.66 0.115548 31.670 0.115548 31.670 0.993298 121.68
8.61646500 0.993298 121.66 0.115548 31.670 0.115548 31.670 0.993298 121.68
8.61647000 0.993298 121.66 0.115548 31.670 0.115548 31.670 0.993298 121.68
8.61647500 0.993298 121.66 0.115548 31.670 0.115548 31.670 0.993298 121.68
8.61648000 0.993298 121.66 0.115549 31.670 0.115549 31.670 0.993298 121.68
8.61648500 0.993298 121.66 0.115549 31.670 0.115549 31.670 0.993298 121.68
8.61649000 0.993298 121.66 0.115549 31.669 0.115549 31.669 0.993298 121.68
8.61649500 0.993298 121.66 0.115549 31.669 0.115549 31.669 0.993298 121.68
8.61650000 0.993298 121.66 0.115550 31.669 0.115550 31.669 0.993298 121.68
8.61650500 0.993298 121.66 0.115550 31.669 0.115550 31.669 0.993298 121.68
8.61651000 0.993298 121.66 0.115550 31.669 0.115550 31.669 0.993298 121.68
8.61651500 0.993298 121.66 0.115550 31.669 0.115550 31.669 0.993298 121.68
8.61652000 0.993298 121.65 0.115551 31.669 0.115551 31.669 0.993298 121.68
8.61652500 0.993298 121.65 0.115551 31.669 0.115551 31.669 0.993298 121.68
8.61653000 0.993298 121.65 0.115551 31.669 0.115551 31.669 0.993298 121.68
8.61653500 0.993298 121.65 0.115551 31.669 0.115551 31.669 0.993298 121.68
8.61654000 0.993298 121.65 0.115552 31.669 0.115552 31.669 0.993298 121.68
8.61654500 0.993298 121.65 0.115552 31.669 0.115552 31.669 0.993298 121.68
8.61655000 0.993298 121.65 0.115552 31.669 0.115552 31.669 0.993298 121.68
8.61655500 0.993298 121.65 0.115552 31.669 0.115552 31.669 0.993298 121.68
8.61656000 0.993298 121.65 0.115553 31.669 0.115553 31.669 0.993298 121.68
8.61656500 0.993298 121.65 0.115553 31.669 0.115553 31.669 0.993298 121.68
8.61657000 0.993298 121.65 0.115553 31.669 0.115553 31.669 0.993298 121.68
8.61657500 0.993298 121.65 0.115553 31.669 0.115553 31.669 0.993298 121.68
8.61658000 0.993298 121.65 0.115554 31.669 0.115554 31.669 0.993298 121.68
8.61658500 0.993298 121.65 0.115554 31.669 0.115554 31.669 0.993298 121.68
8.61659000 0.993298 121.65 0.115554 31.669 0.115554 31.669 0.993298 121.68
8.61659500 0.993298 121.65 0.115555 31.669 0.115555 31.669 0.993298 121.68
8.61660000 0.993298 121.65 0.115555 31.668 0.115555 31.668 0.993298 121.68
8.61660500 0.993298 121.65 0.115555 31.668 0.115555 31.668 0.993298 121.68
8.61661000 0.993298 121.65 0.115555 31.668 0.115555 31.668 0.993298 121.68
8.61661500 0.993297 121.65 0.115556 31.668 0.115556 31.668 0.993298 121.68
8.61662000 0.993297 121.65 0.115556 31.668 0.115556 31.668 0.993297 121.68
8.61662500 0.993297 121.65 0.115556 31.668 0.115556 31.668 0.993297 121.68
8.61663000 0.993297 121.65 0.115556 31.668 0.115556 31.668 0.993297 121.68
8.61663500 0.993297 121.65 0.115557 31.668 0.115557 31.668 0.993297 121.68
8.61664000 0.993297 121.65 0.115557 31.668 0.115557 31.668 0.993297 121.68
8.61664500 0.993297 121.65 0.115557 31.668 0.115557 31.668 0.993297 121.68
8.61665000 0.993297 121.65 0.115557 31.668 0.115557 31.668 0.993297 121.68
8.61665500 0.993297 121.65 0.115558 31.668 0.115558 31.668 0.993297 121.68
8.61666000 0.993297 121.65 0.115558 31.668 0.115558 31.668 0.993297 121.68
8.61666500 0.993297 121.65 0.115558 31.668 0.115558 31.668 0.993297 121.68
8.61667000 0.993297 121.65 0.115558 31.668 0.115558 31.668 0.993297 121.68
8.61667500 0.993297 121.65 0.115559 31.668 0.115559 31.668 0.993297 121.68
8.61668000 0.993297 121.65 0.115559 31.668 0.115559 31.668 0.993297 121.68
8.61668500 0.993297 121.65 0.115559 31.668 0.115559 31.668 0.993297 121.68
8.61669000 0.993297 121.65 0.115559 31.668 0.115559 31.668 0.993297 121.68
8.61669500 0.993297 121.65 0.115560 31.668 0.115560 31.668 0.993297 121.68
8.61670000 0.993297 121.65 0.115560 31.668 0.115560 31.668 0.993297 121.68
8.61670500 0.993297 121.65 0.115560 31.668 0.115560 31.668 0.993297 121.68
8.61671000 0.993297 121.65 0.115560 31.667 0.115560 31.667 0.993297 121.68
8.61671500 0.993297 121.65 0.115561 31.667 0.115561 31.667 0.993297 121.68
8.61672000 0.993297 121.65 0.115561 31.667 0.115561 31.667 0.993297 121.68
8.61672500 0.993297 121.65 0.115561 31.667 0.115561 31.667 0.993297 121.68
8.61673000 0.993297 121.65 0.115561 31.667 0.115561 31.667 0.993297 121.68
8.61673500 0.993297 121.65 0.115562 31.667 0.115562 31.667 0.993297 121.68
8.61674000 0.993297 121.65 0.115562 31.667 0.115562 31.667 0.993297 121.68
8.61674500 0.993297 121.65 0.115562 31.667 0.115562 31.667 0.993297 121.68
8.61675000 0.993297 121.65 0.115563 31.667 0.115563 31.667 0.993297 121.68
8.61675500 0.993297 121.65 0.115563 31.667 0.115563 31.667 0.993297 121.68
8.61676000 0.993297 121.65 0.115563 31.667 0.115563 31.667 0.993297 121.68
8.61676500 0.993297 121.65 0.115563 31.667 0.115563 31.667 0.993297 121.68
8.61677000 0.993297 121.65 0.115564 31.667 0.115564 31.667 0.993297 121.68
8.61677500 0.993296 121.65 0.115564 31.667 0.115564 31.667 0.993297 121.68
8.61678000 0.993296 121.65 0.115564 31.667 0.115564 31.667 0.993296 121.68
8.61678500 0.993296 121.65 0.115564 31.667 0.115564 31.667 0.993296 121.68
8.61679000 0.993296 121.65 0.115565 31.667 0.115565 31.667 0.993296 121.68
8.61679500 0.993296 121.65 0.115565 31.667 0.115565 31.667 0.993296 121.68
8.61680000 0.993296 121.65 0.115565 31.667 0.115565 31.667 0.993296 121.68
8.61680500 0.993296 121.65 0.115565 31.667 0.115565 31.667 0.993296 121.68
8.61681000 0.993296 121.65 0.115566 31.667 0.115566 31.667 0.993296 121.68
8.61681500 0.993296 121.65 0.115566 31.667 0.115566 31.667 0.993296 121.68
8.61682000 0.993296 121.65 0.115566 31.666 0.115566 31.666 0.993296 121.68
8.61682500 0.993296 121.65 0.115566 31.666 0.115566 31.666 0.993296 121.68
8.61683000 0.993296 121.65 0.115567 31.666 0.115567 31.666 0.993296 121.68
8.61683500 0.993296 121.65 0.115567 31.666 0.115567 31.666 0.993296 121.68
8.61684000 0.993296 121.65 0.115567 31.666 0.115567 31.666 0.993296 121.68
8.61684500 0.993296 121.65 0.115568 31.666 0.115568 31.666 0.993296 121.68
8.61685000 0.993296 121.65 0.115568 31.666 0.115568 31.666 0.993296 121.68
8.61685500 0.993296 121.65 0.115568 31.666 0.115568 31.666 0.993296 121.68
8.61686000 0.993296 121.65 0.115568 31.666 0.115568 31.666 0.993296 121.68
8.61686500 0.993296 121.65 0.115569 31.666 0.115569 31.666 0.993296 121.68
8.61687000 0.993296 121.65 0.115569 31.666 0.115569 31.666 0.993296 121.68
8.61687500 0.993296 121.65 0.115569 31.666 0.115569 31.666 0.993296 121.68
8.61688000 0.993296 121.65 0.115569 31.666 0.115569 31.666 0.993296 121.68
8.61688500 0.993296 121.65 0.115570 31.666 0.115570 31.666 0.993296 121.68
8.61689000 0.993296 121.65 0.115570 31.666 0.115570 31.666 0.993296 121.68
8.61689500 0.993296 121.65 0.115570 31.666 0.115570 31.666 0.993296 121.68
8.61690000 0.993296 121.65 0.115571 31.666 0.115571 31.666 0.993296 121.68
8.61690500 0.993296 121.65 0.115571 31.666 0.115571 31.666 0.993296 121.68
8.61691000 0.993296 121.65 0.115571 31.666 0.115571 31.666 0.993296 121.68
8.61691500 0.993296 121.65 0.115571 31.666 0.115571 31.666 0.993296 121.68
8.61692000 0.993296 121.65 0.115572 31.666 0.115572 31.666 0.993296 121.68
8.61692500 0.993296 121.65 0.115572 31.666 0.115572 31.666 0.993296 121.68
8.61693000 0.993295 121.65 0.115572 31.665 0.115572 31.665 0.993296 121.68
8.61693500 0.993295 121.65 0.115572 31.665 0.115572 31.665 0.993295 121.68
8.61694000 0.993295 121.65 0.115573 31.665 0.115573 31.665 0.993295 121.68
8.61694500 0.993295 121.65 0.115573 31.665 0.115573 31.665 0.993295 121.68
8.61695000 0.993295 121.65 0.115573 31.665 0.115573 31.665 0.993295 121.68
8.61695500 0.993295 121.65 0.115574 31.665 0.115574 31.665 0.993295 121.68
8.61696000 0.993295 121.65 0.115574 31.665 0.115574 31.665 0.993295 121.68