! Sonnet Data File
! From: emgraph Version : 16.52
! From Project: transmon_brgOdd
! Data is De-embedded 
! Data File Written: 11/11/2017 22:28:46
!< HDATE 11/11/2017 18:22:48
!< MDATE 11/11/2017 18:22:48
!< PARAMS
!< Lj = 15.24
!< Gap = 6.0
!< Width = 10.0
!< Airgap = 6.0
!< Pwidth = 2000.0
!< Dist = 600.0
!< END PARAMS
# GHZ S MA R 34.67000
8.72000000 0.983810 106.39 0.179190 16.363 0.179190 16.363 0.983810 106.34
!< P1 F=8.72 Eeff=(5.13609477 -5.6761e-5) Z0=(34.6490765 -9.5162e-5) R=0.0 C=0.0 
!< P2 F=8.72 Eeff=(5.13609477 -5.6761e-5) Z0=(34.6490765 -9.5162e-5) R=0.0 C=0.0 
8.72005000 0.983810 106.39 0.179191 16.362 0.179191 16.362 0.983810 106.34
8.72010000 0.983810 106.38 0.179192 16.362 0.179192 16.362 0.983810 106.34
8.72015000 0.983809 106.38 0.179194 16.361 0.179194 16.361 0.983809 106.34
8.72020000 0.983809 106.38 0.179195 16.361 0.179195 16.361 0.983809 106.34
8.72025000 0.983809 106.38 0.179196 16.360 0.179196 16.360 0.983809 106.34
8.72030000 0.983809 106.38 0.179197 16.360 0.179197 16.360 0.983809 106.33
8.72035000 0.983809 106.38 0.179198 16.360 0.179198 16.360 0.983809 106.33
8.72040000 0.983808 106.38 0.179199 16.359 0.179199 16.359 0.983808 106.33
8.72045000 0.983808 106.38 0.179200 16.359 0.179200 16.359 0.983808 106.33
8.72050000 0.983808 106.38 0.179201 16.358 0.179201 16.358 0.983808 106.33
8.72055000 0.983808 106.38 0.179203 16.358 0.179203 16.358 0.983808 106.33
8.72060000 0.983808 106.38 0.179204 16.357 0.179204 16.357 0.983808 106.33
8.72065000 0.983807 106.38 0.179205 16.357 0.179205 16.357 0.983807 106.33
8.72070000 0.983807 106.38 0.179206 16.357 0.179206 16.357 0.983807 106.33
8.72075000 0.983807 106.38 0.179207 16.356 0.179207 16.356 0.983807 106.33
8.72080000 0.983807 106.38 0.179208 16.356 0.179208 16.356 0.983807 106.33
8.72085000 0.983807 106.38 0.179209 16.355 0.179209 16.355 0.983807 106.33
8.72090000 0.983806 106.38 0.179210 16.355 0.179210 16.355 0.983806 106.33
8.72095000 0.983806 106.38 0.179212 16.355 0.179212 16.355 0.983806 106.33
8.72100000 0.983806 106.38 0.179213 16.354 0.179213 16.354 0.983806 106.33
8.72105000 0.983806 106.38 0.179214 16.354 0.179214 16.354 0.983806 106.33
8.72110000 0.983806 106.38 0.179215 16.353 0.179215 16.353 0.983806 106.33
8.72115000 0.983805 106.38 0.179216 16.353 0.179216 16.353 0.983805 106.33
8.72120000 0.983805 106.38 0.179217 16.352 0.179217 16.352 0.983805 106.33
8.72125000 0.983805 106.37 0.179218 16.352 0.179218 16.352 0.983805 106.33
8.72130000 0.983805 106.37 0.179220 16.352 0.179220 16.352 0.983805 106.33
8.72135000 0.983804 106.37 0.179221 16.351 0.179221 16.351 0.983804 106.33
8.72140000 0.983804 106.37 0.179222 16.351 0.179222 16.351 0.983804 106.33
8.72145000 0.983804 106.37 0.179223 16.350 0.179223 16.350 0.983804 106.33
8.72150000 0.983804 106.37 0.179224 16.350 0.179224 16.350 0.983804 106.32
8.72155000 0.983804 106.37 0.179225 16.349 0.179225 16.349 0.983804 106.32
8.72160000 0.983803 106.37 0.179226 16.349 0.179226 16.349 0.983803 106.32
8.72165000 0.983803 106.37 0.179227 16.349 0.179227 16.349 0.983803 106.32
8.72170000 0.983803 106.37 0.179229 16.348 0.179229 16.348 0.983803 106.32
8.72175000 0.983803 106.37 0.179230 16.348 0.179230 16.348 0.983803 106.32
8.72180000 0.983803 106.37 0.179231 16.347 0.179231 16.347 0.983803 106.32
8.72185000 0.983802 106.37 0.179232 16.347 0.179232 16.347 0.983802 106.32
8.72190000 0.983802 106.37 0.179233 16.346 0.179233 16.346 0.983802 106.32
8.72195000 0.983802 106.37 0.179234 16.346 0.179234 16.346 0.983802 106.32
8.72200000 0.983802 106.37 0.179235 16.346 0.179235 16.346 0.983802 106.32
8.72205000 0.983802 106.37 0.179237 16.345 0.179237 16.345 0.983802 106.32
8.72210000 0.983801 106.37 0.179238 16.345 0.179238 16.345 0.983801 106.32
8.72215000 0.983801 106.37 0.179239 16.344 0.179239 16.344 0.983801 106.32
8.72220000 0.983801 106.37 0.179240 16.344 0.179240 16.344 0.983801 106.32
8.72225000 0.983801 106.37 0.179241 16.343 0.179241 16.343 0.983801 106.32
8.72230000 0.983801 106.37 0.179242 16.343 0.179242 16.343 0.983801 106.32
8.72235000 0.983800 106.37 0.179243 16.343 0.179243 16.343 0.983800 106.32
8.72240000 0.983800 106.37 0.179244 16.342 0.179244 16.342 0.983800 106.32
8.72245000 0.983800 106.36 0.179246 16.342 0.179246 16.342 0.983800 106.32
8.72250000 0.983800 106.36 0.179247 16.341 0.179247 16.341 0.983800 106.32
8.72255000 0.983800 106.36 0.179248 16.341 0.179248 16.341 0.983800 106.32
8.72260000 0.983799 106.36 0.179249 16.340 0.179249 16.340 0.983799 106.32
8.72265000 0.983799 106.36 0.179250 16.340 0.179250 16.340 0.983799 106.31
8.72270000 0.983799 106.36 0.179251 16.340 0.179251 16.340 0.983799 106.31
8.72275000 0.983799 106.36 0.179252 16.339 0.179252 16.339 0.983799 106.31
8.72280000 0.983798 106.36 0.179254 16.339 0.179254 16.339 0.983798 106.31
8.72285000 0.983798 106.36 0.179255 16.338 0.179255 16.338 0.983798 106.31
8.72290000 0.983798 106.36 0.179256 16.338 0.179256 16.338 0.983798 106.31
8.72295000 0.983798 106.36 0.179257 16.337 0.179257 16.337 0.983798 106.31
8.72300000 0.983798 106.36 0.179258 16.337 0.179258 16.337 0.983798 106.31
8.72305000 0.983797 106.36 0.179259 16.337 0.179259 16.337 0.983797 106.31
8.72310000 0.983797 106.36 0.179260 16.336 0.179260 16.336 0.983797 106.31
8.72315000 0.983797 106.36 0.179262 16.336 0.179262 16.336 0.983797 106.31
8.72320000 0.983797 106.36 0.179263 16.335 0.179263 16.335 0.983797 106.31
8.72325000 0.983797 106.36 0.179264 16.335 0.179264 16.335 0.983797 106.31
8.72330000 0.983796 106.36 0.179265 16.334 0.179265 16.334 0.983796 106.31
8.72335000 0.983796 106.36 0.179266 16.334 0.179266 16.334 0.983796 106.31
8.72340000 0.983796 106.36 0.179267 16.334 0.179267 16.334 0.983796 106.31
8.72345000 0.983796 106.36 0.179268 16.333 0.179268 16.333 0.983796 106.31
8.72350000 0.983796 106.36 0.179269 16.333 0.179269 16.333 0.983796 106.31
8.72355000 0.983795 106.36 0.179271 16.332 0.179271 16.332 0.983795 106.31
8.72360000 0.983795 106.35 0.179272 16.332 0.179272 16.332 0.983795 106.31
8.72365000 0.983795 106.35 0.179273 16.331 0.179273 16.331 0.983795 106.31
8.72370000 0.983795 106.35 0.179274 16.331 0.179274 16.331 0.983795 106.31
8.72375000 0.983795 106.35 0.179275 16.331 0.179275 16.331 0.983795 106.31
8.72380000 0.983794 106.35 0.179276 16.330 0.179276 16.330 0.983794 106.30
8.72385000 0.983794 106.35 0.179277 16.330 0.179277 16.330 0.983794 106.30
8.72390000 0.983794 106.35 0.179279 16.329 0.179279 16.329 0.983794 106.30
8.72395000 0.983794 106.35 0.179280 16.329 0.179280 16.329 0.983794 106.30
8.72400000 0.983794 106.35 0.179281 16.328 0.179281 16.328 0.983794 106.30
8.72405000 0.983793 106.35 0.179282 16.328 0.179282 16.328 0.983793 106.30
8.72410000 0.983793 106.35 0.179283 16.328 0.179283 16.328 0.983793 106.30
8.72415000 0.983793 106.35 0.179284 16.327 0.179284 16.327 0.983793 106.30
8.72420000 0.983793 106.35 0.179285 16.327 0.179285 16.327 0.983793 106.30
8.72425000 0.983792 106.35 0.179287 16.326 0.179287 16.326 0.983792 106.30
8.72430000 0.983792 106.35 0.179288 16.326 0.179288 16.326 0.983792 106.30
8.72435000 0.983792 106.35 0.179289 16.325 0.179289 16.325 0.983792 106.30
8.72440000 0.983792 106.35 0.179290 16.325 0.179290 16.325 0.983792 106.30
8.72445000 0.983792 106.35 0.179291 16.325 0.179291 16.325 0.983792 106.30
8.72450000 0.983791 106.35 0.179292 16.324 0.179292 16.324 0.983791 106.30
8.72455000 0.983791 106.35 0.179293 16.324 0.179293 16.324 0.983791 106.30
8.72460000 0.983791 106.35 0.179295 16.323 0.179295 16.323 0.983791 106.30
8.72465000 0.983791 106.35 0.179296 16.323 0.179296 16.323 0.983791 106.30
8.72470000 0.983791 106.35 0.179297 16.322 0.179297 16.322 0.983791 106.30
8.72475000 0.983790 106.34 0.179298 16.322 0.179298 16.322 0.983790 106.30
8.72480000 0.983790 106.34 0.179299 16.322 0.179299 16.322 0.983790 106.30
8.72485000 0.983790 106.34 0.179300 16.321 0.179300 16.321 0.983790 106.30
8.72490000 0.983790 106.34 0.179301 16.321 0.179301 16.321 0.983790 106.30
8.72495000 0.983790 106.34 0.179303 16.320 0.179303 16.320 0.983790 106.30
8.72500000 0.983789 106.34 0.179304 16.320 0.179304 16.320 0.983789 106.29
8.72505000 0.983789 106.34 0.179305 16.319 0.179305 16.319 0.983789 106.29
8.72510000 0.983789 106.34 0.179306 16.319 0.179306 16.319 0.983789 106.29
8.72515000 0.983789 106.34 0.179307 16.319 0.179307 16.319 0.983789 106.29
8.72520000 0.983789 106.34 0.179308 16.318 0.179308 16.318 0.983789 106.29
8.72525000 0.983788 106.34 0.179309 16.318 0.179309 16.318 0.983788 106.29
8.72530000 0.983788 106.34 0.179311 16.317 0.179311 16.317 0.983788 106.29
8.72535000 0.983788 106.34 0.179312 16.317 0.179312 16.317 0.983788 106.29
8.72540000 0.983788 106.34 0.179313 16.316 0.179313 16.316 0.983788 106.29
8.72545000 0.983787 106.34 0.179314 16.316 0.179314 16.316 0.983787 106.29
8.72550000 0.983787 106.34 0.179315 16.316 0.179315 16.316 0.983787 106.29
8.72555000 0.983787 106.34 0.179316 16.315 0.179316 16.315 0.983787 106.29
8.72560000 0.983787 106.34 0.179317 16.315 0.179317 16.315 0.983787 106.29
8.72565000 0.983787 106.34 0.179319 16.314 0.179319 16.314 0.983787 106.29
8.72570000 0.983786 106.34 0.179320 16.314 0.179320 16.314 0.983786 106.29
8.72575000 0.983786 106.34 0.179321 16.313 0.179321 16.313 0.983786 106.29
8.72580000 0.983786 106.34 0.179322 16.313 0.179322 16.313 0.983786 106.29
8.72585000 0.983786 106.34 0.179323 16.313 0.179323 16.313 0.983786 106.29
8.72590000 0.983786 106.34 0.179324 16.312 0.179324 16.312 0.983786 106.29
8.72595000 0.983785 106.33 0.179325 16.312 0.179325 16.312 0.983785 106.29
8.72600000 0.983785 106.33 0.179327 16.311 0.179327 16.311 0.983785 106.29
8.72605000 0.983785 106.33 0.179328 16.311 0.179328 16.311 0.983785 106.29
8.72610000 0.983785 106.33 0.179329 16.310 0.179329 16.310 0.983785 106.29
8.72615000 0.983785 106.33 0.179330 16.310 0.179330 16.310 0.983785 106.28
8.72620000 0.983784 106.33 0.179331 16.310 0.179331 16.310 0.983784 106.28
8.72625000 0.983784 106.33 0.179332 16.309 0.179332 16.309 0.983784 106.28
8.72630000 0.983784 106.33 0.179333 16.309 0.179333 16.309 0.983784 106.28
8.72635000 0.983784 106.33 0.179335 16.308 0.179335 16.308 0.983784 106.28
8.72640000 0.983783 106.33 0.179336 16.308 0.179336 16.308 0.983783 106.28
8.72645000 0.983783 106.33 0.179337 16.307 0.179337 16.307 0.983783 106.28
8.72650000 0.983783 106.33 0.179338 16.307 0.179338 16.307 0.983783 106.28
8.72655000 0.983783 106.33 0.179339 16.307 0.179339 16.307 0.983783 106.28
8.72660000 0.983783 106.33 0.179340 16.306 0.179340 16.306 0.983783 106.28
8.72665000 0.983782 106.33 0.179341 16.306 0.179341 16.306 0.983782 106.28
8.72670000 0.983782 106.33 0.179343 16.305 0.179343 16.305 0.983782 106.28
8.72675000 0.983782 106.33 0.179344 16.305 0.179344 16.305 0.983782 106.28
8.72680000 0.983782 106.33 0.179345 16.304 0.179345 16.304 0.983782 106.28
8.72685000 0.983782 106.33 0.179346 16.304 0.179346 16.304 0.983782 106.28
8.72690000 0.983781 106.33 0.179347 16.304 0.179347 16.304 0.983781 106.28
8.72695000 0.983781 106.33 0.179348 16.303 0.179348 16.303 0.983781 106.28
8.72700000 0.983781 106.33 0.179349 16.303 0.179349 16.303 0.983781 106.28
8.72705000 0.983781 106.33 0.179351 16.302 0.179351 16.302 0.983781 106.28
8.72710000 0.983781 106.32 0.179352 16.302 0.179352 16.302 0.983781 106.28
8.72715000 0.983780 106.32 0.179353 16.301 0.179353 16.301 0.983780 106.28
8.72720000 0.983780 106.32 0.179354 16.301 0.179354 16.301 0.983780 106.28
8.72725000 0.983780 106.32 0.179355 16.301 0.179355 16.301 0.983780 106.28
8.72730000 0.983780 106.32 0.179356 16.300 0.179356 16.300 0.983780 106.28
8.72735000 0.983780 106.32 0.179357 16.300 0.179357 16.300 0.983780 106.27
8.72740000 0.983779 106.32 0.179359 16.299 0.179359 16.299 0.983779 106.27
8.72745000 0.983779 106.32 0.179360 16.299 0.179360 16.299 0.983779 106.27
8.72750000 0.983779 106.32 0.179361 16.298 0.179361 16.298 0.983779 106.27
8.72755000 0.983779 106.32 0.179362 16.298 0.179362 16.298 0.983779 106.27
8.72760000 0.983778 106.32 0.179363 16.298 0.179363 16.298 0.983778 106.27
8.72765000 0.983778 106.32 0.179364 16.297 0.179364 16.297 0.983778 106.27
8.72770000 0.983778 106.32 0.179366 16.297 0.179366 16.297 0.983778 106.27
8.72775000 0.983778 106.32 0.179367 16.296 0.179367 16.296 0.983778 106.27
8.72780000 0.983778 106.32 0.179368 16.296 0.179368 16.296 0.983778 106.27
8.72785000 0.983777 106.32 0.179369 16.295 0.179369 16.295 0.983777 106.27
8.72790000 0.983777 106.32 0.179370 16.295 0.179370 16.295 0.983777 106.27
8.72795000 0.983777 106.32 0.179371 16.295 0.179371 16.295 0.983777 106.27
8.72800000 0.983777 106.32 0.179372 16.294 0.179372 16.294 0.983777 106.27
8.72805000 0.983777 106.32 0.179374 16.294 0.179374 16.294 0.983777 106.27
8.72810000 0.983776 106.32 0.179375 16.293 0.179375 16.293 0.983776 106.27
8.72815000 0.983776 106.32 0.179376 16.293 0.179376 16.293 0.983776 106.27
8.72820000 0.983776 106.32 0.179377 16.292 0.179377 16.292 0.983776 106.27
8.72825000 0.983776 106.31 0.179378 16.292 0.179378 16.292 0.983776 106.27
8.72830000 0.983776 106.31 0.179379 16.292 0.179379 16.292 0.983776 106.27
8.72835000 0.983775 106.31 0.179380 16.291 0.179380 16.291 0.983775 106.27
8.72840000 0.983775 106.31 0.179382 16.291 0.179382 16.291 0.983775 106.27
8.72845000 0.983775 106.31 0.179383 16.290 0.179383 16.290 0.983775 106.27
8.72850000 0.983775 106.31 0.179384 16.290 0.179384 16.290 0.983775 106.26
8.72855000 0.983774 106.31 0.179385 16.289 0.179385 16.289 0.983774 106.26
8.72860000 0.983774 106.31 0.179386 16.289 0.179386 16.289 0.983774 106.26
8.72865000 0.983774 106.31 0.179387 16.289 0.179387 16.289 0.983774 106.26
8.72870000 0.983774 106.31 0.179389 16.288 0.179389 16.288 0.983774 106.26
8.72875000 0.983774 106.31 0.179390 16.288 0.179390 16.288 0.983774 106.26
8.72880000 0.983773 106.31 0.179391 16.287 0.179391 16.287 0.983773 106.26
8.72885000 0.983773 106.31 0.179392 16.287 0.179392 16.287 0.983773 106.26
8.72890000 0.983773 106.31 0.179393 16.286 0.179393 16.286 0.983773 106.26
8.72895000 0.983773 106.31 0.179394 16.286 0.179394 16.286 0.983773 106.26
8.72900000 0.983773 106.31 0.179395 16.286 0.179395 16.286 0.983773 106.26
8.72905000 0.983772 106.31 0.179397 16.285 0.179397 16.285 0.983772 106.26
8.72910000 0.983772 106.31 0.179398 16.285 0.179398 16.285 0.983772 106.26
8.72915000 0.983772 106.31 0.179399 16.284 0.179399 16.284 0.983772 106.26
8.72920000 0.983772 106.31 0.179400 16.284 0.179400 16.284 0.983772 106.26
8.72925000 0.983772 106.31 0.179401 16.283 0.179401 16.283 0.983772 106.26
8.72930000 0.983771 106.31 0.179402 16.283 0.179402 16.283 0.983771 106.26
8.72935000 0.983771 106.31 0.179404 16.283 0.179404 16.283 0.983771 106.26
8.72940000 0.983771 106.31 0.179405 16.282 0.179405 16.282 0.983771 106.26
8.72945000 0.983771 106.30 0.179406 16.282 0.179406 16.282 0.983771 106.26
8.72950000 0.983770 106.30 0.179407 16.281 0.179407 16.281 0.983770 106.26
8.72955000 0.983770 106.30 0.179408 16.281 0.179408 16.281 0.983770 106.26
8.72960000 0.983770 106.30 0.179409 16.280 0.179409 16.280 0.983770 106.26
8.72965000 0.983770 106.30 0.179410 16.280 0.179410 16.280 0.983770 106.25
8.72970000 0.983770 106.30 0.179412 16.280 0.179412 16.280 0.983770 106.25
8.72975000 0.983769 106.30 0.179413 16.279 0.179413 16.279 0.983769 106.25
8.72980000 0.983769 106.30 0.179414 16.279 0.179414 16.279 0.983769 106.25
8.72985000 0.983769 106.30 0.179415 16.278 0.179415 16.278 0.983769 106.25
8.72990000 0.983769 106.30 0.179416 16.278 0.179416 16.278 0.983769 106.25
8.72995000 0.983769 106.30 0.179417 16.277 0.179417 16.277 0.983769 106.25
8.73000000 0.983768 106.30 0.179419 16.277 0.179419 16.277 0.983768 106.25
8.73005000 0.983768 106.30 0.179420 16.277 0.179420 16.277 0.983768 106.25
8.73010000 0.983768 106.30 0.179421 16.276 0.179421 16.276 0.983768 106.25
8.73015000 0.983768 106.30 0.179422 16.276 0.179422 16.276 0.983768 106.25
8.73020000 0.983768 106.30 0.179423 16.275 0.179423 16.275 0.983768 106.25
8.73025000 0.983767 106.30 0.179424 16.275 0.179424 16.275 0.983767 106.25
8.73030000 0.983767 106.30 0.179426 16.274 0.179426 16.274 0.983767 106.25
8.73035000 0.983767 106.30 0.179427 16.274 0.179427 16.274 0.983767 106.25
8.73040000 0.983767 106.30 0.179428 16.274 0.179428 16.274 0.983767 106.25
8.73045000 0.983766 106.30 0.179429 16.273 0.179429 16.273 0.983766 106.25
8.73050000 0.983766 106.30 0.179430 16.273 0.179430 16.273 0.983766 106.25
8.73055000 0.983766 106.30 0.179431 16.272 0.179431 16.272 0.983766 106.25
8.73060000 0.983766 106.29 0.179432 16.272 0.179432 16.272 0.983766 106.25
8.73065000 0.983766 106.29 0.179434 16.271 0.179434 16.271 0.983766 106.25
8.73070000 0.983765 106.29 0.179435 16.271 0.179435 16.271 0.983765 106.25
8.73075000 0.983765 106.29 0.179436 16.271 0.179436 16.271 0.983765 106.25
8.73080000 0.983765 106.29 0.179437 16.270 0.179437 16.270 0.983765 106.24
8.73085000 0.983765 106.29 0.179438 16.270 0.179438 16.270 0.983765 106.24
8.73090000 0.983765 106.29 0.179439 16.269 0.179439 16.269 0.983765 106.24
8.73095000 0.983764 106.29 0.179441 16.269 0.179441 16.269 0.983764 106.24
8.73100000 0.983764 106.29 0.179442 16.268 0.179442 16.268 0.983764 106.24
8.73105000 0.983764 106.29 0.179443 16.268 0.179443 16.268 0.983764 106.24
8.73110000 0.983764 106.29 0.179444 16.268 0.179444 16.268 0.983764 106.24
8.73115000 0.983763 106.29 0.179445 16.267 0.179445 16.267 0.983763 106.24
8.73120000 0.983763 106.29 0.179446 16.267 0.179446 16.267 0.983763 106.24
8.73125000 0.983763 106.29 0.179448 16.266 0.179448 16.266 0.983763 106.24
8.73130000 0.983763 106.29 0.179449 16.266 0.179449 16.266 0.983763 106.24
8.73135000 0.983763 106.29 0.179450 16.265 0.179450 16.265 0.983763 106.24
8.73140000 0.983762 106.29 0.179451 16.265 0.179451 16.265 0.983762 106.24
8.73145000 0.983762 106.29 0.179452 16.265 0.179452 16.265 0.983762 106.24
8.73150000 0.983762 106.29 0.179453 16.264 0.179453 16.264 0.983762 106.24
8.73155000 0.983762 106.29 0.179455 16.264 0.179455 16.264 0.983762 106.24
8.73160000 0.983762 106.29 0.179456 16.263 0.179456 16.263 0.983762 106.24
8.73165000 0.983761 106.29 0.179457 16.263 0.179457 16.263 0.983761 106.24
8.73170000 0.983761 106.29 0.179458 16.262 0.179458 16.262 0.983761 106.24
8.73175000 0.983761 106.28 0.179459 16.262 0.179459 16.262 0.983761 106.24
8.73180000 0.983761 106.28 0.179460 16.262 0.179460 16.262 0.983761 106.24
8.73185000 0.983761 106.28 0.179462 16.261 0.179462 16.261 0.983761 106.24
8.73190000 0.983760 106.28 0.179463 16.261 0.179463 16.261 0.983760 106.24
8.73195000 0.983760 106.28 0.179464 16.260 0.179464 16.260 0.983760 106.24
8.73200000 0.983760 106.28 0.179465 16.260 0.179465 16.260 0.983760 106.23
8.73205000 0.983760 106.28 0.179466 16.259 0.179466 16.259 0.983760 106.23
8.73210000 0.983759 106.28 0.179467 16.259 0.179467 16.259 0.983759 106.23
8.73215000 0.983759 106.28 0.179469 16.259 0.179469 16.259 0.983759 106.23
8.73220000 0.983759 106.28 0.179470 16.258 0.179470 16.258 0.983759 106.23
8.73225000 0.983759 106.28 0.179471 16.258 0.179471 16.258 0.983759 106.23
8.73230000 0.983759 106.28 0.179472 16.257 0.179472 16.257 0.983759 106.23
8.73235000 0.983758 106.28 0.179473 16.257 0.179473 16.257 0.983758 106.23
8.73240000 0.983758 106.28 0.179474 16.256 0.179474 16.256 0.983758 106.23
8.73245000 0.983758 106.28 0.179476 16.256 0.179476 16.256 0.983758 106.23
8.73250000 0.983758 106.28 0.179477 16.256 0.179477 16.256 0.983758 106.23
8.73255000 0.983758 106.28 0.179478 16.255 0.179478 16.255 0.983758 106.23
8.73260000 0.983757 106.28 0.179479 16.255 0.179479 16.255 0.983757 106.23
8.73265000 0.983757 106.28 0.179480 16.254 0.179480 16.254 0.983757 106.23
8.73270000 0.983757 106.28 0.179481 16.254 0.179481 16.254 0.983757 106.23
8.73275000 0.983757 106.28 0.179483 16.253 0.179483 16.253 0.983757 106.23
8.73280000 0.983756 106.28 0.179484 16.253 0.179484 16.253 0.983756 106.23
8.73285000 0.983756 106.28 0.179485 16.253 0.179485 16.253 0.983756 106.23
8.73290000 0.983756 106.28 0.179486 16.252 0.179486 16.252 0.983756 106.23
8.73295000 0.983756 106.27 0.179487 16.252 0.179487 16.252 0.983756 106.23
8.73300000 0.983756 106.27 0.179488 16.251 0.179488 16.251 0.983756 106.23
8.73305000 0.983755 106.27 0.179490 16.251 0.179490 16.251 0.983755 106.23
8.73310000 0.983755 106.27 0.179491 16.250 0.179491 16.250 0.983755 106.23
8.73315000 0.983755 106.27 0.179492 16.250 0.179492 16.250 0.983755 106.22
8.73320000 0.983755 106.27 0.179493 16.250 0.179493 16.250 0.983755 106.22
8.73325000 0.983755 106.27 0.179494 16.249 0.179494 16.249 0.983755 106.22
8.73330000 0.983754 106.27 0.179495 16.249 0.179495 16.249 0.983754 106.22
8.73335000 0.983754 106.27 0.179497 16.248 0.179497 16.248 0.983754 106.22
8.73340000 0.983754 106.27 0.179498 16.248 0.179498 16.248 0.983754 106.22
8.73345000 0.983754 106.27 0.179499 16.247 0.179499 16.247 0.983754 106.22
8.73350000 0.983753 106.27 0.179500 16.247 0.179500 16.247 0.983753 106.22
8.73355000 0.983753 106.27 0.179501 16.247 0.179501 16.247 0.983753 106.22
8.73360000 0.983753 106.27 0.179502 16.246 0.179502 16.246 0.983753 106.22
8.73365000 0.983753 106.27 0.179504 16.246 0.179504 16.246 0.983753 106.22
8.73370000 0.983753 106.27 0.179505 16.245 0.179505 16.245 0.983753 106.22
8.73375000 0.983752 106.27 0.179506 16.245 0.179506 16.245 0.983752 106.22
8.73380000 0.983752 106.27 0.179507 16.244 0.179507 16.244 0.983752 106.22
8.73385000 0.983752 106.27 0.179508 16.244 0.179508 16.244 0.983752 106.22
8.73390000 0.983752 106.27 0.179509 16.244 0.179509 16.244 0.983752 106.22
8.73395000 0.983752 106.27 0.179511 16.243 0.179511 16.243 0.983752 106.22
8.73400000 0.983751 106.27 0.179512 16.243 0.179512 16.243 0.983751 106.22
8.73405000 0.983751 106.27 0.179513 16.242 0.179513 16.242 0.983751 106.22
8.73410000 0.983751 106.26 0.179514 16.242 0.179514 16.242 0.983751 106.22
8.73415000 0.983751 106.26 0.179515 16.241 0.179515 16.241 0.983751 106.22
8.73420000 0.983750 106.26 0.179516 16.241 0.179516 16.241 0.983750 106.22
8.73425000 0.983750 106.26 0.179518 16.240 0.179518 16.240 0.983750 106.22
8.73430000 0.983750 106.26 0.179519 16.240 0.179519 16.240 0.983750 106.21
8.73435000 0.983750 106.26 0.179520 16.240 0.179520 16.240 0.983750 106.21
8.73440000 0.983750 106.26 0.179521 16.239 0.179521 16.239 0.983750 106.21
8.73445000 0.983749 106.26 0.179522 16.239 0.179522 16.239 0.983749 106.21
8.73450000 0.983749 106.26 0.179523 16.238 0.179523 16.238 0.983749 106.21
8.73455000 0.983749 106.26 0.179525 16.238 0.179525 16.238 0.983749 106.21
8.73460000 0.983749 106.26 0.179526 16.237 0.179526 16.237 0.983749 106.21
8.73465000 0.983749 106.26 0.179527 16.237 0.179527 16.237 0.983749 106.21
8.73470000 0.983748 106.26 0.179528 16.237 0.179528 16.237 0.983748 106.21
8.73475000 0.983748 106.26 0.179529 16.236 0.179529 16.236 0.983748 106.21
8.73480000 0.983748 106.26 0.179531 16.236 0.179531 16.236 0.983748 106.21
8.73485000 0.983748 106.26 0.179532 16.235 0.179532 16.235 0.983748 106.21
8.73490000 0.983747 106.26 0.179533 16.235 0.179533 16.235 0.983747 106.21
8.73495000 0.983747 106.26 0.179534 16.234 0.179534 16.234 0.983747 106.21
8.73500000 0.983747 106.26 0.179535 16.234 0.179535 16.234 0.983747 106.21
8.73505000 0.983747 106.26 0.179536 16.234 0.179536 16.234 0.983747 106.21
8.73510000 0.983747 106.26 0.179538 16.233 0.179538 16.233 0.983747 106.21
8.73515000 0.983746 106.26 0.179539 16.233 0.179539 16.233 0.983746 106.21
8.73520000 0.983746 106.26 0.179540 16.232 0.179540 16.232 0.983746 106.21
8.73525000 0.983746 106.25 0.179541 16.232 0.179541 16.232 0.983746 106.21
8.73530000 0.983746 106.25 0.179542 16.231 0.179542 16.231 0.983746 106.21
8.73535000 0.983746 106.25 0.179543 16.231 0.179543 16.231 0.983746 106.21
8.73540000 0.983745 106.25 0.179545 16.231 0.179545 16.231 0.983745 106.21
8.73545000 0.983745 106.25 0.179546 16.230 0.179546 16.230 0.983745 106.21
8.73550000 0.983745 106.25 0.179547 16.230 0.179547 16.230 0.983745 106.20
8.73555000 0.983745 106.25 0.179548 16.229 0.179548 16.229 0.983745 106.20
8.73560000 0.983744 106.25 0.179549 16.229 0.179549 16.229 0.983744 106.20
8.73565000 0.983744 106.25 0.179551 16.228 0.179551 16.228 0.983744 106.20
8.73570000 0.983744 106.25 0.179552 16.228 0.179552 16.228 0.983744 106.20
8.73575000 0.983744 106.25 0.179553 16.228 0.179553 16.228 0.983744 106.20
8.73580000 0.983744 106.25 0.179554 16.227 0.179554 16.227 0.983744 106.20
8.73585000 0.983743 106.25 0.179555 16.227 0.179555 16.227 0.983743 106.20
8.73590000 0.983743 106.25 0.179556 16.226 0.179556 16.226 0.983743 106.20
8.73595000 0.983743 106.25 0.179558 16.226 0.179558 16.226 0.983743 106.20
8.73600000 0.983743 106.25 0.179559 16.225 0.179559 16.225 0.983743 106.20
8.73605000 0.983743 106.25 0.179560 16.225 0.179560 16.225 0.983743 106.20
8.73610000 0.983742 106.25 0.179561 16.225 0.179561 16.225 0.983742 106.20
8.73615000 0.983742 106.25 0.179562 16.224 0.179562 16.224 0.983742 106.20
8.73620000 0.983742 106.25 0.179564 16.224 0.179564 16.224 0.983742 106.20
8.73625000 0.983742 106.25 0.179565 16.223 0.179565 16.223 0.983742 106.20
8.73630000 0.983741 106.25 0.179566 16.223 0.179566 16.223 0.983741 106.20
8.73635000 0.983741 106.25 0.179567 16.222 0.179567 16.222 0.983741 106.20
8.73640000 0.983741 106.24 0.179568 16.222 0.179568 16.222 0.983741 106.20
8.73645000 0.983741 106.24 0.179569 16.222 0.179569 16.222 0.983741 106.20
8.73650000 0.983741 106.24 0.179571 16.221 0.179571 16.221 0.983741 106.20
8.73655000 0.983740 106.24 0.179572 16.221 0.179572 16.221 0.983740 106.20
8.73660000 0.983740 106.24 0.179573 16.220 0.179573 16.220 0.983740 106.20
8.73665000 0.983740 106.24 0.179574 16.220 0.179574 16.220 0.983740 106.19
8.73670000 0.983740 106.24 0.179575 16.219 0.179575 16.219 0.983740 106.19
8.73675000 0.983739 106.24 0.179577 16.219 0.179577 16.219 0.983739 106.19
8.73680000 0.983739 106.24 0.179578 16.219 0.179578 16.219 0.983739 106.19
8.73685000 0.983739 106.24 0.179579 16.218 0.179579 16.218 0.983739 106.19
8.73690000 0.983739 106.24 0.179580 16.218 0.179580 16.218 0.983739 106.19
8.73695000 0.983739 106.24 0.179581 16.217 0.179581 16.217 0.983739 106.19
8.73700000 0.983738 106.24 0.179582 16.217 0.179582 16.217 0.983738 106.19
8.73705000 0.983738 106.24 0.179584 16.216 0.179584 16.216 0.983738 106.19
8.73710000 0.983738 106.24 0.179585 16.216 0.179585 16.216 0.983738 106.19
8.73715000 0.983738 106.24 0.179586 16.216 0.179586 16.216 0.983738 106.19
8.73720000 0.983738 106.24 0.179587 16.215 0.179587 16.215 0.983738 106.19
8.73725000 0.983737 106.24 0.179588 16.215 0.179588 16.215 0.983737 106.19
8.73730000 0.983737 106.24 0.179590 16.214 0.179590 16.214 0.983737 106.19
8.73735000 0.983737 106.24 0.179591 16.214 0.179591 16.214 0.983737 106.19
8.73740000 0.983737 106.24 0.179592 16.213 0.179592 16.213 0.983737 106.19
8.73745000 0.983736 106.24 0.179593 16.213 0.179593 16.213 0.983736 106.19
8.73750000 0.983736 106.24 0.179594 16.213 0.179594 16.213 0.983736 106.19
8.73755000 0.983736 106.24 0.179595 16.212 0.179595 16.212 0.983736 106.19
8.73760000 0.983736 106.23 0.179597 16.212 0.179597 16.212 0.983736 106.19
8.73765000 0.983736 106.23 0.179598 16.211 0.179598 16.211 0.983736 106.19
8.73770000 0.983735 106.23 0.179599 16.211 0.179599 16.211 0.983735 106.19
8.73775000 0.983735 106.23 0.179600 16.210 0.179600 16.210 0.983735 106.19
8.73780000 0.983735 106.23 0.179601 16.210 0.179601 16.210 0.983735 106.18
8.73785000 0.983735 106.23 0.179603 16.210 0.179603 16.210 0.983735 106.18
8.73790000 0.983735 106.23 0.179604 16.209 0.179604 16.209 0.983734 106.18
8.73795000 0.983734 106.23 0.179605 16.209 0.179605 16.209 0.983734 106.18
8.73800000 0.983734 106.23 0.179606 16.208 0.179606 16.208 0.983734 106.18
8.73805000 0.983734 106.23 0.179607 16.208 0.179607 16.208 0.983734 106.18
8.73810000 0.983734 106.23 0.179609 16.207 0.179609 16.207 0.983734 106.18
8.73815000 0.983733 106.23 0.179610 16.207 0.179610 16.207 0.983733 106.18
8.73820000 0.983733 106.23 0.179611 16.206 0.179611 16.206 0.983733 106.18
8.73825000 0.983733 106.23 0.179612 16.206 0.179612 16.206 0.983733 106.18
8.73830000 0.983733 106.23 0.179613 16.206 0.179613 16.206 0.983733 106.18
8.73835000 0.983733 106.23 0.179615 16.205 0.179615 16.205 0.983733 106.18
8.73840000 0.983732 106.23 0.179616 16.205 0.179616 16.205 0.983732 106.18
8.73845000 0.983732 106.23 0.179617 16.204 0.179617 16.204 0.983732 106.18
8.73850000 0.983732 106.23 0.179618 16.204 0.179618 16.204 0.983732 106.18
8.73855000 0.983732 106.23 0.179619 16.203 0.179619 16.203 0.983732 106.18
8.73860000 0.983731 106.23 0.179620 16.203 0.179620 16.203 0.983731 106.18
8.73865000 0.983731 106.23 0.179622 16.203 0.179622 16.203 0.983731 106.18
8.73870000 0.983731 106.23 0.179623 16.202 0.179623 16.202 0.983731 106.18
8.73875000 0.983731 106.22 0.179624 16.202 0.179624 16.202 0.983731 106.18
8.73880000 0.983731 106.22 0.179625 16.201 0.179625 16.201 0.983731 106.18
8.73885000 0.983730 106.22 0.179626 16.201 0.179626 16.201 0.983730 106.18
8.73890000 0.983730 106.22 0.179628 16.200 0.179628 16.200 0.983730 106.18
8.73895000 0.983730 106.22 0.179629 16.200 0.179629 16.200 0.983730 106.17
8.73900000 0.983730 106.22 0.179630 16.200 0.179630 16.200 0.983730 106.17
8.73905000 0.983729 106.22 0.179631 16.199 0.179631 16.199 0.983729 106.17
8.73910000 0.983729 106.22 0.179632 16.199 0.179632 16.199 0.983729 106.17
8.73915000 0.983729 106.22 0.179634 16.198 0.179634 16.198 0.983729 106.17
8.73920000 0.983729 106.22 0.179635 16.198 0.179635 16.198 0.983729 106.17
8.73925000 0.983729 106.22 0.179636 16.197 0.179636 16.197 0.983729 106.17
8.73930000 0.983728 106.22 0.179637 16.197 0.179637 16.197 0.983728 106.17
8.73935000 0.983728 106.22 0.179638 16.197 0.179638 16.197 0.983728 106.17
8.73940000 0.983728 106.22 0.179640 16.196 0.179640 16.196 0.983728 106.17
8.73945000 0.983728 106.22 0.179641 16.196 0.179641 16.196 0.983728 106.17
8.73950000 0.983728 106.22 0.179642 16.195 0.179642 16.195 0.983728 106.17
8.73955000 0.983727 106.22 0.179643 16.195 0.179643 16.195 0.983727 106.17
8.73960000 0.983727 106.22 0.179644 16.194 0.179644 16.194 0.983727 106.17