! Sonnet Data File
! From: emgraph Version : 16.52
! From Project: 171114transmon_trace_brg
! Data is De-embedded 
! Data File Written: 11/14/2017 17:50:13
!< HDATE 11/14/2017 14:11:39
!< MDATE 11/14/2017 14:11:39
!< PARAMS
!< Lj = 15.24
!< Gap = 14.0
!< Width = 10.0
!< Airgap = 6.0
!< Pwidth = 2000.0
!< Dist = 1600.0
!< END PARAMS
# GHZ S MA R 34.87000
8.615000000000000 0.9966704422088 131.92293115608 0.0815054284637 41.925290134499 0.0815054284770 41.925290137606 0.9966704457927 131.92586112397
!< P1 F=8.615 Eeff=(5.13377404 -5.6313e-5) Z0=(34.6595714 -9.1612e-5) R=0.0 C=0.0 
!< P2 F=8.615 Eeff=(5.13377404 -5.6313e-5) Z0=(34.6595714 -9.1612e-5) R=0.0 C=0.0 
8.615005000000000 0.9966704274011 131.92289585385 0.0815056043441 41.925254523811 0.0815056043441 41.925254523811 0.9966704309090 131.92582587300
8.615010000000000 0.9966704125743 131.92286056285 0.0815057800871 41.925218944277 0.0815057800871 41.925218944277 0.9966704160859 131.92579063849
8.615015000000001 0.9966703977339 131.92282526296 0.0815059559843 41.925183355222 0.0815059559843 41.925183355222 0.9966704012492 131.92575539514
8.615020000000001 0.9966703828798 131.92278995415 0.0815061320358 41.925147756620 0.0815061320358 41.925147756620 0.9966703863990 131.92572014296
8.615025000000001 0.9966703680122 131.92275463640 0.0815063082424 41.925112148432 0.0815063082424 41.925112148432 0.9966703715350 131.92568488190
8.615030000000001 0.9966703531308 131.92271930969 0.0815064846040 41.925076530662 0.0815064846040 41.925076530662 0.9966703566574 131.92564961197
8.615035000000001 0.9966703382357 131.92268397402 0.0815066611211 41.925040903273 0.0815066611211 41.925040903273 0.9966703417661 131.92561433313
8.615040000000000 0.9966703233269 131.92264862935 0.0815068377938 41.925005266258 0.0815068377938 41.925005266258 0.9966703268611 131.92557904537
8.615045000000000 0.9966703084044 131.92261327568 0.0815070146227 41.924969619595 0.0815070146227 41.924969619595 0.9966703119423 131.92554374868
8.615050000000000 0.9966702934680 131.92257791298 0.0815071916079 41.924933963254 0.0815071916079 41.924933963254 0.9966702970097 131.92550844304
8.615055000000000 0.9966702785178 131.92254254123 0.0815073687499 41.924898297232 0.0815073687499 41.924898297232 0.9966702820633 131.92547312842
8.615060000000000 0.9966702635538 131.92250716042 0.0815075460488 41.924862621502 0.0815075460488 41.924862621502 0.9966702671031 131.92543780482
8.615065000000001 0.9966702485759 131.92247177054 0.0815077235050 41.924826936038 0.0815077235050 41.924826936038 0.9966702521290 131.92540247220
8.615070000000001 0.9966702335841 131.92243637156 0.0815079011186 41.924791240833 0.0815079011186 41.924791240833 0.9966702371410 131.92536713058
8.615075000000001 0.9966702185784 131.92240096345 0.0815080788906 41.924755535838 0.0815080788906 41.924755535838 0.9966702221391 131.92533177988
8.615080000000001 0.9966702035587 131.92236554622 0.0815082568205 41.924719821075 0.0815082568205 41.924719821075 0.9966702071232 131.92529642015
8.615085000000001 0.9966701885250 131.92233011985 0.0815084349089 41.924684096507 0.0815084349089 41.924684096507 0.9966701920934 131.92526105134
8.615090000000000 0.9966701734773 131.92229468429 0.0815086131564 41.924648362100 0.0815086131564 41.924648362100 0.9966701770496 131.92522567342
8.615095000000000 0.9966701584156 131.92225923955 0.0815087915629 41.924612617853 0.0815087915629 41.924612617853 0.9966701619917 131.92519028640
8.615100000000000 0.9966701433398 131.92222378560 0.0815089701289 41.924576863733 0.0815089701289 41.924576863733 0.9966701469197 131.92515489024
8.615105000000000 0.9966701282499 131.92218832244 0.0815091488546 41.924541099729 0.0815091488546 41.924541099729 0.9966701318337 131.92511948494
8.615110000000001 0.9966701131458 131.92215285003 0.0815093277405 41.924505325816 0.0815093277405 41.924505325816 0.9966701167335 131.92508407047
8.615115000000001 0.9966700980276 131.92211736835 0.0815095067870 41.924469541976 0.0815095067870 41.924469541975 0.9966701016192 131.92504864681
8.615120000000001 0.9966700828953 131.92208187740 0.0815096859941 41.924433748187 0.0815096859941 41.924433748187 0.9966700864907 131.92501321394
8.615125000000001 0.9966700677486 131.92204637715 0.0815098653624 41.924397944423 0.0815098653624 41.924397944423 0.9966700713480 131.92497777185
8.615130000000001 0.9966700525878 131.92201086759 0.0815100448918 41.924362130684 0.0815100448918 41.924362130684 0.9966700561911 131.92494232053
8.615135000000000 0.9966700374127 131.92197534869 0.0815102245832 41.924326306918 0.0815102245832 41.924326306918 0.9966700410199 131.92490685993
8.615140000000000 0.9966700222232 131.92193982043 0.0815104044367 41.924290473131 0.0815104044367 41.924290473131 0.9966700258344 131.92487139006
8.615145000000000 0.9966700070195 131.92190428281 0.0815105844523 41.924254629292 0.0815105844523 41.924254629292 0.9966700106345 131.92483591090
8.615150000000000 0.9966699918013 131.92186873579 0.0815107646308 41.924218775381 0.0815107646308 41.924218775381 0.9966699954204 131.92480042242
8.615155000000000 0.9966699765688 131.92183317937 0.0815109449722 41.924182911379 0.0815109449722 41.924182911379 0.9966699801918 131.92476492460
8.615160000000001 0.9966699613219 131.92179761351 0.0815111254771 41.924147037260 0.0815111254771 41.924147037260 0.9966699649488 131.92472941743
8.615165000000001 0.9966699460605 131.92176203821 0.0815113061455 41.924111153019 0.0815113061455 41.924111153019 0.9966699496914 131.92469390090
8.615170000000001 0.9966699307846 131.92172645344 0.0815114869779 41.924075258608 0.0815114869779 41.924075258608 0.9966699344195 131.92465837497
8.615175000000001 0.9966699154942 131.92169085919 0.0815116679747 41.924039354030 0.0815116679747 41.924039354030 0.9966699191331 131.92462283963
8.615180000000001 0.9966699001893 131.92165525544 0.0815118491361 41.924003439267 0.0815118491361 41.924003439267 0.9966699038321 131.92458729487
8.615185000000000 0.9966698848698 131.92161964216 0.0815120304624 41.923967514272 0.0815120304624 41.923967514272 0.9966698885166 131.92455174066
8.615190000000000 0.9966698695357 131.92158401934 0.0815122119541 41.923931579057 0.0815122119541 41.923931579057 0.9966698731865 131.92451617699
8.615195000000000 0.9966698541869 131.92154838694 0.0815123936117 41.923895633541 0.0815123936117 41.923895633541 0.9966698578418 131.92448060381
8.615200000000000 0.9966698388236 131.92151274499 0.0815125754349 41.923859677786 0.0815125754349 41.923859677786 0.9966698424824 131.92444502116
8.615205000000001 0.9966698234455 131.92147709343 0.0815127574246 41.923823711716 0.0815127574246 41.923823711716 0.9966698271084 131.92440942897
8.615210000000001 0.9966698080527 131.92144143224 0.0815129395809 41.923787735321 0.0815129395809 41.923787735321 0.9966698117196 131.92437382724
8.615215000000001 0.9966697926451 131.92140576143 0.0815131219041 41.923751748588 0.0815131219041 41.923751748588 0.9966697963161 131.92433821595
8.615220000000001 0.9966697772227 131.92137008095 0.0815133043947 41.923715751485 0.0815133043947 41.923715751485 0.9966697808978 131.92430259508
8.615225000000001 0.9966697617856 131.92133439079 0.0815134870530 41.923679743999 0.0815134870530 41.923679743999 0.9966697654647 131.92426696461
8.615230000000000 0.9966697463336 131.92129869093 0.0815136698794 41.923643726083 0.0815136698794 41.923643726083 0.9966697500168 131.92423132451
8.615235000000000 0.9966697308667 131.92126298136 0.0815138528740 41.923607697752 0.0815138528740 41.923607697752 0.9966697345539 131.92419567478
8.615240000000000 0.9966697153849 131.92122726206 0.0815140360371 41.923571658985 0.0815140360371 41.923571658985 0.9966697190763 131.92416001540
8.615245000000000 0.9966696998882 131.92119153300 0.0815142193694 41.923535609730 0.0815142193694 41.923535609730 0.9966697035836 131.92412434634
8.615250000000001 0.9966696843765 131.92115579417 0.0815144028710 41.923499549982 0.0815144028710 41.923499549982 0.9966696880761 131.92408866758
8.615255000000001 0.9966696688498 131.92112004553 0.0815145865425 41.923463479702 0.0815145865425 41.923463479702 0.9966696725535 131.92405297910
8.615260000000001 0.9966696533080 131.92108428708 0.0815147703838 41.923427398903 0.0815147703838 41.923427398903 0.9966696570159 131.92401728089
8.615265000000001 0.9966696377512 131.92104851879 0.0815149543958 41.923391307523 0.0815149543958 41.923391307523 0.9966696414632 131.92398157291
8.615270000000001 0.9966696221793 131.92101274066 0.0815151385782 41.923355205575 0.0815151385782 41.923355205575 0.9966696258954 131.92394585516
8.615275000000000 0.9966696065923 131.92097695265 0.0815153229317 41.923319093026 0.0815153229317 41.923319093026 0.9966696103126 131.92391012763
8.615280000000000 0.9966695909902 131.92094115474 0.0815155074567 41.923282969840 0.0815155074567 41.923282969840 0.9966695947146 131.92387439027
8.615285000000000 0.9966695753728 131.92090534692 0.0815156921536 41.923246836012 0.0815156921536 41.923246836012 0.9966695791014 131.92383864308
8.615290000000000 0.9966695597402 131.92086952916 0.0815158770224 41.923210691510 0.0815158770224 41.923210691510 0.9966695634730 131.92380288603
8.615295000000000 0.9966695440924 131.92083370144 0.0815160620639 41.923174536303 0.0815160620639 41.923174536303 0.9966695478293 131.92376711910
8.615300000000001 0.9966695284293 131.92079786375 0.0815162472782 41.923138370387 0.0815162472782 41.923138370387 0.9966695321704 131.92373134228
8.615305000000001 0.9966695127509 131.92076201607 0.0815164326655 41.923102193738 0.0815164326655 41.923102193738 0.9966695164962 131.92369555555
8.615310000000001 0.9966694970571 131.92072615837 0.0815166182265 41.923066006322 0.0815166182265 41.923066006322 0.9966695008066 131.92365975887
8.615315000000001 0.9966694813479 131.92069029063 0.0815168039613 41.923029808124 0.0815168039613 41.923029808124 0.9966694851017 131.92362395225
8.615320000000001 0.9966694656233 131.92065441283 0.0815169898704 41.922993599115 0.0815169898704 41.922993599115 0.9966694693813 131.92358813564
8.615325000000000 0.9966694498833 131.92061852496 0.0815171759540 41.922957379293 0.0815171759540 41.922957379293 0.9966694536456 131.92355230904
8.615330000000000 0.9966694341278 131.92058262698 0.0815173622127 41.922921148596 0.0815173622127 41.922921148597 0.9966694378943 131.92351647241
8.615335000000000 0.9966694183568 131.92054671888 0.0815175486468 41.922884907026 0.0815175486468 41.922884907026 0.9966694221275 131.92348062575
8.615340000000000 0.9966694025703 131.92051080065 0.0815177352563 41.922848654574 0.0815177352563 41.922848654574 0.9966694063453 131.92344476904
8.615345000000001 0.9966693867681 131.92047487226 0.0815179220419 41.922812391194 0.0815179220419 41.922812391194 0.9966693905474 131.92340890224
8.615350000000001 0.9966693709504 131.92043893368 0.0815181090040 41.922776116872 0.0815181090040 41.922776116872 0.9966693747340 131.92337302534
8.615355000000001 0.9966693551170 131.92040298489 0.0815182961429 41.922739831573 0.0815182961429 41.922739831573 0.9966693589049 131.92333713832
8.615360000000001 0.9966693392679 131.92036702590 0.0815184834588 41.922703535298 0.0815184834588 41.922703535298 0.9966693430601 131.92330124117
8.615365000000001 0.9966693234032 131.92033105664 0.0815186709522 41.922667228003 0.0815186709522 41.922667228003 0.9966693271997 131.92326533384
8.615370000000000 0.9966693075227 131.92029507713 0.0815188586235 41.922630909673 0.0815188586235 41.922630909673 0.9966693113235 131.92322941634
8.615375000000000 0.9966692916264 131.92025908733 0.0815190464730 41.922594580281 0.0815190464730 41.922594580281 0.9966692954315 131.92319348863
8.615380000000000 0.9966692757143 131.92022308722 0.0815192345012 41.922558239804 0.0815192345012 41.922558239804 0.9966692795238 131.92315755069
8.615385000000000 0.9966692597864 131.92018707678 0.0815194227081 41.922521888224 0.0815194227081 41.922521888224 0.9966692636002 131.92312160251
8.615390000000000 0.9966692438426 131.92015105599 0.0815196110944 41.922485525522 0.0815196110944 41.922485525522 0.9966692476608 131.92308564406
8.615395000000001 0.9966692278829 131.92011502484 0.0815197996603 41.922449151659 0.0815197996603 41.922449151659 0.9966692317054 131.92304967533
8.615400000000001 0.9966692119072 131.92007898329 0.0815199884064 41.922412766622 0.0815199884064 41.922412766622 0.9966692157341 131.92301369629
8.615405000000001 0.9966691959156 131.92004293131 0.0815201773330 41.922376370375 0.0815201773330 41.922376370375 0.9966691997469 131.92297770690
8.615410000000001 0.9966691799079 131.92000686891 0.0815203664404 41.922339962896 0.0815203664404 41.922339962896 0.9966691837436 131.92294170717
8.615415000000000 0.9966691638842 131.91997079604 0.0815205557290 41.922303544182 0.0815205557290 41.922303544182 0.9966691677243 131.92290569706
8.615420000000000 0.9966691478445 131.91993471270 0.0815207451990 41.922267114197 0.0815207451990 41.922267114196 0.9966691516890 131.92286967656
8.615425000000000 0.9966691317886 131.91989861886 0.0815209348510 41.922230672911 0.0815209348510 41.922230672911 0.9966691356375 131.92283364564
8.615430000000000 0.9966691157166 131.91986251449 0.0815211246853 41.922194220309 0.0815211246853 41.922194220309 0.9966691195699 131.92279760429
8.615435000000000 0.9966690996284 131.91982639958 0.0815213147023 41.922157756356 0.0815213147023 41.922157756356 0.9966691034862 131.92276155247
8.615440000000001 0.9966690835239 131.91979027410 0.0815215049024 41.922121281035 0.0815215049024 41.922121281035 0.9966690873862 131.92272549018
8.615445000000001 0.9966690674033 131.91975413803 0.0815216952859 41.922084794325 0.0815216952859 41.922084794325 0.9966690712700 131.92268941737
8.615450000000001 0.9966690512663 131.91971799135 0.0815218858532 41.922048296193 0.0815218858532 41.922048296193 0.9966690551375 131.92265333405
8.615455000000001 0.9966690351130 131.91968183405 0.0815220766046 41.922011786623 0.0815220766046 41.922011786623 0.9966690389887 131.92261724018
8.615460000000001 0.9966690189434 131.91964566608 0.0815222675408 41.921975265578 0.0815222675408 41.921975265578 0.9966690228235 131.92258113573
8.615465000000000 0.9966690027573 131.91960948744 0.0815224586619 41.921938733050 0.0815224586619 41.921938733050 0.9966690066420 131.92254502070
8.615470000000000 0.9966689865549 131.91957329809 0.0815226499685 41.921902188987 0.0815226499685 41.921902188987 0.9966689904441 131.92250889504
8.615475000000000 0.9966689703360 131.91953709803 0.0815228414606 41.921865633418 0.0815228414606 41.921865633418 0.9966689742297 131.92247275876
8.615480000000000 0.9966689541005 131.91950088721 0.0815230331391 41.921829066250 0.0815230331391 41.921829066250 0.9966689579988 131.92243661181
8.615485000000001 0.9966689378486 131.91946466564 0.0815232250039 41.921792487510 0.0815232250039 41.921792487510 0.9966689417514 131.92240045419
8.615490000000001 0.9966689215801 131.91942843327 0.0815234170558 41.921755897144 0.0815234170558 41.921755897144 0.9966689254874 131.92236428586
8.615495000000001 0.9966689052950 131.91939219010 0.0815236092949 41.921719295149 0.0815236092949 41.921719295149 0.9966689092068 131.92232810681
8.615500000000001 0.9966688889932 131.91935593609 0.0815238017217 41.921682681482 0.0815238017217 41.921682681482 0.9966688929096 131.92229191702
8.615505000000001 0.9966688726748 131.91931967122 0.0815239943366 41.921646056131 0.0815239943366 41.921646056131 0.9966688765958 131.92225571644
8.615510000000000 0.9966688563396 131.91928339548 0.0815241871400 41.921609419060 0.0815241871400 41.921609419060 0.9966688602652 131.92221950508
8.615515000000000 0.9966688399877 131.91924710883 0.0815243801322 41.921572770261 0.0815243801322 41.921572770261 0.9966688439180 131.92218328292
8.615520000000000 0.9966688236190 131.91921081124 0.0815245733140 41.921536109660 0.0815245733140 41.921536109660 0.9966688275539 131.92214704989
8.615525000000000 0.9966688072336 131.91917450272 0.0815247666852 41.921499437301 0.0815247666852 41.921499437301 0.9966688111730 131.92211080602
8.615530000000000 0.9966687908312 131.91913818323 0.0815249602464 41.921462753115 0.0815249602464 41.921462753115 0.9966687947753 131.92207455127
8.615535000000001 0.9966687744120 131.91910185274 0.0815251539983 41.921426057083 0.0815251539983 41.921426057083 0.9966687783607 131.92203828560
8.615540000000001 0.9966687579758 131.91906551122 0.0815253479411 41.921389349181 0.0815253479411 41.921389349181 0.9966687619291 131.92200200900
8.615545000000001 0.9966687415226 131.91902915867 0.0815255420751 41.921352629392 0.0815255420751 41.921352629392 0.9966687454807 131.92196572145
8.615550000000001 0.9966687250525 131.91899279506 0.0815257364008 41.921315897678 0.0815257364008 41.921315897678 0.9966687290152 131.92192942293
8.615555000000001 0.9966687085653 131.91895642036 0.0815259309185 41.921279154028 0.0815259309185 41.921279154028 0.9966687125327 131.92189311341
8.615560000000000 0.9966686920611 131.91892003455 0.0815261256287 41.921242398398 0.0815261256287 41.921242398398 0.9966686960331 131.92185679287
8.615565000000000 0.9966686755397 131.91888363760 0.0815263205318 41.921205630778 0.0815263205318 41.921205630778 0.9966686795165 131.92182046129
8.615570000000000 0.9966686590012 131.91884722950 0.0815265156283 41.921168851125 0.0815265156283 41.921168851125 0.9966686629826 131.92178411863
8.615575000000000 0.9966686424455 131.91881081021 0.0815267109184 41.921132059426 0.0815267109184 41.921132059426 0.9966686464316 131.92174776488
8.615580000000001 0.9966686258725 131.91877437972 0.0815269064027 41.921095255654 0.0815269064027 41.921095255654 0.9966686298634 131.92171140002
8.615585000000001 0.9966686092823 131.91873793800 0.0815271020815 41.921058439776 0.0815271020815 41.921058439776 0.9966686132780 131.92167502402
8.615590000000001 0.9966685926748 131.91870148502 0.0815272979553 41.921021611774 0.0815272979553 41.921021611774 0.9966685966752 131.92163863686
8.615595000000001 0.9966685760500 131.91866502077 0.0815274940245 41.920984771612 0.0815274940245 41.920984771612 0.9966685800552 131.92160223850
8.615600000000001 0.9966685594077 131.91862854522 0.0815276902895 41.920947919260 0.0815276902895 41.920947919260 0.9966685634177 131.92156582894
8.615605000000000 0.9966685427481 131.91859205835 0.0815278867505 41.920911054723 0.0815278867505 41.920911054723 0.9966685467629 131.92152940815
8.615610000000000 0.9966685260710 131.91855556011 0.0815280834084 41.920874177924 0.0815280834084 41.920874177924 0.9966685300906 131.92149297609
8.615615000000000 0.9966685093765 131.91851905052 0.0815282802631 41.920837288880 0.0815282802631 41.920837288880 0.9966685134008 131.92145653277
8.615620000000000 0.9966684926643 131.91848252952 0.0815284773155 41.920800387529 0.0815284773155 41.920800387529 0.9966684966935 131.92142007811
8.615625000000001 0.9966684759346 131.91844599709 0.0815286745657 41.920763473873 0.0815286745657 41.920763473873 0.9966684799686 131.92138361214
8.615630000000001 0.9966684591874 131.91840945324 0.0815288720140 41.920726547884 0.0815288720140 41.920726547884 0.9966684632262 131.92134713483
8.615635000000001 0.9966684424224 131.91837289791 0.0815290696611 41.920689609517 0.0815290696611 41.920689609517 0.9966684464661 131.92131064612
8.615640000000001 0.9966684256398 131.91833633108 0.0815292675073 41.920652658757 0.0815292675073 41.920652658757 0.9966684296883 131.92127414602
8.615645000000001 0.9966684088395 131.91829975273 0.0815294655533 41.920615695566 0.0815294655533 41.920615695566 0.9966684128929 131.92123763449
8.615650000000000 0.9966683920214 131.91826316283 0.0815296637991 41.920578719933 0.0815296637991 41.920578719933 0.9966683960797 131.92120111150
8.615655000000000 0.9966683751855 131.91822656139 0.0815298622451 41.920541731826 0.0815298622451 41.920541731826 0.9966683792487 131.92116457706
8.615660000000000 0.9966683583318 131.91818994832 0.0815300608924 41.920504731193 0.0815300608924 41.920504731193 0.9966683623998 131.92112803109
8.615665000000000 0.9966683414602 131.91815332365 0.0815302597408 41.920467718047 0.0815302597408 41.920467718047 0.9966683455331 131.92109147361
8.615670000000000 0.9966683245706 131.91811668734 0.0815304587909 41.920430692327 0.0815304587909 41.920430692327 0.9966683286485 131.92105490457
8.615675000000001 0.9966683076631 131.91808003935 0.0815306580432 41.920393654009 0.0815306580432 41.920393654009 0.9966683117459 131.92101832396
8.615680000000001 0.9966682907376 131.91804337968 0.0815308574980 41.920356603086 0.0815308574980 41.920356603086 0.9966682948254 131.92098173176
8.615685000000001 0.9966682737941 131.91800670828 0.0815310571559 41.920319539508 0.0815310571559 41.920319539508 0.9966682778868 131.92094512792
8.615690000000001 0.9966682568325 131.91797002514 0.0815312570172 41.920282463272 0.0815312570172 41.920282463272 0.9966682609301 131.92090851244
8.615695000000001 0.9966682398527 131.91793333024 0.0815314570823 41.920245374336 0.0815314570823 41.920245374336 0.9966682439554 131.92087188529
8.615700000000000 0.9966682228548 131.91789662352 0.0815316573521 41.920208272643 0.0815316573521 41.920208272643 0.9966682269625 131.92083524642
8.615705000000000 0.9966682058387 131.91785990500 0.0815318578264 41.920171158213 0.0815318578264 41.920171158213 0.9966682099514 131.92079859584
8.615710000000000 0.9966681888044 131.91782317465 0.0815320585057 41.920134031005 0.0815320585057 41.920134031005 0.9966681929221 131.92076193353
8.615715000000000 0.9966681717518 131.91778643239 0.0815322593911 41.920096890961 0.0815322593911 41.920096890961 0.9966681758745 131.92072525941
8.615720000000001 0.9966681546809 131.91774967826 0.0815324604823 41.920059738095 0.0815324604823 41.920059738095 0.9966681588086 131.92068857350
8.615725000000001 0.9966681375916 131.91771291221 0.0815326617800 41.920022572348 0.0815326617800 41.920022572348 0.9966681417243 131.92065187578
8.615730000000001 0.9966681204839 131.91767613420 0.0815328632850 41.919985393698 0.0815328632850 41.919985393698 0.9966681246217 131.92061516618
8.615735000000001 0.9966681033577 131.91763934422 0.0815330649972 41.919948202127 0.0815330649972 41.919948202127 0.9966681075006 131.92057844472
8.615740000000001 0.9966680862131 131.91760254226 0.0815332669171 41.919910997609 0.0815332669171 41.919910997609 0.9966680903611 131.92054171137
8.615745000000000 0.9966680690500 131.91756572825 0.0815334690457 41.919873780084 0.0815334690457 41.919873780084 0.9966680732030 131.92050496607
8.615750000000000 0.9966680518682 131.91752890219 0.0815336713832 41.919836549538 0.0815336713832 41.919836549538 0.9966680560264 131.92046820881
8.615755000000000 0.9966680346679 131.91749206406 0.0815338739296 41.919799305965 0.0815338739296 41.919799305965 0.9966680388312 131.92043143959
8.615760000000000 0.9966680174489 131.91745521383 0.0815340766857 41.919762049331 0.0815340766857 41.919762049331 0.9966680216173 131.92039465835
8.615765000000000 0.9966680002112 131.91741835145 0.0815342796522 41.919724779561 0.0815342796522 41.919724779561 0.9966680043848 131.92035786508
8.615770000000001 0.9966679829549 131.91738147693 0.0815344828292 41.919687496681 0.0815344828292 41.919687496681 0.9966679871335 131.92032105975
8.615775000000001 0.9966679656797 131.91734459022 0.0815346862172 41.919650200639 0.0815346862172 41.919650200639 0.9966679698635 131.92028424234
8.615780000000001 0.9966679483857 131.91730769131 0.0815348898168 41.919612891397 0.0815348898168 41.919612891397 0.9966679525747 131.92024741281
8.615785000000001 0.9966679310728 131.91727078014 0.0815350936285 41.919575568931 0.0815350936285 41.919575568931 0.9966679352670 131.92021057114
8.615790000000001 0.9966679137410 131.91723385673 0.0815352976526 41.919538233223 0.0815352976526 41.919538233223 0.9966679179404 131.92017371730
8.615795000000000 0.9966678963903 131.91719692101 0.0815355018896 41.919500884233 0.0815355018896 41.919500884233 0.9966679005949 131.92013685128
8.615800000000000 0.9966678790206 131.91715997299 0.0815357063400 41.919463521927 0.0815357063400 41.919463521927 0.9966678832304 131.92009997304
8.615805000000000 0.9966678616319 131.91712301262 0.0815359110042 41.919426146289 0.0815359110042 41.919426146289 0.9966678658469 131.92006308255
8.615810000000000 0.9966678442241 131.91708603988 0.0815361158827 41.919388757282 0.0815361158827 41.919388757282 0.9966678484444 131.92002617980
8.615815000000001 0.9966678267972 131.91704905474 0.0815363209761 41.919351354870 0.0815363209761 41.919351354870 0.9966678310227 131.91998926474
8.615820000000001 0.9966678093511 131.91701205718 0.0815365262846 41.919313939029 0.0815365262846 41.919313939030 0.9966678135819 131.91995233736
8.615825000000001 0.9966677918858 131.91697504716 0.0815367318091 41.919276509717 0.0815367318091 41.919276509717 0.9966677961219 131.91991539762
8.615830000000001 0.9966677744013 131.91693802466 0.0815369375496 41.919239066928 0.0815369375496 41.919239066928 0.9966677786426 131.91987844551
8.615835000000001 0.9966677568974 131.91690098966 0.0815371435068 41.919201610616 0.0815371435068 41.919201610616 0.9966677611441 131.91984148099
8.615840000000000 0.9966677393743 131.91686394212 0.0815373496812 41.919164140743 0.0815373496812 41.919164140743 0.9966677436262 131.91980450404
8.615845000000000 0.9966677218318 131.91682688202 0.0815375560732 41.919126657298 0.0815375560732 41.919126657298 0.9966677260890 131.91976751462
8.615850000000000 0.9966677042698 131.91678980932 0.0815377626835 41.919089160224 0.0815377626835 41.919089160224 0.9966677085324 131.91973051271
8.615855000000000 0.9966676866884 131.91675272404 0.0815379695119 41.919051649529 0.0815379695119 41.919051649529 0.9966676909564 131.91969349831
8.615860000000001 0.9966676690874 131.91671562607 0.0815381765600 41.919014125133 0.0815381765600 41.919014125133 0.9966676733608 131.91965647133
8.615865000000001 0.9966676514670 131.91667851545 0.0815383838272 41.918976587057 0.0815383838272 41.918976587057 0.9966676557457 131.91961943180
8.615870000000001 0.9966676338269 131.91664139211 0.0815385913148 41.918939035223 0.0815385913148 41.918939035223 0.9966676381110 131.91958237965
8.615875000000001 0.9966676161671 131.91660425606 0.0815387990225 41.918901469631 0.0815387990225 41.918901469631 0.9966676204566 131.91954531490
8.615880000000001 0.9966675984877 131.91656710724 0.0815390069517 41.918863890220 0.0815390069517 41.918863890220 0.9966676027826 131.91950823747
8.615885000000000 0.9966675807885 131.91652994564 0.0815392151021 41.918826296999 0.0815392151021 41.918826296999 0.9966675850889 131.91947114738
8.615890000000000 0.9966675630696 131.91649277123 0.0815394234746 41.918788689907 0.0815394234746 41.918788689907 0.9966675673754 131.91943404457
8.615895000000000 0.9966675453308 131.91645558396 0.0815396320697 41.918751068904 0.0815396320697 41.918751068904 0.9966675496421 131.91939692901
8.615900000000000 0.9966675275722 131.91641838385 0.0815398408874 41.918713434012 0.0815398408874 41.918713434012 0.9966675318889 131.91935980070
8.615905000000000 0.9966675097937 131.91638117082 0.0815400499288 41.918675785134 0.0815400499288 41.918675785134 0.9966675141158 131.91932265958
8.615910000000001 0.9966674919952 131.91634394486 0.0815402591943 41.918638122270 0.0815402591943 41.918638122270 0.9966674963228 131.91928550564
8.615915000000001 0.9966674741767 131.91630670594 0.0815404686843 41.918600445380 0.0815404686843 41.918600445380 0.9966674785098 131.91924833884
8.615920000000001 0.9966674563381 131.91626945404 0.0815406783992 41.918562754428 0.0815406783992 41.918562754428 0.9966674606767 131.91921115916
8.615925000000001 0.9966674384794 131.91623218913 0.0815408883395 41.918525049411 0.0815408883395 41.918525049411 0.9966674428236 131.91917396658
8.615930000000001 0.9966674206006 131.91619491117 0.0815410985058 41.918487330266 0.0815410985058 41.918487330266 0.9966674249504 131.91913676106
8.615935000000000 0.9966674027016 131.91615762013 0.0815413088988 41.918449596955 0.0815413088988 41.918449596955 0.9966674070569 131.91909954256
8.615940000000000 0.9966673847824 131.91612031601 0.0815415195184 41.918411849489 0.0815415195184 41.918411849489 0.9966673891433 131.91906231108
8.615945000000000 0.9966673668429 131.91608299875 0.0815417303657 41.918374087782 0.0815417303657 41.918374087782 0.9966673712093 131.91902506657
8.615950000000000 0.9966673488831 131.91604566833 0.0815419414409 41.918336311841 0.0815419414409 41.918336311841 0.9966673532551 131.91898780900
8.615955000000001 0.9966673309028 131.91600832471 0.0815421527447 41.918298521609 0.0815421527447 41.918298521609 0.9966673352804 131.91895053835
8.615960000000001 0.9966673129022 131.91597096788 0.0815423642774 41.918260717073 0.0815423642774 41.918260717073 0.9966673172854 131.91891325459
8.615965000000001 0.9966672948811 131.91593359779 0.0815425760400 41.918222898164 0.0815425760400 41.918222898164 0.9966672992699 131.91887595766
8.615970000000001 0.9966672768395 131.91589621443 0.0815427880323 41.918185064901 0.0815427880323 41.918185064901 0.9966672812339 131.91883864759
8.615975000000001 0.9966672587772 131.91585881776 0.0815430002554 41.918147217197 0.0815430002554 41.918147217197 0.9966672631774 131.91880132430
8.615980000000000 0.9966672406944 131.91582140775 0.0815432127093 41.918109355065 0.0815432127093 41.918109355065 0.9966672451002 131.91876398779
8.615985000000000 0.9966672225910 131.91578398438 0.0815434253949 41.918071478456 0.0815434253949 41.918071478456 0.9966672270024 131.91872663802
8.615990000000000 0.9966672044668 131.91574654761 0.0815436383126 41.918033587327 0.0815436383126 41.918033587327 0.9966672088840 131.91868927496
8.615995000000000 0.9966671863218 131.91570909740 0.0815438514631 41.917995681644 0.0815438514631 41.917995681644 0.9966671907447 131.91865189857
8.616000000000000 0.9966671681561 131.91567163374 0.0815440648466 41.917957761387 0.0815440648466 41.917957761387 0.9966671725847 131.91861450884