! Sonnet Data File
! From: emgraph Version : 16.52
! From Project: transmon_brgOdd
! Data is De-embedded 
! Data File Written: 11/11/2017 22:28:48
!< HDATE 11/11/2017 18:22:48
!< MDATE 11/11/2017 18:22:48
!< PARAMS
!< Lj = 15.24
!< Gap = 6.0
!< Width = 10.0
!< Airgap = 6.0
!< Pwidth = 2000.0
!< Dist = 2200.0
!< END PARAMS
# GHZ S MA R 34.67000
8.72000000 0.999102 147.73 0.042348 57.729 0.042348 57.729 0.999102 147.73
!< P1 F=8.72 Eeff=(5.13609477 -5.6761e-5) Z0=(34.6490765 -9.5162e-5) R=0.0 C=0.0 
!< P2 F=8.72 Eeff=(5.13609477 -5.6761e-5) Z0=(34.6490765 -9.5162e-5) R=0.0 C=0.0 
8.72005000 0.999102 147.73 0.042348 57.729 0.042348 57.729 0.999102 147.73
8.72010000 0.999102 147.73 0.042349 57.729 0.042349 57.729 0.999102 147.73
8.72015000 0.999102 147.73 0.042349 57.728 0.042349 57.728 0.999102 147.73
8.72020000 0.999102 147.73 0.042350 57.728 0.042350 57.728 0.999102 147.73
8.72025000 0.999102 147.73 0.042350 57.728 0.042350 57.728 0.999102 147.73
8.72030000 0.999102 147.73 0.042351 57.728 0.042351 57.728 0.999102 147.73
8.72035000 0.999102 147.73 0.042352 57.728 0.042352 57.728 0.999102 147.73
8.72040000 0.999102 147.73 0.042352 57.727 0.042352 57.727 0.999102 147.73
8.72045000 0.999102 147.73 0.042353 57.727 0.042353 57.727 0.999102 147.73
8.72050000 0.999102 147.73 0.042353 57.727 0.042353 57.727 0.999102 147.73
8.72055000 0.999102 147.73 0.042354 57.727 0.042354 57.727 0.999102 147.73
8.72060000 0.999102 147.73 0.042354 57.727 0.042354 57.727 0.999102 147.73
8.72065000 0.999102 147.73 0.042355 57.726 0.042355 57.726 0.999102 147.73
8.72070000 0.999102 147.73 0.042355 57.726 0.042355 57.726 0.999102 147.72
8.72075000 0.999102 147.73 0.042356 57.726 0.042356 57.726 0.999102 147.72
8.72080000 0.999102 147.72 0.042357 57.726 0.042357 57.726 0.999102 147.72
8.72085000 0.999101 147.72 0.042357 57.725 0.042357 57.725 0.999101 147.72
8.72090000 0.999101 147.72 0.042358 57.725 0.042358 57.725 0.999101 147.72
8.72095000 0.999101 147.72 0.042358 57.725 0.042358 57.725 0.999101 147.72
8.72100000 0.999101 147.72 0.042359 57.725 0.042359 57.725 0.999101 147.72
8.72105000 0.999101 147.72 0.042359 57.725 0.042359 57.725 0.999101 147.72
8.72110000 0.999101 147.72 0.042360 57.724 0.042360 57.724 0.999101 147.72
8.72115000 0.999101 147.72 0.042360 57.724 0.042360 57.724 0.999101 147.72
8.72120000 0.999101 147.72 0.042361 57.724 0.042361 57.724 0.999101 147.72
8.72125000 0.999101 147.72 0.042362 57.724 0.042362 57.724 0.999101 147.72
8.72130000 0.999101 147.72 0.042362 57.724 0.042362 57.724 0.999101 147.72
8.72135000 0.999101 147.72 0.042363 57.723 0.042363 57.723 0.999101 147.72
8.72140000 0.999101 147.72 0.042363 57.723 0.042363 57.723 0.999101 147.72
8.72145000 0.999101 147.72 0.042364 57.723 0.042364 57.723 0.999101 147.72
8.72150000 0.999101 147.72 0.042364 57.723 0.042364 57.723 0.999101 147.72
8.72155000 0.999101 147.72 0.042365 57.723 0.042365 57.723 0.999101 147.72
8.72160000 0.999101 147.72 0.042366 57.722 0.042366 57.722 0.999101 147.72
8.72165000 0.999101 147.72 0.042366 57.722 0.042366 57.722 0.999101 147.72
8.72170000 0.999101 147.72 0.042367 57.722 0.042367 57.722 0.999101 147.72
8.72175000 0.999101 147.72 0.042367 57.722 0.042367 57.722 0.999101 147.72
8.72180000 0.999101 147.72 0.042368 57.722 0.042368 57.722 0.999101 147.72
8.72185000 0.999101 147.72 0.042368 57.721 0.042368 57.721 0.999101 147.72
8.72190000 0.999101 147.72 0.042369 57.721 0.042369 57.721 0.999101 147.72
8.72195000 0.999101 147.72 0.042369 57.721 0.042369 57.721 0.999101 147.72
8.72200000 0.999101 147.72 0.042370 57.721 0.042370 57.721 0.999101 147.72
8.72205000 0.999101 147.72 0.042371 57.721 0.042371 57.721 0.999101 147.72
8.72210000 0.999101 147.72 0.042371 57.720 0.042371 57.720 0.999101 147.72
8.72215000 0.999101 147.72 0.042372 57.720 0.042372 57.720 0.999101 147.72
8.72220000 0.999101 147.72 0.042372 57.720 0.042372 57.720 0.999101 147.72
8.72225000 0.999101 147.72 0.042373 57.720 0.042373 57.720 0.999101 147.72
8.72230000 0.999101 147.72 0.042373 57.720 0.042373 57.720 0.999101 147.72
8.72235000 0.999101 147.72 0.042374 57.719 0.042374 57.719 0.999101 147.72
8.72240000 0.999101 147.72 0.042375 57.719 0.042375 57.719 0.999101 147.72
8.72245000 0.999101 147.72 0.042375 57.719 0.042375 57.719 0.999101 147.72
8.72250000 0.999101 147.72 0.042376 57.719 0.042376 57.719 0.999101 147.72
8.72255000 0.999101 147.72 0.042376 57.719 0.042376 57.719 0.999101 147.72
8.72260000 0.999101 147.72 0.042377 57.718 0.042377 57.718 0.999101 147.72
8.72265000 0.999101 147.72 0.042377 57.718 0.042377 57.718 0.999101 147.72
8.72270000 0.999101 147.72 0.042378 57.718 0.042378 57.718 0.999101 147.72
8.72275000 0.999101 147.72 0.042379 57.718 0.042379 57.718 0.999101 147.72
8.72280000 0.999101 147.72 0.042379 57.718 0.042379 57.718 0.999101 147.72
8.72285000 0.999101 147.72 0.042380 57.717 0.042380 57.717 0.999101 147.72
8.72290000 0.999101 147.72 0.042380 57.717 0.042380 57.717 0.999101 147.72
8.72295000 0.999100 147.72 0.042381 57.717 0.042381 57.717 0.999100 147.72
8.72300000 0.999100 147.72 0.042381 57.717 0.042381 57.717 0.999100 147.72
8.72305000 0.999100 147.72 0.042382 57.716 0.042382 57.716 0.999100 147.72
8.72310000 0.999100 147.72 0.042383 57.716 0.042383 57.716 0.999100 147.72
8.72315000 0.999100 147.72 0.042383 57.716 0.042383 57.716 0.999100 147.71
8.72320000 0.999100 147.72 0.042384 57.716 0.042384 57.716 0.999100 147.71
8.72325000 0.999100 147.71 0.042384 57.716 0.042384 57.716 0.999100 147.71
8.72330000 0.999100 147.71 0.042385 57.715 0.042385 57.715 0.999100 147.71
8.72335000 0.999100 147.71 0.042385 57.715 0.042385 57.715 0.999100 147.71
8.72340000 0.999100 147.71 0.042386 57.715 0.042386 57.715 0.999100 147.71
8.72345000 0.999100 147.71 0.042387 57.715 0.042387 57.715 0.999100 147.71
8.72350000 0.999100 147.71 0.042387 57.715 0.042387 57.715 0.999100 147.71
8.72355000 0.999100 147.71 0.042388 57.714 0.042388 57.714 0.999100 147.71
8.72360000 0.999100 147.71 0.042388 57.714 0.042388 57.714 0.999100 147.71
8.72365000 0.999100 147.71 0.042389 57.714 0.042389 57.714 0.999100 147.71
8.72370000 0.999100 147.71 0.042390 57.714 0.042390 57.714 0.999100 147.71
8.72375000 0.999100 147.71 0.042390 57.714 0.042390 57.714 0.999100 147.71
8.72380000 0.999100 147.71 0.042391 57.713 0.042391 57.713 0.999100 147.71
8.72385000 0.999100 147.71 0.042391 57.713 0.042391 57.713 0.999100 147.71
8.72390000 0.999100 147.71 0.042392 57.713 0.042392 57.713 0.999100 147.71
8.72395000 0.999100 147.71 0.042392 57.713 0.042392 57.713 0.999100 147.71
8.72400000 0.999100 147.71 0.042393 57.713 0.042393 57.713 0.999100 147.71
8.72405000 0.999100 147.71 0.042394 57.712 0.042394 57.712 0.999100 147.71
8.72410000 0.999100 147.71 0.042394 57.712 0.042394 57.712 0.999100 147.71
8.72415000 0.999100 147.71 0.042395 57.712 0.042395 57.712 0.999100 147.71
8.72420000 0.999100 147.71 0.042395 57.712 0.042395 57.712 0.999100 147.71
8.72425000 0.999100 147.71 0.042396 57.712 0.042396 57.712 0.999100 147.71
8.72430000 0.999100 147.71 0.042396 57.711 0.042396 57.711 0.999100 147.71
8.72435000 0.999100 147.71 0.042397 57.711 0.042397 57.711 0.999100 147.71
8.72440000 0.999100 147.71 0.042398 57.711 0.042398 57.711 0.999100 147.71
8.72445000 0.999100 147.71 0.042398 57.711 0.042398 57.711 0.999100 147.71
8.72450000 0.999100 147.71 0.042399 57.711 0.042399 57.711 0.999100 147.71
8.72455000 0.999100 147.71 0.042399 57.710 0.042399 57.710 0.999100 147.71
8.72460000 0.999100 147.71 0.042400 57.710 0.042400 57.710 0.999100 147.71
8.72465000 0.999100 147.71 0.042401 57.710 0.042401 57.710 0.999100 147.71
8.72470000 0.999100 147.71 0.042401 57.710 0.042401 57.710 0.999100 147.71
8.72475000 0.999100 147.71 0.042402 57.710 0.042402 57.710 0.999100 147.71
8.72480000 0.999100 147.71 0.042402 57.709 0.042402 57.709 0.999100 147.71
8.72485000 0.999100 147.71 0.042403 57.709 0.042403 57.709 0.999100 147.71
8.72490000 0.999100 147.71 0.042403 57.709 0.042403 57.709 0.999100 147.71
8.72495000 0.999099 147.71 0.042404 57.709 0.042404 57.709 0.999099 147.71
8.72500000 0.999099 147.71 0.042405 57.708 0.042405 57.708 0.999099 147.71
8.72505000 0.999099 147.71 0.042405 57.708 0.042405 57.708 0.999099 147.71
8.72510000 0.999099 147.71 0.042406 57.708 0.042406 57.708 0.999099 147.71
8.72515000 0.999099 147.71 0.042406 57.708 0.042406 57.708 0.999099 147.71
8.72520000 0.999099 147.71 0.042407 57.708 0.042407 57.708 0.999099 147.71
8.72525000 0.999099 147.71 0.042408 57.707 0.042408 57.707 0.999099 147.71
8.72530000 0.999099 147.71 0.042408 57.707 0.042408 57.707 0.999099 147.71
8.72535000 0.999099 147.71 0.042409 57.707 0.042409 57.707 0.999099 147.71
8.72540000 0.999099 147.71 0.042409 57.707 0.042409 57.707 0.999099 147.71
8.72545000 0.999099 147.71 0.042410 57.707 0.042410 57.707 0.999099 147.71
8.72550000 0.999099 147.71 0.042411 57.706 0.042411 57.706 0.999099 147.71
8.72555000 0.999099 147.71 0.042411 57.706 0.042411 57.706 0.999099 147.71
8.72560000 0.999099 147.71 0.042412 57.706 0.042412 57.706 0.999099 147.70
8.72565000 0.999099 147.70 0.042412 57.706 0.042412 57.706 0.999099 147.70
8.72570000 0.999099 147.70 0.042413 57.706 0.042413 57.706 0.999099 147.70
8.72575000 0.999099 147.70 0.042413 57.705 0.042413 57.705 0.999099 147.70
8.72580000 0.999099 147.70 0.042414 57.705 0.042414 57.705 0.999099 147.70
8.72585000 0.999099 147.70 0.042415 57.705 0.042415 57.705 0.999099 147.70
8.72590000 0.999099 147.70 0.042415 57.705 0.042415 57.705 0.999099 147.70
8.72595000 0.999099 147.70 0.042416 57.705 0.042416 57.705 0.999099 147.70
8.72600000 0.999099 147.70 0.042416 57.704 0.042416 57.704 0.999099 147.70
8.72605000 0.999099 147.70 0.042417 57.704 0.042417 57.704 0.999099 147.70
8.72610000 0.999099 147.70 0.042418 57.704 0.042418 57.704 0.999099 147.70
8.72615000 0.999099 147.70 0.042418 57.704 0.042418 57.704 0.999099 147.70
8.72620000 0.999099 147.70 0.042419 57.704 0.042419 57.704 0.999099 147.70
8.72625000 0.999099 147.70 0.042419 57.703 0.042419 57.703 0.999099 147.70
8.72630000 0.999099 147.70 0.042420 57.703 0.042420 57.703 0.999099 147.70
8.72635000 0.999099 147.70 0.042421 57.703 0.042421 57.703 0.999099 147.70
8.72640000 0.999099 147.70 0.042421 57.703 0.042421 57.703 0.999099 147.70
8.72645000 0.999099 147.70 0.042422 57.703 0.042422 57.703 0.999099 147.70
8.72650000 0.999099 147.70 0.042422 57.702 0.042422 57.702 0.999099 147.70
8.72655000 0.999099 147.70 0.042423 57.702 0.042423 57.702 0.999099 147.70
8.72660000 0.999099 147.70 0.042424 57.702 0.042424 57.702 0.999099 147.70
8.72665000 0.999099 147.70 0.042424 57.702 0.042424 57.702 0.999099 147.70
8.72670000 0.999099 147.70 0.042425 57.701 0.042425 57.701 0.999099 147.70
8.72675000 0.999099 147.70 0.042425 57.701 0.042425 57.701 0.999099 147.70
8.72680000 0.999099 147.70 0.042426 57.701 0.042426 57.701 0.999099 147.70
8.72685000 0.999099 147.70 0.042427 57.701 0.042427 57.701 0.999099 147.70
8.72690000 0.999099 147.70 0.042427 57.701 0.042427 57.701 0.999099 147.70
8.72695000 0.999098 147.70 0.042428 57.700 0.042428 57.700 0.999098 147.70
8.72700000 0.999098 147.70 0.042428 57.700 0.042428 57.700 0.999098 147.70
8.72705000 0.999098 147.70 0.042429 57.700 0.042429 57.700 0.999098 147.70
8.72710000 0.999098 147.70 0.042430 57.700 0.042430 57.700 0.999098 147.70
8.72715000 0.999098 147.70 0.042430 57.700 0.042430 57.700 0.999098 147.70
8.72720000 0.999098 147.70 0.042431 57.699 0.042431 57.699 0.999098 147.70
8.72725000 0.999098 147.70 0.042431 57.699 0.042431 57.699 0.999098 147.70
8.72730000 0.999098 147.70 0.042432 57.699 0.042432 57.699 0.999098 147.70
8.72735000 0.999098 147.70 0.042433 57.699 0.042433 57.699 0.999098 147.70
8.72740000 0.999098 147.70 0.042433 57.699 0.042433 57.699 0.999098 147.70
8.72745000 0.999098 147.70 0.042434 57.698 0.042434 57.698 0.999098 147.70
8.72750000 0.999098 147.70 0.042434 57.698 0.042434 57.698 0.999098 147.70
8.72755000 0.999098 147.70 0.042435 57.698 0.042435 57.698 0.999098 147.70
8.72760000 0.999098 147.70 0.042436 57.698 0.042436 57.698 0.999098 147.70
8.72765000 0.999098 147.70 0.042436 57.698 0.042436 57.698 0.999098 147.70
8.72770000 0.999098 147.70 0.042437 57.697 0.042437 57.697 0.999098 147.70
8.72775000 0.999098 147.70 0.042437 57.697 0.042437 57.697 0.999098 147.70
8.72780000 0.999098 147.70 0.042438 57.697 0.042438 57.697 0.999098 147.70
8.72785000 0.999098 147.70 0.042439 57.697 0.042439 57.697 0.999098 147.70
8.72790000 0.999098 147.70 0.042439 57.697 0.042439 57.697 0.999098 147.70
8.72795000 0.999098 147.70 0.042440 57.696 0.042440 57.696 0.999098 147.70
8.72800000 0.999098 147.70 0.042441 57.696 0.042441 57.696 0.999098 147.69
8.72805000 0.999098 147.70 0.042441 57.696 0.042441 57.696 0.999098 147.69
8.72810000 0.999098 147.69 0.042442 57.696 0.042442 57.696 0.999098 147.69
8.72815000 0.999098 147.69 0.042442 57.695 0.042442 57.695 0.999098 147.69
8.72820000 0.999098 147.69 0.042443 57.695 0.042443 57.695 0.999098 147.69
8.72825000 0.999098 147.69 0.042444 57.695 0.042444 57.695 0.999098 147.69
8.72830000 0.999098 147.69 0.042444 57.695 0.042444 57.695 0.999098 147.69
8.72835000 0.999098 147.69 0.042445 57.695 0.042445 57.695 0.999098 147.69
8.72840000 0.999098 147.69 0.042445 57.694 0.042445 57.694 0.999098 147.69
8.72845000 0.999098 147.69 0.042446 57.694 0.042446 57.694 0.999098 147.69
8.72850000 0.999098 147.69 0.042447 57.694 0.042447 57.694 0.999098 147.69
8.72855000 0.999098 147.69 0.042447 57.694 0.042447 57.694 0.999098 147.69
8.72860000 0.999098 147.69 0.042448 57.694 0.042448 57.694 0.999098 147.69
8.72865000 0.999098 147.69 0.042448 57.693 0.042448 57.693 0.999098 147.69
8.72870000 0.999098 147.69 0.042449 57.693 0.042449 57.693 0.999098 147.69
8.72875000 0.999098 147.69 0.042450 57.693 0.042450 57.693 0.999098 147.69
8.72880000 0.999098 147.69 0.042450 57.693 0.042450 57.693 0.999098 147.69
8.72885000 0.999097 147.69 0.042451 57.693 0.042451 57.693 0.999097 147.69
8.72890000 0.999097 147.69 0.042452 57.692 0.042452 57.692 0.999097 147.69
8.72895000 0.999097 147.69 0.042452 57.692 0.042452 57.692 0.999097 147.69
8.72900000 0.999097 147.69 0.042453 57.692 0.042453 57.692 0.999097 147.69
8.72905000 0.999097 147.69 0.042453 57.692 0.042453 57.692 0.999097 147.69
8.72910000 0.999097 147.69 0.042454 57.692 0.042454 57.692 0.999097 147.69
8.72915000 0.999097 147.69 0.042455 57.691 0.042455 57.691 0.999097 147.69
8.72920000 0.999097 147.69 0.042455 57.691 0.042455 57.691 0.999097 147.69
8.72925000 0.999097 147.69 0.042456 57.691 0.042456 57.691 0.999097 147.69
8.72930000 0.999097 147.69 0.042456 57.691 0.042456 57.691 0.999097 147.69
8.72935000 0.999097 147.69 0.042457 57.690 0.042457 57.690 0.999097 147.69
8.72940000 0.999097 147.69 0.042458 57.690 0.042458 57.690 0.999097 147.69
8.72945000 0.999097 147.69 0.042458 57.690 0.042458 57.690 0.999097 147.69
8.72950000 0.999097 147.69 0.042459 57.690 0.042459 57.690 0.999097 147.69
8.72955000 0.999097 147.69 0.042460 57.690 0.042460 57.690 0.999097 147.69
8.72960000 0.999097 147.69 0.042460 57.689 0.042460 57.689 0.999097 147.69
8.72965000 0.999097 147.69 0.042461 57.689 0.042461 57.689 0.999097 147.69
8.72970000 0.999097 147.69 0.042461 57.689 0.042461 57.689 0.999097 147.69
8.72975000 0.999097 147.69 0.042462 57.689 0.042462 57.689 0.999097 147.69
8.72980000 0.999097 147.69 0.042463 57.689 0.042463 57.689 0.999097 147.69
8.72985000 0.999097 147.69 0.042463 57.688 0.042463 57.688 0.999097 147.69
8.72990000 0.999097 147.69 0.042464 57.688 0.042464 57.688 0.999097 147.69
8.72995000 0.999097 147.69 0.042465 57.688 0.042465 57.688 0.999097 147.69
8.73000000 0.999097 147.69 0.042465 57.688 0.042465 57.688 0.999097 147.69
8.73005000 0.999097 147.69 0.042466 57.688 0.042466 57.688 0.999097 147.69
8.73010000 0.999097 147.69 0.042466 57.687 0.042466 57.687 0.999097 147.69
8.73015000 0.999097 147.69 0.042467 57.687 0.042467 57.687 0.999097 147.69
8.73020000 0.999097 147.69 0.042468 57.687 0.042468 57.687 0.999097 147.69
8.73025000 0.999097 147.69 0.042468 57.687 0.042468 57.687 0.999097 147.69
8.73030000 0.999097 147.69 0.042469 57.687 0.042469 57.687 0.999097 147.69
8.73035000 0.999097 147.69 0.042470 57.686 0.042470 57.686 0.999097 147.69
8.73040000 0.999097 147.69 0.042470 57.686 0.042470 57.686 0.999097 147.68
8.73045000 0.999097 147.69 0.042471 57.686 0.042471 57.686 0.999097 147.68
8.73050000 0.999097 147.68 0.042471 57.686 0.042471 57.686 0.999097 147.68
8.73055000 0.999097 147.68 0.042472 57.686 0.042472 57.686 0.999097 147.68
8.73060000 0.999097 147.68 0.042473 57.685 0.042473 57.685 0.999097 147.68
8.73065000 0.999097 147.68 0.042473 57.685 0.042473 57.685 0.999097 147.68
8.73070000 0.999097 147.68 0.042474 57.685 0.042474 57.685 0.999097 147.68
8.73075000 0.999096 147.68 0.042475 57.685 0.042475 57.685 0.999096 147.68
8.73080000 0.999096 147.68 0.042475 57.684 0.042475 57.684 0.999096 147.68
8.73085000 0.999096 147.68 0.042476 57.684 0.042476 57.684 0.999096 147.68
8.73090000 0.999096 147.68 0.042477 57.684 0.042477 57.684 0.999096 147.68
8.73095000 0.999096 147.68 0.042477 57.684 0.042477 57.684 0.999096 147.68
8.73100000 0.999096 147.68 0.042478 57.684 0.042478 57.684 0.999096 147.68
8.73105000 0.999096 147.68 0.042478 57.683 0.042478 57.683 0.999096 147.68
8.73110000 0.999096 147.68 0.042479 57.683 0.042479 57.683 0.999096 147.68
8.73115000 0.999096 147.68 0.042480 57.683 0.042480 57.683 0.999096 147.68
8.73120000 0.999096 147.68 0.042480 57.683 0.042480 57.683 0.999096 147.68
8.73125000 0.999096 147.68 0.042481 57.683 0.042481 57.683 0.999096 147.68
8.73130000 0.999096 147.68 0.042482 57.682 0.042482 57.682 0.999096 147.68
8.73135000 0.999096 147.68 0.042482 57.682 0.042482 57.682 0.999096 147.68
8.73140000 0.999096 147.68 0.042483 57.682 0.042483 57.682 0.999096 147.68
8.73145000 0.999096 147.68 0.042484 57.682 0.042484 57.682 0.999096 147.68
8.73150000 0.999096 147.68 0.042484 57.682 0.042484 57.682 0.999096 147.68
8.73155000 0.999096 147.68 0.042485 57.681 0.042485 57.681 0.999096 147.68
8.73160000 0.999096 147.68 0.042485 57.681 0.042485 57.681 0.999096 147.68
8.73165000 0.999096 147.68 0.042486 57.681 0.042486 57.681 0.999096 147.68
8.73170000 0.999096 147.68 0.042487 57.681 0.042487 57.681 0.999096 147.68
8.73175000 0.999096 147.68 0.042487 57.681 0.042487 57.681 0.999096 147.68
8.73180000 0.999096 147.68 0.042488 57.680 0.042488 57.680 0.999096 147.68
8.73185000 0.999096 147.68 0.042489 57.680 0.042489 57.680 0.999096 147.68
8.73190000 0.999096 147.68 0.042489 57.680 0.042489 57.680 0.999096 147.68
8.73195000 0.999096 147.68 0.042490 57.680 0.042490 57.680 0.999096 147.68
8.73200000 0.999096 147.68 0.042491 57.679 0.042491 57.679 0.999096 147.68
8.73205000 0.999096 147.68 0.042491 57.679 0.042491 57.679 0.999096 147.68
8.73210000 0.999096 147.68 0.042492 57.679 0.042492 57.679 0.999096 147.68
8.73215000 0.999096 147.68 0.042492 57.679 0.042492 57.679 0.999096 147.68
8.73220000 0.999096 147.68 0.042493 57.679 0.042493 57.679 0.999096 147.68
8.73225000 0.999096 147.68 0.042494 57.678 0.042494 57.678 0.999096 147.68
8.73230000 0.999096 147.68 0.042494 57.678 0.042494 57.678 0.999096 147.68
8.73235000 0.999096 147.68 0.042495 57.678 0.042495 57.678 0.999096 147.68
8.73240000 0.999096 147.68 0.042496 57.678 0.042496 57.678 0.999096 147.68
8.73245000 0.999096 147.68 0.042496 57.678 0.042496 57.678 0.999096 147.68
8.73250000 0.999096 147.68 0.042497 57.677 0.042497 57.677 0.999096 147.68
8.73255000 0.999095 147.68 0.042498 57.677 0.042498 57.677 0.999095 147.68
8.73260000 0.999095 147.68 0.042498 57.677 0.042498 57.677 0.999095 147.68
8.73265000 0.999095 147.68 0.042499 57.677 0.042499 57.677 0.999095 147.68
8.73270000 0.999095 147.68 0.042500 57.677 0.042500 57.677 0.999095 147.68
8.73275000 0.999095 147.68 0.042500 57.676 0.042500 57.676 0.999095 147.68
8.73280000 0.999095 147.68 0.042501 57.676 0.042501 57.676 0.999095 147.67
8.73285000 0.999095 147.68 0.042502 57.676 0.042502 57.676 0.999095 147.67
8.73290000 0.999095 147.67 0.042502 57.676 0.042502 57.676 0.999095 147.67
8.73295000 0.999095 147.67 0.042503 57.675 0.042503 57.675 0.999095 147.67
8.73300000 0.999095 147.67 0.042504 57.675 0.042504 57.675 0.999095 147.67
8.73305000 0.999095 147.67 0.042504 57.675 0.042504 57.675 0.999095 147.67
8.73310000 0.999095 147.67 0.042505 57.675 0.042505 57.675 0.999095 147.67
8.73315000 0.999095 147.67 0.042505 57.675 0.042505 57.675 0.999095 147.67
8.73320000 0.999095 147.67 0.042506 57.674 0.042506 57.674 0.999095 147.67
8.73325000 0.999095 147.67 0.042507 57.674 0.042507 57.674 0.999095 147.67
8.73330000 0.999095 147.67 0.042507 57.674 0.042507 57.674 0.999095 147.67
8.73335000 0.999095 147.67 0.042508 57.674 0.042508 57.674 0.999095 147.67
8.73340000 0.999095 147.67 0.042509 57.674 0.042509 57.674 0.999095 147.67
8.73345000 0.999095 147.67 0.042509 57.673 0.042509 57.673 0.999095 147.67
8.73350000 0.999095 147.67 0.042510 57.673 0.042510 57.673 0.999095 147.67
8.73355000 0.999095 147.67 0.042511 57.673 0.042511 57.673 0.999095 147.67
8.73360000 0.999095 147.67 0.042511 57.673 0.042511 57.673 0.999095 147.67
8.73365000 0.999095 147.67 0.042512 57.673 0.042512 57.673 0.999095 147.67
8.73370000 0.999095 147.67 0.042513 57.672 0.042513 57.672 0.999095 147.67
8.73375000 0.999095 147.67 0.042513 57.672 0.042513 57.672 0.999095 147.67
8.73380000 0.999095 147.67 0.042514 57.672 0.042514 57.672 0.999095 147.67
8.73385000 0.999095 147.67 0.042515 57.672 0.042515 57.672 0.999095 147.67
8.73390000 0.999095 147.67 0.042515 57.671 0.042515 57.671 0.999095 147.67
8.73395000 0.999095 147.67 0.042516 57.671 0.042516 57.671 0.999095 147.67
8.73400000 0.999095 147.67 0.042517 57.671 0.042517 57.671 0.999095 147.67
8.73405000 0.999095 147.67 0.042517 57.671 0.042517 57.671 0.999095 147.67
8.73410000 0.999095 147.67 0.042518 57.671 0.042518 57.671 0.999095 147.67
8.73415000 0.999095 147.67 0.042519 57.670 0.042519 57.670 0.999095 147.67
8.73420000 0.999095 147.67 0.042519 57.670 0.042519 57.670 0.999095 147.67
8.73425000 0.999095 147.67 0.042520 57.670 0.042520 57.670 0.999095 147.67
8.73430000 0.999095 147.67 0.042521 57.670 0.042521 57.670 0.999095 147.67
8.73435000 0.999094 147.67 0.042521 57.670 0.042521 57.670 0.999094 147.67
8.73440000 0.999094 147.67 0.042522 57.669 0.042522 57.669 0.999094 147.67
8.73445000 0.999094 147.67 0.042523 57.669 0.042523 57.669 0.999094 147.67
8.73450000 0.999094 147.67 0.042523 57.669 0.042523 57.669 0.999094 147.67
8.73455000 0.999094 147.67 0.042524 57.669 0.042524 57.669 0.999094 147.67
8.73460000 0.999094 147.67 0.042525 57.669 0.042525 57.669 0.999094 147.67
8.73465000 0.999094 147.67 0.042525 57.668 0.042525 57.668 0.999094 147.67
8.73470000 0.999094 147.67 0.042526 57.668 0.042526 57.668 0.999094 147.67
8.73475000 0.999094 147.67 0.042527 57.668 0.042527 57.668 0.999094 147.67
8.73480000 0.999094 147.67 0.042527 57.668 0.042527 57.668 0.999094 147.67
8.73485000 0.999094 147.67 0.042528 57.667 0.042528 57.667 0.999094 147.67
8.73490000 0.999094 147.67 0.042529 57.667 0.042529 57.667 0.999094 147.67
8.73495000 0.999094 147.67 0.042529 57.667 0.042529 57.667 0.999094 147.67
8.73500000 0.999094 147.67 0.042530 57.667 0.042530 57.667 0.999094 147.67
8.73505000 0.999094 147.67 0.042531 57.667 0.042531 57.667 0.999094 147.67
8.73510000 0.999094 147.67 0.042531 57.666 0.042531 57.666 0.999094 147.67
8.73515000 0.999094 147.67 0.042532 57.666 0.042532 57.666 0.999094 147.67
8.73520000 0.999094 147.67 0.042533 57.666 0.042533 57.666 0.999094 147.66
8.73525000 0.999094 147.66 0.042533 57.666 0.042533 57.666 0.999094 147.66
8.73530000 0.999094 147.66 0.042534 57.666 0.042534 57.666 0.999094 147.66
8.73535000 0.999094 147.66 0.042535 57.665 0.042535 57.665 0.999094 147.66
8.73540000 0.999094 147.66 0.042535 57.665 0.042535 57.665 0.999094 147.66
8.73545000 0.999094 147.66 0.042536 57.665 0.042536 57.665 0.999094 147.66
8.73550000 0.999094 147.66 0.042537 57.665 0.042537 57.665 0.999094 147.66
8.73555000 0.999094 147.66 0.042537 57.665 0.042537 57.665 0.999094 147.66
8.73560000 0.999094 147.66 0.042538 57.664 0.042538 57.664 0.999094 147.66
8.73565000 0.999094 147.66 0.042539 57.664 0.042539 57.664 0.999094 147.66
8.73570000 0.999094 147.66 0.042540 57.664 0.042540 57.664 0.999094 147.66
8.73575000 0.999094 147.66 0.042540 57.664 0.042540 57.664 0.999094 147.66
8.73580000 0.999094 147.66 0.042541 57.663 0.042541 57.663 0.999094 147.66
8.73585000 0.999094 147.66 0.042542 57.663 0.042542 57.663 0.999094 147.66
8.73590000 0.999094 147.66 0.042542 57.663 0.042542 57.663 0.999094 147.66
8.73595000 0.999094 147.66 0.042543 57.663 0.042543 57.663 0.999094 147.66
8.73600000 0.999094 147.66 0.042544 57.663 0.042544 57.663 0.999094 147.66
8.73605000 0.999093 147.66 0.042544 57.662 0.042544 57.662 0.999093 147.66
8.73610000 0.999093 147.66 0.042545 57.662 0.042545 57.662 0.999093 147.66
8.73615000 0.999093 147.66 0.042546 57.662 0.042546 57.662 0.999093 147.66
8.73620000 0.999093 147.66 0.042546 57.662 0.042546 57.662 0.999093 147.66
8.73625000 0.999093 147.66 0.042547 57.662 0.042547 57.662 0.999093 147.66
8.73630000 0.999093 147.66 0.042548 57.661 0.042548 57.661 0.999093 147.66
8.73635000 0.999093 147.66 0.042548 57.661 0.042548 57.661 0.999093 147.66
8.73640000 0.999093 147.66 0.042549 57.661 0.042549 57.661 0.999093 147.66
8.73645000 0.999093 147.66 0.042550 57.661 0.042550 57.661 0.999093 147.66
8.73650000 0.999093 147.66 0.042551 57.661 0.042551 57.661 0.999093 147.66
8.73655000 0.999093 147.66 0.042551 57.660 0.042551 57.660 0.999093 147.66
8.73660000 0.999093 147.66 0.042552 57.660 0.042552 57.660 0.999093 147.66
8.73665000 0.999093 147.66 0.042553 57.660 0.042553 57.660 0.999093 147.66
8.73670000 0.999093 147.66 0.042553 57.660 0.042553 57.660 0.999093 147.66
8.73675000 0.999093 147.66 0.042554 57.659 0.042554 57.659 0.999093 147.66
8.73680000 0.999093 147.66 0.042555 57.659 0.042555 57.659 0.999093 147.66
8.73685000 0.999093 147.66 0.042555 57.659 0.042555 57.659 0.999093 147.66
8.73690000 0.999093 147.66 0.042556 57.659 0.042556 57.659 0.999093 147.66
8.73695000 0.999093 147.66 0.042557 57.659 0.042557 57.659 0.999093 147.66
8.73700000 0.999093 147.66 0.042557 57.658 0.042557 57.658 0.999093 147.66
8.73705000 0.999093 147.66 0.042558 57.658 0.042558 57.658 0.999093 147.66
8.73710000 0.999093 147.66 0.042559 57.658 0.042559 57.658 0.999093 147.66
8.73715000 0.999093 147.66 0.042560 57.658 0.042560 57.658 0.999093 147.66
8.73720000 0.999093 147.66 0.042560 57.658 0.042560 57.658 0.999093 147.66
8.73725000 0.999093 147.66 0.042561 57.657 0.042561 57.657 0.999093 147.66
8.73730000 0.999093 147.66 0.042562 57.657 0.042562 57.657 0.999093 147.66
8.73735000 0.999093 147.66 0.042562 57.657 0.042562 57.657 0.999093 147.66
8.73740000 0.999093 147.66 0.042563 57.657 0.042563 57.657 0.999093 147.66
8.73745000 0.999093 147.66 0.042564 57.656 0.042564 57.656 0.999093 147.66
8.73750000 0.999093 147.66 0.042564 57.656 0.042564 57.656 0.999093 147.66
8.73755000 0.999093 147.66 0.042565 57.656 0.042565 57.656 0.999093 147.65
8.73760000 0.999093 147.66 0.042566 57.656 0.042566 57.656 0.999093 147.65
8.73765000 0.999093 147.65 0.042567 57.656 0.042567 57.656 0.999093 147.65
8.73770000 0.999093 147.65 0.042567 57.655 0.042567 57.655 0.999093 147.65
8.73775000 0.999092 147.65 0.042568 57.655 0.042568 57.655 0.999092 147.65
8.73780000 0.999092 147.65 0.042569 57.655 0.042569 57.655 0.999092 147.65
8.73785000 0.999092 147.65 0.042569 57.655 0.042569 57.655 0.999092 147.65
8.73790000 0.999092 147.65 0.042570 57.655 0.042570 57.655 0.999092 147.65
8.73795000 0.999092 147.65 0.042571 57.654 0.042571 57.654 0.999092 147.65
8.73800000 0.999092 147.65 0.042571 57.654 0.042571 57.654 0.999092 147.65
8.73805000 0.999092 147.65 0.042572 57.654 0.042572 57.654 0.999092 147.65
8.73810000 0.999092 147.65 0.042573 57.654 0.042573 57.654 0.999092 147.65
8.73815000 0.999092 147.65 0.042574 57.654 0.042574 57.654 0.999092 147.65
8.73820000 0.999092 147.65 0.042574 57.653 0.042574 57.653 0.999092 147.65
8.73825000 0.999092 147.65 0.042575 57.653 0.042575 57.653 0.999092 147.65
8.73830000 0.999092 147.65 0.042576 57.653 0.042576 57.653 0.999092 147.65
8.73835000 0.999092 147.65 0.042576 57.653 0.042576 57.653 0.999092 147.65
8.73840000 0.999092 147.65 0.042577 57.652 0.042577 57.652 0.999092 147.65
8.73845000 0.999092 147.65 0.042578 57.652 0.042578 57.652 0.999092 147.65
8.73850000 0.999092 147.65 0.042579 57.652 0.042579 57.652 0.999092 147.65
8.73855000 0.999092 147.65 0.042579 57.652 0.042579 57.652 0.999092 147.65
8.73860000 0.999092 147.65 0.042580 57.652 0.042580 57.652 0.999092 147.65
8.73865000 0.999092 147.65 0.042581 57.651 0.042581 57.651 0.999092 147.65
8.73870000 0.999092 147.65 0.042581 57.651 0.042581 57.651 0.999092 147.65
8.73875000 0.999092 147.65 0.042582 57.651 0.042582 57.651 0.999092 147.65
8.73880000 0.999092 147.65 0.042583 57.651 0.042583 57.651 0.999092 147.65
8.73885000 0.999092 147.65 0.042584 57.651 0.042584 57.651 0.999092 147.65
8.73890000 0.999092 147.65 0.042584 57.650 0.042584 57.650 0.999092 147.65
8.73895000 0.999092 147.65 0.042585 57.650 0.042585 57.650 0.999092 147.65
8.73900000 0.999092 147.65 0.042586 57.650 0.042586 57.650 0.999092 147.65
8.73905000 0.999092 147.65 0.042587 57.650 0.042587 57.650 0.999092 147.65
8.73910000 0.999092 147.65 0.042587 57.649 0.042587 57.649 0.999092 147.65
8.73915000 0.999092 147.65 0.042588 57.649 0.042588 57.649 0.999092 147.65
8.73920000 0.999092 147.65 0.042589 57.649 0.042589 57.649 0.999092 147.65
8.73925000 0.999092 147.65 0.042589 57.649 0.042589 57.649 0.999092 147.65
8.73930000 0.999092 147.65 0.042590 57.649 0.042590 57.649 0.999092 147.65
8.73935000 0.999091 147.65 0.042591 57.648 0.042591 57.648 0.999091 147.65
8.73940000 0.999091 147.65 0.042592 57.648 0.042592 57.648 0.999091 147.65
8.73945000 0.999091 147.65 0.042592 57.648 0.042592 57.648 0.999091 147.65
8.73950000 0.999091 147.65 0.042593 57.648 0.042593 57.648 0.999091 147.65
8.73955000 0.999091 147.65 0.042594 57.648 0.042594 57.648 0.999091 147.65
8.73960000 0.999091 147.65 0.042594 57.647 0.042594 57.647 0.999091 147.65