! Sonnet Data File
! From: emgraph Version : 16.52
! From Project: transmon_brgOdd
! Data is De-embedded 
! Data File Written: 11/12/2017 17:05:32
!< HDATE 11/11/2017 22:57:51
!< MDATE 11/11/2017 22:57:51
!< PARAMS
!< Lj = 15.24
!< Gap = 6.0
!< Width = 10.0
!< Airgap = 6.0
!< Pwidth = 2000.0
!< Dist = 600.0
!< END PARAMS
# GHZ S MA R 34.67000
8.78000000 0.983490 105.85 0.180933 15.827 0.180933 15.827 0.983490 105.80
!< P1 F=8.78 Eeff=(5.13743391 -5.7017e-5) Z0=(34.6430374 -9.7216e-5) R=0.0 C=0.0 
!< P2 F=8.78 Eeff=(5.13743391 -5.7017e-5) Z0=(34.6430374 -9.7216e-5) R=0.0 C=0.0 
8.78001000 0.983490 105.85 0.180933 15.827 0.180933 15.827 0.983490 105.80
8.78002000 0.983490 105.85 0.180934 15.827 0.180934 15.827 0.983490 105.80
8.78003000 0.983490 105.85 0.180934 15.827 0.180934 15.827 0.983490 105.80
8.78004000 0.983490 105.85 0.180935 15.827 0.180935 15.827 0.983490 105.80
8.78005000 0.983490 105.85 0.180936 15.826 0.180936 15.826 0.983490 105.80
8.78006000 0.983490 105.85 0.180936 15.826 0.180936 15.826 0.983490 105.80
8.78007000 0.983490 105.85 0.180937 15.826 0.180937 15.826 0.983490 105.80
8.78008000 0.983489 105.85 0.180937 15.826 0.180937 15.826 0.983489 105.80
8.78009000 0.983489 105.85 0.180938 15.826 0.180938 15.826 0.983489 105.80
8.78010000 0.983489 105.85 0.180939 15.826 0.180939 15.826 0.983489 105.80
8.78011000 0.983489 105.85 0.180939 15.826 0.180939 15.826 0.983489 105.80
8.78012000 0.983489 105.85 0.180940 15.826 0.180940 15.826 0.983489 105.80
8.78013000 0.983489 105.85 0.180941 15.826 0.180941 15.826 0.983489 105.80
8.78014000 0.983489 105.85 0.180941 15.826 0.180941 15.826 0.983489 105.80
8.78015000 0.983489 105.85 0.180942 15.825 0.180942 15.825 0.983489 105.80
8.78016000 0.983489 105.85 0.180942 15.825 0.180942 15.825 0.983489 105.80
8.78017000 0.983488 105.85 0.180943 15.825 0.180943 15.825 0.983488 105.80
8.78018000 0.983488 105.85 0.180944 15.825 0.180944 15.825 0.983488 105.80
8.78019000 0.983488 105.85 0.180944 15.825 0.180944 15.825 0.983488 105.80
8.78020000 0.983488 105.85 0.180945 15.825 0.180945 15.825 0.983488 105.80
8.78021000 0.983488 105.85 0.180945 15.825 0.180945 15.825 0.983488 105.80
8.78022000 0.983488 105.85 0.180946 15.825 0.180946 15.825 0.983488 105.80
8.78023000 0.983488 105.85 0.180947 15.825 0.180947 15.825 0.983488 105.80
8.78024000 0.983488 105.85 0.180947 15.824 0.180947 15.824 0.983488 105.80
8.78025000 0.983488 105.85 0.180948 15.824 0.180948 15.824 0.983488 105.80
8.78026000 0.983487 105.85 0.180949 15.824 0.180949 15.824 0.983487 105.80
8.78027000 0.983487 105.85 0.180949 15.824 0.180949 15.824 0.983487 105.80
8.78028000 0.983487 105.85 0.180950 15.824 0.180950 15.824 0.983487 105.80
8.78029000 0.983487 105.85 0.180950 15.824 0.180950 15.824 0.983487 105.80
8.78030000 0.983487 105.85 0.180951 15.824 0.180951 15.824 0.983487 105.80
8.78031000 0.983487 105.85 0.180952 15.824 0.180952 15.824 0.983487 105.80
8.78032000 0.983487 105.85 0.180952 15.824 0.180952 15.824 0.983487 105.80
8.78033000 0.983487 105.85 0.180953 15.823 0.180953 15.823 0.983487 105.80
8.78034000 0.983487 105.85 0.180954 15.823 0.180954 15.823 0.983487 105.80
8.78035000 0.983486 105.85 0.180954 15.823 0.180954 15.823 0.983486 105.80
8.78036000 0.983486 105.85 0.180955 15.823 0.180955 15.823 0.983486 105.80
8.78037000 0.983486 105.85 0.180955 15.823 0.180955 15.823 0.983486 105.80
8.78038000 0.983486 105.85 0.180956 15.823 0.180956 15.823 0.983486 105.80
8.78039000 0.983486 105.85 0.180957 15.823 0.180957 15.823 0.983486 105.80
8.78040000 0.983486 105.85 0.180957 15.823 0.180957 15.823 0.983486 105.80
8.78041000 0.983486 105.85 0.180958 15.823 0.180958 15.823 0.983486 105.80
8.78042000 0.983486 105.85 0.180959 15.822 0.180959 15.822 0.983486 105.80
8.78043000 0.983485 105.85 0.180959 15.822 0.180959 15.822 0.983485 105.80
8.78044000 0.983485 105.85 0.180960 15.822 0.180960 15.822 0.983485 105.80
8.78045000 0.983485 105.85 0.180960 15.822 0.180960 15.822 0.983485 105.80
8.78046000 0.983485 105.85 0.180961 15.822 0.180961 15.822 0.983485 105.80
8.78047000 0.983485 105.85 0.180962 15.822 0.180962 15.822 0.983485 105.80
8.78048000 0.983485 105.84 0.180962 15.822 0.180962 15.822 0.983485 105.80
8.78049000 0.983485 105.84 0.180963 15.822 0.180963 15.822 0.983485 105.80
8.78050000 0.983485 105.84 0.180964 15.822 0.180964 15.822 0.983485 105.80
8.78051000 0.983485 105.84 0.180964 15.821 0.180964 15.821 0.983485 105.80
8.78052000 0.983484 105.84 0.180965 15.821 0.180965 15.821 0.983484 105.80
8.78053000 0.983484 105.84 0.180965 15.821 0.180965 15.821 0.983484 105.80
8.78054000 0.983484 105.84 0.180966 15.821 0.180966 15.821 0.983484 105.80
8.78055000 0.983484 105.84 0.180967 15.821 0.180967 15.821 0.983484 105.80
8.78056000 0.983484 105.84 0.180967 15.821 0.180967 15.821 0.983484 105.80
8.78057000 0.983484 105.84 0.180968 15.821 0.180968 15.821 0.983484 105.80
8.78058000 0.983484 105.84 0.180969 15.821 0.180969 15.821 0.983484 105.80
8.78059000 0.983484 105.84 0.180969 15.821 0.180969 15.821 0.983484 105.80
8.78060000 0.983483 105.84 0.180970 15.821 0.180970 15.821 0.983483 105.80
8.78061000 0.983483 105.84 0.180971 15.820 0.180971 15.820 0.983483 105.80
8.78062000 0.983483 105.84 0.180971 15.820 0.180971 15.820 0.983483 105.80
8.78063000 0.983483 105.84 0.180972 15.820 0.180972 15.820 0.983483 105.80
8.78064000 0.983483 105.84 0.180972 15.820 0.180972 15.820 0.983483 105.80
8.78065000 0.983483 105.84 0.180973 15.820 0.180973 15.820 0.983483 105.80
8.78066000 0.983483 105.84 0.180974 15.820 0.180974 15.820 0.983483 105.79
8.78067000 0.983483 105.84 0.180974 15.820 0.180974 15.820 0.983483 105.79
8.78068000 0.983483 105.84 0.180975 15.820 0.180975 15.820 0.983483 105.79
8.78069000 0.983482 105.84 0.180976 15.820 0.180976 15.820 0.983482 105.79
8.78070000 0.983482 105.84 0.180976 15.819 0.180976 15.819 0.983482 105.79
8.78071000 0.983482 105.84 0.180977 15.819 0.180977 15.819 0.983482 105.79
8.78072000 0.983482 105.84 0.180978 15.819 0.180978 15.819 0.983482 105.79
8.78073000 0.983482 105.84 0.180978 15.819 0.180978 15.819 0.983482 105.79
8.78074000 0.983482 105.84 0.180979 15.819 0.180979 15.819 0.983482 105.79
8.78075000 0.983482 105.84 0.180980 15.819 0.180980 15.819 0.983482 105.79
8.78076000 0.983482 105.84 0.180980 15.819 0.180980 15.819 0.983482 105.79
8.78077000 0.983481 105.84 0.180981 15.819 0.180981 15.819 0.983481 105.79
8.78078000 0.983481 105.84 0.180981 15.819 0.180981 15.819 0.983481 105.79
8.78079000 0.983481 105.84 0.180982 15.818 0.180982 15.818 0.983481 105.79
8.78080000 0.983481 105.84 0.180983 15.818 0.180983 15.818 0.983481 105.79
8.78081000 0.983481 105.84 0.180983 15.818 0.180983 15.818 0.983481 105.79
8.78082000 0.983481 105.84 0.180984 15.818 0.180984 15.818 0.983481 105.79
8.78083000 0.983481 105.84 0.180985 15.818 0.180985 15.818 0.983481 105.79
8.78084000 0.983481 105.84 0.180985 15.818 0.180985 15.818 0.983481 105.79
8.78085000 0.983480 105.84 0.180986 15.818 0.180986 15.818 0.983480 105.79
8.78086000 0.983480 105.84 0.180987 15.818 0.180987 15.818 0.983480 105.79
8.78087000 0.983480 105.84 0.180987 15.818 0.180987 15.818 0.983480 105.79
8.78088000 0.983480 105.84 0.180988 15.817 0.180988 15.817 0.983480 105.79
8.78089000 0.983480 105.84 0.180989 15.817 0.180989 15.817 0.983480 105.79
8.78090000 0.983480 105.84 0.180989 15.817 0.180989 15.817 0.983480 105.79
8.78091000 0.983480 105.84 0.180990 15.817 0.180990 15.817 0.983480 105.79
8.78092000 0.983480 105.84 0.180991 15.817 0.180991 15.817 0.983480 105.79
8.78093000 0.983480 105.84 0.180991 15.817 0.180991 15.817 0.983480 105.79
8.78094000 0.983479 105.84 0.180992 15.817 0.180992 15.817 0.983479 105.79
8.78095000 0.983479 105.84 0.180993 15.817 0.180993 15.817 0.983479 105.79
8.78096000 0.983479 105.84 0.180993 15.817 0.180993 15.817 0.983479 105.79
8.78097000 0.983479 105.84 0.180994 15.816 0.180994 15.816 0.983479 105.79
8.78098000 0.983479 105.84 0.180995 15.816 0.180995 15.816 0.983479 105.79
8.78099000 0.983479 105.84 0.180995 15.816 0.180995 15.816 0.983479 105.79
8.78100000 0.983479 105.84 0.180996 15.816 0.180996 15.816 0.983479 105.79
8.78101000 0.983479 105.84 0.180997 15.816 0.180997 15.816 0.983479 105.79
8.78102000 0.983478 105.84 0.180997 15.816 0.180997 15.816 0.983478 105.79
8.78103000 0.983478 105.84 0.180998 15.816 0.180998 15.816 0.983478 105.79
8.78104000 0.983478 105.84 0.180999 15.816 0.180999 15.816 0.983478 105.79
8.78105000 0.983478 105.84 0.180999 15.816 0.180999 15.816 0.983478 105.79
8.78106000 0.983478 105.84 0.181000 15.815 0.181000 15.815 0.983478 105.79
8.78107000 0.983478 105.84 0.181001 15.815 0.181001 15.815 0.983478 105.79
8.78108000 0.983478 105.84 0.181001 15.815 0.181001 15.815 0.983478 105.79
8.78109000 0.983478 105.84 0.181002 15.815 0.181002 15.815 0.983478 105.79
8.78110000 0.983477 105.84 0.181003 15.815 0.181003 15.815 0.983477 105.79
8.78111000 0.983477 105.84 0.181003 15.815 0.181003 15.815 0.983477 105.79
8.78112000 0.983477 105.84 0.181004 15.815 0.181004 15.815 0.983477 105.79
8.78113000 0.983477 105.84 0.181005 15.815 0.181005 15.815 0.983477 105.79
8.78114000 0.983477 105.84 0.181005 15.815 0.181005 15.815 0.983477 105.79
8.78115000 0.983477 105.84 0.181006 15.814 0.181006 15.814 0.983477 105.79
8.78116000 0.983477 105.84 0.181007 15.814 0.181007 15.814 0.983477 105.79
8.78117000 0.983477 105.84 0.181007 15.814 0.181007 15.814 0.983477 105.79
8.78118000 0.983476 105.84 0.181008 15.814 0.181008 15.814 0.983476 105.79
8.78119000 0.983476 105.84 0.181009 15.814 0.181009 15.814 0.983476 105.79
8.78120000 0.983476 105.84 0.181009 15.814 0.181009 15.814 0.983476 105.79
8.78121000 0.983476 105.84 0.181010 15.814 0.181010 15.814 0.983476 105.79
8.78122000 0.983476 105.84 0.181011 15.814 0.181011 15.814 0.983476 105.79
8.78123000 0.983476 105.84 0.181011 15.814 0.181011 15.814 0.983476 105.79
8.78124000 0.983476 105.84 0.181012 15.813 0.181012 15.813 0.983476 105.79
8.78125000 0.983476 105.84 0.181013 15.813 0.181013 15.813 0.983476 105.79
8.78126000 0.983475 105.84 0.181013 15.813 0.181013 15.813 0.983475 105.79
8.78127000 0.983475 105.84 0.181014 15.813 0.181014 15.813 0.983475 105.79
8.78128000 0.983475 105.84 0.181015 15.813 0.181015 15.813 0.983475 105.79
8.78129000 0.983475 105.84 0.181015 15.813 0.181015 15.813 0.983475 105.79
8.78130000 0.983475 105.84 0.181016 15.813 0.181016 15.813 0.983475 105.79
8.78131000 0.983475 105.84 0.181017 15.813 0.181017 15.813 0.983475 105.79
8.78132000 0.983475 105.84 0.181017 15.813 0.181017 15.813 0.983475 105.79
8.78133000 0.983475 105.84 0.181018 15.812 0.181018 15.812 0.983475 105.79
8.78134000 0.983474 105.84 0.181019 15.812 0.181019 15.812 0.983474 105.79
8.78135000 0.983474 105.84 0.181019 15.812 0.181019 15.812 0.983474 105.79
8.78136000 0.983474 105.84 0.181020 15.812 0.181020 15.812 0.983474 105.79
8.78137000 0.983474 105.84 0.181021 15.812 0.181021 15.812 0.983474 105.79
8.78138000 0.983474 105.83 0.181022 15.812 0.181022 15.812 0.983474 105.79
8.78139000 0.983474 105.83 0.181022 15.812 0.181022 15.812 0.983474 105.79
8.78140000 0.983474 105.83 0.181023 15.812 0.181023 15.812 0.983474 105.79
8.78141000 0.983474 105.83 0.181024 15.811 0.181024 15.811 0.983474 105.79
8.78142000 0.983473 105.83 0.181024 15.811 0.181024 15.811 0.983473 105.79
8.78143000 0.983473 105.83 0.181025 15.811 0.181025 15.811 0.983473 105.79
8.78144000 0.983473 105.83 0.181026 15.811 0.181026 15.811 0.983473 105.79
8.78145000 0.983473 105.83 0.181026 15.811 0.181026 15.811 0.983473 105.79
8.78146000 0.983473 105.83 0.181027 15.811 0.181027 15.811 0.983473 105.79
8.78147000 0.983473 105.83 0.181028 15.811 0.181028 15.811 0.983473 105.79
8.78148000 0.983473 105.83 0.181028 15.811 0.181028 15.811 0.983473 105.79
8.78149000 0.983472 105.83 0.181029 15.811 0.181029 15.811 0.983472 105.79
8.78150000 0.983472 105.83 0.181030 15.810 0.181030 15.810 0.983472 105.79
8.78151000 0.983472 105.83 0.181031 15.810 0.181031 15.810 0.983472 105.79
8.78152000 0.983472 105.83 0.181031 15.810 0.181031 15.810 0.983472 105.79
8.78153000 0.983472 105.83 0.181032 15.810 0.181032 15.810 0.983472 105.79
8.78154000 0.983472 105.83 0.181033 15.810 0.181033 15.810 0.983472 105.79
8.78155000 0.983472 105.83 0.181033 15.810 0.181033 15.810 0.983472 105.79
8.78156000 0.983472 105.83 0.181034 15.810 0.181034 15.810 0.983472 105.78
8.78157000 0.983471 105.83 0.181035 15.810 0.181035 15.810 0.983471 105.78
8.78158000 0.983471 105.83 0.181035 15.810 0.181035 15.810 0.983471 105.78
8.78159000 0.983471 105.83 0.181036 15.809 0.181036 15.809 0.983471 105.78
8.78160000 0.983471 105.83 0.181037 15.809 0.181037 15.809 0.983471 105.78
8.78161000 0.983471 105.83 0.181037 15.809 0.181037 15.809 0.983471 105.78
8.78162000 0.983471 105.83 0.181038 15.809 0.181038 15.809 0.983471 105.78
8.78163000 0.983471 105.83 0.181039 15.809 0.181039 15.809 0.983471 105.78
8.78164000 0.983471 105.83 0.181040 15.809 0.181040 15.809 0.983471 105.78
8.78165000 0.983470 105.83 0.181040 15.809 0.181040 15.809 0.983470 105.78
8.78166000 0.983470 105.83 0.181041 15.809 0.181041 15.809 0.983470 105.78
8.78167000 0.983470 105.83 0.181042 15.809 0.181042 15.809 0.983470 105.78
8.78168000 0.983470 105.83 0.181042 15.808 0.181042 15.808 0.983470 105.78
8.78169000 0.983470 105.83 0.181043 15.808 0.181043 15.808 0.983470 105.78
8.78170000 0.983470 105.83 0.181044 15.808 0.181044 15.808 0.983470 105.78
8.78171000 0.983470 105.83 0.181045 15.808 0.181045 15.808 0.983470 105.78
8.78172000 0.983469 105.83 0.181045 15.808 0.181045 15.808 0.983469 105.78
8.78173000 0.983469 105.83 0.181046 15.808 0.181046 15.808 0.983469 105.78
8.78174000 0.983469 105.83 0.181047 15.808 0.181047 15.808 0.983469 105.78
8.78175000 0.983469 105.83 0.181047 15.808 0.181047 15.808 0.983469 105.78
8.78176000 0.983469 105.83 0.181048 15.808 0.181048 15.808 0.983469 105.78
8.78177000 0.983469 105.83 0.181049 15.807 0.181049 15.807 0.983469 105.78
8.78178000 0.983469 105.83 0.181050 15.807 0.181050 15.807 0.983469 105.78
8.78179000 0.983469 105.83 0.181050 15.807 0.181050 15.807 0.983469 105.78
8.78180000 0.983468 105.83 0.181051 15.807 0.181051 15.807 0.983468 105.78
8.78181000 0.983468 105.83 0.181052 15.807 0.181052 15.807 0.983468 105.78
8.78182000 0.983468 105.83 0.181052 15.807 0.181052 15.807 0.983468 105.78
8.78183000 0.983468 105.83 0.181053 15.807 0.181053 15.807 0.983468 105.78
8.78184000 0.983468 105.83 0.181054 15.807 0.181054 15.807 0.983468 105.78
8.78185000 0.983468 105.83 0.181055 15.806 0.181055 15.806 0.983468 105.78
8.78186000 0.983468 105.83 0.181055 15.806 0.181055 15.806 0.983468 105.78
8.78187000 0.983467 105.83 0.181056 15.806 0.181056 15.806 0.983467 105.78
8.78188000 0.983467 105.83 0.181057 15.806 0.181057 15.806 0.983467 105.78
8.78189000 0.983467 105.83 0.181057 15.806 0.181057 15.806 0.983467 105.78
8.78190000 0.983467 105.83 0.181058 15.806 0.181058 15.806 0.983467 105.78
8.78191000 0.983467 105.83 0.181059 15.806 0.181059 15.806 0.983467 105.78
8.78192000 0.983467 105.83 0.181060 15.806 0.181060 15.806 0.983467 105.78
8.78193000 0.983467 105.83 0.181060 15.806 0.181060 15.806 0.983467 105.78
8.78194000 0.983467 105.83 0.181061 15.805 0.181061 15.805 0.983467 105.78
8.78195000 0.983466 105.83 0.181062 15.805 0.181062 15.805 0.983466 105.78
8.78196000 0.983466 105.83 0.181063 15.805 0.181063 15.805 0.983466 105.78
8.78197000 0.983466 105.83 0.181063 15.805 0.181063 15.805 0.983466 105.78
8.78198000 0.983466 105.83 0.181064 15.805 0.181064 15.805 0.983466 105.78
8.78199000 0.983466 105.83 0.181065 15.805 0.181065 15.805 0.983466 105.78
8.78200000 0.983466 105.83 0.181065 15.805 0.181065 15.805 0.983466 105.78
8.78201000 0.983466 105.83 0.181066 15.805 0.181066 15.805 0.983466 105.78
8.78202000 0.983465 105.83 0.181067 15.805 0.181067 15.805 0.983465 105.78
8.78203000 0.983465 105.83 0.181068 15.804 0.181068 15.804 0.983465 105.78
8.78204000 0.983465 105.83 0.181068 15.804 0.181068 15.804 0.983465 105.78
8.78205000 0.983465 105.83 0.181069 15.804 0.181069 15.804 0.983465 105.78
8.78206000 0.983465 105.83 0.181070 15.804 0.181070 15.804 0.983465 105.78
8.78207000 0.983465 105.83 0.181071 15.804 0.181071 15.804 0.983465 105.78
8.78208000 0.983465 105.83 0.181071 15.804 0.181071 15.804 0.983465 105.78
8.78209000 0.983464 105.83 0.181072 15.804 0.181072 15.804 0.983465 105.78
8.78210000 0.983464 105.83 0.181073 15.804 0.181073 15.804 0.983464 105.78
8.78211000 0.983464 105.83 0.181074 15.803 0.181074 15.803 0.983464 105.78
8.78212000 0.983464 105.83 0.181074 15.803 0.181074 15.803 0.983464 105.78
8.78213000 0.983464 105.83 0.181075 15.803 0.181075 15.803 0.983464 105.78
8.78214000 0.983464 105.83 0.181076 15.803 0.181076 15.803 0.983464 105.78
8.78215000 0.983464 105.83 0.181077 15.803 0.181077 15.803 0.983464 105.78
8.78216000 0.983464 105.83 0.181077 15.803 0.181077 15.803 0.983464 105.78
8.78217000 0.983463 105.83 0.181078 15.803 0.181078 15.803 0.983463 105.78
8.78218000 0.983463 105.83 0.181079 15.803 0.181079 15.803 0.983463 105.78
8.78219000 0.983463 105.83 0.181080 15.803 0.181080 15.803 0.983463 105.78
8.78220000 0.983463 105.83 0.181080 15.802 0.181080 15.802 0.983463 105.78
8.78221000 0.983463 105.83 0.181081 15.802 0.181081 15.802 0.983463 105.78
8.78222000 0.983463 105.83 0.181082 15.802 0.181082 15.802 0.983463 105.78
8.78223000 0.983463 105.83 0.181083 15.802 0.181083 15.802 0.983463 105.78
8.78224000 0.983462 105.83 0.181083 15.802 0.181083 15.802 0.983462 105.78
8.78225000 0.983462 105.83 0.181084 15.802 0.181084 15.802 0.983462 105.78
8.78226000 0.983462 105.82 0.181085 15.802 0.181085 15.802 0.983462 105.78
8.78227000 0.983462 105.82 0.181086 15.802 0.181086 15.802 0.983462 105.78
8.78228000 0.983462 105.82 0.181086 15.802 0.181086 15.802 0.983462 105.78
8.78229000 0.983462 105.82 0.181087 15.801 0.181087 15.801 0.983462 105.78
8.78230000 0.983462 105.82 0.181088 15.801 0.181088 15.801 0.983462 105.78
8.78231000 0.983461 105.82 0.181089 15.801 0.181089 15.801 0.983461 105.78
8.78232000 0.983461 105.82 0.181089 15.801 0.181089 15.801 0.983461 105.78
8.78233000 0.983461 105.82 0.181090 15.801 0.181090 15.801 0.983461 105.78
8.78234000 0.983461 105.82 0.181091 15.801 0.181091 15.801 0.983461 105.78
8.78235000 0.983461 105.82 0.181092 15.801 0.181092 15.801 0.983461 105.78
8.78236000 0.983461 105.82 0.181092 15.801 0.181092 15.801 0.983461 105.78
8.78237000 0.983461 105.82 0.181093 15.800 0.181093 15.800 0.983461 105.78
8.78238000 0.983460 105.82 0.181094 15.800 0.181094 15.800 0.983460 105.78
8.78239000 0.983460 105.82 0.181095 15.800 0.181095 15.800 0.983460 105.78
8.78240000 0.983460 105.82 0.181095 15.800 0.181095 15.800 0.983460 105.78
8.78241000 0.983460 105.82 0.181096 15.800 0.181096 15.800 0.983460 105.78
8.78242000 0.983460 105.82 0.181097 15.800 0.181097 15.800 0.983460 105.78
8.78243000 0.983460 105.82 0.181098 15.800 0.181098 15.800 0.983460 105.77
8.78244000 0.983460 105.82 0.181098 15.800 0.181098 15.800 0.983460 105.77
8.78245000 0.983459 105.82 0.181099 15.800 0.181099 15.800 0.983459 105.77
8.78246000 0.983459 105.82 0.181100 15.799 0.181100 15.799 0.983459 105.77
8.78247000 0.983459 105.82 0.181101 15.799 0.181101 15.799 0.983459 105.77
8.78248000 0.983459 105.82 0.181102 15.799 0.181102 15.799 0.983459 105.77
8.78249000 0.983459 105.82 0.181102 15.799 0.181102 15.799 0.983459 105.77
8.78250000 0.983459 105.82 0.181103 15.799 0.181103 15.799 0.983459 105.77
8.78251000 0.983459 105.82 0.181104 15.799 0.181104 15.799 0.983459 105.77
8.78252000 0.983458 105.82 0.181105 15.799 0.181105 15.799 0.983458 105.77
8.78253000 0.983458 105.82 0.181105 15.799 0.181105 15.799 0.983458 105.77
8.78254000 0.983458 105.82 0.181106 15.798 0.181106 15.798 0.983458 105.77
8.78255000 0.983458 105.82 0.181107 15.798 0.181107 15.798 0.983458 105.77
8.78256000 0.983458 105.82 0.181108 15.798 0.181108 15.798 0.983458 105.77
8.78257000 0.983458 105.82 0.181109 15.798 0.181109 15.798 0.983458 105.77
8.78258000 0.983458 105.82 0.181109 15.798 0.181109 15.798 0.983458 105.77
8.78259000 0.983457 105.82 0.181110 15.798 0.181110 15.798 0.983457 105.77
8.78260000 0.983457 105.82 0.181111 15.798 0.181111 15.798 0.983457 105.77
8.78261000 0.983457 105.82 0.181112 15.798 0.181112 15.798 0.983457 105.77
8.78262000 0.983457 105.82 0.181112 15.798 0.181112 15.798 0.983457 105.77
8.78263000 0.983457 105.82 0.181113 15.797 0.181113 15.797 0.983457 105.77
8.78264000 0.983457 105.82 0.181114 15.797 0.181114 15.797 0.983457 105.77
8.78265000 0.983457 105.82 0.181115 15.797 0.181115 15.797 0.983457 105.77
8.78266000 0.983456 105.82 0.181116 15.797 0.181116 15.797 0.983456 105.77
8.78267000 0.983456 105.82 0.181116 15.797 0.181116 15.797 0.983456 105.77
8.78268000 0.983456 105.82 0.181117 15.797 0.181117 15.797 0.983456 105.77
8.78269000 0.983456 105.82 0.181118 15.797 0.181118 15.797 0.983456 105.77
8.78270000 0.983456 105.82 0.181119 15.797 0.181119 15.797 0.983456 105.77
8.78271000 0.983456 105.82 0.181120 15.796 0.181120 15.796 0.983456 105.77
8.78272000 0.983456 105.82 0.181120 15.796 0.181120 15.796 0.983456 105.77
8.78273000 0.983455 105.82 0.181121 15.796 0.181121 15.796 0.983455 105.77
8.78274000 0.983455 105.82 0.181122 15.796 0.181122 15.796 0.983455 105.77
8.78275000 0.983455 105.82 0.181123 15.796 0.181123 15.796 0.983455 105.77
8.78276000 0.983455 105.82 0.181123 15.796 0.181123 15.796 0.983455 105.77
8.78277000 0.983455 105.82 0.181124 15.796 0.181124 15.796 0.983455 105.77
8.78278000 0.983455 105.82 0.181125 15.796 0.181125 15.796 0.983455 105.77
8.78279000 0.983454 105.82 0.181126 15.795 0.181126 15.795 0.983454 105.77
8.78280000 0.983454 105.82 0.181127 15.795 0.181127 15.795 0.983454 105.77
8.78281000 0.983454 105.82 0.181127 15.795 0.181127 15.795 0.983454 105.77
8.78282000 0.983454 105.82 0.181128 15.795 0.181128 15.795 0.983454 105.77
8.78283000 0.983454 105.82 0.181129 15.795 0.181129 15.795 0.983454 105.77
8.78284000 0.983454 105.82 0.181130 15.795 0.181130 15.795 0.983454 105.77
8.78285000 0.983454 105.82 0.181131 15.795 0.181131 15.795 0.983454 105.77
8.78286000 0.983453 105.82 0.181131 15.795 0.181131 15.795 0.983453 105.77
8.78287000 0.983453 105.82 0.181132 15.795 0.181132 15.795 0.983453 105.77
8.78288000 0.983453 105.82 0.181133 15.794 0.181133 15.794 0.983453 105.77
8.78289000 0.983453 105.82 0.181134 15.794 0.181134 15.794 0.983453 105.77
8.78290000 0.983453 105.82 0.181135 15.794 0.181135 15.794 0.983453 105.77
8.78291000 0.983453 105.82 0.181136 15.794 0.181136 15.794 0.983453 105.77
8.78292000 0.983453 105.82 0.181136 15.794 0.181136 15.794 0.983453 105.77
8.78293000 0.983452 105.82 0.181137 15.794 0.181137 15.794 0.983452 105.77
8.78294000 0.983452 105.82 0.181138 15.794 0.181138 15.794 0.983452 105.77
8.78295000 0.983452 105.82 0.181139 15.794 0.181139 15.794 0.983452 105.77
8.78296000 0.983452 105.82 0.181140 15.793 0.181140 15.793 0.983452 105.77
8.78297000 0.983452 105.82 0.181140 15.793 0.181140 15.793 0.983452 105.77
8.78298000 0.983452 105.82 0.181141 15.793 0.181141 15.793 0.983452 105.77
8.78299000 0.983451 105.82 0.181142 15.793 0.181142 15.793 0.983451 105.77
8.78300000 0.983451 105.82 0.181143 15.793 0.181143 15.793 0.983451 105.77
8.78301000 0.983451 105.82 0.181144 15.793 0.181144 15.793 0.983451 105.77
8.78302000 0.983451 105.82 0.181145 15.793 0.181145 15.793 0.983451 105.77
8.78303000 0.983451 105.82 0.181145 15.793 0.181145 15.793 0.983451 105.77
8.78304000 0.983451 105.82 0.181146 15.792 0.181146 15.792 0.983451 105.77
8.78305000 0.983451 105.82 0.181147 15.792 0.181147 15.792 0.983451 105.77
8.78306000 0.983450 105.82 0.181148 15.792 0.181148 15.792 0.983450 105.77
8.78307000 0.983450 105.82 0.181149 15.792 0.181149 15.792 0.983450 105.77
8.78308000 0.983450 105.82 0.181149 15.792 0.181149 15.792 0.983450 105.77
8.78309000 0.983450 105.82 0.181150 15.792 0.181150 15.792 0.983450 105.77
8.78310000 0.983450 105.81 0.181151 15.792 0.181151 15.792 0.983450 105.77
8.78311000 0.983450 105.81 0.181152 15.792 0.181152 15.792 0.983450 105.77
8.78312000 0.983449 105.81 0.181153 15.792 0.181153 15.792 0.983449 105.77
8.78313000 0.983449 105.81 0.181154 15.791 0.181154 15.791 0.983449 105.77
8.78314000 0.983449 105.81 0.181154 15.791 0.181154 15.791 0.983449 105.77
8.78315000 0.983449 105.81 0.181155 15.791 0.181155 15.791 0.983449 105.77
8.78316000 0.983449 105.81 0.181156 15.791 0.181156 15.791 0.983449 105.77
8.78317000 0.983449 105.81 0.181157 15.791 0.181157 15.791 0.983449 105.77
8.78318000 0.983449 105.81 0.181158 15.791 0.181158 15.791 0.983449 105.77
8.78319000 0.983448 105.81 0.181159 15.791 0.181159 15.791 0.983448 105.77
8.78320000 0.983448 105.81 0.181159 15.791 0.181159 15.791 0.983448 105.77
8.78321000 0.983448 105.81 0.181160 15.790 0.181160 15.790 0.983448 105.77
8.78322000 0.983448 105.81 0.181161 15.790 0.181161 15.790 0.983448 105.77
8.78323000 0.983448 105.81 0.181162 15.790 0.181162 15.790 0.983448 105.77
8.78324000 0.983448 105.81 0.181163 15.790 0.181163 15.790 0.983448 105.77
8.78325000 0.983447 105.81 0.181164 15.790 0.181164 15.790 0.983447 105.77
8.78326000 0.983447 105.81 0.181165 15.790 0.181165 15.790 0.983447 105.77
8.78327000 0.983447 105.81 0.181165 15.790 0.181165 15.790 0.983447 105.76
8.78328000 0.983447 105.81 0.181166 15.790 0.181166 15.790 0.983447 105.76
8.78329000 0.983447 105.81 0.181167 15.789 0.181167 15.789 0.983447 105.76
8.78330000 0.983447 105.81 0.181168 15.789 0.181168 15.789 0.983447 105.76
8.78331000 0.983447 105.81 0.181169 15.789 0.181169 15.789 0.983447 105.76
8.78332000 0.983446 105.81 0.181170 15.789 0.181170 15.789 0.983446 105.76
8.78333000 0.983446 105.81 0.181170 15.789 0.181170 15.789 0.983446 105.76
8.78334000 0.983446 105.81 0.181171 15.789 0.181171 15.789 0.983446 105.76
8.78335000 0.983446 105.81 0.181172 15.789 0.181172 15.789 0.983446 105.76
8.78336000 0.983446 105.81 0.181173 15.789 0.181173 15.789 0.983446 105.76
8.78337000 0.983446 105.81 0.181174 15.788 0.181174 15.788 0.983446 105.76
8.78338000 0.983445 105.81 0.181175 15.788 0.181175 15.788 0.983445 105.76
8.78339000 0.983445 105.81 0.181176 15.788 0.181176 15.788 0.983445 105.76
8.78340000 0.983445 105.81 0.181176 15.788 0.181176 15.788 0.983445 105.76
8.78341000 0.983445 105.81 0.181177 15.788 0.181177 15.788 0.983445 105.76
8.78342000 0.983445 105.81 0.181178 15.788 0.181178 15.788 0.983445 105.76
8.78343000 0.983445 105.81 0.181179 15.788 0.181179 15.788 0.983445 105.76
8.78344000 0.983444 105.81 0.181180 15.788 0.181180 15.788 0.983444 105.76
8.78345000 0.983444 105.81 0.181181 15.787 0.181181 15.787 0.983444 105.76
8.78346000 0.983444 105.81 0.181182 15.787 0.181182 15.787 0.983444 105.76
8.78347000 0.983444 105.81 0.181183 15.787 0.181183 15.787 0.983444 105.76
8.78348000 0.983444 105.81 0.181183 15.787 0.181183 15.787 0.983444 105.76
8.78349000 0.983444 105.81 0.181184 15.787 0.181184 15.787 0.983444 105.76
8.78350000 0.983443 105.81 0.181185 15.787 0.181185 15.787 0.983443 105.76
8.78351000 0.983443 105.81 0.181186 15.787 0.181186 15.787 0.983443 105.76
8.78352000 0.983443 105.81 0.181187 15.787 0.181187 15.787 0.983443 105.76
8.78353000 0.983443 105.81 0.181188 15.786 0.181188 15.786 0.983443 105.76
8.78354000 0.983443 105.81 0.181189 15.786 0.181189 15.786 0.983443 105.76
8.78355000 0.983443 105.81 0.181189 15.786 0.181189 15.786 0.983443 105.76
8.78356000 0.983442 105.81 0.181190 15.786 0.181190 15.786 0.983442 105.76
8.78357000 0.983442 105.81 0.181191 15.786 0.181191 15.786 0.983442 105.76
8.78358000 0.983442 105.81 0.181192 15.786 0.181192 15.786 0.983442 105.76
8.78359000 0.983442 105.81 0.181193 15.786 0.181193 15.786 0.983442 105.76
8.78360000 0.983442 105.81 0.181194 15.786 0.181194 15.786 0.983442 105.76
8.78361000 0.983442 105.81 0.181195 15.786 0.181195 15.786 0.983442 105.76
8.78362000 0.983441 105.81 0.181196 15.785 0.181196 15.785 0.983441 105.76
8.78363000 0.983441 105.81 0.181197 15.785 0.181197 15.785 0.983441 105.76
8.78364000 0.983441 105.81 0.181197 15.785 0.181197 15.785 0.983441 105.76
8.78365000 0.983441 105.81 0.181198 15.785 0.181198 15.785 0.983441 105.76
8.78366000 0.983441 105.81 0.181199 15.785 0.181199 15.785 0.983441 105.76
8.78367000 0.983441 105.81 0.181200 15.785 0.181200 15.785 0.983441 105.76
8.78368000 0.983440 105.81 0.181201 15.785 0.181201 15.785 0.983441 105.76
8.78369000 0.983440 105.81 0.181202 15.785 0.181202 15.785 0.983440 105.76
8.78370000 0.983440 105.81 0.181203 15.784 0.181203 15.784 0.983440 105.76
8.78371000 0.983440 105.81 0.181204 15.784 0.181204 15.784 0.983440 105.76
8.78372000 0.983440 105.81 0.181205 15.784 0.181205 15.784 0.983440 105.76
8.78373000 0.983440 105.81 0.181205 15.784 0.181205 15.784 0.983440 105.76
8.78374000 0.983439 105.81 0.181206 15.784 0.181206 15.784 0.983440 105.76
8.78375000 0.983439 105.81 0.181207 15.784 0.181207 15.784 0.983439 105.76
8.78376000 0.983439 105.81 0.181208 15.784 0.181208 15.784 0.983439 105.76
8.78377000 0.983439 105.81 0.181209 15.784 0.181209 15.784 0.983439 105.76
8.78378000 0.983439 105.81 0.181210 15.783 0.181210 15.783 0.983439 105.76
8.78379000 0.983439 105.81 0.181211 15.783 0.181211 15.783 0.983439 105.76
8.78380000 0.983438 105.81 0.181212 15.783 0.181212 15.783 0.983438 105.76
8.78381000 0.983438 105.81 0.181213 15.783 0.181213 15.783 0.983438 105.76
8.78382000 0.983438 105.81 0.181214 15.783 0.181214 15.783 0.983438 105.76
8.78383000 0.983438 105.81 0.181214 15.783 0.181214 15.783 0.983438 105.76
8.78384000 0.983438 105.81 0.181215 15.783 0.181215 15.783 0.983438 105.76
8.78385000 0.983438 105.81 0.181216 15.782 0.181216 15.782 0.983438 105.76
8.78386000 0.983437 105.81 0.181217 15.782 0.181217 15.782 0.983437 105.76
8.78387000 0.983437 105.81 0.181218 15.782 0.181218 15.782 0.983437 105.76
8.78388000 0.983437 105.81 0.181219 15.782 0.181219 15.782 0.983437 105.76
8.78389000 0.983437 105.81 0.181220 15.782 0.181220 15.782 0.983437 105.76
8.78390000 0.983437 105.81 0.181221 15.782 0.181221 15.782 0.983437 105.76
8.78391000 0.983437 105.80 0.181222 15.782 0.181222 15.782 0.983437 105.76
8.78392000 0.983436 105.80 0.181223 15.782 0.181223 15.782 0.983436 105.76