! Sonnet Data File
! From: emgraph Version : 16.52
! From Project: 171114transmon_trace_brg
! Data is De-embedded 
! Data File Written: 11/14/2017 19:58:17
!< HDATE 11/14/2017 18:03:22
!< MDATE 11/14/2017 18:03:22
!< PARAMS
!< Lj = 15.24
!< Gap = 14.0
!< Width = 10.0
!< Airgap = 6.0
!< Pwidth = 2000.0
!< Dist = 1000.0
!< END PARAMS
# GHZ S MA R 34.87000
8.615000000000000 0.9911983857908 117.07984924288 0.1323573794745 27.074807914196 0.1323573794742 27.074807914186 0.9911983894241 117.06777309485
!< P1 F=8.615 Eeff=(5.13377404 -5.6313e-5) Z0=(34.6595714 -9.1612e-5) R=0.0 C=0.0 
!< P2 F=8.615 Eeff=(5.13377404 -5.6313e-5) Z0=(34.6595714 -9.1612e-5) R=0.0 C=0.0 
8.615005000000000 0.9911983613604 117.07980667543 0.1323575615051 27.074765254753 0.1323575615051 27.074765254753 0.9911983647477 117.06773061013
8.615010000000000 0.9911983366143 117.07976412305 0.1323577433887 27.074722554113 0.1323577433887 27.074722554113 0.9911983400355 117.06768813179
8.615015000000001 0.9911983118507 117.07972156342 0.1323579253969 27.074679845913 0.1323579253969 27.074679845913 0.9911983153058 117.06764564631
8.615020000000001 0.9911982870696 117.07967899652 0.1323581075298 27.074637130151 0.1323581075298 27.074637130151 0.9911982905586 117.06760315366
8.615025000000001 0.9911982622711 117.07963642236 0.1323582897876 27.074594406819 0.1323582897876 27.074594406819 0.9911982657939 117.06756065386
8.615030000000001 0.9911982374550 117.07959384093 0.1323584721702 27.074551675907 0.1323584721702 27.074551675907 0.9911982410116 117.06751814688
8.615035000000001 0.9911982126213 117.07955125219 0.1323586546785 27.074508937374 0.1323586546785 27.074508937374 0.9911982162117 117.06747563269
8.615040000000000 0.9911981877700 117.07950865615 0.1323588373121 27.074466191236 0.1323588373121 27.074466191236 0.9911981913942 117.06743311131
8.615045000000000 0.9911981629011 117.07946605276 0.1323590200719 27.074423437445 0.1323590200719 27.074423437445 0.9911981665589 117.06739058269
8.615050000000000 0.9911981380145 117.07942344204 0.1323592029577 27.074380676011 0.1323592029577 27.074380676011 0.9911981417060 117.06734804683
8.615055000000000 0.9911981131101 117.07938082396 0.1323593859699 27.074337906905 0.1323593859699 27.074337906905 0.9911981168353 117.06730550372
8.615060000000000 0.9911980881881 117.07933819852 0.1323595691085 27.074295130129 0.1323595691085 27.074295130129 0.9911980919469 117.06726295335
8.615065000000001 0.9911980632482 117.07929556568 0.1323597523741 27.074252345650 0.1323597523741 27.074252345650 0.9911980670406 117.06722039570
8.615070000000001 0.9911980382905 117.07925292546 0.1323599357666 27.074209553466 0.1323599357666 27.074209553466 0.9911980421165 117.06717783076
8.615075000000001 0.9911980133149 117.07921027782 0.1323601192866 27.074166753549 0.1323601192866 27.074166753549 0.9911980171745 117.06713525850
8.615080000000001 0.9911979883215 117.07916762276 0.1323603029341 27.074123945902 0.1323603029341 27.074123945902 0.9911979922147 117.06709267893
8.615085000000001 0.9911979633101 117.07912496024 0.1323604867096 27.074081130477 0.1323604867096 27.074081130477 0.9911979672368 117.06705009201
8.615090000000000 0.9911979382808 117.07908229029 0.1323606706128 27.074038307302 0.1323606706128 27.074038307302 0.9911979422409 117.06700749776
8.615095000000000 0.9911979132335 117.07903961285 0.1323608546446 27.073995476330 0.1323608546446 27.073995476330 0.9911979172271 117.06696489613
8.615100000000000 0.9911978881681 117.07899692792 0.1323610388050 27.073952637544 0.1323610388050 27.073952637544 0.9911978921951 117.06692228711
8.615105000000000 0.9911978630847 117.07895423551 0.1323612230941 27.073909790952 0.1323612230941 27.073909790952 0.9911978671451 117.06687967071
8.615110000000001 0.9911978379831 117.07891153558 0.1323614075122 27.073866936531 0.1323614075122 27.073866936531 0.9911978420770 117.06683704691
8.615115000000001 0.9911978128634 117.07886882811 0.1323615920598 27.073824074251 0.1323615920598 27.073824074251 0.9911978169906 117.06679441567
8.615120000000001 0.9911977877256 117.07882611311 0.1323617767370 27.073781204108 0.1323617767370 27.073781204108 0.9911977918861 117.06675177700
8.615125000000001 0.9911977625695 117.07878339054 0.1323619615440 27.073738326077 0.1323619615440 27.073738326077 0.9911977667633 117.06670913088
8.615130000000001 0.9911977373952 117.07874066041 0.1323621464808 27.073695440171 0.1323621464808 27.073695440171 0.9911977416223 117.06666647730
8.615135000000000 0.9911977122025 117.07869792269 0.1323623315482 27.073652546338 0.1323623315482 27.073652546338 0.9911977164629 117.06662381623
8.615140000000000 0.9911976869916 117.07865517737 0.1323625167461 27.073609644581 0.1323625167461 27.073609644581 0.9911976912852 117.06658114767
8.615145000000000 0.9911976617623 117.07861242442 0.1323627020750 27.073566734874 0.1323627020750 27.073566734874 0.9911976660891 117.06653847159
8.615150000000000 0.9911976365146 117.07856966384 0.1323628875350 27.073523817207 0.1323628875350 27.073523817207 0.9911976408746 117.06649578799
8.615155000000000 0.9911976112484 117.07852689562 0.1323630731261 27.073480891576 0.1323630731261 27.073480891576 0.9911976156416 117.06645309685
8.615160000000001 0.9911975859638 117.07848411973 0.1323632588490 27.073437957946 0.1323632588490 27.073437957946 0.9911975903902 117.06641039816
8.615165000000001 0.9911975606607 117.07844133617 0.1323634447038 27.073395016308 0.1323634447038 27.073395016308 0.9911975651201 117.06636769190
8.615170000000001 0.9911975353391 117.07839854491 0.1323636306907 27.073352066649 0.1323636306907 27.073352066649 0.9911975398316 117.06632497805
8.615175000000001 0.9911975099988 117.07835574596 0.1323638168099 27.073309108963 0.1323638168099 27.073309108963 0.9911975145244 117.06628225661
8.615180000000001 0.9911974846400 117.07831293927 0.1323640030618 27.073266143206 0.1323640030618 27.073266143207 0.9911974891986 117.06623952756
8.615185000000000 0.9911974592625 117.07827012485 0.1323641894467 27.073223169380 0.1323641894467 27.073223169380 0.9911974638541 117.06619679087
8.615190000000000 0.9911974338663 117.07822730267 0.1323643759648 27.073180187467 0.1323643759648 27.073180187467 0.9911974384909 117.06615404653
8.615195000000000 0.9911974084513 117.07818447274 0.1323645626160 27.073137197464 0.1323645626160 27.073137197464 0.9911974131089 117.06611129456
8.615200000000000 0.9911973830176 117.07814163500 0.1323647494013 27.073094199322 0.1323647494013 27.073094199322 0.9911973877081 117.06606853489
8.615205000000001 0.9911973575651 117.07809878948 0.1323649363204 27.073051193054 0.1323649363204 27.073051193054 0.9911973622885 117.06602576754
8.615210000000001 0.9911973320937 117.07805593613 0.1323651233738 27.073008178630 0.1323651233738 27.073008178630 0.9911973368501 117.06598299248
8.615215000000001 0.9911973066035 117.07801307497 0.1323653105616 27.072965156043 0.1323653105616 27.072965156043 0.9911973113927 117.06594020971
8.615220000000001 0.9911972810943 117.07797020595 0.1323654978843 27.072922125257 0.1323654978843 27.072922125257 0.9911972859164 117.06589741919
8.615225000000001 0.9911972555662 117.07792732908 0.1323656853418 27.072879086289 0.1323656853418 27.072879086289 0.9911972604211 117.06585462094
8.615230000000000 0.9911972300191 117.07788444432 0.1323658729348 27.072836039088 0.1323658729348 27.072836039088 0.9911972349067 117.06581181491
8.615235000000000 0.9911972044530 117.07784155168 0.1323660606632 27.072792983658 0.1323660606632 27.072792983658 0.9911972093734 117.06576900111
8.615240000000000 0.9911971788678 117.07779865113 0.1323662485275 27.072749919976 0.1323662485275 27.072749919976 0.9911971838209 117.06572617951
8.615245000000000 0.9911971532634 117.07775574265 0.1323664365281 27.072706848017 0.1323664365281 27.072706848017 0.9911971582493 117.06568335008
8.615250000000001 0.9911971276399 117.07771282623 0.1323666246648 27.072663767785 0.1323666246648 27.072663767785 0.9911971326585 117.06564051285
8.615255000000001 0.9911971019973 117.07766990186 0.1323668129383 27.072620679247 0.1323668129383 27.072620679247 0.9911971070485 117.06559766776
8.615260000000001 0.9911970763353 117.07762696952 0.1323670013487 27.072577582389 0.1323670013487 27.072577582389 0.9911970814192 117.06555481482
8.615265000000001 0.9911970506542 117.07758402920 0.1323671898961 27.072534477198 0.1323671898961 27.072534477198 0.9911970557707 117.06551195401
8.615270000000001 0.9911970249537 117.07754108087 0.1323673785811 27.072491363657 0.1323673785811 27.072491363657 0.9911970301028 117.06546908530
8.615275000000000 0.9911969992339 117.07749812452 0.1323675674039 27.072448241740 0.1323675674039 27.072448241740 0.9911970044155 117.06542620869
8.615280000000000 0.9911969734947 117.07745516015 0.1323677563646 27.072405111449 0.1323677563646 27.072405111449 0.9911969787089 117.06538332416
8.615285000000000 0.9911969477360 117.07741218771 0.1323679454637 27.072361972743 0.1323679454637 27.072361972743 0.9911969529828 117.06534043169
8.615290000000000 0.9911969219580 117.07736920722 0.1323681347011 27.072318825634 0.1323681347011 27.072318825634 0.9911969272372 117.06529753127
8.615295000000000 0.9911968961604 117.07732621864 0.1323683240775 27.072275670075 0.1323683240775 27.072275670075 0.9911969014721 117.06525462289
8.615300000000001 0.9911968703432 117.07728322195 0.1323685135932 27.072232506054 0.1323685135932 27.072232506054 0.9911968756874 117.06521170650
8.615305000000001 0.9911968445065 117.07724021718 0.1323687032477 27.072189333589 0.1323687032477 27.072189333589 0.9911968498831 117.06516878215
8.615310000000001 0.9911968186501 117.07719720424 0.1323688930426 27.072146152600 0.1323688930426 27.072146152600 0.9911968240591 117.06512584974
8.615315000000001 0.9911967927742 117.07715418318 0.1323690829770 27.072102963134 0.1323690829770 27.072102963134 0.9911967982155 117.06508290933
8.615320000000001 0.9911967668784 117.07711115394 0.1323692730518 27.072059765124 0.1323692730518 27.072059765124 0.9911967723522 117.06503996085
8.615325000000000 0.9911967409630 117.07706811653 0.1323694632669 27.072016558592 0.1323694632669 27.072016558592 0.9911967464691 117.06499700433
8.615330000000000 0.9911967150277 117.07702507091 0.1323696536231 27.071973343486 0.1323696536231 27.071973343486 0.9911967205661 117.06495403970
8.615335000000000 0.9911966890727 117.07698201709 0.1323698441202 27.071930119813 0.1323698441202 27.071930119813 0.9911966946434 117.06491106699
8.615340000000000 0.9911966630978 117.07693895504 0.1323700347586 27.071886887544 0.1323700347586 27.071886887544 0.9911966687007 117.06486808616
8.615345000000001 0.9911966371029 117.07689588473 0.1323702255388 27.071843646659 0.1323702255388 27.071843646659 0.9911966427381 117.06482509720
8.615350000000001 0.9911966110882 117.07685280618 0.1323704164607 27.071800397166 0.1323704164607 27.071800397166 0.9911966167555 117.06478210011
8.615355000000001 0.9911965850534 117.07680971934 0.1323706075250 27.071757139007 0.1323706075250 27.071757139007 0.9911965907530 117.06473909485
8.615360000000001 0.9911965589986 117.07676662421 0.1323707987316 27.071713872199 0.1323707987316 27.071713872199 0.9911965647304 117.06469608141
8.615365000000001 0.9911965329238 117.07672352076 0.1323709900811 27.071670596702 0.1323709900811 27.071670596702 0.9911965386876 117.06465305977
8.615370000000000 0.9911965068288 117.07668040898 0.1323711815737 27.071627312504 0.1323711815737 27.071627312504 0.9911965126248 117.06461002992
8.615375000000000 0.9911964807137 117.07663728886 0.1323713732097 27.071584019590 0.1323713732097 27.071584019590 0.9911964865418 117.06456699184
8.615380000000000 0.9911964545783 117.07659416038 0.1323715649893 27.071540717942 0.1323715649893 27.071540717942 0.9911964604385 117.06452394552
8.615385000000000 0.9911964284228 117.07655102351 0.1323717569128 27.071497407542 0.1323717569128 27.071497407542 0.9911964343150 117.06448089094
8.615390000000000 0.9911964022470 117.07650787825 0.1323719489805 27.071454088370 0.1323719489805 27.071454088370 0.9911964081712 117.06443782808
8.615395000000001 0.9911963760508 117.07646472458 0.1323721411928 27.071410760418 0.1323721411928 27.071410760418 0.9911963820071 117.06439475693
8.615400000000001 0.9911963498343 117.07642156247 0.1323723335500 27.071367423640 0.1323723335500 27.071367423640 0.9911963558226 117.06435167745
8.615405000000001 0.9911963235974 117.07637839192 0.1323725260521 27.071324078053 0.1323725260521 27.071324078053 0.9911963296176 117.06430858966
8.615410000000001 0.9911962973401 117.07633521290 0.1323727186998 27.071280723611 0.1323727186998 27.071280723611 0.9911963033922 117.06426549351
8.615415000000000 0.9911962710622 117.07629202539 0.1323729114931 27.071237360310 0.1323729114931 27.071237360310 0.9911962771463 117.06422238901
8.615420000000000 0.9911962447639 117.07624882940 0.1323731044323 27.071193988140 0.1323731044323 27.071193988140 0.9911962508798 117.06417927613
8.615425000000000 0.9911962184449 117.07620562488 0.1323732975180 27.071150607063 0.1323732975180 27.071150607063 0.9911962245927 117.06413615485
8.615430000000000 0.9911961921054 117.07616241183 0.1323734907502 27.071107217064 0.1323734907502 27.071107217064 0.9911961982850 117.06409302515
8.615435000000000 0.9911961657452 117.07611919024 0.1323736841291 27.071063818144 0.1323736841291 27.071063818144 0.9911961719567 117.06404988704
8.615440000000001 0.9911961393643 117.07607596007 0.1323738776553 27.071020410262 0.1323738776553 27.071020410262 0.9911961456075 117.06400674047
8.615445000000001 0.9911961129626 117.07603272131 0.1323740713291 27.070976993409 0.1323740713291 27.070976993409 0.9911961192377 117.06396358543
8.615450000000001 0.9911960865402 117.07598947395 0.1323742651506 27.070933567562 0.1323742651506 27.070933567562 0.9911960928470 117.06392042191
8.615455000000001 0.9911960600969 117.07594621797 0.1323744591202 27.070890132704 0.1323744591202 27.070890132704 0.9911960664354 117.06387724989
8.615460000000001 0.9911960336328 117.07590295335 0.1323746532382 27.070846688826 0.1323746532382 27.070846688826 0.9911960400030 117.06383406935
8.615465000000000 0.9911960071477 117.07585968009 0.1323748475047 27.070803235904 0.1323748475047 27.070803235904 0.9911960135497 117.06379088029
8.615470000000000 0.9911959806417 117.07581639813 0.1323750419206 27.070759773897 0.1323750419206 27.070759773897 0.9911959870753 117.06374768266
8.615475000000000 0.9911959541147 117.07577310750 0.1323752364854 27.070716302827 0.1323752364854 27.070716302827 0.9911959605799 117.06370447648
8.615480000000000 0.9911959275666 117.07572980815 0.1323754311999 27.070672822645 0.1323754311999 27.070672822645 0.9911959340635 117.06366126171
8.615485000000001 0.9911959009974 117.07568650006 0.1323756260645 27.070629333334 0.1323756260645 27.070629333334 0.9911959075259 117.06361803832
8.615490000000001 0.9911958744072 117.07564318324 0.1323758210792 27.070585834886 0.1323758210792 27.070585834886 0.9911958809672 117.06357480632
8.615495000000001 0.9911958477957 117.07559985765 0.1323760162445 27.070542327277 0.1323760162445 27.070542327277 0.9911958543873 117.06353156567
8.615500000000001 0.9911958211630 117.07555652329 0.1323762115604 27.070498810490 0.1323762115604 27.070498810490 0.9911958277861 117.06348831638
8.615505000000001 0.9911957945090 117.07551318012 0.1323764070277 27.070455284499 0.1323764070277 27.070455284499 0.9911958011636 117.06344505840
8.615510000000000 0.9911957678338 117.07546982815 0.1323766026462 27.070411749306 0.1323766026462 27.070411749306 0.9911957745199 117.06340179175
8.615515000000000 0.9911957411371 117.07542646733 0.1323767984166 27.070368204862 0.1323767984166 27.070368204862 0.9911957478547 117.06335851637
8.615520000000000 0.9911957144191 117.07538309765 0.1323769943392 27.070324651153 0.1323769943392 27.070324651153 0.9911957211681 117.06331523226
8.615525000000000 0.9911956876796 117.07533971911 0.1323771904142 27.070281088179 0.1323771904142 27.070281088179 0.9911956944600 117.06327193940
8.615530000000000 0.9911956609186 117.07529633168 0.1323773866417 27.070237515908 0.1323773866417 27.070237515908 0.9911956677305 117.06322863779
8.615535000000001 0.9911956341361 117.07525293533 0.1323775830223 27.070193934323 0.1323775830223 27.070193934323 0.9911956409793 117.06318532739
8.615540000000001 0.9911956073320 117.07520953006 0.1323777795563 27.070150343398 0.1323777795563 27.070150343398 0.9911956142066 117.06314200819
8.615545000000001 0.9911955805063 117.07516611585 0.1323779762439 27.070106743121 0.1323779762439 27.070106743121 0.9911955874122 117.06309868017
8.615550000000001 0.9911955536589 117.07512269267 0.1323781730855 27.070063133475 0.1323781730855 27.070063133475 0.9911955605961 117.06305534331
8.615555000000001 0.9911955267898 117.07507926051 0.1323783700814 27.070019514427 0.1323783700814 27.070019514427 0.9911955337583 117.06301199759
8.615560000000000 0.9911954998989 117.07503581935 0.1323785672318 27.069975885971 0.1323785672318 27.069975885971 0.9911955068987 117.06296864301
8.615565000000000 0.9911954729862 117.07499236917 0.1323787645372 27.069932248084 0.1323787645372 27.069932248084 0.9911954800172 117.06292527954
8.615570000000000 0.9911954460517 117.07494890996 0.1323789619978 27.069888600742 0.1323789619978 27.069888600742 0.9911954531139 117.06288190715
8.615575000000000 0.9911954190952 117.07490544168 0.1323791596140 27.069844943922 0.1323791596140 27.069844943922 0.9911954261886 117.06283852583
8.615580000000001 0.9911953921168 117.07486196432 0.1323793573862 27.069801277609 0.1323793573862 27.069801277609 0.9911953992414 117.06279513556
8.615585000000001 0.9911953651165 117.07481847789 0.1323795553144 27.069757601792 0.1323795553144 27.069757601792 0.9911953722722 117.06275173634
8.615590000000001 0.9911953380940 117.07477498233 0.1323797533993 27.069713916430 0.1323797533993 27.069713916430 0.9911953452809 117.06270832812
8.615595000000001 0.9911953110495 117.07473147763 0.1323799516410 27.069670221521 0.1323799516410 27.069670221521 0.9911953182675 117.06266491090
8.615600000000001 0.9911952839828 117.07468796379 0.1323801500400 27.069626517030 0.1323801500400 27.069626517030 0.9911952912319 117.06262148466
8.615605000000000 0.9911952568940 117.07464444078 0.1323803485965 27.069582802951 0.1323803485965 27.069582802951 0.9911952641741 117.06257804937
8.615610000000000 0.9911952297829 117.07460090858 0.1323805473107 27.069539079259 0.1323805473107 27.069539079259 0.9911952370941 117.06253460503
8.615615000000000 0.9911952026495 117.07455736716 0.1323807461833 27.069495345926 0.1323807461833 27.069495345926 0.9911952099917 117.06249115161
8.615620000000000 0.9911951754939 117.07451381653 0.1323809452142 27.069451602950 0.1323809452142 27.069451602950 0.9911951828671 117.06244768909
8.615625000000001 0.9911951483158 117.07447025663 0.1323811444041 27.069407850282 0.1323811444041 27.069407850282 0.9911951557200 117.06240421745
8.615630000000001 0.9911951211153 117.07442668748 0.1323813437530 27.069364087926 0.1323813437530 27.069364087926 0.9911951285505 117.06236073668
8.615635000000001 0.9911950938924 117.07438310905 0.1323815432615 27.069320315855 0.1323815432615 27.069320315855 0.9911951013585 117.06231724676
8.615640000000001 0.9911950666469 117.07433952131 0.1323817429298 27.069276534050 0.1323817429298 27.069276534050 0.9911950741440 117.06227374766
8.615645000000001 0.9911950393789 117.07429592424 0.1323819427583 27.069232742473 0.1323819427583 27.069232742473 0.9911950469068 117.06223023937
8.615650000000000 0.9911950120883 117.07425231782 0.1323821427473 27.069188941126 0.1323821427473 27.069188941126 0.9911950196471 117.06218672186
8.615655000000000 0.9911949847750 117.07420870205 0.1323823428972 27.069145129977 0.1323823428972 27.069145129977 0.9911949923646 117.06214319513
8.615660000000000 0.9911949574390 117.07416507689 0.1323825432082 27.069101309006 0.1323825432082 27.069101309006 0.9911949650595 117.06209965914
8.615665000000000 0.9911949300802 117.07412144231 0.1323827436810 27.069057478175 0.1323827436810 27.069057478175 0.9911949377315 117.06205611387
8.615670000000000 0.9911949026986 117.07407779833 0.1323829443153 27.069013637505 0.1323829443153 27.069013637505 0.9911949103807 117.06201255933
8.615675000000001 0.9911948752942 117.07403414492 0.1323831451116 27.068969786961 0.1323831451116 27.068969786961 0.9911948830071 117.06196899548
8.615680000000001 0.9911948478669 117.07399048201 0.1323833460710 27.068925926483 0.1323833460710 27.068925926483 0.9911948556105 117.06192542228
8.615685000000001 0.9911948204166 117.07394680964 0.1323835471930 27.068882056089 0.1323835471930 27.068882056089 0.9911948281910 117.06188183975
8.615690000000001 0.9911947929433 117.07390312777 0.1323837484781 27.068838175755 0.1323837484781 27.068838175755 0.9911948007484 117.06183824785
8.615695000000001 0.9911947654470 117.07385943637 0.1323839499271 27.068794285440 0.1323839499271 27.068794285440 0.9911947732828 117.06179464656
8.615700000000000 0.9911947379275 117.07381573543 0.1323841515398 27.068750385144 0.1323841515398 27.068750385144 0.9911947457940 117.06175103586
8.615705000000000 0.9911947103850 117.07377202492 0.1323843533167 27.068706474831 0.1323843533167 27.068706474831 0.9911947182821 117.06170741573
8.615710000000000 0.9911946828192 117.07372830483 0.1323845552584 27.068662554479 0.1323845552584 27.068662554479 0.9911946907469 117.06166378615
8.615715000000000 0.9911946552301 117.07368457514 0.1323847573650 27.068618624074 0.1323847573650 27.068618624074 0.9911946631885 117.06162014711
8.615720000000001 0.9911946276178 117.07364083583 0.1323849596368 27.068574683595 0.1323849596368 27.068574683595 0.9911946356067 117.06157649858
8.615725000000001 0.9911945999821 117.07359708687 0.1323851620744 27.068530733014 0.1323851620744 27.068530733014 0.9911946080016 117.06153284054
8.615730000000001 0.9911945723229 117.07355332824 0.1323853646779 27.068486772312 0.1323853646779 27.068486772312 0.9911945803730 117.06148917298
8.615735000000001 0.9911945446404 117.07350955994 0.1323855674477 27.068442801478 0.1323855674477 27.068442801478 0.9911945527210 117.06144549587
8.615740000000001 0.9911945169343 117.07346578192 0.1323857703844 27.068398820466 0.1323857703844 27.068398820466 0.9911945250454 117.06140180918
8.615745000000000 0.9911944892047 117.07342199419 0.1323859734879 27.068354829277 0.1323859734879 27.068354829277 0.9911944973463 117.06135811291
8.615750000000000 0.9911944614515 117.07337819670 0.1323861767590 27.068310827877 0.1323861767590 27.068310827877 0.9911944696236 117.06131440703
8.615755000000000 0.9911944336746 117.07333438944 0.1323863801980 27.068266816235 0.1323863801980 27.068266816235 0.9911944418771 117.06127069151
8.615760000000000 0.9911944058740 117.07329057240 0.1323865838049 27.068222794360 0.1323865838049 27.068222794360 0.9911944141070 117.06122696636
8.615765000000000 0.9911943780497 117.07324674554 0.1323867875805 27.068178762184 0.1323867875805 27.068178762184 0.9911943863130 117.06118323152
8.615770000000001 0.9911943502015 117.07320290886 0.1323869915249 27.068134719726 0.1323869915249 27.068134719726 0.9911943584952 117.06113948699
8.615775000000001 0.9911943223295 117.07315906234 0.1323871956381 27.068090666972 0.1323871956381 27.068090666972 0.9911943306536 117.06109573278
8.615780000000001 0.9911942944336 117.07311520593 0.1323873999213 27.068046603846 0.1323873999213 27.068046603846 0.9911943027880 117.06105196881
8.615785000000001 0.9911942665136 117.07307133963 0.1323876043745 27.068002530354 0.1323876043745 27.068002530354 0.9911942748984 117.06100819508
8.615790000000001 0.9911942385697 117.07302746341 0.1323878089979 27.067958446482 0.1323878089979 27.067958446482 0.9911942469848 117.06096441158
8.615795000000000 0.9911942106017 117.07298357728 0.1323880137916 27.067914352214 0.1323880137916 27.067914352214 0.9911942190471 117.06092061831
8.615800000000000 0.9911941826096 117.07293968117 0.1323882187568 27.067870247496 0.1323882187568 27.067870247496 0.9911941910852 117.06087681520
8.615805000000000 0.9911941545933 117.07289577510 0.1323884238930 27.067826132333 0.1323884238930 27.067826132333 0.9911941630992 117.06083300226
8.615810000000000 0.9911941265527 117.07285185900 0.1323886292014 27.067782006679 0.1323886292014 27.067782006679 0.9911941350889 117.06078917945
8.615815000000001 0.9911940984879 117.07280793291 0.1323888346816 27.067737870536 0.1323888346816 27.067737870536 0.9911941070543 117.06074534678
8.615820000000001 0.9911940703988 117.07276399677 0.1323890403343 27.067693723874 0.1323890403343 27.067693723874 0.9911940789954 117.06070150421
8.615825000000001 0.9911940422853 117.07272005056 0.1323892461600 27.067649566652 0.1323892461600 27.067649566652 0.9911940509120 117.06065765170
8.615830000000001 0.9911940141472 117.07267609426 0.1323894521590 27.067605398856 0.1323894521590 27.067605398856 0.9911940228041 117.06061378925
8.615835000000001 0.9911939859848 117.07263212786 0.1323896583315 27.067561220474 0.1323896583315 27.067561220474 0.9911939946718 117.06056991684
8.615840000000000 0.9911939577977 117.07258815133 0.1323898646780 27.067517031478 0.1323898646780 27.067517031478 0.9911939665149 117.06052603444
8.615845000000000 0.9911939295861 117.07254416466 0.1323900711987 27.067472831852 0.1323900711987 27.067472831852 0.9911939383333 117.06048214205
8.615850000000000 0.9911939013498 117.07250016780 0.1323902778943 27.067428621553 0.1323902778943 27.067428621553 0.9911939101271 117.06043823962
8.615855000000000 0.9911938730888 117.07245616075 0.1323904847651 27.067384400562 0.1323904847651 27.067384400562 0.9911938818962 117.06039432713
8.615860000000001 0.9911938448030 117.07241214349 0.1323906918112 27.067340168868 0.1323906918112 27.067340168868 0.9911938536404 117.06035040458
8.615865000000001 0.9911938164924 117.07236811599 0.1323908990331 27.067295926449 0.1323908990331 27.067295926449 0.9911938253599 117.06030647194
8.615870000000001 0.9911937881569 117.07232407822 0.1323911064316 27.067251673254 0.1323911064316 27.067251673254 0.9911937970544 117.06026252917
8.615875000000001 0.9911937597965 117.07228003017 0.1323913140065 27.067207409288 0.1323913140065 27.067207409288 0.9911937687239 117.06021857627
8.615880000000001 0.9911937314111 117.07223597182 0.1323915217585 27.067163134514 0.1323915217585 27.067163134514 0.9911937403685 117.06017461321
8.615885000000000 0.9911937030007 117.07219190314 0.1323917296877 27.067118848919 0.1323917296877 27.067118848919 0.9911937119880 117.06013063997
8.615890000000000 0.9911936745651 117.07214782412 0.1323919377948 27.067074552469 0.1323919377948 27.067074552469 0.9911936835824 117.06008665652
8.615895000000000 0.9911936461045 117.07210373472 0.1323921460801 27.067030245143 0.1323921460801 27.067030245143 0.9911936551516 117.06004266285
8.615900000000000 0.9911936176185 117.07205963492 0.1323923545439 27.066985926912 0.1323923545439 27.066985926912 0.9911936266956 117.05999865893
8.615905000000000 0.9911935891074 117.07201552470 0.1323925631867 27.066941597762 0.1323925631867 27.066941597762 0.9911935982143 117.05995464474
8.615910000000001 0.9911935605709 117.07197140405 0.1323927720088 27.066897257658 0.1323927720088 27.066897257658 0.9911935697077 117.05991062026
8.615915000000001 0.9911935320091 117.07192727294 0.1323929810104 27.066852906599 0.1323929810104 27.066852906599 0.9911935411757 117.05986658547
8.615920000000001 0.9911935034217 117.07188313133 0.1323931901925 27.066808544515 0.1323931901925 27.066808544515 0.9911935126182 117.05982254033
8.615925000000001 0.9911934748090 117.07183897922 0.1323933995548 27.066764171429 0.1323933995548 27.066764171429 0.9911934840352 117.05977848484
8.615930000000001 0.9911934461706 117.07179481657 0.1323936090983 27.066719787286 0.1323936090983 27.066719787286 0.9911934554267 117.05973441895
8.615935000000000 0.9911934175067 117.07175064338 0.1323938188228 27.066675392078 0.1323938188228 27.066675392078 0.9911934267925 117.05969034267
8.615940000000000 0.9911933888171 117.07170645961 0.1323940287291 27.066630985778 0.1323940287291 27.066630985778 0.9911933981327 117.05964625597
8.615945000000000 0.9911933601018 117.07166226523 0.1323942388176 27.066586568343 0.1323942388176 27.066586568343 0.9911933694471 117.05960215880
8.615950000000000 0.9911933313607 117.07161806024 0.1323944490883 27.066542139783 0.1323944490883 27.066542139783 0.9911933407357 117.05955805117
8.615955000000001 0.9911933025938 117.07157384458 0.1323946595422 27.066497700033 0.1323946595422 27.066497700033 0.9911933119985 117.05951393303
8.615960000000001 0.9911932738010 117.07152961828 0.1323948701790 27.066453249118 0.1323948701790 27.066453249118 0.9911932832354 117.05946980439
8.615965000000001 0.9911932449822 117.07148538126 0.1323950809999 27.066408786953 0.1323950809999 27.066408786953 0.9911932544462 117.05942566519
8.615970000000001 0.9911932161374 117.07144113353 0.1323952920047 27.066364313555 0.1323952920047 27.066364313555 0.9911932256311 117.05938151543
8.615975000000001 0.9911931872666 117.07139687508 0.1323955031938 27.066319828900 0.1323955031938 27.066319828900 0.9911931967899 117.05933735509
8.615980000000000 0.9911931583697 117.07135260584 0.1323957145680 27.066275332929 0.1323957145680 27.066275332929 0.9911931679226 117.05929318413
8.615985000000000 0.9911931294466 117.07130832583 0.1323959261273 27.066230825662 0.1323959261273 27.066230825662 0.9911931390290 117.05924900255
8.615990000000000 0.9911931004971 117.07126403499 0.1323961378727 27.066186307020 0.1323961378727 27.066186307019 0.9911931101092 117.05920481028
8.615995000000000 0.9911930715215 117.07121973333 0.1323963498039 27.066141777027 0.1323963498039 27.066141777027 0.9911930811631 117.05916060735
8.616000000000000 0.9911930425194 117.07117542080 0.1323965619218 27.066097235627 0.1323965619218 27.066097235627 0.9911930521906 117.05911639370