! Sonnet Data File
! From: emgraph Version : 16.52
! From Project: 171113transmon_trace_brgOdd
! Data is De-embedded 
! Data File Written: 11/14/2017 10:41:50
!< HDATE 11/13/2017 20:27:28
!< MDATE 11/13/2017 20:29:37
!< PARAMS
!< Lj = 15.24
!< Gap = 16.0
!< Width = 10.0
!< Airgap = 6.0
!< Pwidth = 2000.0
!< Dist = 2000.0
!< END PARAMS
# GHZ S MA R 34.87000
8.71000000 0.998470 142.08 0.055264 52.079 0.055264 52.079 0.998470 142.08
!< P1 F=8.71 Eeff=(5.13587251 -5.6718e-5) Z0=(34.65008 -9.4822e-5) R=0.0 C=0.0 
!< P2 F=8.71 Eeff=(5.13587251 -5.6718e-5) Z0=(34.65008 -9.4822e-5) R=0.0 C=0.0 
8.71000500 0.998470 142.08 0.055265 52.079 0.055265 52.079 0.998470 142.08
8.71001000 0.998470 142.08 0.055265 52.079 0.055265 52.079 0.998470 142.08
8.71001500 0.998470 142.08 0.055265 52.079 0.055265 52.079 0.998470 142.08
8.71002000 0.998470 142.08 0.055265 52.079 0.055265 52.079 0.998470 142.08
8.71002500 0.998470 142.08 0.055266 52.079 0.055266 52.079 0.998470 142.08
8.71003000 0.998470 142.08 0.055266 52.079 0.055266 52.079 0.998470 142.08
8.71003500 0.998470 142.08 0.055266 52.079 0.055266 52.079 0.998470 142.08
8.71004000 0.998470 142.08 0.055266 52.079 0.055266 52.079 0.998470 142.08
8.71004500 0.998470 142.08 0.055267 52.079 0.055267 52.079 0.998470 142.08
8.71005000 0.998470 142.08 0.055267 52.079 0.055267 52.079 0.998470 142.08
8.71005500 0.998470 142.08 0.055267 52.079 0.055267 52.079 0.998470 142.08
8.71006000 0.998470 142.08 0.055267 52.079 0.055267 52.079 0.998470 142.08
8.71006500 0.998470 142.08 0.055268 52.079 0.055268 52.079 0.998470 142.08
8.71007000 0.998470 142.08 0.055268 52.079 0.055268 52.079 0.998470 142.08
8.71007500 0.998470 142.08 0.055268 52.079 0.055268 52.079 0.998470 142.08
8.71008000 0.998470 142.08 0.055268 52.079 0.055268 52.079 0.998470 142.08
8.71008500 0.998469 142.08 0.055269 52.079 0.055269 52.079 0.998470 142.08
8.71009000 0.998469 142.08 0.055269 52.078 0.055269 52.078 0.998469 142.08
8.71009500 0.998469 142.08 0.055269 52.078 0.055269 52.078 0.998469 142.08
8.71010000 0.998469 142.08 0.055269 52.078 0.055269 52.078 0.998469 142.08
8.71010500 0.998469 142.08 0.055270 52.078 0.055270 52.078 0.998469 142.08
8.71011000 0.998469 142.08 0.055270 52.078 0.055270 52.078 0.998469 142.08
8.71011500 0.998469 142.08 0.055270 52.078 0.055270 52.078 0.998469 142.08
8.71012000 0.998469 142.08 0.055270 52.078 0.055270 52.078 0.998469 142.08
8.71012500 0.998469 142.08 0.055271 52.078 0.055271 52.078 0.998469 142.08
8.71013000 0.998469 142.08 0.055271 52.078 0.055271 52.078 0.998469 142.08
8.71013500 0.998469 142.08 0.055271 52.078 0.055271 52.078 0.998469 142.07
8.71014000 0.998469 142.08 0.055271 52.078 0.055271 52.078 0.998469 142.07
8.71014500 0.998469 142.08 0.055272 52.078 0.055272 52.078 0.998469 142.07
8.71015000 0.998469 142.08 0.055272 52.078 0.055272 52.078 0.998469 142.07
8.71015500 0.998469 142.08 0.055272 52.078 0.055272 52.078 0.998469 142.07
8.71016000 0.998469 142.08 0.055272 52.078 0.055272 52.078 0.998469 142.07
8.71016500 0.998469 142.08 0.055273 52.078 0.055273 52.078 0.998469 142.07
8.71017000 0.998469 142.08 0.055273 52.078 0.055273 52.078 0.998469 142.07
8.71017500 0.998469 142.08 0.055273 52.078 0.055273 52.078 0.998469 142.07
8.71018000 0.998469 142.08 0.055273 52.078 0.055273 52.078 0.998469 142.07
8.71018500 0.998469 142.08 0.055274 52.078 0.055274 52.078 0.998469 142.07
8.71019000 0.998469 142.08 0.055274 52.078 0.055274 52.078 0.998469 142.07
8.71019500 0.998469 142.08 0.055274 52.078 0.055274 52.078 0.998469 142.07
8.71020000 0.998469 142.08 0.055274 52.078 0.055274 52.078 0.998469 142.07
8.71020500 0.998469 142.08 0.055275 52.078 0.055275 52.078 0.998469 142.07
8.71021000 0.998469 142.08 0.055275 52.078 0.055275 52.078 0.998469 142.07
8.71021500 0.998469 142.08 0.055275 52.078 0.055275 52.078 0.998469 142.07
8.71022000 0.998469 142.08 0.055275 52.078 0.055275 52.078 0.998469 142.07
8.71022500 0.998469 142.08 0.055276 52.078 0.055276 52.078 0.998469 142.07
8.71023000 0.998469 142.08 0.055276 52.077 0.055276 52.077 0.998469 142.07
8.71023500 0.998469 142.08 0.055276 52.077 0.055276 52.077 0.998469 142.07
8.71024000 0.998469 142.08 0.055276 52.077 0.055276 52.077 0.998469 142.07
8.71024500 0.998469 142.08 0.055277 52.077 0.055277 52.077 0.998469 142.07
8.71025000 0.998469 142.08 0.055277 52.077 0.055277 52.077 0.998469 142.07
8.71025500 0.998469 142.08 0.055277 52.077 0.055277 52.077 0.998469 142.07
8.71026000 0.998469 142.08 0.055277 52.077 0.055277 52.077 0.998469 142.07
8.71026500 0.998469 142.08 0.055278 52.077 0.055278 52.077 0.998469 142.07
8.71027000 0.998469 142.08 0.055278 52.077 0.055278 52.077 0.998469 142.07
8.71027500 0.998469 142.08 0.055278 52.077 0.055278 52.077 0.998469 142.07
8.71028000 0.998469 142.08 0.055278 52.077 0.055278 52.077 0.998469 142.07
8.71028500 0.998469 142.08 0.055279 52.077 0.055279 52.077 0.998469 142.07
8.71029000 0.998469 142.08 0.055279 52.077 0.055279 52.077 0.998469 142.07
8.71029500 0.998469 142.08 0.055279 52.077 0.055279 52.077 0.998469 142.07
8.71030000 0.998469 142.08 0.055279 52.077 0.055279 52.077 0.998469 142.07
8.71030500 0.998469 142.08 0.055280 52.077 0.055280 52.077 0.998469 142.07
8.71031000 0.998469 142.08 0.055280 52.077 0.055280 52.077 0.998469 142.07
8.71031500 0.998469 142.08 0.055280 52.077 0.055280 52.077 0.998469 142.07
8.71032000 0.998469 142.08 0.055280 52.077 0.055280 52.077 0.998469 142.07
8.71032500 0.998469 142.08 0.055281 52.077 0.055281 52.077 0.998469 142.07
8.71033000 0.998469 142.08 0.055281 52.077 0.055281 52.077 0.998469 142.07
8.71033500 0.998469 142.08 0.055281 52.077 0.055281 52.077 0.998469 142.07
8.71034000 0.998469 142.08 0.055281 52.077 0.055281 52.077 0.998469 142.07
8.71034500 0.998469 142.08 0.055282 52.077 0.055282 52.077 0.998469 142.07
8.71035000 0.998469 142.08 0.055282 52.077 0.055282 52.077 0.998469 142.07
8.71035500 0.998469 142.08 0.055282 52.077 0.055282 52.077 0.998469 142.07
8.71036000 0.998469 142.08 0.055282 52.077 0.055282 52.077 0.998469 142.07
8.71036500 0.998469 142.08 0.055283 52.077 0.055283 52.077 0.998469 142.07
8.71037000 0.998469 142.08 0.055283 52.076 0.055283 52.076 0.998469 142.07
8.71037500 0.998469 142.08 0.055283 52.076 0.055283 52.076 0.998469 142.07
8.71038000 0.998469 142.08 0.055283 52.076 0.055283 52.076 0.998469 142.07
8.71038500 0.998469 142.08 0.055284 52.076 0.055284 52.076 0.998469 142.07
8.71039000 0.998469 142.08 0.055284 52.076 0.055284 52.076 0.998469 142.07
8.71039500 0.998469 142.08 0.055284 52.076 0.055284 52.076 0.998469 142.07
8.71040000 0.998469 142.08 0.055284 52.076 0.055284 52.076 0.998469 142.07
8.71040500 0.998469 142.08 0.055285 52.076 0.055285 52.076 0.998469 142.07
8.71041000 0.998469 142.08 0.055285 52.076 0.055285 52.076 0.998469 142.07
8.71041500 0.998469 142.08 0.055285 52.076 0.055285 52.076 0.998469 142.07
8.71042000 0.998468 142.08 0.055286 52.076 0.055286 52.076 0.998468 142.07
8.71042500 0.998468 142.08 0.055286 52.076 0.055286 52.076 0.998468 142.07
8.71043000 0.998468 142.08 0.055286 52.076 0.055286 52.076 0.998468 142.07
8.71043500 0.998468 142.08 0.055286 52.076 0.055286 52.076 0.998468 142.07
8.71044000 0.998468 142.08 0.055287 52.076 0.055287 52.076 0.998468 142.07
8.71044500 0.998468 142.08 0.055287 52.076 0.055287 52.076 0.998468 142.07
8.71045000 0.998468 142.08 0.055287 52.076 0.055287 52.076 0.998468 142.07
8.71045500 0.998468 142.08 0.055287 52.076 0.055287 52.076 0.998468 142.07
8.71046000 0.998468 142.08 0.055288 52.076 0.055288 52.076 0.998468 142.07
8.71046500 0.998468 142.08 0.055288 52.076 0.055288 52.076 0.998468 142.07
8.71047000 0.998468 142.08 0.055288 52.076 0.055288 52.076 0.998468 142.07
8.71047500 0.998468 142.08 0.055288 52.076 0.055288 52.076 0.998468 142.07
8.71048000 0.998468 142.08 0.055289 52.076 0.055289 52.076 0.998468 142.07
8.71048500 0.998468 142.08 0.055289 52.076 0.055289 52.076 0.998468 142.07
8.71049000 0.998468 142.08 0.055289 52.076 0.055289 52.076 0.998468 142.07
8.71049500 0.998468 142.08 0.055290 52.076 0.055290 52.076 0.998468 142.07
8.71050000 0.998468 142.08 0.055290 52.076 0.055290 52.076 0.998468 142.07
8.71050500 0.998468 142.08 0.055290 52.076 0.055290 52.076 0.998468 142.07
8.71051000 0.998468 142.08 0.055290 52.075 0.055290 52.075 0.998468 142.07
8.71051500 0.998468 142.08 0.055291 52.075 0.055291 52.075 0.998468 142.07
8.71052000 0.998468 142.08 0.055291 52.075 0.055291 52.075 0.998468 142.07
8.71052500 0.998468 142.08 0.055291 52.075 0.055291 52.075 0.998468 142.07
8.71053000 0.998468 142.08 0.055291 52.075 0.055291 52.075 0.998468 142.07
8.71053500 0.998468 142.08 0.055292 52.075 0.055292 52.075 0.998468 142.07
8.71054000 0.998468 142.08 0.055292 52.075 0.055292 52.075 0.998468 142.07
8.71054500 0.998468 142.08 0.055292 52.075 0.055292 52.075 0.998468 142.07
8.71055000 0.998468 142.08 0.055292 52.075 0.055292 52.075 0.998468 142.07
8.71055500 0.998468 142.08 0.055293 52.075 0.055293 52.075 0.998468 142.07
8.71056000 0.998468 142.08 0.055293 52.075 0.055293 52.075 0.998468 142.07
8.71056500 0.998468 142.08 0.055293 52.075 0.055293 52.075 0.998468 142.07
8.71057000 0.998468 142.08 0.055294 52.075 0.055294 52.075 0.998468 142.07
8.71057500 0.998468 142.08 0.055294 52.075 0.055294 52.075 0.998468 142.07
8.71058000 0.998468 142.08 0.055294 52.075 0.055294 52.075 0.998468 142.07
8.71058500 0.998468 142.08 0.055294 52.075 0.055294 52.075 0.998468 142.07
8.71059000 0.998468 142.08 0.055295 52.075 0.055295 52.075 0.998468 142.07
8.71059500 0.998468 142.08 0.055295 52.075 0.055295 52.075 0.998468 142.07
8.71060000 0.998468 142.08 0.055295 52.075 0.055295 52.075 0.998468 142.07
8.71060500 0.998468 142.08 0.055295 52.075 0.055295 52.075 0.998468 142.07
8.71061000 0.998468 142.08 0.055296 52.075 0.055296 52.075 0.998468 142.07
8.71061500 0.998468 142.08 0.055296 52.075 0.055296 52.075 0.998468 142.07
8.71062000 0.998468 142.08 0.055296 52.075 0.055296 52.075 0.998468 142.07
8.71062500 0.998468 142.08 0.055297 52.075 0.055297 52.075 0.998468 142.07
8.71063000 0.998468 142.08 0.055297 52.075 0.055297 52.075 0.998468 142.07
8.71063500 0.998468 142.08 0.055297 52.075 0.055297 52.075 0.998468 142.07
8.71064000 0.998468 142.08 0.055297 52.075 0.055297 52.075 0.998468 142.07
8.71064500 0.998468 142.08 0.055298 52.074 0.055298 52.074 0.998468 142.07
8.71065000 0.998468 142.08 0.055298 52.074 0.055298 52.074 0.998468 142.07
8.71065500 0.998468 142.08 0.055298 52.074 0.055298 52.074 0.998468 142.07
8.71066000 0.998468 142.08 0.055298 52.074 0.055298 52.074 0.998468 142.07
8.71066500 0.998468 142.08 0.055299 52.074 0.055299 52.074 0.998468 142.07
8.71067000 0.998468 142.08 0.055299 52.074 0.055299 52.074 0.998468 142.07
8.71067500 0.998468 142.08 0.055299 52.074 0.055299 52.074 0.998468 142.07
8.71068000 0.998468 142.08 0.055300 52.074 0.055300 52.074 0.998468 142.07
8.71068500 0.998468 142.08 0.055300 52.074 0.055300 52.074 0.998468 142.07
8.71069000 0.998468 142.08 0.055300 52.074 0.055300 52.074 0.998468 142.07
8.71069500 0.998468 142.08 0.055300 52.074 0.055300 52.074 0.998468 142.07
8.71070000 0.998468 142.08 0.055301 52.074 0.055301 52.074 0.998468 142.07
8.71070500 0.998468 142.08 0.055301 52.074 0.055301 52.074 0.998468 142.07
8.71071000 0.998468 142.08 0.055301 52.074 0.055301 52.074 0.998468 142.07
8.71071500 0.998468 142.08 0.055302 52.074 0.055302 52.074 0.998468 142.07
8.71072000 0.998468 142.08 0.055302 52.074 0.055302 52.074 0.998468 142.07
8.71072500 0.998467 142.08 0.055302 52.074 0.055302 52.074 0.998468 142.07
8.71073000 0.998467 142.08 0.055302 52.074 0.055302 52.074 0.998467 142.07
8.71073500 0.998467 142.08 0.055303 52.074 0.055303 52.074 0.998467 142.07
8.71074000 0.998467 142.08 0.055303 52.074 0.055303 52.074 0.998467 142.07
8.71074500 0.998467 142.08 0.055303 52.074 0.055303 52.074 0.998467 142.07
8.71075000 0.998467 142.08 0.055304 52.074 0.055304 52.074 0.998467 142.07
8.71075500 0.998467 142.08 0.055304 52.074 0.055304 52.074 0.998467 142.07
8.71076000 0.998467 142.08 0.055304 52.074 0.055304 52.074 0.998467 142.07
8.71076500 0.998467 142.08 0.055304 52.074 0.055304 52.074 0.998467 142.07
8.71077000 0.998467 142.08 0.055305 52.074 0.055305 52.074 0.998467 142.07
8.71077500 0.998467 142.08 0.055305 52.074 0.055305 52.074 0.998467 142.07
8.71078000 0.998467 142.08 0.055305 52.073 0.055305 52.073 0.998467 142.07
8.71078500 0.998467 142.08 0.055306 52.073 0.055306 52.073 0.998467 142.07
8.71079000 0.998467 142.08 0.055306 52.073 0.055306 52.073 0.998467 142.07
8.71079500 0.998467 142.08 0.055306 52.073 0.055306 52.073 0.998467 142.07
8.71080000 0.998467 142.08 0.055306 52.073 0.055306 52.073 0.998467 142.07
8.71080500 0.998467 142.08 0.055307 52.073 0.055307 52.073 0.998467 142.07
8.71081000 0.998467 142.08 0.055307 52.073 0.055307 52.073 0.998467 142.07
8.71081500 0.998467 142.08 0.055307 52.073 0.055307 52.073 0.998467 142.07
8.71082000 0.998467 142.08 0.055308 52.073 0.055308 52.073 0.998467 142.07
8.71082500 0.998467 142.08 0.055308 52.073 0.055308 52.073 0.998467 142.07
8.71083000 0.998467 142.08 0.055308 52.073 0.055308 52.073 0.998467 142.07
8.71083500 0.998467 142.08 0.055308 52.073 0.055308 52.073 0.998467 142.07
8.71084000 0.998467 142.08 0.055309 52.073 0.055309 52.073 0.998467 142.07
8.71084500 0.998467 142.08 0.055309 52.073 0.055309 52.073 0.998467 142.07
8.71085000 0.998467 142.08 0.055309 52.073 0.055309 52.073 0.998467 142.07
8.71085500 0.998467 142.08 0.055310 52.073 0.055310 52.073 0.998467 142.07
8.71086000 0.998467 142.08 0.055310 52.073 0.055310 52.073 0.998467 142.07
8.71086500 0.998467 142.08 0.055310 52.073 0.055310 52.073 0.998467 142.07
8.71087000 0.998467 142.08 0.055310 52.073 0.055310 52.073 0.998467 142.07
8.71087500 0.998467 142.08 0.055311 52.073 0.055311 52.073 0.998467 142.07
8.71088000 0.998467 142.08 0.055311 52.073 0.055311 52.073 0.998467 142.07
8.71088500 0.998467 142.08 0.055311 52.073 0.055311 52.073 0.998467 142.07
8.71089000 0.998467 142.08 0.055312 52.073 0.055312 52.073 0.998467 142.07
8.71089500 0.998467 142.08 0.055312 52.073 0.055312 52.073 0.998467 142.07
8.71090000 0.998467 142.08 0.055312 52.073 0.055312 52.073 0.998467 142.07
8.71090500 0.998467 142.08 0.055312 52.073 0.055312 52.073 0.998467 142.07
8.71091000 0.998467 142.08 0.055313 52.072 0.055313 52.072 0.998467 142.07
8.71091500 0.998467 142.07 0.055313 52.072 0.055313 52.072 0.998467 142.07
8.71092000 0.998467 142.07 0.055313 52.072 0.055313 52.072 0.998467 142.07
8.71092500 0.998467 142.07 0.055314 52.072 0.055314 52.072 0.998467 142.07
8.71093000 0.998467 142.07 0.055314 52.072 0.055314 52.072 0.998467 142.07
8.71093500 0.998467 142.07 0.055314 52.072 0.055314 52.072 0.998467 142.07
8.71094000 0.998467 142.07 0.055315 52.072 0.055315 52.072 0.998467 142.07
8.71094500 0.998467 142.07 0.055315 52.072 0.055315 52.072 0.998467 142.07
8.71095000 0.998467 142.07 0.055315 52.072 0.055315 52.072 0.998467 142.07
8.71095500 0.998467 142.07 0.055315 52.072 0.055315 52.072 0.998467 142.07
8.71096000 0.998467 142.07 0.055316 52.072 0.055316 52.072 0.998467 142.07
8.71096500 0.998467 142.07 0.055316 52.072 0.055316 52.072 0.998467 142.07
8.71097000 0.998467 142.07 0.055316 52.072 0.055316 52.072 0.998467 142.07
8.71097500 0.998467 142.07 0.055317 52.072 0.055317 52.072 0.998467 142.07
8.71098000 0.998467 142.07 0.055317 52.072 0.055317 52.072 0.998467 142.07
8.71098500 0.998467 142.07 0.055317 52.072 0.055317 52.072 0.998467 142.07
8.71099000 0.998467 142.07 0.055318 52.072 0.055318 52.072 0.998467 142.07
8.71099500 0.998467 142.07 0.055318 52.072 0.055318 52.072 0.998467 142.07
8.71100000 0.998467 142.07 0.055318 52.072 0.055318 52.072 0.998467 142.07
8.71100500 0.998467 142.07 0.055318 52.072 0.055318 52.072 0.998467 142.07
8.71101000 0.998467 142.07 0.055319 52.072 0.055319 52.072 0.998467 142.07
8.71101500 0.998466 142.07 0.055319 52.072 0.055319 52.072 0.998466 142.07
8.71102000 0.998466 142.07 0.055319 52.072 0.055319 52.072 0.998466 142.07
8.71102500 0.998466 142.07 0.055320 52.072 0.055320 52.072 0.998466 142.07
8.71103000 0.998466 142.07 0.055320 52.072 0.055320 52.072 0.998466 142.07
8.71103500 0.998466 142.07 0.055320 52.072 0.055320 52.072 0.998466 142.07
8.71104000 0.998466 142.07 0.055321 52.071 0.055321 52.071 0.998466 142.07
8.71104500 0.998466 142.07 0.055321 52.071 0.055321 52.071 0.998466 142.07
8.71105000 0.998466 142.07 0.055321 52.071 0.055321 52.071 0.998466 142.07
8.71105500 0.998466 142.07 0.055321 52.071 0.055321 52.071 0.998466 142.07
8.71106000 0.998466 142.07 0.055322 52.071 0.055322 52.071 0.998466 142.07
8.71106500 0.998466 142.07 0.055322 52.071 0.055322 52.071 0.998466 142.07
8.71107000 0.998466 142.07 0.055322 52.071 0.055322 52.071 0.998466 142.07
8.71107500 0.998466 142.07 0.055323 52.071 0.055323 52.071 0.998466 142.07
8.71108000 0.998466 142.07 0.055323 52.071 0.055323 52.071 0.998466 142.07
8.71108500 0.998466 142.07 0.055323 52.071 0.055323 52.071 0.998466 142.07
8.71109000 0.998466 142.07 0.055324 52.071 0.055324 52.071 0.998466 142.07
8.71109500 0.998466 142.07 0.055324 52.071 0.055324 52.071 0.998466 142.07
8.71110000 0.998466 142.07 0.055324 52.071 0.055324 52.071 0.998466 142.07
8.71110500 0.998466 142.07 0.055325 52.071 0.055325 52.071 0.998466 142.07
8.71111000 0.998466 142.07 0.055325 52.071 0.055325 52.071 0.998466 142.07
8.71111500 0.998466 142.07 0.055325 52.071 0.055325 52.071 0.998466 142.07
8.71112000 0.998466 142.07 0.055325 52.071 0.055325 52.071 0.998466 142.07
8.71112500 0.998466 142.07 0.055326 52.071 0.055326 52.071 0.998466 142.07
8.71113000 0.998466 142.07 0.055326 52.071 0.055326 52.071 0.998466 142.07
8.71113500 0.998466 142.07 0.055326 52.071 0.055326 52.071 0.998466 142.07
8.71114000 0.998466 142.07 0.055327 52.071 0.055327 52.071 0.998466 142.07
8.71114500 0.998466 142.07 0.055327 52.071 0.055327 52.071 0.998466 142.07
8.71115000 0.998466 142.07 0.055327 52.071 0.055327 52.071 0.998466 142.07
8.71115500 0.998466 142.07 0.055328 52.071 0.055328 52.071 0.998466 142.07
8.71116000 0.998466 142.07 0.055328 52.071 0.055328 52.071 0.998466 142.07
8.71116500 0.998466 142.07 0.055328 52.070 0.055328 52.070 0.998466 142.07
8.71117000 0.998466 142.07 0.055329 52.070 0.055329 52.070 0.998466 142.07
8.71117500 0.998466 142.07 0.055329 52.070 0.055329 52.070 0.998466 142.07
8.71118000 0.998466 142.07 0.055329 52.070 0.055329 52.070 0.998466 142.07
8.71118500 0.998466 142.07 0.055329 52.070 0.055329 52.070 0.998466 142.07
8.71119000 0.998466 142.07 0.055330 52.070 0.055330 52.070 0.998466 142.07
8.71119500 0.998466 142.07 0.055330 52.070 0.055330 52.070 0.998466 142.07
8.71120000 0.998466 142.07 0.055330 52.070 0.055330 52.070 0.998466 142.07
8.71120500 0.998466 142.07 0.055331 52.070 0.055331 52.070 0.998466 142.07
8.71121000 0.998466 142.07 0.055331 52.070 0.055331 52.070 0.998466 142.07
8.71121500 0.998466 142.07 0.055331 52.070 0.055331 52.070 0.998466 142.07
8.71122000 0.998466 142.07 0.055332 52.070 0.055332 52.070 0.998466 142.07
8.71122500 0.998466 142.07 0.055332 52.070 0.055332 52.070 0.998466 142.07
8.71123000 0.998466 142.07 0.055332 52.070 0.055332 52.070 0.998466 142.07
8.71123500 0.998466 142.07 0.055333 52.070 0.055333 52.070 0.998466 142.07
8.71124000 0.998466 142.07 0.055333 52.070 0.055333 52.070 0.998466 142.07
8.71124500 0.998466 142.07 0.055333 52.070 0.055333 52.070 0.998466 142.07
8.71125000 0.998466 142.07 0.055334 52.070 0.055334 52.070 0.998466 142.07
8.71125500 0.998466 142.07 0.055334 52.070 0.055334 52.070 0.998466 142.07
8.71126000 0.998466 142.07 0.055334 52.070 0.055334 52.070 0.998466 142.07
8.71126500 0.998466 142.07 0.055335 52.070 0.055335 52.070 0.998466 142.07
8.71127000 0.998466 142.07 0.055335 52.070 0.055335 52.070 0.998466 142.07
8.71127500 0.998466 142.07 0.055335 52.070 0.055335 52.070 0.998466 142.07
8.71128000 0.998465 142.07 0.055336 52.070 0.055336 52.070 0.998465 142.07
8.71128500 0.998465 142.07 0.055336 52.070 0.055336 52.070 0.998465 142.07
8.71129000 0.998465 142.07 0.055336 52.069 0.055336 52.069 0.998465 142.07
8.71129500 0.998465 142.07 0.055337 52.069 0.055337 52.069 0.998465 142.07
8.71130000 0.998465 142.07 0.055337 52.069 0.055337 52.069 0.998465 142.07
8.71130500 0.998465 142.07 0.055337 52.069 0.055337 52.069 0.998465 142.07
8.71131000 0.998465 142.07 0.055337 52.069 0.055337 52.069 0.998465 142.07
8.71131500 0.998465 142.07 0.055338 52.069 0.055338 52.069 0.998465 142.07
8.71132000 0.998465 142.07 0.055338 52.069 0.055338 52.069 0.998465 142.07
8.71132500 0.998465 142.07 0.055338 52.069 0.055338 52.069 0.998465 142.07
8.71133000 0.998465 142.07 0.055339 52.069 0.055339 52.069 0.998465 142.07
8.71133500 0.998465 142.07 0.055339 52.069 0.055339 52.069 0.998465 142.07
8.71134000 0.998465 142.07 0.055339 52.069 0.055339 52.069 0.998465 142.07
8.71134500 0.998465 142.07 0.055340 52.069 0.055340 52.069 0.998465 142.07
8.71135000 0.998465 142.07 0.055340 52.069 0.055340 52.069 0.998465 142.07
8.71135500 0.998465 142.07 0.055340 52.069 0.055340 52.069 0.998465 142.07
8.71136000 0.998465 142.07 0.055341 52.069 0.055341 52.069 0.998465 142.07
8.71136500 0.998465 142.07 0.055341 52.069 0.055341 52.069 0.998465 142.07
8.71137000 0.998465 142.07 0.055341 52.069 0.055341 52.069 0.998465 142.07
8.71137500 0.998465 142.07 0.055342 52.069 0.055342 52.069 0.998465 142.07
8.71138000 0.998465 142.07 0.055342 52.069 0.055342 52.069 0.998465 142.07
8.71138500 0.998465 142.07 0.055342 52.069 0.055342 52.069 0.998465 142.07
8.71139000 0.998465 142.07 0.055343 52.069 0.055343 52.069 0.998465 142.07
8.71139500 0.998465 142.07 0.055343 52.069 0.055343 52.069 0.998465 142.07
8.71140000 0.998465 142.07 0.055343 52.069 0.055343 52.069 0.998465 142.07
8.71140500 0.998465 142.07 0.055344 52.069 0.055344 52.069 0.998465 142.07
8.71141000 0.998465 142.07 0.055344 52.069 0.055344 52.069 0.998465 142.07
8.71141500 0.998465 142.07 0.055344 52.068 0.055344 52.068 0.998465 142.07
8.71142000 0.998465 142.07 0.055345 52.068 0.055345 52.068 0.998465 142.07
8.71142500 0.998465 142.07 0.055345 52.068 0.055345 52.068 0.998465 142.07
8.71143000 0.998465 142.07 0.055345 52.068 0.055345 52.068 0.998465 142.07
8.71143500 0.998465 142.07 0.055346 52.068 0.055346 52.068 0.998465 142.07
8.71144000 0.998465 142.07 0.055346 52.068 0.055346 52.068 0.998465 142.07
8.71144500 0.998465 142.07 0.055346 52.068 0.055346 52.068 0.998465 142.07
8.71145000 0.998465 142.07 0.055347 52.068 0.055347 52.068 0.998465 142.07
8.71145500 0.998465 142.07 0.055347 52.068 0.055347 52.068 0.998465 142.07
8.71146000 0.998465 142.07 0.055347 52.068 0.055347 52.068 0.998465 142.07
8.71146500 0.998465 142.07 0.055348 52.068 0.055348 52.068 0.998465 142.07
8.71147000 0.998465 142.07 0.055348 52.068 0.055348 52.068 0.998465 142.07
8.71147500 0.998465 142.07 0.055348 52.068 0.055348 52.068 0.998465 142.07
8.71148000 0.998465 142.07 0.055349 52.068 0.055349 52.068 0.998465 142.07
8.71148500 0.998465 142.07 0.055349 52.068 0.055349 52.068 0.998465 142.07
8.71149000 0.998465 142.07 0.055349 52.068 0.055349 52.068 0.998465 142.07
8.71149500 0.998465 142.07 0.055350 52.068 0.055350 52.068 0.998465 142.07
8.71150000 0.998465 142.07 0.055350 52.068 0.055350 52.068 0.998465 142.07
8.71150500 0.998465 142.07 0.055350 52.068 0.055350 52.068 0.998465 142.06
8.71151000 0.998465 142.07 0.055351 52.068 0.055351 52.068 0.998465 142.06
8.71151500 0.998465 142.07 0.055351 52.068 0.055351 52.068 0.998465 142.06
8.71152000 0.998465 142.07 0.055352 52.068 0.055352 52.068 0.998465 142.06
8.71152500 0.998465 142.07 0.055352 52.068 0.055352 52.068 0.998465 142.06
8.71153000 0.998464 142.07 0.055352 52.068 0.055352 52.068 0.998464 142.06
8.71153500 0.998464 142.07 0.055353 52.067 0.055353 52.067 0.998464 142.06
8.71154000 0.998464 142.07 0.055353 52.067 0.055353 52.067 0.998464 142.06
8.71154500 0.998464 142.07 0.055353 52.067 0.055353 52.067 0.998464 142.06
8.71155000 0.998464 142.07 0.055354 52.067 0.055354 52.067 0.998464 142.06
8.71155500 0.998464 142.07 0.055354 52.067 0.055354 52.067 0.998464 142.06
8.71156000 0.998464 142.07 0.055354 52.067 0.055354 52.067 0.998464 142.06
8.71156500 0.998464 142.07 0.055355 52.067 0.055355 52.067 0.998464 142.06
8.71157000 0.998464 142.07 0.055355 52.067 0.055355 52.067 0.998464 142.06
8.71157500 0.998464 142.07 0.055355 52.067 0.055355 52.067 0.998464 142.06
8.71158000 0.998464 142.07 0.055356 52.067 0.055356 52.067 0.998464 142.06
8.71158500 0.998464 142.07 0.055356 52.067 0.055356 52.067 0.998464 142.06
8.71159000 0.998464 142.07 0.055356 52.067 0.055356 52.067 0.998464 142.06
8.71159500 0.998464 142.07 0.055357 52.067 0.055357 52.067 0.998464 142.06
8.71160000 0.998464 142.07 0.055357 52.067 0.055357 52.067 0.998464 142.06
8.71160500 0.998464 142.07 0.055357 52.067 0.055357 52.067 0.998464 142.06
8.71161000 0.998464 142.07 0.055358 52.067 0.055358 52.067 0.998464 142.06
8.71161500 0.998464 142.07 0.055358 52.067 0.055358 52.067 0.998464 142.06
8.71162000 0.998464 142.07 0.055358 52.067 0.055358 52.067 0.998464 142.06
8.71162500 0.998464 142.07 0.055359 52.067 0.055359 52.067 0.998464 142.06
8.71163000 0.998464 142.07 0.055359 52.067 0.055359 52.067 0.998464 142.06
8.71163500 0.998464 142.07 0.055360 52.067 0.055360 52.067 0.998464 142.06
8.71164000 0.998464 142.07 0.055360 52.067 0.055360 52.067 0.998464 142.06
8.71164500 0.998464 142.07 0.055360 52.067 0.055360 52.067 0.998464 142.06
8.71165000 0.998464 142.07 0.055361 52.067 0.055361 52.067 0.998464 142.06
8.71165500 0.998464 142.07 0.055361 52.066 0.055361 52.066 0.998464 142.06
8.71166000 0.998464 142.07 0.055361 52.066 0.055361 52.066 0.998464 142.06
8.71166500 0.998464 142.07 0.055362 52.066 0.055362 52.066 0.998464 142.06
8.71167000 0.998464 142.07 0.055362 52.066 0.055362 52.066 0.998464 142.06
8.71167500 0.998464 142.07 0.055362 52.066 0.055362 52.066 0.998464 142.06
8.71168000 0.998464 142.07 0.055363 52.066 0.055363 52.066 0.998464 142.06
8.71168500 0.998464 142.07 0.055363 52.066 0.055363 52.066 0.998464 142.06
8.71169000 0.998464 142.07 0.055363 52.066 0.055363 52.066 0.998464 142.06
8.71169500 0.998464 142.07 0.055364 52.066 0.055364 52.066 0.998464 142.06
8.71170000 0.998464 142.07 0.055364 52.066 0.055364 52.066 0.998464 142.06
8.71170500 0.998464 142.07 0.055365 52.066 0.055365 52.066 0.998464 142.06
8.71171000 0.998464 142.07 0.055365 52.066 0.055365 52.066 0.998464 142.06
8.71171500 0.998464 142.07 0.055365 52.066 0.055365 52.066 0.998464 142.06
8.71172000 0.998464 142.07 0.055366 52.066 0.055366 52.066 0.998464 142.06
8.71172500 0.998464 142.07 0.055366 52.066 0.055366 52.066 0.998464 142.06
8.71173000 0.998464 142.07 0.055366 52.066 0.055366 52.066 0.998464 142.06
8.71173500 0.998464 142.07 0.055367 52.066 0.055367 52.066 0.998464 142.06
8.71174000 0.998464 142.07 0.055367 52.066 0.055367 52.066 0.998464 142.06
8.71174500 0.998464 142.07 0.055367 52.066 0.055367 52.066 0.998464 142.06
8.71175000 0.998464 142.07 0.055368 52.066 0.055368 52.066 0.998464 142.06
8.71175500 0.998464 142.07 0.055368 52.066 0.055368 52.066 0.998464 142.06
8.71176000 0.998463 142.07 0.055369 52.066 0.055369 52.066 0.998464 142.06
8.71176500 0.998463 142.07 0.055369 52.066 0.055369 52.066 0.998463 142.06
8.71177000 0.998463 142.07 0.055369 52.066 0.055369 52.066 0.998463 142.06
8.71177500 0.998463 142.07 0.055370 52.065 0.055370 52.065 0.998463 142.06
8.71178000 0.998463 142.07 0.055370 52.065 0.055370 52.065 0.998463 142.06
8.71178500 0.998463 142.07 0.055370 52.065 0.055370 52.065 0.998463 142.06
8.71179000 0.998463 142.07 0.055371 52.065 0.055371 52.065 0.998463 142.06
8.71179500 0.998463 142.07 0.055371 52.065 0.055371 52.065 0.998463 142.06
8.71180000 0.998463 142.07 0.055371 52.065 0.055371 52.065 0.998463 142.06
8.71180500 0.998463 142.07 0.055372 52.065 0.055372 52.065 0.998463 142.06
8.71181000 0.998463 142.07 0.055372 52.065 0.055372 52.065 0.998463 142.06
8.71181500 0.998463 142.07 0.055373 52.065 0.055373 52.065 0.998463 142.06
8.71182000 0.998463 142.07 0.055373 52.065 0.055373 52.065 0.998463 142.06
8.71182500 0.998463 142.07 0.055373 52.065 0.055373 52.065 0.998463 142.06
8.71183000 0.998463 142.07 0.055374 52.065 0.055374 52.065 0.998463 142.06
8.71183500 0.998463 142.07 0.055374 52.065 0.055374 52.065 0.998463 142.06
8.71184000 0.998463 142.07 0.055374 52.065 0.055374 52.065 0.998463 142.06
8.71184500 0.998463 142.07 0.055375 52.065 0.055375 52.065 0.998463 142.06
8.71185000 0.998463 142.07 0.055375 52.065 0.055375 52.065 0.998463 142.06
8.71185500 0.998463 142.07 0.055376 52.065 0.055376 52.065 0.998463 142.06
8.71186000 0.998463 142.07 0.055376 52.065 0.055376 52.065 0.998463 142.06
8.71186500 0.998463 142.07 0.055376 52.065 0.055376 52.065 0.998463 142.06
8.71187000 0.998463 142.07 0.055377 52.065 0.055377 52.065 0.998463 142.06
8.71187500 0.998463 142.07 0.055377 52.065 0.055377 52.065 0.998463 142.06
8.71188000 0.998463 142.07 0.055377 52.065 0.055377 52.065 0.998463 142.06
8.71188500 0.998463 142.07 0.055378 52.065 0.055378 52.065 0.998463 142.06
8.71189000 0.998463 142.07 0.055378 52.064 0.055378 52.064 0.998463 142.06
8.71189500 0.998463 142.07 0.055379 52.064 0.055379 52.064 0.998463 142.06
8.71190000 0.998463 142.07 0.055379 52.064 0.055379 52.064 0.998463 142.06
8.71190500 0.998463 142.07 0.055379 52.064 0.055379 52.064 0.998463 142.06
8.71191000 0.998463 142.07 0.055380 52.064 0.055380 52.064 0.998463 142.06
8.71191500 0.998463 142.07 0.055380 52.064 0.055380 52.064 0.998463 142.06
8.71192000 0.998463 142.07 0.055381 52.064 0.055381 52.064 0.998463 142.06
8.71192500 0.998463 142.07 0.055381 52.064 0.055381 52.064 0.998463 142.06
8.71193000 0.998463 142.07 0.055381 52.064 0.055381 52.064 0.998463 142.06
8.71193500 0.998463 142.07 0.055382 52.064 0.055382 52.064 0.998463 142.06
8.71194000 0.998463 142.07 0.055382 52.064 0.055382 52.064 0.998463 142.06
8.71194500 0.998463 142.07 0.055382 52.064 0.055382 52.064 0.998463 142.06
8.71195000 0.998463 142.07 0.055383 52.064 0.055383 52.064 0.998463 142.06
8.71195500 0.998463 142.07 0.055383 52.064 0.055383 52.064 0.998463 142.06
8.71196000 0.998463 142.07 0.055384 52.064 0.055384 52.064 0.998463 142.06