! Sonnet Data File
! From: emgraph Version : 16.52
! From Emgraph Data: 171113transmon_trace_noBrg
! Data File Written: 11/14/2017 18:16:45
!< HDATE 11/14/2017 14:04:27
!< MDATE 11/14/2017 14:04:27
!< PARAMS
!< Lj = 15.24
!< Gap = 14.0
!< Width = 10.0
!< Pwidth = 2000.0
!< END PARAMS
# GHZ S MA R 34.87000
8.615000000000000 0.0206839720815 -162.6061409228 0.9997394061019 -71.37533127468 0.9997394061060 -71.37533127495 0.0206823212844 -160.3517710963
!< P1 F=8.615 Eeff=(5.13377404 -5.6313e-5) Z0=(34.6595714 -9.1612e-5) R=0.0 C=0.0 
!< P2 F=8.615 Eeff=(5.13377404 -5.6313e-5) Z0=(34.6595714 -9.1612e-5) R=0.0 C=0.0 
8.615005000000000 0.0206953485240 -162.6061132803 0.9997391608502 -71.37602424108 0.9997391608502 -71.37602424108 0.0206936981513 -160.3531270920
8.615010000000000 0.0207067221733 -162.6061987532 0.9997388744246 -71.37671697901 0.9997388744246 -71.37671697901 0.0207050704602 -160.3545951925
8.615015000000001 0.0207181098094 -162.6062850303 0.9997385874870 -71.37741051864 0.9997385874870 -71.37741051864 0.0207164567544 -160.3560642803
8.615020000000001 0.0207295114217 -162.6063721148 0.9997383000366 -71.37810485933 0.9997383000366 -71.37810485933 0.0207278570233 -160.3575343539
8.615025000000001 0.0207409270496 -162.6064600054 0.9997380120728 -71.37880000337 0.9997380120728 -71.37880000337 0.0207392713064 -160.3590054139
8.615030000000001 0.0207523567015 -162.6065487024 0.9997377235952 -71.37949595123 0.9997377235952 -71.37949595123 0.0207506996119 -160.3604774586
8.615035000000001 0.0207638004331 -162.6066382120 0.9997374346004 -71.38019270609 0.9997374346004 -71.38019270609 0.0207621419956 -160.3619504978
8.615040000000000 0.0207752582630 -162.6067285358 0.9997371450872 -71.38089026904 0.9997371450872 -71.38089026904 0.0207735984761 -160.3634245320
8.615045000000000 0.0207867301901 -162.6068196711 0.9997368550565 -71.38158863999 0.9997368550565 -71.38158863999 0.0207850690523 -160.3648995555
8.615050000000000 0.0207982162659 -162.6069116228 0.9997365645054 -71.38228782192 0.9997365645054 -71.38228782192 0.0207965537757 -160.3663755762
8.615055000000000 0.0208097165213 -162.6070043919 0.9997362734327 -71.38298781659 0.9997362734327 -71.38298781659 0.0208080526771 -160.3678525959
8.615060000000000 0.0208212309620 -162.6070979802 0.9997359818376 -71.38368862432 0.9997359818376 -71.38368862432 0.0208195657623 -160.3693306137
8.615065000000001 0.0208327596224 -162.6071923866 0.9997356897196 -71.38439024709 0.9997356897196 -71.38439024709 0.0208310930658 -160.3708096296
8.615070000000001 0.0208443025477 -162.6072876162 0.9997353970758 -71.38509268749 0.9997353970758 -71.38509268749 0.0208426346327 -160.3722896510
8.615075000000001 0.0208558597306 -162.6073836703 0.9997351039058 -71.38579594510 0.9997351039058 -71.38579594510 0.0208541904555 -160.3737706752
8.615080000000001 0.0208674312123 -162.6074805527 0.9997348102071 -71.38650002229 0.9997348102071 -71.38650002229 0.0208657605756 -160.3752527078
8.615085000000001 0.0208790170185 -162.6075782579 0.9997345159812 -71.38720492052 0.9997345159812 -71.38720492052 0.0208773450188 -160.3767357434
8.615090000000000 0.0208906171833 -162.6076767956 0.9997342212237 -71.38791064175 0.9997342212237 -71.38791064175 0.0208889438189 -160.3782197922
8.615095000000000 0.0209022317282 -162.6077761587 0.9997339259366 -71.38861718721 0.9997339259366 -71.38861718721 0.0209005569976 -160.3797048470
8.615100000000000 0.0209138606878 -162.6078763600 0.9997336301143 -71.38932455890 0.9997336301143 -71.38932455890 0.0209121845895 -160.3811909212
8.615105000000000 0.0209255040944 -162.6079773898 0.9997333337597 -71.39003275865 0.9997333337597 -71.39003275865 0.0209238266269 -160.3826780060
8.615110000000001 0.0209371619268 -162.6080792595 0.9997330368689 -71.39074178525 0.9997330368689 -71.39074178525 0.0209354830884 -160.3841661070
8.615115000000001 0.0209488342802 -162.6081819640 0.9997327394415 -71.39145164418 0.9997327394415 -71.39145164418 0.0209471540695 -160.3856552274
8.615120000000001 0.0209605211335 -162.6082855104 0.9997324414755 -71.39216233419 0.9997324414755 -71.39216233419 0.0209588395489 -160.3871453684
8.615125000000001 0.0209722225302 -162.6083898948 0.9997321429711 -71.39287385781 0.9997321429711 -71.39287385781 0.0209705395701 -160.3886365282
8.615130000000001 0.0209839384844 -162.6084951230 0.9997318439258 -71.39358621583 0.9997318439258 -71.39358621583 0.0209822541473 -160.3901287112
8.615135000000000 0.0209956690671 -162.6086011961 0.9997315443376 -71.39429941233 0.9997315443376 -71.39429941233 0.0209939833514 -160.3916219235
8.615140000000000 0.0210074142316 -162.6087081147 0.9997312442071 -71.39501344461 0.9997312442071 -71.39501344461 0.0210057271357 -160.3931161571
8.615145000000000 0.0210191740942 -162.6088158808 0.9997309435310 -71.39572831937 0.9997309435310 -71.39572831937 0.0210174856165 -160.3946114246
8.615150000000000 0.0210309485951 -162.6089244951 0.9997306423103 -71.39644403317 0.9997306423103 -71.39644403317 0.0210292587342 -160.3961077163
8.615155000000000 0.0210427378296 -162.6090339633 0.9997303405406 -71.39716059146 0.9997303405406 -71.39716059146 0.0210410465838 -160.3976050460
8.615160000000001 0.0210545417772 -162.6091442810 0.9997300382240 -71.39787799308 0.9997300382240 -71.39787799308 0.0210528491450 -160.3991034037
8.615165000000001 0.0210663605065 -162.6092554574 0.9997297353553 -71.39859624196 0.9997297353553 -71.39859624196 0.0210646664862 -160.4006028034
8.615170000000001 0.0210781940066 -162.6093674869 0.9997294319369 -71.39931533747 0.9997294319369 -71.39931533747 0.0210764985967 -160.4021032351
8.615175000000001 0.0210900423301 -162.6094803779 0.9997291279644 -71.40003528263 0.9997291279644 -71.40003528263 0.0210883455290 -160.4036047100
8.615180000000001 0.0211019055080 -162.6095941244 0.9997288234391 -71.40075607921 0.9997288234391 -71.40075607921 0.0211002073141 -160.4051072227
8.615185000000000 0.0211137835478 -162.6097087345 0.9997285183579 -71.40147772765 0.9997285183579 -71.40147772765 0.0211120839596 -160.4066107787
8.615190000000000 0.0211256764830 -162.6098242101 0.9997282127193 -71.40220022987 0.9997282127193 -71.40220022987 0.0211239754988 -160.4081153808
8.615195000000000 0.0211375843582 -162.6099405481 0.9997279065232 -71.40292358842 0.9997279065232 -71.40292358842 0.0211358819765 -160.4096210277
8.615200000000000 0.0211495071965 -162.6100577562 0.9997275997662 -71.40364780463 0.9997275997662 -71.40364780463 0.0211478034156 -160.4111277266
8.615205000000001 0.0211614450120 -162.6101758302 0.9997272924494 -71.40437287930 0.9997272924494 -71.40437287930 0.0211597398303 -160.4126354718
8.615210000000001 0.0211733978403 -162.6102947768 0.9997269845695 -71.40509881448 0.9997269845695 -71.40509881448 0.0211716912562 -160.4141442708
8.615215000000001 0.0211853657142 -162.6104145951 0.9997266761260 -71.40582561205 0.9997266761260 -71.40582561205 0.0211836577261 -160.4156541233
8.615220000000001 0.0211973486550 -162.6105352871 0.9997263671176 -71.40655327323 0.9997263671176 -71.40655327323 0.0211956392614 -160.4171650304
8.615225000000001 0.0212093466879 -162.6106568572 0.9997260575421 -71.40728179946 0.9997260575421 -71.40728179946 0.0212076358870 -160.4186769962
8.615230000000000 0.0212213598584 -162.6107793028 0.9997257473990 -71.40801119336 0.9997257473990 -71.40801119336 0.0212196476487 -160.4201900202
8.615235000000000 0.0212333881789 -162.6109026292 0.9997254366864 -71.40874145562 0.9997254366864 -71.40874145562 0.0212316745588 -160.4217041057
8.615240000000000 0.0212454317018 -162.6110268370 0.9997251254024 -71.40947258927 0.9997251254024 -71.40947258927 0.0212437166696 -160.4232192562
8.615245000000000 0.0212574904139 -162.6111519251 0.9997248135479 -71.41020459353 0.9997248135479 -71.41020459353 0.0212557739680 -160.4247354658
8.615250000000001 0.0212695643831 -162.6112779034 0.9997245011175 -71.41093747231 0.9997245011175 -71.41093747231 0.0212678465218 -160.4262527488
8.615255000000001 0.0212816536329 -162.6114047665 0.9997241881125 -71.41167122695 0.9997241881125 -71.41167122695 0.0212799343547 -160.4277710994
8.615260000000001 0.0212937581665 -162.6115325172 0.9997238745319 -71.41240585763 0.9997238745319 -71.41240585763 0.0212920374697 -160.4292905172
8.615265000000001 0.0213058780170 -162.6116611599 0.9997235603730 -71.41314136625 0.9997235603730 -71.41314136625 0.0213041558999 -160.4308110074
8.615270000000001 0.0213180132640 -162.6117906972 0.9997232456331 -71.41387775738 0.9997232456331 -71.41387775738 0.0213162897249 -160.4323325783
8.615275000000000 0.0213301638704 -162.6119211251 0.9997229303143 -71.41461502889 0.9997229303143 -71.41461502889 0.0213284389078 -160.4338552183
8.615280000000000 0.0213423298969 -162.6120524503 0.9997226144126 -71.41535318425 0.9997226144126 -71.41535318425 0.0213406035092 -160.4353789378
8.615285000000000 0.0213545113863 -162.6121846722 0.9997222979274 -71.41609222593 0.9997222979274 -71.41609222593 0.0213527835717 -160.4369037376
8.615290000000000 0.0213667083328 -162.6123177977 0.9997219808559 -71.41683215359 0.9997219808559 -71.41683215359 0.0213649790897 -160.4384296209
8.615295000000000 0.0213789207857 -162.6124518218 0.9997216631989 -71.41757297005 0.9997216631989 -71.41757297005 0.0213771901125 -160.4399565847
8.615300000000001 0.0213911487743 -162.6125867498 0.9997213449536 -71.41831467700 0.9997213449536 -71.41831467700 0.0213894166693 -160.4414846346
8.615305000000001 0.0214033923502 -162.6127225851 0.9997210261175 -71.41905727740 0.9997210261175 -71.41905727740 0.0214016588117 -160.4430137762
8.615310000000001 0.0214156515134 -162.6128593265 0.9997207066908 -71.41980077123 0.9997207066908 -71.41980077123 0.0214139165397 -160.4445440053
8.615315000000001 0.0214279262891 -162.6129969778 0.9997203866716 -71.42054515996 0.9997203866716 -71.42054515996 0.0214261898786 -160.4460753250
8.615320000000001 0.0214402167319 -162.6131355401 0.9997200660581 -71.42129044671 0.9997200660581 -71.42129044671 0.0214384788830 -160.4476077392
8.615325000000000 0.0214525228450 -162.6132750164 0.9997197448490 -71.42203663166 0.9997197448490 -71.42203663166 0.0214507835559 -160.4491412480
8.615330000000000 0.0214648446747 -162.6134154073 0.9997194230428 -71.42278371746 0.9997194230428 -71.42278371746 0.0214631039437 -160.4506758539
8.615335000000000 0.0214771822550 -162.6135567153 0.9997191006379 -71.42353170608 0.9997191006379 -71.42353170608 0.0214754400804 -160.4522115598
8.615340000000000 0.0214895355989 -162.6136989405 0.9997187776336 -71.42428059824 0.9997187776336 -71.42428059824 0.0214877919791 -160.4537483640
8.615345000000001 0.0215019047732 -162.6138420857 0.9997184540274 -71.42503039779 0.9997184540274 -71.42503039779 0.0215001597066 -160.4552862733
8.615350000000001 0.0215142897653 -162.6139861579 0.9997181298169 -71.42578110399 0.9997181298169 -71.42578110399 0.0215125432500 -160.4568252900
8.615355000000001 0.0215266906216 -162.6141311516 0.9997178050029 -71.42653271952 0.9997178050029 -71.42653271952 0.0215249426561 -160.4583654105
8.615360000000001 0.0215391073734 -162.6142770720 0.9997174795826 -71.42728524616 0.9997174795826 -71.42728524616 0.0215373579558 -160.4599066399
8.615365000000001 0.0215515400627 -162.6144239194 0.9997171535550 -71.42803868633 0.9997171535550 -71.42803868633 0.0215497891915 -160.4614489801
8.615370000000000 0.0215639886960 -162.6145716962 0.9997168269187 -71.42879304038 0.9997168269187 -71.42879304038 0.0215622363693 -160.4629924306
8.615375000000000 0.0215764533274 -162.6147204142 0.9997164996681 -71.42954831144 0.9997164996681 -71.42954831144 0.0215746995436 -160.4645370059
8.615380000000000 0.0215889339835 -162.6148700592 0.9997161718078 -71.43030450101 0.9997161718078 -71.43030450101 0.0215871787408 -160.4660826914
8.615385000000000 0.0216014306875 -162.6150206404 0.9997158433336 -71.43106161044 0.9997158433336 -71.43106161044 0.0215996739844 -160.4676294956
8.615390000000000 0.0216139434706 -162.6151721604 0.9997155142438 -71.43181964150 0.9997155142438 -71.43181964150 0.0216121853052 -160.4691774210
8.615395000000001 0.0216264723497 -162.6153246201 0.9997151845375 -71.43257859518 0.9997151845375 -71.43257859518 0.0216247127203 -160.4707264669
8.615400000000001 0.0216390173928 -162.6154780250 0.9997148542110 -71.43333847537 0.9997148542110 -71.43333847537 0.0216372562977 -160.4722766430
8.615405000000001 0.0216515785959 -162.6156323730 0.9997145232651 -71.43409928183 0.9997145232651 -71.43409928183 0.0216498160333 -160.4738279435
8.615410000000001 0.0216641560171 -162.6157876669 0.9997141916973 -71.43486101791 0.9997141916973 -71.43486101791 0.0216623919854 -160.4753803740
8.615415000000000 0.0216767496746 -162.6159439074 0.9997138595067 -71.43562368463 0.9997138595067 -71.43562368463 0.0216749841720 -160.4769339339
8.615420000000000 0.0216893596019 -162.6161010999 0.9997135266904 -71.43638728393 0.9997135266904 -71.43638728393 0.0216875926266 -160.4784886288
8.615425000000000 0.0217019858097 -162.6162592433 0.9997131932487 -71.43715181642 0.9997131932487 -71.43715181642 0.0217002173600 -160.4800444552
8.615430000000000 0.0217146283896 -162.6164183387 0.9997128591786 -71.43791728735 0.9997128591786 -71.43791728735 0.0217128584638 -160.4816014211
8.615435000000000 0.0217272873026 -162.6165783964 0.9997125244773 -71.43868369447 0.9997125244773 -71.43868369447 0.0217255158988 -160.4831595289
8.615440000000001 0.0217399626147 -162.6167394078 0.9997121891462 -71.43945104160 0.9997121891462 -71.43945104160 0.0217381897314 -160.4847187738
8.615445000000001 0.0217526543639 -162.6169013811 0.9997118531814 -71.44021933088 0.9997118531814 -71.44021933088 0.0217508799991 -160.4862791648
8.615450000000001 0.0217653625786 -162.6170643136 0.9997115165830 -71.44098856395 0.9997115165830 -71.44098856395 0.0217635867307 -160.4878406987
8.615455000000001 0.0217780872564 -162.6172282148 0.9997111793474 -71.44175874069 0.9997111793474 -71.44175874069 0.0217763099235 -160.4894033815
8.615460000000001 0.0217908284822 -162.6173930797 0.9997108414744 -71.44252986595 0.9997108414744 -71.44252986595 0.0217890496627 -160.4909672137
8.615465000000000 0.0218035862647 -162.6175589125 0.9997105029621 -71.44330194023 0.9997105029621 -71.44330194023 0.0218018059567 -160.4925321973
8.615470000000000 0.0218163606337 -162.6177257146 0.9997101638092 -71.44407496524 0.9997101638092 -71.44407496524 0.0218145788355 -160.4940983332
8.615475000000000 0.0218291516023 -162.6178934927 0.9997098240127 -71.44484894174 0.9997098240127 -71.44484894174 0.0218273683121 -160.4956656261
8.615480000000000 0.0218419592444 -162.6180622440 0.9997094835719 -71.44562387395 0.9997094835719 -71.44562387395 0.0218401744603 -160.4972340779
8.615485000000001 0.0218547835736 -162.6182319713 0.9997091424852 -71.44639976266 0.9997091424852 -71.44639976266 0.0218529972940 -160.4988036891
8.615490000000001 0.0218676246164 -162.6184026775 0.9997088007509 -71.44717660939 0.9997088007509 -71.44717660939 0.0218658368395 -160.5003744622
8.615495000000001 0.0218804824166 -162.6185743624 0.9997084583677 -71.44795441666 0.9997084583677 -71.44795441666 0.0218786931406 -160.5019463982
8.615500000000001 0.0218933569876 -162.6187470320 0.9997081153332 -71.44873318522 0.9997081153332 -71.44873318522 0.0218915662106 -160.5035195009
8.615505000000001 0.0219062483903 -162.6189206862 0.9997077716457 -71.44951291857 0.9997077716457 -71.44951291857 0.0219044561106 -160.5050937734
8.615510000000000 0.0219191566313 -162.6190953270 0.9997074273043 -71.45029361709 0.9997074273043 -71.45029361709 0.0219173628471 -160.5066692149
8.615515000000000 0.0219320817534 -162.6192709589 0.9997070823060 -71.45107528322 0.9997070823060 -71.45107528322 0.0219302864628 -160.5082458309
8.615520000000000 0.0219450238039 -162.6194475776 0.9997067366513 -71.45185791970 0.9997067366513 -71.45185791970 0.0219432270051 -160.5098236188
8.615525000000000 0.0219579828046 -162.6196251913 0.9997063903365 -71.45264152776 0.9997063903365 -71.45264152776 0.0219561844959 -160.5114025854
8.615530000000000 0.0219709587700 -162.6198038032 0.9997060433599 -71.45342610823 0.9997060433599 -71.45342610823 0.0219691589496 -160.5129827321
8.615535000000001 0.0219839517712 -162.6199834098 0.9997056957211 -71.45421166520 0.9997056957211 -71.45421166520 0.0219821504372 -160.5145640593
8.615540000000001 0.0219969617965 -162.6201640172 0.9997053474177 -71.45499819798 0.9997053474177 -71.45499819798 0.0219951589470 -160.5161465685
8.615545000000001 0.0220099889334 -162.6203456242 0.9997049984483 -71.45578571161 0.9997049984483 -71.45578571161 0.0220081845668 -160.5177302642
8.615550000000001 0.0220230331715 -162.6205282374 0.9997046488102 -71.45657420547 0.9997046488102 -71.45657420547 0.0220212272857 -160.5193151483
8.615555000000001 0.0220360945743 -162.6207118581 0.9997042985016 -71.45736368321 0.9997042985016 -71.45736368321 0.0220342871676 -160.5209012253
8.615560000000000 0.0220491731390 -162.6208964828 0.9997039475235 -71.45815414468 0.9997039475235 -71.45815414468 0.0220473642096 -160.5224884880
8.615565000000000 0.0220622689311 -162.6210821200 0.9997035958712 -71.45894559363 0.9997035958712 -71.45894559363 0.0220604584772 -160.5240769480
8.615570000000000 0.0220753819927 -162.6212687699 0.9997032435434 -71.45973803247 0.9997032435434 -71.45973803247 0.0220735700124 -160.5256666067
8.615575000000000 0.0220885123352 -162.6214564332 0.9997028905395 -71.46053146185 0.9997028905395 -71.46053146185 0.0220866988266 -160.5272574623
8.615580000000001 0.0221016599867 -162.6216451137 0.9997025368572 -71.46132588338 0.9997025368572 -71.46132588338 0.0220998449480 -160.5288495179
8.615585000000001 0.0221148250005 -162.6218348146 0.9997021824939 -71.46212130013 0.9997021824939 -71.46212130013 0.0221130084298 -160.5304427789
8.615590000000001 0.0221280073907 -162.6220255360 0.9997018274491 -71.46291771290 0.9997018274491 -71.46291771290 0.0221261892862 -160.5320372431
8.615595000000001 0.0221412072302 -162.6222172814 0.9997014717197 -71.46371512586 0.9997014717197 -71.46371512586 0.0221393875900 -160.5336329183
8.615600000000001 0.0221544245013 -162.6224100474 0.9997011153072 -71.46451353802 0.9997011153072 -71.46451353802 0.0221526033236 -160.5352297956
8.615605000000000 0.0221676592895 -162.6226038462 0.9997007582049 -71.46531295425 0.9997007582049 -71.46531295425 0.0221658365723 -160.5368278924
8.615610000000000 0.0221809115975 -162.6227986733 0.9997004004142 -71.46611337474 0.9997004004142 -71.46611337474 0.0221790873391 -160.5384272010
8.615615000000000 0.0221941814613 -162.6229945348 0.9997000419318 -71.46691480152 0.9997000419318 -71.46691480152 0.0221923556597 -160.5400277278
8.615620000000000 0.0222074689300 -162.6231914279 0.9996996827575 -71.46771723743 0.9996996827575 -71.46771723743 0.0222056415834 -160.5416294713
8.615625000000001 0.0222207740379 -162.6233893606 0.9996993228873 -71.46852068442 0.9996993228873 -71.46852068442 0.0222189451443 -160.5432324395
8.615630000000001 0.0222340967974 -162.6235883293 0.9996989623222 -71.46932514322 0.9996989623222 -71.46932514322 0.0222322663550 -160.5448366266
8.615635000000001 0.0222474372726 -162.6237883392 0.9996986010585 -71.47013061748 0.9996986010585 -71.47013061748 0.0222456052795 -160.5464420406
8.615640000000001 0.0222607954785 -162.6239893910 0.9996982390954 -71.47093710809 0.9996982390954 -71.47093710809 0.0222589619329 -160.5480486804
8.615645000000001 0.0222741714607 -162.6241914918 0.9996978764291 -71.47174461764 0.9996978764291 -71.47174461764 0.0222723363606 -160.5496565539
8.615650000000000 0.0222875652457 -162.6243946395 0.9996975130595 -71.47255314766 0.9996975130595 -71.47255314766 0.0222857285892 -160.5512656584
8.615655000000000 0.0223009768924 -162.6245988379 0.9996971489836 -71.47336270152 0.9996971489836 -71.47336270152 0.0222991386776 -160.5528760001
8.615660000000000 0.0223144064276 -162.6248040874 0.9996967842006 -71.47417328076 0.9996967842006 -71.47417328076 0.0223125666525 -160.5544875783
8.615665000000000 0.0223278538721 -162.6250103905 0.9996964187089 -71.47498488658 0.9996964187089 -71.47498488658 0.0223260125349 -160.5561003942
8.615670000000000 0.0223413192683 -162.6252177510 0.9996960525058 -71.47579752140 0.9996960525058 -71.47579752140 0.0223394763671 -160.5577144522
8.615675000000001 0.0223548026380 -162.6254261698 0.9996956855902 -71.47661118648 0.9996956855902 -71.47661118648 0.0223529581708 -160.5593297519
8.615680000000001 0.0223683040529 -162.6256356525 0.9996953179584 -71.47742588592 0.9996953179584 -71.47742588592 0.0223664580178 -160.5609463024
8.615685000000001 0.0223818235144 -162.6258461986 0.9996949496101 -71.47824161981 0.9996949496101 -71.47824161981 0.0223799759095 -160.5625640998
8.615690000000001 0.0223953610709 -162.6260578089 0.9996945805439 -71.47905839091 0.9996945805439 -71.47905839091 0.0223935118942 -160.5641831462
8.615695000000001 0.0224089167670 -162.6262704883 0.9996942107567 -71.47987620180 0.9996942107567 -71.47987620180 0.0224070660167 -160.5658034473
8.615700000000000 0.0224224906530 -162.6264842395 0.9996938402461 -71.48069505536 0.9996938402461 -71.48069505536 0.0224206383270 -160.5674250073
8.615705000000000 0.0224360827104 -162.6266990615 0.9996934690126 -71.48151495051 0.9996934690126 -71.48151495051 0.0224342288069 -160.5690478197
8.615710000000000 0.0224496930401 -162.6269149618 0.9996930970510 -71.48233589305 0.9996930970510 -71.48233589305 0.0224478375571 -160.5706718984
8.615715000000000 0.0224633216345 -162.6271319377 0.9996927243623 -71.48315788254 0.9996927243623 -71.48315788254 0.0224614645700 -160.5722972364
8.615720000000001 0.0224769685483 -162.6273499917 0.9996923509440 -71.48398092212 0.9996923509440 -71.48398092212 0.0224751099005 -160.5739238379
8.615725000000001 0.0224906338123 -162.6275691319 0.9996919767922 -71.48480501355 0.9996919767922 -71.48480501355 0.0224887735791 -160.5755517105
8.615730000000001 0.0225043175026 -162.6277893525 0.9996916019072 -71.48563016120 0.9996916019072 -71.48563016120 0.0225024556820 -160.5771808525
8.615735000000001 0.0225180195612 -162.6280106655 0.9996912262853 -71.48645636173 0.9996912262853 -71.48645636173 0.0225161561512 -160.5788112660
8.615740000000001 0.0225317401163 -162.6282330646 0.9996908499261 -71.48728362252 0.9996908499261 -71.48728362252 0.0225298751151 -160.5804429542
8.615745000000000 0.0225454791805 -162.6284565551 0.9996904728270 -71.48811194426 0.9996904728270 -71.48811194426 0.0225436125860 -160.5820759198
8.615750000000000 0.0225592367747 -162.6286811407 0.9996900949858 -71.48894132817 0.9996900949858 -71.48894132817 0.0225573685850 -160.5837101650
8.615755000000000 0.0225730129706 -162.6289068218 0.9996897164005 -71.48977177836 0.9996897164005 -71.48977177836 0.0225711431837 -160.5853456936
8.615760000000000 0.0225868077586 -162.6291336017 0.9996893370700 -71.49060329426 0.9996893370700 -71.49060329426 0.0225849363726 -160.5869825041
8.615765000000000 0.0226006212018 -162.6293614845 0.9996889569909 -71.49143587950 0.9996889569909 -71.49143587950 0.0225987482145 -160.5886206032
8.615770000000001 0.0226144533292 -162.6295904710 0.9996885761621 -71.49226953576 0.9996885761621 -71.49226953576 0.0226125787387 -160.5902599911
8.615775000000001 0.0226283041981 -162.6298205631 0.9996881945814 -71.49310426629 0.9996881945814 -71.49310426629 0.0226264280025 -160.5919006714
8.615780000000001 0.0226421738396 -162.6300517626 0.9996878122472 -71.49394007290 0.9996878122472 -71.49394007290 0.0226402960368 -160.5935426453
8.615785000000001 0.0226560622725 -162.6302840742 0.9996874291569 -71.49477695667 0.9996874291569 -71.49477695667 0.0226541828605 -160.5951859157
8.615790000000001 0.0226699695543 -162.6305174991 0.9996870453087 -71.49561492087 0.9996870453087 -71.49561492087 0.0226680885310 -160.5968304857
8.615795000000000 0.0226838957212 -162.6307520386 0.9996866607009 -71.49645396761 0.9996866607009 -71.49645396761 0.0226820130847 -160.5984763563
8.615800000000000 0.0226978408042 -162.6309876987 0.9996862753304 -71.49729409864 0.9996862753304 -71.49729409864 0.0226959565525 -160.6001235329
8.615805000000000 0.0227118048465 -162.6312244770 0.9996858891968 -71.49813531645 0.9996858891968 -71.49813531645 0.0227099189775 -160.6017720137
8.615810000000000 0.0227257879062 -162.6314623800 0.9996855022961 -71.49897762437 0.9996855022961 -71.49897762437 0.0227239004180 -160.6034218070
8.615815000000001 0.0227397899685 -162.6317014106 0.9996851146273 -71.49982102155 0.9996851146273 -71.49982102155 0.0227379008589 -160.6050729104
8.615820000000001 0.0227538111244 -162.6319415658 0.9996847261893 -71.50066551320 0.9996847261893 -71.50066551320 0.0227519203915 -160.6067253263
8.615825000000001 0.0227678514107 -162.6321828540 0.9996843369777 -71.50151110145 0.9996843369777 -71.50151110145 0.0227659590524 -160.6083790628
8.615830000000001 0.0227819108189 -162.6324252754 0.9996839469924 -71.50235778579 0.9996839469924 -71.50235778579 0.0227800168331 -160.6100341154
8.615835000000001 0.0227959894453 -162.6326688293 0.9996835562314 -71.50320557176 0.9996835562314 -71.50320557176 0.0227940938300 -160.6116904891
8.615840000000000 0.0228100873149 -162.6329135230 0.9996831646909 -71.50405446078 0.9996831646909 -71.50405446078 0.0228081900681 -160.6133481898
8.615845000000000 0.0228242044332 -162.6331593571 0.9996827723704 -71.50490445317 0.9996827723704 -71.50490445317 0.0228223055528 -160.6150072147
8.615850000000000 0.0228383408728 -162.6334063338 0.9996823792671 -71.50575555310 0.9996823792671 -71.50575555310 0.0228364403568 -160.6166675697
8.615855000000000 0.0228524966561 -162.6336544564 0.9996819853791 -71.50660776184 0.9996819853791 -71.50660776184 0.0228505945023 -160.6183292559
8.615860000000001 0.0228666718344 -162.6339037274 0.9996815907040 -71.50746108234 0.9996815907040 -71.50746108234 0.0228647680409 -160.6199922773
8.615865000000001 0.0228808664415 -162.6341541511 0.9996811952389 -71.50831551654 0.9996811952389 -71.50831551654 0.0228789610061 -160.6216566376
8.615870000000001 0.0228950805166 -162.6344057251 0.9996807989838 -71.50917106669 0.9996807989838 -71.50917106669 0.0228931734373 -160.6233223343
8.615875000000001 0.0229093141028 -162.6346584564 0.9996804019348 -71.51002773525 0.9996804019348 -71.51002773525 0.0229074053774 -160.6249893747
8.615880000000001 0.0229235672508 -162.6349123471 0.9996800040896 -71.51088552513 0.9996800040896 -71.51088552513 0.0229216568772 -160.6266577621
8.615885000000000 0.0229378399901 -162.6351673931 0.9996796054489 -71.51174443803 0.9996796054489 -71.51174443803 0.0229359279665 -160.6283274913
8.615890000000000 0.0229521323476 -162.6354236084 0.9996792060064 -71.51260447549 0.9996792060064 -71.51260447549 0.0229502186716 -160.6299985750
8.615895000000000 0.0229664443934 -162.6356809901 0.9996788057613 -71.51346564152 0.9996788057613 -71.51346564152 0.0229645290630 -160.6316710131
8.615900000000000 0.0229807761437 -162.6359395359 0.9996784047141 -71.51432793706 0.9996784047141 -71.51432793706 0.0229788591568 -160.6333448013
8.615905000000000 0.0229951276544 -162.6361992564 0.9996780028589 -71.51519136531 0.9996780028589 -71.51519136531 0.0229932090089 -160.6350199514
8.615910000000001 0.0230094989438 -162.6364601473 0.9996776001968 -71.51605592732 0.9996776001968 -71.51605592732 0.0230075786376 -160.6366964571
8.615915000000001 0.0230238900947 -162.6367222166 0.9996771967226 -71.51692162784 0.9996771967226 -71.51692162784 0.0230219681257 -160.6383743305
8.615920000000001 0.0230383011075 -162.6369854636 0.9996767924363 -71.51778846688 0.9996767924363 -71.51778846688 0.0230363774735 -160.6400535668
8.615925000000001 0.0230527320328 -162.6372498926 0.9996763873348 -71.51865644736 0.9996763873348 -71.51865644736 0.0230508067317 -160.6417341715
8.615930000000001 0.0230671829370 -162.6375155083 0.9996759814144 -71.51952557308 0.9996759814144 -71.51952557308 0.0230652559668 -160.6434161516
8.615935000000000 0.0230816538273 -162.6377823091 0.9996755746754 -71.52039584445 0.9996755746754 -71.52039584445 0.0230797251857 -160.6450995023
8.615940000000000 0.0230961447403 -162.6380503016 0.9996751671140 -71.52126726357 0.9996751671140 -71.52126726357 0.0230942144252 -160.6467842297
8.615945000000000 0.0231106557775 -162.6383194834 0.9996747587288 -71.52213983626 0.9996747587288 -71.52213983626 0.0231087237868 -160.6484703372
8.615950000000000 0.0231251869213 -162.6385898590 0.9996743495181 -71.52301356152 0.9996743495181 -71.52301356152 0.0231232532529 -160.6501578238
8.615955000000001 0.0231397382673 -162.6388614353 0.9996739394766 -71.52388844481 0.9996739394766 -71.52388844481 0.0231378029190 -160.6518467014
8.615960000000001 0.0231543097756 -162.6391342097 0.9996735286060 -71.52476448386 0.9996735286060 -71.52476448386 0.0231523727452 -160.6535369597
8.615965000000001 0.0231689015595 -162.6394081842 0.9996731169028 -71.52564168517 0.9996731169028 -71.52564168517 0.0231669628450 -160.6552286074
8.615970000000001 0.0231835136223 -162.6396833716 0.9996727043616 -71.52652004891 0.9996727043616 -71.52652004891 0.0231815732213 -160.6569216537
8.615975000000001 0.0231981460335 -162.6399597597 0.9996722909852 -71.52739957908 0.9996722909852 -71.52739957908 0.0231962039440 -160.6586160891
8.615980000000000 0.0232127988215 -162.6402373621 0.9996718767675 -71.52828027730 0.9996718767675 -71.52828027730 0.0232108550412 -160.6603119258
8.615985000000000 0.0232274720330 -162.6405161793 0.9996714617068 -71.52916214626 0.9996714617068 -71.52916214626 0.0232255265598 -160.6620091648
8.615990000000000 0.0232421657154 -162.6407962084 0.9996710458031 -71.53004518866 0.9996710458031 -71.53004518866 0.0232402185471 -160.6637078036
8.615995000000000 0.0232568798810 -162.6410774591 0.9996706290519 -71.53092940523 0.9996706290519 -71.53092940523 0.0232549310155 -160.6654078490
8.616000000000000 0.0232716146332 -162.6413599316 0.9996702114504 -71.53181480187 0.9996702114504 -71.53181480187 0.0232696640682 -160.6671093072
8.616005000000001 0.0232863699543 -162.6416436298 0.9996697929973 -71.53270137758 0.9996697929973 -71.53270137758 0.0232844176876 -160.6688121762