! Sonnet Data File
! From: emgraph Version : 16.52
! From Project: transmon_brgOdd
! Data is De-embedded 
! Data File Written: 11/12/2017 17:05:32
!< HDATE 11/11/2017 22:57:51
!< MDATE 11/11/2017 22:57:51
!< PARAMS
!< Lj = 15.24
!< Gap = 6.0
!< Width = 10.0
!< Airgap = 6.0
!< Pwidth = 2000.0
!< Dist = 800.0
!< END PARAMS
# GHZ S MA R 34.67000
8.78000000 0.986798 110.33 0.161834 20.234 0.161834 20.234 0.986797 110.14
!< P1 F=8.78 Eeff=(5.13743391 -5.7017e-5) Z0=(34.6430374 -9.7216e-5) R=0.0 C=0.0 
!< P2 F=8.78 Eeff=(5.13743391 -5.7017e-5) Z0=(34.6430374 -9.7216e-5) R=0.0 C=0.0 
8.78001000 0.986796 110.33 0.161845 20.234 0.161845 20.234 0.986795 110.14
8.78002000 0.986794 110.33 0.161855 20.233 0.161855 20.233 0.986793 110.14
8.78003000 0.986792 110.33 0.161865 20.232 0.161865 20.232 0.986792 110.14
8.78004000 0.986790 110.33 0.161876 20.232 0.161876 20.232 0.986790 110.14
8.78005000 0.986789 110.33 0.161886 20.231 0.161886 20.231 0.986788 110.14
8.78006000 0.986787 110.33 0.161897 20.230 0.161897 20.230 0.986786 110.14
8.78007000 0.986785 110.33 0.161907 20.229 0.161907 20.229 0.986784 110.14
8.78008000 0.986783 110.33 0.161918 20.229 0.161918 20.229 0.986782 110.14
8.78009000 0.986781 110.33 0.161928 20.228 0.161928 20.228 0.986781 110.14
8.78010000 0.986779 110.33 0.161939 20.227 0.161939 20.227 0.986779 110.14
8.78011000 0.986778 110.33 0.161950 20.227 0.161950 20.227 0.986777 110.14
8.78012000 0.986776 110.33 0.161961 20.226 0.161961 20.226 0.986775 110.14
8.78013000 0.986774 110.33 0.161972 20.225 0.161972 20.225 0.986773 110.13
8.78014000 0.986772 110.33 0.161983 20.224 0.161983 20.224 0.986771 110.13
8.78015000 0.986770 110.32 0.161994 20.224 0.161994 20.224 0.986769 110.13
8.78016000 0.986768 110.32 0.162005 20.223 0.162005 20.223 0.986767 110.13
8.78017000 0.986766 110.32 0.162016 20.222 0.162016 20.222 0.986765 110.13
8.78018000 0.986764 110.32 0.162027 20.221 0.162027 20.221 0.986763 110.13
8.78019000 0.986762 110.32 0.162039 20.221 0.162039 20.221 0.986761 110.13
8.78020000 0.986760 110.32 0.162050 20.220 0.162050 20.220 0.986759 110.13
8.78021000 0.986758 110.32 0.162062 20.219 0.162062 20.219 0.986757 110.13
8.78022000 0.986756 110.32 0.162073 20.218 0.162073 20.218 0.986755 110.13
8.78023000 0.986754 110.32 0.162085 20.217 0.162085 20.217 0.986753 110.13
8.78024000 0.986752 110.32 0.162096 20.217 0.162096 20.217 0.986751 110.13
8.78025000 0.986750 110.32 0.162108 20.216 0.162108 20.216 0.986749 110.13
8.78026000 0.986748 110.32 0.162120 20.215 0.162120 20.215 0.986747 110.13
8.78027000 0.986746 110.32 0.162132 20.214 0.162132 20.214 0.986745 110.12
8.78028000 0.986744 110.31 0.162144 20.213 0.162144 20.213 0.986743 110.12
8.78029000 0.986742 110.31 0.162156 20.213 0.162156 20.213 0.986741 110.12
8.78030000 0.986740 110.31 0.162168 20.212 0.162168 20.212 0.986739 110.12
8.78031000 0.986738 110.31 0.162180 20.211 0.162180 20.211 0.986737 110.12
8.78032000 0.986735 110.31 0.162192 20.210 0.162192 20.210 0.986735 110.12
8.78033000 0.986733 110.31 0.162204 20.209 0.162204 20.209 0.986732 110.12
8.78034000 0.986731 110.31 0.162217 20.209 0.162217 20.209 0.986730 110.12
8.78035000 0.986729 110.31 0.162229 20.208 0.162229 20.208 0.986728 110.12
8.78036000 0.986727 110.31 0.162242 20.207 0.162242 20.207 0.986726 110.12
8.78037000 0.986724 110.31 0.162254 20.206 0.162254 20.206 0.986724 110.12
8.78038000 0.986722 110.31 0.162267 20.205 0.162267 20.205 0.986721 110.12
8.78039000 0.986720 110.31 0.162280 20.204 0.162280 20.204 0.986719 110.11
8.78040000 0.986718 110.31 0.162293 20.203 0.162293 20.203 0.986717 110.11
8.78041000 0.986716 110.30 0.162305 20.203 0.162305 20.203 0.986715 110.11
8.78042000 0.986713 110.30 0.162318 20.202 0.162318 20.202 0.986712 110.11
8.78043000 0.986711 110.30 0.162332 20.201 0.162332 20.201 0.986710 110.11
8.78044000 0.986709 110.30 0.162345 20.200 0.162345 20.200 0.986708 110.11
8.78045000 0.986706 110.30 0.162358 20.199 0.162358 20.199 0.986706 110.11
8.78046000 0.986704 110.30 0.162371 20.198 0.162371 20.198 0.986703 110.11
8.78047000 0.986702 110.30 0.162385 20.197 0.162385 20.197 0.986701 110.11
8.78048000 0.986699 110.30 0.162398 20.196 0.162398 20.196 0.986698 110.11
8.78049000 0.986697 110.30 0.162412 20.195 0.162412 20.195 0.986696 110.11
8.78050000 0.986695 110.30 0.162426 20.195 0.162426 20.195 0.986694 110.11
8.78051000 0.986692 110.30 0.162439 20.194 0.162439 20.194 0.986691 110.10
8.78052000 0.986690 110.30 0.162453 20.193 0.162453 20.193 0.986689 110.10
8.78053000 0.986687 110.29 0.162467 20.192 0.162467 20.192 0.986686 110.10
8.78054000 0.986685 110.29 0.162481 20.191 0.162481 20.191 0.986684 110.10
8.78055000 0.986682 110.29 0.162495 20.190 0.162495 20.190 0.986681 110.10
8.78056000 0.986680 110.29 0.162510 20.189 0.162510 20.189 0.986679 110.10
8.78057000 0.986677 110.29 0.162524 20.188 0.162524 20.188 0.986676 110.10
8.78058000 0.986675 110.29 0.162538 20.187 0.162538 20.187 0.986674 110.10
8.78059000 0.986672 110.29 0.162553 20.186 0.162553 20.186 0.986671 110.10
8.78060000 0.986670 110.29 0.162567 20.185 0.162567 20.185 0.986669 110.10
8.78061000 0.986667 110.29 0.162582 20.184 0.162582 20.184 0.986666 110.10
8.78062000 0.986664 110.29 0.162597 20.183 0.162597 20.183 0.986663 110.09
8.78063000 0.986662 110.29 0.162612 20.182 0.162612 20.182 0.986661 110.09
8.78064000 0.986659 110.28 0.162627 20.181 0.162627 20.181 0.986658 110.09
8.78065000 0.986656 110.28 0.162642 20.180 0.162642 20.180 0.986656 110.09
8.78066000 0.986654 110.28 0.162657 20.179 0.162657 20.179 0.986653 110.09
8.78067000 0.986651 110.28 0.162673 20.178 0.162673 20.178 0.986650 110.09
8.78068000 0.986648 110.28 0.162688 20.177 0.162688 20.177 0.986647 110.09
8.78069000 0.986646 110.28 0.162703 20.176 0.162703 20.176 0.986645 110.09
8.78070000 0.986643 110.28 0.162719 20.175 0.162719 20.175 0.986642 110.09
8.78071000 0.986640 110.28 0.162735 20.174 0.162735 20.174 0.986639 110.09
8.78072000 0.986637 110.28 0.162751 20.173 0.162751 20.173 0.986636 110.08
8.78073000 0.986634 110.28 0.162767 20.172 0.162767 20.172 0.986633 110.08
8.78074000 0.986632 110.28 0.162783 20.171 0.162783 20.171 0.986631 110.08
8.78075000 0.986629 110.27 0.162799 20.170 0.162799 20.170 0.986628 110.08
8.78076000 0.986626 110.27 0.162815 20.169 0.162815 20.169 0.986625 110.08
8.78077000 0.986623 110.27 0.162832 20.167 0.162832 20.167 0.986622 110.08
8.78078000 0.986620 110.27 0.162848 20.166 0.162848 20.166 0.986619 110.08
8.78079000 0.986617 110.27 0.162865 20.165 0.162865 20.165 0.986616 110.08
8.78080000 0.986614 110.27 0.162882 20.164 0.162882 20.164 0.986613 110.08
8.78081000 0.986611 110.27 0.162899 20.163 0.162899 20.163 0.986610 110.08
8.78082000 0.986608 110.27 0.162916 20.162 0.162916 20.162 0.986607 110.07
8.78083000 0.986605 110.27 0.162933 20.161 0.162933 20.161 0.986604 110.07
8.78084000 0.986602 110.27 0.162950 20.160 0.162950 20.160 0.986601 110.07
8.78085000 0.986599 110.26 0.162967 20.158 0.162967 20.158 0.986598 110.07
8.78086000 0.986596 110.26 0.162985 20.157 0.162985 20.157 0.986595 110.07
8.78087000 0.986593 110.26 0.163003 20.156 0.163003 20.156 0.986592 110.07
8.78088000 0.986590 110.26 0.163020 20.155 0.163020 20.155 0.986588 110.07
8.78089000 0.986586 110.26 0.163038 20.154 0.163038 20.154 0.986585 110.07
8.78090000 0.986583 110.26 0.163056 20.153 0.163056 20.153 0.986582 110.07
8.78091000 0.986580 110.26 0.163075 20.151 0.163075 20.151 0.986579 110.06
8.78092000 0.986577 110.26 0.163093 20.150 0.163093 20.150 0.986576 110.06
8.78093000 0.986573 110.26 0.163111 20.149 0.163111 20.149 0.986572 110.06
8.78094000 0.986570 110.25 0.163130 20.148 0.163130 20.148 0.986569 110.06
8.78095000 0.986567 110.25 0.163149 20.146 0.163149 20.146 0.986566 110.06
8.78096000 0.986563 110.25 0.163168 20.145 0.163168 20.145 0.986562 110.06
8.78097000 0.986560 110.25 0.163187 20.144 0.163187 20.144 0.986559 110.06
8.78098000 0.986557 110.25 0.163206 20.143 0.163206 20.143 0.986555 110.06
8.78099000 0.986553 110.25 0.163225 20.141 0.163225 20.141 0.986552 110.05
8.78100000 0.986550 110.25 0.163245 20.140 0.163245 20.140 0.986548 110.05
8.78101000 0.986546 110.25 0.163264 20.139 0.163264 20.139 0.986545 110.05
8.78102000 0.986543 110.24 0.163284 20.138 0.163284 20.138 0.986541 110.05
8.78103000 0.986539 110.24 0.163304 20.136 0.163304 20.136 0.986538 110.05
8.78104000 0.986535 110.24 0.163324 20.135 0.163324 20.135 0.986534 110.05
8.78105000 0.986532 110.24 0.163344 20.134 0.163344 20.134 0.986531 110.05
8.78106000 0.986528 110.24 0.163365 20.132 0.163365 20.132 0.986527 110.05
8.78107000 0.986524 110.24 0.163385 20.131 0.163385 20.131 0.986523 110.04
8.78108000 0.986521 110.24 0.163406 20.129 0.163406 20.129 0.986519 110.04
8.78109000 0.986517 110.24 0.163427 20.128 0.163427 20.128 0.986516 110.04
8.78110000 0.986513 110.24 0.163448 20.127 0.163448 20.127 0.986512 110.04
8.78111000 0.986509 110.23 0.163470 20.125 0.163470 20.125 0.986508 110.04
8.78112000 0.986506 110.23 0.163491 20.124 0.163491 20.124 0.986504 110.04
8.78113000 0.986502 110.23 0.163513 20.122 0.163513 20.122 0.986500 110.04
8.78114000 0.986498 110.23 0.163534 20.121 0.163534 20.121 0.986496 110.04
8.78115000 0.986494 110.23 0.163556 20.120 0.163556 20.120 0.986493 110.03
8.78116000 0.986490 110.23 0.163578 20.118 0.163578 20.118 0.986489 110.03
8.78117000 0.986486 110.23 0.163601 20.117 0.163601 20.117 0.986484 110.03
8.78118000 0.986482 110.22 0.163623 20.115 0.163623 20.115 0.986480 110.03
8.78119000 0.986478 110.22 0.163646 20.114 0.163646 20.114 0.986476 110.03
8.78120000 0.986474 110.22 0.163669 20.112 0.163669 20.112 0.986472 110.03
8.78121000 0.986469 110.22 0.163692 20.111 0.163692 20.111 0.986468 110.03
8.78122000 0.986465 110.22 0.163715 20.109 0.163715 20.109 0.986464 110.02
8.78123000 0.986461 110.22 0.163739 20.107 0.163739 20.107 0.986460 110.02
8.78124000 0.986457 110.22 0.163762 20.106 0.163762 20.106 0.986455 110.02
8.78125000 0.986452 110.21 0.163786 20.104 0.163786 20.104 0.986451 110.02
8.78126000 0.986448 110.21 0.163810 20.103 0.163810 20.103 0.986447 110.02
8.78127000 0.986444 110.21 0.163835 20.101 0.163835 20.101 0.986442 110.02
8.78128000 0.986439 110.21 0.163859 20.100 0.163859 20.100 0.986438 110.02
8.78129000 0.986435 110.21 0.163884 20.098 0.163884 20.098 0.986433 110.01
8.78130000 0.986430 110.21 0.163909 20.096 0.163909 20.096 0.986429 110.01
8.78131000 0.986426 110.21 0.163934 20.095 0.163934 20.095 0.986424 110.01
8.78132000 0.986421 110.20 0.163960 20.093 0.163960 20.093 0.986420 110.01
8.78133000 0.986417 110.20 0.163985 20.091 0.163985 20.091 0.986415 110.01
8.78134000 0.986412 110.20 0.164011 20.090 0.164011 20.090 0.986410 110.01
8.78135000 0.986407 110.20 0.164037 20.088 0.164037 20.088 0.986405 110.00
8.78136000 0.986402 110.20 0.164064 20.086 0.164064 20.086 0.986401 110.00
8.78137000 0.986398 110.20 0.164090 20.084 0.164090 20.084 0.986396 110.00
8.78138000 0.986393 110.19 0.164117 20.083 0.164117 20.083 0.986391 110.00
8.78139000 0.986388 110.19 0.164144 20.081 0.164144 20.081 0.986386 110.00
8.78140000 0.986383 110.19 0.164171 20.079 0.164171 20.079 0.986381 110.00
8.78141000 0.986378 110.19 0.164199 20.077 0.164199 20.077 0.986376 109.99
8.78142000 0.986373 110.19 0.164227 20.075 0.164227 20.075 0.986371 109.99
8.78143000 0.986368 110.19 0.164255 20.073 0.164255 20.073 0.986366 109.99
8.78144000 0.986362 110.19 0.164283 20.072 0.164283 20.072 0.986361 109.99
8.78145000 0.986357 110.18 0.164312 20.070 0.164312 20.070 0.986355 109.99
8.78146000 0.986352 110.18 0.164341 20.068 0.164341 20.068 0.986350 109.99
8.78147000 0.986347 110.18 0.164370 20.066 0.164370 20.066 0.986345 109.98
8.78148000 0.986341 110.18 0.164399 20.064 0.164399 20.064 0.986339 109.98
8.78149000 0.986336 110.18 0.164429 20.062 0.164429 20.062 0.986334 109.98
8.78150000 0.986330 110.17 0.164459 20.060 0.164459 20.060 0.986328 109.98
8.78151000 0.986325 110.17 0.164489 20.058 0.164489 20.058 0.986323 109.98
8.78152000 0.986319 110.17 0.164520 20.056 0.164520 20.056 0.986317 109.97
8.78153000 0.986314 110.17 0.164551 20.054 0.164551 20.054 0.986312 109.97
8.78154000 0.986308 110.17 0.164582 20.052 0.164582 20.052 0.986306 109.97
8.78155000 0.986302 110.17 0.164614 20.050 0.164614 20.050 0.986300 109.97
8.78156000 0.986296 110.16 0.164645 20.048 0.164645 20.048 0.986294 109.97
8.78157000 0.986290 110.16 0.164678 20.046 0.164678 20.046 0.986288 109.96
8.78158000 0.986284 110.16 0.164710 20.043 0.164710 20.043 0.986282 109.96
8.78159000 0.986278 110.16 0.164743 20.041 0.164743 20.041 0.986276 109.96
8.78160000 0.986272 110.16 0.164776 20.039 0.164776 20.039 0.986270 109.96
8.78161000 0.986266 110.15 0.164810 20.037 0.164810 20.037 0.986264 109.96
8.78162000 0.986260 110.15 0.164843 20.035 0.164843 20.035 0.986258 109.95
8.78163000 0.986254 110.15 0.164878 20.032 0.164878 20.032 0.986251 109.95
8.78164000 0.986247 110.15 0.164912 20.030 0.164912 20.030 0.986245 109.95
8.78165000 0.986241 110.15 0.164947 20.028 0.164947 20.028 0.986239 109.95
8.78166000 0.986234 110.14 0.164982 20.025 0.164982 20.025 0.986232 109.95
8.78167000 0.986228 110.14 0.165018 20.023 0.165018 20.023 0.986225 109.94
8.78168000 0.986221 110.14 0.165054 20.021 0.165054 20.021 0.986219 109.94
8.78169000 0.986214 110.14 0.165090 20.018 0.165090 20.018 0.986212 109.94
8.78170000 0.986207 110.14 0.165127 20.016 0.165127 20.016 0.986205 109.94
8.78171000 0.986200 110.13 0.165164 20.013 0.165164 20.013 0.986198 109.94
8.78172000 0.986194 110.13 0.165202 20.011 0.165202 20.011 0.986191 109.93
8.78173000 0.986186 110.13 0.165240 20.008 0.165240 20.008 0.986184 109.93
8.78174000 0.986179 110.13 0.165278 20.006 0.165278 20.006 0.986177 109.93
8.78175000 0.986172 110.12 0.165317 20.003 0.165317 20.003 0.986170 109.93
8.78176000 0.986165 110.12 0.165357 20.001 0.165357 20.001 0.986162 109.92
8.78177000 0.986157 110.12 0.165396 19.998 0.165396 19.998 0.986155 109.92
8.78178000 0.986150 110.12 0.165436 19.995 0.165436 19.995 0.986147 109.92
8.78179000 0.986142 110.11 0.165477 19.993 0.165477 19.993 0.986140 109.92
8.78180000 0.986135 110.11 0.165518 19.990 0.165518 19.990 0.986132 109.91
8.78181000 0.986127 110.11 0.165560 19.987 0.165560 19.987 0.986124 109.91
8.78182000 0.986119 110.11 0.165602 19.984 0.165602 19.984 0.986116 109.91
8.78183000 0.986111 110.10 0.165644 19.982 0.165644 19.982 0.986108 109.91
8.78184000 0.986103 110.10 0.165687 19.979 0.165687 19.979 0.986100 109.90
8.78185000 0.986095 110.10 0.165731 19.976 0.165731 19.976 0.986092 109.90
8.78186000 0.986087 110.10 0.165775 19.973 0.165775 19.973 0.986084 109.90
8.78187000 0.986078 110.09 0.165819 19.970 0.165819 19.970 0.986075 109.90
8.78188000 0.986070 110.09 0.165865 19.967 0.165865 19.967 0.986067 109.89
8.78189000 0.986061 110.09 0.165910 19.964 0.165910 19.964 0.986058 109.89
8.78190000 0.986052 110.09 0.165956 19.961 0.165956 19.961 0.986050 109.89
8.78191000 0.986044 110.08 0.166003 19.958 0.166003 19.958 0.986041 109.88
8.78192000 0.986035 110.08 0.166050 19.955 0.166050 19.955 0.986032 109.88
8.78193000 0.986026 110.08 0.166098 19.951 0.166098 19.951 0.986023 109.88
8.78194000 0.986017 110.08 0.166147 19.948 0.166147 19.948 0.986013 109.88
8.78195000 0.986007 110.07 0.166196 19.945 0.166196 19.945 0.986004 109.87
8.78196000 0.985998 110.07 0.166246 19.942 0.166246 19.942 0.985995 109.87
8.78197000 0.985988 110.07 0.166296 19.938 0.166296 19.938 0.985985 109.87
8.78198000 0.985979 110.06 0.166347 19.935 0.166347 19.935 0.985975 109.86
8.78199000 0.985969 110.06 0.166399 19.931 0.166399 19.931 0.985966 109.86
8.78200000 0.985959 110.06 0.166451 19.928 0.166451 19.928 0.985956 109.86
8.78201000 0.985949 110.05 0.166504 19.924 0.166504 19.924 0.985945 109.85
8.78202000 0.985939 110.05 0.166558 19.921 0.166558 19.921 0.985935 109.85
8.78203000 0.985928 110.05 0.166612 19.917 0.166612 19.917 0.985925 109.85
8.78204000 0.985918 110.05 0.166667 19.914 0.166667 19.914 0.985914 109.84
8.78205000 0.985907 110.04 0.166723 19.910 0.166723 19.910 0.985904 109.84
8.78206000 0.985896 110.04 0.166779 19.906 0.166779 19.906 0.985893 109.84
8.78207000 0.985885 110.04 0.166837 19.902 0.166837 19.902 0.985882 109.83
8.78208000 0.985874 110.03 0.166895 19.898 0.166895 19.898 0.985870 109.83
8.78209000 0.985863 110.03 0.166954 19.894 0.166954 19.894 0.985859 109.83
8.78210000 0.985851 110.02 0.167013 19.890 0.167013 19.890 0.985848 109.82
8.78211000 0.985840 110.02 0.167074 19.886 0.167074 19.886 0.985836 109.82
8.78212000 0.985828 110.02 0.167135 19.882 0.167135 19.882 0.985824 109.82
8.78213000 0.985816 110.01 0.167197 19.878 0.167197 19.878 0.985812 109.81
8.78214000 0.985804 110.01 0.167261 19.874 0.167261 19.874 0.985800 109.81
8.78215000 0.985791 110.01 0.167325 19.869 0.167325 19.869 0.985787 109.80
8.78216000 0.985779 110.00 0.167390 19.865 0.167390 19.865 0.985775 109.80
8.78217000 0.985766 110.00 0.167455 19.861 0.167455 19.861 0.985762 109.80
8.78218000 0.985753 110.00 0.167522 19.856 0.167522 19.856 0.985749 109.79
8.78219000 0.985740 109.99 0.167590 19.852 0.167590 19.852 0.985736 109.79
8.78220000 0.985726 109.99 0.167659 19.847 0.167659 19.847 0.985722 109.78
8.78221000 0.985713 109.98 0.167729 19.842 0.167729 19.842 0.985708 109.78
8.78222000 0.985699 109.98 0.167800 19.837 0.167800 19.837 0.985695 109.78
8.78223000 0.985685 109.98 0.167872 19.833 0.167872 19.833 0.985680 109.77
8.78224000 0.985671 109.97 0.167945 19.828 0.167945 19.828 0.985666 109.77
8.78225000 0.985656 109.97 0.168019 19.823 0.168019 19.823 0.985651 109.76
8.78226000 0.985641 109.96 0.168094 19.818 0.168094 19.818 0.985637 109.76
8.78227000 0.985626 109.96 0.168171 19.812 0.168171 19.812 0.985622 109.75
8.78228000 0.985611 109.95 0.168248 19.807 0.168248 19.807 0.985606 109.75
8.78229000 0.985596 109.95 0.168327 19.802 0.168327 19.802 0.985591 109.74
8.78230000 0.985580 109.94 0.168407 19.796 0.168407 19.796 0.985575 109.74
8.78231000 0.985564 109.94 0.168489 19.791 0.168489 19.791 0.985558 109.73
8.78232000 0.985547 109.93 0.168572 19.785 0.168572 19.785 0.985542 109.73
8.78233000 0.985531 109.93 0.168656 19.779 0.168656 19.779 0.985525 109.72
8.78234000 0.985514 109.92 0.168741 19.774 0.168741 19.774 0.985508 109.72
8.78235000 0.985496 109.92 0.168828 19.768 0.168828 19.768 0.985491 109.71
8.78236000 0.985479 109.91 0.168917 19.762 0.168917 19.762 0.985473 109.71
8.78237000 0.985461 109.91 0.169007 19.755 0.169007 19.755 0.985455 109.70
8.78238000 0.985442 109.90 0.169098 19.749 0.169098 19.749 0.985437 109.70
8.78239000 0.985424 109.90 0.169191 19.743 0.169191 19.743 0.985418 109.69
8.78240000 0.985405 109.89 0.169286 19.736 0.169286 19.736 0.985399 109.69
8.78241000 0.985385 109.89 0.169382 19.730 0.169382 19.730 0.985379 109.68
8.78242000 0.985366 109.88 0.169480 19.723 0.169480 19.723 0.985360 109.67
8.78243000 0.985346 109.88 0.169580 19.716 0.169580 19.716 0.985339 109.67
8.78244000 0.985325 109.87 0.169681 19.709 0.169681 19.709 0.985319 109.66
8.78245000 0.985304 109.86 0.169785 19.702 0.169785 19.702 0.985298 109.66
8.78246000 0.985283 109.86 0.169890 19.695 0.169890 19.695 0.985276 109.65
8.78247000 0.985261 109.85 0.169997 19.687 0.169997 19.687 0.985254 109.64
8.78248000 0.985239 109.85 0.170107 19.680 0.170107 19.680 0.985232 109.64
8.78249000 0.985216 109.84 0.170218 19.672 0.170218 19.672 0.985209 109.63
8.78250000 0.985193 109.83 0.170331 19.664 0.170331 19.664 0.985186 109.62
8.78251000 0.985169 109.83 0.170447 19.656 0.170447 19.656 0.985162 109.62
8.78252000 0.985145 109.82 0.170565 19.648 0.170565 19.648 0.985138 109.61
8.78253000 0.985120 109.81 0.170685 19.640 0.170685 19.640 0.985113 109.60
8.78254000 0.985095 109.81 0.170807 19.631 0.170807 19.631 0.985087 109.60
8.78255000 0.985069 109.80 0.170932 19.623 0.170932 19.623 0.985061 109.59
8.78256000 0.985043 109.79 0.171060 19.614 0.171060 19.614 0.985035 109.58
8.78257000 0.985016 109.78 0.171190 19.605 0.171190 19.605 0.985008 109.57
8.78258000 0.984988 109.78 0.171322 19.595 0.171322 19.595 0.984980 109.56
8.78259000 0.984960 109.77 0.171458 19.586 0.171458 19.586 0.984952 109.56
8.78260000 0.984931 109.76 0.171596 19.576 0.171596 19.576 0.984922 109.55
8.78261000 0.984902 109.75 0.171737 19.566 0.171737 19.566 0.984893 109.54
8.78262000 0.984871 109.74 0.171882 19.556 0.171882 19.556 0.984862 109.53
8.78263000 0.984840 109.74 0.172029 19.546 0.172029 19.546 0.984831 109.52
8.78264000 0.984808 109.73 0.172180 19.535 0.172180 19.535 0.984799 109.51
8.78265000 0.984776 109.72 0.172334 19.524 0.172334 19.524 0.984766 109.50
8.78266000 0.984742 109.71 0.172491 19.513 0.172491 19.513 0.984732 109.49
8.78267000 0.984708 109.70 0.172652 19.502 0.172652 19.502 0.984698 109.48
8.78268000 0.984673 109.69 0.172817 19.490 0.172817 19.490 0.984662 109.47
8.78269000 0.984637 109.68 0.172986 19.478 0.172986 19.478 0.984626 109.46
8.78270000 0.984600 109.67 0.173158 19.466 0.173158 19.466 0.984589 109.45
8.78271000 0.984562 109.66 0.173335 19.453 0.173335 19.453 0.984550 109.44
8.78272000 0.984522 109.65 0.173516 19.440 0.173516 19.440 0.984511 109.43
8.78273000 0.984482 109.64 0.173701 19.427 0.173701 19.427 0.984470 109.42
8.78274000 0.984441 109.63 0.173891 19.413 0.173891 19.413 0.984429 109.41
8.78275000 0.984398 109.62 0.174086 19.399 0.174086 19.399 0.984386 109.40
8.78276000 0.984355 109.61 0.174285 19.385 0.174285 19.385 0.984342 109.39
8.78277000 0.984310 109.59 0.174490 19.370 0.174490 19.370 0.984297 109.38
8.78278000 0.984263 109.58 0.174700 19.355 0.174700 19.355 0.984250 109.36
8.78279000 0.984216 109.57 0.174915 19.339 0.174915 19.339 0.984202 109.35
8.78280000 0.984167 109.56 0.175136 19.323 0.175136 19.323 0.984153 109.34
8.78281000 0.984116 109.54 0.175363 19.307 0.175363 19.307 0.984101 109.32
8.78282000 0.984064 109.53 0.175597 19.290 0.175597 19.290 0.984049 109.31
8.78283000 0.984010 109.52 0.175837 19.272 0.175837 19.272 0.983994 109.29
8.78284000 0.983954 109.50 0.176083 19.254 0.176083 19.254 0.983938 109.28
8.78285000 0.983897 109.49 0.176337 19.235 0.176337 19.235 0.983880 109.27
8.78286000 0.983837 109.47 0.176598 19.216 0.176598 19.216 0.983821 109.25
8.78287000 0.983776 109.46 0.176866 19.196 0.176866 19.196 0.983759 109.23
8.78288000 0.983712 109.44 0.177143 19.176 0.177143 19.176 0.983695 109.22
8.78289000 0.983647 109.43 0.177428 19.155 0.177428 19.155 0.983628 109.20
8.78290000 0.983578 109.41 0.177721 19.133 0.177721 19.133 0.983560 109.18
8.78291000 0.983508 109.39 0.178024 19.110 0.178024 19.110 0.983488 109.16
8.78292000 0.983435 109.37 0.178337 19.087 0.178337 19.087 0.983415 109.15
8.78293000 0.983359 109.35 0.178659 19.063 0.178659 19.063 0.983338 109.13
8.78294000 0.983280 109.34 0.178992 19.038 0.178992 19.038 0.983259 109.11
8.78295000 0.983198 109.32 0.179336 19.012 0.179336 19.012 0.983176 109.09
8.78296000 0.983113 109.30 0.179692 18.985 0.179692 18.985 0.983090 109.07
8.78297000 0.983024 109.27 0.180060 18.957 0.180060 18.957 0.983001 109.04
8.78298000 0.982932 109.25 0.180441 18.927 0.180441 18.927 0.982908 109.02
8.78299000 0.982836 109.23 0.180835 18.897 0.180835 18.897 0.982811 109.00
8.78300000 0.982736 109.21 0.181244 18.866 0.181244 18.866 0.982710 108.97
8.78301000 0.982632 109.18 0.181668 18.833 0.181668 18.833 0.982604 108.95
8.78302000 0.982522 109.16 0.182108 18.799 0.182108 18.799 0.982494 108.92
8.78303000 0.982408 109.13 0.182564 18.764 0.182564 18.764 0.982379 108.89
8.78304000 0.982289 109.10 0.183039 18.727 0.183039 18.727 0.982258 108.87
8.78305000 0.982164 109.08 0.183532 18.688 0.183532 18.688 0.982132 108.84
8.78306000 0.982032 109.05 0.184045 18.647 0.184045 18.647 0.981999 108.81
8.78307000 0.981895 109.02 0.184580 18.605 0.184580 18.605 0.981860 108.77
8.78308000 0.981750 108.98 0.185137 18.561 0.185137 18.561 0.981714 108.74
8.78309000 0.981598 108.95 0.185719 18.514 0.185719 18.514 0.981560 108.71
8.78310000 0.981437 108.92 0.186326 18.466 0.186326 18.466 0.981398 108.67
8.78311000 0.981268 108.88 0.186961 18.415 0.186961 18.415 0.981227 108.63
8.78312000 0.981089 108.84 0.187625 18.361 0.187625 18.361 0.981046 108.59
8.78313000 0.980900 108.80 0.188320 18.304 0.188320 18.304 0.980855 108.55
8.78314000 0.980700 108.76 0.189049 18.244 0.189049 18.244 0.980652 108.51
8.78315000 0.980488 108.72 0.189815 18.181 0.189815 18.181 0.980438 108.46
8.78316000 0.980262 108.67 0.190619 18.115 0.190619 18.115 0.980209 108.41
8.78317000 0.980022 108.62 0.191465 18.044 0.191465 18.044 0.979966 108.36
8.78318000 0.979766 108.57 0.192357 17.969 0.192357 17.969 0.979707 108.31
8.78319000 0.979492 108.52 0.193298 17.890 0.193298 17.890 0.979430 108.25
8.78320000 0.979199 108.46 0.194292 17.805 0.194292 17.805 0.979134 108.20
8.78321000 0.978885 108.40 0.195344 17.715 0.195344 17.715 0.978816 108.13
8.78322000 0.978547 108.33 0.196459 17.619 0.196459 17.619 0.978473 108.07
8.78323000 0.978183 108.27 0.197643 17.516 0.197643 17.516 0.978105 108.00
8.78324000 0.977790 108.19 0.198903 17.405 0.198903 17.405 0.977706 107.92
8.78325000 0.977364 108.12 0.200245 17.286 0.200245 17.286 0.977274 107.84
8.78326000 0.976900 108.04 0.201679 17.158 0.201679 17.158 0.976804 107.76
8.78327000 0.976395 107.95 0.203213 17.020 0.203213 17.020 0.976292 107.66
8.78328000 0.975843 107.85 0.204860 16.870 0.204860 16.870 0.975732 107.57
8.78329000 0.975236 107.75 0.206631 16.708 0.206631 16.708 0.975116 107.46
8.78330000 0.974568 107.64 0.208541 16.530 0.208541 16.530 0.974438 107.35
8.78331000 0.973828 107.52 0.210606 16.336 0.210606 16.336 0.973687 107.22
8.78332000 0.973005 107.40 0.212847 16.123 0.212847 16.123 0.972852 107.09
8.78333000 0.972086 107.26 0.215287 15.888 0.215287 15.888 0.971918 106.94
8.78334000 0.971053 107.10 0.217953 15.628 0.217953 15.628 0.970868 106.78
8.78335000 0.969886 106.94 0.220876 15.339 0.220876 15.339 0.969682 106.61
8.78336000 0.968558 106.75 0.224097 15.016 0.224097 15.016 0.968331 106.42
8.78337000 0.967036 106.55 0.227662 14.652 0.227662 14.652 0.966782 106.20
8.78338000 0.965277 106.32 0.231627 14.240 0.231627 14.240 0.964993 105.97
8.78339000 0.963228 106.06 0.236063 13.771 0.236063 13.771 0.962906 105.70
8.78340000 0.960815 105.78 0.241057 13.233 0.241057 13.233 0.960448 105.40
8.78341000 0.957942 105.45 0.246718 12.609 0.246718 12.609 0.957520 105.07
8.78342000 0.954478 105.08 0.253183 11.879 0.253183 11.879 0.953987 104.68
8.78343000 0.950241 104.66 0.260628 11.016 0.260628 11.016 0.949664 104.24
8.78344000 0.944971 104.17 0.269282 9.9830 0.269282 9.9830 0.944283 103.72
8.78345000 0.938292 103.59 0.279443 8.7284 0.279443 8.7284 0.937459 103.12
8.78346000 0.929641 102.91 0.291507 7.1796 0.291507 7.1796 0.928612 102.41
8.78347000 0.918151 102.10 0.305993 5.2313 0.305993 5.2313 0.916850 101.56
8.78348000 0.902445 101.14 0.323578 2.7264 0.323578 2.7264 0.900756 100.55
8.78349000 0.880283 100.00 0.345098 -0.575 0.345098 -0.575 0.878012 99.343
8.78350000 0.847968 98.718 0.371420 -5.050 0.371420 -5.050 0.844787 97.971
8.78351000 0.799629 97.472 0.402840 -11.29 0.402840 -11.29 0.794946 96.612
8.78352000 0.727828 97.032 0.437075 -20.16 0.437075 -20.16 0.720568 96.046
8.78353000 0.633474 99.864 0.464193 -32.69 0.464193 -32.69 0.621978 98.858
8.78354000 0.563036 110.36 0.461320 -49.13 0.461320 -49.13 0.547087 109.89
8.78355000 0.604024 123.92 0.408050 -67.22 0.408050 -67.22 0.589233 124.36
8.78356000 0.719059 129.04 0.320528 -82.84 0.320528 -82.84 0.709033 129.70
8.78357000 0.817823 128.29 0.233660 -93.69 0.233660 -93.69 0.811431 128.86
8.78358000 0.881292 126.09 0.163977 -99.75 0.163977 -99.75 0.877086 126.53
8.78359000 0.919616 123.94 0.112082 -101.3 0.112082 -101.3 0.916710 124.28
8.78360000 0.943024 122.15 0.074411 -97.89 0.074411 -97.89 0.940922 122.41
8.78361000 0.957790 120.71 0.048213 -86.77 0.048213 -86.77 0.956210 120.91
8.78362000 0.967438 119.54 0.033202 -63.23 0.033202 -63.23 0.966212 119.70
8.78363000 0.973949 118.60 0.030437 -31.54 0.030437 -31.54 0.972973 118.72
8.78364000 0.978469 117.82 0.036042 -8.749 0.036042 -8.749 0.977674 117.92
8.78365000 0.981681 117.18 0.044183 3.4244 0.044183 3.4244 0.981022 117.25
8.78366000 0.984009 116.63 0.052330 9.9973 0.052330 9.9973 0.983455 116.68
8.78367000 0.985726 116.16 0.059800 13.826 0.059800 13.826 0.985253 116.20
8.78368000 0.987008 115.76 0.066477 16.214 0.066477 16.214 0.986600 115.78
8.78369000 0.987976 115.41 0.072409 17.783 0.072409 17.783 0.987620 115.41
8.78370000 0.988713 115.10 0.077679 18.855 0.077679 18.855 0.988400 115.10
8.78371000 0.989277 114.83 0.082377 19.611 0.082377 19.611 0.989001 114.81
8.78372000 0.989711 114.59 0.086582 20.157 0.086582 20.157 0.989465 114.56
8.78373000 0.990045 114.37 0.090362 20.558 0.090362 20.558 0.989824 114.34
8.78374000 0.990302 114.18 0.093775 20.856 0.093775 20.856 0.990102 114.13
8.78375000 0.990498 114.00 0.096870 21.080 0.096870 21.080 0.990317 113.95
8.78376000 0.990647 113.84 0.099688 21.250 0.099688 21.250 0.990482 113.78
8.78377000 0.990758 113.69 0.102264 21.379 0.102264 21.379 0.990608 113.63
8.78378000 0.990840 113.56 0.104627 21.477 0.104627 21.477 0.990701 113.49
8.78379000 0.990897 113.44 0.106802 21.551 0.106802 21.551 0.990770 113.36
8.78380000 0.990936 113.32 0.108810 21.607 0.108810 21.607 0.990818 113.25
8.78381000 0.990958 113.22 0.110669 21.648 0.110669 21.648 0.990849 113.14
8.78382000 0.990969 113.12 0.112395 21.678 0.112395 21.678 0.990867 113.03
8.78383000 0.990969 113.03 0.114002 21.699 0.114002 21.699 0.990874 112.94
8.78384000 0.990961 112.94 0.115501 21.712 0.115501 21.712 0.990873 112.85
8.78385000 0.990946 112.86 0.116903 21.720 0.116903 21.720 0.990864 112.77
8.78386000 0.990926 112.79 0.118217 21.723 0.118217 21.723 0.990849 112.69
8.78387000 0.990902 112.72 0.119450 21.723 0.119450 21.723 0.990829 112.62
8.78388000 0.990875 112.65 0.120611 21.719 0.120611 21.719 0.990806 112.55
8.78389000 0.990844 112.59 0.121705 21.713 0.121705 21.713 0.990779 112.48
8.78390000 0.990812 112.53 0.122737 21.706 0.122737 21.706 0.990750 112.42
8.78391000 0.990777 112.47 0.123714 21.696 0.123714 21.696 0.990719 112.37
8.78392000 0.990742 112.42 0.124638 21.686 0.124638 21.686 0.990687 112.31