! Sonnet Data File
! From: emgraph Version : 16.52
! From Project: 171114transmon_trace_brg
! Data is De-embedded 
! Data File Written: 11/14/2017 17:50:13
!< HDATE 11/14/2017 14:11:39
!< MDATE 11/14/2017 14:11:39
!< PARAMS
!< Lj = 15.24
!< Gap = 14.0
!< Width = 10.0
!< Airgap = 6.0
!< Pwidth = 2000.0
!< Dist = 1200.0
!< END PARAMS
# GHZ S MA R 34.87000
8.615000000000000 0.9933058894772 121.66789964343 0.1154852774469 31.682153041608 0.1154852774471 31.682153041855 0.9933059023880 121.69448015521
!< P1 F=8.615 Eeff=(5.13377404 -5.6313e-5) Z0=(34.6595714 -9.1612e-5) R=0.0 C=0.0 
!< P2 F=8.615 Eeff=(5.13377404 -5.6313e-5) Z0=(34.6595714 -9.1612e-5) R=0.0 C=0.0 
8.615005000000000 0.9933058669436 121.66785878211 0.1154854655320 31.682112023983 0.1154854655320 31.682112023983 0.9933058800474 121.69443950158
8.615010000000000 0.9933058446037 121.66781793460 0.1154856536006 31.682071039595 0.1154856536006 31.682071039595 0.9933058577214 121.69439883966
8.615015000000001 0.9933058222459 121.66777707862 0.1154858418144 31.682030046367 0.1154858418144 31.682030046367 0.9933058353775 121.69435816948
8.615020000000001 0.9933057998703 121.66773621412 0.1154860301738 31.681989044262 0.1154860301738 31.681989044262 0.9933058130157 121.69431749101
8.615025000000001 0.9933057774766 121.66769534108 0.1154862186793 31.681948033261 0.1154862186793 31.681948033260 0.9933057906359 121.69427680422
8.615030000000001 0.9933057550650 121.66765445951 0.1154864073309 31.681907013363 0.1154864073309 31.681907013363 0.9933057682382 121.69423610911
8.615035000000001 0.9933057326353 121.66761356935 0.1154865961293 31.681865984523 0.1154865961293 31.681865984523 0.9933057458224 121.69419540565
8.615040000000000 0.9933057101875 121.66757267062 0.1154867850743 31.681824946750 0.1154867850743 31.681824946750 0.9933057233886 121.69415469384
8.615045000000000 0.9933056877216 121.66753176328 0.1154869741666 31.681783899995 0.1154869741666 31.681783899995 0.9933057009367 121.69411397364
8.615050000000000 0.9933056652376 121.66749084734 0.1154871634063 31.681742844271 0.1154871634063 31.681742844271 0.9933056784667 121.69407324505
8.615055000000000 0.9933056427354 121.66744992275 0.1154873527937 31.681701779547 0.1154873527937 31.681701779547 0.9933056559785 121.69403250806
8.615060000000000 0.9933056202150 121.66740898952 0.1154875423290 31.681660705806 0.1154875423290 31.681660705806 0.9933056334721 121.69399176265
8.615065000000001 0.9933055976763 121.66736804762 0.1154877320128 31.681619623024 0.1154877320128 31.681619623024 0.9933056109475 121.69395100878
8.615070000000001 0.9933055751193 121.66732709702 0.1154879218451 31.681578531183 0.1154879218451 31.681578531183 0.9933055884046 121.69391024645
8.615075000000001 0.9933055525440 121.66728613774 0.1154881118262 31.681537430280 0.1154881118262 31.681537430280 0.9933055658434 121.69386947566
8.615080000000001 0.9933055299504 121.66724516974 0.1154883019565 31.681496320285 0.1154883019565 31.681496320285 0.9933055432638 121.69382869637
8.615085000000001 0.9933055073383 121.66720419300 0.1154884922362 31.681455201189 0.1154884922362 31.681455201189 0.9933055206659 121.69378790858
8.615090000000000 0.9933054847078 121.66716320750 0.1154886826658 31.681414072950 0.1154886826658 31.681414072950 0.9933054980496 121.69374711225
8.615095000000000 0.9933054620588 121.66712221323 0.1154888732454 31.681372935578 0.1154888732454 31.681372935578 0.9933054754148 121.69370630739
8.615100000000000 0.9933054393912 121.66708121018 0.1154890639753 31.681331789036 0.1154890639753 31.681331789036 0.9933054527615 121.69366549397
8.615105000000000 0.9933054167052 121.66704019831 0.1154892548560 31.681290633311 0.1154892548560 31.681290633311 0.9933054300897 121.69362467196
8.615110000000001 0.9933053940005 121.66699917762 0.1154894458876 31.681249468379 0.1154894458876 31.681249468379 0.9933054073993 121.69358384136
8.615115000000001 0.9933053712772 121.66695814810 0.1154896370704 31.681208294242 0.1154896370704 31.681208294242 0.9933053846903 121.69354300216
8.615120000000001 0.9933053485352 121.66691710971 0.1154898284049 31.681167110851 0.1154898284049 31.681167110851 0.9933053619626 121.69350215432
8.615125000000001 0.9933053257746 121.66687606246 0.1154900198910 31.681125918221 0.1154900198910 31.681125918221 0.9933053392163 121.69346129785
8.615130000000001 0.9933053029952 121.66683500631 0.1154902115293 31.681084716310 0.1154902115293 31.681084716310 0.9933053164513 121.69342043271
8.615135000000000 0.9933052801970 121.66679394124 0.1154904033202 31.681043505093 0.1154904033202 31.681043505093 0.9933052936675 121.69337955889
8.615140000000000 0.9933052573800 121.66675286725 0.1154905952637 31.681002284581 0.1154905952637 31.681002284581 0.9933052708649 121.69333867638
8.615145000000000 0.9933052345442 121.66671178431 0.1154907873605 31.680961054719 0.1154907873605 31.680961054719 0.9933052480435 121.69329778514
8.615150000000000 0.9933052116894 121.66667069241 0.1154909796105 31.680919815513 0.1154909796105 31.680919815513 0.9933052252032 121.69325688518
8.615155000000000 0.9933051888157 121.66662959153 0.1154911720141 31.680878566948 0.1154911720141 31.680878566948 0.9933052023440 121.69321597648
8.615160000000001 0.9933051659231 121.66658848164 0.1154913645718 31.680837308980 0.1154913645718 31.680837308980 0.9933051794659 121.69317505900
8.615165000000001 0.9933051430114 121.66654736274 0.1154915572837 31.680796041616 0.1154915572837 31.680796041616 0.9933051565688 121.69313413275
8.615170000000001 0.9933051200807 121.66650623480 0.1154917501503 31.680754764816 0.1154917501503 31.680754764816 0.9933051336526 121.69309319769
8.615175000000001 0.9933050971309 121.66646509780 0.1154919431718 31.680713478564 0.1154919431718 31.680713478564 0.9933051107174 121.69305225380
8.615180000000001 0.9933050741620 121.66642395175 0.1154921363484 31.680672182858 0.1154921363484 31.680672182858 0.9933050877631 121.69301130109
8.615185000000000 0.9933050511739 121.66638279659 0.1154923296805 31.680630877666 0.1154923296805 31.680630877666 0.9933050647896 121.69297033953
8.615190000000000 0.9933050281666 121.66634163233 0.1154925231686 31.680589562961 0.1154925231686 31.680589562961 0.9933050417970 121.69292936909
8.615195000000000 0.9933050051400 121.66630045894 0.1154927168128 31.680548238736 0.1154927168128 31.680548238736 0.9933050187851 121.69288838976
8.615200000000000 0.9933049820942 121.66625927640 0.1154929106134 31.680506904973 0.1154929106134 31.680506904973 0.9933049957540 121.69284740153
8.615205000000001 0.9933049590290 121.66621808470 0.1154931045709 31.680465561638 0.1154931045709 31.680465561638 0.9933049727036 121.69280640436
8.615210000000001 0.9933049359445 121.66617688383 0.1154932986853 31.680424208730 0.1154932986853 31.680424208730 0.9933049496338 121.69276539827
8.615215000000001 0.9933049128406 121.66613567374 0.1154934929572 31.680382846217 0.1154934929572 31.680382846217 0.9933049265447 121.69272438320
8.615220000000001 0.9933048897173 121.66609445444 0.1154936873870 31.680341474068 0.1154936873870 31.680341474068 0.9933049034361 121.69268335915
8.615225000000001 0.9933048665744 121.66605322591 0.1154938819745 31.680300092305 0.1154938819745 31.680300092305 0.9933048803081 121.69264232612
8.615230000000000 0.9933048434121 121.66601198811 0.1154940767206 31.680258700855 0.1154940767206 31.680258700855 0.9933048571606 121.69260128406
8.615235000000000 0.9933048202302 121.66597074105 0.1154942716252 31.680217299748 0.1154942716252 31.680217299748 0.9933048339936 121.69256023298
8.615240000000000 0.9933047970286 121.66592948469 0.1154944666889 31.680175888923 0.1154944666889 31.680175888923 0.9933048108070 121.69251917283
8.615245000000000 0.9933047738075 121.66588821901 0.1154946619120 31.680134468378 0.1154946619120 31.680134468378 0.9933047876007 121.69247810362
8.615250000000001 0.9933047505666 121.66584694401 0.1154948572946 31.680093038103 0.1154948572946 31.680093038103 0.9933047643748 121.69243702533
8.615255000000001 0.9933047273060 121.66580565966 0.1154950528372 31.680051598056 0.1154950528372 31.680051598056 0.9933047411292 121.69239593792
8.615260000000001 0.9933047040257 121.66576436595 0.1154952485399 31.680010148239 0.1154952485399 31.680010148239 0.9933047178639 121.69235484141
8.615265000000001 0.9933046807256 121.66572306283 0.1154954444035 31.679968688606 0.1154954444035 31.679968688606 0.9933046945788 121.69231373573
8.615270000000001 0.9933046574056 121.66568175033 0.1154956404278 31.679927219168 0.1154956404278 31.679927219168 0.9933046712739 121.69227262090
8.615275000000000 0.9933046340657 121.66564042838 0.1154958366136 31.679885739871 0.1154958366136 31.679885739871 0.9933046479491 121.69223149688
8.615280000000000 0.9933046107059 121.66559909700 0.1154960329609 31.679844250716 0.1154960329609 31.679844250716 0.9933046246044 121.69219036367
8.615285000000000 0.9933045873261 121.66555775615 0.1154962294700 31.679802751693 0.1154962294700 31.679802751693 0.9933046012398 121.69214922124
8.615290000000000 0.9933045639263 121.66551640582 0.1154964261415 31.679761242754 0.1154964261415 31.679761242754 0.9933045778552 121.69210806958
8.615295000000000 0.9933045405065 121.66547504598 0.1154966229755 31.679719723895 0.1154966229755 31.679719723895 0.9933045544505 121.69206690866
8.615300000000001 0.9933045170666 121.66543367663 0.1154968199723 31.679678195091 0.1154968199723 31.679678195091 0.9933045310258 121.69202573846
8.615305000000001 0.9933044936065 121.66539229774 0.1154970171324 31.679636656322 0.1154970171324 31.679636656322 0.9933045075810 121.69198455898
8.615310000000001 0.9933044701263 121.66535090928 0.1154972144562 31.679595107571 0.1154972144562 31.679595107571 0.9933044841160 121.69194337018
8.615315000000001 0.9933044466258 121.66530951124 0.1154974119439 31.679553548809 0.1154974119439 31.679553548809 0.9933044606308 121.69190217204
8.615320000000001 0.9933044231051 121.66526810360 0.1154976095956 31.679511980024 0.1154976095956 31.679511980024 0.9933044371254 121.69186096457
8.615325000000000 0.9933043995640 121.66522668635 0.1154978074121 31.679470401186 0.1154978074121 31.679470401186 0.9933044135998 121.69181974771
8.615330000000000 0.9933043760027 121.66518525946 0.1154980053932 31.679428812296 0.1154980053932 31.679428812296 0.9933043900538 121.69177852149
8.615335000000000 0.9933043524209 121.66514382290 0.1154982035399 31.679387213294 0.1154982035399 31.679387213294 0.9933043664874 121.69173728584
8.615340000000000 0.9933043288187 121.66510237667 0.1154984018520 31.679345604189 0.1154984018520 31.679345604190 0.9933043429006 121.69169604077
8.615345000000001 0.9933043051961 121.66506092075 0.1154986003300 31.679303984960 0.1154986003300 31.679303984960 0.9933043192934 121.69165478626
8.615350000000001 0.9933042815529 121.66501945511 0.1154987989742 31.679262355580 0.1154987989742 31.679262355580 0.9933042956658 121.69161352229
8.615355000000001 0.9933042578891 121.66497797973 0.1154989977851 31.679220716020 0.1154989977851 31.679220716020 0.9933042720175 121.69157224882
8.615360000000001 0.9933042342048 121.66493649459 0.1154991967630 31.679179066257 0.1154991967630 31.679179066257 0.9933042483487 121.69153096585
8.615365000000001 0.9933042104998 121.66489499966 0.1154993959082 31.679137406279 0.1154993959082 31.679137406279 0.9933042246593 121.69148967336
8.615370000000000 0.9933041867741 121.66485349495 0.1154995952209 31.679095736069 0.1154995952209 31.679095736069 0.9933042009492 121.69144837133
8.615375000000000 0.9933041630277 121.66481198042 0.1154997947015 31.679054055603 0.1154997947015 31.679054055603 0.9933041772184 121.69140705974
8.615380000000000 0.9933041392605 121.66477045606 0.1154999943504 31.679012364859 0.1154999943504 31.679012364859 0.9933041534669 121.69136573857
8.615385000000000 0.9933041154725 121.66472892183 0.1155001941681 31.678970663801 0.1155001941681 31.678970663801 0.9933041296946 121.69132440779
8.615390000000000 0.9933040916637 121.66468737772 0.1155003941548 31.678928952422 0.1155003941548 31.678928952422 0.9933041059014 121.69128306739
8.615395000000001 0.9933040678339 121.66464582372 0.1155005943107 31.678887230706 0.1155005943107 31.678887230706 0.9933040820874 121.69124171735
8.615400000000001 0.9933040439832 121.66460425980 0.1155007946365 31.678845498615 0.1155007946365 31.678845498615 0.9933040582524 121.69120035765
8.615405000000001 0.9933040201115 121.66456268594 0.1155009951322 31.678803756135 0.1155009951322 31.678803756135 0.9933040343965 121.69115898827
8.615410000000001 0.9933039962187 121.66452110212 0.1155011957983 31.678762003245 0.1155011957983 31.678762003245 0.9933040105196 121.69111760919
8.615415000000000 0.9933039723049 121.66447950831 0.1155013966354 31.678720239916 0.1155013966354 31.678720239916 0.9933039866216 121.69107622038
8.615420000000000 0.9933039483699 121.66443790451 0.1155015976433 31.678678466144 0.1155015976433 31.678678466144 0.9933039627025 121.69103482184
8.615425000000000 0.9933039244138 121.66439629068 0.1155017988228 31.678636681888 0.1155017988228 31.678636681888 0.9933039387622 121.69099341354
8.615430000000000 0.9933039004364 121.66435466682 0.1155020001741 31.678594887136 0.1155020001741 31.678594887136 0.9933039148008 121.69095199546
8.615435000000000 0.9933038764378 121.66431303289 0.1155022016976 31.678553081856 0.1155022016976 31.678553081856 0.9933038908182 121.69091056757
8.615440000000001 0.9933038524179 121.66427138887 0.1155024033936 31.678511266036 0.1155024033936 31.678511266036 0.9933038668142 121.69086912986
8.615445000000001 0.9933038283766 121.66422973474 0.1155026052626 31.678469439649 0.1155026052626 31.678469439649 0.9933038427890 121.69082768230
8.615450000000001 0.9933038043140 121.66418807051 0.1155028073045 31.678427602686 0.1155028073045 31.678427602686 0.9933038187424 121.69078622490
8.615455000000001 0.9933037802299 121.66414639611 0.1155030095202 31.678385755102 0.1155030095202 31.678385755102 0.9933037946743 121.69074475760
8.615460000000001 0.9933037561243 121.66410471156 0.1155032119098 31.678343896890 0.1155032119098 31.678343896890 0.9933037705848 121.69070328041
8.615465000000000 0.9933037319972 121.66406301681 0.1155034144738 31.678302028017 0.1155034144738 31.678302028017 0.9933037464738 121.69066179329
8.615470000000000 0.9933037078485 121.66402131185 0.1155036172125 31.678260148476 0.1155036172125 31.678260148476 0.9933037223413 121.69062029622
8.615475000000000 0.9933036836781 121.66397959666 0.1155038201262 31.678218258223 0.1155038201262 31.678218258223 0.9933036981872 121.69057878919
8.615480000000000 0.9933036594861 121.66393787121 0.1155040232154 31.678176357246 0.1155040232154 31.678176357246 0.9933036740114 121.69053727217
8.615485000000001 0.9933036352724 121.66389613549 0.1155042264804 31.678134445520 0.1155042264804 31.678134445520 0.9933036498139 121.69049574514
8.615490000000001 0.9933036110369 121.66385438948 0.1155044299214 31.678092523042 0.1155044299214 31.678092523042 0.9933036255947 121.69045420809
8.615495000000001 0.9933035867796 121.66381263315 0.1155046335390 31.678050589756 0.1155046335390 31.678050589756 0.9933036013537 121.69041266099
8.615500000000001 0.9933035625005 121.66377086648 0.1155048373335 31.678008645657 0.1155048373335 31.678008645657 0.9933035770909 121.69037110381
8.615505000000001 0.9933035381994 121.66372908945 0.1155050413052 31.677966690727 0.1155050413052 31.677966690727 0.9933035528062 121.69032953655
8.615510000000000 0.9933035138765 121.66368730204 0.1155052454545 31.677924724933 0.1155052454545 31.677924724933 0.9933035284996 121.69028795918
8.615515000000000 0.9933034895314 121.66364550421 0.1155054497821 31.677882748236 0.1155054497821 31.677882748236 0.9933035041710 121.69024637166
8.615520000000000 0.9933034651644 121.66360369598 0.1155056542875 31.677840760667 0.1155056542875 31.677840760667 0.9933034798205 121.69020477401
8.615525000000000 0.9933034407753 121.66356187728 0.1155058589722 31.677798762133 0.1155058589722 31.677798762133 0.9933034554478 121.69016316616
8.615530000000000 0.9933034163640 121.66352004812 0.1155060638358 31.677756752650 0.1155060638358 31.677756752650 0.9933034310531 121.69012154812
8.615535000000001 0.9933033919305 121.66347820847 0.1155062688789 31.677714732200 0.1155062688789 31.677714732200 0.9933034066362 121.69007991987
8.615540000000001 0.9933033674749 121.66343635831 0.1155064741018 31.677672700749 0.1155064741018 31.677672700749 0.9933033821971 121.69003828138
8.615545000000001 0.9933033429969 121.66339449761 0.1155066795050 31.677630658266 0.1155066795050 31.677630658266 0.9933033577357 121.68999663262
8.615550000000001 0.9933033184966 121.66335262635 0.1155068850888 31.677588604743 0.1155068850888 31.677588604743 0.9933033332521 121.68995497359
8.615555000000001 0.9933032939739 121.66331074451 0.1155070908537 31.677546540136 0.1155070908537 31.677546540136 0.9933033087460 121.68991330424
8.615560000000000 0.9933032694288 121.66326885207 0.1155072968000 31.677504464435 0.1155072968000 31.677504464435 0.9933032842176 121.68987162457
8.615565000000000 0.9933032448613 121.66322694901 0.1155075029279 31.677462377625 0.1155075029279 31.677462377625 0.9933032596668 121.68982993456
8.615570000000000 0.9933032202712 121.66318503529 0.1155077092382 31.677420279648 0.1155077092382 31.677420279648 0.9933032350935 121.68978823416
8.615575000000000 0.9933031956585 121.66314311092 0.1155079157307 31.677378170534 0.1155079157307 31.677378170534 0.9933032104976 121.68974652340
8.615580000000001 0.9933031710233 121.66310117586 0.1155081224062 31.677336050221 0.1155081224062 31.677336050221 0.9933031858792 121.68970480221
8.615585000000001 0.9933031463653 121.66305923006 0.1155083292652 31.677293918679 0.1155083292652 31.677293918679 0.9933031612381 121.68966307058
8.615590000000001 0.9933031216847 121.66301727354 0.1155085363079 31.677251775894 0.1155085363079 31.677251775894 0.9933031365743 121.68962132849
8.615595000000001 0.9933030969812 121.66297530626 0.1155087435346 31.677209621853 0.1155087435346 31.677209621853 0.9933031118878 121.68957957593
8.615600000000001 0.9933030722550 121.66293332819 0.1155089509458 31.677167456513 0.1155089509458 31.677167456513 0.9933030871785 121.68953781286
8.615605000000000 0.9933030475059 121.66289133931 0.1155091585420 31.677125279862 0.1155091585420 31.677125279862 0.9933030624464 121.68949603926
8.615610000000000 0.9933030227339 121.66284933962 0.1155093663232 31.677083091891 0.1155093663232 31.677083091891 0.9933030376914 121.68945425513
8.615615000000000 0.9933029979389 121.66280732906 0.1155095742902 31.677040892537 0.1155095742902 31.677040892537 0.9933030129135 121.68941246042
8.615620000000000 0.9933029731209 121.66276530763 0.1155097824433 31.676998681803 0.1155097824433 31.676998681803 0.9933029881125 121.68937065512
8.615625000000001 0.9933029482798 121.66272327532 0.1155099907827 31.676956459662 0.1155099907827 31.676956459662 0.9933029632886 121.68932883921
8.615630000000001 0.9933029234157 121.66268123207 0.1155101993089 31.676914226076 0.1155101993089 31.676914226076 0.9933029384416 121.68928701266
8.615635000000001 0.9933028985283 121.66263917788 0.1155104080226 31.676871981029 0.1155104080226 31.676871981029 0.9933029135714 121.68924517545
8.615640000000001 0.9933028736178 121.66259711273 0.1155106169237 31.676829724499 0.1155106169237 31.676829724499 0.9933028886781 121.68920332756
8.615645000000001 0.9933028486840 121.66255503659 0.1155108260129 31.676787456464 0.1155108260129 31.676787456464 0.9933028637615 121.68916146897
8.615650000000000 0.9933028237269 121.66251294942 0.1155110352907 31.676745176876 0.1155110352907 31.676745176876 0.9933028388216 121.68911959964
8.615655000000000 0.9933027987464 121.66247085123 0.1155112447571 31.676702885737 0.1155112447571 31.676702885737 0.9933028138585 121.68907771957
8.615660000000000 0.9933027737425 121.66242874196 0.1155114544129 31.676660583008 0.1155114544129 31.676660583008 0.9933027888719 121.68903582872
8.615665000000000 0.9933027487151 121.66238662161 0.1155116642583 31.676618268663 0.1155116642583 31.676618268663 0.9933027638619 121.68899392707
8.615670000000000 0.9933027236642 121.66234449016 0.1155118742937 31.676575942689 0.1155118742937 31.676575942689 0.9933027388284 121.68895201461
8.615675000000001 0.9933026985897 121.66230234758 0.1155120845197 31.676533605046 0.1155120845197 31.676533605046 0.9933027137713 121.68891009130
8.615680000000001 0.9933026734916 121.66226019383 0.1155122949365 31.676491255716 0.1155122949365 31.676491255716 0.9933026886907 121.68886815713
8.615685000000001 0.9933026483699 121.66221802891 0.1155125055446 31.676448894673 0.1155125055446 31.676448894673 0.9933026635865 121.68882621207
8.615690000000001 0.9933026232244 121.66217585278 0.1155127163444 31.676406521893 0.1155127163444 31.676406521893 0.9933026384585 121.68878425609
8.615695000000001 0.9933025980551 121.66213366543 0.1155129273362 31.676364137342 0.1155129273362 31.676364137342 0.9933026133068 121.68874228919
8.615700000000000 0.9933025728620 121.66209146683 0.1155131385205 31.676321741011 0.1155131385205 31.676321741011 0.9933025881313 121.68870031132
8.615705000000000 0.9933025476450 121.66204925694 0.1155133498978 31.676279332851 0.1155133498978 31.676279332851 0.9933025629320 121.68865832247
8.615710000000000 0.9933025224041 121.66200703576 0.1155135614684 31.676236912852 0.1155135614684 31.676236912852 0.9933025377087 121.68861632261
8.615715000000000 0.9933024971392 121.66196480324 0.1155137732330 31.676194480977 0.1155137732330 31.676194480977 0.9933025124615 121.68857431171
8.615720000000001 0.9933024718503 121.66192255940 0.1155139851914 31.676152037224 0.1155139851914 31.676152037224 0.9933024871903 121.68853228978
8.615725000000001 0.9933024465373 121.66188030416 0.1155141973445 31.676109581538 0.1155141973445 31.676109581538 0.9933024618951 121.68849025676
8.615730000000001 0.9933024212001 121.66183803752 0.1155144096929 31.676067113893 0.1155144096929 31.676067113893 0.9933024365757 121.68844821262
8.615735000000001 0.9933023958387 121.66179575947 0.1155146222364 31.676024634293 0.1155146222364 31.676024634293 0.9933024112322 121.68840615738
8.615740000000001 0.9933023704531 121.66175346998 0.1155148349758 31.675982142693 0.1155148349758 31.675982142693 0.9933023858644 121.68836409099
8.615745000000000 0.9933023450431 121.66171116901 0.1155150479115 31.675939639068 0.1155150479115 31.675939639068 0.9933023604724 121.68832201342
8.615750000000000 0.9933023196088 121.66166885652 0.1155152610442 31.675897123364 0.1155152610442 31.675897123364 0.9933023350560 121.68827992463
8.615755000000000 0.9933022941501 121.66162653253 0.1155154743738 31.675854595601 0.1155154743738 31.675854595601 0.9933023096153 121.68823782464
8.615760000000000 0.9933022686669 121.66158419699 0.1155156879009 31.675812055720 0.1155156879009 31.675812055720 0.9933022841501 121.68819571340
8.615765000000000 0.9933022431592 121.66154184989 0.1155159016258 31.675769503733 0.1155159016258 31.675769503733 0.9933022586605 121.68815359090
8.615770000000001 0.9933022176269 121.66149949115 0.1155161155497 31.675726939545 0.1155161155497 31.675726939545 0.9933022331462 121.68811145707
8.615775000000001 0.9933021920700 121.66145712082 0.1155163296722 31.675684363182 0.1155163296722 31.675684363182 0.9933022076074 121.68806931194
8.615780000000001 0.9933021664884 121.66141473884 0.1155165439937 31.675641774619 0.1155165439937 31.675641774619 0.9933021820440 121.68802715547
8.615785000000001 0.9933021408821 121.66137234519 0.1155167585151 31.675599173816 0.1155167585151 31.675599173816 0.9933021564558 121.68798498764
8.615790000000001 0.9933021152509 121.66132993983 0.1155169732367 31.675556560727 0.1155169732367 31.675556560727 0.9933021308429 121.68794280840
8.615795000000000 0.9933020895949 121.66128752276 0.1155171881587 31.675513935357 0.1155171881587 31.675513935357 0.9933021052052 121.68790061775
8.615800000000000 0.9933020639140 121.66124509394 0.1155174032819 31.675471297661 0.1155174032819 31.675471297661 0.9933020795426 121.68785841565
8.615805000000000 0.9933020382082 121.66120265333 0.1155176186066 31.675428647603 0.1155176186066 31.675428647603 0.9933020538551 121.68781620207
8.615810000000000 0.9933020124773 121.66116020093 0.1155178341330 31.675385985177 0.1155178341330 31.675385985177 0.9933020281426 121.68777397702
8.615815000000001 0.9933019867213 121.66111773669 0.1155180498620 31.675343310340 0.1155180498620 31.675343310340 0.9933020024050 121.68773174043
8.615820000000001 0.9933019609403 121.66107526061 0.1155182657936 31.675300623072 0.1155182657936 31.675300623072 0.9933019766424 121.68768949231
8.615825000000001 0.9933019351340 121.66103277264 0.1155184819286 31.675257923334 0.1155184819286 31.675257923334 0.9933019508546 121.68764723260
8.615830000000001 0.9933019093025 121.66099027277 0.1155186982672 31.675215211109 0.1155186982672 31.675215211109 0.9933019250416 121.68760496131
8.615835000000001 0.9933018834456 121.66094776097 0.1155189148099 31.675172486367 0.1155189148099 31.675172486367 0.9933018992033 121.68756267840
8.615840000000000 0.9933018575635 121.66090523723 0.1155191315570 31.675129749099 0.1155191315570 31.675129749099 0.9933018733397 121.68752038385
8.615845000000000 0.9933018316559 121.66086270149 0.1155193485092 31.675086999238 0.1155193485092 31.675086999238 0.9933018474508 121.68747807763
8.615850000000000 0.9933018057229 121.66082015374 0.1155195656670 31.675044236778 0.1155195656670 31.675044236778 0.9933018215364 121.68743575970
8.615855000000000 0.9933017797643 121.66077759395 0.1155197830307 31.675001461688 0.1155197830307 31.675001461688 0.9933017955965 121.68739343005
8.615860000000001 0.9933017537801 121.66073502211 0.1155200006007 31.674958673939 0.1155200006007 31.674958673938 0.9933017696311 121.68735108866
8.615865000000001 0.9933017277703 121.66069243819 0.1155202183774 31.674915873515 0.1155202183774 31.674915873515 0.9933017436401 121.68730873550
8.615870000000001 0.9933017017348 121.66064984213 0.1155204363617 31.674873060356 0.1155204363617 31.674873060356 0.9933017176233 121.68726637052
8.615875000000001 0.9933016756736 121.66060723394 0.1155206545535 31.674830234467 0.1155206545535 31.674830234467 0.9933016915809 121.68722399372
8.615880000000001 0.9933016495865 121.66056461359 0.1155208729534 31.674787395815 0.1155208729534 31.674787395815 0.9933016655128 121.68718160509
8.615885000000000 0.9933016234735 121.66052198101 0.1155210915623 31.674744544328 0.1155210915623 31.674744544328 0.9933016394187 121.68713920454
8.615890000000000 0.9933015973347 121.66047933624 0.1155213103801 31.674701680038 0.1155213103801 31.674701680038 0.9933016132988 121.68709679211
8.615895000000000 0.9933015711698 121.66043667922 0.1155215294074 31.674658802883 0.1155215294074 31.674658802883 0.9933015871529 121.68705436776
8.615900000000000 0.9933015449789 121.66039400991 0.1155217486449 31.674615912838 0.1155217486449 31.674615912838 0.9933015609810 121.68701193144
8.615905000000000 0.9933015187619 121.66035132831 0.1155219680926 31.674573009889 0.1155219680926 31.674573009889 0.9933015347831 121.68696948315
8.615910000000001 0.9933014925186 121.66030863434 0.1155221877520 31.674530093953 0.1155221877520 31.674530093953 0.9933015085590 121.68692702280
8.615915000000001 0.9933014662492 121.66026592805 0.1155224076222 31.674487165079 0.1155224076222 31.674487165079 0.9933014823087 121.68688455046
8.615920000000001 0.9933014399535 121.66022320937 0.1155226277043 31.674444223195 0.1155226277043 31.674444223195 0.9933014560322 121.68684206606
8.615925000000001 0.9933014136315 121.66018047827 0.1155228479990 31.674401268268 0.1155228479990 31.674401268268 0.9933014297294 121.68679956955
8.615930000000001 0.9933013872830 121.66013773473 0.1155230685065 31.674358300276 0.1155230685065 31.674358300276 0.9933014034002 121.68675706093
8.615935000000000 0.9933013609081 121.66009497873 0.1155232892272 31.674315319203 0.1155232892272 31.674315319203 0.9933013770446 121.68671454017
8.615940000000000 0.9933013345067 121.66005221022 0.1155235101618 31.674272324994 0.1155235101618 31.674272324994 0.9933013506625 121.68667200723
8.615945000000000 0.9933013080786 121.66000942918 0.1155237313109 31.674229317616 0.1155237313109 31.674229317616 0.9933013242538 121.68662946208
8.615950000000000 0.9933012816239 121.65996663561 0.1155239526744 31.674186297086 0.1155239526744 31.674186297086 0.9933012978185 121.68658690473
8.615955000000001 0.9933012551425 121.65992382944 0.1155241742534 31.674143263326 0.1155241742534 31.674143263326 0.9933012713566 121.68654433511
8.615960000000001 0.9933012286344 121.65988101068 0.1155243960478 31.674100216326 0.1155243960478 31.674100216326 0.9933012448680 121.68650175323
8.615965000000001 0.9933012020994 121.65983817927 0.1155246180586 31.674057156051 0.1155246180586 31.674057156051 0.9933012183525 121.68645915902
8.615970000000001 0.9933011755375 121.65979533519 0.1155248402862 31.674014082463 0.1155248402862 31.674014082463 0.9933011918102 121.68641655248
8.615975000000001 0.9933011489486 121.65975247843 0.1155250627308 31.673970995548 0.1155250627308 31.673970995548 0.9933011652410 121.68637393358
8.615980000000000 0.9933011223328 121.65970960895 0.1155252853930 31.673927895273 0.1155252853930 31.673927895273 0.9933011386448 121.68633130229
8.615985000000000 0.9933010956899 121.65966672672 0.1155255082734 31.673884781598 0.1155255082734 31.673884781598 0.9933011120216 121.68628865859
8.615990000000000 0.9933010690198 121.65962383170 0.1155257313724 31.673841654496 0.1155257313724 31.673841654496 0.9933010853712 121.68624600243
8.615995000000000 0.9933010423226 121.65958092388 0.1155259546905 31.673798513942 0.1155259546905 31.673798513942 0.9933010586938 121.68620333380
8.616000000000000 0.9933010155980 121.65953800322 0.1155261782283 31.673755359887 0.1155261782283 31.673755359887 0.9933010319891 121.68616065267