! Sonnet Data File
! From: emgraph Version : 16.52
! From Emgraph Data: 171114transmon_trace_brg
! Data File Written: 11/14/2017 20:36:31
!< HDATE 11/14/2017 20:04:23
!< MDATE 11/14/2017 20:04:23
!< PARAMS
!< Lj = 15.24
!< Gap = 14.0
!< Width = 10.0
!< Pwidth = 2000.0
!< Dist = 500.0
!< END PARAMS
# GHZ S MA R 34.87000
8.615000000000000 0.9815490814279 105.14565857664 0.1911840710751 15.120908299522 0.1911840710761 15.120908299454 0.9815491010425 105.09448083076
!< P1 F=8.615 Eeff=(5.13377404 -5.6313e-5) Z0=(34.6595714 -9.1612e-5) R=0.0 C=0.0 
!< P2 F=8.615 Eeff=(5.13377404 -5.6313e-5) Z0=(34.6595714 -9.1612e-5) R=0.0 C=0.0 
8.615005000000000 0.9815490246945 105.14560464578 0.1911843576004 15.120854290302 0.1911843576004 15.120854290302 0.9815490442691 105.09442727539
8.615010000000000 0.9815489678001 105.14555070739 0.1911846443905 15.120800245081 0.1911846443905 15.120800245081 0.9815489874150 105.09437372696
8.615015000000001 0.9815489108556 105.14549675434 0.1911849314265 15.120746184883 0.1911849314265 15.120746184883 0.9815489305110 105.09432016447
8.615020000000001 0.9815488538608 105.14544278658 0.1911852187092 15.120692109667 0.1911852187092 15.120692109667 0.9815488735567 105.09426658786
8.615025000000001 0.9815487968157 105.14538880408 0.1911855062393 15.120638019387 0.1911855062393 15.120638019387 0.9815488165522 105.09421299711
8.615030000000001 0.9815487397203 105.14533480685 0.1911857940166 15.120583914050 0.1911857940166 15.120583914050 0.9815487594974 105.09415939223
8.615035000000001 0.9815486825741 105.14528079479 0.1911860820428 15.120529793563 0.1911860820428 15.120529793563 0.9815487023920 105.09410577311
8.615040000000000 0.9815486253774 105.14522676793 0.1911863703174 15.120475657947 0.1911863703174 15.120475657947 0.9815486452361 105.09405213978
8.615045000000000 0.9815485681299 105.14517272621 0.1911866588412 15.120421507152 0.1911866588412 15.120421507152 0.9815485880295 105.09399849221
8.615050000000000 0.9815485108315 105.14511866959 0.1911869476152 15.120367341127 0.1911869476152 15.120367341127 0.9815485307720 105.09394483033
8.615055000000000 0.9815484534821 105.14506459807 0.1911872366391 15.120313159883 0.1911872366391 15.120313159883 0.9815484734638 105.09389115415
8.615060000000000 0.9815483960817 105.14501051159 0.1911875259140 15.120258963352 0.1911875259140 15.120258963352 0.9815484161045 105.09383746362
8.615065000000001 0.9815483386299 105.14495641011 0.1911878154407 15.120204751483 0.1911878154407 15.120204751483 0.9815483586940 105.09378375869
8.615070000000001 0.9815482811270 105.14490229365 0.1911881052188 15.120150524306 0.1911881052188 15.120150524306 0.9815483012324 105.09373003939
8.615075000000001 0.9815482235726 105.14484816212 0.1911883952497 15.120096281728 0.1911883952497 15.120096281728 0.9815482437193 105.09367630563
8.615080000000001 0.9815481659666 105.14479401553 0.1911886855333 15.120042023763 0.1911886855333 15.120042023763 0.9815481861549 105.09362255741
8.615085000000001 0.9815481083090 105.14473985382 0.1911889760707 15.119987750341 0.1911889760707 15.119987750341 0.9815481285388 105.09356879469
8.615090000000000 0.9815480505996 105.14468567696 0.1911892668623 15.119933461427 0.1911892668623 15.119933461427 0.9815480708711 105.09351501742
8.615095000000000 0.9815479928384 105.14463148493 0.1911895579084 15.119879157020 0.1911895579084 15.119879157020 0.9815480131516 105.09346122561
8.615100000000000 0.9815479350252 105.14457727771 0.1911898492094 15.119824837079 0.1911898492094 15.119824837079 0.9815479553802 105.09340741921
8.615105000000000 0.9815478771599 105.14452305525 0.1911901407663 15.119770501553 0.1911901407663 15.119770501553 0.9815478975568 105.09335359818
8.615110000000001 0.9815478192424 105.14446881751 0.1911904325795 15.119716150419 0.1911904325795 15.119716150419 0.9815478396813 105.09329976250
8.615115000000001 0.9815477612726 105.14441456446 0.1911907246495 15.119661783636 0.1911907246495 15.119661783636 0.9815477817536 105.09324591213
8.615120000000001 0.9815477032502 105.14436029607 0.1911910169770 15.119607401166 0.1911910169770 15.119607401166 0.9815477237734 105.09319204703
8.615125000000001 0.9815476451755 105.14430601233 0.1911913095621 15.119553003002 0.1911913095621 15.119553003002 0.9815476657409 105.09313816720
8.615130000000001 0.9815475870480 105.14425171317 0.1911916024059 15.119498589080 0.1911916024059 15.119498589080 0.9815476076557 105.09308427257
8.615135000000000 0.9815475288678 105.14419739860 0.1911918955083 15.119444159398 0.1911918955083 15.119444159398 0.9815475495179 105.09303036316
8.615140000000000 0.9815474706346 105.14414306855 0.1911921888705 15.119389713886 0.1911921888705 15.119389713886 0.9815474913273 105.09297643889
8.615145000000000 0.9815474123484 105.14408872299 0.1911924824930 15.119335252523 0.1911924824930 15.119335252523 0.9815474330837 105.09292249974
8.615150000000000 0.9815473540092 105.14403436189 0.1911927763761 15.119280775274 0.1911927763761 15.119280775274 0.9815473747871 105.09286854568
8.615155000000000 0.9815472956167 105.14397998524 0.1911930705203 15.119226282123 0.1911930705203 15.119226282123 0.9815473164374 105.09281457670
8.615160000000001 0.9815472371708 105.14392559298 0.1911933649264 15.119171773006 0.1911933649264 15.119171773006 0.9815472580344 105.09276059273
8.615165000000001 0.9815471786715 105.14387118509 0.1911936595947 15.119117247914 0.1911936595947 15.119117247914 0.9815471995781 105.09270659377
8.615170000000001 0.9815471201186 105.14381676153 0.1911939545261 15.119062706788 0.1911939545261 15.119062706788 0.9815471410682 105.09265257976
8.615175000000001 0.9815470615120 105.14376232226 0.1911942497211 15.119008149605 0.1911942497211 15.119008149605 0.9815470825047 105.09259855068
8.615180000000001 0.9815470028516 105.14370786727 0.1911945451797 15.118953576351 0.1911945451797 15.118953576351 0.9815470238875 105.09254450652
8.615185000000000 0.9815469441373 105.14365339652 0.1911948409030 15.118898986971 0.1911948409030 15.118898986971 0.9815469652165 105.09249044723
8.615190000000000 0.9815468853688 105.14359890994 0.1911951368918 15.118844381407 0.1911951368918 15.118844381407 0.9815469064914 105.09243637276
8.615195000000000 0.9815468265463 105.14354440754 0.1911954331460 15.118789759667 0.1911954331460 15.118789759667 0.9815468477124 105.09238228310
8.615200000000000 0.9815467676694 105.14348988924 0.1911957296671 15.118735121664 0.1911957296671 15.118735121664 0.9815467888790 105.09232817819
8.615205000000001 0.9815467087381 105.14343535507 0.1911960264546 15.118680467422 0.1911960264546 15.118680467422 0.9815467299914 105.09227405804
8.615210000000001 0.9815466497523 105.14338080494 0.1911963235098 15.118625796863 0.1911963235098 15.118625796863 0.9815466710494 105.09221992258
8.615215000000001 0.9815465907119 105.14332623884 0.1911966208329 15.118571109974 0.1911966208329 15.118571109974 0.9815466120528 105.09216577180
8.615220000000001 0.9815465316166 105.14327165673 0.1911969184248 15.118516406703 0.1911969184248 15.118516406703 0.9815465530015 105.09211160564
8.615225000000001 0.9815464724665 105.14321705858 0.1911972162858 15.118461687026 0.1911972162858 15.118461687026 0.9815464938954 105.09205742410
8.615230000000000 0.9815464132614 105.14316244435 0.1911975144167 15.118406950903 0.1911975144167 15.118406950903 0.9815464347344 105.09200322713
8.615235000000000 0.9815463540012 105.14310781401 0.1911978128178 15.118352198299 0.1911978128178 15.118352198299 0.9815463755184 105.09194901470
8.615240000000000 0.9815462946858 105.14305316753 0.1911981114899 15.118297429180 0.1911981114899 15.118297429180 0.9815463162473 105.09189478678
8.615245000000000 0.9815462353149 105.14299850483 0.1911984104341 15.118242643479 0.1911984104341 15.118242643480 0.9815462569207 105.09184054329
8.615250000000001 0.9815461758885 105.14294382594 0.1911987096499 15.118187841210 0.1911987096499 15.118187841210 0.9815461975389 105.09178628427
8.615255000000001 0.9815461164066 105.14288913079 0.1911990091386 15.118133022308 0.1911990091386 15.118133022308 0.9815461381015 105.09173200965
8.615260000000001 0.9815460568689 105.14283441935 0.1911993089007 15.118078186738 0.1911993089007 15.118078186738 0.9815460786085 105.09167771939
8.615265000000001 0.9815459972753 105.14277969158 0.1911996089367 15.118023334458 0.1911996089367 15.118023334458 0.9815460190596 105.09162341347
8.615270000000001 0.9815459376257 105.14272494744 0.1911999092475 15.117968465437 0.1911999092475 15.117968465437 0.9815459594549 105.09156909183
8.615275000000000 0.9815458779201 105.14267018693 0.1912002098330 15.117913579661 0.1912002098330 15.117913579661 0.9815458997942 105.09151475449
8.615280000000000 0.9815458181581 105.14261540997 0.1912005106946 15.117858677047 0.1912005106946 15.117858677047 0.9815458400773 105.09146040135
8.615285000000000 0.9815457583399 105.14256061655 0.1912008118323 15.117803757606 0.1912008118323 15.117803757606 0.9815457803042 105.09140603243
8.615290000000000 0.9815456984652 105.14250580662 0.1912011132469 15.117748821274 0.1912011132469 15.117748821274 0.9815457204747 105.09135164766
8.615295000000000 0.9815456385339 105.14245098017 0.1912014149390 15.117693868021 0.1912014149390 15.117693868021 0.9815456605888 105.09129724704
8.615300000000001 0.9815455785458 105.14239613712 0.1912017169095 15.117638897788 0.1912017169095 15.117638897788 0.9815456006461 105.09124283048
8.615305000000001 0.9815455185008 105.14234127744 0.1912020191591 15.117583910540 0.1912020191591 15.117583910540 0.9815455406466 105.09118839798
8.615310000000001 0.9815454583989 105.14228640115 0.1912023216874 15.117528906295 0.1912023216874 15.117528906295 0.9815454805903 105.09113394953
8.615315000000001 0.9815453982398 105.14223150816 0.1912026244961 15.117473884943 0.1912026244961 15.117473884943 0.9815454204770 105.09107948504
8.615320000000001 0.9815453380236 105.14217659845 0.1912029275851 15.117418846499 0.1912029275851 15.117418846499 0.9815453603065 105.09102500453
8.615325000000000 0.9815452777499 105.14212167197 0.1912032309556 15.117363790885 0.1912032309556 15.117363790885 0.9815453000787 105.09097050791
8.615330000000000 0.9815452174188 105.14206672870 0.1912035346079 15.117308718082 0.1912035346079 15.117308718082 0.9815452397936 105.09091599518
8.615335000000000 0.9815451570300 105.14201176860 0.1912038385425 15.117253628066 0.1912038385425 15.117253628066 0.9815451794509 105.09086146632
8.615340000000000 0.9815450965835 105.14195679162 0.1912041427605 15.117198520762 0.1912041427605 15.117198520762 0.9815451190506 105.09080692124
8.615345000000001 0.9815450360791 105.14190179774 0.1912044472620 15.117143396164 0.1912044472620 15.117143396164 0.9815450585925 105.09075235995
8.615350000000001 0.9815449755167 105.14184678693 0.1912047520476 15.117088254230 0.1912047520476 15.117088254230 0.9815449980765 105.09069778241
8.615355000000001 0.9815449148961 105.14179175911 0.1912050571187 15.117033094887 0.1912050571187 15.117033094887 0.9815449375023 105.09064318855
8.615360000000001 0.9815448542173 105.14173671428 0.1912053624752 15.116977918133 0.1912053624752 15.116977918133 0.9815448768701 105.09058857836
8.615365000000001 0.9815447934801 105.14168165240 0.1912056681177 15.116922723934 0.1912056681177 15.116922723934 0.9815448161795 105.09053395182
8.615370000000000 0.9815447326843 105.14162657342 0.1912059740473 15.116867512217 0.1912059740473 15.116867512217 0.9815447554305 105.09047930886
8.615375000000000 0.9815446718299 105.14157147732 0.1912062802641 15.116812282974 0.1912062802641 15.116812282974 0.9815446946230 105.09042464948
8.615380000000000 0.9815446109166 105.14151636403 0.1912065867694 15.116757036134 0.1912065867694 15.116757036134 0.9815446337567 105.09036997360
8.615385000000000 0.9815445499445 105.14146123355 0.1912068935631 15.116701771701 0.1912068935631 15.116701771701 0.9815445728317 105.09031528123
8.615390000000000 0.9815444889132 105.14140608580 0.1912072006466 15.116646489579 0.1912072006466 15.116646489579 0.9815445118476 105.09026057228
8.615395000000001 0.9815444278229 105.14135092080 0.1912075080197 15.116591189793 0.1912075080197 15.116591189793 0.9815444508045 105.09020584678
8.615400000000001 0.9815443666731 105.14129573844 0.1912078156838 15.116535872243 0.1912078156838 15.116535872243 0.9815443897021 105.09015110462
8.615405000000001 0.9815443054639 105.14124053874 0.1912081236393 15.116480536926 0.1912081236393 15.116480536926 0.9815443285404 105.09009634581
8.615410000000001 0.9815442441951 105.14118532161 0.1912084318870 15.116425183770 0.1912084318870 15.116425183770 0.9815442673191 105.09004157029
8.615415000000000 0.9815441828666 105.14113008707 0.1912087404269 15.116369812789 0.1912087404269 15.116369812789 0.9815442060383 105.08998677806
8.615420000000000 0.9815441214782 105.14107483505 0.1912090492601 15.116314423902 0.1912090492601 15.116314423902 0.9815441446977 105.08993196905
8.615425000000000 0.9815440600298 105.14101956550 0.1912093583875 15.116259017059 0.1912093583875 15.116259017059 0.9815440832972 105.08987714322
8.615430000000000 0.9815439985212 105.14096427840 0.1912096678094 15.116203592245 0.1912096678094 15.116203592245 0.9815440218366 105.08982230055
8.615435000000000 0.9815439369525 105.14090897370 0.1912099775264 15.116148149419 0.1912099775264 15.116148149419 0.9815439603159 105.08976744100
8.615440000000001 0.9815438753232 105.14085365136 0.1912102875397 15.116092688517 0.1912102875397 15.116092688517 0.9815438987349 105.08971256451
8.615445000000001 0.9815438136335 105.14079831136 0.1912105978492 15.116037209535 0.1912105978492 15.116037209535 0.9815438370935 105.08965767108
8.615450000000001 0.9815437518830 105.14074295364 0.1912109084561 15.115981712390 0.1912109084561 15.115981712390 0.9815437753914 105.08960276064
8.615455000000001 0.9815436900718 105.14068757816 0.1912112193610 15.115926197071 0.1912112193610 15.115926197071 0.9815437136286 105.08954783316
8.615460000000001 0.9815436281995 105.14063218490 0.1912115305644 15.115870663525 0.1912115305644 15.115870663525 0.9815436518050 105.08949288861
8.615465000000000 0.9815435662662 105.14057677380 0.1912118420670 15.115815111717 0.1912118420670 15.115815111717 0.9815435899204 105.08943792695
8.615470000000000 0.9815435042716 105.14052134481 0.1912121538699 15.115759541577 0.1912121538699 15.115759541577 0.9815435279746 105.08938294812
8.615475000000000 0.9815434422157 105.14046589793 0.1912124659729 15.115703953110 0.1912124659729 15.115703953110 0.9815434659676 105.08932795212
8.615480000000000 0.9815433800982 105.14041043308 0.1912127783775 15.115648346233 0.1912127783775 15.115648346233 0.9815434038991 105.08927293888
8.615485000000001 0.9815433179191 105.14035495025 0.1912130910838 15.115592720951 0.1912130910838 15.115592720951 0.9815433417692 105.08921790838
8.615490000000001 0.9815432556781 105.14029944936 0.1912134040931 15.115537077163 0.1912134040931 15.115537077163 0.9815432795775 105.08916286056
8.615495000000001 0.9815431933752 105.14024393041 0.1912137174056 15.115481414862 0.1912137174056 15.115481414862 0.9815432173239 105.08910779540
8.615500000000001 0.9815431310103 105.14018839334 0.1912140310220 15.115425734010 0.1912140310220 15.115425734010 0.9815431550084 105.08905271286
8.615505000000001 0.9815430685831 105.14013283813 0.1912143449429 15.115370034559 0.1912143449429 15.115370034559 0.9815430926308 105.08899761290
8.615510000000000 0.9815430060936 105.14007726473 0.1912146591690 15.115314316474 0.1912146591690 15.115314316474 0.9815430301910 105.08894249549
8.615515000000000 0.9815429435416 105.14002167305 0.1912149737018 15.115258579672 0.1912149737018 15.115258579672 0.9815429676887 105.08888736054
8.615520000000000 0.9815428809268 105.13996606311 0.1912152885411 15.115202824146 0.1912152885411 15.115202824146 0.9815429051239 105.08883220807
8.615525000000000 0.9815428182493 105.13991043485 0.1912156036878 15.115147049852 0.1912156036878 15.115147049852 0.9815428424964 105.08877703801
8.615530000000000 0.9815427555089 105.13985478821 0.1912159191429 15.115091256726 0.1912159191429 15.115091256726 0.9815427798060 105.08872185032
8.615535000000001 0.9815426927054 105.13979912319 0.1912162349064 15.115035444763 0.1912162349064 15.115035444763 0.9815427170527 105.08866664499
8.615540000000001 0.9815426298386 105.13974343970 0.1912165509798 15.114979613883 0.1912165509798 15.114979613883 0.9815426542363 105.08861142195
8.615545000000001 0.9815425669084 105.13968773773 0.1912168673634 15.114923764052 0.1912168673634 15.114923764052 0.9815425913565 105.08855618116
8.615550000000001 0.9815425039148 105.13963201723 0.1912171840578 15.114867895235 0.1912171840578 15.114867895235 0.9815425284134 105.08850092259
8.615555000000001 0.9815424408575 105.13957627817 0.1912175010639 15.114812007390 0.1912175010639 15.114812007390 0.9815424654067 105.08844564621
8.615560000000000 0.9815423777363 105.13952052047 0.1912178183825 15.114756100455 0.1912178183825 15.114756100455 0.9815424023363 105.08839035195
8.615565000000000 0.9815423145511 105.13946474411 0.1912181360143 15.114700174386 0.1912181360143 15.114700174386 0.9815423392020 105.08833503978
8.615570000000000 0.9815422513019 105.13940894909 0.1912184539594 15.114644229180 0.1912184539594 15.114644229180 0.9815422760038 105.08827970969
8.615575000000000 0.9815421879884 105.13935313529 0.1912187722195 15.114588264744 0.1912187722195 15.114588264744 0.9815422127414 105.08822436159
8.615580000000001 0.9815421246105 105.13929730270 0.1912190907949 15.114532281042 0.1912190907949 15.114532281042 0.9815421494147 105.08816899547
8.615585000000001 0.9815420611680 105.13924145129 0.1912194096860 15.114476278049 0.1912194096860 15.114476278049 0.9815420860235 105.08811361128
8.615590000000001 0.9815419976609 105.13918558103 0.1912197288937 15.114420255725 0.1912197288937 15.114420255725 0.9815420225678 105.08805820899
8.615595000000001 0.9815419340888 105.13912969184 0.1912200484189 15.114364214000 0.1912200484189 15.114364214000 0.9815419590473 105.08800278854
8.615600000000001 0.9815418704517 105.13907378366 0.1912203682626 15.114308152808 0.1912203682626 15.114308152808 0.9815418954618 105.08794734988
8.615605000000000 0.9815418067495 105.13901785652 0.1912206884246 15.114252072184 0.1912206884246 15.114252072184 0.9815418318114 105.08789189302
8.615610000000000 0.9815417429820 105.13896191032 0.1912210089064 15.114195972015 0.1912210089064 15.114195972015 0.9815417680958 105.08783641787
8.615615000000000 0.9815416791490 105.13890594503 0.1912213297086 15.114139852271 0.1912213297086 15.114139852271 0.9815417043148 105.08778092439
8.615620000000000 0.9815416152504 105.13884996062 0.1912216508316 15.114083712927 0.1912216508316 15.114083712927 0.9815416404683 105.08772541257
8.615625000000001 0.9815415512860 105.13879395701 0.1912219722768 15.114027553904 0.1912219722768 15.114027553904 0.9815415765561 105.08766988233
8.615630000000001 0.9815414872557 105.13873793420 0.1912222940441 15.113971375184 0.1912222940441 15.113971375184 0.9815415125782 105.08761433366
8.615635000000001 0.9815414231594 105.13868189212 0.1912226161349 15.113915176709 0.1912226161349 15.113915176709 0.9815414485343 105.08755876650
8.615640000000001 0.9815413589967 105.13862583072 0.1912229385498 15.113858958417 0.1912229385498 15.113858958417 0.9815413844242 105.08750318080
8.615645000000001 0.9815412947677 105.13856974998 0.1912232612893 15.113802720295 0.1912232612893 15.113802720295 0.9815413202479 105.08744757654
8.615650000000000 0.9815412304721 105.13851364981 0.1912235843547 15.113746462262 0.1912235843547 15.113746462262 0.9815412560052 105.08739195364
8.615655000000000 0.9815411661100 105.13845753026 0.1912239077455 15.113690184336 0.1912239077455 15.113690184336 0.9815411916959 105.08733631213
8.615660000000000 0.9815411016808 105.13840139116 0.1912242314643 15.113633886363 0.1912242314643 15.113633886363 0.9815411273198 105.08728065187
8.615665000000000 0.9815410371847 105.13834523254 0.1912245555105 15.113577568383 0.1912245555105 15.113577568383 0.9815410628768 105.08722497288
8.615670000000000 0.9815409726214 105.13828905436 0.1912248798852 15.113521230332 0.1912248798852 15.113521230332 0.9815409983669 105.08716927511
8.615675000000001 0.9815409079907 105.13823285652 0.1912252045896 15.113464872119 0.1912252045896 15.113464872119 0.9815409337896 105.08711355848
8.615680000000001 0.9815408432927 105.13817663905 0.1912255296235 15.113408493774 0.1912255296235 15.113408493774 0.9815408691450 105.08705782301
8.615685000000001 0.9815407785269 105.13812040185 0.1912258549883 15.113352095192 0.1912258549883 15.113352095192 0.9815408044329 105.08700206861
8.615690000000001 0.9815407136933 105.13806414487 0.1912261806852 15.113295676314 0.1912261806852 15.113295676314 0.9815407396531 105.08694629523
8.615695000000001 0.9815406487918 105.13800786810 0.1912265067141 15.113239237151 0.1912265067141 15.113239237151 0.9815406748055 105.08689050286
8.615700000000000 0.9815405838222 105.13795157149 0.1912268330759 15.113182777626 0.1912268330759 15.113182777626 0.9815406098899 105.08683469145
8.615705000000000 0.9815405187843 105.13789525497 0.1912271597719 15.113126297671 0.1912271597719 15.113126297671 0.9815405449060 105.08677886092
8.615710000000000 0.9815404536779 105.13783891848 0.1912274868029 15.113069797240 0.1912274868029 15.113069797240 0.9815404798538 105.08672301124
8.615715000000000 0.9815403885029 105.13778256202 0.1912278141691 15.113013276319 0.1912278141691 15.113013276319 0.9815404147332 105.08666714240
8.615720000000001 0.9815403232591 105.13772618552 0.1912281418715 15.112956734834 0.1912281418715 15.112956734834 0.9815403495439 105.08661125433
8.615725000000001 0.9815402579464 105.13766978894 0.1912284699108 15.112900172751 0.1912284699108 15.112900172751 0.9815402842859 105.08655534698
8.615730000000001 0.9815401925647 105.13761337222 0.1912287982881 15.112843590007 0.1912287982881 15.112843590007 0.9815402189588 105.08649942032
8.615735000000001 0.9815401271135 105.13755693530 0.1912291270044 15.112786986530 0.1912291270044 15.112786986530 0.9815401535625 105.08644347426
8.615740000000001 0.9815400615931 105.13750047819 0.1912294560595 15.112730362339 0.1912294560595 15.112730362339 0.9815400880971 105.08638750883
8.615745000000000 0.9815399960030 105.13744400079 0.1912297854550 15.112673717334 0.1912297854550 15.112673717334 0.9815400225621 105.08633152393
8.615750000000000 0.9815399303432 105.13738750306 0.1912301151917 15.112617051465 0.1912301151917 15.112617051465 0.9815399569575 105.08627551952
8.615755000000000 0.9815398646134 105.13733098497 0.1912304452701 15.112560364693 0.1912304452701 15.112560364693 0.9815398912831 105.08621949557
8.615760000000000 0.9815397988136 105.13727444647 0.1912307756909 15.112503656988 0.1912307756909 15.112503656988 0.9815398255387 105.08616345204
8.615765000000000 0.9815397329434 105.13721788748 0.1912311064556 15.112446928252 0.1912311064556 15.112446928252 0.9815397597242 105.08610738885
8.615770000000001 0.9815396670029 105.13716130798 0.1912314375644 15.112390178467 0.1912314375644 15.112390178467 0.9815396938393 105.08605130598
8.615775000000001 0.9815396009918 105.13710470794 0.1912317690180 15.112333407597 0.1912317690180 15.112333407597 0.9815396278841 105.08599520338
8.615780000000001 0.9815395349099 105.13704808728 0.1912321008176 15.112276615565 0.1912321008176 15.112276615565 0.9815395618582 105.08593908101
8.615785000000001 0.9815394687570 105.13699144594 0.1912324329640 15.112219802316 0.1912324329640 15.112219802316 0.9815394957614 105.08588293879
8.615790000000001 0.9815394025331 105.13693478393 0.1912327654575 15.112162967832 0.1912327654575 15.112162967832 0.9815394295937 105.08582677673
8.615795000000000 0.9815393362379 105.13687810115 0.1912330982994 15.112106112048 0.1912330982994 15.112106112048 0.9815393633549 105.08577059475
8.615800000000000 0.9815392698713 105.13682139756 0.1912334314904 15.112049234903 0.1912334314904 15.112049234903 0.9815392970448 105.08571439280
8.615805000000000 0.9815392034330 105.13676467310 0.1912337650317 15.111992336333 0.1912337650317 15.111992336333 0.9815392306631 105.08565817082
8.615810000000000 0.9815391369230 105.13670792777 0.1912340989233 15.111935416321 0.1912340989233 15.111935416321 0.9815391642099 105.08560192880
8.615815000000001 0.9815390703410 105.13665116144 0.1912344331671 15.111878474775 0.1912344331671 15.111878474775 0.9815390976847 105.08554566665
8.615820000000001 0.9815390036869 105.13659437415 0.1912347677627 15.111821511699 0.1912347677627 15.111821511699 0.9815390310876 105.08548938438
8.615825000000001 0.9815389369605 105.13653756580 0.1912351027117 15.111764527002 0.1912351027117 15.111764527002 0.9815389644183 105.08543308189
8.615830000000001 0.9815388701615 105.13648073634 0.1912354380150 15.111707520628 0.1912354380150 15.111707520628 0.9815388976767 105.08537675915
8.615835000000001 0.9815388032899 105.13642388571 0.1912357736735 15.111650492528 0.1912357736735 15.111650492528 0.9815388308625 105.08532041609
8.615840000000000 0.9815387363455 105.13636701390 0.1912361096875 15.111593442665 0.1912361096875 15.111593442665 0.9815387639756 105.08526405271
8.615845000000000 0.9815386693282 105.13631012084 0.1912364460579 15.111536370999 0.1912364460579 15.111536370999 0.9815386970159 105.08520766894
8.615850000000000 0.9815386022375 105.13625320645 0.1912367827864 15.111479277422 0.1912367827864 15.111479277422 0.9815386299830 105.08515126470
8.615855000000000 0.9815385350736 105.13619627072 0.1912371198728 15.111422161945 0.1912371198728 15.111422161945 0.9815385628771 105.08509483998
8.615860000000001 0.9815384678362 105.13613931360 0.1912374573183 15.111365024486 0.1912374573183 15.111365024486 0.9815384956977 105.08503839473
8.615865000000001 0.9815384005249 105.13608233497 0.1912377951245 15.111307864950 0.1912377951245 15.111307864950 0.9815384284446 105.08498192885
8.615870000000001 0.9815383331398 105.13602533487 0.1912381332912 15.111250683362 0.1912381332912 15.111250683362 0.9815383611178 105.08492544236
8.615875000000001 0.9815382656806 105.13596831320 0.1912384718198 15.111193479622 0.1912384718198 15.111193479622 0.9815382937171 105.08486893518
8.615880000000001 0.9815381981473 105.13591126994 0.1912388107107 15.111136253707 0.1912388107107 15.111136253707 0.9815382262423 105.08481240727
8.615885000000000 0.9815381305394 105.13585420501 0.1912391499653 15.111079005519 0.1912391499653 15.111079005519 0.9815381586932 105.08475585856
8.615890000000000 0.9815380628570 105.13579711837 0.1912394895840 15.111021735058 0.1912394895840 15.111021735058 0.9815380910696 105.08469928903
8.615895000000000 0.9815379950997 105.13574000994 0.1912398295686 15.110964442194 0.1912398295686 15.110964442194 0.9815380233713 105.08464269858
8.615900000000000 0.9815379272675 105.13568287970 0.1912401699190 15.110907126948 0.1912401699190 15.110907126948 0.9815379555982 105.08458608722
8.615905000000000 0.9815378593600 105.13562572757 0.1912405106367 15.110849789207 0.1912405106367 15.110849789207 0.9815378877501 105.08452945484
8.615910000000001 0.9815377913773 105.13556855355 0.1912408517218 15.110792428982 0.1912408517218 15.110792428982 0.9815378198268 105.08447280145
8.615915000000001 0.9815377233190 105.13551135753 0.1912411931761 15.110735046146 0.1912411931761 15.110735046146 0.9815377518280 105.08441612695
8.615920000000001 0.9815376551850 105.13545413949 0.1912415349999 15.110677640697 0.1912415349999 15.110677640697 0.9815376837537 105.08435943133
8.615925000000001 0.9815375869751 105.13539689935 0.1912418771945 15.110620212541 0.1912418771945 15.110620212541 0.9815376156036 105.08430271449
8.615930000000001 0.9815375186892 105.13533963712 0.1912422197598 15.110562761691 0.1912422197598 15.110562761691 0.9815375473777 105.08424597646
8.615935000000000 0.9815374503269 105.13528235265 0.1912425626981 15.110505287995 0.1912425626981 15.110505287995 0.9815374790755 105.08418921709
8.615940000000000 0.9815373818882 105.13522504594 0.1912429060099 15.110447791446 0.1912429060099 15.110447791446 0.9815374106970 105.08413243637
8.615945000000000 0.9815373133728 105.13516771696 0.1912432496953 15.110390272012 0.1912432496953 15.110390272012 0.9815373422421 105.08407563429
8.615950000000000 0.9815372447807 105.13511036562 0.1912435937558 15.110332729606 0.1912435937558 15.110332729606 0.9815372737105 105.08401881074
8.615955000000001 0.9815371761114 105.13505299186 0.1912439381927 15.110275164156 0.1912439381927 15.110275164156 0.9815372051019 105.08396196568
8.615960000000001 0.9815371073650 105.13499559563 0.1912442830064 15.110217575625 0.1912442830064 15.110217575625 0.9815371364162 105.08390509907
8.615965000000001 0.9815370385412 105.13493817691 0.1912446281976 15.110159963980 0.1912446281976 15.110159963980 0.9815370676534 105.08384821087
8.615970000000001 0.9815369696397 105.13488073562 0.1912449737676 15.110102329133 0.1912449737676 15.110102329133 0.9815369988130 105.08379130101
8.615975000000001 0.9815369006606 105.13482327171 0.1912453197171 15.110044671041 0.1912453197171 15.110044671041 0.9815369298951 105.08373436944
8.615980000000000 0.9815368316033 105.13476578510 0.1912456660476 15.109986989626 0.1912456660476 15.109986989626 0.9815368608993 105.08367741609
8.615985000000000 0.9815367624680 105.13470827579 0.1912460127590 15.109929284870 0.1912460127590 15.109929284870 0.9815367918255 105.08362044096
8.615990000000000 0.9815366932543 105.13465074366 0.1912463598533 15.109871556662 0.1912463598533 15.109871556662 0.9815367226734 105.08356344393
8.615995000000000 0.9815366239620 105.13459318869 0.1912467073309 15.109813804978 0.1912467073309 15.109813804978 0.9815366534429 105.08350642498
8.616000000000000 0.9815365545910 105.13453561083 0.1912470551924 15.109756029777 0.1912470551924 15.109756029777 0.9815365841339 105.08344938407
8.616005000000001 0.9815364851410 105.13447801001 0.1912474034394 15.109698230971 0.1912474034394 15.109698230971 0.9815365147460 105.08339232112