! Sonnet Data File
! From: emgraph Version : 16.52
! From Project: 171114transmon_trace_brg
! Data is De-embedded 
! Data File Written: 11/14/2017 17:50:13
!< HDATE 11/14/2017 14:11:39
!< MDATE 11/14/2017 14:11:39
!< PARAMS
!< Lj = 15.24
!< Gap = 14.0
!< Width = 10.0
!< Airgap = 6.0
!< Pwidth = 2000.0
!< Dist = 400.0
!< END PARAMS
# GHZ S MA R 34.87000
8.615000000000000 0.9785816145504 102.77776377220 0.2058322680793 12.776218608861 0.2058322680846 12.776218617063 0.9785816706701 102.77320541744
!< P1 F=8.615 Eeff=(5.13377404 -5.6313e-5) Z0=(34.6595714 -9.1612e-5) R=0.0 C=0.0 
!< P2 F=8.615 Eeff=(5.13377404 -5.6313e-5) Z0=(34.6595714 -9.1612e-5) R=0.0 C=0.0 
8.615005000000000 0.9785815341849 102.77770335004 0.2058326451045 12.776158325103 0.2058326451045 12.776158325103 0.9785815894204 102.77314591715
8.615010000000000 0.9785814537248 102.77764292846 0.2058330217792 12.776098044961 0.2058330217792 12.776098044961 0.9785815090313 102.77308644020
8.615015000000001 0.9785813731860 102.77758248508 0.2058333988147 12.776037742962 0.2058333988147 12.776037742962 0.9785814285636 102.77302694277
8.615020000000001 0.9785812925681 102.77752201980 0.2058337762128 12.775977419008 0.2058337762128 12.775977419008 0.9785813480170 102.77296742478
8.615025000000001 0.9785812118712 102.77746153263 0.2058341539731 12.775917073111 0.2058341539731 12.775917073111 0.9785812673915 102.77290788622
8.615030000000001 0.9785811310952 102.77740102354 0.2058345320964 12.775856705232 0.2058345320964 12.775856705232 0.9785811866871 102.77284832706
8.615035000000001 0.9785810502395 102.77734049240 0.2058349105845 12.775796315249 0.2058349105845 12.775796315249 0.9785811059032 102.77278874719
8.615040000000000 0.9785809693044 102.77727993925 0.2058352894370 12.775735903196 0.2058352894370 12.775735903196 0.9785810250400 102.77272914665
8.615045000000000 0.9785808882895 102.77721936399 0.2058356686554 12.775675468975 0.2058356686554 12.775675468975 0.9785809440971 102.77266952535
8.615050000000000 0.9785808071945 102.77715876658 0.2058360482404 12.775615012548 0.2058360482404 12.775615012548 0.9785808630744 102.77260988323
8.615055000000000 0.9785807260196 102.77709814700 0.2058364281924 12.775554533891 0.2058364281924 12.775554533891 0.9785807819719 102.77255022029
8.615060000000000 0.9785806447643 102.77703750519 0.2058368085124 12.775494032941 0.2058368085124 12.775494032941 0.9785807007892 102.77249053646
8.615065000000001 0.9785805634287 102.77697684111 0.2058371892010 12.775433509664 0.2058371892010 12.775433509664 0.9785806195262 102.77243083172
8.615070000000001 0.9785804820124 102.77691615471 0.2058375702591 12.775372963990 0.2058375702591 12.775372963990 0.9785805381828 102.77237110601
8.615075000000001 0.9785804005154 102.77685544593 0.2058379516875 12.775312395893 0.2058379516875 12.775312395893 0.9785804567588 102.77231135928
8.615080000000001 0.9785803189374 102.77679471474 0.2058383334870 12.775251805311 0.2058383334870 12.775251805311 0.9785803752540 102.77225159149
8.615085000000001 0.9785802372782 102.77673396106 0.2058387156586 12.775191192185 0.2058387156586 12.775191192185 0.9785802936681 102.77219180258
8.615090000000000 0.9785801555377 102.77667318488 0.2058390982026 12.775130556486 0.2058390982026 12.775130556486 0.9785802120011 102.77213199254
8.615095000000000 0.9785800737158 102.77661238615 0.2058394811199 12.775069898175 0.2058394811199 12.775069898175 0.9785801302529 102.77207216131
8.615100000000000 0.9785799918122 102.77655156481 0.2058398644116 12.775009217185 0.2058398644116 12.775009217185 0.9785800484231 102.77201230884
8.615105000000000 0.9785799098268 102.77649072080 0.2058402480783 12.774948513464 0.2058402480783 12.774948513464 0.9785799665117 102.77195243508
8.615110000000001 0.9785798277594 102.77642985412 0.2058406321204 12.774887787001 0.2058406321204 12.774887787001 0.9785798845185 102.77189254002
8.615115000000001 0.9785797456098 102.77636896465 0.2058410165396 12.774827037676 0.2058410165396 12.774827037676 0.9785798024432 102.77183262356
8.615120000000001 0.9785796633778 102.77630805238 0.2058414013363 12.774766265486 0.2058414013363 12.774766265486 0.9785797202857 102.77177268567
8.615125000000001 0.9785795810634 102.77624711729 0.2058417865107 12.774705470404 0.2058417865107 12.774705470404 0.9785796380459 102.77171272635
8.615130000000001 0.9785794986661 102.77618615926 0.2058421720647 12.774644652321 0.2058421720647 12.774644652321 0.9785795557234 102.77165274549
8.615135000000000 0.9785794161860 102.77612517832 0.2058425579980 12.774583811250 0.2058425579980 12.774583811250 0.9785794733184 102.77159274310
8.615140000000000 0.9785793336229 102.77606417438 0.2058429443120 12.774522947111 0.2058429443120 12.774522947111 0.9785793908304 102.77153271910
8.615145000000000 0.9785792509766 102.77600314743 0.2058433310069 12.774462059878 0.2058433310069 12.774462059878 0.9785793082594 102.77147267349
8.615150000000000 0.9785791682467 102.77594209731 0.2058437180852 12.774401149415 0.2058437180852 12.774401149415 0.9785792256049 102.77141260612
8.615155000000000 0.9785790854334 102.77588102412 0.2058441055454 12.774340215801 0.2058441055454 12.774340215801 0.9785791428673 102.77135251708
8.615160000000001 0.9785790025362 102.77581992771 0.2058444933900 12.774279258893 0.2058444933900 12.774279258893 0.9785790600459 102.77129240622
8.615165000000001 0.9785789195551 102.77575880807 0.2058448816190 12.774218278686 0.2058448816190 12.774218278686 0.9785789771408 102.77123227354
8.615170000000001 0.9785788364898 102.77569766514 0.2058452702336 12.774157275101 0.2058452702336 12.774157275101 0.9785788941516 102.77117211898
8.615175000000001 0.9785787533401 102.77563649885 0.2058456592349 12.774096248088 0.2058456592349 12.774096248088 0.9785788110783 102.77111194248
8.615180000000001 0.9785786701060 102.77557530919 0.2058460486228 12.774035197622 0.2058460486228 12.774035197622 0.9785787279206 102.77105174403
8.615185000000000 0.9785785867872 102.77551409609 0.2058464383989 12.773974123642 0.2058464383989 12.773974123642 0.9785786446785 102.77099152356
8.615190000000000 0.9785785033836 102.77545285952 0.2058468285634 12.773913026108 0.2058468285634 12.773913026108 0.9785785613517 102.77093128104
8.615195000000000 0.9785784198949 102.77539159940 0.2058472191176 12.773851904954 0.2058472191176 12.773851904954 0.9785784779400 102.77087101641
8.615200000000000 0.9785783363208 102.77533031568 0.2058476100627 12.773790760103 0.2058476100627 12.773790760103 0.9785783944431 102.77081072959
8.615205000000001 0.9785782526614 102.77526900832 0.2058480013989 12.773729591539 0.2058480013989 12.773729591539 0.9785783108611 102.77075042058
8.615210000000001 0.9785781689164 102.77520767726 0.2058483931273 12.773668399203 0.2058483931273 12.773668399203 0.9785782271935 102.77069008931
8.615215000000001 0.9785780850856 102.77514632249 0.2058487852482 12.773607183062 0.2058487852482 12.773607183062 0.9785781434405 102.77062973576
8.615220000000001 0.9785780011687 102.77508494390 0.2058491777636 12.773545943007 0.2058491777636 12.773545943007 0.9785780596014 102.77056935983
8.615225000000001 0.9785779171658 102.77502354147 0.2058495706733 12.773484679049 0.2058495706733 12.773484679049 0.9785779756765 102.77050896152
8.615230000000000 0.9785778330764 102.77496211514 0.2058499639787 12.773423391101 0.2058499639787 12.773423391101 0.9785778916654 102.77044854075
8.615235000000000 0.9785777489006 102.77490066490 0.2058503576799 12.773362079146 0.2058503576799 12.773362079146 0.9785778075679 102.77038809752
8.615240000000000 0.9785776646379 102.77483919064 0.2058507517787 12.773300743089 0.2058507517787 12.773300743089 0.9785777233839 102.77032763172
8.615245000000000 0.9785775802883 102.77477769232 0.2058511462756 12.773239382883 0.2058511462756 12.773239382883 0.9785776391130 102.77026714333
8.615250000000001 0.9785774958516 102.77471616990 0.2058515411716 12.773177998487 0.2058515411716 12.773177998487 0.9785775547552 102.77020663229
8.615255000000001 0.9785774113276 102.77465462332 0.2058519364674 12.773116589846 0.2058519364674 12.773116589846 0.9785774703103 102.77014609856
8.615260000000001 0.9785773267161 102.77459305255 0.2058523321636 12.773055156920 0.2058523321636 12.773055156920 0.9785773857781 102.77008554212
8.615265000000001 0.9785772420170 102.77453145753 0.2058527282612 12.772993699656 0.2058527282612 12.772993699656 0.9785773011584 102.77002496289
8.615270000000001 0.9785771572299 102.77446983818 0.2058531247615 12.772932217968 0.2058531247615 12.772932217968 0.9785772164509 102.76996436080
8.615275000000000 0.9785770723548 102.77440819448 0.2058535216648 12.772870711839 0.2058535216648 12.772870711839 0.9785771316556 102.76990373585
8.615280000000000 0.9785769873914 102.77434652636 0.2058539189722 12.772809181198 0.2058539189722 12.772809181198 0.9785770467722 102.76984308795
8.615285000000000 0.9785769023395 102.77428483375 0.2058543166852 12.772747625971 0.2058543166852 12.772747625971 0.9785769618005 102.76978241705
8.615290000000000 0.9785768171990 102.77422311665 0.2058547148034 12.772686046159 0.2058547148034 12.772686046159 0.9785768767403 102.76972172315
8.615295000000000 0.9785767319696 102.77416137496 0.2058551133287 12.772624441657 0.2058551133287 12.772624441657 0.9785767915915 102.76966100613
8.615300000000001 0.9785766466512 102.77409960865 0.2058555122616 12.772562812439 0.2058555122616 12.772562812439 0.9785767063538 102.76960026600
8.615305000000001 0.9785765612435 102.77403781765 0.2058559116029 12.772501158440 0.2058559116029 12.772501158440 0.9785766210270 102.76953950268
8.615310000000001 0.9785764757464 102.77397600192 0.2058563113538 12.772439479598 0.2058563113538 12.772439479598 0.9785765356109 102.76947871612
8.615315000000001 0.9785763901596 102.77391416140 0.2058567115148 12.772377775878 0.2058567115148 12.772377775878 0.9785764501055 102.76941790628
8.615320000000001 0.9785763044830 102.77385229602 0.2058571120874 12.772316047193 0.2058571120874 12.772316047193 0.9785763645103 102.76935707309
8.615325000000000 0.9785762187164 102.77379040578 0.2058575130716 12.772254293543 0.2058575130716 12.772254293543 0.9785762788254 102.76929621654
8.615330000000000 0.9785761328596 102.77372849057 0.2058579144689 12.772192514829 0.2058579144689 12.772192514829 0.9785761930503 102.76923533654
8.615335000000000 0.9785760469122 102.77366655033 0.2058583162806 12.772130710979 0.2058583162806 12.772130710979 0.9785761071850 102.76917443302
8.615340000000000 0.9785759608743 102.77360458505 0.2058587185067 12.772068881983 0.2058587185067 12.772068881983 0.9785760212293 102.76911350599
8.615345000000001 0.9785758747455 102.77354259464 0.2058591211488 12.772007027745 0.2058591211488 12.772007027745 0.9785759351828 102.76905255535
8.615350000000001 0.9785757885258 102.77348057910 0.2058595242069 12.771945148278 0.2058595242069 12.771945148278 0.9785758490457 102.76899158110
8.615355000000001 0.9785757022147 102.77341853827 0.2058599276834 12.771883243426 0.2058599276834 12.771883243426 0.9785757628173 102.76893058310
8.615360000000001 0.9785756158122 102.77335647220 0.2058603315780 12.771821313206 0.2058603315780 12.771821313206 0.9785756764978 102.76886956138
8.615365000000001 0.9785755293181 102.77329438078 0.2058607358918 12.771759357545 0.2058607358918 12.771759357545 0.9785755900868 102.76880851586
8.615370000000000 0.9785754427321 102.77323226397 0.2058611406262 12.771697376373 0.2058611406262 12.771697376373 0.9785755035842 102.76874744648
8.615375000000000 0.9785753560540 102.77317012170 0.2058615457819 12.771635369628 0.2058615457819 12.771635369628 0.9785754169896 102.76868635319
8.615380000000000 0.9785752692838 102.77310795396 0.2058619513592 12.771573337305 0.2058619513592 12.771573337305 0.9785753303031 102.76862523597
8.615385000000000 0.9785751824211 102.77304576065 0.2058623573596 12.771511279303 0.2058623573596 12.771511279303 0.9785752435243 102.76856409474
8.615390000000000 0.9785750954657 102.77298354171 0.2058627637843 12.771449195564 0.2058627637843 12.771449195564 0.9785751566530 102.76850292943
8.615395000000001 0.9785750084174 102.77292129708 0.2058631706343 12.771387086009 0.2058631706343 12.771387086009 0.9785750696889 102.76844173998
8.615400000000001 0.9785749212760 102.77285902675 0.2058635779097 12.771324950636 0.2058635779097 12.771324950636 0.9785749826320 102.76838052639
8.615405000000001 0.9785748340413 102.77279673062 0.2058639856121 12.771262789354 0.2058639856121 12.771262789354 0.9785748954820 102.76831928857
8.615410000000001 0.9785747467133 102.77273440869 0.2058643937415 12.771200602157 0.2058643937415 12.771200602157 0.9785748082388 102.76825802651
8.615415000000000 0.9785746592913 102.77267206079 0.2058648023008 12.771138388868 0.2058648023008 12.771138388868 0.9785747209019 102.76819674006
8.615420000000000 0.9785745717755 102.77260968696 0.2058652112891 12.771076149535 0.2058652112891 12.771076149535 0.9785746334713 102.76813542926
8.615425000000000 0.9785744841656 102.77254728713 0.2058656207080 12.771013884074 0.2058656207080 12.771013884074 0.9785745459469 102.76807409402
8.615430000000000 0.9785743964613 102.77248486120 0.2058660305588 12.770951592398 0.2058660305588 12.770951592398 0.9785744583282 102.76801273428
8.615435000000000 0.9785743086625 102.77242240915 0.2058664408420 12.770889274474 0.2058664408420 12.770889274474 0.9785743706152 102.76795134999
8.615440000000001 0.9785742207689 102.77235993093 0.2058668515583 12.770826930269 0.2058668515583 12.770826930269 0.9785742828077 102.76788994112
8.615445000000001 0.9785741327804 102.77229742646 0.2058672627092 12.770764559673 0.2058672627092 12.770764559673 0.9785741949054 102.76782850759
8.615450000000001 0.9785740446966 102.77223489566 0.2058676742958 12.770702162638 0.2058676742958 12.770702162638 0.9785741069080 102.76776704933
8.615455000000001 0.9785739565175 102.77217233852 0.2058680863184 12.770639739132 0.2058680863184 12.770639739132 0.9785740188155 102.76770556634
8.615460000000001 0.9785738682427 102.77210975496 0.2058684987784 12.770577289074 0.2058684987784 12.770577289074 0.9785739306276 102.76764405851
8.615465000000000 0.9785737798721 102.77204714490 0.2058689116768 12.770514812396 0.2058689116768 12.770514812396 0.9785738423440 102.76758252580
8.615470000000000 0.9785736914053 102.77198450831 0.2058693250146 12.770452309048 0.2058693250146 12.770452309048 0.9785737539645 102.76752096817
8.615475000000000 0.9785736028424 102.77192184513 0.2058697387923 12.770389778986 0.2058697387923 12.770389778986 0.9785736654891 102.76745938556
8.615480000000000 0.9785735141830 102.77185915529 0.2058701530114 12.770327222131 0.2058701530114 12.770327222131 0.9785735769173 102.76739777790
8.615485000000001 0.9785734254268 102.77179643872 0.2058705676729 12.770264638421 0.2058705676729 12.770264638421 0.9785734882490 102.76733614514
8.615490000000001 0.9785733365737 102.77173369537 0.2058709827777 12.770202027788 0.2058709827777 12.770202027788 0.9785733994839 102.76727448722
8.615495000000001 0.9785732476235 102.77167092519 0.2058713983266 12.770139390193 0.2058713983266 12.770139390193 0.9785733106219 102.76721280410
8.615500000000001 0.9785731585760 102.77160812813 0.2058718143203 12.770076725593 0.2058718143203 12.770076725593 0.9785732216629 102.76715109573
8.615505000000001 0.9785730694307 102.77154530409 0.2058722307607 12.770014033861 0.2058722307607 12.770014033861 0.9785731326063 102.76708936201
8.615510000000000 0.9785729801877 102.77148245303 0.2058726476482 12.769951314980 0.2058726476482 12.769951314980 0.9785730434521 102.76702760291
8.615515000000000 0.9785728908467 102.77141957491 0.2058730649837 12.769888568900 0.2058730649837 12.769888568900 0.9785729542002 102.76696581840
8.615520000000000 0.9785728014075 102.77135666966 0.2058734827683 12.769825795550 0.2058734827683 12.769825795550 0.9785728648503 102.76690400840
8.615525000000000 0.9785727118697 102.77129373717 0.2058739010036 12.769762994830 0.2058739010036 12.769762994830 0.9785727754020 102.76684217281
8.615530000000000 0.9785726222332 102.77123077744 0.2058743196900 12.769700166708 0.2058743196900 12.769700166708 0.9785726858552 102.76678031163
8.615535000000001 0.9785725324979 102.77116779039 0.2058747388284 12.769637311140 0.2058747388284 12.769637311140 0.9785725962098 102.76671842480
8.615540000000001 0.9785724426634 102.77110477595 0.2058751584202 12.769574428033 0.2058751584202 12.769574428033 0.9785725064654 102.76665651223
8.615545000000001 0.9785723527294 102.77104173406 0.2058755784663 12.769511517333 0.2058755784663 12.769511517333 0.9785724166218 102.76659457388
8.615550000000001 0.9785722626959 102.77097866468 0.2058759989676 12.769448578990 0.2058759989676 12.769448578990 0.9785723266788 102.76653260970
8.615555000000001 0.9785721725625 102.77091556770 0.2058764199256 12.769385612905 0.2058764199256 12.769385612905 0.9785722366361 102.76647061960
8.615560000000000 0.9785720823291 102.77085244312 0.2058768413405 12.769322619073 0.2058768413405 12.769322619073 0.9785721464937 102.76640860357
8.615565000000000 0.9785719919954 102.77078929084 0.2058772632139 12.769259597379 0.2058772632139 12.769259597379 0.9785720562512 102.76634656152
8.615570000000000 0.9785719015611 102.77072611079 0.2058776855470 12.769196547774 0.2058776855470 12.769196547774 0.9785719659083 102.76628449339
8.615575000000000 0.9785718110262 102.77066290292 0.2058781083404 12.769133470205 0.2058781083404 12.769133470205 0.9785718754650 102.76622239912
8.615580000000001 0.9785717203902 102.77059966720 0.2058785315949 12.769070364620 0.2058785315949 12.769070364620 0.9785717849209 102.76616027869
8.615585000000001 0.9785716296531 102.77053640351 0.2058789553123 12.769007230924 0.2058789553123 12.769007230924 0.9785716942758 102.76609813199
8.615590000000001 0.9785715388144 102.77047311180 0.2058793794934 12.768944069052 0.2058793794934 12.768944069052 0.9785716035294 102.76603595898
8.615595000000001 0.9785714478741 102.77040979203 0.2058798041392 12.768880878949 0.2058798041392 12.768880878949 0.9785715126815 102.76597375959
8.615600000000001 0.9785713568319 102.77034644412 0.2058802292505 12.768817660560 0.2058802292505 12.768817660560 0.9785714217320 102.76591153378
8.615605000000000 0.9785712656875 102.77028306800 0.2058806548288 12.768754413798 0.2058806548288 12.768754413798 0.9785713306805 102.76584928147
8.615610000000000 0.9785711744407 102.77021966364 0.2058810808747 12.768691138637 0.2058810808747 12.768691138637 0.9785712395269 102.76578700262
8.615615000000000 0.9785710830913 102.77015623092 0.2058815073899 12.768627834962 0.2058815073899 12.768627834962 0.9785711482708 102.76572469714
8.615620000000000 0.9785709916391 102.77009276984 0.2058819343745 12.768564502757 0.2058819343745 12.768564502757 0.9785710569122 102.76566236503
8.615625000000001 0.9785709000837 102.77002928028 0.2058823618304 12.768501141912 0.2058823618304 12.768501141912 0.9785709654506 102.76560000616
8.615630000000001 0.9785708084251 102.76996576221 0.2058827897584 12.768437752393 0.2058827897584 12.768437752393 0.9785708738860 102.76553762050
8.615635000000001 0.9785707166628 102.76990221553 0.2058832181598 12.768374334102 0.2058832181598 12.768374334103 0.9785707822179 102.76547520798
8.615640000000001 0.9785706247967 102.76983864022 0.2058836470352 12.768310887002 0.2058836470352 12.768310887002 0.9785706904463 102.76541276855
8.615645000000001 0.9785705328265 102.76977503615 0.2058840763866 12.768247410977 0.2058840763866 12.768247410977 0.9785705985708 102.76535030211
8.615650000000000 0.9785704407521 102.76971140335 0.2058845062135 12.768183906057 0.2058845062135 12.768183906057 0.9785705065913 102.76528780869
8.615655000000000 0.9785703485732 102.76964774169 0.2058849365181 12.768120372102 0.2058849365181 12.768120372102 0.9785704145075 102.76522528815
8.615660000000000 0.9785702562893 102.76958405106 0.2058853673021 12.768056809012 0.2058853673021 12.768056809012 0.9785703223190 102.76516274041
8.615665000000000 0.9785701639006 102.76952033149 0.2058857985652 12.767993216810 0.2058857985652 12.767993216810 0.9785702300259 102.76510016548
8.615670000000000 0.9785700714066 102.76945658287 0.2058862303092 12.767929595381 0.2058862303092 12.767929595381 0.9785701376277 102.76503756326
8.615675000000001 0.9785699788070 102.76939280514 0.2058866625350 12.767865944665 0.2058866625350 12.767865944665 0.9785700451242 102.76497493369
8.615680000000001 0.9785698861016 102.76932899819 0.2058870952444 12.767802264556 0.2058870952444 12.767802264556 0.9785699525151 102.76491227668
8.615685000000001 0.9785697932903 102.76926516202 0.2058875284375 12.767738555036 0.2058875284375 12.767738555036 0.9785698598002 102.76484959222
8.615690000000001 0.9785697003727 102.76920129653 0.2058879621158 12.767674816036 0.2058879621158 12.767674816036 0.9785697669794 102.76478688022
8.615695000000001 0.9785696073486 102.76913740165 0.2058883962807 12.767611047447 0.2058883962807 12.767611047447 0.9785696740522 102.76472414061
8.615700000000000 0.9785695142177 102.76907347731 0.2058888309331 12.767547249229 0.2058888309331 12.767547249229 0.9785695810186 102.76466137332
8.615705000000000 0.9785694209799 102.76900952346 0.2058892660740 12.767483421304 0.2058892660740 12.767483421304 0.9785694878781 102.76459857832
8.615710000000000 0.9785693276347 102.76894553999 0.2058897017052 12.767419563594 0.2058897017052 12.767419563594 0.9785693946306 102.76453575550
8.615715000000000 0.9785692341821 102.76888152690 0.2058901378267 12.767355676062 0.2058901378267 12.767355676062 0.9785693012759 102.76447290484
8.615720000000001 0.9785691406217 102.76881748408 0.2058905744402 12.767291758614 0.2058905744402 12.767291758614 0.9785692078137 102.76441002626
8.615725000000001 0.9785690469533 102.76875341143 0.2058910115474 12.767227811157 0.2058910115474 12.767227811157 0.9785691142436 102.76434711967
8.615730000000001 0.9785689531767 102.76868930895 0.2058914491484 12.767163833678 0.2058914491484 12.767163833678 0.9785690205656 102.76428418506
8.615735000000001 0.9785688592914 102.76862517652 0.2058918872451 12.767099826048 0.2058918872451 12.767099826048 0.9785689267792 102.76422122230
8.615740000000001 0.9785687652976 102.76856101412 0.2058923258381 12.767035788260 0.2058923258381 12.767035788260 0.9785688328844 102.76415823139
8.615745000000000 0.9785686711946 102.76849682163 0.2058927649289 12.766971720192 0.2058927649289 12.766971720192 0.9785687388808 102.76409521223
8.615750000000000 0.9785685769824 102.76843259899 0.2058932045187 12.766907621783 0.2058932045187 12.766907621783 0.9785686447681 102.76403216474
8.615755000000000 0.9785684826605 102.76836834612 0.2058936446090 12.766843492936 0.2058936446090 12.766843492936 0.9785685505460 102.76396908885
8.615760000000000 0.9785683882289 102.76830406298 0.2058940852003 12.766779333628 0.2058940852003 12.766779333628 0.9785684562145 102.76390598453
8.615765000000000 0.9785682936872 102.76823974948 0.2058945262941 12.766715143758 0.2058945262941 12.766715143758 0.9785683617730 102.76384285169
8.615770000000001 0.9785681990353 102.76817540559 0.2058949678908 12.766650923305 0.2058949678908 12.766650923305 0.9785682672216 102.76377969031
8.615775000000001 0.9785681042726 102.76811103115 0.2058954099933 12.766586672095 0.2058954099933 12.766586672095 0.9785681725597 102.76371650022
8.615780000000001 0.9785680093991 102.76804662618 0.2058958526011 12.766522390142 0.2058958526011 12.766522390142 0.9785680777873 102.76365328146
8.615785000000001 0.9785679144146 102.76798219058 0.2058962957158 12.766458077367 0.2058962957158 12.766458077367 0.9785679829041 102.76359003393
8.615790000000001 0.9785678193188 102.76791772428 0.2058967393389 12.766393733671 0.2058967393389 12.766393733671 0.9785678879097 102.76352675755
8.615795000000000 0.9785677241111 102.76785322714 0.2058971834723 12.766329358941 0.2058971834723 12.766329358941 0.9785677928038 102.76346345221
8.615800000000000 0.9785676287916 102.76778869917 0.2058976281158 12.766264953174 0.2058976281158 12.766264953174 0.9785676975863 102.76340011791
8.615805000000000 0.9785675333600 102.76772414029 0.2058980732711 12.766200516280 0.2058980732711 12.766200516280 0.9785676022569 102.76333675458
8.615810000000000 0.9785674378160 102.76765955041 0.2058985189395 12.766136048179 0.2058985189395 12.766136048179 0.9785675068154 102.76327336212
8.615815000000001 0.9785673421593 102.76759492948 0.2058989651220 12.766071548799 0.2058989651220 12.766071548799 0.9785674112614 102.76320994049
8.615820000000001 0.9785672463895 102.76753027738 0.2058994118202 12.766007018045 0.2058994118202 12.766007018045 0.9785673155946 102.76314648959
8.615825000000001 0.9785671505065 102.76746559404 0.2058998590355 12.765942455842 0.2058998590355 12.765942455842 0.9785672198148 102.76308300934
8.615830000000001 0.9785670545099 102.76740087942 0.2059003067686 12.765877862131 0.2059003067686 12.765877862131 0.9785671239218 102.76301949971
8.615835000000001 0.9785669583997 102.76733613347 0.2059007550203 12.765813236877 0.2059007550203 12.765813236877 0.9785670279153 102.76295596065
8.615840000000000 0.9785668621754 102.76727135606 0.2059012037927 12.765748579933 0.2059012037927 12.765748579933 0.9785669317950 102.76289239204
8.615845000000000 0.9785667658367 102.76720654712 0.2059016530869 12.765683891251 0.2059016530869 12.765683891251 0.9785668355605 102.76282879381
8.615850000000000 0.9785666693835 102.76714170664 0.2059021029032 12.765619170789 0.2059021029032 12.765619170789 0.9785667392118 102.76276516595
8.615855000000000 0.9785665728153 102.76707683444 0.2059025532446 12.765554418387 0.2059025532446 12.765554418387 0.9785666427484 102.76270150830
8.615860000000001 0.9785664761320 102.76701193054 0.2059030041105 12.765489634060 0.2059030041105 12.765489634060 0.9785665461701 102.76263782088
8.615865000000001 0.9785663793332 102.76694699479 0.2059034555037 12.765424817654 0.2059034555037 12.765424817654 0.9785664494766 102.76257410353
8.615870000000001 0.9785662824188 102.76688202720 0.2059039074239 12.765359969180 0.2059039074239 12.765359969180 0.9785663526677 102.76251035627
8.615875000000001 0.9785661853885 102.76681702765 0.2059043598732 12.765295088511 0.2059043598732 12.765295088511 0.9785662557432 102.76244657899
8.615880000000001 0.9785660882418 102.76675199603 0.2059048128532 12.765230175545 0.2059048128532 12.765230175545 0.9785661587025 102.76238277159
8.615885000000000 0.9785659909785 102.76668693228 0.2059052663650 12.765165230211 0.2059052663650 12.765165230211 0.9785660615455 102.76231893401
8.615890000000000 0.9785658935986 102.76662183640 0.2059057204086 12.765100252512 0.2059057204086 12.765100252512 0.9785659642722 102.76225506624
8.615895000000000 0.9785657961014 102.76655670822 0.2059061749869 12.765035242266 0.2059061749869 12.765035242266 0.9785658668819 102.76219116813
8.615900000000000 0.9785656984868 102.76649154768 0.2059066301008 12.764970199433 0.2059066301008 12.764970199433 0.9785657693744 102.76212723963
8.615905000000000 0.9785656007547 102.76642635475 0.2059070857508 12.764905123961 0.2059070857508 12.764905123961 0.9785656717496 102.76206328070
8.615910000000001 0.9785655029045 102.76636112931 0.2059075419390 12.764840015736 0.2059075419390 12.764840015736 0.9785655740071 102.76199929123
8.615915000000001 0.9785654049361 102.76629587127 0.2059079986666 12.764774874673 0.2059079986666 12.764774874673 0.9785654761465 102.76193527115
8.615920000000001 0.9785653068491 102.76623058060 0.2059084559344 12.764709700736 0.2059084559344 12.764709700736 0.9785653781678 102.76187122040
8.615925000000001 0.9785652086434 102.76616525719 0.2059089137440 12.764644493810 0.2059089137440 12.764644493810 0.9785652800704 102.76180713891
8.615930000000001 0.9785651103185 102.76609990098 0.2059093720967 12.764579253827 0.2059093720967 12.764579253827 0.9785651818543 102.76174302660
8.615935000000000 0.9785650118744 102.76603451190 0.2059098309934 12.764513980725 0.2059098309934 12.764513980725 0.9785650835191 102.76167888342
8.615940000000000 0.9785649133104 102.76596908982 0.2059102904361 12.764448674375 0.2059102904361 12.764448674375 0.9785649850644 102.76161470924
8.615945000000000 0.9785648146264 102.76590363468 0.2059107504263 12.764383334710 0.2059107504263 12.764383334710 0.9785648864899 102.76155050400
8.615950000000000 0.9785647158223 102.76583814644 0.2059112109642 12.764317961687 0.2059112109642 12.764317961687 0.9785647877955 102.76148626768
8.615955000000001 0.9785646168976 102.76577262502 0.2059116720513 12.764252555226 0.2059116720513 12.764252555226 0.9785646889809 102.76142200019
8.615960000000001 0.9785645178522 102.76570707032 0.2059121336893 12.764187115237 0.2059121336893 12.764187115237 0.9785645900458 102.76135770143
8.615965000000001 0.9785644186853 102.76564148218 0.2059125958806 12.764121641538 0.2059125958806 12.764121641538 0.9785644909895 102.76129337127
8.615970000000001 0.9785643193972 102.76557586067 0.2059130586246 12.764056134196 0.2059130586246 12.764056134196 0.9785643918123 102.76122900975
8.615975000000001 0.9785642199873 102.76551020558 0.2059135219241 12.763990593032 0.2059135219241 12.763990593032 0.9785642925135 102.76116461670
8.615980000000000 0.9785641204554 102.76544451692 0.2059139857793 12.763925018021 0.2059139857793 12.763925018021 0.9785641930930 102.76110019210
8.615985000000000 0.9785640208011 102.76537879456 0.2059144501923 12.763859409051 0.2059144501923 12.763859409051 0.9785640935505 102.76103573586
8.615990000000000 0.9785639210241 102.76531303842 0.2059149151645 12.763793766016 0.2059149151645 12.763793766016 0.9785639938855 102.76097124788
8.615995000000000 0.9785638211243 102.76524724845 0.2059153806966 12.763728088886 0.2059153806966 12.763728088886 0.9785638940979 102.76090672813
8.616000000000000 0.9785637211012 102.76518142454 0.2059158467905 12.763662377549 0.2059158467905 12.763662377549 0.9785637941874 102.76084217649