! Sonnet Data File
! From: emgraph Version : 16.52
! From Project: transmon_brgOdd
! Data is De-embedded 
! Data File Written: 11/11/2017 22:28:47
!< HDATE 11/11/2017 18:22:48
!< MDATE 11/11/2017 18:22:48
!< PARAMS
!< Lj = 15.24
!< Gap = 6.0
!< Width = 10.0
!< Airgap = 6.0
!< Pwidth = 2000.0
!< Dist = 1800.0
!< END PARAMS
# GHZ S MA R 34.67000
8.72000000 0.997653 136.39 0.068453 46.392 0.068453 46.392 0.997653 136.39
!< P1 F=8.72 Eeff=(5.13609477 -5.6761e-5) Z0=(34.6490765 -9.5162e-5) R=0.0 C=0.0 
!< P2 F=8.72 Eeff=(5.13609477 -5.6761e-5) Z0=(34.6490765 -9.5162e-5) R=0.0 C=0.0 
8.72005000 0.997653 136.39 0.068454 46.392 0.068454 46.392 0.997653 136.39
8.72010000 0.997652 136.39 0.068455 46.392 0.068455 46.392 0.997652 136.39
8.72015000 0.997652 136.39 0.068455 46.391 0.068455 46.391 0.997652 136.39
8.72020000 0.997652 136.39 0.068456 46.391 0.068456 46.391 0.997652 136.39
8.72025000 0.997652 136.39 0.068457 46.391 0.068457 46.391 0.997652 136.39
8.72030000 0.997652 136.39 0.068457 46.391 0.068457 46.391 0.997652 136.39
8.72035000 0.997652 136.39 0.068458 46.390 0.068458 46.390 0.997652 136.39
8.72040000 0.997652 136.39 0.068459 46.390 0.068459 46.390 0.997652 136.39
8.72045000 0.997652 136.39 0.068459 46.390 0.068459 46.390 0.997652 136.39
8.72050000 0.997652 136.39 0.068460 46.390 0.068460 46.390 0.997652 136.39
8.72055000 0.997652 136.39 0.068461 46.389 0.068461 46.389 0.997652 136.39
8.72060000 0.997652 136.39 0.068462 46.389 0.068462 46.389 0.997652 136.39
8.72065000 0.997652 136.39 0.068462 46.389 0.068462 46.389 0.997652 136.39
8.72070000 0.997652 136.39 0.068463 46.388 0.068463 46.388 0.997652 136.39
8.72075000 0.997652 136.39 0.068464 46.388 0.068464 46.388 0.997652 136.39
8.72080000 0.997652 136.39 0.068464 46.388 0.068464 46.388 0.997652 136.38
8.72085000 0.997652 136.39 0.068465 46.388 0.068465 46.388 0.997652 136.38
8.72090000 0.997652 136.39 0.068466 46.387 0.068466 46.387 0.997652 136.38
8.72095000 0.997652 136.39 0.068467 46.387 0.068467 46.387 0.997652 136.38
8.72100000 0.997652 136.39 0.068467 46.387 0.068467 46.387 0.997652 136.38
8.72105000 0.997652 136.39 0.068468 46.387 0.068468 46.387 0.997652 136.38
8.72110000 0.997651 136.39 0.068469 46.386 0.068469 46.386 0.997651 136.38
8.72115000 0.997651 136.39 0.068469 46.386 0.068469 46.386 0.997651 136.38
8.72120000 0.997651 136.39 0.068470 46.386 0.068470 46.386 0.997651 136.38
8.72125000 0.997651 136.39 0.068471 46.385 0.068471 46.385 0.997651 136.38
8.72130000 0.997651 136.39 0.068472 46.385 0.068472 46.385 0.997651 136.38
8.72135000 0.997651 136.39 0.068472 46.385 0.068472 46.385 0.997651 136.38
8.72140000 0.997651 136.39 0.068473 46.385 0.068473 46.385 0.997651 136.38
8.72145000 0.997651 136.39 0.068474 46.384 0.068474 46.384 0.997651 136.38
8.72150000 0.997651 136.39 0.068474 46.384 0.068474 46.384 0.997651 136.38
8.72155000 0.997651 136.38 0.068475 46.384 0.068475 46.384 0.997651 136.38
8.72160000 0.997651 136.38 0.068476 46.384 0.068476 46.384 0.997651 136.38
8.72165000 0.997651 136.38 0.068477 46.383 0.068477 46.383 0.997651 136.38
8.72170000 0.997651 136.38 0.068477 46.383 0.068477 46.383 0.997651 136.38
8.72175000 0.997651 136.38 0.068478 46.383 0.068478 46.383 0.997651 136.38
8.72180000 0.997651 136.38 0.068479 46.383 0.068479 46.383 0.997651 136.38
8.72185000 0.997651 136.38 0.068479 46.382 0.068479 46.382 0.997651 136.38
8.72190000 0.997651 136.38 0.068480 46.382 0.068480 46.382 0.997651 136.38
8.72195000 0.997651 136.38 0.068481 46.382 0.068481 46.382 0.997651 136.38
8.72200000 0.997651 136.38 0.068482 46.381 0.068482 46.381 0.997651 136.38
8.72205000 0.997651 136.38 0.068482 46.381 0.068482 46.381 0.997651 136.38
8.72210000 0.997651 136.38 0.068483 46.381 0.068483 46.381 0.997651 136.38
8.72215000 0.997650 136.38 0.068484 46.381 0.068484 46.381 0.997650 136.38
8.72220000 0.997650 136.38 0.068484 46.380 0.068484 46.380 0.997650 136.38
8.72225000 0.997650 136.38 0.068485 46.380 0.068485 46.380 0.997650 136.38
8.72230000 0.997650 136.38 0.068486 46.380 0.068486 46.380 0.997650 136.38
8.72235000 0.997650 136.38 0.068487 46.380 0.068487 46.380 0.997650 136.38
8.72240000 0.997650 136.38 0.068487 46.379 0.068487 46.379 0.997650 136.38
8.72245000 0.997650 136.38 0.068488 46.379 0.068488 46.379 0.997650 136.38
8.72250000 0.997650 136.38 0.068489 46.379 0.068489 46.379 0.997650 136.38
8.72255000 0.997650 136.38 0.068489 46.378 0.068489 46.378 0.997650 136.38
8.72260000 0.997650 136.38 0.068490 46.378 0.068490 46.378 0.997650 136.38
8.72265000 0.997650 136.38 0.068491 46.378 0.068491 46.378 0.997650 136.37
8.72270000 0.997650 136.38 0.068492 46.378 0.068492 46.378 0.997650 136.37
8.72275000 0.997650 136.38 0.068492 46.377 0.068492 46.377 0.997650 136.37
8.72280000 0.997650 136.38 0.068493 46.377 0.068493 46.377 0.997650 136.37
8.72285000 0.997650 136.38 0.068494 46.377 0.068494 46.377 0.997650 136.37
8.72290000 0.997650 136.38 0.068494 46.377 0.068494 46.377 0.997650 136.37
8.72295000 0.997650 136.38 0.068495 46.376 0.068495 46.376 0.997650 136.37
8.72300000 0.997650 136.38 0.068496 46.376 0.068496 46.376 0.997650 136.37
8.72305000 0.997650 136.38 0.068497 46.376 0.068497 46.376 0.997650 136.37
8.72310000 0.997650 136.38 0.068497 46.376 0.068497 46.376 0.997650 136.37
8.72315000 0.997649 136.38 0.068498 46.375 0.068498 46.375 0.997649 136.37
8.72320000 0.997649 136.38 0.068499 46.375 0.068499 46.375 0.997649 136.37
8.72325000 0.997649 136.38 0.068500 46.375 0.068500 46.375 0.997649 136.37
8.72330000 0.997649 136.38 0.068500 46.374 0.068500 46.374 0.997649 136.37
8.72335000 0.997649 136.38 0.068501 46.374 0.068501 46.374 0.997649 136.37
8.72340000 0.997649 136.37 0.068502 46.374 0.068502 46.374 0.997649 136.37
8.72345000 0.997649 136.37 0.068502 46.374 0.068502 46.374 0.997649 136.37
8.72350000 0.997649 136.37 0.068503 46.373 0.068503 46.373 0.997649 136.37
8.72355000 0.997649 136.37 0.068504 46.373 0.068504 46.373 0.997649 136.37
8.72360000 0.997649 136.37 0.068505 46.373 0.068505 46.373 0.997649 136.37
8.72365000 0.997649 136.37 0.068505 46.373 0.068505 46.373 0.997649 136.37
8.72370000 0.997649 136.37 0.068506 46.372 0.068506 46.372 0.997649 136.37
8.72375000 0.997649 136.37 0.068507 46.372 0.068507 46.372 0.997649 136.37
8.72380000 0.997649 136.37 0.068508 46.372 0.068508 46.372 0.997649 136.37
8.72385000 0.997649 136.37 0.068508 46.371 0.068508 46.371 0.997649 136.37
8.72390000 0.997649 136.37 0.068509 46.371 0.068509 46.371 0.997649 136.37
8.72395000 0.997649 136.37 0.068510 46.371 0.068510 46.371 0.997649 136.37
8.72400000 0.997649 136.37 0.068510 46.371 0.068510 46.371 0.997649 136.37
8.72405000 0.997649 136.37 0.068511 46.370 0.068511 46.370 0.997649 136.37
8.72410000 0.997649 136.37 0.068512 46.370 0.068512 46.370 0.997649 136.37
8.72415000 0.997648 136.37 0.068513 46.370 0.068513 46.370 0.997648 136.37
8.72420000 0.997648 136.37 0.068513 46.370 0.068513 46.370 0.997648 136.37
8.72425000 0.997648 136.37 0.068514 46.369 0.068514 46.369 0.997648 136.37
8.72430000 0.997648 136.37 0.068515 46.369 0.068515 46.369 0.997648 136.37
8.72435000 0.997648 136.37 0.068516 46.369 0.068516 46.369 0.997648 136.37
8.72440000 0.997648 136.37 0.068516 46.369 0.068516 46.369 0.997648 136.37
8.72445000 0.997648 136.37 0.068517 46.368 0.068517 46.368 0.997648 136.37
8.72450000 0.997648 136.37 0.068518 46.368 0.068518 46.368 0.997648 136.36
8.72455000 0.997648 136.37 0.068518 46.368 0.068518 46.368 0.997648 136.36
8.72460000 0.997648 136.37 0.068519 46.367 0.068519 46.367 0.997648 136.36
8.72465000 0.997648 136.37 0.068520 46.367 0.068520 46.367 0.997648 136.36
8.72470000 0.997648 136.37 0.068521 46.367 0.068521 46.367 0.997648 136.36
8.72475000 0.997648 136.37 0.068521 46.367 0.068521 46.367 0.997648 136.36
8.72480000 0.997648 136.37 0.068522 46.366 0.068522 46.366 0.997648 136.36
8.72485000 0.997648 136.37 0.068523 46.366 0.068523 46.366 0.997648 136.36
8.72490000 0.997648 136.37 0.068524 46.366 0.068524 46.366 0.997648 136.36
8.72495000 0.997648 136.37 0.068524 46.366 0.068524 46.366 0.997648 136.36
8.72500000 0.997648 136.37 0.068525 46.365 0.068525 46.365 0.997648 136.36
8.72505000 0.997648 136.37 0.068526 46.365 0.068526 46.365 0.997648 136.36
8.72510000 0.997648 136.37 0.068527 46.365 0.068527 46.365 0.997648 136.36
8.72515000 0.997647 136.37 0.068527 46.364 0.068527 46.364 0.997647 136.36
8.72520000 0.997647 136.37 0.068528 46.364 0.068528 46.364 0.997647 136.36
8.72525000 0.997647 136.36 0.068529 46.364 0.068529 46.364 0.997647 136.36
8.72530000 0.997647 136.36 0.068529 46.364 0.068529 46.364 0.997647 136.36
8.72535000 0.997647 136.36 0.068530 46.363 0.068530 46.363 0.997647 136.36
8.72540000 0.997647 136.36 0.068531 46.363 0.068531 46.363 0.997647 136.36
8.72545000 0.997647 136.36 0.068532 46.363 0.068532 46.363 0.997647 136.36
8.72550000 0.997647 136.36 0.068532 46.363 0.068532 46.363 0.997647 136.36
8.72555000 0.997647 136.36 0.068533 46.362 0.068533 46.362 0.997647 136.36
8.72560000 0.997647 136.36 0.068534 46.362 0.068534 46.362 0.997647 136.36
8.72565000 0.997647 136.36 0.068535 46.362 0.068535 46.362 0.997647 136.36
8.72570000 0.997647 136.36 0.068535 46.362 0.068535 46.362 0.997647 136.36
8.72575000 0.997647 136.36 0.068536 46.361 0.068536 46.361 0.997647 136.36
8.72580000 0.997647 136.36 0.068537 46.361 0.068537 46.361 0.997647 136.36
8.72585000 0.997647 136.36 0.068538 46.361 0.068538 46.361 0.997647 136.36
8.72590000 0.997647 136.36 0.068538 46.360 0.068538 46.360 0.997647 136.36
8.72595000 0.997647 136.36 0.068539 46.360 0.068539 46.360 0.997647 136.36
8.72600000 0.997647 136.36 0.068540 46.360 0.068540 46.360 0.997647 136.36
8.72605000 0.997647 136.36 0.068541 46.360 0.068541 46.360 0.997647 136.36
8.72610000 0.997646 136.36 0.068541 46.359 0.068541 46.359 0.997646 136.36
8.72615000 0.997646 136.36 0.068542 46.359 0.068542 46.359 0.997646 136.36
8.72620000 0.997646 136.36 0.068543 46.359 0.068543 46.359 0.997646 136.36
8.72625000 0.997646 136.36 0.068544 46.359 0.068544 46.359 0.997646 136.36
8.72630000 0.997646 136.36 0.068544 46.358 0.068544 46.358 0.997646 136.36
8.72635000 0.997646 136.36 0.068545 46.358 0.068545 46.358 0.997646 136.35
8.72640000 0.997646 136.36 0.068546 46.358 0.068546 46.358 0.997646 136.35
8.72645000 0.997646 136.36 0.068546 46.357 0.068546 46.357 0.997646 136.35
8.72650000 0.997646 136.36 0.068547 46.357 0.068547 46.357 0.997646 136.35
8.72655000 0.997646 136.36 0.068548 46.357 0.068548 46.357 0.997646 136.35
8.72660000 0.997646 136.36 0.068549 46.357 0.068549 46.357 0.997646 136.35
8.72665000 0.997646 136.36 0.068549 46.356 0.068549 46.356 0.997646 136.35
8.72670000 0.997646 136.36 0.068550 46.356 0.068550 46.356 0.997646 136.35
8.72675000 0.997646 136.36 0.068551 46.356 0.068551 46.356 0.997646 136.35
8.72680000 0.997646 136.36 0.068552 46.356 0.068552 46.356 0.997646 136.35
8.72685000 0.997646 136.36 0.068552 46.355 0.068552 46.355 0.997646 136.35
8.72690000 0.997646 136.36 0.068553 46.355 0.068553 46.355 0.997646 136.35
8.72695000 0.997646 136.36 0.068554 46.355 0.068554 46.355 0.997646 136.35
8.72700000 0.997646 136.36 0.068555 46.354 0.068555 46.354 0.997646 136.35
8.72705000 0.997646 136.36 0.068555 46.354 0.068555 46.354 0.997646 136.35
8.72710000 0.997645 136.35 0.068556 46.354 0.068556 46.354 0.997645 136.35
8.72715000 0.997645 136.35 0.068557 46.354 0.068557 46.354 0.997645 136.35
8.72720000 0.997645 136.35 0.068558 46.353 0.068558 46.353 0.997645 136.35
8.72725000 0.997645 136.35 0.068558 46.353 0.068558 46.353 0.997645 136.35
8.72730000 0.997645 136.35 0.068559 46.353 0.068559 46.353 0.997645 136.35
8.72735000 0.997645 136.35 0.068560 46.353 0.068560 46.353 0.997645 136.35
8.72740000 0.997645 136.35 0.068561 46.352 0.068561 46.352 0.997645 136.35
8.72745000 0.997645 136.35 0.068561 46.352 0.068561 46.352 0.997645 136.35
8.72750000 0.997645 136.35 0.068562 46.352 0.068562 46.352 0.997645 136.35
8.72755000 0.997645 136.35 0.068563 46.352 0.068563 46.352 0.997645 136.35
8.72760000 0.997645 136.35 0.068564 46.351 0.068564 46.351 0.997645 136.35
8.72765000 0.997645 136.35 0.068564 46.351 0.068564 46.351 0.997645 136.35
8.72770000 0.997645 136.35 0.068565 46.351 0.068565 46.351 0.997645 136.35
8.72775000 0.997645 136.35 0.068566 46.350 0.068566 46.350 0.997645 136.35
8.72780000 0.997645 136.35 0.068567 46.350 0.068567 46.350 0.997645 136.35
8.72785000 0.997645 136.35 0.068567 46.350 0.068567 46.350 0.997645 136.35
8.72790000 0.997645 136.35 0.068568 46.350 0.068568 46.350 0.997645 136.35
8.72795000 0.997645 136.35 0.068569 46.349 0.068569 46.349 0.997645 136.35
8.72800000 0.997645 136.35 0.068570 46.349 0.068570 46.349 0.997645 136.35
8.72805000 0.997644 136.35 0.068570 46.349 0.068570 46.349 0.997644 136.35
8.72810000 0.997644 136.35 0.068571 46.349 0.068571 46.349 0.997644 136.35
8.72815000 0.997644 136.35 0.068572 46.348 0.068572 46.348 0.997644 136.35
8.72820000 0.997644 136.35 0.068573 46.348 0.068573 46.348 0.997644 136.34
8.72825000 0.997644 136.35 0.068574 46.348 0.068574 46.348 0.997644 136.34
8.72830000 0.997644 136.35 0.068574 46.347 0.068574 46.347 0.997644 136.34
8.72835000 0.997644 136.35 0.068575 46.347 0.068575 46.347 0.997644 136.34
8.72840000 0.997644 136.35 0.068576 46.347 0.068576 46.347 0.997644 136.34
8.72845000 0.997644 136.35 0.068577 46.347 0.068577 46.347 0.997644 136.34
8.72850000 0.997644 136.35 0.068577 46.346 0.068577 46.346 0.997644 136.34
8.72855000 0.997644 136.35 0.068578 46.346 0.068578 46.346 0.997644 136.34
8.72860000 0.997644 136.35 0.068579 46.346 0.068579 46.346 0.997644 136.34
8.72865000 0.997644 136.35 0.068580 46.346 0.068580 46.346 0.997644 136.34
8.72870000 0.997644 136.35 0.068580 46.345 0.068580 46.345 0.997644 136.34
8.72875000 0.997644 136.35 0.068581 46.345 0.068581 46.345 0.997644 136.34
8.72880000 0.997644 136.35 0.068582 46.345 0.068582 46.345 0.997644 136.34
8.72885000 0.997644 136.35 0.068583 46.344 0.068583 46.344 0.997644 136.34
8.72890000 0.997644 136.35 0.068583 46.344 0.068583 46.344 0.997644 136.34
8.72895000 0.997644 136.34 0.068584 46.344 0.068584 46.344 0.997644 136.34
8.72900000 0.997643 136.34 0.068585 46.344 0.068585 46.344 0.997643 136.34
8.72905000 0.997643 136.34 0.068586 46.343 0.068586 46.343 0.997643 136.34
8.72910000 0.997643 136.34 0.068586 46.343 0.068586 46.343 0.997643 136.34
8.72915000 0.997643 136.34 0.068587 46.343 0.068587 46.343 0.997643 136.34
8.72920000 0.997643 136.34 0.068588 46.343 0.068588 46.343 0.997643 136.34
8.72925000 0.997643 136.34 0.068589 46.342 0.068589 46.342 0.997643 136.34
8.72930000 0.997643 136.34 0.068589 46.342 0.068589 46.342 0.997643 136.34
8.72935000 0.997643 136.34 0.068590 46.342 0.068590 46.342 0.997643 136.34
8.72940000 0.997643 136.34 0.068591 46.341 0.068591 46.341 0.997643 136.34
8.72945000 0.997643 136.34 0.068592 46.341 0.068592 46.341 0.997643 136.34
8.72950000 0.997643 136.34 0.068593 46.341 0.068593 46.341 0.997643 136.34
8.72955000 0.997643 136.34 0.068593 46.341 0.068593 46.341 0.997643 136.34
8.72960000 0.997643 136.34 0.068594 46.340 0.068594 46.340 0.997643 136.34
8.72965000 0.997643 136.34 0.068595 46.340 0.068595 46.340 0.997643 136.34
8.72970000 0.997643 136.34 0.068596 46.340 0.068596 46.340 0.997643 136.34
8.72975000 0.997643 136.34 0.068596 46.340 0.068596 46.340 0.997643 136.34
8.72980000 0.997643 136.34 0.068597 46.339 0.068597 46.339 0.997643 136.34
8.72985000 0.997643 136.34 0.068598 46.339 0.068598 46.339 0.997643 136.34
8.72990000 0.997643 136.34 0.068599 46.339 0.068599 46.339 0.997643 136.34
8.72995000 0.997642 136.34 0.068599 46.338 0.068599 46.338 0.997642 136.34
8.73000000 0.997642 136.34 0.068600 46.338 0.068600 46.338 0.997642 136.34
8.73005000 0.997642 136.34 0.068601 46.338 0.068601 46.338 0.997642 136.33
8.73010000 0.997642 136.34 0.068602 46.338 0.068602 46.338 0.997642 136.33
8.73015000 0.997642 136.34 0.068603 46.337 0.068603 46.337 0.997642 136.33
8.73020000 0.997642 136.34 0.068603 46.337 0.068603 46.337 0.997642 136.33
8.73025000 0.997642 136.34 0.068604 46.337 0.068604 46.337 0.997642 136.33
8.73030000 0.997642 136.34 0.068605 46.337 0.068605 46.337 0.997642 136.33
8.73035000 0.997642 136.34 0.068606 46.336 0.068606 46.336 0.997642 136.33
8.73040000 0.997642 136.34 0.068606 46.336 0.068606 46.336 0.997642 136.33
8.73045000 0.997642 136.34 0.068607 46.336 0.068607 46.336 0.997642 136.33
8.73050000 0.997642 136.34 0.068608 46.336 0.068608 46.336 0.997642 136.33
8.73055000 0.997642 136.34 0.068609 46.335 0.068609 46.335 0.997642 136.33
8.73060000 0.997642 136.34 0.068609 46.335 0.068609 46.335 0.997642 136.33
8.73065000 0.997642 136.34 0.068610 46.335 0.068610 46.335 0.997642 136.33
8.73070000 0.997642 136.34 0.068611 46.334 0.068611 46.334 0.997642 136.33
8.73075000 0.997642 136.34 0.068612 46.334 0.068612 46.334 0.997642 136.33
8.73080000 0.997642 136.33 0.068613 46.334 0.068613 46.334 0.997642 136.33
8.73085000 0.997642 136.33 0.068613 46.334 0.068613 46.334 0.997642 136.33
8.73090000 0.997641 136.33 0.068614 46.333 0.068614 46.333 0.997641 136.33
8.73095000 0.997641 136.33 0.068615 46.333 0.068615 46.333 0.997641 136.33
8.73100000 0.997641 136.33 0.068616 46.333 0.068616 46.333 0.997641 136.33
8.73105000 0.997641 136.33 0.068616 46.333 0.068616 46.333 0.997641 136.33
8.73110000 0.997641 136.33 0.068617 46.332 0.068617 46.332 0.997641 136.33
8.73115000 0.997641 136.33 0.068618 46.332 0.068618 46.332 0.997641 136.33
8.73120000 0.997641 136.33 0.068619 46.332 0.068619 46.332 0.997641 136.33
8.73125000 0.997641 136.33 0.068620 46.331 0.068620 46.331 0.997641 136.33
8.73130000 0.997641 136.33 0.068620 46.331 0.068620 46.331 0.997641 136.33
8.73135000 0.997641 136.33 0.068621 46.331 0.068621 46.331 0.997641 136.33
8.73140000 0.997641 136.33 0.068622 46.331 0.068622 46.331 0.997641 136.33
8.73145000 0.997641 136.33 0.068623 46.330 0.068623 46.330 0.997641 136.33
8.73150000 0.997641 136.33 0.068624 46.330 0.068624 46.330 0.997641 136.33
8.73155000 0.997641 136.33 0.068624 46.330 0.068624 46.330 0.997641 136.33
8.73160000 0.997641 136.33 0.068625 46.330 0.068625 46.330 0.997641 136.33
8.73165000 0.997641 136.33 0.068626 46.329 0.068626 46.329 0.997641 136.33
8.73170000 0.997641 136.33 0.068627 46.329 0.068627 46.329 0.997641 136.33
8.73175000 0.997641 136.33 0.068627 46.329 0.068627 46.329 0.997641 136.33
8.73180000 0.997640 136.33 0.068628 46.328 0.068628 46.328 0.997640 136.33
8.73185000 0.997640 136.33 0.068629 46.328 0.068629 46.328 0.997640 136.33
8.73190000 0.997640 136.33 0.068630 46.328 0.068630 46.328 0.997640 136.32
8.73195000 0.997640 136.33 0.068631 46.328 0.068631 46.328 0.997640 136.32
8.73200000 0.997640 136.33 0.068631 46.327 0.068631 46.327 0.997640 136.32
8.73205000 0.997640 136.33 0.068632 46.327 0.068632 46.327 0.997640 136.32
8.73210000 0.997640 136.33 0.068633 46.327 0.068633 46.327 0.997640 136.32
8.73215000 0.997640 136.33 0.068634 46.327 0.068634 46.327 0.997640 136.32
8.73220000 0.997640 136.33 0.068635 46.326 0.068635 46.326 0.997640 136.32
8.73225000 0.997640 136.33 0.068635 46.326 0.068635 46.326 0.997640 136.32
8.73230000 0.997640 136.33 0.068636 46.326 0.068636 46.326 0.997640 136.32
8.73235000 0.997640 136.33 0.068637 46.325 0.068637 46.325 0.997640 136.32
8.73240000 0.997640 136.33 0.068638 46.325 0.068638 46.325 0.997640 136.32
8.73245000 0.997640 136.33 0.068638 46.325 0.068638 46.325 0.997640 136.32
8.73250000 0.997640 136.33 0.068639 46.325 0.068639 46.325 0.997640 136.32
8.73255000 0.997640 136.33 0.068640 46.324 0.068640 46.324 0.997640 136.32
8.73260000 0.997640 136.32 0.068641 46.324 0.068641 46.324 0.997640 136.32
8.73265000 0.997640 136.32 0.068642 46.324 0.068642 46.324 0.997640 136.32
8.73270000 0.997640 136.32 0.068642 46.324 0.068642 46.324 0.997640 136.32
8.73275000 0.997639 136.32 0.068643 46.323 0.068643 46.323 0.997639 136.32
8.73280000 0.997639 136.32 0.068644 46.323 0.068644 46.323 0.997639 136.32
8.73285000 0.997639 136.32 0.068645 46.323 0.068645 46.323 0.997639 136.32
8.73290000 0.997639 136.32 0.068646 46.322 0.068646 46.322 0.997639 136.32
8.73295000 0.997639 136.32 0.068646 46.322 0.068646 46.322 0.997639 136.32
8.73300000 0.997639 136.32 0.068647 46.322 0.068647 46.322 0.997639 136.32
8.73305000 0.997639 136.32 0.068648 46.322 0.068648 46.322 0.997639 136.32
8.73310000 0.997639 136.32 0.068649 46.321 0.068649 46.321 0.997639 136.32
8.73315000 0.997639 136.32 0.068650 46.321 0.068650 46.321 0.997639 136.32
8.73320000 0.997639 136.32 0.068650 46.321 0.068650 46.321 0.997639 136.32
8.73325000 0.997639 136.32 0.068651 46.321 0.068651 46.321 0.997639 136.32
8.73330000 0.997639 136.32 0.068652 46.320 0.068652 46.320 0.997639 136.32
8.73335000 0.997639 136.32 0.068653 46.320 0.068653 46.320 0.997639 136.32
8.73340000 0.997639 136.32 0.068654 46.320 0.068654 46.320 0.997639 136.32
8.73345000 0.997639 136.32 0.068654 46.319 0.068654 46.319 0.997639 136.32
8.73350000 0.997639 136.32 0.068655 46.319 0.068655 46.319 0.997639 136.32
8.73355000 0.997639 136.32 0.068656 46.319 0.068656 46.319 0.997639 136.32
8.73360000 0.997639 136.32 0.068657 46.319 0.068657 46.319 0.997639 136.32
8.73365000 0.997638 136.32 0.068658 46.318 0.068658 46.318 0.997638 136.32
8.73370000 0.997638 136.32 0.068658 46.318 0.068658 46.318 0.997638 136.31
8.73375000 0.997638 136.32 0.068659 46.318 0.068659 46.318 0.997638 136.31
8.73380000 0.997638 136.32 0.068660 46.317 0.068660 46.317 0.997638 136.31
8.73385000 0.997638 136.32 0.068661 46.317 0.068661 46.317 0.997638 136.31
8.73390000 0.997638 136.32 0.068662 46.317 0.068662 46.317 0.997638 136.31
8.73395000 0.997638 136.32 0.068662 46.317 0.068662 46.317 0.997638 136.31
8.73400000 0.997638 136.32 0.068663 46.316 0.068663 46.316 0.997638 136.31
8.73405000 0.997638 136.32 0.068664 46.316 0.068664 46.316 0.997638 136.31
8.73410000 0.997638 136.32 0.068665 46.316 0.068665 46.316 0.997638 136.31
8.73415000 0.997638 136.32 0.068666 46.316 0.068666 46.316 0.997638 136.31
8.73420000 0.997638 136.32 0.068666 46.315 0.068666 46.315 0.997638 136.31
8.73425000 0.997638 136.32 0.068667 46.315 0.068667 46.315 0.997638 136.31
8.73430000 0.997638 136.32 0.068668 46.315 0.068668 46.315 0.997638 136.31
8.73435000 0.997638 136.32 0.068669 46.314 0.068669 46.314 0.997638 136.31
8.73440000 0.997638 136.32 0.068670 46.314 0.068670 46.314 0.997638 136.31
8.73445000 0.997638 136.31 0.068670 46.314 0.068670 46.314 0.997638 136.31
8.73450000 0.997638 136.31 0.068671 46.314 0.068671 46.314 0.997638 136.31
8.73455000 0.997637 136.31 0.068672 46.313 0.068672 46.313 0.997637 136.31
8.73460000 0.997637 136.31 0.068673 46.313 0.068673 46.313 0.997637 136.31
8.73465000 0.997637 136.31 0.068674 46.313 0.068674 46.313 0.997637 136.31
8.73470000 0.997637 136.31 0.068674 46.313 0.068674 46.313 0.997637 136.31
8.73475000 0.997637 136.31 0.068675 46.312 0.068675 46.312 0.997637 136.31
8.73480000 0.997637 136.31 0.068676 46.312 0.068676 46.312 0.997637 136.31
8.73485000 0.997637 136.31 0.068677 46.312 0.068677 46.312 0.997637 136.31
8.73490000 0.997637 136.31 0.068678 46.311 0.068678 46.311 0.997637 136.31
8.73495000 0.997637 136.31 0.068679 46.311 0.068679 46.311 0.997637 136.31
8.73500000 0.997637 136.31 0.068679 46.311 0.068679 46.311 0.997637 136.31
8.73505000 0.997637 136.31 0.068680 46.311 0.068680 46.311 0.997637 136.31
8.73510000 0.997637 136.31 0.068681 46.310 0.068681 46.310 0.997637 136.31
8.73515000 0.997637 136.31 0.068682 46.310 0.068682 46.310 0.997637 136.31
8.73520000 0.997637 136.31 0.068683 46.310 0.068683 46.310 0.997637 136.31
8.73525000 0.997637 136.31 0.068683 46.310 0.068683 46.310 0.997637 136.31
8.73530000 0.997637 136.31 0.068684 46.309 0.068684 46.309 0.997637 136.31
8.73535000 0.997637 136.31 0.068685 46.309 0.068685 46.309 0.997637 136.31
8.73540000 0.997637 136.31 0.068686 46.309 0.068686 46.309 0.997637 136.31
8.73545000 0.997636 136.31 0.068687 46.308 0.068687 46.308 0.997636 136.31
8.73550000 0.997636 136.31 0.068688 46.308 0.068688 46.308 0.997636 136.31
8.73555000 0.997636 136.31 0.068688 46.308 0.068688 46.308 0.997636 136.30
8.73560000 0.997636 136.31 0.068689 46.308 0.068689 46.308 0.997636 136.30
8.73565000 0.997636 136.31 0.068690 46.307 0.068690 46.307 0.997636 136.30
8.73570000 0.997636 136.31 0.068691 46.307 0.068691 46.307 0.997636 136.30
8.73575000 0.997636 136.31 0.068692 46.307 0.068692 46.307 0.997636 136.30
8.73580000 0.997636 136.31 0.068692 46.307 0.068692 46.307 0.997636 136.30
8.73585000 0.997636 136.31 0.068693 46.306 0.068693 46.306 0.997636 136.30
8.73590000 0.997636 136.31 0.068694 46.306 0.068694 46.306 0.997636 136.30
8.73595000 0.997636 136.31 0.068695 46.306 0.068695 46.306 0.997636 136.30
8.73600000 0.997636 136.31 0.068696 46.305 0.068696 46.305 0.997636 136.30
8.73605000 0.997636 136.31 0.068697 46.305 0.068697 46.305 0.997636 136.30
8.73610000 0.997636 136.31 0.068697 46.305 0.068697 46.305 0.997636 136.30
8.73615000 0.997636 136.31 0.068698 46.305 0.068698 46.305 0.997636 136.30
8.73620000 0.997636 136.31 0.068699 46.304 0.068699 46.304 0.997636 136.30
8.73625000 0.997636 136.30 0.068700 46.304 0.068700 46.304 0.997636 136.30
8.73630000 0.997635 136.30 0.068701 46.304 0.068701 46.304 0.997635 136.30
8.73635000 0.997635 136.30 0.068702 46.303 0.068702 46.303 0.997635 136.30
8.73640000 0.997635 136.30 0.068702 46.303 0.068702 46.303 0.997635 136.30
8.73645000 0.997635 136.30 0.068703 46.303 0.068703 46.303 0.997635 136.30
8.73650000 0.997635 136.30 0.068704 46.303 0.068704 46.303 0.997635 136.30
8.73655000 0.997635 136.30 0.068705 46.302 0.068705 46.302 0.997635 136.30
8.73660000 0.997635 136.30 0.068706 46.302 0.068706 46.302 0.997635 136.30
8.73665000 0.997635 136.30 0.068707 46.302 0.068707 46.302 0.997635 136.30
8.73670000 0.997635 136.30 0.068707 46.302 0.068707 46.302 0.997635 136.30
8.73675000 0.997635 136.30 0.068708 46.301 0.068708 46.301 0.997635 136.30
8.73680000 0.997635 136.30 0.068709 46.301 0.068709 46.301 0.997635 136.30
8.73685000 0.997635 136.30 0.068710 46.301 0.068710 46.301 0.997635 136.30
8.73690000 0.997635 136.30 0.068711 46.300 0.068711 46.300 0.997635 136.30
8.73695000 0.997635 136.30 0.068712 46.300 0.068712 46.300 0.997635 136.30
8.73700000 0.997635 136.30 0.068712 46.300 0.068712 46.300 0.997635 136.30
8.73705000 0.997635 136.30 0.068713 46.300 0.068713 46.300 0.997635 136.30
8.73710000 0.997635 136.30 0.068714 46.299 0.068714 46.299 0.997635 136.30
8.73715000 0.997635 136.30 0.068715 46.299 0.068715 46.299 0.997635 136.30
8.73720000 0.997634 136.30 0.068716 46.299 0.068716 46.299 0.997634 136.30
8.73725000 0.997634 136.30 0.068717 46.299 0.068717 46.299 0.997634 136.30
8.73730000 0.997634 136.30 0.068717 46.298 0.068717 46.298 0.997634 136.30
8.73735000 0.997634 136.30 0.068718 46.298 0.068718 46.298 0.997634 136.29
8.73740000 0.997634 136.30 0.068719 46.298 0.068719 46.298 0.997634 136.29
8.73745000 0.997634 136.30 0.068720 46.297 0.068720 46.297 0.997634 136.29
8.73750000 0.997634 136.30 0.068721 46.297 0.068721 46.297 0.997634 136.29
8.73755000 0.997634 136.30 0.068722 46.297 0.068722 46.297 0.997634 136.29
8.73760000 0.997634 136.30 0.068722 46.297 0.068722 46.297 0.997634 136.29
8.73765000 0.997634 136.30 0.068723 46.296 0.068723 46.296 0.997634 136.29
8.73770000 0.997634 136.30 0.068724 46.296 0.068724 46.296 0.997634 136.29
8.73775000 0.997634 136.30 0.068725 46.296 0.068725 46.296 0.997634 136.29
8.73780000 0.997634 136.30 0.068726 46.296 0.068726 46.296 0.997634 136.29
8.73785000 0.997634 136.30 0.068727 46.295 0.068727 46.295 0.997634 136.29
8.73790000 0.997634 136.30 0.068727 46.295 0.068727 46.295 0.997634 136.29
8.73795000 0.997634 136.30 0.068728 46.295 0.068728 46.295 0.997634 136.29
8.73800000 0.997634 136.30 0.068729 46.294 0.068729 46.294 0.997634 136.29
8.73805000 0.997633 136.30 0.068730 46.294 0.068730 46.294 0.997633 136.29
8.73810000 0.997633 136.29 0.068731 46.294 0.068731 46.294 0.997633 136.29
8.73815000 0.997633 136.29 0.068732 46.294 0.068732 46.294 0.997633 136.29
8.73820000 0.997633 136.29 0.068733 46.293 0.068733 46.293 0.997633 136.29
8.73825000 0.997633 136.29 0.068733 46.293 0.068733 46.293 0.997633 136.29
8.73830000 0.997633 136.29 0.068734 46.293 0.068734 46.293 0.997633 136.29
8.73835000 0.997633 136.29 0.068735 46.292 0.068735 46.292 0.997633 136.29
8.73840000 0.997633 136.29 0.068736 46.292 0.068736 46.292 0.997633 136.29
8.73845000 0.997633 136.29 0.068737 46.292 0.068737 46.292 0.997633 136.29
8.73850000 0.997633 136.29 0.068738 46.292 0.068738 46.292 0.997633 136.29
8.73855000 0.997633 136.29 0.068738 46.291 0.068738 46.291 0.997633 136.29
8.73860000 0.997633 136.29 0.068739 46.291 0.068739 46.291 0.997633 136.29
8.73865000 0.997633 136.29 0.068740 46.291 0.068740 46.291 0.997633 136.29
8.73870000 0.997633 136.29 0.068741 46.291 0.068741 46.291 0.997633 136.29
8.73875000 0.997633 136.29 0.068742 46.290 0.068742 46.290 0.997633 136.29
8.73880000 0.997633 136.29 0.068743 46.290 0.068743 46.290 0.997633 136.29
8.73885000 0.997633 136.29 0.068744 46.290 0.068744 46.290 0.997633 136.29
8.73890000 0.997632 136.29 0.068744 46.289 0.068744 46.289 0.997632 136.29
8.73895000 0.997632 136.29 0.068745 46.289 0.068745 46.289 0.997632 136.29
8.73900000 0.997632 136.29 0.068746 46.289 0.068746 46.289 0.997632 136.29
8.73905000 0.997632 136.29 0.068747 46.289 0.068747 46.289 0.997632 136.29
8.73910000 0.997632 136.29 0.068748 46.288 0.068748 46.288 0.997632 136.29
8.73915000 0.997632 136.29 0.068749 46.288 0.068749 46.288 0.997632 136.28
8.73920000 0.997632 136.29 0.068750 46.288 0.068750 46.288 0.997632 136.28
8.73925000 0.997632 136.29 0.068750 46.287 0.068750 46.287 0.997632 136.28
8.73930000 0.997632 136.29 0.068751 46.287 0.068751 46.287 0.997632 136.28
8.73935000 0.997632 136.29 0.068752 46.287 0.068752 46.287 0.997632 136.28
8.73940000 0.997632 136.29 0.068753 46.287 0.068753 46.287 0.997632 136.28
8.73945000 0.997632 136.29 0.068754 46.286 0.068754 46.286 0.997632 136.28
8.73950000 0.997632 136.29 0.068755 46.286 0.068755 46.286 0.997632 136.28
8.73955000 0.997632 136.29 0.068756 46.286 0.068756 46.286 0.997632 136.28
8.73960000 0.997632 136.29 0.068757 46.286 0.068757 46.286 0.997632 136.28