! Sonnet Data File
! From: emgraph Version : 16.52
! From Project: transmon_brgOdd
! Data is De-embedded 
! Data File Written: 11/11/2017 22:28:47
!< HDATE 11/11/2017 18:22:48
!< MDATE 11/11/2017 18:22:48
!< PARAMS
!< Lj = 15.24
!< Gap = 6.0
!< Width = 10.0
!< Airgap = 6.0
!< Pwidth = 2000.0
!< Dist = 1600.0
!< END PARAMS
# GHZ S MA R 34.67000
8.72000000 0.996546 131.06 0.083022 41.061 0.083022 41.061 0.996546 131.06
!< P1 F=8.72 Eeff=(5.13609477 -5.6761e-5) Z0=(34.6490765 -9.5162e-5) R=0.0 C=0.0 
!< P2 F=8.72 Eeff=(5.13609477 -5.6761e-5) Z0=(34.6490765 -9.5162e-5) R=0.0 C=0.0 
8.72005000 0.996545 131.06 0.083022 41.061 0.083022 41.061 0.996545 131.06
8.72010000 0.996545 131.06 0.083023 41.060 0.083023 41.060 0.996545 131.06
8.72015000 0.996545 131.06 0.083024 41.060 0.083024 41.060 0.996545 131.06
8.72020000 0.996545 131.06 0.083025 41.060 0.083025 41.060 0.996545 131.06
8.72025000 0.996545 131.06 0.083026 41.059 0.083026 41.059 0.996545 131.06
8.72030000 0.996545 131.06 0.083026 41.059 0.083026 41.059 0.996545 131.06
8.72035000 0.996545 131.06 0.083027 41.059 0.083027 41.059 0.996545 131.06
8.72040000 0.996545 131.06 0.083028 41.059 0.083028 41.059 0.996545 131.06
8.72045000 0.996545 131.06 0.083029 41.058 0.083029 41.058 0.996545 131.06
8.72050000 0.996545 131.06 0.083030 41.058 0.083030 41.058 0.996545 131.06
8.72055000 0.996545 131.06 0.083030 41.058 0.083030 41.058 0.996545 131.06
8.72060000 0.996545 131.05 0.083031 41.057 0.083031 41.057 0.996545 131.06
8.72065000 0.996545 131.05 0.083032 41.057 0.083032 41.057 0.996545 131.06
8.72070000 0.996545 131.05 0.083033 41.057 0.083033 41.057 0.996545 131.06
8.72075000 0.996545 131.05 0.083034 41.056 0.083034 41.056 0.996545 131.06
8.72080000 0.996544 131.05 0.083034 41.056 0.083034 41.056 0.996544 131.06
8.72085000 0.996544 131.05 0.083035 41.056 0.083035 41.056 0.996544 131.06
8.72090000 0.996544 131.05 0.083036 41.056 0.083036 41.056 0.996544 131.06
8.72095000 0.996544 131.05 0.083037 41.055 0.083037 41.055 0.996544 131.06
8.72100000 0.996544 131.05 0.083038 41.055 0.083038 41.055 0.996544 131.06
8.72105000 0.996544 131.05 0.083038 41.055 0.083038 41.055 0.996544 131.05
8.72110000 0.996544 131.05 0.083039 41.054 0.083039 41.054 0.996544 131.05
8.72115000 0.996544 131.05 0.083040 41.054 0.083040 41.054 0.996544 131.05
8.72120000 0.996544 131.05 0.083041 41.054 0.083041 41.054 0.996544 131.05
8.72125000 0.996544 131.05 0.083042 41.053 0.083042 41.053 0.996544 131.05
8.72130000 0.996544 131.05 0.083043 41.053 0.083043 41.053 0.996544 131.05
8.72135000 0.996544 131.05 0.083043 41.053 0.083043 41.053 0.996544 131.05
8.72140000 0.996544 131.05 0.083044 41.053 0.083044 41.053 0.996544 131.05
8.72145000 0.996544 131.05 0.083045 41.052 0.083045 41.052 0.996544 131.05
8.72150000 0.996544 131.05 0.083046 41.052 0.083046 41.052 0.996544 131.05
8.72155000 0.996543 131.05 0.083047 41.052 0.083047 41.052 0.996543 131.05
8.72160000 0.996543 131.05 0.083047 41.051 0.083047 41.051 0.996543 131.05
8.72165000 0.996543 131.05 0.083048 41.051 0.083048 41.051 0.996543 131.05
8.72170000 0.996543 131.05 0.083049 41.051 0.083049 41.051 0.996543 131.05
8.72175000 0.996543 131.05 0.083050 41.050 0.083050 41.050 0.996543 131.05
8.72180000 0.996543 131.05 0.083051 41.050 0.083051 41.050 0.996543 131.05
8.72185000 0.996543 131.05 0.083051 41.050 0.083051 41.050 0.996543 131.05
8.72190000 0.996543 131.05 0.083052 41.050 0.083052 41.050 0.996543 131.05
8.72195000 0.996543 131.05 0.083053 41.049 0.083053 41.049 0.996543 131.05
8.72200000 0.996543 131.05 0.083054 41.049 0.083054 41.049 0.996543 131.05
8.72205000 0.996543 131.05 0.083055 41.049 0.083055 41.049 0.996543 131.05
8.72210000 0.996543 131.05 0.083056 41.048 0.083056 41.048 0.996543 131.05
8.72215000 0.996543 131.05 0.083056 41.048 0.083056 41.048 0.996543 131.05
8.72220000 0.996543 131.05 0.083057 41.048 0.083057 41.048 0.996543 131.05
8.72225000 0.996543 131.05 0.083058 41.047 0.083058 41.047 0.996543 131.05
8.72230000 0.996542 131.04 0.083059 41.047 0.083059 41.047 0.996542 131.05
8.72235000 0.996542 131.04 0.083060 41.047 0.083060 41.047 0.996542 131.05
8.72240000 0.996542 131.04 0.083060 41.047 0.083060 41.047 0.996542 131.05
8.72245000 0.996542 131.04 0.083061 41.046 0.083061 41.046 0.996542 131.05
8.72250000 0.996542 131.04 0.083062 41.046 0.083062 41.046 0.996542 131.05
8.72255000 0.996542 131.04 0.083063 41.046 0.083063 41.046 0.996542 131.05
8.72260000 0.996542 131.04 0.083064 41.045 0.083064 41.045 0.996542 131.05
8.72265000 0.996542 131.04 0.083065 41.045 0.083065 41.045 0.996542 131.05
8.72270000 0.996542 131.04 0.083065 41.045 0.083065 41.045 0.996542 131.04
8.72275000 0.996542 131.04 0.083066 41.044 0.083066 41.044 0.996542 131.04
8.72280000 0.996542 131.04 0.083067 41.044 0.083067 41.044 0.996542 131.04
8.72285000 0.996542 131.04 0.083068 41.044 0.083068 41.044 0.996542 131.04
8.72290000 0.996542 131.04 0.083069 41.044 0.083069 41.044 0.996542 131.04
8.72295000 0.996542 131.04 0.083069 41.043 0.083069 41.043 0.996542 131.04
8.72300000 0.996541 131.04 0.083070 41.043 0.083070 41.043 0.996541 131.04
8.72305000 0.996541 131.04 0.083071 41.043 0.083071 41.043 0.996541 131.04
8.72310000 0.996541 131.04 0.083072 41.042 0.083072 41.042 0.996541 131.04
8.72315000 0.996541 131.04 0.083073 41.042 0.083073 41.042 0.996541 131.04
8.72320000 0.996541 131.04 0.083074 41.042 0.083074 41.042 0.996541 131.04
8.72325000 0.996541 131.04 0.083074 41.041 0.083074 41.041 0.996541 131.04
8.72330000 0.996541 131.04 0.083075 41.041 0.083075 41.041 0.996541 131.04
8.72335000 0.996541 131.04 0.083076 41.041 0.083076 41.041 0.996541 131.04
8.72340000 0.996541 131.04 0.083077 41.041 0.083077 41.041 0.996541 131.04
8.72345000 0.996541 131.04 0.083078 41.040 0.083078 41.040 0.996541 131.04
8.72350000 0.996541 131.04 0.083078 41.040 0.083078 41.040 0.996541 131.04
8.72355000 0.996541 131.04 0.083079 41.040 0.083079 41.040 0.996541 131.04
8.72360000 0.996541 131.04 0.083080 41.039 0.083080 41.039 0.996541 131.04
8.72365000 0.996541 131.04 0.083081 41.039 0.083081 41.039 0.996541 131.04
8.72370000 0.996541 131.04 0.083082 41.039 0.083082 41.039 0.996541 131.04
8.72375000 0.996540 131.04 0.083083 41.038 0.083083 41.038 0.996540 131.04
8.72380000 0.996540 131.04 0.083083 41.038 0.083083 41.038 0.996540 131.04
8.72385000 0.996540 131.04 0.083084 41.038 0.083084 41.038 0.996540 131.04
8.72390000 0.996540 131.04 0.083085 41.038 0.083085 41.038 0.996540 131.04
8.72395000 0.996540 131.03 0.083086 41.037 0.083086 41.037 0.996540 131.04
8.72400000 0.996540 131.03 0.083087 41.037 0.083087 41.037 0.996540 131.04
8.72405000 0.996540 131.03 0.083088 41.037 0.083088 41.037 0.996540 131.04
8.72410000 0.996540 131.03 0.083088 41.036 0.083088 41.036 0.996540 131.04
8.72415000 0.996540 131.03 0.083089 41.036 0.083089 41.036 0.996540 131.04
8.72420000 0.996540 131.03 0.083090 41.036 0.083090 41.036 0.996540 131.04
8.72425000 0.996540 131.03 0.083091 41.035 0.083091 41.035 0.996540 131.04
8.72430000 0.996540 131.03 0.083092 41.035 0.083092 41.035 0.996540 131.04
8.72435000 0.996540 131.03 0.083093 41.035 0.083093 41.035 0.996540 131.03
8.72440000 0.996540 131.03 0.083093 41.035 0.083093 41.035 0.996540 131.03
8.72445000 0.996539 131.03 0.083094 41.034 0.083094 41.034 0.996539 131.03
8.72450000 0.996539 131.03 0.083095 41.034 0.083095 41.034 0.996539 131.03
8.72455000 0.996539 131.03 0.083096 41.034 0.083096 41.034 0.996539 131.03
8.72460000 0.996539 131.03 0.083097 41.033 0.083097 41.033 0.996539 131.03
8.72465000 0.996539 131.03 0.083098 41.033 0.083098 41.033 0.996539 131.03
8.72470000 0.996539 131.03 0.083098 41.033 0.083098 41.033 0.996539 131.03
8.72475000 0.996539 131.03 0.083099 41.032 0.083099 41.032 0.996539 131.03
8.72480000 0.996539 131.03 0.083100 41.032 0.083100 41.032 0.996539 131.03
8.72485000 0.996539 131.03 0.083101 41.032 0.083101 41.032 0.996539 131.03
8.72490000 0.996539 131.03 0.083102 41.032 0.083102 41.032 0.996539 131.03
8.72495000 0.996539 131.03 0.083103 41.031 0.083103 41.031 0.996539 131.03
8.72500000 0.996539 131.03 0.083103 41.031 0.083103 41.031 0.996539 131.03
8.72505000 0.996539 131.03 0.083104 41.031 0.083104 41.031 0.996539 131.03
8.72510000 0.996539 131.03 0.083105 41.030 0.083105 41.030 0.996539 131.03
8.72515000 0.996539 131.03 0.083106 41.030 0.083106 41.030 0.996539 131.03
8.72520000 0.996538 131.03 0.083107 41.030 0.083107 41.030 0.996538 131.03
8.72525000 0.996538 131.03 0.083108 41.029 0.083108 41.029 0.996538 131.03
8.72530000 0.996538 131.03 0.083108 41.029 0.083108 41.029 0.996538 131.03
8.72535000 0.996538 131.03 0.083109 41.029 0.083109 41.029 0.996538 131.03
8.72540000 0.996538 131.03 0.083110 41.029 0.083110 41.029 0.996538 131.03
8.72545000 0.996538 131.03 0.083111 41.028 0.083111 41.028 0.996538 131.03
8.72550000 0.996538 131.03 0.083112 41.028 0.083112 41.028 0.996538 131.03
8.72555000 0.996538 131.03 0.083113 41.028 0.083113 41.028 0.996538 131.03
8.72560000 0.996538 131.02 0.083113 41.027 0.083113 41.027 0.996538 131.03
8.72565000 0.996538 131.02 0.083114 41.027 0.083114 41.027 0.996538 131.03
8.72570000 0.996538 131.02 0.083115 41.027 0.083115 41.027 0.996538 131.03
8.72575000 0.996538 131.02 0.083116 41.026 0.083116 41.026 0.996538 131.03
8.72580000 0.996538 131.02 0.083117 41.026 0.083117 41.026 0.996538 131.03
8.72585000 0.996538 131.02 0.083118 41.026 0.083118 41.026 0.996538 131.03
8.72590000 0.996537 131.02 0.083118 41.026 0.083118 41.026 0.996537 131.03
8.72595000 0.996537 131.02 0.083119 41.025 0.083119 41.025 0.996537 131.03
8.72600000 0.996537 131.02 0.083120 41.025 0.083120 41.025 0.996537 131.03
8.72605000 0.996537 131.02 0.083121 41.025 0.083121 41.025 0.996537 131.02
8.72610000 0.996537 131.02 0.083122 41.024 0.083122 41.024 0.996537 131.02
8.72615000 0.996537 131.02 0.083123 41.024 0.083123 41.024 0.996537 131.02
8.72620000 0.996537 131.02 0.083124 41.024 0.083124 41.024 0.996537 131.02
8.72625000 0.996537 131.02 0.083124 41.023 0.083124 41.023 0.996537 131.02
8.72630000 0.996537 131.02 0.083125 41.023 0.083125 41.023 0.996537 131.02
8.72635000 0.996537 131.02 0.083126 41.023 0.083126 41.023 0.996537 131.02
8.72640000 0.996537 131.02 0.083127 41.023 0.083127 41.023 0.996537 131.02
8.72645000 0.996537 131.02 0.083128 41.022 0.083128 41.022 0.996537 131.02
8.72650000 0.996537 131.02 0.083129 41.022 0.083129 41.022 0.996537 131.02
8.72655000 0.996537 131.02 0.083129 41.022 0.083129 41.022 0.996537 131.02
8.72660000 0.996536 131.02 0.083130 41.021 0.083130 41.021 0.996536 131.02
8.72665000 0.996536 131.02 0.083131 41.021 0.083131 41.021 0.996536 131.02
8.72670000 0.996536 131.02 0.083132 41.021 0.083132 41.021 0.996536 131.02
8.72675000 0.996536 131.02 0.083133 41.020 0.083133 41.020 0.996536 131.02
8.72680000 0.996536 131.02 0.083134 41.020 0.083134 41.020 0.996536 131.02
8.72685000 0.996536 131.02 0.083135 41.020 0.083135 41.020 0.996536 131.02
8.72690000 0.996536 131.02 0.083135 41.019 0.083135 41.019 0.996536 131.02
8.72695000 0.996536 131.02 0.083136 41.019 0.083136 41.019 0.996536 131.02
8.72700000 0.996536 131.02 0.083137 41.019 0.083137 41.019 0.996536 131.02
8.72705000 0.996536 131.02 0.083138 41.019 0.083138 41.019 0.996536 131.02
8.72710000 0.996536 131.02 0.083139 41.018 0.083139 41.018 0.996536 131.02
8.72715000 0.996536 131.02 0.083140 41.018 0.083140 41.018 0.996536 131.02
8.72720000 0.996536 131.02 0.083140 41.018 0.083140 41.018 0.996536 131.02
8.72725000 0.996536 131.01 0.083141 41.017 0.083141 41.017 0.996536 131.02
8.72730000 0.996535 131.01 0.083142 41.017 0.083142 41.017 0.996535 131.02
8.72735000 0.996535 131.01 0.083143 41.017 0.083143 41.017 0.996535 131.02
8.72740000 0.996535 131.01 0.083144 41.016 0.083144 41.016 0.996535 131.02
8.72745000 0.996535 131.01 0.083145 41.016 0.083145 41.016 0.996535 131.02
8.72750000 0.996535 131.01 0.083146 41.016 0.083146 41.016 0.996535 131.02
8.72755000 0.996535 131.01 0.083146 41.016 0.083146 41.016 0.996535 131.02
8.72760000 0.996535 131.01 0.083147 41.015 0.083147 41.015 0.996535 131.02
8.72765000 0.996535 131.01 0.083148 41.015 0.083148 41.015 0.996535 131.02
8.72770000 0.996535 131.01 0.083149 41.015 0.083149 41.015 0.996535 131.01
8.72775000 0.996535 131.01 0.083150 41.014 0.083150 41.014 0.996535 131.01
8.72780000 0.996535 131.01 0.083151 41.014 0.083151 41.014 0.996535 131.01
8.72785000 0.996535 131.01 0.083152 41.014 0.083152 41.014 0.996535 131.01
8.72790000 0.996535 131.01 0.083152 41.013 0.083152 41.013 0.996535 131.01
8.72795000 0.996535 131.01 0.083153 41.013 0.083153 41.013 0.996535 131.01
8.72800000 0.996534 131.01 0.083154 41.013 0.083154 41.013 0.996534 131.01
8.72805000 0.996534 131.01 0.083155 41.013 0.083155 41.013 0.996534 131.01
8.72810000 0.996534 131.01 0.083156 41.012 0.083156 41.012 0.996534 131.01
8.72815000 0.996534 131.01 0.083157 41.012 0.083157 41.012 0.996534 131.01
8.72820000 0.996534 131.01 0.083158 41.012 0.083158 41.012 0.996534 131.01
8.72825000 0.996534 131.01 0.083158 41.011 0.083158 41.011 0.996534 131.01
8.72830000 0.996534 131.01 0.083159 41.011 0.083159 41.011 0.996534 131.01
8.72835000 0.996534 131.01 0.083160 41.011 0.083160 41.011 0.996534 131.01
8.72840000 0.996534 131.01 0.083161 41.010 0.083161 41.010 0.996534 131.01
8.72845000 0.996534 131.01 0.083162 41.010 0.083162 41.010 0.996534 131.01
8.72850000 0.996534 131.01 0.083163 41.010 0.083163 41.010 0.996534 131.01
8.72855000 0.996534 131.01 0.083164 41.010 0.083164 41.010 0.996534 131.01
8.72860000 0.996534 131.01 0.083165 41.009 0.083165 41.009 0.996534 131.01
8.72865000 0.996534 131.01 0.083165 41.009 0.083165 41.009 0.996534 131.01
8.72870000 0.996533 131.01 0.083166 41.009 0.083166 41.009 0.996533 131.01
8.72875000 0.996533 131.01 0.083167 41.008 0.083167 41.008 0.996533 131.01
8.72880000 0.996533 131.01 0.083168 41.008 0.083168 41.008 0.996533 131.01
8.72885000 0.996533 131.01 0.083169 41.008 0.083169 41.008 0.996533 131.01
8.72890000 0.996533 131.00 0.083170 41.007 0.083170 41.007 0.996533 131.01
8.72895000 0.996533 131.00 0.083171 41.007 0.083171 41.007 0.996533 131.01
8.72900000 0.996533 131.00 0.083171 41.007 0.083171 41.007 0.996533 131.01
8.72905000 0.996533 131.00 0.083172 41.006 0.083172 41.006 0.996533 131.01
8.72910000 0.996533 131.00 0.083173 41.006 0.083173 41.006 0.996533 131.01
8.72915000 0.996533 131.00 0.083174 41.006 0.083174 41.006 0.996533 131.01
8.72920000 0.996533 131.00 0.083175 41.006 0.083175 41.006 0.996533 131.01
8.72925000 0.996533 131.00 0.083176 41.005 0.083176 41.005 0.996533 131.01
8.72930000 0.996533 131.00 0.083177 41.005 0.083177 41.005 0.996533 131.01
8.72935000 0.996533 131.00 0.083178 41.005 0.083178 41.005 0.996533 131.00
8.72940000 0.996532 131.00 0.083178 41.004 0.083178 41.004 0.996532 131.00
8.72945000 0.996532 131.00 0.083179 41.004 0.083179 41.004 0.996532 131.00
8.72950000 0.996532 131.00 0.083180 41.004 0.083180 41.004 0.996532 131.00
8.72955000 0.996532 131.00 0.083181 41.003 0.083181 41.003 0.996532 131.00
8.72960000 0.996532 131.00 0.083182 41.003 0.083182 41.003 0.996532 131.00
8.72965000 0.996532 131.00 0.083183 41.003 0.083183 41.003 0.996532 131.00
8.72970000 0.996532 131.00 0.083184 41.003 0.083184 41.003 0.996532 131.00
8.72975000 0.996532 131.00 0.083185 41.002 0.083185 41.002 0.996532 131.00
8.72980000 0.996532 131.00 0.083185 41.002 0.083185 41.002 0.996532 131.00
8.72985000 0.996532 131.00 0.083186 41.002 0.083186 41.002 0.996532 131.00
8.72990000 0.996532 131.00 0.083187 41.001 0.083187 41.001 0.996532 131.00
8.72995000 0.996532 131.00 0.083188 41.001 0.083188 41.001 0.996532 131.00
8.73000000 0.996532 131.00 0.083189 41.001 0.083189 41.001 0.996532 131.00
8.73005000 0.996532 131.00 0.083190 41.000 0.083190 41.000 0.996532 131.00
8.73010000 0.996531 131.00 0.083191 41.000 0.083191 41.000 0.996531 131.00
8.73015000 0.996531 131.00 0.083192 41.000 0.083192 41.000 0.996531 131.00
8.73020000 0.996531 131.00 0.083192 41.000 0.083192 41.000 0.996531 131.00
8.73025000 0.996531 131.00 0.083193 40.999 0.083193 40.999 0.996531 131.00
8.73030000 0.996531 131.00 0.083194 40.999 0.083194 40.999 0.996531 131.00
8.73035000 0.996531 131.00 0.083195 40.999 0.083195 40.999 0.996531 131.00
8.73040000 0.996531 131.00 0.083196 40.998 0.083196 40.998 0.996531 131.00
8.73045000 0.996531 131.00 0.083197 40.998 0.083197 40.998 0.996531 131.00
8.73050000 0.996531 131.00 0.083198 40.998 0.083198 40.998 0.996531 131.00
8.73055000 0.996531 130.99 0.083199 40.997 0.083199 40.997 0.996531 131.00
8.73060000 0.996531 130.99 0.083199 40.997 0.083199 40.997 0.996531 131.00
8.73065000 0.996531 130.99 0.083200 40.997 0.083200 40.997 0.996531 131.00
8.73070000 0.996531 130.99 0.083201 40.996 0.083201 40.996 0.996531 131.00
8.73075000 0.996530 130.99 0.083202 40.996 0.083202 40.996 0.996530 131.00
8.73080000 0.996530 130.99 0.083203 40.996 0.083203 40.996 0.996530 131.00
8.73085000 0.996530 130.99 0.083204 40.996 0.083204 40.996 0.996530 131.00
8.73090000 0.996530 130.99 0.083205 40.995 0.083205 40.995 0.996530 131.00
8.73095000 0.996530 130.99 0.083206 40.995 0.083206 40.995 0.996530 131.00
8.73100000 0.996530 130.99 0.083207 40.995 0.083207 40.995 0.996530 130.99
8.73105000 0.996530 130.99 0.083207 40.994 0.083207 40.994 0.996530 130.99
8.73110000 0.996530 130.99 0.083208 40.994 0.083208 40.994 0.996530 130.99
8.73115000 0.996530 130.99 0.083209 40.994 0.083209 40.994 0.996530 130.99
8.73120000 0.996530 130.99 0.083210 40.993 0.083210 40.993 0.996530 130.99
8.73125000 0.996530 130.99 0.083211 40.993 0.083211 40.993 0.996530 130.99
8.73130000 0.996530 130.99 0.083212 40.993 0.083212 40.993 0.996530 130.99
8.73135000 0.996530 130.99 0.083213 40.993 0.083213 40.993 0.996530 130.99
8.73140000 0.996530 130.99 0.083214 40.992 0.083214 40.992 0.996530 130.99
8.73145000 0.996529 130.99 0.083215 40.992 0.083215 40.992 0.996529 130.99
8.73150000 0.996529 130.99 0.083215 40.992 0.083215 40.992 0.996529 130.99
8.73155000 0.996529 130.99 0.083216 40.991 0.083216 40.991 0.996529 130.99
8.73160000 0.996529 130.99 0.083217 40.991 0.083217 40.991 0.996529 130.99
8.73165000 0.996529 130.99 0.083218 40.991 0.083218 40.991 0.996529 130.99
8.73170000 0.996529 130.99 0.083219 40.990 0.083219 40.990 0.996529 130.99
8.73175000 0.996529 130.99 0.083220 40.990 0.083220 40.990 0.996529 130.99
8.73180000 0.996529 130.99 0.083221 40.990 0.083221 40.990 0.996529 130.99
8.73185000 0.996529 130.99 0.083222 40.989 0.083222 40.989 0.996529 130.99
8.73190000 0.996529 130.99 0.083223 40.989 0.083223 40.989 0.996529 130.99
8.73195000 0.996529 130.99 0.083223 40.989 0.083223 40.989 0.996529 130.99
8.73200000 0.996529 130.99 0.083224 40.989 0.083224 40.989 0.996529 130.99
8.73205000 0.996529 130.99 0.083225 40.988 0.083225 40.988 0.996529 130.99
8.73210000 0.996528 130.99 0.083226 40.988 0.083226 40.988 0.996528 130.99
8.73215000 0.996528 130.99 0.083227 40.988 0.083227 40.988 0.996528 130.99
8.73220000 0.996528 130.98 0.083228 40.987 0.083228 40.987 0.996528 130.99
8.73225000 0.996528 130.98 0.083229 40.987 0.083229 40.987 0.996528 130.99
8.73230000 0.996528 130.98 0.083230 40.987 0.083230 40.987 0.996528 130.99
8.73235000 0.996528 130.98 0.083231 40.986 0.083231 40.986 0.996528 130.99
8.73240000 0.996528 130.98 0.083232 40.986 0.083232 40.986 0.996528 130.99
8.73245000 0.996528 130.98 0.083232 40.986 0.083232 40.986 0.996528 130.99
8.73250000 0.996528 130.98 0.083233 40.986 0.083233 40.986 0.996528 130.99
8.73255000 0.996528 130.98 0.083234 40.985 0.083234 40.985 0.996528 130.99
8.73260000 0.996528 130.98 0.083235 40.985 0.083235 40.985 0.996528 130.99
8.73265000 0.996528 130.98 0.083236 40.985 0.083236 40.985 0.996528 130.98
8.73270000 0.996528 130.98 0.083237 40.984 0.083237 40.984 0.996528 130.98
8.73275000 0.996527 130.98 0.083238 40.984 0.083238 40.984 0.996527 130.98
8.73280000 0.996527 130.98 0.083239 40.984 0.083239 40.984 0.996527 130.98
8.73285000 0.996527 130.98 0.083240 40.983 0.083240 40.983 0.996527 130.98
8.73290000 0.996527 130.98 0.083241 40.983 0.083241 40.983 0.996527 130.98
8.73295000 0.996527 130.98 0.083241 40.983 0.083241 40.983 0.996527 130.98
8.73300000 0.996527 130.98 0.083242 40.982 0.083242 40.982 0.996527 130.98
8.73305000 0.996527 130.98 0.083243 40.982 0.083243 40.982 0.996527 130.98
8.73310000 0.996527 130.98 0.083244 40.982 0.083244 40.982 0.996527 130.98
8.73315000 0.996527 130.98 0.083245 40.982 0.083245 40.982 0.996527 130.98
8.73320000 0.996527 130.98 0.083246 40.981 0.083246 40.981 0.996527 130.98
8.73325000 0.996527 130.98 0.083247 40.981 0.083247 40.981 0.996527 130.98
8.73330000 0.996527 130.98 0.083248 40.981 0.083248 40.981 0.996527 130.98
8.73335000 0.996527 130.98 0.083249 40.980 0.083249 40.980 0.996527 130.98
8.73340000 0.996526 130.98 0.083250 40.980 0.083250 40.980 0.996526 130.98
8.73345000 0.996526 130.98 0.083251 40.980 0.083251 40.980 0.996526 130.98
8.73350000 0.996526 130.98 0.083251 40.979 0.083251 40.979 0.996526 130.98
8.73355000 0.996526 130.98 0.083252 40.979 0.083252 40.979 0.996526 130.98
8.73360000 0.996526 130.98 0.083253 40.979 0.083253 40.979 0.996526 130.98
8.73365000 0.996526 130.98 0.083254 40.979 0.083254 40.979 0.996526 130.98
8.73370000 0.996526 130.98 0.083255 40.978 0.083255 40.978 0.996526 130.98
8.73375000 0.996526 130.98 0.083256 40.978 0.083256 40.978 0.996526 130.98
8.73380000 0.996526 130.98 0.083257 40.978 0.083257 40.978 0.996526 130.98
8.73385000 0.996526 130.97 0.083258 40.977 0.083258 40.977 0.996526 130.98
8.73390000 0.996526 130.97 0.083259 40.977 0.083259 40.977 0.996526 130.98
8.73395000 0.996526 130.97 0.083260 40.977 0.083260 40.977 0.996526 130.98
8.73400000 0.996526 130.97 0.083261 40.976 0.083261 40.976 0.996526 130.98
8.73405000 0.996525 130.97 0.083262 40.976 0.083262 40.976 0.996525 130.98
8.73410000 0.996525 130.97 0.083262 40.976 0.083262 40.976 0.996525 130.98
8.73415000 0.996525 130.97 0.083263 40.975 0.083263 40.975 0.996525 130.98
8.73420000 0.996525 130.97 0.083264 40.975 0.083264 40.975 0.996525 130.98
8.73425000 0.996525 130.97 0.083265 40.975 0.083265 40.975 0.996525 130.97
8.73430000 0.996525 130.97 0.083266 40.975 0.083266 40.975 0.996525 130.97
8.73435000 0.996525 130.97 0.083267 40.974 0.083267 40.974 0.996525 130.97
8.73440000 0.996525 130.97 0.083268 40.974 0.083268 40.974 0.996525 130.97
8.73445000 0.996525 130.97 0.083269 40.974 0.083269 40.974 0.996525 130.97
8.73450000 0.996525 130.97 0.083270 40.973 0.083270 40.973 0.996525 130.97
8.73455000 0.996525 130.97 0.083271 40.973 0.083271 40.973 0.996525 130.97
8.73460000 0.996525 130.97 0.083272 40.973 0.083272 40.973 0.996525 130.97
8.73465000 0.996525 130.97 0.083273 40.972 0.083273 40.972 0.996525 130.97
8.73470000 0.996524 130.97 0.083274 40.972 0.083274 40.972 0.996524 130.97
8.73475000 0.996524 130.97 0.083274 40.972 0.083274 40.972 0.996524 130.97
8.73480000 0.996524 130.97 0.083275 40.971 0.083275 40.971 0.996524 130.97
8.73485000 0.996524 130.97 0.083276 40.971 0.083276 40.971 0.996524 130.97
8.73490000 0.996524 130.97 0.083277 40.971 0.083277 40.971 0.996524 130.97
8.73495000 0.996524 130.97 0.083278 40.971 0.083278 40.971 0.996524 130.97
8.73500000 0.996524 130.97 0.083279 40.970 0.083279 40.970 0.996524 130.97
8.73505000 0.996524 130.97 0.083280 40.970 0.083280 40.970 0.996524 130.97
8.73510000 0.996524 130.97 0.083281 40.970 0.083281 40.970 0.996524 130.97
8.73515000 0.996524 130.97 0.083282 40.969 0.083282 40.969 0.996524 130.97
8.73520000 0.996524 130.97 0.083283 40.969 0.083283 40.969 0.996524 130.97
8.73525000 0.996524 130.97 0.083284 40.969 0.083284 40.969 0.996524 130.97
8.73530000 0.996524 130.97 0.083285 40.968 0.083285 40.968 0.996524 130.97
8.73535000 0.996523 130.97 0.083286 40.968 0.083286 40.968 0.996523 130.97
8.73540000 0.996523 130.97 0.083287 40.968 0.083287 40.968 0.996523 130.97
8.73545000 0.996523 130.97 0.083287 40.967 0.083287 40.967 0.996523 130.97
8.73550000 0.996523 130.96 0.083288 40.967 0.083288 40.967 0.996523 130.97
8.73555000 0.996523 130.96 0.083289 40.967 0.083289 40.967 0.996523 130.97
8.73560000 0.996523 130.96 0.083290 40.967 0.083290 40.967 0.996523 130.97
8.73565000 0.996523 130.96 0.083291 40.966 0.083291 40.966 0.996523 130.97
8.73570000 0.996523 130.96 0.083292 40.966 0.083292 40.966 0.996523 130.97
8.73575000 0.996523 130.96 0.083293 40.966 0.083293 40.966 0.996523 130.97
8.73580000 0.996523 130.96 0.083294 40.965 0.083294 40.965 0.996523 130.97
8.73585000 0.996523 130.96 0.083295 40.965 0.083295 40.965 0.996523 130.97
8.73590000 0.996523 130.96 0.083296 40.965 0.083296 40.965 0.996523 130.96
8.73595000 0.996523 130.96 0.083297 40.964 0.083297 40.964 0.996523 130.96
8.73600000 0.996522 130.96 0.083298 40.964 0.083298 40.964 0.996522 130.96
8.73605000 0.996522 130.96 0.083299 40.964 0.083299 40.964 0.996522 130.96
8.73610000 0.996522 130.96 0.083300 40.964 0.083300 40.964 0.996522 130.96
8.73615000 0.996522 130.96 0.083301 40.963 0.083301 40.963 0.996522 130.96
8.73620000 0.996522 130.96 0.083302 40.963 0.083302 40.963 0.996522 130.96
8.73625000 0.996522 130.96 0.083303 40.963 0.083303 40.963 0.996522 130.96
8.73630000 0.996522 130.96 0.083303 40.962 0.083303 40.962 0.996522 130.96
8.73635000 0.996522 130.96 0.083304 40.962 0.083304 40.962 0.996522 130.96
8.73640000 0.996522 130.96 0.083305 40.962 0.083305 40.962 0.996522 130.96
8.73645000 0.996522 130.96 0.083306 40.961 0.083306 40.961 0.996522 130.96
8.73650000 0.996522 130.96 0.083307 40.961 0.083307 40.961 0.996522 130.96
8.73655000 0.996522 130.96 0.083308 40.961 0.083308 40.961 0.996522 130.96
8.73660000 0.996521 130.96 0.083309 40.960 0.083309 40.960 0.996521 130.96
8.73665000 0.996521 130.96 0.083310 40.960 0.083310 40.960 0.996521 130.96
8.73670000 0.996521 130.96 0.083311 40.960 0.083311 40.960 0.996521 130.96
8.73675000 0.996521 130.96 0.083312 40.960 0.083312 40.960 0.996521 130.96
8.73680000 0.996521 130.96 0.083313 40.959 0.083313 40.959 0.996521 130.96
8.73685000 0.996521 130.96 0.083314 40.959 0.083314 40.959 0.996521 130.96
8.73690000 0.996521 130.96 0.083315 40.959 0.083315 40.959 0.996521 130.96
8.73695000 0.996521 130.96 0.083316 40.958 0.083316 40.958 0.996521 130.96
8.73700000 0.996521 130.96 0.083317 40.958 0.083317 40.958 0.996521 130.96
8.73705000 0.996521 130.96 0.083318 40.958 0.083318 40.958 0.996521 130.96
8.73710000 0.996521 130.95 0.083319 40.957 0.083319 40.957 0.996521 130.96
8.73715000 0.996521 130.95 0.083320 40.957 0.083320 40.957 0.996521 130.96
8.73720000 0.996521 130.95 0.083321 40.957 0.083321 40.957 0.996521 130.96
8.73725000 0.996520 130.95 0.083322 40.956 0.083322 40.956 0.996520 130.96
8.73730000 0.996520 130.95 0.083323 40.956 0.083323 40.956 0.996520 130.96
8.73735000 0.996520 130.95 0.083323 40.956 0.083323 40.956 0.996520 130.96
8.73740000 0.996520 130.95 0.083324 40.956 0.083324 40.956 0.996520 130.96
8.73745000 0.996520 130.95 0.083325 40.955 0.083325 40.955 0.996520 130.96
8.73750000 0.996520 130.95 0.083326 40.955 0.083326 40.955 0.996520 130.96
8.73755000 0.996520 130.95 0.083327 40.955 0.083327 40.955 0.996520 130.95
8.73760000 0.996520 130.95 0.083328 40.954 0.083328 40.954 0.996520 130.95
8.73765000 0.996520 130.95 0.083329 40.954 0.083329 40.954 0.996520 130.95
8.73770000 0.996520 130.95 0.083330 40.954 0.083330 40.954 0.996520 130.95
8.73775000 0.996520 130.95 0.083331 40.953 0.083331 40.953 0.996520 130.95
8.73780000 0.996520 130.95 0.083332 40.953 0.083332 40.953 0.996520 130.95
8.73785000 0.996519 130.95 0.083333 40.953 0.083333 40.953 0.996519 130.95
8.73790000 0.996519 130.95 0.083334 40.952 0.083334 40.952 0.996519 130.95
8.73795000 0.996519 130.95 0.083335 40.952 0.083335 40.952 0.996519 130.95
8.73800000 0.996519 130.95 0.083336 40.952 0.083336 40.952 0.996519 130.95
8.73805000 0.996519 130.95 0.083337 40.951 0.083337 40.951 0.996519 130.95
8.73810000 0.996519 130.95 0.083338 40.951 0.083338 40.951 0.996519 130.95
8.73815000 0.996519 130.95 0.083339 40.951 0.083339 40.951 0.996519 130.95
8.73820000 0.996519 130.95 0.083340 40.951 0.083340 40.951 0.996519 130.95
8.73825000 0.996519 130.95 0.083341 40.950 0.083341 40.950 0.996519 130.95
8.73830000 0.996519 130.95 0.083342 40.950 0.083342 40.950 0.996519 130.95
8.73835000 0.996519 130.95 0.083343 40.950 0.083343 40.950 0.996519 130.95
8.73840000 0.996519 130.95 0.083344 40.949 0.083344 40.949 0.996519 130.95
8.73845000 0.996519 130.95 0.083345 40.949 0.083345 40.949 0.996519 130.95
8.73850000 0.996518 130.95 0.083346 40.949 0.083346 40.949 0.996518 130.95
8.73855000 0.996518 130.95 0.083347 40.948 0.083347 40.948 0.996518 130.95
8.73860000 0.996518 130.95 0.083348 40.948 0.083348 40.948 0.996518 130.95
8.73865000 0.996518 130.95 0.083349 40.948 0.083349 40.948 0.996518 130.95
8.73870000 0.996518 130.95 0.083350 40.947 0.083350 40.947 0.996518 130.95
8.73875000 0.996518 130.94 0.083351 40.947 0.083351 40.947 0.996518 130.95
8.73880000 0.996518 130.94 0.083352 40.947 0.083352 40.947 0.996518 130.95
8.73885000 0.996518 130.94 0.083353 40.947 0.083353 40.947 0.996518 130.95
8.73890000 0.996518 130.94 0.083354 40.946 0.083354 40.946 0.996518 130.95
8.73895000 0.996518 130.94 0.083355 40.946 0.083355 40.946 0.996518 130.95
8.73900000 0.996518 130.94 0.083356 40.946 0.083356 40.946 0.996518 130.95
8.73905000 0.996518 130.94 0.083357 40.945 0.083357 40.945 0.996518 130.95
8.73910000 0.996517 130.94 0.083357 40.945 0.083357 40.945 0.996517 130.95
8.73915000 0.996517 130.94 0.083358 40.945 0.083358 40.945 0.996517 130.94
8.73920000 0.996517 130.94 0.083359 40.944 0.083359 40.944 0.996517 130.94
8.73925000 0.996517 130.94 0.083360 40.944 0.083360 40.944 0.996517 130.94
8.73930000 0.996517 130.94 0.083361 40.944 0.083361 40.944 0.996517 130.94
8.73935000 0.996517 130.94 0.083362 40.943 0.083362 40.943 0.996517 130.94
8.73940000 0.996517 130.94 0.083363 40.943 0.083363 40.943 0.996517 130.94
8.73945000 0.996517 130.94 0.083364 40.943 0.083364 40.943 0.996517 130.94
8.73950000 0.996517 130.94 0.083365 40.943 0.083365 40.943 0.996517 130.94
8.73955000 0.996517 130.94 0.083366 40.942 0.083366 40.942 0.996517 130.94
8.73960000 0.996517 130.94 0.083367 40.942 0.083367 40.942 0.996517 130.94