! Sonnet Data File
! From: emgraph Version : 16.52
! From Project: transmon_brgOdd
! Data is De-embedded 
! Data File Written: 11/11/2017 22:28:48
!< HDATE 11/11/2017 18:22:48
!< MDATE 11/11/2017 18:22:48
!< PARAMS
!< Lj = 15.24
!< Gap = 6.0
!< Width = 10.0
!< Airgap = 6.0
!< Pwidth = 2000.0
!< Dist = 2400.0
!< END PARAMS
# GHZ S MA R 34.67000
8.72000000 0.999537 153.81 0.030407 63.927 0.030407 63.927 0.999537 154.05
!< P1 F=8.72 Eeff=(5.13609477 -5.6761e-5) Z0=(34.6490765 -9.5162e-5) R=0.0 C=0.0 
!< P2 F=8.72 Eeff=(5.13609477 -5.6761e-5) Z0=(34.6490765 -9.5162e-5) R=0.0 C=0.0 
8.72005000 0.999537 153.81 0.030407 63.927 0.030407 63.927 0.999537 154.05
8.72010000 0.999537 153.81 0.030408 63.926 0.030408 63.926 0.999537 154.05
8.72015000 0.999537 153.81 0.030408 63.926 0.030408 63.926 0.999537 154.05
8.72020000 0.999537 153.81 0.030409 63.926 0.030409 63.926 0.999537 154.05
8.72025000 0.999537 153.80 0.030409 63.926 0.030409 63.926 0.999537 154.04
8.72030000 0.999537 153.80 0.030410 63.926 0.030410 63.926 0.999537 154.04
8.72035000 0.999537 153.80 0.030410 63.925 0.030410 63.925 0.999537 154.04
8.72040000 0.999537 153.80 0.030411 63.925 0.030411 63.925 0.999537 154.04
8.72045000 0.999537 153.80 0.030411 63.925 0.030411 63.925 0.999537 154.04
8.72050000 0.999537 153.80 0.030412 63.925 0.030412 63.925 0.999537 154.04
8.72055000 0.999537 153.80 0.030412 63.925 0.030412 63.925 0.999537 154.04
8.72060000 0.999537 153.80 0.030413 63.925 0.030413 63.925 0.999537 154.04
8.72065000 0.999537 153.80 0.030413 63.924 0.030413 63.924 0.999537 154.04
8.72070000 0.999537 153.80 0.030414 63.924 0.030414 63.924 0.999537 154.04
8.72075000 0.999537 153.80 0.030414 63.924 0.030414 63.924 0.999537 154.04
8.72080000 0.999537 153.80 0.030415 63.924 0.030415 63.924 0.999537 154.04
8.72085000 0.999537 153.80 0.030415 63.924 0.030415 63.924 0.999537 154.04
8.72090000 0.999537 153.80 0.030416 63.924 0.030416 63.924 0.999537 154.04
8.72095000 0.999537 153.80 0.030416 63.923 0.030416 63.923 0.999537 154.04
8.72100000 0.999537 153.80 0.030417 63.923 0.030417 63.923 0.999537 154.04
8.72105000 0.999537 153.80 0.030417 63.923 0.030417 63.923 0.999537 154.04
8.72110000 0.999537 153.80 0.030418 63.923 0.030418 63.923 0.999537 154.04
8.72115000 0.999537 153.80 0.030418 63.923 0.030418 63.923 0.999537 154.04
8.72120000 0.999537 153.80 0.030419 63.923 0.030419 63.923 0.999537 154.04
8.72125000 0.999536 153.80 0.030419 63.922 0.030419 63.922 0.999537 154.04
8.72130000 0.999536 153.80 0.030420 63.922 0.030420 63.922 0.999537 154.04
8.72135000 0.999536 153.80 0.030420 63.922 0.030420 63.922 0.999536 154.04
8.72140000 0.999536 153.80 0.030421 63.922 0.030421 63.922 0.999536 154.04
8.72145000 0.999536 153.80 0.030421 63.922 0.030421 63.922 0.999536 154.04
8.72150000 0.999536 153.80 0.030422 63.922 0.030422 63.922 0.999536 154.04
8.72155000 0.999536 153.80 0.030422 63.921 0.030422 63.921 0.999536 154.04
8.72160000 0.999536 153.80 0.030423 63.921 0.030423 63.921 0.999536 154.04
8.72165000 0.999536 153.80 0.030423 63.921 0.030423 63.921 0.999536 154.04
8.72170000 0.999536 153.80 0.030424 63.921 0.030424 63.921 0.999536 154.04
8.72175000 0.999536 153.80 0.030424 63.921 0.030424 63.921 0.999536 154.04
8.72180000 0.999536 153.80 0.030425 63.921 0.030425 63.921 0.999536 154.04
8.72185000 0.999536 153.80 0.030425 63.920 0.030425 63.920 0.999536 154.04
8.72190000 0.999536 153.80 0.030426 63.920 0.030426 63.920 0.999536 154.04
8.72195000 0.999536 153.80 0.030426 63.920 0.030426 63.920 0.999536 154.04
8.72200000 0.999536 153.80 0.030427 63.920 0.030427 63.920 0.999536 154.04
8.72205000 0.999536 153.80 0.030427 63.920 0.030427 63.920 0.999536 154.04
8.72210000 0.999536 153.80 0.030428 63.920 0.030428 63.920 0.999536 154.04
8.72215000 0.999536 153.80 0.030428 63.919 0.030428 63.919 0.999536 154.04
8.72220000 0.999536 153.80 0.030429 63.919 0.030429 63.919 0.999536 154.04
8.72225000 0.999536 153.80 0.030429 63.919 0.030429 63.919 0.999536 154.04
8.72230000 0.999536 153.80 0.030430 63.919 0.030430 63.919 0.999536 154.04
8.72235000 0.999536 153.80 0.030430 63.919 0.030430 63.919 0.999536 154.04
8.72240000 0.999536 153.80 0.030431 63.919 0.030431 63.919 0.999536 154.04
8.72245000 0.999536 153.80 0.030431 63.918 0.030431 63.918 0.999536 154.04
8.72250000 0.999536 153.80 0.030432 63.918 0.030432 63.918 0.999536 154.04
8.72255000 0.999536 153.80 0.030432 63.918 0.030432 63.918 0.999536 154.04
8.72260000 0.999536 153.80 0.030433 63.918 0.030433 63.918 0.999536 154.04
8.72265000 0.999536 153.80 0.030433 63.918 0.030433 63.918 0.999536 154.04
8.72270000 0.999536 153.80 0.030434 63.918 0.030434 63.918 0.999536 154.04
8.72275000 0.999536 153.80 0.030434 63.917 0.030434 63.917 0.999536 154.04
8.72280000 0.999536 153.80 0.030435 63.917 0.030435 63.917 0.999536 154.04
8.72285000 0.999536 153.80 0.030435 63.917 0.030435 63.917 0.999536 154.04
8.72290000 0.999536 153.80 0.030436 63.917 0.030436 63.917 0.999536 154.04
8.72295000 0.999536 153.80 0.030436 63.917 0.030436 63.917 0.999536 154.04
8.72300000 0.999536 153.80 0.030437 63.916 0.030437 63.916 0.999536 154.04
8.72305000 0.999536 153.80 0.030437 63.916 0.030437 63.916 0.999536 154.04
8.72310000 0.999536 153.80 0.030438 63.916 0.030438 63.916 0.999536 154.04
8.72315000 0.999536 153.80 0.030438 63.916 0.030438 63.916 0.999536 154.04
8.72320000 0.999536 153.79 0.030439 63.916 0.030439 63.916 0.999536 154.03
8.72325000 0.999536 153.79 0.030439 63.916 0.030439 63.916 0.999536 154.03
8.72330000 0.999536 153.79 0.030440 63.915 0.030440 63.915 0.999536 154.03
8.72335000 0.999536 153.79 0.030440 63.915 0.030440 63.915 0.999536 154.03
8.72340000 0.999536 153.79 0.030441 63.915 0.030441 63.915 0.999536 154.03
8.72345000 0.999536 153.79 0.030441 63.915 0.030441 63.915 0.999536 154.03
8.72350000 0.999536 153.79 0.030442 63.915 0.030442 63.915 0.999536 154.03
8.72355000 0.999536 153.79 0.030442 63.915 0.030442 63.915 0.999536 154.03
8.72360000 0.999536 153.79 0.030443 63.914 0.030443 63.914 0.999536 154.03
8.72365000 0.999536 153.79 0.030443 63.914 0.030443 63.914 0.999536 154.03
8.72370000 0.999536 153.79 0.030444 63.914 0.030444 63.914 0.999536 154.03
8.72375000 0.999536 153.79 0.030445 63.914 0.030445 63.914 0.999536 154.03
8.72380000 0.999536 153.79 0.030445 63.914 0.030445 63.914 0.999536 154.03
8.72385000 0.999536 153.79 0.030446 63.914 0.030446 63.914 0.999536 154.03
8.72390000 0.999536 153.79 0.030446 63.913 0.030446 63.913 0.999536 154.03
8.72395000 0.999536 153.79 0.030447 63.913 0.030447 63.913 0.999536 154.03
8.72400000 0.999536 153.79 0.030447 63.913 0.030447 63.913 0.999536 154.03
8.72405000 0.999536 153.79 0.030448 63.913 0.030448 63.913 0.999536 154.03
8.72410000 0.999536 153.79 0.030448 63.913 0.030448 63.913 0.999536 154.03
8.72415000 0.999536 153.79 0.030449 63.913 0.030449 63.913 0.999536 154.03
8.72420000 0.999536 153.79 0.030449 63.912 0.030449 63.912 0.999536 154.03
8.72425000 0.999536 153.79 0.030450 63.912 0.030450 63.912 0.999536 154.03
8.72430000 0.999536 153.79 0.030450 63.912 0.030450 63.912 0.999536 154.03
8.72435000 0.999536 153.79 0.030451 63.912 0.030451 63.912 0.999536 154.03
8.72440000 0.999536 153.79 0.030451 63.912 0.030451 63.912 0.999536 154.03
8.72445000 0.999535 153.79 0.030452 63.912 0.030452 63.912 0.999536 154.03
8.72450000 0.999535 153.79 0.030452 63.911 0.030452 63.911 0.999535 154.03
8.72455000 0.999535 153.79 0.030453 63.911 0.030453 63.911 0.999535 154.03
8.72460000 0.999535 153.79 0.030453 63.911 0.030453 63.911 0.999535 154.03
8.72465000 0.999535 153.79 0.030454 63.911 0.030454 63.911 0.999535 154.03
8.72470000 0.999535 153.79 0.030454 63.911 0.030454 63.911 0.999535 154.03
8.72475000 0.999535 153.79 0.030455 63.911 0.030455 63.911 0.999535 154.03
8.72480000 0.999535 153.79 0.030456 63.910 0.030456 63.910 0.999535 154.03
8.72485000 0.999535 153.79 0.030456 63.910 0.030456 63.910 0.999535 154.03
8.72490000 0.999535 153.79 0.030457 63.910 0.030457 63.910 0.999535 154.03
8.72495000 0.999535 153.79 0.030457 63.910 0.030457 63.910 0.999535 154.03
8.72500000 0.999535 153.79 0.030458 63.910 0.030458 63.910 0.999535 154.03
8.72505000 0.999535 153.79 0.030458 63.910 0.030458 63.910 0.999535 154.03
8.72510000 0.999535 153.79 0.030459 63.909 0.030459 63.909 0.999535 154.03
8.72515000 0.999535 153.79 0.030459 63.909 0.030459 63.909 0.999535 154.03
8.72520000 0.999535 153.79 0.030460 63.909 0.030460 63.909 0.999535 154.03
8.72525000 0.999535 153.79 0.030460 63.909 0.030460 63.909 0.999535 154.03
8.72530000 0.999535 153.79 0.030461 63.909 0.030461 63.909 0.999535 154.03
8.72535000 0.999535 153.79 0.030461 63.908 0.030461 63.908 0.999535 154.03
8.72540000 0.999535 153.79 0.030462 63.908 0.030462 63.908 0.999535 154.03
8.72545000 0.999535 153.79 0.030462 63.908 0.030462 63.908 0.999535 154.03
8.72550000 0.999535 153.79 0.030463 63.908 0.030463 63.908 0.999535 154.03
8.72555000 0.999535 153.79 0.030463 63.908 0.030463 63.908 0.999535 154.03
8.72560000 0.999535 153.79 0.030464 63.908 0.030464 63.908 0.999535 154.03
8.72565000 0.999535 153.79 0.030465 63.907 0.030465 63.907 0.999535 154.03
8.72570000 0.999535 153.79 0.030465 63.907 0.030465 63.907 0.999535 154.03
8.72575000 0.999535 153.79 0.030466 63.907 0.030466 63.907 0.999535 154.03
8.72580000 0.999535 153.79 0.030466 63.907 0.030466 63.907 0.999535 154.03
8.72585000 0.999535 153.79 0.030467 63.907 0.030467 63.907 0.999535 154.03
8.72590000 0.999535 153.79 0.030467 63.907 0.030467 63.907 0.999535 154.03
8.72595000 0.999535 153.79 0.030468 63.906 0.030468 63.906 0.999535 154.03
8.72600000 0.999535 153.79 0.030468 63.906 0.030468 63.906 0.999535 154.03
8.72605000 0.999535 153.79 0.030469 63.906 0.030469 63.906 0.999535 154.03
8.72610000 0.999535 153.78 0.030469 63.906 0.030469 63.906 0.999535 154.03
8.72615000 0.999535 153.78 0.030470 63.906 0.030470 63.906 0.999535 154.02
8.72620000 0.999535 153.78 0.030470 63.906 0.030470 63.906 0.999535 154.02
8.72625000 0.999535 153.78 0.030471 63.905 0.030471 63.905 0.999535 154.02
8.72630000 0.999535 153.78 0.030472 63.905 0.030472 63.905 0.999535 154.02
8.72635000 0.999535 153.78 0.030472 63.905 0.030472 63.905 0.999535 154.02
8.72640000 0.999535 153.78 0.030473 63.905 0.030473 63.905 0.999535 154.02
8.72645000 0.999535 153.78 0.030473 63.905 0.030473 63.905 0.999535 154.02
8.72650000 0.999535 153.78 0.030474 63.905 0.030474 63.905 0.999535 154.02
8.72655000 0.999535 153.78 0.030474 63.904 0.030474 63.904 0.999535 154.02
8.72660000 0.999535 153.78 0.030475 63.904 0.030475 63.904 0.999535 154.02
8.72665000 0.999535 153.78 0.030475 63.904 0.030475 63.904 0.999535 154.02
8.72670000 0.999535 153.78 0.030476 63.904 0.030476 63.904 0.999535 154.02
8.72675000 0.999535 153.78 0.030476 63.904 0.030476 63.904 0.999535 154.02
8.72680000 0.999535 153.78 0.030477 63.903 0.030477 63.903 0.999535 154.02
8.72685000 0.999535 153.78 0.030477 63.903 0.030477 63.903 0.999535 154.02
8.72690000 0.999535 153.78 0.030478 63.903 0.030478 63.903 0.999535 154.02
8.72695000 0.999535 153.78 0.030479 63.903 0.030479 63.903 0.999535 154.02
8.72700000 0.999535 153.78 0.030479 63.903 0.030479 63.903 0.999535 154.02
8.72705000 0.999535 153.78 0.030480 63.903 0.030480 63.903 0.999535 154.02
8.72710000 0.999535 153.78 0.030480 63.902 0.030480 63.902 0.999535 154.02
8.72715000 0.999535 153.78 0.030481 63.902 0.030481 63.902 0.999535 154.02
8.72720000 0.999535 153.78 0.030481 63.902 0.030481 63.902 0.999535 154.02
8.72725000 0.999535 153.78 0.030482 63.902 0.030482 63.902 0.999535 154.02
8.72730000 0.999535 153.78 0.030482 63.902 0.030482 63.902 0.999535 154.02
8.72735000 0.999535 153.78 0.030483 63.902 0.030483 63.902 0.999535 154.02
8.72740000 0.999535 153.78 0.030484 63.901 0.030484 63.901 0.999535 154.02
8.72745000 0.999535 153.78 0.030484 63.901 0.030484 63.901 0.999535 154.02
8.72750000 0.999534 153.78 0.030485 63.901 0.030485 63.901 0.999535 154.02
8.72755000 0.999534 153.78 0.030485 63.901 0.030485 63.901 0.999534 154.02
8.72760000 0.999534 153.78 0.030486 63.901 0.030486 63.901 0.999534 154.02
8.72765000 0.999534 153.78 0.030486 63.901 0.030486 63.901 0.999534 154.02
8.72770000 0.999534 153.78 0.030487 63.900 0.030487 63.900 0.999534 154.02
8.72775000 0.999534 153.78 0.030487 63.900 0.030487 63.900 0.999534 154.02
8.72780000 0.999534 153.78 0.030488 63.900 0.030488 63.900 0.999534 154.02
8.72785000 0.999534 153.78 0.030488 63.900 0.030488 63.900 0.999534 154.02
8.72790000 0.999534 153.78 0.030489 63.900 0.030489 63.900 0.999534 154.02
8.72795000 0.999534 153.78 0.030490 63.900 0.030490 63.900 0.999534 154.02
8.72800000 0.999534 153.78 0.030490 63.899 0.030490 63.899 0.999534 154.02
8.72805000 0.999534 153.78 0.030491 63.899 0.030491 63.899 0.999534 154.02
8.72810000 0.999534 153.78 0.030491 63.899 0.030491 63.899 0.999534 154.02
8.72815000 0.999534 153.78 0.030492 63.899 0.030492 63.899 0.999534 154.02
8.72820000 0.999534 153.78 0.030492 63.899 0.030492 63.899 0.999534 154.02
8.72825000 0.999534 153.78 0.030493 63.898 0.030493 63.898 0.999534 154.02
8.72830000 0.999534 153.78 0.030494 63.898 0.030494 63.898 0.999534 154.02
8.72835000 0.999534 153.78 0.030494 63.898 0.030494 63.898 0.999534 154.02
8.72840000 0.999534 153.78 0.030495 63.898 0.030495 63.898 0.999534 154.02
8.72845000 0.999534 153.78 0.030495 63.898 0.030495 63.898 0.999534 154.02
8.72850000 0.999534 153.78 0.030496 63.898 0.030496 63.898 0.999534 154.02
8.72855000 0.999534 153.78 0.030496 63.897 0.030496 63.897 0.999534 154.02
8.72860000 0.999534 153.78 0.030497 63.897 0.030497 63.897 0.999534 154.02
8.72865000 0.999534 153.78 0.030497 63.897 0.030497 63.897 0.999534 154.02
8.72870000 0.999534 153.78 0.030498 63.897 0.030498 63.897 0.999534 154.02
8.72875000 0.999534 153.78 0.030499 63.897 0.030499 63.897 0.999534 154.02
8.72880000 0.999534 153.78 0.030499 63.897 0.030499 63.897 0.999534 154.02
8.72885000 0.999534 153.78 0.030500 63.896 0.030500 63.896 0.999534 154.02
8.72890000 0.999534 153.78 0.030500 63.896 0.030500 63.896 0.999534 154.02
8.72895000 0.999534 153.78 0.030501 63.896 0.030501 63.896 0.999534 154.02
8.72900000 0.999534 153.77 0.030501 63.896 0.030501 63.896 0.999534 154.02
8.72905000 0.999534 153.77 0.030502 63.896 0.030502 63.896 0.999534 154.02
8.72910000 0.999534 153.77 0.030503 63.896 0.030503 63.896 0.999534 154.01
8.72915000 0.999534 153.77 0.030503 63.895 0.030503 63.895 0.999534 154.01
8.72920000 0.999534 153.77 0.030504 63.895 0.030504 63.895 0.999534 154.01
8.72925000 0.999534 153.77 0.030504 63.895 0.030504 63.895 0.999534 154.01
8.72930000 0.999534 153.77 0.030505 63.895 0.030505 63.895 0.999534 154.01
8.72935000 0.999534 153.77 0.030505 63.895 0.030505 63.895 0.999534 154.01
8.72940000 0.999534 153.77 0.030506 63.895 0.030506 63.895 0.999534 154.01
8.72945000 0.999534 153.77 0.030506 63.894 0.030506 63.894 0.999534 154.01
8.72950000 0.999534 153.77 0.030507 63.894 0.030507 63.894 0.999534 154.01
8.72955000 0.999534 153.77 0.030508 63.894 0.030508 63.894 0.999534 154.01
8.72960000 0.999534 153.77 0.030508 63.894 0.030508 63.894 0.999534 154.01
8.72965000 0.999534 153.77 0.030509 63.894 0.030509 63.894 0.999534 154.01
8.72970000 0.999534 153.77 0.030509 63.893 0.030509 63.893 0.999534 154.01
8.72975000 0.999534 153.77 0.030510 63.893 0.030510 63.893 0.999534 154.01
8.72980000 0.999534 153.77 0.030511 63.893 0.030511 63.893 0.999534 154.01
8.72985000 0.999534 153.77 0.030511 63.893 0.030511 63.893 0.999534 154.01
8.72990000 0.999534 153.77 0.030512 63.893 0.030512 63.893 0.999534 154.01
8.72995000 0.999534 153.77 0.030512 63.893 0.030512 63.893 0.999534 154.01
8.73000000 0.999534 153.77 0.030513 63.892 0.030513 63.892 0.999534 154.01
8.73005000 0.999534 153.77 0.030513 63.892 0.030513 63.892 0.999534 154.01
8.73010000 0.999534 153.77 0.030514 63.892 0.030514 63.892 0.999534 154.01
8.73015000 0.999534 153.77 0.030515 63.892 0.030515 63.892 0.999534 154.01
8.73020000 0.999534 153.77 0.030515 63.892 0.030515 63.892 0.999534 154.01
8.73025000 0.999534 153.77 0.030516 63.892 0.030516 63.892 0.999534 154.01
8.73030000 0.999534 153.77 0.030516 63.891 0.030516 63.891 0.999534 154.01
8.73035000 0.999533 153.77 0.030517 63.891 0.030517 63.891 0.999534 154.01
8.73040000 0.999533 153.77 0.030517 63.891 0.030517 63.891 0.999533 154.01
8.73045000 0.999533 153.77 0.030518 63.891 0.030518 63.891 0.999533 154.01
8.73050000 0.999533 153.77 0.030519 63.891 0.030519 63.891 0.999533 154.01
8.73055000 0.999533 153.77 0.030519 63.891 0.030519 63.891 0.999533 154.01
8.73060000 0.999533 153.77 0.030520 63.890 0.030520 63.890 0.999533 154.01
8.73065000 0.999533 153.77 0.030520 63.890 0.030520 63.890 0.999533 154.01
8.73070000 0.999533 153.77 0.030521 63.890 0.030521 63.890 0.999533 154.01
8.73075000 0.999533 153.77 0.030522 63.890 0.030522 63.890 0.999533 154.01
8.73080000 0.999533 153.77 0.030522 63.890 0.030522 63.890 0.999533 154.01
8.73085000 0.999533 153.77 0.030523 63.889 0.030523 63.889 0.999533 154.01
8.73090000 0.999533 153.77 0.030523 63.889 0.030523 63.889 0.999533 154.01
8.73095000 0.999533 153.77 0.030524 63.889 0.030524 63.889 0.999533 154.01
8.73100000 0.999533 153.77 0.030524 63.889 0.030524 63.889 0.999533 154.01
8.73105000 0.999533 153.77 0.030525 63.889 0.030525 63.889 0.999533 154.01
8.73110000 0.999533 153.77 0.030526 63.889 0.030526 63.889 0.999533 154.01
8.73115000 0.999533 153.77 0.030526 63.888 0.030526 63.888 0.999533 154.01
8.73120000 0.999533 153.77 0.030527 63.888 0.030527 63.888 0.999533 154.01
8.73125000 0.999533 153.77 0.030527 63.888 0.030527 63.888 0.999533 154.01
8.73130000 0.999533 153.77 0.030528 63.888 0.030528 63.888 0.999533 154.01
8.73135000 0.999533 153.77 0.030529 63.888 0.030529 63.888 0.999533 154.01
8.73140000 0.999533 153.77 0.030529 63.888 0.030529 63.888 0.999533 154.01
8.73145000 0.999533 153.77 0.030530 63.887 0.030530 63.887 0.999533 154.01
8.73150000 0.999533 153.77 0.030530 63.887 0.030530 63.887 0.999533 154.01
8.73155000 0.999533 153.77 0.030531 63.887 0.030531 63.887 0.999533 154.01
8.73160000 0.999533 153.77 0.030532 63.887 0.030532 63.887 0.999533 154.01
8.73165000 0.999533 153.77 0.030532 63.887 0.030532 63.887 0.999533 154.01
8.73170000 0.999533 153.77 0.030533 63.886 0.030533 63.886 0.999533 154.01
8.73175000 0.999533 153.77 0.030533 63.886 0.030533 63.886 0.999533 154.01
8.73180000 0.999533 153.77 0.030534 63.886 0.030534 63.886 0.999533 154.01
8.73185000 0.999533 153.76 0.030535 63.886 0.030535 63.886 0.999533 154.01
8.73190000 0.999533 153.76 0.030535 63.886 0.030535 63.886 0.999533 154.01
8.73195000 0.999533 153.76 0.030536 63.886 0.030536 63.886 0.999533 154.01
8.73200000 0.999533 153.76 0.030536 63.885 0.030536 63.885 0.999533 154.00
8.73205000 0.999533 153.76 0.030537 63.885 0.030537 63.885 0.999533 154.00
8.73210000 0.999533 153.76 0.030538 63.885 0.030538 63.885 0.999533 154.00
8.73215000 0.999533 153.76 0.030538 63.885 0.030538 63.885 0.999533 154.00
8.73220000 0.999533 153.76 0.030539 63.885 0.030539 63.885 0.999533 154.00
8.73225000 0.999533 153.76 0.030539 63.885 0.030539 63.885 0.999533 154.00
8.73230000 0.999533 153.76 0.030540 63.884 0.030540 63.884 0.999533 154.00
8.73235000 0.999533 153.76 0.030541 63.884 0.030541 63.884 0.999533 154.00
8.73240000 0.999533 153.76 0.030541 63.884 0.030541 63.884 0.999533 154.00
8.73245000 0.999533 153.76 0.030542 63.884 0.030542 63.884 0.999533 154.00
8.73250000 0.999533 153.76 0.030542 63.884 0.030542 63.884 0.999533 154.00
8.73255000 0.999533 153.76 0.030543 63.884 0.030543 63.884 0.999533 154.00
8.73260000 0.999533 153.76 0.030544 63.883 0.030544 63.883 0.999533 154.00
8.73265000 0.999533 153.76 0.030544 63.883 0.030544 63.883 0.999533 154.00
8.73270000 0.999533 153.76 0.030545 63.883 0.030545 63.883 0.999533 154.00
8.73275000 0.999533 153.76 0.030545 63.883 0.030545 63.883 0.999533 154.00
8.73280000 0.999533 153.76 0.030546 63.883 0.030546 63.883 0.999533 154.00
8.73285000 0.999533 153.76 0.030547 63.882 0.030547 63.882 0.999533 154.00
8.73290000 0.999533 153.76 0.030547 63.882 0.030547 63.882 0.999533 154.00
8.73295000 0.999533 153.76 0.030548 63.882 0.030548 63.882 0.999533 154.00
8.73300000 0.999533 153.76 0.030548 63.882 0.030548 63.882 0.999533 154.00
8.73305000 0.999532 153.76 0.030549 63.882 0.030549 63.882 0.999533 154.00
8.73310000 0.999532 153.76 0.030550 63.882 0.030550 63.882 0.999532 154.00
8.73315000 0.999532 153.76 0.030550 63.881 0.030550 63.881 0.999532 154.00
8.73320000 0.999532 153.76 0.030551 63.881 0.030551 63.881 0.999532 154.00
8.73325000 0.999532 153.76 0.030551 63.881 0.030551 63.881 0.999532 154.00
8.73330000 0.999532 153.76 0.030552 63.881 0.030552 63.881 0.999532 154.00
8.73335000 0.999532 153.76 0.030553 63.881 0.030553 63.881 0.999532 154.00
8.73340000 0.999532 153.76 0.030553 63.881 0.030553 63.881 0.999532 154.00
8.73345000 0.999532 153.76 0.030554 63.880 0.030554 63.880 0.999532 154.00
8.73350000 0.999532 153.76 0.030555 63.880 0.030555 63.880 0.999532 154.00
8.73355000 0.999532 153.76 0.030555 63.880 0.030555 63.880 0.999532 154.00
8.73360000 0.999532 153.76 0.030556 63.880 0.030556 63.880 0.999532 154.00
8.73365000 0.999532 153.76 0.030556 63.880 0.030556 63.880 0.999532 154.00
8.73370000 0.999532 153.76 0.030557 63.879 0.030557 63.879 0.999532 154.00
8.73375000 0.999532 153.76 0.030558 63.879 0.030558 63.879 0.999532 154.00
8.73380000 0.999532 153.76 0.030558 63.879 0.030558 63.879 0.999532 154.00
8.73385000 0.999532 153.76 0.030559 63.879 0.030559 63.879 0.999532 154.00
8.73390000 0.999532 153.76 0.030560 63.879 0.030560 63.879 0.999532 154.00
8.73395000 0.999532 153.76 0.030560 63.879 0.030560 63.879 0.999532 154.00
8.73400000 0.999532 153.76 0.030561 63.878 0.030561 63.878 0.999532 154.00
8.73405000 0.999532 153.76 0.030561 63.878 0.030561 63.878 0.999532 154.00
8.73410000 0.999532 153.76 0.030562 63.878 0.030562 63.878 0.999532 154.00
8.73415000 0.999532 153.76 0.030563 63.878 0.030563 63.878 0.999532 154.00
8.73420000 0.999532 153.76 0.030563 63.878 0.030563 63.878 0.999532 154.00
8.73425000 0.999532 153.76 0.030564 63.878 0.030564 63.878 0.999532 154.00
8.73430000 0.999532 153.76 0.030565 63.877 0.030565 63.877 0.999532 154.00
8.73435000 0.999532 153.76 0.030565 63.877 0.030565 63.877 0.999532 154.00
8.73440000 0.999532 153.76 0.030566 63.877 0.030566 63.877 0.999532 154.00
8.73445000 0.999532 153.76 0.030566 63.877 0.030566 63.877 0.999532 154.00
8.73450000 0.999532 153.76 0.030567 63.877 0.030567 63.877 0.999532 154.00
8.73455000 0.999532 153.76 0.030568 63.876 0.030568 63.876 0.999532 154.00
8.73460000 0.999532 153.76 0.030568 63.876 0.030568 63.876 0.999532 154.00
8.73465000 0.999532 153.76 0.030569 63.876 0.030569 63.876 0.999532 154.00
8.73470000 0.999532 153.75 0.030570 63.876 0.030570 63.876 0.999532 154.00
8.73475000 0.999532 153.75 0.030570 63.876 0.030570 63.876 0.999532 154.00
8.73480000 0.999532 153.75 0.030571 63.876 0.030571 63.876 0.999532 154.00
8.73485000 0.999532 153.75 0.030571 63.875 0.030571 63.875 0.999532 153.99
8.73490000 0.999532 153.75 0.030572 63.875 0.030572 63.875 0.999532 153.99
8.73495000 0.999532 153.75 0.030573 63.875 0.030573 63.875 0.999532 153.99
8.73500000 0.999532 153.75 0.030573 63.875 0.030573 63.875 0.999532 153.99
8.73505000 0.999532 153.75 0.030574 63.875 0.030574 63.875 0.999532 153.99
8.73510000 0.999532 153.75 0.030575 63.875 0.030575 63.875 0.999532 153.99
8.73515000 0.999532 153.75 0.030575 63.874 0.030575 63.874 0.999532 153.99
8.73520000 0.999532 153.75 0.030576 63.874 0.030576 63.874 0.999532 153.99
8.73525000 0.999532 153.75 0.030577 63.874 0.030577 63.874 0.999532 153.99
8.73530000 0.999532 153.75 0.030577 63.874 0.030577 63.874 0.999532 153.99
8.73535000 0.999532 153.75 0.030578 63.874 0.030578 63.874 0.999532 153.99
8.73540000 0.999532 153.75 0.030579 63.873 0.030579 63.873 0.999532 153.99
8.73545000 0.999532 153.75 0.030579 63.873 0.030579 63.873 0.999532 153.99
8.73550000 0.999532 153.75 0.030580 63.873 0.030580 63.873 0.999532 153.99
8.73555000 0.999532 153.75 0.030580 63.873 0.030580 63.873 0.999532 153.99
8.73560000 0.999532 153.75 0.030581 63.873 0.030581 63.873 0.999532 153.99
8.73565000 0.999531 153.75 0.030582 63.873 0.030582 63.873 0.999532 153.99
8.73570000 0.999531 153.75 0.030582 63.872 0.030582 63.872 0.999531 153.99
8.73575000 0.999531 153.75 0.030583 63.872 0.030583 63.872 0.999531 153.99
8.73580000 0.999531 153.75 0.030584 63.872 0.030584 63.872 0.999531 153.99
8.73585000 0.999531 153.75 0.030584 63.872 0.030584 63.872 0.999531 153.99
8.73590000 0.999531 153.75 0.030585 63.872 0.030585 63.872 0.999531 153.99
8.73595000 0.999531 153.75 0.030586 63.871 0.030586 63.871 0.999531 153.99
8.73600000 0.999531 153.75 0.030586 63.871 0.030586 63.871 0.999531 153.99
8.73605000 0.999531 153.75 0.030587 63.871 0.030587 63.871 0.999531 153.99
8.73610000 0.999531 153.75 0.030588 63.871 0.030588 63.871 0.999531 153.99
8.73615000 0.999531 153.75 0.030588 63.871 0.030588 63.871 0.999531 153.99
8.73620000 0.999531 153.75 0.030589 63.871 0.030589 63.871 0.999531 153.99
8.73625000 0.999531 153.75 0.030590 63.870 0.030590 63.870 0.999531 153.99
8.73630000 0.999531 153.75 0.030590 63.870 0.030590 63.870 0.999531 153.99
8.73635000 0.999531 153.75 0.030591 63.870 0.030591 63.870 0.999531 153.99
8.73640000 0.999531 153.75 0.030592 63.870 0.030592 63.870 0.999531 153.99
8.73645000 0.999531 153.75 0.030592 63.870 0.030592 63.870 0.999531 153.99
8.73650000 0.999531 153.75 0.030593 63.870 0.030593 63.870 0.999531 153.99
8.73655000 0.999531 153.75 0.030593 63.869 0.030593 63.869 0.999531 153.99
8.73660000 0.999531 153.75 0.030594 63.869 0.030594 63.869 0.999531 153.99
8.73665000 0.999531 153.75 0.030595 63.869 0.030595 63.869 0.999531 153.99
8.73670000 0.999531 153.75 0.030595 63.869 0.030595 63.869 0.999531 153.99
8.73675000 0.999531 153.75 0.030596 63.869 0.030596 63.869 0.999531 153.99
8.73680000 0.999531 153.75 0.030597 63.868 0.030597 63.868 0.999531 153.99
8.73685000 0.999531 153.75 0.030597 63.868 0.030597 63.868 0.999531 153.99
8.73690000 0.999531 153.75 0.030598 63.868 0.030598 63.868 0.999531 153.99
8.73695000 0.999531 153.75 0.030599 63.868 0.030599 63.868 0.999531 153.99
8.73700000 0.999531 153.75 0.030599 63.868 0.030599 63.868 0.999531 153.99
8.73705000 0.999531 153.75 0.030600 63.868 0.030600 63.868 0.999531 153.99
8.73710000 0.999531 153.75 0.030601 63.867 0.030601 63.867 0.999531 153.99
8.73715000 0.999531 153.75 0.030601 63.867 0.030601 63.867 0.999531 153.99
8.73720000 0.999531 153.75 0.030602 63.867 0.030602 63.867 0.999531 153.99
8.73725000 0.999531 153.75 0.030603 63.867 0.030603 63.867 0.999531 153.99
8.73730000 0.999531 153.75 0.030603 63.867 0.030603 63.867 0.999531 153.99
8.73735000 0.999531 153.75 0.030604 63.866 0.030604 63.866 0.999531 153.99
8.73740000 0.999531 153.75 0.030605 63.866 0.030605 63.866 0.999531 153.99
8.73745000 0.999531 153.74 0.030605 63.866 0.030605 63.866 0.999531 153.99
8.73750000 0.999531 153.74 0.030606 63.866 0.030606 63.866 0.999531 153.99
8.73755000 0.999531 153.74 0.030607 63.866 0.030607 63.866 0.999531 153.99
8.73760000 0.999531 153.74 0.030607 63.866 0.030607 63.866 0.999531 153.99
8.73765000 0.999531 153.74 0.030608 63.865 0.030608 63.865 0.999531 153.98
8.73770000 0.999531 153.74 0.030609 63.865 0.030609 63.865 0.999531 153.98
8.73775000 0.999531 153.74 0.030610 63.865 0.030610 63.865 0.999531 153.98
8.73780000 0.999531 153.74 0.030610 63.865 0.030610 63.865 0.999531 153.98
8.73785000 0.999531 153.74 0.030611 63.865 0.030611 63.865 0.999531 153.98
8.73790000 0.999531 153.74 0.030612 63.865 0.030612 63.865 0.999531 153.98
8.73795000 0.999531 153.74 0.030612 63.864 0.030612 63.864 0.999531 153.98
8.73800000 0.999531 153.74 0.030613 63.864 0.030613 63.864 0.999531 153.98
8.73805000 0.999530 153.74 0.030614 63.864 0.030614 63.864 0.999531 153.98
8.73810000 0.999530 153.74 0.030614 63.864 0.030614 63.864 0.999530 153.98
8.73815000 0.999530 153.74 0.030615 63.864 0.030615 63.864 0.999530 153.98
8.73820000 0.999530 153.74 0.030616 63.863 0.030616 63.863 0.999530 153.98
8.73825000 0.999530 153.74 0.030616 63.863 0.030616 63.863 0.999530 153.98
8.73830000 0.999530 153.74 0.030617 63.863 0.030617 63.863 0.999530 153.98
8.73835000 0.999530 153.74 0.030618 63.863 0.030618 63.863 0.999530 153.98
8.73840000 0.999530 153.74 0.030618 63.863 0.030618 63.863 0.999530 153.98
8.73845000 0.999530 153.74 0.030619 63.863 0.030619 63.863 0.999530 153.98
8.73850000 0.999530 153.74 0.030620 63.862 0.030620 63.862 0.999530 153.98
8.73855000 0.999530 153.74 0.030620 63.862 0.030620 63.862 0.999530 153.98
8.73860000 0.999530 153.74 0.030621 63.862 0.030621 63.862 0.999530 153.98
8.73865000 0.999530 153.74 0.030622 63.862 0.030622 63.862 0.999530 153.98
8.73870000 0.999530 153.74 0.030623 63.862 0.030623 63.862 0.999530 153.98
8.73875000 0.999530 153.74 0.030623 63.861 0.030623 63.861 0.999530 153.98
8.73880000 0.999530 153.74 0.030624 63.861 0.030624 63.861 0.999530 153.98
8.73885000 0.999530 153.74 0.030625 63.861 0.030625 63.861 0.999530 153.98
8.73890000 0.999530 153.74 0.030625 63.861 0.030625 63.861 0.999530 153.98
8.73895000 0.999530 153.74 0.030626 63.861 0.030626 63.861 0.999530 153.98
8.73900000 0.999530 153.74 0.030627 63.861 0.030627 63.861 0.999530 153.98
8.73905000 0.999530 153.74 0.030627 63.860 0.030627 63.860 0.999530 153.98
8.73910000 0.999530 153.74 0.030628 63.860 0.030628 63.860 0.999530 153.98
8.73915000 0.999530 153.74 0.030629 63.860 0.030629 63.860 0.999530 153.98
8.73920000 0.999530 153.74 0.030630 63.860 0.030630 63.860 0.999530 153.98
8.73925000 0.999530 153.74 0.030630 63.860 0.030630 63.860 0.999530 153.98
8.73930000 0.999530 153.74 0.030631 63.859 0.030631 63.859 0.999530 153.98
8.73935000 0.999530 153.74 0.030632 63.859 0.030632 63.859 0.999530 153.98
8.73940000 0.999530 153.74 0.030632 63.859 0.030632 63.859 0.999530 153.98
8.73945000 0.999530 153.74 0.030633 63.859 0.030633 63.859 0.999530 153.98
8.73950000 0.999530 153.74 0.030634 63.859 0.030634 63.859 0.999530 153.98
8.73955000 0.999530 153.74 0.030634 63.859 0.030634 63.859 0.999530 153.98
8.73960000 0.999530 153.74 0.030635 63.858 0.030635 63.858 0.999530 153.98