! Sonnet Data File
! From: emgraph Version : 16.52
! From Project: 171114transmon_trace_brg
! Data is De-embedded 
! Data File Written: 11/14/2017 19:58:17
!< HDATE 11/14/2017 18:03:22
!< MDATE 11/14/2017 18:03:22
!< PARAMS
!< Lj = 15.24
!< Gap = 14.0
!< Width = 10.0
!< Airgap = 6.0
!< Pwidth = 2000.0
!< Dist = 1800.0
!< END PARAMS
# GHZ S MA R 34.87000
8.615000000000000 0.9977416655403 137.17374605984 0.0671375209039 47.172675462547 0.0671375209040 47.172675462760 0.9977416694811 137.16997516839
!< P1 F=8.615 Eeff=(5.13377404 -5.6313e-5) Z0=(34.6595714 -9.1612e-5) R=0.0 C=0.0 
!< P2 F=8.615 Eeff=(5.13377404 -5.6313e-5) Z0=(34.6595714 -9.1612e-5) R=0.0 C=0.0 
8.615005000000000 0.9977416541825 137.17371371537 0.0671376897388 47.172642761358 0.0671376897388 47.172642761358 0.9977416574666 137.16994286223
8.615010000000000 0.9977416422968 137.17368133387 0.0671378588848 47.172609986972 0.0671378588848 47.172609986972 0.9977416455859 137.16991054779
8.615015000000001 0.9977416303996 137.17364894345 0.0671380281851 47.172577202862 0.0671380281851 47.172577202862 0.9977416336938 137.16987822452
8.615020000000001 0.9977416184910 137.17361654410 0.0671381976403 47.172544408997 0.0671381976403 47.172544408997 0.9977416217903 137.16984589241
8.615025000000001 0.9977416065710 137.17358413578 0.0671383672507 47.172511605371 0.0671383672507 47.172511605371 0.9977416098753 137.16981355142
8.615030000000001 0.9977415946394 137.17355171849 0.0671385370168 47.172478791953 0.0671385370168 47.172478791953 0.9977415979488 137.16978120154
8.615035000000001 0.9977415826963 137.17351929220 0.0671387069386 47.172445968715 0.0671387069386 47.172445968715 0.9977415860107 137.16974884276
8.615040000000000 0.9977415707416 137.17348685690 0.0671388770166 47.172413135659 0.0671388770166 47.172413135659 0.9977415740612 137.16971647506
8.615045000000000 0.9977415587754 137.17345441258 0.0671390472507 47.172380292776 0.0671390472507 47.172380292776 0.9977415621001 137.16968409844
8.615050000000000 0.9977415467975 137.17342195921 0.0671392176418 47.172347440001 0.0671392176418 47.172347440001 0.9977415501273 137.16965171285
8.615055000000000 0.9977415348081 137.17338949678 0.0671393881898 47.172314577351 0.0671393881898 47.172314577351 0.9977415381430 137.16961931829
8.615060000000000 0.9977415228070 137.17335702527 0.0671395588951 47.172281704799 0.0671395588951 47.172281704799 0.9977415261471 137.16958691475
8.615065000000001 0.9977415107943 137.17332454466 0.0671397297581 47.172248822313 0.0671397297581 47.172248822313 0.9977415141395 137.16955450219
8.615070000000001 0.9977414987699 137.17329205494 0.0671399007789 47.172215929893 0.0671399007789 47.172215929893 0.9977415021202 137.16952208062
8.615075000000001 0.9977414867337 137.17325955610 0.0671400719579 47.172183027513 0.0671400719579 47.172183027513 0.9977414900892 137.16948965001
8.615080000000001 0.9977414746858 137.17322704808 0.0671402432957 47.172150115130 0.0671402432957 47.172150115130 0.9977414780465 137.16945721033
8.615085000000001 0.9977414626262 137.17319453091 0.0671404147922 47.172117192749 0.0671404147922 47.172117192749 0.9977414659921 137.16942476158
8.615090000000000 0.9977414505548 137.17316200454 0.0671405864479 47.172084260330 0.0671405864479 47.172084260330 0.9977414539258 137.16939230372
8.615095000000000 0.9977414384715 137.17312946897 0.0671407582631 47.172051317878 0.0671407582631 47.172051317878 0.9977414418478 137.16935983676
8.615100000000000 0.9977414263765 137.17309692419 0.0671409302380 47.172018365360 0.0671409302380 47.172018365360 0.9977414297580 137.16932736068
8.615105000000000 0.9977414142696 137.17306437016 0.0671411023731 47.171985402755 0.0671411023731 47.171985402755 0.9977414176563 137.16929487544
8.615110000000001 0.9977414021508 137.17303180687 0.0671412746685 47.171952430051 0.0671412746685 47.171952430051 0.9977414055427 137.16926238104
8.615115000000001 0.9977413900201 137.17299923430 0.0671414471247 47.171919447199 0.0671414471247 47.171919447199 0.9977413934173 137.16922987745
8.615120000000001 0.9977413778775 137.17296665244 0.0671416197419 47.171886454227 0.0671416197419 47.171886454227 0.9977413812799 137.16919736466
8.615125000000001 0.9977413657229 137.17293406127 0.0671417925205 47.171853451063 0.0671417925205 47.171853451063 0.9977413691306 137.16916484265
8.615130000000001 0.9977413535563 137.17290146077 0.0671419654606 47.171820437733 0.0671419654606 47.171820437733 0.9977413569694 137.16913231141
8.615135000000000 0.9977413413778 137.17286885091 0.0671421385630 47.171787414176 0.0671421385630 47.171787414176 0.9977413447961 137.16909977090
8.615140000000000 0.9977413291872 137.17283623169 0.0671423118275 47.171754380393 0.0671423118275 47.171754380393 0.9977413326108 137.16906722113
8.615145000000000 0.9977413169846 137.17280360307 0.0671424852548 47.171721336353 0.0671424852548 47.171721336353 0.9977413204135 137.16903466205
8.615150000000000 0.9977413047699 137.17277096506 0.0671426588449 47.171688282060 0.0671426588449 47.171688282060 0.9977413082042 137.16900209368
8.615155000000000 0.9977412925431 137.17273831762 0.0671428325984 47.171655217450 0.0671428325984 47.171655217450 0.9977412959827 137.16896951596
8.615160000000001 0.9977412803042 137.17270566074 0.0671430065154 47.171622142551 0.0671430065154 47.171622142551 0.9977412837492 137.16893692891
8.615165000000001 0.9977412680532 137.17267299440 0.0671431805963 47.171589057304 0.0671431805963 47.171589057304 0.9977412715035 137.16890433248
8.615170000000001 0.9977412557899 137.17264031857 0.0671433548416 47.171555961694 0.0671433548416 47.171555961694 0.9977412592456 137.16887172667
8.615175000000001 0.9977412435145 137.17260763326 0.0671435292511 47.171522855735 0.0671435292511 47.171522855735 0.9977412469756 137.16883911147
8.615180000000001 0.9977412312269 137.17257493843 0.0671437038256 47.171489739366 0.0671437038256 47.171489739366 0.9977412346933 137.16880648684
8.615185000000000 0.9977412189270 137.17254223406 0.0671438785654 47.171456612577 0.0671438785654 47.171456612577 0.9977412223988 137.16877385277
8.615190000000000 0.9977412066148 137.17250952013 0.0671440534708 47.171423475337 0.0671440534708 47.171423475337 0.9977412100921 137.16874120924
8.615195000000000 0.9977411942904 137.17247679662 0.0671442285421 47.171390327654 0.0671442285421 47.171390327654 0.9977411977731 137.16870855623
8.615200000000000 0.9977411819536 137.17244406354 0.0671444037794 47.171357169488 0.0671444037794 47.171357169488 0.9977411854417 137.16867589373
8.615205000000001 0.9977411696045 137.17241132084 0.0671445791833 47.171324000808 0.0671445791833 47.171324000808 0.9977411730981 137.16864322172
8.615210000000001 0.9977411572430 137.17237856851 0.0671447547540 47.171290821607 0.0671447547540 47.171290821607 0.9977411607420 137.16861054017
8.615215000000001 0.9977411448692 137.17234580653 0.0671449304919 47.171257631869 0.0671449304919 47.171257631869 0.9977411483736 137.16857784907
8.615220000000001 0.9977411324828 137.17231303487 0.0671451063975 47.171224431548 0.0671451063975 47.171224431548 0.9977411359928 137.16854514839
8.615225000000001 0.9977411200841 137.17228025354 0.0671452824707 47.171191220648 0.0671452824707 47.171191220648 0.9977411235995 137.16851243813
8.615230000000000 0.9977411076729 137.17224746249 0.0671454587122 47.171157999131 0.0671454587122 47.171157999131 0.9977411111938 137.16847971825
8.615235000000000 0.9977410952491 137.17221466172 0.0671456351222 47.171124766973 0.0671456351222 47.171124766973 0.9977410987756 137.16844698875
8.615240000000000 0.9977410828129 137.17218185120 0.0671458117012 47.171091524156 0.0671458117012 47.171091524156 0.9977410863449 137.16841424959
8.615245000000000 0.9977410703641 137.17214903091 0.0671459884493 47.171058270676 0.0671459884493 47.171058270676 0.9977410739016 137.16838150077
8.615250000000001 0.9977410579027 137.17211620086 0.0671461653667 47.171025006505 0.0671461653667 47.171025006505 0.9977410614458 137.16834874228
8.615255000000001 0.9977410454287 137.17208336097 0.0671463424543 47.170991731585 0.0671463424543 47.170991731585 0.9977410489774 137.16831597406
8.615260000000001 0.9977410329421 137.17205051128 0.0671465197120 47.170958445933 0.0671465197120 47.170958445933 0.9977410364963 137.16828319612
8.615265000000001 0.9977410204429 137.17201765174 0.0671466971401 47.170925149534 0.0671466971401 47.170925149534 0.9977410240027 137.16825040844
8.615270000000001 0.9977410079310 137.17198478235 0.0671468747391 47.170891842333 0.0671468747391 47.170891842333 0.9977410114963 137.16821761100
8.615275000000000 0.9977409954063 137.17195190307 0.0671470525093 47.170858524327 0.0671470525093 47.170858524327 0.9977409989773 137.16818480378
8.615280000000000 0.9977409828690 137.17191901388 0.0671472304512 47.170825195482 0.0671472304512 47.170825195482 0.9977409864455 137.16815198674
8.615285000000000 0.9977409703188 137.17188611477 0.0671474085649 47.170791855790 0.0671474085649 47.170791855790 0.9977409739010 137.16811915989
8.615290000000000 0.9977409577559 137.17185320571 0.0671475868511 47.170758505206 0.0671475868511 47.170758505206 0.9977409613437 137.16808632319
8.615295000000000 0.9977409451802 137.17182028669 0.0671477653098 47.170725143737 0.0671477653098 47.170725143737 0.9977409487737 137.16805347663
8.615300000000001 0.9977409325916 137.17178735770 0.0671479439413 47.170691771334 0.0671479439413 47.170691771334 0.9977409361907 137.16802062019
8.615305000000001 0.9977409199902 137.17175441870 0.0671481227462 47.170658388000 0.0671481227462 47.170658388000 0.9977409235950 137.16798775385
8.615310000000001 0.9977409073759 137.17172146969 0.0671483017246 47.170624993692 0.0671483017246 47.170624993692 0.9977409109863 137.16795487759
8.615315000000001 0.9977408947486 137.17168851062 0.0671484808772 47.170591588391 0.0671484808772 47.170591588391 0.9977408983648 137.16792199138
8.615320000000001 0.9977408821084 137.17165554150 0.0671486602039 47.170558172087 0.0671486602039 47.170558172087 0.9977408857303 137.16788909522
8.615325000000000 0.9977408694553 137.17162256230 0.0671488397054 47.170524744743 0.0671488397054 47.170524744743 0.9977408730829 137.16785618907
8.615330000000000 0.9977408567891 137.17158957298 0.0671490193821 47.170491306339 0.0671490193821 47.170491306339 0.9977408604225 137.16782327292
8.615335000000000 0.9977408441099 137.17155657355 0.0671491992340 47.170457856853 0.0671491992340 47.170457856853 0.9977408477490 137.16779034675
8.615340000000000 0.9977408314177 137.17152356397 0.0671493792617 47.170424396251 0.0671493792617 47.170424396251 0.9977408350625 137.16775741053
8.615345000000001 0.9977408187124 137.17149054423 0.0671495594656 47.170390924543 0.0671495594656 47.170390924543 0.9977408223630 137.16772446426
8.615350000000001 0.9977408059940 137.17145751430 0.0671497398459 47.170357441673 0.0671497398459 47.170357441673 0.9977408096504 137.16769150790
8.615355000000001 0.9977407932624 137.17142447418 0.0671499204028 47.170323947631 0.0671499204028 47.170323947631 0.9977407969246 137.16765854144
8.615360000000001 0.9977407805177 137.17139142382 0.0671501011371 47.170290442395 0.0671501011371 47.170290442395 0.9977407841857 137.16762556486
8.615365000000001 0.9977407677598 137.17135836321 0.0671502820489 47.170256925928 0.0671502820489 47.170256925928 0.9977407714336 137.16759257813
8.615370000000000 0.9977407549886 137.17132529233 0.0671504631388 47.170223398210 0.0671504631388 47.170223398210 0.9977407586683 137.16755958122
8.615375000000000 0.9977407422043 137.17129221117 0.0671506444067 47.170189859243 0.0671506444067 47.170189859243 0.9977407458897 137.16752657415
8.615380000000000 0.9977407294066 137.17125911971 0.0671508258531 47.170156308981 0.0671508258531 47.170156308981 0.9977407330980 137.16749355687
8.615385000000000 0.9977407165957 137.17122601790 0.0671510074787 47.170122747404 0.0671510074787 47.170122747404 0.9977407202929 137.16746052936
8.615390000000000 0.9977407037714 137.17119290575 0.0671511892836 47.170089174477 0.0671511892836 47.170089174477 0.9977407074745 137.16742749160
8.615395000000001 0.9977406909338 137.17115978322 0.0671513712682 47.170055590189 0.0671513712682 47.170055590189 0.9977406946427 137.16739444357
8.615400000000001 0.9977406780828 137.17112665030 0.0671515534329 47.170021994514 0.0671515534329 47.170021994514 0.9977406817976 137.16736138525
8.615405000000001 0.9977406652183 137.17109350698 0.0671517357779 47.169988387439 0.0671517357779 47.169988387439 0.9977406689391 137.16732831663
8.615410000000001 0.9977406523405 137.17106035321 0.0671519183038 47.169954768933 0.0671519183038 47.169954768933 0.9977406560672 137.16729523768
8.615415000000000 0.9977406394491 137.17102718899 0.0671521010108 47.169921138956 0.0671521010108 47.169921138956 0.9977406431818 137.16726214837
8.615420000000000 0.9977406265443 137.17099401428 0.0671522838996 47.169887497487 0.0671522838996 47.169887497487 0.9977406302828 137.16722904868
8.615425000000000 0.9977406136259 137.17096082908 0.0671524669701 47.169853844527 0.0671524669701 47.169853844527 0.9977406173704 137.16719593860
8.615430000000000 0.9977406006940 137.17092763336 0.0671526502229 47.169820180033 0.0671526502229 47.169820180033 0.9977406044445 137.16716281812
8.615435000000000 0.9977405877485 137.17089442709 0.0671528336584 47.169786503993 0.0671528336584 47.169786503993 0.9977405915050 137.16712968719
8.615440000000001 0.9977405747894 137.17086121027 0.0671530172768 47.169752816361 0.0671530172768 47.169752816361 0.9977405785519 137.16709654581
8.615445000000001 0.9977405618166 137.17082798285 0.0671532010787 47.169719117131 0.0671532010787 47.169719117131 0.9977405655851 137.16706339394
8.615450000000001 0.9977405488302 137.17079474483 0.0671533850643 47.169685406273 0.0671533850643 47.169685406273 0.9977405526047 137.16703023158
8.615455000000001 0.9977405358301 137.17076149617 0.0671535692343 47.169651683746 0.0671535692343 47.169651683746 0.9977405396106 137.16699705868
8.615460000000001 0.9977405228162 137.17072823688 0.0671537535885 47.169617949558 0.0671537535885 47.169617949558 0.9977405266028 137.16696387526
8.615465000000000 0.9977405097886 137.17069496691 0.0671539381276 47.169584203671 0.0671539381276 47.169584203671 0.9977405135813 137.16693068127
8.615470000000000 0.9977404967472 137.17066168622 0.0671541228526 47.169550446027 0.0671541228526 47.169550446027 0.9977405005460 137.16689747666
8.615475000000000 0.9977404836920 137.17062839484 0.0671543077627 47.169516676658 0.0671543077627 47.169516676658 0.9977404874968 137.16686426148
8.615480000000000 0.9977404706229 137.17059509271 0.0671544928590 47.169482895499 0.0671544928590 47.169482895499 0.9977404744339 137.16683103565
8.615485000000001 0.9977404575400 137.17056177984 0.0671546781416 47.169449102554 0.0671546781416 47.169449102554 0.9977404613571 137.16679779918
8.615490000000001 0.9977404444431 137.17052845616 0.0671548636112 47.169415297756 0.0671548636112 47.169415297756 0.9977404482664 137.16676455202
8.615495000000001 0.9977404313324 137.17049512169 0.0671550492680 47.169381481125 0.0671550492680 47.169381481125 0.9977404351617 137.16673129417
8.615500000000001 0.9977404182076 137.17046177639 0.0671552351124 47.169347652610 0.0671552351124 47.169347652610 0.9977404220431 137.16669802560
8.615505000000001 0.9977404050689 137.17042842024 0.0671554211447 47.169313812199 0.0671554211447 47.169313812199 0.9977404089106 137.16666474630
8.615510000000000 0.9977403919162 137.17039505321 0.0671556073654 47.169279959848 0.0671556073654 47.169279959848 0.9977403957640 137.16663145623
8.615515000000000 0.9977403787494 137.17036167529 0.0671557937749 47.169246095542 0.0671557937749 47.169246095542 0.9977403826034 137.16659815537
8.615520000000000 0.9977403655685 137.17032828647 0.0671559803733 47.169212219266 0.0671559803733 47.169212219266 0.9977403694287 137.16656484371
8.615525000000000 0.9977403523735 137.17029488668 0.0671561671617 47.169178330974 0.0671561671617 47.169178330974 0.9977403562399 137.16653152121
8.615530000000000 0.9977403391643 137.17026147595 0.0671563541397 47.169144430667 0.0671563541397 47.169144430667 0.9977403430370 137.16649818787
8.615535000000001 0.9977403259410 137.17022805423 0.0671565413080 47.169110518294 0.0671565413080 47.169110518294 0.9977403298200 137.16646484365
8.615540000000001 0.9977403127035 137.17019462150 0.0671567286672 47.169076593843 0.0671567286672 47.169076593842 0.9977403165887 137.16643148853
8.615545000000001 0.9977402994517 137.17016117773 0.0671569162175 47.169042657258 0.0671569162175 47.169042657258 0.9977403033432 137.16639812248
8.615550000000001 0.9977402861857 137.17012772294 0.0671571039590 47.169008708585 0.0671571039590 47.169008708585 0.9977402900835 137.16636474552
8.615555000000001 0.9977402729054 137.17009425704 0.0671572918928 47.168974747718 0.0671572918928 47.168974747718 0.9977402768095 137.16633135756
8.615560000000000 0.9977402596108 137.17006078005 0.0671574800187 47.168940774676 0.0671574800187 47.168940774676 0.9977402635211 137.16629795863
8.615565000000000 0.9977402463018 137.17002729195 0.0671576683372 47.168906789434 0.0671576683372 47.168906789434 0.9977402502185 137.16626454869
8.615570000000000 0.9977402329784 137.16999379268 0.0671578568490 47.168872791928 0.0671578568490 47.168872791928 0.9977402369014 137.16623112771
8.615575000000000 0.9977402196406 137.16996028226 0.0671580455543 47.168838782165 0.0671580455543 47.168838782165 0.9977402235700 137.16619769567
8.615580000000001 0.9977402062883 137.16992676064 0.0671582344534 47.168804760117 0.0671582344534 47.168804760117 0.9977402102241 137.16616425256
8.615585000000001 0.9977401929216 137.16989322781 0.0671584235469 47.168770725755 0.0671584235469 47.168770725755 0.9977401968637 137.16613079834
8.615590000000001 0.9977401795403 137.16985968374 0.0671586128350 47.168736679046 0.0671586128350 47.168736679046 0.9977401834889 137.16609733300
8.615595000000001 0.9977401661445 137.16982612840 0.0671588023185 47.168702619942 0.0671588023185 47.168702619942 0.9977401700995 137.16606385650
8.615600000000001 0.9977401527341 137.16979256178 0.0671589919973 47.168668548464 0.0671589919973 47.168668548464 0.9977401566955 137.16603036884
8.615605000000000 0.9977401393092 137.16975898386 0.0671591818719 47.168634464579 0.0671591818719 47.168634464579 0.9977401432770 137.16599686999
8.615610000000000 0.9977401258696 137.16972539459 0.0671593719433 47.168600368210 0.0671593719433 47.168600368210 0.9977401298438 137.16596335990
8.615615000000000 0.9977401124153 137.16969179395 0.0671595622115 47.168566259354 0.0671595622115 47.168566259354 0.9977401163960 137.16592983856
8.615620000000000 0.9977400989463 137.16965818196 0.0671597526764 47.168532138031 0.0671597526764 47.168532138031 0.9977401029335 137.16589630598
8.615625000000001 0.9977400854626 137.16962455857 0.0671599433389 47.168498004160 0.0671599433389 47.168498004160 0.9977400894563 137.16586276211
8.615630000000001 0.9977400719641 137.16959092373 0.0671601341997 47.168463857714 0.0671601341997 47.168463857714 0.9977400759643 137.16582920691
8.615635000000001 0.9977400584508 137.16955727744 0.0671603252589 47.168429698692 0.0671603252589 47.168429698692 0.9977400624575 137.16579564037
8.615640000000001 0.9977400449227 137.16952361967 0.0671605165170 47.168395527045 0.0671605165170 47.168395527045 0.9977400489359 137.16576206247
8.615645000000001 0.9977400313797 137.16948995042 0.0671607079740 47.168361342784 0.0671607079740 47.168361342784 0.9977400353995 137.16572847321
8.615650000000000 0.9977400178218 137.16945626962 0.0671608996310 47.168327145836 0.0671608996310 47.168327145836 0.9977400218482 137.16569487251
8.615655000000000 0.9977400042490 137.16942257727 0.0671610914882 47.168292936181 0.0671610914882 47.168292936181 0.9977400082820 137.16566126038
8.615660000000000 0.9977399906612 137.16938887337 0.0671612835457 47.168258713817 0.0671612835457 47.168258713817 0.9977399947008 137.16562763681
8.615665000000000 0.9977399770585 137.16935515786 0.0671614758041 47.168224478700 0.0671614758041 47.168224478700 0.9977399811046 137.16559400175
8.615670000000000 0.9977399634407 137.16932143073 0.0671616682639 47.168190230807 0.0671616682639 47.168190230807 0.9977399674935 137.16556035519
8.615675000000001 0.9977399498079 137.16928769195 0.0671618609256 47.168155970088 0.0671618609256 47.168155970088 0.9977399538673 137.16552669709
8.615680000000001 0.9977399361599 137.16925394150 0.0671620537894 47.168121696550 0.0671620537894 47.168121696550 0.9977399402260 137.16549302744
8.615685000000001 0.9977399224969 137.16922017936 0.0671622468557 47.168087410155 0.0671622468557 47.168087410155 0.9977399265696 137.16545934622
8.615690000000001 0.9977399088187 137.16918640550 0.0671624401253 47.168053110856 0.0671624401253 47.168053110856 0.9977399128981 137.16542565338
8.615695000000001 0.9977398951253 137.16915261988 0.0671626335984 47.168018798636 0.0671626335984 47.168018798636 0.9977398992114 137.16539194892
8.615700000000000 0.9977398814166 137.16911882247 0.0671628272759 47.167984473440 0.0671628272759 47.167984473440 0.9977398855094 137.16535823278
8.615705000000000 0.9977398676928 137.16908501331 0.0671630211570 47.167950135312 0.0671630211570 47.167950135312 0.9977398717923 137.16532450501
8.615710000000000 0.9977398539536 137.16905119230 0.0671632152432 47.167915784155 0.0671632152432 47.167915784155 0.9977398580598 137.16529076551
8.615715000000000 0.9977398401991 137.16901735945 0.0671634095347 47.167881419974 0.0671634095347 47.167881419974 0.9977398443121 137.16525701429
8.615720000000001 0.9977398264292 137.16898351474 0.0671636040318 47.167847042729 0.0671636040318 47.167847042729 0.9977398305490 137.16522325132
8.615725000000001 0.9977398126440 137.16894965812 0.0671637987350 47.167812652393 0.0671637987350 47.167812652393 0.9977398167705 137.16518947657
8.615730000000001 0.9977397988433 137.16891578959 0.0671639936447 47.167778248937 0.0671639936447 47.167778248937 0.9977398029766 137.16515569002
8.615735000000001 0.9977397850272 137.16888190910 0.0671641887615 47.167743832328 0.0671641887615 47.167743832328 0.9977397891673 137.16512189164
8.615740000000001 0.9977397711955 137.16884801664 0.0671643840859 47.167709402523 0.0671643840859 47.167709402523 0.9977397753425 137.16508808140
8.615745000000000 0.9977397573484 137.16881411218 0.0671645796179 47.167674959542 0.0671645796179 47.167674959542 0.9977397615022 137.16505425929
8.615750000000000 0.9977397434857 137.16878019573 0.0671647753580 47.167640503331 0.0671647753580 47.167640503331 0.9977397476463 137.16502042530
8.615755000000000 0.9977397296073 137.16874626719 0.0671649713073 47.167606033833 0.0671649713073 47.167606033833 0.9977397337749 137.16498657935
8.615760000000000 0.9977397157134 137.16871232659 0.0671651674657 47.167571551035 0.0671651674657 47.167571551035 0.9977397198878 137.16495272146
8.615765000000000 0.9977397018037 137.16867837388 0.0671653638338 47.167537054914 0.0671653638338 47.167537054914 0.9977397059851 137.16491885158
8.615770000000001 0.9977396878784 137.16864440905 0.0671655604119 47.167502545460 0.0671655604119 47.167502545460 0.9977396920667 137.16488496970
8.615775000000001 0.9977396739374 137.16861043207 0.0671657572006 47.167468022607 0.0671657572006 47.167468022607 0.9977396781326 137.16485107579
8.615780000000001 0.9977396599806 137.16857644291 0.0671659542002 47.167433486353 0.0671659542002 47.167433486353 0.9977396641827 137.16481716983
8.615785000000001 0.9977396460079 137.16854244154 0.0671661514113 47.167398936644 0.0671661514113 47.167398936644 0.9977396502170 137.16478325178
8.615790000000001 0.9977396320195 137.16850842794 0.0671663488346 47.167364373471 0.0671663488346 47.167364373471 0.9977396362355 137.16474932162
8.615795000000000 0.9977396180151 137.16847440208 0.0671665464700 47.167329796794 0.0671665464700 47.167329796794 0.9977396222382 137.16471537933
8.615800000000000 0.9977396039949 137.16844036395 0.0671667443181 47.167295206587 0.0671667443181 47.167295206587 0.9977396082249 137.16468142488
8.615805000000000 0.9977395899586 137.16840631349 0.0671669423799 47.167260602790 0.0671669423799 47.167260602790 0.9977395941957 137.16464745823
8.615810000000000 0.9977395759065 137.16837225071 0.0671671406551 47.167225985432 0.0671671406551 47.167225985432 0.9977395801506 137.16461347939
8.615815000000001 0.9977395618383 137.16833817557 0.0671673391445 47.167191354453 0.0671673391445 47.167191354453 0.9977395660894 137.16457948830
8.615820000000001 0.9977395477540 137.16830408803 0.0671675378485 47.167156709822 0.0671675378485 47.167156709822 0.9977395520123 137.16454548495
8.615825000000001 0.9977395336537 137.16826998806 0.0671677367681 47.167122051477 0.0671677367681 47.167122051477 0.9977395379190 137.16451146928
8.615830000000001 0.9977395195372 137.16823587567 0.0671679359029 47.167087379438 0.0671679359029 47.167087379438 0.9977395238096 137.16447744132
8.615835000000001 0.9977395054045 137.16820175079 0.0671681352539 47.167052693650 0.0671681352539 47.167052693650 0.9977395096841 137.16444340101
8.615840000000000 0.9977394912557 137.16816761343 0.0671683348213 47.167017994097 0.0671683348213 47.167017994097 0.9977394955424 137.16440934833
8.615845000000000 0.9977394770907 137.16813346354 0.0671685346057 47.166983280732 0.0671685346057 47.166983280732 0.9977394813845 137.16437528325
8.615850000000000 0.9977394629093 137.16809930109 0.0671687346078 47.166948553515 0.0671687346078 47.166948553515 0.9977394672103 137.16434120573
8.615855000000000 0.9977394487117 137.16806512606 0.0671689348277 47.166913812442 0.0671689348277 47.166913812442 0.9977394530198 137.16430711576
8.615860000000001 0.9977394344977 137.16803093843 0.0671691352660 47.166879057464 0.0671691352660 47.166879057464 0.9977394388130 137.16427301332
8.615865000000001 0.9977394202673 137.16799673818 0.0671693359230 47.166844288566 0.0671693359230 47.166844288566 0.9977394245899 137.16423889838
8.615870000000001 0.9977394060205 137.16796252525 0.0671695367996 47.166809505695 0.0671695367996 47.166809505695 0.9977394103503 137.16420477090
8.615875000000001 0.9977393917573 137.16792829965 0.0671697378958 47.166774708850 0.0671697378958 47.166774708850 0.9977393960943 137.16417063086
8.615880000000001 0.9977393774775 137.16789406131 0.0671699392126 47.166739897953 0.0671699392126 47.166739897953 0.9977393818218 137.16413647823
8.615885000000000 0.9977393631813 137.16785981024 0.0671701407500 47.166705073020 0.0671701407500 47.166705073020 0.9977393675328 137.16410231298
8.615890000000000 0.9977393488684 137.16782554639 0.0671703425089 47.166670233987 0.0671703425089 47.166670233987 0.9977393532273 137.16406813509
8.615895000000000 0.9977393345390 137.16779126976 0.0671705444893 47.166635380850 0.0671705444893 47.166635380850 0.9977393389052 137.16403394453
8.615900000000000 0.9977393201929 137.16775698029 0.0671707466919 47.166600513550 0.0671707466919 47.166600513550 0.9977393245664 137.16399974128
8.615905000000000 0.9977393058302 137.16772267796 0.0671709491175 47.166565632060 0.0671709491175 47.166565632060 0.9977393102110 137.16396552529
8.615910000000001 0.9977392914507 137.16768836276 0.0671711517661 47.166530736366 0.0671711517661 47.166530736366 0.9977392958389 137.16393129655
8.615915000000001 0.9977392770545 137.16765403464 0.0671713546384 47.166495826424 0.0671713546384 47.166495826424 0.9977392814501 137.16389705503
8.615920000000001 0.9977392626415 137.16761969358 0.0671715577351 47.166460902184 0.0671715577351 47.166460902184 0.9977392670444 137.16386280069
8.615925000000001 0.9977392482116 137.16758533955 0.0671717610564 47.166425963641 0.0671717610564 47.166425963641 0.9977392526220 137.16382853352
8.615930000000001 0.9977392337649 137.16755097254 0.0671719646026 47.166391010767 0.0671719646026 47.166391010768 0.9977392381827 137.16379425350
8.615935000000000 0.9977392193013 137.16751659248 0.0671721683749 47.166356043489 0.0671721683749 47.166356043489 0.9977392237265 137.16375996056
8.615940000000000 0.9977392048207 137.16748219939 0.0671723723730 47.166321061833 0.0671723723730 47.166321061833 0.9977392092534 137.16372565472
8.615945000000000 0.9977391903232 137.16744779321 0.0671725765978 47.166286065716 0.0671725765978 47.166286065716 0.9977391947634 137.16369133592
8.615950000000000 0.9977391758086 137.16741337390 0.0671727810500 47.166251055120 0.0671727810500 47.166251055120 0.9977391802563 137.16365700413
8.615955000000001 0.9977391612770 137.16737894148 0.0671729857294 47.166216030040 0.0671729857294 47.166216030041 0.9977391657322 137.16362265936
8.615960000000001 0.9977391467282 137.16734449587 0.0671731906376 47.166180990389 0.0671731906376 47.166180990389 0.9977391511910 137.16358830151
8.615965000000001 0.9977391321624 137.16731003708 0.0671733957739 47.166145936188 0.0671733957739 47.166145936188 0.9977391366326 137.16355393063
8.615970000000001 0.9977391175793 137.16727556506 0.0671736011395 47.166110867369 0.0671736011395 47.166110867369 0.9977391220572 137.16351954666
8.615975000000001 0.9977391029790 137.16724107977 0.0671738067349 47.166075783887 0.0671738067349 47.166075783887 0.9977391074644 137.16348514954
8.615980000000000 0.9977390883615 137.16720658121 0.0671740125602 47.166040685766 0.0671740125602 47.166040685766 0.9977390928545 137.16345073930
8.615985000000000 0.9977390737267 137.16717206931 0.0671742186168 47.166005572900 0.0671742186168 47.166005572900 0.9977390782273 137.16341631584
8.615990000000000 0.9977390590745 137.16713754409 0.0671744249040 47.165970445318 0.0671744249040 47.165970445318 0.9977390635828 137.16338187919
8.615995000000000 0.9977390444050 137.16710300548 0.0671746314233 47.165935302944 0.0671746314233 47.165935302944 0.9977390489209 137.16334742930
8.616000000000000 0.9977390297181 137.16706845348 0.0671748381746 47.165900145771 0.0671748381746 47.165900145771 0.9977390342416 137.16331296614