! Sonnet Data File
! From: emgraph Version : 16.52
! From Project: transmon_brgOdd
! Data is De-embedded 
! Data File Written: 11/11/2017 22:28:47
!< HDATE 11/11/2017 18:22:48
!< MDATE 11/11/2017 18:22:48
!< PARAMS
!< Lj = 15.24
!< Gap = 6.0
!< Width = 10.0
!< Airgap = 6.0
!< Pwidth = 2000.0
!< Dist = 2000.0
!< END PARAMS
# GHZ S MA R 34.67000
8.72000000 0.998458 141.83 0.055489 51.825 0.055489 51.825 0.998458 141.82
!< P1 F=8.72 Eeff=(5.13609477 -5.6761e-5) Z0=(34.6490765 -9.5162e-5) R=0.0 C=0.0 
!< P2 F=8.72 Eeff=(5.13609477 -5.6761e-5) Z0=(34.6490765 -9.5162e-5) R=0.0 C=0.0 
8.72005000 0.998458 141.83 0.055490 51.825 0.055490 51.825 0.998458 141.82
8.72010000 0.998458 141.83 0.055490 51.824 0.055490 51.824 0.998458 141.82
8.72015000 0.998458 141.83 0.055491 51.824 0.055491 51.824 0.998458 141.82
8.72020000 0.998458 141.83 0.055492 51.824 0.055492 51.824 0.998458 141.82
8.72025000 0.998458 141.83 0.055492 51.824 0.055492 51.824 0.998458 141.82
8.72030000 0.998458 141.83 0.055493 51.823 0.055493 51.823 0.998458 141.82
8.72035000 0.998458 141.82 0.055494 51.823 0.055494 51.823 0.998458 141.82
8.72040000 0.998458 141.82 0.055495 51.823 0.055495 51.823 0.998458 141.82
8.72045000 0.998458 141.82 0.055495 51.823 0.055495 51.823 0.998458 141.82
8.72050000 0.998458 141.82 0.055496 51.823 0.055496 51.823 0.998458 141.82
8.72055000 0.998457 141.82 0.055497 51.822 0.055497 51.822 0.998457 141.82
8.72060000 0.998457 141.82 0.055497 51.822 0.055497 51.822 0.998457 141.82
8.72065000 0.998457 141.82 0.055498 51.822 0.055498 51.822 0.998457 141.82
8.72070000 0.998457 141.82 0.055499 51.822 0.055499 51.822 0.998457 141.82
8.72075000 0.998457 141.82 0.055499 51.821 0.055499 51.821 0.998457 141.82
8.72080000 0.998457 141.82 0.055500 51.821 0.055500 51.821 0.998457 141.82
8.72085000 0.998457 141.82 0.055501 51.821 0.055501 51.821 0.998457 141.82
8.72090000 0.998457 141.82 0.055501 51.821 0.055501 51.821 0.998457 141.82
8.72095000 0.998457 141.82 0.055502 51.820 0.055502 51.820 0.998457 141.82
8.72100000 0.998457 141.82 0.055503 51.820 0.055503 51.820 0.998457 141.82
8.72105000 0.998457 141.82 0.055503 51.820 0.055503 51.820 0.998457 141.82
8.72110000 0.998457 141.82 0.055504 51.820 0.055504 51.820 0.998457 141.82
8.72115000 0.998457 141.82 0.055505 51.819 0.055505 51.819 0.998457 141.82
8.72120000 0.998457 141.82 0.055505 51.819 0.055505 51.819 0.998457 141.82
8.72125000 0.998457 141.82 0.055506 51.819 0.055506 51.819 0.998457 141.82
8.72130000 0.998457 141.82 0.055507 51.819 0.055507 51.819 0.998457 141.81
8.72135000 0.998457 141.82 0.055508 51.818 0.055508 51.818 0.998457 141.81
8.72140000 0.998457 141.82 0.055508 51.818 0.055508 51.818 0.998457 141.81
8.72145000 0.998457 141.82 0.055509 51.818 0.055509 51.818 0.998457 141.81
8.72150000 0.998457 141.82 0.055510 51.818 0.055510 51.818 0.998457 141.81
8.72155000 0.998457 141.82 0.055510 51.817 0.055510 51.817 0.998457 141.81
8.72160000 0.998457 141.82 0.055511 51.817 0.055511 51.817 0.998457 141.81
8.72165000 0.998457 141.82 0.055512 51.817 0.055512 51.817 0.998457 141.81
8.72170000 0.998457 141.82 0.055512 51.817 0.055512 51.817 0.998457 141.81
8.72175000 0.998457 141.82 0.055513 51.817 0.055513 51.817 0.998457 141.81
8.72180000 0.998457 141.82 0.055514 51.816 0.055514 51.816 0.998457 141.81
8.72185000 0.998456 141.82 0.055514 51.816 0.055514 51.816 0.998456 141.81
8.72190000 0.998456 141.82 0.055515 51.816 0.055515 51.816 0.998456 141.81
8.72195000 0.998456 141.82 0.055516 51.816 0.055516 51.816 0.998456 141.81
8.72200000 0.998456 141.82 0.055517 51.815 0.055517 51.815 0.998456 141.81
8.72205000 0.998456 141.82 0.055517 51.815 0.055517 51.815 0.998456 141.81
8.72210000 0.998456 141.82 0.055518 51.815 0.055518 51.815 0.998456 141.81
8.72215000 0.998456 141.82 0.055519 51.815 0.055519 51.815 0.998456 141.81
8.72220000 0.998456 141.82 0.055519 51.814 0.055519 51.814 0.998456 141.81
8.72225000 0.998456 141.82 0.055520 51.814 0.055520 51.814 0.998456 141.81
8.72230000 0.998456 141.82 0.055521 51.814 0.055521 51.814 0.998456 141.81
8.72235000 0.998456 141.82 0.055521 51.814 0.055521 51.814 0.998456 141.81
8.72240000 0.998456 141.82 0.055522 51.813 0.055522 51.813 0.998456 141.81
8.72245000 0.998456 141.81 0.055523 51.813 0.055523 51.813 0.998456 141.81
8.72250000 0.998456 141.81 0.055524 51.813 0.055524 51.813 0.998456 141.81
8.72255000 0.998456 141.81 0.055524 51.813 0.055524 51.813 0.998456 141.81
8.72260000 0.998456 141.81 0.055525 51.812 0.055525 51.812 0.998456 141.81
8.72265000 0.998456 141.81 0.055526 51.812 0.055526 51.812 0.998456 141.81
8.72270000 0.998456 141.81 0.055526 51.812 0.055526 51.812 0.998456 141.81
8.72275000 0.998456 141.81 0.055527 51.812 0.055527 51.812 0.998456 141.81
8.72280000 0.998456 141.81 0.055528 51.811 0.055528 51.811 0.998456 141.81
8.72285000 0.998456 141.81 0.055528 51.811 0.055528 51.811 0.998456 141.81
8.72290000 0.998456 141.81 0.055529 51.811 0.055529 51.811 0.998456 141.81
8.72295000 0.998456 141.81 0.055530 51.811 0.055530 51.811 0.998456 141.81
8.72300000 0.998456 141.81 0.055531 51.810 0.055531 51.810 0.998456 141.81
8.72305000 0.998456 141.81 0.055531 51.810 0.055531 51.810 0.998456 141.81
8.72310000 0.998455 141.81 0.055532 51.810 0.055532 51.810 0.998455 141.81
8.72315000 0.998455 141.81 0.055533 51.810 0.055533 51.810 0.998455 141.81
8.72320000 0.998455 141.81 0.055533 51.810 0.055533 51.810 0.998455 141.81
8.72325000 0.998455 141.81 0.055534 51.809 0.055534 51.809 0.998455 141.81
8.72330000 0.998455 141.81 0.055535 51.809 0.055535 51.809 0.998455 141.81
8.72335000 0.998455 141.81 0.055535 51.809 0.055535 51.809 0.998455 141.81
8.72340000 0.998455 141.81 0.055536 51.809 0.055536 51.809 0.998455 141.80
8.72345000 0.998455 141.81 0.055537 51.808 0.055537 51.808 0.998455 141.80
8.72350000 0.998455 141.81 0.055538 51.808 0.055538 51.808 0.998455 141.80
8.72355000 0.998455 141.81 0.055538 51.808 0.055538 51.808 0.998455 141.80
8.72360000 0.998455 141.81 0.055539 51.808 0.055539 51.808 0.998455 141.80
8.72365000 0.998455 141.81 0.055540 51.807 0.055540 51.807 0.998455 141.80
8.72370000 0.998455 141.81 0.055540 51.807 0.055540 51.807 0.998455 141.80
8.72375000 0.998455 141.81 0.055541 51.807 0.055541 51.807 0.998455 141.80
8.72380000 0.998455 141.81 0.055542 51.807 0.055542 51.807 0.998455 141.80
8.72385000 0.998455 141.81 0.055543 51.806 0.055543 51.806 0.998455 141.80
8.72390000 0.998455 141.81 0.055543 51.806 0.055543 51.806 0.998455 141.80
8.72395000 0.998455 141.81 0.055544 51.806 0.055544 51.806 0.998455 141.80
8.72400000 0.998455 141.81 0.055545 51.806 0.055545 51.806 0.998455 141.80
8.72405000 0.998455 141.81 0.055545 51.805 0.055545 51.805 0.998455 141.80
8.72410000 0.998455 141.81 0.055546 51.805 0.055546 51.805 0.998455 141.80
8.72415000 0.998455 141.81 0.055547 51.805 0.055547 51.805 0.998455 141.80
8.72420000 0.998455 141.81 0.055548 51.805 0.055548 51.805 0.998455 141.80
8.72425000 0.998455 141.81 0.055548 51.804 0.055548 51.804 0.998455 141.80
8.72430000 0.998455 141.81 0.055549 51.804 0.055549 51.804 0.998455 141.80
8.72435000 0.998455 141.81 0.055550 51.804 0.055550 51.804 0.998454 141.80
8.72440000 0.998454 141.81 0.055550 51.804 0.055550 51.804 0.998454 141.80
8.72445000 0.998454 141.81 0.055551 51.803 0.055551 51.803 0.998454 141.80
8.72450000 0.998454 141.80 0.055552 51.803 0.055552 51.803 0.998454 141.80
8.72455000 0.998454 141.80 0.055553 51.803 0.055553 51.803 0.998454 141.80
8.72460000 0.998454 141.80 0.055553 51.803 0.055553 51.803 0.998454 141.80
8.72465000 0.998454 141.80 0.055554 51.802 0.055554 51.802 0.998454 141.80
8.72470000 0.998454 141.80 0.055555 51.802 0.055555 51.802 0.998454 141.80
8.72475000 0.998454 141.80 0.055555 51.802 0.055555 51.802 0.998454 141.80
8.72480000 0.998454 141.80 0.055556 51.802 0.055556 51.802 0.998454 141.80
8.72485000 0.998454 141.80 0.055557 51.802 0.055557 51.802 0.998454 141.80
8.72490000 0.998454 141.80 0.055558 51.801 0.055558 51.801 0.998454 141.80
8.72495000 0.998454 141.80 0.055558 51.801 0.055558 51.801 0.998454 141.80
8.72500000 0.998454 141.80 0.055559 51.801 0.055559 51.801 0.998454 141.80
8.72505000 0.998454 141.80 0.055560 51.801 0.055560 51.801 0.998454 141.80
8.72510000 0.998454 141.80 0.055560 51.800 0.055560 51.800 0.998454 141.80
8.72515000 0.998454 141.80 0.055561 51.800 0.055561 51.800 0.998454 141.80
8.72520000 0.998454 141.80 0.055562 51.800 0.055562 51.800 0.998454 141.80
8.72525000 0.998454 141.80 0.055563 51.800 0.055563 51.800 0.998454 141.80
8.72530000 0.998454 141.80 0.055563 51.799 0.055563 51.799 0.998454 141.80
8.72535000 0.998454 141.80 0.055564 51.799 0.055564 51.799 0.998454 141.80
8.72540000 0.998454 141.80 0.055565 51.799 0.055565 51.799 0.998454 141.80
8.72545000 0.998454 141.80 0.055566 51.799 0.055566 51.799 0.998454 141.79
8.72550000 0.998454 141.80 0.055566 51.798 0.055566 51.798 0.998454 141.79
8.72555000 0.998454 141.80 0.055567 51.798 0.055567 51.798 0.998454 141.79
8.72560000 0.998453 141.80 0.055568 51.798 0.055568 51.798 0.998453 141.79
8.72565000 0.998453 141.80 0.055568 51.798 0.055568 51.798 0.998453 141.79
8.72570000 0.998453 141.80 0.055569 51.797 0.055569 51.797 0.998453 141.79
8.72575000 0.998453 141.80 0.055570 51.797 0.055570 51.797 0.998453 141.79
8.72580000 0.998453 141.80 0.055571 51.797 0.055571 51.797 0.998453 141.79
8.72585000 0.998453 141.80 0.055571 51.797 0.055571 51.797 0.998453 141.79
8.72590000 0.998453 141.80 0.055572 51.796 0.055572 51.796 0.998453 141.79
8.72595000 0.998453 141.80 0.055573 51.796 0.055573 51.796 0.998453 141.79
8.72600000 0.998453 141.80 0.055574 51.796 0.055574 51.796 0.998453 141.79
8.72605000 0.998453 141.80 0.055574 51.796 0.055574 51.796 0.998453 141.79
8.72610000 0.998453 141.80 0.055575 51.795 0.055575 51.795 0.998453 141.79
8.72615000 0.998453 141.80 0.055576 51.795 0.055576 51.795 0.998453 141.79
8.72620000 0.998453 141.80 0.055576 51.795 0.055576 51.795 0.998453 141.79
8.72625000 0.998453 141.80 0.055577 51.795 0.055577 51.795 0.998453 141.79
8.72630000 0.998453 141.80 0.055578 51.794 0.055578 51.794 0.998453 141.79
8.72635000 0.998453 141.80 0.055579 51.794 0.055579 51.794 0.998453 141.79
8.72640000 0.998453 141.80 0.055579 51.794 0.055579 51.794 0.998453 141.79
8.72645000 0.998453 141.80 0.055580 51.794 0.055580 51.794 0.998453 141.79
8.72650000 0.998453 141.80 0.055581 51.794 0.055581 51.794 0.998453 141.79
8.72655000 0.998453 141.79 0.055582 51.793 0.055582 51.793 0.998453 141.79
8.72660000 0.998453 141.79 0.055582 51.793 0.055582 51.793 0.998453 141.79
8.72665000 0.998453 141.79 0.055583 51.793 0.055583 51.793 0.998453 141.79
8.72670000 0.998453 141.79 0.055584 51.793 0.055584 51.793 0.998453 141.79
8.72675000 0.998453 141.79 0.055585 51.792 0.055585 51.792 0.998453 141.79
8.72680000 0.998453 141.79 0.055585 51.792 0.055585 51.792 0.998453 141.79
8.72685000 0.998452 141.79 0.055586 51.792 0.055586 51.792 0.998452 141.79
8.72690000 0.998452 141.79 0.055587 51.792 0.055587 51.792 0.998452 141.79
8.72695000 0.998452 141.79 0.055587 51.791 0.055587 51.791 0.998452 141.79
8.72700000 0.998452 141.79 0.055588 51.791 0.055588 51.791 0.998452 141.79
8.72705000 0.998452 141.79 0.055589 51.791 0.055589 51.791 0.998452 141.79
8.72710000 0.998452 141.79 0.055590 51.791 0.055590 51.791 0.998452 141.79
8.72715000 0.998452 141.79 0.055590 51.790 0.055590 51.790 0.998452 141.79
8.72720000 0.998452 141.79 0.055591 51.790 0.055591 51.790 0.998452 141.79
8.72725000 0.998452 141.79 0.055592 51.790 0.055592 51.790 0.998452 141.79
8.72730000 0.998452 141.79 0.055593 51.790 0.055593 51.790 0.998452 141.79
8.72735000 0.998452 141.79 0.055593 51.789 0.055593 51.789 0.998452 141.79
8.72740000 0.998452 141.79 0.055594 51.789 0.055594 51.789 0.998452 141.79
8.72745000 0.998452 141.79 0.055595 51.789 0.055595 51.789 0.998452 141.79
8.72750000 0.998452 141.79 0.055596 51.789 0.055596 51.789 0.998452 141.78
8.72755000 0.998452 141.79 0.055596 51.788 0.055596 51.788 0.998452 141.78
8.72760000 0.998452 141.79 0.055597 51.788 0.055597 51.788 0.998452 141.78
8.72765000 0.998452 141.79 0.055598 51.788 0.055598 51.788 0.998452 141.78
8.72770000 0.998452 141.79 0.055599 51.788 0.055599 51.788 0.998452 141.78
8.72775000 0.998452 141.79 0.055599 51.787 0.055599 51.787 0.998452 141.78
8.72780000 0.998452 141.79 0.055600 51.787 0.055600 51.787 0.998452 141.78
8.72785000 0.998452 141.79 0.055601 51.787 0.055601 51.787 0.998452 141.78
8.72790000 0.998452 141.79 0.055602 51.787 0.055602 51.787 0.998452 141.78
8.72795000 0.998452 141.79 0.055602 51.786 0.055602 51.786 0.998452 141.78
8.72800000 0.998452 141.79 0.055603 51.786 0.055603 51.786 0.998452 141.78
8.72805000 0.998451 141.79 0.055604 51.786 0.055604 51.786 0.998451 141.78
8.72810000 0.998451 141.79 0.055605 51.786 0.055605 51.786 0.998451 141.78
8.72815000 0.998451 141.79 0.055605 51.785 0.055605 51.785 0.998451 141.78
8.72820000 0.998451 141.79 0.055606 51.785 0.055606 51.785 0.998451 141.78
8.72825000 0.998451 141.79 0.055607 51.785 0.055607 51.785 0.998451 141.78
8.72830000 0.998451 141.79 0.055608 51.785 0.055608 51.785 0.998451 141.78
8.72835000 0.998451 141.79 0.055608 51.784 0.055608 51.784 0.998451 141.78
8.72840000 0.998451 141.79 0.055609 51.784 0.055609 51.784 0.998451 141.78
8.72845000 0.998451 141.79 0.055610 51.784 0.055610 51.784 0.998451 141.78
8.72850000 0.998451 141.79 0.055611 51.784 0.055611 51.784 0.998451 141.78
8.72855000 0.998451 141.79 0.055611 51.784 0.055611 51.784 0.998451 141.78
8.72860000 0.998451 141.78 0.055612 51.783 0.055612 51.783 0.998451 141.78
8.72865000 0.998451 141.78 0.055613 51.783 0.055613 51.783 0.998451 141.78
8.72870000 0.998451 141.78 0.055614 51.783 0.055614 51.783 0.998451 141.78
8.72875000 0.998451 141.78 0.055614 51.783 0.055614 51.783 0.998451 141.78
8.72880000 0.998451 141.78 0.055615 51.782 0.055615 51.782 0.998451 141.78
8.72885000 0.998451 141.78 0.055616 51.782 0.055616 51.782 0.998451 141.78
8.72890000 0.998451 141.78 0.055617 51.782 0.055617 51.782 0.998451 141.78
8.72895000 0.998451 141.78 0.055617 51.782 0.055617 51.782 0.998451 141.78
8.72900000 0.998451 141.78 0.055618 51.781 0.055618 51.781 0.998451 141.78
8.72905000 0.998451 141.78 0.055619 51.781 0.055619 51.781 0.998451 141.78
8.72910000 0.998451 141.78 0.055620 51.781 0.055620 51.781 0.998451 141.78
8.72915000 0.998451 141.78 0.055620 51.781 0.055620 51.781 0.998451 141.78
8.72920000 0.998450 141.78 0.055621 51.780 0.055621 51.780 0.998450 141.78
8.72925000 0.998450 141.78 0.055622 51.780 0.055622 51.780 0.998450 141.78
8.72930000 0.998450 141.78 0.055623 51.780 0.055623 51.780 0.998450 141.78
8.72935000 0.998450 141.78 0.055624 51.780 0.055624 51.780 0.998450 141.78
8.72940000 0.998450 141.78 0.055624 51.779 0.055624 51.779 0.998450 141.78
8.72945000 0.998450 141.78 0.055625 51.779 0.055625 51.779 0.998450 141.78
8.72950000 0.998450 141.78 0.055626 51.779 0.055626 51.779 0.998450 141.78
8.72955000 0.998450 141.78 0.055627 51.779 0.055627 51.779 0.998450 141.77
8.72960000 0.998450 141.78 0.055627 51.778 0.055627 51.778 0.998450 141.77
8.72965000 0.998450 141.78 0.055628 51.778 0.055628 51.778 0.998450 141.77
8.72970000 0.998450 141.78 0.055629 51.778 0.055629 51.778 0.998450 141.77
8.72975000 0.998450 141.78 0.055630 51.778 0.055630 51.778 0.998450 141.77
8.72980000 0.998450 141.78 0.055630 51.777 0.055630 51.777 0.998450 141.77
8.72985000 0.998450 141.78 0.055631 51.777 0.055631 51.777 0.998450 141.77
8.72990000 0.998450 141.78 0.055632 51.777 0.055632 51.777 0.998450 141.77
8.72995000 0.998450 141.78 0.055633 51.777 0.055633 51.777 0.998450 141.77
8.73000000 0.998450 141.78 0.055633 51.776 0.055633 51.776 0.998450 141.77
8.73005000 0.998450 141.78 0.055634 51.776 0.055634 51.776 0.998450 141.77
8.73010000 0.998450 141.78 0.055635 51.776 0.055635 51.776 0.998450 141.77
8.73015000 0.998450 141.78 0.055636 51.776 0.055636 51.776 0.998450 141.77
8.73020000 0.998450 141.78 0.055637 51.775 0.055637 51.775 0.998450 141.77
8.73025000 0.998450 141.78 0.055637 51.775 0.055637 51.775 0.998450 141.77
8.73030000 0.998450 141.78 0.055638 51.775 0.055638 51.775 0.998450 141.77
8.73035000 0.998450 141.78 0.055639 51.775 0.055639 51.775 0.998450 141.77
8.73040000 0.998449 141.78 0.055640 51.774 0.055640 51.774 0.998449 141.77
8.73045000 0.998449 141.78 0.055640 51.774 0.055640 51.774 0.998449 141.77
8.73050000 0.998449 141.78 0.055641 51.774 0.055641 51.774 0.998449 141.77
8.73055000 0.998449 141.78 0.055642 51.774 0.055642 51.774 0.998449 141.77
8.73060000 0.998449 141.78 0.055643 51.773 0.055643 51.773 0.998449 141.77
8.73065000 0.998449 141.77 0.055644 51.773 0.055644 51.773 0.998449 141.77
8.73070000 0.998449 141.77 0.055644 51.773 0.055644 51.773 0.998449 141.77
8.73075000 0.998449 141.77 0.055645 51.773 0.055645 51.773 0.998449 141.77
8.73080000 0.998449 141.77 0.055646 51.772 0.055646 51.772 0.998449 141.77
8.73085000 0.998449 141.77 0.055647 51.772 0.055647 51.772 0.998449 141.77
8.73090000 0.998449 141.77 0.055647 51.772 0.055647 51.772 0.998449 141.77
8.73095000 0.998449 141.77 0.055648 51.772 0.055648 51.772 0.998449 141.77
8.73100000 0.998449 141.77 0.055649 51.771 0.055649 51.771 0.998449 141.77
8.73105000 0.998449 141.77 0.055650 51.771 0.055650 51.771 0.998449 141.77
8.73110000 0.998449 141.77 0.055651 51.771 0.055651 51.771 0.998449 141.77
8.73115000 0.998449 141.77 0.055651 51.771 0.055651 51.771 0.998449 141.77
8.73120000 0.998449 141.77 0.055652 51.771 0.055652 51.771 0.998449 141.77
8.73125000 0.998449 141.77 0.055653 51.770 0.055653 51.770 0.998449 141.77
8.73130000 0.998449 141.77 0.055654 51.770 0.055654 51.770 0.998449 141.77
8.73135000 0.998449 141.77 0.055655 51.770 0.055655 51.770 0.998449 141.77
8.73140000 0.998449 141.77 0.055655 51.770 0.055655 51.770 0.998449 141.77
8.73145000 0.998449 141.77 0.055656 51.769 0.055656 51.769 0.998449 141.77
8.73150000 0.998449 141.77 0.055657 51.769 0.055657 51.769 0.998448 141.77
8.73155000 0.998448 141.77 0.055658 51.769 0.055658 51.769 0.998448 141.77
8.73160000 0.998448 141.77 0.055658 51.769 0.055658 51.769 0.998448 141.76
8.73165000 0.998448 141.77 0.055659 51.768 0.055659 51.768 0.998448 141.76
8.73170000 0.998448 141.77 0.055660 51.768 0.055660 51.768 0.998448 141.76
8.73175000 0.998448 141.77 0.055661 51.768 0.055661 51.768 0.998448 141.76
8.73180000 0.998448 141.77 0.055662 51.768 0.055662 51.768 0.998448 141.76
8.73185000 0.998448 141.77 0.055662 51.767 0.055662 51.767 0.998448 141.76
8.73190000 0.998448 141.77 0.055663 51.767 0.055663 51.767 0.998448 141.76
8.73195000 0.998448 141.77 0.055664 51.767 0.055664 51.767 0.998448 141.76
8.73200000 0.998448 141.77 0.055665 51.767 0.055665 51.767 0.998448 141.76
8.73205000 0.998448 141.77 0.055666 51.766 0.055666 51.766 0.998448 141.76
8.73210000 0.998448 141.77 0.055666 51.766 0.055666 51.766 0.998448 141.76
8.73215000 0.998448 141.77 0.055667 51.766 0.055667 51.766 0.998448 141.76
8.73220000 0.998448 141.77 0.055668 51.766 0.055668 51.766 0.998448 141.76
8.73225000 0.998448 141.77 0.055669 51.765 0.055669 51.765 0.998448 141.76
8.73230000 0.998448 141.77 0.055670 51.765 0.055670 51.765 0.998448 141.76
8.73235000 0.998448 141.77 0.055670 51.765 0.055670 51.765 0.998448 141.76
8.73240000 0.998448 141.77 0.055671 51.765 0.055671 51.765 0.998448 141.76
8.73245000 0.998448 141.77 0.055672 51.764 0.055672 51.764 0.998448 141.76
8.73250000 0.998448 141.77 0.055673 51.764 0.055673 51.764 0.998448 141.76
8.73255000 0.998448 141.77 0.055674 51.764 0.055674 51.764 0.998448 141.76
8.73260000 0.998448 141.77 0.055674 51.764 0.055674 51.764 0.998448 141.76
8.73265000 0.998447 141.77 0.055675 51.763 0.055675 51.763 0.998447 141.76
8.73270000 0.998447 141.76 0.055676 51.763 0.055676 51.763 0.998447 141.76
8.73275000 0.998447 141.76 0.055677 51.763 0.055677 51.763 0.998447 141.76
8.73280000 0.998447 141.76 0.055678 51.763 0.055678 51.763 0.998447 141.76
8.73285000 0.998447 141.76 0.055678 51.762 0.055678 51.762 0.998447 141.76
8.73290000 0.998447 141.76 0.055679 51.762 0.055679 51.762 0.998447 141.76
8.73295000 0.998447 141.76 0.055680 51.762 0.055680 51.762 0.998447 141.76
8.73300000 0.998447 141.76 0.055681 51.762 0.055681 51.762 0.998447 141.76
8.73305000 0.998447 141.76 0.055682 51.761 0.055682 51.761 0.998447 141.76
8.73310000 0.998447 141.76 0.055682 51.761 0.055682 51.761 0.998447 141.76
8.73315000 0.998447 141.76 0.055683 51.761 0.055683 51.761 0.998447 141.76
8.73320000 0.998447 141.76 0.055684 51.761 0.055684 51.761 0.998447 141.76
8.73325000 0.998447 141.76 0.055685 51.760 0.055685 51.760 0.998447 141.76
8.73330000 0.998447 141.76 0.055686 51.760 0.055686 51.760 0.998447 141.76
8.73335000 0.998447 141.76 0.055686 51.760 0.055686 51.760 0.998447 141.76
8.73340000 0.998447 141.76 0.055687 51.760 0.055687 51.760 0.998447 141.76
8.73345000 0.998447 141.76 0.055688 51.759 0.055688 51.759 0.998447 141.76
8.73350000 0.998447 141.76 0.055689 51.759 0.055689 51.759 0.998447 141.76
8.73355000 0.998447 141.76 0.055690 51.759 0.055690 51.759 0.998447 141.76
8.73360000 0.998447 141.76 0.055691 51.759 0.055691 51.759 0.998447 141.75
8.73365000 0.998447 141.76 0.055691 51.758 0.055691 51.758 0.998447 141.75
8.73370000 0.998447 141.76 0.055692 51.758 0.055692 51.758 0.998447 141.75
8.73375000 0.998446 141.76 0.055693 51.758 0.055693 51.758 0.998446 141.75
8.73380000 0.998446 141.76 0.055694 51.758 0.055694 51.758 0.998446 141.75
8.73385000 0.998446 141.76 0.055695 51.757 0.055695 51.757 0.998446 141.75
8.73390000 0.998446 141.76 0.055695 51.757 0.055695 51.757 0.998446 141.75
8.73395000 0.998446 141.76 0.055696 51.757 0.055696 51.757 0.998446 141.75
8.73400000 0.998446 141.76 0.055697 51.757 0.055697 51.757 0.998446 141.75
8.73405000 0.998446 141.76 0.055698 51.756 0.055698 51.756 0.998446 141.75
8.73410000 0.998446 141.76 0.055699 51.756 0.055699 51.756 0.998446 141.75
8.73415000 0.998446 141.76 0.055700 51.756 0.055700 51.756 0.998446 141.75
8.73420000 0.998446 141.76 0.055700 51.756 0.055700 51.756 0.998446 141.75
8.73425000 0.998446 141.76 0.055701 51.755 0.055701 51.755 0.998446 141.75
8.73430000 0.998446 141.76 0.055702 51.755 0.055702 51.755 0.998446 141.75
8.73435000 0.998446 141.76 0.055703 51.755 0.055703 51.755 0.998446 141.75
8.73440000 0.998446 141.76 0.055704 51.755 0.055704 51.755 0.998446 141.75
8.73445000 0.998446 141.76 0.055705 51.754 0.055705 51.754 0.998446 141.75
8.73450000 0.998446 141.76 0.055705 51.754 0.055705 51.754 0.998446 141.75
8.73455000 0.998446 141.76 0.055706 51.754 0.055706 51.754 0.998446 141.75
8.73460000 0.998446 141.76 0.055707 51.754 0.055707 51.754 0.998446 141.75
8.73465000 0.998446 141.76 0.055708 51.753 0.055708 51.753 0.998446 141.75
8.73470000 0.998446 141.75 0.055709 51.753 0.055709 51.753 0.998446 141.75
8.73475000 0.998446 141.75 0.055710 51.753 0.055710 51.753 0.998446 141.75
8.73480000 0.998446 141.75 0.055710 51.753 0.055710 51.753 0.998446 141.75
8.73485000 0.998445 141.75 0.055711 51.752 0.055711 51.752 0.998445 141.75
8.73490000 0.998445 141.75 0.055712 51.752 0.055712 51.752 0.998445 141.75
8.73495000 0.998445 141.75 0.055713 51.752 0.055713 51.752 0.998445 141.75
8.73500000 0.998445 141.75 0.055714 51.752 0.055714 51.752 0.998445 141.75
8.73505000 0.998445 141.75 0.055715 51.751 0.055715 51.751 0.998445 141.75
8.73510000 0.998445 141.75 0.055715 51.751 0.055715 51.751 0.998445 141.75
8.73515000 0.998445 141.75 0.055716 51.751 0.055716 51.751 0.998445 141.75
8.73520000 0.998445 141.75 0.055717 51.751 0.055717 51.751 0.998445 141.75
8.73525000 0.998445 141.75 0.055718 51.750 0.055718 51.750 0.998445 141.75
8.73530000 0.998445 141.75 0.055719 51.750 0.055719 51.750 0.998445 141.75
8.73535000 0.998445 141.75 0.055720 51.750 0.055720 51.750 0.998445 141.75
8.73540000 0.998445 141.75 0.055720 51.750 0.055720 51.750 0.998445 141.75
8.73545000 0.998445 141.75 0.055721 51.749 0.055721 51.749 0.998445 141.75
8.73550000 0.998445 141.75 0.055722 51.749 0.055722 51.749 0.998445 141.75
8.73555000 0.998445 141.75 0.055723 51.749 0.055723 51.749 0.998445 141.75
8.73560000 0.998445 141.75 0.055724 51.749 0.055724 51.749 0.998445 141.74
8.73565000 0.998445 141.75 0.055725 51.748 0.055725 51.748 0.998445 141.74
8.73570000 0.998445 141.75 0.055725 51.748 0.055725 51.748 0.998445 141.74
8.73575000 0.998445 141.75 0.055726 51.748 0.055726 51.748 0.998445 141.74
8.73580000 0.998445 141.75 0.055727 51.748 0.055727 51.748 0.998445 141.74
8.73585000 0.998445 141.75 0.055728 51.747 0.055728 51.747 0.998445 141.74
8.73590000 0.998444 141.75 0.055729 51.747 0.055729 51.747 0.998444 141.74
8.73595000 0.998444 141.75 0.055730 51.747 0.055730 51.747 0.998444 141.74
8.73600000 0.998444 141.75 0.055731 51.747 0.055731 51.747 0.998444 141.74
8.73605000 0.998444 141.75 0.055731 51.746 0.055731 51.746 0.998444 141.74
8.73610000 0.998444 141.75 0.055732 51.746 0.055732 51.746 0.998444 141.74
8.73615000 0.998444 141.75 0.055733 51.746 0.055733 51.746 0.998444 141.74
8.73620000 0.998444 141.75 0.055734 51.746 0.055734 51.746 0.998444 141.74
8.73625000 0.998444 141.75 0.055735 51.745 0.055735 51.745 0.998444 141.74
8.73630000 0.998444 141.75 0.055736 51.745 0.055736 51.745 0.998444 141.74
8.73635000 0.998444 141.75 0.055737 51.745 0.055737 51.745 0.998444 141.74
8.73640000 0.998444 141.75 0.055737 51.745 0.055737 51.745 0.998444 141.74
8.73645000 0.998444 141.75 0.055738 51.744 0.055738 51.744 0.998444 141.74
8.73650000 0.998444 141.75 0.055739 51.744 0.055739 51.744 0.998444 141.74
8.73655000 0.998444 141.75 0.055740 51.744 0.055740 51.744 0.998444 141.74
8.73660000 0.998444 141.75 0.055741 51.744 0.055741 51.744 0.998444 141.74
8.73665000 0.998444 141.75 0.055742 51.743 0.055742 51.743 0.998444 141.74
8.73670000 0.998444 141.74 0.055743 51.743 0.055743 51.743 0.998444 141.74
8.73675000 0.998444 141.74 0.055743 51.743 0.055743 51.743 0.998444 141.74
8.73680000 0.998444 141.74 0.055744 51.743 0.055744 51.743 0.998444 141.74
8.73685000 0.998444 141.74 0.055745 51.742 0.055745 51.742 0.998444 141.74
8.73690000 0.998444 141.74 0.055746 51.742 0.055746 51.742 0.998444 141.74
8.73695000 0.998443 141.74 0.055747 51.742 0.055747 51.742 0.998443 141.74
8.73700000 0.998443 141.74 0.055748 51.742 0.055748 51.742 0.998443 141.74
8.73705000 0.998443 141.74 0.055749 51.741 0.055749 51.741 0.998443 141.74
8.73710000 0.998443 141.74 0.055749 51.741 0.055749 51.741 0.998443 141.74
8.73715000 0.998443 141.74 0.055750 51.741 0.055750 51.741 0.998443 141.74
8.73720000 0.998443 141.74 0.055751 51.741 0.055751 51.741 0.998443 141.74
8.73725000 0.998443 141.74 0.055752 51.740 0.055752 51.740 0.998443 141.74
8.73730000 0.998443 141.74 0.055753 51.740 0.055753 51.740 0.998443 141.74
8.73735000 0.998443 141.74 0.055754 51.740 0.055754 51.740 0.998443 141.74
8.73740000 0.998443 141.74 0.055755 51.740 0.055755 51.740 0.998443 141.74
8.73745000 0.998443 141.74 0.055756 51.739 0.055756 51.739 0.998443 141.74
8.73750000 0.998443 141.74 0.055756 51.739 0.055756 51.739 0.998443 141.74
8.73755000 0.998443 141.74 0.055757 51.739 0.055757 51.739 0.998443 141.74
8.73760000 0.998443 141.74 0.055758 51.739 0.055758 51.739 0.998443 141.73
8.73765000 0.998443 141.74 0.055759 51.738 0.055759 51.738 0.998443 141.73
8.73770000 0.998443 141.74 0.055760 51.738 0.055760 51.738 0.998443 141.73
8.73775000 0.998443 141.74 0.055761 51.738 0.055761 51.738 0.998443 141.73
8.73780000 0.998443 141.74 0.055762 51.738 0.055762 51.738 0.998443 141.73
8.73785000 0.998443 141.74 0.055763 51.737 0.055763 51.737 0.998443 141.73
8.73790000 0.998443 141.74 0.055763 51.737 0.055763 51.737 0.998443 141.73
8.73795000 0.998442 141.74 0.055764 51.737 0.055764 51.737 0.998442 141.73
8.73800000 0.998442 141.74 0.055765 51.737 0.055765 51.737 0.998442 141.73
8.73805000 0.998442 141.74 0.055766 51.736 0.055766 51.736 0.998442 141.73
8.73810000 0.998442 141.74 0.055767 51.736 0.055767 51.736 0.998442 141.73
8.73815000 0.998442 141.74 0.055768 51.736 0.055768 51.736 0.998442 141.73
8.73820000 0.998442 141.74 0.055769 51.736 0.055769 51.736 0.998442 141.73
8.73825000 0.998442 141.74 0.055770 51.735 0.055770 51.735 0.998442 141.73
8.73830000 0.998442 141.74 0.055770 51.735 0.055770 51.735 0.998442 141.73
8.73835000 0.998442 141.74 0.055771 51.735 0.055771 51.735 0.998442 141.73
8.73840000 0.998442 141.74 0.055772 51.735 0.055772 51.735 0.998442 141.73
8.73845000 0.998442 141.74 0.055773 51.734 0.055773 51.734 0.998442 141.73
8.73850000 0.998442 141.74 0.055774 51.734 0.055774 51.734 0.998442 141.73
8.73855000 0.998442 141.74 0.055775 51.734 0.055775 51.734 0.998442 141.73
8.73860000 0.998442 141.74 0.055776 51.734 0.055776 51.734 0.998442 141.73
8.73865000 0.998442 141.74 0.055777 51.733 0.055777 51.733 0.998442 141.73
8.73870000 0.998442 141.73 0.055778 51.733 0.055778 51.733 0.998442 141.73
8.73875000 0.998442 141.73 0.055779 51.733 0.055779 51.733 0.998442 141.73
8.73880000 0.998442 141.73 0.055779 51.733 0.055779 51.733 0.998442 141.73
8.73885000 0.998442 141.73 0.055780 51.732 0.055780 51.732 0.998442 141.73
8.73890000 0.998442 141.73 0.055781 51.732 0.055781 51.732 0.998442 141.73
8.73895000 0.998441 141.73 0.055782 51.732 0.055782 51.732 0.998441 141.73
8.73900000 0.998441 141.73 0.055783 51.732 0.055783 51.732 0.998441 141.73
8.73905000 0.998441 141.73 0.055784 51.731 0.055784 51.731 0.998441 141.73
8.73910000 0.998441 141.73 0.055785 51.731 0.055785 51.731 0.998441 141.73
8.73915000 0.998441 141.73 0.055786 51.731 0.055786 51.731 0.998441 141.73
8.73920000 0.998441 141.73 0.055787 51.731 0.055787 51.731 0.998441 141.73
8.73925000 0.998441 141.73 0.055788 51.730 0.055788 51.730 0.998441 141.73
8.73930000 0.998441 141.73 0.055788 51.730 0.055788 51.730 0.998441 141.73
8.73935000 0.998441 141.73 0.055789 51.730 0.055789 51.730 0.998441 141.73
8.73940000 0.998441 141.73 0.055790 51.730 0.055790 51.730 0.998441 141.73
8.73945000 0.998441 141.73 0.055791 51.729 0.055791 51.729 0.998441 141.73
8.73950000 0.998441 141.73 0.055792 51.729 0.055792 51.729 0.998441 141.73
8.73955000 0.998441 141.73 0.055793 51.729 0.055793 51.729 0.998441 141.73
8.73960000 0.998441 141.73 0.055794 51.729 0.055794 51.729 0.998441 141.72