! Sonnet Data File
! From: emgraph Version : 16.52
! From Project: transmon_brgOdd
! Data is De-embedded 
! Data File Written: 11/12/2017 17:05:33
!< HDATE 11/11/2017 22:57:51
!< MDATE 11/11/2017 22:57:51
!< PARAMS
!< Lj = 15.24
!< Gap = 6.0
!< Width = 10.0
!< Airgap = 6.0
!< Pwidth = 2000.0
!< Dist = 1600.0
!< END PARAMS
# GHZ S MA R 34.67000
8.78000000 0.996363 130.63 0.085165 40.633 0.085165 40.633 0.996363 130.63
!< P1 F=8.78 Eeff=(5.13743391 -5.7017e-5) Z0=(34.6430374 -9.7216e-5) R=0.0 C=0.0 
!< P2 F=8.78 Eeff=(5.13743391 -5.7017e-5) Z0=(34.6430374 -9.7216e-5) R=0.0 C=0.0 
8.78001000 0.996362 130.63 0.085166 40.633 0.085166 40.633 0.996362 130.63
8.78002000 0.996362 130.63 0.085168 40.633 0.085168 40.633 0.996362 130.63
8.78003000 0.996362 130.63 0.085169 40.632 0.085169 40.632 0.996362 130.63
8.78004000 0.996362 130.63 0.085171 40.632 0.085171 40.632 0.996362 130.63
8.78005000 0.996362 130.63 0.085172 40.632 0.085172 40.632 0.996362 130.63
8.78006000 0.996362 130.63 0.085174 40.632 0.085174 40.632 0.996362 130.63
8.78007000 0.996362 130.63 0.085175 40.632 0.085175 40.632 0.996362 130.63
8.78008000 0.996362 130.63 0.085176 40.632 0.085176 40.632 0.996362 130.63
8.78009000 0.996361 130.63 0.085178 40.632 0.085178 40.632 0.996361 130.63
8.78010000 0.996361 130.63 0.085179 40.632 0.085179 40.632 0.996361 130.63
8.78011000 0.996361 130.63 0.085181 40.631 0.085181 40.631 0.996361 130.63
8.78012000 0.996361 130.63 0.085182 40.631 0.085182 40.631 0.996361 130.63
8.78013000 0.996361 130.63 0.085184 40.631 0.085184 40.631 0.996361 130.63
8.78014000 0.996361 130.63 0.085185 40.631 0.085185 40.631 0.996361 130.63
8.78015000 0.996361 130.63 0.085187 40.631 0.085187 40.631 0.996361 130.63
8.78016000 0.996361 130.63 0.085188 40.631 0.085188 40.631 0.996361 130.63
8.78017000 0.996360 130.63 0.085190 40.631 0.085190 40.631 0.996360 130.63
8.78018000 0.996360 130.63 0.085191 40.630 0.085191 40.630 0.996360 130.63
8.78019000 0.996360 130.63 0.085193 40.630 0.085193 40.630 0.996360 130.63
8.78020000 0.996360 130.63 0.085194 40.630 0.085194 40.630 0.996360 130.63
8.78021000 0.996360 130.63 0.085195 40.630 0.085195 40.630 0.996360 130.63
8.78022000 0.996360 130.63 0.085197 40.630 0.085197 40.630 0.996360 130.63
8.78023000 0.996360 130.63 0.085198 40.630 0.085198 40.630 0.996360 130.63
8.78024000 0.996360 130.63 0.085200 40.630 0.085200 40.630 0.996359 130.63
8.78025000 0.996359 130.63 0.085201 40.629 0.085201 40.629 0.996359 130.63
8.78026000 0.996359 130.63 0.085203 40.629 0.085203 40.629 0.996359 130.63
8.78027000 0.996359 130.63 0.085204 40.629 0.085204 40.629 0.996359 130.63
8.78028000 0.996359 130.63 0.085206 40.629 0.085206 40.629 0.996359 130.63
8.78029000 0.996359 130.63 0.085207 40.629 0.085207 40.629 0.996359 130.63
8.78030000 0.996359 130.63 0.085209 40.629 0.085209 40.629 0.996359 130.63
8.78031000 0.996359 130.63 0.085210 40.629 0.085210 40.629 0.996359 130.63
8.78032000 0.996358 130.63 0.085212 40.629 0.085212 40.629 0.996358 130.63
8.78033000 0.996358 130.63 0.085213 40.628 0.085213 40.628 0.996358 130.63
8.78034000 0.996358 130.63 0.085215 40.628 0.085215 40.628 0.996358 130.63
8.78035000 0.996358 130.63 0.085216 40.628 0.085216 40.628 0.996358 130.63
8.78036000 0.996358 130.63 0.085218 40.628 0.085218 40.628 0.996358 130.63
8.78037000 0.996358 130.63 0.085219 40.628 0.085219 40.628 0.996358 130.63
8.78038000 0.996358 130.63 0.085221 40.628 0.085221 40.628 0.996358 130.63
8.78039000 0.996358 130.63 0.085222 40.628 0.085222 40.628 0.996358 130.63
8.78040000 0.996357 130.63 0.085224 40.627 0.085224 40.627 0.996357 130.63
8.78041000 0.996357 130.63 0.085225 40.627 0.085225 40.627 0.996357 130.63
8.78042000 0.996357 130.63 0.085227 40.627 0.085227 40.627 0.996357 130.63
8.78043000 0.996357 130.63 0.085228 40.627 0.085228 40.627 0.996357 130.63
8.78044000 0.996357 130.63 0.085230 40.627 0.085230 40.627 0.996357 130.63
8.78045000 0.996357 130.63 0.085231 40.627 0.085231 40.627 0.996357 130.63
8.78046000 0.996357 130.63 0.085233 40.627 0.085233 40.627 0.996357 130.63
8.78047000 0.996356 130.63 0.085235 40.626 0.085235 40.626 0.996356 130.63
8.78048000 0.996356 130.63 0.085236 40.626 0.085236 40.626 0.996356 130.63
8.78049000 0.996356 130.63 0.085238 40.626 0.085238 40.626 0.996356 130.63
8.78050000 0.996356 130.63 0.085239 40.626 0.085239 40.626 0.996356 130.63
8.78051000 0.996356 130.63 0.085241 40.626 0.085241 40.626 0.996356 130.63
8.78052000 0.996356 130.62 0.085242 40.626 0.085242 40.626 0.996356 130.63
8.78053000 0.996356 130.62 0.085244 40.626 0.085244 40.626 0.996356 130.63
8.78054000 0.996356 130.62 0.085245 40.625 0.085245 40.625 0.996356 130.63
8.78055000 0.996355 130.62 0.085247 40.625 0.085247 40.625 0.996355 130.63
8.78056000 0.996355 130.62 0.085248 40.625 0.085248 40.625 0.996355 130.63
8.78057000 0.996355 130.62 0.085250 40.625 0.085250 40.625 0.996355 130.63
8.78058000 0.996355 130.62 0.085252 40.625 0.085252 40.625 0.996355 130.63
8.78059000 0.996355 130.62 0.085253 40.625 0.085253 40.625 0.996355 130.63
8.78060000 0.996355 130.62 0.085255 40.625 0.085255 40.625 0.996355 130.63
8.78061000 0.996355 130.62 0.085256 40.624 0.085256 40.624 0.996355 130.63
8.78062000 0.996354 130.62 0.085258 40.624 0.085258 40.624 0.996354 130.63
8.78063000 0.996354 130.62 0.085259 40.624 0.085259 40.624 0.996354 130.63
8.78064000 0.996354 130.62 0.085261 40.624 0.085261 40.624 0.996354 130.63
8.78065000 0.996354 130.62 0.085262 40.624 0.085262 40.624 0.996354 130.63
8.78066000 0.996354 130.62 0.085264 40.624 0.085264 40.624 0.996354 130.63
8.78067000 0.996354 130.62 0.085266 40.624 0.085266 40.624 0.996354 130.63
8.78068000 0.996354 130.62 0.085267 40.623 0.085267 40.623 0.996354 130.62
8.78069000 0.996353 130.62 0.085269 40.623 0.085269 40.623 0.996353 130.62
8.78070000 0.996353 130.62 0.085270 40.623 0.085270 40.623 0.996353 130.62
8.78071000 0.996353 130.62 0.085272 40.623 0.085272 40.623 0.996353 130.62
8.78072000 0.996353 130.62 0.085274 40.623 0.085274 40.623 0.996353 130.62
8.78073000 0.996353 130.62 0.085275 40.623 0.085275 40.623 0.996353 130.62
8.78074000 0.996353 130.62 0.085277 40.623 0.085277 40.623 0.996353 130.62
8.78075000 0.996353 130.62 0.085278 40.622 0.085278 40.622 0.996353 130.62
8.78076000 0.996352 130.62 0.085280 40.622 0.085280 40.622 0.996352 130.62
8.78077000 0.996352 130.62 0.085281 40.622 0.085281 40.622 0.996352 130.62
8.78078000 0.996352 130.62 0.085283 40.622 0.085283 40.622 0.996352 130.62
8.78079000 0.996352 130.62 0.085285 40.622 0.085285 40.622 0.996352 130.62
8.78080000 0.996352 130.62 0.085286 40.622 0.085286 40.622 0.996352 130.62
8.78081000 0.996352 130.62 0.085288 40.622 0.085288 40.622 0.996352 130.62
8.78082000 0.996352 130.62 0.085289 40.621 0.085289 40.621 0.996352 130.62
8.78083000 0.996351 130.62 0.085291 40.621 0.085291 40.621 0.996351 130.62
8.78084000 0.996351 130.62 0.085293 40.621 0.085293 40.621 0.996351 130.62
8.78085000 0.996351 130.62 0.085294 40.621 0.085294 40.621 0.996351 130.62
8.78086000 0.996351 130.62 0.085296 40.621 0.085296 40.621 0.996351 130.62
8.78087000 0.996351 130.62 0.085298 40.621 0.085298 40.621 0.996351 130.62
8.78088000 0.996351 130.62 0.085299 40.621 0.085299 40.621 0.996351 130.62
8.78089000 0.996351 130.62 0.085301 40.620 0.085301 40.620 0.996351 130.62
8.78090000 0.996350 130.62 0.085302 40.620 0.085302 40.620 0.996350 130.62
8.78091000 0.996350 130.62 0.085304 40.620 0.085304 40.620 0.996350 130.62
8.78092000 0.996350 130.62 0.085306 40.620 0.085306 40.620 0.996350 130.62
8.78093000 0.996350 130.62 0.085307 40.620 0.085307 40.620 0.996350 130.62
8.78094000 0.996350 130.62 0.085309 40.620 0.085309 40.620 0.996350 130.62
8.78095000 0.996350 130.62 0.085311 40.619 0.085311 40.619 0.996350 130.62
8.78096000 0.996350 130.62 0.085312 40.619 0.085312 40.619 0.996350 130.62
8.78097000 0.996349 130.62 0.085314 40.619 0.085314 40.619 0.996349 130.62
8.78098000 0.996349 130.62 0.085316 40.619 0.085316 40.619 0.996349 130.62
8.78099000 0.996349 130.62 0.085317 40.619 0.085317 40.619 0.996349 130.62
8.78100000 0.996349 130.62 0.085319 40.619 0.085319 40.619 0.996349 130.62
8.78101000 0.996349 130.62 0.085321 40.619 0.085321 40.619 0.996349 130.62
8.78102000 0.996349 130.62 0.085322 40.618 0.085322 40.618 0.996349 130.62
8.78103000 0.996349 130.62 0.085324 40.618 0.085324 40.618 0.996349 130.62
8.78104000 0.996348 130.62 0.085326 40.618 0.085326 40.618 0.996348 130.62
8.78105000 0.996348 130.62 0.085327 40.618 0.085327 40.618 0.996348 130.62
8.78106000 0.996348 130.62 0.085329 40.618 0.085329 40.618 0.996348 130.62
8.78107000 0.996348 130.62 0.085331 40.618 0.085331 40.618 0.996348 130.62
8.78108000 0.996348 130.62 0.085332 40.618 0.085332 40.618 0.996348 130.62
8.78109000 0.996348 130.62 0.085334 40.617 0.085334 40.617 0.996348 130.62
8.78110000 0.996348 130.62 0.085336 40.617 0.085336 40.617 0.996348 130.62
8.78111000 0.996347 130.62 0.085337 40.617 0.085337 40.617 0.996347 130.62
8.78112000 0.996347 130.62 0.085339 40.617 0.085339 40.617 0.996347 130.62
8.78113000 0.996347 130.62 0.085341 40.617 0.085341 40.617 0.996347 130.62
8.78114000 0.996347 130.62 0.085342 40.617 0.085342 40.617 0.996347 130.62
8.78115000 0.996347 130.62 0.085344 40.617 0.085344 40.617 0.996347 130.62
8.78116000 0.996347 130.62 0.085346 40.616 0.085346 40.616 0.996347 130.62
8.78117000 0.996347 130.62 0.085347 40.616 0.085347 40.616 0.996347 130.62
8.78118000 0.996346 130.62 0.085349 40.616 0.085349 40.616 0.996346 130.62
8.78119000 0.996346 130.62 0.085351 40.616 0.085351 40.616 0.996346 130.62
8.78120000 0.996346 130.62 0.085352 40.616 0.085352 40.616 0.996346 130.62
8.78121000 0.996346 130.62 0.085354 40.616 0.085354 40.616 0.996346 130.62
8.78122000 0.996346 130.61 0.085356 40.615 0.085356 40.615 0.996346 130.62
8.78123000 0.996346 130.61 0.085358 40.615 0.085358 40.615 0.996346 130.62
8.78124000 0.996345 130.61 0.085359 40.615 0.085359 40.615 0.996345 130.62
8.78125000 0.996345 130.61 0.085361 40.615 0.085361 40.615 0.996345 130.62
8.78126000 0.996345 130.61 0.085363 40.615 0.085363 40.615 0.996345 130.62
8.78127000 0.996345 130.61 0.085364 40.615 0.085364 40.615 0.996345 130.62
8.78128000 0.996345 130.61 0.085366 40.615 0.085366 40.615 0.996345 130.62
8.78129000 0.996345 130.61 0.085368 40.614 0.085368 40.614 0.996345 130.62
8.78130000 0.996345 130.61 0.085370 40.614 0.085370 40.614 0.996345 130.62
8.78131000 0.996344 130.61 0.085371 40.614 0.085371 40.614 0.996344 130.62
8.78132000 0.996344 130.61 0.085373 40.614 0.085373 40.614 0.996344 130.62
8.78133000 0.996344 130.61 0.085375 40.614 0.085375 40.614 0.996344 130.62
8.78134000 0.996344 130.61 0.085377 40.614 0.085377 40.614 0.996344 130.62
8.78135000 0.996344 130.61 0.085378 40.613 0.085378 40.613 0.996344 130.62
8.78136000 0.996344 130.61 0.085380 40.613 0.085380 40.613 0.996344 130.61
8.78137000 0.996343 130.61 0.085382 40.613 0.085382 40.613 0.996343 130.61
8.78138000 0.996343 130.61 0.085384 40.613 0.085384 40.613 0.996343 130.61
8.78139000 0.996343 130.61 0.085385 40.613 0.085385 40.613 0.996343 130.61
8.78140000 0.996343 130.61 0.085387 40.613 0.085387 40.613 0.996343 130.61
8.78141000 0.996343 130.61 0.085389 40.613 0.085389 40.613 0.996343 130.61
8.78142000 0.996343 130.61 0.085391 40.612 0.085391 40.612 0.996343 130.61
8.78143000 0.996343 130.61 0.085392 40.612 0.085392 40.612 0.996343 130.61
8.78144000 0.996342 130.61 0.085394 40.612 0.085394 40.612 0.996342 130.61
8.78145000 0.996342 130.61 0.085396 40.612 0.085396 40.612 0.996342 130.61
8.78146000 0.996342 130.61 0.085398 40.612 0.085398 40.612 0.996342 130.61
8.78147000 0.996342 130.61 0.085399 40.612 0.085399 40.612 0.996342 130.61
8.78148000 0.996342 130.61 0.085401 40.611 0.085401 40.611 0.996342 130.61
8.78149000 0.996342 130.61 0.085403 40.611 0.085403 40.611 0.996342 130.61
8.78150000 0.996341 130.61 0.085405 40.611 0.085405 40.611 0.996341 130.61
8.78151000 0.996341 130.61 0.085407 40.611 0.085407 40.611 0.996341 130.61
8.78152000 0.996341 130.61 0.085408 40.611 0.085408 40.611 0.996341 130.61
8.78153000 0.996341 130.61 0.085410 40.611 0.085410 40.611 0.996341 130.61
8.78154000 0.996341 130.61 0.085412 40.611 0.085412 40.611 0.996341 130.61
8.78155000 0.996341 130.61 0.085414 40.610 0.085414 40.610 0.996341 130.61
8.78156000 0.996341 130.61 0.085416 40.610 0.085416 40.610 0.996340 130.61
8.78157000 0.996340 130.61 0.085417 40.610 0.085417 40.610 0.996340 130.61
8.78158000 0.996340 130.61 0.085419 40.610 0.085419 40.610 0.996340 130.61
8.78159000 0.996340 130.61 0.085421 40.610 0.085421 40.610 0.996340 130.61
8.78160000 0.996340 130.61 0.085423 40.610 0.085423 40.610 0.996340 130.61
8.78161000 0.996340 130.61 0.085425 40.609 0.085425 40.609 0.996340 130.61
8.78162000 0.996340 130.61 0.085426 40.609 0.085426 40.609 0.996340 130.61
8.78163000 0.996339 130.61 0.085428 40.609 0.085428 40.609 0.996339 130.61
8.78164000 0.996339 130.61 0.085430 40.609 0.085430 40.609 0.996339 130.61
8.78165000 0.996339 130.61 0.085432 40.609 0.085432 40.609 0.996339 130.61
8.78166000 0.996339 130.61 0.085434 40.609 0.085434 40.609 0.996339 130.61
8.78167000 0.996339 130.61 0.085436 40.608 0.085436 40.608 0.996339 130.61
8.78168000 0.996339 130.61 0.085437 40.608 0.085437 40.608 0.996339 130.61
8.78169000 0.996338 130.61 0.085439 40.608 0.085439 40.608 0.996338 130.61
8.78170000 0.996338 130.61 0.085441 40.608 0.085441 40.608 0.996338 130.61
8.78171000 0.996338 130.61 0.085443 40.608 0.085443 40.608 0.996338 130.61
8.78172000 0.996338 130.61 0.085445 40.608 0.085445 40.608 0.996338 130.61
8.78173000 0.996338 130.61 0.085447 40.607 0.085447 40.607 0.996338 130.61
8.78174000 0.996338 130.61 0.085449 40.607 0.085449 40.607 0.996338 130.61
8.78175000 0.996337 130.61 0.085450 40.607 0.085450 40.607 0.996337 130.61
8.78176000 0.996337 130.61 0.085452 40.607 0.085452 40.607 0.996337 130.61
8.78177000 0.996337 130.61 0.085454 40.607 0.085454 40.607 0.996337 130.61
8.78178000 0.996337 130.61 0.085456 40.607 0.085456 40.607 0.996337 130.61
8.78179000 0.996337 130.61 0.085458 40.607 0.085458 40.607 0.996337 130.61
8.78180000 0.996337 130.61 0.085460 40.606 0.085460 40.606 0.996337 130.61
8.78181000 0.996336 130.61 0.085462 40.606 0.085462 40.606 0.996336 130.61
8.78182000 0.996336 130.61 0.085463 40.606 0.085463 40.606 0.996336 130.61
8.78183000 0.996336 130.61 0.085465 40.606 0.085465 40.606 0.996336 130.61
8.78184000 0.996336 130.61 0.085467 40.606 0.085467 40.606 0.996336 130.61
8.78185000 0.996336 130.61 0.085469 40.606 0.085469 40.606 0.996336 130.61
8.78186000 0.996336 130.61 0.085471 40.605 0.085471 40.605 0.996336 130.61
8.78187000 0.996335 130.60 0.085473 40.605 0.085473 40.605 0.996335 130.61
8.78188000 0.996335 130.60 0.085475 40.605 0.085475 40.605 0.996335 130.61
8.78189000 0.996335 130.60 0.085477 40.605 0.085477 40.605 0.996335 130.61
8.78190000 0.996335 130.60 0.085479 40.605 0.085479 40.605 0.996335 130.61
8.78191000 0.996335 130.60 0.085480 40.605 0.085480 40.605 0.996335 130.61
8.78192000 0.996335 130.60 0.085482 40.604 0.085482 40.604 0.996335 130.61
8.78193000 0.996334 130.60 0.085484 40.604 0.085484 40.604 0.996334 130.61
8.78194000 0.996334 130.60 0.085486 40.604 0.085486 40.604 0.996334 130.61
8.78195000 0.996334 130.60 0.085488 40.604 0.085488 40.604 0.996334 130.61
8.78196000 0.996334 130.60 0.085490 40.604 0.085490 40.604 0.996334 130.61
8.78197000 0.996334 130.60 0.085492 40.604 0.085492 40.604 0.996334 130.61
8.78198000 0.996334 130.60 0.085494 40.603 0.085494 40.603 0.996334 130.61
8.78199000 0.996333 130.60 0.085496 40.603 0.085496 40.603 0.996333 130.61
8.78200000 0.996333 130.60 0.085498 40.603 0.085498 40.603 0.996333 130.60
8.78201000 0.996333 130.60 0.085500 40.603 0.085500 40.603 0.996333 130.60
8.78202000 0.996333 130.60 0.085502 40.603 0.085502 40.603 0.996333 130.60
8.78203000 0.996333 130.60 0.085504 40.603 0.085504 40.603 0.996333 130.60
8.78204000 0.996333 130.60 0.085506 40.602 0.085506 40.602 0.996333 130.60
8.78205000 0.996332 130.60 0.085507 40.602 0.085507 40.602 0.996332 130.60
8.78206000 0.996332 130.60 0.085509 40.602 0.085509 40.602 0.996332 130.60
8.78207000 0.996332 130.60 0.085511 40.602 0.085511 40.602 0.996332 130.60
8.78208000 0.996332 130.60 0.085513 40.602 0.085513 40.602 0.996332 130.60
8.78209000 0.996332 130.60 0.085515 40.602 0.085515 40.602 0.996332 130.60
8.78210000 0.996332 130.60 0.085517 40.601 0.085517 40.601 0.996332 130.60
8.78211000 0.996331 130.60 0.085519 40.601 0.085519 40.601 0.996331 130.60
8.78212000 0.996331 130.60 0.085521 40.601 0.085521 40.601 0.996331 130.60
8.78213000 0.996331 130.60 0.085523 40.601 0.085523 40.601 0.996331 130.60
8.78214000 0.996331 130.60 0.085525 40.601 0.085525 40.601 0.996331 130.60
8.78215000 0.996331 130.60 0.085527 40.601 0.085527 40.601 0.996331 130.60
8.78216000 0.996330 130.60 0.085529 40.600 0.085529 40.600 0.996330 130.60
8.78217000 0.996330 130.60 0.085531 40.600 0.085531 40.600 0.996330 130.60
8.78218000 0.996330 130.60 0.085533 40.600 0.085533 40.600 0.996330 130.60
8.78219000 0.996330 130.60 0.085535 40.600 0.085535 40.600 0.996330 130.60
8.78220000 0.996330 130.60 0.085537 40.600 0.085537 40.600 0.996330 130.60
8.78221000 0.996330 130.60 0.085539 40.600 0.085539 40.600 0.996330 130.60
8.78222000 0.996329 130.60 0.085541 40.599 0.085541 40.599 0.996329 130.60
8.78223000 0.996329 130.60 0.085543 40.599 0.085543 40.599 0.996329 130.60
8.78224000 0.996329 130.60 0.085545 40.599 0.085545 40.599 0.996329 130.60
8.78225000 0.996329 130.60 0.085547 40.599 0.085547 40.599 0.996329 130.60
8.78226000 0.996329 130.60 0.085549 40.599 0.085549 40.599 0.996329 130.60
8.78227000 0.996329 130.60 0.085551 40.599 0.085551 40.599 0.996328 130.60
8.78228000 0.996328 130.60 0.085553 40.598 0.085553 40.598 0.996328 130.60
8.78229000 0.996328 130.60 0.085555 40.598 0.085555 40.598 0.996328 130.60
8.78230000 0.996328 130.60 0.085557 40.598 0.085557 40.598 0.996328 130.60
8.78231000 0.996328 130.60 0.085559 40.598 0.085559 40.598 0.996328 130.60
8.78232000 0.996328 130.60 0.085561 40.598 0.085561 40.598 0.996328 130.60
8.78233000 0.996327 130.60 0.085563 40.598 0.085563 40.598 0.996327 130.60
8.78234000 0.996327 130.60 0.085565 40.597 0.085565 40.597 0.996327 130.60
8.78235000 0.996327 130.60 0.085568 40.597 0.085568 40.597 0.996327 130.60
8.78236000 0.996327 130.60 0.085570 40.597 0.085570 40.597 0.996327 130.60
8.78237000 0.996327 130.60 0.085572 40.597 0.085572 40.597 0.996327 130.60
8.78238000 0.996327 130.60 0.085574 40.597 0.085574 40.597 0.996327 130.60
8.78239000 0.996326 130.60 0.085576 40.596 0.085576 40.596 0.996326 130.60
8.78240000 0.996326 130.60 0.085578 40.596 0.085578 40.596 0.996326 130.60
8.78241000 0.996326 130.60 0.085580 40.596 0.085580 40.596 0.996326 130.60
8.78242000 0.996326 130.60 0.085582 40.596 0.085582 40.596 0.996326 130.60
8.78243000 0.996326 130.60 0.085584 40.596 0.085584 40.596 0.996326 130.60
8.78244000 0.996325 130.60 0.085586 40.596 0.085586 40.596 0.996325 130.60
8.78245000 0.996325 130.60 0.085588 40.595 0.085588 40.595 0.996325 130.60
8.78246000 0.996325 130.60 0.085590 40.595 0.085590 40.595 0.996325 130.60
8.78247000 0.996325 130.60 0.085592 40.595 0.085592 40.595 0.996325 130.60
8.78248000 0.996325 130.59 0.085595 40.595 0.085595 40.595 0.996325 130.60
8.78249000 0.996324 130.59 0.085597 40.595 0.085597 40.595 0.996324 130.60
8.78250000 0.996324 130.59 0.085599 40.595 0.085599 40.595 0.996324 130.60
8.78251000 0.996324 130.59 0.085601 40.594 0.085601 40.594 0.996324 130.60
8.78252000 0.996324 130.59 0.085603 40.594 0.085603 40.594 0.996324 130.60
8.78253000 0.996324 130.59 0.085605 40.594 0.085605 40.594 0.996324 130.60
8.78254000 0.996324 130.59 0.085607 40.594 0.085607 40.594 0.996324 130.60
8.78255000 0.996323 130.59 0.085609 40.594 0.085609 40.594 0.996323 130.60
8.78256000 0.996323 130.59 0.085611 40.594 0.085611 40.594 0.996323 130.60
8.78257000 0.996323 130.59 0.085614 40.593 0.085614 40.593 0.996323 130.60
8.78258000 0.996323 130.59 0.085616 40.593 0.085616 40.593 0.996323 130.60
8.78259000 0.996323 130.59 0.085618 40.593 0.085618 40.593 0.996323 130.60
8.78260000 0.996322 130.59 0.085620 40.593 0.085620 40.593 0.996322 130.59
8.78261000 0.996322 130.59 0.085622 40.593 0.085622 40.593 0.996322 130.59
8.78262000 0.996322 130.59 0.085624 40.592 0.085624 40.592 0.996322 130.59
8.78263000 0.996322 130.59 0.085626 40.592 0.085626 40.592 0.996322 130.59
8.78264000 0.996322 130.59 0.085629 40.592 0.085629 40.592 0.996322 130.59
8.78265000 0.996321 130.59 0.085631 40.592 0.085631 40.592 0.996321 130.59
8.78266000 0.996321 130.59 0.085633 40.592 0.085633 40.592 0.996321 130.59
8.78267000 0.996321 130.59 0.085635 40.592 0.085635 40.592 0.996321 130.59
8.78268000 0.996321 130.59 0.085637 40.591 0.085637 40.591 0.996321 130.59
8.78269000 0.996321 130.59 0.085639 40.591 0.085639 40.591 0.996321 130.59
8.78270000 0.996320 130.59 0.085642 40.591 0.085642 40.591 0.996320 130.59
8.78271000 0.996320 130.59 0.085644 40.591 0.085644 40.591 0.996320 130.59
8.78272000 0.996320 130.59 0.085646 40.591 0.085646 40.591 0.996320 130.59
8.78273000 0.996320 130.59 0.085648 40.590 0.085648 40.590 0.996320 130.59
8.78274000 0.996320 130.59 0.085650 40.590 0.085650 40.590 0.996320 130.59
8.78275000 0.996320 130.59 0.085653 40.590 0.085653 40.590 0.996320 130.59
8.78276000 0.996319 130.59 0.085655 40.590 0.085655 40.590 0.996319 130.59
8.78277000 0.996319 130.59 0.085657 40.590 0.085657 40.590 0.996319 130.59
8.78278000 0.996319 130.59 0.085659 40.590 0.085659 40.590 0.996319 130.59
8.78279000 0.996319 130.59 0.085661 40.589 0.085661 40.589 0.996319 130.59
8.78280000 0.996319 130.59 0.085664 40.589 0.085664 40.589 0.996319 130.59
8.78281000 0.996318 130.59 0.085666 40.589 0.085666 40.589 0.996318 130.59
8.78282000 0.996318 130.59 0.085668 40.589 0.085668 40.589 0.996318 130.59
8.78283000 0.996318 130.59 0.085670 40.589 0.085670 40.589 0.996318 130.59
8.78284000 0.996318 130.59 0.085672 40.588 0.085672 40.588 0.996318 130.59
8.78285000 0.996318 130.59 0.085675 40.588 0.085675 40.588 0.996318 130.59
8.78286000 0.996317 130.59 0.085677 40.588 0.085677 40.588 0.996317 130.59
8.78287000 0.996317 130.59 0.085679 40.588 0.085679 40.588 0.996317 130.59
8.78288000 0.996317 130.59 0.085681 40.588 0.085681 40.588 0.996317 130.59
8.78289000 0.996317 130.59 0.085684 40.588 0.085684 40.588 0.996317 130.59
8.78290000 0.996317 130.59 0.085686 40.587 0.085686 40.587 0.996317 130.59
8.78291000 0.996316 130.59 0.085688 40.587 0.085688 40.587 0.996316 130.59
8.78292000 0.996316 130.59 0.085691 40.587 0.085691 40.587 0.996316 130.59
8.78293000 0.996316 130.59 0.085693 40.587 0.085693 40.587 0.996316 130.59
8.78294000 0.996316 130.59 0.085695 40.587 0.085695 40.587 0.996316 130.59
8.78295000 0.996316 130.59 0.085697 40.586 0.085697 40.586 0.996316 130.59
8.78296000 0.996315 130.59 0.085700 40.586 0.085700 40.586 0.996315 130.59
8.78297000 0.996315 130.59 0.085702 40.586 0.085702 40.586 0.996315 130.59
8.78298000 0.996315 130.59 0.085704 40.586 0.085704 40.586 0.996315 130.59
8.78299000 0.996315 130.59 0.085706 40.586 0.085706 40.586 0.996315 130.59
8.78300000 0.996315 130.59 0.085709 40.586 0.085709 40.586 0.996315 130.59
8.78301000 0.996314 130.59 0.085711 40.585 0.085711 40.585 0.996314 130.59
8.78302000 0.996314 130.59 0.085713 40.585 0.085713 40.585 0.996314 130.59
8.78303000 0.996314 130.59 0.085716 40.585 0.085716 40.585 0.996314 130.59
8.78304000 0.996314 130.58 0.085718 40.585 0.085718 40.585 0.996314 130.59
8.78305000 0.996313 130.58 0.085720 40.585 0.085720 40.585 0.996313 130.59
8.78306000 0.996313 130.58 0.085723 40.584 0.085723 40.584 0.996313 130.59
8.78307000 0.996313 130.58 0.085725 40.584 0.085725 40.584 0.996313 130.59
8.78308000 0.996313 130.58 0.085727 40.584 0.085727 40.584 0.996313 130.59
8.78309000 0.996313 130.58 0.085730 40.584 0.085730 40.584 0.996313 130.59
8.78310000 0.996312 130.58 0.085732 40.584 0.085732 40.584 0.996312 130.59
8.78311000 0.996312 130.58 0.085734 40.583 0.085734 40.583 0.996312 130.59
8.78312000 0.996312 130.58 0.085737 40.583 0.085737 40.583 0.996312 130.59
8.78313000 0.996312 130.58 0.085739 40.583 0.085739 40.583 0.996312 130.59
8.78314000 0.996312 130.58 0.085741 40.583 0.085741 40.583 0.996312 130.59
8.78315000 0.996311 130.58 0.085744 40.583 0.085744 40.583 0.996311 130.58
8.78316000 0.996311 130.58 0.085746 40.582 0.085746 40.582 0.996311 130.58
8.78317000 0.996311 130.58 0.085749 40.582 0.085749 40.582 0.996311 130.58
8.78318000 0.996311 130.58 0.085751 40.582 0.085751 40.582 0.996311 130.58
8.78319000 0.996311 130.58 0.085753 40.582 0.085753 40.582 0.996311 130.58
8.78320000 0.996310 130.58 0.085756 40.582 0.085756 40.582 0.996310 130.58
8.78321000 0.996310 130.58 0.085758 40.582 0.085758 40.582 0.996310 130.58
8.78322000 0.996310 130.58 0.085760 40.581 0.085760 40.581 0.996310 130.58
8.78323000 0.996310 130.58 0.085763 40.581 0.085763 40.581 0.996310 130.58
8.78324000 0.996309 130.58 0.085765 40.581 0.085765 40.581 0.996309 130.58
8.78325000 0.996309 130.58 0.085768 40.581 0.085768 40.581 0.996309 130.58
8.78326000 0.996309 130.58 0.085770 40.581 0.085770 40.581 0.996309 130.58
8.78327000 0.996309 130.58 0.085772 40.580 0.085772 40.580 0.996309 130.58
8.78328000 0.996309 130.58 0.085775 40.580 0.085775 40.580 0.996309 130.58
8.78329000 0.996308 130.58 0.085777 40.580 0.085777 40.580 0.996308 130.58
8.78330000 0.996308 130.58 0.085780 40.580 0.085780 40.580 0.996308 130.58
8.78331000 0.996308 130.58 0.085782 40.580 0.085782 40.580 0.996308 130.58
8.78332000 0.996308 130.58 0.085785 40.579 0.085785 40.579 0.996308 130.58
8.78333000 0.996308 130.58 0.085787 40.579 0.085787 40.579 0.996308 130.58
8.78334000 0.996307 130.58 0.085790 40.579 0.085790 40.579 0.996307 130.58
8.78335000 0.996307 130.58 0.085792 40.579 0.085792 40.579 0.996307 130.58
8.78336000 0.996307 130.58 0.085794 40.579 0.085794 40.579 0.996307 130.58
8.78337000 0.996307 130.58 0.085797 40.578 0.085797 40.578 0.996307 130.58
8.78338000 0.996306 130.58 0.085799 40.578 0.085799 40.578 0.996306 130.58
8.78339000 0.996306 130.58 0.085802 40.578 0.085802 40.578 0.996306 130.58
8.78340000 0.996306 130.58 0.085804 40.578 0.085804 40.578 0.996306 130.58
8.78341000 0.996306 130.58 0.085807 40.578 0.085807 40.578 0.996306 130.58
8.78342000 0.996306 130.58 0.085809 40.577 0.085809 40.577 0.996306 130.58
8.78343000 0.996305 130.58 0.085812 40.577 0.085812 40.577 0.996305 130.58
8.78344000 0.996305 130.58 0.085814 40.577 0.085814 40.577 0.996305 130.58
8.78345000 0.996305 130.58 0.085817 40.577 0.085817 40.577 0.996305 130.58
8.78346000 0.996305 130.58 0.085819 40.577 0.085819 40.577 0.996305 130.58
8.78347000 0.996304 130.58 0.085822 40.576 0.085822 40.576 0.996304 130.58
8.78348000 0.996304 130.58 0.085824 40.576 0.085824 40.576 0.996304 130.58
8.78349000 0.996304 130.58 0.085827 40.576 0.085827 40.576 0.996304 130.58
8.78350000 0.996304 130.58 0.085829 40.576 0.085829 40.576 0.996304 130.58
8.78351000 0.996304 130.58 0.085832 40.576 0.085832 40.576 0.996304 130.58
8.78352000 0.996303 130.58 0.085834 40.575 0.085834 40.575 0.996303 130.58
8.78353000 0.996303 130.58 0.085837 40.575 0.085837 40.575 0.996303 130.58
8.78354000 0.996303 130.58 0.085840 40.575 0.085840 40.575 0.996303 130.58
8.78355000 0.996303 130.58 0.085842 40.575 0.085842 40.575 0.996303 130.58
8.78356000 0.996302 130.58 0.085845 40.575 0.085845 40.575 0.996302 130.58
8.78357000 0.996302 130.57 0.085847 40.574 0.085847 40.574 0.996302 130.58
8.78358000 0.996302 130.57 0.085850 40.574 0.085850 40.574 0.996302 130.58
8.78359000 0.996302 130.57 0.085852 40.574 0.085852 40.574 0.996302 130.58
8.78360000 0.996301 130.57 0.085855 40.574 0.085855 40.574 0.996301 130.58
8.78361000 0.996301 130.57 0.085857 40.574 0.085857 40.574 0.996301 130.58
8.78362000 0.996301 130.57 0.085860 40.573 0.085860 40.573 0.996301 130.58
8.78363000 0.996301 130.57 0.085863 40.573 0.085863 40.573 0.996301 130.58
8.78364000 0.996301 130.57 0.085865 40.573 0.085865 40.573 0.996301 130.58
8.78365000 0.996300 130.57 0.085868 40.573 0.085868 40.573 0.996300 130.58
8.78366000 0.996300 130.57 0.085870 40.573 0.085870 40.573 0.996300 130.58
8.78367000 0.996300 130.57 0.085873 40.572 0.085873 40.572 0.996300 130.57
8.78368000 0.996300 130.57 0.085876 40.572 0.085876 40.572 0.996300 130.57
8.78369000 0.996299 130.57 0.085878 40.572 0.085878 40.572 0.996299 130.57
8.78370000 0.996299 130.57 0.085881 40.572 0.085881 40.572 0.996299 130.57
8.78371000 0.996299 130.57 0.085884 40.572 0.085884 40.572 0.996299 130.57
8.78372000 0.996299 130.57 0.085886 40.571 0.085886 40.571 0.996299 130.57
8.78373000 0.996298 130.57 0.085889 40.571 0.085889 40.571 0.996298 130.57
8.78374000 0.996298 130.57 0.085891 40.571 0.085891 40.571 0.996298 130.57
8.78375000 0.996298 130.57 0.085894 40.571 0.085894 40.571 0.996298 130.57
8.78376000 0.996298 130.57 0.085897 40.570 0.085897 40.570 0.996298 130.57
8.78377000 0.996298 130.57 0.085899 40.570 0.085899 40.570 0.996297 130.57
8.78378000 0.996297 130.57 0.085902 40.570 0.085902 40.570 0.996297 130.57
8.78379000 0.996297 130.57 0.085905 40.570 0.085905 40.570 0.996297 130.57
8.78380000 0.996297 130.57 0.085907 40.570 0.085907 40.570 0.996297 130.57
8.78381000 0.996297 130.57 0.085910 40.569 0.085910 40.569 0.996297 130.57
8.78382000 0.996296 130.57 0.085913 40.569 0.085913 40.569 0.996296 130.57
8.78383000 0.996296 130.57 0.085916 40.569 0.085916 40.569 0.996296 130.57
8.78384000 0.996296 130.57 0.085918 40.569 0.085918 40.569 0.996296 130.57
8.78385000 0.996296 130.57 0.085921 40.569 0.085921 40.569 0.996296 130.57
8.78386000 0.996295 130.57 0.085924 40.568 0.085924 40.568 0.996295 130.57
8.78387000 0.996295 130.57 0.085926 40.568 0.085926 40.568 0.996295 130.57
8.78388000 0.996295 130.57 0.085929 40.568 0.085929 40.568 0.996295 130.57
8.78389000 0.996295 130.57 0.085932 40.568 0.085932 40.568 0.996295 130.57
8.78390000 0.996294 130.57 0.085935 40.568 0.085935 40.568 0.996294 130.57
8.78391000 0.996294 130.57 0.085937 40.567 0.085937 40.567 0.996294 130.57
8.78392000 0.996294 130.57 0.085940 40.567 0.085940 40.567 0.996294 130.57