! Sonnet Data File
! From: emgraph Version : 16.52
! From Emgraph Data: 171113transmon_brg_singlesided
! Data File Written: 11/13/2017 17:44:24
!< HDATE 11/13/2017 16:41:44
!< MDATE 11/13/2017 16:41:44
!< PARAMS
!< Lj = 15.24
!< Gap = 6.0
!< Width = 10.0
!< Pwidth = 2000.0
!< hDis = 998.0
!< END PARAMS
# GHZ S MA R 34.67000
8.78000000 0.959314 141.04 0.282317 -2.092 0.282317 -2.092 0.959169 34.782
!< P1 F=8.78 Eeff=(5.13743391 -5.7017e-5) Z0=(34.6430374 -9.7216e-5) R=0.0 C=0.0 
!< P2 F=8.78 Eeff=(5.13743391 -5.7017e-5) Z0=(34.6430374 -9.7216e-5) R=0.0 C=0.0 
8.78002000 0.959306 141.04 0.282342 -2.097 0.282342 -2.097 0.959161 34.771
8.78004000 0.959299 141.04 0.282366 -2.102 0.282366 -2.102 0.959154 34.761
8.78006000 0.959292 141.04 0.282391 -2.107 0.282391 -2.107 0.959146 34.751
8.78008000 0.959285 141.04 0.282415 -2.112 0.282415 -2.112 0.959138 34.741
8.78010000 0.959277 141.04 0.282440 -2.117 0.282440 -2.117 0.959131 34.731
8.78012000 0.959270 141.04 0.282465 -2.122 0.282465 -2.122 0.959123 34.721
8.78014000 0.959263 141.04 0.282490 -2.128 0.282490 -2.128 0.959116 34.711
8.78016000 0.959255 141.04 0.282515 -2.133 0.282515 -2.133 0.959108 34.700
8.78018000 0.959248 141.04 0.282539 -2.138 0.282539 -2.138 0.959100 34.690
8.78020000 0.959241 141.04 0.282564 -2.143 0.282564 -2.143 0.959093 34.680
8.78022000 0.959233 141.04 0.282589 -2.148 0.282589 -2.148 0.959085 34.669
8.78024000 0.959226 141.04 0.282614 -2.154 0.282614 -2.154 0.959077 34.659
8.78026000 0.959218 141.04 0.282640 -2.159 0.282640 -2.159 0.959070 34.649
8.78028000 0.959211 141.04 0.282665 -2.164 0.282665 -2.164 0.959062 34.638
8.78030000 0.959204 141.04 0.282690 -2.169 0.282690 -2.169 0.959054 34.628
8.78032000 0.959196 141.04 0.282715 -2.175 0.282715 -2.175 0.959046 34.618
8.78034000 0.959189 141.04 0.282740 -2.180 0.282740 -2.180 0.959039 34.607
8.78036000 0.959181 141.04 0.282766 -2.185 0.282766 -2.185 0.959031 34.597
8.78038000 0.959174 141.04 0.282791 -2.190 0.282791 -2.190 0.959023 34.586
8.78040000 0.959166 141.04 0.282817 -2.196 0.282817 -2.196 0.959015 34.576
8.78042000 0.959159 141.04 0.282842 -2.201 0.282842 -2.201 0.959007 34.565
8.78044000 0.959151 141.04 0.282868 -2.206 0.282868 -2.206 0.959000 34.555
8.78046000 0.959144 141.04 0.282893 -2.212 0.282893 -2.212 0.958992 34.544
8.78048000 0.959136 141.04 0.282919 -2.217 0.282919 -2.217 0.958984 34.534
8.78050000 0.959128 141.04 0.282945 -2.222 0.282945 -2.222 0.958976 34.523
8.78052000 0.959121 141.04 0.282971 -2.228 0.282971 -2.228 0.958968 34.512
8.78054000 0.959113 141.04 0.282996 -2.233 0.282996 -2.233 0.958960 34.502
8.78056000 0.959105 141.04 0.283022 -2.239 0.283022 -2.239 0.958952 34.491
8.78058000 0.959098 141.04 0.283048 -2.244 0.283048 -2.244 0.958944 34.480
8.78060000 0.959090 141.04 0.283074 -2.249 0.283074 -2.249 0.958936 34.470
8.78062000 0.959082 141.04 0.283100 -2.255 0.283100 -2.255 0.958928 34.459
8.78064000 0.959075 141.04 0.283126 -2.260 0.283126 -2.260 0.958920 34.448
8.78066000 0.959067 141.04 0.283152 -2.266 0.283152 -2.266 0.958912 34.437
8.78068000 0.959059 141.04 0.283179 -2.271 0.283179 -2.271 0.958904 34.427
8.78070000 0.959051 141.04 0.283205 -2.277 0.283205 -2.277 0.958896 34.416
8.78072000 0.959044 141.04 0.283231 -2.282 0.283231 -2.282 0.958888 34.405
8.78074000 0.959036 141.04 0.283258 -2.288 0.283258 -2.288 0.958880 34.394
8.78076000 0.959028 141.04 0.283284 -2.293 0.283284 -2.293 0.958872 34.383
8.78078000 0.959020 141.04 0.283310 -2.299 0.283310 -2.299 0.958863 34.372
8.78080000 0.959012 141.04 0.283337 -2.304 0.283337 -2.304 0.958855 34.361
8.78082000 0.959004 141.04 0.283364 -2.310 0.283364 -2.310 0.958847 34.350
8.78084000 0.958997 141.04 0.283390 -2.315 0.283390 -2.315 0.958839 34.339
8.78086000 0.958989 141.04 0.283417 -2.321 0.283417 -2.321 0.958831 34.328
8.78088000 0.958981 141.04 0.283444 -2.326 0.283444 -2.326 0.958822 34.317
8.78090000 0.958973 141.04 0.283470 -2.332 0.283470 -2.332 0.958814 34.306
8.78092000 0.958965 141.04 0.283497 -2.338 0.283497 -2.338 0.958806 34.295
8.78094000 0.958957 141.04 0.283524 -2.343 0.283524 -2.343 0.958798 34.284
8.78096000 0.958949 141.04 0.283551 -2.349 0.283551 -2.349 0.958789 34.273
8.78098000 0.958941 141.04 0.283578 -2.355 0.283578 -2.355 0.958781 34.262
8.78100000 0.958933 141.04 0.283605 -2.360 0.283605 -2.360 0.958773 34.251
8.78102000 0.958925 141.04 0.283632 -2.366 0.283632 -2.366 0.958764 34.239
8.78104000 0.958917 141.04 0.283660 -2.372 0.283660 -2.372 0.958756 34.228
8.78106000 0.958909 141.04 0.283687 -2.377 0.283687 -2.377 0.958747 34.217
8.78108000 0.958901 141.04 0.283714 -2.383 0.283714 -2.383 0.958739 34.206
8.78110000 0.958893 141.04 0.283741 -2.389 0.283741 -2.389 0.958731 34.194
8.78112000 0.958884 141.04 0.283769 -2.394 0.283769 -2.394 0.958722 34.183
8.78114000 0.958876 141.04 0.283796 -2.400 0.283796 -2.400 0.958714 34.172
8.78116000 0.958868 141.04 0.283824 -2.406 0.283824 -2.406 0.958705 34.160
8.78118000 0.958860 141.04 0.283851 -2.412 0.283851 -2.412 0.958697 34.149
8.78120000 0.958852 141.04 0.283879 -2.417 0.283879 -2.417 0.958688 34.137
8.78122000 0.958843 141.04 0.283907 -2.423 0.283907 -2.423 0.958679 34.126
8.78124000 0.958835 141.04 0.283935 -2.429 0.283935 -2.429 0.958671 34.114
8.78126000 0.958827 141.04 0.283962 -2.435 0.283962 -2.435 0.958662 34.103
8.78128000 0.958819 141.04 0.283990 -2.441 0.283990 -2.441 0.958654 34.091
8.78130000 0.958810 141.04 0.284018 -2.446 0.284018 -2.446 0.958645 34.080
8.78132000 0.958802 141.04 0.284046 -2.452 0.284046 -2.452 0.958636 34.068
8.78134000 0.958794 141.04 0.284074 -2.458 0.284074 -2.458 0.958628 34.057
8.78136000 0.958785 141.04 0.284102 -2.464 0.284102 -2.464 0.958619 34.045
8.78138000 0.958777 141.04 0.284131 -2.470 0.284131 -2.470 0.958610 34.033
8.78140000 0.958769 141.04 0.284159 -2.476 0.284159 -2.476 0.958602 34.022
8.78142000 0.958760 141.04 0.284187 -2.482 0.284187 -2.482 0.958593 34.010
8.78144000 0.958752 141.04 0.284216 -2.488 0.284216 -2.488 0.958584 33.998
8.78146000 0.958743 141.04 0.284244 -2.494 0.284244 -2.494 0.958575 33.986
8.78148000 0.958735 141.04 0.284272 -2.500 0.284272 -2.500 0.958566 33.975
8.78150000 0.958726 141.04 0.284301 -2.506 0.284301 -2.506 0.958557 33.963
8.78152000 0.958718 141.03 0.284330 -2.512 0.284330 -2.512 0.958549 33.951
8.78154000 0.958709 141.03 0.284358 -2.518 0.284358 -2.518 0.958540 33.939
8.78156000 0.958701 141.03 0.284387 -2.524 0.284387 -2.524 0.958531 33.927
8.78158000 0.958692 141.03 0.284416 -2.530 0.284416 -2.530 0.958522 33.915
8.78160000 0.958684 141.03 0.284445 -2.536 0.284445 -2.536 0.958513 33.903
8.78162000 0.958675 141.03 0.284474 -2.542 0.284474 -2.542 0.958504 33.891
8.78164000 0.958667 141.03 0.284503 -2.548 0.284503 -2.548 0.958495 33.879
8.78166000 0.958658 141.03 0.284532 -2.554 0.284532 -2.554 0.958486 33.867
8.78168000 0.958649 141.03 0.284561 -2.560 0.284561 -2.560 0.958477 33.855
8.78170000 0.958641 141.03 0.284590 -2.566 0.284590 -2.566 0.958468 33.843
8.78172000 0.958632 141.03 0.284619 -2.572 0.284619 -2.572 0.958459 33.831
8.78174000 0.958623 141.03 0.284648 -2.578 0.284648 -2.578 0.958450 33.819
8.78176000 0.958614 141.03 0.284678 -2.584 0.284678 -2.584 0.958441 33.807
8.78178000 0.958606 141.03 0.284707 -2.591 0.284707 -2.591 0.958432 33.794
8.78180000 0.958597 141.03 0.284737 -2.597 0.284737 -2.597 0.958422 33.782
8.78182000 0.958588 141.03 0.284766 -2.603 0.284766 -2.603 0.958413 33.770
8.78184000 0.958579 141.03 0.284796 -2.609 0.284796 -2.609 0.958404 33.758
8.78186000 0.958570 141.03 0.284826 -2.615 0.284826 -2.615 0.958395 33.745
8.78188000 0.958562 141.03 0.284855 -2.622 0.284855 -2.622 0.958386 33.733
8.78190000 0.958553 141.03 0.284885 -2.628 0.284885 -2.628 0.958376 33.721
8.78192000 0.958544 141.03 0.284915 -2.634 0.284915 -2.634 0.958367 33.708
8.78194000 0.958535 141.03 0.284945 -2.640 0.284945 -2.640 0.958358 33.696
8.78196000 0.958526 141.03 0.284975 -2.647 0.284975 -2.647 0.958348 33.683
8.78198000 0.958517 141.03 0.285005 -2.653 0.285005 -2.653 0.958339 33.671
8.78200000 0.958508 141.03 0.285035 -2.659 0.285035 -2.659 0.958330 33.658
8.78202000 0.958499 141.03 0.285065 -2.666 0.285065 -2.666 0.958320 33.646
8.78204000 0.958490 141.03 0.285096 -2.672 0.285096 -2.672 0.958311 33.633
8.78206000 0.958481 141.03 0.285126 -2.678 0.285126 -2.678 0.958301 33.621
8.78208000 0.958472 141.03 0.285156 -2.685 0.285156 -2.685 0.958292 33.608
8.78210000 0.958463 141.03 0.285187 -2.691 0.285187 -2.691 0.958282 33.595
8.78212000 0.958454 141.03 0.285217 -2.697 0.285217 -2.697 0.958273 33.583
8.78214000 0.958445 141.03 0.285248 -2.704 0.285248 -2.704 0.958263 33.570
8.78216000 0.958435 141.03 0.285279 -2.710 0.285279 -2.710 0.958254 33.557
8.78218000 0.958426 141.03 0.285309 -2.717 0.285309 -2.717 0.958244 33.545
8.78220000 0.958417 141.03 0.285340 -2.723 0.285340 -2.723 0.958235 33.532
8.78222000 0.958408 141.03 0.285371 -2.730 0.285371 -2.730 0.958225 33.519
8.78224000 0.958399 141.03 0.285402 -2.736 0.285402 -2.736 0.958215 33.506
8.78226000 0.958389 141.03 0.285433 -2.743 0.285433 -2.743 0.958206 33.493
8.78228000 0.958380 141.03 0.285464 -2.749 0.285464 -2.749 0.958196 33.480
8.78230000 0.958371 141.03 0.285495 -2.756 0.285495 -2.756 0.958186 33.467
8.78232000 0.958361 141.03 0.285527 -2.762 0.285527 -2.762 0.958177 33.454
8.78234000 0.958352 141.03 0.285558 -2.769 0.285558 -2.769 0.958167 33.441
8.78236000 0.958343 141.03 0.285589 -2.775 0.285589 -2.775 0.958157 33.428
8.78238000 0.958333 141.03 0.285621 -2.782 0.285621 -2.782 0.958147 33.415
8.78240000 0.958324 141.03 0.285652 -2.789 0.285652 -2.789 0.958137 33.402
8.78242000 0.958314 141.03 0.285684 -2.795 0.285684 -2.795 0.958128 33.389
8.78244000 0.958305 141.03 0.285716 -2.802 0.285716 -2.802 0.958118 33.376
8.78246000 0.958296 141.03 0.285747 -2.809 0.285747 -2.809 0.958108 33.363
8.78248000 0.958286 141.03 0.285779 -2.815 0.285779 -2.815 0.958098 33.349
8.78250000 0.958276 141.03 0.285811 -2.822 0.285811 -2.822 0.958088 33.336
8.78252000 0.958267 141.03 0.285843 -2.829 0.285843 -2.829 0.958078 33.323
8.78254000 0.958257 141.03 0.285875 -2.835 0.285875 -2.835 0.958068 33.309
8.78256000 0.958248 141.03 0.285907 -2.842 0.285907 -2.842 0.958058 33.296
8.78258000 0.958238 141.03 0.285939 -2.849 0.285939 -2.849 0.958048 33.283
8.78260000 0.958228 141.03 0.285971 -2.856 0.285971 -2.856 0.958038 33.269
8.78262000 0.958219 141.03 0.286004 -2.862 0.286004 -2.862 0.958028 33.256
8.78264000 0.958209 141.03 0.286036 -2.869 0.286036 -2.869 0.958017 33.242
8.78266000 0.958199 141.03 0.286069 -2.876 0.286069 -2.876 0.958007 33.229
8.78268000 0.958190 141.03 0.286101 -2.883 0.286101 -2.883 0.957997 33.215
8.78270000 0.958180 141.03 0.286134 -2.890 0.286134 -2.890 0.957987 33.202
8.78272000 0.958170 141.03 0.286166 -2.897 0.286166 -2.897 0.957977 33.188
8.78274000 0.958160 141.03 0.286199 -2.903 0.286199 -2.903 0.957966 33.174
8.78276000 0.958151 141.03 0.286232 -2.910 0.286232 -2.910 0.957956 33.161
8.78278000 0.958141 141.03 0.286265 -2.917 0.286265 -2.917 0.957946 33.147
8.78280000 0.958131 141.03 0.286298 -2.924 0.286298 -2.924 0.957936 33.133
8.78282000 0.958121 141.03 0.286331 -2.931 0.286331 -2.931 0.957925 33.119
8.78284000 0.958111 141.03 0.286364 -2.938 0.286364 -2.938 0.957915 33.106
8.78286000 0.958101 141.03 0.286397 -2.945 0.286397 -2.945 0.957904 33.092
8.78288000 0.958091 141.03 0.286431 -2.952 0.286431 -2.952 0.957894 33.078
8.78290000 0.958081 141.03 0.286464 -2.959 0.286464 -2.959 0.957884 33.064
8.78292000 0.958071 141.03 0.286498 -2.966 0.286498 -2.966 0.957873 33.050
8.78294000 0.958061 141.03 0.286531 -2.973 0.286531 -2.973 0.957863 33.036
8.78296000 0.958051 141.03 0.286565 -2.980 0.286565 -2.980 0.957852 33.022
8.78298000 0.958041 141.03 0.286598 -2.987 0.286598 -2.987 0.957841 33.008
8.78300000 0.958031 141.03 0.286632 -2.994 0.286632 -2.994 0.957831 32.994
8.78302000 0.958021 141.03 0.286666 -3.002 0.286666 -3.002 0.957820 32.980
8.78304000 0.958010 141.03 0.286700 -3.009 0.286700 -3.009 0.957810 32.966
8.78306000 0.958000 141.03 0.286734 -3.016 0.286734 -3.016 0.957799 32.951
8.78308000 0.957990 141.03 0.286768 -3.023 0.286768 -3.023 0.957788 32.937
8.78310000 0.957980 141.03 0.286802 -3.030 0.286802 -3.030 0.957777 32.923
8.78312000 0.957969 141.03 0.286836 -3.037 0.286836 -3.037 0.957767 32.909
8.78314000 0.957959 141.03 0.286871 -3.045 0.286871 -3.045 0.957756 32.894
8.78316000 0.957949 141.03 0.286905 -3.052 0.286905 -3.052 0.957745 32.880
8.78318000 0.957938 141.03 0.286940 -3.059 0.286940 -3.059 0.957734 32.865
8.78320000 0.957928 141.03 0.286974 -3.066 0.286974 -3.066 0.957723 32.851
8.78322000 0.957918 141.03 0.287009 -3.074 0.287009 -3.074 0.957712 32.836
8.78324000 0.957907 141.03 0.287044 -3.081 0.287044 -3.081 0.957702 32.822
8.78326000 0.957897 141.03 0.287078 -3.088 0.287078 -3.088 0.957691 32.807
8.78328000 0.957886 141.03 0.287113 -3.096 0.287113 -3.096 0.957680 32.793
8.78330000 0.957876 141.03 0.287148 -3.103 0.287148 -3.103 0.957669 32.778
8.78332000 0.957865 141.03 0.287183 -3.111 0.287183 -3.111 0.957658 32.764
8.78334000 0.957855 141.03 0.287219 -3.118 0.287219 -3.118 0.957647 32.749
8.78336000 0.957844 141.03 0.287254 -3.125 0.287254 -3.125 0.957635 32.734
8.78338000 0.957833 141.03 0.287289 -3.133 0.287289 -3.133 0.957624 32.719
8.78340000 0.957823 141.03 0.287325 -3.140 0.287325 -3.140 0.957613 32.704
8.78342000 0.957812 141.03 0.287360 -3.148 0.287360 -3.148 0.957602 32.690
8.78344000 0.957801 141.03 0.287396 -3.155 0.287396 -3.155 0.957591 32.675
8.78346000 0.957791 141.03 0.287431 -3.163 0.287431 -3.163 0.957580 32.660
8.78348000 0.957780 141.03 0.287467 -3.170 0.287467 -3.170 0.957568 32.645
8.78350000 0.957769 141.03 0.287503 -3.178 0.287503 -3.178 0.957557 32.630
8.78352000 0.957758 141.03 0.287539 -3.185 0.287539 -3.185 0.957546 32.615
8.78354000 0.957748 141.03 0.287575 -3.193 0.287575 -3.193 0.957534 32.600
8.78356000 0.957737 141.03 0.287611 -3.201 0.287611 -3.201 0.957523 32.585
8.78358000 0.957726 141.03 0.287647 -3.208 0.287647 -3.208 0.957511 32.569
8.78360000 0.957715 141.03 0.287683 -3.216 0.287683 -3.216 0.957500 32.554
8.78362000 0.957704 141.03 0.287720 -3.224 0.287720 -3.224 0.957489 32.539
8.78364000 0.957693 141.03 0.287756 -3.231 0.287756 -3.231 0.957477 32.524
8.78366000 0.957682 141.03 0.287793 -3.239 0.287793 -3.239 0.957466 32.508
8.78368000 0.957671 141.03 0.287829 -3.247 0.287829 -3.247 0.957454 32.493
8.78370000 0.957660 141.02 0.287866 -3.255 0.287866 -3.255 0.957442 32.478
8.78372000 0.957649 141.02 0.287903 -3.262 0.287903 -3.262 0.957431 32.462
8.78374000 0.957638 141.02 0.287940 -3.270 0.287940 -3.270 0.957419 32.447
8.78376000 0.957627 141.02 0.287977 -3.278 0.287977 -3.278 0.957407 32.431
8.78378000 0.957615 141.02 0.288014 -3.286 0.288014 -3.286 0.957396 32.416
8.78380000 0.957604 141.02 0.288051 -3.294 0.288051 -3.294 0.957384 32.400
8.78382000 0.957593 141.02 0.288088 -3.301 0.288088 -3.301 0.957372 32.385
8.78384000 0.957582 141.02 0.288125 -3.309 0.288125 -3.309 0.957360 32.369
8.78386000 0.957570 141.02 0.288163 -3.317 0.288163 -3.317 0.957348 32.353
8.78388000 0.957559 141.02 0.288200 -3.325 0.288200 -3.325 0.957337 32.337
8.78390000 0.957548 141.02 0.288238 -3.333 0.288238 -3.333 0.957325 32.322
8.78392000 0.957536 141.02 0.288276 -3.341 0.288276 -3.341 0.957313 32.306
8.78394000 0.957525 141.02 0.288314 -3.349 0.288314 -3.349 0.957301 32.290
8.78396000 0.957513 141.02 0.288351 -3.357 0.288351 -3.357 0.957289 32.274
8.78398000 0.957502 141.02 0.288389 -3.365 0.288389 -3.365 0.957277 32.258
8.78400000 0.957490 141.02 0.288428 -3.373 0.288428 -3.373 0.957265 32.242
8.78402000 0.957479 141.02 0.288466 -3.381 0.288466 -3.381 0.957253 32.226
8.78404000 0.957467 141.02 0.288504 -3.389 0.288504 -3.389 0.957240 32.210
8.78406000 0.957456 141.02 0.288542 -3.398 0.288542 -3.398 0.957228 32.194
8.78408000 0.957444 141.02 0.288581 -3.406 0.288581 -3.406 0.957216 32.178
8.78410000 0.957433 141.02 0.288619 -3.414 0.288619 -3.414 0.957204 32.161
8.78412000 0.957421 141.02 0.288658 -3.422 0.288658 -3.422 0.957192 32.145
8.78414000 0.957409 141.02 0.288697 -3.430 0.288697 -3.430 0.957179 32.129
8.78416000 0.957397 141.02 0.288736 -3.438 0.288736 -3.438 0.957167 32.113
8.78418000 0.957386 141.02 0.288775 -3.447 0.288775 -3.447 0.957155 32.096
8.78420000 0.957374 141.02 0.288814 -3.455 0.288814 -3.455 0.957142 32.080
8.78422000 0.957362 141.02 0.288853 -3.463 0.288853 -3.463 0.957130 32.063
8.78424000 0.957350 141.02 0.288892 -3.472 0.288892 -3.472 0.957117 32.047
8.78426000 0.957338 141.02 0.288932 -3.480 0.288932 -3.480 0.957105 32.030
8.78428000 0.957326 141.02 0.288971 -3.488 0.288971 -3.488 0.957092 32.014
8.78430000 0.957314 141.02 0.289011 -3.497 0.289011 -3.497 0.957080 31.997
8.78432000 0.957302 141.02 0.289050 -3.505 0.289050 -3.505 0.957067 31.980
8.78434000 0.957290 141.02 0.289090 -3.513 0.289090 -3.513 0.957054 31.963
8.78436000 0.957278 141.02 0.289130 -3.522 0.289130 -3.522 0.957042 31.947
8.78438000 0.957266 141.02 0.289170 -3.530 0.289170 -3.530 0.957029 31.930
8.78440000 0.957254 141.02 0.289210 -3.539 0.289210 -3.539 0.957016 31.913
8.78442000 0.957242 141.02 0.289250 -3.547 0.289250 -3.547 0.957003 31.896
8.78444000 0.957230 141.02 0.289290 -3.556 0.289290 -3.556 0.956991 31.879
8.78446000 0.957217 141.02 0.289331 -3.565 0.289331 -3.565 0.956978 31.862
8.78448000 0.957205 141.02 0.289371 -3.573 0.289371 -3.573 0.956965 31.845
8.78450000 0.957193 141.02 0.289412 -3.582 0.289412 -3.582 0.956952 31.828
8.78452000 0.957180 141.02 0.289452 -3.590 0.289452 -3.590 0.956939 31.811
8.78454000 0.957168 141.02 0.289493 -3.599 0.289493 -3.599 0.956926 31.794
8.78456000 0.957156 141.02 0.289534 -3.608 0.289534 -3.608 0.956913 31.776
8.78458000 0.957143 141.02 0.289575 -3.616 0.289575 -3.616 0.956900 31.759
8.78460000 0.957131 141.02 0.289616 -3.625 0.289616 -3.625 0.956887 31.742
8.78462000 0.957118 141.02 0.289657 -3.634 0.289657 -3.634 0.956874 31.724
8.78464000 0.957106 141.02 0.289699 -3.643 0.289699 -3.643 0.956860 31.707
8.78466000 0.957093 141.02 0.289740 -3.651 0.289740 -3.651 0.956847 31.689
8.78468000 0.957081 141.02 0.289782 -3.660 0.289782 -3.660 0.956834 31.672
8.78470000 0.957068 141.02 0.289823 -3.669 0.289823 -3.669 0.956821 31.654
8.78472000 0.957055 141.02 0.289865 -3.678 0.289865 -3.678 0.956807 31.637
8.78474000 0.957043 141.02 0.289907 -3.687 0.289907 -3.687 0.956794 31.619
8.78476000 0.957030 141.02 0.289949 -3.696 0.289949 -3.696 0.956781 31.601
8.78478000 0.957017 141.02 0.289991 -3.705 0.289991 -3.705 0.956767 31.583
8.78480000 0.957004 141.02 0.290033 -3.714 0.290033 -3.714 0.956754 31.566
8.78482000 0.956991 141.02 0.290075 -3.723 0.290075 -3.723 0.956740 31.548
8.78484000 0.956979 141.02 0.290118 -3.732 0.290118 -3.732 0.956726 31.530
8.78486000 0.956966 141.02 0.290160 -3.741 0.290160 -3.741 0.956713 31.512
8.78488000 0.956953 141.02 0.290203 -3.750 0.290203 -3.750 0.956699 31.494
8.78490000 0.956940 141.02 0.290246 -3.759 0.290246 -3.759 0.956686 31.476
8.78492000 0.956927 141.02 0.290288 -3.768 0.290288 -3.768 0.956672 31.458
8.78494000 0.956914 141.02 0.290331 -3.777 0.290331 -3.777 0.956658 31.439
8.78496000 0.956900 141.02 0.290375 -3.786 0.290375 -3.786 0.956644 31.421
8.78498000 0.956887 141.02 0.290418 -3.796 0.290418 -3.796 0.956630 31.403
8.78500000 0.956874 141.02 0.290461 -3.805 0.290461 -3.805 0.956617 31.384
8.78502000 0.956861 141.02 0.290504 -3.814 0.290504 -3.814 0.956603 31.366
8.78504000 0.956848 141.02 0.290548 -3.823 0.290548 -3.823 0.956589 31.348
8.78506000 0.956834 141.02 0.290592 -3.833 0.290592 -3.833 0.956575 31.329
8.78508000 0.956821 141.02 0.290635 -3.842 0.290635 -3.842 0.956561 31.311
8.78510000 0.956808 141.02 0.290679 -3.851 0.290679 -3.851 0.956547 31.292
8.78512000 0.956794 141.02 0.290723 -3.861 0.290723 -3.861 0.956532 31.273
8.78514000 0.956781 141.02 0.290767 -3.870 0.290767 -3.870 0.956518 31.255
8.78516000 0.956767 141.02 0.290812 -3.879 0.290812 -3.879 0.956504 31.236
8.78518000 0.956754 141.02 0.290856 -3.889 0.290856 -3.889 0.956490 31.217
8.78520000 0.956740 141.02 0.290901 -3.898 0.290901 -3.898 0.956476 31.198
8.78522000 0.956727 141.02 0.290945 -3.908 0.290945 -3.908 0.956461 31.179
8.78524000 0.956713 141.02 0.290990 -3.917 0.290990 -3.917 0.956447 31.160
8.78526000 0.956699 141.02 0.291035 -3.927 0.291035 -3.927 0.956432 31.141
8.78528000 0.956686 141.02 0.291080 -3.937 0.291080 -3.937 0.956418 31.122
8.78530000 0.956672 141.02 0.291125 -3.946 0.291125 -3.946 0.956403 31.103
8.78532000 0.956658 141.02 0.291170 -3.956 0.291170 -3.956 0.956389 31.084
8.78534000 0.956644 141.02 0.291215 -3.966 0.291215 -3.966 0.956374 31.065
8.78536000 0.956630 141.02 0.291261 -3.975 0.291261 -3.975 0.956360 31.045
8.78538000 0.956617 141.02 0.291306 -3.985 0.291306 -3.985 0.956345 31.026
8.78540000 0.956603 141.02 0.291352 -3.995 0.291352 -3.995 0.956330 31.007
8.78542000 0.956589 141.02 0.291398 -4.005 0.291398 -4.005 0.956316 30.987
8.78544000 0.956575 141.02 0.291444 -4.014 0.291444 -4.014 0.956301 30.968
8.78546000 0.956560 141.02 0.291490 -4.024 0.291490 -4.024 0.956286 30.948
8.78548000 0.956546 141.02 0.291536 -4.034 0.291536 -4.034 0.956271 30.928
8.78550000 0.956532 141.02 0.291582 -4.044 0.291582 -4.044 0.956256 30.909
8.78552000 0.956518 141.02 0.291629 -4.054 0.291629 -4.054 0.956241 30.889
8.78554000 0.956504 141.02 0.291675 -4.064 0.291675 -4.064 0.956226 30.869
8.78556000 0.956489 141.02 0.291722 -4.074 0.291722 -4.074 0.956211 30.849
8.78558000 0.956475 141.02 0.291769 -4.084 0.291769 -4.084 0.956196 30.829
8.78560000 0.956461 141.02 0.291816 -4.094 0.291816 -4.094 0.956181 30.809
8.78562000 0.956446 141.02 0.291863 -4.104 0.291863 -4.104 0.956165 30.789
8.78564000 0.956432 141.02 0.291910 -4.114 0.291910 -4.114 0.956150 30.769
8.78566000 0.956417 141.02 0.291958 -4.124 0.291958 -4.124 0.956135 30.749
8.78568000 0.956403 141.02 0.292005 -4.134 0.292005 -4.134 0.956120 30.729
8.78570000 0.956388 141.02 0.292053 -4.145 0.292053 -4.145 0.956104 30.708
8.78572000 0.956374 141.02 0.292101 -4.155 0.292101 -4.155 0.956089 30.688
8.78574000 0.956359 141.02 0.292148 -4.165 0.292148 -4.165 0.956073 30.668
8.78576000 0.956344 141.02 0.292197 -4.175 0.292197 -4.175 0.956058 30.647
8.78578000 0.956330 141.02 0.292245 -4.186 0.292245 -4.186 0.956042 30.627
8.78580000 0.956315 141.02 0.292293 -4.196 0.292293 -4.196 0.956026 30.606
8.78582000 0.956300 141.02 0.292341 -4.206 0.292341 -4.206 0.956011 30.585
8.78584000 0.956285 141.02 0.292390 -4.217 0.292390 -4.217 0.955995 30.565
8.78586000 0.956270 141.02 0.292439 -4.227 0.292439 -4.227 0.955979 30.544
8.78588000 0.956255 141.02 0.292488 -4.238 0.292488 -4.238 0.955963 30.523
8.78590000 0.956240 141.02 0.292536 -4.248 0.292536 -4.248 0.955948 30.502
8.78592000 0.956225 141.02 0.292586 -4.259 0.292586 -4.259 0.955932 30.481
8.78594000 0.956210 141.02 0.292635 -4.269 0.292635 -4.269 0.955916 30.460
8.78596000 0.956195 141.02 0.292684 -4.280 0.292684 -4.280 0.955900 30.439
8.78598000 0.956180 141.02 0.292734 -4.291 0.292734 -4.291 0.955883 30.418
8.78600000 0.956164 141.02 0.292783 -4.301 0.292783 -4.301 0.955867 30.397
8.78602000 0.956149 141.02 0.292833 -4.312 0.292833 -4.312 0.955851 30.375
8.78604000 0.956134 141.02 0.292883 -4.323 0.292883 -4.323 0.955835 30.354
8.78606000 0.956118 141.02 0.292933 -4.333 0.292933 -4.333 0.955819 30.333
8.78608000 0.956103 141.02 0.292984 -4.344 0.292984 -4.344 0.955802 30.311
8.78610000 0.956087 141.02 0.293034 -4.355 0.293034 -4.355 0.955786 30.290
8.78612000 0.956072 141.02 0.293085 -4.366 0.293085 -4.366 0.955770 30.268
8.78614000 0.956056 141.02 0.293135 -4.377 0.293135 -4.377 0.955753 30.246
8.78616000 0.956041 141.02 0.293186 -4.388 0.293186 -4.388 0.955737 30.224
8.78618000 0.956025 141.02 0.293237 -4.399 0.293237 -4.399 0.955720 30.203
8.78620000 0.956009 141.02 0.293288 -4.410 0.293288 -4.410 0.955703 30.181
8.78622000 0.955993 141.02 0.293339 -4.421 0.293339 -4.421 0.955687 30.159
8.78624000 0.955978 141.02 0.293391 -4.432 0.293391 -4.432 0.955670 30.137
8.78626000 0.955962 141.02 0.293442 -4.443 0.293442 -4.443 0.955653 30.115
8.78628000 0.955946 141.02 0.293494 -4.454 0.293494 -4.454 0.955636 30.093
8.78630000 0.955930 141.02 0.293546 -4.465 0.293546 -4.465 0.955619 30.070
8.78632000 0.955914 141.02 0.293598 -4.476 0.293598 -4.476 0.955602 30.048
8.78634000 0.955898 141.02 0.293650 -4.488 0.293650 -4.488 0.955585 30.026
8.78636000 0.955882 141.02 0.293702 -4.499 0.293702 -4.499 0.955568 30.003
8.78638000 0.955866 141.02 0.293755 -4.510 0.293755 -4.510 0.955551 29.981
8.78640000 0.955849 141.02 0.293808 -4.521 0.293808 -4.521 0.955534 29.958
8.78642000 0.955833 141.02 0.293860 -4.533 0.293860 -4.533 0.955517 29.935
8.78644000 0.955817 141.02 0.293913 -4.544 0.293913 -4.544 0.955499 29.913
8.78646000 0.955800 141.02 0.293966 -4.556 0.293966 -4.556 0.955482 29.890
8.78648000 0.955784 141.02 0.294020 -4.567 0.294020 -4.567 0.955465 29.867
8.78650000 0.955767 141.02 0.294073 -4.579 0.294073 -4.579 0.955447 29.844
8.78652000 0.955751 141.02 0.294127 -4.590 0.294127 -4.590 0.955430 29.821
8.78654000 0.955734 141.02 0.294180 -4.602 0.294180 -4.602 0.955412 29.798
8.78656000 0.955718 141.02 0.294234 -4.613 0.294234 -4.613 0.955394 29.775
8.78658000 0.955701 141.02 0.294288 -4.625 0.294288 -4.625 0.955377 29.752
8.78660000 0.955684 141.02 0.294342 -4.637 0.294342 -4.637 0.955359 29.728
8.78662000 0.955668 141.02 0.294397 -4.649 0.294397 -4.649 0.955341 29.705
8.78664000 0.955651 141.02 0.294451 -4.660 0.294451 -4.660 0.955323 29.681
8.78666000 0.955634 141.02 0.294506 -4.672 0.294506 -4.672 0.955305 29.658
8.78668000 0.955617 141.02 0.294561 -4.684 0.294561 -4.684 0.955287 29.634
8.78670000 0.955600 141.02 0.294616 -4.696 0.294616 -4.696 0.955269 29.611
8.78672000 0.955583 141.02 0.294671 -4.708 0.294671 -4.708 0.955251 29.587
8.78674000 0.955566 141.02 0.294726 -4.720 0.294726 -4.720 0.955233 29.563
8.78676000 0.955548 141.02 0.294782 -4.732 0.294782 -4.732 0.955215 29.539
8.78678000 0.955531 141.02 0.294837 -4.744 0.294837 -4.744 0.955197 29.515
8.78680000 0.955514 141.02 0.294893 -4.756 0.294893 -4.756 0.955178 29.491
8.78682000 0.955497 141.02 0.294949 -4.768 0.294949 -4.768 0.955160 29.467
8.78684000 0.955479 141.02 0.295005 -4.780 0.295005 -4.780 0.955141 29.443
8.78686000 0.955462 141.02 0.295062 -4.792 0.295062 -4.792 0.955123 29.418
8.78688000 0.955444 141.02 0.295118 -4.805 0.295118 -4.805 0.955104 29.394
8.78690000 0.955427 141.02 0.295175 -4.817 0.295175 -4.817 0.955086 29.370
8.78692000 0.955409 141.02 0.295232 -4.829 0.295232 -4.829 0.955067 29.345
8.78694000 0.955391 141.02 0.295289 -4.842 0.295289 -4.842 0.955048 29.320
8.78696000 0.955374 141.02 0.295346 -4.854 0.295346 -4.854 0.955029 29.296
8.78698000 0.955356 141.02 0.295403 -4.866 0.295403 -4.866 0.955011 29.271
8.78700000 0.955338 141.02 0.295461 -4.879 0.295461 -4.879 0.954992 29.246
8.78702000 0.955320 141.02 0.295519 -4.891 0.295519 -4.891 0.954973 29.221
8.78704000 0.955302 141.02 0.295577 -4.904 0.295577 -4.904 0.954953 29.196
8.78706000 0.955284 141.01 0.295635 -4.916 0.295635 -4.916 0.954934 29.171
8.78708000 0.955266 141.01 0.295693 -4.929 0.295693 -4.929 0.954915 29.146
8.78710000 0.955248 141.01 0.295751 -4.942 0.295751 -4.942 0.954896 29.120
8.78712000 0.955230 141.01 0.295810 -4.955 0.295810 -4.955 0.954876 29.095
8.78714000 0.955211 141.01 0.295869 -4.967 0.295869 -4.967 0.954857 29.070
8.78716000 0.955193 141.01 0.295928 -4.980 0.295928 -4.980 0.954838 29.044
8.78718000 0.955175 141.01 0.295987 -4.993 0.295987 -4.993 0.954818 29.018
8.78720000 0.955156 141.01 0.296046 -5.006 0.296046 -5.006 0.954798 28.993
8.78722000 0.955138 141.01 0.296106 -5.019 0.296106 -5.019 0.954779 28.967
8.78724000 0.955119 141.01 0.296166 -5.032 0.296166 -5.032 0.954759 28.941
8.78726000 0.955101 141.01 0.296226 -5.045 0.296226 -5.045 0.954739 28.915
8.78728000 0.955082 141.01 0.296286 -5.058 0.296286 -5.058 0.954719 28.889
8.78730000 0.955063 141.01 0.296346 -5.071 0.296346 -5.071 0.954699 28.863
8.78732000 0.955044 141.01 0.296406 -5.084 0.296406 -5.084 0.954679 28.837
8.78734000 0.955025 141.01 0.296467 -5.097 0.296467 -5.097 0.954659 28.810
8.78736000 0.955007 141.01 0.296528 -5.111 0.296528 -5.111 0.954639 28.784
8.78738000 0.954987 141.01 0.296589 -5.124 0.296589 -5.124 0.954619 28.757
8.78740000 0.954968 141.01 0.296650 -5.137 0.296650 -5.137 0.954598 28.731
8.78742000 0.954949 141.01 0.296712 -5.151 0.296712 -5.151 0.954578 28.704
8.78744000 0.954930 141.01 0.296773 -5.164 0.296773 -5.164 0.954558 28.677
8.78746000 0.954911 141.01 0.296835 -5.178 0.296835 -5.178 0.954537 28.650
8.78748000 0.954891 141.01 0.296897 -5.191 0.296897 -5.191 0.954516 28.623
8.78750000 0.954872 141.01 0.296959 -5.205 0.296959 -5.205 0.954496 28.596
8.78752000 0.954853 141.01 0.297022 -5.218 0.297022 -5.218 0.954475 28.569
8.78754000 0.954833 141.01 0.297084 -5.232 0.297084 -5.232 0.954454 28.542
8.78756000 0.954813 141.01 0.297147 -5.246 0.297147 -5.246 0.954433 28.515
8.78758000 0.954794 141.01 0.297210 -5.259 0.297210 -5.259 0.954412 28.487
8.78760000 0.954774 141.01 0.297273 -5.273 0.297273 -5.273 0.954391 28.460
8.78762000 0.954754 141.01 0.297337 -5.287 0.297337 -5.287 0.954370 28.432
8.78764000 0.954734 141.01 0.297400 -5.301 0.297400 -5.301 0.954349 28.404
8.78766000 0.954714 141.01 0.297464 -5.315 0.297464 -5.315 0.954328 28.376
8.78768000 0.954694 141.01 0.297528 -5.329 0.297528 -5.329 0.954306 28.348
8.78770000 0.954674 141.01 0.297592 -5.343 0.297592 -5.343 0.954285 28.320
8.78772000 0.954654 141.01 0.297657 -5.357 0.297657 -5.357 0.954264 28.292
8.78774000 0.954634 141.01 0.297722 -5.371 0.297722 -5.371 0.954242 28.264
8.78776000 0.954614 141.01 0.297786 -5.385 0.297786 -5.385 0.954220 28.236
8.78778000 0.954593 141.01 0.297851 -5.399 0.297851 -5.399 0.954199 28.207
8.78780000 0.954573 141.01 0.297917 -5.414 0.297917 -5.414 0.954177 28.179
8.78782000 0.954552 141.01 0.297982 -5.428 0.297982 -5.428 0.954155 28.150
8.78784000 0.954532 141.01 0.298048 -5.442 0.298048 -5.442 0.954133 28.122