! Sonnet Data File
! From: emgraph Version : 16.52
! From Project: transmon_brgOdd
! Data is De-embedded 
! Data File Written: 11/11/2017 22:28:46
!< HDATE 11/11/2017 18:22:48
!< MDATE 11/11/2017 18:22:48
!< PARAMS
!< Lj = 15.24
!< Gap = 6.0
!< Width = 10.0
!< Airgap = 6.0
!< Pwidth = 2000.0
!< Dist = 800.0
!< END PARAMS
# GHZ S MA R 34.67000
8.72000000 0.987541 111.00 0.157339 20.912 0.157339 20.912 0.987541 110.82
!< P1 F=8.72 Eeff=(5.13609477 -5.6761e-5) Z0=(34.6490765 -9.5162e-5) R=0.0 C=0.0 
!< P2 F=8.72 Eeff=(5.13609477 -5.6761e-5) Z0=(34.6490765 -9.5162e-5) R=0.0 C=0.0 
8.72005000 0.987541 111.00 0.157340 20.912 0.157340 20.912 0.987541 110.82
8.72010000 0.987540 111.00 0.157341 20.912 0.157341 20.912 0.987540 110.82
8.72015000 0.987540 111.00 0.157342 20.911 0.157342 20.911 0.987540 110.82
8.72020000 0.987540 111.00 0.157343 20.911 0.157343 20.911 0.987540 110.82
8.72025000 0.987540 111.00 0.157344 20.910 0.157344 20.910 0.987540 110.82
8.72030000 0.987540 111.00 0.157345 20.910 0.157345 20.910 0.987540 110.82
8.72035000 0.987539 111.00 0.157346 20.910 0.157346 20.910 0.987539 110.82
8.72040000 0.987539 111.00 0.157348 20.909 0.157348 20.909 0.987539 110.82
8.72045000 0.987539 111.00 0.157349 20.909 0.157349 20.909 0.987539 110.82
8.72050000 0.987539 111.00 0.157350 20.908 0.157350 20.908 0.987539 110.82
8.72055000 0.987539 111.00 0.157351 20.908 0.157351 20.908 0.987539 110.82
8.72060000 0.987539 111.00 0.157352 20.908 0.157352 20.908 0.987539 110.82
8.72065000 0.987538 111.00 0.157353 20.907 0.157353 20.907 0.987538 110.81
8.72070000 0.987538 111.00 0.157354 20.907 0.157354 20.907 0.987538 110.81
8.72075000 0.987538 111.00 0.157355 20.906 0.157355 20.906 0.987538 110.81
8.72080000 0.987538 111.00 0.157357 20.906 0.157357 20.906 0.987538 110.81
8.72085000 0.987538 111.00 0.157358 20.905 0.157358 20.905 0.987538 110.81
8.72090000 0.987538 111.00 0.157359 20.905 0.157359 20.905 0.987538 110.81
8.72095000 0.987537 110.99 0.157360 20.905 0.157360 20.905 0.987537 110.81
8.72100000 0.987537 110.99 0.157361 20.904 0.157361 20.904 0.987537 110.81
8.72105000 0.987537 110.99 0.157362 20.904 0.157362 20.904 0.987537 110.81
8.72110000 0.987537 110.99 0.157363 20.903 0.157363 20.903 0.987537 110.81
8.72115000 0.987537 110.99 0.157364 20.903 0.157364 20.903 0.987537 110.81
8.72120000 0.987536 110.99 0.157365 20.903 0.157365 20.903 0.987536 110.81
8.72125000 0.987536 110.99 0.157367 20.902 0.157367 20.902 0.987536 110.81
8.72130000 0.987536 110.99 0.157368 20.902 0.157368 20.902 0.987536 110.81
8.72135000 0.987536 110.99 0.157369 20.901 0.157369 20.901 0.987536 110.81
8.72140000 0.987536 110.99 0.157370 20.901 0.157370 20.901 0.987536 110.81
8.72145000 0.987536 110.99 0.157371 20.901 0.157371 20.901 0.987536 110.81
8.72150000 0.987535 110.99 0.157372 20.900 0.157372 20.900 0.987535 110.81
8.72155000 0.987535 110.99 0.157373 20.900 0.157373 20.900 0.987535 110.81
8.72160000 0.987535 110.99 0.157374 20.899 0.157374 20.899 0.987535 110.81
8.72165000 0.987535 110.99 0.157376 20.899 0.157376 20.899 0.987535 110.81
8.72170000 0.987535 110.99 0.157377 20.899 0.157377 20.899 0.987535 110.81
8.72175000 0.987535 110.99 0.157378 20.898 0.157378 20.898 0.987534 110.81
8.72180000 0.987534 110.99 0.157379 20.898 0.157379 20.898 0.987534 110.81
8.72185000 0.987534 110.99 0.157380 20.897 0.157380 20.897 0.987534 110.81
8.72190000 0.987534 110.99 0.157381 20.897 0.157381 20.897 0.987534 110.80
8.72195000 0.987534 110.99 0.157382 20.897 0.157382 20.897 0.987534 110.80
8.72200000 0.987534 110.99 0.157383 20.896 0.157383 20.896 0.987534 110.80
8.72205000 0.987533 110.99 0.157384 20.896 0.157384 20.896 0.987533 110.80
8.72210000 0.987533 110.99 0.157386 20.895 0.157386 20.895 0.987533 110.80
8.72215000 0.987533 110.98 0.157387 20.895 0.157387 20.895 0.987533 110.80
8.72220000 0.987533 110.98 0.157388 20.894 0.157388 20.894 0.987533 110.80
8.72225000 0.987533 110.98 0.157389 20.894 0.157389 20.894 0.987533 110.80
8.72230000 0.987533 110.98 0.157390 20.894 0.157390 20.894 0.987533 110.80
8.72235000 0.987532 110.98 0.157391 20.893 0.157391 20.893 0.987532 110.80
8.72240000 0.987532 110.98 0.157392 20.893 0.157392 20.893 0.987532 110.80
8.72245000 0.987532 110.98 0.157393 20.892 0.157393 20.892 0.987532 110.80
8.72250000 0.987532 110.98 0.157395 20.892 0.157395 20.892 0.987532 110.80
8.72255000 0.987532 110.98 0.157396 20.892 0.157396 20.892 0.987532 110.80
8.72260000 0.987531 110.98 0.157397 20.891 0.157397 20.891 0.987531 110.80
8.72265000 0.987531 110.98 0.157398 20.891 0.157398 20.891 0.987531 110.80
8.72270000 0.987531 110.98 0.157399 20.890 0.157399 20.890 0.987531 110.80
8.72275000 0.987531 110.98 0.157400 20.890 0.157400 20.890 0.987531 110.80
8.72280000 0.987531 110.98 0.157401 20.890 0.157401 20.890 0.987531 110.80
8.72285000 0.987531 110.98 0.157402 20.889 0.157402 20.889 0.987531 110.80
8.72290000 0.987530 110.98 0.157404 20.889 0.157404 20.889 0.987530 110.80
8.72295000 0.987530 110.98 0.157405 20.888 0.157405 20.888 0.987530 110.80
8.72300000 0.987530 110.98 0.157406 20.888 0.157406 20.888 0.987530 110.80
8.72305000 0.987530 110.98 0.157407 20.888 0.157407 20.888 0.987530 110.80
8.72310000 0.987530 110.98 0.157408 20.887 0.157408 20.887 0.987530 110.79
8.72315000 0.987529 110.98 0.157409 20.887 0.157409 20.887 0.987529 110.79
8.72320000 0.987529 110.98 0.157410 20.886 0.157410 20.886 0.987529 110.79
8.72325000 0.987529 110.98 0.157412 20.886 0.157412 20.886 0.987529 110.79
8.72330000 0.987529 110.98 0.157413 20.886 0.157413 20.886 0.987529 110.79
8.72335000 0.987529 110.98 0.157414 20.885 0.157414 20.885 0.987529 110.79
8.72340000 0.987529 110.97 0.157415 20.885 0.157415 20.885 0.987529 110.79
8.72345000 0.987528 110.97 0.157416 20.884 0.157416 20.884 0.987528 110.79
8.72350000 0.987528 110.97 0.157417 20.884 0.157417 20.884 0.987528 110.79
8.72355000 0.987528 110.97 0.157418 20.883 0.157418 20.883 0.987528 110.79
8.72360000 0.987528 110.97 0.157419 20.883 0.157419 20.883 0.987528 110.79
8.72365000 0.987528 110.97 0.157421 20.883 0.157421 20.883 0.987528 110.79
8.72370000 0.987528 110.97 0.157422 20.882 0.157422 20.882 0.987527 110.79
8.72375000 0.987527 110.97 0.157423 20.882 0.157423 20.882 0.987527 110.79
8.72380000 0.987527 110.97 0.157424 20.881 0.157424 20.881 0.987527 110.79
8.72385000 0.987527 110.97 0.157425 20.881 0.157425 20.881 0.987527 110.79
8.72390000 0.987527 110.97 0.157426 20.881 0.157426 20.881 0.987527 110.79
8.72395000 0.987527 110.97 0.157427 20.880 0.157427 20.880 0.987527 110.79
8.72400000 0.987526 110.97 0.157428 20.880 0.157428 20.880 0.987526 110.79
8.72405000 0.987526 110.97 0.157430 20.879 0.157430 20.879 0.987526 110.79
8.72410000 0.987526 110.97 0.157431 20.879 0.157431 20.879 0.987526 110.79
8.72415000 0.987526 110.97 0.157432 20.879 0.157432 20.879 0.987526 110.79
8.72420000 0.987526 110.97 0.157433 20.878 0.157433 20.878 0.987526 110.79
8.72425000 0.987526 110.97 0.157434 20.878 0.157434 20.878 0.987525 110.79
8.72430000 0.987525 110.97 0.157435 20.877 0.157435 20.877 0.987525 110.79
8.72435000 0.987525 110.97 0.157436 20.877 0.157436 20.877 0.987525 110.78
8.72440000 0.987525 110.97 0.157438 20.877 0.157438 20.877 0.987525 110.78
8.72445000 0.987525 110.97 0.157439 20.876 0.157439 20.876 0.987525 110.78
8.72450000 0.987525 110.97 0.157440 20.876 0.157440 20.876 0.987525 110.78
8.72455000 0.987524 110.97 0.157441 20.875 0.157441 20.875 0.987524 110.78
8.72460000 0.987524 110.96 0.157442 20.875 0.157442 20.875 0.987524 110.78
8.72465000 0.987524 110.96 0.157443 20.874 0.157443 20.874 0.987524 110.78
8.72470000 0.987524 110.96 0.157444 20.874 0.157444 20.874 0.987524 110.78
8.72475000 0.987524 110.96 0.157446 20.874 0.157446 20.874 0.987524 110.78
8.72480000 0.987524 110.96 0.157447 20.873 0.157447 20.873 0.987524 110.78
8.72485000 0.987523 110.96 0.157448 20.873 0.157448 20.873 0.987523 110.78
8.72490000 0.987523 110.96 0.157449 20.872 0.157449 20.872 0.987523 110.78
8.72495000 0.987523 110.96 0.157450 20.872 0.157450 20.872 0.987523 110.78
8.72500000 0.987523 110.96 0.157451 20.872 0.157451 20.872 0.987523 110.78
8.72505000 0.987523 110.96 0.157452 20.871 0.157452 20.871 0.987523 110.78
8.72510000 0.987522 110.96 0.157453 20.871 0.157453 20.871 0.987522 110.78
8.72515000 0.987522 110.96 0.157455 20.870 0.157455 20.870 0.987522 110.78
8.72520000 0.987522 110.96 0.157456 20.870 0.157456 20.870 0.987522 110.78
8.72525000 0.987522 110.96 0.157457 20.870 0.157457 20.870 0.987522 110.78
8.72530000 0.987522 110.96 0.157458 20.869 0.157458 20.869 0.987522 110.78
8.72535000 0.987522 110.96 0.157459 20.869 0.157459 20.869 0.987522 110.78
8.72540000 0.987521 110.96 0.157460 20.868 0.157460 20.868 0.987521 110.78
8.72545000 0.987521 110.96 0.157461 20.868 0.157461 20.868 0.987521 110.78
8.72550000 0.987521 110.96 0.157463 20.868 0.157463 20.868 0.987521 110.78
8.72555000 0.987521 110.96 0.157464 20.867 0.157464 20.867 0.987521 110.77
8.72560000 0.987521 110.96 0.157465 20.867 0.157465 20.867 0.987521 110.77
8.72565000 0.987520 110.96 0.157466 20.866 0.157466 20.866 0.987520 110.77
8.72570000 0.987520 110.96 0.157467 20.866 0.157467 20.866 0.987520 110.77
8.72575000 0.987520 110.96 0.157468 20.865 0.157468 20.865 0.987520 110.77
8.72580000 0.987520 110.96 0.157469 20.865 0.157469 20.865 0.987520 110.77
8.72585000 0.987520 110.95 0.157471 20.865 0.157471 20.865 0.987520 110.77
8.72590000 0.987520 110.95 0.157472 20.864 0.157472 20.864 0.987519 110.77
8.72595000 0.987519 110.95 0.157473 20.864 0.157473 20.864 0.987519 110.77
8.72600000 0.987519 110.95 0.157474 20.863 0.157474 20.863 0.987519 110.77
8.72605000 0.987519 110.95 0.157475 20.863 0.157475 20.863 0.987519 110.77
8.72610000 0.987519 110.95 0.157476 20.863 0.157476 20.863 0.987519 110.77
8.72615000 0.987519 110.95 0.157477 20.862 0.157477 20.862 0.987519 110.77
8.72620000 0.987518 110.95 0.157479 20.862 0.157479 20.862 0.987518 110.77
8.72625000 0.987518 110.95 0.157480 20.861 0.157480 20.861 0.987518 110.77
8.72630000 0.987518 110.95 0.157481 20.861 0.157481 20.861 0.987518 110.77
8.72635000 0.987518 110.95 0.157482 20.861 0.157482 20.861 0.987518 110.77
8.72640000 0.987518 110.95 0.157483 20.860 0.157483 20.860 0.987518 110.77
8.72645000 0.987518 110.95 0.157484 20.860 0.157484 20.860 0.987517 110.77
8.72650000 0.987517 110.95 0.157486 20.859 0.157486 20.859 0.987517 110.77
8.72655000 0.987517 110.95 0.157487 20.859 0.157487 20.859 0.987517 110.77
8.72660000 0.987517 110.95 0.157488 20.859 0.157488 20.859 0.987517 110.77
8.72665000 0.987517 110.95 0.157489 20.858 0.157489 20.858 0.987517 110.77
8.72670000 0.987517 110.95 0.157490 20.858 0.157490 20.858 0.987517 110.77
8.72675000 0.987516 110.95 0.157491 20.857 0.157491 20.857 0.987516 110.77
8.72680000 0.987516 110.95 0.157492 20.857 0.157492 20.857 0.987516 110.76
8.72685000 0.987516 110.95 0.157494 20.856 0.157494 20.856 0.987516 110.76
8.72690000 0.987516 110.95 0.157495 20.856 0.157495 20.856 0.987516 110.76
8.72695000 0.987516 110.95 0.157496 20.856 0.157496 20.856 0.987516 110.76
8.72700000 0.987515 110.95 0.157497 20.855 0.157497 20.855 0.987515 110.76
8.72705000 0.987515 110.94 0.157498 20.855 0.157498 20.855 0.987515 110.76
8.72710000 0.987515 110.94 0.157499 20.854 0.157499 20.854 0.987515 110.76
8.72715000 0.987515 110.94 0.157500 20.854 0.157500 20.854 0.987515 110.76
8.72720000 0.987515 110.94 0.157502 20.854 0.157502 20.854 0.987515 110.76
8.72725000 0.987515 110.94 0.157503 20.853 0.157503 20.853 0.987515 110.76
8.72730000 0.987514 110.94 0.157504 20.853 0.157504 20.853 0.987514 110.76
8.72735000 0.987514 110.94 0.157505 20.852 0.157505 20.852 0.987514 110.76
8.72740000 0.987514 110.94 0.157506 20.852 0.157506 20.852 0.987514 110.76
8.72745000 0.987514 110.94 0.157507 20.852 0.157507 20.852 0.987514 110.76
8.72750000 0.987514 110.94 0.157509 20.851 0.157509 20.851 0.987514 110.76
8.72755000 0.987513 110.94 0.157510 20.851 0.157510 20.851 0.987513 110.76
8.72760000 0.987513 110.94 0.157511 20.850 0.157511 20.850 0.987513 110.76
8.72765000 0.987513 110.94 0.157512 20.850 0.157512 20.850 0.987513 110.76
8.72770000 0.987513 110.94 0.157513 20.850 0.157513 20.850 0.987513 110.76
8.72775000 0.987513 110.94 0.157514 20.849 0.157514 20.849 0.987513 110.76
8.72780000 0.987513 110.94 0.157516 20.849 0.157516 20.849 0.987513 110.76
8.72785000 0.987512 110.94 0.157517 20.848 0.157517 20.848 0.987512 110.76
8.72790000 0.987512 110.94 0.157518 20.848 0.157518 20.848 0.987512 110.76
8.72795000 0.987512 110.94 0.157519 20.847 0.157519 20.847 0.987512 110.76
8.72800000 0.987512 110.94 0.157520 20.847 0.157520 20.847 0.987512 110.75
8.72805000 0.987512 110.94 0.157521 20.847 0.157521 20.847 0.987512 110.75
8.72810000 0.987511 110.94 0.157522 20.846 0.157522 20.846 0.987511 110.75
8.72815000 0.987511 110.94 0.157524 20.846 0.157524 20.846 0.987511 110.75
8.72820000 0.987511 110.94 0.157525 20.845 0.157525 20.845 0.987511 110.75
8.72825000 0.987511 110.94 0.157526 20.845 0.157526 20.845 0.987511 110.75
8.72830000 0.987511 110.93 0.157527 20.845 0.157527 20.845 0.987511 110.75
8.72835000 0.987510 110.93 0.157528 20.844 0.157528 20.844 0.987510 110.75
8.72840000 0.987510 110.93 0.157529 20.844 0.157529 20.844 0.987510 110.75
8.72845000 0.987510 110.93 0.157531 20.843 0.157531 20.843 0.987510 110.75
8.72850000 0.987510 110.93 0.157532 20.843 0.157532 20.843 0.987510 110.75
8.72855000 0.987510 110.93 0.157533 20.843 0.157533 20.843 0.987510 110.75
8.72860000 0.987510 110.93 0.157534 20.842 0.157534 20.842 0.987510 110.75
8.72865000 0.987509 110.93 0.157535 20.842 0.157535 20.842 0.987509 110.75
8.72870000 0.987509 110.93 0.157536 20.841 0.157536 20.841 0.987509 110.75
8.72875000 0.987509 110.93 0.157538 20.841 0.157538 20.841 0.987509 110.75
8.72880000 0.987509 110.93 0.157539 20.840 0.157539 20.840 0.987509 110.75
8.72885000 0.987509 110.93 0.157540 20.840 0.157540 20.840 0.987509 110.75
8.72890000 0.987508 110.93 0.157541 20.840 0.157541 20.840 0.987508 110.75
8.72895000 0.987508 110.93 0.157542 20.839 0.157542 20.839 0.987508 110.75
8.72900000 0.987508 110.93 0.157543 20.839 0.157543 20.839 0.987508 110.75
8.72905000 0.987508 110.93 0.157545 20.838 0.157545 20.838 0.987508 110.75
8.72910000 0.987508 110.93 0.157546 20.838 0.157546 20.838 0.987508 110.75
8.72915000 0.987508 110.93 0.157547 20.838 0.157547 20.838 0.987507 110.75
8.72920000 0.987507 110.93 0.157548 20.837 0.157548 20.837 0.987507 110.74
8.72925000 0.987507 110.93 0.157549 20.837 0.157549 20.837 0.987507 110.74
8.72930000 0.987507 110.93 0.157550 20.836 0.157550 20.836 0.987507 110.74
8.72935000 0.987507 110.93 0.157552 20.836 0.157552 20.836 0.987507 110.74
8.72940000 0.987507 110.93 0.157553 20.836 0.157553 20.836 0.987507 110.74
8.72945000 0.987506 110.93 0.157554 20.835 0.157554 20.835 0.987506 110.74
8.72950000 0.987506 110.92 0.157555 20.835 0.157555 20.835 0.987506 110.74
8.72955000 0.987506 110.92 0.157556 20.834 0.157556 20.834 0.987506 110.74
8.72960000 0.987506 110.92 0.157557 20.834 0.157557 20.834 0.987506 110.74
8.72965000 0.987506 110.92 0.157559 20.834 0.157559 20.834 0.987506 110.74
8.72970000 0.987505 110.92 0.157560 20.833 0.157560 20.833 0.987505 110.74
8.72975000 0.987505 110.92 0.157561 20.833 0.157561 20.833 0.987505 110.74
8.72980000 0.987505 110.92 0.157562 20.832 0.157562 20.832 0.987505 110.74
8.72985000 0.987505 110.92 0.157563 20.832 0.157563 20.832 0.987505 110.74
8.72990000 0.987505 110.92 0.157565 20.831 0.157565 20.831 0.987505 110.74
8.72995000 0.987505 110.92 0.157566 20.831 0.157566 20.831 0.987505 110.74
8.73000000 0.987504 110.92 0.157567 20.831 0.157567 20.831 0.987504 110.74
8.73005000 0.987504 110.92 0.157568 20.830 0.157568 20.830 0.987504 110.74
8.73010000 0.987504 110.92 0.157569 20.830 0.157569 20.830 0.987504 110.74
8.73015000 0.987504 110.92 0.157570 20.829 0.157570 20.829 0.987504 110.74
8.73020000 0.987504 110.92 0.157572 20.829 0.157572 20.829 0.987504 110.74
8.73025000 0.987503 110.92 0.157573 20.829 0.157573 20.829 0.987503 110.74
8.73030000 0.987503 110.92 0.157574 20.828 0.157574 20.828 0.987503 110.74
8.73035000 0.987503 110.92 0.157575 20.828 0.157575 20.828 0.987503 110.74
8.73040000 0.987503 110.92 0.157576 20.827 0.157576 20.827 0.987503 110.74
8.73045000 0.987503 110.92 0.157577 20.827 0.157577 20.827 0.987503 110.73
8.73050000 0.987502 110.92 0.157579 20.827 0.157579 20.827 0.987502 110.73
8.73055000 0.987502 110.92 0.157580 20.826 0.157580 20.826 0.987502 110.73
8.73060000 0.987502 110.92 0.157581 20.826 0.157581 20.826 0.987502 110.73
8.73065000 0.987502 110.92 0.157582 20.825 0.157582 20.825 0.987502 110.73
8.73070000 0.987502 110.91 0.157583 20.825 0.157583 20.825 0.987502 110.73
8.73075000 0.987502 110.91 0.157585 20.824 0.157585 20.824 0.987501 110.73
8.73080000 0.987501 110.91 0.157586 20.824 0.157586 20.824 0.987501 110.73
8.73085000 0.987501 110.91 0.157587 20.824 0.157587 20.824 0.987501 110.73
8.73090000 0.987501 110.91 0.157588 20.823 0.157588 20.823 0.987501 110.73
8.73095000 0.987501 110.91 0.157589 20.823 0.157589 20.823 0.987501 110.73
8.73100000 0.987501 110.91 0.157590 20.822 0.157590 20.822 0.987501 110.73
8.73105000 0.987500 110.91 0.157592 20.822 0.157592 20.822 0.987500 110.73
8.73110000 0.987500 110.91 0.157593 20.822 0.157593 20.822 0.987500 110.73
8.73115000 0.987500 110.91 0.157594 20.821 0.157594 20.821 0.987500 110.73
8.73120000 0.987500 110.91 0.157595 20.821 0.157595 20.821 0.987500 110.73
8.73125000 0.987500 110.91 0.157596 20.820 0.157596 20.820 0.987500 110.73
8.73130000 0.987499 110.91 0.157598 20.820 0.157598 20.820 0.987499 110.73
8.73135000 0.987499 110.91 0.157599 20.820 0.157599 20.820 0.987499 110.73
8.73140000 0.987499 110.91 0.157600 20.819 0.157600 20.819 0.987499 110.73
8.73145000 0.987499 110.91 0.157601 20.819 0.157601 20.819 0.987499 110.73
8.73150000 0.987499 110.91 0.157602 20.818 0.157602 20.818 0.987499 110.73
8.73155000 0.987498 110.91 0.157604 20.818 0.157604 20.818 0.987498 110.73
8.73160000 0.987498 110.91 0.157605 20.817 0.157605 20.817 0.987498 110.73
8.73165000 0.987498 110.91 0.157606 20.817 0.157606 20.817 0.987498 110.72
8.73170000 0.987498 110.91 0.157607 20.817 0.157607 20.817 0.987498 110.72
8.73175000 0.987498 110.91 0.157608 20.816 0.157608 20.816 0.987498 110.72
8.73180000 0.987498 110.91 0.157609 20.816 0.157609 20.816 0.987498 110.72
8.73185000 0.987497 110.91 0.157611 20.815 0.157611 20.815 0.987497 110.72
8.73190000 0.987497 110.91 0.157612 20.815 0.157612 20.815 0.987497 110.72
8.73195000 0.987497 110.90 0.157613 20.815 0.157613 20.815 0.987497 110.72
8.73200000 0.987497 110.90 0.157614 20.814 0.157614 20.814 0.987497 110.72
8.73205000 0.987497 110.90 0.157615 20.814 0.157615 20.814 0.987497 110.72
8.73210000 0.987496 110.90 0.157617 20.813 0.157617 20.813 0.987496 110.72
8.73215000 0.987496 110.90 0.157618 20.813 0.157618 20.813 0.987496 110.72
8.73220000 0.987496 110.90 0.157619 20.813 0.157619 20.813 0.987496 110.72
8.73225000 0.987496 110.90 0.157620 20.812 0.157620 20.812 0.987496 110.72
8.73230000 0.987496 110.90 0.157621 20.812 0.157621 20.812 0.987496 110.72
8.73235000 0.987495 110.90 0.157623 20.811 0.157623 20.811 0.987495 110.72
8.73240000 0.987495 110.90 0.157624 20.811 0.157624 20.811 0.987495 110.72
8.73245000 0.987495 110.90 0.157625 20.810 0.157625 20.810 0.987495 110.72
8.73250000 0.987495 110.90 0.157626 20.810 0.157626 20.810 0.987495 110.72
8.73255000 0.987495 110.90 0.157627 20.810 0.157627 20.810 0.987495 110.72
8.73260000 0.987494 110.90 0.157629 20.809 0.157629 20.809 0.987494 110.72
8.73265000 0.987494 110.90 0.157630 20.809 0.157630 20.809 0.987494 110.72
8.73270000 0.987494 110.90 0.157631 20.808 0.157631 20.808 0.987494 110.72
8.73275000 0.987494 110.90 0.157632 20.808 0.157632 20.808 0.987494 110.72
8.73280000 0.987494 110.90 0.157633 20.808 0.157633 20.808 0.987494 110.72
8.73285000 0.987494 110.90 0.157635 20.807 0.157635 20.807 0.987494 110.71
8.73290000 0.987493 110.90 0.157636 20.807 0.157636 20.807 0.987493 110.71
8.73295000 0.987493 110.90 0.157637 20.806 0.157637 20.806 0.987493 110.71
8.73300000 0.987493 110.90 0.157638 20.806 0.157638 20.806 0.987493 110.71
8.73305000 0.987493 110.90 0.157639 20.806 0.157639 20.806 0.987493 110.71
8.73310000 0.987493 110.90 0.157641 20.805 0.157641 20.805 0.987493 110.71
8.73315000 0.987492 110.89 0.157642 20.805 0.157642 20.805 0.987492 110.71
8.73320000 0.987492 110.89 0.157643 20.804 0.157643 20.804 0.987492 110.71
8.73325000 0.987492 110.89 0.157644 20.804 0.157644 20.804 0.987492 110.71
8.73330000 0.987492 110.89 0.157645 20.803 0.157645 20.803 0.987492 110.71
8.73335000 0.987492 110.89 0.157647 20.803 0.157647 20.803 0.987492 110.71
8.73340000 0.987491 110.89 0.157648 20.803 0.157648 20.803 0.987491 110.71
8.73345000 0.987491 110.89 0.157649 20.802 0.157649 20.802 0.987491 110.71
8.73350000 0.987491 110.89 0.157650 20.802 0.157650 20.802 0.987491 110.71
8.73355000 0.987491 110.89 0.157651 20.801 0.157651 20.801 0.987491 110.71
8.73360000 0.987491 110.89 0.157653 20.801 0.157653 20.801 0.987491 110.71
8.73365000 0.987490 110.89 0.157654 20.801 0.157654 20.801 0.987490 110.71
8.73370000 0.987490 110.89 0.157655 20.800 0.157655 20.800 0.987490 110.71
8.73375000 0.987490 110.89 0.157656 20.800 0.157656 20.800 0.987490 110.71
8.73380000 0.987490 110.89 0.157657 20.799 0.157657 20.799 0.987490 110.71
8.73385000 0.987490 110.89 0.157659 20.799 0.157659 20.799 0.987490 110.71
8.73390000 0.987489 110.89 0.157660 20.799 0.157660 20.799 0.987489 110.71
8.73395000 0.987489 110.89 0.157661 20.798 0.157661 20.798 0.987489 110.71
8.73400000 0.987489 110.89 0.157662 20.798 0.157662 20.798 0.987489 110.71
8.73405000 0.987489 110.89 0.157664 20.797 0.157664 20.797 0.987489 110.70
8.73410000 0.987489 110.89 0.157665 20.797 0.157665 20.797 0.987489 110.70
8.73415000 0.987489 110.89 0.157666 20.796 0.157666 20.796 0.987488 110.70
8.73420000 0.987488 110.89 0.157667 20.796 0.157667 20.796 0.987488 110.70
8.73425000 0.987488 110.89 0.157668 20.796 0.157668 20.796 0.987488 110.70
8.73430000 0.987488 110.89 0.157670 20.795 0.157670 20.795 0.987488 110.70
8.73435000 0.987488 110.88 0.157671 20.795 0.157671 20.795 0.987488 110.70
8.73440000 0.987488 110.88 0.157672 20.794 0.157672 20.794 0.987488 110.70
8.73445000 0.987487 110.88 0.157673 20.794 0.157673 20.794 0.987487 110.70
8.73450000 0.987487 110.88 0.157674 20.794 0.157674 20.794 0.987487 110.70
8.73455000 0.987487 110.88 0.157676 20.793 0.157676 20.793 0.987487 110.70
8.73460000 0.987487 110.88 0.157677 20.793 0.157677 20.793 0.987487 110.70
8.73465000 0.987487 110.88 0.157678 20.792 0.157678 20.792 0.987487 110.70
8.73470000 0.987486 110.88 0.157679 20.792 0.157679 20.792 0.987486 110.70
8.73475000 0.987486 110.88 0.157681 20.791 0.157681 20.791 0.987486 110.70
8.73480000 0.987486 110.88 0.157682 20.791 0.157682 20.791 0.987486 110.70
8.73485000 0.987486 110.88 0.157683 20.791 0.157683 20.791 0.987486 110.70
8.73490000 0.987486 110.88 0.157684 20.790 0.157684 20.790 0.987486 110.70
8.73495000 0.987485 110.88 0.157685 20.790 0.157685 20.790 0.987485 110.70
8.73500000 0.987485 110.88 0.157687 20.789 0.157687 20.789 0.987485 110.70
8.73505000 0.987485 110.88 0.157688 20.789 0.157688 20.789 0.987485 110.70
8.73510000 0.987485 110.88 0.157689 20.789 0.157689 20.789 0.987485 110.70
8.73515000 0.987485 110.88 0.157690 20.788 0.157690 20.788 0.987485 110.70
8.73520000 0.987484 110.88 0.157692 20.788 0.157692 20.788 0.987484 110.70
8.73525000 0.987484 110.88 0.157693 20.787 0.157693 20.787 0.987484 110.70
8.73530000 0.987484 110.88 0.157694 20.787 0.157694 20.787 0.987484 110.69
8.73535000 0.987484 110.88 0.157695 20.787 0.157695 20.787 0.987484 110.69
8.73540000 0.987484 110.88 0.157696 20.786 0.157696 20.786 0.987484 110.69
8.73545000 0.987483 110.88 0.157698 20.786 0.157698 20.786 0.987483 110.69
8.73550000 0.987483 110.88 0.157699 20.785 0.157699 20.785 0.987483 110.69
8.73555000 0.987483 110.88 0.157700 20.785 0.157700 20.785 0.987483 110.69
8.73560000 0.987483 110.87 0.157701 20.784 0.157701 20.784 0.987483 110.69
8.73565000 0.987483 110.87 0.157703 20.784 0.157703 20.784 0.987483 110.69
8.73570000 0.987482 110.87 0.157704 20.784 0.157704 20.784 0.987482 110.69
8.73575000 0.987482 110.87 0.157705 20.783 0.157705 20.783 0.987482 110.69
8.73580000 0.987482 110.87 0.157706 20.783 0.157706 20.783 0.987482 110.69
8.73585000 0.987482 110.87 0.157708 20.782 0.157708 20.782 0.987482 110.69
8.73590000 0.987482 110.87 0.157709 20.782 0.157709 20.782 0.987482 110.69
8.73595000 0.987481 110.87 0.157710 20.782 0.157710 20.782 0.987481 110.69
8.73600000 0.987481 110.87 0.157711 20.781 0.157711 20.781 0.987481 110.69
8.73605000 0.987481 110.87 0.157712 20.781 0.157712 20.781 0.987481 110.69
8.73610000 0.987481 110.87 0.157714 20.780 0.157714 20.780 0.987481 110.69
8.73615000 0.987481 110.87 0.157715 20.780 0.157715 20.780 0.987481 110.69
8.73620000 0.987480 110.87 0.157716 20.779 0.157716 20.779 0.987480 110.69
8.73625000 0.987480 110.87 0.157717 20.779 0.157717 20.779 0.987480 110.69
8.73630000 0.987480 110.87 0.157719 20.779 0.157719 20.779 0.987480 110.69
8.73635000 0.987480 110.87 0.157720 20.778 0.157720 20.778 0.987480 110.69
8.73640000 0.987480 110.87 0.157721 20.778 0.157721 20.778 0.987480 110.69
8.73645000 0.987479 110.87 0.157722 20.777 0.157722 20.777 0.987479 110.69
8.73650000 0.987479 110.87 0.157724 20.777 0.157724 20.777 0.987479 110.68
8.73655000 0.987479 110.87 0.157725 20.777 0.157725 20.777 0.987479 110.68
8.73660000 0.987479 110.87 0.157726 20.776 0.157726 20.776 0.987479 110.68
8.73665000 0.987479 110.87 0.157727 20.776 0.157727 20.776 0.987479 110.68
8.73670000 0.987478 110.87 0.157729 20.775 0.157729 20.775 0.987478 110.68
8.73675000 0.987478 110.87 0.157730 20.775 0.157730 20.775 0.987478 110.68
8.73680000 0.987478 110.86 0.157731 20.775 0.157731 20.775 0.987478 110.68
8.73685000 0.987478 110.86 0.157732 20.774 0.157732 20.774 0.987478 110.68
8.73690000 0.987478 110.86 0.157734 20.774 0.157734 20.774 0.987478 110.68
8.73695000 0.987478 110.86 0.157735 20.773 0.157735 20.773 0.987477 110.68
8.73700000 0.987477 110.86 0.157736 20.773 0.157736 20.773 0.987477 110.68
8.73705000 0.987477 110.86 0.157737 20.772 0.157737 20.772 0.987477 110.68
8.73710000 0.987477 110.86 0.157739 20.772 0.157739 20.772 0.987477 110.68
8.73715000 0.987477 110.86 0.157740 20.772 0.157740 20.772 0.987477 110.68
8.73720000 0.987477 110.86 0.157741 20.771 0.157741 20.771 0.987476 110.68
8.73725000 0.987476 110.86 0.157742 20.771 0.157742 20.771 0.987476 110.68
8.73730000 0.987476 110.86 0.157744 20.770 0.157744 20.770 0.987476 110.68
8.73735000 0.987476 110.86 0.157745 20.770 0.157745 20.770 0.987476 110.68
8.73740000 0.987476 110.86 0.157746 20.770 0.157746 20.770 0.987476 110.68
8.73745000 0.987476 110.86 0.157747 20.769 0.157747 20.769 0.987475 110.68
8.73750000 0.987475 110.86 0.157749 20.769 0.157749 20.769 0.987475 110.68
8.73755000 0.987475 110.86 0.157750 20.768 0.157750 20.768 0.987475 110.68
8.73760000 0.987475 110.86 0.157751 20.768 0.157751 20.768 0.987475 110.68
8.73765000 0.987475 110.86 0.157752 20.767 0.157752 20.767 0.987475 110.68
8.73770000 0.987474 110.86 0.157754 20.767 0.157754 20.767 0.987474 110.67
8.73775000 0.987474 110.86 0.157755 20.767 0.157755 20.767 0.987474 110.67
8.73780000 0.987474 110.86 0.157756 20.766 0.157756 20.766 0.987474 110.67
8.73785000 0.987474 110.86 0.157757 20.766 0.157757 20.766 0.987474 110.67
8.73790000 0.987474 110.86 0.157759 20.765 0.157759 20.765 0.987474 110.67
8.73795000 0.987473 110.86 0.157760 20.765 0.157760 20.765 0.987473 110.67
8.73800000 0.987473 110.85 0.157761 20.765 0.157761 20.765 0.987473 110.67
8.73805000 0.987473 110.85 0.157762 20.764 0.157762 20.764 0.987473 110.67
8.73810000 0.987473 110.85 0.157764 20.764 0.157764 20.764 0.987473 110.67
8.73815000 0.987473 110.85 0.157765 20.763 0.157765 20.763 0.987473 110.67
8.73820000 0.987472 110.85 0.157766 20.763 0.157766 20.763 0.987472 110.67
8.73825000 0.987472 110.85 0.157767 20.762 0.157767 20.762 0.987472 110.67
8.73830000 0.987472 110.85 0.157769 20.762 0.157769 20.762 0.987472 110.67
8.73835000 0.987472 110.85 0.157770 20.762 0.157770 20.762 0.987472 110.67
8.73840000 0.987472 110.85 0.157771 20.761 0.157771 20.761 0.987472 110.67
8.73845000 0.987471 110.85 0.157772 20.761 0.157772 20.761 0.987471 110.67
8.73850000 0.987471 110.85 0.157774 20.760 0.157774 20.760 0.987471 110.67
8.73855000 0.987471 110.85 0.157775 20.760 0.157775 20.760 0.987471 110.67
8.73860000 0.987471 110.85 0.157776 20.760 0.157776 20.760 0.987471 110.67
8.73865000 0.987471 110.85 0.157778 20.759 0.157778 20.759 0.987471 110.67
8.73870000 0.987470 110.85 0.157779 20.759 0.157779 20.759 0.987470 110.67
8.73875000 0.987470 110.85 0.157780 20.758 0.157780 20.758 0.987470 110.67
8.73880000 0.987470 110.85 0.157781 20.758 0.157781 20.758 0.987470 110.67
8.73885000 0.987470 110.85 0.157783 20.757 0.157783 20.757 0.987470 110.67
8.73890000 0.987470 110.85 0.157784 20.757 0.157784 20.757 0.987470 110.66
8.73895000 0.987469 110.85 0.157785 20.757 0.157785 20.757 0.987469 110.66
8.73900000 0.987469 110.85 0.157786 20.756 0.157786 20.756 0.987469 110.66
8.73905000 0.987469 110.85 0.157788 20.756 0.157788 20.756 0.987469 110.66
8.73910000 0.987469 110.85 0.157789 20.755 0.157789 20.755 0.987469 110.66
8.73915000 0.987469 110.85 0.157790 20.755 0.157790 20.755 0.987469 110.66
8.73920000 0.987468 110.84 0.157792 20.755 0.157792 20.755 0.987468 110.66
8.73925000 0.987468 110.84 0.157793 20.754 0.157793 20.754 0.987468 110.66
8.73930000 0.987468 110.84 0.157794 20.754 0.157794 20.754 0.987468 110.66
8.73935000 0.987468 110.84 0.157795 20.753 0.157795 20.753 0.987468 110.66
8.73940000 0.987468 110.84 0.157797 20.753 0.157797 20.753 0.987468 110.66
8.73945000 0.987467 110.84 0.157798 20.752 0.157798 20.752 0.987467 110.66
8.73950000 0.987467 110.84 0.157799 20.752 0.157799 20.752 0.987467 110.66
8.73955000 0.987467 110.84 0.157800 20.752 0.157800 20.752 0.987467 110.66
8.73960000 0.987467 110.84 0.157802 20.751 0.157802 20.751 0.987467 110.66