! Sonnet Data File
! From: emgraph Version : 16.52
! From Project: transmon_brgOdd
! Data is De-embedded 
! Data File Written: 11/12/2017 17:05:33
!< HDATE 11/11/2017 22:57:51
!< MDATE 11/11/2017 22:57:51
!< PARAMS
!< Lj = 15.24
!< Gap = 6.0
!< Width = 10.0
!< Airgap = 6.0
!< Pwidth = 2000.0
!< Dist = 2200.0
!< END PARAMS
# GHZ S MA R 34.67000
8.78000000 0.999035 147.43 0.043861 57.434 0.043861 57.434 0.999035 147.43
!< P1 F=8.78 Eeff=(5.13743391 -5.7017e-5) Z0=(34.6430374 -9.7216e-5) R=0.0 C=0.0 
!< P2 F=8.78 Eeff=(5.13743391 -5.7017e-5) Z0=(34.6430374 -9.7216e-5) R=0.0 C=0.0 
8.78001000 0.999035 147.43 0.043862 57.434 0.043862 57.434 0.999035 147.43
8.78002000 0.999035 147.43 0.043863 57.434 0.043863 57.434 0.999035 147.43
8.78003000 0.999035 147.43 0.043864 57.434 0.043864 57.434 0.999035 147.43
8.78004000 0.999035 147.43 0.043865 57.434 0.043865 57.434 0.999035 147.43
8.78005000 0.999035 147.43 0.043865 57.434 0.043865 57.434 0.999035 147.43
8.78006000 0.999035 147.43 0.043866 57.434 0.043866 57.434 0.999035 147.43
8.78007000 0.999035 147.43 0.043867 57.434 0.043867 57.434 0.999035 147.43
8.78008000 0.999035 147.43 0.043868 57.434 0.043868 57.434 0.999035 147.43
8.78009000 0.999035 147.43 0.043869 57.434 0.043869 57.434 0.999035 147.43
8.78010000 0.999035 147.43 0.043870 57.433 0.043870 57.433 0.999035 147.43
8.78011000 0.999035 147.43 0.043870 57.433 0.043870 57.433 0.999035 147.43
8.78012000 0.999035 147.43 0.043871 57.433 0.043871 57.433 0.999035 147.43
8.78013000 0.999035 147.43 0.043872 57.433 0.043872 57.433 0.999035 147.43
8.78014000 0.999035 147.43 0.043873 57.433 0.043873 57.433 0.999035 147.43
8.78015000 0.999035 147.43 0.043874 57.433 0.043874 57.433 0.999035 147.43
8.78016000 0.999035 147.43 0.043875 57.433 0.043875 57.433 0.999035 147.43
8.78017000 0.999035 147.43 0.043875 57.433 0.043875 57.433 0.999035 147.43
8.78018000 0.999035 147.43 0.043876 57.433 0.043876 57.433 0.999035 147.43
8.78019000 0.999035 147.43 0.043877 57.433 0.043877 57.433 0.999035 147.43
8.78020000 0.999035 147.43 0.043878 57.433 0.043878 57.433 0.999035 147.43
8.78021000 0.999035 147.43 0.043879 57.433 0.043879 57.433 0.999035 147.43
8.78022000 0.999035 147.43 0.043880 57.432 0.043880 57.432 0.999035 147.43
8.78023000 0.999035 147.43 0.043881 57.432 0.043881 57.432 0.999035 147.43
8.78024000 0.999034 147.43 0.043881 57.432 0.043881 57.432 0.999034 147.43
8.78025000 0.999034 147.43 0.043882 57.432 0.043882 57.432 0.999034 147.43
8.78026000 0.999034 147.43 0.043883 57.432 0.043883 57.432 0.999034 147.43
8.78027000 0.999034 147.43 0.043884 57.432 0.043884 57.432 0.999034 147.43
8.78028000 0.999034 147.43 0.043885 57.432 0.043885 57.432 0.999034 147.43
8.78029000 0.999034 147.43 0.043886 57.432 0.043886 57.432 0.999034 147.43
8.78030000 0.999034 147.43 0.043886 57.432 0.043886 57.432 0.999034 147.43
8.78031000 0.999034 147.43 0.043887 57.432 0.043887 57.432 0.999034 147.43
8.78032000 0.999034 147.43 0.043888 57.432 0.043888 57.432 0.999034 147.43
8.78033000 0.999034 147.43 0.043889 57.431 0.043889 57.431 0.999034 147.43
8.78034000 0.999034 147.43 0.043890 57.431 0.043890 57.431 0.999034 147.43
8.78035000 0.999034 147.43 0.043891 57.431 0.043891 57.431 0.999034 147.43
8.78036000 0.999034 147.43 0.043892 57.431 0.043892 57.431 0.999034 147.43
8.78037000 0.999034 147.43 0.043892 57.431 0.043892 57.431 0.999034 147.43
8.78038000 0.999034 147.43 0.043893 57.431 0.043893 57.431 0.999034 147.43
8.78039000 0.999034 147.43 0.043894 57.431 0.043894 57.431 0.999034 147.43
8.78040000 0.999034 147.43 0.043895 57.431 0.043895 57.431 0.999034 147.43
8.78041000 0.999034 147.43 0.043896 57.431 0.043896 57.431 0.999034 147.43
8.78042000 0.999034 147.43 0.043897 57.431 0.043897 57.431 0.999034 147.43
8.78043000 0.999034 147.43 0.043898 57.431 0.043898 57.431 0.999034 147.43
8.78044000 0.999034 147.43 0.043899 57.431 0.043899 57.431 0.999034 147.43
8.78045000 0.999034 147.43 0.043899 57.430 0.043899 57.430 0.999034 147.43
8.78046000 0.999034 147.43 0.043900 57.430 0.043900 57.430 0.999034 147.43
8.78047000 0.999034 147.43 0.043901 57.430 0.043901 57.430 0.999034 147.43
8.78048000 0.999034 147.43 0.043902 57.430 0.043902 57.430 0.999034 147.43
8.78049000 0.999034 147.43 0.043903 57.430 0.043903 57.430 0.999034 147.43
8.78050000 0.999033 147.43 0.043904 57.430 0.043904 57.430 0.999033 147.43
8.78051000 0.999033 147.43 0.043905 57.430 0.043905 57.430 0.999033 147.43
8.78052000 0.999033 147.43 0.043906 57.430 0.043906 57.430 0.999033 147.43
8.78053000 0.999033 147.43 0.043906 57.430 0.043906 57.430 0.999033 147.43
8.78054000 0.999033 147.43 0.043907 57.430 0.043907 57.430 0.999033 147.43
8.78055000 0.999033 147.43 0.043908 57.430 0.043908 57.430 0.999033 147.43
8.78056000 0.999033 147.43 0.043909 57.430 0.043909 57.430 0.999033 147.43
8.78057000 0.999033 147.43 0.043910 57.429 0.043910 57.429 0.999033 147.43
8.78058000 0.999033 147.43 0.043911 57.429 0.043911 57.429 0.999033 147.43
8.78059000 0.999033 147.43 0.043912 57.429 0.043912 57.429 0.999033 147.43
8.78060000 0.999033 147.43 0.043913 57.429 0.043913 57.429 0.999033 147.43
8.78061000 0.999033 147.43 0.043913 57.429 0.043913 57.429 0.999033 147.43
8.78062000 0.999033 147.43 0.043914 57.429 0.043914 57.429 0.999033 147.43
8.78063000 0.999033 147.43 0.043915 57.429 0.043915 57.429 0.999033 147.43
8.78064000 0.999033 147.43 0.043916 57.429 0.043916 57.429 0.999033 147.43
8.78065000 0.999033 147.43 0.043917 57.429 0.043917 57.429 0.999033 147.43
8.78066000 0.999033 147.43 0.043918 57.429 0.043918 57.429 0.999033 147.43
8.78067000 0.999033 147.43 0.043919 57.429 0.043919 57.429 0.999033 147.43
8.78068000 0.999033 147.43 0.043920 57.428 0.043920 57.428 0.999033 147.43
8.78069000 0.999033 147.43 0.043921 57.428 0.043921 57.428 0.999033 147.43
8.78070000 0.999033 147.43 0.043921 57.428 0.043921 57.428 0.999033 147.43
8.78071000 0.999033 147.43 0.043922 57.428 0.043922 57.428 0.999033 147.43
8.78072000 0.999033 147.43 0.043923 57.428 0.043923 57.428 0.999033 147.43
8.78073000 0.999033 147.43 0.043924 57.428 0.043924 57.428 0.999033 147.43
8.78074000 0.999033 147.43 0.043925 57.428 0.043925 57.428 0.999033 147.43
8.78075000 0.999032 147.43 0.043926 57.428 0.043926 57.428 0.999032 147.43
8.78076000 0.999032 147.43 0.043927 57.428 0.043927 57.428 0.999032 147.43
8.78077000 0.999032 147.43 0.043928 57.428 0.043928 57.428 0.999032 147.43
8.78078000 0.999032 147.43 0.043929 57.428 0.043929 57.428 0.999032 147.43
8.78079000 0.999032 147.43 0.043929 57.428 0.043929 57.428 0.999032 147.43
8.78080000 0.999032 147.43 0.043930 57.427 0.043930 57.427 0.999032 147.43
8.78081000 0.999032 147.43 0.043931 57.427 0.043931 57.427 0.999032 147.43
8.78082000 0.999032 147.43 0.043932 57.427 0.043932 57.427 0.999032 147.43
8.78083000 0.999032 147.43 0.043933 57.427 0.043933 57.427 0.999032 147.43
8.78084000 0.999032 147.43 0.043934 57.427 0.043934 57.427 0.999032 147.43
8.78085000 0.999032 147.43 0.043935 57.427 0.043935 57.427 0.999032 147.43
8.78086000 0.999032 147.43 0.043936 57.427 0.043936 57.427 0.999032 147.43
8.78087000 0.999032 147.43 0.043937 57.427 0.043937 57.427 0.999032 147.43
8.78088000 0.999032 147.43 0.043938 57.427 0.043938 57.427 0.999032 147.43
8.78089000 0.999032 147.43 0.043938 57.427 0.043938 57.427 0.999032 147.43
8.78090000 0.999032 147.43 0.043939 57.427 0.043939 57.427 0.999032 147.43
8.78091000 0.999032 147.43 0.043940 57.426 0.043940 57.426 0.999032 147.43
8.78092000 0.999032 147.43 0.043941 57.426 0.043941 57.426 0.999032 147.43
8.78093000 0.999032 147.43 0.043942 57.426 0.043942 57.426 0.999032 147.43
8.78094000 0.999032 147.43 0.043943 57.426 0.043943 57.426 0.999032 147.43
8.78095000 0.999032 147.43 0.043944 57.426 0.043944 57.426 0.999032 147.43
8.78096000 0.999032 147.43 0.043945 57.426 0.043945 57.426 0.999032 147.43
8.78097000 0.999032 147.43 0.043946 57.426 0.043946 57.426 0.999032 147.43
8.78098000 0.999032 147.43 0.043947 57.426 0.043947 57.426 0.999032 147.43
8.78099000 0.999031 147.43 0.043948 57.426 0.043948 57.426 0.999031 147.43
8.78100000 0.999031 147.43 0.043948 57.426 0.043948 57.426 0.999031 147.43
8.78101000 0.999031 147.43 0.043949 57.426 0.043949 57.426 0.999031 147.43
8.78102000 0.999031 147.43 0.043950 57.425 0.043950 57.425 0.999031 147.43
8.78103000 0.999031 147.43 0.043951 57.425 0.043951 57.425 0.999031 147.43
8.78104000 0.999031 147.43 0.043952 57.425 0.043952 57.425 0.999031 147.43
8.78105000 0.999031 147.43 0.043953 57.425 0.043953 57.425 0.999031 147.43
8.78106000 0.999031 147.43 0.043954 57.425 0.043954 57.425 0.999031 147.43
8.78107000 0.999031 147.43 0.043955 57.425 0.043955 57.425 0.999031 147.43
8.78108000 0.999031 147.43 0.043956 57.425 0.043956 57.425 0.999031 147.43
8.78109000 0.999031 147.43 0.043957 57.425 0.043957 57.425 0.999031 147.43
8.78110000 0.999031 147.43 0.043958 57.425 0.043958 57.425 0.999031 147.43
8.78111000 0.999031 147.43 0.043959 57.425 0.043959 57.425 0.999031 147.43
8.78112000 0.999031 147.43 0.043960 57.425 0.043960 57.425 0.999031 147.43
8.78113000 0.999031 147.43 0.043960 57.424 0.043960 57.424 0.999031 147.43
8.78114000 0.999031 147.42 0.043961 57.424 0.043961 57.424 0.999031 147.43
8.78115000 0.999031 147.42 0.043962 57.424 0.043962 57.424 0.999031 147.43
8.78116000 0.999031 147.42 0.043963 57.424 0.043963 57.424 0.999031 147.43
8.78117000 0.999031 147.42 0.043964 57.424 0.043964 57.424 0.999031 147.43
8.78118000 0.999031 147.42 0.043965 57.424 0.043965 57.424 0.999031 147.42
8.78119000 0.999031 147.42 0.043966 57.424 0.043966 57.424 0.999031 147.42
8.78120000 0.999031 147.42 0.043967 57.424 0.043967 57.424 0.999031 147.42
8.78121000 0.999031 147.42 0.043968 57.424 0.043968 57.424 0.999031 147.42
8.78122000 0.999030 147.42 0.043969 57.424 0.043969 57.424 0.999031 147.42
8.78123000 0.999030 147.42 0.043970 57.424 0.043970 57.424 0.999030 147.42
8.78124000 0.999030 147.42 0.043971 57.423 0.043971 57.423 0.999030 147.42
8.78125000 0.999030 147.42 0.043972 57.423 0.043972 57.423 0.999030 147.42
8.78126000 0.999030 147.42 0.043973 57.423 0.043973 57.423 0.999030 147.42
8.78127000 0.999030 147.42 0.043974 57.423 0.043974 57.423 0.999030 147.42
8.78128000 0.999030 147.42 0.043975 57.423 0.043975 57.423 0.999030 147.42
8.78129000 0.999030 147.42 0.043975 57.423 0.043975 57.423 0.999030 147.42
8.78130000 0.999030 147.42 0.043976 57.423 0.043976 57.423 0.999030 147.42
8.78131000 0.999030 147.42 0.043977 57.423 0.043977 57.423 0.999030 147.42
8.78132000 0.999030 147.42 0.043978 57.423 0.043978 57.423 0.999030 147.42
8.78133000 0.999030 147.42 0.043979 57.423 0.043979 57.423 0.999030 147.42
8.78134000 0.999030 147.42 0.043980 57.423 0.043980 57.423 0.999030 147.42
8.78135000 0.999030 147.42 0.043981 57.422 0.043981 57.422 0.999030 147.42
8.78136000 0.999030 147.42 0.043982 57.422 0.043982 57.422 0.999030 147.42
8.78137000 0.999030 147.42 0.043983 57.422 0.043983 57.422 0.999030 147.42
8.78138000 0.999030 147.42 0.043984 57.422 0.043984 57.422 0.999030 147.42
8.78139000 0.999030 147.42 0.043985 57.422 0.043985 57.422 0.999030 147.42
8.78140000 0.999030 147.42 0.043986 57.422 0.043986 57.422 0.999030 147.42
8.78141000 0.999030 147.42 0.043987 57.422 0.043987 57.422 0.999030 147.42
8.78142000 0.999030 147.42 0.043988 57.422 0.043988 57.422 0.999030 147.42
8.78143000 0.999030 147.42 0.043989 57.422 0.043989 57.422 0.999030 147.42
8.78144000 0.999030 147.42 0.043990 57.422 0.043990 57.422 0.999030 147.42
8.78145000 0.999029 147.42 0.043991 57.422 0.043991 57.422 0.999030 147.42
8.78146000 0.999029 147.42 0.043992 57.421 0.043992 57.421 0.999029 147.42
8.78147000 0.999029 147.42 0.043993 57.421 0.043993 57.421 0.999029 147.42
8.78148000 0.999029 147.42 0.043994 57.421 0.043994 57.421 0.999029 147.42
8.78149000 0.999029 147.42 0.043995 57.421 0.043995 57.421 0.999029 147.42
8.78150000 0.999029 147.42 0.043996 57.421 0.043996 57.421 0.999029 147.42
8.78151000 0.999029 147.42 0.043997 57.421 0.043997 57.421 0.999029 147.42
8.78152000 0.999029 147.42 0.043997 57.421 0.043997 57.421 0.999029 147.42
8.78153000 0.999029 147.42 0.043998 57.421 0.043998 57.421 0.999029 147.42
8.78154000 0.999029 147.42 0.043999 57.421 0.043999 57.421 0.999029 147.42
8.78155000 0.999029 147.42 0.044000 57.421 0.044000 57.421 0.999029 147.42
8.78156000 0.999029 147.42 0.044001 57.421 0.044001 57.421 0.999029 147.42
8.78157000 0.999029 147.42 0.044002 57.420 0.044002 57.420 0.999029 147.42
8.78158000 0.999029 147.42 0.044003 57.420 0.044003 57.420 0.999029 147.42
8.78159000 0.999029 147.42 0.044004 57.420 0.044004 57.420 0.999029 147.42
8.78160000 0.999029 147.42 0.044005 57.420 0.044005 57.420 0.999029 147.42
8.78161000 0.999029 147.42 0.044006 57.420 0.044006 57.420 0.999029 147.42
8.78162000 0.999029 147.42 0.044007 57.420 0.044007 57.420 0.999029 147.42
8.78163000 0.999029 147.42 0.044008 57.420 0.044008 57.420 0.999029 147.42
8.78164000 0.999029 147.42 0.044009 57.420 0.044009 57.420 0.999029 147.42
8.78165000 0.999029 147.42 0.044010 57.420 0.044010 57.420 0.999029 147.42
8.78166000 0.999029 147.42 0.044011 57.420 0.044011 57.420 0.999029 147.42
8.78167000 0.999029 147.42 0.044012 57.420 0.044012 57.420 0.999029 147.42
8.78168000 0.999028 147.42 0.044013 57.419 0.044013 57.419 0.999028 147.42
8.78169000 0.999028 147.42 0.044014 57.419 0.044014 57.419 0.999028 147.42
8.78170000 0.999028 147.42 0.044015 57.419 0.044015 57.419 0.999028 147.42
8.78171000 0.999028 147.42 0.044016 57.419 0.044016 57.419 0.999028 147.42
8.78172000 0.999028 147.42 0.044017 57.419 0.044017 57.419 0.999028 147.42
8.78173000 0.999028 147.42 0.044018 57.419 0.044018 57.419 0.999028 147.42
8.78174000 0.999028 147.42 0.044019 57.419 0.044019 57.419 0.999028 147.42
8.78175000 0.999028 147.42 0.044020 57.419 0.044020 57.419 0.999028 147.42
8.78176000 0.999028 147.42 0.044021 57.419 0.044021 57.419 0.999028 147.42
8.78177000 0.999028 147.42 0.044022 57.419 0.044022 57.419 0.999028 147.42
8.78178000 0.999028 147.42 0.044023 57.419 0.044023 57.419 0.999028 147.42
8.78179000 0.999028 147.42 0.044024 57.418 0.044024 57.418 0.999028 147.42
8.78180000 0.999028 147.42 0.044025 57.418 0.044025 57.418 0.999028 147.42
8.78181000 0.999028 147.42 0.044026 57.418 0.044026 57.418 0.999028 147.42
8.78182000 0.999028 147.42 0.044027 57.418 0.044027 57.418 0.999028 147.42
8.78183000 0.999028 147.42 0.044028 57.418 0.044028 57.418 0.999028 147.42
8.78184000 0.999028 147.42 0.044029 57.418 0.044029 57.418 0.999028 147.42
8.78185000 0.999028 147.42 0.044030 57.418 0.044030 57.418 0.999028 147.42
8.78186000 0.999028 147.42 0.044031 57.418 0.044031 57.418 0.999028 147.42
8.78187000 0.999028 147.42 0.044032 57.418 0.044032 57.418 0.999028 147.42
8.78188000 0.999028 147.42 0.044033 57.418 0.044033 57.418 0.999028 147.42
8.78189000 0.999028 147.42 0.044034 57.417 0.044034 57.417 0.999028 147.42
8.78190000 0.999027 147.42 0.044035 57.417 0.044035 57.417 0.999027 147.42
8.78191000 0.999027 147.42 0.044036 57.417 0.044036 57.417 0.999027 147.42
8.78192000 0.999027 147.42 0.044037 57.417 0.044037 57.417 0.999027 147.42
8.78193000 0.999027 147.42 0.044038 57.417 0.044038 57.417 0.999027 147.42
8.78194000 0.999027 147.42 0.044039 57.417 0.044039 57.417 0.999027 147.42
8.78195000 0.999027 147.42 0.044040 57.417 0.044040 57.417 0.999027 147.42
8.78196000 0.999027 147.42 0.044041 57.417 0.044041 57.417 0.999027 147.42
8.78197000 0.999027 147.42 0.044042 57.417 0.044042 57.417 0.999027 147.42
8.78198000 0.999027 147.42 0.044043 57.417 0.044043 57.417 0.999027 147.42
8.78199000 0.999027 147.42 0.044044 57.417 0.044044 57.417 0.999027 147.42
8.78200000 0.999027 147.42 0.044045 57.416 0.044045 57.416 0.999027 147.42
8.78201000 0.999027 147.42 0.044046 57.416 0.044046 57.416 0.999027 147.42
8.78202000 0.999027 147.42 0.044047 57.416 0.044047 57.416 0.999027 147.42
8.78203000 0.999027 147.42 0.044048 57.416 0.044048 57.416 0.999027 147.42
8.78204000 0.999027 147.42 0.044049 57.416 0.044049 57.416 0.999027 147.42
8.78205000 0.999027 147.42 0.044050 57.416 0.044050 57.416 0.999027 147.42
8.78206000 0.999027 147.42 0.044051 57.416 0.044051 57.416 0.999027 147.42
8.78207000 0.999027 147.42 0.044052 57.416 0.044052 57.416 0.999027 147.42
8.78208000 0.999027 147.42 0.044053 57.416 0.044053 57.416 0.999027 147.42
8.78209000 0.999027 147.42 0.044054 57.416 0.044054 57.416 0.999027 147.42
8.78210000 0.999027 147.42 0.044055 57.415 0.044055 57.415 0.999027 147.42
8.78211000 0.999026 147.42 0.044056 57.415 0.044056 57.415 0.999027 147.42
8.78212000 0.999026 147.42 0.044057 57.415 0.044057 57.415 0.999026 147.42
8.78213000 0.999026 147.42 0.044058 57.415 0.044058 57.415 0.999026 147.42
8.78214000 0.999026 147.42 0.044059 57.415 0.044059 57.415 0.999026 147.42
8.78215000 0.999026 147.42 0.044061 57.415 0.044061 57.415 0.999026 147.42
8.78216000 0.999026 147.42 0.044062 57.415 0.044062 57.415 0.999026 147.42
8.78217000 0.999026 147.42 0.044063 57.415 0.044063 57.415 0.999026 147.42
8.78218000 0.999026 147.42 0.044064 57.415 0.044064 57.415 0.999026 147.42
8.78219000 0.999026 147.42 0.044065 57.415 0.044065 57.415 0.999026 147.42
8.78220000 0.999026 147.42 0.044066 57.415 0.044066 57.415 0.999026 147.42
8.78221000 0.999026 147.42 0.044067 57.414 0.044067 57.414 0.999026 147.42
8.78222000 0.999026 147.42 0.044068 57.414 0.044068 57.414 0.999026 147.42
8.78223000 0.999026 147.41 0.044069 57.414 0.044069 57.414 0.999026 147.42
8.78224000 0.999026 147.41 0.044070 57.414 0.044070 57.414 0.999026 147.42
8.78225000 0.999026 147.41 0.044071 57.414 0.044071 57.414 0.999026 147.42
8.78226000 0.999026 147.41 0.044072 57.414 0.044072 57.414 0.999026 147.42
8.78227000 0.999026 147.41 0.044073 57.414 0.044073 57.414 0.999026 147.42
8.78228000 0.999026 147.41 0.044074 57.414 0.044074 57.414 0.999026 147.41
8.78229000 0.999026 147.41 0.044075 57.414 0.044075 57.414 0.999026 147.41
8.78230000 0.999026 147.41 0.044076 57.414 0.044076 57.414 0.999026 147.41
8.78231000 0.999026 147.41 0.044077 57.413 0.044077 57.413 0.999026 147.41
8.78232000 0.999025 147.41 0.044078 57.413 0.044078 57.413 0.999026 147.41
8.78233000 0.999025 147.41 0.044079 57.413 0.044079 57.413 0.999025 147.41
8.78234000 0.999025 147.41 0.044080 57.413 0.044080 57.413 0.999025 147.41
8.78235000 0.999025 147.41 0.044081 57.413 0.044081 57.413 0.999025 147.41
8.78236000 0.999025 147.41 0.044083 57.413 0.044083 57.413 0.999025 147.41
8.78237000 0.999025 147.41 0.044084 57.413 0.044084 57.413 0.999025 147.41
8.78238000 0.999025 147.41 0.044085 57.413 0.044085 57.413 0.999025 147.41
8.78239000 0.999025 147.41 0.044086 57.413 0.044086 57.413 0.999025 147.41
8.78240000 0.999025 147.41 0.044087 57.413 0.044087 57.413 0.999025 147.41
8.78241000 0.999025 147.41 0.044088 57.412 0.044088 57.412 0.999025 147.41
8.78242000 0.999025 147.41 0.044089 57.412 0.044089 57.412 0.999025 147.41
8.78243000 0.999025 147.41 0.044090 57.412 0.044090 57.412 0.999025 147.41
8.78244000 0.999025 147.41 0.044091 57.412 0.044091 57.412 0.999025 147.41
8.78245000 0.999025 147.41 0.044092 57.412 0.044092 57.412 0.999025 147.41
8.78246000 0.999025 147.41 0.044093 57.412 0.044093 57.412 0.999025 147.41
8.78247000 0.999025 147.41 0.044094 57.412 0.044094 57.412 0.999025 147.41
8.78248000 0.999025 147.41 0.044095 57.412 0.044095 57.412 0.999025 147.41
8.78249000 0.999025 147.41 0.044096 57.412 0.044096 57.412 0.999025 147.41
8.78250000 0.999025 147.41 0.044097 57.412 0.044097 57.412 0.999025 147.41
8.78251000 0.999025 147.41 0.044099 57.412 0.044099 57.412 0.999025 147.41
8.78252000 0.999025 147.41 0.044100 57.411 0.044100 57.411 0.999025 147.41
8.78253000 0.999024 147.41 0.044101 57.411 0.044101 57.411 0.999024 147.41
8.78254000 0.999024 147.41 0.044102 57.411 0.044102 57.411 0.999024 147.41
8.78255000 0.999024 147.41 0.044103 57.411 0.044103 57.411 0.999024 147.41
8.78256000 0.999024 147.41 0.044104 57.411 0.044104 57.411 0.999024 147.41
8.78257000 0.999024 147.41 0.044105 57.411 0.044105 57.411 0.999024 147.41
8.78258000 0.999024 147.41 0.044106 57.411 0.044106 57.411 0.999024 147.41
8.78259000 0.999024 147.41 0.044107 57.411 0.044107 57.411 0.999024 147.41
8.78260000 0.999024 147.41 0.044108 57.411 0.044108 57.411 0.999024 147.41
8.78261000 0.999024 147.41 0.044109 57.411 0.044109 57.411 0.999024 147.41
8.78262000 0.999024 147.41 0.044110 57.410 0.044110 57.410 0.999024 147.41
8.78263000 0.999024 147.41 0.044112 57.410 0.044112 57.410 0.999024 147.41
8.78264000 0.999024 147.41 0.044113 57.410 0.044113 57.410 0.999024 147.41
8.78265000 0.999024 147.41 0.044114 57.410 0.044114 57.410 0.999024 147.41
8.78266000 0.999024 147.41 0.044115 57.410 0.044115 57.410 0.999024 147.41
8.78267000 0.999024 147.41 0.044116 57.410 0.044116 57.410 0.999024 147.41
8.78268000 0.999024 147.41 0.044117 57.410 0.044117 57.410 0.999024 147.41
8.78269000 0.999024 147.41 0.044118 57.410 0.044118 57.410 0.999024 147.41
8.78270000 0.999024 147.41 0.044119 57.410 0.044119 57.410 0.999024 147.41
8.78271000 0.999024 147.41 0.044120 57.410 0.044120 57.410 0.999024 147.41
8.78272000 0.999024 147.41 0.044121 57.409 0.044121 57.409 0.999024 147.41
8.78273000 0.999023 147.41 0.044123 57.409 0.044123 57.409 0.999023 147.41
8.78274000 0.999023 147.41 0.044124 57.409 0.044124 57.409 0.999023 147.41
8.78275000 0.999023 147.41 0.044125 57.409 0.044125 57.409 0.999023 147.41
8.78276000 0.999023 147.41 0.044126 57.409 0.044126 57.409 0.999023 147.41
8.78277000 0.999023 147.41 0.044127 57.409 0.044127 57.409 0.999023 147.41
8.78278000 0.999023 147.41 0.044128 57.409 0.044128 57.409 0.999023 147.41
8.78279000 0.999023 147.41 0.044129 57.409 0.044129 57.409 0.999023 147.41
8.78280000 0.999023 147.41 0.044130 57.409 0.044130 57.409 0.999023 147.41
8.78281000 0.999023 147.41 0.044131 57.409 0.044131 57.409 0.999023 147.41
8.78282000 0.999023 147.41 0.044132 57.408 0.044132 57.408 0.999023 147.41
8.78283000 0.999023 147.41 0.044134 57.408 0.044134 57.408 0.999023 147.41
8.78284000 0.999023 147.41 0.044135 57.408 0.044135 57.408 0.999023 147.41
8.78285000 0.999023 147.41 0.044136 57.408 0.044136 57.408 0.999023 147.41
8.78286000 0.999023 147.41 0.044137 57.408 0.044137 57.408 0.999023 147.41
8.78287000 0.999023 147.41 0.044138 57.408 0.044138 57.408 0.999023 147.41
8.78288000 0.999023 147.41 0.044139 57.408 0.044139 57.408 0.999023 147.41
8.78289000 0.999023 147.41 0.044140 57.408 0.044140 57.408 0.999023 147.41
8.78290000 0.999023 147.41 0.044141 57.408 0.044141 57.408 0.999023 147.41
8.78291000 0.999023 147.41 0.044143 57.408 0.044143 57.408 0.999023 147.41
8.78292000 0.999022 147.41 0.044144 57.407 0.044144 57.407 0.999022 147.41
8.78293000 0.999022 147.41 0.044145 57.407 0.044145 57.407 0.999022 147.41
8.78294000 0.999022 147.41 0.044146 57.407 0.044146 57.407 0.999022 147.41
8.78295000 0.999022 147.41 0.044147 57.407 0.044147 57.407 0.999022 147.41
8.78296000 0.999022 147.41 0.044148 57.407 0.044148 57.407 0.999022 147.41
8.78297000 0.999022 147.41 0.044149 57.407 0.044149 57.407 0.999022 147.41
8.78298000 0.999022 147.41 0.044150 57.407 0.044150 57.407 0.999022 147.41
8.78299000 0.999022 147.41 0.044152 57.407 0.044152 57.407 0.999022 147.41
8.78300000 0.999022 147.41 0.044153 57.407 0.044153 57.407 0.999022 147.41
8.78301000 0.999022 147.41 0.044154 57.406 0.044154 57.406 0.999022 147.41
8.78302000 0.999022 147.41 0.044155 57.406 0.044155 57.406 0.999022 147.41
8.78303000 0.999022 147.41 0.044156 57.406 0.044156 57.406 0.999022 147.41
8.78304000 0.999022 147.41 0.044157 57.406 0.044157 57.406 0.999022 147.41
8.78305000 0.999022 147.41 0.044158 57.406 0.044158 57.406 0.999022 147.41
8.78306000 0.999022 147.41 0.044160 57.406 0.044160 57.406 0.999022 147.41
8.78307000 0.999022 147.41 0.044161 57.406 0.044161 57.406 0.999022 147.41
8.78308000 0.999022 147.41 0.044162 57.406 0.044162 57.406 0.999022 147.41
8.78309000 0.999022 147.41 0.044163 57.406 0.044163 57.406 0.999022 147.41
8.78310000 0.999022 147.41 0.044164 57.406 0.044164 57.406 0.999022 147.41
8.78311000 0.999021 147.41 0.044165 57.405 0.044165 57.405 0.999021 147.41
8.78312000 0.999021 147.41 0.044167 57.405 0.044167 57.405 0.999021 147.41
8.78313000 0.999021 147.41 0.044168 57.405 0.044168 57.405 0.999021 147.41
8.78314000 0.999021 147.41 0.044169 57.405 0.044169 57.405 0.999021 147.41
8.78315000 0.999021 147.41 0.044170 57.405 0.044170 57.405 0.999021 147.41
8.78316000 0.999021 147.41 0.044171 57.405 0.044171 57.405 0.999021 147.41
8.78317000 0.999021 147.41 0.044172 57.405 0.044172 57.405 0.999021 147.41
8.78318000 0.999021 147.41 0.044173 57.405 0.044173 57.405 0.999021 147.41
8.78319000 0.999021 147.41 0.044175 57.405 0.044175 57.405 0.999021 147.41
8.78320000 0.999021 147.41 0.044176 57.405 0.044176 57.405 0.999021 147.41
8.78321000 0.999021 147.41 0.044177 57.404 0.044177 57.404 0.999021 147.41
8.78322000 0.999021 147.41 0.044178 57.404 0.044178 57.404 0.999021 147.41
8.78323000 0.999021 147.41 0.044179 57.404 0.044179 57.404 0.999021 147.41
8.78324000 0.999021 147.41 0.044180 57.404 0.044180 57.404 0.999021 147.41
8.78325000 0.999021 147.40 0.044182 57.404 0.044182 57.404 0.999021 147.41
8.78326000 0.999021 147.40 0.044183 57.404 0.044183 57.404 0.999021 147.41
8.78327000 0.999021 147.40 0.044184 57.404 0.044184 57.404 0.999021 147.41
8.78328000 0.999021 147.40 0.044185 57.404 0.044185 57.404 0.999021 147.41
8.78329000 0.999021 147.40 0.044186 57.404 0.044186 57.404 0.999021 147.41
8.78330000 0.999020 147.40 0.044188 57.403 0.044188 57.403 0.999020 147.40
8.78331000 0.999020 147.40 0.044189 57.403 0.044189 57.403 0.999020 147.40
8.78332000 0.999020 147.40 0.044190 57.403 0.044190 57.403 0.999020 147.40
8.78333000 0.999020 147.40 0.044191 57.403 0.044191 57.403 0.999020 147.40
8.78334000 0.999020 147.40 0.044192 57.403 0.044192 57.403 0.999020 147.40
8.78335000 0.999020 147.40 0.044193 57.403 0.044193 57.403 0.999020 147.40
8.78336000 0.999020 147.40 0.044195 57.403 0.044195 57.403 0.999020 147.40
8.78337000 0.999020 147.40 0.044196 57.403 0.044196 57.403 0.999020 147.40
8.78338000 0.999020 147.40 0.044197 57.403 0.044197 57.403 0.999020 147.40
8.78339000 0.999020 147.40 0.044198 57.403 0.044198 57.403 0.999020 147.40
8.78340000 0.999020 147.40 0.044199 57.402 0.044199 57.402 0.999020 147.40
8.78341000 0.999020 147.40 0.044201 57.402 0.044201 57.402 0.999020 147.40
8.78342000 0.999020 147.40 0.044202 57.402 0.044202 57.402 0.999020 147.40
8.78343000 0.999020 147.40 0.044203 57.402 0.044203 57.402 0.999020 147.40
8.78344000 0.999020 147.40 0.044204 57.402 0.044204 57.402 0.999020 147.40
8.78345000 0.999020 147.40 0.044205 57.402 0.044205 57.402 0.999020 147.40
8.78346000 0.999020 147.40 0.044207 57.402 0.044207 57.402 0.999020 147.40
8.78347000 0.999020 147.40 0.044208 57.402 0.044208 57.402 0.999020 147.40
8.78348000 0.999019 147.40 0.044209 57.402 0.044209 57.402 0.999019 147.40
8.78349000 0.999019 147.40 0.044210 57.401 0.044210 57.401 0.999019 147.40
8.78350000 0.999019 147.40 0.044211 57.401 0.044211 57.401 0.999019 147.40
8.78351000 0.999019 147.40 0.044213 57.401 0.044213 57.401 0.999019 147.40
8.78352000 0.999019 147.40 0.044214 57.401 0.044214 57.401 0.999019 147.40
8.78353000 0.999019 147.40 0.044215 57.401 0.044215 57.401 0.999019 147.40
8.78354000 0.999019 147.40 0.044216 57.401 0.044216 57.401 0.999019 147.40
8.78355000 0.999019 147.40 0.044217 57.401 0.044217 57.401 0.999019 147.40
8.78356000 0.999019 147.40 0.044219 57.401 0.044219 57.401 0.999019 147.40
8.78357000 0.999019 147.40 0.044220 57.401 0.044220 57.401 0.999019 147.40
8.78358000 0.999019 147.40 0.044221 57.401 0.044221 57.401 0.999019 147.40
8.78359000 0.999019 147.40 0.044222 57.400 0.044222 57.400 0.999019 147.40
8.78360000 0.999019 147.40 0.044224 57.400 0.044224 57.400 0.999019 147.40
8.78361000 0.999019 147.40 0.044225 57.400 0.044225 57.400 0.999019 147.40
8.78362000 0.999019 147.40 0.044226 57.400 0.044226 57.400 0.999019 147.40
8.78363000 0.999019 147.40 0.044227 57.400 0.044227 57.400 0.999019 147.40
8.78364000 0.999019 147.40 0.044228 57.400 0.044228 57.400 0.999019 147.40
8.78365000 0.999019 147.40 0.044230 57.400 0.044230 57.400 0.999019 147.40
8.78366000 0.999018 147.40 0.044231 57.400 0.044231 57.400 0.999018 147.40
8.78367000 0.999018 147.40 0.044232 57.400 0.044232 57.400 0.999018 147.40
8.78368000 0.999018 147.40 0.044233 57.399 0.044233 57.399 0.999018 147.40
8.78369000 0.999018 147.40 0.044235 57.399 0.044235 57.399 0.999018 147.40
8.78370000 0.999018 147.40 0.044236 57.399 0.044236 57.399 0.999018 147.40
8.78371000 0.999018 147.40 0.044237 57.399 0.044237 57.399 0.999018 147.40
8.78372000 0.999018 147.40 0.044238 57.399 0.044238 57.399 0.999018 147.40
8.78373000 0.999018 147.40 0.044240 57.399 0.044240 57.399 0.999018 147.40
8.78374000 0.999018 147.40 0.044241 57.399 0.044241 57.399 0.999018 147.40
8.78375000 0.999018 147.40 0.044242 57.399 0.044242 57.399 0.999018 147.40
8.78376000 0.999018 147.40 0.044243 57.399 0.044243 57.399 0.999018 147.40
8.78377000 0.999018 147.40 0.044245 57.398 0.044245 57.398 0.999018 147.40
8.78378000 0.999018 147.40 0.044246 57.398 0.044246 57.398 0.999018 147.40
8.78379000 0.999018 147.40 0.044247 57.398 0.044247 57.398 0.999018 147.40
8.78380000 0.999018 147.40 0.044248 57.398 0.044248 57.398 0.999018 147.40
8.78381000 0.999018 147.40 0.044250 57.398 0.044250 57.398 0.999018 147.40
8.78382000 0.999018 147.40 0.044251 57.398 0.044251 57.398 0.999018 147.40
8.78383000 0.999017 147.40 0.044252 57.398 0.044252 57.398 0.999017 147.40
8.78384000 0.999017 147.40 0.044253 57.398 0.044253 57.398 0.999017 147.40
8.78385000 0.999017 147.40 0.044255 57.398 0.044255 57.398 0.999017 147.40
8.78386000 0.999017 147.40 0.044256 57.397 0.044256 57.397 0.999017 147.40
8.78387000 0.999017 147.40 0.044257 57.397 0.044257 57.397 0.999017 147.40
8.78388000 0.999017 147.40 0.044258 57.397 0.044258 57.397 0.999017 147.40
8.78389000 0.999017 147.40 0.044260 57.397 0.044260 57.397 0.999017 147.40
8.78390000 0.999017 147.40 0.044261 57.397 0.044261 57.397 0.999017 147.40
8.78391000 0.999017 147.40 0.044262 57.397 0.044262 57.397 0.999017 147.40
8.78392000 0.999017 147.40 0.044263 57.397 0.044263 57.397 0.999017 147.40