! Sonnet Data File
! From: emgraph Version : 16.52
! From Emgraph Data: transmon_brgOdd_brg2
! Data File Written: 11/12/2017 21:14:18
!< HDATE 11/12/2017 20:48:45
!< MDATE 11/12/2017 20:50:55
!< PARAMS
!< Lj = 15.24
!< Gap = 6.0
!< Width = 10.0
!< Pwidth = 2000.0
!< Dist = 800.0
!< Dist2 = 1600.0
!< END PARAMS
# GHZ S MA R 34.67000
8.78000000 0.997546 131.75 0.069960 41.754 0.069960 41.754 0.997546 131.76
!< P1 F=8.78 Eeff=(5.13743391 -5.7017e-5) Z0=(34.6430374 -9.7216e-5) R=0.0 C=0.0 
!< P2 F=8.78 Eeff=(5.13743391 -5.7017e-5) Z0=(34.6430374 -9.7216e-5) R=0.0 C=0.0 
8.78001000 0.997546 131.75 0.069962 41.754 0.069962 41.754 0.997546 131.75
8.78002000 0.997546 131.75 0.069963 41.753 0.069963 41.753 0.997546 131.75
8.78003000 0.997545 131.75 0.069964 41.753 0.069964 41.753 0.997545 131.75
8.78004000 0.997545 131.75 0.069965 41.753 0.069965 41.753 0.997545 131.75
8.78005000 0.997545 131.75 0.069967 41.753 0.069967 41.753 0.997545 131.75
8.78006000 0.997545 131.75 0.069968 41.753 0.069968 41.753 0.997545 131.75
8.78007000 0.997545 131.75 0.069969 41.753 0.069969 41.753 0.997545 131.75
8.78008000 0.997545 131.75 0.069971 41.753 0.069971 41.753 0.997545 131.75
8.78009000 0.997545 131.75 0.069972 41.752 0.069972 41.752 0.997545 131.75
8.78010000 0.997545 131.75 0.069973 41.752 0.069973 41.752 0.997545 131.75
8.78011000 0.997545 131.75 0.069975 41.752 0.069975 41.752 0.997545 131.75
8.78012000 0.997544 131.75 0.069976 41.752 0.069976 41.752 0.997545 131.75
8.78013000 0.997544 131.75 0.069977 41.752 0.069977 41.752 0.997544 131.75
8.78014000 0.997544 131.75 0.069979 41.752 0.069979 41.752 0.997544 131.75
8.78015000 0.997544 131.75 0.069980 41.752 0.069980 41.752 0.997544 131.75
8.78016000 0.997544 131.75 0.069981 41.751 0.069981 41.751 0.997544 131.75
8.78017000 0.997544 131.75 0.069983 41.751 0.069983 41.751 0.997544 131.75
8.78018000 0.997544 131.75 0.069984 41.751 0.069984 41.751 0.997544 131.75
8.78019000 0.997544 131.75 0.069986 41.751 0.069986 41.751 0.997544 131.75
8.78020000 0.997544 131.75 0.069987 41.751 0.069987 41.751 0.997544 131.75
8.78021000 0.997544 131.75 0.069988 41.751 0.069988 41.751 0.997544 131.75
8.78022000 0.997543 131.75 0.069990 41.751 0.069990 41.751 0.997543 131.75
8.78023000 0.997543 131.75 0.069991 41.751 0.069991 41.751 0.997543 131.75
8.78024000 0.997543 131.75 0.069993 41.750 0.069993 41.750 0.997543 131.75
8.78025000 0.997543 131.75 0.069994 41.750 0.069994 41.750 0.997543 131.75
8.78026000 0.997543 131.75 0.069996 41.750 0.069996 41.750 0.997543 131.75
8.78027000 0.997543 131.75 0.069997 41.750 0.069997 41.750 0.997543 131.75
8.78028000 0.997543 131.75 0.069999 41.750 0.069999 41.750 0.997543 131.75
8.78029000 0.997543 131.75 0.070000 41.750 0.070000 41.750 0.997543 131.75
8.78030000 0.997542 131.75 0.070002 41.749 0.070002 41.749 0.997542 131.75
8.78031000 0.997542 131.75 0.070003 41.749 0.070003 41.749 0.997542 131.75
8.78032000 0.997542 131.75 0.070005 41.749 0.070005 41.749 0.997542 131.75
8.78033000 0.997542 131.75 0.070006 41.749 0.070006 41.749 0.997542 131.75
8.78034000 0.997542 131.75 0.070008 41.749 0.070008 41.749 0.997542 131.75
8.78035000 0.997542 131.75 0.070009 41.749 0.070009 41.749 0.997542 131.75
8.78036000 0.997542 131.75 0.070011 41.749 0.070011 41.749 0.997542 131.75
8.78037000 0.997542 131.75 0.070012 41.748 0.070012 41.748 0.997542 131.75
8.78038000 0.997541 131.75 0.070014 41.748 0.070014 41.748 0.997542 131.75
8.78039000 0.997541 131.75 0.070015 41.748 0.070015 41.748 0.997541 131.75
8.78040000 0.997541 131.75 0.070017 41.748 0.070017 41.748 0.997541 131.75
8.78041000 0.997541 131.75 0.070019 41.748 0.070019 41.748 0.997541 131.75
8.78042000 0.997541 131.75 0.070020 41.748 0.070020 41.748 0.997541 131.75
8.78043000 0.997541 131.75 0.070022 41.748 0.070022 41.748 0.997541 131.75
8.78044000 0.997541 131.75 0.070023 41.747 0.070023 41.747 0.997541 131.75
8.78045000 0.997541 131.75 0.070025 41.747 0.070025 41.747 0.997541 131.75
8.78046000 0.997540 131.75 0.070027 41.747 0.070027 41.747 0.997540 131.75
8.78047000 0.997540 131.75 0.070028 41.747 0.070028 41.747 0.997540 131.75
8.78048000 0.997540 131.75 0.070030 41.747 0.070030 41.747 0.997540 131.75
8.78049000 0.997540 131.75 0.070032 41.747 0.070032 41.747 0.997540 131.75
8.78050000 0.997540 131.75 0.070033 41.746 0.070033 41.746 0.997540 131.75
8.78051000 0.997540 131.75 0.070035 41.746 0.070035 41.746 0.997540 131.75
8.78052000 0.997540 131.75 0.070037 41.746 0.070037 41.746 0.997540 131.75
8.78053000 0.997540 131.75 0.070038 41.746 0.070038 41.746 0.997540 131.75
8.78054000 0.997539 131.75 0.070040 41.746 0.070040 41.746 0.997539 131.75
8.78055000 0.997539 131.75 0.070042 41.746 0.070042 41.746 0.997539 131.75
8.78056000 0.997539 131.74 0.070044 41.745 0.070044 41.745 0.997539 131.75
8.78057000 0.997539 131.74 0.070045 41.745 0.070045 41.745 0.997539 131.75
8.78058000 0.997539 131.74 0.070047 41.745 0.070047 41.745 0.997539 131.75
8.78059000 0.997539 131.74 0.070049 41.745 0.070049 41.745 0.997539 131.75
8.78060000 0.997539 131.74 0.070051 41.745 0.070051 41.745 0.997539 131.75
8.78061000 0.997538 131.74 0.070052 41.745 0.070052 41.745 0.997538 131.75
8.78062000 0.997538 131.74 0.070054 41.744 0.070054 41.744 0.997538 131.75
8.78063000 0.997538 131.74 0.070056 41.744 0.070056 41.744 0.997538 131.75
8.78064000 0.997538 131.74 0.070058 41.744 0.070058 41.744 0.997538 131.75
8.78065000 0.997538 131.74 0.070060 41.744 0.070060 41.744 0.997538 131.75
8.78066000 0.997538 131.74 0.070062 41.744 0.070062 41.744 0.997538 131.75
8.78067000 0.997537 131.74 0.070064 41.744 0.070064 41.744 0.997538 131.75
8.78068000 0.997537 131.74 0.070065 41.743 0.070065 41.743 0.997537 131.75
8.78069000 0.997537 131.74 0.070067 41.743 0.070067 41.743 0.997537 131.75
8.78070000 0.997537 131.74 0.070069 41.743 0.070069 41.743 0.997537 131.75
8.78071000 0.997537 131.74 0.070071 41.743 0.070071 41.743 0.997537 131.75
8.78072000 0.997537 131.74 0.070073 41.743 0.070073 41.743 0.997537 131.74
8.78073000 0.997537 131.74 0.070075 41.742 0.070075 41.742 0.997537 131.74
8.78074000 0.997536 131.74 0.070077 41.742 0.070077 41.742 0.997536 131.74
8.78075000 0.997536 131.74 0.070079 41.742 0.070079 41.742 0.997536 131.74
8.78076000 0.997536 131.74 0.070081 41.742 0.070081 41.742 0.997536 131.74
8.78077000 0.997536 131.74 0.070083 41.742 0.070083 41.742 0.997536 131.74
8.78078000 0.997536 131.74 0.070085 41.742 0.070085 41.742 0.997536 131.74
8.78079000 0.997536 131.74 0.070087 41.741 0.070087 41.741 0.997536 131.74
8.78080000 0.997535 131.74 0.070089 41.741 0.070089 41.741 0.997535 131.74
8.78081000 0.997535 131.74 0.070091 41.741 0.070091 41.741 0.997535 131.74
8.78082000 0.997535 131.74 0.070093 41.741 0.070093 41.741 0.997535 131.74
8.78083000 0.997535 131.74 0.070095 41.741 0.070095 41.741 0.997535 131.74
8.78084000 0.997535 131.74 0.070097 41.740 0.070097 41.740 0.997535 131.74
8.78085000 0.997535 131.74 0.070099 41.740 0.070099 41.740 0.997535 131.74
8.78086000 0.997534 131.74 0.070102 41.740 0.070102 41.740 0.997534 131.74
8.78087000 0.997534 131.74 0.070104 41.740 0.070104 41.740 0.997534 131.74
8.78088000 0.997534 131.74 0.070106 41.740 0.070106 41.740 0.997534 131.74
8.78089000 0.997534 131.74 0.070108 41.739 0.070108 41.739 0.997534 131.74
8.78090000 0.997534 131.74 0.070110 41.739 0.070110 41.739 0.997534 131.74
8.78091000 0.997534 131.74 0.070112 41.739 0.070112 41.739 0.997534 131.74
8.78092000 0.997533 131.74 0.070115 41.739 0.070115 41.739 0.997533 131.74
8.78093000 0.997533 131.74 0.070117 41.739 0.070117 41.739 0.997533 131.74
8.78094000 0.997533 131.74 0.070119 41.738 0.070119 41.738 0.997533 131.74
8.78095000 0.997533 131.74 0.070121 41.738 0.070121 41.738 0.997533 131.74
8.78096000 0.997533 131.74 0.070124 41.738 0.070124 41.738 0.997533 131.74
8.78097000 0.997532 131.74 0.070126 41.738 0.070126 41.738 0.997532 131.74
8.78098000 0.997532 131.74 0.070128 41.738 0.070128 41.738 0.997532 131.74
8.78099000 0.997532 131.74 0.070131 41.737 0.070131 41.737 0.997532 131.74
8.78100000 0.997532 131.74 0.070133 41.737 0.070133 41.737 0.997532 131.74
8.78101000 0.997532 131.74 0.070135 41.737 0.070135 41.737 0.997532 131.74
8.78102000 0.997531 131.74 0.070138 41.737 0.070138 41.737 0.997531 131.74
8.78103000 0.997531 131.74 0.070140 41.737 0.070140 41.737 0.997531 131.74
8.78104000 0.997531 131.74 0.070143 41.736 0.070143 41.736 0.997531 131.74
8.78105000 0.997531 131.74 0.070145 41.736 0.070145 41.736 0.997531 131.74
8.78106000 0.997531 131.74 0.070148 41.736 0.070148 41.736 0.997531 131.74
8.78107000 0.997530 131.74 0.070150 41.736 0.070150 41.736 0.997530 131.74
8.78108000 0.997530 131.74 0.070153 41.736 0.070153 41.736 0.997530 131.74
8.78109000 0.997530 131.74 0.070155 41.735 0.070155 41.735 0.997530 131.74
8.78110000 0.997530 131.74 0.070158 41.735 0.070158 41.735 0.997530 131.74
8.78111000 0.997530 131.74 0.070160 41.735 0.070160 41.735 0.997530 131.74
8.78112000 0.997529 131.74 0.070163 41.735 0.070163 41.735 0.997529 131.74
8.78113000 0.997529 131.74 0.070165 41.734 0.070165 41.734 0.997529 131.74
8.78114000 0.997529 131.73 0.070168 41.734 0.070168 41.734 0.997529 131.74
8.78115000 0.997529 131.73 0.070171 41.734 0.070171 41.734 0.997529 131.74
8.78116000 0.997528 131.73 0.070173 41.734 0.070173 41.734 0.997529 131.74
8.78117000 0.997528 131.73 0.070176 41.733 0.070176 41.733 0.997528 131.74
8.78118000 0.997528 131.73 0.070179 41.733 0.070179 41.733 0.997528 131.74
8.78119000 0.997528 131.73 0.070181 41.733 0.070181 41.733 0.997528 131.74
8.78120000 0.997528 131.73 0.070184 41.733 0.070184 41.733 0.997528 131.74
8.78121000 0.997527 131.73 0.070187 41.733 0.070187 41.733 0.997527 131.74
8.78122000 0.997527 131.73 0.070190 41.732 0.070190 41.732 0.997527 131.74
8.78123000 0.997527 131.73 0.070193 41.732 0.070193 41.732 0.997527 131.74
8.78124000 0.997527 131.73 0.070195 41.732 0.070195 41.732 0.997527 131.74
8.78125000 0.997526 131.73 0.070198 41.732 0.070198 41.732 0.997526 131.74
8.78126000 0.997526 131.73 0.070201 41.731 0.070201 41.731 0.997526 131.73
8.78127000 0.997526 131.73 0.070204 41.731 0.070204 41.731 0.997526 131.73
8.78128000 0.997526 131.73 0.070207 41.731 0.070207 41.731 0.997526 131.73
8.78129000 0.997525 131.73 0.070210 41.731 0.070210 41.731 0.997525 131.73
8.78130000 0.997525 131.73 0.070213 41.730 0.070213 41.730 0.997525 131.73
8.78131000 0.997525 131.73 0.070216 41.730 0.070216 41.730 0.997525 131.73
8.78132000 0.997525 131.73 0.070219 41.730 0.070219 41.730 0.997525 131.73
8.78133000 0.997524 131.73 0.070222 41.730 0.070222 41.730 0.997524 131.73
8.78134000 0.997524 131.73 0.070225 41.729 0.070225 41.729 0.997524 131.73
8.78135000 0.997524 131.73 0.070228 41.729 0.070228 41.729 0.997524 131.73
8.78136000 0.997524 131.73 0.070231 41.729 0.070231 41.729 0.997524 131.73
8.78137000 0.997523 131.73 0.070235 41.728 0.070235 41.728 0.997523 131.73
8.78138000 0.997523 131.73 0.070238 41.728 0.070238 41.728 0.997523 131.73
8.78139000 0.997523 131.73 0.070241 41.728 0.070241 41.728 0.997523 131.73
8.78140000 0.997522 131.73 0.070244 41.728 0.070244 41.728 0.997523 131.73
8.78141000 0.997522 131.73 0.070248 41.727 0.070248 41.727 0.997522 131.73
8.78142000 0.997522 131.73 0.070251 41.727 0.070251 41.727 0.997522 131.73
8.78143000 0.997522 131.73 0.070254 41.727 0.070254 41.727 0.997522 131.73
8.78144000 0.997521 131.73 0.070258 41.726 0.070258 41.726 0.997521 131.73
8.78145000 0.997521 131.73 0.070261 41.726 0.070261 41.726 0.997521 131.73
8.78146000 0.997521 131.73 0.070265 41.726 0.070265 41.726 0.997521 131.73
8.78147000 0.997520 131.73 0.070268 41.726 0.070268 41.726 0.997520 131.73
8.78148000 0.997520 131.73 0.070272 41.725 0.070272 41.725 0.997520 131.73
8.78149000 0.997520 131.73 0.070275 41.725 0.070275 41.725 0.997520 131.73
8.78150000 0.997520 131.73 0.070279 41.725 0.070279 41.725 0.997520 131.73
8.78151000 0.997519 131.73 0.070282 41.724 0.070282 41.724 0.997519 131.73
8.78152000 0.997519 131.73 0.070286 41.724 0.070286 41.724 0.997519 131.73
8.78153000 0.997519 131.73 0.070290 41.724 0.070290 41.724 0.997519 131.73
8.78154000 0.997518 131.73 0.070293 41.724 0.070293 41.724 0.997518 131.73
8.78155000 0.997518 131.73 0.070297 41.723 0.070297 41.723 0.997518 131.73
8.78156000 0.997518 131.73 0.070301 41.723 0.070301 41.723 0.997518 131.73
8.78157000 0.997517 131.72 0.070305 41.723 0.070305 41.723 0.997517 131.73
8.78158000 0.997517 131.72 0.070309 41.722 0.070309 41.722 0.997517 131.73
8.78159000 0.997517 131.72 0.070313 41.722 0.070313 41.722 0.997517 131.73
8.78160000 0.997516 131.72 0.070316 41.722 0.070316 41.722 0.997516 131.73
8.78161000 0.997516 131.72 0.070320 41.721 0.070320 41.721 0.997516 131.73
8.78162000 0.997516 131.72 0.070324 41.721 0.070324 41.721 0.997516 131.73
8.78163000 0.997515 131.72 0.070329 41.721 0.070329 41.721 0.997515 131.73
8.78164000 0.997515 131.72 0.070333 41.720 0.070333 41.720 0.997515 131.73
8.78165000 0.997514 131.72 0.070337 41.720 0.070337 41.720 0.997515 131.73
8.78166000 0.997514 131.72 0.070341 41.720 0.070341 41.720 0.997514 131.72
8.78167000 0.997514 131.72 0.070345 41.719 0.070345 41.719 0.997514 131.72
8.78168000 0.997513 131.72 0.070349 41.719 0.070349 41.719 0.997513 131.72
8.78169000 0.997513 131.72 0.070354 41.718 0.070354 41.718 0.997513 131.72
8.78170000 0.997513 131.72 0.070358 41.718 0.070358 41.718 0.997513 131.72
8.78171000 0.997512 131.72 0.070363 41.718 0.070363 41.718 0.997512 131.72
8.78172000 0.997512 131.72 0.070367 41.717 0.070367 41.717 0.997512 131.72
8.78173000 0.997511 131.72 0.070372 41.717 0.070372 41.717 0.997512 131.72
8.78174000 0.997511 131.72 0.070376 41.717 0.070376 41.717 0.997511 131.72
8.78175000 0.997511 131.72 0.070381 41.716 0.070381 41.716 0.997511 131.72
8.78176000 0.997510 131.72 0.070385 41.716 0.070385 41.716 0.997510 131.72
8.78177000 0.997510 131.72 0.070390 41.715 0.070390 41.715 0.997510 131.72
8.78178000 0.997509 131.72 0.070395 41.715 0.070395 41.715 0.997509 131.72
8.78179000 0.997509 131.72 0.070400 41.715 0.070400 41.715 0.997509 131.72
8.78180000 0.997509 131.72 0.070405 41.714 0.070405 41.714 0.997509 131.72
8.78181000 0.997508 131.72 0.070409 41.714 0.070409 41.714 0.997508 131.72
8.78182000 0.997508 131.72 0.070414 41.713 0.070414 41.713 0.997508 131.72
8.78183000 0.997507 131.72 0.070419 41.713 0.070419 41.713 0.997507 131.72
8.78184000 0.997507 131.72 0.070425 41.713 0.070425 41.713 0.997507 131.72
8.78185000 0.997506 131.72 0.070430 41.712 0.070430 41.712 0.997506 131.72
8.78186000 0.997506 131.72 0.070435 41.712 0.070435 41.712 0.997506 131.72
8.78187000 0.997505 131.72 0.070440 41.711 0.070440 41.711 0.997505 131.72
8.78188000 0.997505 131.72 0.070445 41.711 0.070445 41.711 0.997505 131.72
8.78189000 0.997504 131.71 0.070451 41.710 0.070451 41.710 0.997504 131.72
8.78190000 0.997504 131.71 0.070456 41.710 0.070456 41.710 0.997504 131.72
8.78191000 0.997503 131.71 0.070462 41.710 0.070462 41.710 0.997503 131.72
8.78192000 0.997503 131.71 0.070467 41.709 0.070467 41.709 0.997503 131.72
8.78193000 0.997502 131.71 0.070473 41.709 0.070473 41.709 0.997502 131.72
8.78194000 0.997502 131.71 0.070479 41.708 0.070479 41.708 0.997502 131.72
8.78195000 0.997501 131.71 0.070485 41.708 0.070485 41.708 0.997501 131.72
8.78196000 0.997501 131.71 0.070490 41.707 0.070490 41.707 0.997501 131.71
8.78197000 0.997500 131.71 0.070496 41.707 0.070496 41.707 0.997500 131.71
8.78198000 0.997500 131.71 0.070502 41.706 0.070502 41.706 0.997500 131.71
8.78199000 0.997499 131.71 0.070508 41.706 0.070508 41.706 0.997499 131.71
8.78200000 0.997499 131.71 0.070515 41.705 0.070515 41.705 0.997499 131.71
8.78201000 0.997498 131.71 0.070521 41.705 0.070521 41.705 0.997498 131.71
8.78202000 0.997497 131.71 0.070527 41.704 0.070527 41.704 0.997498 131.71
8.78203000 0.997497 131.71 0.070534 41.704 0.070534 41.704 0.997497 131.71
8.78204000 0.997496 131.71 0.070540 41.703 0.070540 41.703 0.997496 131.71
8.78205000 0.997496 131.71 0.070547 41.703 0.070547 41.703 0.997496 131.71
8.78206000 0.997495 131.71 0.070553 41.702 0.070553 41.702 0.997495 131.71
8.78207000 0.997494 131.71 0.070560 41.701 0.070560 41.701 0.997495 131.71
8.78208000 0.997494 131.71 0.070567 41.701 0.070567 41.701 0.997494 131.71
8.78209000 0.997493 131.71 0.070574 41.700 0.070574 41.700 0.997493 131.71
8.78210000 0.997493 131.71 0.070581 41.700 0.070581 41.700 0.997493 131.71
8.78211000 0.997492 131.71 0.070588 41.699 0.070588 41.699 0.997492 131.71
8.78212000 0.997491 131.71 0.070595 41.699 0.070595 41.699 0.997491 131.71
8.78213000 0.997490 131.70 0.070602 41.698 0.070602 41.698 0.997491 131.71
8.78214000 0.997490 131.70 0.070610 41.697 0.070610 41.697 0.997490 131.71
8.78215000 0.997489 131.70 0.070617 41.697 0.070617 41.697 0.997489 131.71
8.78216000 0.997488 131.70 0.070625 41.696 0.070625 41.696 0.997488 131.71
8.78217000 0.997488 131.70 0.070633 41.696 0.070633 41.696 0.997488 131.71
8.78218000 0.997487 131.70 0.070640 41.695 0.070640 41.695 0.997487 131.71
8.78219000 0.997486 131.70 0.070648 41.694 0.070648 41.694 0.997486 131.70
8.78220000 0.997485 131.70 0.070656 41.694 0.070656 41.694 0.997486 131.70
8.78221000 0.997485 131.70 0.070665 41.693 0.070665 41.693 0.997485 131.70
8.78222000 0.997484 131.70 0.070673 41.692 0.070673 41.692 0.997484 131.70
8.78223000 0.997483 131.70 0.070681 41.691 0.070681 41.691 0.997483 131.70
8.78224000 0.997482 131.70 0.070690 41.691 0.070690 41.691 0.997482 131.70
8.78225000 0.997481 131.70 0.070699 41.690 0.070699 41.690 0.997482 131.70
8.78226000 0.997481 131.70 0.070707 41.689 0.070707 41.689 0.997481 131.70
8.78227000 0.997480 131.70 0.070716 41.689 0.070716 41.689 0.997480 131.70
8.78228000 0.997479 131.70 0.070725 41.688 0.070725 41.688 0.997479 131.70
8.78229000 0.997478 131.70 0.070735 41.687 0.070735 41.687 0.997478 131.70
8.78230000 0.997477 131.70 0.070744 41.686 0.070744 41.686 0.997477 131.70
8.78231000 0.997476 131.70 0.070754 41.685 0.070754 41.685 0.997476 131.70
8.78232000 0.997475 131.69 0.070763 41.685 0.070763 41.685 0.997475 131.70
8.78233000 0.997474 131.69 0.070773 41.684 0.070773 41.684 0.997474 131.70
8.78234000 0.997473 131.69 0.070783 41.683 0.070783 41.683 0.997473 131.70
8.78235000 0.997472 131.69 0.070793 41.682 0.070793 41.682 0.997472 131.70
8.78236000 0.997471 131.69 0.070803 41.681 0.070803 41.681 0.997471 131.69
8.78237000 0.997470 131.69 0.070814 41.680 0.070814 41.680 0.997470 131.69
8.78238000 0.997469 131.69 0.070825 41.680 0.070825 41.680 0.997469 131.69
8.78239000 0.997468 131.69 0.070835 41.679 0.070835 41.679 0.997468 131.69
8.78240000 0.997467 131.69 0.070846 41.678 0.070846 41.678 0.997467 131.69
8.78241000 0.997466 131.69 0.070858 41.677 0.070858 41.677 0.997466 131.69
8.78242000 0.997465 131.69 0.070869 41.676 0.070869 41.676 0.997465 131.69
8.78243000 0.997464 131.69 0.070881 41.675 0.070881 41.675 0.997464 131.69
8.78244000 0.997462 131.69 0.070893 41.674 0.070893 41.674 0.997463 131.69
8.78245000 0.997461 131.69 0.070905 41.673 0.070905 41.673 0.997461 131.69
8.78246000 0.997460 131.69 0.070917 41.672 0.070917 41.672 0.997460 131.69
8.78247000 0.997459 131.68 0.070929 41.671 0.070929 41.671 0.997459 131.69
8.78248000 0.997457 131.68 0.070942 41.670 0.070942 41.670 0.997458 131.69
8.78249000 0.997456 131.68 0.070955 41.668 0.070955 41.668 0.997456 131.69
8.78250000 0.997455 131.68 0.070968 41.667 0.070968 41.667 0.997455 131.68
8.78251000 0.997453 131.68 0.070981 41.666 0.070981 41.666 0.997454 131.68
8.78252000 0.997452 131.68 0.070995 41.665 0.070995 41.665 0.997452 131.68
8.78253000 0.997451 131.68 0.071009 41.664 0.071009 41.664 0.997451 131.68
8.78254000 0.997449 131.68 0.071023 41.663 0.071023 41.663 0.997449 131.68
8.78255000 0.997448 131.68 0.071038 41.661 0.071038 41.661 0.997448 131.68
8.78256000 0.997446 131.68 0.071053 41.660 0.071053 41.660 0.997446 131.68
8.78257000 0.997444 131.68 0.071068 41.659 0.071068 41.659 0.997445 131.68
8.78258000 0.997443 131.67 0.071083 41.657 0.071083 41.657 0.997443 131.68
8.78259000 0.997441 131.67 0.071099 41.656 0.071099 41.656 0.997442 131.68
8.78260000 0.997440 131.67 0.071115 41.655 0.071115 41.655 0.997440 131.68
8.78261000 0.997438 131.67 0.071131 41.653 0.071131 41.653 0.997438 131.67
8.78262000 0.997436 131.67 0.071148 41.652 0.071148 41.652 0.997436 131.67
8.78263000 0.997434 131.67 0.071165 41.650 0.071165 41.650 0.997435 131.67
8.78264000 0.997432 131.67 0.071182 41.649 0.071182 41.649 0.997433 131.67
8.78265000 0.997430 131.67 0.071200 41.647 0.071200 41.647 0.997431 131.67
8.78266000 0.997429 131.67 0.071218 41.645 0.071218 41.645 0.997429 131.67
8.78267000 0.997427 131.67 0.071237 41.644 0.071237 41.644 0.997427 131.67
8.78268000 0.997424 131.66 0.071256 41.642 0.071256 41.642 0.997425 131.67
8.78269000 0.997422 131.66 0.071275 41.640 0.071275 41.640 0.997423 131.67
8.78270000 0.997420 131.66 0.071295 41.639 0.071295 41.639 0.997421 131.67
8.78271000 0.997418 131.66 0.071315 41.637 0.071315 41.637 0.997418 131.66
8.78272000 0.997416 131.66 0.071336 41.635 0.071336 41.635 0.997416 131.66
8.78273000 0.997413 131.66 0.071358 41.633 0.071358 41.633 0.997414 131.66
8.78274000 0.997411 131.66 0.071379 41.631 0.071379 41.631 0.997411 131.66
8.78275000 0.997408 131.66 0.071402 41.629 0.071402 41.629 0.997409 131.66
8.78276000 0.997406 131.65 0.071425 41.627 0.071425 41.627 0.997406 131.66
8.78277000 0.997403 131.65 0.071448 41.625 0.071448 41.625 0.997404 131.66
8.78278000 0.997400 131.65 0.071472 41.622 0.071472 41.622 0.997401 131.65
8.78279000 0.997398 131.65 0.071497 41.620 0.071497 41.620 0.997398 131.65
8.78280000 0.997395 131.65 0.071523 41.618 0.071523 41.618 0.997395 131.65
8.78281000 0.997392 131.65 0.071549 41.615 0.071549 41.615 0.997392 131.65
8.78282000 0.997389 131.65 0.071575 41.613 0.071575 41.613 0.997389 131.65
8.78283000 0.997385 131.64 0.071603 41.610 0.071603 41.610 0.997386 131.65
8.78284000 0.997382 131.64 0.071631 41.608 0.071631 41.608 0.997383 131.65
8.78285000 0.997379 131.64 0.071660 41.605 0.071660 41.605 0.997379 131.64
8.78286000 0.997375 131.64 0.071690 41.602 0.071690 41.602 0.997376 131.64
8.78287000 0.997371 131.64 0.071721 41.599 0.071721 41.599 0.997372 131.64
8.78288000 0.997368 131.63 0.071752 41.596 0.071752 41.596 0.997368 131.64
8.78289000 0.997364 131.63 0.071785 41.593 0.071785 41.593 0.997364 131.64
8.78290000 0.997360 131.63 0.071818 41.589 0.071818 41.589 0.997360 131.63
8.78291000 0.997355 131.63 0.071853 41.586 0.071853 41.586 0.997356 131.63
8.78292000 0.997351 131.63 0.071889 41.583 0.071889 41.583 0.997352 131.63
8.78293000 0.997347 131.62 0.071925 41.579 0.071925 41.579 0.997347 131.63
8.78294000 0.997342 131.62 0.071963 41.575 0.071963 41.575 0.997342 131.63
8.78295000 0.997337 131.62 0.072002 41.571 0.072002 41.571 0.997338 131.62
8.78296000 0.997332 131.62 0.072043 41.567 0.072043 41.567 0.997332 131.62
8.78297000 0.997326 131.62 0.072085 41.563 0.072085 41.563 0.997327 131.62
8.78298000 0.997321 131.61 0.072128 41.558 0.072128 41.558 0.997322 131.62
8.78299000 0.997315 131.61 0.072173 41.554 0.072173 41.554 0.997316 131.61
8.78300000 0.997309 131.61 0.072219 41.549 0.072219 41.549 0.997310 131.61
8.78301000 0.997303 131.60 0.072267 41.544 0.072267 41.544 0.997303 131.61
8.78302000 0.997296 131.60 0.072317 41.539 0.072317 41.539 0.997297 131.61
8.78303000 0.997289 131.60 0.072368 41.533 0.072368 41.533 0.997290 131.60
8.78304000 0.997282 131.60 0.072422 41.528 0.072422 41.528 0.997283 131.60
8.78305000 0.997274 131.59 0.072478 41.522 0.072478 41.522 0.997275 131.60
8.78306000 0.997266 131.59 0.072536 41.515 0.072536 41.515 0.997267 131.59
8.78307000 0.997258 131.59 0.072596 41.509 0.072596 41.509 0.997259 131.59
8.78308000 0.997249 131.58 0.072659 41.502 0.072659 41.502 0.997250 131.59
8.78309000 0.997240 131.58 0.072724 41.494 0.072724 41.494 0.997241 131.58
8.78310000 0.997230 131.57 0.072792 41.487 0.072792 41.487 0.997231 131.58
8.78311000 0.997220 131.57 0.072863 41.479 0.072863 41.479 0.997221 131.57
8.78312000 0.997209 131.57 0.072938 41.470 0.072938 41.470 0.997210 131.57
8.78313000 0.997197 131.56 0.073016 41.461 0.073016 41.461 0.997198 131.56
8.78314000 0.997185 131.56 0.073097 41.452 0.073097 41.452 0.997186 131.56
8.78315000 0.997172 131.55 0.073183 41.441 0.073183 41.441 0.997173 131.56
8.78316000 0.997158 131.55 0.073272 41.431 0.073272 41.431 0.997159 131.55
8.78317000 0.997143 131.54 0.073367 41.419 0.073367 41.419 0.997145 131.54
8.78318000 0.997127 131.53 0.073466 41.407 0.073466 41.407 0.997129 131.54
8.78319000 0.997110 131.53 0.073570 41.394 0.073570 41.394 0.997112 131.53
8.78320000 0.997092 131.52 0.073680 41.380 0.073680 41.380 0.997094 131.53
8.78321000 0.997073 131.51 0.073797 41.365 0.073797 41.365 0.997075 131.52
8.78322000 0.997052 131.51 0.073920 41.349 0.073920 41.349 0.997054 131.51
8.78323000 0.997029 131.50 0.074050 41.332 0.074050 41.332 0.997031 131.51
8.78324000 0.997005 131.49 0.074189 41.314 0.074189 41.314 0.997007 131.50
8.78325000 0.996978 131.48 0.074336 41.294 0.074336 41.294 0.996981 131.49
8.78326000 0.996950 131.47 0.074493 41.272 0.074493 41.272 0.996952 131.48
8.78327000 0.996918 131.46 0.074661 41.248 0.074661 41.248 0.996921 131.47
8.78328000 0.996884 131.45 0.074841 41.223 0.074841 41.223 0.996887 131.46
8.78329000 0.996846 131.44 0.075033 41.194 0.075033 41.194 0.996850 131.45
8.78330000 0.996805 131.43 0.075240 41.163 0.075240 41.163 0.996808 131.44
8.78331000 0.996759 131.42 0.075464 41.129 0.075464 41.129 0.996763 131.42
8.78332000 0.996708 131.40 0.075705 41.092 0.075705 41.092 0.996712 131.41
8.78333000 0.996651 131.39 0.075968 41.050 0.075968 41.050 0.996655 131.39
8.78334000 0.996587 131.37 0.076253 41.003 0.076253 41.003 0.996592 131.38
8.78335000 0.996514 131.35 0.076565 40.951 0.076565 40.951 0.996520 131.36
8.78336000 0.996432 131.33 0.076907 40.892 0.076907 40.892 0.996438 131.34
8.78337000 0.996339 131.31 0.077285 40.824 0.077285 40.824 0.996345 131.32
8.78338000 0.996231 131.29 0.077703 40.748 0.077703 40.748 0.996238 131.30
8.78339000 0.996105 131.26 0.078168 40.659 0.078168 40.659 0.996114 131.27
8.78340000 0.995958 131.23 0.078689 40.556 0.078689 40.556 0.995968 131.24
8.78341000 0.995784 131.20 0.079277 40.436 0.079277 40.436 0.995795 131.21
8.78342000 0.995576 131.16 0.079945 40.293 0.079945 40.293 0.995588 131.17
8.78343000 0.995323 131.12 0.080709 40.123 0.080709 40.123 0.995337 131.12
8.78344000 0.995012 131.06 0.081594 39.915 0.081594 39.915 0.995028 131.07
8.78345000 0.994621 131.00 0.082628 39.659 0.082628 39.659 0.994641 131.01
8.78346000 0.994121 130.93 0.083851 39.338 0.083851 39.338 0.994145 130.95
8.78347000 0.993466 130.85 0.085320 38.926 0.085320 38.926 0.993494 130.86
8.78348000 0.992581 130.75 0.087112 38.385 0.087112 38.385 0.992617 130.76
8.78349000 0.991346 130.62 0.089341 37.653 0.089341 37.653 0.991392 130.64
8.78350000 0.989545 130.46 0.092173 36.625 0.092173 36.625 0.989606 130.48
8.78351000 0.986777 130.26 0.095860 35.117 0.095860 35.117 0.986863 130.28
8.78352000 0.982239 130.00 0.100765 32.779 0.100765 32.779 0.982365 130.02
8.78353000 0.974219 129.68 0.107322 28.899 0.107322 28.899 0.974419 129.71
8.78354000 0.959117 129.41 0.115429 21.970 0.115429 21.970 0.959461 129.44
8.78355000 0.932736 129.77 0.120814 9.1608 0.120814 9.1608 0.933348 129.79
8.78356000 0.913157 132.01 0.106505 -10.31 0.106505 -10.31 0.913996 132.02
8.78357000 0.935751 134.20 0.069129 -22.65 0.069129 -22.65 0.936383 134.18
8.78358000 0.963622 134.41 0.042963 -12.33 0.042963 -12.33 0.963979 134.38
8.78359000 0.978679 134.02 0.036695 9.5679 0.036695 9.5679 0.978886 134.00
8.78360000 0.986221 133.64 0.039140 24.189 0.039140 24.189 0.986351 133.62
8.78361000 0.990260 133.34 0.043010 31.521 0.043010 31.521 0.990348 133.33
8.78362000 0.992600 133.11 0.046467 35.311 0.046467 35.311 0.992663 133.10
8.78363000 0.994050 132.94 0.049291 37.442 0.049291 37.442 0.994097 132.93
8.78364000 0.994998 132.80 0.051568 38.733 0.051568 38.733 0.995034 132.79
8.78365000 0.995645 132.69 0.053419 39.564 0.053419 39.564 0.995674 132.69
8.78366000 0.996104 132.60 0.054943 40.125 0.054943 40.125 0.996127 132.60
8.78367000 0.996437 132.53 0.056214 40.519 0.056214 40.519 0.996457 132.52
8.78368000 0.996687 132.47 0.057288 40.804 0.057288 40.804 0.996703 132.46
8.78369000 0.996877 132.41 0.058207 41.015 0.058207 41.015 0.996891 132.41
8.78370000 0.997024 132.37 0.059000 41.176 0.059000 41.176 0.997036 132.36
8.78371000 0.997140 132.33 0.059691 41.300 0.059691 41.300 0.997151 132.32
8.78372000 0.997232 132.29 0.060300 41.397 0.060300 41.397 0.997242 132.29
8.78373000 0.997307 132.26 0.060838 41.474 0.060838 41.474 0.997315 132.26
8.78374000 0.997367 132.23 0.061318 41.537 0.061318 41.537 0.997375 132.23
8.78375000 0.997417 132.21 0.061749 41.587 0.061749 41.587 0.997424 132.21
8.78376000 0.997458 132.19 0.062137 41.628 0.062137 41.628 0.997464 132.18
8.78377000 0.997492 132.16 0.062489 41.663 0.062489 41.663 0.997498 132.16
8.78378000 0.997521 132.15 0.062809 41.691 0.062809 41.691 0.997526 132.14
8.78379000 0.997545 132.13 0.063102 41.715 0.063102 41.715 0.997550 132.13
8.78380000 0.997565 132.11 0.063371 41.734 0.063371 41.734 0.997570 132.11
8.78381000 0.997583 132.10 0.063618 41.751 0.063618 41.751 0.997586 132.10
8.78382000 0.997597 132.09 0.063847 41.766 0.063847 41.766 0.997601 132.09
8.78383000 0.997610 132.07 0.064059 41.778 0.064059 41.778 0.997613 132.07
8.78384000 0.997621 132.06 0.064256 41.788 0.064256 41.788 0.997624 132.06
8.78385000 0.997630 132.05 0.064439 41.797 0.064439 41.797 0.997633 132.05
8.78386000 0.997638 132.04 0.064610 41.804 0.064610 41.804 0.997640 132.04
8.78387000 0.997644 132.03 0.064770 41.811 0.064770 41.811 0.997647 132.03
8.78388000 0.997650 132.02 0.064920 41.816 0.064920 41.816 0.997653 132.02
8.78389000 0.997655 132.02 0.065062 41.821 0.065062 41.821 0.997657 132.02
8.78390000 0.997660 132.01 0.065195 41.825 0.065195 41.825 0.997662 132.01
8.78391000 0.997663 132.00 0.065320 41.828 0.065320 41.828 0.997665 132.00
8.78392000 0.997666 131.99 0.065438 41.831 0.065438 41.831 0.997668 131.99