! Sonnet Data File
! From: emgraph Version : 16.52
! From Project: 171113transmon_trace_brgOdd
! Data is De-embedded 
! Data File Written: 11/14/2017 10:41:50
!< HDATE 11/13/2017 20:27:28
!< MDATE 11/13/2017 20:29:37
!< PARAMS
!< Lj = 15.24
!< Gap = 16.0
!< Width = 10.0
!< Airgap = 6.0
!< Pwidth = 2000.0
!< Dist = 400.0
!< END PARAMS
# GHZ S MA R 34.87000
8.71000000 0.978094 101.92 0.208134 11.917 0.208134 11.917 0.978095 101.91
!< P1 F=8.71 Eeff=(5.13587251 -5.6718e-5) Z0=(34.65008 -9.4822e-5) R=0.0 C=0.0 
!< P2 F=8.71 Eeff=(5.13587251 -5.6718e-5) Z0=(34.65008 -9.4822e-5) R=0.0 C=0.0 
8.71000500 0.978094 101.92 0.208135 11.917 0.208135 11.917 0.978094 101.91
8.71001000 0.978094 101.92 0.208135 11.916 0.208135 11.916 0.978094 101.91
8.71001500 0.978094 101.92 0.208135 11.916 0.208135 11.916 0.978094 101.91
8.71002000 0.978094 101.92 0.208136 11.916 0.208136 11.916 0.978094 101.91
8.71002500 0.978094 101.92 0.208136 11.916 0.208136 11.916 0.978094 101.91
8.71003000 0.978094 101.92 0.208136 11.916 0.208136 11.916 0.978094 101.91
8.71003500 0.978094 101.92 0.208137 11.916 0.208137 11.916 0.978094 101.91
8.71004000 0.978094 101.92 0.208137 11.916 0.208137 11.916 0.978094 101.91
8.71004500 0.978094 101.92 0.208138 11.916 0.208138 11.916 0.978094 101.91
8.71005000 0.978094 101.92 0.208138 11.916 0.208138 11.916 0.978094 101.91
8.71005500 0.978094 101.92 0.208138 11.916 0.208138 11.916 0.978094 101.91
8.71006000 0.978093 101.92 0.208139 11.916 0.208139 11.916 0.978094 101.91
8.71006500 0.978093 101.92 0.208139 11.916 0.208139 11.916 0.978093 101.91
8.71007000 0.978093 101.92 0.208140 11.916 0.208140 11.916 0.978093 101.91
8.71007500 0.978093 101.92 0.208140 11.916 0.208140 11.916 0.978093 101.91
8.71008000 0.978093 101.92 0.208140 11.916 0.208140 11.916 0.978093 101.91
8.71008500 0.978093 101.92 0.208141 11.916 0.208141 11.916 0.978093 101.91
8.71009000 0.978093 101.92 0.208141 11.915 0.208141 11.915 0.978093 101.91
8.71009500 0.978093 101.92 0.208141 11.915 0.208141 11.915 0.978093 101.91
8.71010000 0.978093 101.92 0.208142 11.915 0.208142 11.915 0.978093 101.91
8.71010500 0.978093 101.92 0.208142 11.915 0.208142 11.915 0.978093 101.91
8.71011000 0.978093 101.92 0.208143 11.915 0.208143 11.915 0.978093 101.91
8.71011500 0.978093 101.92 0.208143 11.915 0.208143 11.915 0.978093 101.91
8.71012000 0.978092 101.92 0.208143 11.915 0.208143 11.915 0.978093 101.91
8.71012500 0.978092 101.92 0.208144 11.915 0.208144 11.915 0.978092 101.91
8.71013000 0.978092 101.92 0.208144 11.915 0.208144 11.915 0.978092 101.91
8.71013500 0.978092 101.92 0.208145 11.915 0.208145 11.915 0.978092 101.91
8.71014000 0.978092 101.92 0.208145 11.915 0.208145 11.915 0.978092 101.91
8.71014500 0.978092 101.92 0.208145 11.915 0.208145 11.915 0.978092 101.91
8.71015000 0.978092 101.92 0.208146 11.915 0.208146 11.915 0.978092 101.91
8.71015500 0.978092 101.92 0.208146 11.915 0.208146 11.915 0.978092 101.91
8.71016000 0.978092 101.92 0.208147 11.915 0.208147 11.915 0.978092 101.91
8.71016500 0.978092 101.92 0.208147 11.915 0.208147 11.915 0.978092 101.91
8.71017000 0.978092 101.92 0.208147 11.915 0.208147 11.915 0.978092 101.91
8.71017500 0.978092 101.92 0.208148 11.914 0.208148 11.914 0.978092 101.91
8.71018000 0.978091 101.92 0.208148 11.914 0.208148 11.914 0.978092 101.91
8.71018500 0.978091 101.92 0.208148 11.914 0.208148 11.914 0.978091 101.91
8.71019000 0.978091 101.92 0.208149 11.914 0.208149 11.914 0.978091 101.91
8.71019500 0.978091 101.92 0.208149 11.914 0.208149 11.914 0.978091 101.91
8.71020000 0.978091 101.92 0.208150 11.914 0.208150 11.914 0.978091 101.91
8.71020500 0.978091 101.92 0.208150 11.914 0.208150 11.914 0.978091 101.91
8.71021000 0.978091 101.92 0.208150 11.914 0.208150 11.914 0.978091 101.91
8.71021500 0.978091 101.92 0.208151 11.914 0.208151 11.914 0.978091 101.91
8.71022000 0.978091 101.92 0.208151 11.914 0.208151 11.914 0.978091 101.91
8.71022500 0.978091 101.92 0.208152 11.914 0.208152 11.914 0.978091 101.90
8.71023000 0.978091 101.92 0.208152 11.914 0.208152 11.914 0.978091 101.90
8.71023500 0.978091 101.92 0.208152 11.914 0.208152 11.914 0.978091 101.90
8.71024000 0.978090 101.92 0.208153 11.914 0.208153 11.914 0.978090 101.90
8.71024500 0.978090 101.92 0.208153 11.914 0.208153 11.914 0.978090 101.90
8.71025000 0.978090 101.92 0.208154 11.914 0.208154 11.914 0.978090 101.90
8.71025500 0.978090 101.92 0.208154 11.913 0.208154 11.913 0.978090 101.90
8.71026000 0.978090 101.92 0.208154 11.913 0.208154 11.913 0.978090 101.90
8.71026500 0.978090 101.92 0.208155 11.913 0.208155 11.913 0.978090 101.90
8.71027000 0.978090 101.92 0.208155 11.913 0.208155 11.913 0.978090 101.90
8.71027500 0.978090 101.92 0.208156 11.913 0.208156 11.913 0.978090 101.90
8.71028000 0.978090 101.92 0.208156 11.913 0.208156 11.913 0.978090 101.90
8.71028500 0.978090 101.92 0.208156 11.913 0.208156 11.913 0.978090 101.90
8.71029000 0.978090 101.92 0.208157 11.913 0.208157 11.913 0.978090 101.90
8.71029500 0.978089 101.92 0.208157 11.913 0.208157 11.913 0.978090 101.90
8.71030000 0.978089 101.92 0.208158 11.913 0.208158 11.913 0.978089 101.90
8.71030500 0.978089 101.92 0.208158 11.913 0.208158 11.913 0.978089 101.90
8.71031000 0.978089 101.92 0.208158 11.913 0.208158 11.913 0.978089 101.90
8.71031500 0.978089 101.92 0.208159 11.913 0.208159 11.913 0.978089 101.90
8.71032000 0.978089 101.92 0.208159 11.913 0.208159 11.913 0.978089 101.90
8.71032500 0.978089 101.92 0.208160 11.913 0.208160 11.913 0.978089 101.90
8.71033000 0.978089 101.92 0.208160 11.913 0.208160 11.913 0.978089 101.90
8.71033500 0.978089 101.92 0.208160 11.912 0.208160 11.912 0.978089 101.90
8.71034000 0.978089 101.92 0.208161 11.912 0.208161 11.912 0.978089 101.90
8.71034500 0.978089 101.92 0.208161 11.912 0.208161 11.912 0.978089 101.90
8.71035000 0.978089 101.92 0.208162 11.912 0.208162 11.912 0.978089 101.90
8.71035500 0.978088 101.92 0.208162 11.912 0.208162 11.912 0.978088 101.90
8.71036000 0.978088 101.92 0.208163 11.912 0.208163 11.912 0.978088 101.90
8.71036500 0.978088 101.92 0.208163 11.912 0.208163 11.912 0.978088 101.90
8.71037000 0.978088 101.92 0.208163 11.912 0.208163 11.912 0.978088 101.90
8.71037500 0.978088 101.92 0.208164 11.912 0.208164 11.912 0.978088 101.90
8.71038000 0.978088 101.92 0.208164 11.912 0.208164 11.912 0.978088 101.90
8.71038500 0.978088 101.92 0.208165 11.912 0.208165 11.912 0.978088 101.90
8.71039000 0.978088 101.92 0.208165 11.912 0.208165 11.912 0.978088 101.90
8.71039500 0.978088 101.92 0.208165 11.912 0.208165 11.912 0.978088 101.90
8.71040000 0.978088 101.92 0.208166 11.912 0.208166 11.912 0.978088 101.90
8.71040500 0.978088 101.92 0.208166 11.912 0.208166 11.912 0.978088 101.90
8.71041000 0.978087 101.92 0.208167 11.912 0.208167 11.912 0.978088 101.90
8.71041500 0.978087 101.92 0.208167 11.911 0.208167 11.911 0.978087 101.90
8.71042000 0.978087 101.92 0.208167 11.911 0.208167 11.911 0.978087 101.90
8.71042500 0.978087 101.92 0.208168 11.911 0.208168 11.911 0.978087 101.90
8.71043000 0.978087 101.92 0.208168 11.911 0.208168 11.911 0.978087 101.90
8.71043500 0.978087 101.92 0.208169 11.911 0.208169 11.911 0.978087 101.90
8.71044000 0.978087 101.92 0.208169 11.911 0.208169 11.911 0.978087 101.90
8.71044500 0.978087 101.92 0.208169 11.911 0.208169 11.911 0.978087 101.90
8.71045000 0.978087 101.92 0.208170 11.911 0.208170 11.911 0.978087 101.90
8.71045500 0.978087 101.92 0.208170 11.911 0.208170 11.911 0.978087 101.90
8.71046000 0.978087 101.92 0.208171 11.911 0.208171 11.911 0.978087 101.90
8.71046500 0.978086 101.92 0.208171 11.911 0.208171 11.911 0.978087 101.90
8.71047000 0.978086 101.92 0.208172 11.911 0.208172 11.911 0.978086 101.90
8.71047500 0.978086 101.92 0.208172 11.911 0.208172 11.911 0.978086 101.90
8.71048000 0.978086 101.92 0.208172 11.911 0.208172 11.911 0.978086 101.90
8.71048500 0.978086 101.92 0.208173 11.911 0.208173 11.911 0.978086 101.90
8.71049000 0.978086 101.92 0.208173 11.911 0.208173 11.911 0.978086 101.90
8.71049500 0.978086 101.92 0.208174 11.910 0.208174 11.910 0.978086 101.90
8.71050000 0.978086 101.92 0.208174 11.910 0.208174 11.910 0.978086 101.90
8.71050500 0.978086 101.92 0.208175 11.910 0.208175 11.910 0.978086 101.90
8.71051000 0.978086 101.92 0.208175 11.910 0.208175 11.910 0.978086 101.90
8.71051500 0.978086 101.92 0.208175 11.910 0.208175 11.910 0.978086 101.90
8.71052000 0.978085 101.92 0.208176 11.910 0.208176 11.910 0.978086 101.90
8.71052500 0.978085 101.92 0.208176 11.910 0.208176 11.910 0.978085 101.90
8.71053000 0.978085 101.92 0.208177 11.910 0.208177 11.910 0.978085 101.90
8.71053500 0.978085 101.92 0.208177 11.910 0.208177 11.910 0.978085 101.90
8.71054000 0.978085 101.92 0.208177 11.910 0.208177 11.910 0.978085 101.90
8.71054500 0.978085 101.92 0.208178 11.910 0.208178 11.910 0.978085 101.90
8.71055000 0.978085 101.92 0.208178 11.910 0.208178 11.910 0.978085 101.90
8.71055500 0.978085 101.92 0.208179 11.910 0.208179 11.910 0.978085 101.90
8.71056000 0.978085 101.92 0.208179 11.910 0.208179 11.910 0.978085 101.90
8.71056500 0.978085 101.92 0.208180 11.910 0.208180 11.910 0.978085 101.90
8.71057000 0.978085 101.92 0.208180 11.910 0.208180 11.910 0.978085 101.90
8.71057500 0.978084 101.92 0.208180 11.909 0.208180 11.909 0.978085 101.90
8.71058000 0.978084 101.92 0.208181 11.909 0.208181 11.909 0.978084 101.90
8.71058500 0.978084 101.92 0.208181 11.909 0.208181 11.909 0.978084 101.90
8.71059000 0.978084 101.92 0.208182 11.909 0.208182 11.909 0.978084 101.90
8.71059500 0.978084 101.92 0.208182 11.909 0.208182 11.909 0.978084 101.90
8.71060000 0.978084 101.92 0.208183 11.909 0.208183 11.909 0.978084 101.90
8.71060500 0.978084 101.92 0.208183 11.909 0.208183 11.909 0.978084 101.90
8.71061000 0.978084 101.92 0.208183 11.909 0.208183 11.909 0.978084 101.90
8.71061500 0.978084 101.92 0.208184 11.909 0.208184 11.909 0.978084 101.90
8.71062000 0.978084 101.92 0.208184 11.909 0.208184 11.909 0.978084 101.90
8.71062500 0.978084 101.92 0.208185 11.909 0.208185 11.909 0.978084 101.90
8.71063000 0.978083 101.92 0.208185 11.909 0.208185 11.909 0.978083 101.90
8.71063500 0.978083 101.92 0.208186 11.909 0.208186 11.909 0.978083 101.90
8.71064000 0.978083 101.92 0.208186 11.909 0.208186 11.909 0.978083 101.90
8.71064500 0.978083 101.92 0.208186 11.909 0.208186 11.909 0.978083 101.90
8.71065000 0.978083 101.92 0.208187 11.909 0.208187 11.909 0.978083 101.90
8.71065500 0.978083 101.92 0.208187 11.908 0.208187 11.908 0.978083 101.90
8.71066000 0.978083 101.92 0.208188 11.908 0.208188 11.908 0.978083 101.90
8.71066500 0.978083 101.92 0.208188 11.908 0.208188 11.908 0.978083 101.90
8.71067000 0.978083 101.92 0.208189 11.908 0.208189 11.908 0.978083 101.90
8.71067500 0.978083 101.92 0.208189 11.908 0.208189 11.908 0.978083 101.90
8.71068000 0.978082 101.92 0.208189 11.908 0.208189 11.908 0.978083 101.90
8.71068500 0.978082 101.92 0.208190 11.908 0.208190 11.908 0.978082 101.90
8.71069000 0.978082 101.92 0.208190 11.908 0.208190 11.908 0.978082 101.90
8.71069500 0.978082 101.92 0.208191 11.908 0.208191 11.908 0.978082 101.90
8.71070000 0.978082 101.92 0.208191 11.908 0.208191 11.908 0.978082 101.90
8.71070500 0.978082 101.92 0.208192 11.908 0.208192 11.908 0.978082 101.90
8.71071000 0.978082 101.92 0.208192 11.908 0.208192 11.908 0.978082 101.90
8.71071500 0.978082 101.92 0.208193 11.908 0.208193 11.908 0.978082 101.90
8.71072000 0.978082 101.92 0.208193 11.908 0.208193 11.908 0.978082 101.90
8.71072500 0.978082 101.91 0.208193 11.908 0.208193 11.908 0.978082 101.90
8.71073000 0.978082 101.91 0.208194 11.907 0.208194 11.907 0.978082 101.90
8.71073500 0.978081 101.91 0.208194 11.907 0.208194 11.907 0.978082 101.90
8.71074000 0.978081 101.91 0.208195 11.907 0.208195 11.907 0.978081 101.90
8.71074500 0.978081 101.91 0.208195 11.907 0.208195 11.907 0.978081 101.90
8.71075000 0.978081 101.91 0.208196 11.907 0.208196 11.907 0.978081 101.90
8.71075500 0.978081 101.91 0.208196 11.907 0.208196 11.907 0.978081 101.90
8.71076000 0.978081 101.91 0.208196 11.907 0.208196 11.907 0.978081 101.90
8.71076500 0.978081 101.91 0.208197 11.907 0.208197 11.907 0.978081 101.90
8.71077000 0.978081 101.91 0.208197 11.907 0.208197 11.907 0.978081 101.90
8.71077500 0.978081 101.91 0.208198 11.907 0.208198 11.907 0.978081 101.90
8.71078000 0.978081 101.91 0.208198 11.907 0.208198 11.907 0.978081 101.90
8.71078500 0.978080 101.91 0.208199 11.907 0.208199 11.907 0.978081 101.90
8.71079000 0.978080 101.91 0.208199 11.907 0.208199 11.907 0.978080 101.90
8.71079500 0.978080 101.91 0.208200 11.907 0.208200 11.907 0.978080 101.90
8.71080000 0.978080 101.91 0.208200 11.907 0.208200 11.907 0.978080 101.90
8.71080500 0.978080 101.91 0.208200 11.907 0.208200 11.907 0.978080 101.90
8.71081000 0.978080 101.91 0.208201 11.906 0.208201 11.906 0.978080 101.90
8.71081500 0.978080 101.91 0.208201 11.906 0.208201 11.906 0.978080 101.90
8.71082000 0.978080 101.91 0.208202 11.906 0.208202 11.906 0.978080 101.90
8.71082500 0.978080 101.91 0.208202 11.906 0.208202 11.906 0.978080 101.90
8.71083000 0.978080 101.91 0.208203 11.906 0.208203 11.906 0.978080 101.90
8.71083500 0.978080 101.91 0.208203 11.906 0.208203 11.906 0.978080 101.90
8.71084000 0.978079 101.91 0.208204 11.906 0.208204 11.906 0.978079 101.90
8.71084500 0.978079 101.91 0.208204 11.906 0.208204 11.906 0.978079 101.90
8.71085000 0.978079 101.91 0.208205 11.906 0.208205 11.906 0.978079 101.90
8.71085500 0.978079 101.91 0.208205 11.906 0.208205 11.906 0.978079 101.90
8.71086000 0.978079 101.91 0.208205 11.906 0.208205 11.906 0.978079 101.90
8.71086500 0.978079 101.91 0.208206 11.906 0.208206 11.906 0.978079 101.90
8.71087000 0.978079 101.91 0.208206 11.906 0.208206 11.906 0.978079 101.90
8.71087500 0.978079 101.91 0.208207 11.906 0.208207 11.906 0.978079 101.90
8.71088000 0.978079 101.91 0.208207 11.906 0.208207 11.906 0.978079 101.90
8.71088500 0.978079 101.91 0.208208 11.905 0.208208 11.905 0.978079 101.90
8.71089000 0.978078 101.91 0.208208 11.905 0.208208 11.905 0.978078 101.90
8.71089500 0.978078 101.91 0.208209 11.905 0.208209 11.905 0.978078 101.90
8.71090000 0.978078 101.91 0.208209 11.905 0.208209 11.905 0.978078 101.90
8.71090500 0.978078 101.91 0.208210 11.905 0.208210 11.905 0.978078 101.90
8.71091000 0.978078 101.91 0.208210 11.905 0.208210 11.905 0.978078 101.90
8.71091500 0.978078 101.91 0.208210 11.905 0.208210 11.905 0.978078 101.90
8.71092000 0.978078 101.91 0.208211 11.905 0.208211 11.905 0.978078 101.90
8.71092500 0.978078 101.91 0.208211 11.905 0.208211 11.905 0.978078 101.90
8.71093000 0.978078 101.91 0.208212 11.905 0.208212 11.905 0.978078 101.90
8.71093500 0.978078 101.91 0.208212 11.905 0.208212 11.905 0.978078 101.90
8.71094000 0.978077 101.91 0.208213 11.905 0.208213 11.905 0.978077 101.90
8.71094500 0.978077 101.91 0.208213 11.905 0.208213 11.905 0.978077 101.90
8.71095000 0.978077 101.91 0.208214 11.905 0.208214 11.905 0.978077 101.90
8.71095500 0.978077 101.91 0.208214 11.905 0.208214 11.905 0.978077 101.90
8.71096000 0.978077 101.91 0.208215 11.904 0.208215 11.904 0.978077 101.90
8.71096500 0.978077 101.91 0.208215 11.904 0.208215 11.904 0.978077 101.90
8.71097000 0.978077 101.91 0.208216 11.904 0.208216 11.904 0.978077 101.90
8.71097500 0.978077 101.91 0.208216 11.904 0.208216 11.904 0.978077 101.90
8.71098000 0.978077 101.91 0.208216 11.904 0.208216 11.904 0.978077 101.90
8.71098500 0.978077 101.91 0.208217 11.904 0.208217 11.904 0.978077 101.90
8.71099000 0.978076 101.91 0.208217 11.904 0.208217 11.904 0.978076 101.90
8.71099500 0.978076 101.91 0.208218 11.904 0.208218 11.904 0.978076 101.90
8.71100000 0.978076 101.91 0.208218 11.904 0.208218 11.904 0.978076 101.90
8.71100500 0.978076 101.91 0.208219 11.904 0.208219 11.904 0.978076 101.90
8.71101000 0.978076 101.91 0.208219 11.904 0.208219 11.904 0.978076 101.90
8.71101500 0.978076 101.91 0.208220 11.904 0.208220 11.904 0.978076 101.90
8.71102000 0.978076 101.91 0.208220 11.904 0.208220 11.904 0.978076 101.90
8.71102500 0.978076 101.91 0.208221 11.904 0.208221 11.904 0.978076 101.89
8.71103000 0.978076 101.91 0.208221 11.904 0.208221 11.904 0.978076 101.89
8.71103500 0.978075 101.91 0.208222 11.904 0.208222 11.904 0.978076 101.89
8.71104000 0.978075 101.91 0.208222 11.903 0.208222 11.903 0.978075 101.89
8.71104500 0.978075 101.91 0.208223 11.903 0.208223 11.903 0.978075 101.89
8.71105000 0.978075 101.91 0.208223 11.903 0.208223 11.903 0.978075 101.89
8.71105500 0.978075 101.91 0.208223 11.903 0.208223 11.903 0.978075 101.89
8.71106000 0.978075 101.91 0.208224 11.903 0.208224 11.903 0.978075 101.89
8.71106500 0.978075 101.91 0.208224 11.903 0.208224 11.903 0.978075 101.89
8.71107000 0.978075 101.91 0.208225 11.903 0.208225 11.903 0.978075 101.89
8.71107500 0.978075 101.91 0.208225 11.903 0.208225 11.903 0.978075 101.89
8.71108000 0.978075 101.91 0.208226 11.903 0.208226 11.903 0.978075 101.89
8.71108500 0.978074 101.91 0.208226 11.903 0.208226 11.903 0.978075 101.89
8.71109000 0.978074 101.91 0.208227 11.903 0.208227 11.903 0.978074 101.89
8.71109500 0.978074 101.91 0.208227 11.903 0.208227 11.903 0.978074 101.89
8.71110000 0.978074 101.91 0.208228 11.903 0.208228 11.903 0.978074 101.89
8.71110500 0.978074 101.91 0.208228 11.903 0.208228 11.903 0.978074 101.89
8.71111000 0.978074 101.91 0.208229 11.903 0.208229 11.903 0.978074 101.89
8.71111500 0.978074 101.91 0.208229 11.902 0.208229 11.902 0.978074 101.89
8.71112000 0.978074 101.91 0.208230 11.902 0.208230 11.902 0.978074 101.89
8.71112500 0.978074 101.91 0.208230 11.902 0.208230 11.902 0.978074 101.89
8.71113000 0.978074 101.91 0.208231 11.902 0.208231 11.902 0.978074 101.89
8.71113500 0.978073 101.91 0.208231 11.902 0.208231 11.902 0.978074 101.89
8.71114000 0.978073 101.91 0.208232 11.902 0.208232 11.902 0.978073 101.89
8.71114500 0.978073 101.91 0.208232 11.902 0.208232 11.902 0.978073 101.89
8.71115000 0.978073 101.91 0.208233 11.902 0.208233 11.902 0.978073 101.89
8.71115500 0.978073 101.91 0.208233 11.902 0.208233 11.902 0.978073 101.89
8.71116000 0.978073 101.91 0.208234 11.902 0.208234 11.902 0.978073 101.89
8.71116500 0.978073 101.91 0.208234 11.902 0.208234 11.902 0.978073 101.89
8.71117000 0.978073 101.91 0.208234 11.902 0.208234 11.902 0.978073 101.89
8.71117500 0.978073 101.91 0.208235 11.902 0.208235 11.902 0.978073 101.89
8.71118000 0.978072 101.91 0.208235 11.902 0.208235 11.902 0.978073 101.89
8.71118500 0.978072 101.91 0.208236 11.902 0.208236 11.902 0.978072 101.89
8.71119000 0.978072 101.91 0.208236 11.901 0.208236 11.901 0.978072 101.89
8.71119500 0.978072 101.91 0.208237 11.901 0.208237 11.901 0.978072 101.89
8.71120000 0.978072 101.91 0.208237 11.901 0.208237 11.901 0.978072 101.89
8.71120500 0.978072 101.91 0.208238 11.901 0.208238 11.901 0.978072 101.89
8.71121000 0.978072 101.91 0.208238 11.901 0.208238 11.901 0.978072 101.89
8.71121500 0.978072 101.91 0.208239 11.901 0.208239 11.901 0.978072 101.89
8.71122000 0.978072 101.91 0.208239 11.901 0.208239 11.901 0.978072 101.89
8.71122500 0.978072 101.91 0.208240 11.901 0.208240 11.901 0.978072 101.89
8.71123000 0.978071 101.91 0.208240 11.901 0.208240 11.901 0.978071 101.89
8.71123500 0.978071 101.91 0.208241 11.901 0.208241 11.901 0.978071 101.89
8.71124000 0.978071 101.91 0.208241 11.901 0.208241 11.901 0.978071 101.89
8.71124500 0.978071 101.91 0.208242 11.901 0.208242 11.901 0.978071 101.89
8.71125000 0.978071 101.91 0.208242 11.901 0.208242 11.901 0.978071 101.89
8.71125500 0.978071 101.91 0.208243 11.901 0.208243 11.901 0.978071 101.89
8.71126000 0.978071 101.91 0.208243 11.900 0.208243 11.900 0.978071 101.89
8.71126500 0.978071 101.91 0.208244 11.900 0.208244 11.900 0.978071 101.89
8.71127000 0.978071 101.91 0.208244 11.900 0.208244 11.900 0.978071 101.89
8.71127500 0.978070 101.91 0.208245 11.900 0.208245 11.900 0.978071 101.89
8.71128000 0.978070 101.91 0.208245 11.900 0.208245 11.900 0.978070 101.89
8.71128500 0.978070 101.91 0.208246 11.900 0.208246 11.900 0.978070 101.89
8.71129000 0.978070 101.91 0.208246 11.900 0.208246 11.900 0.978070 101.89
8.71129500 0.978070 101.91 0.208247 11.900 0.208247 11.900 0.978070 101.89
8.71130000 0.978070 101.91 0.208247 11.900 0.208247 11.900 0.978070 101.89
8.71130500 0.978070 101.91 0.208248 11.900 0.208248 11.900 0.978070 101.89
8.71131000 0.978070 101.91 0.208248 11.900 0.208248 11.900 0.978070 101.89
8.71131500 0.978070 101.91 0.208249 11.900 0.208249 11.900 0.978070 101.89
8.71132000 0.978069 101.91 0.208249 11.900 0.208249 11.900 0.978070 101.89
8.71132500 0.978069 101.91 0.208250 11.900 0.208250 11.900 0.978069 101.89
8.71133000 0.978069 101.91 0.208250 11.900 0.208250 11.900 0.978069 101.89
8.71133500 0.978069 101.91 0.208251 11.899 0.208251 11.899 0.978069 101.89
8.71134000 0.978069 101.91 0.208251 11.899 0.208251 11.899 0.978069 101.89
8.71134500 0.978069 101.91 0.208252 11.899 0.208252 11.899 0.978069 101.89
8.71135000 0.978069 101.91 0.208252 11.899 0.208252 11.899 0.978069 101.89
8.71135500 0.978069 101.91 0.208253 11.899 0.208253 11.899 0.978069 101.89
8.71136000 0.978069 101.91 0.208253 11.899 0.208253 11.899 0.978069 101.89
8.71136500 0.978068 101.91 0.208254 11.899 0.208254 11.899 0.978069 101.89
8.71137000 0.978068 101.91 0.208254 11.899 0.208254 11.899 0.978068 101.89
8.71137500 0.978068 101.91 0.208255 11.899 0.208255 11.899 0.978068 101.89
8.71138000 0.978068 101.91 0.208255 11.899 0.208255 11.899 0.978068 101.89
8.71138500 0.978068 101.91 0.208256 11.899 0.208256 11.899 0.978068 101.89
8.71139000 0.978068 101.91 0.208256 11.899 0.208256 11.899 0.978068 101.89
8.71139500 0.978068 101.91 0.208257 11.899 0.208257 11.899 0.978068 101.89
8.71140000 0.978068 101.91 0.208257 11.899 0.208257 11.899 0.978068 101.89
8.71140500 0.978068 101.91 0.208258 11.899 0.208258 11.899 0.978068 101.89
8.71141000 0.978067 101.91 0.208258 11.898 0.208258 11.898 0.978068 101.89
8.71141500 0.978067 101.91 0.208259 11.898 0.208259 11.898 0.978067 101.89
8.71142000 0.978067 101.91 0.208260 11.898 0.208260 11.898 0.978067 101.89
8.71142500 0.978067 101.91 0.208260 11.898 0.208260 11.898 0.978067 101.89
8.71143000 0.978067 101.91 0.208261 11.898 0.208261 11.898 0.978067 101.89
8.71143500 0.978067 101.91 0.208261 11.898 0.208261 11.898 0.978067 101.89
8.71144000 0.978067 101.91 0.208262 11.898 0.208262 11.898 0.978067 101.89
8.71144500 0.978067 101.91 0.208262 11.898 0.208262 11.898 0.978067 101.89
8.71145000 0.978067 101.91 0.208263 11.898 0.208263 11.898 0.978067 101.89
8.71145500 0.978066 101.91 0.208263 11.898 0.208263 11.898 0.978067 101.89
8.71146000 0.978066 101.91 0.208264 11.898 0.208264 11.898 0.978066 101.89
8.71146500 0.978066 101.91 0.208264 11.898 0.208264 11.898 0.978066 101.89
8.71147000 0.978066 101.91 0.208265 11.898 0.208265 11.898 0.978066 101.89
8.71147500 0.978066 101.90 0.208265 11.898 0.208265 11.898 0.978066 101.89
8.71148000 0.978066 101.90 0.208266 11.897 0.208266 11.897 0.978066 101.89
8.71148500 0.978066 101.90 0.208266 11.897 0.208266 11.897 0.978066 101.89
8.71149000 0.978066 101.90 0.208267 11.897 0.208267 11.897 0.978066 101.89
8.71149500 0.978066 101.90 0.208267 11.897 0.208267 11.897 0.978066 101.89
8.71150000 0.978065 101.90 0.208268 11.897 0.208268 11.897 0.978065 101.89
8.71150500 0.978065 101.90 0.208268 11.897 0.208268 11.897 0.978065 101.89
8.71151000 0.978065 101.90 0.208269 11.897 0.208269 11.897 0.978065 101.89
8.71151500 0.978065 101.90 0.208269 11.897 0.208269 11.897 0.978065 101.89
8.71152000 0.978065 101.90 0.208270 11.897 0.208270 11.897 0.978065 101.89
8.71152500 0.978065 101.90 0.208270 11.897 0.208270 11.897 0.978065 101.89
8.71153000 0.978065 101.90 0.208271 11.897 0.208271 11.897 0.978065 101.89
8.71153500 0.978065 101.90 0.208272 11.897 0.208272 11.897 0.978065 101.89
8.71154000 0.978064 101.90 0.208272 11.897 0.208272 11.897 0.978065 101.89
8.71154500 0.978064 101.90 0.208273 11.897 0.208273 11.897 0.978064 101.89
8.71155000 0.978064 101.90 0.208273 11.897 0.208273 11.897 0.978064 101.89
8.71155500 0.978064 101.90 0.208274 11.896 0.208274 11.896 0.978064 101.89
8.71156000 0.978064 101.90 0.208274 11.896 0.208274 11.896 0.978064 101.89
8.71156500 0.978064 101.90 0.208275 11.896 0.208275 11.896 0.978064 101.89
8.71157000 0.978064 101.90 0.208275 11.896 0.208275 11.896 0.978064 101.89
8.71157500 0.978064 101.90 0.208276 11.896 0.208276 11.896 0.978064 101.89
8.71158000 0.978064 101.90 0.208276 11.896 0.208276 11.896 0.978064 101.89
8.71158500 0.978063 101.90 0.208277 11.896 0.208277 11.896 0.978064 101.89
8.71159000 0.978063 101.90 0.208277 11.896 0.208277 11.896 0.978063 101.89
8.71159500 0.978063 101.90 0.208278 11.896 0.208278 11.896 0.978063 101.89
8.71160000 0.978063 101.90 0.208279 11.896 0.208279 11.896 0.978063 101.89
8.71160500 0.978063 101.90 0.208279 11.896 0.208279 11.896 0.978063 101.89
8.71161000 0.978063 101.90 0.208280 11.896 0.208280 11.896 0.978063 101.89
8.71161500 0.978063 101.90 0.208280 11.896 0.208280 11.896 0.978063 101.89
8.71162000 0.978063 101.90 0.208281 11.896 0.208281 11.896 0.978063 101.89
8.71162500 0.978062 101.90 0.208281 11.895 0.208281 11.895 0.978063 101.89
8.71163000 0.978062 101.90 0.208282 11.895 0.208282 11.895 0.978062 101.89
8.71163500 0.978062 101.90 0.208282 11.895 0.208282 11.895 0.978062 101.89
8.71164000 0.978062 101.90 0.208283 11.895 0.208283 11.895 0.978062 101.89
8.71164500 0.978062 101.90 0.208283 11.895 0.208283 11.895 0.978062 101.89
8.71165000 0.978062 101.90 0.208284 11.895 0.208284 11.895 0.978062 101.89
8.71165500 0.978062 101.90 0.208285 11.895 0.208285 11.895 0.978062 101.89
8.71166000 0.978062 101.90 0.208285 11.895 0.208285 11.895 0.978062 101.89
8.71166500 0.978062 101.90 0.208286 11.895 0.208286 11.895 0.978062 101.89
8.71167000 0.978061 101.90 0.208286 11.895 0.208286 11.895 0.978062 101.89
8.71167500 0.978061 101.90 0.208287 11.895 0.208287 11.895 0.978061 101.89
8.71168000 0.978061 101.90 0.208287 11.895 0.208287 11.895 0.978061 101.89
8.71168500 0.978061 101.90 0.208288 11.895 0.208288 11.895 0.978061 101.89
8.71169000 0.978061 101.90 0.208288 11.895 0.208288 11.895 0.978061 101.89
8.71169500 0.978061 101.90 0.208289 11.894 0.208289 11.894 0.978061 101.89
8.71170000 0.978061 101.90 0.208289 11.894 0.208289 11.894 0.978061 101.89
8.71170500 0.978061 101.90 0.208290 11.894 0.208290 11.894 0.978061 101.89
8.71171000 0.978060 101.90 0.208291 11.894 0.208291 11.894 0.978061 101.89
8.71171500 0.978060 101.90 0.208291 11.894 0.208291 11.894 0.978060 101.89
8.71172000 0.978060 101.90 0.208292 11.894 0.208292 11.894 0.978060 101.89
8.71172500 0.978060 101.90 0.208292 11.894 0.208292 11.894 0.978060 101.89
8.71173000 0.978060 101.90 0.208293 11.894 0.208293 11.894 0.978060 101.89
8.71173500 0.978060 101.90 0.208293 11.894 0.208293 11.894 0.978060 101.89
8.71174000 0.978060 101.90 0.208294 11.894 0.208294 11.894 0.978060 101.89
8.71174500 0.978060 101.90 0.208295 11.894 0.208295 11.894 0.978060 101.89
8.71175000 0.978059 101.90 0.208295 11.894 0.208295 11.894 0.978060 101.89
8.71175500 0.978059 101.90 0.208296 11.894 0.208296 11.894 0.978059 101.89
8.71176000 0.978059 101.90 0.208296 11.894 0.208296 11.894 0.978059 101.89
8.71176500 0.978059 101.90 0.208297 11.893 0.208297 11.893 0.978059 101.88
8.71177000 0.978059 101.90 0.208297 11.893 0.208297 11.893 0.978059 101.88
8.71177500 0.978059 101.90 0.208298 11.893 0.208298 11.893 0.978059 101.88
8.71178000 0.978059 101.90 0.208298 11.893 0.208298 11.893 0.978059 101.88
8.71178500 0.978059 101.90 0.208299 11.893 0.208299 11.893 0.978059 101.88
8.71179000 0.978058 101.90 0.208300 11.893 0.208300 11.893 0.978059 101.88
8.71179500 0.978058 101.90 0.208300 11.893 0.208300 11.893 0.978058 101.88
8.71180000 0.978058 101.90 0.208301 11.893 0.208301 11.893 0.978058 101.88
8.71180500 0.978058 101.90 0.208301 11.893 0.208301 11.893 0.978058 101.88
8.71181000 0.978058 101.90 0.208302 11.893 0.208302 11.893 0.978058 101.88
8.71181500 0.978058 101.90 0.208302 11.893 0.208302 11.893 0.978058 101.88
8.71182000 0.978058 101.90 0.208303 11.893 0.208303 11.893 0.978058 101.88
8.71182500 0.978058 101.90 0.208304 11.893 0.208304 11.893 0.978058 101.88
8.71183000 0.978057 101.90 0.208304 11.893 0.208304 11.893 0.978058 101.88
8.71183500 0.978057 101.90 0.208305 11.892 0.208305 11.892 0.978057 101.88
8.71184000 0.978057 101.90 0.208305 11.892 0.208305 11.892 0.978057 101.88
8.71184500 0.978057 101.90 0.208306 11.892 0.208306 11.892 0.978057 101.88
8.71185000 0.978057 101.90 0.208306 11.892 0.208306 11.892 0.978057 101.88
8.71185500 0.978057 101.90 0.208307 11.892 0.208307 11.892 0.978057 101.88
8.71186000 0.978057 101.90 0.208308 11.892 0.208308 11.892 0.978057 101.88
8.71186500 0.978057 101.90 0.208308 11.892 0.208308 11.892 0.978057 101.88
8.71187000 0.978056 101.90 0.208309 11.892 0.208309 11.892 0.978057 101.88
8.71187500 0.978056 101.90 0.208309 11.892 0.208309 11.892 0.978056 101.88
8.71188000 0.978056 101.90 0.208310 11.892 0.208310 11.892 0.978056 101.88
8.71188500 0.978056 101.90 0.208311 11.892 0.208311 11.892 0.978056 101.88
8.71189000 0.978056 101.90 0.208311 11.892 0.208311 11.892 0.978056 101.88
8.71189500 0.978056 101.90 0.208312 11.892 0.208312 11.892 0.978056 101.88
8.71190000 0.978056 101.90 0.208312 11.892 0.208312 11.892 0.978056 101.88
8.71190500 0.978056 101.90 0.208313 11.891 0.208313 11.891 0.978056 101.88
8.71191000 0.978055 101.90 0.208313 11.891 0.208313 11.891 0.978056 101.88
8.71191500 0.978055 101.90 0.208314 11.891 0.208314 11.891 0.978055 101.88
8.71192000 0.978055 101.90 0.208315 11.891 0.208315 11.891 0.978055 101.88
8.71192500 0.978055 101.90 0.208315 11.891 0.208315 11.891 0.978055 101.88
8.71193000 0.978055 101.90 0.208316 11.891 0.208316 11.891 0.978055 101.88
8.71193500 0.978055 101.90 0.208316 11.891 0.208316 11.891 0.978055 101.88
8.71194000 0.978055 101.90 0.208317 11.891 0.208317 11.891 0.978055 101.88
8.71194500 0.978055 101.90 0.208318 11.891 0.208318 11.891 0.978055 101.88
8.71195000 0.978054 101.90 0.208318 11.891 0.208318 11.891 0.978055 101.88
8.71195500 0.978054 101.90 0.208319 11.891 0.208319 11.891 0.978054 101.88
8.71196000 0.978054 101.90 0.208319 11.891 0.208319 11.891 0.978054 101.88