! Sonnet Data File
! From: emgraph Version : 16.52
! From Project: transmon_brgOdd
! Data is De-embedded 
! Data File Written: 11/12/2017 17:05:33
!< HDATE 11/11/2017 22:57:51
!< MDATE 11/11/2017 22:57:51
!< PARAMS
!< Lj = 15.24
!< Gap = 6.0
!< Width = 10.0
!< Airgap = 6.0
!< Pwidth = 2000.0
!< Dist = 2000.0
!< END PARAMS
# GHZ S MA R 34.67000
8.78000000 0.998326 141.45 0.057774 51.450 0.057774 51.450 0.998326 141.45
!< P1 F=8.78 Eeff=(5.13743391 -5.7017e-5) Z0=(34.6430374 -9.7216e-5) R=0.0 C=0.0 
!< P2 F=8.78 Eeff=(5.13743391 -5.7017e-5) Z0=(34.6430374 -9.7216e-5) R=0.0 C=0.0 
8.78001000 0.998326 141.45 0.057775 51.450 0.057775 51.450 0.998326 141.45
8.78002000 0.998325 141.45 0.057777 51.450 0.057777 51.450 0.998325 141.45
8.78003000 0.998325 141.45 0.057779 51.449 0.057779 51.449 0.998325 141.45
8.78004000 0.998325 141.45 0.057781 51.449 0.057781 51.449 0.998325 141.45
8.78005000 0.998325 141.45 0.057782 51.449 0.057782 51.449 0.998325 141.45
8.78006000 0.998325 141.45 0.057784 51.449 0.057784 51.449 0.998325 141.45
8.78007000 0.998325 141.45 0.057786 51.449 0.057786 51.449 0.998325 141.45
8.78008000 0.998325 141.45 0.057788 51.449 0.057788 51.449 0.998325 141.45
8.78009000 0.998325 141.45 0.057789 51.449 0.057789 51.449 0.998325 141.45
8.78010000 0.998325 141.45 0.057791 51.448 0.057791 51.448 0.998325 141.45
8.78011000 0.998324 141.45 0.057793 51.448 0.057793 51.448 0.998324 141.45
8.78012000 0.998324 141.45 0.057795 51.448 0.057795 51.448 0.998324 141.45
8.78013000 0.998324 141.45 0.057797 51.448 0.057797 51.448 0.998324 141.45
8.78014000 0.998324 141.45 0.057798 51.448 0.057798 51.448 0.998324 141.45
8.78015000 0.998324 141.45 0.057800 51.448 0.057800 51.448 0.998324 141.45
8.78016000 0.998324 141.45 0.057802 51.448 0.057802 51.448 0.998324 141.45
8.78017000 0.998324 141.45 0.057804 51.447 0.057804 51.447 0.998324 141.45
8.78018000 0.998324 141.45 0.057806 51.447 0.057806 51.447 0.998324 141.45
8.78019000 0.998324 141.45 0.057807 51.447 0.057807 51.447 0.998324 141.45
8.78020000 0.998324 141.45 0.057809 51.447 0.057809 51.447 0.998323 141.45
8.78021000 0.998323 141.45 0.057811 51.447 0.057811 51.447 0.998323 141.45
8.78022000 0.998323 141.45 0.057813 51.447 0.057813 51.447 0.998323 141.45
8.78023000 0.998323 141.45 0.057815 51.446 0.057815 51.446 0.998323 141.45
8.78024000 0.998323 141.45 0.057816 51.446 0.057816 51.446 0.998323 141.45
8.78025000 0.998323 141.45 0.057818 51.446 0.057818 51.446 0.998323 141.44
8.78026000 0.998323 141.45 0.057820 51.446 0.057820 51.446 0.998323 141.44
8.78027000 0.998323 141.45 0.057822 51.446 0.057822 51.446 0.998323 141.44
8.78028000 0.998323 141.45 0.057824 51.446 0.057824 51.446 0.998323 141.44
8.78029000 0.998323 141.45 0.057826 51.446 0.057826 51.446 0.998323 141.44
8.78030000 0.998322 141.45 0.057827 51.445 0.057827 51.445 0.998322 141.44
8.78031000 0.998322 141.45 0.057829 51.445 0.057829 51.445 0.998322 141.44
8.78032000 0.998322 141.45 0.057831 51.445 0.057831 51.445 0.998322 141.44
8.78033000 0.998322 141.45 0.057833 51.445 0.057833 51.445 0.998322 141.44
8.78034000 0.998322 141.45 0.057835 51.445 0.057835 51.445 0.998322 141.44
8.78035000 0.998322 141.45 0.057837 51.445 0.057837 51.445 0.998322 141.44
8.78036000 0.998322 141.45 0.057838 51.445 0.057838 51.445 0.998322 141.44
8.78037000 0.998322 141.45 0.057840 51.444 0.057840 51.444 0.998322 141.44
8.78038000 0.998322 141.45 0.057842 51.444 0.057842 51.444 0.998321 141.44
8.78039000 0.998321 141.45 0.057844 51.444 0.057844 51.444 0.998321 141.44
8.78040000 0.998321 141.45 0.057846 51.444 0.057846 51.444 0.998321 141.44
8.78041000 0.998321 141.45 0.057848 51.444 0.057848 51.444 0.998321 141.44
8.78042000 0.998321 141.45 0.057850 51.444 0.057850 51.444 0.998321 141.44
8.78043000 0.998321 141.45 0.057851 51.443 0.057851 51.443 0.998321 141.44
8.78044000 0.998321 141.45 0.057853 51.443 0.057853 51.443 0.998321 141.44
8.78045000 0.998321 141.45 0.057855 51.443 0.057855 51.443 0.998321 141.44
8.78046000 0.998321 141.45 0.057857 51.443 0.057857 51.443 0.998321 141.44
8.78047000 0.998320 141.45 0.057859 51.443 0.057859 51.443 0.998320 141.44
8.78048000 0.998320 141.45 0.057861 51.443 0.057861 51.443 0.998320 141.44
8.78049000 0.998320 141.45 0.057863 51.443 0.057863 51.443 0.998320 141.44
8.78050000 0.998320 141.45 0.057865 51.442 0.057865 51.442 0.998320 141.44
8.78051000 0.998320 141.45 0.057866 51.442 0.057866 51.442 0.998320 141.44
8.78052000 0.998320 141.45 0.057868 51.442 0.057868 51.442 0.998320 141.44
8.78053000 0.998320 141.45 0.057870 51.442 0.057870 51.442 0.998320 141.44
8.78054000 0.998320 141.45 0.057872 51.442 0.057872 51.442 0.998320 141.44
8.78055000 0.998320 141.45 0.057874 51.442 0.057874 51.442 0.998320 141.44
8.78056000 0.998319 141.45 0.057876 51.442 0.057876 51.442 0.998319 141.44
8.78057000 0.998319 141.45 0.057878 51.441 0.057878 51.441 0.998319 141.44
8.78058000 0.998319 141.45 0.057880 51.441 0.057880 51.441 0.998319 141.44
8.78059000 0.998319 141.45 0.057882 51.441 0.057882 51.441 0.998319 141.44
8.78060000 0.998319 141.45 0.057884 51.441 0.057884 51.441 0.998319 141.44
8.78061000 0.998319 141.45 0.057886 51.441 0.057886 51.441 0.998319 141.44
8.78062000 0.998319 141.45 0.057887 51.441 0.057887 51.441 0.998319 141.44
8.78063000 0.998319 141.45 0.057889 51.440 0.057889 51.440 0.998319 141.44
8.78064000 0.998319 141.45 0.057891 51.440 0.057891 51.440 0.998319 141.44
8.78065000 0.998318 141.44 0.057893 51.440 0.057893 51.440 0.998318 141.44
8.78066000 0.998318 141.44 0.057895 51.440 0.057895 51.440 0.998318 141.44
8.78067000 0.998318 141.44 0.057897 51.440 0.057897 51.440 0.998318 141.44
8.78068000 0.998318 141.44 0.057899 51.440 0.057899 51.440 0.998318 141.44
8.78069000 0.998318 141.44 0.057901 51.439 0.057901 51.439 0.998318 141.44
8.78070000 0.998318 141.44 0.057903 51.439 0.057903 51.439 0.998318 141.44
8.78071000 0.998318 141.44 0.057905 51.439 0.057905 51.439 0.998318 141.44
8.78072000 0.998318 141.44 0.057907 51.439 0.057907 51.439 0.998318 141.44
8.78073000 0.998317 141.44 0.057909 51.439 0.057909 51.439 0.998317 141.44
8.78074000 0.998317 141.44 0.057911 51.439 0.057911 51.439 0.998317 141.44
8.78075000 0.998317 141.44 0.057913 51.439 0.057913 51.439 0.998317 141.44
8.78076000 0.998317 141.44 0.057915 51.438 0.057915 51.438 0.998317 141.44
8.78077000 0.998317 141.44 0.057917 51.438 0.057917 51.438 0.998317 141.44
8.78078000 0.998317 141.44 0.057919 51.438 0.057919 51.438 0.998317 141.44
8.78079000 0.998317 141.44 0.057921 51.438 0.057921 51.438 0.998317 141.44
8.78080000 0.998317 141.44 0.057923 51.438 0.057923 51.438 0.998317 141.44
8.78081000 0.998317 141.44 0.057925 51.438 0.057925 51.438 0.998317 141.44
8.78082000 0.998316 141.44 0.057927 51.437 0.057927 51.437 0.998316 141.44
8.78083000 0.998316 141.44 0.057929 51.437 0.057929 51.437 0.998316 141.44
8.78084000 0.998316 141.44 0.057931 51.437 0.057931 51.437 0.998316 141.44
8.78085000 0.998316 141.44 0.057933 51.437 0.057933 51.437 0.998316 141.44
8.78086000 0.998316 141.44 0.057935 51.437 0.057935 51.437 0.998316 141.44
8.78087000 0.998316 141.44 0.057937 51.437 0.057937 51.437 0.998316 141.44
8.78088000 0.998316 141.44 0.057939 51.436 0.057939 51.436 0.998316 141.44
8.78089000 0.998316 141.44 0.057941 51.436 0.057941 51.436 0.998316 141.44
8.78090000 0.998315 141.44 0.057943 51.436 0.057943 51.436 0.998315 141.44
8.78091000 0.998315 141.44 0.057945 51.436 0.057945 51.436 0.998315 141.43
8.78092000 0.998315 141.44 0.057947 51.436 0.057947 51.436 0.998315 141.43
8.78093000 0.998315 141.44 0.057949 51.436 0.057949 51.436 0.998315 141.43
8.78094000 0.998315 141.44 0.057951 51.436 0.057951 51.436 0.998315 141.43
8.78095000 0.998315 141.44 0.057953 51.435 0.057953 51.435 0.998315 141.43
8.78096000 0.998315 141.44 0.057955 51.435 0.057955 51.435 0.998315 141.43
8.78097000 0.998315 141.44 0.057957 51.435 0.057957 51.435 0.998315 141.43
8.78098000 0.998314 141.44 0.057959 51.435 0.057959 51.435 0.998314 141.43
8.78099000 0.998314 141.44 0.057961 51.435 0.057961 51.435 0.998314 141.43
8.78100000 0.998314 141.44 0.057963 51.435 0.057963 51.435 0.998314 141.43
8.78101000 0.998314 141.44 0.057965 51.434 0.057965 51.434 0.998314 141.43
8.78102000 0.998314 141.44 0.057967 51.434 0.057967 51.434 0.998314 141.43
8.78103000 0.998314 141.44 0.057969 51.434 0.057969 51.434 0.998314 141.43
8.78104000 0.998314 141.44 0.057971 51.434 0.057971 51.434 0.998314 141.43
8.78105000 0.998314 141.44 0.057973 51.434 0.057973 51.434 0.998314 141.43
8.78106000 0.998313 141.44 0.057975 51.434 0.057975 51.434 0.998313 141.43
8.78107000 0.998313 141.44 0.057977 51.433 0.057977 51.433 0.998313 141.43
8.78108000 0.998313 141.44 0.057979 51.433 0.057979 51.433 0.998313 141.43
8.78109000 0.998313 141.44 0.057981 51.433 0.057981 51.433 0.998313 141.43
8.78110000 0.998313 141.44 0.057983 51.433 0.057983 51.433 0.998313 141.43
8.78111000 0.998313 141.44 0.057986 51.433 0.057986 51.433 0.998313 141.43
8.78112000 0.998313 141.44 0.057988 51.433 0.057988 51.433 0.998313 141.43
8.78113000 0.998313 141.44 0.057990 51.432 0.057990 51.432 0.998313 141.43
8.78114000 0.998312 141.44 0.057992 51.432 0.057992 51.432 0.998312 141.43
8.78115000 0.998312 141.44 0.057994 51.432 0.057994 51.432 0.998312 141.43
8.78116000 0.998312 141.44 0.057996 51.432 0.057996 51.432 0.998312 141.43
8.78117000 0.998312 141.44 0.057998 51.432 0.057998 51.432 0.998312 141.43
8.78118000 0.998312 141.44 0.058000 51.432 0.058000 51.432 0.998312 141.43
8.78119000 0.998312 141.44 0.058002 51.431 0.058002 51.431 0.998312 141.43
8.78120000 0.998312 141.44 0.058004 51.431 0.058004 51.431 0.998312 141.43
8.78121000 0.998312 141.44 0.058007 51.431 0.058007 51.431 0.998312 141.43
8.78122000 0.998311 141.44 0.058009 51.431 0.058009 51.431 0.998311 141.43
8.78123000 0.998311 141.44 0.058011 51.431 0.058011 51.431 0.998311 141.43
8.78124000 0.998311 141.44 0.058013 51.431 0.058013 51.431 0.998311 141.43
8.78125000 0.998311 141.44 0.058015 51.430 0.058015 51.430 0.998311 141.43
8.78126000 0.998311 141.44 0.058017 51.430 0.058017 51.430 0.998311 141.43
8.78127000 0.998311 141.44 0.058019 51.430 0.058019 51.430 0.998311 141.43
8.78128000 0.998311 141.44 0.058021 51.430 0.058021 51.430 0.998311 141.43
8.78129000 0.998311 141.43 0.058024 51.430 0.058024 51.430 0.998311 141.43
8.78130000 0.998310 141.43 0.058026 51.430 0.058026 51.430 0.998310 141.43
8.78131000 0.998310 141.43 0.058028 51.429 0.058028 51.429 0.998310 141.43
8.78132000 0.998310 141.43 0.058030 51.429 0.058030 51.429 0.998310 141.43
8.78133000 0.998310 141.43 0.058032 51.429 0.058032 51.429 0.998310 141.43
8.78134000 0.998310 141.43 0.058034 51.429 0.058034 51.429 0.998310 141.43
8.78135000 0.998310 141.43 0.058036 51.429 0.058036 51.429 0.998310 141.43
8.78136000 0.998310 141.43 0.058039 51.429 0.058039 51.429 0.998310 141.43
8.78137000 0.998309 141.43 0.058041 51.428 0.058041 51.428 0.998309 141.43
8.78138000 0.998309 141.43 0.058043 51.428 0.058043 51.428 0.998309 141.43
8.78139000 0.998309 141.43 0.058045 51.428 0.058045 51.428 0.998309 141.43
8.78140000 0.998309 141.43 0.058047 51.428 0.058047 51.428 0.998309 141.43
8.78141000 0.998309 141.43 0.058050 51.428 0.058050 51.428 0.998309 141.43
8.78142000 0.998309 141.43 0.058052 51.428 0.058052 51.428 0.998309 141.43
8.78143000 0.998309 141.43 0.058054 51.427 0.058054 51.427 0.998309 141.43
8.78144000 0.998309 141.43 0.058056 51.427 0.058056 51.427 0.998309 141.43
8.78145000 0.998308 141.43 0.058058 51.427 0.058058 51.427 0.998308 141.43
8.78146000 0.998308 141.43 0.058060 51.427 0.058060 51.427 0.998308 141.43
8.78147000 0.998308 141.43 0.058063 51.427 0.058063 51.427 0.998308 141.43
8.78148000 0.998308 141.43 0.058065 51.426 0.058065 51.426 0.998308 141.43
8.78149000 0.998308 141.43 0.058067 51.426 0.058067 51.426 0.998308 141.43
8.78150000 0.998308 141.43 0.058069 51.426 0.058069 51.426 0.998308 141.43
8.78151000 0.998308 141.43 0.058072 51.426 0.058072 51.426 0.998308 141.43
8.78152000 0.998307 141.43 0.058074 51.426 0.058074 51.426 0.998307 141.43
8.78153000 0.998307 141.43 0.058076 51.426 0.058076 51.426 0.998307 141.42
8.78154000 0.998307 141.43 0.058078 51.425 0.058078 51.425 0.998307 141.42
8.78155000 0.998307 141.43 0.058080 51.425 0.058080 51.425 0.998307 141.42
8.78156000 0.998307 141.43 0.058083 51.425 0.058083 51.425 0.998307 141.42
8.78157000 0.998307 141.43 0.058085 51.425 0.058085 51.425 0.998307 141.42
8.78158000 0.998307 141.43 0.058087 51.425 0.058087 51.425 0.998307 141.42
8.78159000 0.998307 141.43 0.058089 51.425 0.058089 51.425 0.998306 141.42
8.78160000 0.998306 141.43 0.058092 51.424 0.058092 51.424 0.998306 141.42
8.78161000 0.998306 141.43 0.058094 51.424 0.058094 51.424 0.998306 141.42
8.78162000 0.998306 141.43 0.058096 51.424 0.058096 51.424 0.998306 141.42
8.78163000 0.998306 141.43 0.058098 51.424 0.058098 51.424 0.998306 141.42
8.78164000 0.998306 141.43 0.058101 51.424 0.058101 51.424 0.998306 141.42
8.78165000 0.998306 141.43 0.058103 51.424 0.058103 51.424 0.998306 141.42
8.78166000 0.998306 141.43 0.058105 51.423 0.058105 51.423 0.998306 141.42
8.78167000 0.998305 141.43 0.058108 51.423 0.058108 51.423 0.998305 141.42
8.78168000 0.998305 141.43 0.058110 51.423 0.058110 51.423 0.998305 141.42
8.78169000 0.998305 141.43 0.058112 51.423 0.058112 51.423 0.998305 141.42
8.78170000 0.998305 141.43 0.058114 51.423 0.058114 51.423 0.998305 141.42
8.78171000 0.998305 141.43 0.058117 51.422 0.058117 51.422 0.998305 141.42
8.78172000 0.998305 141.43 0.058119 51.422 0.058119 51.422 0.998305 141.42
8.78173000 0.998305 141.43 0.058121 51.422 0.058121 51.422 0.998305 141.42
8.78174000 0.998304 141.43 0.058124 51.422 0.058124 51.422 0.998304 141.42
8.78175000 0.998304 141.43 0.058126 51.422 0.058126 51.422 0.998304 141.42
8.78176000 0.998304 141.43 0.058128 51.422 0.058128 51.422 0.998304 141.42
8.78177000 0.998304 141.43 0.058131 51.421 0.058131 51.421 0.998304 141.42
8.78178000 0.998304 141.43 0.058133 51.421 0.058133 51.421 0.998304 141.42
8.78179000 0.998304 141.43 0.058135 51.421 0.058135 51.421 0.998304 141.42
8.78180000 0.998304 141.43 0.058138 51.421 0.058138 51.421 0.998304 141.42
8.78181000 0.998303 141.43 0.058140 51.421 0.058140 51.421 0.998303 141.42
8.78182000 0.998303 141.43 0.058142 51.420 0.058142 51.420 0.998303 141.42
8.78183000 0.998303 141.43 0.058145 51.420 0.058145 51.420 0.998303 141.42
8.78184000 0.998303 141.43 0.058147 51.420 0.058147 51.420 0.998303 141.42
8.78185000 0.998303 141.43 0.058149 51.420 0.058149 51.420 0.998303 141.42
8.78186000 0.998303 141.43 0.058152 51.420 0.058152 51.420 0.998303 141.42
8.78187000 0.998303 141.43 0.058154 51.420 0.058154 51.420 0.998303 141.42
8.78188000 0.998302 141.42 0.058156 51.419 0.058156 51.419 0.998302 141.42
8.78189000 0.998302 141.42 0.058159 51.419 0.058159 51.419 0.998302 141.42
8.78190000 0.998302 141.42 0.058161 51.419 0.058161 51.419 0.998302 141.42
8.78191000 0.998302 141.42 0.058164 51.419 0.058164 51.419 0.998302 141.42
8.78192000 0.998302 141.42 0.058166 51.419 0.058166 51.419 0.998302 141.42
8.78193000 0.998302 141.42 0.058168 51.418 0.058168 51.418 0.998302 141.42
8.78194000 0.998302 141.42 0.058171 51.418 0.058171 51.418 0.998302 141.42
8.78195000 0.998301 141.42 0.058173 51.418 0.058173 51.418 0.998301 141.42
8.78196000 0.998301 141.42 0.058175 51.418 0.058175 51.418 0.998301 141.42
8.78197000 0.998301 141.42 0.058178 51.418 0.058178 51.418 0.998301 141.42
8.78198000 0.998301 141.42 0.058180 51.418 0.058180 51.418 0.998301 141.42
8.78199000 0.998301 141.42 0.058183 51.417 0.058183 51.417 0.998301 141.42
8.78200000 0.998301 141.42 0.058185 51.417 0.058185 51.417 0.998301 141.42
8.78201000 0.998301 141.42 0.058188 51.417 0.058188 51.417 0.998301 141.42
8.78202000 0.998300 141.42 0.058190 51.417 0.058190 51.417 0.998300 141.42
8.78203000 0.998300 141.42 0.058192 51.417 0.058192 51.417 0.998300 141.42
8.78204000 0.998300 141.42 0.058195 51.416 0.058195 51.416 0.998300 141.42
8.78205000 0.998300 141.42 0.058197 51.416 0.058197 51.416 0.998300 141.42
8.78206000 0.998300 141.42 0.058200 51.416 0.058200 51.416 0.998300 141.42
8.78207000 0.998300 141.42 0.058202 51.416 0.058202 51.416 0.998300 141.42
8.78208000 0.998299 141.42 0.058205 51.416 0.058205 51.416 0.998299 141.42
8.78209000 0.998299 141.42 0.058207 51.415 0.058207 51.415 0.998299 141.42
8.78210000 0.998299 141.42 0.058209 51.415 0.058209 51.415 0.998299 141.41
8.78211000 0.998299 141.42 0.058212 51.415 0.058212 51.415 0.998299 141.41
8.78212000 0.998299 141.42 0.058214 51.415 0.058214 51.415 0.998299 141.41
8.78213000 0.998299 141.42 0.058217 51.415 0.058217 51.415 0.998299 141.41
8.78214000 0.998299 141.42 0.058219 51.415 0.058219 51.415 0.998299 141.41
8.78215000 0.998298 141.42 0.058222 51.414 0.058222 51.414 0.998298 141.41
8.78216000 0.998298 141.42 0.058224 51.414 0.058224 51.414 0.998298 141.41
8.78217000 0.998298 141.42 0.058227 51.414 0.058227 51.414 0.998298 141.41
8.78218000 0.998298 141.42 0.058229 51.414 0.058229 51.414 0.998298 141.41
8.78219000 0.998298 141.42 0.058232 51.414 0.058232 51.414 0.998298 141.41
8.78220000 0.998298 141.42 0.058234 51.413 0.058234 51.413 0.998298 141.41
8.78221000 0.998298 141.42 0.058237 51.413 0.058237 51.413 0.998297 141.41
8.78222000 0.998297 141.42 0.058239 51.413 0.058239 51.413 0.998297 141.41
8.78223000 0.998297 141.42 0.058242 51.413 0.058242 51.413 0.998297 141.41
8.78224000 0.998297 141.42 0.058244 51.413 0.058244 51.413 0.998297 141.41
8.78225000 0.998297 141.42 0.058247 51.412 0.058247 51.412 0.998297 141.41
8.78226000 0.998297 141.42 0.058249 51.412 0.058249 51.412 0.998297 141.41
8.78227000 0.998297 141.42 0.058252 51.412 0.058252 51.412 0.998297 141.41
8.78228000 0.998296 141.42 0.058254 51.412 0.058254 51.412 0.998296 141.41
8.78229000 0.998296 141.42 0.058257 51.412 0.058257 51.412 0.998296 141.41
8.78230000 0.998296 141.42 0.058260 51.411 0.058260 51.411 0.998296 141.41
8.78231000 0.998296 141.42 0.058262 51.411 0.058262 51.411 0.998296 141.41
8.78232000 0.998296 141.42 0.058265 51.411 0.058265 51.411 0.998296 141.41
8.78233000 0.998296 141.42 0.058267 51.411 0.058267 51.411 0.998296 141.41
8.78234000 0.998295 141.42 0.058270 51.411 0.058270 51.411 0.998295 141.41
8.78235000 0.998295 141.42 0.058272 51.411 0.058272 51.411 0.998295 141.41
8.78236000 0.998295 141.42 0.058275 51.410 0.058275 51.410 0.998295 141.41
8.78237000 0.998295 141.42 0.058278 51.410 0.058278 51.410 0.998295 141.41
8.78238000 0.998295 141.42 0.058280 51.410 0.058280 51.410 0.998295 141.41
8.78239000 0.998295 141.42 0.058283 51.410 0.058283 51.410 0.998295 141.41
8.78240000 0.998295 141.42 0.058285 51.410 0.058285 51.410 0.998295 141.41
8.78241000 0.998294 141.42 0.058288 51.409 0.058288 51.409 0.998294 141.41
8.78242000 0.998294 141.42 0.058290 51.409 0.058290 51.409 0.998294 141.41
8.78243000 0.998294 141.41 0.058293 51.409 0.058293 51.409 0.998294 141.41
8.78244000 0.998294 141.41 0.058296 51.409 0.058296 51.409 0.998294 141.41
8.78245000 0.998294 141.41 0.058298 51.409 0.058298 51.409 0.998294 141.41
8.78246000 0.998294 141.41 0.058301 51.408 0.058301 51.408 0.998294 141.41
8.78247000 0.998293 141.41 0.058304 51.408 0.058304 51.408 0.998293 141.41
8.78248000 0.998293 141.41 0.058306 51.408 0.058306 51.408 0.998293 141.41
8.78249000 0.998293 141.41 0.058309 51.408 0.058309 51.408 0.998293 141.41
8.78250000 0.998293 141.41 0.058311 51.408 0.058311 51.408 0.998293 141.41
8.78251000 0.998293 141.41 0.058314 51.407 0.058314 51.407 0.998293 141.41
8.78252000 0.998293 141.41 0.058317 51.407 0.058317 51.407 0.998293 141.41
8.78253000 0.998292 141.41 0.058319 51.407 0.058319 51.407 0.998292 141.41
8.78254000 0.998292 141.41 0.058322 51.407 0.058322 51.407 0.998292 141.41
8.78255000 0.998292 141.41 0.058325 51.407 0.058325 51.407 0.998292 141.41
8.78256000 0.998292 141.41 0.058327 51.406 0.058327 51.406 0.998292 141.41
8.78257000 0.998292 141.41 0.058330 51.406 0.058330 51.406 0.998292 141.41
8.78258000 0.998292 141.41 0.058333 51.406 0.058333 51.406 0.998292 141.41
8.78259000 0.998291 141.41 0.058335 51.406 0.058335 51.406 0.998291 141.41
8.78260000 0.998291 141.41 0.058338 51.406 0.058338 51.406 0.998291 141.41
8.78261000 0.998291 141.41 0.058341 51.405 0.058341 51.405 0.998291 141.41
8.78262000 0.998291 141.41 0.058344 51.405 0.058344 51.405 0.998291 141.41
8.78263000 0.998291 141.41 0.058346 51.405 0.058346 51.405 0.998291 141.40
8.78264000 0.998291 141.41 0.058349 51.405 0.058349 51.405 0.998291 141.40
8.78265000 0.998290 141.41 0.058352 51.405 0.058352 51.405 0.998290 141.40
8.78266000 0.998290 141.41 0.058354 51.404 0.058354 51.404 0.998290 141.40
8.78267000 0.998290 141.41 0.058357 51.404 0.058357 51.404 0.998290 141.40
8.78268000 0.998290 141.41 0.058360 51.404 0.058360 51.404 0.998290 141.40
8.78269000 0.998290 141.41 0.058363 51.404 0.058363 51.404 0.998290 141.40
8.78270000 0.998290 141.41 0.058365 51.403 0.058365 51.403 0.998290 141.40
8.78271000 0.998289 141.41 0.058368 51.403 0.058368 51.403 0.998289 141.40
8.78272000 0.998289 141.41 0.058371 51.403 0.058371 51.403 0.998289 141.40
8.78273000 0.998289 141.41 0.058374 51.403 0.058374 51.403 0.998289 141.40
8.78274000 0.998289 141.41 0.058376 51.403 0.058376 51.403 0.998289 141.40
8.78275000 0.998289 141.41 0.058379 51.402 0.058379 51.402 0.998289 141.40
8.78276000 0.998289 141.41 0.058382 51.402 0.058382 51.402 0.998289 141.40
8.78277000 0.998288 141.41 0.058385 51.402 0.058385 51.402 0.998288 141.40
8.78278000 0.998288 141.41 0.058387 51.402 0.058387 51.402 0.998288 141.40
8.78279000 0.998288 141.41 0.058390 51.402 0.058390 51.402 0.998288 141.40
8.78280000 0.998288 141.41 0.058393 51.401 0.058393 51.401 0.998288 141.40
8.78281000 0.998288 141.41 0.058396 51.401 0.058396 51.401 0.998288 141.40
8.78282000 0.998288 141.41 0.058399 51.401 0.058399 51.401 0.998288 141.40
8.78283000 0.998287 141.41 0.058401 51.401 0.058401 51.401 0.998287 141.40
8.78284000 0.998287 141.41 0.058404 51.401 0.058404 51.401 0.998287 141.40
8.78285000 0.998287 141.41 0.058407 51.400 0.058407 51.400 0.998287 141.40
8.78286000 0.998287 141.41 0.058410 51.400 0.058410 51.400 0.998287 141.40
8.78287000 0.998287 141.41 0.058413 51.400 0.058413 51.400 0.998287 141.40
8.78288000 0.998287 141.41 0.058416 51.400 0.058416 51.400 0.998287 141.40
8.78289000 0.998286 141.41 0.058418 51.400 0.058418 51.400 0.998286 141.40
8.78290000 0.998286 141.41 0.058421 51.399 0.058421 51.399 0.998286 141.40
8.78291000 0.998286 141.41 0.058424 51.399 0.058424 51.399 0.998286 141.40
8.78292000 0.998286 141.41 0.058427 51.399 0.058427 51.399 0.998286 141.40
8.78293000 0.998286 141.41 0.058430 51.399 0.058430 51.399 0.998286 141.40
8.78294000 0.998285 141.40 0.058433 51.398 0.058433 51.398 0.998285 141.40
8.78295000 0.998285 141.40 0.058436 51.398 0.058436 51.398 0.998285 141.40
8.78296000 0.998285 141.40 0.058439 51.398 0.058439 51.398 0.998285 141.40
8.78297000 0.998285 141.40 0.058441 51.398 0.058441 51.398 0.998285 141.40
8.78298000 0.998285 141.40 0.058444 51.398 0.058444 51.398 0.998285 141.40
8.78299000 0.998285 141.40 0.058447 51.397 0.058447 51.397 0.998285 141.40
8.78300000 0.998284 141.40 0.058450 51.397 0.058450 51.397 0.998284 141.40
8.78301000 0.998284 141.40 0.058453 51.397 0.058453 51.397 0.998284 141.40
8.78302000 0.998284 141.40 0.058456 51.397 0.058456 51.397 0.998284 141.40
8.78303000 0.998284 141.40 0.058459 51.397 0.058459 51.397 0.998284 141.40
8.78304000 0.998284 141.40 0.058462 51.396 0.058462 51.396 0.998284 141.40
8.78305000 0.998283 141.40 0.058465 51.396 0.058465 51.396 0.998283 141.40
8.78306000 0.998283 141.40 0.058468 51.396 0.058468 51.396 0.998283 141.40
8.78307000 0.998283 141.40 0.058471 51.396 0.058471 51.396 0.998283 141.40
8.78308000 0.998283 141.40 0.058474 51.395 0.058474 51.395 0.998283 141.40
8.78309000 0.998283 141.40 0.058476 51.395 0.058476 51.395 0.998283 141.40
8.78310000 0.998283 141.40 0.058479 51.395 0.058479 51.395 0.998283 141.40
8.78311000 0.998282 141.40 0.058482 51.395 0.058482 51.395 0.998282 141.40
8.78312000 0.998282 141.40 0.058485 51.395 0.058485 51.395 0.998282 141.39
8.78313000 0.998282 141.40 0.058488 51.394 0.058488 51.394 0.998282 141.39
8.78314000 0.998282 141.40 0.058491 51.394 0.058491 51.394 0.998282 141.39
8.78315000 0.998282 141.40 0.058494 51.394 0.058494 51.394 0.998282 141.39
8.78316000 0.998281 141.40 0.058497 51.394 0.058497 51.394 0.998281 141.39
8.78317000 0.998281 141.40 0.058500 51.393 0.058500 51.393 0.998281 141.39
8.78318000 0.998281 141.40 0.058503 51.393 0.058503 51.393 0.998281 141.39
8.78319000 0.998281 141.40 0.058506 51.393 0.058506 51.393 0.998281 141.39
8.78320000 0.998281 141.40 0.058509 51.393 0.058509 51.393 0.998281 141.39
8.78321000 0.998281 141.40 0.058512 51.393 0.058512 51.393 0.998281 141.39
8.78322000 0.998280 141.40 0.058515 51.392 0.058515 51.392 0.998280 141.39
8.78323000 0.998280 141.40 0.058518 51.392 0.058518 51.392 0.998280 141.39
8.78324000 0.998280 141.40 0.058522 51.392 0.058522 51.392 0.998280 141.39
8.78325000 0.998280 141.40 0.058525 51.392 0.058525 51.392 0.998280 141.39
8.78326000 0.998280 141.40 0.058528 51.391 0.058528 51.391 0.998280 141.39
8.78327000 0.998279 141.40 0.058531 51.391 0.058531 51.391 0.998279 141.39
8.78328000 0.998279 141.40 0.058534 51.391 0.058534 51.391 0.998279 141.39
8.78329000 0.998279 141.40 0.058537 51.391 0.058537 51.391 0.998279 141.39
8.78330000 0.998279 141.40 0.058540 51.391 0.058540 51.391 0.998279 141.39
8.78331000 0.998279 141.40 0.058543 51.390 0.058543 51.390 0.998279 141.39
8.78332000 0.998278 141.40 0.058546 51.390 0.058546 51.390 0.998278 141.39
8.78333000 0.998278 141.40 0.058549 51.390 0.058549 51.390 0.998278 141.39
8.78334000 0.998278 141.40 0.058552 51.390 0.058552 51.390 0.998278 141.39
8.78335000 0.998278 141.40 0.058555 51.389 0.058555 51.389 0.998278 141.39
8.78336000 0.998278 141.40 0.058559 51.389 0.058559 51.389 0.998278 141.39
8.78337000 0.998278 141.40 0.058562 51.389 0.058562 51.389 0.998277 141.39
8.78338000 0.998277 141.40 0.058565 51.389 0.058565 51.389 0.998277 141.39
8.78339000 0.998277 141.40 0.058568 51.388 0.058568 51.388 0.998277 141.39
8.78340000 0.998277 141.40 0.058571 51.388 0.058571 51.388 0.998277 141.39
8.78341000 0.998277 141.39 0.058574 51.388 0.058574 51.388 0.998277 141.39
8.78342000 0.998277 141.39 0.058577 51.388 0.058577 51.388 0.998277 141.39
8.78343000 0.998276 141.39 0.058581 51.388 0.058581 51.388 0.998276 141.39
8.78344000 0.998276 141.39 0.058584 51.387 0.058584 51.387 0.998276 141.39
8.78345000 0.998276 141.39 0.058587 51.387 0.058587 51.387 0.998276 141.39
8.78346000 0.998276 141.39 0.058590 51.387 0.058590 51.387 0.998276 141.39
8.78347000 0.998276 141.39 0.058593 51.387 0.058593 51.387 0.998276 141.39
8.78348000 0.998275 141.39 0.058596 51.386 0.058596 51.386 0.998275 141.39
8.78349000 0.998275 141.39 0.058600 51.386 0.058600 51.386 0.998275 141.39
8.78350000 0.998275 141.39 0.058603 51.386 0.058603 51.386 0.998275 141.39
8.78351000 0.998275 141.39 0.058606 51.386 0.058606 51.386 0.998275 141.39
8.78352000 0.998275 141.39 0.058609 51.385 0.058609 51.385 0.998275 141.39
8.78353000 0.998274 141.39 0.058613 51.385 0.058613 51.385 0.998274 141.39
8.78354000 0.998274 141.39 0.058616 51.385 0.058616 51.385 0.998274 141.39
8.78355000 0.998274 141.39 0.058619 51.385 0.058619 51.385 0.998274 141.39
8.78356000 0.998274 141.39 0.058622 51.384 0.058622 51.384 0.998274 141.39
8.78357000 0.998274 141.39 0.058625 51.384 0.058625 51.384 0.998274 141.39
8.78358000 0.998273 141.39 0.058629 51.384 0.058629 51.384 0.998273 141.38
8.78359000 0.998273 141.39 0.058632 51.384 0.058632 51.384 0.998273 141.38
8.78360000 0.998273 141.39 0.058635 51.384 0.058635 51.384 0.998273 141.38
8.78361000 0.998273 141.39 0.058639 51.383 0.058639 51.383 0.998273 141.38
8.78362000 0.998273 141.39 0.058642 51.383 0.058642 51.383 0.998272 141.38
8.78363000 0.998272 141.39 0.058645 51.383 0.058645 51.383 0.998272 141.38
8.78364000 0.998272 141.39 0.058648 51.383 0.058648 51.383 0.998272 141.38
8.78365000 0.998272 141.39 0.058652 51.382 0.058652 51.382 0.998272 141.38
8.78366000 0.998272 141.39 0.058655 51.382 0.058655 51.382 0.998272 141.38
8.78367000 0.998271 141.39 0.058658 51.382 0.058658 51.382 0.998271 141.38
8.78368000 0.998271 141.39 0.058662 51.382 0.058662 51.382 0.998271 141.38
8.78369000 0.998271 141.39 0.058665 51.381 0.058665 51.381 0.998271 141.38
8.78370000 0.998271 141.39 0.058668 51.381 0.058668 51.381 0.998271 141.38
8.78371000 0.998271 141.39 0.058672 51.381 0.058672 51.381 0.998271 141.38
8.78372000 0.998270 141.39 0.058675 51.381 0.058675 51.381 0.998270 141.38
8.78373000 0.998270 141.39 0.058679 51.380 0.058679 51.380 0.998270 141.38
8.78374000 0.998270 141.39 0.058682 51.380 0.058682 51.380 0.998270 141.38
8.78375000 0.998270 141.39 0.058685 51.380 0.058685 51.380 0.998270 141.38
8.78376000 0.998270 141.39 0.058689 51.380 0.058689 51.380 0.998270 141.38
8.78377000 0.998269 141.39 0.058692 51.379 0.058692 51.379 0.998269 141.38
8.78378000 0.998269 141.39 0.058695 51.379 0.058695 51.379 0.998269 141.38
8.78379000 0.998269 141.39 0.058699 51.379 0.058699 51.379 0.998269 141.38
8.78380000 0.998269 141.39 0.058702 51.379 0.058702 51.379 0.998269 141.38
8.78381000 0.998269 141.39 0.058706 51.378 0.058706 51.378 0.998269 141.38
8.78382000 0.998268 141.39 0.058709 51.378 0.058709 51.378 0.998268 141.38
8.78383000 0.998268 141.39 0.058713 51.378 0.058713 51.378 0.998268 141.38
8.78384000 0.998268 141.39 0.058716 51.378 0.058716 51.378 0.998268 141.38
8.78385000 0.998268 141.38 0.058719 51.377 0.058719 51.377 0.998268 141.38
8.78386000 0.998267 141.38 0.058723 51.377 0.058723 51.377 0.998267 141.38
8.78387000 0.998267 141.38 0.058726 51.377 0.058726 51.377 0.998267 141.38
8.78388000 0.998267 141.38 0.058730 51.377 0.058730 51.377 0.998267 141.38
8.78389000 0.998267 141.38 0.058733 51.376 0.058733 51.376 0.998267 141.38
8.78390000 0.998267 141.38 0.058737 51.376 0.058737 51.376 0.998267 141.38
8.78391000 0.998266 141.38 0.058740 51.376 0.058740 51.376 0.998266 141.38
8.78392000 0.998266 141.38 0.058744 51.376 0.058744 51.376 0.998266 141.38