! Sonnet Data File
! From: emgraph Version : 16.52
! From Emgraph Data: 171113transmon_brg_singlesided
! Data File Written: 11/13/2017 17:04:45
!< HDATE 11/13/2017 16:41:44
!< MDATE 11/13/2017 16:41:44
!< PARAMS
!< Lj = 15.24
!< Gap = 6.0
!< Width = 10.0
!< Pwidth = 2000.0
!< hDis = 198.0
!< END PARAMS
# GHZ S MA R 34.67000
8.78000000 0.938810 99.122 0.344410 -3.136 0.344410 -3.136 0.938789 74.609
!< P1 F=8.78 Eeff=(5.13743391 -5.7017e-5) Z0=(34.6430374 -9.7216e-5) R=0.0 C=0.0 
!< P2 F=8.78 Eeff=(5.13743391 -5.7017e-5) Z0=(34.6430374 -9.7216e-5) R=0.0 C=0.0 
8.78002000 0.938807 99.122 0.344420 -3.137 0.344420 -3.137 0.938785 74.607
8.78004000 0.938803 99.121 0.344430 -3.138 0.344430 -3.138 0.938781 74.605
8.78006000 0.938799 99.121 0.344440 -3.139 0.344440 -3.139 0.938778 74.604
8.78008000 0.938796 99.120 0.344449 -3.140 0.344449 -3.140 0.938774 74.602
8.78010000 0.938792 99.120 0.344459 -3.141 0.344459 -3.141 0.938770 74.600
8.78012000 0.938789 99.120 0.344469 -3.142 0.344469 -3.142 0.938767 74.598
8.78014000 0.938785 99.119 0.344479 -3.143 0.344479 -3.143 0.938763 74.597
8.78016000 0.938781 99.119 0.344489 -3.144 0.344489 -3.144 0.938759 74.595
8.78018000 0.938778 99.119 0.344499 -3.145 0.344499 -3.145 0.938755 74.593
8.78020000 0.938774 99.118 0.344509 -3.146 0.344509 -3.146 0.938752 74.592
8.78022000 0.938770 99.118 0.344519 -3.147 0.344519 -3.147 0.938748 74.590
8.78024000 0.938767 99.118 0.344529 -3.148 0.344529 -3.148 0.938744 74.588
8.78026000 0.938763 99.117 0.344539 -3.149 0.344539 -3.149 0.938741 74.586
8.78028000 0.938759 99.117 0.344549 -3.150 0.344549 -3.150 0.938737 74.585
8.78030000 0.938755 99.116 0.344559 -3.151 0.344559 -3.151 0.938733 74.583
8.78032000 0.938752 99.116 0.344569 -3.152 0.344569 -3.152 0.938729 74.581
8.78034000 0.938748 99.116 0.344579 -3.153 0.344579 -3.153 0.938726 74.579
8.78036000 0.938744 99.115 0.344590 -3.154 0.344590 -3.154 0.938722 74.578
8.78038000 0.938740 99.115 0.344600 -3.155 0.344600 -3.155 0.938718 74.576
8.78040000 0.938737 99.115 0.344610 -3.156 0.344610 -3.156 0.938714 74.574
8.78042000 0.938733 99.114 0.344620 -3.158 0.344620 -3.158 0.938710 74.572
8.78044000 0.938729 99.114 0.344630 -3.159 0.344630 -3.159 0.938707 74.571
8.78046000 0.938725 99.114 0.344641 -3.160 0.344641 -3.160 0.938703 74.569
8.78048000 0.938722 99.113 0.344651 -3.161 0.344651 -3.161 0.938699 74.567
8.78050000 0.938718 99.113 0.344661 -3.162 0.344661 -3.162 0.938695 74.565
8.78052000 0.938714 99.112 0.344672 -3.163 0.344672 -3.163 0.938691 74.564
8.78054000 0.938710 99.112 0.344682 -3.164 0.344682 -3.164 0.938687 74.562
8.78056000 0.938706 99.112 0.344692 -3.165 0.344692 -3.165 0.938683 74.560
8.78058000 0.938703 99.111 0.344703 -3.166 0.344703 -3.166 0.938680 74.558
8.78060000 0.938699 99.111 0.344713 -3.167 0.344713 -3.167 0.938676 74.556
8.78062000 0.938695 99.111 0.344724 -3.168 0.344724 -3.168 0.938672 74.555
8.78064000 0.938691 99.110 0.344734 -3.169 0.344734 -3.169 0.938668 74.553
8.78066000 0.938687 99.110 0.344745 -3.170 0.344745 -3.170 0.938664 74.551
8.78068000 0.938683 99.109 0.344755 -3.172 0.344755 -3.172 0.938660 74.549
8.78070000 0.938679 99.109 0.344766 -3.173 0.344766 -3.173 0.938656 74.547
8.78072000 0.938675 99.109 0.344776 -3.174 0.344776 -3.174 0.938652 74.546
8.78074000 0.938672 99.108 0.344787 -3.175 0.344787 -3.175 0.938648 74.544
8.78076000 0.938668 99.108 0.344798 -3.176 0.344798 -3.176 0.938644 74.542
8.78078000 0.938664 99.108 0.344808 -3.177 0.344808 -3.177 0.938640 74.540
8.78080000 0.938660 99.107 0.344819 -3.178 0.344819 -3.178 0.938636 74.538
8.78082000 0.938656 99.107 0.344830 -3.179 0.344830 -3.179 0.938632 74.537
8.78084000 0.938652 99.106 0.344840 -3.180 0.344840 -3.180 0.938628 74.535
8.78086000 0.938648 99.106 0.344851 -3.181 0.344851 -3.181 0.938624 74.533
8.78088000 0.938644 99.106 0.344862 -3.183 0.344862 -3.183 0.938620 74.531
8.78090000 0.938640 99.105 0.344873 -3.184 0.344873 -3.184 0.938616 74.529
8.78092000 0.938636 99.105 0.344884 -3.185 0.344884 -3.185 0.938612 74.527
8.78094000 0.938632 99.105 0.344894 -3.186 0.344894 -3.186 0.938608 74.525
8.78096000 0.938628 99.104 0.344905 -3.187 0.344905 -3.187 0.938604 74.524
8.78098000 0.938624 99.104 0.344916 -3.188 0.344916 -3.188 0.938600 74.522
8.78100000 0.938620 99.103 0.344927 -3.189 0.344927 -3.189 0.938596 74.520
8.78102000 0.938616 99.103 0.344938 -3.190 0.344938 -3.190 0.938592 74.518
8.78104000 0.938612 99.103 0.344949 -3.192 0.344949 -3.192 0.938588 74.516
8.78106000 0.938608 99.102 0.344960 -3.193 0.344960 -3.193 0.938584 74.514
8.78108000 0.938604 99.102 0.344971 -3.194 0.344971 -3.194 0.938580 74.512
8.78110000 0.938600 99.101 0.344982 -3.195 0.344982 -3.195 0.938576 74.511
8.78112000 0.938596 99.101 0.344993 -3.196 0.344993 -3.196 0.938571 74.509
8.78114000 0.938592 99.101 0.345004 -3.197 0.345004 -3.197 0.938567 74.507
8.78116000 0.938587 99.100 0.345015 -3.198 0.345015 -3.198 0.938563 74.505
8.78118000 0.938583 99.100 0.345027 -3.200 0.345027 -3.200 0.938559 74.503
8.78120000 0.938579 99.100 0.345038 -3.201 0.345038 -3.201 0.938555 74.501
8.78122000 0.938575 99.099 0.345049 -3.202 0.345049 -3.202 0.938551 74.499
8.78124000 0.938571 99.099 0.345060 -3.203 0.345060 -3.203 0.938546 74.497
8.78126000 0.938567 99.098 0.345071 -3.204 0.345071 -3.204 0.938542 74.495
8.78128000 0.938563 99.098 0.345083 -3.205 0.345083 -3.205 0.938538 74.493
8.78130000 0.938558 99.098 0.345094 -3.207 0.345094 -3.207 0.938534 74.491
8.78132000 0.938554 99.097 0.345105 -3.208 0.345105 -3.208 0.938530 74.489
8.78134000 0.938550 99.097 0.345117 -3.209 0.345117 -3.209 0.938525 74.488
8.78136000 0.938546 99.096 0.345128 -3.210 0.345128 -3.210 0.938521 74.486
8.78138000 0.938542 99.096 0.345139 -3.211 0.345139 -3.211 0.938517 74.484
8.78140000 0.938537 99.096 0.345151 -3.212 0.345151 -3.212 0.938513 74.482
8.78142000 0.938533 99.095 0.345162 -3.214 0.345162 -3.214 0.938508 74.480
8.78144000 0.938529 99.095 0.345174 -3.215 0.345174 -3.215 0.938504 74.478
8.78146000 0.938525 99.094 0.345185 -3.216 0.345185 -3.216 0.938500 74.476
8.78148000 0.938520 99.094 0.345197 -3.217 0.345197 -3.217 0.938495 74.474
8.78150000 0.938516 99.094 0.345209 -3.218 0.345209 -3.218 0.938491 74.472
8.78152000 0.938512 99.093 0.345220 -3.219 0.345220 -3.219 0.938487 74.470
8.78154000 0.938508 99.093 0.345232 -3.221 0.345232 -3.221 0.938482 74.468
8.78156000 0.938503 99.092 0.345243 -3.222 0.345243 -3.222 0.938478 74.466
8.78158000 0.938499 99.092 0.345255 -3.223 0.345255 -3.223 0.938474 74.464
8.78160000 0.938495 99.092 0.345267 -3.224 0.345267 -3.224 0.938469 74.462
8.78162000 0.938490 99.091 0.345279 -3.225 0.345279 -3.225 0.938465 74.460
8.78164000 0.938486 99.091 0.345290 -3.227 0.345290 -3.227 0.938460 74.458
8.78166000 0.938482 99.090 0.345302 -3.228 0.345302 -3.228 0.938456 74.456
8.78168000 0.938477 99.090 0.345314 -3.229 0.345314 -3.229 0.938452 74.454
8.78170000 0.938473 99.090 0.345326 -3.230 0.345326 -3.230 0.938447 74.452
8.78172000 0.938468 99.089 0.345338 -3.232 0.345338 -3.232 0.938443 74.450
8.78174000 0.938464 99.089 0.345350 -3.233 0.345350 -3.233 0.938438 74.448
8.78176000 0.938460 99.088 0.345362 -3.234 0.345362 -3.234 0.938434 74.446
8.78178000 0.938455 99.088 0.345374 -3.235 0.345374 -3.235 0.938429 74.444
8.78180000 0.938451 99.088 0.345386 -3.236 0.345386 -3.236 0.938425 74.442
8.78182000 0.938446 99.087 0.345398 -3.238 0.345398 -3.238 0.938420 74.440
8.78184000 0.938442 99.087 0.345410 -3.239 0.345410 -3.239 0.938416 74.438
8.78186000 0.938437 99.086 0.345422 -3.240 0.345422 -3.240 0.938411 74.436
8.78188000 0.938433 99.086 0.345434 -3.241 0.345434 -3.241 0.938407 74.434
8.78190000 0.938428 99.086 0.345446 -3.243 0.345446 -3.243 0.938402 74.432
8.78192000 0.938424 99.085 0.345458 -3.244 0.345458 -3.244 0.938398 74.429
8.78194000 0.938419 99.085 0.345471 -3.245 0.345471 -3.245 0.938393 74.427
8.78196000 0.938415 99.084 0.345483 -3.246 0.345483 -3.246 0.938389 74.425
8.78198000 0.938410 99.084 0.345495 -3.248 0.345495 -3.248 0.938384 74.423
8.78200000 0.938406 99.084 0.345507 -3.249 0.345507 -3.249 0.938379 74.421
8.78202000 0.938401 99.083 0.345520 -3.250 0.345520 -3.250 0.938375 74.419
8.78204000 0.938397 99.083 0.345532 -3.251 0.345532 -3.251 0.938370 74.417
8.78206000 0.938392 99.082 0.345545 -3.253 0.345545 -3.253 0.938365 74.415
8.78208000 0.938388 99.082 0.345557 -3.254 0.345557 -3.254 0.938361 74.413
8.78210000 0.938383 99.082 0.345569 -3.255 0.345569 -3.255 0.938356 74.411
8.78212000 0.938378 99.081 0.345582 -3.256 0.345582 -3.256 0.938351 74.408
8.78214000 0.938374 99.081 0.345594 -3.258 0.345594 -3.258 0.938347 74.406
8.78216000 0.938369 99.080 0.345607 -3.259 0.345607 -3.259 0.938342 74.404
8.78218000 0.938364 99.080 0.345620 -3.260 0.345620 -3.260 0.938337 74.402
8.78220000 0.938360 99.079 0.345632 -3.262 0.345632 -3.262 0.938333 74.400
8.78222000 0.938355 99.079 0.345645 -3.263 0.345645 -3.263 0.938328 74.398
8.78224000 0.938350 99.079 0.345658 -3.264 0.345658 -3.264 0.938323 74.396
8.78226000 0.938346 99.078 0.345670 -3.265 0.345670 -3.265 0.938318 74.394
8.78228000 0.938341 99.078 0.345683 -3.267 0.345683 -3.267 0.938314 74.391
8.78230000 0.938336 99.077 0.345696 -3.268 0.345696 -3.268 0.938309 74.389
8.78232000 0.938332 99.077 0.345709 -3.269 0.345709 -3.269 0.938304 74.387
8.78234000 0.938327 99.077 0.345721 -3.271 0.345721 -3.271 0.938299 74.385
8.78236000 0.938322 99.076 0.345734 -3.272 0.345734 -3.272 0.938294 74.383
8.78238000 0.938317 99.076 0.345747 -3.273 0.345747 -3.273 0.938290 74.380
8.78240000 0.938313 99.075 0.345760 -3.274 0.345760 -3.274 0.938285 74.378
8.78242000 0.938308 99.075 0.345773 -3.276 0.345773 -3.276 0.938280 74.376
8.78244000 0.938303 99.074 0.345786 -3.277 0.345786 -3.277 0.938275 74.374
8.78246000 0.938298 99.074 0.345799 -3.278 0.345799 -3.278 0.938270 74.372
8.78248000 0.938293 99.074 0.345812 -3.280 0.345812 -3.280 0.938265 74.369
8.78250000 0.938288 99.073 0.345825 -3.281 0.345825 -3.281 0.938260 74.367
8.78252000 0.938284 99.073 0.345839 -3.282 0.345839 -3.282 0.938255 74.365
8.78254000 0.938279 99.072 0.345852 -3.284 0.345852 -3.284 0.938251 74.363
8.78256000 0.938274 99.072 0.345865 -3.285 0.345865 -3.285 0.938246 74.361
8.78258000 0.938269 99.071 0.345878 -3.286 0.345878 -3.286 0.938241 74.358
8.78260000 0.938264 99.071 0.345891 -3.288 0.345891 -3.288 0.938236 74.356
8.78262000 0.938259 99.071 0.345905 -3.289 0.345905 -3.289 0.938231 74.354
8.78264000 0.938254 99.070 0.345918 -3.290 0.345918 -3.290 0.938226 74.352
8.78266000 0.938249 99.070 0.345931 -3.292 0.345931 -3.292 0.938221 74.349
8.78268000 0.938244 99.069 0.345945 -3.293 0.345945 -3.293 0.938216 74.347
8.78270000 0.938239 99.069 0.345958 -3.295 0.345958 -3.295 0.938211 74.345
8.78272000 0.938234 99.068 0.345972 -3.296 0.345972 -3.296 0.938205 74.343
8.78274000 0.938229 99.068 0.345985 -3.297 0.345985 -3.297 0.938200 74.340
8.78276000 0.938224 99.068 0.345999 -3.299 0.345999 -3.299 0.938195 74.338
8.78278000 0.938219 99.067 0.346013 -3.300 0.346013 -3.300 0.938190 74.336
8.78280000 0.938214 99.067 0.346026 -3.301 0.346026 -3.301 0.938185 74.333
8.78282000 0.938209 99.066 0.346040 -3.303 0.346040 -3.303 0.938180 74.331
8.78284000 0.938204 99.066 0.346054 -3.304 0.346054 -3.304 0.938175 74.329
8.78286000 0.938199 99.065 0.346067 -3.305 0.346067 -3.305 0.938170 74.326
8.78288000 0.938194 99.065 0.346081 -3.307 0.346081 -3.307 0.938165 74.324
8.78290000 0.938189 99.064 0.346095 -3.308 0.346095 -3.308 0.938159 74.322
8.78292000 0.938184 99.064 0.346109 -3.310 0.346109 -3.310 0.938154 74.319
8.78294000 0.938178 99.064 0.346123 -3.311 0.346123 -3.311 0.938149 74.317
8.78296000 0.938173 99.063 0.346137 -3.312 0.346137 -3.312 0.938144 74.315
8.78298000 0.938168 99.063 0.346150 -3.314 0.346150 -3.314 0.938139 74.312
8.78300000 0.938163 99.062 0.346164 -3.315 0.346164 -3.315 0.938133 74.310
8.78302000 0.938158 99.062 0.346178 -3.317 0.346178 -3.317 0.938128 74.308
8.78304000 0.938153 99.061 0.346193 -3.318 0.346193 -3.318 0.938123 74.305
8.78306000 0.938147 99.061 0.346207 -3.319 0.346207 -3.319 0.938117 74.303
8.78308000 0.938142 99.061 0.346221 -3.321 0.346221 -3.321 0.938112 74.301
8.78310000 0.938137 99.060 0.346235 -3.322 0.346235 -3.322 0.938107 74.298
8.78312000 0.938132 99.060 0.346249 -3.324 0.346249 -3.324 0.938101 74.296
8.78314000 0.938126 99.059 0.346263 -3.325 0.346263 -3.325 0.938096 74.293
8.78316000 0.938121 99.059 0.346278 -3.327 0.346278 -3.327 0.938091 74.291
8.78318000 0.938116 99.058 0.346292 -3.328 0.346292 -3.328 0.938085 74.289
8.78320000 0.938110 99.058 0.346307 -3.330 0.346307 -3.330 0.938080 74.286
8.78322000 0.938105 99.057 0.346321 -3.331 0.346321 -3.331 0.938075 74.284
8.78324000 0.938100 99.057 0.346335 -3.332 0.346335 -3.332 0.938069 74.281
8.78326000 0.938094 99.056 0.346350 -3.334 0.346350 -3.334 0.938064 74.279
8.78328000 0.938089 99.056 0.346364 -3.335 0.346364 -3.335 0.938058 74.276
8.78330000 0.938084 99.056 0.346379 -3.337 0.346379 -3.337 0.938053 74.274
8.78332000 0.938078 99.055 0.346394 -3.338 0.346394 -3.338 0.938047 74.271
8.78334000 0.938073 99.055 0.346408 -3.340 0.346408 -3.340 0.938042 74.269
8.78336000 0.938067 99.054 0.346423 -3.341 0.346423 -3.341 0.938036 74.267
8.78338000 0.938062 99.054 0.346438 -3.343 0.346438 -3.343 0.938031 74.264
8.78340000 0.938056 99.053 0.346452 -3.344 0.346452 -3.344 0.938025 74.262
8.78342000 0.938051 99.053 0.346467 -3.346 0.346467 -3.346 0.938020 74.259
8.78344000 0.938045 99.052 0.346482 -3.347 0.346482 -3.347 0.938014 74.257
8.78346000 0.938040 99.052 0.346497 -3.349 0.346497 -3.349 0.938008 74.254
8.78348000 0.938034 99.051 0.346512 -3.350 0.346512 -3.350 0.938003 74.252
8.78350000 0.938029 99.051 0.346527 -3.352 0.346527 -3.352 0.937997 74.249
8.78352000 0.938023 99.051 0.346542 -3.353 0.346542 -3.353 0.937992 74.247
8.78354000 0.938018 99.050 0.346557 -3.355 0.346557 -3.355 0.937986 74.244
8.78356000 0.938012 99.050 0.346572 -3.356 0.346572 -3.356 0.937980 74.242
8.78358000 0.938006 99.049 0.346587 -3.358 0.346587 -3.358 0.937974 74.239
8.78360000 0.938001 99.049 0.346602 -3.359 0.346602 -3.359 0.937969 74.236
8.78362000 0.937995 99.048 0.346618 -3.361 0.346618 -3.361 0.937963 74.234
8.78364000 0.937989 99.048 0.346633 -3.362 0.346633 -3.362 0.937957 74.231
8.78366000 0.937984 99.047 0.346648 -3.364 0.346648 -3.364 0.937952 74.229
8.78368000 0.937978 99.047 0.346664 -3.365 0.346664 -3.365 0.937946 74.226
8.78370000 0.937972 99.046 0.346679 -3.367 0.346679 -3.367 0.937940 74.224
8.78372000 0.937967 99.046 0.346694 -3.368 0.346694 -3.368 0.937934 74.221
8.78374000 0.937961 99.045 0.346710 -3.370 0.346710 -3.370 0.937928 74.218
8.78376000 0.937955 99.045 0.346726 -3.371 0.346726 -3.371 0.937922 74.216
8.78378000 0.937949 99.044 0.346741 -3.373 0.346741 -3.373 0.937917 74.213
8.78380000 0.937944 99.044 0.346757 -3.374 0.346757 -3.374 0.937911 74.211
8.78382000 0.937938 99.043 0.346772 -3.376 0.346772 -3.376 0.937905 74.208
8.78384000 0.937932 99.043 0.346788 -3.378 0.346788 -3.378 0.937899 74.205
8.78386000 0.937926 99.043 0.346804 -3.379 0.346804 -3.379 0.937893 74.203
8.78388000 0.937920 99.042 0.346820 -3.381 0.346820 -3.381 0.937887 74.200
8.78390000 0.937914 99.042 0.346836 -3.382 0.346836 -3.382 0.937881 74.197
8.78392000 0.937908 99.041 0.346851 -3.384 0.346851 -3.384 0.937875 74.195
8.78394000 0.937902 99.041 0.346867 -3.385 0.346867 -3.385 0.937869 74.192
8.78396000 0.937897 99.040 0.346883 -3.387 0.346883 -3.387 0.937863 74.189
8.78398000 0.937891 99.040 0.346899 -3.389 0.346899 -3.389 0.937857 74.187
8.78400000 0.937885 99.039 0.346915 -3.390 0.346915 -3.390 0.937851 74.184
8.78402000 0.937879 99.039 0.346932 -3.392 0.346932 -3.392 0.937845 74.181
8.78404000 0.937873 99.038 0.346948 -3.393 0.346948 -3.393 0.937839 74.179
8.78406000 0.937867 99.038 0.346964 -3.395 0.346964 -3.395 0.937833 74.176
8.78408000 0.937861 99.037 0.346980 -3.397 0.346980 -3.397 0.937827 74.173
8.78410000 0.937855 99.037 0.346997 -3.398 0.346997 -3.398 0.937820 74.170
8.78412000 0.937848 99.036 0.347013 -3.400 0.347013 -3.400 0.937814 74.168
8.78414000 0.937842 99.036 0.347029 -3.401 0.347029 -3.401 0.937808 74.165
8.78416000 0.937836 99.035 0.347046 -3.403 0.347046 -3.403 0.937802 74.162
8.78418000 0.937830 99.035 0.347062 -3.405 0.347062 -3.405 0.937796 74.159
8.78420000 0.937824 99.034 0.347079 -3.406 0.347079 -3.406 0.937789 74.157
8.78422000 0.937818 99.034 0.347095 -3.408 0.347095 -3.408 0.937783 74.154
8.78424000 0.937812 99.033 0.347112 -3.410 0.347112 -3.410 0.937777 74.151
8.78426000 0.937805 99.033 0.347129 -3.411 0.347129 -3.411 0.937771 74.148
8.78428000 0.937799 99.032 0.347145 -3.413 0.347145 -3.413 0.937764 74.145
8.78430000 0.937793 99.032 0.347162 -3.415 0.347162 -3.415 0.937758 74.143
8.78432000 0.937787 99.031 0.347179 -3.416 0.347179 -3.416 0.937752 74.140
8.78434000 0.937780 99.031 0.347196 -3.418 0.347196 -3.418 0.937745 74.137
8.78436000 0.937774 99.030 0.347213 -3.420 0.347213 -3.420 0.937739 74.134
8.78438000 0.937768 99.030 0.347230 -3.421 0.347230 -3.421 0.937732 74.131
8.78440000 0.937762 99.029 0.347247 -3.423 0.347247 -3.423 0.937726 74.129
8.78442000 0.937755 99.029 0.347264 -3.425 0.347264 -3.425 0.937720 74.126
8.78444000 0.937749 99.028 0.347281 -3.426 0.347281 -3.426 0.937713 74.123
8.78446000 0.937742 99.028 0.347298 -3.428 0.347298 -3.428 0.937707 74.120
8.78448000 0.937736 99.027 0.347316 -3.430 0.347316 -3.430 0.937700 74.117
8.78450000 0.937730 99.027 0.347333 -3.431 0.347333 -3.431 0.937694 74.114
8.78452000 0.937723 99.026 0.347350 -3.433 0.347350 -3.433 0.937687 74.111
8.78454000 0.937717 99.026 0.347368 -3.435 0.347368 -3.435 0.937680 74.108
8.78456000 0.937710 99.025 0.347385 -3.437 0.347385 -3.437 0.937674 74.105
8.78458000 0.937704 99.025 0.347403 -3.438 0.347403 -3.438 0.937667 74.103
8.78460000 0.937697 99.024 0.347420 -3.440 0.347420 -3.440 0.937661 74.100
8.78462000 0.937691 99.024 0.347438 -3.442 0.347438 -3.442 0.937654 74.097
8.78464000 0.937684 99.023 0.347456 -3.444 0.347456 -3.444 0.937647 74.094
8.78466000 0.937677 99.023 0.347473 -3.445 0.347473 -3.445 0.937641 74.091
8.78468000 0.937671 99.022 0.347491 -3.447 0.347491 -3.447 0.937634 74.088
8.78470000 0.937664 99.022 0.347509 -3.449 0.347509 -3.449 0.937627 74.085
8.78472000 0.937657 99.021 0.347527 -3.451 0.347527 -3.451 0.937620 74.082
8.78474000 0.937651 99.021 0.347545 -3.452 0.347545 -3.452 0.937614 74.079
8.78476000 0.937644 99.020 0.347563 -3.454 0.347563 -3.454 0.937607 74.076
8.78478000 0.937637 99.020 0.347581 -3.456 0.347581 -3.456 0.937600 74.073
8.78480000 0.937631 99.019 0.347599 -3.458 0.347599 -3.458 0.937593 74.070
8.78482000 0.937624 99.019 0.347617 -3.459 0.347617 -3.459 0.937586 74.067
8.78484000 0.937617 99.018 0.347635 -3.461 0.347635 -3.461 0.937579 74.064
8.78486000 0.937610 99.017 0.347654 -3.463 0.347654 -3.463 0.937573 74.061
8.78488000 0.937603 99.017 0.347672 -3.465 0.347672 -3.465 0.937566 74.058
8.78490000 0.937597 99.016 0.347690 -3.467 0.347690 -3.467 0.937559 74.055
8.78492000 0.937590 99.016 0.347709 -3.468 0.347709 -3.468 0.937552 74.051
8.78494000 0.937583 99.015 0.347727 -3.470 0.347727 -3.470 0.937545 74.048
8.78496000 0.937576 99.015 0.347746 -3.472 0.347746 -3.472 0.937538 74.045
8.78498000 0.937569 99.014 0.347765 -3.474 0.347765 -3.474 0.937531 74.042
8.78500000 0.937562 99.014 0.347783 -3.476 0.347783 -3.476 0.937524 74.039
8.78502000 0.937555 99.013 0.347802 -3.478 0.347802 -3.478 0.937516 74.036
8.78504000 0.937548 99.013 0.347821 -3.479 0.347821 -3.479 0.937509 74.033
8.78506000 0.937541 99.012 0.347840 -3.481 0.347840 -3.481 0.937502 74.030
8.78508000 0.937534 99.012 0.347859 -3.483 0.347859 -3.483 0.937495 74.027
8.78510000 0.937527 99.011 0.347878 -3.485 0.347878 -3.485 0.937488 74.023
8.78512000 0.937520 99.011 0.347897 -3.487 0.347897 -3.487 0.937481 74.020
8.78514000 0.937513 99.010 0.347916 -3.489 0.347916 -3.489 0.937473 74.017
8.78516000 0.937506 99.009 0.347935 -3.491 0.347935 -3.491 0.937466 74.014
8.78518000 0.937498 99.009 0.347954 -3.492 0.347954 -3.492 0.937459 74.011
8.78520000 0.937491 99.008 0.347973 -3.494 0.347973 -3.494 0.937452 74.007
8.78522000 0.937484 99.008 0.347993 -3.496 0.347993 -3.496 0.937444 74.004
8.78524000 0.937477 99.007 0.348012 -3.498 0.348012 -3.498 0.937437 74.001
8.78526000 0.937470 99.007 0.348032 -3.500 0.348032 -3.500 0.937430 73.998
8.78528000 0.937462 99.006 0.348051 -3.502 0.348051 -3.502 0.937422 73.995
8.78530000 0.937455 99.006 0.348071 -3.504 0.348071 -3.504 0.937415 73.991
8.78532000 0.937448 99.005 0.348090 -3.506 0.348090 -3.506 0.937407 73.988
8.78534000 0.937440 99.005 0.348110 -3.508 0.348110 -3.508 0.937400 73.985
8.78536000 0.937433 99.004 0.348130 -3.510 0.348130 -3.510 0.937392 73.981
8.78538000 0.937426 99.003 0.348150 -3.512 0.348150 -3.512 0.937385 73.978
8.78540000 0.937418 99.003 0.348170 -3.513 0.348170 -3.513 0.937377 73.975
8.78542000 0.937411 99.002 0.348190 -3.515 0.348190 -3.515 0.937370 73.972
8.78544000 0.937403 99.002 0.348210 -3.517 0.348210 -3.517 0.937362 73.968
8.78546000 0.937396 99.001 0.348230 -3.519 0.348230 -3.519 0.937354 73.965
8.78548000 0.937388 99.001 0.348250 -3.521 0.348250 -3.521 0.937347 73.961
8.78550000 0.937381 99.000 0.348270 -3.523 0.348270 -3.523 0.937339 73.958
8.78552000 0.937373 98.999 0.348291 -3.525 0.348291 -3.525 0.937331 73.955
8.78554000 0.937365 98.999 0.348311 -3.527 0.348311 -3.527 0.937324 73.951
8.78556000 0.937358 98.998 0.348331 -3.529 0.348331 -3.529 0.937316 73.948
8.78558000 0.937350 98.998 0.348352 -3.531 0.348352 -3.531 0.937308 73.945
8.78560000 0.937342 98.997 0.348372 -3.533 0.348372 -3.533 0.937300 73.941
8.78562000 0.937335 98.997 0.348393 -3.535 0.348393 -3.535 0.937293 73.938
8.78564000 0.937327 98.996 0.348414 -3.537 0.348414 -3.537 0.937285 73.934
8.78566000 0.937319 98.995 0.348435 -3.539 0.348435 -3.539 0.937277 73.931
8.78568000 0.937312 98.995 0.348455 -3.541 0.348455 -3.541 0.937269 73.927
8.78570000 0.937304 98.994 0.348476 -3.543 0.348476 -3.543 0.937261 73.924
8.78572000 0.937296 98.994 0.348497 -3.545 0.348497 -3.545 0.937253 73.920
8.78574000 0.937288 98.993 0.348518 -3.547 0.348518 -3.547 0.937245 73.917
8.78576000 0.937280 98.993 0.348540 -3.550 0.348540 -3.550 0.937237 73.913
8.78578000 0.937272 98.992 0.348561 -3.552 0.348561 -3.552 0.937229 73.910
8.78580000 0.937264 98.991 0.348582 -3.554 0.348582 -3.554 0.937221 73.906
8.78582000 0.937256 98.991 0.348603 -3.556 0.348603 -3.556 0.937213 73.903
8.78584000 0.937248 98.990 0.348625 -3.558 0.348625 -3.558 0.937205 73.899
8.78586000 0.937240 98.990 0.348646 -3.560 0.348646 -3.560 0.937196 73.896
8.78588000 0.937232 98.989 0.348668 -3.562 0.348668 -3.562 0.937188 73.892
8.78590000 0.937224 98.988 0.348690 -3.564 0.348690 -3.564 0.937180 73.889
8.78592000 0.937216 98.988 0.348711 -3.566 0.348711 -3.566 0.937172 73.885
8.78594000 0.937208 98.987 0.348733 -3.568 0.348733 -3.568 0.937163 73.881
8.78596000 0.937200 98.987 0.348755 -3.570 0.348755 -3.570 0.937155 73.878
8.78598000 0.937191 98.986 0.348777 -3.573 0.348777 -3.573 0.937147 73.874
8.78600000 0.937183 98.985 0.348799 -3.575 0.348799 -3.575 0.937138 73.870
8.78602000 0.937175 98.985 0.348821 -3.577 0.348821 -3.577 0.937130 73.867
8.78604000 0.937167 98.984 0.348843 -3.579 0.348843 -3.579 0.937122 73.863
8.78606000 0.937158 98.984 0.348865 -3.581 0.348865 -3.581 0.937113 73.859
8.78608000 0.937150 98.983 0.348888 -3.583 0.348888 -3.583 0.937105 73.856
8.78610000 0.937142 98.982 0.348910 -3.585 0.348910 -3.585 0.937096 73.852
8.78612000 0.937133 98.982 0.348933 -3.588 0.348933 -3.588 0.937088 73.848
8.78614000 0.937125 98.981 0.348955 -3.590 0.348955 -3.590 0.937079 73.845
8.78616000 0.937116 98.981 0.348978 -3.592 0.348978 -3.592 0.937070 73.841
8.78618000 0.937108 98.980 0.349000 -3.594 0.349000 -3.594 0.937062 73.837
8.78620000 0.937099 98.979 0.349023 -3.596 0.349023 -3.596 0.937053 73.833
8.78622000 0.937091 98.979 0.349046 -3.599 0.349046 -3.599 0.937044 73.830
8.78624000 0.937082 98.978 0.349069 -3.601 0.349069 -3.601 0.937036 73.826
8.78626000 0.937074 98.978 0.349092 -3.603 0.349092 -3.603 0.937027 73.822
8.78628000 0.937065 98.977 0.349115 -3.605 0.349115 -3.605 0.937018 73.818
8.78630000 0.937056 98.976 0.349138 -3.608 0.349138 -3.608 0.937009 73.814
8.78632000 0.937048 98.976 0.349162 -3.610 0.349162 -3.610 0.937000 73.810
8.78634000 0.937039 98.975 0.349185 -3.612 0.349185 -3.612 0.936992 73.807
8.78636000 0.937030 98.974 0.349208 -3.614 0.349208 -3.614 0.936983 73.803
8.78638000 0.937021 98.974 0.349232 -3.617 0.349232 -3.617 0.936974 73.799
8.78640000 0.937012 98.973 0.349256 -3.619 0.349256 -3.619 0.936965 73.795
8.78642000 0.937004 98.973 0.349279 -3.621 0.349279 -3.621 0.936956 73.791
8.78644000 0.936995 98.972 0.349303 -3.623 0.349303 -3.623 0.936947 73.787
8.78646000 0.936986 98.971 0.349327 -3.626 0.349327 -3.626 0.936937 73.783
8.78648000 0.936977 98.971 0.349351 -3.628 0.349351 -3.628 0.936928 73.779
8.78650000 0.936968 98.970 0.349375 -3.630 0.349375 -3.630 0.936919 73.775
8.78652000 0.936959 98.969 0.349399 -3.633 0.349399 -3.633 0.936910 73.771
8.78654000 0.936950 98.969 0.349423 -3.635 0.349423 -3.635 0.936901 73.767
8.78656000 0.936941 98.968 0.349448 -3.637 0.349448 -3.637 0.936891 73.763
8.78658000 0.936931 98.967 0.349472 -3.640 0.349472 -3.640 0.936882 73.759
8.78660000 0.936922 98.967 0.349496 -3.642 0.349496 -3.642 0.936873 73.755
8.78662000 0.936913 98.966 0.349521 -3.644 0.349521 -3.644 0.936863 73.751
8.78664000 0.936904 98.966 0.349546 -3.647 0.349546 -3.647 0.936854 73.747
8.78666000 0.936895 98.965 0.349570 -3.649 0.349570 -3.649 0.936845 73.743
8.78668000 0.936885 98.964 0.349595 -3.652 0.349595 -3.652 0.936835 73.739
8.78670000 0.936876 98.964 0.349620 -3.654 0.349620 -3.654 0.936826 73.735
8.78672000 0.936867 98.963 0.349645 -3.656 0.349645 -3.656 0.936816 73.731
8.78674000 0.936857 98.962 0.349670 -3.659 0.349670 -3.659 0.936806 73.726
8.78676000 0.936848 98.962 0.349695 -3.661 0.349695 -3.661 0.936797 73.722
8.78678000 0.936838 98.961 0.349721 -3.664 0.349721 -3.664 0.936787 73.718
8.78680000 0.936829 98.960 0.349746 -3.666 0.349746 -3.666 0.936778 73.714
8.78682000 0.936819 98.960 0.349772 -3.669 0.349772 -3.669 0.936768 73.710
8.78684000 0.936810 98.959 0.349797 -3.671 0.349797 -3.671 0.936758 73.705
8.78686000 0.936800 98.958 0.349823 -3.673 0.349823 -3.673 0.936748 73.701
8.78688000 0.936790 98.958 0.349849 -3.676 0.349849 -3.676 0.936738 73.697
8.78690000 0.936781 98.957 0.349874 -3.678 0.349874 -3.678 0.936728 73.693
8.78692000 0.936771 98.956 0.349900 -3.681 0.349900 -3.681 0.936719 73.688
8.78694000 0.936761 98.956 0.349927 -3.683 0.349927 -3.683 0.936709 73.684
8.78696000 0.936751 98.955 0.349953 -3.686 0.349953 -3.686 0.936699 73.680
8.78698000 0.936741 98.954 0.349979 -3.688 0.349979 -3.688 0.936689 73.675
8.78700000 0.936732 98.954 0.350005 -3.691 0.350005 -3.691 0.936678 73.671
8.78702000 0.936722 98.953 0.350032 -3.694 0.350032 -3.694 0.936668 73.667
8.78704000 0.936712 98.952 0.350058 -3.696 0.350058 -3.696 0.936658 73.662
8.78706000 0.936702 98.951 0.350085 -3.699 0.350085 -3.699 0.936648 73.658
8.78708000 0.936692 98.951 0.350112 -3.701 0.350112 -3.701 0.936638 73.654
8.78710000 0.936681 98.950 0.350139 -3.704 0.350139 -3.704 0.936627 73.649
8.78712000 0.936671 98.949 0.350166 -3.706 0.350166 -3.706 0.936617 73.645
8.78714000 0.936661 98.949 0.350193 -3.709 0.350193 -3.709 0.936607 73.640
8.78716000 0.936651 98.948 0.350220 -3.712 0.350220 -3.712 0.936596 73.636
8.78718000 0.936641 98.947 0.350247 -3.714 0.350247 -3.714 0.936586 73.631
8.78720000 0.936630 98.947 0.350274 -3.717 0.350274 -3.717 0.936575 73.627
8.78722000 0.936620 98.946 0.350302 -3.719 0.350302 -3.719 0.936565 73.622
8.78724000 0.936610 98.945 0.350330 -3.722 0.350330 -3.722 0.936554 73.618
8.78726000 0.936599 98.944 0.350357 -3.725 0.350357 -3.725 0.936544 73.613
8.78728000 0.936589 98.944 0.350385 -3.727 0.350385 -3.727 0.936533 73.609
8.78730000 0.936578 98.943 0.350413 -3.730 0.350413 -3.730 0.936522 73.604
8.78732000 0.936568 98.942 0.350441 -3.733 0.350441 -3.733 0.936512 73.599
8.78734000 0.936557 98.942 0.350469 -3.735 0.350469 -3.735 0.936501 73.595
8.78736000 0.936547 98.941 0.350497 -3.738 0.350497 -3.738 0.936490 73.590
8.78738000 0.936536 98.940 0.350526 -3.741 0.350526 -3.741 0.936479 73.585
8.78740000 0.936525 98.939 0.350554 -3.744 0.350554 -3.744 0.936468 73.581
8.78742000 0.936515 98.939 0.350583 -3.746 0.350583 -3.746 0.936457 73.576
8.78744000 0.936504 98.938 0.350611 -3.749 0.350611 -3.749 0.936446 73.571
8.78746000 0.936493 98.937 0.350640 -3.752 0.350640 -3.752 0.936435 73.567
8.78748000 0.936482 98.937 0.350669 -3.755 0.350669 -3.755 0.936424 73.562
8.78750000 0.936471 98.936 0.350698 -3.757 0.350698 -3.757 0.936413 73.557
8.78752000 0.936460 98.935 0.350727 -3.760 0.350727 -3.760 0.936402 73.552
8.78754000 0.936449 98.934 0.350757 -3.763 0.350757 -3.763 0.936391 73.547
8.78756000 0.936438 98.934 0.350786 -3.766 0.350786 -3.766 0.936379 73.543
8.78758000 0.936427 98.933 0.350816 -3.769 0.350816 -3.769 0.936368 73.538
8.78760000 0.936416 98.932 0.350845 -3.771 0.350845 -3.771 0.936357 73.533
8.78762000 0.936405 98.931 0.350875 -3.774 0.350875 -3.774 0.936345 73.528
8.78764000 0.936393 98.931 0.350905 -3.777 0.350905 -3.777 0.936334 73.523
8.78766000 0.936382 98.930 0.350935 -3.780 0.350935 -3.780 0.936322 73.518
8.78768000 0.936371 98.929 0.350965 -3.783 0.350965 -3.783 0.936311 73.513
8.78770000 0.936359 98.928 0.350995 -3.786 0.350995 -3.786 0.936299 73.508
8.78772000 0.936348 98.928 0.351026 -3.789 0.351026 -3.789 0.936287 73.503
8.78774000 0.936336 98.927 0.351056 -3.791 0.351056 -3.791 0.936276 73.498
8.78776000 0.936325 98.926 0.351087 -3.794 0.351087 -3.794 0.936264 73.493
8.78778000 0.936313 98.925 0.351117 -3.797 0.351117 -3.797 0.936252 73.488
8.78780000 0.936302 98.924 0.351148 -3.800 0.351148 -3.800 0.936240 73.483
8.78782000 0.936290 98.924 0.351179 -3.803 0.351179 -3.803 0.936228 73.478
8.78784000 0.936278 98.923 0.351210 -3.806 0.351210 -3.806 0.936216 73.473