! Sonnet Data File
! From: emgraph Version : 16.52
! From Project: transmon_brgOdd
! Data is De-embedded 
! Data File Written: 11/12/2017 17:05:32
!< HDATE 11/11/2017 22:57:51
!< MDATE 11/11/2017 22:57:51
!< PARAMS
!< Lj = 15.24
!< Gap = 6.0
!< Width = 10.0
!< Airgap = 6.0
!< Pwidth = 2000.0
!< Dist = 1400.0
!< END PARAMS
# GHZ S MA R 34.67000
8.78000000 0.995002 125.56 0.099820 35.550 0.099820 35.550 0.995002 125.53
!< P1 F=8.78 Eeff=(5.13743391 -5.7017e-5) Z0=(34.6430374 -9.7216e-5) R=0.0 C=0.0 
!< P2 F=8.78 Eeff=(5.13743391 -5.7017e-5) Z0=(34.6430374 -9.7216e-5) R=0.0 C=0.0 
8.78001000 0.995002 125.56 0.099820 35.550 0.099820 35.550 0.995002 125.53
8.78002000 0.995002 125.56 0.099821 35.550 0.099821 35.550 0.995002 125.53
8.78003000 0.995002 125.56 0.099822 35.549 0.099822 35.549 0.995002 125.53
8.78004000 0.995002 125.56 0.099822 35.549 0.099822 35.549 0.995002 125.53
8.78005000 0.995002 125.56 0.099823 35.549 0.099823 35.549 0.995002 125.53
8.78006000 0.995002 125.56 0.099824 35.549 0.099824 35.549 0.995002 125.53
8.78007000 0.995002 125.56 0.099824 35.549 0.099824 35.549 0.995002 125.53
8.78008000 0.995002 125.56 0.099825 35.549 0.099825 35.549 0.995002 125.53
8.78009000 0.995002 125.56 0.099826 35.549 0.099826 35.549 0.995002 125.53
8.78010000 0.995001 125.56 0.099826 35.549 0.099826 35.549 0.995001 125.53
8.78011000 0.995001 125.56 0.099827 35.549 0.099827 35.549 0.995001 125.53
8.78012000 0.995001 125.56 0.099827 35.549 0.099827 35.549 0.995001 125.53
8.78013000 0.995001 125.56 0.099828 35.549 0.099828 35.549 0.995001 125.53
8.78014000 0.995001 125.56 0.099829 35.548 0.099829 35.548 0.995001 125.53
8.78015000 0.995001 125.56 0.099829 35.548 0.099829 35.548 0.995001 125.53
8.78016000 0.995001 125.56 0.099830 35.548 0.099830 35.548 0.995001 125.53
8.78017000 0.995001 125.56 0.099831 35.548 0.099831 35.548 0.995001 125.53
8.78018000 0.995001 125.56 0.099831 35.548 0.099831 35.548 0.995001 125.53
8.78019000 0.995001 125.56 0.099832 35.548 0.099832 35.548 0.995001 125.53
8.78020000 0.995001 125.56 0.099833 35.548 0.099833 35.548 0.995001 125.53
8.78021000 0.995001 125.56 0.099833 35.548 0.099833 35.548 0.995001 125.53
8.78022000 0.995001 125.56 0.099834 35.548 0.099834 35.548 0.995001 125.53
8.78023000 0.995001 125.56 0.099835 35.548 0.099835 35.548 0.995001 125.53
8.78024000 0.995001 125.56 0.099835 35.547 0.099835 35.547 0.995001 125.53
8.78025000 0.995000 125.56 0.099836 35.547 0.099836 35.547 0.995000 125.53
8.78026000 0.995000 125.56 0.099837 35.547 0.099837 35.547 0.995000 125.53
8.78027000 0.995000 125.56 0.099837 35.547 0.099837 35.547 0.995000 125.53
8.78028000 0.995000 125.56 0.099838 35.547 0.099838 35.547 0.995000 125.53
8.78029000 0.995000 125.56 0.099839 35.547 0.099839 35.547 0.995000 125.53
8.78030000 0.995000 125.56 0.099839 35.547 0.099839 35.547 0.995000 125.53
8.78031000 0.995000 125.56 0.099840 35.547 0.099840 35.547 0.995000 125.53
8.78032000 0.995000 125.56 0.099841 35.547 0.099841 35.547 0.995000 125.53
8.78033000 0.995000 125.56 0.099841 35.547 0.099841 35.547 0.995000 125.53
8.78034000 0.995000 125.56 0.099842 35.547 0.099842 35.547 0.995000 125.53
8.78035000 0.995000 125.56 0.099843 35.546 0.099843 35.546 0.995000 125.53
8.78036000 0.995000 125.56 0.099843 35.546 0.099843 35.546 0.995000 125.53
8.78037000 0.995000 125.56 0.099844 35.546 0.099844 35.546 0.995000 125.53
8.78038000 0.995000 125.56 0.099845 35.546 0.099845 35.546 0.995000 125.53
8.78039000 0.995000 125.56 0.099845 35.546 0.099845 35.546 0.995000 125.53
8.78040000 0.994999 125.56 0.099846 35.546 0.099846 35.546 0.994999 125.53
8.78041000 0.994999 125.56 0.099847 35.546 0.099847 35.546 0.994999 125.53
8.78042000 0.994999 125.56 0.099847 35.546 0.099847 35.546 0.994999 125.53
8.78043000 0.994999 125.56 0.099848 35.546 0.099848 35.546 0.994999 125.53
8.78044000 0.994999 125.56 0.099849 35.546 0.099849 35.546 0.994999 125.53
8.78045000 0.994999 125.56 0.099849 35.546 0.099849 35.546 0.994999 125.53
8.78046000 0.994999 125.56 0.099850 35.545 0.099850 35.545 0.994999 125.53
8.78047000 0.994999 125.56 0.099851 35.545 0.099851 35.545 0.994999 125.53
8.78048000 0.994999 125.56 0.099851 35.545 0.099851 35.545 0.994999 125.53
8.78049000 0.994999 125.56 0.099852 35.545 0.099852 35.545 0.994999 125.53
8.78050000 0.994999 125.56 0.099853 35.545 0.099853 35.545 0.994999 125.53
8.78051000 0.994999 125.56 0.099853 35.545 0.099853 35.545 0.994999 125.53
8.78052000 0.994999 125.56 0.099854 35.545 0.099854 35.545 0.994999 125.53
8.78053000 0.994999 125.56 0.099855 35.545 0.099855 35.545 0.994999 125.53
8.78054000 0.994998 125.56 0.099855 35.545 0.099855 35.545 0.994998 125.53
8.78055000 0.994998 125.56 0.099856 35.545 0.099856 35.545 0.994998 125.53
8.78056000 0.994998 125.56 0.099857 35.544 0.099857 35.544 0.994998 125.53
8.78057000 0.994998 125.56 0.099857 35.544 0.099857 35.544 0.994998 125.53
8.78058000 0.994998 125.56 0.099858 35.544 0.099858 35.544 0.994998 125.53
8.78059000 0.994998 125.56 0.099859 35.544 0.099859 35.544 0.994998 125.53
8.78060000 0.994998 125.56 0.099859 35.544 0.099859 35.544 0.994998 125.53
8.78061000 0.994998 125.56 0.099860 35.544 0.099860 35.544 0.994998 125.53
8.78062000 0.994998 125.56 0.099861 35.544 0.099861 35.544 0.994998 125.53
8.78063000 0.994998 125.56 0.099862 35.544 0.099862 35.544 0.994998 125.53
8.78064000 0.994998 125.56 0.099862 35.544 0.099862 35.544 0.994998 125.53
8.78065000 0.994998 125.56 0.099863 35.544 0.099863 35.544 0.994998 125.53
8.78066000 0.994998 125.56 0.099864 35.544 0.099864 35.544 0.994998 125.53
8.78067000 0.994998 125.56 0.099864 35.543 0.099864 35.543 0.994998 125.53
8.78068000 0.994998 125.56 0.099865 35.543 0.099865 35.543 0.994998 125.53
8.78069000 0.994997 125.56 0.099866 35.543 0.099866 35.543 0.994997 125.53
8.78070000 0.994997 125.56 0.099866 35.543 0.099866 35.543 0.994997 125.53
8.78071000 0.994997 125.56 0.099867 35.543 0.099867 35.543 0.994997 125.53
8.78072000 0.994997 125.56 0.099868 35.543 0.099868 35.543 0.994997 125.53
8.78073000 0.994997 125.56 0.099868 35.543 0.099868 35.543 0.994997 125.53
8.78074000 0.994997 125.56 0.099869 35.543 0.099869 35.543 0.994997 125.53
8.78075000 0.994997 125.56 0.099870 35.543 0.099870 35.543 0.994997 125.53
8.78076000 0.994997 125.56 0.099870 35.543 0.099870 35.543 0.994997 125.53
8.78077000 0.994997 125.56 0.099871 35.542 0.099871 35.542 0.994997 125.53
8.78078000 0.994997 125.56 0.099872 35.542 0.099872 35.542 0.994997 125.53
8.78079000 0.994997 125.56 0.099872 35.542 0.099872 35.542 0.994997 125.53
8.78080000 0.994997 125.56 0.099873 35.542 0.099873 35.542 0.994997 125.53
8.78081000 0.994997 125.56 0.099874 35.542 0.099874 35.542 0.994997 125.53
8.78082000 0.994997 125.56 0.099875 35.542 0.099875 35.542 0.994997 125.53
8.78083000 0.994996 125.56 0.099875 35.542 0.099875 35.542 0.994996 125.53
8.78084000 0.994996 125.56 0.099876 35.542 0.099876 35.542 0.994996 125.53
8.78085000 0.994996 125.56 0.099877 35.542 0.099877 35.542 0.994996 125.53
8.78086000 0.994996 125.56 0.099877 35.542 0.099877 35.542 0.994996 125.53
8.78087000 0.994996 125.56 0.099878 35.542 0.099878 35.542 0.994996 125.53
8.78088000 0.994996 125.55 0.099879 35.541 0.099879 35.541 0.994996 125.53
8.78089000 0.994996 125.55 0.099879 35.541 0.099879 35.541 0.994996 125.53
8.78090000 0.994996 125.55 0.099880 35.541 0.099880 35.541 0.994996 125.53
8.78091000 0.994996 125.55 0.099881 35.541 0.099881 35.541 0.994996 125.53
8.78092000 0.994996 125.55 0.099881 35.541 0.099881 35.541 0.994996 125.53
8.78093000 0.994996 125.55 0.099882 35.541 0.099882 35.541 0.994996 125.53
8.78094000 0.994996 125.55 0.099883 35.541 0.099883 35.541 0.994996 125.53
8.78095000 0.994996 125.55 0.099884 35.541 0.099884 35.541 0.994996 125.53
8.78096000 0.994996 125.55 0.099884 35.541 0.099884 35.541 0.994996 125.53
8.78097000 0.994995 125.55 0.099885 35.541 0.099885 35.541 0.994995 125.53
8.78098000 0.994995 125.55 0.099886 35.540 0.099886 35.540 0.994995 125.53
8.78099000 0.994995 125.55 0.099886 35.540 0.099886 35.540 0.994995 125.53
8.78100000 0.994995 125.55 0.099887 35.540 0.099887 35.540 0.994995 125.53
8.78101000 0.994995 125.55 0.099888 35.540 0.099888 35.540 0.994995 125.53
8.78102000 0.994995 125.55 0.099888 35.540 0.099888 35.540 0.994995 125.53
8.78103000 0.994995 125.55 0.099889 35.540 0.099889 35.540 0.994995 125.53
8.78104000 0.994995 125.55 0.099890 35.540 0.099890 35.540 0.994995 125.53
8.78105000 0.994995 125.55 0.099891 35.540 0.099891 35.540 0.994995 125.52
8.78106000 0.994995 125.55 0.099891 35.540 0.099891 35.540 0.994995 125.52
8.78107000 0.994995 125.55 0.099892 35.540 0.099892 35.540 0.994995 125.52
8.78108000 0.994995 125.55 0.099893 35.539 0.099893 35.539 0.994995 125.52
8.78109000 0.994995 125.55 0.099893 35.539 0.099893 35.539 0.994995 125.52
8.78110000 0.994995 125.55 0.099894 35.539 0.099894 35.539 0.994995 125.52
8.78111000 0.994994 125.55 0.099895 35.539 0.099895 35.539 0.994994 125.52
8.78112000 0.994994 125.55 0.099896 35.539 0.099896 35.539 0.994994 125.52
8.78113000 0.994994 125.55 0.099896 35.539 0.099896 35.539 0.994994 125.52
8.78114000 0.994994 125.55 0.099897 35.539 0.099897 35.539 0.994994 125.52
8.78115000 0.994994 125.55 0.099898 35.539 0.099898 35.539 0.994994 125.52
8.78116000 0.994994 125.55 0.099898 35.539 0.099898 35.539 0.994994 125.52
8.78117000 0.994994 125.55 0.099899 35.539 0.099899 35.539 0.994994 125.52
8.78118000 0.994994 125.55 0.099900 35.539 0.099900 35.539 0.994994 125.52
8.78119000 0.994994 125.55 0.099901 35.538 0.099901 35.538 0.994994 125.52
8.78120000 0.994994 125.55 0.099901 35.538 0.099901 35.538 0.994994 125.52
8.78121000 0.994994 125.55 0.099902 35.538 0.099902 35.538 0.994994 125.52
8.78122000 0.994994 125.55 0.099903 35.538 0.099903 35.538 0.994994 125.52
8.78123000 0.994994 125.55 0.099903 35.538 0.099903 35.538 0.994994 125.52
8.78124000 0.994994 125.55 0.099904 35.538 0.099904 35.538 0.994994 125.52
8.78125000 0.994993 125.55 0.099905 35.538 0.099905 35.538 0.994993 125.52
8.78126000 0.994993 125.55 0.099906 35.538 0.099906 35.538 0.994993 125.52
8.78127000 0.994993 125.55 0.099906 35.538 0.099906 35.538 0.994993 125.52
8.78128000 0.994993 125.55 0.099907 35.538 0.099907 35.538 0.994993 125.52
8.78129000 0.994993 125.55 0.099908 35.537 0.099908 35.537 0.994993 125.52
8.78130000 0.994993 125.55 0.099908 35.537 0.099908 35.537 0.994993 125.52
8.78131000 0.994993 125.55 0.099909 35.537 0.099909 35.537 0.994993 125.52
8.78132000 0.994993 125.55 0.099910 35.537 0.099910 35.537 0.994993 125.52
8.78133000 0.994993 125.55 0.099911 35.537 0.099911 35.537 0.994993 125.52
8.78134000 0.994993 125.55 0.099911 35.537 0.099911 35.537 0.994993 125.52
8.78135000 0.994993 125.55 0.099912 35.537 0.099912 35.537 0.994993 125.52
8.78136000 0.994993 125.55 0.099913 35.537 0.099913 35.537 0.994993 125.52
8.78137000 0.994993 125.55 0.099913 35.537 0.099913 35.537 0.994993 125.52
8.78138000 0.994993 125.55 0.099914 35.537 0.099914 35.537 0.994993 125.52
8.78139000 0.994992 125.55 0.099915 35.536 0.099915 35.536 0.994992 125.52
8.78140000 0.994992 125.55 0.099916 35.536 0.099916 35.536 0.994992 125.52
8.78141000 0.994992 125.55 0.099916 35.536 0.099916 35.536 0.994992 125.52
8.78142000 0.994992 125.55 0.099917 35.536 0.099917 35.536 0.994992 125.52
8.78143000 0.994992 125.55 0.099918 35.536 0.099918 35.536 0.994992 125.52
8.78144000 0.994992 125.55 0.099919 35.536 0.099919 35.536 0.994992 125.52
8.78145000 0.994992 125.55 0.099919 35.536 0.099919 35.536 0.994992 125.52
8.78146000 0.994992 125.55 0.099920 35.536 0.099920 35.536 0.994992 125.52
8.78147000 0.994992 125.55 0.099921 35.536 0.099921 35.536 0.994992 125.52
8.78148000 0.994992 125.55 0.099921 35.536 0.099921 35.536 0.994992 125.52
8.78149000 0.994992 125.55 0.099922 35.536 0.099922 35.536 0.994992 125.52
8.78150000 0.994992 125.55 0.099923 35.535 0.099923 35.535 0.994992 125.52
8.78151000 0.994992 125.55 0.099924 35.535 0.099924 35.535 0.994992 125.52
8.78152000 0.994991 125.55 0.099924 35.535 0.099924 35.535 0.994991 125.52
8.78153000 0.994991 125.55 0.099925 35.535 0.099925 35.535 0.994991 125.52
8.78154000 0.994991 125.55 0.099926 35.535 0.099926 35.535 0.994991 125.52
8.78155000 0.994991 125.55 0.099927 35.535 0.099927 35.535 0.994991 125.52
8.78156000 0.994991 125.55 0.099927 35.535 0.099927 35.535 0.994991 125.52
8.78157000 0.994991 125.55 0.099928 35.535 0.099928 35.535 0.994991 125.52
8.78158000 0.994991 125.55 0.099929 35.535 0.099929 35.535 0.994991 125.52
8.78159000 0.994991 125.55 0.099930 35.535 0.099930 35.535 0.994991 125.52
8.78160000 0.994991 125.55 0.099930 35.534 0.099930 35.534 0.994991 125.52
8.78161000 0.994991 125.55 0.099931 35.534 0.099931 35.534 0.994991 125.52
8.78162000 0.994991 125.55 0.099932 35.534 0.099932 35.534 0.994991 125.52
8.78163000 0.994991 125.55 0.099933 35.534 0.099933 35.534 0.994991 125.52
8.78164000 0.994991 125.55 0.099933 35.534 0.099933 35.534 0.994991 125.52
8.78165000 0.994990 125.55 0.099934 35.534 0.099934 35.534 0.994990 125.52
8.78166000 0.994990 125.55 0.099935 35.534 0.099935 35.534 0.994990 125.52
8.78167000 0.994990 125.55 0.099936 35.534 0.099936 35.534 0.994990 125.52
8.78168000 0.994990 125.55 0.099936 35.534 0.099936 35.534 0.994990 125.52
8.78169000 0.994990 125.55 0.099937 35.534 0.099937 35.534 0.994990 125.52
8.78170000 0.994990 125.55 0.099938 35.533 0.099938 35.533 0.994990 125.52
8.78171000 0.994990 125.55 0.099938 35.533 0.099938 35.533 0.994990 125.52
8.78172000 0.994990 125.55 0.099939 35.533 0.099939 35.533 0.994990 125.52
8.78173000 0.994990 125.55 0.099940 35.533 0.099940 35.533 0.994990 125.52
8.78174000 0.994990 125.55 0.099941 35.533 0.099941 35.533 0.994990 125.52
8.78175000 0.994990 125.55 0.099941 35.533 0.099941 35.533 0.994990 125.52
8.78176000 0.994990 125.55 0.099942 35.533 0.099942 35.533 0.994990 125.52
8.78177000 0.994990 125.55 0.099943 35.533 0.099943 35.533 0.994990 125.52
8.78178000 0.994989 125.55 0.099944 35.533 0.099944 35.533 0.994990 125.52
8.78179000 0.994989 125.55 0.099944 35.533 0.099944 35.533 0.994989 125.52
8.78180000 0.994989 125.55 0.099945 35.532 0.099945 35.532 0.994989 125.52
8.78181000 0.994989 125.55 0.099946 35.532 0.099946 35.532 0.994989 125.52
8.78182000 0.994989 125.55 0.099947 35.532 0.099947 35.532 0.994989 125.52
8.78183000 0.994989 125.55 0.099948 35.532 0.099948 35.532 0.994989 125.52
8.78184000 0.994989 125.55 0.099948 35.532 0.099948 35.532 0.994989 125.52
8.78185000 0.994989 125.55 0.099949 35.532 0.099949 35.532 0.994989 125.52
8.78186000 0.994989 125.55 0.099950 35.532 0.099950 35.532 0.994989 125.52
8.78187000 0.994989 125.55 0.099951 35.532 0.099951 35.532 0.994989 125.52
8.78188000 0.994989 125.55 0.099951 35.532 0.099951 35.532 0.994989 125.52
8.78189000 0.994989 125.55 0.099952 35.532 0.099952 35.532 0.994989 125.52
8.78190000 0.994989 125.54 0.099953 35.531 0.099953 35.531 0.994989 125.52
8.78191000 0.994988 125.54 0.099954 35.531 0.099954 35.531 0.994989 125.52
8.78192000 0.994988 125.54 0.099954 35.531 0.099954 35.531 0.994988 125.52
8.78193000 0.994988 125.54 0.099955 35.531 0.099955 35.531 0.994988 125.52
8.78194000 0.994988 125.54 0.099956 35.531 0.099956 35.531 0.994988 125.52
8.78195000 0.994988 125.54 0.099957 35.531 0.099957 35.531 0.994988 125.52
8.78196000 0.994988 125.54 0.099957 35.531 0.099957 35.531 0.994988 125.52
8.78197000 0.994988 125.54 0.099958 35.531 0.099958 35.531 0.994988 125.52
8.78198000 0.994988 125.54 0.099959 35.531 0.099959 35.531 0.994988 125.52
8.78199000 0.994988 125.54 0.099960 35.531 0.099960 35.531 0.994988 125.52
8.78200000 0.994988 125.54 0.099960 35.530 0.099960 35.530 0.994988 125.52
8.78201000 0.994988 125.54 0.099961 35.530 0.099961 35.530 0.994988 125.52
8.78202000 0.994988 125.54 0.099962 35.530 0.099962 35.530 0.994988 125.52
8.78203000 0.994988 125.54 0.099963 35.530 0.099963 35.530 0.994988 125.52
8.78204000 0.994987 125.54 0.099964 35.530 0.099964 35.530 0.994987 125.52
8.78205000 0.994987 125.54 0.099964 35.530 0.099964 35.530 0.994987 125.52
8.78206000 0.994987 125.54 0.099965 35.530 0.099965 35.530 0.994987 125.52
8.78207000 0.994987 125.54 0.099966 35.530 0.099966 35.530 0.994987 125.51
8.78208000 0.994987 125.54 0.099967 35.530 0.099967 35.530 0.994987 125.51
8.78209000 0.994987 125.54 0.099967 35.530 0.099967 35.530 0.994987 125.51
8.78210000 0.994987 125.54 0.099968 35.529 0.099968 35.529 0.994987 125.51
8.78211000 0.994987 125.54 0.099969 35.529 0.099969 35.529 0.994987 125.51
8.78212000 0.994987 125.54 0.099970 35.529 0.099970 35.529 0.994987 125.51
8.78213000 0.994987 125.54 0.099970 35.529 0.099970 35.529 0.994987 125.51
8.78214000 0.994987 125.54 0.099971 35.529 0.099971 35.529 0.994987 125.51
8.78215000 0.994987 125.54 0.099972 35.529 0.099972 35.529 0.994987 125.51
8.78216000 0.994987 125.54 0.099973 35.529 0.099973 35.529 0.994987 125.51
8.78217000 0.994986 125.54 0.099974 35.529 0.099974 35.529 0.994986 125.51
8.78218000 0.994986 125.54 0.099974 35.529 0.099974 35.529 0.994986 125.51
8.78219000 0.994986 125.54 0.099975 35.529 0.099975 35.529 0.994986 125.51
8.78220000 0.994986 125.54 0.099976 35.528 0.099976 35.528 0.994986 125.51
8.78221000 0.994986 125.54 0.099977 35.528 0.099977 35.528 0.994986 125.51
8.78222000 0.994986 125.54 0.099977 35.528 0.099977 35.528 0.994986 125.51
8.78223000 0.994986 125.54 0.099978 35.528 0.099978 35.528 0.994986 125.51
8.78224000 0.994986 125.54 0.099979 35.528 0.099979 35.528 0.994986 125.51
8.78225000 0.994986 125.54 0.099980 35.528 0.099980 35.528 0.994986 125.51
8.78226000 0.994986 125.54 0.099981 35.528 0.099981 35.528 0.994986 125.51
8.78227000 0.994986 125.54 0.099981 35.528 0.099981 35.528 0.994986 125.51
8.78228000 0.994986 125.54 0.099982 35.528 0.099982 35.528 0.994986 125.51
8.78229000 0.994985 125.54 0.099983 35.528 0.099983 35.528 0.994986 125.51
8.78230000 0.994985 125.54 0.099984 35.527 0.099984 35.527 0.994985 125.51
8.78231000 0.994985 125.54 0.099985 35.527 0.099985 35.527 0.994985 125.51
8.78232000 0.994985 125.54 0.099985 35.527 0.099985 35.527 0.994985 125.51
8.78233000 0.994985 125.54 0.099986 35.527 0.099986 35.527 0.994985 125.51
8.78234000 0.994985 125.54 0.099987 35.527 0.099987 35.527 0.994985 125.51
8.78235000 0.994985 125.54 0.099988 35.527 0.099988 35.527 0.994985 125.51
8.78236000 0.994985 125.54 0.099988 35.527 0.099988 35.527 0.994985 125.51
8.78237000 0.994985 125.54 0.099989 35.527 0.099989 35.527 0.994985 125.51
8.78238000 0.994985 125.54 0.099990 35.527 0.099990 35.527 0.994985 125.51
8.78239000 0.994985 125.54 0.099991 35.527 0.099991 35.527 0.994985 125.51
8.78240000 0.994985 125.54 0.099992 35.526 0.099992 35.526 0.994985 125.51
8.78241000 0.994985 125.54 0.099992 35.526 0.099992 35.526 0.994985 125.51
8.78242000 0.994984 125.54 0.099993 35.526 0.099993 35.526 0.994984 125.51
8.78243000 0.994984 125.54 0.099994 35.526 0.099994 35.526 0.994984 125.51
8.78244000 0.994984 125.54 0.099995 35.526 0.099995 35.526 0.994984 125.51
8.78245000 0.994984 125.54 0.099996 35.526 0.099996 35.526 0.994984 125.51
8.78246000 0.994984 125.54 0.099996 35.526 0.099996 35.526 0.994984 125.51
8.78247000 0.994984 125.54 0.099997 35.526 0.099997 35.526 0.994984 125.51
8.78248000 0.994984 125.54 0.099998 35.526 0.099998 35.526 0.994984 125.51
8.78249000 0.994984 125.54 0.099999 35.525 0.099999 35.525 0.994984 125.51
8.78250000 0.994984 125.54 0.100000 35.525 0.100000 35.525 0.994984 125.51
8.78251000 0.994984 125.54 0.100000 35.525 0.100000 35.525 0.994984 125.51
8.78252000 0.994984 125.54 0.100001 35.525 0.100001 35.525 0.994984 125.51
8.78253000 0.994984 125.54 0.100002 35.525 0.100002 35.525 0.994984 125.51
8.78254000 0.994983 125.54 0.100003 35.525 0.100003 35.525 0.994983 125.51
8.78255000 0.994983 125.54 0.100004 35.525 0.100004 35.525 0.994983 125.51
8.78256000 0.994983 125.54 0.100004 35.525 0.100004 35.525 0.994983 125.51
8.78257000 0.994983 125.54 0.100005 35.525 0.100005 35.525 0.994983 125.51
8.78258000 0.994983 125.54 0.100006 35.525 0.100006 35.525 0.994983 125.51
8.78259000 0.994983 125.54 0.100007 35.524 0.100007 35.524 0.994983 125.51
8.78260000 0.994983 125.54 0.100008 35.524 0.100008 35.524 0.994983 125.51
8.78261000 0.994983 125.54 0.100009 35.524 0.100009 35.524 0.994983 125.51
8.78262000 0.994983 125.54 0.100009 35.524 0.100009 35.524 0.994983 125.51
8.78263000 0.994983 125.54 0.100010 35.524 0.100010 35.524 0.994983 125.51
8.78264000 0.994983 125.54 0.100011 35.524 0.100011 35.524 0.994983 125.51
8.78265000 0.994983 125.54 0.100012 35.524 0.100012 35.524 0.994983 125.51
8.78266000 0.994982 125.54 0.100013 35.524 0.100013 35.524 0.994982 125.51
8.78267000 0.994982 125.54 0.100013 35.524 0.100013 35.524 0.994982 125.51
8.78268000 0.994982 125.54 0.100014 35.524 0.100014 35.524 0.994982 125.51
8.78269000 0.994982 125.54 0.100015 35.523 0.100015 35.523 0.994982 125.51
8.78270000 0.994982 125.54 0.100016 35.523 0.100016 35.523 0.994982 125.51
8.78271000 0.994982 125.54 0.100017 35.523 0.100017 35.523 0.994982 125.51
8.78272000 0.994982 125.54 0.100018 35.523 0.100018 35.523 0.994982 125.51
8.78273000 0.994982 125.54 0.100018 35.523 0.100018 35.523 0.994982 125.51
8.78274000 0.994982 125.54 0.100019 35.523 0.100019 35.523 0.994982 125.51
8.78275000 0.994982 125.54 0.100020 35.523 0.100020 35.523 0.994982 125.51
8.78276000 0.994982 125.54 0.100021 35.523 0.100021 35.523 0.994982 125.51
8.78277000 0.994982 125.54 0.100022 35.523 0.100022 35.523 0.994982 125.51
8.78278000 0.994981 125.54 0.100022 35.523 0.100022 35.523 0.994981 125.51
8.78279000 0.994981 125.54 0.100023 35.522 0.100023 35.522 0.994981 125.51
8.78280000 0.994981 125.54 0.100024 35.522 0.100024 35.522 0.994981 125.51
8.78281000 0.994981 125.54 0.100025 35.522 0.100025 35.522 0.994981 125.51
8.78282000 0.994981 125.54 0.100026 35.522 0.100026 35.522 0.994981 125.51
8.78283000 0.994981 125.54 0.100027 35.522 0.100027 35.522 0.994981 125.51
8.78284000 0.994981 125.54 0.100027 35.522 0.100027 35.522 0.994981 125.51
8.78285000 0.994981 125.54 0.100028 35.522 0.100028 35.522 0.994981 125.51
8.78286000 0.994981 125.54 0.100029 35.522 0.100029 35.522 0.994981 125.51
8.78287000 0.994981 125.54 0.100030 35.522 0.100030 35.522 0.994981 125.51
8.78288000 0.994981 125.54 0.100031 35.521 0.100031 35.521 0.994981 125.51
8.78289000 0.994981 125.53 0.100032 35.521 0.100032 35.521 0.994981 125.51
8.78290000 0.994980 125.53 0.100032 35.521 0.100032 35.521 0.994980 125.51
8.78291000 0.994980 125.53 0.100033 35.521 0.100033 35.521 0.994980 125.51
8.78292000 0.994980 125.53 0.100034 35.521 0.100034 35.521 0.994980 125.51
8.78293000 0.994980 125.53 0.100035 35.521 0.100035 35.521 0.994980 125.51
8.78294000 0.994980 125.53 0.100036 35.521 0.100036 35.521 0.994980 125.51
8.78295000 0.994980 125.53 0.100037 35.521 0.100037 35.521 0.994980 125.51
8.78296000 0.994980 125.53 0.100037 35.521 0.100037 35.521 0.994980 125.51
8.78297000 0.994980 125.53 0.100038 35.521 0.100038 35.521 0.994980 125.51
8.78298000 0.994980 125.53 0.100039 35.520 0.100039 35.520 0.994980 125.51
8.78299000 0.994980 125.53 0.100040 35.520 0.100040 35.520 0.994980 125.51
8.78300000 0.994980 125.53 0.100041 35.520 0.100041 35.520 0.994980 125.51
8.78301000 0.994980 125.53 0.100042 35.520 0.100042 35.520 0.994980 125.51
8.78302000 0.994979 125.53 0.100042 35.520 0.100042 35.520 0.994979 125.51
8.78303000 0.994979 125.53 0.100043 35.520 0.100043 35.520 0.994979 125.51
8.78304000 0.994979 125.53 0.100044 35.520 0.100044 35.520 0.994979 125.51
8.78305000 0.994979 125.53 0.100045 35.520 0.100045 35.520 0.994979 125.51
8.78306000 0.994979 125.53 0.100046 35.520 0.100046 35.520 0.994979 125.50
8.78307000 0.994979 125.53 0.100047 35.519 0.100047 35.519 0.994979 125.50
8.78308000 0.994979 125.53 0.100048 35.519 0.100048 35.519 0.994979 125.50
8.78309000 0.994979 125.53 0.100048 35.519 0.100048 35.519 0.994979 125.50
8.78310000 0.994979 125.53 0.100049 35.519 0.100049 35.519 0.994979 125.50
8.78311000 0.994979 125.53 0.100050 35.519 0.100050 35.519 0.994979 125.50
8.78312000 0.994979 125.53 0.100051 35.519 0.100051 35.519 0.994979 125.50
8.78313000 0.994978 125.53 0.100052 35.519 0.100052 35.519 0.994978 125.50
8.78314000 0.994978 125.53 0.100053 35.519 0.100053 35.519 0.994978 125.50
8.78315000 0.994978 125.53 0.100053 35.519 0.100053 35.519 0.994978 125.50
8.78316000 0.994978 125.53 0.100054 35.519 0.100054 35.519 0.994978 125.50
8.78317000 0.994978 125.53 0.100055 35.518 0.100055 35.518 0.994978 125.50
8.78318000 0.994978 125.53 0.100056 35.518 0.100056 35.518 0.994978 125.50
8.78319000 0.994978 125.53 0.100057 35.518 0.100057 35.518 0.994978 125.50
8.78320000 0.994978 125.53 0.100058 35.518 0.100058 35.518 0.994978 125.50
8.78321000 0.994978 125.53 0.100059 35.518 0.100059 35.518 0.994978 125.50
8.78322000 0.994978 125.53 0.100060 35.518 0.100060 35.518 0.994978 125.50
8.78323000 0.994978 125.53 0.100060 35.518 0.100060 35.518 0.994978 125.50
8.78324000 0.994978 125.53 0.100061 35.518 0.100061 35.518 0.994978 125.50
8.78325000 0.994977 125.53 0.100062 35.518 0.100062 35.518 0.994977 125.50
8.78326000 0.994977 125.53 0.100063 35.517 0.100063 35.517 0.994977 125.50
8.78327000 0.994977 125.53 0.100064 35.517 0.100064 35.517 0.994977 125.50
8.78328000 0.994977 125.53 0.100065 35.517 0.100065 35.517 0.994977 125.50
8.78329000 0.994977 125.53 0.100066 35.517 0.100066 35.517 0.994977 125.50
8.78330000 0.994977 125.53 0.100066 35.517 0.100066 35.517 0.994977 125.50
8.78331000 0.994977 125.53 0.100067 35.517 0.100067 35.517 0.994977 125.50
8.78332000 0.994977 125.53 0.100068 35.517 0.100068 35.517 0.994977 125.50
8.78333000 0.994977 125.53 0.100069 35.517 0.100069 35.517 0.994977 125.50
8.78334000 0.994977 125.53 0.100070 35.517 0.100070 35.517 0.994977 125.50
8.78335000 0.994977 125.53 0.100071 35.517 0.100071 35.517 0.994977 125.50
8.78336000 0.994976 125.53 0.100072 35.516 0.100072 35.516 0.994976 125.50
8.78337000 0.994976 125.53 0.100073 35.516 0.100073 35.516 0.994976 125.50
8.78338000 0.994976 125.53 0.100073 35.516 0.100073 35.516 0.994976 125.50
8.78339000 0.994976 125.53 0.100074 35.516 0.100074 35.516 0.994976 125.50
8.78340000 0.994976 125.53 0.100075 35.516 0.100075 35.516 0.994976 125.50
8.78341000 0.994976 125.53 0.100076 35.516 0.100076 35.516 0.994976 125.50
8.78342000 0.994976 125.53 0.100077 35.516 0.100077 35.516 0.994976 125.50
8.78343000 0.994976 125.53 0.100078 35.516 0.100078 35.516 0.994976 125.50
8.78344000 0.994976 125.53 0.100079 35.516 0.100079 35.516 0.994976 125.50
8.78345000 0.994976 125.53 0.100080 35.515 0.100080 35.515 0.994976 125.50
8.78346000 0.994976 125.53 0.100080 35.515 0.100080 35.515 0.994976 125.50
8.78347000 0.994975 125.53 0.100081 35.515 0.100081 35.515 0.994975 125.50
8.78348000 0.994975 125.53 0.100082 35.515 0.100082 35.515 0.994975 125.50
8.78349000 0.994975 125.53 0.100083 35.515 0.100083 35.515 0.994975 125.50
8.78350000 0.994975 125.53 0.100084 35.515 0.100084 35.515 0.994975 125.50
8.78351000 0.994975 125.53 0.100085 35.515 0.100085 35.515 0.994975 125.50
8.78352000 0.994975 125.53 0.100086 35.515 0.100086 35.515 0.994975 125.50
8.78353000 0.994975 125.53 0.100087 35.515 0.100087 35.515 0.994975 125.50
8.78354000 0.994975 125.53 0.100087 35.515 0.100087 35.515 0.994975 125.50
8.78355000 0.994975 125.53 0.100088 35.514 0.100088 35.514 0.994975 125.50
8.78356000 0.994975 125.53 0.100089 35.514 0.100089 35.514 0.994975 125.50
8.78357000 0.994975 125.53 0.100090 35.514 0.100090 35.514 0.994975 125.50
8.78358000 0.994974 125.53 0.100091 35.514 0.100091 35.514 0.994974 125.50
8.78359000 0.994974 125.53 0.100092 35.514 0.100092 35.514 0.994974 125.50
8.78360000 0.994974 125.53 0.100093 35.514 0.100093 35.514 0.994974 125.50
8.78361000 0.994974 125.53 0.100094 35.514 0.100094 35.514 0.994974 125.50
8.78362000 0.994974 125.53 0.100095 35.514 0.100095 35.514 0.994974 125.50
8.78363000 0.994974 125.53 0.100096 35.514 0.100096 35.514 0.994974 125.50
8.78364000 0.994974 125.53 0.100096 35.513 0.100096 35.513 0.994974 125.50
8.78365000 0.994974 125.53 0.100097 35.513 0.100097 35.513 0.994974 125.50
8.78366000 0.994974 125.53 0.100098 35.513 0.100098 35.513 0.994974 125.50
8.78367000 0.994974 125.53 0.100099 35.513 0.100099 35.513 0.994974 125.50
8.78368000 0.994974 125.53 0.100100 35.513 0.100100 35.513 0.994974 125.50
8.78369000 0.994973 125.53 0.100101 35.513 0.100101 35.513 0.994973 125.50
8.78370000 0.994973 125.53 0.100102 35.513 0.100102 35.513 0.994973 125.50
8.78371000 0.994973 125.53 0.100103 35.513 0.100103 35.513 0.994973 125.50
8.78372000 0.994973 125.53 0.100104 35.513 0.100104 35.513 0.994973 125.50
8.78373000 0.994973 125.53 0.100105 35.512 0.100105 35.512 0.994973 125.50
8.78374000 0.994973 125.53 0.100105 35.512 0.100105 35.512 0.994973 125.50
8.78375000 0.994973 125.53 0.100106 35.512 0.100106 35.512 0.994973 125.50
8.78376000 0.994973 125.53 0.100107 35.512 0.100107 35.512 0.994973 125.50
8.78377000 0.994973 125.53 0.100108 35.512 0.100108 35.512 0.994973 125.50
8.78378000 0.994973 125.53 0.100109 35.512 0.100109 35.512 0.994973 125.50
8.78379000 0.994973 125.53 0.100110 35.512 0.100110 35.512 0.994973 125.50
8.78380000 0.994972 125.53 0.100111 35.512 0.100111 35.512 0.994972 125.50
8.78381000 0.994972 125.53 0.100112 35.512 0.100112 35.512 0.994972 125.50
8.78382000 0.994972 125.53 0.100113 35.511 0.100113 35.511 0.994972 125.50
8.78383000 0.994972 125.53 0.100114 35.511 0.100114 35.511 0.994972 125.50
8.78384000 0.994972 125.52 0.100115 35.511 0.100115 35.511 0.994972 125.50
8.78385000 0.994972 125.52 0.100116 35.511 0.100116 35.511 0.994972 125.50
8.78386000 0.994972 125.52 0.100116 35.511 0.100116 35.511 0.994972 125.50
8.78387000 0.994972 125.52 0.100117 35.511 0.100117 35.511 0.994972 125.50
8.78388000 0.994972 125.52 0.100118 35.511 0.100118 35.511 0.994972 125.50
8.78389000 0.994972 125.52 0.100119 35.511 0.100119 35.511 0.994972 125.50
8.78390000 0.994971 125.52 0.100120 35.511 0.100120 35.511 0.994971 125.50
8.78391000 0.994971 125.52 0.100121 35.510 0.100121 35.510 0.994971 125.50
8.78392000 0.994971 125.52 0.100122 35.510 0.100122 35.510 0.994971 125.50