! Sonnet Data File
! From: emgraph Version : 16.52
! From Project: Qubit_Xmon2_brg_para
! Data is De-embedded 
! Data File Written: 11/12/2017 19:09:19
!< HDATE 11/12/2017 17:12:30
!< MDATE 11/12/2017 17:12:30
!< PARAMS
!< Lj = 11.0
!< Gap = 6.0
!< Pwid = 2000.0
!< Airgap = 6.0
!< Width = 10.0
!< Bwid = 8.0
!< Dis1 = 850.0
!< Dis2 = 856.0
!< END PARAMS
# GHZ S MA R 51.80000
8.76000000 0.005173 -170.1 0.999983 -80.52 0.999983 -80.52 0.005173 -171.0
!< P1 F=8.76 Eeff=(6.44679139 -2.9786e-5) Z0=(51.7991425 1.19067e-4) R=0.0 C=0.0 
!< P2 F=8.76 Eeff=(6.44679139 -2.9786e-5) Z0=(51.7991425 1.19067e-4) R=0.0 C=0.0 
8.76002000 0.005174 -170.1 0.999983 -80.52 0.999983 -80.52 0.005174 -171.0
8.76004000 0.005175 -170.1 0.999983 -80.52 0.999983 -80.52 0.005175 -171.0
8.76006000 0.005176 -170.1 0.999982 -80.52 0.999982 -80.52 0.005176 -171.0
8.76008000 0.005177 -170.1 0.999982 -80.52 0.999982 -80.52 0.005177 -171.0
8.76010000 0.005178 -170.1 0.999982 -80.52 0.999982 -80.52 0.005178 -171.0
8.76012000 0.005179 -170.1 0.999982 -80.52 0.999982 -80.52 0.005179 -171.0
8.76014000 0.005180 -170.1 0.999982 -80.52 0.999982 -80.52 0.005180 -171.0
8.76016000 0.005181 -170.1 0.999982 -80.52 0.999982 -80.52 0.005181 -171.0
8.76018000 0.005182 -170.1 0.999982 -80.52 0.999982 -80.52 0.005182 -171.0
8.76020000 0.005183 -170.1 0.999982 -80.52 0.999982 -80.52 0.005183 -171.0
8.76022000 0.005184 -170.1 0.999982 -80.52 0.999982 -80.52 0.005184 -171.0
8.76024000 0.005184 -170.1 0.999982 -80.52 0.999982 -80.52 0.005184 -171.0
8.76026000 0.005185 -170.1 0.999982 -80.52 0.999982 -80.52 0.005185 -171.0
8.76028000 0.005186 -170.1 0.999982 -80.52 0.999982 -80.52 0.005186 -171.0
8.76030000 0.005187 -170.1 0.999982 -80.52 0.999982 -80.52 0.005187 -171.0
8.76032000 0.005188 -170.1 0.999982 -80.52 0.999982 -80.52 0.005188 -171.0
8.76034000 0.005189 -170.1 0.999982 -80.52 0.999982 -80.52 0.005189 -171.0
8.76036000 0.005190 -170.1 0.999982 -80.52 0.999982 -80.52 0.005190 -171.0
8.76038000 0.005191 -170.1 0.999982 -80.52 0.999982 -80.52 0.005191 -171.0
8.76040000 0.005192 -170.1 0.999982 -80.52 0.999982 -80.52 0.005192 -171.0
8.76042000 0.005193 -170.1 0.999982 -80.52 0.999982 -80.52 0.005193 -171.0
8.76044000 0.005194 -170.1 0.999982 -80.52 0.999982 -80.52 0.005194 -171.0
8.76046000 0.005195 -170.1 0.999982 -80.52 0.999982 -80.52 0.005195 -171.0
8.76048000 0.005196 -170.1 0.999982 -80.52 0.999982 -80.52 0.005196 -171.0
8.76050000 0.005197 -170.1 0.999982 -80.52 0.999982 -80.52 0.005197 -171.0
8.76052000 0.005198 -170.1 0.999982 -80.52 0.999982 -80.52 0.005198 -171.0
8.76054000 0.005199 -170.1 0.999982 -80.52 0.999982 -80.52 0.005199 -171.0
8.76056000 0.005200 -170.1 0.999982 -80.52 0.999982 -80.52 0.005200 -171.0
8.76058000 0.005201 -170.1 0.999982 -80.52 0.999982 -80.52 0.005201 -171.0
8.76060000 0.005202 -170.1 0.999982 -80.52 0.999982 -80.52 0.005202 -171.0
8.76062000 0.005203 -170.1 0.999982 -80.52 0.999982 -80.52 0.005203 -171.0
8.76064000 0.005204 -170.1 0.999982 -80.52 0.999982 -80.52 0.005204 -171.0
8.76066000 0.005205 -170.1 0.999982 -80.52 0.999982 -80.52 0.005205 -171.0
8.76068000 0.005206 -170.1 0.999982 -80.52 0.999982 -80.52 0.005206 -171.0
8.76070000 0.005207 -170.1 0.999982 -80.52 0.999982 -80.52 0.005207 -171.0
8.76072000 0.005208 -170.1 0.999982 -80.52 0.999982 -80.52 0.005208 -171.0
8.76074000 0.005209 -170.1 0.999982 -80.52 0.999982 -80.52 0.005209 -171.0
8.76076000 0.005210 -170.1 0.999982 -80.53 0.999982 -80.53 0.005210 -171.0
8.76078000 0.005211 -170.1 0.999982 -80.53 0.999982 -80.53 0.005211 -171.0
8.76080000 0.005212 -170.1 0.999982 -80.53 0.999982 -80.53 0.005212 -171.0
8.76082000 0.005213 -170.1 0.999982 -80.53 0.999982 -80.53 0.005213 -171.0
8.76084000 0.005214 -170.1 0.999982 -80.53 0.999982 -80.53 0.005214 -171.0
8.76086000 0.005215 -170.1 0.999982 -80.53 0.999982 -80.53 0.005215 -171.0
8.76088000 0.005216 -170.1 0.999982 -80.53 0.999982 -80.53 0.005216 -171.0
8.76090000 0.005217 -170.1 0.999982 -80.53 0.999982 -80.53 0.005217 -171.0
8.76092000 0.005218 -170.1 0.999982 -80.53 0.999982 -80.53 0.005218 -171.0
8.76094000 0.005219 -170.1 0.999982 -80.53 0.999982 -80.53 0.005219 -171.0
8.76096000 0.005220 -170.1 0.999982 -80.53 0.999982 -80.53 0.005220 -171.0
8.76098000 0.005221 -170.1 0.999982 -80.53 0.999982 -80.53 0.005221 -171.0
8.76100000 0.005222 -170.1 0.999982 -80.53 0.999982 -80.53 0.005222 -171.0
8.76102000 0.005223 -170.1 0.999982 -80.53 0.999982 -80.53 0.005223 -171.0
8.76104000 0.005224 -170.1 0.999982 -80.53 0.999982 -80.53 0.005224 -171.0
8.76106000 0.005225 -170.1 0.999982 -80.53 0.999982 -80.53 0.005225 -171.0
8.76108000 0.005226 -170.1 0.999982 -80.53 0.999982 -80.53 0.005226 -171.0
8.76110000 0.005227 -170.1 0.999982 -80.53 0.999982 -80.53 0.005227 -171.0
8.76112000 0.005228 -170.1 0.999982 -80.53 0.999982 -80.53 0.005228 -171.0
8.76114000 0.005229 -170.1 0.999982 -80.53 0.999982 -80.53 0.005229 -171.0
8.76116000 0.005230 -170.1 0.999982 -80.53 0.999982 -80.53 0.005230 -171.0
8.76118000 0.005231 -170.1 0.999982 -80.53 0.999982 -80.53 0.005231 -171.0
8.76120000 0.005232 -170.1 0.999982 -80.53 0.999982 -80.53 0.005232 -171.0
8.76122000 0.005233 -170.1 0.999982 -80.53 0.999982 -80.53 0.005233 -171.0
8.76124000 0.005234 -170.1 0.999982 -80.53 0.999982 -80.53 0.005234 -171.0
8.76126000 0.005235 -170.1 0.999982 -80.53 0.999982 -80.53 0.005235 -171.0
8.76128000 0.005236 -170.1 0.999982 -80.53 0.999982 -80.53 0.005236 -171.0
8.76130000 0.005237 -170.1 0.999982 -80.53 0.999982 -80.53 0.005237 -171.0
8.76132000 0.005238 -170.1 0.999982 -80.53 0.999982 -80.53 0.005238 -171.0
8.76134000 0.005239 -170.1 0.999982 -80.53 0.999982 -80.53 0.005239 -171.0
8.76136000 0.005240 -170.1 0.999982 -80.53 0.999982 -80.53 0.005240 -171.0
8.76138000 0.005241 -170.1 0.999982 -80.53 0.999982 -80.53 0.005241 -171.0
8.76140000 0.005242 -170.1 0.999982 -80.53 0.999982 -80.53 0.005242 -171.0
8.76142000 0.005243 -170.1 0.999982 -80.53 0.999982 -80.53 0.005243 -171.0
8.76144000 0.005244 -170.1 0.999982 -80.53 0.999982 -80.53 0.005244 -171.0
8.76146000 0.005245 -170.1 0.999982 -80.53 0.999982 -80.53 0.005245 -171.0
8.76148000 0.005246 -170.1 0.999982 -80.53 0.999982 -80.53 0.005246 -171.0
8.76150000 0.005247 -170.1 0.999982 -80.53 0.999982 -80.53 0.005247 -171.0
8.76152000 0.005248 -170.1 0.999982 -80.53 0.999982 -80.53 0.005248 -171.0
8.76154000 0.005249 -170.1 0.999982 -80.53 0.999982 -80.53 0.005249 -171.0
8.76156000 0.005250 -170.1 0.999982 -80.53 0.999982 -80.53 0.005251 -171.0
8.76158000 0.005252 -170.1 0.999982 -80.54 0.999982 -80.54 0.005252 -171.0
8.76160000 0.005253 -170.1 0.999982 -80.54 0.999982 -80.54 0.005253 -171.0
8.76162000 0.005254 -170.1 0.999982 -80.54 0.999982 -80.54 0.005254 -171.0
8.76164000 0.005255 -170.1 0.999982 -80.54 0.999982 -80.54 0.005255 -171.0
8.76166000 0.005256 -170.1 0.999982 -80.54 0.999982 -80.54 0.005256 -171.0
8.76168000 0.005257 -170.1 0.999982 -80.54 0.999982 -80.54 0.005257 -171.0
8.76170000 0.005258 -170.1 0.999982 -80.54 0.999982 -80.54 0.005258 -171.0
8.76172000 0.005259 -170.1 0.999982 -80.54 0.999982 -80.54 0.005259 -171.0
8.76174000 0.005260 -170.1 0.999982 -80.54 0.999982 -80.54 0.005260 -171.0
8.76176000 0.005261 -170.1 0.999982 -80.54 0.999982 -80.54 0.005261 -171.0
8.76178000 0.005262 -170.1 0.999982 -80.54 0.999982 -80.54 0.005262 -171.0
8.76180000 0.005263 -170.1 0.999982 -80.54 0.999982 -80.54 0.005263 -171.0
8.76182000 0.005264 -170.1 0.999982 -80.54 0.999982 -80.54 0.005264 -171.0
8.76184000 0.005265 -170.1 0.999982 -80.54 0.999982 -80.54 0.005265 -171.0
8.76186000 0.005266 -170.1 0.999982 -80.54 0.999982 -80.54 0.005266 -171.0
8.76188000 0.005267 -170.1 0.999982 -80.54 0.999982 -80.54 0.005267 -171.0
8.76190000 0.005268 -170.1 0.999982 -80.54 0.999982 -80.54 0.005268 -171.0
8.76192000 0.005269 -170.1 0.999982 -80.54 0.999982 -80.54 0.005269 -171.0
8.76194000 0.005270 -170.1 0.999982 -80.54 0.999982 -80.54 0.005270 -171.0
8.76196000 0.005271 -170.1 0.999982 -80.54 0.999982 -80.54 0.005271 -171.0
8.76198000 0.005273 -170.1 0.999982 -80.54 0.999982 -80.54 0.005273 -171.0
8.76200000 0.005274 -170.1 0.999982 -80.54 0.999982 -80.54 0.005274 -171.0
8.76202000 0.005275 -170.1 0.999982 -80.54 0.999982 -80.54 0.005275 -171.0
8.76204000 0.005276 -170.1 0.999982 -80.54 0.999982 -80.54 0.005276 -171.0
8.76206000 0.005277 -170.1 0.999982 -80.54 0.999982 -80.54 0.005277 -171.0
8.76208000 0.005278 -170.1 0.999982 -80.54 0.999982 -80.54 0.005278 -171.0
8.76210000 0.005279 -170.1 0.999982 -80.54 0.999982 -80.54 0.005279 -171.0
8.76212000 0.005280 -170.1 0.999982 -80.54 0.999982 -80.54 0.005280 -171.0
8.76214000 0.005281 -170.1 0.999982 -80.54 0.999982 -80.54 0.005281 -171.0
8.76216000 0.005282 -170.1 0.999982 -80.54 0.999982 -80.54 0.005282 -171.0
8.76218000 0.005283 -170.1 0.999982 -80.54 0.999982 -80.54 0.005283 -171.0
8.76220000 0.005284 -170.1 0.999982 -80.54 0.999982 -80.54 0.005284 -171.0
8.76222000 0.005285 -170.1 0.999982 -80.54 0.999982 -80.54 0.005285 -171.0
8.76224000 0.005286 -170.1 0.999982 -80.54 0.999982 -80.54 0.005286 -171.0
8.76226000 0.005287 -170.1 0.999982 -80.54 0.999982 -80.54 0.005287 -171.0
8.76228000 0.005289 -170.1 0.999982 -80.54 0.999982 -80.54 0.005289 -171.0
8.76230000 0.005290 -170.1 0.999982 -80.54 0.999982 -80.54 0.005290 -171.0
8.76232000 0.005291 -170.1 0.999982 -80.54 0.999982 -80.54 0.005291 -171.0
8.76234000 0.005292 -170.1 0.999982 -80.54 0.999982 -80.54 0.005292 -171.0
8.76236000 0.005293 -170.1 0.999982 -80.54 0.999982 -80.54 0.005293 -171.0
8.76238000 0.005294 -170.1 0.999982 -80.54 0.999982 -80.54 0.005294 -171.0
8.76240000 0.005295 -170.1 0.999982 -80.55 0.999982 -80.55 0.005295 -171.0
8.76242000 0.005296 -170.1 0.999982 -80.55 0.999982 -80.55 0.005296 -171.0
8.76244000 0.005297 -170.1 0.999982 -80.55 0.999982 -80.55 0.005297 -171.0
8.76246000 0.005298 -170.1 0.999982 -80.55 0.999982 -80.55 0.005298 -171.0
8.76248000 0.005299 -170.1 0.999982 -80.55 0.999982 -80.55 0.005299 -171.0
8.76250000 0.005300 -170.1 0.999982 -80.55 0.999982 -80.55 0.005300 -171.0
8.76252000 0.005302 -170.1 0.999982 -80.55 0.999982 -80.55 0.005302 -171.0
8.76254000 0.005303 -170.1 0.999982 -80.55 0.999982 -80.55 0.005303 -171.0
8.76256000 0.005304 -170.1 0.999982 -80.55 0.999982 -80.55 0.005304 -171.0
8.76258000 0.005305 -170.1 0.999982 -80.55 0.999982 -80.55 0.005305 -171.0
8.76260000 0.005306 -170.1 0.999982 -80.55 0.999982 -80.55 0.005306 -171.0
8.76262000 0.005307 -170.1 0.999982 -80.55 0.999982 -80.55 0.005307 -171.0
8.76264000 0.005308 -170.1 0.999982 -80.55 0.999982 -80.55 0.005308 -171.0
8.76266000 0.005309 -170.1 0.999982 -80.55 0.999982 -80.55 0.005309 -171.0
8.76268000 0.005310 -170.1 0.999982 -80.55 0.999982 -80.55 0.005310 -171.0
8.76270000 0.005311 -170.1 0.999982 -80.55 0.999982 -80.55 0.005311 -171.0
8.76272000 0.005313 -170.1 0.999982 -80.55 0.999982 -80.55 0.005313 -171.0
8.76274000 0.005314 -170.1 0.999982 -80.55 0.999982 -80.55 0.005314 -171.0
8.76276000 0.005315 -170.1 0.999982 -80.55 0.999982 -80.55 0.005315 -171.0
8.76278000 0.005316 -170.1 0.999982 -80.55 0.999982 -80.55 0.005316 -171.0
8.76280000 0.005317 -170.1 0.999982 -80.55 0.999982 -80.55 0.005317 -171.0
8.76282000 0.005318 -170.1 0.999982 -80.55 0.999982 -80.55 0.005318 -171.0
8.76284000 0.005319 -170.1 0.999982 -80.55 0.999982 -80.55 0.005319 -171.0
8.76286000 0.005320 -170.1 0.999982 -80.55 0.999982 -80.55 0.005320 -171.0
8.76288000 0.005321 -170.1 0.999982 -80.55 0.999982 -80.55 0.005321 -171.0
8.76290000 0.005323 -170.1 0.999982 -80.55 0.999982 -80.55 0.005323 -171.0
8.76292000 0.005324 -170.1 0.999982 -80.55 0.999982 -80.55 0.005324 -171.0
8.76294000 0.005325 -170.1 0.999982 -80.55 0.999982 -80.55 0.005325 -171.0
8.76296000 0.005326 -170.1 0.999982 -80.55 0.999982 -80.55 0.005326 -171.0
8.76298000 0.005327 -170.1 0.999982 -80.55 0.999982 -80.55 0.005327 -171.0
8.76300000 0.005328 -170.1 0.999982 -80.55 0.999982 -80.55 0.005328 -171.0
8.76302000 0.005329 -170.1 0.999982 -80.55 0.999982 -80.55 0.005329 -171.0
8.76304000 0.005330 -170.1 0.999982 -80.55 0.999982 -80.55 0.005330 -171.0
8.76306000 0.005331 -170.1 0.999982 -80.55 0.999982 -80.55 0.005332 -171.0
8.76308000 0.005333 -170.1 0.999982 -80.55 0.999982 -80.55 0.005333 -171.0
8.76310000 0.005334 -170.1 0.999982 -80.55 0.999982 -80.55 0.005334 -171.0
8.76312000 0.005335 -170.1 0.999982 -80.55 0.999982 -80.55 0.005335 -171.0
8.76314000 0.005336 -170.1 0.999981 -80.55 0.999981 -80.55 0.005336 -171.0
8.76316000 0.005337 -170.1 0.999981 -80.55 0.999981 -80.55 0.005337 -171.0
8.76318000 0.005338 -170.1 0.999981 -80.55 0.999981 -80.55 0.005338 -171.0
8.76320000 0.005339 -170.1 0.999981 -80.55 0.999981 -80.55 0.005339 -171.0
8.76322000 0.005341 -170.1 0.999981 -80.56 0.999981 -80.56 0.005341 -171.0
8.76324000 0.005342 -170.1 0.999981 -80.56 0.999981 -80.56 0.005342 -171.0
8.76326000 0.005343 -170.1 0.999981 -80.56 0.999981 -80.56 0.005343 -171.0
8.76328000 0.005344 -170.1 0.999981 -80.56 0.999981 -80.56 0.005344 -171.0
8.76330000 0.005345 -170.1 0.999981 -80.56 0.999981 -80.56 0.005345 -171.0
8.76332000 0.005346 -170.1 0.999981 -80.56 0.999981 -80.56 0.005346 -171.0
8.76334000 0.005347 -170.1 0.999981 -80.56 0.999981 -80.56 0.005347 -171.0
8.76336000 0.005349 -170.1 0.999981 -80.56 0.999981 -80.56 0.005349 -171.0
8.76338000 0.005350 -170.1 0.999981 -80.56 0.999981 -80.56 0.005350 -171.0
8.76340000 0.005351 -170.1 0.999981 -80.56 0.999981 -80.56 0.005351 -171.0
8.76342000 0.005352 -170.1 0.999981 -80.56 0.999981 -80.56 0.005352 -171.0
8.76344000 0.005353 -170.1 0.999981 -80.56 0.999981 -80.56 0.005353 -171.0
8.76346000 0.005354 -170.1 0.999981 -80.56 0.999981 -80.56 0.005354 -171.0
8.76348000 0.005355 -170.1 0.999981 -80.56 0.999981 -80.56 0.005355 -171.0
8.76350000 0.005357 -170.1 0.999981 -80.56 0.999981 -80.56 0.005357 -171.0
8.76352000 0.005358 -170.1 0.999981 -80.56 0.999981 -80.56 0.005358 -171.0
8.76354000 0.005359 -170.1 0.999981 -80.56 0.999981 -80.56 0.005359 -171.0
8.76356000 0.005360 -170.1 0.999981 -80.56 0.999981 -80.56 0.005360 -171.0
8.76358000 0.005361 -170.1 0.999981 -80.56 0.999981 -80.56 0.005361 -171.0
8.76360000 0.005362 -170.1 0.999981 -80.56 0.999981 -80.56 0.005362 -171.0
8.76362000 0.005364 -170.2 0.999981 -80.56 0.999981 -80.56 0.005364 -171.0
8.76364000 0.005365 -170.2 0.999981 -80.56 0.999981 -80.56 0.005365 -171.0
8.76366000 0.005366 -170.2 0.999981 -80.56 0.999981 -80.56 0.005366 -171.0
8.76368000 0.005367 -170.2 0.999981 -80.56 0.999981 -80.56 0.005367 -171.0
8.76370000 0.005368 -170.2 0.999981 -80.56 0.999981 -80.56 0.005368 -171.0
8.76372000 0.005369 -170.2 0.999981 -80.56 0.999981 -80.56 0.005369 -171.0
8.76374000 0.005371 -170.2 0.999981 -80.56 0.999981 -80.56 0.005371 -171.0
8.76376000 0.005372 -170.2 0.999981 -80.56 0.999981 -80.56 0.005372 -171.0
8.76378000 0.005373 -170.2 0.999981 -80.56 0.999981 -80.56 0.005373 -171.0
8.76380000 0.005374 -170.2 0.999981 -80.56 0.999981 -80.56 0.005374 -171.0
8.76382000 0.005375 -170.2 0.999981 -80.56 0.999981 -80.56 0.005375 -171.0
8.76384000 0.005376 -170.2 0.999981 -80.56 0.999981 -80.56 0.005376 -171.0
8.76386000 0.005378 -170.2 0.999981 -80.56 0.999981 -80.56 0.005378 -171.0
8.76388000 0.005379 -170.2 0.999981 -80.56 0.999981 -80.56 0.005379 -171.0
8.76390000 0.005380 -170.2 0.999981 -80.56 0.999981 -80.56 0.005380 -171.0
8.76392000 0.005381 -170.2 0.999981 -80.56 0.999981 -80.56 0.005381 -171.0
8.76394000 0.005382 -170.2 0.999981 -80.56 0.999981 -80.56 0.005382 -171.0
8.76396000 0.005383 -170.2 0.999981 -80.56 0.999981 -80.56 0.005384 -171.0
8.76398000 0.005385 -170.2 0.999981 -80.56 0.999981 -80.56 0.005385 -171.0
8.76400000 0.005386 -170.2 0.999981 -80.56 0.999981 -80.56 0.005386 -171.0
8.76402000 0.005387 -170.2 0.999981 -80.57 0.999981 -80.57 0.005387 -171.0
8.76404000 0.005388 -170.2 0.999981 -80.57 0.999981 -80.57 0.005388 -171.0
8.76406000 0.005389 -170.2 0.999981 -80.57 0.999981 -80.57 0.005389 -171.0
8.76408000 0.005391 -170.2 0.999981 -80.57 0.999981 -80.57 0.005391 -171.0
8.76410000 0.005392 -170.2 0.999981 -80.57 0.999981 -80.57 0.005392 -171.0
8.76412000 0.005393 -170.2 0.999981 -80.57 0.999981 -80.57 0.005393 -171.0
8.76414000 0.005394 -170.2 0.999981 -80.57 0.999981 -80.57 0.005394 -171.0
8.76416000 0.005395 -170.2 0.999981 -80.57 0.999981 -80.57 0.005395 -171.1
8.76418000 0.005397 -170.2 0.999981 -80.57 0.999981 -80.57 0.005397 -171.1
8.76420000 0.005398 -170.2 0.999981 -80.57 0.999981 -80.57 0.005398 -171.1
8.76422000 0.005399 -170.2 0.999981 -80.57 0.999981 -80.57 0.005399 -171.1
8.76424000 0.005400 -170.2 0.999981 -80.57 0.999981 -80.57 0.005400 -171.1
8.76426000 0.005401 -170.2 0.999981 -80.57 0.999981 -80.57 0.005401 -171.1
8.76428000 0.005403 -170.2 0.999981 -80.57 0.999981 -80.57 0.005403 -171.1
8.76430000 0.005404 -170.2 0.999981 -80.57 0.999981 -80.57 0.005404 -171.1
8.76432000 0.005405 -170.2 0.999981 -80.57 0.999981 -80.57 0.005405 -171.1
8.76434000 0.005406 -170.2 0.999981 -80.57 0.999981 -80.57 0.005406 -171.1
8.76436000 0.005407 -170.2 0.999981 -80.57 0.999981 -80.57 0.005407 -171.1
8.76438000 0.005409 -170.2 0.999981 -80.57 0.999981 -80.57 0.005409 -171.1
8.76440000 0.005410 -170.2 0.999981 -80.57 0.999981 -80.57 0.005410 -171.1
8.76442000 0.005411 -170.2 0.999981 -80.57 0.999981 -80.57 0.005411 -171.1
8.76444000 0.005412 -170.2 0.999981 -80.57 0.999981 -80.57 0.005412 -171.1
8.76446000 0.005414 -170.2 0.999981 -80.57 0.999981 -80.57 0.005414 -171.1
8.76448000 0.005415 -170.2 0.999981 -80.57 0.999981 -80.57 0.005415 -171.1
8.76450000 0.005416 -170.2 0.999981 -80.57 0.999981 -80.57 0.005416 -171.1
8.76452000 0.005417 -170.2 0.999981 -80.57 0.999981 -80.57 0.005417 -171.1
8.76454000 0.005418 -170.2 0.999981 -80.57 0.999981 -80.57 0.005418 -171.1
8.76456000 0.005420 -170.2 0.999981 -80.57 0.999981 -80.57 0.005420 -171.1
8.76458000 0.005421 -170.2 0.999981 -80.57 0.999981 -80.57 0.005421 -171.1
8.76460000 0.005422 -170.2 0.999981 -80.57 0.999981 -80.57 0.005422 -171.1
8.76462000 0.005423 -170.2 0.999981 -80.57 0.999981 -80.57 0.005423 -171.1
8.76464000 0.005425 -170.2 0.999981 -80.57 0.999981 -80.57 0.005425 -171.1
8.76466000 0.005426 -170.2 0.999981 -80.57 0.999981 -80.57 0.005426 -171.1
8.76468000 0.005427 -170.2 0.999981 -80.57 0.999981 -80.57 0.005427 -171.1
8.76470000 0.005428 -170.2 0.999981 -80.57 0.999981 -80.57 0.005428 -171.1
8.76472000 0.005430 -170.2 0.999981 -80.57 0.999981 -80.57 0.005430 -171.1
8.76474000 0.005431 -170.2 0.999981 -80.57 0.999981 -80.57 0.005431 -171.1
8.76476000 0.005432 -170.2 0.999981 -80.57 0.999981 -80.57 0.005432 -171.1
8.76478000 0.005433 -170.2 0.999981 -80.57 0.999981 -80.57 0.005433 -171.1
8.76480000 0.005435 -170.2 0.999981 -80.58 0.999981 -80.58 0.005435 -171.1
8.76482000 0.005436 -170.2 0.999981 -80.58 0.999981 -80.58 0.005436 -171.1
8.76484000 0.005437 -170.2 0.999981 -80.58 0.999981 -80.58 0.005437 -171.1
8.76486000 0.005438 -170.2 0.999981 -80.58 0.999981 -80.58 0.005438 -171.1
8.76488000 0.005440 -170.2 0.999981 -80.58 0.999981 -80.58 0.005440 -171.1
8.76490000 0.005441 -170.2 0.999981 -80.58 0.999981 -80.58 0.005441 -171.1
8.76492000 0.005442 -170.2 0.999981 -80.58 0.999981 -80.58 0.005442 -171.1
8.76494000 0.005443 -170.2 0.999981 -80.58 0.999981 -80.58 0.005443 -171.1
8.76496000 0.005445 -170.2 0.999981 -80.58 0.999981 -80.58 0.005445 -171.1
8.76498000 0.005446 -170.2 0.999981 -80.58 0.999981 -80.58 0.005446 -171.1
8.76500000 0.005447 -170.2 0.999981 -80.58 0.999981 -80.58 0.005447 -171.1
8.76502000 0.005448 -170.2 0.999981 -80.58 0.999981 -80.58 0.005448 -171.1
8.76504000 0.005450 -170.2 0.999981 -80.58 0.999981 -80.58 0.005450 -171.1
8.76506000 0.005451 -170.2 0.999981 -80.58 0.999981 -80.58 0.005451 -171.1
8.76508000 0.005452 -170.2 0.999981 -80.58 0.999981 -80.58 0.005452 -171.1
8.76510000 0.005453 -170.2 0.999981 -80.58 0.999981 -80.58 0.005453 -171.1
8.76512000 0.005455 -170.2 0.999981 -80.58 0.999981 -80.58 0.005455 -171.1
8.76514000 0.005456 -170.2 0.999981 -80.58 0.999981 -80.58 0.005456 -171.1
8.76516000 0.005457 -170.2 0.999981 -80.58 0.999981 -80.58 0.005457 -171.1
8.76518000 0.005458 -170.2 0.999981 -80.58 0.999981 -80.58 0.005458 -171.1
8.76520000 0.005460 -170.2 0.999981 -80.58 0.999981 -80.58 0.005460 -171.1
8.76522000 0.005461 -170.2 0.999981 -80.58 0.999981 -80.58 0.005461 -171.1
8.76524000 0.005462 -170.2 0.999981 -80.58 0.999981 -80.58 0.005462 -171.1
8.76526000 0.005464 -170.2 0.999981 -80.58 0.999981 -80.58 0.005464 -171.1
8.76528000 0.005465 -170.2 0.999981 -80.58 0.999981 -80.58 0.005465 -171.1
8.76530000 0.005466 -170.2 0.999981 -80.58 0.999981 -80.58 0.005466 -171.1
8.76532000 0.005467 -170.2 0.999981 -80.58 0.999981 -80.58 0.005467 -171.1
8.76534000 0.005469 -170.2 0.999981 -80.58 0.999981 -80.58 0.005469 -171.1
8.76536000 0.005470 -170.2 0.999981 -80.58 0.999981 -80.58 0.005470 -171.1
8.76538000 0.005471 -170.2 0.999981 -80.58 0.999981 -80.58 0.005471 -171.1
8.76540000 0.005473 -170.2 0.999981 -80.58 0.999981 -80.58 0.005473 -171.1
8.76542000 0.005474 -170.2 0.999981 -80.58 0.999981 -80.58 0.005474 -171.1
8.76544000 0.005475 -170.2 0.999981 -80.58 0.999981 -80.58 0.005475 -171.1
8.76546000 0.005476 -170.2 0.999981 -80.58 0.999981 -80.58 0.005476 -171.1
8.76548000 0.005478 -170.2 0.999981 -80.58 0.999981 -80.58 0.005478 -171.1
8.76550000 0.005479 -170.2 0.999981 -80.58 0.999981 -80.58 0.005479 -171.1
8.76552000 0.005480 -170.2 0.999981 -80.58 0.999981 -80.58 0.005480 -171.1
8.76554000 0.005482 -170.2 0.999981 -80.58 0.999981 -80.58 0.005482 -171.1
8.76556000 0.005483 -170.2 0.999981 -80.58 0.999981 -80.58 0.005483 -171.1
8.76558000 0.005484 -170.2 0.999981 -80.59 0.999981 -80.59 0.005484 -171.1
8.76560000 0.005486 -170.2 0.999981 -80.59 0.999981 -80.59 0.005486 -171.1
8.76562000 0.005487 -170.2 0.999981 -80.59 0.999981 -80.59 0.005487 -171.1
8.76564000 0.005488 -170.2 0.999981 -80.59 0.999981 -80.59 0.005488 -171.1
8.76566000 0.005489 -170.2 0.999980 -80.59 0.999980 -80.59 0.005489 -171.1
8.76568000 0.005491 -170.2 0.999980 -80.59 0.999980 -80.59 0.005491 -171.1
8.76570000 0.005492 -170.2 0.999980 -80.59 0.999980 -80.59 0.005492 -171.1
8.76572000 0.005493 -170.2 0.999980 -80.59 0.999980 -80.59 0.005493 -171.1
8.76574000 0.005495 -170.2 0.999980 -80.59 0.999980 -80.59 0.005495 -171.1
8.76576000 0.005496 -170.2 0.999980 -80.59 0.999980 -80.59 0.005496 -171.1
8.76578000 0.005497 -170.2 0.999980 -80.59 0.999980 -80.59 0.005497 -171.1
8.76580000 0.005499 -170.2 0.999980 -80.59 0.999980 -80.59 0.005499 -171.1
8.76582000 0.005500 -170.2 0.999980 -80.59 0.999980 -80.59 0.005500 -171.1
8.76584000 0.005501 -170.2 0.999980 -80.59 0.999980 -80.59 0.005501 -171.1
8.76586000 0.005503 -170.2 0.999980 -80.59 0.999980 -80.59 0.005503 -171.1
8.76588000 0.005504 -170.2 0.999980 -80.59 0.999980 -80.59 0.005504 -171.1
8.76590000 0.005505 -170.2 0.999980 -80.59 0.999980 -80.59 0.005505 -171.1
8.76592000 0.005507 -170.2 0.999980 -80.59 0.999980 -80.59 0.005507 -171.1
8.76594000 0.005508 -170.2 0.999980 -80.59 0.999980 -80.59 0.005508 -171.1
8.76596000 0.005509 -170.2 0.999980 -80.59 0.999980 -80.59 0.005509 -171.1
8.76598000 0.005511 -170.2 0.999980 -80.59 0.999980 -80.59 0.005511 -171.1
8.76600000 0.005512 -170.2 0.999980 -80.59 0.999980 -80.59 0.005512 -171.1
8.76602000 0.005513 -170.2 0.999980 -80.59 0.999980 -80.59 0.005513 -171.1
8.76604000 0.005515 -170.2 0.999980 -80.59 0.999980 -80.59 0.005515 -171.1
8.76606000 0.005516 -170.2 0.999980 -80.59 0.999980 -80.59 0.005516 -171.1
8.76608000 0.005517 -170.2 0.999980 -80.59 0.999980 -80.59 0.005517 -171.1
8.76610000 0.005519 -170.2 0.999980 -80.59 0.999980 -80.59 0.005519 -171.1
8.76612000 0.005520 -170.2 0.999980 -80.59 0.999980 -80.59 0.005520 -171.1
8.76614000 0.005521 -170.2 0.999980 -80.59 0.999980 -80.59 0.005521 -171.1
8.76616000 0.005523 -170.2 0.999980 -80.59 0.999980 -80.59 0.005523 -171.1
8.76618000 0.005524 -170.2 0.999980 -80.59 0.999980 -80.59 0.005524 -171.1
8.76620000 0.005525 -170.2 0.999980 -80.59 0.999980 -80.59 0.005525 -171.1
8.76622000 0.005527 -170.2 0.999980 -80.59 0.999980 -80.59 0.005527 -171.1
8.76624000 0.005528 -170.2 0.999980 -80.59 0.999980 -80.59 0.005528 -171.1
8.76626000 0.005530 -170.2 0.999980 -80.59 0.999980 -80.59 0.005530 -171.1
8.76628000 0.005531 -170.2 0.999980 -80.59 0.999980 -80.59 0.005531 -171.1
8.76630000 0.005532 -170.2 0.999980 -80.59 0.999980 -80.59 0.005532 -171.1
8.76632000 0.005534 -170.2 0.999980 -80.59 0.999980 -80.59 0.005534 -171.1
8.76634000 0.005535 -170.2 0.999980 -80.59 0.999980 -80.59 0.005535 -171.1
8.76636000 0.005536 -170.2 0.999980 -80.60 0.999980 -80.60 0.005536 -171.1
8.76638000 0.005538 -170.2 0.999980 -80.60 0.999980 -80.60 0.005538 -171.1
8.76640000 0.005539 -170.2 0.999980 -80.60 0.999980 -80.60 0.005539 -171.1
8.76642000 0.005540 -170.2 0.999980 -80.60 0.999980 -80.60 0.005541 -171.1
8.76644000 0.005542 -170.2 0.999980 -80.60 0.999980 -80.60 0.005542 -171.1
8.76646000 0.005543 -170.2 0.999980 -80.60 0.999980 -80.60 0.005543 -171.1
8.76648000 0.005545 -170.2 0.999980 -80.60 0.999980 -80.60 0.005545 -171.1
8.76650000 0.005546 -170.2 0.999980 -80.60 0.999980 -80.60 0.005546 -171.1
8.76652000 0.005547 -170.2 0.999980 -80.60 0.999980 -80.60 0.005547 -171.1
8.76654000 0.005549 -170.2 0.999980 -80.60 0.999980 -80.60 0.005549 -171.1
8.76656000 0.005550 -170.2 0.999980 -80.60 0.999980 -80.60 0.005550 -171.1
8.76658000 0.005552 -170.2 0.999980 -80.60 0.999980 -80.60 0.005552 -171.1
8.76660000 0.005553 -170.2 0.999980 -80.60 0.999980 -80.60 0.005553 -171.1
8.76662000 0.005554 -170.2 0.999980 -80.60 0.999980 -80.60 0.005554 -171.1
8.76664000 0.005556 -170.2 0.999980 -80.60 0.999980 -80.60 0.005556 -171.1
8.76666000 0.005557 -170.2 0.999980 -80.60 0.999980 -80.60 0.005557 -171.1
8.76668000 0.005558 -170.2 0.999980 -80.60 0.999980 -80.60 0.005559 -171.1
8.76670000 0.005560 -170.2 0.999980 -80.60 0.999980 -80.60 0.005560 -171.1
8.76672000 0.005561 -170.2 0.999980 -80.60 0.999980 -80.60 0.005561 -171.1
8.76674000 0.005563 -170.2 0.999980 -80.60 0.999980 -80.60 0.005563 -171.1
8.76676000 0.005564 -170.2 0.999980 -80.60 0.999980 -80.60 0.005564 -171.1
8.76678000 0.005566 -170.2 0.999980 -80.60 0.999980 -80.60 0.005566 -171.1
8.76680000 0.005567 -170.2 0.999980 -80.60 0.999980 -80.60 0.005567 -171.1
8.76682000 0.005568 -170.2 0.999980 -80.60 0.999980 -80.60 0.005568 -171.1
8.76684000 0.005570 -170.2 0.999980 -80.60 0.999980 -80.60 0.005570 -171.1
8.76686000 0.005571 -170.2 0.999980 -80.60 0.999980 -80.60 0.005571 -171.1
8.76688000 0.005573 -170.2 0.999980 -80.60 0.999980 -80.60 0.005573 -171.1
8.76690000 0.005574 -170.2 0.999980 -80.60 0.999980 -80.60 0.005574 -171.1
8.76692000 0.005575 -170.2 0.999980 -80.60 0.999980 -80.60 0.005575 -171.1
8.76694000 0.005577 -170.2 0.999980 -80.60 0.999980 -80.60 0.005577 -171.1
8.76696000 0.005578 -170.2 0.999980 -80.60 0.999980 -80.60 0.005578 -171.1
8.76698000 0.005580 -170.2 0.999980 -80.60 0.999980 -80.60 0.005580 -171.1
8.76700000 0.005581 -170.2 0.999980 -80.60 0.999980 -80.60 0.005581 -171.1
8.76702000 0.005583 -170.2 0.999980 -80.60 0.999980 -80.60 0.005583 -171.1
8.76704000 0.005584 -170.2 0.999980 -80.60 0.999980 -80.60 0.005584 -171.1
8.76706000 0.005585 -170.2 0.999980 -80.60 0.999980 -80.60 0.005585 -171.1
8.76708000 0.005587 -170.2 0.999980 -80.60 0.999980 -80.60 0.005587 -171.1
8.76710000 0.005588 -170.2 0.999980 -80.60 0.999980 -80.60 0.005588 -171.1
8.76712000 0.005590 -170.2 0.999980 -80.61 0.999980 -80.61 0.005590 -171.1
8.76714000 0.005591 -170.2 0.999980 -80.61 0.999980 -80.61 0.005591 -171.1
8.76716000 0.005593 -170.2 0.999980 -80.61 0.999980 -80.61 0.005593 -171.1
8.76718000 0.005594 -170.2 0.999980 -80.61 0.999980 -80.61 0.005594 -171.1
8.76720000 0.005595 -170.2 0.999980 -80.61 0.999980 -80.61 0.005595 -171.1
8.76722000 0.005597 -170.2 0.999980 -80.61 0.999980 -80.61 0.005597 -171.1
8.76724000 0.005598 -170.2 0.999980 -80.61 0.999980 -80.61 0.005598 -171.1
8.76726000 0.005600 -170.2 0.999980 -80.61 0.999980 -80.61 0.005600 -171.1
8.76728000 0.005601 -170.2 0.999980 -80.61 0.999980 -80.61 0.005601 -171.1
8.76730000 0.005603 -170.2 0.999980 -80.61 0.999980 -80.61 0.005603 -171.1
8.76732000 0.005604 -170.2 0.999980 -80.61 0.999980 -80.61 0.005604 -171.1
8.76734000 0.005606 -170.2 0.999980 -80.61 0.999980 -80.61 0.005606 -171.1
8.76736000 0.005607 -170.2 0.999980 -80.61 0.999980 -80.61 0.005607 -171.1
8.76738000 0.005608 -170.2 0.999980 -80.61 0.999980 -80.61 0.005609 -171.1
8.76740000 0.005610 -170.2 0.999980 -80.61 0.999980 -80.61 0.005610 -171.1
8.76742000 0.005611 -170.2 0.999980 -80.61 0.999980 -80.61 0.005611 -171.1
8.76744000 0.005613 -170.2 0.999980 -80.61 0.999980 -80.61 0.005613 -171.1
8.76746000 0.005614 -170.2 0.999980 -80.61 0.999980 -80.61 0.005614 -171.1
8.76748000 0.005616 -170.2 0.999980 -80.61 0.999980 -80.61 0.005616 -171.1
8.76750000 0.005617 -170.2 0.999980 -80.61 0.999980 -80.61 0.005617 -171.1
8.76752000 0.005619 -170.2 0.999980 -80.61 0.999980 -80.61 0.005619 -171.1
8.76754000 0.005620 -170.2 0.999980 -80.61 0.999980 -80.61 0.005620 -171.1
8.76756000 0.005622 -170.2 0.999980 -80.61 0.999980 -80.61 0.005622 -171.1
8.76758000 0.005623 -170.2 0.999980 -80.61 0.999980 -80.61 0.005623 -171.1
8.76760000 0.005625 -170.2 0.999980 -80.61 0.999980 -80.61 0.005625 -171.1
8.76762000 0.005626 -170.2 0.999980 -80.61 0.999980 -80.61 0.005626 -171.1
8.76764000 0.005628 -170.2 0.999980 -80.61 0.999980 -80.61 0.005628 -171.1
8.76766000 0.005629 -170.2 0.999980 -80.61 0.999980 -80.61 0.005629 -171.1
8.76768000 0.005631 -170.2 0.999980 -80.61 0.999980 -80.61 0.005631 -171.1
8.76770000 0.005632 -170.2 0.999980 -80.61 0.999980 -80.61 0.005632 -171.1
8.76772000 0.005634 -170.2 0.999980 -80.61 0.999980 -80.61 0.005634 -171.1
8.76774000 0.005635 -170.2 0.999980 -80.61 0.999980 -80.61 0.005635 -171.1
8.76776000 0.005637 -170.2 0.999980 -80.61 0.999980 -80.61 0.005637 -171.1
8.76778000 0.005638 -170.2 0.999979 -80.61 0.999979 -80.61 0.005638 -171.1
8.76780000 0.005640 -170.2 0.999979 -80.61 0.999979 -80.61 0.005640 -171.1
8.76782000 0.005641 -170.2 0.999979 -80.61 0.999979 -80.61 0.005641 -171.1