! Sonnet Data File
! From: emgraph Version : 16.52
! From Project: Qubit_Xmon2_brg_para
! Data is De-embedded 
! Data File Written: 10/25/2017 15:52:26
!< HDATE 10/25/2017 13:56:11
!< MDATE 10/25/2017 13:56:11
!< PARAMS
!< Lj = 11.0
!< Gap = 6.0
!< Pwid = 2000.0
!< Airgap = 6.0
!< Width = 10.0
!< Bwid = 8.0
!< Dis1 = 550.0
!< Dis2 = 556.0
!< END PARAMS
# GHZ S MA R 51.80000
8.76000000 0.009861 -169.9 0.999932 -80.73 0.999932 -80.73 0.009861 -171.7
!< P1 F=8.76 Eeff=(6.44679147 -2.9786e-5) Z0=(51.7991429 1.19067e-4) R=0.0 C=0.0 
!< P2 F=8.76 Eeff=(6.44679147 -2.9786e-5) Z0=(51.7991429 1.19067e-4) R=0.0 C=0.0 
8.76002000 0.009879 -169.9 0.999932 -80.73 0.999932 -80.73 0.009879 -171.7
8.76004000 0.009896 -169.9 0.999931 -80.73 0.999931 -80.73 0.009896 -171.7
8.76006000 0.009914 -169.9 0.999931 -80.73 0.999931 -80.73 0.009914 -171.7
8.76008000 0.009932 -169.9 0.999931 -80.73 0.999931 -80.73 0.009932 -171.7
8.76010000 0.009951 -169.9 0.999930 -80.74 0.999930 -80.74 0.009951 -171.7
8.76012000 0.009969 -169.9 0.999930 -80.74 0.999930 -80.74 0.009969 -171.7
8.76014000 0.009987 -169.9 0.999930 -80.74 0.999930 -80.74 0.009987 -171.8
8.76016000 0.010005 -169.9 0.999930 -80.74 0.999930 -80.74 0.010005 -171.8
8.76018000 0.010024 -169.9 0.999929 -80.74 0.999929 -80.74 0.010024 -171.8
8.76020000 0.010042 -169.9 0.999929 -80.74 0.999929 -80.74 0.010042 -171.8
8.76022000 0.010061 -169.9 0.999929 -80.74 0.999929 -80.74 0.010061 -171.8
8.76024000 0.010080 -170.0 0.999929 -80.74 0.999929 -80.74 0.010080 -171.8
8.76026000 0.010098 -170.0 0.999928 -80.75 0.999928 -80.75 0.010098 -171.8
8.76028000 0.010117 -170.0 0.999928 -80.75 0.999928 -80.75 0.010117 -171.8
8.76030000 0.010136 -170.0 0.999928 -80.75 0.999928 -80.75 0.010136 -171.8
8.76032000 0.010155 -170.0 0.999928 -80.75 0.999928 -80.75 0.010155 -171.8
8.76034000 0.010174 -170.0 0.999927 -80.75 0.999927 -80.75 0.010174 -171.8
8.76036000 0.010194 -170.0 0.999927 -80.75 0.999927 -80.75 0.010194 -171.8
8.76038000 0.010213 -170.0 0.999927 -80.75 0.999927 -80.75 0.010213 -171.8
8.76040000 0.010232 -170.0 0.999926 -80.75 0.999926 -80.75 0.010232 -171.8
8.76042000 0.010252 -170.0 0.999926 -80.76 0.999926 -80.76 0.010252 -171.8
8.76044000 0.010272 -170.0 0.999926 -80.76 0.999926 -80.76 0.010272 -171.8
8.76046000 0.010291 -170.0 0.999926 -80.76 0.999926 -80.76 0.010291 -171.8
8.76048000 0.010311 -170.0 0.999925 -80.76 0.999925 -80.76 0.010311 -171.8
8.76050000 0.010331 -170.0 0.999925 -80.76 0.999925 -80.76 0.010331 -171.8
8.76052000 0.010351 -170.0 0.999925 -80.76 0.999925 -80.76 0.010351 -171.8
8.76054000 0.010371 -170.0 0.999924 -80.76 0.999924 -80.76 0.010371 -171.8
8.76056000 0.010391 -170.0 0.999924 -80.76 0.999924 -80.76 0.010391 -171.8
8.76058000 0.010411 -170.0 0.999924 -80.77 0.999924 -80.77 0.010411 -171.8
8.76060000 0.010432 -170.0 0.999923 -80.77 0.999923 -80.77 0.010432 -171.8
8.76062000 0.010452 -170.0 0.999923 -80.77 0.999923 -80.77 0.010452 -171.8
8.76064000 0.010473 -170.0 0.999923 -80.77 0.999923 -80.77 0.010473 -171.8
8.76066000 0.010494 -170.0 0.999923 -80.77 0.999923 -80.77 0.010494 -171.8
8.76068000 0.010514 -170.0 0.999922 -80.77 0.999922 -80.77 0.010514 -171.8
8.76070000 0.010535 -170.0 0.999922 -80.77 0.999922 -80.77 0.010535 -171.8
8.76072000 0.010556 -170.0 0.999922 -80.78 0.999922 -80.78 0.010556 -171.8
8.76074000 0.010577 -170.0 0.999921 -80.78 0.999921 -80.78 0.010577 -171.8
8.76076000 0.010599 -170.0 0.999921 -80.78 0.999921 -80.78 0.010599 -171.8
8.76078000 0.010620 -170.0 0.999921 -80.78 0.999921 -80.78 0.010620 -171.8
8.76080000 0.010641 -170.0 0.999920 -80.78 0.999920 -80.78 0.010641 -171.8
8.76082000 0.010663 -170.0 0.999920 -80.78 0.999920 -80.78 0.010663 -171.8
8.76084000 0.010684 -170.0 0.999920 -80.78 0.999920 -80.78 0.010684 -171.8
8.76086000 0.010706 -170.0 0.999919 -80.79 0.999919 -80.79 0.010706 -171.8
8.76088000 0.010728 -170.0 0.999919 -80.79 0.999919 -80.79 0.010728 -171.8
8.76090000 0.010750 -170.0 0.999919 -80.79 0.999919 -80.79 0.010750 -171.8
8.76092000 0.010772 -170.0 0.999918 -80.79 0.999918 -80.79 0.010772 -171.8
8.76094000 0.010794 -170.0 0.999918 -80.79 0.999918 -80.79 0.010794 -171.8
8.76096000 0.010816 -170.0 0.999918 -80.79 0.999918 -80.79 0.010816 -171.8
8.76098000 0.010839 -170.0 0.999917 -80.79 0.999917 -80.79 0.010839 -171.8
8.76100000 0.010861 -170.0 0.999917 -80.80 0.999917 -80.80 0.010861 -171.8
8.76102000 0.010884 -170.0 0.999917 -80.80 0.999917 -80.80 0.010884 -171.8
8.76104000 0.010907 -170.0 0.999916 -80.80 0.999916 -80.80 0.010907 -171.8
8.76106000 0.010930 -170.0 0.999916 -80.80 0.999916 -80.80 0.010930 -171.8
8.76108000 0.010953 -170.0 0.999915 -80.80 0.999915 -80.80 0.010953 -171.8
8.76110000 0.010976 -170.0 0.999915 -80.80 0.999915 -80.80 0.010976 -171.8
8.76112000 0.010999 -170.0 0.999915 -80.80 0.999915 -80.80 0.010999 -171.8
8.76114000 0.011022 -170.0 0.999914 -80.81 0.999914 -80.81 0.011022 -171.8
8.76116000 0.011046 -170.0 0.999914 -80.81 0.999914 -80.81 0.011046 -171.9
8.76118000 0.011069 -170.0 0.999914 -80.81 0.999914 -80.81 0.011069 -171.9
8.76120000 0.011093 -170.0 0.999913 -80.81 0.999913 -80.81 0.011093 -171.9
8.76122000 0.011117 -170.0 0.999913 -80.81 0.999913 -80.81 0.011117 -171.9
8.76124000 0.011141 -170.0 0.999912 -80.81 0.999912 -80.81 0.011141 -171.9
8.76126000 0.011165 -170.0 0.999912 -80.82 0.999912 -80.82 0.011165 -171.9
8.76128000 0.011189 -170.0 0.999912 -80.82 0.999912 -80.82 0.011189 -171.9
8.76130000 0.011214 -170.0 0.999911 -80.82 0.999911 -80.82 0.011214 -171.9
8.76132000 0.011238 -170.0 0.999911 -80.82 0.999911 -80.82 0.011238 -171.9
8.76134000 0.011263 -170.0 0.999911 -80.82 0.999911 -80.82 0.011263 -171.9
8.76136000 0.011287 -170.0 0.999910 -80.82 0.999910 -80.82 0.011287 -171.9
8.76138000 0.011312 -170.0 0.999910 -80.83 0.999910 -80.83 0.011312 -171.9
8.76140000 0.011337 -170.0 0.999909 -80.83 0.999909 -80.83 0.011337 -171.9
8.76142000 0.011362 -170.0 0.999909 -80.83 0.999909 -80.83 0.011362 -171.9
8.76144000 0.011388 -170.0 0.999908 -80.83 0.999908 -80.83 0.011388 -171.9
8.76146000 0.011413 -170.0 0.999908 -80.83 0.999908 -80.83 0.011413 -171.9
8.76148000 0.011439 -170.0 0.999908 -80.83 0.999908 -80.83 0.011439 -171.9
8.76150000 0.011464 -170.0 0.999907 -80.84 0.999907 -80.84 0.011464 -171.9
8.76152000 0.011490 -170.0 0.999907 -80.84 0.999907 -80.84 0.011490 -171.9
8.76154000 0.011516 -170.0 0.999906 -80.84 0.999906 -80.84 0.011516 -171.9
8.76156000 0.011542 -170.0 0.999906 -80.84 0.999906 -80.84 0.011542 -171.9
8.76158000 0.011569 -170.0 0.999905 -80.84 0.999905 -80.84 0.011569 -171.9
8.76160000 0.011595 -170.1 0.999905 -80.84 0.999905 -80.84 0.011595 -171.9
8.76162000 0.011622 -170.1 0.999905 -80.85 0.999905 -80.85 0.011622 -171.9
8.76164000 0.011648 -170.1 0.999904 -80.85 0.999904 -80.85 0.011648 -171.9
8.76166000 0.011675 -170.1 0.999904 -80.85 0.999904 -80.85 0.011675 -171.9
8.76168000 0.011702 -170.1 0.999903 -80.85 0.999903 -80.85 0.011702 -171.9
8.76170000 0.011729 -170.1 0.999903 -80.85 0.999903 -80.85 0.011729 -171.9
8.76172000 0.011757 -170.1 0.999902 -80.85 0.999902 -80.85 0.011757 -171.9
8.76174000 0.011784 -170.1 0.999902 -80.86 0.999902 -80.86 0.011784 -171.9
8.76176000 0.011812 -170.1 0.999901 -80.86 0.999901 -80.86 0.011812 -171.9
8.76178000 0.011840 -170.1 0.999901 -80.86 0.999901 -80.86 0.011840 -171.9
8.76180000 0.011868 -170.1 0.999900 -80.86 0.999900 -80.86 0.011868 -171.9
8.76182000 0.011896 -170.1 0.999900 -80.86 0.999900 -80.86 0.011896 -171.9
8.76184000 0.011924 -170.1 0.999899 -80.86 0.999899 -80.86 0.011924 -171.9
8.76186000 0.011952 -170.1 0.999899 -80.87 0.999899 -80.87 0.011952 -171.9
8.76188000 0.011981 -170.1 0.999898 -80.87 0.999898 -80.87 0.011981 -171.9
8.76190000 0.012010 -170.1 0.999898 -80.87 0.999898 -80.87 0.012010 -171.9
8.76192000 0.012039 -170.1 0.999897 -80.87 0.999897 -80.87 0.012039 -171.9
8.76194000 0.012068 -170.1 0.999897 -80.87 0.999897 -80.87 0.012068 -171.9
8.76196000 0.012097 -170.1 0.999896 -80.88 0.999896 -80.88 0.012097 -171.9
8.76198000 0.012127 -170.1 0.999896 -80.88 0.999896 -80.88 0.012126 -171.9
8.76200000 0.012156 -170.1 0.999895 -80.88 0.999895 -80.88 0.012156 -172.0
8.76202000 0.012186 -170.1 0.999895 -80.88 0.999895 -80.88 0.012186 -172.0
8.76204000 0.012216 -170.1 0.999894 -80.88 0.999894 -80.88 0.012216 -172.0
8.76206000 0.012246 -170.1 0.999894 -80.89 0.999894 -80.89 0.012246 -172.0
8.76208000 0.012276 -170.1 0.999893 -80.89 0.999893 -80.89 0.012276 -172.0
8.76210000 0.012307 -170.1 0.999893 -80.89 0.999893 -80.89 0.012307 -172.0
8.76212000 0.012338 -170.1 0.999892 -80.89 0.999892 -80.89 0.012338 -172.0
8.76214000 0.012368 -170.1 0.999892 -80.89 0.999892 -80.89 0.012368 -172.0
8.76216000 0.012400 -170.1 0.999891 -80.89 0.999891 -80.89 0.012399 -172.0
8.76218000 0.012431 -170.1 0.999891 -80.90 0.999891 -80.90 0.012431 -172.0
8.76220000 0.012462 -170.1 0.999890 -80.90 0.999890 -80.90 0.012462 -172.0
8.76222000 0.012494 -170.1 0.999889 -80.90 0.999889 -80.90 0.012494 -172.0
8.76224000 0.012526 -170.1 0.999889 -80.90 0.999889 -80.90 0.012526 -172.0
8.76226000 0.012558 -170.1 0.999888 -80.90 0.999888 -80.90 0.012558 -172.0
8.76228000 0.012590 -170.1 0.999888 -80.91 0.999888 -80.91 0.012590 -172.0
8.76230000 0.012622 -170.1 0.999887 -80.91 0.999887 -80.91 0.012622 -172.0
8.76232000 0.012655 -170.1 0.999886 -80.91 0.999886 -80.91 0.012655 -172.0
8.76234000 0.012688 -170.1 0.999886 -80.91 0.999886 -80.91 0.012688 -172.0
8.76236000 0.012721 -170.1 0.999885 -80.91 0.999885 -80.91 0.012721 -172.0
8.76238000 0.012754 -170.1 0.999885 -80.92 0.999885 -80.92 0.012754 -172.0
8.76240000 0.012787 -170.1 0.999884 -80.92 0.999884 -80.92 0.012787 -172.0
8.76242000 0.012821 -170.1 0.999883 -80.92 0.999883 -80.92 0.012821 -172.0
8.76244000 0.012855 -170.1 0.999883 -80.92 0.999883 -80.92 0.012855 -172.0
8.76246000 0.012889 -170.1 0.999882 -80.93 0.999882 -80.93 0.012889 -172.0
8.76248000 0.012923 -170.1 0.999881 -80.93 0.999881 -80.93 0.012923 -172.0
8.76250000 0.012958 -170.1 0.999881 -80.93 0.999881 -80.93 0.012958 -172.0
8.76252000 0.012992 -170.1 0.999880 -80.93 0.999880 -80.93 0.012992 -172.0
8.76254000 0.013027 -170.1 0.999880 -80.93 0.999880 -80.93 0.013027 -172.0
8.76256000 0.013063 -170.1 0.999879 -80.94 0.999879 -80.94 0.013062 -172.0
8.76258000 0.013098 -170.2 0.999878 -80.94 0.999878 -80.94 0.013098 -172.0
8.76260000 0.013134 -170.2 0.999877 -80.94 0.999877 -80.94 0.013133 -172.0
8.76262000 0.013169 -170.2 0.999877 -80.94 0.999877 -80.94 0.013169 -172.0
8.76264000 0.013205 -170.2 0.999876 -80.95 0.999876 -80.95 0.013205 -172.0
8.76266000 0.013242 -170.2 0.999875 -80.95 0.999875 -80.95 0.013242 -172.0
8.76268000 0.013278 -170.2 0.999875 -80.95 0.999875 -80.95 0.013278 -172.0
8.76270000 0.013315 -170.2 0.999874 -80.95 0.999874 -80.95 0.013315 -172.1
8.76272000 0.013352 -170.2 0.999873 -80.95 0.999873 -80.95 0.013352 -172.1
8.76274000 0.013389 -170.2 0.999873 -80.96 0.999873 -80.96 0.013389 -172.1
8.76276000 0.013427 -170.2 0.999872 -80.96 0.999872 -80.96 0.013427 -172.1
8.76278000 0.013465 -170.2 0.999871 -80.96 0.999871 -80.96 0.013465 -172.1
8.76280000 0.013503 -170.2 0.999870 -80.96 0.999870 -80.96 0.013503 -172.1
8.76282000 0.013541 -170.2 0.999870 -80.97 0.999870 -80.97 0.013541 -172.1
8.76284000 0.013580 -170.2 0.999869 -80.97 0.999869 -80.97 0.013579 -172.1
8.76286000 0.013618 -170.2 0.999868 -80.97 0.999868 -80.97 0.013618 -172.1
8.76288000 0.013657 -170.2 0.999867 -80.97 0.999867 -80.97 0.013657 -172.1
8.76290000 0.013697 -170.2 0.999866 -80.98 0.999866 -80.98 0.013697 -172.1
8.76292000 0.013736 -170.2 0.999866 -80.98 0.999866 -80.98 0.013736 -172.1
8.76294000 0.013776 -170.2 0.999865 -80.98 0.999865 -80.98 0.013776 -172.1
8.76296000 0.013816 -170.2 0.999864 -80.98 0.999864 -80.98 0.013816 -172.1
8.76298000 0.013857 -170.2 0.999863 -80.99 0.999863 -80.99 0.013857 -172.1
8.76300000 0.013897 -170.2 0.999862 -80.99 0.999862 -80.99 0.013897 -172.1
8.76302000 0.013938 -170.2 0.999862 -80.99 0.999862 -80.99 0.013938 -172.1
8.76304000 0.013980 -170.2 0.999861 -80.99 0.999861 -80.99 0.013980 -172.1
8.76306000 0.014021 -170.2 0.999860 -81.00 0.999860 -81.00 0.014021 -172.1
8.76308000 0.014063 -170.2 0.999859 -81.00 0.999859 -81.00 0.014063 -172.1
8.76310000 0.014105 -170.2 0.999858 -81.00 0.999858 -81.00 0.014105 -172.1
8.76312000 0.014148 -170.2 0.999857 -81.00 0.999857 -81.00 0.014148 -172.1
8.76314000 0.014190 -170.2 0.999856 -81.01 0.999856 -81.01 0.014190 -172.1
8.76316000 0.014233 -170.2 0.999856 -81.01 0.999856 -81.01 0.014233 -172.1
8.76318000 0.014277 -170.2 0.999855 -81.01 0.999855 -81.01 0.014277 -172.1
8.76320000 0.014320 -170.2 0.999854 -81.01 0.999854 -81.01 0.014320 -172.1
8.76322000 0.014364 -170.2 0.999853 -81.02 0.999853 -81.02 0.014364 -172.1
8.76324000 0.014409 -170.2 0.999852 -81.02 0.999852 -81.02 0.014408 -172.1
8.76326000 0.014453 -170.2 0.999851 -81.02 0.999851 -81.02 0.014453 -172.1
8.76328000 0.014498 -170.2 0.999850 -81.03 0.999850 -81.03 0.014498 -172.1
8.76330000 0.014543 -170.3 0.999849 -81.03 0.999849 -81.03 0.014543 -172.2
8.76332000 0.014589 -170.3 0.999848 -81.03 0.999848 -81.03 0.014589 -172.2
8.76334000 0.014635 -170.3 0.999847 -81.03 0.999847 -81.03 0.014635 -172.2
8.76336000 0.014681 -170.3 0.999846 -81.04 0.999846 -81.04 0.014681 -172.2
8.76338000 0.014728 -170.3 0.999845 -81.04 0.999845 -81.04 0.014727 -172.2
8.76340000 0.014775 -170.3 0.999844 -81.04 0.999844 -81.04 0.014774 -172.2
8.76342000 0.014822 -170.3 0.999843 -81.05 0.999843 -81.05 0.014822 -172.2
8.76344000 0.014869 -170.3 0.999842 -81.05 0.999842 -81.05 0.014869 -172.2
8.76346000 0.014917 -170.3 0.999841 -81.05 0.999841 -81.05 0.014917 -172.2
8.76348000 0.014966 -170.3 0.999840 -81.05 0.999840 -81.05 0.014966 -172.2
8.76350000 0.015014 -170.3 0.999839 -81.06 0.999839 -81.06 0.015014 -172.2
8.76352000 0.015064 -170.3 0.999838 -81.06 0.999838 -81.06 0.015063 -172.2
8.76354000 0.015113 -170.3 0.999837 -81.06 0.999837 -81.06 0.015113 -172.2
8.76356000 0.015163 -170.3 0.999836 -81.07 0.999836 -81.07 0.015163 -172.2
8.76358000 0.015213 -170.3 0.999834 -81.07 0.999834 -81.07 0.015213 -172.2
8.76360000 0.015264 -170.3 0.999833 -81.07 0.999833 -81.07 0.015264 -172.2
8.76362000 0.015315 -170.3 0.999832 -81.08 0.999832 -81.08 0.015315 -172.2
8.76364000 0.015366 -170.3 0.999831 -81.08 0.999831 -81.08 0.015366 -172.2
8.76366000 0.015418 -170.3 0.999830 -81.08 0.999830 -81.08 0.015418 -172.2
8.76368000 0.015470 -170.3 0.999829 -81.08 0.999829 -81.08 0.015470 -172.2
8.76370000 0.015523 -170.3 0.999827 -81.09 0.999827 -81.09 0.015523 -172.2
8.76372000 0.015576 -170.3 0.999826 -81.09 0.999826 -81.09 0.015576 -172.2
8.76374000 0.015629 -170.3 0.999825 -81.09 0.999825 -81.09 0.015629 -172.2
8.76376000 0.015683 -170.3 0.999824 -81.10 0.999824 -81.10 0.015683 -172.2
8.76378000 0.015737 -170.3 0.999823 -81.10 0.999823 -81.10 0.015737 -172.3
8.76380000 0.015792 -170.3 0.999821 -81.10 0.999821 -81.10 0.015792 -172.3
8.76382000 0.015847 -170.3 0.999820 -81.11 0.999820 -81.11 0.015847 -172.3
8.76384000 0.015903 -170.3 0.999819 -81.11 0.999819 -81.11 0.015903 -172.3
8.76386000 0.015959 -170.3 0.999817 -81.11 0.999817 -81.11 0.015959 -172.3
8.76388000 0.016015 -170.4 0.999816 -81.12 0.999816 -81.12 0.016015 -172.3
8.76390000 0.016072 -170.4 0.999815 -81.12 0.999815 -81.12 0.016072 -172.3
8.76392000 0.016130 -170.4 0.999813 -81.12 0.999813 -81.12 0.016130 -172.3
8.76394000 0.016188 -170.4 0.999812 -81.13 0.999812 -81.13 0.016187 -172.3
8.76396000 0.016246 -170.4 0.999811 -81.13 0.999811 -81.13 0.016246 -172.3
8.76398000 0.016305 -170.4 0.999809 -81.14 0.999809 -81.14 0.016305 -172.3
8.76400000 0.016364 -170.4 0.999808 -81.14 0.999808 -81.14 0.016364 -172.3
8.76402000 0.016424 -170.4 0.999806 -81.14 0.999806 -81.14 0.016424 -172.3
8.76404000 0.016484 -170.4 0.999805 -81.15 0.999805 -81.15 0.016484 -172.3
8.76406000 0.016545 -170.4 0.999803 -81.15 0.999803 -81.15 0.016545 -172.3
8.76408000 0.016607 -170.4 0.999802 -81.15 0.999802 -81.15 0.016607 -172.3
8.76410000 0.016669 -170.4 0.999800 -81.16 0.999800 -81.16 0.016669 -172.3
8.76412000 0.016731 -170.4 0.999799 -81.16 0.999799 -81.16 0.016731 -172.3
8.76414000 0.016794 -170.4 0.999797 -81.16 0.999797 -81.16 0.016794 -172.3
8.76416000 0.016858 -170.4 0.999796 -81.17 0.999796 -81.17 0.016857 -172.3
8.76418000 0.016922 -170.4 0.999794 -81.17 0.999794 -81.17 0.016922 -172.3
8.76420000 0.016986 -170.4 0.999792 -81.18 0.999792 -81.18 0.016986 -172.4
8.76422000 0.017051 -170.4 0.999791 -81.18 0.999791 -81.18 0.017051 -172.4
8.76424000 0.017117 -170.4 0.999789 -81.18 0.999789 -81.18 0.017117 -172.4
8.76426000 0.017184 -170.4 0.999787 -81.19 0.999787 -81.19 0.017183 -172.4
8.76428000 0.017251 -170.4 0.999786 -81.19 0.999786 -81.19 0.017250 -172.4
8.76430000 0.017318 -170.4 0.999784 -81.20 0.999784 -81.20 0.017318 -172.4
8.76432000 0.017386 -170.4 0.999782 -81.20 0.999782 -81.20 0.017386 -172.4
8.76434000 0.017455 -170.5 0.999781 -81.20 0.999781 -81.20 0.017455 -172.4
8.76436000 0.017524 -170.5 0.999779 -81.21 0.999779 -81.21 0.017524 -172.4
8.76438000 0.017594 -170.5 0.999777 -81.21 0.999777 -81.21 0.017594 -172.4
8.76440000 0.017665 -170.5 0.999775 -81.22 0.999775 -81.22 0.017665 -172.4
8.76442000 0.017736 -170.5 0.999773 -81.22 0.999773 -81.22 0.017736 -172.4
8.76444000 0.017808 -170.5 0.999771 -81.23 0.999771 -81.23 0.017808 -172.4
8.76446000 0.017881 -170.5 0.999769 -81.23 0.999769 -81.23 0.017881 -172.4
8.76448000 0.017954 -170.5 0.999768 -81.23 0.999768 -81.23 0.017954 -172.4
8.76450000 0.018028 -170.5 0.999766 -81.24 0.999766 -81.24 0.018028 -172.4
8.76452000 0.018103 -170.5 0.999764 -81.24 0.999764 -81.24 0.018102 -172.4
8.76454000 0.018178 -170.5 0.999762 -81.25 0.999762 -81.25 0.018178 -172.4
8.76456000 0.018254 -170.5 0.999759 -81.25 0.999759 -81.25 0.018254 -172.5
8.76458000 0.018331 -170.5 0.999757 -81.26 0.999757 -81.26 0.018331 -172.5
8.76460000 0.018408 -170.5 0.999755 -81.26 0.999755 -81.26 0.018408 -172.5
8.76462000 0.018486 -170.5 0.999753 -81.27 0.999753 -81.27 0.018486 -172.5
8.76464000 0.018565 -170.5 0.999751 -81.27 0.999751 -81.27 0.018565 -172.5
8.76466000 0.018645 -170.5 0.999749 -81.28 0.999749 -81.28 0.018645 -172.5
8.76468000 0.018726 -170.5 0.999747 -81.28 0.999747 -81.28 0.018725 -172.5
8.76470000 0.018807 -170.5 0.999744 -81.29 0.999744 -81.29 0.018807 -172.5
8.76472000 0.018889 -170.6 0.999742 -81.29 0.999742 -81.29 0.018889 -172.5
8.76474000 0.018972 -170.6 0.999740 -81.29 0.999740 -81.29 0.018972 -172.5
8.76476000 0.019056 -170.6 0.999737 -81.30 0.999737 -81.30 0.019056 -172.5
8.76478000 0.019140 -170.6 0.999735 -81.30 0.999735 -81.30 0.019140 -172.5
8.76480000 0.019226 -170.6 0.999733 -81.31 0.999733 -81.31 0.019226 -172.5
8.76482000 0.019312 -170.6 0.999730 -81.32 0.999730 -81.32 0.019312 -172.5
8.76484000 0.019399 -170.6 0.999728 -81.32 0.999728 -81.32 0.019399 -172.5
8.76486000 0.019487 -170.6 0.999725 -81.33 0.999725 -81.33 0.019487 -172.6
8.76488000 0.019576 -170.6 0.999722 -81.33 0.999722 -81.33 0.019576 -172.6
8.76490000 0.019666 -170.6 0.999720 -81.34 0.999720 -81.34 0.019666 -172.6
8.76492000 0.019757 -170.6 0.999717 -81.34 0.999717 -81.34 0.019757 -172.6
8.76494000 0.019848 -170.6 0.999714 -81.35 0.999714 -81.35 0.019848 -172.6
8.76496000 0.019941 -170.6 0.999712 -81.35 0.999712 -81.35 0.019941 -172.6
8.76498000 0.020035 -170.6 0.999709 -81.36 0.999709 -81.36 0.020034 -172.6
8.76500000 0.020129 -170.6 0.999706 -81.36 0.999706 -81.36 0.020129 -172.6
8.76502000 0.020225 -170.6 0.999703 -81.37 0.999703 -81.37 0.020225 -172.6
8.76504000 0.020322 -170.7 0.999700 -81.38 0.999700 -81.38 0.020321 -172.6
8.76506000 0.020419 -170.7 0.999697 -81.38 0.999697 -81.38 0.020419 -172.6
8.76508000 0.020518 -170.7 0.999694 -81.39 0.999694 -81.39 0.020518 -172.6
8.76510000 0.020618 -170.7 0.999691 -81.39 0.999691 -81.39 0.020618 -172.6
8.76512000 0.020719 -170.7 0.999688 -81.40 0.999688 -81.40 0.020718 -172.6
8.76514000 0.020821 -170.7 0.999685 -81.40 0.999685 -81.40 0.020820 -172.7
8.76516000 0.020924 -170.7 0.999682 -81.41 0.999682 -81.41 0.020923 -172.7
8.76518000 0.021028 -170.7 0.999679 -81.42 0.999679 -81.42 0.021028 -172.7
8.76520000 0.021133 -170.7 0.999675 -81.42 0.999675 -81.42 0.021133 -172.7
8.76522000 0.021240 -170.7 0.999672 -81.43 0.999672 -81.43 0.021240 -172.7
8.76524000 0.021348 -170.7 0.999669 -81.44 0.999669 -81.44 0.021347 -172.7
8.76526000 0.021457 -170.7 0.999665 -81.44 0.999665 -81.44 0.021456 -172.7
8.76528000 0.021567 -170.7 0.999662 -81.45 0.999662 -81.45 0.021567 -172.7
8.76530000 0.021678 -170.7 0.999658 -81.46 0.999658 -81.46 0.021678 -172.7
8.76532000 0.021791 -170.8 0.999654 -81.46 0.999654 -81.46 0.021791 -172.7
8.76534000 0.021905 -170.8 0.999651 -81.47 0.999651 -81.47 0.021905 -172.7
8.76536000 0.022020 -170.8 0.999647 -81.48 0.999647 -81.48 0.022020 -172.7
8.76538000 0.022137 -170.8 0.999643 -81.48 0.999643 -81.48 0.022137 -172.8
8.76540000 0.022255 -170.8 0.999639 -81.49 0.999639 -81.49 0.022255 -172.8
8.76542000 0.022375 -170.8 0.999635 -81.50 0.999635 -81.50 0.022375 -172.8
8.76544000 0.022496 -170.8 0.999631 -81.50 0.999631 -81.50 0.022496 -172.8
8.76546000 0.022618 -170.8 0.999627 -81.51 0.999627 -81.51 0.022618 -172.8
8.76548000 0.022742 -170.8 0.999623 -81.52 0.999623 -81.52 0.022742 -172.8
8.76550000 0.022867 -170.8 0.999619 -81.53 0.999619 -81.53 0.022867 -172.8
8.76552000 0.022994 -170.8 0.999614 -81.53 0.999614 -81.53 0.022994 -172.8
8.76554000 0.023123 -170.9 0.999610 -81.54 0.999610 -81.54 0.023122 -172.8
8.76556000 0.023253 -170.9 0.999605 -81.55 0.999605 -81.55 0.023252 -172.8
8.76558000 0.023384 -170.9 0.999601 -81.56 0.999601 -81.56 0.023384 -172.9
8.76560000 0.023518 -170.9 0.999596 -81.56 0.999596 -81.56 0.023517 -172.9
8.76562000 0.023653 -170.9 0.999591 -81.57 0.999591 -81.57 0.023652 -172.9
8.76564000 0.023789 -170.9 0.999587 -81.58 0.999587 -81.58 0.023789 -172.9
8.76566000 0.023928 -170.9 0.999582 -81.59 0.999582 -81.59 0.023927 -172.9
8.76568000 0.024068 -170.9 0.999577 -81.60 0.999577 -81.60 0.024068 -172.9
8.76570000 0.024210 -170.9 0.999571 -81.60 0.999571 -81.60 0.024210 -172.9
8.76572000 0.024354 -170.9 0.999566 -81.61 0.999566 -81.61 0.024353 -172.9
8.76574000 0.024499 -170.9 0.999561 -81.62 0.999561 -81.62 0.024499 -172.9
8.76576000 0.024647 -171.0 0.999555 -81.63 0.999555 -81.63 0.024647 -172.9
8.76578000 0.024797 -171.0 0.999550 -81.64 0.999550 -81.64 0.024796 -173.0
8.76580000 0.024948 -171.0 0.999544 -81.65 0.999544 -81.65 0.024948 -173.0
8.76582000 0.025102 -171.0 0.999539 -81.66 0.999539 -81.66 0.025101 -173.0
8.76584000 0.025257 -171.0 0.999533 -81.67 0.999533 -81.67 0.025257 -173.0
8.76586000 0.025415 -171.0 0.999527 -81.67 0.999527 -81.67 0.025415 -173.0
8.76588000 0.025575 -171.0 0.999521 -81.68 0.999521 -81.68 0.025575 -173.0
8.76590000 0.025737 -171.0 0.999514 -81.69 0.999514 -81.69 0.025737 -173.0
8.76592000 0.025902 -171.0 0.999508 -81.70 0.999508 -81.70 0.025901 -173.0
8.76594000 0.026068 -171.1 0.999502 -81.71 0.999502 -81.71 0.026068 -173.1
8.76596000 0.026237 -171.1 0.999495 -81.72 0.999495 -81.72 0.026237 -173.1
8.76598000 0.026409 -171.1 0.999488 -81.73 0.999488 -81.73 0.026409 -173.1
8.76600000 0.026583 -171.1 0.999481 -81.74 0.999481 -81.74 0.026583 -173.1
8.76602000 0.026759 -171.1 0.999474 -81.75 0.999474 -81.75 0.026759 -173.1
8.76604000 0.026938 -171.1 0.999467 -81.76 0.999467 -81.76 0.026938 -173.1
8.76606000 0.027120 -171.1 0.999460 -81.77 0.999460 -81.77 0.027120 -173.1
8.76608000 0.027304 -171.1 0.999452 -81.78 0.999452 -81.78 0.027304 -173.2
8.76610000 0.027491 -171.2 0.999444 -81.80 0.999444 -81.80 0.027491 -173.2
8.76612000 0.027681 -171.2 0.999437 -81.81 0.999437 -81.81 0.027680 -173.2
8.76614000 0.027873 -171.2 0.999429 -81.82 0.999429 -81.82 0.027873 -173.2
8.76616000 0.028069 -171.2 0.999420 -81.83 0.999420 -81.83 0.028069 -173.2
8.76618000 0.028267 -171.2 0.999412 -81.84 0.999412 -81.84 0.028267 -173.2
8.76620000 0.028469 -171.2 0.999403 -81.85 0.999403 -81.85 0.028469 -173.2
8.76622000 0.028674 -171.2 0.999395 -81.86 0.999395 -81.86 0.028673 -173.3
8.76624000 0.028882 -171.3 0.999386 -81.88 0.999386 -81.88 0.028881 -173.3
8.76626000 0.029093 -171.3 0.999376 -81.89 0.999376 -81.89 0.029092 -173.3
8.76628000 0.029307 -171.3 0.999367 -81.90 0.999367 -81.90 0.029307 -173.3
8.76630000 0.029525 -171.3 0.999357 -81.91 0.999357 -81.91 0.029525 -173.3
8.76632000 0.029747 -171.3 0.999348 -81.93 0.999348 -81.93 0.029746 -173.3
8.76634000 0.029972 -171.3 0.999337 -81.94 0.999337 -81.94 0.029971 -173.4
8.76636000 0.030200 -171.4 0.999327 -81.95 0.999327 -81.95 0.030200 -173.4
8.76638000 0.030433 -171.4 0.999317 -81.97 0.999317 -81.97 0.030432 -173.4
8.76640000 0.030669 -171.4 0.999306 -81.98 0.999306 -81.98 0.030669 -173.4
8.76642000 0.030909 -171.4 0.999295 -81.99 0.999295 -81.99 0.030909 -173.4
8.76644000 0.031154 -171.4 0.999283 -82.01 0.999283 -82.01 0.031154 -173.4
8.76646000 0.031402 -171.4 0.999271 -82.02 0.999271 -82.02 0.031402 -173.5
8.76648000 0.031655 -171.5 0.999259 -82.04 0.999259 -82.04 0.031655 -173.5
8.76650000 0.031913 -171.5 0.999247 -82.05 0.999247 -82.05 0.031912 -173.5
8.76652000 0.032174 -171.5 0.999235 -82.07 0.999235 -82.07 0.032174 -173.5
8.76654000 0.032441 -171.5 0.999222 -82.08 0.999222 -82.08 0.032440 -173.5
8.76656000 0.032712 -171.5 0.999208 -82.10 0.999208 -82.10 0.032712 -173.6
8.76658000 0.032988 -171.6 0.999195 -82.12 0.999195 -82.12 0.032988 -173.6
8.76660000 0.033269 -171.6 0.999181 -82.13 0.999181 -82.13 0.033269 -173.6
8.76662000 0.033555 -171.6 0.999166 -82.15 0.999166 -82.15 0.033555 -173.6
8.76664000 0.033847 -171.6 0.999151 -82.16 0.999151 -82.16 0.033846 -173.6
8.76666000 0.034144 -171.6 0.999136 -82.18 0.999136 -82.18 0.034143 -173.7
8.76668000 0.034446 -171.7 0.999120 -82.20 0.999120 -82.20 0.034446 -173.7
8.76670000 0.034754 -171.7 0.999104 -82.22 0.999104 -82.22 0.034754 -173.7
8.76672000 0.035068 -171.7 0.999088 -82.24 0.999088 -82.24 0.035068 -173.7
8.76674000 0.035389 -171.7 0.999071 -82.25 0.999071 -82.25 0.035388 -173.8
8.76676000 0.035715 -171.8 0.999053 -82.27 0.999053 -82.27 0.035715 -173.8
8.76678000 0.036048 -171.8 0.999035 -82.29 0.999035 -82.29 0.036048 -173.8
8.76680000 0.036388 -171.8 0.999017 -82.31 0.999017 -82.31 0.036388 -173.8
8.76682000 0.036734 -171.8 0.998998 -82.33 0.998998 -82.33 0.036734 -173.9
8.76684000 0.037088 -171.9 0.998978 -82.35 0.998978 -82.35 0.037088 -173.9
8.76686000 0.037449 -171.9 0.998958 -82.37 0.998958 -82.37 0.037448 -173.9
8.76688000 0.037817 -171.9 0.998937 -82.39 0.998937 -82.39 0.037817 -173.9
8.76690000 0.038193 -171.9 0.998915 -82.42 0.998915 -82.42 0.038193 -174.0
8.76692000 0.038577 -172.0 0.998893 -82.44 0.998893 -82.44 0.038577 -174.0
8.76694000 0.038970 -172.0 0.998870 -82.46 0.998870 -82.46 0.038969 -174.0
8.76696000 0.039371 -172.0 0.998846 -82.48 0.998846 -82.48 0.039370 -174.1
8.76698000 0.039780 -172.0 0.998821 -82.51 0.998821 -82.51 0.039780 -174.1
8.76700000 0.040199 -172.1 0.998796 -82.53 0.998796 -82.53 0.040198 -174.1
8.76702000 0.040627 -172.1 0.998770 -82.56 0.998770 -82.56 0.040626 -174.1
8.76704000 0.041065 -172.1 0.998743 -82.58 0.998743 -82.58 0.041064 -174.2
8.76706000 0.041513 -172.2 0.998715 -82.61 0.998715 -82.61 0.041512 -174.2
8.76708000 0.041971 -172.2 0.998686 -82.63 0.998686 -82.63 0.041970 -174.2
8.76710000 0.042440 -172.2 0.998656 -82.66 0.998656 -82.66 0.042439 -174.3
8.76712000 0.042920 -172.3 0.998625 -82.69 0.998625 -82.69 0.042919 -174.3
8.76714000 0.043412 -172.3 0.998593 -82.72 0.998593 -82.72 0.043411 -174.4
8.76716000 0.043915 -172.3 0.998559 -82.75 0.998559 -82.75 0.043915 -174.4
8.76718000 0.044431 -172.4 0.998525 -82.78 0.998525 -82.78 0.044431 -174.4
8.76720000 0.044960 -172.4 0.998489 -82.81 0.998489 -82.81 0.044960 -174.5
8.76722000 0.045502 -172.5 0.998452 -82.84 0.998452 -82.84 0.045502 -174.5
8.76724000 0.046058 -172.5 0.998413 -82.87 0.998413 -82.87 0.046058 -174.5
8.76726000 0.046629 -172.5 0.998373 -82.90 0.998373 -82.90 0.046628 -174.6
8.76728000 0.047214 -172.6 0.998331 -82.94 0.998331 -82.94 0.047214 -174.6
8.76730000 0.047815 -172.6 0.998288 -82.97 0.998288 -82.97 0.047815 -174.7
8.76732000 0.048433 -172.7 0.998243 -83.01 0.998243 -83.01 0.048432 -174.7
8.76734000 0.049067 -172.7 0.998196 -83.04 0.998196 -83.04 0.049066 -174.8
8.76736000 0.049718 -172.8 0.998147 -83.08 0.998147 -83.08 0.049718 -174.8
8.76738000 0.050388 -172.8 0.998096 -83.12 0.998096 -83.12 0.050388 -174.9
8.76740000 0.051077 -172.9 0.998043 -83.16 0.998043 -83.16 0.051077 -174.9
8.76742000 0.051786 -172.9 0.997987 -83.20 0.997987 -83.20 0.051785 -175.0
8.76744000 0.052516 -173.0 0.997930 -83.24 0.997930 -83.24 0.052515 -175.0
8.76746000 0.053267 -173.0 0.997869 -83.29 0.997869 -83.29 0.053266 -175.1
8.76748000 0.054041 -173.1 0.997806 -83.33 0.997806 -83.33 0.054040 -175.1
8.76750000 0.054838 -173.1 0.997740 -83.38 0.997740 -83.38 0.054838 -175.2
8.76752000 0.055661 -173.2 0.997671 -83.42 0.997671 -83.42 0.055660 -175.3
8.76754000 0.056509 -173.3 0.997598 -83.47 0.997598 -83.47 0.056509 -175.3
8.76756000 0.057385 -173.3 0.997522 -83.52 0.997522 -83.52 0.057384 -175.4
8.76758000 0.058289 -173.4 0.997443 -83.58 0.997443 -83.58 0.058288 -175.4
8.76760000 0.059223 -173.5 0.997359 -83.63 0.997359 -83.63 0.059223 -175.5
8.76762000 0.060189 -173.5 0.997271 -83.68 0.997271 -83.68 0.060188 -175.6
8.76764000 0.061188 -173.6 0.997179 -83.74 0.997179 -83.74 0.061187 -175.7
8.76766000 0.062221 -173.7 0.997081 -83.80 0.997081 -83.80 0.062220 -175.7
8.76768000 0.063291 -173.8 0.996979 -83.86 0.996979 -83.86 0.063291 -175.8
8.76770000 0.064400 -173.8 0.996871 -83.93 0.996871 -83.93 0.064399 -175.9
8.76772000 0.065550 -173.9 0.996757 -83.99 0.996757 -83.99 0.065549 -176.0
8.76774000 0.066743 -174.0 0.996636 -84.06 0.996636 -84.06 0.066742 -176.1
8.76776000 0.067981 -174.1 0.996509 -84.13 0.996509 -84.13 0.067980 -176.2
8.76778000 0.069267 -174.2 0.996374 -84.21 0.996374 -84.21 0.069266 -176.3
8.76780000 0.070604 -174.3 0.996231 -84.28 0.996231 -84.28 0.070603 -176.4
8.76782000 0.071996 -174.4 0.996079 -84.36 0.996079 -84.36 0.071995 -176.5