! Sonnet Data File
! From: emgraph Version : 16.52
! From Project: Qubit_Xmon2_brg_para
! Data is De-embedded 
! Data File Written: 11/12/2017 17:09:26
!< HDATE 11/12/2017 00:17:19
!< MDATE 11/12/2017 00:17:19
!< PARAMS
!< Lj = 11.0
!< Gap = 6.0
!< Pwid = 2000.0
!< Airgap = 6.0
!< Width = 10.0
!< Bwid = 8.0
!< Dis1 = 250.0
!< Dis2 = 256.0
!< END PARAMS
# GHZ S MA R 51.80000
8.68500000 0.012326 -170.4 0.999906 -80.14 0.999906 -80.14 0.012326 -170.1
!< P1 F=8.685 Eeff=(6.4468387 -2.9786e-5) Z0=(51.799366 1.19075e-4) R=0.0 C=0.0 
!< P2 F=8.685 Eeff=(6.4468387 -2.9786e-5) Z0=(51.799366 1.19075e-4) R=0.0 C=0.0 
8.68500500 0.012330 -170.4 0.999906 -80.14 0.999906 -80.14 0.012330 -170.1
8.68501000 0.012335 -170.4 0.999906 -80.14 0.999906 -80.14 0.012334 -170.1
8.68501500 0.012339 -170.4 0.999906 -80.14 0.999906 -80.14 0.012339 -170.1
8.68502000 0.012343 -170.4 0.999905 -80.14 0.999905 -80.14 0.012343 -170.1
8.68502500 0.012347 -170.4 0.999905 -80.14 0.999905 -80.14 0.012347 -170.1
8.68503000 0.012351 -170.4 0.999905 -80.14 0.999905 -80.14 0.012351 -170.1
8.68503500 0.012355 -170.4 0.999905 -80.14 0.999905 -80.14 0.012355 -170.1
8.68504000 0.012360 -170.4 0.999905 -80.14 0.999905 -80.14 0.012359 -170.1
8.68504500 0.012364 -170.4 0.999905 -80.14 0.999905 -80.14 0.012364 -170.1
8.68505000 0.012368 -170.4 0.999905 -80.14 0.999905 -80.14 0.012368 -170.1
8.68505500 0.012372 -170.4 0.999905 -80.14 0.999905 -80.14 0.012372 -170.1
8.68506000 0.012376 -170.4 0.999905 -80.14 0.999905 -80.14 0.012376 -170.1
8.68506500 0.012381 -170.4 0.999905 -80.14 0.999905 -80.14 0.012380 -170.1
8.68507000 0.012385 -170.4 0.999905 -80.14 0.999905 -80.14 0.012385 -170.1
8.68507500 0.012389 -170.4 0.999904 -80.14 0.999904 -80.14 0.012389 -170.1
8.68508000 0.012393 -170.4 0.999904 -80.14 0.999904 -80.14 0.012393 -170.1
8.68508500 0.012397 -170.4 0.999904 -80.14 0.999904 -80.14 0.012397 -170.1
8.68509000 0.012402 -170.4 0.999904 -80.14 0.999904 -80.14 0.012401 -170.1
8.68509500 0.012406 -170.4 0.999904 -80.14 0.999904 -80.14 0.012406 -170.1
8.68510000 0.012410 -170.4 0.999904 -80.14 0.999904 -80.14 0.012410 -170.1
8.68510500 0.012414 -170.4 0.999904 -80.14 0.999904 -80.14 0.012414 -170.1
8.68511000 0.012419 -170.4 0.999904 -80.14 0.999904 -80.14 0.012418 -170.1
8.68511500 0.012423 -170.4 0.999904 -80.14 0.999904 -80.14 0.012423 -170.1
8.68512000 0.012427 -170.4 0.999904 -80.14 0.999904 -80.14 0.012427 -170.1
8.68512500 0.012431 -170.4 0.999904 -80.15 0.999904 -80.15 0.012431 -170.1
8.68513000 0.012436 -170.4 0.999903 -80.15 0.999903 -80.15 0.012435 -170.1
8.68513500 0.012440 -170.4 0.999903 -80.15 0.999903 -80.15 0.012440 -170.1
8.68514000 0.012444 -170.4 0.999903 -80.15 0.999903 -80.15 0.012444 -170.1
8.68514500 0.012448 -170.4 0.999903 -80.15 0.999903 -80.15 0.012448 -170.1
8.68515000 0.012453 -170.4 0.999903 -80.15 0.999903 -80.15 0.012453 -170.1
8.68515500 0.012457 -170.4 0.999903 -80.15 0.999903 -80.15 0.012457 -170.1
8.68516000 0.012461 -170.4 0.999903 -80.15 0.999903 -80.15 0.012461 -170.1
8.68516500 0.012466 -170.4 0.999903 -80.15 0.999903 -80.15 0.012465 -170.1
8.68517000 0.012470 -170.4 0.999903 -80.15 0.999903 -80.15 0.012470 -170.1
8.68517500 0.012474 -170.4 0.999903 -80.15 0.999903 -80.15 0.012474 -170.1
8.68518000 0.012479 -170.4 0.999903 -80.15 0.999903 -80.15 0.012478 -170.1
8.68518500 0.012483 -170.4 0.999902 -80.15 0.999902 -80.15 0.012483 -170.1
8.68519000 0.012487 -170.4 0.999902 -80.15 0.999902 -80.15 0.012487 -170.1
8.68519500 0.012492 -170.4 0.999902 -80.15 0.999902 -80.15 0.012491 -170.1
8.68520000 0.012496 -170.4 0.999902 -80.15 0.999902 -80.15 0.012496 -170.1
8.68520500 0.012500 -170.4 0.999902 -80.15 0.999902 -80.15 0.012500 -170.1
8.68521000 0.012505 -170.4 0.999902 -80.15 0.999902 -80.15 0.012504 -170.1
8.68521500 0.012509 -170.4 0.999902 -80.15 0.999902 -80.15 0.012509 -170.1
8.68522000 0.012513 -170.4 0.999902 -80.15 0.999902 -80.15 0.012513 -170.1
8.68522500 0.012518 -170.4 0.999902 -80.15 0.999902 -80.15 0.012517 -170.1
8.68523000 0.012522 -170.4 0.999902 -80.15 0.999902 -80.15 0.012522 -170.1
8.68523500 0.012526 -170.4 0.999901 -80.15 0.999901 -80.15 0.012526 -170.1
8.68524000 0.012531 -170.4 0.999901 -80.15 0.999901 -80.15 0.012530 -170.1
8.68524500 0.012535 -170.4 0.999901 -80.15 0.999901 -80.15 0.012535 -170.1
8.68525000 0.012539 -170.4 0.999901 -80.15 0.999901 -80.15 0.012539 -170.1
8.68525500 0.012544 -170.4 0.999901 -80.15 0.999901 -80.15 0.012544 -170.1
8.68526000 0.012548 -170.4 0.999901 -80.15 0.999901 -80.15 0.012548 -170.1
8.68526500 0.012553 -170.4 0.999901 -80.15 0.999901 -80.15 0.012552 -170.1
8.68527000 0.012557 -170.4 0.999901 -80.15 0.999901 -80.15 0.012557 -170.1
8.68527500 0.012561 -170.4 0.999901 -80.15 0.999901 -80.15 0.012561 -170.1
8.68528000 0.012566 -170.4 0.999901 -80.15 0.999901 -80.15 0.012566 -170.1
8.68528500 0.012570 -170.4 0.999901 -80.15 0.999901 -80.15 0.012570 -170.1
8.68529000 0.012575 -170.4 0.999900 -80.15 0.999900 -80.15 0.012574 -170.1
8.68529500 0.012579 -170.4 0.999900 -80.16 0.999900 -80.16 0.012579 -170.1
8.68530000 0.012584 -170.4 0.999900 -80.16 0.999900 -80.16 0.012583 -170.1
8.68530500 0.012588 -170.4 0.999900 -80.16 0.999900 -80.16 0.012588 -170.1
8.68531000 0.012592 -170.4 0.999900 -80.16 0.999900 -80.16 0.012592 -170.1
8.68531500 0.012597 -170.4 0.999900 -80.16 0.999900 -80.16 0.012597 -170.1
8.68532000 0.012601 -170.4 0.999900 -80.16 0.999900 -80.16 0.012601 -170.1
8.68532500 0.012606 -170.4 0.999900 -80.16 0.999900 -80.16 0.012606 -170.1
8.68533000 0.012610 -170.4 0.999900 -80.16 0.999900 -80.16 0.012610 -170.1
8.68533500 0.012615 -170.4 0.999900 -80.16 0.999900 -80.16 0.012614 -170.1
8.68534000 0.012619 -170.4 0.999899 -80.16 0.999899 -80.16 0.012619 -170.1
8.68534500 0.012624 -170.4 0.999899 -80.16 0.999899 -80.16 0.012623 -170.1
8.68535000 0.012628 -170.4 0.999899 -80.16 0.999899 -80.16 0.012628 -170.1
8.68535500 0.012633 -170.4 0.999899 -80.16 0.999899 -80.16 0.012632 -170.1
8.68536000 0.012637 -170.4 0.999899 -80.16 0.999899 -80.16 0.012637 -170.1
8.68536500 0.012642 -170.4 0.999899 -80.16 0.999899 -80.16 0.012641 -170.1
8.68537000 0.012646 -170.4 0.999899 -80.16 0.999899 -80.16 0.012646 -170.1
8.68537500 0.012651 -170.4 0.999899 -80.16 0.999899 -80.16 0.012650 -170.1
8.68538000 0.012655 -170.4 0.999899 -80.16 0.999899 -80.16 0.012655 -170.1
8.68538500 0.012660 -170.4 0.999899 -80.16 0.999899 -80.16 0.012659 -170.1
8.68539000 0.012664 -170.4 0.999898 -80.16 0.999898 -80.16 0.012664 -170.1
8.68539500 0.012669 -170.4 0.999898 -80.16 0.999898 -80.16 0.012669 -170.1
8.68540000 0.012673 -170.4 0.999898 -80.16 0.999898 -80.16 0.012673 -170.1
8.68540500 0.012678 -170.4 0.999898 -80.16 0.999898 -80.16 0.012678 -170.1
8.68541000 0.012682 -170.4 0.999898 -80.16 0.999898 -80.16 0.012682 -170.1
8.68541500 0.012687 -170.4 0.999898 -80.16 0.999898 -80.16 0.012687 -170.1
8.68542000 0.012692 -170.4 0.999898 -80.16 0.999898 -80.16 0.012691 -170.1
8.68542500 0.012696 -170.4 0.999898 -80.16 0.999898 -80.16 0.012696 -170.1
8.68543000 0.012701 -170.4 0.999898 -80.16 0.999898 -80.16 0.012700 -170.1
8.68543500 0.012705 -170.4 0.999898 -80.16 0.999898 -80.16 0.012705 -170.1
8.68544000 0.012710 -170.4 0.999897 -80.16 0.999897 -80.16 0.012710 -170.1
8.68544500 0.012715 -170.4 0.999897 -80.16 0.999897 -80.16 0.012714 -170.1
8.68545000 0.012719 -170.4 0.999897 -80.16 0.999897 -80.16 0.012719 -170.1
8.68545500 0.012724 -170.4 0.999897 -80.17 0.999897 -80.17 0.012723 -170.1
8.68546000 0.012728 -170.4 0.999897 -80.17 0.999897 -80.17 0.012728 -170.1
8.68546500 0.012733 -170.4 0.999897 -80.17 0.999897 -80.17 0.012733 -170.1
8.68547000 0.012738 -170.4 0.999897 -80.17 0.999897 -80.17 0.012737 -170.1
8.68547500 0.012742 -170.4 0.999897 -80.17 0.999897 -80.17 0.012742 -170.1
8.68548000 0.012747 -170.4 0.999897 -80.17 0.999897 -80.17 0.012746 -170.1
8.68548500 0.012751 -170.4 0.999897 -80.17 0.999897 -80.17 0.012751 -170.1
8.68549000 0.012756 -170.4 0.999896 -80.17 0.999896 -80.17 0.012756 -170.1
8.68549500 0.012761 -170.4 0.999896 -80.17 0.999896 -80.17 0.012760 -170.1
8.68550000 0.012765 -170.4 0.999896 -80.17 0.999896 -80.17 0.012765 -170.1
8.68550500 0.012770 -170.4 0.999896 -80.17 0.999896 -80.17 0.012770 -170.1
8.68551000 0.012775 -170.4 0.999896 -80.17 0.999896 -80.17 0.012774 -170.1
8.68551500 0.012779 -170.4 0.999896 -80.17 0.999896 -80.17 0.012779 -170.1
8.68552000 0.012784 -170.4 0.999896 -80.17 0.999896 -80.17 0.012784 -170.1
8.68552500 0.012789 -170.4 0.999896 -80.17 0.999896 -80.17 0.012788 -170.1
8.68553000 0.012793 -170.4 0.999896 -80.17 0.999896 -80.17 0.012793 -170.1
8.68553500 0.012798 -170.4 0.999895 -80.17 0.999895 -80.17 0.012798 -170.1
8.68554000 0.012803 -170.4 0.999895 -80.17 0.999895 -80.17 0.012802 -170.1
8.68554500 0.012807 -170.4 0.999895 -80.17 0.999895 -80.17 0.012807 -170.1
8.68555000 0.012812 -170.4 0.999895 -80.17 0.999895 -80.17 0.012812 -170.1
8.68555500 0.012817 -170.4 0.999895 -80.17 0.999895 -80.17 0.012816 -170.1
8.68556000 0.012822 -170.4 0.999895 -80.17 0.999895 -80.17 0.012821 -170.1
8.68556500 0.012826 -170.4 0.999895 -80.17 0.999895 -80.17 0.012826 -170.1
8.68557000 0.012831 -170.4 0.999895 -80.17 0.999895 -80.17 0.012831 -170.1
8.68557500 0.012836 -170.4 0.999895 -80.17 0.999895 -80.17 0.012835 -170.1
8.68558000 0.012841 -170.4 0.999895 -80.17 0.999895 -80.17 0.012840 -170.1
8.68558500 0.012845 -170.4 0.999894 -80.17 0.999894 -80.17 0.012845 -170.1
8.68559000 0.012850 -170.4 0.999894 -80.17 0.999894 -80.17 0.012850 -170.1
8.68559500 0.012855 -170.4 0.999894 -80.17 0.999894 -80.17 0.012854 -170.1
8.68560000 0.012860 -170.4 0.999894 -80.17 0.999894 -80.17 0.012859 -170.1
8.68560500 0.012864 -170.4 0.999894 -80.17 0.999894 -80.17 0.012864 -170.1
8.68561000 0.012869 -170.4 0.999894 -80.17 0.999894 -80.17 0.012869 -170.1
8.68561500 0.012874 -170.4 0.999894 -80.18 0.999894 -80.18 0.012873 -170.1
8.68562000 0.012879 -170.4 0.999894 -80.18 0.999894 -80.18 0.012878 -170.1
8.68562500 0.012883 -170.4 0.999894 -80.18 0.999894 -80.18 0.012883 -170.1
8.68563000 0.012888 -170.4 0.999893 -80.18 0.999893 -80.18 0.012888 -170.1
8.68563500 0.012893 -170.4 0.999893 -80.18 0.999893 -80.18 0.012893 -170.1
8.68564000 0.012898 -170.4 0.999893 -80.18 0.999893 -80.18 0.012897 -170.1
8.68564500 0.012903 -170.4 0.999893 -80.18 0.999893 -80.18 0.012902 -170.1
8.68565000 0.012907 -170.4 0.999893 -80.18 0.999893 -80.18 0.012907 -170.1
8.68565500 0.012912 -170.4 0.999893 -80.18 0.999893 -80.18 0.012912 -170.1
8.68566000 0.012917 -170.4 0.999893 -80.18 0.999893 -80.18 0.012917 -170.1
8.68566500 0.012922 -170.4 0.999893 -80.18 0.999893 -80.18 0.012921 -170.1
8.68567000 0.012927 -170.4 0.999893 -80.18 0.999893 -80.18 0.012926 -170.1
8.68567500 0.012932 -170.4 0.999893 -80.18 0.999893 -80.18 0.012931 -170.1
8.68568000 0.012937 -170.4 0.999892 -80.18 0.999892 -80.18 0.012936 -170.1
8.68568500 0.012941 -170.4 0.999892 -80.18 0.999892 -80.18 0.012941 -170.2
8.68569000 0.012946 -170.4 0.999892 -80.18 0.999892 -80.18 0.012946 -170.2
8.68569500 0.012951 -170.4 0.999892 -80.18 0.999892 -80.18 0.012951 -170.2
8.68570000 0.012956 -170.4 0.999892 -80.18 0.999892 -80.18 0.012956 -170.2
8.68570500 0.012961 -170.4 0.999892 -80.18 0.999892 -80.18 0.012960 -170.2
8.68571000 0.012966 -170.4 0.999892 -80.18 0.999892 -80.18 0.012965 -170.2
8.68571500 0.012971 -170.4 0.999892 -80.18 0.999892 -80.18 0.012970 -170.2
8.68572000 0.012976 -170.4 0.999892 -80.18 0.999892 -80.18 0.012975 -170.2
8.68572500 0.012980 -170.4 0.999891 -80.18 0.999891 -80.18 0.012980 -170.2
8.68573000 0.012985 -170.4 0.999891 -80.18 0.999891 -80.18 0.012985 -170.2
8.68573500 0.012990 -170.4 0.999891 -80.18 0.999891 -80.18 0.012990 -170.2
8.68574000 0.012995 -170.4 0.999891 -80.18 0.999891 -80.18 0.012995 -170.2
8.68574500 0.013000 -170.4 0.999891 -80.18 0.999891 -80.18 0.013000 -170.2
8.68575000 0.013005 -170.4 0.999891 -80.18 0.999891 -80.18 0.013005 -170.2
8.68575500 0.013010 -170.4 0.999891 -80.18 0.999891 -80.18 0.013010 -170.2
8.68576000 0.013015 -170.4 0.999891 -80.18 0.999891 -80.18 0.013014 -170.2
8.68576500 0.013020 -170.4 0.999891 -80.18 0.999891 -80.18 0.013019 -170.2
8.68577000 0.013025 -170.4 0.999890 -80.19 0.999890 -80.19 0.013024 -170.2
8.68577500 0.013030 -170.4 0.999890 -80.19 0.999890 -80.19 0.013029 -170.2
8.68578000 0.013035 -170.4 0.999890 -80.19 0.999890 -80.19 0.013034 -170.2
8.68578500 0.013040 -170.4 0.999890 -80.19 0.999890 -80.19 0.013039 -170.2
8.68579000 0.013045 -170.4 0.999890 -80.19 0.999890 -80.19 0.013044 -170.2
8.68579500 0.013050 -170.4 0.999890 -80.19 0.999890 -80.19 0.013049 -170.2
8.68580000 0.013055 -170.4 0.999890 -80.19 0.999890 -80.19 0.013054 -170.2
8.68580500 0.013060 -170.4 0.999890 -80.19 0.999890 -80.19 0.013059 -170.2
8.68581000 0.013065 -170.4 0.999890 -80.19 0.999890 -80.19 0.013064 -170.2
8.68581500 0.013070 -170.4 0.999889 -80.19 0.999889 -80.19 0.013069 -170.2
8.68582000 0.013075 -170.4 0.999889 -80.19 0.999889 -80.19 0.013074 -170.2
8.68582500 0.013080 -170.4 0.999889 -80.19 0.999889 -80.19 0.013079 -170.2
8.68583000 0.013085 -170.4 0.999889 -80.19 0.999889 -80.19 0.013084 -170.2
8.68583500 0.013090 -170.4 0.999889 -80.19 0.999889 -80.19 0.013089 -170.2
8.68584000 0.013095 -170.4 0.999889 -80.19 0.999889 -80.19 0.013095 -170.2
8.68584500 0.013100 -170.4 0.999889 -80.19 0.999889 -80.19 0.013100 -170.2
8.68585000 0.013105 -170.4 0.999889 -80.19 0.999889 -80.19 0.013105 -170.2
8.68585500 0.013110 -170.4 0.999888 -80.19 0.999888 -80.19 0.013110 -170.2
8.68586000 0.013115 -170.4 0.999888 -80.19 0.999888 -80.19 0.013115 -170.2
8.68586500 0.013120 -170.4 0.999888 -80.19 0.999888 -80.19 0.013120 -170.2
8.68587000 0.013126 -170.4 0.999888 -80.19 0.999888 -80.19 0.013125 -170.2
8.68587500 0.013131 -170.4 0.999888 -80.19 0.999888 -80.19 0.013130 -170.2
8.68588000 0.013136 -170.4 0.999888 -80.19 0.999888 -80.19 0.013135 -170.2
8.68588500 0.013141 -170.4 0.999888 -80.19 0.999888 -80.19 0.013140 -170.2
8.68589000 0.013146 -170.4 0.999888 -80.19 0.999888 -80.19 0.013145 -170.2
8.68589500 0.013151 -170.4 0.999888 -80.19 0.999888 -80.19 0.013150 -170.2
8.68590000 0.013156 -170.4 0.999887 -80.19 0.999887 -80.19 0.013156 -170.2
8.68590500 0.013161 -170.4 0.999887 -80.19 0.999887 -80.19 0.013161 -170.2
8.68591000 0.013166 -170.4 0.999887 -80.19 0.999887 -80.19 0.013166 -170.2
8.68591500 0.013172 -170.4 0.999887 -80.19 0.999887 -80.19 0.013171 -170.2
8.68592000 0.013177 -170.4 0.999887 -80.20 0.999887 -80.20 0.013176 -170.2
8.68592500 0.013182 -170.4 0.999887 -80.20 0.999887 -80.20 0.013181 -170.2
8.68593000 0.013187 -170.4 0.999887 -80.20 0.999887 -80.20 0.013186 -170.2
8.68593500 0.013192 -170.4 0.999887 -80.20 0.999887 -80.20 0.013192 -170.2
8.68594000 0.013197 -170.4 0.999887 -80.20 0.999887 -80.20 0.013197 -170.2
8.68594500 0.013203 -170.4 0.999886 -80.20 0.999886 -80.20 0.013202 -170.2
8.68595000 0.013208 -170.4 0.999886 -80.20 0.999886 -80.20 0.013207 -170.2
8.68595500 0.013213 -170.4 0.999886 -80.20 0.999886 -80.20 0.013212 -170.2
8.68596000 0.013218 -170.4 0.999886 -80.20 0.999886 -80.20 0.013218 -170.2
8.68596500 0.013223 -170.4 0.999886 -80.20 0.999886 -80.20 0.013223 -170.2
8.68597000 0.013229 -170.4 0.999886 -80.20 0.999886 -80.20 0.013228 -170.2
8.68597500 0.013234 -170.4 0.999886 -80.20 0.999886 -80.20 0.013233 -170.2
8.68598000 0.013239 -170.4 0.999886 -80.20 0.999886 -80.20 0.013238 -170.2
8.68598500 0.013244 -170.4 0.999885 -80.20 0.999885 -80.20 0.013244 -170.2
8.68599000 0.013250 -170.4 0.999885 -80.20 0.999885 -80.20 0.013249 -170.2
8.68599500 0.013255 -170.4 0.999885 -80.20 0.999885 -80.20 0.013254 -170.2
8.68600000 0.013260 -170.4 0.999885 -80.20 0.999885 -80.20 0.013259 -170.2
8.68600500 0.013265 -170.4 0.999885 -80.20 0.999885 -80.20 0.013265 -170.2
8.68601000 0.013271 -170.4 0.999885 -80.20 0.999885 -80.20 0.013270 -170.2
8.68601500 0.013276 -170.4 0.999885 -80.20 0.999885 -80.20 0.013275 -170.2
8.68602000 0.013281 -170.4 0.999885 -80.20 0.999885 -80.20 0.013281 -170.2
8.68602500 0.013287 -170.4 0.999884 -80.20 0.999884 -80.20 0.013286 -170.2
8.68603000 0.013292 -170.4 0.999884 -80.20 0.999884 -80.20 0.013291 -170.2
8.68603500 0.013297 -170.4 0.999884 -80.20 0.999884 -80.20 0.013296 -170.2
8.68604000 0.013302 -170.4 0.999884 -80.20 0.999884 -80.20 0.013302 -170.2
8.68604500 0.013308 -170.4 0.999884 -80.20 0.999884 -80.20 0.013307 -170.2
8.68605000 0.013313 -170.4 0.999884 -80.20 0.999884 -80.20 0.013312 -170.2
8.68605500 0.013318 -170.4 0.999884 -80.20 0.999884 -80.20 0.013318 -170.2
8.68606000 0.013324 -170.4 0.999884 -80.20 0.999884 -80.20 0.013323 -170.2
8.68606500 0.013329 -170.4 0.999883 -80.21 0.999883 -80.21 0.013328 -170.2
8.68607000 0.013334 -170.4 0.999883 -80.21 0.999883 -80.21 0.013334 -170.2
8.68607500 0.013340 -170.4 0.999883 -80.21 0.999883 -80.21 0.013339 -170.2
8.68608000 0.013345 -170.4 0.999883 -80.21 0.999883 -80.21 0.013344 -170.2
8.68608500 0.013351 -170.4 0.999883 -80.21 0.999883 -80.21 0.013350 -170.2
8.68609000 0.013356 -170.4 0.999883 -80.21 0.999883 -80.21 0.013355 -170.2
8.68609500 0.013361 -170.4 0.999883 -80.21 0.999883 -80.21 0.013361 -170.2
8.68610000 0.013367 -170.4 0.999883 -80.21 0.999883 -80.21 0.013366 -170.2
8.68610500 0.013372 -170.4 0.999883 -80.21 0.999883 -80.21 0.013371 -170.2
8.68611000 0.013378 -170.4 0.999882 -80.21 0.999882 -80.21 0.013377 -170.2
8.68611500 0.013383 -170.5 0.999882 -80.21 0.999882 -80.21 0.013382 -170.2
8.68612000 0.013388 -170.5 0.999882 -80.21 0.999882 -80.21 0.013388 -170.2
8.68612500 0.013394 -170.5 0.999882 -80.21 0.999882 -80.21 0.013393 -170.2
8.68613000 0.013399 -170.5 0.999882 -80.21 0.999882 -80.21 0.013399 -170.2
8.68613500 0.013405 -170.5 0.999882 -80.21 0.999882 -80.21 0.013404 -170.2
8.68614000 0.013410 -170.5 0.999882 -80.21 0.999882 -80.21 0.013409 -170.2
8.68614500 0.013416 -170.5 0.999882 -80.21 0.999882 -80.21 0.013415 -170.2
8.68615000 0.013421 -170.5 0.999881 -80.21 0.999881 -80.21 0.013420 -170.2
8.68615500 0.013427 -170.5 0.999881 -80.21 0.999881 -80.21 0.013426 -170.2
8.68616000 0.013432 -170.5 0.999881 -80.21 0.999881 -80.21 0.013431 -170.2
8.68616500 0.013438 -170.5 0.999881 -80.21 0.999881 -80.21 0.013437 -170.2
8.68617000 0.013443 -170.5 0.999881 -80.21 0.999881 -80.21 0.013442 -170.2
8.68617500 0.013448 -170.5 0.999881 -80.21 0.999881 -80.21 0.013448 -170.2
8.68618000 0.013454 -170.5 0.999881 -80.21 0.999881 -80.21 0.013453 -170.2
8.68618500 0.013460 -170.5 0.999880 -80.21 0.999880 -80.21 0.013459 -170.2
8.68619000 0.013465 -170.5 0.999880 -80.21 0.999880 -80.21 0.013464 -170.2
8.68619500 0.013471 -170.5 0.999880 -80.21 0.999880 -80.21 0.013470 -170.2
8.68620000 0.013476 -170.5 0.999880 -80.21 0.999880 -80.21 0.013475 -170.2
8.68620500 0.013482 -170.5 0.999880 -80.22 0.999880 -80.22 0.013481 -170.2
8.68621000 0.013487 -170.5 0.999880 -80.22 0.999880 -80.22 0.013486 -170.2
8.68621500 0.013493 -170.5 0.999880 -80.22 0.999880 -80.22 0.013492 -170.2
8.68622000 0.013498 -170.5 0.999880 -80.22 0.999880 -80.22 0.013498 -170.2
8.68622500 0.013504 -170.5 0.999879 -80.22 0.999879 -80.22 0.013503 -170.2
8.68623000 0.013509 -170.5 0.999879 -80.22 0.999879 -80.22 0.013509 -170.2
8.68623500 0.013515 -170.5 0.999879 -80.22 0.999879 -80.22 0.013514 -170.2
8.68624000 0.013521 -170.5 0.999879 -80.22 0.999879 -80.22 0.013520 -170.2
8.68624500 0.013526 -170.5 0.999879 -80.22 0.999879 -80.22 0.013525 -170.2
8.68625000 0.013532 -170.5 0.999879 -80.22 0.999879 -80.22 0.013531 -170.2
8.68625500 0.013537 -170.5 0.999879 -80.22 0.999879 -80.22 0.013537 -170.2
8.68626000 0.013543 -170.5 0.999879 -80.22 0.999879 -80.22 0.013542 -170.2
8.68626500 0.013549 -170.5 0.999878 -80.22 0.999878 -80.22 0.013548 -170.2
8.68627000 0.013554 -170.5 0.999878 -80.22 0.999878 -80.22 0.013554 -170.2
8.68627500 0.013560 -170.5 0.999878 -80.22 0.999878 -80.22 0.013559 -170.2
8.68628000 0.013566 -170.5 0.999878 -80.22 0.999878 -80.22 0.013565 -170.2
8.68628500 0.013571 -170.5 0.999878 -80.22 0.999878 -80.22 0.013571 -170.2
8.68629000 0.013577 -170.5 0.999878 -80.22 0.999878 -80.22 0.013576 -170.2
8.68629500 0.013583 -170.5 0.999878 -80.22 0.999878 -80.22 0.013582 -170.2
8.68630000 0.013588 -170.5 0.999878 -80.22 0.999878 -80.22 0.013588 -170.2
8.68630500 0.013594 -170.5 0.999877 -80.22 0.999877 -80.22 0.013593 -170.2
8.68631000 0.013600 -170.5 0.999877 -80.22 0.999877 -80.22 0.013599 -170.2
8.68631500 0.013605 -170.5 0.999877 -80.22 0.999877 -80.22 0.013605 -170.2
8.68632000 0.013611 -170.5 0.999877 -80.22 0.999877 -80.22 0.013610 -170.2
8.68632500 0.013617 -170.5 0.999877 -80.22 0.999877 -80.22 0.013616 -170.2
8.68633000 0.013623 -170.5 0.999877 -80.22 0.999877 -80.22 0.013622 -170.2
8.68633500 0.013628 -170.5 0.999877 -80.22 0.999877 -80.22 0.013628 -170.2
8.68634000 0.013634 -170.5 0.999876 -80.23 0.999876 -80.23 0.013633 -170.2
8.68634500 0.013640 -170.5 0.999876 -80.23 0.999876 -80.23 0.013639 -170.2
8.68635000 0.013646 -170.5 0.999876 -80.23 0.999876 -80.23 0.013645 -170.2
8.68635500 0.013651 -170.5 0.999876 -80.23 0.999876 -80.23 0.013651 -170.2
8.68636000 0.013657 -170.5 0.999876 -80.23 0.999876 -80.23 0.013656 -170.2
8.68636500 0.013663 -170.5 0.999876 -80.23 0.999876 -80.23 0.013662 -170.2
8.68637000 0.013669 -170.5 0.999876 -80.23 0.999876 -80.23 0.013668 -170.2
8.68637500 0.013675 -170.5 0.999876 -80.23 0.999876 -80.23 0.013674 -170.2
8.68638000 0.013680 -170.5 0.999875 -80.23 0.999875 -80.23 0.013679 -170.2
8.68638500 0.013686 -170.5 0.999875 -80.23 0.999875 -80.23 0.013685 -170.2
8.68639000 0.013692 -170.5 0.999875 -80.23 0.999875 -80.23 0.013691 -170.2
8.68639500 0.013698 -170.5 0.999875 -80.23 0.999875 -80.23 0.013697 -170.2
8.68640000 0.013704 -170.5 0.999875 -80.23 0.999875 -80.23 0.013703 -170.2
8.68640500 0.013709 -170.5 0.999875 -80.23 0.999875 -80.23 0.013709 -170.2
8.68641000 0.013715 -170.5 0.999875 -80.23 0.999875 -80.23 0.013714 -170.2
8.68641500 0.013721 -170.5 0.999874 -80.23 0.999874 -80.23 0.013720 -170.2
8.68642000 0.013727 -170.5 0.999874 -80.23 0.999874 -80.23 0.013726 -170.2
8.68642500 0.013733 -170.5 0.999874 -80.23 0.999874 -80.23 0.013732 -170.2
8.68643000 0.013739 -170.5 0.999874 -80.23 0.999874 -80.23 0.013738 -170.2
8.68643500 0.013745 -170.5 0.999874 -80.23 0.999874 -80.23 0.013744 -170.2
8.68644000 0.013751 -170.5 0.999874 -80.23 0.999874 -80.23 0.013750 -170.2
8.68644500 0.013757 -170.5 0.999874 -80.23 0.999874 -80.23 0.013756 -170.2
8.68645000 0.013762 -170.5 0.999873 -80.23 0.999873 -80.23 0.013762 -170.2
8.68645500 0.013768 -170.5 0.999873 -80.23 0.999873 -80.23 0.013767 -170.2
8.68646000 0.013774 -170.5 0.999873 -80.23 0.999873 -80.23 0.013773 -170.2
8.68646500 0.013780 -170.5 0.999873 -80.23 0.999873 -80.23 0.013779 -170.2
8.68647000 0.013786 -170.5 0.999873 -80.24 0.999873 -80.24 0.013785 -170.2
8.68647500 0.013792 -170.5 0.999873 -80.24 0.999873 -80.24 0.013791 -170.2
8.68648000 0.013798 -170.5 0.999873 -80.24 0.999873 -80.24 0.013797 -170.2
8.68648500 0.013804 -170.5 0.999872 -80.24 0.999872 -80.24 0.013803 -170.2
8.68649000 0.013810 -170.5 0.999872 -80.24 0.999872 -80.24 0.013809 -170.2
8.68649500 0.013816 -170.5 0.999872 -80.24 0.999872 -80.24 0.013815 -170.2
8.68650000 0.013822 -170.5 0.999872 -80.24 0.999872 -80.24 0.013821 -170.2
8.68650500 0.013828 -170.5 0.999872 -80.24 0.999872 -80.24 0.013827 -170.2
8.68651000 0.013834 -170.5 0.999872 -80.24 0.999872 -80.24 0.013833 -170.3
8.68651500 0.013840 -170.5 0.999872 -80.24 0.999872 -80.24 0.013839 -170.3
8.68652000 0.013846 -170.5 0.999871 -80.24 0.999871 -80.24 0.013845 -170.3
8.68652500 0.013852 -170.5 0.999871 -80.24 0.999871 -80.24 0.013851 -170.3
8.68653000 0.013858 -170.5 0.999871 -80.24 0.999871 -80.24 0.013857 -170.3
8.68653500 0.013864 -170.5 0.999871 -80.24 0.999871 -80.24 0.013863 -170.3
8.68654000 0.013870 -170.5 0.999871 -80.24 0.999871 -80.24 0.013869 -170.3
8.68654500 0.013876 -170.5 0.999871 -80.24 0.999871 -80.24 0.013875 -170.3
8.68655000 0.013882 -170.5 0.999871 -80.24 0.999871 -80.24 0.013881 -170.3
8.68655500 0.013889 -170.5 0.999870 -80.24 0.999870 -80.24 0.013888 -170.3
8.68656000 0.013895 -170.5 0.999870 -80.24 0.999870 -80.24 0.013894 -170.3
8.68656500 0.013901 -170.5 0.999870 -80.24 0.999870 -80.24 0.013900 -170.3
8.68657000 0.013907 -170.5 0.999870 -80.24 0.999870 -80.24 0.013906 -170.3
8.68657500 0.013913 -170.5 0.999870 -80.24 0.999870 -80.24 0.013912 -170.3
8.68658000 0.013919 -170.5 0.999870 -80.24 0.999870 -80.24 0.013918 -170.3
8.68658500 0.013925 -170.5 0.999870 -80.24 0.999870 -80.24 0.013924 -170.3
8.68659000 0.013931 -170.5 0.999869 -80.24 0.999869 -80.24 0.013930 -170.3
8.68659500 0.013937 -170.5 0.999869 -80.24 0.999869 -80.24 0.013937 -170.3
8.68660000 0.013944 -170.5 0.999869 -80.25 0.999869 -80.25 0.013943 -170.3
8.68660500 0.013950 -170.5 0.999869 -80.25 0.999869 -80.25 0.013949 -170.3
8.68661000 0.013956 -170.5 0.999869 -80.25 0.999869 -80.25 0.013955 -170.3
8.68661500 0.013962 -170.5 0.999869 -80.25 0.999869 -80.25 0.013961 -170.3
8.68662000 0.013968 -170.5 0.999869 -80.25 0.999869 -80.25 0.013967 -170.3
8.68662500 0.013975 -170.5 0.999868 -80.25 0.999868 -80.25 0.013974 -170.3
8.68663000 0.013981 -170.5 0.999868 -80.25 0.999868 -80.25 0.013980 -170.3
8.68663500 0.013987 -170.5 0.999868 -80.25 0.999868 -80.25 0.013986 -170.3
8.68664000 0.013993 -170.5 0.999868 -80.25 0.999868 -80.25 0.013992 -170.3
8.68664500 0.013999 -170.5 0.999868 -80.25 0.999868 -80.25 0.013998 -170.3
8.68665000 0.014006 -170.5 0.999868 -80.25 0.999868 -80.25 0.014005 -170.3
8.68665500 0.014012 -170.5 0.999868 -80.25 0.999868 -80.25 0.014011 -170.3
8.68666000 0.014018 -170.5 0.999867 -80.25 0.999867 -80.25 0.014017 -170.3
8.68666500 0.014025 -170.5 0.999867 -80.25 0.999867 -80.25 0.014024 -170.3
8.68667000 0.014031 -170.5 0.999867 -80.25 0.999867 -80.25 0.014030 -170.3
8.68667500 0.014037 -170.5 0.999867 -80.25 0.999867 -80.25 0.014036 -170.3
8.68668000 0.014043 -170.5 0.999867 -80.25 0.999867 -80.25 0.014042 -170.3
8.68668500 0.014050 -170.5 0.999867 -80.25 0.999867 -80.25 0.014049 -170.3
8.68669000 0.014056 -170.5 0.999866 -80.25 0.999866 -80.25 0.014055 -170.3
8.68669500 0.014062 -170.5 0.999866 -80.25 0.999866 -80.25 0.014061 -170.3
8.68670000 0.014069 -170.5 0.999866 -80.25 0.999866 -80.25 0.014068 -170.3
8.68670500 0.014075 -170.5 0.999866 -80.25 0.999866 -80.25 0.014074 -170.3
8.68671000 0.014081 -170.5 0.999866 -80.25 0.999866 -80.25 0.014080 -170.3
8.68671500 0.014088 -170.5 0.999866 -80.25 0.999866 -80.25 0.014087 -170.3
8.68672000 0.014094 -170.5 0.999866 -80.26 0.999866 -80.26 0.014093 -170.3
8.68672500 0.014100 -170.5 0.999865 -80.26 0.999865 -80.26 0.014099 -170.3
8.68673000 0.014107 -170.5 0.999865 -80.26 0.999865 -80.26 0.014106 -170.3
8.68673500 0.014113 -170.5 0.999865 -80.26 0.999865 -80.26 0.014112 -170.3
8.68674000 0.014120 -170.5 0.999865 -80.26 0.999865 -80.26 0.014119 -170.3
8.68674500 0.014126 -170.5 0.999865 -80.26 0.999865 -80.26 0.014125 -170.3
8.68675000 0.014133 -170.5 0.999865 -80.26 0.999865 -80.26 0.014131 -170.3
8.68675500 0.014139 -170.5 0.999865 -80.26 0.999865 -80.26 0.014138 -170.3
8.68676000 0.014145 -170.5 0.999864 -80.26 0.999864 -80.26 0.014144 -170.3
8.68676500 0.014152 -170.5 0.999864 -80.26 0.999864 -80.26 0.014151 -170.3
8.68677000 0.014158 -170.5 0.999864 -80.26 0.999864 -80.26 0.014157 -170.3
8.68677500 0.014165 -170.5 0.999864 -80.26 0.999864 -80.26 0.014164 -170.3
8.68678000 0.014171 -170.5 0.999864 -80.26 0.999864 -80.26 0.014170 -170.3
8.68678500 0.014178 -170.5 0.999864 -80.26 0.999864 -80.26 0.014177 -170.3
8.68679000 0.014184 -170.5 0.999863 -80.26 0.999863 -80.26 0.014183 -170.3
8.68679500 0.014191 -170.5 0.999863 -80.26 0.999863 -80.26 0.014190 -170.3
8.68680000 0.014197 -170.5 0.999863 -80.26 0.999863 -80.26 0.014196 -170.3
8.68680500 0.014204 -170.5 0.999863 -80.26 0.999863 -80.26 0.014203 -170.3
8.68681000 0.014210 -170.5 0.999863 -80.26 0.999863 -80.26 0.014209 -170.3
8.68681500 0.014217 -170.5 0.999863 -80.26 0.999863 -80.26 0.014216 -170.3
8.68682000 0.014223 -170.5 0.999862 -80.26 0.999862 -80.26 0.014222 -170.3
8.68682500 0.014230 -170.5 0.999862 -80.26 0.999862 -80.26 0.014229 -170.3
8.68683000 0.014237 -170.5 0.999862 -80.26 0.999862 -80.26 0.014235 -170.3
8.68683500 0.014243 -170.5 0.999862 -80.26 0.999862 -80.26 0.014242 -170.3
8.68684000 0.014250 -170.5 0.999862 -80.27 0.999862 -80.27 0.014249 -170.3
8.68684500 0.014256 -170.5 0.999862 -80.27 0.999862 -80.27 0.014255 -170.3
8.68685000 0.014263 -170.5 0.999862 -80.27 0.999862 -80.27 0.014262 -170.3
8.68685500 0.014270 -170.5 0.999861 -80.27 0.999861 -80.27 0.014268 -170.3
8.68686000 0.014276 -170.5 0.999861 -80.27 0.999861 -80.27 0.014275 -170.3
8.68686500 0.014283 -170.5 0.999861 -80.27 0.999861 -80.27 0.014282 -170.3
8.68687000 0.014289 -170.5 0.999861 -80.27 0.999861 -80.27 0.014288 -170.3
8.68687500 0.014296 -170.5 0.999861 -80.27 0.999861 -80.27 0.014295 -170.3
8.68688000 0.014303 -170.5 0.999861 -80.27 0.999861 -80.27 0.014302 -170.3
8.68688500 0.014309 -170.5 0.999860 -80.27 0.999860 -80.27 0.014308 -170.3
8.68689000 0.014316 -170.5 0.999860 -80.27 0.999860 -80.27 0.014315 -170.3
8.68689500 0.014323 -170.5 0.999860 -80.27 0.999860 -80.27 0.014322 -170.3
8.68690000 0.014330 -170.5 0.999860 -80.27 0.999860 -80.27 0.014328 -170.3
8.68690500 0.014336 -170.5 0.999860 -80.27 0.999860 -80.27 0.014335 -170.3
8.68691000 0.014343 -170.5 0.999860 -80.27 0.999860 -80.27 0.014342 -170.3
8.68691500 0.014350 -170.5 0.999859 -80.27 0.999859 -80.27 0.014349 -170.3
8.68692000 0.014356 -170.5 0.999859 -80.27 0.999859 -80.27 0.014355 -170.3
8.68692500 0.014363 -170.5 0.999859 -80.27 0.999859 -80.27 0.014362 -170.3
8.68693000 0.014370 -170.5 0.999859 -80.27 0.999859 -80.27 0.014369 -170.3
8.68693500 0.014377 -170.5 0.999859 -80.27 0.999859 -80.27 0.014376 -170.3
8.68694000 0.014383 -170.5 0.999859 -80.27 0.999859 -80.27 0.014382 -170.3
8.68694500 0.014390 -170.5 0.999858 -80.27 0.999858 -80.27 0.014389 -170.3
8.68695000 0.014397 -170.5 0.999858 -80.27 0.999858 -80.27 0.014396 -170.3
8.68695500 0.014404 -170.5 0.999858 -80.27 0.999858 -80.27 0.014403 -170.3