! Sonnet Data File
! From: emgraph Version : 16.52
! From Project: Qubit_Xmon2_brg_para
! Data is De-embedded 
! Data File Written: 11/12/2017 19:09:19
!< HDATE 11/12/2017 17:12:30
!< MDATE 11/12/2017 17:12:30
!< PARAMS
!< Lj = 11.0
!< Gap = 6.0
!< Pwid = 2000.0
!< Airgap = 6.0
!< Width = 10.0
!< Bwid = 8.0
!< Dis1 = 450.0
!< Dis2 = 456.0
!< END PARAMS
# GHZ S MA R 51.80000
8.76000000 0.006328 -170.5 0.999976 -80.51 0.999976 -80.51 0.006328 -170.6
!< P1 F=8.76 Eeff=(6.44679139 -2.9786e-5) Z0=(51.7991425 1.19067e-4) R=0.0 C=0.0 
!< P2 F=8.76 Eeff=(6.44679139 -2.9786e-5) Z0=(51.7991425 1.19067e-4) R=0.0 C=0.0 
8.76002000 0.006329 -170.5 0.999976 -80.51 0.999976 -80.51 0.006329 -170.6
8.76004000 0.006330 -170.5 0.999976 -80.51 0.999976 -80.51 0.006330 -170.6
8.76006000 0.006331 -170.5 0.999976 -80.51 0.999976 -80.51 0.006331 -170.6
8.76008000 0.006332 -170.5 0.999976 -80.51 0.999976 -80.51 0.006332 -170.6
8.76010000 0.006333 -170.5 0.999976 -80.51 0.999976 -80.51 0.006333 -170.6
8.76012000 0.006334 -170.5 0.999976 -80.51 0.999976 -80.51 0.006334 -170.6
8.76014000 0.006335 -170.5 0.999976 -80.51 0.999976 -80.51 0.006335 -170.6
8.76016000 0.006336 -170.5 0.999976 -80.51 0.999976 -80.51 0.006336 -170.6
8.76018000 0.006337 -170.5 0.999976 -80.52 0.999976 -80.52 0.006337 -170.6
8.76020000 0.006337 -170.5 0.999976 -80.52 0.999976 -80.52 0.006337 -170.6
8.76022000 0.006338 -170.5 0.999976 -80.52 0.999976 -80.52 0.006338 -170.6
8.76024000 0.006339 -170.5 0.999976 -80.52 0.999976 -80.52 0.006339 -170.6
8.76026000 0.006340 -170.5 0.999976 -80.52 0.999976 -80.52 0.006340 -170.6
8.76028000 0.006341 -170.5 0.999976 -80.52 0.999976 -80.52 0.006341 -170.6
8.76030000 0.006342 -170.5 0.999976 -80.52 0.999976 -80.52 0.006342 -170.6
8.76032000 0.006343 -170.5 0.999976 -80.52 0.999976 -80.52 0.006343 -170.6
8.76034000 0.006344 -170.5 0.999976 -80.52 0.999976 -80.52 0.006344 -170.6
8.76036000 0.006345 -170.5 0.999976 -80.52 0.999976 -80.52 0.006345 -170.6
8.76038000 0.006346 -170.5 0.999976 -80.52 0.999976 -80.52 0.006346 -170.6
8.76040000 0.006347 -170.5 0.999976 -80.52 0.999976 -80.52 0.006346 -170.6
8.76042000 0.006347 -170.5 0.999976 -80.52 0.999976 -80.52 0.006347 -170.6
8.76044000 0.006348 -170.5 0.999976 -80.52 0.999976 -80.52 0.006348 -170.6
8.76046000 0.006349 -170.5 0.999976 -80.52 0.999976 -80.52 0.006349 -170.6
8.76048000 0.006350 -170.5 0.999976 -80.52 0.999976 -80.52 0.006350 -170.6
8.76050000 0.006351 -170.5 0.999976 -80.52 0.999976 -80.52 0.006351 -170.6
8.76052000 0.006352 -170.5 0.999976 -80.52 0.999976 -80.52 0.006352 -170.6
8.76054000 0.006353 -170.5 0.999976 -80.52 0.999976 -80.52 0.006353 -170.6
8.76056000 0.006354 -170.5 0.999976 -80.52 0.999976 -80.52 0.006354 -170.6
8.76058000 0.006355 -170.5 0.999976 -80.52 0.999976 -80.52 0.006355 -170.6
8.76060000 0.006356 -170.5 0.999976 -80.52 0.999976 -80.52 0.006356 -170.6
8.76062000 0.006357 -170.5 0.999976 -80.52 0.999976 -80.52 0.006357 -170.6
8.76064000 0.006358 -170.5 0.999976 -80.52 0.999976 -80.52 0.006357 -170.6
8.76066000 0.006358 -170.5 0.999976 -80.52 0.999976 -80.52 0.006358 -170.6
8.76068000 0.006359 -170.5 0.999976 -80.52 0.999976 -80.52 0.006359 -170.6
8.76070000 0.006360 -170.5 0.999976 -80.52 0.999976 -80.52 0.006360 -170.6
8.76072000 0.006361 -170.5 0.999976 -80.52 0.999976 -80.52 0.006361 -170.6
8.76074000 0.006362 -170.5 0.999976 -80.52 0.999976 -80.52 0.006362 -170.6
8.76076000 0.006363 -170.5 0.999976 -80.52 0.999976 -80.52 0.006363 -170.6
8.76078000 0.006364 -170.5 0.999976 -80.52 0.999976 -80.52 0.006364 -170.6
8.76080000 0.006365 -170.5 0.999976 -80.52 0.999976 -80.52 0.006365 -170.6
8.76082000 0.006366 -170.5 0.999976 -80.52 0.999976 -80.52 0.006366 -170.6
8.76084000 0.006367 -170.5 0.999976 -80.52 0.999976 -80.52 0.006367 -170.6
8.76086000 0.006368 -170.5 0.999976 -80.52 0.999976 -80.52 0.006368 -170.6
8.76088000 0.006369 -170.5 0.999976 -80.52 0.999976 -80.52 0.006369 -170.6
8.76090000 0.006370 -170.5 0.999976 -80.52 0.999976 -80.52 0.006370 -170.6
8.76092000 0.006371 -170.5 0.999976 -80.52 0.999976 -80.52 0.006370 -170.6
8.76094000 0.006371 -170.5 0.999976 -80.52 0.999976 -80.52 0.006371 -170.6
8.76096000 0.006372 -170.5 0.999976 -80.52 0.999976 -80.52 0.006372 -170.6
8.76098000 0.006373 -170.5 0.999976 -80.52 0.999976 -80.52 0.006373 -170.6
8.76100000 0.006374 -170.5 0.999976 -80.52 0.999976 -80.52 0.006374 -170.6
8.76102000 0.006375 -170.5 0.999976 -80.53 0.999976 -80.53 0.006375 -170.6
8.76104000 0.006376 -170.5 0.999976 -80.53 0.999976 -80.53 0.006376 -170.6
8.76106000 0.006377 -170.5 0.999976 -80.53 0.999976 -80.53 0.006377 -170.6
8.76108000 0.006378 -170.5 0.999976 -80.53 0.999976 -80.53 0.006378 -170.6
8.76110000 0.006379 -170.5 0.999976 -80.53 0.999976 -80.53 0.006379 -170.6
8.76112000 0.006380 -170.5 0.999976 -80.53 0.999976 -80.53 0.006380 -170.6
8.76114000 0.006381 -170.5 0.999976 -80.53 0.999976 -80.53 0.006381 -170.6
8.76116000 0.006382 -170.5 0.999976 -80.53 0.999976 -80.53 0.006382 -170.6
8.76118000 0.006383 -170.5 0.999976 -80.53 0.999976 -80.53 0.006383 -170.6
8.76120000 0.006384 -170.5 0.999976 -80.53 0.999976 -80.53 0.006384 -170.6
8.76122000 0.006385 -170.5 0.999976 -80.53 0.999976 -80.53 0.006385 -170.6
8.76124000 0.006386 -170.5 0.999976 -80.53 0.999976 -80.53 0.006386 -170.6
8.76126000 0.006387 -170.5 0.999976 -80.53 0.999976 -80.53 0.006387 -170.6
8.76128000 0.006387 -170.5 0.999976 -80.53 0.999976 -80.53 0.006387 -170.6
8.76130000 0.006388 -170.5 0.999975 -80.53 0.999975 -80.53 0.006388 -170.6
8.76132000 0.006389 -170.5 0.999975 -80.53 0.999975 -80.53 0.006389 -170.6
8.76134000 0.006390 -170.5 0.999975 -80.53 0.999975 -80.53 0.006390 -170.6
8.76136000 0.006391 -170.5 0.999975 -80.53 0.999975 -80.53 0.006391 -170.6
8.76138000 0.006392 -170.5 0.999975 -80.53 0.999975 -80.53 0.006392 -170.6
8.76140000 0.006393 -170.5 0.999975 -80.53 0.999975 -80.53 0.006393 -170.6
8.76142000 0.006394 -170.5 0.999975 -80.53 0.999975 -80.53 0.006394 -170.6
8.76144000 0.006395 -170.5 0.999975 -80.53 0.999975 -80.53 0.006395 -170.6
8.76146000 0.006396 -170.5 0.999975 -80.53 0.999975 -80.53 0.006396 -170.6
8.76148000 0.006397 -170.5 0.999975 -80.53 0.999975 -80.53 0.006397 -170.6
8.76150000 0.006398 -170.5 0.999975 -80.53 0.999975 -80.53 0.006398 -170.6
8.76152000 0.006399 -170.5 0.999975 -80.53 0.999975 -80.53 0.006399 -170.6
8.76154000 0.006400 -170.5 0.999975 -80.53 0.999975 -80.53 0.006400 -170.6
8.76156000 0.006401 -170.5 0.999975 -80.53 0.999975 -80.53 0.006401 -170.6
8.76158000 0.006402 -170.5 0.999975 -80.53 0.999975 -80.53 0.006402 -170.6
8.76160000 0.006403 -170.5 0.999975 -80.53 0.999975 -80.53 0.006403 -170.6
8.76162000 0.006404 -170.5 0.999975 -80.53 0.999975 -80.53 0.006404 -170.6
8.76164000 0.006405 -170.5 0.999975 -80.53 0.999975 -80.53 0.006405 -170.6
8.76166000 0.006406 -170.5 0.999975 -80.53 0.999975 -80.53 0.006406 -170.6
8.76168000 0.006407 -170.5 0.999975 -80.53 0.999975 -80.53 0.006407 -170.6
8.76170000 0.006408 -170.5 0.999975 -80.53 0.999975 -80.53 0.006408 -170.6
8.76172000 0.006409 -170.5 0.999975 -80.53 0.999975 -80.53 0.006409 -170.6
8.76174000 0.006410 -170.5 0.999975 -80.53 0.999975 -80.53 0.006410 -170.6
8.76176000 0.006411 -170.5 0.999975 -80.53 0.999975 -80.53 0.006411 -170.6
8.76178000 0.006412 -170.5 0.999975 -80.53 0.999975 -80.53 0.006412 -170.6
8.76180000 0.006413 -170.5 0.999975 -80.53 0.999975 -80.53 0.006413 -170.7
8.76182000 0.006414 -170.5 0.999975 -80.53 0.999975 -80.53 0.006414 -170.7
8.76184000 0.006415 -170.5 0.999975 -80.53 0.999975 -80.53 0.006415 -170.7
8.76186000 0.006416 -170.5 0.999975 -80.54 0.999975 -80.54 0.006415 -170.7
8.76188000 0.006416 -170.5 0.999975 -80.54 0.999975 -80.54 0.006416 -170.7
8.76190000 0.006417 -170.5 0.999975 -80.54 0.999975 -80.54 0.006417 -170.7
8.76192000 0.006418 -170.5 0.999975 -80.54 0.999975 -80.54 0.006418 -170.7
8.76194000 0.006419 -170.5 0.999975 -80.54 0.999975 -80.54 0.006419 -170.7
8.76196000 0.006420 -170.5 0.999975 -80.54 0.999975 -80.54 0.006420 -170.7
8.76198000 0.006421 -170.5 0.999975 -80.54 0.999975 -80.54 0.006421 -170.7
8.76200000 0.006422 -170.5 0.999975 -80.54 0.999975 -80.54 0.006422 -170.7
8.76202000 0.006423 -170.5 0.999975 -80.54 0.999975 -80.54 0.006423 -170.7
8.76204000 0.006424 -170.5 0.999975 -80.54 0.999975 -80.54 0.006424 -170.7
8.76206000 0.006425 -170.5 0.999975 -80.54 0.999975 -80.54 0.006425 -170.7
8.76208000 0.006426 -170.5 0.999975 -80.54 0.999975 -80.54 0.006426 -170.7
8.76210000 0.006427 -170.5 0.999975 -80.54 0.999975 -80.54 0.006427 -170.7
8.76212000 0.006428 -170.5 0.999975 -80.54 0.999975 -80.54 0.006428 -170.7
8.76214000 0.006429 -170.5 0.999975 -80.54 0.999975 -80.54 0.006429 -170.7
8.76216000 0.006430 -170.5 0.999975 -80.54 0.999975 -80.54 0.006430 -170.7
8.76218000 0.006431 -170.5 0.999975 -80.54 0.999975 -80.54 0.006431 -170.7
8.76220000 0.006432 -170.5 0.999975 -80.54 0.999975 -80.54 0.006432 -170.7
8.76222000 0.006433 -170.5 0.999975 -80.54 0.999975 -80.54 0.006433 -170.7
8.76224000 0.006434 -170.5 0.999975 -80.54 0.999975 -80.54 0.006434 -170.7
8.76226000 0.006435 -170.5 0.999975 -80.54 0.999975 -80.54 0.006435 -170.7
8.76228000 0.006436 -170.5 0.999975 -80.54 0.999975 -80.54 0.006436 -170.7
8.76230000 0.006437 -170.5 0.999975 -80.54 0.999975 -80.54 0.006437 -170.7
8.76232000 0.006438 -170.5 0.999975 -80.54 0.999975 -80.54 0.006438 -170.7
8.76234000 0.006439 -170.5 0.999975 -80.54 0.999975 -80.54 0.006439 -170.7
8.76236000 0.006440 -170.5 0.999975 -80.54 0.999975 -80.54 0.006440 -170.7
8.76238000 0.006441 -170.5 0.999975 -80.54 0.999975 -80.54 0.006441 -170.7
8.76240000 0.006442 -170.5 0.999975 -80.54 0.999975 -80.54 0.006442 -170.7
8.76242000 0.006443 -170.5 0.999975 -80.54 0.999975 -80.54 0.006443 -170.7
8.76244000 0.006444 -170.5 0.999975 -80.54 0.999975 -80.54 0.006444 -170.7
8.76246000 0.006445 -170.5 0.999975 -80.54 0.999975 -80.54 0.006445 -170.7
8.76248000 0.006446 -170.5 0.999975 -80.54 0.999975 -80.54 0.006446 -170.7
8.76250000 0.006447 -170.5 0.999975 -80.54 0.999975 -80.54 0.006447 -170.7
8.76252000 0.006448 -170.5 0.999975 -80.54 0.999975 -80.54 0.006448 -170.7
8.76254000 0.006449 -170.5 0.999975 -80.54 0.999975 -80.54 0.006449 -170.7
8.76256000 0.006450 -170.5 0.999975 -80.54 0.999975 -80.54 0.006450 -170.7
8.76258000 0.006452 -170.5 0.999975 -80.54 0.999975 -80.54 0.006451 -170.7
8.76260000 0.006453 -170.5 0.999975 -80.54 0.999975 -80.54 0.006453 -170.7
8.76262000 0.006454 -170.5 0.999975 -80.54 0.999975 -80.54 0.006454 -170.7
8.76264000 0.006455 -170.5 0.999975 -80.54 0.999975 -80.54 0.006455 -170.7
8.76266000 0.006456 -170.5 0.999975 -80.54 0.999975 -80.54 0.006456 -170.7
8.76268000 0.006457 -170.5 0.999975 -80.54 0.999975 -80.54 0.006457 -170.7
8.76270000 0.006458 -170.5 0.999975 -80.55 0.999975 -80.55 0.006458 -170.7
8.76272000 0.006459 -170.5 0.999975 -80.55 0.999975 -80.55 0.006459 -170.7
8.76274000 0.006460 -170.5 0.999975 -80.55 0.999975 -80.55 0.006460 -170.7
8.76276000 0.006461 -170.5 0.999975 -80.55 0.999975 -80.55 0.006461 -170.7
8.76278000 0.006462 -170.5 0.999975 -80.55 0.999975 -80.55 0.006462 -170.7
8.76280000 0.006463 -170.5 0.999975 -80.55 0.999975 -80.55 0.006463 -170.7
8.76282000 0.006464 -170.5 0.999975 -80.55 0.999975 -80.55 0.006464 -170.7
8.76284000 0.006465 -170.5 0.999975 -80.55 0.999975 -80.55 0.006465 -170.7
8.76286000 0.006466 -170.5 0.999975 -80.55 0.999975 -80.55 0.006466 -170.7
8.76288000 0.006467 -170.5 0.999975 -80.55 0.999975 -80.55 0.006467 -170.7
8.76290000 0.006468 -170.5 0.999975 -80.55 0.999975 -80.55 0.006468 -170.7
8.76292000 0.006469 -170.5 0.999975 -80.55 0.999975 -80.55 0.006469 -170.7
8.76294000 0.006470 -170.5 0.999975 -80.55 0.999975 -80.55 0.006470 -170.7
8.76296000 0.006471 -170.5 0.999975 -80.55 0.999975 -80.55 0.006471 -170.7
8.76298000 0.006472 -170.5 0.999975 -80.55 0.999975 -80.55 0.006472 -170.7
8.76300000 0.006473 -170.5 0.999975 -80.55 0.999975 -80.55 0.006473 -170.7
8.76302000 0.006474 -170.5 0.999975 -80.55 0.999975 -80.55 0.006474 -170.7
8.76304000 0.006475 -170.5 0.999975 -80.55 0.999975 -80.55 0.006475 -170.7
8.76306000 0.006476 -170.5 0.999975 -80.55 0.999975 -80.55 0.006476 -170.7
8.76308000 0.006477 -170.5 0.999975 -80.55 0.999975 -80.55 0.006477 -170.7
8.76310000 0.006478 -170.5 0.999975 -80.55 0.999975 -80.55 0.006478 -170.7
8.76312000 0.006479 -170.5 0.999975 -80.55 0.999975 -80.55 0.006479 -170.7
8.76314000 0.006480 -170.5 0.999975 -80.55 0.999975 -80.55 0.006480 -170.7
8.76316000 0.006482 -170.5 0.999975 -80.55 0.999975 -80.55 0.006482 -170.7
8.76318000 0.006483 -170.5 0.999975 -80.55 0.999975 -80.55 0.006483 -170.7
8.76320000 0.006484 -170.5 0.999975 -80.55 0.999975 -80.55 0.006484 -170.7
8.76322000 0.006485 -170.5 0.999975 -80.55 0.999975 -80.55 0.006485 -170.7
8.76324000 0.006486 -170.5 0.999975 -80.55 0.999975 -80.55 0.006486 -170.7
8.76326000 0.006487 -170.5 0.999975 -80.55 0.999975 -80.55 0.006487 -170.7
8.76328000 0.006488 -170.5 0.999975 -80.55 0.999975 -80.55 0.006488 -170.7
8.76330000 0.006489 -170.5 0.999975 -80.55 0.999975 -80.55 0.006489 -170.7
8.76332000 0.006490 -170.5 0.999975 -80.55 0.999975 -80.55 0.006490 -170.7
8.76334000 0.006491 -170.5 0.999975 -80.55 0.999975 -80.55 0.006491 -170.7
8.76336000 0.006492 -170.5 0.999975 -80.55 0.999975 -80.55 0.006492 -170.7
8.76338000 0.006493 -170.5 0.999975 -80.55 0.999975 -80.55 0.006493 -170.7
8.76340000 0.006494 -170.5 0.999975 -80.55 0.999975 -80.55 0.006494 -170.7
8.76342000 0.006495 -170.5 0.999975 -80.55 0.999975 -80.55 0.006495 -170.7
8.76344000 0.006496 -170.5 0.999975 -80.55 0.999975 -80.55 0.006496 -170.7
8.76346000 0.006497 -170.5 0.999975 -80.55 0.999975 -80.55 0.006497 -170.7
8.76348000 0.006498 -170.5 0.999975 -80.55 0.999975 -80.55 0.006498 -170.7
8.76350000 0.006500 -170.5 0.999975 -80.55 0.999975 -80.55 0.006500 -170.7
8.76352000 0.006501 -170.5 0.999975 -80.56 0.999975 -80.56 0.006501 -170.7
8.76354000 0.006502 -170.5 0.999975 -80.56 0.999975 -80.56 0.006502 -170.7
8.76356000 0.006503 -170.5 0.999975 -80.56 0.999975 -80.56 0.006503 -170.7
8.76358000 0.006504 -170.5 0.999975 -80.56 0.999975 -80.56 0.006504 -170.7
8.76360000 0.006505 -170.5 0.999975 -80.56 0.999975 -80.56 0.006505 -170.7
8.76362000 0.006506 -170.5 0.999975 -80.56 0.999975 -80.56 0.006506 -170.7
8.76364000 0.006507 -170.5 0.999975 -80.56 0.999975 -80.56 0.006507 -170.7
8.76366000 0.006508 -170.5 0.999975 -80.56 0.999975 -80.56 0.006508 -170.7
8.76368000 0.006509 -170.5 0.999975 -80.56 0.999975 -80.56 0.006509 -170.7
8.76370000 0.006510 -170.5 0.999975 -80.56 0.999975 -80.56 0.006510 -170.7
8.76372000 0.006511 -170.5 0.999975 -80.56 0.999975 -80.56 0.006511 -170.7
8.76374000 0.006512 -170.5 0.999975 -80.56 0.999975 -80.56 0.006512 -170.7
8.76376000 0.006514 -170.5 0.999975 -80.56 0.999975 -80.56 0.006514 -170.7
8.76378000 0.006515 -170.5 0.999975 -80.56 0.999975 -80.56 0.006515 -170.7
8.76380000 0.006516 -170.5 0.999975 -80.56 0.999975 -80.56 0.006516 -170.7
8.76382000 0.006517 -170.5 0.999975 -80.56 0.999975 -80.56 0.006517 -170.7
8.76384000 0.006518 -170.5 0.999975 -80.56 0.999975 -80.56 0.006518 -170.7
8.76386000 0.006519 -170.5 0.999975 -80.56 0.999975 -80.56 0.006519 -170.7
8.76388000 0.006520 -170.5 0.999975 -80.56 0.999975 -80.56 0.006520 -170.7
8.76390000 0.006521 -170.5 0.999975 -80.56 0.999975 -80.56 0.006521 -170.7
8.76392000 0.006522 -170.5 0.999975 -80.56 0.999975 -80.56 0.006522 -170.7
8.76394000 0.006523 -170.5 0.999974 -80.56 0.999974 -80.56 0.006523 -170.7
8.76396000 0.006524 -170.5 0.999974 -80.56 0.999974 -80.56 0.006524 -170.7
8.76398000 0.006526 -170.5 0.999974 -80.56 0.999974 -80.56 0.006526 -170.7
8.76400000 0.006527 -170.5 0.999974 -80.56 0.999974 -80.56 0.006527 -170.7
8.76402000 0.006528 -170.5 0.999974 -80.56 0.999974 -80.56 0.006528 -170.7
8.76404000 0.006529 -170.5 0.999974 -80.56 0.999974 -80.56 0.006529 -170.7
8.76406000 0.006530 -170.5 0.999974 -80.56 0.999974 -80.56 0.006530 -170.7
8.76408000 0.006531 -170.5 0.999974 -80.56 0.999974 -80.56 0.006531 -170.7
8.76410000 0.006532 -170.5 0.999974 -80.56 0.999974 -80.56 0.006532 -170.7
8.76412000 0.006533 -170.5 0.999974 -80.56 0.999974 -80.56 0.006533 -170.7
8.76414000 0.006534 -170.5 0.999974 -80.56 0.999974 -80.56 0.006534 -170.7
8.76416000 0.006536 -170.5 0.999974 -80.56 0.999974 -80.56 0.006536 -170.7
8.76418000 0.006537 -170.5 0.999974 -80.56 0.999974 -80.56 0.006537 -170.7
8.76420000 0.006538 -170.5 0.999974 -80.56 0.999974 -80.56 0.006538 -170.7
8.76422000 0.006539 -170.5 0.999974 -80.56 0.999974 -80.56 0.006539 -170.7
8.76424000 0.006540 -170.5 0.999974 -80.56 0.999974 -80.56 0.006540 -170.7
8.76426000 0.006541 -170.5 0.999974 -80.56 0.999974 -80.56 0.006541 -170.7
8.76428000 0.006542 -170.5 0.999974 -80.56 0.999974 -80.56 0.006542 -170.7
8.76430000 0.006543 -170.5 0.999974 -80.56 0.999974 -80.56 0.006543 -170.7
8.76432000 0.006544 -170.5 0.999974 -80.56 0.999974 -80.56 0.006544 -170.7
8.76434000 0.006546 -170.5 0.999974 -80.57 0.999974 -80.57 0.006546 -170.7
8.76436000 0.006547 -170.5 0.999974 -80.57 0.999974 -80.57 0.006547 -170.7
8.76438000 0.006548 -170.5 0.999974 -80.57 0.999974 -80.57 0.006548 -170.7
8.76440000 0.006549 -170.5 0.999974 -80.57 0.999974 -80.57 0.006549 -170.7
8.76442000 0.006550 -170.5 0.999974 -80.57 0.999974 -80.57 0.006550 -170.7
8.76444000 0.006551 -170.5 0.999974 -80.57 0.999974 -80.57 0.006551 -170.7
8.76446000 0.006552 -170.5 0.999974 -80.57 0.999974 -80.57 0.006552 -170.7
8.76448000 0.006553 -170.5 0.999974 -80.57 0.999974 -80.57 0.006553 -170.7
8.76450000 0.006555 -170.5 0.999974 -80.57 0.999974 -80.57 0.006555 -170.7
8.76452000 0.006556 -170.5 0.999974 -80.57 0.999974 -80.57 0.006556 -170.7
8.76454000 0.006557 -170.5 0.999974 -80.57 0.999974 -80.57 0.006557 -170.7
8.76456000 0.006558 -170.5 0.999974 -80.57 0.999974 -80.57 0.006558 -170.7
8.76458000 0.006559 -170.5 0.999974 -80.57 0.999974 -80.57 0.006559 -170.7
8.76460000 0.006560 -170.5 0.999974 -80.57 0.999974 -80.57 0.006560 -170.7
8.76462000 0.006561 -170.5 0.999974 -80.57 0.999974 -80.57 0.006561 -170.7
8.76464000 0.006563 -170.5 0.999974 -80.57 0.999974 -80.57 0.006562 -170.7
8.76466000 0.006564 -170.5 0.999974 -80.57 0.999974 -80.57 0.006564 -170.7
8.76468000 0.006565 -170.5 0.999974 -80.57 0.999974 -80.57 0.006565 -170.7
8.76470000 0.006566 -170.5 0.999974 -80.57 0.999974 -80.57 0.006566 -170.7
8.76472000 0.006567 -170.5 0.999974 -80.57 0.999974 -80.57 0.006567 -170.7
8.76474000 0.006568 -170.5 0.999974 -80.57 0.999974 -80.57 0.006568 -170.7
8.76476000 0.006569 -170.5 0.999974 -80.57 0.999974 -80.57 0.006569 -170.7
8.76478000 0.006571 -170.5 0.999974 -80.57 0.999974 -80.57 0.006571 -170.7
8.76480000 0.006572 -170.5 0.999974 -80.57 0.999974 -80.57 0.006572 -170.7
8.76482000 0.006573 -170.5 0.999974 -80.57 0.999974 -80.57 0.006573 -170.7
8.76484000 0.006574 -170.5 0.999974 -80.57 0.999974 -80.57 0.006574 -170.7
8.76486000 0.006575 -170.5 0.999974 -80.57 0.999974 -80.57 0.006575 -170.7
8.76488000 0.006576 -170.5 0.999974 -80.57 0.999974 -80.57 0.006576 -170.7
8.76490000 0.006577 -170.5 0.999974 -80.57 0.999974 -80.57 0.006577 -170.7
8.76492000 0.006579 -170.5 0.999974 -80.57 0.999974 -80.57 0.006579 -170.7
8.76494000 0.006580 -170.5 0.999974 -80.57 0.999974 -80.57 0.006580 -170.7
8.76496000 0.006581 -170.5 0.999974 -80.57 0.999974 -80.57 0.006581 -170.7
8.76498000 0.006582 -170.5 0.999974 -80.57 0.999974 -80.57 0.006582 -170.7
8.76500000 0.006583 -170.5 0.999974 -80.57 0.999974 -80.57 0.006583 -170.7
8.76502000 0.006584 -170.5 0.999974 -80.57 0.999974 -80.57 0.006584 -170.7
8.76504000 0.006586 -170.5 0.999974 -80.57 0.999974 -80.57 0.006586 -170.7
8.76506000 0.006587 -170.5 0.999974 -80.57 0.999974 -80.57 0.006587 -170.7
8.76508000 0.006588 -170.5 0.999974 -80.57 0.999974 -80.57 0.006588 -170.7
8.76510000 0.006589 -170.5 0.999974 -80.57 0.999974 -80.57 0.006589 -170.7
8.76512000 0.006590 -170.5 0.999974 -80.57 0.999974 -80.57 0.006590 -170.7
8.76514000 0.006591 -170.5 0.999974 -80.58 0.999974 -80.58 0.006591 -170.7
8.76516000 0.006593 -170.5 0.999974 -80.58 0.999974 -80.58 0.006593 -170.7
8.76518000 0.006594 -170.5 0.999974 -80.58 0.999974 -80.58 0.006594 -170.7
8.76520000 0.006595 -170.5 0.999974 -80.58 0.999974 -80.58 0.006595 -170.7
8.76522000 0.006596 -170.5 0.999974 -80.58 0.999974 -80.58 0.006596 -170.7
8.76524000 0.006597 -170.5 0.999974 -80.58 0.999974 -80.58 0.006597 -170.7
8.76526000 0.006598 -170.5 0.999974 -80.58 0.999974 -80.58 0.006598 -170.7
8.76528000 0.006600 -170.5 0.999974 -80.58 0.999974 -80.58 0.006600 -170.7
8.76530000 0.006601 -170.5 0.999974 -80.58 0.999974 -80.58 0.006601 -170.7
8.76532000 0.006602 -170.5 0.999974 -80.58 0.999974 -80.58 0.006602 -170.7
8.76534000 0.006603 -170.5 0.999974 -80.58 0.999974 -80.58 0.006603 -170.7
8.76536000 0.006604 -170.5 0.999974 -80.58 0.999974 -80.58 0.006604 -170.7
8.76538000 0.006606 -170.5 0.999974 -80.58 0.999974 -80.58 0.006606 -170.7
8.76540000 0.006607 -170.5 0.999974 -80.58 0.999974 -80.58 0.006607 -170.7
8.76542000 0.006608 -170.5 0.999974 -80.58 0.999974 -80.58 0.006608 -170.7
8.76544000 0.006609 -170.5 0.999974 -80.58 0.999974 -80.58 0.006609 -170.7
8.76546000 0.006610 -170.5 0.999974 -80.58 0.999974 -80.58 0.006610 -170.7
8.76548000 0.006612 -170.5 0.999974 -80.58 0.999974 -80.58 0.006612 -170.7
8.76550000 0.006613 -170.5 0.999974 -80.58 0.999974 -80.58 0.006613 -170.7
8.76552000 0.006614 -170.5 0.999974 -80.58 0.999974 -80.58 0.006614 -170.7
8.76554000 0.006615 -170.5 0.999974 -80.58 0.999974 -80.58 0.006615 -170.7
8.76556000 0.006616 -170.5 0.999974 -80.58 0.999974 -80.58 0.006616 -170.7
8.76558000 0.006618 -170.5 0.999974 -80.58 0.999974 -80.58 0.006618 -170.7
8.76560000 0.006619 -170.5 0.999974 -80.58 0.999974 -80.58 0.006619 -170.7
8.76562000 0.006620 -170.5 0.999974 -80.58 0.999974 -80.58 0.006620 -170.7
8.76564000 0.006621 -170.5 0.999974 -80.58 0.999974 -80.58 0.006621 -170.7
8.76566000 0.006622 -170.5 0.999974 -80.58 0.999974 -80.58 0.006622 -170.7
8.76568000 0.006624 -170.5 0.999974 -80.58 0.999974 -80.58 0.006624 -170.7
8.76570000 0.006625 -170.5 0.999974 -80.58 0.999974 -80.58 0.006625 -170.7
8.76572000 0.006626 -170.5 0.999974 -80.58 0.999974 -80.58 0.006626 -170.7
8.76574000 0.006627 -170.5 0.999974 -80.58 0.999974 -80.58 0.006627 -170.7
8.76576000 0.006628 -170.5 0.999974 -80.58 0.999974 -80.58 0.006628 -170.7
8.76578000 0.006630 -170.5 0.999974 -80.58 0.999974 -80.58 0.006630 -170.7
8.76580000 0.006631 -170.5 0.999974 -80.58 0.999974 -80.58 0.006631 -170.7
8.76582000 0.006632 -170.5 0.999974 -80.58 0.999974 -80.58 0.006632 -170.7
8.76584000 0.006633 -170.5 0.999974 -80.58 0.999974 -80.58 0.006633 -170.7
8.76586000 0.006635 -170.5 0.999974 -80.58 0.999974 -80.58 0.006635 -170.7
8.76588000 0.006636 -170.5 0.999974 -80.58 0.999974 -80.58 0.006636 -170.7
8.76590000 0.006637 -170.5 0.999974 -80.58 0.999974 -80.58 0.006637 -170.7
8.76592000 0.006638 -170.5 0.999974 -80.59 0.999974 -80.59 0.006638 -170.7
8.76594000 0.006639 -170.5 0.999974 -80.59 0.999974 -80.59 0.006639 -170.7
8.76596000 0.006641 -170.5 0.999974 -80.59 0.999974 -80.59 0.006641 -170.7
8.76598000 0.006642 -170.5 0.999974 -80.59 0.999974 -80.59 0.006642 -170.7
8.76600000 0.006643 -170.5 0.999974 -80.59 0.999974 -80.59 0.006643 -170.7
8.76602000 0.006644 -170.5 0.999974 -80.59 0.999974 -80.59 0.006644 -170.7
8.76604000 0.006646 -170.5 0.999974 -80.59 0.999974 -80.59 0.006646 -170.7
8.76606000 0.006647 -170.5 0.999974 -80.59 0.999974 -80.59 0.006647 -170.7
8.76608000 0.006648 -170.5 0.999974 -80.59 0.999974 -80.59 0.006648 -170.7
8.76610000 0.006649 -170.5 0.999974 -80.59 0.999974 -80.59 0.006649 -170.7
8.76612000 0.006651 -170.5 0.999974 -80.59 0.999974 -80.59 0.006651 -170.7
8.76614000 0.006652 -170.5 0.999974 -80.59 0.999974 -80.59 0.006652 -170.7
8.76616000 0.006653 -170.5 0.999974 -80.59 0.999974 -80.59 0.006653 -170.7
8.76618000 0.006654 -170.5 0.999973 -80.59 0.999973 -80.59 0.006654 -170.7
8.76620000 0.006656 -170.5 0.999973 -80.59 0.999973 -80.59 0.006655 -170.7
8.76622000 0.006657 -170.5 0.999973 -80.59 0.999973 -80.59 0.006657 -170.7
8.76624000 0.006658 -170.5 0.999973 -80.59 0.999973 -80.59 0.006658 -170.7
8.76626000 0.006659 -170.5 0.999973 -80.59 0.999973 -80.59 0.006659 -170.7
8.76628000 0.006661 -170.5 0.999973 -80.59 0.999973 -80.59 0.006660 -170.7
8.76630000 0.006662 -170.5 0.999973 -80.59 0.999973 -80.59 0.006662 -170.7
8.76632000 0.006663 -170.5 0.999973 -80.59 0.999973 -80.59 0.006663 -170.7
8.76634000 0.006664 -170.5 0.999973 -80.59 0.999973 -80.59 0.006664 -170.7
8.76636000 0.006666 -170.5 0.999973 -80.59 0.999973 -80.59 0.006666 -170.7
8.76638000 0.006667 -170.5 0.999973 -80.59 0.999973 -80.59 0.006667 -170.7
8.76640000 0.006668 -170.5 0.999973 -80.59 0.999973 -80.59 0.006668 -170.7
8.76642000 0.006669 -170.5 0.999973 -80.59 0.999973 -80.59 0.006669 -170.7
8.76644000 0.006671 -170.5 0.999973 -80.59 0.999973 -80.59 0.006671 -170.7
8.76646000 0.006672 -170.5 0.999973 -80.59 0.999973 -80.59 0.006672 -170.7
8.76648000 0.006673 -170.5 0.999973 -80.59 0.999973 -80.59 0.006673 -170.7
8.76650000 0.006674 -170.5 0.999973 -80.59 0.999973 -80.59 0.006674 -170.7
8.76652000 0.006676 -170.5 0.999973 -80.59 0.999973 -80.59 0.006676 -170.7
8.76654000 0.006677 -170.5 0.999973 -80.59 0.999973 -80.59 0.006677 -170.7
8.76656000 0.006678 -170.5 0.999973 -80.59 0.999973 -80.59 0.006678 -170.7
8.76658000 0.006679 -170.5 0.999973 -80.59 0.999973 -80.59 0.006679 -170.7
8.76660000 0.006681 -170.5 0.999973 -80.59 0.999973 -80.59 0.006681 -170.7
8.76662000 0.006682 -170.5 0.999973 -80.59 0.999973 -80.59 0.006682 -170.7
8.76664000 0.006683 -170.5 0.999973 -80.59 0.999973 -80.59 0.006683 -170.7
8.76666000 0.006685 -170.5 0.999973 -80.59 0.999973 -80.59 0.006685 -170.7
8.76668000 0.006686 -170.5 0.999973 -80.59 0.999973 -80.59 0.006686 -170.7
8.76670000 0.006687 -170.5 0.999973 -80.59 0.999973 -80.59 0.006687 -170.7
8.76672000 0.006688 -170.5 0.999973 -80.60 0.999973 -80.60 0.006688 -170.8
8.76674000 0.006690 -170.5 0.999973 -80.60 0.999973 -80.60 0.006690 -170.8
8.76676000 0.006691 -170.5 0.999973 -80.60 0.999973 -80.60 0.006691 -170.8
8.76678000 0.006692 -170.5 0.999973 -80.60 0.999973 -80.60 0.006692 -170.8
8.76680000 0.006694 -170.5 0.999973 -80.60 0.999973 -80.60 0.006694 -170.8
8.76682000 0.006695 -170.5 0.999973 -80.60 0.999973 -80.60 0.006695 -170.8
8.76684000 0.006696 -170.5 0.999973 -80.60 0.999973 -80.60 0.006696 -170.8
8.76686000 0.006697 -170.5 0.999973 -80.60 0.999973 -80.60 0.006697 -170.8
8.76688000 0.006699 -170.5 0.999973 -80.60 0.999973 -80.60 0.006699 -170.8
8.76690000 0.006700 -170.5 0.999973 -80.60 0.999973 -80.60 0.006700 -170.8
8.76692000 0.006701 -170.5 0.999973 -80.60 0.999973 -80.60 0.006701 -170.8
8.76694000 0.006703 -170.5 0.999973 -80.60 0.999973 -80.60 0.006703 -170.8
8.76696000 0.006704 -170.5 0.999973 -80.60 0.999973 -80.60 0.006704 -170.8
8.76698000 0.006705 -170.5 0.999973 -80.60 0.999973 -80.60 0.006705 -170.8
8.76700000 0.006707 -170.5 0.999973 -80.60 0.999973 -80.60 0.006707 -170.8
8.76702000 0.006708 -170.5 0.999973 -80.60 0.999973 -80.60 0.006708 -170.8
8.76704000 0.006709 -170.5 0.999973 -80.60 0.999973 -80.60 0.006709 -170.8
8.76706000 0.006711 -170.5 0.999973 -80.60 0.999973 -80.60 0.006710 -170.8
8.76708000 0.006712 -170.5 0.999973 -80.60 0.999973 -80.60 0.006712 -170.8
8.76710000 0.006713 -170.5 0.999973 -80.60 0.999973 -80.60 0.006713 -170.8
8.76712000 0.006714 -170.5 0.999973 -80.60 0.999973 -80.60 0.006714 -170.8
8.76714000 0.006716 -170.5 0.999973 -80.60 0.999973 -80.60 0.006716 -170.8
8.76716000 0.006717 -170.5 0.999973 -80.60 0.999973 -80.60 0.006717 -170.8
8.76718000 0.006718 -170.5 0.999973 -80.60 0.999973 -80.60 0.006718 -170.8
8.76720000 0.006720 -170.5 0.999973 -80.60 0.999973 -80.60 0.006720 -170.8
8.76722000 0.006721 -170.5 0.999973 -80.60 0.999973 -80.60 0.006721 -170.8
8.76724000 0.006722 -170.5 0.999973 -80.60 0.999973 -80.60 0.006722 -170.8
8.76726000 0.006724 -170.5 0.999973 -80.60 0.999973 -80.60 0.006724 -170.8
8.76728000 0.006725 -170.5 0.999973 -80.60 0.999973 -80.60 0.006725 -170.8
8.76730000 0.006726 -170.5 0.999973 -80.60 0.999973 -80.60 0.006726 -170.8
8.76732000 0.006728 -170.5 0.999973 -80.60 0.999973 -80.60 0.006728 -170.8
8.76734000 0.006729 -170.5 0.999973 -80.60 0.999973 -80.60 0.006729 -170.8
8.76736000 0.006730 -170.5 0.999973 -80.60 0.999973 -80.60 0.006730 -170.8
8.76738000 0.006732 -170.5 0.999973 -80.60 0.999973 -80.60 0.006732 -170.8
8.76740000 0.006733 -170.5 0.999973 -80.60 0.999973 -80.60 0.006733 -170.8
8.76742000 0.006734 -170.5 0.999973 -80.60 0.999973 -80.60 0.006734 -170.8
8.76744000 0.006736 -170.5 0.999973 -80.60 0.999973 -80.60 0.006736 -170.8
8.76746000 0.006737 -170.5 0.999973 -80.60 0.999973 -80.60 0.006737 -170.8
8.76748000 0.006738 -170.5 0.999973 -80.61 0.999973 -80.61 0.006738 -170.8
8.76750000 0.006740 -170.5 0.999973 -80.61 0.999973 -80.61 0.006740 -170.8
8.76752000 0.006741 -170.5 0.999973 -80.61 0.999973 -80.61 0.006741 -170.8
8.76754000 0.006742 -170.5 0.999973 -80.61 0.999973 -80.61 0.006742 -170.8
8.76756000 0.006744 -170.5 0.999973 -80.61 0.999973 -80.61 0.006744 -170.8
8.76758000 0.006745 -170.5 0.999973 -80.61 0.999973 -80.61 0.006745 -170.8
8.76760000 0.006747 -170.5 0.999973 -80.61 0.999973 -80.61 0.006746 -170.8
8.76762000 0.006748 -170.5 0.999973 -80.61 0.999973 -80.61 0.006748 -170.8
8.76764000 0.006749 -170.5 0.999973 -80.61 0.999973 -80.61 0.006749 -170.8
8.76766000 0.006751 -170.5 0.999973 -80.61 0.999973 -80.61 0.006751 -170.8
8.76768000 0.006752 -170.5 0.999973 -80.61 0.999973 -80.61 0.006752 -170.8
8.76770000 0.006753 -170.5 0.999973 -80.61 0.999973 -80.61 0.006753 -170.8
8.76772000 0.006755 -170.5 0.999973 -80.61 0.999973 -80.61 0.006755 -170.8
8.76774000 0.006756 -170.5 0.999973 -80.61 0.999973 -80.61 0.006756 -170.8
8.76776000 0.006757 -170.5 0.999973 -80.61 0.999973 -80.61 0.006757 -170.8
8.76778000 0.006759 -170.5 0.999973 -80.61 0.999973 -80.61 0.006759 -170.8
8.76780000 0.006760 -170.5 0.999973 -80.61 0.999973 -80.61 0.006760 -170.8
8.76782000 0.006762 -170.5 0.999973 -80.61 0.999973 -80.61 0.006762 -170.8