! Sonnet Data File
! From: emgraph Version : 16.52
! From Emgraph Data: Qubit_Xmon2_brgDb
! Data File Written: 11/12/2017 19:51:19
!< HDATE 11/12/2017 19:12:18
!< MDATE 11/12/2017 19:12:18
!< PARAMS
!< Lj = 11.0
!< Gap = 6.0
!< Pwid = 2000.0
!< Width = 10.0
!< Bwid = 8.0
!< Dis1 = 350.0
!< END PARAMS
# GHZ S MA R 51.80000
8.74000000 0.019782 -170.8 0.999774 -81.04 0.999774 -81.04 0.019782 -171.4
!< P1 F=8.74 Eeff=(6.446804 -2.9786e-5) Z0=(51.7992027 1.19069e-4) R=0.0 C=0.0 
!< P2 F=8.74 Eeff=(6.446804 -2.9786e-5) Z0=(51.7992027 1.19069e-4) R=0.0 C=0.0 
8.74001000 0.019797 -170.8 0.999774 -81.04 0.999774 -81.04 0.019797 -171.4
8.74002000 0.019812 -170.8 0.999773 -81.04 0.999773 -81.04 0.019811 -171.4
8.74003000 0.019826 -170.8 0.999773 -81.04 0.999773 -81.04 0.019826 -171.4
8.74004000 0.019841 -170.8 0.999773 -81.04 0.999773 -81.04 0.019841 -171.5
8.74005000 0.019856 -170.8 0.999772 -81.04 0.999772 -81.04 0.019856 -171.5
8.74006000 0.019871 -170.8 0.999772 -81.05 0.999772 -81.05 0.019871 -171.5
8.74007000 0.019886 -170.8 0.999771 -81.05 0.999771 -81.05 0.019886 -171.5
8.74008000 0.019901 -170.8 0.999771 -81.05 0.999771 -81.05 0.019901 -171.5
8.74009000 0.019916 -170.8 0.999771 -81.05 0.999771 -81.05 0.019916 -171.5
8.74010000 0.019931 -170.8 0.999770 -81.05 0.999770 -81.05 0.019931 -171.5
8.74011000 0.019946 -170.8 0.999770 -81.05 0.999770 -81.05 0.019946 -171.5
8.74012000 0.019961 -170.8 0.999770 -81.05 0.999770 -81.05 0.019961 -171.5
8.74013000 0.019976 -170.8 0.999769 -81.05 0.999769 -81.05 0.019976 -171.5
8.74014000 0.019992 -170.8 0.999769 -81.05 0.999769 -81.05 0.019991 -171.5
8.74015000 0.020007 -170.8 0.999768 -81.05 0.999768 -81.05 0.020007 -171.5
8.74016000 0.020022 -170.8 0.999768 -81.06 0.999768 -81.06 0.020022 -171.5
8.74017000 0.020038 -170.8 0.999768 -81.06 0.999768 -81.06 0.020038 -171.5
8.74018000 0.020053 -170.8 0.999767 -81.06 0.999767 -81.06 0.020053 -171.5
8.74019000 0.020069 -170.8 0.999767 -81.06 0.999767 -81.06 0.020068 -171.5
8.74020000 0.020084 -170.8 0.999766 -81.06 0.999766 -81.06 0.020084 -171.5
8.74021000 0.020100 -170.8 0.999766 -81.06 0.999766 -81.06 0.020100 -171.5
8.74022000 0.020115 -170.8 0.999766 -81.06 0.999766 -81.06 0.020115 -171.5
8.74023000 0.020131 -170.8 0.999765 -81.06 0.999765 -81.06 0.020131 -171.5
8.74024000 0.020147 -170.8 0.999765 -81.06 0.999765 -81.06 0.020147 -171.5
8.74025000 0.020163 -170.8 0.999764 -81.06 0.999764 -81.06 0.020162 -171.5
8.74026000 0.020178 -170.8 0.999764 -81.07 0.999764 -81.07 0.020178 -171.5
8.74027000 0.020194 -170.8 0.999764 -81.07 0.999764 -81.07 0.020194 -171.5
8.74028000 0.020210 -170.8 0.999763 -81.07 0.999763 -81.07 0.020210 -171.5
8.74029000 0.020226 -170.8 0.999763 -81.07 0.999763 -81.07 0.020226 -171.5
8.74030000 0.020242 -170.8 0.999762 -81.07 0.999762 -81.07 0.020242 -171.5
8.74031000 0.020258 -170.8 0.999762 -81.07 0.999762 -81.07 0.020258 -171.5
8.74032000 0.020274 -170.8 0.999761 -81.07 0.999761 -81.07 0.020274 -171.5
8.74033000 0.020291 -170.8 0.999761 -81.07 0.999761 -81.07 0.020290 -171.5
8.74034000 0.020307 -170.8 0.999761 -81.07 0.999761 -81.07 0.020307 -171.5
8.74035000 0.020323 -170.8 0.999760 -81.07 0.999760 -81.07 0.020323 -171.5
8.74036000 0.020339 -170.8 0.999760 -81.08 0.999760 -81.08 0.020339 -171.5
8.74037000 0.020356 -170.8 0.999759 -81.08 0.999759 -81.08 0.020355 -171.5
8.74038000 0.020372 -170.8 0.999759 -81.08 0.999759 -81.08 0.020372 -171.5
8.74039000 0.020389 -170.8 0.999758 -81.08 0.999758 -81.08 0.020388 -171.5
8.74040000 0.020405 -170.8 0.999758 -81.08 0.999758 -81.08 0.020405 -171.5
8.74041000 0.020422 -170.8 0.999758 -81.08 0.999758 -81.08 0.020421 -171.5
8.74042000 0.020438 -170.8 0.999757 -81.08 0.999757 -81.08 0.020438 -171.5
8.74043000 0.020455 -170.8 0.999757 -81.08 0.999757 -81.08 0.020455 -171.5
8.74044000 0.020472 -170.8 0.999756 -81.08 0.999756 -81.08 0.020472 -171.5
8.74045000 0.020489 -170.8 0.999756 -81.08 0.999756 -81.08 0.020488 -171.5
8.74046000 0.020505 -170.8 0.999755 -81.09 0.999755 -81.09 0.020505 -171.5
8.74047000 0.020522 -170.9 0.999755 -81.09 0.999755 -81.09 0.020522 -171.5
8.74048000 0.020539 -170.9 0.999754 -81.09 0.999754 -81.09 0.020539 -171.5
8.74049000 0.020556 -170.9 0.999754 -81.09 0.999754 -81.09 0.020556 -171.5
8.74050000 0.020573 -170.9 0.999754 -81.09 0.999754 -81.09 0.020573 -171.5
8.74051000 0.020590 -170.9 0.999753 -81.09 0.999753 -81.09 0.020590 -171.5
8.74052000 0.020608 -170.9 0.999753 -81.09 0.999753 -81.09 0.020607 -171.5
8.74053000 0.020625 -170.9 0.999752 -81.09 0.999752 -81.09 0.020625 -171.5
8.74054000 0.020642 -170.9 0.999752 -81.09 0.999752 -81.09 0.020642 -171.5
8.74055000 0.020659 -170.9 0.999751 -81.10 0.999751 -81.10 0.020659 -171.5
8.74056000 0.020677 -170.9 0.999751 -81.10 0.999751 -81.10 0.020677 -171.5
8.74057000 0.020694 -170.9 0.999750 -81.10 0.999750 -81.10 0.020694 -171.5
8.74058000 0.020712 -170.9 0.999750 -81.10 0.999750 -81.10 0.020711 -171.5
8.74059000 0.020729 -170.9 0.999749 -81.10 0.999749 -81.10 0.020729 -171.5
8.74060000 0.020747 -170.9 0.999749 -81.10 0.999749 -81.10 0.020747 -171.5
8.74061000 0.020765 -170.9 0.999749 -81.10 0.999749 -81.10 0.020764 -171.5
8.74062000 0.020782 -170.9 0.999748 -81.10 0.999748 -81.10 0.020782 -171.5
8.74063000 0.020800 -170.9 0.999748 -81.10 0.999748 -81.10 0.020800 -171.5
8.74064000 0.020818 -170.9 0.999747 -81.11 0.999747 -81.11 0.020818 -171.5
8.74065000 0.020836 -170.9 0.999747 -81.11 0.999747 -81.11 0.020836 -171.5
8.74066000 0.020854 -170.9 0.999746 -81.11 0.999746 -81.11 0.020853 -171.5
8.74067000 0.020872 -170.9 0.999746 -81.11 0.999746 -81.11 0.020871 -171.5
8.74068000 0.020890 -170.9 0.999745 -81.11 0.999745 -81.11 0.020890 -171.5
8.74069000 0.020908 -170.9 0.999745 -81.11 0.999745 -81.11 0.020908 -171.5
8.74070000 0.020926 -170.9 0.999744 -81.11 0.999744 -81.11 0.020926 -171.5
8.74071000 0.020944 -170.9 0.999744 -81.11 0.999744 -81.11 0.020944 -171.5
8.74072000 0.020963 -170.9 0.999743 -81.11 0.999743 -81.11 0.020962 -171.5
8.74073000 0.020981 -170.9 0.999743 -81.12 0.999743 -81.12 0.020981 -171.6
8.74074000 0.021000 -170.9 0.999742 -81.12 0.999742 -81.12 0.020999 -171.6
8.74075000 0.021018 -170.9 0.999742 -81.12 0.999742 -81.12 0.021018 -171.6
8.74076000 0.021037 -170.9 0.999741 -81.12 0.999741 -81.12 0.021036 -171.6
8.74077000 0.021055 -170.9 0.999741 -81.12 0.999741 -81.12 0.021055 -171.6
8.74078000 0.021074 -170.9 0.999740 -81.12 0.999740 -81.12 0.021074 -171.6
8.74079000 0.021093 -170.9 0.999740 -81.12 0.999740 -81.12 0.021092 -171.6
8.74080000 0.021111 -170.9 0.999739 -81.12 0.999739 -81.12 0.021111 -171.6
8.74081000 0.021130 -170.9 0.999739 -81.12 0.999739 -81.12 0.021130 -171.6
8.74082000 0.021149 -170.9 0.999738 -81.13 0.999738 -81.13 0.021149 -171.6
8.74083000 0.021168 -170.9 0.999738 -81.13 0.999738 -81.13 0.021168 -171.6
8.74084000 0.021187 -170.9 0.999737 -81.13 0.999737 -81.13 0.021187 -171.6
8.74085000 0.021206 -170.9 0.999737 -81.13 0.999737 -81.13 0.021206 -171.6
8.74086000 0.021226 -170.9 0.999736 -81.13 0.999736 -81.13 0.021225 -171.6
8.74087000 0.021245 -170.9 0.999735 -81.13 0.999735 -81.13 0.021245 -171.6
8.74088000 0.021264 -170.9 0.999735 -81.13 0.999735 -81.13 0.021264 -171.6
8.74089000 0.021284 -170.9 0.999734 -81.13 0.999734 -81.13 0.021283 -171.6
8.74090000 0.021303 -170.9 0.999734 -81.14 0.999734 -81.14 0.021303 -171.6
8.74091000 0.021323 -170.9 0.999733 -81.14 0.999733 -81.14 0.021322 -171.6
8.74092000 0.021342 -170.9 0.999733 -81.14 0.999733 -81.14 0.021342 -171.6
8.74093000 0.021362 -170.9 0.999732 -81.14 0.999732 -81.14 0.021362 -171.6
8.74094000 0.021382 -170.9 0.999732 -81.14 0.999732 -81.14 0.021381 -171.6
8.74095000 0.021401 -170.9 0.999731 -81.14 0.999731 -81.14 0.021401 -171.6
8.74096000 0.021421 -170.9 0.999731 -81.14 0.999731 -81.14 0.021421 -171.6
8.74097000 0.021441 -170.9 0.999730 -81.14 0.999730 -81.14 0.021441 -171.6
8.74098000 0.021461 -170.9 0.999729 -81.15 0.999729 -81.15 0.021461 -171.6
8.74099000 0.021481 -170.9 0.999729 -81.15 0.999729 -81.15 0.021481 -171.6
8.74100000 0.021501 -170.9 0.999728 -81.15 0.999728 -81.15 0.021501 -171.6
8.74101000 0.021522 -170.9 0.999728 -81.15 0.999728 -81.15 0.021521 -171.6
8.74102000 0.021542 -170.9 0.999727 -81.15 0.999727 -81.15 0.021541 -171.6
8.74103000 0.021562 -170.9 0.999727 -81.15 0.999727 -81.15 0.021562 -171.6
8.74104000 0.021583 -170.9 0.999726 -81.15 0.999726 -81.15 0.021582 -171.6
8.74105000 0.021603 -170.9 0.999726 -81.15 0.999726 -81.15 0.021603 -171.6
8.74106000 0.021624 -170.9 0.999725 -81.16 0.999725 -81.16 0.021623 -171.6
8.74107000 0.021644 -170.9 0.999724 -81.16 0.999724 -81.16 0.021644 -171.6
8.74108000 0.021665 -170.9 0.999724 -81.16 0.999724 -81.16 0.021665 -171.6
8.74109000 0.021686 -170.9 0.999723 -81.16 0.999723 -81.16 0.021685 -171.6
8.74110000 0.021707 -170.9 0.999723 -81.16 0.999723 -81.16 0.021706 -171.6
8.74111000 0.021727 -170.9 0.999722 -81.16 0.999722 -81.16 0.021727 -171.6
8.74112000 0.021748 -170.9 0.999721 -81.16 0.999721 -81.16 0.021748 -171.6
8.74113000 0.021770 -170.9 0.999721 -81.16 0.999721 -81.16 0.021769 -171.6
8.74114000 0.021791 -170.9 0.999720 -81.17 0.999720 -81.17 0.021790 -171.6
8.74115000 0.021812 -170.9 0.999720 -81.17 0.999720 -81.17 0.021812 -171.6
8.74116000 0.021833 -170.9 0.999719 -81.17 0.999719 -81.17 0.021833 -171.6
8.74117000 0.021855 -170.9 0.999718 -81.17 0.999718 -81.17 0.021854 -171.6
8.74118000 0.021876 -170.9 0.999718 -81.17 0.999718 -81.17 0.021876 -171.6
8.74119000 0.021898 -170.9 0.999717 -81.17 0.999717 -81.17 0.021897 -171.6
8.74120000 0.021919 -170.9 0.999717 -81.17 0.999717 -81.17 0.021919 -171.6
8.74121000 0.021941 -170.9 0.999716 -81.18 0.999716 -81.18 0.021940 -171.6
8.74122000 0.021963 -170.9 0.999715 -81.18 0.999715 -81.18 0.021962 -171.6
8.74123000 0.021984 -170.9 0.999715 -81.18 0.999715 -81.18 0.021984 -171.6
8.74124000 0.022006 -170.9 0.999714 -81.18 0.999714 -81.18 0.022006 -171.6
8.74125000 0.022028 -170.9 0.999713 -81.18 0.999713 -81.18 0.022028 -171.6
8.74126000 0.022050 -170.9 0.999713 -81.18 0.999713 -81.18 0.022050 -171.6
8.74127000 0.022073 -170.9 0.999712 -81.18 0.999712 -81.18 0.022072 -171.6
8.74128000 0.022095 -170.9 0.999712 -81.18 0.999712 -81.18 0.022094 -171.6
8.74129000 0.022117 -170.9 0.999711 -81.19 0.999711 -81.19 0.022117 -171.6
8.74130000 0.022139 -171.0 0.999710 -81.19 0.999710 -81.19 0.022139 -171.7
8.74131000 0.022162 -171.0 0.999710 -81.19 0.999710 -81.19 0.022162 -171.7
8.74132000 0.022185 -171.0 0.999709 -81.19 0.999709 -81.19 0.022184 -171.7
8.74133000 0.022207 -171.0 0.999708 -81.19 0.999708 -81.19 0.022207 -171.7
8.74134000 0.022230 -171.0 0.999708 -81.19 0.999708 -81.19 0.022230 -171.7
8.74135000 0.022253 -171.0 0.999707 -81.19 0.999707 -81.19 0.022252 -171.7
8.74136000 0.022276 -171.0 0.999706 -81.20 0.999706 -81.20 0.022275 -171.7
8.74137000 0.022299 -171.0 0.999706 -81.20 0.999706 -81.20 0.022298 -171.7
8.74138000 0.022322 -171.0 0.999705 -81.20 0.999705 -81.20 0.022321 -171.7
8.74139000 0.022345 -171.0 0.999704 -81.20 0.999704 -81.20 0.022344 -171.7
8.74140000 0.022368 -171.0 0.999704 -81.20 0.999704 -81.20 0.022368 -171.7
8.74141000 0.022391 -171.0 0.999703 -81.20 0.999703 -81.20 0.022391 -171.7
8.74142000 0.022415 -171.0 0.999702 -81.20 0.999702 -81.20 0.022414 -171.7
8.74143000 0.022438 -171.0 0.999702 -81.21 0.999702 -81.21 0.022438 -171.7
8.74144000 0.022462 -171.0 0.999701 -81.21 0.999701 -81.21 0.022462 -171.7
8.74145000 0.022486 -171.0 0.999700 -81.21 0.999700 -81.21 0.022485 -171.7
8.74146000 0.022509 -171.0 0.999699 -81.21 0.999699 -81.21 0.022509 -171.7
8.74147000 0.022533 -171.0 0.999699 -81.21 0.999699 -81.21 0.022533 -171.7
8.74148000 0.022557 -171.0 0.999698 -81.21 0.999698 -81.21 0.022557 -171.7
8.74149000 0.022581 -171.0 0.999697 -81.21 0.999697 -81.21 0.022581 -171.7
8.74150000 0.022605 -171.0 0.999697 -81.22 0.999697 -81.22 0.022605 -171.7
8.74151000 0.022629 -171.0 0.999696 -81.22 0.999696 -81.22 0.022629 -171.7
8.74152000 0.022654 -171.0 0.999695 -81.22 0.999695 -81.22 0.022653 -171.7
8.74153000 0.022678 -171.0 0.999694 -81.22 0.999694 -81.22 0.022678 -171.7
8.74154000 0.022703 -171.0 0.999694 -81.22 0.999694 -81.22 0.022702 -171.7
8.74155000 0.022727 -171.0 0.999693 -81.22 0.999693 -81.22 0.022727 -171.7
8.74156000 0.022752 -171.0 0.999692 -81.22 0.999692 -81.22 0.022752 -171.7
8.74157000 0.022777 -171.0 0.999692 -81.23 0.999692 -81.23 0.022776 -171.7
8.74158000 0.022802 -171.0 0.999691 -81.23 0.999691 -81.23 0.022801 -171.7
8.74159000 0.022827 -171.0 0.999690 -81.23 0.999690 -81.23 0.022826 -171.7
8.74160000 0.022852 -171.0 0.999689 -81.23 0.999689 -81.23 0.022851 -171.7
8.74161000 0.022877 -171.0 0.999689 -81.23 0.999689 -81.23 0.022876 -171.7
8.74162000 0.022902 -171.0 0.999688 -81.23 0.999688 -81.23 0.022902 -171.7
8.74163000 0.022927 -171.0 0.999687 -81.24 0.999687 -81.24 0.022927 -171.7
8.74164000 0.022953 -171.0 0.999686 -81.24 0.999686 -81.24 0.022952 -171.7
8.74165000 0.022978 -171.0 0.999685 -81.24 0.999685 -81.24 0.022978 -171.7
8.74166000 0.023004 -171.0 0.999685 -81.24 0.999685 -81.24 0.023004 -171.7
8.74167000 0.023030 -171.0 0.999684 -81.24 0.999684 -81.24 0.023029 -171.7
8.74168000 0.023056 -171.0 0.999683 -81.24 0.999683 -81.24 0.023055 -171.7
8.74169000 0.023082 -171.0 0.999682 -81.24 0.999682 -81.24 0.023081 -171.7
8.74170000 0.023108 -171.0 0.999682 -81.25 0.999682 -81.25 0.023107 -171.7
8.74171000 0.023134 -171.0 0.999681 -81.25 0.999681 -81.25 0.023134 -171.7
8.74172000 0.023160 -171.0 0.999680 -81.25 0.999680 -81.25 0.023160 -171.7
8.74173000 0.023187 -171.0 0.999679 -81.25 0.999679 -81.25 0.023186 -171.7
8.74174000 0.023213 -171.0 0.999678 -81.25 0.999678 -81.25 0.023213 -171.7
8.74175000 0.023240 -171.0 0.999678 -81.25 0.999678 -81.25 0.023239 -171.7
8.74176000 0.023266 -171.0 0.999677 -81.26 0.999677 -81.26 0.023266 -171.7
8.74177000 0.023293 -171.0 0.999676 -81.26 0.999676 -81.26 0.023293 -171.7
8.74178000 0.023320 -171.0 0.999675 -81.26 0.999675 -81.26 0.023320 -171.7
8.74179000 0.023347 -171.0 0.999674 -81.26 0.999674 -81.26 0.023347 -171.8
8.74180000 0.023374 -171.0 0.999673 -81.26 0.999673 -81.26 0.023374 -171.8
8.74181000 0.023401 -171.0 0.999673 -81.26 0.999673 -81.26 0.023401 -171.8
8.74182000 0.023429 -171.0 0.999672 -81.27 0.999672 -81.27 0.023428 -171.8
8.74183000 0.023456 -171.0 0.999671 -81.27 0.999671 -81.27 0.023456 -171.8
8.74184000 0.023484 -171.0 0.999670 -81.27 0.999670 -81.27 0.023483 -171.8
8.74185000 0.023511 -171.0 0.999669 -81.27 0.999669 -81.27 0.023511 -171.8
8.74186000 0.023539 -171.0 0.999668 -81.27 0.999668 -81.27 0.023539 -171.8
8.74187000 0.023567 -171.0 0.999667 -81.27 0.999667 -81.27 0.023567 -171.8
8.74188000 0.023595 -171.0 0.999667 -81.28 0.999667 -81.28 0.023595 -171.8
8.74189000 0.023623 -171.0 0.999666 -81.28 0.999666 -81.28 0.023623 -171.8
8.74190000 0.023651 -171.0 0.999665 -81.28 0.999665 -81.28 0.023651 -171.8
8.74191000 0.023680 -171.0 0.999664 -81.28 0.999664 -81.28 0.023679 -171.8
8.74192000 0.023708 -171.0 0.999663 -81.28 0.999663 -81.28 0.023708 -171.8
8.74193000 0.023737 -171.1 0.999662 -81.28 0.999662 -81.28 0.023736 -171.8
8.74194000 0.023766 -171.1 0.999661 -81.29 0.999661 -81.29 0.023765 -171.8
8.74195000 0.023794 -171.1 0.999660 -81.29 0.999660 -81.29 0.023794 -171.8
8.74196000 0.023823 -171.1 0.999659 -81.29 0.999659 -81.29 0.023823 -171.8
8.74197000 0.023852 -171.1 0.999658 -81.29 0.999658 -81.29 0.023852 -171.8
8.74198000 0.023882 -171.1 0.999658 -81.29 0.999658 -81.29 0.023881 -171.8
8.74199000 0.023911 -171.1 0.999657 -81.30 0.999657 -81.30 0.023910 -171.8
8.74200000 0.023940 -171.1 0.999656 -81.30 0.999656 -81.30 0.023940 -171.8
8.74201000 0.023970 -171.1 0.999655 -81.30 0.999655 -81.30 0.023969 -171.8
8.74202000 0.024000 -171.1 0.999654 -81.30 0.999654 -81.30 0.023999 -171.8
8.74203000 0.024029 -171.1 0.999653 -81.30 0.999653 -81.30 0.024029 -171.8
8.74204000 0.024059 -171.1 0.999652 -81.30 0.999652 -81.30 0.024059 -171.8
8.74205000 0.024089 -171.1 0.999651 -81.31 0.999651 -81.31 0.024089 -171.8
8.74206000 0.024120 -171.1 0.999650 -81.31 0.999650 -81.31 0.024119 -171.8
8.74207000 0.024150 -171.1 0.999649 -81.31 0.999649 -81.31 0.024149 -171.8
8.74208000 0.024180 -171.1 0.999648 -81.31 0.999648 -81.31 0.024180 -171.8
8.74209000 0.024211 -171.1 0.999647 -81.31 0.999647 -81.31 0.024210 -171.8
8.74210000 0.024242 -171.1 0.999646 -81.32 0.999646 -81.32 0.024241 -171.8
8.74211000 0.024272 -171.1 0.999645 -81.32 0.999645 -81.32 0.024272 -171.8
8.74212000 0.024303 -171.1 0.999644 -81.32 0.999644 -81.32 0.024303 -171.8
8.74213000 0.024335 -171.1 0.999643 -81.32 0.999643 -81.32 0.024334 -171.8
8.74214000 0.024366 -171.1 0.999642 -81.32 0.999642 -81.32 0.024365 -171.8
8.74215000 0.024397 -171.1 0.999641 -81.32 0.999641 -81.32 0.024397 -171.8
8.74216000 0.024429 -171.1 0.999640 -81.33 0.999640 -81.33 0.024428 -171.8
8.74217000 0.024460 -171.1 0.999639 -81.33 0.999639 -81.33 0.024460 -171.8
8.74218000 0.024492 -171.1 0.999638 -81.33 0.999638 -81.33 0.024492 -171.8
8.74219000 0.024524 -171.1 0.999637 -81.33 0.999637 -81.33 0.024524 -171.8
8.74220000 0.024556 -171.1 0.999636 -81.33 0.999636 -81.33 0.024556 -171.9
8.74221000 0.024588 -171.1 0.999635 -81.34 0.999635 -81.34 0.024588 -171.9
8.74222000 0.024621 -171.1 0.999634 -81.34 0.999634 -81.34 0.024620 -171.9
8.74223000 0.024653 -171.1 0.999633 -81.34 0.999633 -81.34 0.024653 -171.9
8.74224000 0.024686 -171.1 0.999632 -81.34 0.999632 -81.34 0.024685 -171.9
8.74225000 0.024718 -171.1 0.999631 -81.34 0.999631 -81.34 0.024718 -171.9
8.74226000 0.024751 -171.1 0.999629 -81.35 0.999629 -81.35 0.024751 -171.9
8.74227000 0.024784 -171.1 0.999628 -81.35 0.999628 -81.35 0.024784 -171.9
8.74228000 0.024818 -171.1 0.999627 -81.35 0.999627 -81.35 0.024817 -171.9
8.74229000 0.024851 -171.1 0.999626 -81.35 0.999626 -81.35 0.024851 -171.9
8.74230000 0.024885 -171.1 0.999625 -81.35 0.999625 -81.35 0.024884 -171.9
8.74231000 0.024918 -171.1 0.999624 -81.36 0.999624 -81.36 0.024918 -171.9
8.74232000 0.024952 -171.1 0.999623 -81.36 0.999623 -81.36 0.024952 -171.9
8.74233000 0.024986 -171.1 0.999622 -81.36 0.999622 -81.36 0.024986 -171.9
8.74234000 0.025020 -171.1 0.999621 -81.36 0.999621 -81.36 0.025020 -171.9
8.74235000 0.025054 -171.1 0.999619 -81.36 0.999619 -81.36 0.025054 -171.9
8.74236000 0.025089 -171.1 0.999618 -81.37 0.999618 -81.37 0.025088 -171.9
8.74237000 0.025123 -171.1 0.999617 -81.37 0.999617 -81.37 0.025123 -171.9
8.74238000 0.025158 -171.1 0.999616 -81.37 0.999616 -81.37 0.025158 -171.9
8.74239000 0.025193 -171.1 0.999615 -81.37 0.999615 -81.37 0.025193 -171.9
8.74240000 0.025228 -171.1 0.999614 -81.37 0.999614 -81.37 0.025228 -171.9
8.74241000 0.025263 -171.1 0.999612 -81.38 0.999612 -81.38 0.025263 -171.9
8.74242000 0.025299 -171.2 0.999611 -81.38 0.999611 -81.38 0.025298 -171.9
8.74243000 0.025334 -171.2 0.999610 -81.38 0.999610 -81.38 0.025334 -171.9
8.74244000 0.025370 -171.2 0.999609 -81.38 0.999609 -81.38 0.025369 -171.9
8.74245000 0.025406 -171.2 0.999608 -81.38 0.999608 -81.38 0.025405 -171.9
8.74246000 0.025442 -171.2 0.999606 -81.39 0.999606 -81.39 0.025441 -171.9
8.74247000 0.025478 -171.2 0.999605 -81.39 0.999605 -81.39 0.025478 -171.9
8.74248000 0.025514 -171.2 0.999604 -81.39 0.999604 -81.39 0.025514 -171.9
8.74249000 0.025551 -171.2 0.999603 -81.39 0.999603 -81.39 0.025550 -171.9
8.74250000 0.025588 -171.2 0.999601 -81.40 0.999601 -81.40 0.025587 -171.9
8.74251000 0.025625 -171.2 0.999600 -81.40 0.999600 -81.40 0.025624 -171.9
8.74252000 0.025662 -171.2 0.999599 -81.40 0.999599 -81.40 0.025661 -171.9
8.74253000 0.025699 -171.2 0.999598 -81.40 0.999598 -81.40 0.025698 -171.9
8.74254000 0.025736 -171.2 0.999596 -81.40 0.999596 -81.40 0.025736 -171.9
8.74255000 0.025774 -171.2 0.999595 -81.41 0.999595 -81.41 0.025773 -172.0
8.74256000 0.025812 -171.2 0.999594 -81.41 0.999594 -81.41 0.025811 -172.0
8.74257000 0.025850 -171.2 0.999592 -81.41 0.999592 -81.41 0.025849 -172.0
8.74258000 0.025888 -171.2 0.999591 -81.41 0.999591 -81.41 0.025887 -172.0
8.74259000 0.025926 -171.2 0.999590 -81.42 0.999590 -81.42 0.025925 -172.0
8.74260000 0.025964 -171.2 0.999588 -81.42 0.999588 -81.42 0.025964 -172.0
8.74261000 0.026003 -171.2 0.999587 -81.42 0.999587 -81.42 0.026003 -172.0
8.74262000 0.026042 -171.2 0.999586 -81.42 0.999586 -81.42 0.026042 -172.0
8.74263000 0.026081 -171.2 0.999584 -81.43 0.999584 -81.43 0.026081 -172.0
8.74264000 0.026120 -171.2 0.999583 -81.43 0.999583 -81.43 0.026120 -172.0
8.74265000 0.026160 -171.2 0.999582 -81.43 0.999582 -81.43 0.026159 -172.0
8.74266000 0.026199 -171.2 0.999580 -81.43 0.999580 -81.43 0.026199 -172.0
8.74267000 0.026239 -171.2 0.999579 -81.43 0.999579 -81.43 0.026239 -172.0
8.74268000 0.026279 -171.2 0.999577 -81.44 0.999577 -81.44 0.026279 -172.0
8.74269000 0.026319 -171.2 0.999576 -81.44 0.999576 -81.44 0.026319 -172.0
8.74270000 0.026360 -171.2 0.999574 -81.44 0.999574 -81.44 0.026359 -172.0
8.74271000 0.026400 -171.2 0.999573 -81.44 0.999573 -81.44 0.026400 -172.0
8.74272000 0.026441 -171.2 0.999572 -81.45 0.999572 -81.45 0.026441 -172.0
8.74273000 0.026482 -171.2 0.999570 -81.45 0.999570 -81.45 0.026482 -172.0
8.74274000 0.026523 -171.2 0.999569 -81.45 0.999569 -81.45 0.026523 -172.0
8.74275000 0.026565 -171.2 0.999567 -81.45 0.999567 -81.45 0.026564 -172.0
8.74276000 0.026606 -171.2 0.999566 -81.46 0.999566 -81.46 0.026606 -172.0
8.74277000 0.026648 -171.2 0.999564 -81.46 0.999564 -81.46 0.026648 -172.0
8.74278000 0.026690 -171.2 0.999563 -81.46 0.999563 -81.46 0.026690 -172.0
8.74279000 0.026733 -171.2 0.999561 -81.46 0.999561 -81.46 0.026732 -172.0
8.74280000 0.026775 -171.2 0.999560 -81.47 0.999560 -81.47 0.026774 -172.0
8.74281000 0.026818 -171.2 0.999558 -81.47 0.999558 -81.47 0.026817 -172.0
8.74282000 0.026861 -171.3 0.999557 -81.47 0.999557 -81.47 0.026860 -172.0
8.74283000 0.026904 -171.3 0.999555 -81.47 0.999555 -81.47 0.026903 -172.0
8.74284000 0.026947 -171.3 0.999553 -81.48 0.999553 -81.48 0.026946 -172.0
8.74285000 0.026991 -171.3 0.999552 -81.48 0.999552 -81.48 0.026990 -172.1
8.74286000 0.027034 -171.3 0.999550 -81.48 0.999550 -81.48 0.027034 -172.1
8.74287000 0.027078 -171.3 0.999549 -81.48 0.999549 -81.48 0.027078 -172.1
8.74288000 0.027122 -171.3 0.999547 -81.49 0.999547 -81.49 0.027122 -172.1
8.74289000 0.027167 -171.3 0.999545 -81.49 0.999545 -81.49 0.027166 -172.1
8.74290000 0.027212 -171.3 0.999544 -81.49 0.999544 -81.49 0.027211 -172.1
8.74291000 0.027257 -171.3 0.999542 -81.50 0.999542 -81.50 0.027256 -172.1
8.74292000 0.027302 -171.3 0.999540 -81.50 0.999540 -81.50 0.027301 -172.1
8.74293000 0.027347 -171.3 0.999539 -81.50 0.999539 -81.50 0.027346 -172.1
8.74294000 0.027393 -171.3 0.999537 -81.50 0.999537 -81.50 0.027392 -172.1
8.74295000 0.027438 -171.3 0.999535 -81.51 0.999535 -81.51 0.027438 -172.1
8.74296000 0.027485 -171.3 0.999534 -81.51 0.999534 -81.51 0.027484 -172.1
8.74297000 0.027531 -171.3 0.999532 -81.51 0.999532 -81.51 0.027530 -172.1
8.74298000 0.027577 -171.3 0.999530 -81.51 0.999530 -81.51 0.027577 -172.1
8.74299000 0.027624 -171.3 0.999528 -81.52 0.999528 -81.52 0.027624 -172.1
8.74300000 0.027671 -171.3 0.999527 -81.52 0.999527 -81.52 0.027671 -172.1
8.74301000 0.027719 -171.3 0.999525 -81.52 0.999525 -81.52 0.027718 -172.1
8.74302000 0.027766 -171.3 0.999523 -81.53 0.999523 -81.53 0.027766 -172.1
8.74303000 0.027814 -171.3 0.999521 -81.53 0.999521 -81.53 0.027813 -172.1
8.74304000 0.027862 -171.3 0.999519 -81.53 0.999519 -81.53 0.027862 -172.1
8.74305000 0.027910 -171.3 0.999518 -81.53 0.999518 -81.53 0.027910 -172.1
8.74306000 0.027959 -171.3 0.999516 -81.54 0.999516 -81.54 0.027958 -172.1
8.74307000 0.028008 -171.3 0.999514 -81.54 0.999514 -81.54 0.028007 -172.1
8.74308000 0.028057 -171.3 0.999512 -81.54 0.999512 -81.54 0.028056 -172.1
8.74309000 0.028106 -171.3 0.999510 -81.55 0.999510 -81.55 0.028106 -172.1
8.74310000 0.028156 -171.3 0.999508 -81.55 0.999508 -81.55 0.028156 -172.1
8.74311000 0.028206 -171.3 0.999506 -81.55 0.999506 -81.55 0.028205 -172.1
8.74312000 0.028256 -171.3 0.999504 -81.55 0.999504 -81.55 0.028256 -172.2
8.74313000 0.028307 -171.3 0.999503 -81.56 0.999503 -81.56 0.028306 -172.2
8.74314000 0.028357 -171.4 0.999501 -81.56 0.999501 -81.56 0.028357 -172.2
8.74315000 0.028409 -171.4 0.999499 -81.56 0.999499 -81.56 0.028408 -172.2
8.74316000 0.028460 -171.4 0.999497 -81.57 0.999497 -81.57 0.028459 -172.2
8.74317000 0.028511 -171.4 0.999495 -81.57 0.999495 -81.57 0.028511 -172.2
8.74318000 0.028563 -171.4 0.999493 -81.57 0.999493 -81.57 0.028563 -172.2
8.74319000 0.028616 -171.4 0.999491 -81.58 0.999491 -81.58 0.028615 -172.2
8.74320000 0.028668 -171.4 0.999489 -81.58 0.999489 -81.58 0.028667 -172.2
8.74321000 0.028721 -171.4 0.999486 -81.58 0.999486 -81.58 0.028720 -172.2
8.74322000 0.028774 -171.4 0.999484 -81.59 0.999484 -81.59 0.028773 -172.2
8.74323000 0.028827 -171.4 0.999482 -81.59 0.999482 -81.59 0.028827 -172.2
8.74324000 0.028881 -171.4 0.999480 -81.59 0.999480 -81.59 0.028880 -172.2
8.74325000 0.028935 -171.4 0.999478 -81.59 0.999478 -81.59 0.028934 -172.2
8.74326000 0.028989 -171.4 0.999476 -81.60 0.999476 -81.60 0.028988 -172.2
8.74327000 0.029044 -171.4 0.999474 -81.60 0.999474 -81.60 0.029043 -172.2
8.74328000 0.029099 -171.4 0.999472 -81.60 0.999472 -81.60 0.029098 -172.2
8.74329000 0.029154 -171.4 0.999469 -81.61 0.999469 -81.61 0.029153 -172.2
8.74330000 0.029209 -171.4 0.999467 -81.61 0.999467 -81.61 0.029209 -172.2
8.74331000 0.029265 -171.4 0.999465 -81.61 0.999465 -81.61 0.029265 -172.2
8.74332000 0.029321 -171.4 0.999463 -81.62 0.999463 -81.62 0.029321 -172.2
8.74333000 0.029378 -171.4 0.999460 -81.62 0.999460 -81.62 0.029377 -172.2
8.74334000 0.029435 -171.4 0.999458 -81.62 0.999458 -81.62 0.029434 -172.2
8.74335000 0.029492 -171.4 0.999456 -81.63 0.999456 -81.63 0.029491 -172.2
8.74336000 0.029549 -171.4 0.999454 -81.63 0.999454 -81.63 0.029549 -172.3
8.74337000 0.029607 -171.4 0.999451 -81.63 0.999451 -81.63 0.029607 -172.3
8.74338000 0.029665 -171.4 0.999449 -81.64 0.999449 -81.64 0.029665 -172.3
8.74339000 0.029724 -171.4 0.999446 -81.64 0.999446 -81.64 0.029723 -172.3
8.74340000 0.029783 -171.4 0.999444 -81.64 0.999444 -81.64 0.029782 -172.3
8.74341000 0.029842 -171.4 0.999442 -81.65 0.999442 -81.65 0.029841 -172.3
8.74342000 0.029902 -171.5 0.999439 -81.65 0.999439 -81.65 0.029901 -172.3
8.74343000 0.029961 -171.5 0.999437 -81.66 0.999437 -81.66 0.029961 -172.3
8.74344000 0.030022 -171.5 0.999434 -81.66 0.999434 -81.66 0.030021 -172.3
8.74345000 0.030082 -171.5 0.999432 -81.66 0.999432 -81.66 0.030082 -172.3
8.74346000 0.030143 -171.5 0.999429 -81.67 0.999429 -81.67 0.030143 -172.3
8.74347000 0.030205 -171.5 0.999427 -81.67 0.999427 -81.67 0.030204 -172.3
8.74348000 0.030267 -171.5 0.999424 -81.67 0.999424 -81.67 0.030266 -172.3
8.74349000 0.030329 -171.5 0.999422 -81.68 0.999422 -81.68 0.030328 -172.3
8.74350000 0.030391 -171.5 0.999419 -81.68 0.999419 -81.68 0.030390 -172.3
8.74351000 0.030454 -171.5 0.999416 -81.68 0.999416 -81.68 0.030453 -172.3
8.74352000 0.030517 -171.5 0.999414 -81.69 0.999414 -81.69 0.030517 -172.3
8.74353000 0.030581 -171.5 0.999411 -81.69 0.999411 -81.69 0.030580 -172.3
8.74354000 0.030645 -171.5 0.999408 -81.70 0.999408 -81.70 0.030644 -172.3
8.74355000 0.030710 -171.5 0.999406 -81.70 0.999406 -81.70 0.030709 -172.3
8.74356000 0.030774 -171.5 0.999403 -81.70 0.999403 -81.70 0.030774 -172.4
8.74357000 0.030840 -171.5 0.999400 -81.71 0.999400 -81.71 0.030839 -172.4
8.74358000 0.030905 -171.5 0.999397 -81.71 0.999397 -81.71 0.030905 -172.4
8.74359000 0.030971 -171.5 0.999395 -81.71 0.999395 -81.71 0.030971 -172.4
8.74360000 0.031038 -171.5 0.999392 -81.72 0.999392 -81.72 0.031037 -172.4
8.74361000 0.031105 -171.5 0.999389 -81.72 0.999389 -81.72 0.031104 -172.4
8.74362000 0.031172 -171.5 0.999386 -81.73 0.999386 -81.73 0.031171 -172.4
8.74363000 0.031240 -171.5 0.999383 -81.73 0.999383 -81.73 0.031239 -172.4
8.74364000 0.031308 -171.5 0.999380 -81.73 0.999380 -81.73 0.031307 -172.4
8.74365000 0.031377 -171.6 0.999377 -81.74 0.999377 -81.74 0.031376 -172.4
8.74366000 0.031446 -171.6 0.999374 -81.74 0.999374 -81.74 0.031445 -172.4
8.74367000 0.031515 -171.6 0.999371 -81.75 0.999371 -81.75 0.031515 -172.4
8.74368000 0.031585 -171.6 0.999368 -81.75 0.999368 -81.75 0.031585 -172.4
8.74369000 0.031656 -171.6 0.999365 -81.75 0.999365 -81.75 0.031655 -172.4
8.74370000 0.031727 -171.6 0.999362 -81.76 0.999362 -81.76 0.031726 -172.4
8.74371000 0.031798 -171.6 0.999359 -81.76 0.999359 -81.76 0.031797 -172.4
8.74372000 0.031870 -171.6 0.999356 -81.77 0.999356 -81.77 0.031869 -172.4
8.74373000 0.031942 -171.6 0.999352 -81.77 0.999352 -81.77 0.031941 -172.4
8.74374000 0.032015 -171.6 0.999349 -81.78 0.999349 -81.78 0.032014 -172.4
8.74375000 0.032088 -171.6 0.999346 -81.78 0.999346 -81.78 0.032087 -172.5
8.74376000 0.032162 -171.6 0.999343 -81.78 0.999343 -81.78 0.032161 -172.5
8.74377000 0.032236 -171.6 0.999339 -81.79 0.999339 -81.79 0.032235 -172.5
8.74378000 0.032311 -171.6 0.999336 -81.79 0.999336 -81.79 0.032310 -172.5
8.74379000 0.032386 -171.6 0.999333 -81.80 0.999333 -81.80 0.032385 -172.5
8.74380000 0.032462 -171.6 0.999329 -81.80 0.999329 -81.80 0.032461 -172.5
8.74381000 0.032538 -171.6 0.999326 -81.81 0.999326 -81.81 0.032537 -172.5
8.74382000 0.032615 -171.6 0.999322 -81.81 0.999322 -81.81 0.032614 -172.5
8.74383000 0.032692 -171.6 0.999319 -81.82 0.999319 -81.82 0.032691 -172.5
8.74384000 0.032770 -171.6 0.999315 -81.82 0.999315 -81.82 0.032769 -172.5
8.74385000 0.032848 -171.7 0.999312 -81.82 0.999312 -81.82 0.032847 -172.5
8.74386000 0.032927 -171.7 0.999308 -81.83 0.999308 -81.83 0.032926 -172.5
8.74387000 0.033006 -171.7 0.999305 -81.83 0.999305 -81.83 0.033006 -172.5
8.74388000 0.033086 -171.7 0.999301 -81.84 0.999301 -81.84 0.033086 -172.5
8.74389000 0.033167 -171.7 0.999297 -81.84 0.999297 -81.84 0.033166 -172.5
8.74390000 0.033248 -171.7 0.999293 -81.85 0.999293 -81.85 0.033247 -172.5
8.74391000 0.033330 -171.7 0.999290 -81.85 0.999290 -81.85 0.033329 -172.6
8.74392000 0.033412 -171.7 0.999286 -81.86 0.999286 -81.86 0.033411 -172.6