! Sonnet Data File
! From: emgraph Version : 16.52
! From Project: Qubit_Xmon2_brg_para
! Data is De-embedded 
! Data File Written: 11/12/2017 17:09:26
!< HDATE 11/12/2017 00:17:19
!< MDATE 11/12/2017 00:17:19
!< PARAMS
!< Lj = 11.0
!< Gap = 6.0
!< Pwid = 2000.0
!< Airgap = 6.0
!< Width = 10.0
!< Bwid = 8.0
!< Dis1 = 150.0
!< Dis2 = 156.0
!< END PARAMS
# GHZ S MA R 51.80000
8.68500000 0.012919 -170.5 0.999896 -80.16 0.999896 -80.16 0.012918 -170.0
!< P1 F=8.685 Eeff=(6.4468387 -2.9786e-5) Z0=(51.799366 1.19075e-4) R=0.0 C=0.0 
!< P2 F=8.685 Eeff=(6.4468387 -2.9786e-5) Z0=(51.799366 1.19075e-4) R=0.0 C=0.0 
8.68500500 0.012923 -170.5 0.999896 -80.16 0.999896 -80.16 0.012923 -170.0
8.68501000 0.012928 -170.5 0.999896 -80.16 0.999896 -80.16 0.012928 -170.0
8.68501500 0.012933 -170.5 0.999896 -80.16 0.999896 -80.16 0.012932 -170.0
8.68502000 0.012937 -170.5 0.999896 -80.16 0.999896 -80.16 0.012937 -170.0
8.68502500 0.012942 -170.5 0.999896 -80.16 0.999896 -80.16 0.012942 -170.0
8.68503000 0.012947 -170.5 0.999896 -80.16 0.999896 -80.16 0.012946 -170.0
8.68503500 0.012951 -170.5 0.999896 -80.17 0.999896 -80.17 0.012951 -170.0
8.68504000 0.012956 -170.5 0.999896 -80.17 0.999896 -80.17 0.012956 -170.0
8.68504500 0.012961 -170.5 0.999895 -80.17 0.999895 -80.17 0.012961 -170.0
8.68505000 0.012965 -170.5 0.999895 -80.17 0.999895 -80.17 0.012965 -170.0
8.68505500 0.012970 -170.5 0.999895 -80.17 0.999895 -80.17 0.012970 -170.0
8.68506000 0.012975 -170.5 0.999895 -80.17 0.999895 -80.17 0.012975 -170.0
8.68506500 0.012980 -170.5 0.999895 -80.17 0.999895 -80.17 0.012980 -170.0
8.68507000 0.012984 -170.5 0.999895 -80.17 0.999895 -80.17 0.012984 -170.0
8.68507500 0.012989 -170.5 0.999895 -80.17 0.999895 -80.17 0.012989 -170.0
8.68508000 0.012994 -170.5 0.999895 -80.17 0.999895 -80.17 0.012994 -170.0
8.68508500 0.012999 -170.5 0.999895 -80.17 0.999895 -80.17 0.012999 -170.0
8.68509000 0.013003 -170.5 0.999895 -80.17 0.999895 -80.17 0.013003 -170.0
8.68509500 0.013008 -170.5 0.999895 -80.17 0.999895 -80.17 0.013008 -170.0
8.68510000 0.013013 -170.5 0.999895 -80.17 0.999895 -80.17 0.013013 -170.0
8.68510500 0.013018 -170.5 0.999894 -80.17 0.999894 -80.17 0.013018 -170.0
8.68511000 0.013023 -170.5 0.999894 -80.17 0.999894 -80.17 0.013022 -170.0
8.68511500 0.013027 -170.5 0.999894 -80.17 0.999894 -80.17 0.013027 -170.0
8.68512000 0.013032 -170.5 0.999894 -80.17 0.999894 -80.17 0.013032 -170.0
8.68512500 0.013037 -170.5 0.999894 -80.17 0.999894 -80.17 0.013037 -170.1
8.68513000 0.013042 -170.5 0.999894 -80.17 0.999894 -80.17 0.013042 -170.1
8.68513500 0.013047 -170.5 0.999894 -80.17 0.999894 -80.17 0.013046 -170.1
8.68514000 0.013051 -170.5 0.999894 -80.17 0.999894 -80.17 0.013051 -170.1
8.68514500 0.013056 -170.5 0.999894 -80.17 0.999894 -80.17 0.013056 -170.1
8.68515000 0.013061 -170.5 0.999894 -80.17 0.999894 -80.17 0.013061 -170.1
8.68515500 0.013066 -170.5 0.999894 -80.17 0.999894 -80.17 0.013066 -170.1
8.68516000 0.013071 -170.5 0.999894 -80.17 0.999894 -80.17 0.013071 -170.1
8.68516500 0.013076 -170.5 0.999893 -80.17 0.999893 -80.17 0.013075 -170.1
8.68517000 0.013081 -170.5 0.999893 -80.17 0.999893 -80.17 0.013080 -170.1
8.68517500 0.013085 -170.5 0.999893 -80.17 0.999893 -80.17 0.013085 -170.1
8.68518000 0.013090 -170.5 0.999893 -80.17 0.999893 -80.17 0.013090 -170.1
8.68518500 0.013095 -170.5 0.999893 -80.17 0.999893 -80.17 0.013095 -170.1
8.68519000 0.013100 -170.5 0.999893 -80.18 0.999893 -80.18 0.013100 -170.1
8.68519500 0.013105 -170.5 0.999893 -80.18 0.999893 -80.18 0.013105 -170.1
8.68520000 0.013110 -170.5 0.999893 -80.18 0.999893 -80.18 0.013110 -170.1
8.68520500 0.013115 -170.5 0.999893 -80.18 0.999893 -80.18 0.013115 -170.1
8.68521000 0.013120 -170.5 0.999893 -80.18 0.999893 -80.18 0.013119 -170.1
8.68521500 0.013125 -170.5 0.999893 -80.18 0.999893 -80.18 0.013124 -170.1
8.68522000 0.013130 -170.5 0.999892 -80.18 0.999892 -80.18 0.013129 -170.1
8.68522500 0.013134 -170.5 0.999892 -80.18 0.999892 -80.18 0.013134 -170.1
8.68523000 0.013139 -170.5 0.999892 -80.18 0.999892 -80.18 0.013139 -170.1
8.68523500 0.013144 -170.5 0.999892 -80.18 0.999892 -80.18 0.013144 -170.1
8.68524000 0.013149 -170.5 0.999892 -80.18 0.999892 -80.18 0.013149 -170.1
8.68524500 0.013154 -170.5 0.999892 -80.18 0.999892 -80.18 0.013154 -170.1
8.68525000 0.013159 -170.5 0.999892 -80.18 0.999892 -80.18 0.013159 -170.1
8.68525500 0.013164 -170.5 0.999892 -80.18 0.999892 -80.18 0.013164 -170.1
8.68526000 0.013169 -170.5 0.999892 -80.18 0.999892 -80.18 0.013169 -170.1
8.68526500 0.013174 -170.5 0.999892 -80.18 0.999892 -80.18 0.013174 -170.1
8.68527000 0.013179 -170.5 0.999892 -80.18 0.999892 -80.18 0.013179 -170.1
8.68527500 0.013184 -170.5 0.999892 -80.18 0.999892 -80.18 0.013184 -170.1
8.68528000 0.013189 -170.5 0.999891 -80.18 0.999891 -80.18 0.013189 -170.1
8.68528500 0.013194 -170.5 0.999891 -80.18 0.999891 -80.18 0.013194 -170.1
8.68529000 0.013199 -170.5 0.999891 -80.18 0.999891 -80.18 0.013199 -170.1
8.68529500 0.013204 -170.5 0.999891 -80.18 0.999891 -80.18 0.013204 -170.1
8.68530000 0.013209 -170.5 0.999891 -80.18 0.999891 -80.18 0.013209 -170.1
8.68530500 0.013214 -170.5 0.999891 -80.18 0.999891 -80.18 0.013214 -170.1
8.68531000 0.013219 -170.5 0.999891 -80.18 0.999891 -80.18 0.013219 -170.1
8.68531500 0.013224 -170.5 0.999891 -80.18 0.999891 -80.18 0.013224 -170.1
8.68532000 0.013229 -170.5 0.999891 -80.18 0.999891 -80.18 0.013229 -170.1
8.68532500 0.013234 -170.5 0.999891 -80.18 0.999891 -80.18 0.013234 -170.1
8.68533000 0.013239 -170.5 0.999891 -80.18 0.999891 -80.18 0.013239 -170.1
8.68533500 0.013244 -170.5 0.999890 -80.18 0.999890 -80.18 0.013244 -170.1
8.68534000 0.013250 -170.5 0.999890 -80.19 0.999890 -80.19 0.013249 -170.1
8.68534500 0.013255 -170.5 0.999890 -80.19 0.999890 -80.19 0.013254 -170.1
8.68535000 0.013260 -170.5 0.999890 -80.19 0.999890 -80.19 0.013259 -170.1
8.68535500 0.013265 -170.5 0.999890 -80.19 0.999890 -80.19 0.013265 -170.1
8.68536000 0.013270 -170.5 0.999890 -80.19 0.999890 -80.19 0.013270 -170.1
8.68536500 0.013275 -170.5 0.999890 -80.19 0.999890 -80.19 0.013275 -170.1
8.68537000 0.013280 -170.5 0.999890 -80.19 0.999890 -80.19 0.013280 -170.1
8.68537500 0.013285 -170.5 0.999890 -80.19 0.999890 -80.19 0.013285 -170.1
8.68538000 0.013290 -170.5 0.999890 -80.19 0.999890 -80.19 0.013290 -170.1
8.68538500 0.013295 -170.5 0.999890 -80.19 0.999890 -80.19 0.013295 -170.1
8.68539000 0.013301 -170.5 0.999889 -80.19 0.999889 -80.19 0.013300 -170.1
8.68539500 0.013306 -170.5 0.999889 -80.19 0.999889 -80.19 0.013306 -170.1
8.68540000 0.013311 -170.5 0.999889 -80.19 0.999889 -80.19 0.013311 -170.1
8.68540500 0.013316 -170.5 0.999889 -80.19 0.999889 -80.19 0.013316 -170.1
8.68541000 0.013321 -170.5 0.999889 -80.19 0.999889 -80.19 0.013321 -170.1
8.68541500 0.013326 -170.5 0.999889 -80.19 0.999889 -80.19 0.013326 -170.1
8.68542000 0.013332 -170.5 0.999889 -80.19 0.999889 -80.19 0.013331 -170.1
8.68542500 0.013337 -170.5 0.999889 -80.19 0.999889 -80.19 0.013337 -170.1
8.68543000 0.013342 -170.5 0.999889 -80.19 0.999889 -80.19 0.013342 -170.1
8.68543500 0.013347 -170.5 0.999889 -80.19 0.999889 -80.19 0.013347 -170.1
8.68544000 0.013352 -170.5 0.999889 -80.19 0.999889 -80.19 0.013352 -170.1
8.68544500 0.013358 -170.5 0.999888 -80.19 0.999888 -80.19 0.013357 -170.1
8.68545000 0.013363 -170.5 0.999888 -80.19 0.999888 -80.19 0.013363 -170.1
8.68545500 0.013368 -170.5 0.999888 -80.19 0.999888 -80.19 0.013368 -170.1
8.68546000 0.013373 -170.5 0.999888 -80.19 0.999888 -80.19 0.013373 -170.1
8.68546500 0.013378 -170.5 0.999888 -80.19 0.999888 -80.19 0.013378 -170.1
8.68547000 0.013384 -170.5 0.999888 -80.19 0.999888 -80.19 0.013383 -170.1
8.68547500 0.013389 -170.5 0.999888 -80.19 0.999888 -80.19 0.013389 -170.1
8.68548000 0.013394 -170.5 0.999888 -80.19 0.999888 -80.19 0.013394 -170.1
8.68548500 0.013399 -170.5 0.999888 -80.20 0.999888 -80.20 0.013399 -170.1
8.68549000 0.013405 -170.5 0.999888 -80.20 0.999888 -80.20 0.013404 -170.1
8.68549500 0.013410 -170.5 0.999887 -80.20 0.999887 -80.20 0.013410 -170.1
8.68550000 0.013415 -170.5 0.999887 -80.20 0.999887 -80.20 0.013415 -170.1
8.68550500 0.013421 -170.5 0.999887 -80.20 0.999887 -80.20 0.013420 -170.1
8.68551000 0.013426 -170.5 0.999887 -80.20 0.999887 -80.20 0.013426 -170.1
8.68551500 0.013431 -170.5 0.999887 -80.20 0.999887 -80.20 0.013431 -170.1
8.68552000 0.013436 -170.5 0.999887 -80.20 0.999887 -80.20 0.013436 -170.1
8.68552500 0.013442 -170.5 0.999887 -80.20 0.999887 -80.20 0.013442 -170.1
8.68553000 0.013447 -170.5 0.999887 -80.20 0.999887 -80.20 0.013447 -170.1
8.68553500 0.013452 -170.5 0.999887 -80.20 0.999887 -80.20 0.013452 -170.1
8.68554000 0.013458 -170.5 0.999887 -80.20 0.999887 -80.20 0.013458 -170.1
8.68554500 0.013463 -170.5 0.999887 -80.20 0.999887 -80.20 0.013463 -170.1
8.68555000 0.013468 -170.5 0.999886 -80.20 0.999886 -80.20 0.013468 -170.1
8.68555500 0.013474 -170.5 0.999886 -80.20 0.999886 -80.20 0.013474 -170.1
8.68556000 0.013479 -170.5 0.999886 -80.20 0.999886 -80.20 0.013479 -170.1
8.68556500 0.013485 -170.5 0.999886 -80.20 0.999886 -80.20 0.013484 -170.1
8.68557000 0.013490 -170.5 0.999886 -80.20 0.999886 -80.20 0.013490 -170.1
8.68557500 0.013495 -170.5 0.999886 -80.20 0.999886 -80.20 0.013495 -170.1
8.68558000 0.013501 -170.5 0.999886 -80.20 0.999886 -80.20 0.013500 -170.1
8.68558500 0.013506 -170.5 0.999886 -80.20 0.999886 -80.20 0.013506 -170.1
8.68559000 0.013511 -170.5 0.999886 -80.20 0.999886 -80.20 0.013511 -170.1
8.68559500 0.013517 -170.5 0.999886 -80.20 0.999886 -80.20 0.013517 -170.1
8.68560000 0.013522 -170.5 0.999885 -80.20 0.999885 -80.20 0.013522 -170.1
8.68560500 0.013528 -170.5 0.999885 -80.20 0.999885 -80.20 0.013528 -170.1
8.68561000 0.013533 -170.5 0.999885 -80.20 0.999885 -80.20 0.013533 -170.1
8.68561500 0.013539 -170.5 0.999885 -80.20 0.999885 -80.20 0.013538 -170.1
8.68562000 0.013544 -170.5 0.999885 -80.20 0.999885 -80.20 0.013544 -170.1
8.68562500 0.013550 -170.5 0.999885 -80.20 0.999885 -80.20 0.013549 -170.1
8.68563000 0.013555 -170.5 0.999885 -80.21 0.999885 -80.21 0.013555 -170.1
8.68563500 0.013560 -170.5 0.999885 -80.21 0.999885 -80.21 0.013560 -170.1
8.68564000 0.013566 -170.5 0.999885 -80.21 0.999885 -80.21 0.013566 -170.1
8.68564500 0.013571 -170.5 0.999885 -80.21 0.999885 -80.21 0.013571 -170.1
8.68565000 0.013577 -170.5 0.999884 -80.21 0.999884 -80.21 0.013577 -170.1
8.68565500 0.013582 -170.5 0.999884 -80.21 0.999884 -80.21 0.013582 -170.1
8.68566000 0.013588 -170.5 0.999884 -80.21 0.999884 -80.21 0.013588 -170.1
8.68566500 0.013593 -170.5 0.999884 -80.21 0.999884 -80.21 0.013593 -170.1
8.68567000 0.013599 -170.5 0.999884 -80.21 0.999884 -80.21 0.013599 -170.1
8.68567500 0.013604 -170.5 0.999884 -80.21 0.999884 -80.21 0.013604 -170.1
8.68568000 0.013610 -170.5 0.999884 -80.21 0.999884 -80.21 0.013610 -170.1
8.68568500 0.013616 -170.5 0.999884 -80.21 0.999884 -80.21 0.013615 -170.1
8.68569000 0.013621 -170.5 0.999884 -80.21 0.999884 -80.21 0.013621 -170.1
8.68569500 0.013627 -170.5 0.999884 -80.21 0.999884 -80.21 0.013626 -170.1
8.68570000 0.013632 -170.5 0.999883 -80.21 0.999883 -80.21 0.013632 -170.1
8.68570500 0.013638 -170.5 0.999883 -80.21 0.999883 -80.21 0.013638 -170.1
8.68571000 0.013643 -170.5 0.999883 -80.21 0.999883 -80.21 0.013643 -170.1
8.68571500 0.013649 -170.5 0.999883 -80.21 0.999883 -80.21 0.013649 -170.1
8.68572000 0.013655 -170.5 0.999883 -80.21 0.999883 -80.21 0.013654 -170.1
8.68572500 0.013660 -170.5 0.999883 -80.21 0.999883 -80.21 0.013660 -170.1
8.68573000 0.013666 -170.5 0.999883 -80.21 0.999883 -80.21 0.013666 -170.1
8.68573500 0.013671 -170.5 0.999883 -80.21 0.999883 -80.21 0.013671 -170.1
8.68574000 0.013677 -170.5 0.999883 -80.21 0.999883 -80.21 0.013677 -170.1
8.68574500 0.013683 -170.5 0.999882 -80.21 0.999882 -80.21 0.013682 -170.1
8.68575000 0.013688 -170.5 0.999882 -80.21 0.999882 -80.21 0.013688 -170.1
8.68575500 0.013694 -170.5 0.999882 -80.21 0.999882 -80.21 0.013694 -170.1
8.68576000 0.013700 -170.5 0.999882 -80.21 0.999882 -80.21 0.013699 -170.1
8.68576500 0.013705 -170.5 0.999882 -80.22 0.999882 -80.22 0.013705 -170.1
8.68577000 0.013711 -170.5 0.999882 -80.22 0.999882 -80.22 0.013711 -170.1
8.68577500 0.013717 -170.5 0.999882 -80.22 0.999882 -80.22 0.013716 -170.1
8.68578000 0.013722 -170.5 0.999882 -80.22 0.999882 -80.22 0.013722 -170.1
8.68578500 0.013728 -170.5 0.999882 -80.22 0.999882 -80.22 0.013728 -170.1
8.68579000 0.013734 -170.5 0.999882 -80.22 0.999882 -80.22 0.013733 -170.1
8.68579500 0.013739 -170.5 0.999881 -80.22 0.999881 -80.22 0.013739 -170.1
8.68580000 0.013745 -170.5 0.999881 -80.22 0.999881 -80.22 0.013745 -170.1
8.68580500 0.013751 -170.5 0.999881 -80.22 0.999881 -80.22 0.013751 -170.1
8.68581000 0.013757 -170.5 0.999881 -80.22 0.999881 -80.22 0.013756 -170.1
8.68581500 0.013762 -170.5 0.999881 -80.22 0.999881 -80.22 0.013762 -170.1
8.68582000 0.013768 -170.5 0.999881 -80.22 0.999881 -80.22 0.013768 -170.1
8.68582500 0.013774 -170.5 0.999881 -80.22 0.999881 -80.22 0.013774 -170.1
8.68583000 0.013780 -170.5 0.999881 -80.22 0.999881 -80.22 0.013779 -170.1
8.68583500 0.013785 -170.5 0.999881 -80.22 0.999881 -80.22 0.013785 -170.1
8.68584000 0.013791 -170.5 0.999880 -80.22 0.999880 -80.22 0.013791 -170.1
8.68584500 0.013797 -170.5 0.999880 -80.22 0.999880 -80.22 0.013797 -170.1
8.68585000 0.013803 -170.5 0.999880 -80.22 0.999880 -80.22 0.013802 -170.1
8.68585500 0.013808 -170.5 0.999880 -80.22 0.999880 -80.22 0.013808 -170.1
8.68586000 0.013814 -170.5 0.999880 -80.22 0.999880 -80.22 0.013814 -170.1
8.68586500 0.013820 -170.5 0.999880 -80.22 0.999880 -80.22 0.013820 -170.1
8.68587000 0.013826 -170.5 0.999880 -80.22 0.999880 -80.22 0.013826 -170.1
8.68587500 0.013832 -170.5 0.999880 -80.22 0.999880 -80.22 0.013831 -170.1
8.68588000 0.013838 -170.5 0.999880 -80.22 0.999880 -80.22 0.013837 -170.1
8.68588500 0.013843 -170.5 0.999879 -80.22 0.999879 -80.22 0.013843 -170.1
8.68589000 0.013849 -170.5 0.999879 -80.22 0.999879 -80.22 0.013849 -170.1
8.68589500 0.013855 -170.5 0.999879 -80.22 0.999879 -80.22 0.013855 -170.1
8.68590000 0.013861 -170.5 0.999879 -80.23 0.999879 -80.23 0.013861 -170.1
8.68590500 0.013867 -170.5 0.999879 -80.23 0.999879 -80.23 0.013867 -170.1
8.68591000 0.013873 -170.5 0.999879 -80.23 0.999879 -80.23 0.013873 -170.1
8.68591500 0.013879 -170.5 0.999879 -80.23 0.999879 -80.23 0.013878 -170.1
8.68592000 0.013885 -170.5 0.999879 -80.23 0.999879 -80.23 0.013884 -170.1
8.68592500 0.013890 -170.5 0.999879 -80.23 0.999879 -80.23 0.013890 -170.1
8.68593000 0.013896 -170.5 0.999878 -80.23 0.999878 -80.23 0.013896 -170.1
8.68593500 0.013902 -170.5 0.999878 -80.23 0.999878 -80.23 0.013902 -170.1
8.68594000 0.013908 -170.5 0.999878 -80.23 0.999878 -80.23 0.013908 -170.1
8.68594500 0.013914 -170.5 0.999878 -80.23 0.999878 -80.23 0.013914 -170.1
8.68595000 0.013920 -170.5 0.999878 -80.23 0.999878 -80.23 0.013920 -170.1
8.68595500 0.013926 -170.5 0.999878 -80.23 0.999878 -80.23 0.013926 -170.1
8.68596000 0.013932 -170.5 0.999878 -80.23 0.999878 -80.23 0.013932 -170.1
8.68596500 0.013938 -170.5 0.999878 -80.23 0.999878 -80.23 0.013938 -170.1
8.68597000 0.013944 -170.5 0.999878 -80.23 0.999878 -80.23 0.013944 -170.1
8.68597500 0.013950 -170.5 0.999877 -80.23 0.999877 -80.23 0.013950 -170.1
8.68598000 0.013956 -170.5 0.999877 -80.23 0.999877 -80.23 0.013956 -170.1
8.68598500 0.013962 -170.5 0.999877 -80.23 0.999877 -80.23 0.013962 -170.1
8.68599000 0.013968 -170.5 0.999877 -80.23 0.999877 -80.23 0.013968 -170.1
8.68599500 0.013974 -170.5 0.999877 -80.23 0.999877 -80.23 0.013974 -170.1
8.68600000 0.013980 -170.5 0.999877 -80.23 0.999877 -80.23 0.013980 -170.1
8.68600500 0.013986 -170.5 0.999877 -80.23 0.999877 -80.23 0.013986 -170.1
8.68601000 0.013992 -170.5 0.999877 -80.23 0.999877 -80.23 0.013992 -170.1
8.68601500 0.013998 -170.5 0.999877 -80.23 0.999877 -80.23 0.013998 -170.1
8.68602000 0.014004 -170.5 0.999876 -80.23 0.999876 -80.23 0.014004 -170.1
8.68602500 0.014010 -170.5 0.999876 -80.24 0.999876 -80.24 0.014010 -170.1
8.68603000 0.014016 -170.5 0.999876 -80.24 0.999876 -80.24 0.014016 -170.1
8.68603500 0.014022 -170.5 0.999876 -80.24 0.999876 -80.24 0.014022 -170.1
8.68604000 0.014029 -170.5 0.999876 -80.24 0.999876 -80.24 0.014028 -170.1
8.68604500 0.014035 -170.5 0.999876 -80.24 0.999876 -80.24 0.014034 -170.2
8.68605000 0.014041 -170.5 0.999876 -80.24 0.999876 -80.24 0.014041 -170.2
8.68605500 0.014047 -170.5 0.999876 -80.24 0.999876 -80.24 0.014047 -170.2
8.68606000 0.014053 -170.5 0.999875 -80.24 0.999875 -80.24 0.014053 -170.2
8.68606500 0.014059 -170.5 0.999875 -80.24 0.999875 -80.24 0.014059 -170.2
8.68607000 0.014065 -170.5 0.999875 -80.24 0.999875 -80.24 0.014065 -170.2
8.68607500 0.014072 -170.5 0.999875 -80.24 0.999875 -80.24 0.014071 -170.2
8.68608000 0.014078 -170.5 0.999875 -80.24 0.999875 -80.24 0.014077 -170.2
8.68608500 0.014084 -170.5 0.999875 -80.24 0.999875 -80.24 0.014084 -170.2
8.68609000 0.014090 -170.5 0.999875 -80.24 0.999875 -80.24 0.014090 -170.2
8.68609500 0.014096 -170.5 0.999875 -80.24 0.999875 -80.24 0.014096 -170.2
8.68610000 0.014102 -170.5 0.999875 -80.24 0.999875 -80.24 0.014102 -170.2
8.68610500 0.014109 -170.5 0.999874 -80.24 0.999874 -80.24 0.014108 -170.2
8.68611000 0.014115 -170.5 0.999874 -80.24 0.999874 -80.24 0.014115 -170.2
8.68611500 0.014121 -170.5 0.999874 -80.24 0.999874 -80.24 0.014121 -170.2
8.68612000 0.014127 -170.5 0.999874 -80.24 0.999874 -80.24 0.014127 -170.2
8.68612500 0.014134 -170.5 0.999874 -80.24 0.999874 -80.24 0.014133 -170.2
8.68613000 0.014140 -170.5 0.999874 -80.24 0.999874 -80.24 0.014140 -170.2
8.68613500 0.014146 -170.5 0.999874 -80.24 0.999874 -80.24 0.014146 -170.2
8.68614000 0.014152 -170.5 0.999874 -80.24 0.999874 -80.24 0.014152 -170.2
8.68614500 0.014159 -170.5 0.999873 -80.24 0.999873 -80.24 0.014158 -170.2
8.68615000 0.014165 -170.5 0.999873 -80.25 0.999873 -80.25 0.014165 -170.2
8.68615500 0.014171 -170.5 0.999873 -80.25 0.999873 -80.25 0.014171 -170.2
8.68616000 0.014178 -170.5 0.999873 -80.25 0.999873 -80.25 0.014177 -170.2
8.68616500 0.014184 -170.5 0.999873 -80.25 0.999873 -80.25 0.014184 -170.2
8.68617000 0.014190 -170.5 0.999873 -80.25 0.999873 -80.25 0.014190 -170.2
8.68617500 0.014196 -170.5 0.999873 -80.25 0.999873 -80.25 0.014196 -170.2
8.68618000 0.014203 -170.5 0.999873 -80.25 0.999873 -80.25 0.014203 -170.2
8.68618500 0.014209 -170.5 0.999872 -80.25 0.999872 -80.25 0.014209 -170.2
8.68619000 0.014216 -170.5 0.999872 -80.25 0.999872 -80.25 0.014215 -170.2
8.68619500 0.014222 -170.5 0.999872 -80.25 0.999872 -80.25 0.014222 -170.2
8.68620000 0.014228 -170.5 0.999872 -80.25 0.999872 -80.25 0.014228 -170.2
8.68620500 0.014235 -170.5 0.999872 -80.25 0.999872 -80.25 0.014234 -170.2
8.68621000 0.014241 -170.5 0.999872 -80.25 0.999872 -80.25 0.014241 -170.2
8.68621500 0.014247 -170.5 0.999872 -80.25 0.999872 -80.25 0.014247 -170.2
8.68622000 0.014254 -170.5 0.999872 -80.25 0.999872 -80.25 0.014254 -170.2
8.68622500 0.014260 -170.5 0.999871 -80.25 0.999871 -80.25 0.014260 -170.2
8.68623000 0.014267 -170.5 0.999871 -80.25 0.999871 -80.25 0.014266 -170.2
8.68623500 0.014273 -170.5 0.999871 -80.25 0.999871 -80.25 0.014273 -170.2
8.68624000 0.014280 -170.5 0.999871 -80.25 0.999871 -80.25 0.014279 -170.2
8.68624500 0.014286 -170.5 0.999871 -80.25 0.999871 -80.25 0.014286 -170.2
8.68625000 0.014293 -170.5 0.999871 -80.25 0.999871 -80.25 0.014292 -170.2
8.68625500 0.014299 -170.5 0.999871 -80.25 0.999871 -80.25 0.014299 -170.2
8.68626000 0.014305 -170.5 0.999871 -80.25 0.999871 -80.25 0.014305 -170.2
8.68626500 0.014312 -170.5 0.999870 -80.25 0.999870 -80.25 0.014312 -170.2
8.68627000 0.014318 -170.5 0.999870 -80.25 0.999870 -80.25 0.014318 -170.2
8.68627500 0.014325 -170.5 0.999870 -80.26 0.999870 -80.26 0.014325 -170.2
8.68628000 0.014332 -170.5 0.999870 -80.26 0.999870 -80.26 0.014331 -170.2
8.68628500 0.014338 -170.5 0.999870 -80.26 0.999870 -80.26 0.014338 -170.2
8.68629000 0.014345 -170.5 0.999870 -80.26 0.999870 -80.26 0.014344 -170.2
8.68629500 0.014351 -170.5 0.999870 -80.26 0.999870 -80.26 0.014351 -170.2
8.68630000 0.014358 -170.5 0.999870 -80.26 0.999870 -80.26 0.014357 -170.2
8.68630500 0.014364 -170.5 0.999869 -80.26 0.999869 -80.26 0.014364 -170.2
8.68631000 0.014371 -170.5 0.999869 -80.26 0.999869 -80.26 0.014371 -170.2
8.68631500 0.014377 -170.5 0.999869 -80.26 0.999869 -80.26 0.014377 -170.2
8.68632000 0.014384 -170.5 0.999869 -80.26 0.999869 -80.26 0.014384 -170.2
8.68632500 0.014391 -170.5 0.999869 -80.26 0.999869 -80.26 0.014390 -170.2
8.68633000 0.014397 -170.5 0.999869 -80.26 0.999869 -80.26 0.014397 -170.2
8.68633500 0.014404 -170.5 0.999869 -80.26 0.999869 -80.26 0.014404 -170.2
8.68634000 0.014411 -170.5 0.999869 -80.26 0.999869 -80.26 0.014410 -170.2
8.68634500 0.014417 -170.5 0.999868 -80.26 0.999868 -80.26 0.014417 -170.2
8.68635000 0.014424 -170.5 0.999868 -80.26 0.999868 -80.26 0.014424 -170.2
8.68635500 0.014430 -170.5 0.999868 -80.26 0.999868 -80.26 0.014430 -170.2
8.68636000 0.014437 -170.5 0.999868 -80.26 0.999868 -80.26 0.014437 -170.2
8.68636500 0.014444 -170.5 0.999868 -80.26 0.999868 -80.26 0.014444 -170.2
8.68637000 0.014451 -170.5 0.999868 -80.26 0.999868 -80.26 0.014450 -170.2
8.68637500 0.014457 -170.5 0.999868 -80.26 0.999868 -80.26 0.014457 -170.2
8.68638000 0.014464 -170.6 0.999867 -80.26 0.999867 -80.26 0.014464 -170.2
8.68638500 0.014471 -170.6 0.999867 -80.26 0.999867 -80.26 0.014470 -170.2
8.68639000 0.014477 -170.6 0.999867 -80.27 0.999867 -80.27 0.014477 -170.2
8.68639500 0.014484 -170.6 0.999867 -80.27 0.999867 -80.27 0.014484 -170.2
8.68640000 0.014491 -170.6 0.999867 -80.27 0.999867 -80.27 0.014491 -170.2
8.68640500 0.014498 -170.6 0.999867 -80.27 0.999867 -80.27 0.014497 -170.2
8.68641000 0.014504 -170.6 0.999867 -80.27 0.999867 -80.27 0.014504 -170.2
8.68641500 0.014511 -170.6 0.999867 -80.27 0.999867 -80.27 0.014511 -170.2
8.68642000 0.014518 -170.6 0.999866 -80.27 0.999866 -80.27 0.014518 -170.2
8.68642500 0.014525 -170.6 0.999866 -80.27 0.999866 -80.27 0.014525 -170.2
8.68643000 0.014532 -170.6 0.999866 -80.27 0.999866 -80.27 0.014531 -170.2
8.68643500 0.014538 -170.6 0.999866 -80.27 0.999866 -80.27 0.014538 -170.2
8.68644000 0.014545 -170.6 0.999866 -80.27 0.999866 -80.27 0.014545 -170.2
8.68644500 0.014552 -170.6 0.999866 -80.27 0.999866 -80.27 0.014552 -170.2
8.68645000 0.014559 -170.6 0.999866 -80.27 0.999866 -80.27 0.014559 -170.2
8.68645500 0.014566 -170.6 0.999865 -80.27 0.999865 -80.27 0.014566 -170.2
8.68646000 0.014573 -170.6 0.999865 -80.27 0.999865 -80.27 0.014572 -170.2
8.68646500 0.014580 -170.6 0.999865 -80.27 0.999865 -80.27 0.014579 -170.2
8.68647000 0.014586 -170.6 0.999865 -80.27 0.999865 -80.27 0.014586 -170.2
8.68647500 0.014593 -170.6 0.999865 -80.27 0.999865 -80.27 0.014593 -170.2
8.68648000 0.014600 -170.6 0.999865 -80.27 0.999865 -80.27 0.014600 -170.2
8.68648500 0.014607 -170.6 0.999865 -80.27 0.999865 -80.27 0.014607 -170.2
8.68649000 0.014614 -170.6 0.999864 -80.27 0.999864 -80.27 0.014614 -170.2
8.68649500 0.014621 -170.6 0.999864 -80.27 0.999864 -80.27 0.014621 -170.2
8.68650000 0.014628 -170.6 0.999864 -80.27 0.999864 -80.27 0.014628 -170.2
8.68650500 0.014635 -170.6 0.999864 -80.28 0.999864 -80.28 0.014635 -170.2
8.68651000 0.014642 -170.6 0.999864 -80.28 0.999864 -80.28 0.014642 -170.2
8.68651500 0.014649 -170.6 0.999864 -80.28 0.999864 -80.28 0.014649 -170.2
8.68652000 0.014656 -170.6 0.999864 -80.28 0.999864 -80.28 0.014656 -170.2
8.68652500 0.014663 -170.6 0.999864 -80.28 0.999864 -80.28 0.014663 -170.2
8.68653000 0.014670 -170.6 0.999863 -80.28 0.999863 -80.28 0.014670 -170.2
8.68653500 0.014677 -170.6 0.999863 -80.28 0.999863 -80.28 0.014677 -170.2
8.68654000 0.014684 -170.6 0.999863 -80.28 0.999863 -80.28 0.014684 -170.2
8.68654500 0.014691 -170.6 0.999863 -80.28 0.999863 -80.28 0.014691 -170.2
8.68655000 0.014698 -170.6 0.999863 -80.28 0.999863 -80.28 0.014698 -170.2
8.68655500 0.014705 -170.6 0.999863 -80.28 0.999863 -80.28 0.014705 -170.2
8.68656000 0.014712 -170.6 0.999863 -80.28 0.999863 -80.28 0.014712 -170.2
8.68656500 0.014719 -170.6 0.999862 -80.28 0.999862 -80.28 0.014719 -170.2
8.68657000 0.014726 -170.6 0.999862 -80.28 0.999862 -80.28 0.014726 -170.2
8.68657500 0.014734 -170.6 0.999862 -80.28 0.999862 -80.28 0.014733 -170.2
8.68658000 0.014741 -170.6 0.999862 -80.28 0.999862 -80.28 0.014740 -170.2
8.68658500 0.014748 -170.6 0.999862 -80.28 0.999862 -80.28 0.014748 -170.2
8.68659000 0.014755 -170.6 0.999862 -80.28 0.999862 -80.28 0.014755 -170.2
8.68659500 0.014762 -170.6 0.999862 -80.28 0.999862 -80.28 0.014762 -170.2
8.68660000 0.014769 -170.6 0.999861 -80.28 0.999861 -80.28 0.014769 -170.2
8.68660500 0.014776 -170.6 0.999861 -80.28 0.999861 -80.28 0.014776 -170.2
8.68661000 0.014784 -170.6 0.999861 -80.28 0.999861 -80.28 0.014783 -170.2
8.68661500 0.014791 -170.6 0.999861 -80.29 0.999861 -80.29 0.014790 -170.2
8.68662000 0.014798 -170.6 0.999861 -80.29 0.999861 -80.29 0.014798 -170.2
8.68662500 0.014805 -170.6 0.999861 -80.29 0.999861 -80.29 0.014805 -170.2
8.68663000 0.014812 -170.6 0.999860 -80.29 0.999860 -80.29 0.014812 -170.2
8.68663500 0.014820 -170.6 0.999860 -80.29 0.999860 -80.29 0.014819 -170.2
8.68664000 0.014827 -170.6 0.999860 -80.29 0.999860 -80.29 0.014827 -170.2
8.68664500 0.014834 -170.6 0.999860 -80.29 0.999860 -80.29 0.014834 -170.2
8.68665000 0.014841 -170.6 0.999860 -80.29 0.999860 -80.29 0.014841 -170.2
8.68665500 0.014849 -170.6 0.999860 -80.29 0.999860 -80.29 0.014848 -170.2
8.68666000 0.014856 -170.6 0.999860 -80.29 0.999860 -80.29 0.014856 -170.2
8.68666500 0.014863 -170.6 0.999859 -80.29 0.999859 -80.29 0.014863 -170.2
8.68667000 0.014871 -170.6 0.999859 -80.29 0.999859 -80.29 0.014870 -170.2
8.68667500 0.014878 -170.6 0.999859 -80.29 0.999859 -80.29 0.014878 -170.2
8.68668000 0.014885 -170.6 0.999859 -80.29 0.999859 -80.29 0.014885 -170.2
8.68668500 0.014893 -170.6 0.999859 -80.29 0.999859 -80.29 0.014892 -170.2
8.68669000 0.014900 -170.6 0.999859 -80.29 0.999859 -80.29 0.014900 -170.2
8.68669500 0.014907 -170.6 0.999859 -80.29 0.999859 -80.29 0.014907 -170.2
8.68670000 0.014915 -170.6 0.999858 -80.29 0.999858 -80.29 0.014914 -170.2
8.68670500 0.014922 -170.6 0.999858 -80.29 0.999858 -80.29 0.014922 -170.2
8.68671000 0.014929 -170.6 0.999858 -80.29 0.999858 -80.29 0.014929 -170.2
8.68671500 0.014937 -170.6 0.999858 -80.29 0.999858 -80.29 0.014937 -170.2
8.68672000 0.014944 -170.6 0.999858 -80.29 0.999858 -80.29 0.014944 -170.2
8.68672500 0.014952 -170.6 0.999858 -80.30 0.999858 -80.30 0.014951 -170.2
8.68673000 0.014959 -170.6 0.999857 -80.30 0.999857 -80.30 0.014959 -170.2
8.68673500 0.014967 -170.6 0.999857 -80.30 0.999857 -80.30 0.014966 -170.2
8.68674000 0.014974 -170.6 0.999857 -80.30 0.999857 -80.30 0.014974 -170.2
8.68674500 0.014982 -170.6 0.999857 -80.30 0.999857 -80.30 0.014981 -170.2
8.68675000 0.014989 -170.6 0.999857 -80.30 0.999857 -80.30 0.014989 -170.2
8.68675500 0.014997 -170.6 0.999857 -80.30 0.999857 -80.30 0.014996 -170.2
8.68676000 0.015004 -170.6 0.999857 -80.30 0.999857 -80.30 0.015004 -170.2
8.68676500 0.015012 -170.6 0.999856 -80.30 0.999856 -80.30 0.015011 -170.2
8.68677000 0.015019 -170.6 0.999856 -80.30 0.999856 -80.30 0.015019 -170.2
8.68677500 0.015027 -170.6 0.999856 -80.30 0.999856 -80.30 0.015026 -170.2
8.68678000 0.015034 -170.6 0.999856 -80.30 0.999856 -80.30 0.015034 -170.2
8.68678500 0.015042 -170.6 0.999856 -80.30 0.999856 -80.30 0.015042 -170.2
8.68679000 0.015049 -170.6 0.999856 -80.30 0.999856 -80.30 0.015049 -170.2
8.68679500 0.015057 -170.6 0.999855 -80.30 0.999855 -80.30 0.015057 -170.2
8.68680000 0.015065 -170.6 0.999855 -80.30 0.999855 -80.30 0.015064 -170.2
8.68680500 0.015072 -170.6 0.999855 -80.30 0.999855 -80.30 0.015072 -170.3
8.68681000 0.015080 -170.6 0.999855 -80.30 0.999855 -80.30 0.015080 -170.3
8.68681500 0.015088 -170.6 0.999855 -80.30 0.999855 -80.30 0.015087 -170.3
8.68682000 0.015095 -170.6 0.999855 -80.30 0.999855 -80.30 0.015095 -170.3
8.68682500 0.015103 -170.6 0.999855 -80.30 0.999855 -80.30 0.015103 -170.3
8.68683000 0.015111 -170.6 0.999854 -80.31 0.999854 -80.31 0.015110 -170.3
8.68683500 0.015118 -170.6 0.999854 -80.31 0.999854 -80.31 0.015118 -170.3
8.68684000 0.015126 -170.6 0.999854 -80.31 0.999854 -80.31 0.015126 -170.3
8.68684500 0.015134 -170.6 0.999854 -80.31 0.999854 -80.31 0.015133 -170.3
8.68685000 0.015141 -170.6 0.999854 -80.31 0.999854 -80.31 0.015141 -170.3
8.68685500 0.015149 -170.6 0.999854 -80.31 0.999854 -80.31 0.015149 -170.3
8.68686000 0.015157 -170.6 0.999853 -80.31 0.999853 -80.31 0.015157 -170.3
8.68686500 0.015165 -170.6 0.999853 -80.31 0.999853 -80.31 0.015164 -170.3
8.68687000 0.015172 -170.6 0.999853 -80.31 0.999853 -80.31 0.015172 -170.3
8.68687500 0.015180 -170.6 0.999853 -80.31 0.999853 -80.31 0.015180 -170.3
8.68688000 0.015188 -170.6 0.999853 -80.31 0.999853 -80.31 0.015188 -170.3
8.68688500 0.015196 -170.6 0.999853 -80.31 0.999853 -80.31 0.015196 -170.3
8.68689000 0.015204 -170.6 0.999852 -80.31 0.999852 -80.31 0.015203 -170.3
8.68689500 0.015211 -170.6 0.999852 -80.31 0.999852 -80.31 0.015211 -170.3
8.68690000 0.015219 -170.6 0.999852 -80.31 0.999852 -80.31 0.015219 -170.3
8.68690500 0.015227 -170.6 0.999852 -80.31 0.999852 -80.31 0.015227 -170.3
8.68691000 0.015235 -170.6 0.999852 -80.31 0.999852 -80.31 0.015235 -170.3
8.68691500 0.015243 -170.6 0.999852 -80.31 0.999852 -80.31 0.015243 -170.3
8.68692000 0.015251 -170.6 0.999851 -80.31 0.999851 -80.31 0.015251 -170.3
8.68692500 0.015259 -170.6 0.999851 -80.31 0.999851 -80.31 0.015258 -170.3
8.68693000 0.015267 -170.6 0.999851 -80.32 0.999851 -80.32 0.015266 -170.3
8.68693500 0.015275 -170.6 0.999851 -80.32 0.999851 -80.32 0.015274 -170.3
8.68694000 0.015283 -170.6 0.999851 -80.32 0.999851 -80.32 0.015282 -170.3
8.68694500 0.015291 -170.6 0.999851 -80.32 0.999851 -80.32 0.015290 -170.3
8.68695000 0.015298 -170.6 0.999850 -80.32 0.999850 -80.32 0.015298 -170.3
8.68695500 0.015306 -170.6 0.999850 -80.32 0.999850 -80.32 0.015306 -170.3