! Sonnet Data File
! From: emgraph Version : 16.52
! From Project: Qubit_Xmon2_brg_para
! Data is De-embedded 
! Data File Written: 10/25/2017 13:37:34
!< HDATE 10/25/2017 09:37:53
!< MDATE 10/25/2017 09:40:21
!< PARAMS
!< Lj = 11.0
!< Gap = 6.0
!< Pwid = 2000.0
!< Airgap = 6.0
!< Width = 10.0
!< Bwid = 8.0
!< Dis1 = 350.0
!< Dis2 = 356.0
!< END PARAMS
# GHZ S MA R 51.80000
8.68500000 0.009717 -170.2 0.999934 -80.02 0.999934 -80.02 0.009717 -170.0
!< P1 F=8.685 Eeff=(6.44683879 -2.9786e-5) Z0=(51.7993663 1.19075e-4) R=0.0 C=0.0 
!< P2 F=8.685 Eeff=(6.44683879 -2.9786e-5) Z0=(51.7993663 1.19075e-4) R=0.0 C=0.0 
8.68500500 0.009721 -170.2 0.999934 -80.02 0.999934 -80.02 0.009721 -170.0
8.68501000 0.009726 -170.2 0.999934 -80.02 0.999934 -80.02 0.009725 -170.0
8.68501500 0.009730 -170.2 0.999934 -80.02 0.999934 -80.02 0.009730 -170.0
8.68502000 0.009734 -170.2 0.999934 -80.02 0.999934 -80.02 0.009734 -170.0
8.68502500 0.009738 -170.2 0.999934 -80.02 0.999934 -80.02 0.009738 -170.0
8.68503000 0.009743 -170.2 0.999934 -80.02 0.999934 -80.02 0.009742 -170.0
8.68503500 0.009747 -170.2 0.999934 -80.02 0.999934 -80.02 0.009747 -170.0
8.68504000 0.009751 -170.2 0.999934 -80.02 0.999934 -80.02 0.009751 -170.0
8.68504500 0.009755 -170.2 0.999933 -80.02 0.999933 -80.02 0.009755 -170.0
8.68505000 0.009760 -170.2 0.999933 -80.02 0.999933 -80.02 0.009759 -170.0
8.68505500 0.009764 -170.2 0.999933 -80.02 0.999933 -80.02 0.009764 -170.0
8.68506000 0.009768 -170.2 0.999933 -80.02 0.999933 -80.02 0.009768 -170.0
8.68506500 0.009773 -170.2 0.999933 -80.02 0.999933 -80.02 0.009772 -170.0
8.68507000 0.009777 -170.2 0.999933 -80.02 0.999933 -80.02 0.009777 -170.0
8.68507500 0.009781 -170.2 0.999933 -80.02 0.999933 -80.02 0.009781 -170.0
8.68508000 0.009786 -170.2 0.999933 -80.02 0.999933 -80.02 0.009785 -170.0
8.68508500 0.009790 -170.2 0.999933 -80.02 0.999933 -80.02 0.009790 -170.0
8.68509000 0.009794 -170.2 0.999933 -80.02 0.999933 -80.02 0.009794 -170.0
8.68509500 0.009799 -170.2 0.999933 -80.02 0.999933 -80.02 0.009798 -170.0
8.68510000 0.009803 -170.2 0.999933 -80.02 0.999933 -80.02 0.009803 -170.0
8.68510500 0.009807 -170.2 0.999933 -80.02 0.999933 -80.02 0.009807 -170.0
8.68511000 0.009812 -170.2 0.999933 -80.02 0.999933 -80.02 0.009811 -170.0
8.68511500 0.009816 -170.2 0.999933 -80.02 0.999933 -80.02 0.009816 -170.0
8.68512000 0.009820 -170.2 0.999933 -80.02 0.999933 -80.02 0.009820 -170.0
8.68512500 0.009825 -170.2 0.999932 -80.02 0.999932 -80.02 0.009824 -170.0
8.68513000 0.009829 -170.2 0.999932 -80.03 0.999932 -80.03 0.009829 -170.0
8.68513500 0.009833 -170.2 0.999932 -80.03 0.999932 -80.03 0.009833 -170.0
8.68514000 0.009838 -170.2 0.999932 -80.03 0.999932 -80.03 0.009837 -170.0
8.68514500 0.009842 -170.2 0.999932 -80.03 0.999932 -80.03 0.009842 -170.0
8.68515000 0.009846 -170.2 0.999932 -80.03 0.999932 -80.03 0.009846 -170.0
8.68515500 0.009851 -170.2 0.999932 -80.03 0.999932 -80.03 0.009851 -170.0
8.68516000 0.009855 -170.2 0.999932 -80.03 0.999932 -80.03 0.009855 -170.0
8.68516500 0.009860 -170.2 0.999932 -80.03 0.999932 -80.03 0.009859 -170.0
8.68517000 0.009864 -170.2 0.999932 -80.03 0.999932 -80.03 0.009864 -170.0
8.68517500 0.009868 -170.2 0.999932 -80.03 0.999932 -80.03 0.009868 -170.0
8.68518000 0.009873 -170.2 0.999932 -80.03 0.999932 -80.03 0.009873 -170.0
8.68518500 0.009877 -170.2 0.999932 -80.03 0.999932 -80.03 0.009877 -170.0
8.68519000 0.009882 -170.2 0.999932 -80.03 0.999932 -80.03 0.009882 -170.0
8.68519500 0.009886 -170.3 0.999932 -80.03 0.999932 -80.03 0.009886 -170.0
8.68520000 0.009891 -170.3 0.999932 -80.03 0.999932 -80.03 0.009890 -170.0
8.68520500 0.009895 -170.3 0.999931 -80.03 0.999931 -80.03 0.009895 -170.0
8.68521000 0.009900 -170.3 0.999931 -80.03 0.999931 -80.03 0.009899 -170.0
8.68521500 0.009904 -170.3 0.999931 -80.03 0.999931 -80.03 0.009904 -170.0
8.68522000 0.009908 -170.3 0.999931 -80.03 0.999931 -80.03 0.009908 -170.0
8.68522500 0.009913 -170.3 0.999931 -80.03 0.999931 -80.03 0.009913 -170.0
8.68523000 0.009917 -170.3 0.999931 -80.03 0.999931 -80.03 0.009917 -170.0
8.68523500 0.009922 -170.3 0.999931 -80.03 0.999931 -80.03 0.009922 -170.0
8.68524000 0.009926 -170.3 0.999931 -80.03 0.999931 -80.03 0.009926 -170.0
8.68524500 0.009931 -170.3 0.999931 -80.03 0.999931 -80.03 0.009931 -170.0
8.68525000 0.009935 -170.3 0.999931 -80.03 0.999931 -80.03 0.009935 -170.0
8.68525500 0.009940 -170.3 0.999931 -80.03 0.999931 -80.03 0.009940 -170.0
8.68526000 0.009944 -170.3 0.999931 -80.03 0.999931 -80.03 0.009944 -170.0
8.68526500 0.009949 -170.3 0.999931 -80.03 0.999931 -80.03 0.009949 -170.0
8.68527000 0.009953 -170.3 0.999931 -80.03 0.999931 -80.03 0.009953 -170.0
8.68527500 0.009958 -170.3 0.999931 -80.03 0.999931 -80.03 0.009958 -170.0
8.68528000 0.009962 -170.3 0.999931 -80.03 0.999931 -80.03 0.009962 -170.0
8.68528500 0.009967 -170.3 0.999930 -80.03 0.999930 -80.03 0.009967 -170.0
8.68529000 0.009971 -170.3 0.999930 -80.03 0.999930 -80.03 0.009971 -170.0
8.68529500 0.009976 -170.3 0.999930 -80.04 0.999930 -80.04 0.009976 -170.0
8.68530000 0.009980 -170.3 0.999930 -80.04 0.999930 -80.04 0.009980 -170.0
8.68530500 0.009985 -170.3 0.999930 -80.04 0.999930 -80.04 0.009985 -170.0
8.68531000 0.009990 -170.3 0.999930 -80.04 0.999930 -80.04 0.009989 -170.0
8.68531500 0.009994 -170.3 0.999930 -80.04 0.999930 -80.04 0.009994 -170.0
8.68532000 0.009999 -170.3 0.999930 -80.04 0.999930 -80.04 0.009998 -170.0
8.68532500 0.010003 -170.3 0.999930 -80.04 0.999930 -80.04 0.010003 -170.0
8.68533000 0.010008 -170.3 0.999930 -80.04 0.999930 -80.04 0.010008 -170.0
8.68533500 0.010012 -170.3 0.999930 -80.04 0.999930 -80.04 0.010012 -170.0
8.68534000 0.010017 -170.3 0.999930 -80.04 0.999930 -80.04 0.010017 -170.0
8.68534500 0.010022 -170.3 0.999930 -80.04 0.999930 -80.04 0.010021 -170.0
8.68535000 0.010026 -170.3 0.999930 -80.04 0.999930 -80.04 0.010026 -170.0
8.68535500 0.010031 -170.3 0.999930 -80.04 0.999930 -80.04 0.010031 -170.0
8.68536000 0.010035 -170.3 0.999929 -80.04 0.999929 -80.04 0.010035 -170.0
8.68536500 0.010040 -170.3 0.999929 -80.04 0.999929 -80.04 0.010040 -170.0
8.68537000 0.010045 -170.3 0.999929 -80.04 0.999929 -80.04 0.010044 -170.0
8.68537500 0.010049 -170.3 0.999929 -80.04 0.999929 -80.04 0.010049 -170.0
8.68538000 0.010054 -170.3 0.999929 -80.04 0.999929 -80.04 0.010054 -170.0
8.68538500 0.010059 -170.3 0.999929 -80.04 0.999929 -80.04 0.010058 -170.0
8.68539000 0.010063 -170.3 0.999929 -80.04 0.999929 -80.04 0.010063 -170.0
8.68539500 0.010068 -170.3 0.999929 -80.04 0.999929 -80.04 0.010068 -170.0
8.68540000 0.010073 -170.3 0.999929 -80.04 0.999929 -80.04 0.010072 -170.0
8.68540500 0.010077 -170.3 0.999929 -80.04 0.999929 -80.04 0.010077 -170.0
8.68541000 0.010082 -170.3 0.999929 -80.04 0.999929 -80.04 0.010082 -170.0
8.68541500 0.010087 -170.3 0.999929 -80.04 0.999929 -80.04 0.010086 -170.0
8.68542000 0.010091 -170.3 0.999929 -80.04 0.999929 -80.04 0.010091 -170.0
8.68542500 0.010096 -170.3 0.999929 -80.04 0.999929 -80.04 0.010096 -170.0
8.68543000 0.010101 -170.3 0.999929 -80.04 0.999929 -80.04 0.010100 -170.0
8.68543500 0.010105 -170.3 0.999928 -80.04 0.999928 -80.04 0.010105 -170.0
8.68544000 0.010110 -170.3 0.999928 -80.04 0.999928 -80.04 0.010110 -170.0
8.68544500 0.010115 -170.3 0.999928 -80.04 0.999928 -80.04 0.010114 -170.1
8.68545000 0.010119 -170.3 0.999928 -80.04 0.999928 -80.04 0.010119 -170.1
8.68545500 0.010124 -170.3 0.999928 -80.04 0.999928 -80.04 0.010124 -170.1
8.68546000 0.010129 -170.3 0.999928 -80.05 0.999928 -80.05 0.010129 -170.1
8.68546500 0.010134 -170.3 0.999928 -80.05 0.999928 -80.05 0.010133 -170.1
8.68547000 0.010138 -170.3 0.999928 -80.05 0.999928 -80.05 0.010138 -170.1
8.68547500 0.010143 -170.3 0.999928 -80.05 0.999928 -80.05 0.010143 -170.1
8.68548000 0.010148 -170.3 0.999928 -80.05 0.999928 -80.05 0.010148 -170.1
8.68548500 0.010152 -170.3 0.999928 -80.05 0.999928 -80.05 0.010152 -170.1
8.68549000 0.010157 -170.3 0.999928 -80.05 0.999928 -80.05 0.010157 -170.1
8.68549500 0.010162 -170.3 0.999928 -80.05 0.999928 -80.05 0.010162 -170.1
8.68550000 0.010167 -170.3 0.999928 -80.05 0.999928 -80.05 0.010167 -170.1
8.68550500 0.010172 -170.3 0.999927 -80.05 0.999927 -80.05 0.010171 -170.1
8.68551000 0.010176 -170.3 0.999927 -80.05 0.999927 -80.05 0.010176 -170.1
8.68551500 0.010181 -170.3 0.999927 -80.05 0.999927 -80.05 0.010181 -170.1
8.68552000 0.010186 -170.3 0.999927 -80.05 0.999927 -80.05 0.010186 -170.1
8.68552500 0.010191 -170.3 0.999927 -80.05 0.999927 -80.05 0.010190 -170.1
8.68553000 0.010196 -170.3 0.999927 -80.05 0.999927 -80.05 0.010195 -170.1
8.68553500 0.010200 -170.3 0.999927 -80.05 0.999927 -80.05 0.010200 -170.1
8.68554000 0.010205 -170.3 0.999927 -80.05 0.999927 -80.05 0.010205 -170.1
8.68554500 0.010210 -170.3 0.999927 -80.05 0.999927 -80.05 0.010210 -170.1
8.68555000 0.010215 -170.3 0.999927 -80.05 0.999927 -80.05 0.010215 -170.1
8.68555500 0.010220 -170.3 0.999927 -80.05 0.999927 -80.05 0.010219 -170.1
8.68556000 0.010224 -170.3 0.999927 -80.05 0.999927 -80.05 0.010224 -170.1
8.68556500 0.010229 -170.3 0.999927 -80.05 0.999927 -80.05 0.010229 -170.1
8.68557000 0.010234 -170.3 0.999927 -80.05 0.999927 -80.05 0.010234 -170.1
8.68557500 0.010239 -170.3 0.999926 -80.05 0.999926 -80.05 0.010239 -170.1
8.68558000 0.010244 -170.3 0.999926 -80.05 0.999926 -80.05 0.010244 -170.1
8.68558500 0.010249 -170.3 0.999926 -80.05 0.999926 -80.05 0.010248 -170.1
8.68559000 0.010254 -170.3 0.999926 -80.05 0.999926 -80.05 0.010253 -170.1
8.68559500 0.010258 -170.3 0.999926 -80.05 0.999926 -80.05 0.010258 -170.1
8.68560000 0.010263 -170.3 0.999926 -80.05 0.999926 -80.05 0.010263 -170.1
8.68560500 0.010268 -170.3 0.999926 -80.05 0.999926 -80.05 0.010268 -170.1
8.68561000 0.010273 -170.3 0.999926 -80.05 0.999926 -80.05 0.010273 -170.1
8.68561500 0.010278 -170.3 0.999926 -80.06 0.999926 -80.06 0.010278 -170.1
8.68562000 0.010283 -170.3 0.999926 -80.06 0.999926 -80.06 0.010283 -170.1
8.68562500 0.010288 -170.3 0.999926 -80.06 0.999926 -80.06 0.010288 -170.1
8.68563000 0.010293 -170.3 0.999926 -80.06 0.999926 -80.06 0.010293 -170.1
8.68563500 0.010298 -170.3 0.999926 -80.06 0.999926 -80.06 0.010297 -170.1
8.68564000 0.010303 -170.3 0.999926 -80.06 0.999926 -80.06 0.010302 -170.1
8.68564500 0.010308 -170.3 0.999925 -80.06 0.999925 -80.06 0.010307 -170.1
8.68565000 0.010313 -170.3 0.999925 -80.06 0.999925 -80.06 0.010312 -170.1
8.68565500 0.010318 -170.3 0.999925 -80.06 0.999925 -80.06 0.010317 -170.1
8.68566000 0.010322 -170.3 0.999925 -80.06 0.999925 -80.06 0.010322 -170.1
8.68566500 0.010327 -170.3 0.999925 -80.06 0.999925 -80.06 0.010327 -170.1
8.68567000 0.010332 -170.3 0.999925 -80.06 0.999925 -80.06 0.010332 -170.1
8.68567500 0.010337 -170.3 0.999925 -80.06 0.999925 -80.06 0.010337 -170.1
8.68568000 0.010342 -170.3 0.999925 -80.06 0.999925 -80.06 0.010342 -170.1
8.68568500 0.010347 -170.3 0.999925 -80.06 0.999925 -80.06 0.010347 -170.1
8.68569000 0.010352 -170.3 0.999925 -80.06 0.999925 -80.06 0.010352 -170.1
8.68569500 0.010357 -170.3 0.999925 -80.06 0.999925 -80.06 0.010357 -170.1
8.68570000 0.010362 -170.3 0.999925 -80.06 0.999925 -80.06 0.010362 -170.1
8.68570500 0.010367 -170.3 0.999925 -80.06 0.999925 -80.06 0.010367 -170.1
8.68571000 0.010372 -170.3 0.999925 -80.06 0.999925 -80.06 0.010372 -170.1
8.68571500 0.010377 -170.3 0.999924 -80.06 0.999924 -80.06 0.010377 -170.1
8.68572000 0.010382 -170.3 0.999924 -80.06 0.999924 -80.06 0.010382 -170.1
8.68572500 0.010387 -170.3 0.999924 -80.06 0.999924 -80.06 0.010387 -170.1
8.68573000 0.010393 -170.3 0.999924 -80.06 0.999924 -80.06 0.010392 -170.1
8.68573500 0.010398 -170.3 0.999924 -80.06 0.999924 -80.06 0.010397 -170.1
8.68574000 0.010403 -170.3 0.999924 -80.06 0.999924 -80.06 0.010402 -170.1
8.68574500 0.010408 -170.3 0.999924 -80.06 0.999924 -80.06 0.010407 -170.1
8.68575000 0.010413 -170.3 0.999924 -80.06 0.999924 -80.06 0.010413 -170.1
8.68575500 0.010418 -170.3 0.999924 -80.06 0.999924 -80.06 0.010418 -170.1
8.68576000 0.010423 -170.3 0.999924 -80.06 0.999924 -80.06 0.010423 -170.1
8.68576500 0.010428 -170.3 0.999924 -80.07 0.999924 -80.07 0.010428 -170.1
8.68577000 0.010433 -170.3 0.999924 -80.07 0.999924 -80.07 0.010433 -170.1
8.68577500 0.010438 -170.3 0.999924 -80.07 0.999924 -80.07 0.010438 -170.1
8.68578000 0.010443 -170.3 0.999923 -80.07 0.999923 -80.07 0.010443 -170.1
8.68578500 0.010448 -170.3 0.999923 -80.07 0.999923 -80.07 0.010448 -170.1
8.68579000 0.010454 -170.3 0.999923 -80.07 0.999923 -80.07 0.010453 -170.1
8.68579500 0.010459 -170.3 0.999923 -80.07 0.999923 -80.07 0.010458 -170.1
8.68580000 0.010464 -170.3 0.999923 -80.07 0.999923 -80.07 0.010464 -170.1
8.68580500 0.010469 -170.3 0.999923 -80.07 0.999923 -80.07 0.010469 -170.1
8.68581000 0.010474 -170.3 0.999923 -80.07 0.999923 -80.07 0.010474 -170.1
8.68581500 0.010479 -170.3 0.999923 -80.07 0.999923 -80.07 0.010479 -170.1
8.68582000 0.010484 -170.3 0.999923 -80.07 0.999923 -80.07 0.010484 -170.1
8.68582500 0.010490 -170.3 0.999923 -80.07 0.999923 -80.07 0.010489 -170.1
8.68583000 0.010495 -170.3 0.999923 -80.07 0.999923 -80.07 0.010495 -170.1
8.68583500 0.010500 -170.3 0.999923 -80.07 0.999923 -80.07 0.010500 -170.1
8.68584000 0.010505 -170.3 0.999923 -80.07 0.999923 -80.07 0.010505 -170.1
8.68584500 0.010510 -170.3 0.999922 -80.07 0.999922 -80.07 0.010510 -170.1
8.68585000 0.010516 -170.3 0.999922 -80.07 0.999922 -80.07 0.010515 -170.1
8.68585500 0.010521 -170.3 0.999922 -80.07 0.999922 -80.07 0.010521 -170.1
8.68586000 0.010526 -170.3 0.999922 -80.07 0.999922 -80.07 0.010526 -170.1
8.68586500 0.010531 -170.3 0.999922 -80.07 0.999922 -80.07 0.010531 -170.1
8.68587000 0.010536 -170.3 0.999922 -80.07 0.999922 -80.07 0.010536 -170.1
8.68587500 0.010542 -170.3 0.999922 -80.07 0.999922 -80.07 0.010541 -170.1
8.68588000 0.010547 -170.3 0.999922 -80.07 0.999922 -80.07 0.010547 -170.1
8.68588500 0.010552 -170.3 0.999922 -80.07 0.999922 -80.07 0.010552 -170.1
8.68589000 0.010557 -170.3 0.999922 -80.07 0.999922 -80.07 0.010557 -170.1
8.68589500 0.010563 -170.3 0.999922 -80.07 0.999922 -80.07 0.010562 -170.1
8.68590000 0.010568 -170.3 0.999922 -80.07 0.999922 -80.07 0.010568 -170.1
8.68590500 0.010573 -170.3 0.999921 -80.07 0.999921 -80.07 0.010573 -170.1
8.68591000 0.010578 -170.3 0.999921 -80.08 0.999921 -80.08 0.010578 -170.1
8.68591500 0.010584 -170.3 0.999921 -80.08 0.999921 -80.08 0.010584 -170.1
8.68592000 0.010589 -170.3 0.999921 -80.08 0.999921 -80.08 0.010589 -170.1
8.68592500 0.010594 -170.3 0.999921 -80.08 0.999921 -80.08 0.010594 -170.1
8.68593000 0.010600 -170.3 0.999921 -80.08 0.999921 -80.08 0.010599 -170.1
8.68593500 0.010605 -170.3 0.999921 -80.08 0.999921 -80.08 0.010605 -170.1
8.68594000 0.010610 -170.3 0.999921 -80.08 0.999921 -80.08 0.010610 -170.1
8.68594500 0.010616 -170.3 0.999921 -80.08 0.999921 -80.08 0.010615 -170.1
8.68595000 0.010621 -170.3 0.999921 -80.08 0.999921 -80.08 0.010621 -170.1
8.68595500 0.010626 -170.3 0.999921 -80.08 0.999921 -80.08 0.010626 -170.1
8.68596000 0.010632 -170.3 0.999921 -80.08 0.999921 -80.08 0.010631 -170.1
8.68596500 0.010637 -170.3 0.999920 -80.08 0.999920 -80.08 0.010637 -170.1
8.68597000 0.010642 -170.3 0.999920 -80.08 0.999920 -80.08 0.010642 -170.1
8.68597500 0.010648 -170.3 0.999920 -80.08 0.999920 -80.08 0.010647 -170.1
8.68598000 0.010653 -170.3 0.999920 -80.08 0.999920 -80.08 0.010653 -170.1
8.68598500 0.010658 -170.3 0.999920 -80.08 0.999920 -80.08 0.010658 -170.1
8.68599000 0.010664 -170.3 0.999920 -80.08 0.999920 -80.08 0.010664 -170.1
8.68599500 0.010669 -170.3 0.999920 -80.08 0.999920 -80.08 0.010669 -170.1
8.68600000 0.010675 -170.3 0.999920 -80.08 0.999920 -80.08 0.010674 -170.1
8.68600500 0.010680 -170.3 0.999920 -80.08 0.999920 -80.08 0.010680 -170.1
8.68601000 0.010686 -170.3 0.999920 -80.08 0.999920 -80.08 0.010685 -170.1
8.68601500 0.010691 -170.3 0.999920 -80.08 0.999920 -80.08 0.010691 -170.1
8.68602000 0.010696 -170.3 0.999920 -80.08 0.999920 -80.08 0.010696 -170.1
8.68602500 0.010702 -170.3 0.999919 -80.08 0.999919 -80.08 0.010702 -170.1
8.68603000 0.010707 -170.3 0.999919 -80.08 0.999919 -80.08 0.010707 -170.1
8.68603500 0.010713 -170.3 0.999919 -80.08 0.999919 -80.08 0.010712 -170.1
8.68604000 0.010718 -170.3 0.999919 -80.08 0.999919 -80.08 0.010718 -170.1
8.68604500 0.010724 -170.3 0.999919 -80.08 0.999919 -80.08 0.010723 -170.1
8.68605000 0.010729 -170.3 0.999919 -80.09 0.999919 -80.09 0.010729 -170.1
8.68605500 0.010735 -170.3 0.999919 -80.09 0.999919 -80.09 0.010734 -170.1
8.68606000 0.010740 -170.3 0.999919 -80.09 0.999919 -80.09 0.010740 -170.1
8.68606500 0.010746 -170.3 0.999919 -80.09 0.999919 -80.09 0.010745 -170.1
8.68607000 0.010751 -170.3 0.999919 -80.09 0.999919 -80.09 0.010751 -170.1
8.68607500 0.010757 -170.3 0.999919 -80.09 0.999919 -80.09 0.010756 -170.1
8.68608000 0.010762 -170.3 0.999919 -80.09 0.999919 -80.09 0.010762 -170.1
8.68608500 0.010768 -170.3 0.999918 -80.09 0.999918 -80.09 0.010767 -170.1
8.68609000 0.010773 -170.3 0.999918 -80.09 0.999918 -80.09 0.010773 -170.1
8.68609500 0.010779 -170.3 0.999918 -80.09 0.999918 -80.09 0.010778 -170.1
8.68610000 0.010784 -170.3 0.999918 -80.09 0.999918 -80.09 0.010784 -170.1
8.68610500 0.010790 -170.3 0.999918 -80.09 0.999918 -80.09 0.010790 -170.1
8.68611000 0.010795 -170.3 0.999918 -80.09 0.999918 -80.09 0.010795 -170.1
8.68611500 0.010801 -170.3 0.999918 -80.09 0.999918 -80.09 0.010801 -170.1
8.68612000 0.010807 -170.3 0.999918 -80.09 0.999918 -80.09 0.010806 -170.1
8.68612500 0.010812 -170.3 0.999918 -80.09 0.999918 -80.09 0.010812 -170.1
8.68613000 0.010818 -170.3 0.999918 -80.09 0.999918 -80.09 0.010817 -170.1
8.68613500 0.010823 -170.3 0.999918 -80.09 0.999918 -80.09 0.010823 -170.1
8.68614000 0.010829 -170.3 0.999918 -80.09 0.999918 -80.09 0.010829 -170.1
8.68614500 0.010835 -170.3 0.999917 -80.09 0.999917 -80.09 0.010834 -170.1
8.68615000 0.010840 -170.3 0.999917 -80.09 0.999917 -80.09 0.010840 -170.1
8.68615500 0.010846 -170.3 0.999917 -80.09 0.999917 -80.09 0.010845 -170.1
8.68616000 0.010851 -170.3 0.999917 -80.09 0.999917 -80.09 0.010851 -170.1
8.68616500 0.010857 -170.3 0.999917 -80.09 0.999917 -80.09 0.010857 -170.1
8.68617000 0.010863 -170.3 0.999917 -80.09 0.999917 -80.09 0.010862 -170.1
8.68617500 0.010868 -170.3 0.999917 -80.09 0.999917 -80.09 0.010868 -170.1
8.68618000 0.010874 -170.3 0.999917 -80.09 0.999917 -80.09 0.010874 -170.1
8.68618500 0.010880 -170.3 0.999917 -80.09 0.999917 -80.09 0.010879 -170.1
8.68619000 0.010885 -170.3 0.999917 -80.10 0.999917 -80.10 0.010885 -170.1
8.68619500 0.010891 -170.3 0.999917 -80.10 0.999917 -80.10 0.010891 -170.1
8.68620000 0.010897 -170.3 0.999916 -80.10 0.999916 -80.10 0.010896 -170.1
8.68620500 0.010902 -170.3 0.999916 -80.10 0.999916 -80.10 0.010902 -170.1
8.68621000 0.010908 -170.3 0.999916 -80.10 0.999916 -80.10 0.010908 -170.1
8.68621500 0.010914 -170.3 0.999916 -80.10 0.999916 -80.10 0.010914 -170.1
8.68622000 0.010920 -170.3 0.999916 -80.10 0.999916 -80.10 0.010919 -170.1
8.68622500 0.010925 -170.3 0.999916 -80.10 0.999916 -80.10 0.010925 -170.1
8.68623000 0.010931 -170.3 0.999916 -80.10 0.999916 -80.10 0.010931 -170.1
8.68623500 0.010937 -170.3 0.999916 -80.10 0.999916 -80.10 0.010937 -170.1
8.68624000 0.010943 -170.3 0.999916 -80.10 0.999916 -80.10 0.010942 -170.1
8.68624500 0.010948 -170.3 0.999916 -80.10 0.999916 -80.10 0.010948 -170.1
8.68625000 0.010954 -170.3 0.999916 -80.10 0.999916 -80.10 0.010954 -170.1
8.68625500 0.010960 -170.3 0.999915 -80.10 0.999915 -80.10 0.010960 -170.1
8.68626000 0.010966 -170.3 0.999915 -80.10 0.999915 -80.10 0.010965 -170.1
8.68626500 0.010971 -170.3 0.999915 -80.10 0.999915 -80.10 0.010971 -170.1
8.68627000 0.010977 -170.3 0.999915 -80.10 0.999915 -80.10 0.010977 -170.1
8.68627500 0.010983 -170.3 0.999915 -80.10 0.999915 -80.10 0.010983 -170.1
8.68628000 0.010989 -170.3 0.999915 -80.10 0.999915 -80.10 0.010989 -170.2
8.68628500 0.010995 -170.3 0.999915 -80.10 0.999915 -80.10 0.010994 -170.2
8.68629000 0.011001 -170.3 0.999915 -80.10 0.999915 -80.10 0.011000 -170.2
8.68629500 0.011006 -170.3 0.999915 -80.10 0.999915 -80.10 0.011006 -170.2
8.68630000 0.011012 -170.3 0.999915 -80.10 0.999915 -80.10 0.011012 -170.2
8.68630500 0.011018 -170.3 0.999915 -80.10 0.999915 -80.10 0.011018 -170.2
8.68631000 0.011024 -170.3 0.999914 -80.10 0.999914 -80.10 0.011024 -170.2
8.68631500 0.011030 -170.3 0.999914 -80.10 0.999914 -80.10 0.011030 -170.2
8.68632000 0.011036 -170.3 0.999914 -80.11 0.999914 -80.11 0.011035 -170.2
8.68632500 0.011042 -170.3 0.999914 -80.11 0.999914 -80.11 0.011041 -170.2
8.68633000 0.011048 -170.3 0.999914 -80.11 0.999914 -80.11 0.011047 -170.2
8.68633500 0.011053 -170.3 0.999914 -80.11 0.999914 -80.11 0.011053 -170.2
8.68634000 0.011059 -170.3 0.999914 -80.11 0.999914 -80.11 0.011059 -170.2
8.68634500 0.011065 -170.3 0.999914 -80.11 0.999914 -80.11 0.011065 -170.2
8.68635000 0.011071 -170.3 0.999914 -80.11 0.999914 -80.11 0.011071 -170.2
8.68635500 0.011077 -170.3 0.999914 -80.11 0.999914 -80.11 0.011077 -170.2
8.68636000 0.011083 -170.3 0.999913 -80.11 0.999913 -80.11 0.011083 -170.2
8.68636500 0.011089 -170.3 0.999913 -80.11 0.999913 -80.11 0.011089 -170.2
8.68637000 0.011095 -170.3 0.999913 -80.11 0.999913 -80.11 0.011095 -170.2
8.68637500 0.011101 -170.3 0.999913 -80.11 0.999913 -80.11 0.011101 -170.2
8.68638000 0.011107 -170.3 0.999913 -80.11 0.999913 -80.11 0.011107 -170.2
8.68638500 0.011113 -170.3 0.999913 -80.11 0.999913 -80.11 0.011113 -170.2
8.68639000 0.011119 -170.3 0.999913 -80.11 0.999913 -80.11 0.011119 -170.2
8.68639500 0.011125 -170.3 0.999913 -80.11 0.999913 -80.11 0.011125 -170.2
8.68640000 0.011131 -170.3 0.999913 -80.11 0.999913 -80.11 0.011131 -170.2
8.68640500 0.011137 -170.3 0.999913 -80.11 0.999913 -80.11 0.011137 -170.2
8.68641000 0.011143 -170.3 0.999913 -80.11 0.999913 -80.11 0.011143 -170.2
8.68641500 0.011149 -170.3 0.999912 -80.11 0.999912 -80.11 0.011149 -170.2
8.68642000 0.011155 -170.3 0.999912 -80.11 0.999912 -80.11 0.011155 -170.2
8.68642500 0.011161 -170.3 0.999912 -80.11 0.999912 -80.11 0.011161 -170.2
8.68643000 0.011167 -170.3 0.999912 -80.11 0.999912 -80.11 0.011167 -170.2
8.68643500 0.011173 -170.3 0.999912 -80.11 0.999912 -80.11 0.011173 -170.2
8.68644000 0.011179 -170.3 0.999912 -80.11 0.999912 -80.11 0.011179 -170.2
8.68644500 0.011185 -170.3 0.999912 -80.11 0.999912 -80.11 0.011185 -170.2
8.68645000 0.011191 -170.3 0.999912 -80.12 0.999912 -80.12 0.011191 -170.2
8.68645500 0.011198 -170.3 0.999912 -80.12 0.999912 -80.12 0.011197 -170.2
8.68646000 0.011204 -170.3 0.999912 -80.12 0.999912 -80.12 0.011203 -170.2
8.68646500 0.011210 -170.3 0.999911 -80.12 0.999911 -80.12 0.011210 -170.2
8.68647000 0.011216 -170.3 0.999911 -80.12 0.999911 -80.12 0.011216 -170.2
8.68647500 0.011222 -170.3 0.999911 -80.12 0.999911 -80.12 0.011222 -170.2
8.68648000 0.011228 -170.3 0.999911 -80.12 0.999911 -80.12 0.011228 -170.2
8.68648500 0.011234 -170.3 0.999911 -80.12 0.999911 -80.12 0.011234 -170.2
8.68649000 0.011241 -170.3 0.999911 -80.12 0.999911 -80.12 0.011240 -170.2
8.68649500 0.011247 -170.3 0.999911 -80.12 0.999911 -80.12 0.011246 -170.2
8.68650000 0.011253 -170.3 0.999911 -80.12 0.999911 -80.12 0.011253 -170.2
8.68650500 0.011259 -170.3 0.999911 -80.12 0.999911 -80.12 0.011259 -170.2
8.68651000 0.011265 -170.3 0.999911 -80.12 0.999911 -80.12 0.011265 -170.2
8.68651500 0.011271 -170.3 0.999910 -80.12 0.999910 -80.12 0.011271 -170.2
8.68652000 0.011278 -170.3 0.999910 -80.12 0.999910 -80.12 0.011277 -170.2
8.68652500 0.011284 -170.3 0.999910 -80.12 0.999910 -80.12 0.011284 -170.2
8.68653000 0.011290 -170.3 0.999910 -80.12 0.999910 -80.12 0.011290 -170.2
8.68653500 0.011296 -170.3 0.999910 -80.12 0.999910 -80.12 0.011296 -170.2
8.68654000 0.011303 -170.3 0.999910 -80.12 0.999910 -80.12 0.011302 -170.2
8.68654500 0.011309 -170.3 0.999910 -80.12 0.999910 -80.12 0.011309 -170.2
8.68655000 0.011315 -170.3 0.999910 -80.12 0.999910 -80.12 0.011315 -170.2
8.68655500 0.011321 -170.3 0.999910 -80.12 0.999910 -80.12 0.011321 -170.2
8.68656000 0.011328 -170.3 0.999909 -80.12 0.999909 -80.12 0.011327 -170.2
8.68656500 0.011334 -170.3 0.999909 -80.12 0.999909 -80.12 0.011334 -170.2
8.68657000 0.011340 -170.3 0.999909 -80.12 0.999909 -80.12 0.011340 -170.2
8.68657500 0.011347 -170.3 0.999909 -80.13 0.999909 -80.13 0.011346 -170.2
8.68658000 0.011353 -170.3 0.999909 -80.13 0.999909 -80.13 0.011353 -170.2
8.68658500 0.011359 -170.3 0.999909 -80.13 0.999909 -80.13 0.011359 -170.2
8.68659000 0.011366 -170.3 0.999909 -80.13 0.999909 -80.13 0.011365 -170.2
8.68659500 0.011372 -170.3 0.999909 -80.13 0.999909 -80.13 0.011372 -170.2
8.68660000 0.011378 -170.3 0.999909 -80.13 0.999909 -80.13 0.011378 -170.2
8.68660500 0.011385 -170.3 0.999909 -80.13 0.999909 -80.13 0.011384 -170.2
8.68661000 0.011391 -170.3 0.999908 -80.13 0.999908 -80.13 0.011391 -170.2
8.68661500 0.011397 -170.3 0.999908 -80.13 0.999908 -80.13 0.011397 -170.2
8.68662000 0.011404 -170.3 0.999908 -80.13 0.999908 -80.13 0.011403 -170.2
8.68662500 0.011410 -170.3 0.999908 -80.13 0.999908 -80.13 0.011410 -170.2
8.68663000 0.011417 -170.3 0.999908 -80.13 0.999908 -80.13 0.011416 -170.2
8.68663500 0.011423 -170.3 0.999908 -80.13 0.999908 -80.13 0.011423 -170.2
8.68664000 0.011429 -170.3 0.999908 -80.13 0.999908 -80.13 0.011429 -170.2
8.68664500 0.011436 -170.3 0.999908 -80.13 0.999908 -80.13 0.011436 -170.2
8.68665000 0.011442 -170.3 0.999908 -80.13 0.999908 -80.13 0.011442 -170.2
8.68665500 0.011449 -170.3 0.999907 -80.13 0.999907 -80.13 0.011448 -170.2
8.68666000 0.011455 -170.3 0.999907 -80.13 0.999907 -80.13 0.011455 -170.2
8.68666500 0.011462 -170.3 0.999907 -80.13 0.999907 -80.13 0.011461 -170.2
8.68667000 0.011468 -170.3 0.999907 -80.13 0.999907 -80.13 0.011468 -170.2
8.68667500 0.011475 -170.3 0.999907 -80.13 0.999907 -80.13 0.011474 -170.2
8.68668000 0.011481 -170.3 0.999907 -80.13 0.999907 -80.13 0.011481 -170.2
8.68668500 0.011488 -170.3 0.999907 -80.13 0.999907 -80.13 0.011487 -170.2
8.68669000 0.011494 -170.3 0.999907 -80.13 0.999907 -80.13 0.011494 -170.2
8.68669500 0.011501 -170.3 0.999907 -80.14 0.999907 -80.14 0.011500 -170.2
8.68670000 0.011507 -170.3 0.999907 -80.14 0.999907 -80.14 0.011507 -170.2
8.68670500 0.011514 -170.3 0.999906 -80.14 0.999906 -80.14 0.011513 -170.2
8.68671000 0.011520 -170.3 0.999906 -80.14 0.999906 -80.14 0.011520 -170.2
8.68671500 0.011527 -170.3 0.999906 -80.14 0.999906 -80.14 0.011527 -170.2
8.68672000 0.011533 -170.3 0.999906 -80.14 0.999906 -80.14 0.011533 -170.2
8.68672500 0.011540 -170.3 0.999906 -80.14 0.999906 -80.14 0.011540 -170.2
8.68673000 0.011547 -170.3 0.999906 -80.14 0.999906 -80.14 0.011546 -170.2
8.68673500 0.011553 -170.3 0.999906 -80.14 0.999906 -80.14 0.011553 -170.2
8.68674000 0.011560 -170.3 0.999906 -80.14 0.999906 -80.14 0.011559 -170.2
8.68674500 0.011566 -170.3 0.999906 -80.14 0.999906 -80.14 0.011566 -170.2
8.68675000 0.011573 -170.3 0.999905 -80.14 0.999905 -80.14 0.011573 -170.2
8.68675500 0.011580 -170.3 0.999905 -80.14 0.999905 -80.14 0.011579 -170.2
8.68676000 0.011586 -170.3 0.999905 -80.14 0.999905 -80.14 0.011586 -170.2
8.68676500 0.011593 -170.3 0.999905 -80.14 0.999905 -80.14 0.011593 -170.2
8.68677000 0.011600 -170.3 0.999905 -80.14 0.999905 -80.14 0.011599 -170.2
8.68677500 0.011606 -170.3 0.999905 -80.14 0.999905 -80.14 0.011606 -170.2
8.68678000 0.011613 -170.3 0.999905 -80.14 0.999905 -80.14 0.011613 -170.2
8.68678500 0.011620 -170.3 0.999905 -80.14 0.999905 -80.14 0.011619 -170.2
8.68679000 0.011626 -170.3 0.999904 -80.14 0.999904 -80.14 0.011626 -170.2
8.68679500 0.011633 -170.3 0.999904 -80.14 0.999904 -80.14 0.011633 -170.2
8.68680000 0.011640 -170.3 0.999904 -80.14 0.999904 -80.14 0.011640 -170.2
8.68680500 0.011647 -170.3 0.999904 -80.14 0.999904 -80.14 0.011646 -170.2
8.68681000 0.011653 -170.3 0.999904 -80.15 0.999904 -80.15 0.011653 -170.2
8.68681500 0.011660 -170.3 0.999904 -80.15 0.999904 -80.15 0.011660 -170.2
8.68682000 0.011667 -170.3 0.999904 -80.15 0.999904 -80.15 0.011667 -170.2
8.68682500 0.011674 -170.3 0.999904 -80.15 0.999904 -80.15 0.011673 -170.2
8.68683000 0.011680 -170.3 0.999904 -80.15 0.999904 -80.15 0.011680 -170.2
8.68683500 0.011687 -170.3 0.999903 -80.15 0.999903 -80.15 0.011687 -170.2
8.68684000 0.011694 -170.3 0.999903 -80.15 0.999903 -80.15 0.011694 -170.2
8.68684500 0.011701 -170.3 0.999903 -80.15 0.999903 -80.15 0.011700 -170.2
8.68685000 0.011708 -170.3 0.999903 -80.15 0.999903 -80.15 0.011707 -170.2
8.68685500 0.011714 -170.3 0.999903 -80.15 0.999903 -80.15 0.011714 -170.2
8.68686000 0.011721 -170.3 0.999903 -80.15 0.999903 -80.15 0.011721 -170.2
8.68686500 0.011728 -170.3 0.999903 -80.15 0.999903 -80.15 0.011728 -170.2
8.68687000 0.011735 -170.3 0.999903 -80.15 0.999903 -80.15 0.011735 -170.2
8.68687500 0.011742 -170.3 0.999903 -80.15 0.999903 -80.15 0.011742 -170.2
8.68688000 0.011749 -170.3 0.999902 -80.15 0.999902 -80.15 0.011748 -170.2
8.68688500 0.011756 -170.3 0.999902 -80.15 0.999902 -80.15 0.011755 -170.2
8.68689000 0.011763 -170.3 0.999902 -80.15 0.999902 -80.15 0.011762 -170.2
8.68689500 0.011769 -170.3 0.999902 -80.15 0.999902 -80.15 0.011769 -170.2
8.68690000 0.011776 -170.3 0.999902 -80.15 0.999902 -80.15 0.011776 -170.2
8.68690500 0.011783 -170.3 0.999902 -80.15 0.999902 -80.15 0.011783 -170.2
8.68691000 0.011790 -170.3 0.999902 -80.15 0.999902 -80.15 0.011790 -170.2
8.68691500 0.011797 -170.3 0.999902 -80.15 0.999902 -80.15 0.011797 -170.2
8.68692000 0.011804 -170.3 0.999901 -80.15 0.999901 -80.15 0.011804 -170.2
8.68692500 0.011811 -170.3 0.999901 -80.16 0.999901 -80.16 0.011811 -170.2
8.68693000 0.011818 -170.3 0.999901 -80.16 0.999901 -80.16 0.011818 -170.2
8.68693500 0.011825 -170.3 0.999901 -80.16 0.999901 -80.16 0.011825 -170.2
8.68694000 0.011832 -170.3 0.999901 -80.16 0.999901 -80.16 0.011832 -170.2
8.68694500 0.011839 -170.3 0.999901 -80.16 0.999901 -80.16 0.011839 -170.2
8.68695000 0.011846 -170.3 0.999901 -80.16 0.999901 -80.16 0.011846 -170.2
8.68695500 0.011853 -170.3 0.999901 -80.16 0.999901 -80.16 0.011853 -170.2