! Sonnet Data File
! From: emgraph Version : 16.52
! From Project: Qubit_Xmon2_brg_para
! Data is De-embedded 
! Data File Written: 10/25/2017 13:37:33
!< HDATE 10/25/2017 09:37:53
!< MDATE 10/25/2017 09:40:21
!< PARAMS
!< Lj = 11.0
!< Gap = 6.0
!< Pwid = 2000.0
!< Airgap = 6.0
!< Width = 10.0
!< Bwid = 8.0
!< Dis1 = 50.0
!< Dis2 = 56.0
!< END PARAMS
# GHZ S MA R 51.80000
8.68500000 0.009616 -170.2 0.999936 -79.98 0.999936 -79.98 0.009616 -170.0
!< P1 F=8.685 Eeff=(6.44683879 -2.9786e-5) Z0=(51.7993663 1.19075e-4) R=0.0 C=0.0 
!< P2 F=8.685 Eeff=(6.44683879 -2.9786e-5) Z0=(51.7993663 1.19075e-4) R=0.0 C=0.0 
8.68500500 0.009620 -170.2 0.999936 -79.98 0.999936 -79.98 0.009620 -170.0
8.68501000 0.009624 -170.2 0.999936 -79.98 0.999936 -79.98 0.009624 -170.0
8.68501500 0.009628 -170.2 0.999936 -79.99 0.999936 -79.99 0.009627 -170.0
8.68502000 0.009631 -170.2 0.999936 -79.99 0.999936 -79.99 0.009631 -170.0
8.68502500 0.009635 -170.2 0.999936 -79.99 0.999936 -79.99 0.009635 -170.0
8.68503000 0.009639 -170.2 0.999936 -79.99 0.999936 -79.99 0.009639 -170.0
8.68503500 0.009643 -170.2 0.999936 -79.99 0.999936 -79.99 0.009643 -170.0
8.68504000 0.009647 -170.2 0.999936 -79.99 0.999936 -79.99 0.009647 -170.0
8.68504500 0.009651 -170.2 0.999936 -79.99 0.999936 -79.99 0.009651 -170.0
8.68505000 0.009655 -170.2 0.999936 -79.99 0.999936 -79.99 0.009655 -170.0
8.68505500 0.009659 -170.2 0.999936 -79.99 0.999936 -79.99 0.009659 -170.0
8.68506000 0.009663 -170.2 0.999936 -79.99 0.999936 -79.99 0.009663 -170.0
8.68506500 0.009667 -170.2 0.999936 -79.99 0.999936 -79.99 0.009666 -170.0
8.68507000 0.009670 -170.2 0.999936 -79.99 0.999936 -79.99 0.009670 -170.0
8.68507500 0.009674 -170.2 0.999936 -79.99 0.999936 -79.99 0.009674 -170.0
8.68508000 0.009678 -170.2 0.999935 -79.99 0.999935 -79.99 0.009678 -170.0
8.68508500 0.009682 -170.2 0.999935 -79.99 0.999935 -79.99 0.009682 -170.0
8.68509000 0.009686 -170.2 0.999935 -79.99 0.999935 -79.99 0.009686 -170.0
8.68509500 0.009690 -170.2 0.999935 -79.99 0.999935 -79.99 0.009690 -170.0
8.68510000 0.009694 -170.2 0.999935 -79.99 0.999935 -79.99 0.009694 -170.0
8.68510500 0.009698 -170.2 0.999935 -79.99 0.999935 -79.99 0.009698 -170.0
8.68511000 0.009702 -170.2 0.999935 -79.99 0.999935 -79.99 0.009702 -170.0
8.68511500 0.009706 -170.2 0.999935 -79.99 0.999935 -79.99 0.009706 -170.0
8.68512000 0.009710 -170.2 0.999935 -79.99 0.999935 -79.99 0.009710 -170.0
8.68512500 0.009714 -170.2 0.999935 -79.99 0.999935 -79.99 0.009714 -170.0
8.68513000 0.009718 -170.2 0.999935 -79.99 0.999935 -79.99 0.009718 -170.0
8.68513500 0.009722 -170.2 0.999935 -79.99 0.999935 -79.99 0.009722 -170.0
8.68514000 0.009726 -170.2 0.999935 -79.99 0.999935 -79.99 0.009726 -170.0
8.68514500 0.009730 -170.2 0.999935 -79.99 0.999935 -79.99 0.009730 -170.0
8.68515000 0.009734 -170.2 0.999935 -79.99 0.999935 -79.99 0.009734 -170.0
8.68515500 0.009738 -170.2 0.999935 -79.99 0.999935 -79.99 0.009738 -170.0
8.68516000 0.009742 -170.2 0.999935 -79.99 0.999935 -79.99 0.009742 -170.0
8.68516500 0.009746 -170.2 0.999935 -79.99 0.999935 -79.99 0.009746 -170.0
8.68517000 0.009750 -170.2 0.999934 -79.99 0.999934 -79.99 0.009750 -170.0
8.68517500 0.009754 -170.2 0.999934 -79.99 0.999934 -79.99 0.009754 -170.0
8.68518000 0.009758 -170.2 0.999934 -79.99 0.999934 -79.99 0.009758 -170.0
8.68518500 0.009762 -170.2 0.999934 -79.99 0.999934 -79.99 0.009762 -170.0
8.68519000 0.009766 -170.2 0.999934 -79.99 0.999934 -79.99 0.009766 -170.0
8.68519500 0.009770 -170.2 0.999934 -80.00 0.999934 -80.00 0.009770 -170.0
8.68520000 0.009774 -170.2 0.999934 -80.00 0.999934 -80.00 0.009774 -170.0
8.68520500 0.009778 -170.2 0.999934 -80.00 0.999934 -80.00 0.009778 -170.0
8.68521000 0.009782 -170.2 0.999934 -80.00 0.999934 -80.00 0.009782 -170.0
8.68521500 0.009786 -170.2 0.999934 -80.00 0.999934 -80.00 0.009786 -170.0
8.68522000 0.009790 -170.2 0.999934 -80.00 0.999934 -80.00 0.009790 -170.0
8.68522500 0.009794 -170.2 0.999934 -80.00 0.999934 -80.00 0.009794 -170.0
8.68523000 0.009798 -170.2 0.999934 -80.00 0.999934 -80.00 0.009798 -170.0
8.68523500 0.009802 -170.2 0.999934 -80.00 0.999934 -80.00 0.009802 -170.0
8.68524000 0.009806 -170.2 0.999934 -80.00 0.999934 -80.00 0.009806 -170.0
8.68524500 0.009810 -170.2 0.999934 -80.00 0.999934 -80.00 0.009810 -170.0
8.68525000 0.009815 -170.2 0.999934 -80.00 0.999934 -80.00 0.009814 -170.0
8.68525500 0.009819 -170.2 0.999934 -80.00 0.999934 -80.00 0.009819 -170.0
8.68526000 0.009823 -170.2 0.999933 -80.00 0.999933 -80.00 0.009823 -170.0
8.68526500 0.009827 -170.2 0.999933 -80.00 0.999933 -80.00 0.009827 -170.0
8.68527000 0.009831 -170.2 0.999933 -80.00 0.999933 -80.00 0.009831 -170.0
8.68527500 0.009835 -170.2 0.999933 -80.00 0.999933 -80.00 0.009835 -170.0
8.68528000 0.009839 -170.2 0.999933 -80.00 0.999933 -80.00 0.009839 -170.0
8.68528500 0.009843 -170.2 0.999933 -80.00 0.999933 -80.00 0.009843 -170.0
8.68529000 0.009847 -170.2 0.999933 -80.00 0.999933 -80.00 0.009847 -170.0
8.68529500 0.009851 -170.2 0.999933 -80.00 0.999933 -80.00 0.009851 -170.0
8.68530000 0.009856 -170.2 0.999933 -80.00 0.999933 -80.00 0.009856 -170.0
8.68530500 0.009860 -170.2 0.999933 -80.00 0.999933 -80.00 0.009860 -170.0
8.68531000 0.009864 -170.2 0.999933 -80.00 0.999933 -80.00 0.009864 -170.0
8.68531500 0.009868 -170.2 0.999933 -80.00 0.999933 -80.00 0.009868 -170.0
8.68532000 0.009872 -170.2 0.999933 -80.00 0.999933 -80.00 0.009872 -170.0
8.68532500 0.009876 -170.2 0.999933 -80.00 0.999933 -80.00 0.009876 -170.0
8.68533000 0.009880 -170.2 0.999933 -80.00 0.999933 -80.00 0.009880 -170.0
8.68533500 0.009885 -170.2 0.999933 -80.00 0.999933 -80.00 0.009885 -170.0
8.68534000 0.009889 -170.2 0.999933 -80.00 0.999933 -80.00 0.009889 -170.0
8.68534500 0.009893 -170.2 0.999932 -80.00 0.999932 -80.00 0.009893 -170.0
8.68535000 0.009897 -170.2 0.999932 -80.00 0.999932 -80.00 0.009897 -170.0
8.68535500 0.009901 -170.2 0.999932 -80.00 0.999932 -80.00 0.009901 -170.0
8.68536000 0.009906 -170.2 0.999932 -80.00 0.999932 -80.00 0.009905 -170.0
8.68536500 0.009910 -170.2 0.999932 -80.00 0.999932 -80.00 0.009910 -170.0
8.68537000 0.009914 -170.2 0.999932 -80.00 0.999932 -80.00 0.009914 -170.0
8.68537500 0.009918 -170.2 0.999932 -80.01 0.999932 -80.01 0.009918 -170.0
8.68538000 0.009922 -170.2 0.999932 -80.01 0.999932 -80.01 0.009922 -170.0
8.68538500 0.009927 -170.2 0.999932 -80.01 0.999932 -80.01 0.009926 -170.0
8.68539000 0.009931 -170.2 0.999932 -80.01 0.999932 -80.01 0.009931 -170.0
8.68539500 0.009935 -170.2 0.999932 -80.01 0.999932 -80.01 0.009935 -170.0
8.68540000 0.009939 -170.2 0.999932 -80.01 0.999932 -80.01 0.009939 -170.0
8.68540500 0.009943 -170.2 0.999932 -80.01 0.999932 -80.01 0.009943 -170.0
8.68541000 0.009948 -170.2 0.999932 -80.01 0.999932 -80.01 0.009948 -170.0
8.68541500 0.009952 -170.2 0.999932 -80.01 0.999932 -80.01 0.009952 -170.0
8.68542000 0.009956 -170.2 0.999932 -80.01 0.999932 -80.01 0.009956 -170.0
8.68542500 0.009960 -170.2 0.999932 -80.01 0.999932 -80.01 0.009960 -170.0
8.68543000 0.009965 -170.2 0.999931 -80.01 0.999931 -80.01 0.009965 -170.0
8.68543500 0.009969 -170.2 0.999931 -80.01 0.999931 -80.01 0.009969 -170.0
8.68544000 0.009973 -170.2 0.999931 -80.01 0.999931 -80.01 0.009973 -170.0
8.68544500 0.009977 -170.2 0.999931 -80.01 0.999931 -80.01 0.009977 -170.0
8.68545000 0.009982 -170.2 0.999931 -80.01 0.999931 -80.01 0.009982 -170.0
8.68545500 0.009986 -170.2 0.999931 -80.01 0.999931 -80.01 0.009986 -170.0
8.68546000 0.009990 -170.2 0.999931 -80.01 0.999931 -80.01 0.009990 -170.0
8.68546500 0.009995 -170.2 0.999931 -80.01 0.999931 -80.01 0.009994 -170.0
8.68547000 0.009999 -170.2 0.999931 -80.01 0.999931 -80.01 0.009999 -170.0
8.68547500 0.010003 -170.2 0.999931 -80.01 0.999931 -80.01 0.010003 -170.0
8.68548000 0.010007 -170.2 0.999931 -80.01 0.999931 -80.01 0.010007 -170.0
8.68548500 0.010012 -170.2 0.999931 -80.01 0.999931 -80.01 0.010012 -170.0
8.68549000 0.010016 -170.2 0.999931 -80.01 0.999931 -80.01 0.010016 -170.0
8.68549500 0.010020 -170.2 0.999931 -80.01 0.999931 -80.01 0.010020 -170.0
8.68550000 0.010025 -170.2 0.999931 -80.01 0.999931 -80.01 0.010025 -170.0
8.68550500 0.010029 -170.2 0.999931 -80.01 0.999931 -80.01 0.010029 -170.0
8.68551000 0.010033 -170.2 0.999930 -80.01 0.999930 -80.01 0.010033 -170.0
8.68551500 0.010038 -170.2 0.999930 -80.01 0.999930 -80.01 0.010038 -170.0
8.68552000 0.010042 -170.2 0.999930 -80.01 0.999930 -80.01 0.010042 -170.0
8.68552500 0.010046 -170.2 0.999930 -80.01 0.999930 -80.01 0.010046 -170.0
8.68553000 0.010051 -170.2 0.999930 -80.01 0.999930 -80.01 0.010051 -170.0
8.68553500 0.010055 -170.2 0.999930 -80.01 0.999930 -80.01 0.010055 -170.0
8.68554000 0.010059 -170.2 0.999930 -80.01 0.999930 -80.01 0.010059 -170.0
8.68554500 0.010064 -170.2 0.999930 -80.02 0.999930 -80.02 0.010064 -170.0
8.68555000 0.010068 -170.2 0.999930 -80.02 0.999930 -80.02 0.010068 -170.0
8.68555500 0.010073 -170.2 0.999930 -80.02 0.999930 -80.02 0.010073 -170.0
8.68556000 0.010077 -170.2 0.999930 -80.02 0.999930 -80.02 0.010077 -170.0
8.68556500 0.010081 -170.2 0.999930 -80.02 0.999930 -80.02 0.010081 -170.0
8.68557000 0.010086 -170.2 0.999930 -80.02 0.999930 -80.02 0.010086 -170.0
8.68557500 0.010090 -170.2 0.999930 -80.02 0.999930 -80.02 0.010090 -170.0
8.68558000 0.010095 -170.2 0.999930 -80.02 0.999930 -80.02 0.010094 -170.0
8.68558500 0.010099 -170.2 0.999930 -80.02 0.999930 -80.02 0.010099 -170.0
8.68559000 0.010103 -170.2 0.999929 -80.02 0.999929 -80.02 0.010103 -170.0
8.68559500 0.010108 -170.2 0.999929 -80.02 0.999929 -80.02 0.010108 -170.0
8.68560000 0.010112 -170.2 0.999929 -80.02 0.999929 -80.02 0.010112 -170.0
8.68560500 0.010117 -170.2 0.999929 -80.02 0.999929 -80.02 0.010117 -170.0
8.68561000 0.010121 -170.2 0.999929 -80.02 0.999929 -80.02 0.010121 -170.0
8.68561500 0.010126 -170.2 0.999929 -80.02 0.999929 -80.02 0.010125 -170.0
8.68562000 0.010130 -170.2 0.999929 -80.02 0.999929 -80.02 0.010130 -170.0
8.68562500 0.010134 -170.2 0.999929 -80.02 0.999929 -80.02 0.010134 -170.0
8.68563000 0.010139 -170.2 0.999929 -80.02 0.999929 -80.02 0.010139 -170.0
8.68563500 0.010143 -170.2 0.999929 -80.02 0.999929 -80.02 0.010143 -170.0
8.68564000 0.010148 -170.2 0.999929 -80.02 0.999929 -80.02 0.010148 -170.0
8.68564500 0.010152 -170.2 0.999929 -80.02 0.999929 -80.02 0.010152 -170.0
8.68565000 0.010157 -170.2 0.999929 -80.02 0.999929 -80.02 0.010157 -170.0
8.68565500 0.010161 -170.2 0.999929 -80.02 0.999929 -80.02 0.010161 -170.0
8.68566000 0.010166 -170.2 0.999929 -80.02 0.999929 -80.02 0.010166 -170.0
8.68566500 0.010170 -170.2 0.999929 -80.02 0.999929 -80.02 0.010170 -170.0
8.68567000 0.010175 -170.2 0.999928 -80.02 0.999928 -80.02 0.010175 -170.0
8.68567500 0.010179 -170.2 0.999928 -80.02 0.999928 -80.02 0.010179 -170.0
8.68568000 0.010184 -170.2 0.999928 -80.02 0.999928 -80.02 0.010184 -170.0
8.68568500 0.010188 -170.2 0.999928 -80.02 0.999928 -80.02 0.010188 -170.0
8.68569000 0.010193 -170.2 0.999928 -80.02 0.999928 -80.02 0.010193 -170.0
8.68569500 0.010197 -170.2 0.999928 -80.02 0.999928 -80.02 0.010197 -170.0
8.68570000 0.010202 -170.2 0.999928 -80.02 0.999928 -80.02 0.010202 -170.0
8.68570500 0.010206 -170.2 0.999928 -80.02 0.999928 -80.02 0.010206 -170.0
8.68571000 0.010211 -170.2 0.999928 -80.03 0.999928 -80.03 0.010211 -170.0
8.68571500 0.010216 -170.2 0.999928 -80.03 0.999928 -80.03 0.010215 -170.0
8.68572000 0.010220 -170.2 0.999928 -80.03 0.999928 -80.03 0.010220 -170.0
8.68572500 0.010225 -170.2 0.999928 -80.03 0.999928 -80.03 0.010225 -170.0
8.68573000 0.010229 -170.2 0.999928 -80.03 0.999928 -80.03 0.010229 -170.0
8.68573500 0.010234 -170.2 0.999928 -80.03 0.999928 -80.03 0.010234 -170.0
8.68574000 0.010238 -170.2 0.999928 -80.03 0.999928 -80.03 0.010238 -170.0
8.68574500 0.010243 -170.2 0.999927 -80.03 0.999927 -80.03 0.010243 -170.0
8.68575000 0.010248 -170.2 0.999927 -80.03 0.999927 -80.03 0.010247 -170.0
8.68575500 0.010252 -170.2 0.999927 -80.03 0.999927 -80.03 0.010252 -170.0
8.68576000 0.010257 -170.2 0.999927 -80.03 0.999927 -80.03 0.010257 -170.0
8.68576500 0.010261 -170.2 0.999927 -80.03 0.999927 -80.03 0.010261 -170.0
8.68577000 0.010266 -170.2 0.999927 -80.03 0.999927 -80.03 0.010266 -170.0
8.68577500 0.010271 -170.2 0.999927 -80.03 0.999927 -80.03 0.010270 -170.0
8.68578000 0.010275 -170.2 0.999927 -80.03 0.999927 -80.03 0.010275 -170.0
8.68578500 0.010280 -170.2 0.999927 -80.03 0.999927 -80.03 0.010280 -170.0
8.68579000 0.010284 -170.2 0.999927 -80.03 0.999927 -80.03 0.010284 -170.0
8.68579500 0.010289 -170.2 0.999927 -80.03 0.999927 -80.03 0.010289 -170.0
8.68580000 0.010294 -170.2 0.999927 -80.03 0.999927 -80.03 0.010294 -170.0
8.68580500 0.010298 -170.2 0.999927 -80.03 0.999927 -80.03 0.010298 -170.0
8.68581000 0.010303 -170.2 0.999927 -80.03 0.999927 -80.03 0.010303 -170.0
8.68581500 0.010308 -170.2 0.999927 -80.03 0.999927 -80.03 0.010308 -170.0
8.68582000 0.010312 -170.2 0.999926 -80.03 0.999926 -80.03 0.010312 -170.0
8.68582500 0.010317 -170.2 0.999926 -80.03 0.999926 -80.03 0.010317 -170.0
8.68583000 0.010322 -170.2 0.999926 -80.03 0.999926 -80.03 0.010322 -170.0
8.68583500 0.010326 -170.2 0.999926 -80.03 0.999926 -80.03 0.010326 -170.0
8.68584000 0.010331 -170.2 0.999926 -80.03 0.999926 -80.03 0.010331 -170.0
8.68584500 0.010336 -170.2 0.999926 -80.03 0.999926 -80.03 0.010336 -170.0
8.68585000 0.010340 -170.2 0.999926 -80.03 0.999926 -80.03 0.010340 -170.0
8.68585500 0.010345 -170.2 0.999926 -80.03 0.999926 -80.03 0.010345 -170.1
8.68586000 0.010350 -170.2 0.999926 -80.03 0.999926 -80.03 0.010350 -170.1
8.68586500 0.010355 -170.2 0.999926 -80.03 0.999926 -80.03 0.010354 -170.1
8.68587000 0.010359 -170.2 0.999926 -80.04 0.999926 -80.04 0.010359 -170.1
8.68587500 0.010364 -170.2 0.999926 -80.04 0.999926 -80.04 0.010364 -170.1
8.68588000 0.010369 -170.2 0.999926 -80.04 0.999926 -80.04 0.010369 -170.1
8.68588500 0.010374 -170.2 0.999926 -80.04 0.999926 -80.04 0.010373 -170.1
8.68589000 0.010378 -170.2 0.999925 -80.04 0.999925 -80.04 0.010378 -170.1
8.68589500 0.010383 -170.2 0.999925 -80.04 0.999925 -80.04 0.010383 -170.1
8.68590000 0.010388 -170.2 0.999925 -80.04 0.999925 -80.04 0.010388 -170.1
8.68590500 0.010393 -170.2 0.999925 -80.04 0.999925 -80.04 0.010392 -170.1
8.68591000 0.010397 -170.2 0.999925 -80.04 0.999925 -80.04 0.010397 -170.1
8.68591500 0.010402 -170.2 0.999925 -80.04 0.999925 -80.04 0.010402 -170.1
8.68592000 0.010407 -170.2 0.999925 -80.04 0.999925 -80.04 0.010407 -170.1
8.68592500 0.010412 -170.2 0.999925 -80.04 0.999925 -80.04 0.010412 -170.1
8.68593000 0.010416 -170.2 0.999925 -80.04 0.999925 -80.04 0.010416 -170.1
8.68593500 0.010421 -170.2 0.999925 -80.04 0.999925 -80.04 0.010421 -170.1
8.68594000 0.010426 -170.2 0.999925 -80.04 0.999925 -80.04 0.010426 -170.1
8.68594500 0.010431 -170.2 0.999925 -80.04 0.999925 -80.04 0.010431 -170.1
8.68595000 0.010436 -170.2 0.999925 -80.04 0.999925 -80.04 0.010436 -170.1
8.68595500 0.010440 -170.2 0.999925 -80.04 0.999925 -80.04 0.010440 -170.1
8.68596000 0.010445 -170.2 0.999924 -80.04 0.999924 -80.04 0.010445 -170.1
8.68596500 0.010450 -170.2 0.999924 -80.04 0.999924 -80.04 0.010450 -170.1
8.68597000 0.010455 -170.2 0.999924 -80.04 0.999924 -80.04 0.010455 -170.1
8.68597500 0.010460 -170.2 0.999924 -80.04 0.999924 -80.04 0.010460 -170.1
8.68598000 0.010465 -170.2 0.999924 -80.04 0.999924 -80.04 0.010465 -170.1
8.68598500 0.010470 -170.2 0.999924 -80.04 0.999924 -80.04 0.010469 -170.1
8.68599000 0.010474 -170.2 0.999924 -80.04 0.999924 -80.04 0.010474 -170.1
8.68599500 0.010479 -170.2 0.999924 -80.04 0.999924 -80.04 0.010479 -170.1
8.68600000 0.010484 -170.2 0.999924 -80.04 0.999924 -80.04 0.010484 -170.1
8.68600500 0.010489 -170.2 0.999924 -80.04 0.999924 -80.04 0.010489 -170.1
8.68601000 0.010494 -170.2 0.999924 -80.04 0.999924 -80.04 0.010494 -170.1
8.68601500 0.010499 -170.2 0.999924 -80.04 0.999924 -80.04 0.010499 -170.1
8.68602000 0.010504 -170.2 0.999924 -80.04 0.999924 -80.04 0.010504 -170.1
8.68602500 0.010509 -170.2 0.999923 -80.04 0.999923 -80.04 0.010509 -170.1
8.68603000 0.010514 -170.2 0.999923 -80.05 0.999923 -80.05 0.010513 -170.1
8.68603500 0.010518 -170.2 0.999923 -80.05 0.999923 -80.05 0.010518 -170.1
8.68604000 0.010523 -170.2 0.999923 -80.05 0.999923 -80.05 0.010523 -170.1
8.68604500 0.010528 -170.2 0.999923 -80.05 0.999923 -80.05 0.010528 -170.1
8.68605000 0.010533 -170.2 0.999923 -80.05 0.999923 -80.05 0.010533 -170.1
8.68605500 0.010538 -170.2 0.999923 -80.05 0.999923 -80.05 0.010538 -170.1
8.68606000 0.010543 -170.2 0.999923 -80.05 0.999923 -80.05 0.010543 -170.1
8.68606500 0.010548 -170.2 0.999923 -80.05 0.999923 -80.05 0.010548 -170.1
8.68607000 0.010553 -170.2 0.999923 -80.05 0.999923 -80.05 0.010553 -170.1
8.68607500 0.010558 -170.2 0.999923 -80.05 0.999923 -80.05 0.010558 -170.1
8.68608000 0.010563 -170.2 0.999923 -80.05 0.999923 -80.05 0.010563 -170.1
8.68608500 0.010568 -170.2 0.999923 -80.05 0.999923 -80.05 0.010568 -170.1
8.68609000 0.010573 -170.3 0.999923 -80.05 0.999923 -80.05 0.010573 -170.1
8.68609500 0.010578 -170.3 0.999922 -80.05 0.999922 -80.05 0.010578 -170.1
8.68610000 0.010583 -170.3 0.999922 -80.05 0.999922 -80.05 0.010583 -170.1
8.68610500 0.010588 -170.3 0.999922 -80.05 0.999922 -80.05 0.010588 -170.1
8.68611000 0.010593 -170.3 0.999922 -80.05 0.999922 -80.05 0.010593 -170.1
8.68611500 0.010598 -170.3 0.999922 -80.05 0.999922 -80.05 0.010598 -170.1
8.68612000 0.010603 -170.3 0.999922 -80.05 0.999922 -80.05 0.010603 -170.1
8.68612500 0.010608 -170.3 0.999922 -80.05 0.999922 -80.05 0.010608 -170.1
8.68613000 0.010613 -170.3 0.999922 -80.05 0.999922 -80.05 0.010613 -170.1
8.68613500 0.010618 -170.3 0.999922 -80.05 0.999922 -80.05 0.010618 -170.1
8.68614000 0.010623 -170.3 0.999922 -80.05 0.999922 -80.05 0.010623 -170.1
8.68614500 0.010628 -170.3 0.999922 -80.05 0.999922 -80.05 0.010628 -170.1
8.68615000 0.010633 -170.3 0.999922 -80.05 0.999922 -80.05 0.010633 -170.1
8.68615500 0.010638 -170.3 0.999922 -80.05 0.999922 -80.05 0.010638 -170.1
8.68616000 0.010643 -170.3 0.999921 -80.05 0.999921 -80.05 0.010643 -170.1
8.68616500 0.010649 -170.3 0.999921 -80.05 0.999921 -80.05 0.010648 -170.1
8.68617000 0.010654 -170.3 0.999921 -80.05 0.999921 -80.05 0.010654 -170.1
8.68617500 0.010659 -170.3 0.999921 -80.05 0.999921 -80.05 0.010659 -170.1
8.68618000 0.010664 -170.3 0.999921 -80.06 0.999921 -80.06 0.010664 -170.1
8.68618500 0.010669 -170.3 0.999921 -80.06 0.999921 -80.06 0.010669 -170.1
8.68619000 0.010674 -170.3 0.999921 -80.06 0.999921 -80.06 0.010674 -170.1
8.68619500 0.010679 -170.3 0.999921 -80.06 0.999921 -80.06 0.010679 -170.1
8.68620000 0.010684 -170.3 0.999921 -80.06 0.999921 -80.06 0.010684 -170.1
8.68620500 0.010689 -170.3 0.999921 -80.06 0.999921 -80.06 0.010689 -170.1
8.68621000 0.010695 -170.3 0.999921 -80.06 0.999921 -80.06 0.010694 -170.1
8.68621500 0.010700 -170.3 0.999921 -80.06 0.999921 -80.06 0.010700 -170.1
8.68622000 0.010705 -170.3 0.999921 -80.06 0.999921 -80.06 0.010705 -170.1
8.68622500 0.010710 -170.3 0.999920 -80.06 0.999920 -80.06 0.010710 -170.1
8.68623000 0.010715 -170.3 0.999920 -80.06 0.999920 -80.06 0.010715 -170.1
8.68623500 0.010720 -170.3 0.999920 -80.06 0.999920 -80.06 0.010720 -170.1
8.68624000 0.010726 -170.3 0.999920 -80.06 0.999920 -80.06 0.010725 -170.1
8.68624500 0.010731 -170.3 0.999920 -80.06 0.999920 -80.06 0.010731 -170.1
8.68625000 0.010736 -170.3 0.999920 -80.06 0.999920 -80.06 0.010736 -170.1
8.68625500 0.010741 -170.3 0.999920 -80.06 0.999920 -80.06 0.010741 -170.1
8.68626000 0.010746 -170.3 0.999920 -80.06 0.999920 -80.06 0.010746 -170.1
8.68626500 0.010752 -170.3 0.999920 -80.06 0.999920 -80.06 0.010751 -170.1
8.68627000 0.010757 -170.3 0.999920 -80.06 0.999920 -80.06 0.010757 -170.1
8.68627500 0.010762 -170.3 0.999920 -80.06 0.999920 -80.06 0.010762 -170.1
8.68628000 0.010767 -170.3 0.999920 -80.06 0.999920 -80.06 0.010767 -170.1
8.68628500 0.010772 -170.3 0.999919 -80.06 0.999919 -80.06 0.010772 -170.1
8.68629000 0.010778 -170.3 0.999919 -80.06 0.999919 -80.06 0.010778 -170.1
8.68629500 0.010783 -170.3 0.999919 -80.06 0.999919 -80.06 0.010783 -170.1
8.68630000 0.010788 -170.3 0.999919 -80.06 0.999919 -80.06 0.010788 -170.1
8.68630500 0.010793 -170.3 0.999919 -80.06 0.999919 -80.06 0.010793 -170.1
8.68631000 0.010799 -170.3 0.999919 -80.06 0.999919 -80.06 0.010799 -170.1
8.68631500 0.010804 -170.3 0.999919 -80.06 0.999919 -80.06 0.010804 -170.1
8.68632000 0.010809 -170.3 0.999919 -80.06 0.999919 -80.06 0.010809 -170.1
8.68632500 0.010815 -170.3 0.999919 -80.07 0.999919 -80.07 0.010815 -170.1
8.68633000 0.010820 -170.3 0.999919 -80.07 0.999919 -80.07 0.010820 -170.1
8.68633500 0.010825 -170.3 0.999919 -80.07 0.999919 -80.07 0.010825 -170.1
8.68634000 0.010831 -170.3 0.999919 -80.07 0.999919 -80.07 0.010830 -170.1
8.68634500 0.010836 -170.3 0.999918 -80.07 0.999918 -80.07 0.010836 -170.1
8.68635000 0.010841 -170.3 0.999918 -80.07 0.999918 -80.07 0.010841 -170.1
8.68635500 0.010847 -170.3 0.999918 -80.07 0.999918 -80.07 0.010846 -170.1
8.68636000 0.010852 -170.3 0.999918 -80.07 0.999918 -80.07 0.010852 -170.1
8.68636500 0.010857 -170.3 0.999918 -80.07 0.999918 -80.07 0.010857 -170.1
8.68637000 0.010863 -170.3 0.999918 -80.07 0.999918 -80.07 0.010862 -170.1
8.68637500 0.010868 -170.3 0.999918 -80.07 0.999918 -80.07 0.010868 -170.1
8.68638000 0.010873 -170.3 0.999918 -80.07 0.999918 -80.07 0.010873 -170.1
8.68638500 0.010879 -170.3 0.999918 -80.07 0.999918 -80.07 0.010879 -170.1
8.68639000 0.010884 -170.3 0.999918 -80.07 0.999918 -80.07 0.010884 -170.1
8.68639500 0.010889 -170.3 0.999918 -80.07 0.999918 -80.07 0.010889 -170.1
8.68640000 0.010895 -170.3 0.999918 -80.07 0.999918 -80.07 0.010895 -170.1
8.68640500 0.010900 -170.3 0.999917 -80.07 0.999917 -80.07 0.010900 -170.1
8.68641000 0.010906 -170.3 0.999917 -80.07 0.999917 -80.07 0.010906 -170.1
8.68641500 0.010911 -170.3 0.999917 -80.07 0.999917 -80.07 0.010911 -170.1
8.68642000 0.010917 -170.3 0.999917 -80.07 0.999917 -80.07 0.010916 -170.1
8.68642500 0.010922 -170.3 0.999917 -80.07 0.999917 -80.07 0.010922 -170.1
8.68643000 0.010927 -170.3 0.999917 -80.07 0.999917 -80.07 0.010927 -170.1
8.68643500 0.010933 -170.3 0.999917 -80.07 0.999917 -80.07 0.010933 -170.1
8.68644000 0.010938 -170.3 0.999917 -80.07 0.999917 -80.07 0.010938 -170.1
8.68644500 0.010944 -170.3 0.999917 -80.07 0.999917 -80.07 0.010944 -170.1
8.68645000 0.010949 -170.3 0.999917 -80.07 0.999917 -80.07 0.010949 -170.1
8.68645500 0.010955 -170.3 0.999917 -80.07 0.999917 -80.07 0.010955 -170.1
8.68646000 0.010960 -170.3 0.999917 -80.07 0.999917 -80.07 0.010960 -170.1
8.68646500 0.010966 -170.3 0.999916 -80.08 0.999916 -80.08 0.010966 -170.1
8.68647000 0.010971 -170.3 0.999916 -80.08 0.999916 -80.08 0.010971 -170.1
8.68647500 0.010977 -170.3 0.999916 -80.08 0.999916 -80.08 0.010977 -170.1
8.68648000 0.010982 -170.3 0.999916 -80.08 0.999916 -80.08 0.010982 -170.1
8.68648500 0.010988 -170.3 0.999916 -80.08 0.999916 -80.08 0.010988 -170.1
8.68649000 0.010993 -170.3 0.999916 -80.08 0.999916 -80.08 0.010993 -170.1
8.68649500 0.010999 -170.3 0.999916 -80.08 0.999916 -80.08 0.010999 -170.1
8.68650000 0.011004 -170.3 0.999916 -80.08 0.999916 -80.08 0.011004 -170.1
8.68650500 0.011010 -170.3 0.999916 -80.08 0.999916 -80.08 0.011010 -170.1
8.68651000 0.011015 -170.3 0.999916 -80.08 0.999916 -80.08 0.011015 -170.1
8.68651500 0.011021 -170.3 0.999916 -80.08 0.999916 -80.08 0.011021 -170.1
8.68652000 0.011027 -170.3 0.999915 -80.08 0.999915 -80.08 0.011026 -170.1
8.68652500 0.011032 -170.3 0.999915 -80.08 0.999915 -80.08 0.011032 -170.1
8.68653000 0.011038 -170.3 0.999915 -80.08 0.999915 -80.08 0.011038 -170.1
8.68653500 0.011043 -170.3 0.999915 -80.08 0.999915 -80.08 0.011043 -170.1
8.68654000 0.011049 -170.3 0.999915 -80.08 0.999915 -80.08 0.011049 -170.1
8.68654500 0.011055 -170.3 0.999915 -80.08 0.999915 -80.08 0.011054 -170.1
8.68655000 0.011060 -170.3 0.999915 -80.08 0.999915 -80.08 0.011060 -170.1
8.68655500 0.011066 -170.3 0.999915 -80.08 0.999915 -80.08 0.011066 -170.1
8.68656000 0.011071 -170.3 0.999915 -80.08 0.999915 -80.08 0.011071 -170.1
8.68656500 0.011077 -170.3 0.999915 -80.08 0.999915 -80.08 0.011077 -170.1
8.68657000 0.011083 -170.3 0.999915 -80.08 0.999915 -80.08 0.011083 -170.1
8.68657500 0.011088 -170.3 0.999914 -80.08 0.999914 -80.08 0.011088 -170.1
8.68658000 0.011094 -170.3 0.999914 -80.08 0.999914 -80.08 0.011094 -170.1
8.68658500 0.011100 -170.3 0.999914 -80.08 0.999914 -80.08 0.011100 -170.1
8.68659000 0.011105 -170.3 0.999914 -80.08 0.999914 -80.08 0.011105 -170.1
8.68659500 0.011111 -170.3 0.999914 -80.08 0.999914 -80.08 0.011111 -170.1
8.68660000 0.011117 -170.3 0.999914 -80.09 0.999914 -80.09 0.011117 -170.1
8.68660500 0.011122 -170.3 0.999914 -80.09 0.999914 -80.09 0.011122 -170.1
8.68661000 0.011128 -170.3 0.999914 -80.09 0.999914 -80.09 0.011128 -170.1
8.68661500 0.011134 -170.3 0.999914 -80.09 0.999914 -80.09 0.011134 -170.1
8.68662000 0.011140 -170.3 0.999914 -80.09 0.999914 -80.09 0.011139 -170.1
8.68662500 0.011145 -170.3 0.999914 -80.09 0.999914 -80.09 0.011145 -170.1
8.68663000 0.011151 -170.3 0.999913 -80.09 0.999913 -80.09 0.011151 -170.1
8.68663500 0.011157 -170.3 0.999913 -80.09 0.999913 -80.09 0.011157 -170.1
8.68664000 0.011163 -170.3 0.999913 -80.09 0.999913 -80.09 0.011162 -170.1
8.68664500 0.011168 -170.3 0.999913 -80.09 0.999913 -80.09 0.011168 -170.1
8.68665000 0.011174 -170.3 0.999913 -80.09 0.999913 -80.09 0.011174 -170.1
8.68665500 0.011180 -170.3 0.999913 -80.09 0.999913 -80.09 0.011180 -170.1
8.68666000 0.011186 -170.3 0.999913 -80.09 0.999913 -80.09 0.011186 -170.1
8.68666500 0.011191 -170.3 0.999913 -80.09 0.999913 -80.09 0.011191 -170.1
8.68667000 0.011197 -170.3 0.999913 -80.09 0.999913 -80.09 0.011197 -170.1
8.68667500 0.011203 -170.3 0.999913 -80.09 0.999913 -80.09 0.011203 -170.1
8.68668000 0.011209 -170.3 0.999913 -80.09 0.999913 -80.09 0.011209 -170.1
8.68668500 0.011215 -170.3 0.999912 -80.09 0.999912 -80.09 0.011215 -170.1
8.68669000 0.011221 -170.3 0.999912 -80.09 0.999912 -80.09 0.011220 -170.1
8.68669500 0.011226 -170.3 0.999912 -80.09 0.999912 -80.09 0.011226 -170.1
8.68670000 0.011232 -170.3 0.999912 -80.09 0.999912 -80.09 0.011232 -170.1
8.68670500 0.011238 -170.3 0.999912 -80.09 0.999912 -80.09 0.011238 -170.1
8.68671000 0.011244 -170.3 0.999912 -80.09 0.999912 -80.09 0.011244 -170.1
8.68671500 0.011250 -170.3 0.999912 -80.09 0.999912 -80.09 0.011250 -170.1
8.68672000 0.011256 -170.3 0.999912 -80.09 0.999912 -80.09 0.011256 -170.1
8.68672500 0.011262 -170.3 0.999912 -80.09 0.999912 -80.09 0.011261 -170.1
8.68673000 0.011267 -170.3 0.999912 -80.09 0.999912 -80.09 0.011267 -170.1
8.68673500 0.011273 -170.3 0.999911 -80.10 0.999911 -80.10 0.011273 -170.1
8.68674000 0.011279 -170.3 0.999911 -80.10 0.999911 -80.10 0.011279 -170.1
8.68674500 0.011285 -170.3 0.999911 -80.10 0.999911 -80.10 0.011285 -170.1
8.68675000 0.011291 -170.3 0.999911 -80.10 0.999911 -80.10 0.011291 -170.1
8.68675500 0.011297 -170.3 0.999911 -80.10 0.999911 -80.10 0.011297 -170.1
8.68676000 0.011303 -170.3 0.999911 -80.10 0.999911 -80.10 0.011303 -170.1
8.68676500 0.011309 -170.3 0.999911 -80.10 0.999911 -80.10 0.011309 -170.1
8.68677000 0.011315 -170.3 0.999911 -80.10 0.999911 -80.10 0.011315 -170.1
8.68677500 0.011321 -170.3 0.999911 -80.10 0.999911 -80.10 0.011321 -170.1
8.68678000 0.011327 -170.3 0.999911 -80.10 0.999911 -80.10 0.011327 -170.1
8.68678500 0.011333 -170.3 0.999911 -80.10 0.999911 -80.10 0.011333 -170.1
8.68679000 0.011339 -170.3 0.999910 -80.10 0.999910 -80.10 0.011339 -170.1
8.68679500 0.011345 -170.3 0.999910 -80.10 0.999910 -80.10 0.011345 -170.1
8.68680000 0.011351 -170.3 0.999910 -80.10 0.999910 -80.10 0.011351 -170.1
8.68680500 0.011357 -170.3 0.999910 -80.10 0.999910 -80.10 0.011357 -170.1
8.68681000 0.011363 -170.3 0.999910 -80.10 0.999910 -80.10 0.011363 -170.1
8.68681500 0.011369 -170.3 0.999910 -80.10 0.999910 -80.10 0.011369 -170.1
8.68682000 0.011375 -170.3 0.999910 -80.10 0.999910 -80.10 0.011375 -170.1
8.68682500 0.011381 -170.3 0.999910 -80.10 0.999910 -80.10 0.011381 -170.1
8.68683000 0.011387 -170.3 0.999910 -80.10 0.999910 -80.10 0.011387 -170.1
8.68683500 0.011393 -170.3 0.999910 -80.10 0.999910 -80.10 0.011393 -170.1
8.68684000 0.011399 -170.3 0.999909 -80.10 0.999909 -80.10 0.011399 -170.1
8.68684500 0.011405 -170.3 0.999909 -80.10 0.999909 -80.10 0.011405 -170.1
8.68685000 0.011411 -170.3 0.999909 -80.10 0.999909 -80.10 0.011411 -170.2
8.68685500 0.011418 -170.3 0.999909 -80.10 0.999909 -80.10 0.011417 -170.2
8.68686000 0.011424 -170.3 0.999909 -80.11 0.999909 -80.11 0.011424 -170.2
8.68686500 0.011430 -170.3 0.999909 -80.11 0.999909 -80.11 0.011430 -170.2
8.68687000 0.011436 -170.3 0.999909 -80.11 0.999909 -80.11 0.011436 -170.2
8.68687500 0.011442 -170.3 0.999909 -80.11 0.999909 -80.11 0.011442 -170.2
8.68688000 0.011448 -170.3 0.999909 -80.11 0.999909 -80.11 0.011448 -170.2
8.68688500 0.011454 -170.3 0.999909 -80.11 0.999909 -80.11 0.011454 -170.2
8.68689000 0.011460 -170.3 0.999908 -80.11 0.999908 -80.11 0.011460 -170.2
8.68689500 0.011467 -170.3 0.999908 -80.11 0.999908 -80.11 0.011467 -170.2
8.68690000 0.011473 -170.3 0.999908 -80.11 0.999908 -80.11 0.011473 -170.2
8.68690500 0.011479 -170.3 0.999908 -80.11 0.999908 -80.11 0.011479 -170.2
8.68691000 0.011485 -170.3 0.999908 -80.11 0.999908 -80.11 0.011485 -170.2
8.68691500 0.011491 -170.3 0.999908 -80.11 0.999908 -80.11 0.011491 -170.2
8.68692000 0.011498 -170.3 0.999908 -80.11 0.999908 -80.11 0.011497 -170.2
8.68692500 0.011504 -170.3 0.999908 -80.11 0.999908 -80.11 0.011504 -170.2
8.68693000 0.011510 -170.3 0.999908 -80.11 0.999908 -80.11 0.011510 -170.2
8.68693500 0.011516 -170.3 0.999907 -80.11 0.999907 -80.11 0.011516 -170.2
8.68694000 0.011523 -170.3 0.999907 -80.11 0.999907 -80.11 0.011522 -170.2
8.68694500 0.011529 -170.3 0.999907 -80.11 0.999907 -80.11 0.011529 -170.2
8.68695000 0.011535 -170.3 0.999907 -80.11 0.999907 -80.11 0.011535 -170.2
8.68695500 0.011541 -170.3 0.999907 -80.11 0.999907 -80.11 0.011541 -170.2