! Sonnet Data File
! From: emgraph Version : 16.52
! From Project: Qubit_Xmon2_brg_para
! Data is De-embedded 
! Data File Written: 11/12/2017 17:09:26
!< HDATE 11/12/2017 00:17:19
!< MDATE 11/12/2017 00:17:19
!< PARAMS
!< Lj = 11.0
!< Gap = 6.0
!< Pwid = 2000.0
!< Airgap = 6.0
!< Width = 10.0
!< Bwid = 8.0
!< Dis1 = 50.0
!< Dis2 = 56.0
!< END PARAMS
# GHZ S MA R 51.80000
8.68500000 0.012304 -170.3 0.999907 -80.12 0.999907 -80.12 0.012304 -170.1
!< P1 F=8.685 Eeff=(6.4468387 -2.9786e-5) Z0=(51.799366 1.19075e-4) R=0.0 C=0.0 
!< P2 F=8.685 Eeff=(6.4468387 -2.9786e-5) Z0=(51.799366 1.19075e-4) R=0.0 C=0.0 
8.68500500 0.012308 -170.3 0.999907 -80.12 0.999907 -80.12 0.012308 -170.1
8.68501000 0.012312 -170.3 0.999907 -80.12 0.999907 -80.12 0.012312 -170.1
8.68501500 0.012316 -170.3 0.999907 -80.12 0.999907 -80.12 0.012315 -170.1
8.68502000 0.012319 -170.3 0.999907 -80.12 0.999907 -80.12 0.012319 -170.1
8.68502500 0.012323 -170.3 0.999906 -80.12 0.999906 -80.12 0.012323 -170.1
8.68503000 0.012327 -170.3 0.999906 -80.12 0.999906 -80.12 0.012327 -170.1
8.68503500 0.012331 -170.3 0.999906 -80.12 0.999906 -80.12 0.012331 -170.1
8.68504000 0.012335 -170.3 0.999906 -80.12 0.999906 -80.12 0.012335 -170.1
8.68504500 0.012339 -170.3 0.999906 -80.12 0.999906 -80.12 0.012339 -170.1
8.68505000 0.012343 -170.3 0.999906 -80.12 0.999906 -80.12 0.012343 -170.1
8.68505500 0.012347 -170.3 0.999906 -80.12 0.999906 -80.12 0.012347 -170.1
8.68506000 0.012351 -170.3 0.999906 -80.12 0.999906 -80.12 0.012351 -170.1
8.68506500 0.012355 -170.3 0.999906 -80.12 0.999906 -80.12 0.012355 -170.1
8.68507000 0.012359 -170.3 0.999906 -80.12 0.999906 -80.12 0.012359 -170.1
8.68507500 0.012363 -170.3 0.999906 -80.12 0.999906 -80.12 0.012363 -170.1
8.68508000 0.012367 -170.3 0.999906 -80.12 0.999906 -80.12 0.012367 -170.1
8.68508500 0.012371 -170.3 0.999906 -80.12 0.999906 -80.12 0.012371 -170.1
8.68509000 0.012375 -170.3 0.999906 -80.12 0.999906 -80.12 0.012375 -170.1
8.68509500 0.012379 -170.3 0.999906 -80.12 0.999906 -80.12 0.012379 -170.1
8.68510000 0.012383 -170.3 0.999905 -80.12 0.999905 -80.12 0.012382 -170.1
8.68510500 0.012387 -170.3 0.999905 -80.12 0.999905 -80.12 0.012386 -170.1
8.68511000 0.012391 -170.3 0.999905 -80.12 0.999905 -80.12 0.012390 -170.1
8.68511500 0.012395 -170.3 0.999905 -80.12 0.999905 -80.12 0.012394 -170.1
8.68512000 0.012399 -170.3 0.999905 -80.12 0.999905 -80.12 0.012398 -170.1
8.68512500 0.012403 -170.3 0.999905 -80.12 0.999905 -80.12 0.012402 -170.1
8.68513000 0.012407 -170.3 0.999905 -80.12 0.999905 -80.12 0.012406 -170.1
8.68513500 0.012411 -170.3 0.999905 -80.12 0.999905 -80.12 0.012410 -170.1
8.68514000 0.012415 -170.3 0.999905 -80.12 0.999905 -80.12 0.012415 -170.1
8.68514500 0.012419 -170.3 0.999905 -80.12 0.999905 -80.12 0.012419 -170.1
8.68515000 0.012423 -170.3 0.999905 -80.12 0.999905 -80.12 0.012423 -170.1
8.68515500 0.012427 -170.3 0.999905 -80.12 0.999905 -80.12 0.012427 -170.1
8.68516000 0.012431 -170.3 0.999905 -80.12 0.999905 -80.12 0.012431 -170.1
8.68516500 0.012435 -170.3 0.999905 -80.12 0.999905 -80.12 0.012435 -170.1
8.68517000 0.012439 -170.3 0.999905 -80.12 0.999905 -80.12 0.012439 -170.1
8.68517500 0.012443 -170.3 0.999904 -80.12 0.999904 -80.12 0.012443 -170.1
8.68518000 0.012447 -170.3 0.999904 -80.13 0.999904 -80.13 0.012447 -170.1
8.68518500 0.012451 -170.3 0.999904 -80.13 0.999904 -80.13 0.012451 -170.1
8.68519000 0.012455 -170.3 0.999904 -80.13 0.999904 -80.13 0.012455 -170.1
8.68519500 0.012459 -170.3 0.999904 -80.13 0.999904 -80.13 0.012459 -170.1
8.68520000 0.012463 -170.3 0.999904 -80.13 0.999904 -80.13 0.012463 -170.1
8.68520500 0.012467 -170.3 0.999904 -80.13 0.999904 -80.13 0.012467 -170.1
8.68521000 0.012471 -170.3 0.999904 -80.13 0.999904 -80.13 0.012471 -170.1
8.68521500 0.012475 -170.3 0.999904 -80.13 0.999904 -80.13 0.012475 -170.1
8.68522000 0.012479 -170.3 0.999904 -80.13 0.999904 -80.13 0.012479 -170.1
8.68522500 0.012484 -170.3 0.999904 -80.13 0.999904 -80.13 0.012483 -170.1
8.68523000 0.012488 -170.3 0.999904 -80.13 0.999904 -80.13 0.012488 -170.1
8.68523500 0.012492 -170.3 0.999904 -80.13 0.999904 -80.13 0.012492 -170.1
8.68524000 0.012496 -170.3 0.999904 -80.13 0.999904 -80.13 0.012496 -170.1
8.68524500 0.012500 -170.3 0.999904 -80.13 0.999904 -80.13 0.012500 -170.1
8.68525000 0.012504 -170.3 0.999903 -80.13 0.999903 -80.13 0.012504 -170.1
8.68525500 0.012508 -170.3 0.999903 -80.13 0.999903 -80.13 0.012508 -170.1
8.68526000 0.012512 -170.3 0.999903 -80.13 0.999903 -80.13 0.012512 -170.1
8.68526500 0.012516 -170.3 0.999903 -80.13 0.999903 -80.13 0.012516 -170.1
8.68527000 0.012521 -170.3 0.999903 -80.13 0.999903 -80.13 0.012521 -170.1
8.68527500 0.012525 -170.3 0.999903 -80.13 0.999903 -80.13 0.012525 -170.1
8.68528000 0.012529 -170.3 0.999903 -80.13 0.999903 -80.13 0.012529 -170.1
8.68528500 0.012533 -170.3 0.999903 -80.13 0.999903 -80.13 0.012533 -170.1
8.68529000 0.012537 -170.3 0.999903 -80.13 0.999903 -80.13 0.012537 -170.1
8.68529500 0.012541 -170.3 0.999903 -80.13 0.999903 -80.13 0.012541 -170.1
8.68530000 0.012546 -170.3 0.999903 -80.13 0.999903 -80.13 0.012545 -170.1
8.68530500 0.012550 -170.3 0.999903 -80.13 0.999903 -80.13 0.012550 -170.1
8.68531000 0.012554 -170.3 0.999903 -80.13 0.999903 -80.13 0.012554 -170.1
8.68531500 0.012558 -170.3 0.999903 -80.13 0.999903 -80.13 0.012558 -170.1
8.68532000 0.012562 -170.3 0.999902 -80.13 0.999902 -80.13 0.012562 -170.1
8.68532500 0.012566 -170.3 0.999902 -80.13 0.999902 -80.13 0.012566 -170.1
8.68533000 0.012571 -170.3 0.999902 -80.13 0.999902 -80.13 0.012571 -170.1
8.68533500 0.012575 -170.3 0.999902 -80.13 0.999902 -80.13 0.012575 -170.1
8.68534000 0.012579 -170.3 0.999902 -80.13 0.999902 -80.13 0.012579 -170.1
8.68534500 0.012583 -170.3 0.999902 -80.13 0.999902 -80.13 0.012583 -170.1
8.68535000 0.012587 -170.3 0.999902 -80.13 0.999902 -80.13 0.012587 -170.1
8.68535500 0.012592 -170.3 0.999902 -80.13 0.999902 -80.13 0.012592 -170.1
8.68536000 0.012596 -170.3 0.999902 -80.14 0.999902 -80.14 0.012596 -170.1
8.68536500 0.012600 -170.3 0.999902 -80.14 0.999902 -80.14 0.012600 -170.1
8.68537000 0.012604 -170.3 0.999902 -80.14 0.999902 -80.14 0.012604 -170.1
8.68537500 0.012609 -170.3 0.999902 -80.14 0.999902 -80.14 0.012609 -170.1
8.68538000 0.012613 -170.3 0.999902 -80.14 0.999902 -80.14 0.012613 -170.1
8.68538500 0.012617 -170.3 0.999902 -80.14 0.999902 -80.14 0.012617 -170.1
8.68539000 0.012621 -170.3 0.999901 -80.14 0.999901 -80.14 0.012621 -170.1
8.68539500 0.012626 -170.3 0.999901 -80.14 0.999901 -80.14 0.012626 -170.1
8.68540000 0.012630 -170.3 0.999901 -80.14 0.999901 -80.14 0.012630 -170.1
8.68540500 0.012634 -170.3 0.999901 -80.14 0.999901 -80.14 0.012634 -170.1
8.68541000 0.012638 -170.3 0.999901 -80.14 0.999901 -80.14 0.012638 -170.1
8.68541500 0.012643 -170.3 0.999901 -80.14 0.999901 -80.14 0.012643 -170.1
8.68542000 0.012647 -170.3 0.999901 -80.14 0.999901 -80.14 0.012647 -170.1
8.68542500 0.012651 -170.3 0.999901 -80.14 0.999901 -80.14 0.012651 -170.1
8.68543000 0.012656 -170.3 0.999901 -80.14 0.999901 -80.14 0.012655 -170.1
8.68543500 0.012660 -170.3 0.999901 -80.14 0.999901 -80.14 0.012660 -170.1
8.68544000 0.012664 -170.3 0.999901 -80.14 0.999901 -80.14 0.012664 -170.1
8.68544500 0.012668 -170.3 0.999901 -80.14 0.999901 -80.14 0.012668 -170.1
8.68545000 0.012673 -170.3 0.999901 -80.14 0.999901 -80.14 0.012673 -170.1
8.68545500 0.012677 -170.3 0.999901 -80.14 0.999901 -80.14 0.012677 -170.1
8.68546000 0.012681 -170.3 0.999900 -80.14 0.999900 -80.14 0.012681 -170.1
8.68546500 0.012686 -170.3 0.999900 -80.14 0.999900 -80.14 0.012686 -170.1
8.68547000 0.012690 -170.3 0.999900 -80.14 0.999900 -80.14 0.012690 -170.1
8.68547500 0.012694 -170.3 0.999900 -80.14 0.999900 -80.14 0.012694 -170.1
8.68548000 0.012699 -170.3 0.999900 -80.14 0.999900 -80.14 0.012699 -170.1
8.68548500 0.012703 -170.3 0.999900 -80.14 0.999900 -80.14 0.012703 -170.1
8.68549000 0.012707 -170.3 0.999900 -80.14 0.999900 -80.14 0.012707 -170.1
8.68549500 0.012712 -170.3 0.999900 -80.14 0.999900 -80.14 0.012712 -170.1
8.68550000 0.012716 -170.3 0.999900 -80.14 0.999900 -80.14 0.012716 -170.1
8.68550500 0.012721 -170.3 0.999900 -80.14 0.999900 -80.14 0.012720 -170.1
8.68551000 0.012725 -170.3 0.999900 -80.14 0.999900 -80.14 0.012725 -170.1
8.68551500 0.012729 -170.3 0.999900 -80.14 0.999900 -80.14 0.012729 -170.1
8.68552000 0.012734 -170.3 0.999900 -80.14 0.999900 -80.14 0.012734 -170.2
8.68552500 0.012738 -170.3 0.999900 -80.14 0.999900 -80.14 0.012738 -170.2
8.68553000 0.012742 -170.3 0.999899 -80.15 0.999899 -80.15 0.012742 -170.2
8.68553500 0.012747 -170.3 0.999899 -80.15 0.999899 -80.15 0.012747 -170.2
8.68554000 0.012751 -170.3 0.999899 -80.15 0.999899 -80.15 0.012751 -170.2
8.68554500 0.012756 -170.3 0.999899 -80.15 0.999899 -80.15 0.012756 -170.2
8.68555000 0.012760 -170.3 0.999899 -80.15 0.999899 -80.15 0.012760 -170.2
8.68555500 0.012765 -170.3 0.999899 -80.15 0.999899 -80.15 0.012764 -170.2
8.68556000 0.012769 -170.3 0.999899 -80.15 0.999899 -80.15 0.012769 -170.2
8.68556500 0.012773 -170.3 0.999899 -80.15 0.999899 -80.15 0.012773 -170.2
8.68557000 0.012778 -170.3 0.999899 -80.15 0.999899 -80.15 0.012778 -170.2
8.68557500 0.012782 -170.3 0.999899 -80.15 0.999899 -80.15 0.012782 -170.2
8.68558000 0.012787 -170.3 0.999899 -80.15 0.999899 -80.15 0.012787 -170.2
8.68558500 0.012791 -170.3 0.999899 -80.15 0.999899 -80.15 0.012791 -170.2
8.68559000 0.012796 -170.3 0.999899 -80.15 0.999899 -80.15 0.012796 -170.2
8.68559500 0.012800 -170.3 0.999898 -80.15 0.999898 -80.15 0.012800 -170.2
8.68560000 0.012805 -170.3 0.999898 -80.15 0.999898 -80.15 0.012804 -170.2
8.68560500 0.012809 -170.3 0.999898 -80.15 0.999898 -80.15 0.012809 -170.2
8.68561000 0.012813 -170.3 0.999898 -80.15 0.999898 -80.15 0.012813 -170.2
8.68561500 0.012818 -170.3 0.999898 -80.15 0.999898 -80.15 0.012818 -170.2
8.68562000 0.012822 -170.3 0.999898 -80.15 0.999898 -80.15 0.012822 -170.2
8.68562500 0.012827 -170.3 0.999898 -80.15 0.999898 -80.15 0.012827 -170.2
8.68563000 0.012831 -170.3 0.999898 -80.15 0.999898 -80.15 0.012831 -170.2
8.68563500 0.012836 -170.3 0.999898 -80.15 0.999898 -80.15 0.012836 -170.2
8.68564000 0.012840 -170.3 0.999898 -80.15 0.999898 -80.15 0.012840 -170.2
8.68564500 0.012845 -170.3 0.999898 -80.15 0.999898 -80.15 0.012845 -170.2
8.68565000 0.012849 -170.3 0.999898 -80.15 0.999898 -80.15 0.012849 -170.2
8.68565500 0.012854 -170.3 0.999898 -80.15 0.999898 -80.15 0.012854 -170.2
8.68566000 0.012859 -170.3 0.999897 -80.15 0.999897 -80.15 0.012858 -170.2
8.68566500 0.012863 -170.3 0.999897 -80.15 0.999897 -80.15 0.012863 -170.2
8.68567000 0.012868 -170.3 0.999897 -80.15 0.999897 -80.15 0.012868 -170.2
8.68567500 0.012872 -170.3 0.999897 -80.15 0.999897 -80.15 0.012872 -170.2
8.68568000 0.012877 -170.3 0.999897 -80.15 0.999897 -80.15 0.012877 -170.2
8.68568500 0.012881 -170.3 0.999897 -80.15 0.999897 -80.15 0.012881 -170.2
8.68569000 0.012886 -170.3 0.999897 -80.15 0.999897 -80.15 0.012886 -170.2
8.68569500 0.012890 -170.3 0.999897 -80.16 0.999897 -80.16 0.012890 -170.2
8.68570000 0.012895 -170.3 0.999897 -80.16 0.999897 -80.16 0.012895 -170.2
8.68570500 0.012900 -170.3 0.999897 -80.16 0.999897 -80.16 0.012900 -170.2
8.68571000 0.012904 -170.3 0.999897 -80.16 0.999897 -80.16 0.012904 -170.2
8.68571500 0.012909 -170.3 0.999897 -80.16 0.999897 -80.16 0.012909 -170.2
8.68572000 0.012913 -170.3 0.999896 -80.16 0.999896 -80.16 0.012913 -170.2
8.68572500 0.012918 -170.3 0.999896 -80.16 0.999896 -80.16 0.012918 -170.2
8.68573000 0.012923 -170.3 0.999896 -80.16 0.999896 -80.16 0.012922 -170.2
8.68573500 0.012927 -170.3 0.999896 -80.16 0.999896 -80.16 0.012927 -170.2
8.68574000 0.012932 -170.3 0.999896 -80.16 0.999896 -80.16 0.012932 -170.2
8.68574500 0.012936 -170.3 0.999896 -80.16 0.999896 -80.16 0.012936 -170.2
8.68575000 0.012941 -170.3 0.999896 -80.16 0.999896 -80.16 0.012941 -170.2
8.68575500 0.012946 -170.3 0.999896 -80.16 0.999896 -80.16 0.012946 -170.2
8.68576000 0.012950 -170.3 0.999896 -80.16 0.999896 -80.16 0.012950 -170.2
8.68576500 0.012955 -170.3 0.999896 -80.16 0.999896 -80.16 0.012955 -170.2
8.68577000 0.012960 -170.3 0.999896 -80.16 0.999896 -80.16 0.012960 -170.2
8.68577500 0.012964 -170.3 0.999896 -80.16 0.999896 -80.16 0.012964 -170.2
8.68578000 0.012969 -170.3 0.999896 -80.16 0.999896 -80.16 0.012969 -170.2
8.68578500 0.012974 -170.3 0.999895 -80.16 0.999895 -80.16 0.012974 -170.2
8.68579000 0.012978 -170.3 0.999895 -80.16 0.999895 -80.16 0.012978 -170.2
8.68579500 0.012983 -170.3 0.999895 -80.16 0.999895 -80.16 0.012983 -170.2
8.68580000 0.012988 -170.3 0.999895 -80.16 0.999895 -80.16 0.012988 -170.2
8.68580500 0.012992 -170.3 0.999895 -80.16 0.999895 -80.16 0.012992 -170.2
8.68581000 0.012997 -170.3 0.999895 -80.16 0.999895 -80.16 0.012997 -170.2
8.68581500 0.013002 -170.3 0.999895 -80.16 0.999895 -80.16 0.013002 -170.2
8.68582000 0.013007 -170.3 0.999895 -80.16 0.999895 -80.16 0.013006 -170.2
8.68582500 0.013011 -170.3 0.999895 -80.16 0.999895 -80.16 0.013011 -170.2
8.68583000 0.013016 -170.3 0.999895 -80.16 0.999895 -80.16 0.013016 -170.2
8.68583500 0.013021 -170.3 0.999895 -80.16 0.999895 -80.16 0.013021 -170.2
8.68584000 0.013025 -170.3 0.999895 -80.16 0.999895 -80.16 0.013025 -170.2
8.68584500 0.013030 -170.3 0.999894 -80.16 0.999894 -80.16 0.013030 -170.2
8.68585000 0.013035 -170.3 0.999894 -80.16 0.999894 -80.16 0.013035 -170.2
8.68585500 0.013040 -170.3 0.999894 -80.17 0.999894 -80.17 0.013040 -170.2
8.68586000 0.013044 -170.3 0.999894 -80.17 0.999894 -80.17 0.013044 -170.2
8.68586500 0.013049 -170.3 0.999894 -80.17 0.999894 -80.17 0.013049 -170.2
8.68587000 0.013054 -170.3 0.999894 -80.17 0.999894 -80.17 0.013054 -170.2
8.68587500 0.013059 -170.3 0.999894 -80.17 0.999894 -80.17 0.013059 -170.2
8.68588000 0.013063 -170.3 0.999894 -80.17 0.999894 -80.17 0.013063 -170.2
8.68588500 0.013068 -170.3 0.999894 -80.17 0.999894 -80.17 0.013068 -170.2
8.68589000 0.013073 -170.3 0.999894 -80.17 0.999894 -80.17 0.013073 -170.2
8.68589500 0.013078 -170.3 0.999894 -80.17 0.999894 -80.17 0.013078 -170.2
8.68590000 0.013083 -170.3 0.999894 -80.17 0.999894 -80.17 0.013083 -170.2
8.68590500 0.013087 -170.3 0.999893 -80.17 0.999893 -80.17 0.013087 -170.2
8.68591000 0.013092 -170.3 0.999893 -80.17 0.999893 -80.17 0.013092 -170.2
8.68591500 0.013097 -170.3 0.999893 -80.17 0.999893 -80.17 0.013097 -170.2
8.68592000 0.013102 -170.3 0.999893 -80.17 0.999893 -80.17 0.013102 -170.2
8.68592500 0.013107 -170.3 0.999893 -80.17 0.999893 -80.17 0.013107 -170.2
8.68593000 0.013112 -170.3 0.999893 -80.17 0.999893 -80.17 0.013112 -170.2
8.68593500 0.013116 -170.3 0.999893 -80.17 0.999893 -80.17 0.013116 -170.2
8.68594000 0.013121 -170.3 0.999893 -80.17 0.999893 -80.17 0.013121 -170.2
8.68594500 0.013126 -170.3 0.999893 -80.17 0.999893 -80.17 0.013126 -170.2
8.68595000 0.013131 -170.3 0.999893 -80.17 0.999893 -80.17 0.013131 -170.2
8.68595500 0.013136 -170.3 0.999893 -80.17 0.999893 -80.17 0.013136 -170.2
8.68596000 0.013141 -170.3 0.999893 -80.17 0.999893 -80.17 0.013141 -170.2
8.68596500 0.013146 -170.3 0.999892 -80.17 0.999892 -80.17 0.013146 -170.2
8.68597000 0.013151 -170.3 0.999892 -80.17 0.999892 -80.17 0.013150 -170.2
8.68597500 0.013155 -170.3 0.999892 -80.17 0.999892 -80.17 0.013155 -170.2
8.68598000 0.013160 -170.3 0.999892 -80.17 0.999892 -80.17 0.013160 -170.2
8.68598500 0.013165 -170.3 0.999892 -80.17 0.999892 -80.17 0.013165 -170.2
8.68599000 0.013170 -170.3 0.999892 -80.17 0.999892 -80.17 0.013170 -170.2
8.68599500 0.013175 -170.3 0.999892 -80.17 0.999892 -80.17 0.013175 -170.2
8.68600000 0.013180 -170.3 0.999892 -80.17 0.999892 -80.17 0.013180 -170.2
8.68600500 0.013185 -170.3 0.999892 -80.17 0.999892 -80.17 0.013185 -170.2
8.68601000 0.013190 -170.3 0.999892 -80.18 0.999892 -80.18 0.013190 -170.2
8.68601500 0.013195 -170.3 0.999892 -80.18 0.999892 -80.18 0.013195 -170.2
8.68602000 0.013200 -170.3 0.999891 -80.18 0.999891 -80.18 0.013200 -170.2
8.68602500 0.013205 -170.3 0.999891 -80.18 0.999891 -80.18 0.013205 -170.2
8.68603000 0.013210 -170.3 0.999891 -80.18 0.999891 -80.18 0.013210 -170.2
8.68603500 0.013215 -170.3 0.999891 -80.18 0.999891 -80.18 0.013215 -170.2
8.68604000 0.013220 -170.3 0.999891 -80.18 0.999891 -80.18 0.013220 -170.2
8.68604500 0.013225 -170.3 0.999891 -80.18 0.999891 -80.18 0.013225 -170.2
8.68605000 0.013230 -170.3 0.999891 -80.18 0.999891 -80.18 0.013230 -170.2
8.68605500 0.013235 -170.3 0.999891 -80.18 0.999891 -80.18 0.013235 -170.2
8.68606000 0.013240 -170.3 0.999891 -80.18 0.999891 -80.18 0.013240 -170.2
8.68606500 0.013245 -170.3 0.999891 -80.18 0.999891 -80.18 0.013245 -170.2
8.68607000 0.013250 -170.3 0.999891 -80.18 0.999891 -80.18 0.013250 -170.2
8.68607500 0.013255 -170.3 0.999890 -80.18 0.999890 -80.18 0.013255 -170.2
8.68608000 0.013260 -170.3 0.999890 -80.18 0.999890 -80.18 0.013260 -170.2
8.68608500 0.013265 -170.3 0.999890 -80.18 0.999890 -80.18 0.013265 -170.2
8.68609000 0.013270 -170.3 0.999890 -80.18 0.999890 -80.18 0.013270 -170.2
8.68609500 0.013275 -170.3 0.999890 -80.18 0.999890 -80.18 0.013275 -170.2
8.68610000 0.013280 -170.3 0.999890 -80.18 0.999890 -80.18 0.013280 -170.2
8.68610500 0.013285 -170.3 0.999890 -80.18 0.999890 -80.18 0.013285 -170.2
8.68611000 0.013290 -170.3 0.999890 -80.18 0.999890 -80.18 0.013290 -170.2
8.68611500 0.013295 -170.3 0.999890 -80.18 0.999890 -80.18 0.013295 -170.2
8.68612000 0.013300 -170.3 0.999890 -80.18 0.999890 -80.18 0.013300 -170.2
8.68612500 0.013305 -170.3 0.999890 -80.18 0.999890 -80.18 0.013305 -170.2
8.68613000 0.013310 -170.3 0.999889 -80.18 0.999889 -80.18 0.013310 -170.2
8.68613500 0.013315 -170.3 0.999889 -80.18 0.999889 -80.18 0.013315 -170.2
8.68614000 0.013320 -170.3 0.999889 -80.18 0.999889 -80.18 0.013320 -170.2
8.68614500 0.013326 -170.3 0.999889 -80.18 0.999889 -80.18 0.013325 -170.2
8.68615000 0.013331 -170.3 0.999889 -80.18 0.999889 -80.18 0.013331 -170.2
8.68615500 0.013336 -170.3 0.999889 -80.18 0.999889 -80.18 0.013336 -170.2
8.68616000 0.013341 -170.3 0.999889 -80.19 0.999889 -80.19 0.013341 -170.2
8.68616500 0.013346 -170.3 0.999889 -80.19 0.999889 -80.19 0.013346 -170.2
8.68617000 0.013351 -170.3 0.999889 -80.19 0.999889 -80.19 0.013351 -170.2
8.68617500 0.013356 -170.3 0.999889 -80.19 0.999889 -80.19 0.013356 -170.2
8.68618000 0.013361 -170.3 0.999889 -80.19 0.999889 -80.19 0.013361 -170.2
8.68618500 0.013367 -170.3 0.999888 -80.19 0.999888 -80.19 0.013367 -170.2
8.68619000 0.013372 -170.3 0.999888 -80.19 0.999888 -80.19 0.013372 -170.2
8.68619500 0.013377 -170.3 0.999888 -80.19 0.999888 -80.19 0.013377 -170.2
8.68620000 0.013382 -170.3 0.999888 -80.19 0.999888 -80.19 0.013382 -170.2
8.68620500 0.013387 -170.4 0.999888 -80.19 0.999888 -80.19 0.013387 -170.2
8.68621000 0.013393 -170.4 0.999888 -80.19 0.999888 -80.19 0.013392 -170.2
8.68621500 0.013398 -170.4 0.999888 -80.19 0.999888 -80.19 0.013398 -170.2
8.68622000 0.013403 -170.4 0.999888 -80.19 0.999888 -80.19 0.013403 -170.2
8.68622500 0.013408 -170.4 0.999888 -80.19 0.999888 -80.19 0.013408 -170.2
8.68623000 0.013413 -170.4 0.999888 -80.19 0.999888 -80.19 0.013413 -170.2
8.68623500 0.013419 -170.4 0.999888 -80.19 0.999888 -80.19 0.013419 -170.2
8.68624000 0.013424 -170.4 0.999887 -80.19 0.999887 -80.19 0.013424 -170.2
8.68624500 0.013429 -170.4 0.999887 -80.19 0.999887 -80.19 0.013429 -170.2
8.68625000 0.013434 -170.4 0.999887 -80.19 0.999887 -80.19 0.013434 -170.2
8.68625500 0.013440 -170.4 0.999887 -80.19 0.999887 -80.19 0.013440 -170.2
8.68626000 0.013445 -170.4 0.999887 -80.19 0.999887 -80.19 0.013445 -170.2
8.68626500 0.013450 -170.4 0.999887 -80.19 0.999887 -80.19 0.013450 -170.2
8.68627000 0.013455 -170.4 0.999887 -80.19 0.999887 -80.19 0.013455 -170.2
8.68627500 0.013461 -170.4 0.999887 -80.19 0.999887 -80.19 0.013461 -170.2
8.68628000 0.013466 -170.4 0.999887 -80.19 0.999887 -80.19 0.013466 -170.2
8.68628500 0.013471 -170.4 0.999887 -80.19 0.999887 -80.19 0.013471 -170.2
8.68629000 0.013477 -170.4 0.999886 -80.19 0.999886 -80.19 0.013476 -170.2
8.68629500 0.013482 -170.4 0.999886 -80.19 0.999886 -80.19 0.013482 -170.2
8.68630000 0.013487 -170.4 0.999886 -80.19 0.999886 -80.19 0.013487 -170.2
8.68630500 0.013493 -170.4 0.999886 -80.20 0.999886 -80.20 0.013492 -170.2
8.68631000 0.013498 -170.4 0.999886 -80.20 0.999886 -80.20 0.013498 -170.2
8.68631500 0.013503 -170.4 0.999886 -80.20 0.999886 -80.20 0.013503 -170.2
8.68632000 0.013509 -170.4 0.999886 -80.20 0.999886 -80.20 0.013508 -170.2
8.68632500 0.013514 -170.4 0.999886 -80.20 0.999886 -80.20 0.013514 -170.2
8.68633000 0.013519 -170.4 0.999886 -80.20 0.999886 -80.20 0.013519 -170.2
8.68633500 0.013525 -170.4 0.999886 -80.20 0.999886 -80.20 0.013525 -170.2
8.68634000 0.013530 -170.4 0.999885 -80.20 0.999885 -80.20 0.013530 -170.2
8.68634500 0.013535 -170.4 0.999885 -80.20 0.999885 -80.20 0.013535 -170.2
8.68635000 0.013541 -170.4 0.999885 -80.20 0.999885 -80.20 0.013541 -170.2
8.68635500 0.013546 -170.4 0.999885 -80.20 0.999885 -80.20 0.013546 -170.2
8.68636000 0.013552 -170.4 0.999885 -80.20 0.999885 -80.20 0.013551 -170.2
8.68636500 0.013557 -170.4 0.999885 -80.20 0.999885 -80.20 0.013557 -170.2
8.68637000 0.013562 -170.4 0.999885 -80.20 0.999885 -80.20 0.013562 -170.2
8.68637500 0.013568 -170.4 0.999885 -80.20 0.999885 -80.20 0.013568 -170.2
8.68638000 0.013573 -170.4 0.999885 -80.20 0.999885 -80.20 0.013573 -170.2
8.68638500 0.013579 -170.4 0.999885 -80.20 0.999885 -80.20 0.013579 -170.2
8.68639000 0.013584 -170.4 0.999884 -80.20 0.999884 -80.20 0.013584 -170.2
8.68639500 0.013590 -170.4 0.999884 -80.20 0.999884 -80.20 0.013589 -170.2
8.68640000 0.013595 -170.4 0.999884 -80.20 0.999884 -80.20 0.013595 -170.2
8.68640500 0.013600 -170.4 0.999884 -80.20 0.999884 -80.20 0.013600 -170.2
8.68641000 0.013606 -170.4 0.999884 -80.20 0.999884 -80.20 0.013606 -170.2
8.68641500 0.013611 -170.4 0.999884 -80.20 0.999884 -80.20 0.013611 -170.2
8.68642000 0.013617 -170.4 0.999884 -80.20 0.999884 -80.20 0.013617 -170.2
8.68642500 0.013622 -170.4 0.999884 -80.20 0.999884 -80.20 0.013622 -170.2
8.68643000 0.013628 -170.4 0.999884 -80.20 0.999884 -80.20 0.013628 -170.2
8.68643500 0.013633 -170.4 0.999884 -80.20 0.999884 -80.20 0.013633 -170.2
8.68644000 0.013639 -170.4 0.999883 -80.20 0.999883 -80.20 0.013639 -170.2
8.68644500 0.013644 -170.4 0.999883 -80.21 0.999883 -80.21 0.013644 -170.2
8.68645000 0.013650 -170.4 0.999883 -80.21 0.999883 -80.21 0.013650 -170.2
8.68645500 0.013655 -170.4 0.999883 -80.21 0.999883 -80.21 0.013655 -170.2
8.68646000 0.013661 -170.4 0.999883 -80.21 0.999883 -80.21 0.013661 -170.2
8.68646500 0.013667 -170.4 0.999883 -80.21 0.999883 -80.21 0.013666 -170.2
8.68647000 0.013672 -170.4 0.999883 -80.21 0.999883 -80.21 0.013672 -170.2
8.68647500 0.013678 -170.4 0.999883 -80.21 0.999883 -80.21 0.013678 -170.2
8.68648000 0.013683 -170.4 0.999883 -80.21 0.999883 -80.21 0.013683 -170.2
8.68648500 0.013689 -170.4 0.999883 -80.21 0.999883 -80.21 0.013689 -170.2
8.68649000 0.013694 -170.4 0.999882 -80.21 0.999882 -80.21 0.013694 -170.2
8.68649500 0.013700 -170.4 0.999882 -80.21 0.999882 -80.21 0.013700 -170.2
8.68650000 0.013706 -170.4 0.999882 -80.21 0.999882 -80.21 0.013706 -170.2
8.68650500 0.013711 -170.4 0.999882 -80.21 0.999882 -80.21 0.013711 -170.2
8.68651000 0.013717 -170.4 0.999882 -80.21 0.999882 -80.21 0.013717 -170.2
8.68651500 0.013722 -170.4 0.999882 -80.21 0.999882 -80.21 0.013722 -170.2
8.68652000 0.013728 -170.4 0.999882 -80.21 0.999882 -80.21 0.013728 -170.2
8.68652500 0.013734 -170.4 0.999882 -80.21 0.999882 -80.21 0.013734 -170.2
8.68653000 0.013739 -170.4 0.999882 -80.21 0.999882 -80.21 0.013739 -170.2
8.68653500 0.013745 -170.4 0.999882 -80.21 0.999882 -80.21 0.013745 -170.2
8.68654000 0.013751 -170.4 0.999881 -80.21 0.999881 -80.21 0.013751 -170.2
8.68654500 0.013756 -170.4 0.999881 -80.21 0.999881 -80.21 0.013756 -170.2
8.68655000 0.013762 -170.4 0.999881 -80.21 0.999881 -80.21 0.013762 -170.2
8.68655500 0.013768 -170.4 0.999881 -80.21 0.999881 -80.21 0.013768 -170.2
8.68656000 0.013773 -170.4 0.999881 -80.21 0.999881 -80.21 0.013773 -170.2
8.68656500 0.013779 -170.4 0.999881 -80.21 0.999881 -80.21 0.013779 -170.2
8.68657000 0.013785 -170.4 0.999881 -80.21 0.999881 -80.21 0.013785 -170.2
8.68657500 0.013791 -170.4 0.999881 -80.21 0.999881 -80.21 0.013790 -170.2
8.68658000 0.013796 -170.4 0.999881 -80.22 0.999881 -80.22 0.013796 -170.2
8.68658500 0.013802 -170.4 0.999880 -80.22 0.999880 -80.22 0.013802 -170.2
8.68659000 0.013808 -170.4 0.999880 -80.22 0.999880 -80.22 0.013808 -170.2
8.68659500 0.013813 -170.4 0.999880 -80.22 0.999880 -80.22 0.013813 -170.2
8.68660000 0.013819 -170.4 0.999880 -80.22 0.999880 -80.22 0.013819 -170.2
8.68660500 0.013825 -170.4 0.999880 -80.22 0.999880 -80.22 0.013825 -170.2
8.68661000 0.013831 -170.4 0.999880 -80.22 0.999880 -80.22 0.013831 -170.2
8.68661500 0.013837 -170.4 0.999880 -80.22 0.999880 -80.22 0.013836 -170.2
8.68662000 0.013842 -170.4 0.999880 -80.22 0.999880 -80.22 0.013842 -170.2
8.68662500 0.013848 -170.4 0.999880 -80.22 0.999880 -80.22 0.013848 -170.3
8.68663000 0.013854 -170.4 0.999879 -80.22 0.999879 -80.22 0.013854 -170.3
8.68663500 0.013860 -170.4 0.999879 -80.22 0.999879 -80.22 0.013860 -170.3
8.68664000 0.013866 -170.4 0.999879 -80.22 0.999879 -80.22 0.013865 -170.3
8.68664500 0.013871 -170.4 0.999879 -80.22 0.999879 -80.22 0.013871 -170.3
8.68665000 0.013877 -170.4 0.999879 -80.22 0.999879 -80.22 0.013877 -170.3
8.68665500 0.013883 -170.4 0.999879 -80.22 0.999879 -80.22 0.013883 -170.3
8.68666000 0.013889 -170.4 0.999879 -80.22 0.999879 -80.22 0.013889 -170.3
8.68666500 0.013895 -170.4 0.999879 -80.22 0.999879 -80.22 0.013895 -170.3
8.68667000 0.013901 -170.4 0.999879 -80.22 0.999879 -80.22 0.013901 -170.3
8.68667500 0.013907 -170.4 0.999878 -80.22 0.999878 -80.22 0.013906 -170.3
8.68668000 0.013912 -170.4 0.999878 -80.22 0.999878 -80.22 0.013912 -170.3
8.68668500 0.013918 -170.4 0.999878 -80.22 0.999878 -80.22 0.013918 -170.3
8.68669000 0.013924 -170.4 0.999878 -80.22 0.999878 -80.22 0.013924 -170.3
8.68669500 0.013930 -170.4 0.999878 -80.22 0.999878 -80.22 0.013930 -170.3
8.68670000 0.013936 -170.4 0.999878 -80.22 0.999878 -80.22 0.013936 -170.3
8.68670500 0.013942 -170.4 0.999878 -80.22 0.999878 -80.22 0.013942 -170.3
8.68671000 0.013948 -170.4 0.999878 -80.23 0.999878 -80.23 0.013948 -170.3
8.68671500 0.013954 -170.4 0.999878 -80.23 0.999878 -80.23 0.013954 -170.3
8.68672000 0.013960 -170.4 0.999877 -80.23 0.999877 -80.23 0.013960 -170.3
8.68672500 0.013966 -170.4 0.999877 -80.23 0.999877 -80.23 0.013966 -170.3
8.68673000 0.013972 -170.4 0.999877 -80.23 0.999877 -80.23 0.013972 -170.3
8.68673500 0.013978 -170.4 0.999877 -80.23 0.999877 -80.23 0.013978 -170.3
8.68674000 0.013984 -170.4 0.999877 -80.23 0.999877 -80.23 0.013983 -170.3
8.68674500 0.013990 -170.4 0.999877 -80.23 0.999877 -80.23 0.013989 -170.3
8.68675000 0.013996 -170.4 0.999877 -80.23 0.999877 -80.23 0.013995 -170.3
8.68675500 0.014002 -170.4 0.999877 -80.23 0.999877 -80.23 0.014001 -170.3
8.68676000 0.014008 -170.4 0.999877 -80.23 0.999877 -80.23 0.014007 -170.3
8.68676500 0.014014 -170.4 0.999876 -80.23 0.999876 -80.23 0.014013 -170.3
8.68677000 0.014020 -170.4 0.999876 -80.23 0.999876 -80.23 0.014020 -170.3
8.68677500 0.014026 -170.4 0.999876 -80.23 0.999876 -80.23 0.014026 -170.3
8.68678000 0.014032 -170.4 0.999876 -80.23 0.999876 -80.23 0.014032 -170.3
8.68678500 0.014038 -170.4 0.999876 -80.23 0.999876 -80.23 0.014038 -170.3
8.68679000 0.014044 -170.4 0.999876 -80.23 0.999876 -80.23 0.014044 -170.3
8.68679500 0.014050 -170.4 0.999876 -80.23 0.999876 -80.23 0.014050 -170.3
8.68680000 0.014056 -170.4 0.999876 -80.23 0.999876 -80.23 0.014056 -170.3
8.68680500 0.014062 -170.4 0.999876 -80.23 0.999876 -80.23 0.014062 -170.3
8.68681000 0.014068 -170.4 0.999875 -80.23 0.999875 -80.23 0.014068 -170.3
8.68681500 0.014074 -170.4 0.999875 -80.23 0.999875 -80.23 0.014074 -170.3
8.68682000 0.014080 -170.4 0.999875 -80.23 0.999875 -80.23 0.014080 -170.3
8.68682500 0.014086 -170.4 0.999875 -80.23 0.999875 -80.23 0.014086 -170.3
8.68683000 0.014093 -170.4 0.999875 -80.23 0.999875 -80.23 0.014093 -170.3
8.68683500 0.014099 -170.4 0.999875 -80.23 0.999875 -80.23 0.014099 -170.3
8.68684000 0.014105 -170.4 0.999875 -80.24 0.999875 -80.24 0.014105 -170.3
8.68684500 0.014111 -170.4 0.999875 -80.24 0.999875 -80.24 0.014111 -170.3
8.68685000 0.014117 -170.4 0.999874 -80.24 0.999874 -80.24 0.014117 -170.3
8.68685500 0.014123 -170.4 0.999874 -80.24 0.999874 -80.24 0.014123 -170.3
8.68686000 0.014130 -170.4 0.999874 -80.24 0.999874 -80.24 0.014129 -170.3
8.68686500 0.014136 -170.4 0.999874 -80.24 0.999874 -80.24 0.014136 -170.3
8.68687000 0.014142 -170.4 0.999874 -80.24 0.999874 -80.24 0.014142 -170.3
8.68687500 0.014148 -170.4 0.999874 -80.24 0.999874 -80.24 0.014148 -170.3
8.68688000 0.014154 -170.4 0.999874 -80.24 0.999874 -80.24 0.014154 -170.3
8.68688500 0.014161 -170.4 0.999874 -80.24 0.999874 -80.24 0.014160 -170.3
8.68689000 0.014167 -170.4 0.999873 -80.24 0.999873 -80.24 0.014167 -170.3
8.68689500 0.014173 -170.4 0.999873 -80.24 0.999873 -80.24 0.014173 -170.3
8.68690000 0.014179 -170.4 0.999873 -80.24 0.999873 -80.24 0.014179 -170.3
8.68690500 0.014186 -170.4 0.999873 -80.24 0.999873 -80.24 0.014185 -170.3
8.68691000 0.014192 -170.4 0.999873 -80.24 0.999873 -80.24 0.014192 -170.3
8.68691500 0.014198 -170.4 0.999873 -80.24 0.999873 -80.24 0.014198 -170.3
8.68692000 0.014204 -170.4 0.999873 -80.24 0.999873 -80.24 0.014204 -170.3
8.68692500 0.014211 -170.4 0.999873 -80.24 0.999873 -80.24 0.014211 -170.3
8.68693000 0.014217 -170.4 0.999873 -80.24 0.999873 -80.24 0.014217 -170.3
8.68693500 0.014223 -170.4 0.999872 -80.24 0.999872 -80.24 0.014223 -170.3
8.68694000 0.014230 -170.4 0.999872 -80.24 0.999872 -80.24 0.014230 -170.3
8.68694500 0.014236 -170.4 0.999872 -80.24 0.999872 -80.24 0.014236 -170.3
8.68695000 0.014242 -170.4 0.999872 -80.24 0.999872 -80.24 0.014242 -170.3
8.68695500 0.014249 -170.4 0.999872 -80.24 0.999872 -80.24 0.014249 -170.3