! Sonnet Data File
! From: emgraph Version : 16.52
! From Project: Qubit_Xmon2_brg_para
! Data is De-embedded 
! Data File Written: 10/25/2017 20:11:04
!< HDATE 10/25/2017 15:55:44
!< MDATE 10/25/2017 15:55:44
!< PARAMS
!< Lj = 11.0
!< Gap = 6.0
!< Pwid = 2000.0
!< Airgap = 6.0
!< Width = 10.0
!< Bwid = 60.0
!< Dis1 = 350.0
!< Dis2 = 356.0
!< END PARAMS
# GHZ S MA R 51.80000
8.68500000 0.038703 -169.8 0.999232 -79.85 0.999232 -79.85 0.038703 -170.0
!< P1 F=8.685 Eeff=(6.44683879 -2.9786e-5) Z0=(51.7993663 1.19075e-4) R=0.0 C=0.0 
!< P2 F=8.685 Eeff=(6.44683879 -2.9786e-5) Z0=(51.7993663 1.19075e-4) R=0.0 C=0.0 
8.68500500 0.038707 -169.8 0.999232 -79.85 0.999232 -79.85 0.038707 -170.0
8.68501000 0.038711 -169.8 0.999232 -79.85 0.999232 -79.85 0.038711 -170.0
8.68501500 0.038716 -169.8 0.999232 -79.85 0.999232 -79.85 0.038716 -170.0
8.68502000 0.038720 -169.8 0.999232 -79.85 0.999232 -79.85 0.038720 -170.0
8.68502500 0.038724 -169.8 0.999232 -79.85 0.999232 -79.85 0.038724 -170.0
8.68503000 0.038728 -169.8 0.999231 -79.86 0.999231 -79.86 0.038728 -170.0
8.68503500 0.038732 -169.8 0.999231 -79.86 0.999231 -79.86 0.038732 -170.0
8.68504000 0.038736 -169.8 0.999231 -79.86 0.999231 -79.86 0.038736 -170.0
8.68504500 0.038741 -169.8 0.999231 -79.86 0.999231 -79.86 0.038740 -170.0
8.68505000 0.038745 -169.8 0.999231 -79.86 0.999231 -79.86 0.038745 -170.0
8.68505500 0.038749 -169.8 0.999230 -79.86 0.999230 -79.86 0.038749 -170.0
8.68506000 0.038753 -169.8 0.999230 -79.86 0.999230 -79.86 0.038753 -170.0
8.68506500 0.038757 -169.8 0.999230 -79.86 0.999230 -79.86 0.038757 -170.0
8.68507000 0.038761 -169.8 0.999230 -79.86 0.999230 -79.86 0.038761 -170.0
8.68507500 0.038766 -169.8 0.999230 -79.86 0.999230 -79.86 0.038765 -170.0
8.68508000 0.038770 -169.8 0.999230 -79.86 0.999230 -79.86 0.038770 -170.0
8.68508500 0.038774 -169.8 0.999229 -79.86 0.999229 -79.86 0.038774 -170.0
8.68509000 0.038778 -169.8 0.999229 -79.86 0.999229 -79.86 0.038778 -170.0
8.68509500 0.038782 -169.8 0.999229 -79.86 0.999229 -79.86 0.038782 -170.0
8.68510000 0.038787 -169.8 0.999229 -79.86 0.999229 -79.86 0.038787 -170.0
8.68510500 0.038791 -169.8 0.999229 -79.86 0.999229 -79.86 0.038791 -170.0
8.68511000 0.038795 -169.8 0.999229 -79.86 0.999229 -79.86 0.038795 -170.0
8.68511500 0.038799 -169.8 0.999228 -79.86 0.999228 -79.86 0.038799 -170.0
8.68512000 0.038804 -169.8 0.999228 -79.86 0.999228 -79.86 0.038803 -170.0
8.68512500 0.038808 -169.8 0.999228 -79.86 0.999228 -79.86 0.038808 -170.0
8.68513000 0.038812 -169.8 0.999228 -79.86 0.999228 -79.86 0.038812 -170.0
8.68513500 0.038816 -169.8 0.999228 -79.86 0.999228 -79.86 0.038816 -170.0
8.68514000 0.038821 -169.8 0.999227 -79.86 0.999227 -79.86 0.038820 -170.0
8.68514500 0.038825 -169.8 0.999227 -79.86 0.999227 -79.86 0.038825 -170.0
8.68515000 0.038829 -169.8 0.999227 -79.86 0.999227 -79.86 0.038829 -170.0
8.68515500 0.038833 -169.8 0.999227 -79.86 0.999227 -79.86 0.038833 -170.0
8.68516000 0.038838 -169.8 0.999227 -79.86 0.999227 -79.86 0.038838 -170.0
8.68516500 0.038842 -169.8 0.999226 -79.86 0.999226 -79.86 0.038842 -170.0
8.68517000 0.038846 -169.8 0.999226 -79.86 0.999226 -79.86 0.038846 -170.0
8.68517500 0.038850 -169.8 0.999226 -79.86 0.999226 -79.86 0.038850 -170.0
8.68518000 0.038855 -169.8 0.999226 -79.86 0.999226 -79.86 0.038855 -170.0
8.68518500 0.038859 -169.8 0.999226 -79.86 0.999226 -79.86 0.038859 -170.0
8.68519000 0.038863 -169.8 0.999226 -79.86 0.999226 -79.86 0.038863 -170.0
8.68519500 0.038868 -169.8 0.999225 -79.86 0.999225 -79.86 0.038868 -170.0
8.68520000 0.038872 -169.8 0.999225 -79.86 0.999225 -79.86 0.038872 -170.0
8.68520500 0.038876 -169.8 0.999225 -79.87 0.999225 -79.87 0.038876 -170.0
8.68521000 0.038881 -169.8 0.999225 -79.87 0.999225 -79.87 0.038881 -170.0
8.68521500 0.038885 -169.8 0.999225 -79.87 0.999225 -79.87 0.038885 -170.0
8.68522000 0.038889 -169.8 0.999224 -79.87 0.999224 -79.87 0.038889 -170.0
8.68522500 0.038894 -169.8 0.999224 -79.87 0.999224 -79.87 0.038894 -170.0
8.68523000 0.038898 -169.8 0.999224 -79.87 0.999224 -79.87 0.038898 -170.0
8.68523500 0.038902 -169.8 0.999224 -79.87 0.999224 -79.87 0.038902 -170.0
8.68524000 0.038907 -169.8 0.999224 -79.87 0.999224 -79.87 0.038907 -170.0
8.68524500 0.038911 -169.8 0.999224 -79.87 0.999224 -79.87 0.038911 -170.0
8.68525000 0.038915 -169.8 0.999223 -79.87 0.999223 -79.87 0.038915 -170.0
8.68525500 0.038920 -169.8 0.999223 -79.87 0.999223 -79.87 0.038920 -170.0
8.68526000 0.038924 -169.8 0.999223 -79.87 0.999223 -79.87 0.038924 -170.0
8.68526500 0.038929 -169.8 0.999223 -79.87 0.999223 -79.87 0.038928 -170.0
8.68527000 0.038933 -169.8 0.999223 -79.87 0.999223 -79.87 0.038933 -170.0
8.68527500 0.038937 -169.8 0.999222 -79.87 0.999222 -79.87 0.038937 -170.0
8.68528000 0.038942 -169.8 0.999222 -79.87 0.999222 -79.87 0.038942 -170.0
8.68528500 0.038946 -169.8 0.999222 -79.87 0.999222 -79.87 0.038946 -170.0
8.68529000 0.038951 -169.8 0.999222 -79.87 0.999222 -79.87 0.038950 -170.0
8.68529500 0.038955 -169.8 0.999222 -79.87 0.999222 -79.87 0.038955 -170.0
8.68530000 0.038959 -169.8 0.999221 -79.87 0.999221 -79.87 0.038959 -170.0
8.68530500 0.038964 -169.8 0.999221 -79.87 0.999221 -79.87 0.038964 -170.0
8.68531000 0.038968 -169.8 0.999221 -79.87 0.999221 -79.87 0.038968 -170.0
8.68531500 0.038973 -169.8 0.999221 -79.87 0.999221 -79.87 0.038973 -170.0
8.68532000 0.038977 -169.8 0.999221 -79.87 0.999221 -79.87 0.038977 -170.0
8.68532500 0.038982 -169.8 0.999220 -79.87 0.999220 -79.87 0.038981 -170.0
8.68533000 0.038986 -169.8 0.999220 -79.87 0.999220 -79.87 0.038986 -170.0
8.68533500 0.038990 -169.8 0.999220 -79.87 0.999220 -79.87 0.038990 -170.0
8.68534000 0.038995 -169.8 0.999220 -79.87 0.999220 -79.87 0.038995 -170.0
8.68534500 0.038999 -169.8 0.999220 -79.87 0.999220 -79.87 0.038999 -170.0
8.68535000 0.039004 -169.8 0.999219 -79.87 0.999219 -79.87 0.039004 -170.0
8.68535500 0.039008 -169.8 0.999219 -79.87 0.999219 -79.87 0.039008 -170.0
8.68536000 0.039013 -169.8 0.999219 -79.87 0.999219 -79.87 0.039013 -170.0
8.68536500 0.039017 -169.8 0.999219 -79.87 0.999219 -79.87 0.039017 -170.0
8.68537000 0.039022 -169.8 0.999219 -79.87 0.999219 -79.87 0.039022 -170.0
8.68537500 0.039026 -169.8 0.999219 -79.88 0.999219 -79.88 0.039026 -170.0
8.68538000 0.039031 -169.8 0.999218 -79.88 0.999218 -79.88 0.039031 -170.0
8.68538500 0.039035 -169.8 0.999218 -79.88 0.999218 -79.88 0.039035 -170.0
8.68539000 0.039040 -169.8 0.999218 -79.88 0.999218 -79.88 0.039040 -170.0
8.68539500 0.039044 -169.8 0.999218 -79.88 0.999218 -79.88 0.039044 -170.0
8.68540000 0.039049 -169.8 0.999218 -79.88 0.999218 -79.88 0.039049 -170.0
8.68540500 0.039053 -169.8 0.999217 -79.88 0.999217 -79.88 0.039053 -170.0
8.68541000 0.039058 -169.8 0.999217 -79.88 0.999217 -79.88 0.039058 -170.0
8.68541500 0.039062 -169.8 0.999217 -79.88 0.999217 -79.88 0.039062 -170.0
8.68542000 0.039067 -169.8 0.999217 -79.88 0.999217 -79.88 0.039067 -170.0
8.68542500 0.039071 -169.8 0.999217 -79.88 0.999217 -79.88 0.039071 -170.0
8.68543000 0.039076 -169.8 0.999216 -79.88 0.999216 -79.88 0.039076 -170.0
8.68543500 0.039081 -169.8 0.999216 -79.88 0.999216 -79.88 0.039080 -170.0
8.68544000 0.039085 -169.8 0.999216 -79.88 0.999216 -79.88 0.039085 -170.0
8.68544500 0.039090 -169.8 0.999216 -79.88 0.999216 -79.88 0.039090 -170.0
8.68545000 0.039094 -169.8 0.999216 -79.88 0.999216 -79.88 0.039094 -170.0
8.68545500 0.039099 -169.8 0.999215 -79.88 0.999215 -79.88 0.039099 -170.0
8.68546000 0.039103 -169.8 0.999215 -79.88 0.999215 -79.88 0.039103 -170.0
8.68546500 0.039108 -169.8 0.999215 -79.88 0.999215 -79.88 0.039108 -170.0
8.68547000 0.039113 -169.8 0.999215 -79.88 0.999215 -79.88 0.039113 -170.0
8.68547500 0.039117 -169.8 0.999215 -79.88 0.999215 -79.88 0.039117 -170.0
8.68548000 0.039122 -169.8 0.999214 -79.88 0.999214 -79.88 0.039122 -170.0
8.68548500 0.039126 -169.8 0.999214 -79.88 0.999214 -79.88 0.039126 -170.0
8.68549000 0.039131 -169.8 0.999214 -79.88 0.999214 -79.88 0.039131 -170.0
8.68549500 0.039136 -169.8 0.999214 -79.88 0.999214 -79.88 0.039136 -170.0
8.68550000 0.039140 -169.8 0.999214 -79.88 0.999214 -79.88 0.039140 -170.0
8.68550500 0.039145 -169.8 0.999213 -79.88 0.999213 -79.88 0.039145 -170.0
8.68551000 0.039150 -169.8 0.999213 -79.88 0.999213 -79.88 0.039150 -170.0
8.68551500 0.039154 -169.8 0.999213 -79.88 0.999213 -79.88 0.039154 -170.0
8.68552000 0.039159 -169.8 0.999213 -79.88 0.999213 -79.88 0.039159 -170.0
8.68552500 0.039164 -169.8 0.999213 -79.88 0.999213 -79.88 0.039164 -170.0
8.68553000 0.039168 -169.8 0.999212 -79.88 0.999212 -79.88 0.039168 -170.0
8.68553500 0.039173 -169.8 0.999212 -79.89 0.999212 -79.89 0.039173 -170.0
8.68554000 0.039178 -169.8 0.999212 -79.89 0.999212 -79.89 0.039178 -170.0
8.68554500 0.039182 -169.8 0.999212 -79.89 0.999212 -79.89 0.039182 -170.0
8.68555000 0.039187 -169.8 0.999212 -79.89 0.999212 -79.89 0.039187 -170.0
8.68555500 0.039192 -169.8 0.999211 -79.89 0.999211 -79.89 0.039192 -170.0
8.68556000 0.039196 -169.8 0.999211 -79.89 0.999211 -79.89 0.039196 -170.0
8.68556500 0.039201 -169.8 0.999211 -79.89 0.999211 -79.89 0.039201 -170.0
8.68557000 0.039206 -169.8 0.999211 -79.89 0.999211 -79.89 0.039206 -170.0
8.68557500 0.039211 -169.8 0.999210 -79.89 0.999210 -79.89 0.039210 -170.0
8.68558000 0.039215 -169.8 0.999210 -79.89 0.999210 -79.89 0.039215 -170.0
8.68558500 0.039220 -169.8 0.999210 -79.89 0.999210 -79.89 0.039220 -170.0
8.68559000 0.039225 -169.8 0.999210 -79.89 0.999210 -79.89 0.039225 -170.0
8.68559500 0.039229 -169.8 0.999210 -79.89 0.999210 -79.89 0.039229 -170.0
8.68560000 0.039234 -169.8 0.999209 -79.89 0.999209 -79.89 0.039234 -170.0
8.68560500 0.039239 -169.8 0.999209 -79.89 0.999209 -79.89 0.039239 -170.0
8.68561000 0.039244 -169.8 0.999209 -79.89 0.999209 -79.89 0.039244 -170.0
8.68561500 0.039248 -169.8 0.999209 -79.89 0.999209 -79.89 0.039248 -170.0
8.68562000 0.039253 -169.8 0.999209 -79.89 0.999209 -79.89 0.039253 -170.0
8.68562500 0.039258 -169.8 0.999208 -79.89 0.999208 -79.89 0.039258 -170.0
8.68563000 0.039263 -169.8 0.999208 -79.89 0.999208 -79.89 0.039263 -170.0
8.68563500 0.039268 -169.8 0.999208 -79.89 0.999208 -79.89 0.039267 -170.0
8.68564000 0.039272 -169.8 0.999208 -79.89 0.999208 -79.89 0.039272 -170.0
8.68564500 0.039277 -169.8 0.999208 -79.89 0.999208 -79.89 0.039277 -170.0
8.68565000 0.039282 -169.8 0.999207 -79.89 0.999207 -79.89 0.039282 -170.0
8.68565500 0.039287 -169.8 0.999207 -79.89 0.999207 -79.89 0.039287 -170.0
8.68566000 0.039292 -169.8 0.999207 -79.89 0.999207 -79.89 0.039291 -170.0
8.68566500 0.039296 -169.8 0.999207 -79.89 0.999207 -79.89 0.039296 -170.0
8.68567000 0.039301 -169.8 0.999207 -79.89 0.999207 -79.89 0.039301 -170.0
8.68567500 0.039306 -169.8 0.999206 -79.89 0.999206 -79.89 0.039306 -170.1
8.68568000 0.039311 -169.8 0.999206 -79.89 0.999206 -79.89 0.039311 -170.1
8.68568500 0.039316 -169.8 0.999206 -79.89 0.999206 -79.89 0.039316 -170.1
8.68569000 0.039321 -169.8 0.999206 -79.89 0.999206 -79.89 0.039320 -170.1
8.68569500 0.039325 -169.8 0.999205 -79.90 0.999205 -79.90 0.039325 -170.1
8.68570000 0.039330 -169.8 0.999205 -79.90 0.999205 -79.90 0.039330 -170.1
8.68570500 0.039335 -169.8 0.999205 -79.90 0.999205 -79.90 0.039335 -170.1
8.68571000 0.039340 -169.8 0.999205 -79.90 0.999205 -79.90 0.039340 -170.1
8.68571500 0.039345 -169.8 0.999205 -79.90 0.999205 -79.90 0.039345 -170.1
8.68572000 0.039350 -169.8 0.999204 -79.90 0.999204 -79.90 0.039350 -170.1
8.68572500 0.039355 -169.8 0.999204 -79.90 0.999204 -79.90 0.039355 -170.1
8.68573000 0.039360 -169.8 0.999204 -79.90 0.999204 -79.90 0.039359 -170.1
8.68573500 0.039364 -169.8 0.999204 -79.90 0.999204 -79.90 0.039364 -170.1
8.68574000 0.039369 -169.8 0.999204 -79.90 0.999204 -79.90 0.039369 -170.1
8.68574500 0.039374 -169.8 0.999203 -79.90 0.999203 -79.90 0.039374 -170.1
8.68575000 0.039379 -169.8 0.999203 -79.90 0.999203 -79.90 0.039379 -170.1
8.68575500 0.039384 -169.8 0.999203 -79.90 0.999203 -79.90 0.039384 -170.1
8.68576000 0.039389 -169.8 0.999203 -79.90 0.999203 -79.90 0.039389 -170.1
8.68576500 0.039394 -169.8 0.999202 -79.90 0.999202 -79.90 0.039394 -170.1
8.68577000 0.039399 -169.8 0.999202 -79.90 0.999202 -79.90 0.039399 -170.1
8.68577500 0.039404 -169.8 0.999202 -79.90 0.999202 -79.90 0.039404 -170.1
8.68578000 0.039409 -169.8 0.999202 -79.90 0.999202 -79.90 0.039409 -170.1
8.68578500 0.039414 -169.8 0.999202 -79.90 0.999202 -79.90 0.039414 -170.1
8.68579000 0.039419 -169.8 0.999201 -79.90 0.999201 -79.90 0.039419 -170.1
8.68579500 0.039424 -169.8 0.999201 -79.90 0.999201 -79.90 0.039424 -170.1
8.68580000 0.039429 -169.8 0.999201 -79.90 0.999201 -79.90 0.039429 -170.1
8.68580500 0.039434 -169.8 0.999201 -79.90 0.999201 -79.90 0.039434 -170.1
8.68581000 0.039439 -169.8 0.999200 -79.90 0.999200 -79.90 0.039439 -170.1
8.68581500 0.039444 -169.8 0.999200 -79.90 0.999200 -79.90 0.039444 -170.1
8.68582000 0.039449 -169.8 0.999200 -79.90 0.999200 -79.90 0.039449 -170.1
8.68582500 0.039454 -169.8 0.999200 -79.90 0.999200 -79.90 0.039454 -170.1
8.68583000 0.039459 -169.8 0.999200 -79.90 0.999200 -79.90 0.039459 -170.1
8.68583500 0.039464 -169.8 0.999199 -79.90 0.999199 -79.90 0.039464 -170.1
8.68584000 0.039469 -169.8 0.999199 -79.90 0.999199 -79.90 0.039469 -170.1
8.68584500 0.039474 -169.8 0.999199 -79.91 0.999199 -79.91 0.039474 -170.1
8.68585000 0.039479 -169.8 0.999199 -79.91 0.999199 -79.91 0.039479 -170.1
8.68585500 0.039484 -169.8 0.999198 -79.91 0.999198 -79.91 0.039484 -170.1
8.68586000 0.039489 -169.8 0.999198 -79.91 0.999198 -79.91 0.039489 -170.1
8.68586500 0.039494 -169.8 0.999198 -79.91 0.999198 -79.91 0.039494 -170.1
8.68587000 0.039499 -169.8 0.999198 -79.91 0.999198 -79.91 0.039499 -170.1
8.68587500 0.039504 -169.8 0.999198 -79.91 0.999198 -79.91 0.039504 -170.1
8.68588000 0.039509 -169.8 0.999197 -79.91 0.999197 -79.91 0.039509 -170.1
8.68588500 0.039514 -169.8 0.999197 -79.91 0.999197 -79.91 0.039514 -170.1
8.68589000 0.039520 -169.8 0.999197 -79.91 0.999197 -79.91 0.039519 -170.1
8.68589500 0.039525 -169.8 0.999197 -79.91 0.999197 -79.91 0.039525 -170.1
8.68590000 0.039530 -169.8 0.999196 -79.91 0.999196 -79.91 0.039530 -170.1
8.68590500 0.039535 -169.8 0.999196 -79.91 0.999196 -79.91 0.039535 -170.1
8.68591000 0.039540 -169.8 0.999196 -79.91 0.999196 -79.91 0.039540 -170.1
8.68591500 0.039545 -169.8 0.999196 -79.91 0.999196 -79.91 0.039545 -170.1
8.68592000 0.039550 -169.8 0.999196 -79.91 0.999196 -79.91 0.039550 -170.1
8.68592500 0.039555 -169.8 0.999195 -79.91 0.999195 -79.91 0.039555 -170.1
8.68593000 0.039561 -169.8 0.999195 -79.91 0.999195 -79.91 0.039560 -170.1
8.68593500 0.039566 -169.8 0.999195 -79.91 0.999195 -79.91 0.039566 -170.1
8.68594000 0.039571 -169.8 0.999195 -79.91 0.999195 -79.91 0.039571 -170.1
8.68594500 0.039576 -169.8 0.999194 -79.91 0.999194 -79.91 0.039576 -170.1
8.68595000 0.039581 -169.8 0.999194 -79.91 0.999194 -79.91 0.039581 -170.1
8.68595500 0.039586 -169.8 0.999194 -79.91 0.999194 -79.91 0.039586 -170.1
8.68596000 0.039592 -169.8 0.999194 -79.91 0.999194 -79.91 0.039592 -170.1
8.68596500 0.039597 -169.8 0.999193 -79.91 0.999193 -79.91 0.039597 -170.1
8.68597000 0.039602 -169.8 0.999193 -79.91 0.999193 -79.91 0.039602 -170.1
8.68597500 0.039607 -169.8 0.999193 -79.91 0.999193 -79.91 0.039607 -170.1
8.68598000 0.039612 -169.8 0.999193 -79.91 0.999193 -79.91 0.039612 -170.1
8.68598500 0.039618 -169.8 0.999193 -79.91 0.999193 -79.91 0.039618 -170.1
8.68599000 0.039623 -169.8 0.999192 -79.91 0.999192 -79.91 0.039623 -170.1
8.68599500 0.039628 -169.8 0.999192 -79.92 0.999192 -79.92 0.039628 -170.1
8.68600000 0.039633 -169.8 0.999192 -79.92 0.999192 -79.92 0.039633 -170.1
8.68600500 0.039639 -169.8 0.999192 -79.92 0.999192 -79.92 0.039639 -170.1
8.68601000 0.039644 -169.8 0.999191 -79.92 0.999191 -79.92 0.039644 -170.1
8.68601500 0.039649 -169.8 0.999191 -79.92 0.999191 -79.92 0.039649 -170.1
8.68602000 0.039654 -169.8 0.999191 -79.92 0.999191 -79.92 0.039654 -170.1
8.68602500 0.039660 -169.8 0.999191 -79.92 0.999191 -79.92 0.039660 -170.1
8.68603000 0.039665 -169.8 0.999190 -79.92 0.999190 -79.92 0.039665 -170.1
8.68603500 0.039670 -169.8 0.999190 -79.92 0.999190 -79.92 0.039670 -170.1
8.68604000 0.039676 -169.8 0.999190 -79.92 0.999190 -79.92 0.039675 -170.1
8.68604500 0.039681 -169.8 0.999190 -79.92 0.999190 -79.92 0.039681 -170.1
8.68605000 0.039686 -169.8 0.999190 -79.92 0.999190 -79.92 0.039686 -170.1
8.68605500 0.039691 -169.8 0.999189 -79.92 0.999189 -79.92 0.039691 -170.1
8.68606000 0.039697 -169.8 0.999189 -79.92 0.999189 -79.92 0.039697 -170.1
8.68606500 0.039702 -169.8 0.999189 -79.92 0.999189 -79.92 0.039702 -170.1
8.68607000 0.039707 -169.8 0.999189 -79.92 0.999189 -79.92 0.039707 -170.1
8.68607500 0.039713 -169.8 0.999188 -79.92 0.999188 -79.92 0.039713 -170.1
8.68608000 0.039718 -169.8 0.999188 -79.92 0.999188 -79.92 0.039718 -170.1
8.68608500 0.039724 -169.8 0.999188 -79.92 0.999188 -79.92 0.039723 -170.1
8.68609000 0.039729 -169.8 0.999188 -79.92 0.999188 -79.92 0.039729 -170.1
8.68609500 0.039734 -169.8 0.999187 -79.92 0.999187 -79.92 0.039734 -170.1
8.68610000 0.039740 -169.8 0.999187 -79.92 0.999187 -79.92 0.039740 -170.1
8.68610500 0.039745 -169.8 0.999187 -79.92 0.999187 -79.92 0.039745 -170.1
8.68611000 0.039750 -169.8 0.999187 -79.92 0.999187 -79.92 0.039750 -170.1
8.68611500 0.039756 -169.8 0.999186 -79.92 0.999186 -79.92 0.039756 -170.1
8.68612000 0.039761 -169.8 0.999186 -79.92 0.999186 -79.92 0.039761 -170.1
8.68612500 0.039767 -169.8 0.999186 -79.92 0.999186 -79.92 0.039767 -170.1
8.68613000 0.039772 -169.8 0.999186 -79.92 0.999186 -79.92 0.039772 -170.1
8.68613500 0.039777 -169.8 0.999185 -79.93 0.999185 -79.93 0.039777 -170.1
8.68614000 0.039783 -169.8 0.999185 -79.93 0.999185 -79.93 0.039783 -170.1
8.68614500 0.039788 -169.8 0.999185 -79.93 0.999185 -79.93 0.039788 -170.1
8.68615000 0.039794 -169.8 0.999185 -79.93 0.999185 -79.93 0.039794 -170.1
8.68615500 0.039799 -169.8 0.999184 -79.93 0.999184 -79.93 0.039799 -170.1
8.68616000 0.039805 -169.8 0.999184 -79.93 0.999184 -79.93 0.039805 -170.1
8.68616500 0.039810 -169.8 0.999184 -79.93 0.999184 -79.93 0.039810 -170.1
8.68617000 0.039816 -169.8 0.999184 -79.93 0.999184 -79.93 0.039816 -170.1
8.68617500 0.039821 -169.8 0.999184 -79.93 0.999184 -79.93 0.039821 -170.1
8.68618000 0.039827 -169.8 0.999183 -79.93 0.999183 -79.93 0.039827 -170.1
8.68618500 0.039832 -169.8 0.999183 -79.93 0.999183 -79.93 0.039832 -170.1
8.68619000 0.039838 -169.8 0.999183 -79.93 0.999183 -79.93 0.039838 -170.1
8.68619500 0.039843 -169.8 0.999183 -79.93 0.999183 -79.93 0.039843 -170.1
8.68620000 0.039849 -169.8 0.999182 -79.93 0.999182 -79.93 0.039849 -170.1
8.68620500 0.039854 -169.8 0.999182 -79.93 0.999182 -79.93 0.039854 -170.1
8.68621000 0.039860 -169.8 0.999182 -79.93 0.999182 -79.93 0.039860 -170.1
8.68621500 0.039865 -169.8 0.999182 -79.93 0.999182 -79.93 0.039865 -170.1
8.68622000 0.039871 -169.8 0.999181 -79.93 0.999181 -79.93 0.039871 -170.1
8.68622500 0.039876 -169.8 0.999181 -79.93 0.999181 -79.93 0.039876 -170.1
8.68623000 0.039882 -169.8 0.999181 -79.93 0.999181 -79.93 0.039882 -170.1
8.68623500 0.039888 -169.8 0.999181 -79.93 0.999181 -79.93 0.039887 -170.1
8.68624000 0.039893 -169.8 0.999180 -79.93 0.999180 -79.93 0.039893 -170.1
8.68624500 0.039899 -169.8 0.999180 -79.93 0.999180 -79.93 0.039899 -170.1
8.68625000 0.039904 -169.8 0.999180 -79.93 0.999180 -79.93 0.039904 -170.1
8.68625500 0.039910 -169.8 0.999180 -79.93 0.999180 -79.93 0.039910 -170.1
8.68626000 0.039915 -169.8 0.999179 -79.93 0.999179 -79.93 0.039915 -170.1
8.68626500 0.039921 -169.8 0.999179 -79.93 0.999179 -79.93 0.039921 -170.1
8.68627000 0.039927 -169.8 0.999179 -79.93 0.999179 -79.93 0.039927 -170.1
8.68627500 0.039932 -169.8 0.999179 -79.94 0.999179 -79.94 0.039932 -170.1
8.68628000 0.039938 -169.8 0.999178 -79.94 0.999178 -79.94 0.039938 -170.1
8.68628500 0.039944 -169.8 0.999178 -79.94 0.999178 -79.94 0.039944 -170.1
8.68629000 0.039949 -169.8 0.999178 -79.94 0.999178 -79.94 0.039949 -170.1
8.68629500 0.039955 -169.8 0.999178 -79.94 0.999178 -79.94 0.039955 -170.1
8.68630000 0.039961 -169.8 0.999177 -79.94 0.999177 -79.94 0.039961 -170.1
8.68630500 0.039966 -169.8 0.999177 -79.94 0.999177 -79.94 0.039966 -170.1
8.68631000 0.039972 -169.8 0.999177 -79.94 0.999177 -79.94 0.039972 -170.1
8.68631500 0.039978 -169.8 0.999176 -79.94 0.999176 -79.94 0.039978 -170.1
8.68632000 0.039983 -169.8 0.999176 -79.94 0.999176 -79.94 0.039983 -170.1
8.68632500 0.039989 -169.8 0.999176 -79.94 0.999176 -79.94 0.039989 -170.1
8.68633000 0.039995 -169.8 0.999176 -79.94 0.999176 -79.94 0.039995 -170.1
8.68633500 0.040001 -169.8 0.999175 -79.94 0.999175 -79.94 0.040000 -170.1
8.68634000 0.040006 -169.8 0.999175 -79.94 0.999175 -79.94 0.040006 -170.1
8.68634500 0.040012 -169.8 0.999175 -79.94 0.999175 -79.94 0.040012 -170.1
8.68635000 0.040018 -169.8 0.999175 -79.94 0.999175 -79.94 0.040018 -170.1
8.68635500 0.040023 -169.8 0.999174 -79.94 0.999174 -79.94 0.040023 -170.1
8.68636000 0.040029 -169.8 0.999174 -79.94 0.999174 -79.94 0.040029 -170.1
8.68636500 0.040035 -169.8 0.999174 -79.94 0.999174 -79.94 0.040035 -170.1
8.68637000 0.040041 -169.8 0.999174 -79.94 0.999174 -79.94 0.040041 -170.1
8.68637500 0.040047 -169.8 0.999173 -79.94 0.999173 -79.94 0.040046 -170.1
8.68638000 0.040052 -169.8 0.999173 -79.94 0.999173 -79.94 0.040052 -170.1
8.68638500 0.040058 -169.8 0.999173 -79.94 0.999173 -79.94 0.040058 -170.1
8.68639000 0.040064 -169.8 0.999173 -79.94 0.999173 -79.94 0.040064 -170.1
8.68639500 0.040070 -169.8 0.999172 -79.94 0.999172 -79.94 0.040070 -170.1
8.68640000 0.040076 -169.8 0.999172 -79.94 0.999172 -79.94 0.040075 -170.1
8.68640500 0.040081 -169.8 0.999172 -79.95 0.999172 -79.95 0.040081 -170.1
8.68641000 0.040087 -169.8 0.999172 -79.95 0.999172 -79.95 0.040087 -170.1
8.68641500 0.040093 -169.8 0.999171 -79.95 0.999171 -79.95 0.040093 -170.1
8.68642000 0.040099 -169.8 0.999171 -79.95 0.999171 -79.95 0.040099 -170.1
8.68642500 0.040105 -169.8 0.999171 -79.95 0.999171 -79.95 0.040105 -170.1
8.68643000 0.040111 -169.9 0.999171 -79.95 0.999171 -79.95 0.040111 -170.1
8.68643500 0.040117 -169.9 0.999170 -79.95 0.999170 -79.95 0.040116 -170.1
8.68644000 0.040122 -169.9 0.999170 -79.95 0.999170 -79.95 0.040122 -170.1
8.68644500 0.040128 -169.9 0.999170 -79.95 0.999170 -79.95 0.040128 -170.1
8.68645000 0.040134 -169.9 0.999169 -79.95 0.999169 -79.95 0.040134 -170.1
8.68645500 0.040140 -169.9 0.999169 -79.95 0.999169 -79.95 0.040140 -170.1
8.68646000 0.040146 -169.9 0.999169 -79.95 0.999169 -79.95 0.040146 -170.1
8.68646500 0.040152 -169.9 0.999169 -79.95 0.999169 -79.95 0.040152 -170.1
8.68647000 0.040158 -169.9 0.999168 -79.95 0.999168 -79.95 0.040158 -170.1
8.68647500 0.040164 -169.9 0.999168 -79.95 0.999168 -79.95 0.040164 -170.1
8.68648000 0.040170 -169.9 0.999168 -79.95 0.999168 -79.95 0.040170 -170.1
8.68648500 0.040176 -169.9 0.999168 -79.95 0.999168 -79.95 0.040176 -170.1
8.68649000 0.040182 -169.9 0.999167 -79.95 0.999167 -79.95 0.040182 -170.1
8.68649500 0.040188 -169.9 0.999167 -79.95 0.999167 -79.95 0.040188 -170.1
8.68650000 0.040194 -169.9 0.999167 -79.95 0.999167 -79.95 0.040194 -170.1
8.68650500 0.040200 -169.9 0.999166 -79.95 0.999166 -79.95 0.040200 -170.1
8.68651000 0.040206 -169.9 0.999166 -79.95 0.999166 -79.95 0.040206 -170.1
8.68651500 0.040212 -169.9 0.999166 -79.95 0.999166 -79.95 0.040212 -170.1
8.68652000 0.040218 -169.9 0.999166 -79.95 0.999166 -79.95 0.040218 -170.1
8.68652500 0.040224 -169.9 0.999165 -79.95 0.999165 -79.95 0.040224 -170.1
8.68653000 0.040230 -169.9 0.999165 -79.95 0.999165 -79.95 0.040230 -170.1
8.68653500 0.040236 -169.9 0.999165 -79.96 0.999165 -79.96 0.040236 -170.1
8.68654000 0.040242 -169.9 0.999165 -79.96 0.999165 -79.96 0.040242 -170.1
8.68654500 0.040248 -169.9 0.999164 -79.96 0.999164 -79.96 0.040248 -170.1
8.68655000 0.040254 -169.9 0.999164 -79.96 0.999164 -79.96 0.040254 -170.1
8.68655500 0.040260 -169.9 0.999164 -79.96 0.999164 -79.96 0.040260 -170.1
8.68656000 0.040266 -169.9 0.999163 -79.96 0.999163 -79.96 0.040266 -170.1
8.68656500 0.040272 -169.9 0.999163 -79.96 0.999163 -79.96 0.040272 -170.1
8.68657000 0.040278 -169.9 0.999163 -79.96 0.999163 -79.96 0.040278 -170.1
8.68657500 0.040284 -169.9 0.999163 -79.96 0.999163 -79.96 0.040284 -170.1
8.68658000 0.040291 -169.9 0.999162 -79.96 0.999162 -79.96 0.040290 -170.1
8.68658500 0.040297 -169.9 0.999162 -79.96 0.999162 -79.96 0.040297 -170.1
8.68659000 0.040303 -169.9 0.999162 -79.96 0.999162 -79.96 0.040303 -170.1
8.68659500 0.040309 -169.9 0.999162 -79.96 0.999162 -79.96 0.040309 -170.1
8.68660000 0.040315 -169.9 0.999161 -79.96 0.999161 -79.96 0.040315 -170.1
8.68660500 0.040321 -169.9 0.999161 -79.96 0.999161 -79.96 0.040321 -170.1
8.68661000 0.040327 -169.9 0.999161 -79.96 0.999161 -79.96 0.040327 -170.1
8.68661500 0.040334 -169.9 0.999160 -79.96 0.999160 -79.96 0.040333 -170.1
8.68662000 0.040340 -169.9 0.999160 -79.96 0.999160 -79.96 0.040340 -170.1
8.68662500 0.040346 -169.9 0.999160 -79.96 0.999160 -79.96 0.040346 -170.1
8.68663000 0.040352 -169.9 0.999160 -79.96 0.999160 -79.96 0.040352 -170.1
8.68663500 0.040358 -169.9 0.999159 -79.96 0.999159 -79.96 0.040358 -170.1
8.68664000 0.040365 -169.9 0.999159 -79.96 0.999159 -79.96 0.040364 -170.1
8.68664500 0.040371 -169.9 0.999159 -79.96 0.999159 -79.96 0.040371 -170.1
8.68665000 0.040377 -169.9 0.999158 -79.96 0.999158 -79.96 0.040377 -170.1
8.68665500 0.040383 -169.9 0.999158 -79.96 0.999158 -79.96 0.040383 -170.1
8.68666000 0.040390 -169.9 0.999158 -79.96 0.999158 -79.96 0.040389 -170.1
8.68666500 0.040396 -169.9 0.999158 -79.97 0.999158 -79.97 0.040396 -170.1
8.68667000 0.040402 -169.9 0.999157 -79.97 0.999157 -79.97 0.040402 -170.1
8.68667500 0.040408 -169.9 0.999157 -79.97 0.999157 -79.97 0.040408 -170.1
8.68668000 0.040415 -169.9 0.999157 -79.97 0.999157 -79.97 0.040414 -170.1
8.68668500 0.040421 -169.9 0.999156 -79.97 0.999156 -79.97 0.040421 -170.1
8.68669000 0.040427 -169.9 0.999156 -79.97 0.999156 -79.97 0.040427 -170.1
8.68669500 0.040434 -169.9 0.999156 -79.97 0.999156 -79.97 0.040433 -170.1
8.68670000 0.040440 -169.9 0.999156 -79.97 0.999156 -79.97 0.040440 -170.1
8.68670500 0.040446 -169.9 0.999155 -79.97 0.999155 -79.97 0.040446 -170.1
8.68671000 0.040453 -169.9 0.999155 -79.97 0.999155 -79.97 0.040452 -170.1
8.68671500 0.040459 -169.9 0.999155 -79.97 0.999155 -79.97 0.040459 -170.1
8.68672000 0.040465 -169.9 0.999154 -79.97 0.999154 -79.97 0.040465 -170.1
8.68672500 0.040472 -169.9 0.999154 -79.97 0.999154 -79.97 0.040471 -170.1
8.68673000 0.040478 -169.9 0.999154 -79.97 0.999154 -79.97 0.040478 -170.1
8.68673500 0.040484 -169.9 0.999154 -79.97 0.999154 -79.97 0.040484 -170.1
8.68674000 0.040491 -169.9 0.999153 -79.97 0.999153 -79.97 0.040491 -170.1
8.68674500 0.040497 -169.9 0.999153 -79.97 0.999153 -79.97 0.040497 -170.1
8.68675000 0.040504 -169.9 0.999153 -79.97 0.999153 -79.97 0.040503 -170.1
8.68675500 0.040510 -169.9 0.999152 -79.97 0.999152 -79.97 0.040510 -170.1
8.68676000 0.040516 -169.9 0.999152 -79.97 0.999152 -79.97 0.040516 -170.1
8.68676500 0.040523 -169.9 0.999152 -79.97 0.999152 -79.97 0.040523 -170.1
8.68677000 0.040529 -169.9 0.999151 -79.97 0.999151 -79.97 0.040529 -170.1
8.68677500 0.040536 -169.9 0.999151 -79.97 0.999151 -79.97 0.040536 -170.1
8.68678000 0.040542 -169.9 0.999151 -79.97 0.999151 -79.97 0.040542 -170.1
8.68678500 0.040549 -169.9 0.999151 -79.98 0.999151 -79.98 0.040549 -170.1
8.68679000 0.040555 -169.9 0.999150 -79.98 0.999150 -79.98 0.040555 -170.1
8.68679500 0.040562 -169.9 0.999150 -79.98 0.999150 -79.98 0.040562 -170.1
8.68680000 0.040568 -169.9 0.999150 -79.98 0.999150 -79.98 0.040568 -170.1
8.68680500 0.040575 -169.9 0.999149 -79.98 0.999149 -79.98 0.040575 -170.1
8.68681000 0.040581 -169.9 0.999149 -79.98 0.999149 -79.98 0.040581 -170.1
8.68681500 0.040588 -169.9 0.999149 -79.98 0.999149 -79.98 0.040588 -170.1
8.68682000 0.040594 -169.9 0.999148 -79.98 0.999148 -79.98 0.040594 -170.1
8.68682500 0.040601 -169.9 0.999148 -79.98 0.999148 -79.98 0.040601 -170.1
8.68683000 0.040607 -169.9 0.999148 -79.98 0.999148 -79.98 0.040607 -170.1
8.68683500 0.040614 -169.9 0.999148 -79.98 0.999148 -79.98 0.040614 -170.1
8.68684000 0.040621 -169.9 0.999147 -79.98 0.999147 -79.98 0.040620 -170.2
8.68684500 0.040627 -169.9 0.999147 -79.98 0.999147 -79.98 0.040627 -170.2
8.68685000 0.040634 -169.9 0.999147 -79.98 0.999147 -79.98 0.040634 -170.2
8.68685500 0.040640 -169.9 0.999146 -79.98 0.999146 -79.98 0.040640 -170.2
8.68686000 0.040647 -169.9 0.999146 -79.98 0.999146 -79.98 0.040647 -170.2
8.68686500 0.040654 -169.9 0.999146 -79.98 0.999146 -79.98 0.040653 -170.2
8.68687000 0.040660 -169.9 0.999145 -79.98 0.999145 -79.98 0.040660 -170.2
8.68687500 0.040667 -169.9 0.999145 -79.98 0.999145 -79.98 0.040667 -170.2
8.68688000 0.040674 -169.9 0.999145 -79.98 0.999145 -79.98 0.040673 -170.2
8.68688500 0.040680 -169.9 0.999145 -79.98 0.999145 -79.98 0.040680 -170.2
8.68689000 0.040687 -169.9 0.999144 -79.98 0.999144 -79.98 0.040687 -170.2
8.68689500 0.040694 -169.9 0.999144 -79.98 0.999144 -79.98 0.040693 -170.2
8.68690000 0.040700 -169.9 0.999144 -79.98 0.999144 -79.98 0.040700 -170.2
8.68690500 0.040707 -169.9 0.999143 -79.99 0.999143 -79.99 0.040707 -170.2
8.68691000 0.040714 -169.9 0.999143 -79.99 0.999143 -79.99 0.040714 -170.2
8.68691500 0.040720 -169.9 0.999143 -79.99 0.999143 -79.99 0.040720 -170.2
8.68692000 0.040727 -169.9 0.999142 -79.99 0.999142 -79.99 0.040727 -170.2
8.68692500 0.040734 -169.9 0.999142 -79.99 0.999142 -79.99 0.040734 -170.2
8.68693000 0.040741 -169.9 0.999142 -79.99 0.999142 -79.99 0.040740 -170.2
8.68693500 0.040747 -169.9 0.999141 -79.99 0.999141 -79.99 0.040747 -170.2
8.68694000 0.040754 -169.9 0.999141 -79.99 0.999141 -79.99 0.040754 -170.2
8.68694500 0.040761 -169.9 0.999141 -79.99 0.999141 -79.99 0.040761 -170.2
8.68695000 0.040768 -169.9 0.999141 -79.99 0.999141 -79.99 0.040768 -170.2
8.68695500 0.040775 -169.9 0.999140 -79.99 0.999140 -79.99 0.040774 -170.2