! Sonnet Data File
! From: emgraph Version : 16.52
! From Project: Qubit_Xmon2_brg_para
! Data is De-embedded 
! Data File Written: 10/25/2017 15:52:26
!< HDATE 10/25/2017 13:56:11
!< MDATE 10/25/2017 13:56:11
!< PARAMS
!< Lj = 11.0
!< Gap = 6.0
!< Pwid = 2000.0
!< Airgap = 6.0
!< Width = 10.0
!< Bwid = 8.0
!< Dis1 = 850.0
!< Dis2 = 856.0
!< END PARAMS
# GHZ S MA R 51.80000
8.76000000 0.003304 -169.8 0.999990 -80.39 0.999990 -80.39 0.003304 -171.1
!< P1 F=8.76 Eeff=(6.44679147 -2.9786e-5) Z0=(51.7991429 1.19067e-4) R=0.0 C=0.0 
!< P2 F=8.76 Eeff=(6.44679147 -2.9786e-5) Z0=(51.7991429 1.19067e-4) R=0.0 C=0.0 
8.76002000 0.003305 -169.8 0.999990 -80.39 0.999990 -80.39 0.003305 -171.1
8.76004000 0.003306 -169.8 0.999990 -80.39 0.999990 -80.39 0.003306 -171.1
8.76006000 0.003307 -169.8 0.999990 -80.39 0.999990 -80.39 0.003307 -171.1
8.76008000 0.003308 -169.8 0.999990 -80.39 0.999990 -80.39 0.003308 -171.1
8.76010000 0.003309 -169.8 0.999990 -80.39 0.999990 -80.39 0.003309 -171.1
8.76012000 0.003310 -169.8 0.999990 -80.39 0.999990 -80.39 0.003310 -171.1
8.76014000 0.003311 -169.8 0.999990 -80.39 0.999990 -80.39 0.003311 -171.1
8.76016000 0.003312 -169.8 0.999990 -80.39 0.999990 -80.39 0.003312 -171.1
8.76018000 0.003313 -169.8 0.999990 -80.39 0.999990 -80.39 0.003313 -171.1
8.76020000 0.003314 -169.8 0.999990 -80.39 0.999990 -80.39 0.003314 -171.1
8.76022000 0.003314 -169.8 0.999990 -80.39 0.999990 -80.39 0.003315 -171.1
8.76024000 0.003315 -169.8 0.999990 -80.39 0.999990 -80.39 0.003315 -171.1
8.76026000 0.003316 -169.8 0.999990 -80.39 0.999990 -80.39 0.003316 -171.1
8.76028000 0.003317 -169.8 0.999990 -80.39 0.999990 -80.39 0.003317 -171.1
8.76030000 0.003318 -169.8 0.999990 -80.39 0.999990 -80.39 0.003318 -171.1
8.76032000 0.003319 -169.8 0.999990 -80.39 0.999990 -80.39 0.003319 -171.1
8.76034000 0.003320 -169.8 0.999990 -80.39 0.999990 -80.39 0.003320 -171.1
8.76036000 0.003321 -169.8 0.999990 -80.39 0.999990 -80.39 0.003321 -171.1
8.76038000 0.003322 -169.8 0.999990 -80.39 0.999990 -80.39 0.003322 -171.1
8.76040000 0.003323 -169.8 0.999990 -80.39 0.999990 -80.39 0.003323 -171.1
8.76042000 0.003324 -169.8 0.999990 -80.39 0.999990 -80.39 0.003324 -171.1
8.76044000 0.003325 -169.8 0.999990 -80.39 0.999990 -80.39 0.003325 -171.1
8.76046000 0.003326 -169.8 0.999990 -80.39 0.999990 -80.39 0.003326 -171.1
8.76048000 0.003327 -169.8 0.999990 -80.39 0.999990 -80.39 0.003327 -171.1
8.76050000 0.003328 -169.8 0.999990 -80.39 0.999990 -80.39 0.003328 -171.1
8.76052000 0.003329 -169.8 0.999990 -80.39 0.999990 -80.39 0.003329 -171.1
8.76054000 0.003330 -169.8 0.999990 -80.39 0.999990 -80.39 0.003330 -171.1
8.76056000 0.003331 -169.8 0.999990 -80.39 0.999990 -80.39 0.003331 -171.1
8.76058000 0.003332 -169.8 0.999990 -80.39 0.999990 -80.39 0.003332 -171.1
8.76060000 0.003333 -169.8 0.999990 -80.39 0.999990 -80.39 0.003333 -171.1
8.76062000 0.003334 -169.8 0.999990 -80.39 0.999990 -80.39 0.003334 -171.1
8.76064000 0.003335 -169.8 0.999990 -80.39 0.999990 -80.39 0.003335 -171.1
8.76066000 0.003336 -169.8 0.999990 -80.39 0.999990 -80.39 0.003336 -171.1
8.76068000 0.003337 -169.8 0.999990 -80.39 0.999990 -80.39 0.003337 -171.1
8.76070000 0.003338 -169.8 0.999990 -80.39 0.999990 -80.39 0.003338 -171.1
8.76072000 0.003339 -169.8 0.999990 -80.39 0.999990 -80.39 0.003339 -171.1
8.76074000 0.003340 -169.8 0.999990 -80.39 0.999990 -80.39 0.003340 -171.1
8.76076000 0.003341 -169.8 0.999990 -80.39 0.999990 -80.39 0.003341 -171.1
8.76078000 0.003342 -169.8 0.999990 -80.39 0.999990 -80.39 0.003342 -171.1
8.76080000 0.003343 -169.8 0.999990 -80.39 0.999990 -80.39 0.003343 -171.1
8.76082000 0.003344 -169.8 0.999990 -80.39 0.999990 -80.39 0.003344 -171.1
8.76084000 0.003345 -169.8 0.999990 -80.40 0.999990 -80.40 0.003345 -171.1
8.76086000 0.003346 -169.8 0.999990 -80.40 0.999990 -80.40 0.003346 -171.1
8.76088000 0.003347 -169.8 0.999990 -80.40 0.999990 -80.40 0.003347 -171.1
8.76090000 0.003348 -169.8 0.999990 -80.40 0.999990 -80.40 0.003348 -171.1
8.76092000 0.003349 -169.8 0.999990 -80.40 0.999990 -80.40 0.003349 -171.1
8.76094000 0.003350 -169.8 0.999990 -80.40 0.999990 -80.40 0.003350 -171.1
8.76096000 0.003351 -169.8 0.999990 -80.40 0.999990 -80.40 0.003351 -171.1
8.76098000 0.003352 -169.8 0.999990 -80.40 0.999990 -80.40 0.003352 -171.1
8.76100000 0.003353 -169.8 0.999990 -80.40 0.999990 -80.40 0.003353 -171.1
8.76102000 0.003354 -169.8 0.999990 -80.40 0.999990 -80.40 0.003354 -171.1
8.76104000 0.003355 -169.8 0.999990 -80.40 0.999990 -80.40 0.003355 -171.1
8.76106000 0.003356 -169.8 0.999990 -80.40 0.999990 -80.40 0.003356 -171.1
8.76108000 0.003357 -169.8 0.999990 -80.40 0.999990 -80.40 0.003357 -171.1
8.76110000 0.003358 -169.8 0.999990 -80.40 0.999990 -80.40 0.003358 -171.1
8.76112000 0.003359 -169.8 0.999990 -80.40 0.999990 -80.40 0.003359 -171.1
8.76114000 0.003360 -169.8 0.999990 -80.40 0.999990 -80.40 0.003360 -171.1
8.76116000 0.003361 -169.8 0.999990 -80.40 0.999990 -80.40 0.003361 -171.1
8.76118000 0.003362 -169.8 0.999990 -80.40 0.999990 -80.40 0.003362 -171.1
8.76120000 0.003363 -169.8 0.999990 -80.40 0.999990 -80.40 0.003363 -171.1
8.76122000 0.003364 -169.8 0.999990 -80.40 0.999990 -80.40 0.003364 -171.1
8.76124000 0.003365 -169.8 0.999990 -80.40 0.999990 -80.40 0.003365 -171.1
8.76126000 0.003366 -169.8 0.999990 -80.40 0.999990 -80.40 0.003366 -171.1
8.76128000 0.003367 -169.8 0.999990 -80.40 0.999990 -80.40 0.003367 -171.1
8.76130000 0.003368 -169.8 0.999990 -80.40 0.999990 -80.40 0.003368 -171.1
8.76132000 0.003369 -169.8 0.999990 -80.40 0.999990 -80.40 0.003369 -171.1
8.76134000 0.003370 -169.8 0.999990 -80.40 0.999990 -80.40 0.003370 -171.1
8.76136000 0.003371 -169.8 0.999990 -80.40 0.999990 -80.40 0.003371 -171.1
8.76138000 0.003372 -169.8 0.999990 -80.40 0.999990 -80.40 0.003372 -171.1
8.76140000 0.003373 -169.8 0.999990 -80.40 0.999990 -80.40 0.003373 -171.1
8.76142000 0.003374 -169.8 0.999990 -80.40 0.999990 -80.40 0.003374 -171.1
8.76144000 0.003375 -169.8 0.999990 -80.40 0.999990 -80.40 0.003375 -171.1
8.76146000 0.003376 -169.8 0.999990 -80.40 0.999990 -80.40 0.003376 -171.1
8.76148000 0.003377 -169.8 0.999990 -80.40 0.999990 -80.40 0.003377 -171.1
8.76150000 0.003378 -169.8 0.999990 -80.40 0.999990 -80.40 0.003378 -171.1
8.76152000 0.003379 -169.8 0.999990 -80.40 0.999990 -80.40 0.003379 -171.1
8.76154000 0.003380 -169.8 0.999990 -80.40 0.999990 -80.40 0.003380 -171.1
8.76156000 0.003381 -169.8 0.999990 -80.40 0.999990 -80.40 0.003381 -171.1
8.76158000 0.003382 -169.8 0.999990 -80.40 0.999990 -80.40 0.003382 -171.1
8.76160000 0.003383 -169.8 0.999990 -80.40 0.999990 -80.40 0.003383 -171.1
8.76162000 0.003384 -169.8 0.999990 -80.40 0.999990 -80.40 0.003385 -171.1
8.76164000 0.003386 -169.8 0.999990 -80.40 0.999990 -80.40 0.003386 -171.1
8.76166000 0.003387 -169.8 0.999990 -80.41 0.999990 -80.41 0.003387 -171.1
8.76168000 0.003388 -169.8 0.999990 -80.41 0.999990 -80.41 0.003388 -171.1
8.76170000 0.003389 -169.8 0.999990 -80.41 0.999990 -80.41 0.003389 -171.1
8.76172000 0.003390 -169.8 0.999990 -80.41 0.999990 -80.41 0.003390 -171.1
8.76174000 0.003391 -169.8 0.999990 -80.41 0.999990 -80.41 0.003391 -171.1
8.76176000 0.003392 -169.8 0.999990 -80.41 0.999990 -80.41 0.003392 -171.1
8.76178000 0.003393 -169.8 0.999990 -80.41 0.999990 -80.41 0.003393 -171.1
8.76180000 0.003394 -169.8 0.999990 -80.41 0.999990 -80.41 0.003394 -171.1
8.76182000 0.003395 -169.8 0.999990 -80.41 0.999990 -80.41 0.003395 -171.1
8.76184000 0.003396 -169.8 0.999990 -80.41 0.999990 -80.41 0.003396 -171.1
8.76186000 0.003397 -169.8 0.999990 -80.41 0.999990 -80.41 0.003397 -171.1
8.76188000 0.003398 -169.8 0.999990 -80.41 0.999990 -80.41 0.003398 -171.1
8.76190000 0.003399 -169.8 0.999990 -80.41 0.999990 -80.41 0.003399 -171.1
8.76192000 0.003400 -169.8 0.999990 -80.41 0.999990 -80.41 0.003400 -171.1
8.76194000 0.003401 -169.8 0.999990 -80.41 0.999990 -80.41 0.003401 -171.1
8.76196000 0.003402 -169.8 0.999990 -80.41 0.999990 -80.41 0.003402 -171.1
8.76198000 0.003403 -169.8 0.999990 -80.41 0.999990 -80.41 0.003403 -171.1
8.76200000 0.003404 -169.8 0.999990 -80.41 0.999990 -80.41 0.003404 -171.1
8.76202000 0.003405 -169.8 0.999990 -80.41 0.999990 -80.41 0.003406 -171.1
8.76204000 0.003407 -169.8 0.999990 -80.41 0.999990 -80.41 0.003407 -171.1
8.76206000 0.003408 -169.8 0.999990 -80.41 0.999990 -80.41 0.003408 -171.1
8.76208000 0.003409 -169.8 0.999990 -80.41 0.999990 -80.41 0.003409 -171.1
8.76210000 0.003410 -169.8 0.999990 -80.41 0.999990 -80.41 0.003410 -171.1
8.76212000 0.003411 -169.8 0.999990 -80.41 0.999990 -80.41 0.003411 -171.1
8.76214000 0.003412 -169.8 0.999990 -80.41 0.999990 -80.41 0.003412 -171.1
8.76216000 0.003413 -169.8 0.999990 -80.41 0.999990 -80.41 0.003413 -171.1
8.76218000 0.003414 -169.8 0.999990 -80.41 0.999990 -80.41 0.003414 -171.1
8.76220000 0.003415 -169.8 0.999990 -80.41 0.999990 -80.41 0.003415 -171.1
8.76222000 0.003416 -169.8 0.999990 -80.41 0.999990 -80.41 0.003416 -171.1
8.76224000 0.003417 -169.8 0.999990 -80.41 0.999990 -80.41 0.003417 -171.1
8.76226000 0.003418 -169.8 0.999990 -80.41 0.999990 -80.41 0.003418 -171.1
8.76228000 0.003419 -169.8 0.999990 -80.41 0.999990 -80.41 0.003419 -171.1
8.76230000 0.003420 -169.8 0.999990 -80.41 0.999990 -80.41 0.003420 -171.1
8.76232000 0.003422 -169.8 0.999990 -80.41 0.999990 -80.41 0.003422 -171.1
8.76234000 0.003423 -169.8 0.999990 -80.41 0.999990 -80.41 0.003423 -171.2
8.76236000 0.003424 -169.8 0.999990 -80.41 0.999990 -80.41 0.003424 -171.2
8.76238000 0.003425 -169.8 0.999990 -80.41 0.999990 -80.41 0.003425 -171.2
8.76240000 0.003426 -169.8 0.999990 -80.41 0.999990 -80.41 0.003426 -171.2
8.76242000 0.003427 -169.8 0.999990 -80.41 0.999990 -80.41 0.003427 -171.2
8.76244000 0.003428 -169.8 0.999990 -80.41 0.999990 -80.41 0.003428 -171.2
8.76246000 0.003429 -169.8 0.999990 -80.41 0.999990 -80.41 0.003429 -171.2
8.76248000 0.003430 -169.8 0.999990 -80.42 0.999990 -80.42 0.003430 -171.2
8.76250000 0.003431 -169.8 0.999990 -80.42 0.999990 -80.42 0.003431 -171.2
8.76252000 0.003432 -169.8 0.999990 -80.42 0.999990 -80.42 0.003432 -171.2
8.76254000 0.003433 -169.8 0.999990 -80.42 0.999990 -80.42 0.003433 -171.2
8.76256000 0.003435 -169.8 0.999990 -80.42 0.999990 -80.42 0.003435 -171.2
8.76258000 0.003436 -169.8 0.999990 -80.42 0.999990 -80.42 0.003436 -171.2
8.76260000 0.003437 -169.8 0.999990 -80.42 0.999990 -80.42 0.003437 -171.2
8.76262000 0.003438 -169.8 0.999990 -80.42 0.999990 -80.42 0.003438 -171.2
8.76264000 0.003439 -169.8 0.999990 -80.42 0.999990 -80.42 0.003439 -171.2
8.76266000 0.003440 -169.8 0.999990 -80.42 0.999990 -80.42 0.003440 -171.2
8.76268000 0.003441 -169.8 0.999990 -80.42 0.999990 -80.42 0.003441 -171.2
8.76270000 0.003442 -169.8 0.999990 -80.42 0.999990 -80.42 0.003442 -171.2
8.76272000 0.003443 -169.8 0.999990 -80.42 0.999990 -80.42 0.003443 -171.2
8.76274000 0.003444 -169.8 0.999990 -80.42 0.999990 -80.42 0.003444 -171.2
8.76276000 0.003446 -169.8 0.999990 -80.42 0.999990 -80.42 0.003446 -171.2
8.76278000 0.003447 -169.8 0.999990 -80.42 0.999990 -80.42 0.003447 -171.2
8.76280000 0.003448 -169.8 0.999990 -80.42 0.999990 -80.42 0.003448 -171.2
8.76282000 0.003449 -169.8 0.999990 -80.42 0.999990 -80.42 0.003449 -171.2
8.76284000 0.003450 -169.8 0.999990 -80.42 0.999990 -80.42 0.003450 -171.2
8.76286000 0.003451 -169.8 0.999990 -80.42 0.999990 -80.42 0.003451 -171.2
8.76288000 0.003452 -169.8 0.999990 -80.42 0.999990 -80.42 0.003452 -171.2
8.76290000 0.003453 -169.8 0.999990 -80.42 0.999990 -80.42 0.003453 -171.2
8.76292000 0.003454 -169.8 0.999990 -80.42 0.999990 -80.42 0.003454 -171.2
8.76294000 0.003456 -169.8 0.999990 -80.42 0.999990 -80.42 0.003456 -171.2
8.76296000 0.003457 -169.8 0.999990 -80.42 0.999990 -80.42 0.003457 -171.2
8.76298000 0.003458 -169.8 0.999990 -80.42 0.999990 -80.42 0.003458 -171.2
8.76300000 0.003459 -169.8 0.999990 -80.42 0.999990 -80.42 0.003459 -171.2
8.76302000 0.003460 -169.8 0.999990 -80.42 0.999990 -80.42 0.003460 -171.2
8.76304000 0.003461 -169.8 0.999990 -80.42 0.999990 -80.42 0.003461 -171.2
8.76306000 0.003462 -169.8 0.999990 -80.42 0.999990 -80.42 0.003462 -171.2
8.76308000 0.003463 -169.8 0.999990 -80.42 0.999990 -80.42 0.003463 -171.2
8.76310000 0.003464 -169.8 0.999990 -80.42 0.999990 -80.42 0.003465 -171.2
8.76312000 0.003466 -169.8 0.999990 -80.42 0.999990 -80.42 0.003466 -171.2
8.76314000 0.003467 -169.8 0.999990 -80.42 0.999990 -80.42 0.003467 -171.2
8.76316000 0.003468 -169.8 0.999990 -80.42 0.999990 -80.42 0.003468 -171.2
8.76318000 0.003469 -169.8 0.999990 -80.42 0.999990 -80.42 0.003469 -171.2
8.76320000 0.003470 -169.8 0.999990 -80.42 0.999990 -80.42 0.003470 -171.2
8.76322000 0.003471 -169.8 0.999990 -80.42 0.999990 -80.42 0.003471 -171.2
8.76324000 0.003472 -169.8 0.999990 -80.42 0.999990 -80.42 0.003472 -171.2
8.76326000 0.003474 -169.8 0.999990 -80.42 0.999990 -80.42 0.003474 -171.2
8.76328000 0.003475 -169.8 0.999990 -80.42 0.999990 -80.42 0.003475 -171.2
8.76330000 0.003476 -169.8 0.999990 -80.43 0.999990 -80.43 0.003476 -171.2
8.76332000 0.003477 -169.8 0.999990 -80.43 0.999990 -80.43 0.003477 -171.2
8.76334000 0.003478 -169.8 0.999990 -80.43 0.999990 -80.43 0.003478 -171.2
8.76336000 0.003479 -169.8 0.999990 -80.43 0.999990 -80.43 0.003479 -171.2
8.76338000 0.003480 -169.8 0.999990 -80.43 0.999990 -80.43 0.003480 -171.2
8.76340000 0.003482 -169.8 0.999990 -80.43 0.999990 -80.43 0.003482 -171.2
8.76342000 0.003483 -169.8 0.999990 -80.43 0.999990 -80.43 0.003483 -171.2
8.76344000 0.003484 -169.8 0.999990 -80.43 0.999990 -80.43 0.003484 -171.2
8.76346000 0.003485 -169.8 0.999990 -80.43 0.999990 -80.43 0.003485 -171.2
8.76348000 0.003486 -169.8 0.999990 -80.43 0.999990 -80.43 0.003486 -171.2
8.76350000 0.003487 -169.8 0.999990 -80.43 0.999990 -80.43 0.003487 -171.2
8.76352000 0.003488 -169.8 0.999990 -80.43 0.999990 -80.43 0.003488 -171.2
8.76354000 0.003490 -169.8 0.999990 -80.43 0.999990 -80.43 0.003490 -171.2
8.76356000 0.003491 -169.8 0.999990 -80.43 0.999990 -80.43 0.003491 -171.2
8.76358000 0.003492 -169.8 0.999990 -80.43 0.999990 -80.43 0.003492 -171.2
8.76360000 0.003493 -169.8 0.999990 -80.43 0.999990 -80.43 0.003493 -171.2
8.76362000 0.003494 -169.8 0.999990 -80.43 0.999990 -80.43 0.003494 -171.2
8.76364000 0.003495 -169.8 0.999990 -80.43 0.999990 -80.43 0.003495 -171.2
8.76366000 0.003497 -169.8 0.999990 -80.43 0.999990 -80.43 0.003497 -171.2
8.76368000 0.003498 -169.8 0.999990 -80.43 0.999990 -80.43 0.003498 -171.2
8.76370000 0.003499 -169.8 0.999990 -80.43 0.999990 -80.43 0.003499 -171.2
8.76372000 0.003500 -169.8 0.999990 -80.43 0.999990 -80.43 0.003500 -171.2
8.76374000 0.003501 -169.8 0.999990 -80.43 0.999990 -80.43 0.003501 -171.2
8.76376000 0.003502 -169.8 0.999990 -80.43 0.999990 -80.43 0.003502 -171.2
8.76378000 0.003504 -169.8 0.999990 -80.43 0.999990 -80.43 0.003504 -171.2
8.76380000 0.003505 -169.8 0.999990 -80.43 0.999990 -80.43 0.003505 -171.2
8.76382000 0.003506 -169.8 0.999990 -80.43 0.999990 -80.43 0.003506 -171.2
8.76384000 0.003507 -169.8 0.999990 -80.43 0.999990 -80.43 0.003507 -171.2
8.76386000 0.003508 -169.8 0.999990 -80.43 0.999990 -80.43 0.003508 -171.2
8.76388000 0.003509 -169.8 0.999990 -80.43 0.999990 -80.43 0.003509 -171.2
8.76390000 0.003511 -169.8 0.999990 -80.43 0.999990 -80.43 0.003511 -171.2
8.76392000 0.003512 -169.8 0.999990 -80.43 0.999990 -80.43 0.003512 -171.2
8.76394000 0.003513 -169.8 0.999990 -80.43 0.999990 -80.43 0.003513 -171.2
8.76396000 0.003514 -169.8 0.999990 -80.43 0.999990 -80.43 0.003514 -171.2
8.76398000 0.003515 -169.8 0.999989 -80.43 0.999989 -80.43 0.003515 -171.2
8.76400000 0.003517 -169.8 0.999989 -80.43 0.999989 -80.43 0.003517 -171.2
8.76402000 0.003518 -169.8 0.999989 -80.43 0.999989 -80.43 0.003518 -171.2
8.76404000 0.003519 -169.8 0.999989 -80.43 0.999989 -80.43 0.003519 -171.2
8.76406000 0.003520 -169.8 0.999989 -80.43 0.999989 -80.43 0.003520 -171.2
8.76408000 0.003521 -169.8 0.999989 -80.43 0.999989 -80.43 0.003521 -171.2
8.76410000 0.003522 -169.8 0.999989 -80.44 0.999989 -80.44 0.003523 -171.2
8.76412000 0.003524 -169.8 0.999989 -80.44 0.999989 -80.44 0.003524 -171.2
8.76414000 0.003525 -169.8 0.999989 -80.44 0.999989 -80.44 0.003525 -171.2
8.76416000 0.003526 -169.8 0.999989 -80.44 0.999989 -80.44 0.003526 -171.2
8.76418000 0.003527 -169.8 0.999989 -80.44 0.999989 -80.44 0.003527 -171.2
8.76420000 0.003528 -169.8 0.999989 -80.44 0.999989 -80.44 0.003528 -171.2
8.76422000 0.003530 -169.8 0.999989 -80.44 0.999989 -80.44 0.003530 -171.2
8.76424000 0.003531 -169.8 0.999989 -80.44 0.999989 -80.44 0.003531 -171.2
8.76426000 0.003532 -169.8 0.999989 -80.44 0.999989 -80.44 0.003532 -171.2
8.76428000 0.003533 -169.8 0.999989 -80.44 0.999989 -80.44 0.003533 -171.2
8.76430000 0.003534 -169.8 0.999989 -80.44 0.999989 -80.44 0.003535 -171.2
8.76432000 0.003536 -169.8 0.999989 -80.44 0.999989 -80.44 0.003536 -171.2
8.76434000 0.003537 -169.8 0.999989 -80.44 0.999989 -80.44 0.003537 -171.2
8.76436000 0.003538 -169.8 0.999989 -80.44 0.999989 -80.44 0.003538 -171.2
8.76438000 0.003539 -169.8 0.999989 -80.44 0.999989 -80.44 0.003539 -171.2
8.76440000 0.003541 -169.8 0.999989 -80.44 0.999989 -80.44 0.003541 -171.2
8.76442000 0.003542 -169.8 0.999989 -80.44 0.999989 -80.44 0.003542 -171.2
8.76444000 0.003543 -169.8 0.999989 -80.44 0.999989 -80.44 0.003543 -171.2
8.76446000 0.003544 -169.8 0.999989 -80.44 0.999989 -80.44 0.003544 -171.2
8.76448000 0.003545 -169.8 0.999989 -80.44 0.999989 -80.44 0.003545 -171.2
8.76450000 0.003547 -169.8 0.999989 -80.44 0.999989 -80.44 0.003547 -171.2
8.76452000 0.003548 -169.8 0.999989 -80.44 0.999989 -80.44 0.003548 -171.2
8.76454000 0.003549 -169.8 0.999989 -80.44 0.999989 -80.44 0.003549 -171.2
8.76456000 0.003550 -169.8 0.999989 -80.44 0.999989 -80.44 0.003550 -171.2
8.76458000 0.003551 -169.8 0.999989 -80.44 0.999989 -80.44 0.003552 -171.2
8.76460000 0.003553 -169.8 0.999989 -80.44 0.999989 -80.44 0.003553 -171.2
8.76462000 0.003554 -169.8 0.999989 -80.44 0.999989 -80.44 0.003554 -171.2
8.76464000 0.003555 -169.8 0.999989 -80.44 0.999989 -80.44 0.003555 -171.2
8.76466000 0.003556 -169.8 0.999989 -80.44 0.999989 -80.44 0.003556 -171.2
8.76468000 0.003558 -169.8 0.999989 -80.44 0.999989 -80.44 0.003558 -171.2
8.76470000 0.003559 -169.8 0.999989 -80.44 0.999989 -80.44 0.003559 -171.2
8.76472000 0.003560 -169.8 0.999989 -80.44 0.999989 -80.44 0.003560 -171.2
8.76474000 0.003561 -169.8 0.999989 -80.44 0.999989 -80.44 0.003561 -171.2
8.76476000 0.003563 -169.8 0.999989 -80.44 0.999989 -80.44 0.003563 -171.2
8.76478000 0.003564 -169.8 0.999989 -80.44 0.999989 -80.44 0.003564 -171.2
8.76480000 0.003565 -169.8 0.999989 -80.44 0.999989 -80.44 0.003565 -171.2
8.76482000 0.003566 -169.8 0.999989 -80.44 0.999989 -80.44 0.003566 -171.2
8.76484000 0.003568 -169.8 0.999989 -80.44 0.999989 -80.44 0.003568 -171.2
8.76486000 0.003569 -169.8 0.999989 -80.44 0.999989 -80.44 0.003569 -171.2
8.76488000 0.003570 -169.8 0.999989 -80.45 0.999989 -80.45 0.003570 -171.2
8.76490000 0.003571 -169.8 0.999989 -80.45 0.999989 -80.45 0.003571 -171.2
8.76492000 0.003573 -169.8 0.999989 -80.45 0.999989 -80.45 0.003573 -171.2
8.76494000 0.003574 -169.8 0.999989 -80.45 0.999989 -80.45 0.003574 -171.2
8.76496000 0.003575 -169.8 0.999989 -80.45 0.999989 -80.45 0.003575 -171.2
8.76498000 0.003576 -169.8 0.999989 -80.45 0.999989 -80.45 0.003576 -171.2
8.76500000 0.003578 -169.8 0.999989 -80.45 0.999989 -80.45 0.003578 -171.2
8.76502000 0.003579 -169.8 0.999989 -80.45 0.999989 -80.45 0.003579 -171.2
8.76504000 0.003580 -169.8 0.999989 -80.45 0.999989 -80.45 0.003580 -171.2
8.76506000 0.003581 -169.8 0.999989 -80.45 0.999989 -80.45 0.003581 -171.2
8.76508000 0.003583 -169.8 0.999989 -80.45 0.999989 -80.45 0.003583 -171.2
8.76510000 0.003584 -169.8 0.999989 -80.45 0.999989 -80.45 0.003584 -171.2
8.76512000 0.003585 -169.8 0.999989 -80.45 0.999989 -80.45 0.003585 -171.2
8.76514000 0.003586 -169.8 0.999989 -80.45 0.999989 -80.45 0.003586 -171.2
8.76516000 0.003588 -169.8 0.999989 -80.45 0.999989 -80.45 0.003588 -171.2
8.76518000 0.003589 -169.8 0.999989 -80.45 0.999989 -80.45 0.003589 -171.2
8.76520000 0.003590 -169.8 0.999989 -80.45 0.999989 -80.45 0.003590 -171.2
8.76522000 0.003592 -169.8 0.999989 -80.45 0.999989 -80.45 0.003592 -171.2
8.76524000 0.003593 -169.8 0.999989 -80.45 0.999989 -80.45 0.003593 -171.2
8.76526000 0.003594 -169.8 0.999989 -80.45 0.999989 -80.45 0.003594 -171.2
8.76528000 0.003595 -169.8 0.999989 -80.45 0.999989 -80.45 0.003595 -171.2
8.76530000 0.003597 -169.8 0.999989 -80.45 0.999989 -80.45 0.003597 -171.2
8.76532000 0.003598 -169.8 0.999989 -80.45 0.999989 -80.45 0.003598 -171.2
8.76534000 0.003599 -169.8 0.999989 -80.45 0.999989 -80.45 0.003599 -171.2
8.76536000 0.003600 -169.8 0.999989 -80.45 0.999989 -80.45 0.003601 -171.2
8.76538000 0.003602 -169.8 0.999989 -80.45 0.999989 -80.45 0.003602 -171.2
8.76540000 0.003603 -169.8 0.999989 -80.45 0.999989 -80.45 0.003603 -171.2
8.76542000 0.003604 -169.8 0.999989 -80.45 0.999989 -80.45 0.003604 -171.2
8.76544000 0.003606 -169.8 0.999989 -80.45 0.999989 -80.45 0.003606 -171.2
8.76546000 0.003607 -169.8 0.999989 -80.45 0.999989 -80.45 0.003607 -171.2
8.76548000 0.003608 -169.8 0.999989 -80.45 0.999989 -80.45 0.003608 -171.2
8.76550000 0.003610 -169.8 0.999989 -80.45 0.999989 -80.45 0.003610 -171.2
8.76552000 0.003611 -169.8 0.999989 -80.45 0.999989 -80.45 0.003611 -171.2
8.76554000 0.003612 -169.8 0.999989 -80.45 0.999989 -80.45 0.003612 -171.2
8.76556000 0.003613 -169.8 0.999989 -80.45 0.999989 -80.45 0.003613 -171.2
8.76558000 0.003615 -169.8 0.999989 -80.45 0.999989 -80.45 0.003615 -171.2
8.76560000 0.003616 -169.8 0.999989 -80.45 0.999989 -80.45 0.003616 -171.2
8.76562000 0.003617 -169.8 0.999989 -80.45 0.999989 -80.45 0.003617 -171.2
8.76564000 0.003619 -169.8 0.999989 -80.45 0.999989 -80.45 0.003619 -171.2
8.76566000 0.003620 -169.8 0.999989 -80.46 0.999989 -80.46 0.003620 -171.2
8.76568000 0.003621 -169.8 0.999989 -80.46 0.999989 -80.46 0.003621 -171.2
8.76570000 0.003623 -169.8 0.999989 -80.46 0.999989 -80.46 0.003623 -171.2
8.76572000 0.003624 -169.8 0.999989 -80.46 0.999989 -80.46 0.003624 -171.2
8.76574000 0.003625 -169.8 0.999989 -80.46 0.999989 -80.46 0.003625 -171.2
8.76576000 0.003626 -169.8 0.999989 -80.46 0.999989 -80.46 0.003627 -171.2
8.76578000 0.003628 -169.8 0.999989 -80.46 0.999989 -80.46 0.003628 -171.2
8.76580000 0.003629 -169.8 0.999989 -80.46 0.999989 -80.46 0.003629 -171.2
8.76582000 0.003630 -169.8 0.999989 -80.46 0.999989 -80.46 0.003631 -171.2
8.76584000 0.003632 -169.8 0.999989 -80.46 0.999989 -80.46 0.003632 -171.2
8.76586000 0.003633 -169.8 0.999989 -80.46 0.999989 -80.46 0.003633 -171.2
8.76588000 0.003634 -169.8 0.999989 -80.46 0.999989 -80.46 0.003634 -171.2
8.76590000 0.003636 -169.8 0.999989 -80.46 0.999989 -80.46 0.003636 -171.2
8.76592000 0.003637 -169.8 0.999989 -80.46 0.999989 -80.46 0.003637 -171.2
8.76594000 0.003638 -169.8 0.999989 -80.46 0.999989 -80.46 0.003638 -171.2
8.76596000 0.003640 -169.8 0.999989 -80.46 0.999989 -80.46 0.003640 -171.2
8.76598000 0.003641 -169.8 0.999989 -80.46 0.999989 -80.46 0.003641 -171.2
8.76600000 0.003642 -169.8 0.999989 -80.46 0.999989 -80.46 0.003642 -171.2
8.76602000 0.003644 -169.8 0.999989 -80.46 0.999989 -80.46 0.003644 -171.2
8.76604000 0.003645 -169.8 0.999989 -80.46 0.999989 -80.46 0.003645 -171.2
8.76606000 0.003646 -169.8 0.999989 -80.46 0.999989 -80.46 0.003646 -171.2
8.76608000 0.003648 -169.8 0.999989 -80.46 0.999989 -80.46 0.003648 -171.2
8.76610000 0.003649 -169.8 0.999989 -80.46 0.999989 -80.46 0.003649 -171.2
8.76612000 0.003650 -169.8 0.999989 -80.46 0.999989 -80.46 0.003651 -171.2
8.76614000 0.003652 -169.8 0.999989 -80.46 0.999989 -80.46 0.003652 -171.2
8.76616000 0.003653 -169.8 0.999989 -80.46 0.999989 -80.46 0.003653 -171.2
8.76618000 0.003655 -169.8 0.999989 -80.46 0.999989 -80.46 0.003655 -171.2
8.76620000 0.003656 -169.8 0.999989 -80.46 0.999989 -80.46 0.003656 -171.2
8.76622000 0.003657 -169.8 0.999989 -80.46 0.999989 -80.46 0.003657 -171.2
8.76624000 0.003659 -169.8 0.999989 -80.46 0.999989 -80.46 0.003659 -171.2
8.76626000 0.003660 -169.8 0.999989 -80.46 0.999989 -80.46 0.003660 -171.2
8.76628000 0.003661 -169.8 0.999989 -80.46 0.999989 -80.46 0.003661 -171.2
8.76630000 0.003663 -169.8 0.999989 -80.46 0.999989 -80.46 0.003663 -171.2
8.76632000 0.003664 -169.8 0.999989 -80.46 0.999989 -80.46 0.003664 -171.2
8.76634000 0.003665 -169.8 0.999989 -80.46 0.999989 -80.46 0.003665 -171.2
8.76636000 0.003667 -169.8 0.999989 -80.46 0.999989 -80.46 0.003667 -171.2
8.76638000 0.003668 -169.8 0.999989 -80.46 0.999989 -80.46 0.003668 -171.2
8.76640000 0.003669 -169.8 0.999989 -80.46 0.999989 -80.46 0.003670 -171.2
8.76642000 0.003671 -169.8 0.999989 -80.46 0.999989 -80.46 0.003671 -171.2
8.76644000 0.003672 -169.8 0.999989 -80.47 0.999989 -80.47 0.003672 -171.2
8.76646000 0.003674 -169.8 0.999989 -80.47 0.999989 -80.47 0.003674 -171.2
8.76648000 0.003675 -169.8 0.999989 -80.47 0.999989 -80.47 0.003675 -171.2
8.76650000 0.003676 -169.8 0.999989 -80.47 0.999989 -80.47 0.003676 -171.2
8.76652000 0.003678 -169.8 0.999989 -80.47 0.999989 -80.47 0.003678 -171.2
8.76654000 0.003679 -169.8 0.999989 -80.47 0.999989 -80.47 0.003679 -171.2
8.76656000 0.003681 -169.8 0.999989 -80.47 0.999989 -80.47 0.003681 -171.2
8.76658000 0.003682 -169.8 0.999989 -80.47 0.999989 -80.47 0.003682 -171.2
8.76660000 0.003683 -169.8 0.999989 -80.47 0.999989 -80.47 0.003683 -171.2
8.76662000 0.003685 -169.8 0.999989 -80.47 0.999989 -80.47 0.003685 -171.2
8.76664000 0.003686 -169.8 0.999989 -80.47 0.999989 -80.47 0.003686 -171.2
8.76666000 0.003687 -169.8 0.999989 -80.47 0.999989 -80.47 0.003687 -171.2
8.76668000 0.003689 -169.8 0.999989 -80.47 0.999989 -80.47 0.003689 -171.2
8.76670000 0.003690 -169.8 0.999989 -80.47 0.999989 -80.47 0.003690 -171.2
8.76672000 0.003692 -169.8 0.999989 -80.47 0.999989 -80.47 0.003692 -171.2
8.76674000 0.003693 -169.8 0.999989 -80.47 0.999989 -80.47 0.003693 -171.2
8.76676000 0.003694 -169.8 0.999989 -80.47 0.999989 -80.47 0.003694 -171.2
8.76678000 0.003696 -169.8 0.999989 -80.47 0.999989 -80.47 0.003696 -171.2
8.76680000 0.003697 -169.8 0.999989 -80.47 0.999989 -80.47 0.003697 -171.2
8.76682000 0.003699 -169.8 0.999989 -80.47 0.999989 -80.47 0.003699 -171.2
8.76684000 0.003700 -169.8 0.999989 -80.47 0.999989 -80.47 0.003700 -171.2
8.76686000 0.003701 -169.8 0.999989 -80.47 0.999989 -80.47 0.003702 -171.2
8.76688000 0.003703 -169.8 0.999989 -80.47 0.999989 -80.47 0.003703 -171.2
8.76690000 0.003704 -169.8 0.999989 -80.47 0.999989 -80.47 0.003704 -171.2
8.76692000 0.003706 -169.8 0.999989 -80.47 0.999989 -80.47 0.003706 -171.2
8.76694000 0.003707 -169.8 0.999989 -80.47 0.999989 -80.47 0.003707 -171.2
8.76696000 0.003709 -169.8 0.999989 -80.47 0.999989 -80.47 0.003709 -171.2
8.76698000 0.003710 -169.8 0.999989 -80.47 0.999989 -80.47 0.003710 -171.2
8.76700000 0.003711 -169.8 0.999989 -80.47 0.999989 -80.47 0.003711 -171.2
8.76702000 0.003713 -169.8 0.999989 -80.47 0.999989 -80.47 0.003713 -171.2
8.76704000 0.003714 -169.8 0.999989 -80.47 0.999989 -80.47 0.003714 -171.2
8.76706000 0.003716 -169.8 0.999989 -80.47 0.999989 -80.47 0.003716 -171.2
8.76708000 0.003717 -169.8 0.999989 -80.47 0.999989 -80.47 0.003717 -171.2
8.76710000 0.003719 -169.8 0.999989 -80.47 0.999989 -80.47 0.003719 -171.2
8.76712000 0.003720 -169.8 0.999989 -80.47 0.999989 -80.47 0.003720 -171.2
8.76714000 0.003721 -169.8 0.999989 -80.47 0.999989 -80.47 0.003721 -171.2
8.76716000 0.003723 -169.8 0.999989 -80.47 0.999989 -80.47 0.003723 -171.2
8.76718000 0.003724 -169.8 0.999989 -80.48 0.999989 -80.48 0.003724 -171.2
8.76720000 0.003726 -169.8 0.999988 -80.48 0.999988 -80.48 0.003726 -171.2
8.76722000 0.003727 -169.8 0.999988 -80.48 0.999988 -80.48 0.003727 -171.2
8.76724000 0.003729 -169.8 0.999988 -80.48 0.999988 -80.48 0.003729 -171.2
8.76726000 0.003730 -169.8 0.999988 -80.48 0.999988 -80.48 0.003730 -171.2
8.76728000 0.003731 -169.8 0.999988 -80.48 0.999988 -80.48 0.003732 -171.2
8.76730000 0.003733 -169.8 0.999988 -80.48 0.999988 -80.48 0.003733 -171.2
8.76732000 0.003734 -169.8 0.999988 -80.48 0.999988 -80.48 0.003734 -171.2
8.76734000 0.003736 -169.8 0.999988 -80.48 0.999988 -80.48 0.003736 -171.2
8.76736000 0.003737 -169.8 0.999988 -80.48 0.999988 -80.48 0.003737 -171.2
8.76738000 0.003739 -169.8 0.999988 -80.48 0.999988 -80.48 0.003739 -171.2
8.76740000 0.003740 -169.8 0.999988 -80.48 0.999988 -80.48 0.003740 -171.2
8.76742000 0.003742 -169.8 0.999988 -80.48 0.999988 -80.48 0.003742 -171.2
8.76744000 0.003743 -169.8 0.999988 -80.48 0.999988 -80.48 0.003743 -171.2
8.76746000 0.003745 -169.8 0.999988 -80.48 0.999988 -80.48 0.003745 -171.2
8.76748000 0.003746 -169.8 0.999988 -80.48 0.999988 -80.48 0.003746 -171.2
8.76750000 0.003748 -169.8 0.999988 -80.48 0.999988 -80.48 0.003748 -171.2
8.76752000 0.003749 -169.8 0.999988 -80.48 0.999988 -80.48 0.003749 -171.2
8.76754000 0.003750 -169.8 0.999988 -80.48 0.999988 -80.48 0.003751 -171.2
8.76756000 0.003752 -169.8 0.999988 -80.48 0.999988 -80.48 0.003752 -171.2
8.76758000 0.003753 -169.8 0.999988 -80.48 0.999988 -80.48 0.003753 -171.2
8.76760000 0.003755 -169.8 0.999988 -80.48 0.999988 -80.48 0.003755 -171.2
8.76762000 0.003756 -169.8 0.999988 -80.48 0.999988 -80.48 0.003756 -171.2
8.76764000 0.003758 -169.8 0.999988 -80.48 0.999988 -80.48 0.003758 -171.2
8.76766000 0.003759 -169.8 0.999988 -80.48 0.999988 -80.48 0.003759 -171.2
8.76768000 0.003761 -169.8 0.999988 -80.48 0.999988 -80.48 0.003761 -171.2
8.76770000 0.003762 -169.8 0.999988 -80.48 0.999988 -80.48 0.003762 -171.2
8.76772000 0.003764 -169.8 0.999988 -80.48 0.999988 -80.48 0.003764 -171.2
8.76774000 0.003765 -169.8 0.999988 -80.48 0.999988 -80.48 0.003765 -171.2
8.76776000 0.003767 -169.8 0.999988 -80.48 0.999988 -80.48 0.003767 -171.2
8.76778000 0.003768 -169.8 0.999988 -80.48 0.999988 -80.48 0.003768 -171.2
8.76780000 0.003770 -169.8 0.999988 -80.48 0.999988 -80.48 0.003770 -171.2
8.76782000 0.003771 -169.8 0.999988 -80.48 0.999988 -80.48 0.003771 -171.2