! Sonnet Data File
! From: emgraph Version : 16.52
! From Project: Qubit_Xmon2_brg_para
! Data is De-embedded 
! Data File Written: 11/12/2017 19:09:19
!< HDATE 11/12/2017 17:12:30
!< MDATE 11/12/2017 17:12:30
!< PARAMS
!< Lj = 11.0
!< Gap = 6.0
!< Pwid = 2000.0
!< Airgap = 6.0
!< Width = 10.0
!< Bwid = 8.0
!< Dis1 = 650.0
!< Dis2 = 656.0
!< END PARAMS
# GHZ S MA R 51.80000
8.76000000 0.006078 -170.2 0.999977 -80.53 0.999977 -80.53 0.006078 -170.9
!< P1 F=8.76 Eeff=(6.44679139 -2.9786e-5) Z0=(51.7991425 1.19067e-4) R=0.0 C=0.0 
!< P2 F=8.76 Eeff=(6.44679139 -2.9786e-5) Z0=(51.7991425 1.19067e-4) R=0.0 C=0.0 
8.76002000 0.006079 -170.2 0.999977 -80.53 0.999977 -80.53 0.006079 -170.9
8.76004000 0.006080 -170.2 0.999977 -80.53 0.999977 -80.53 0.006080 -170.9
8.76006000 0.006081 -170.2 0.999977 -80.53 0.999977 -80.53 0.006081 -170.9
8.76008000 0.006082 -170.2 0.999977 -80.53 0.999977 -80.53 0.006082 -170.9
8.76010000 0.006083 -170.2 0.999977 -80.53 0.999977 -80.53 0.006083 -170.9
8.76012000 0.006085 -170.2 0.999977 -80.53 0.999977 -80.53 0.006085 -170.9
8.76014000 0.006086 -170.2 0.999977 -80.53 0.999977 -80.53 0.006086 -170.9
8.76016000 0.006087 -170.2 0.999977 -80.53 0.999977 -80.53 0.006087 -170.9
8.76018000 0.006088 -170.2 0.999977 -80.53 0.999977 -80.53 0.006088 -170.9
8.76020000 0.006089 -170.2 0.999977 -80.53 0.999977 -80.53 0.006089 -170.9
8.76022000 0.006090 -170.2 0.999977 -80.53 0.999977 -80.53 0.006090 -170.9
8.76024000 0.006091 -170.2 0.999977 -80.53 0.999977 -80.53 0.006091 -170.9
8.76026000 0.006093 -170.2 0.999977 -80.53 0.999977 -80.53 0.006093 -170.9
8.76028000 0.006094 -170.2 0.999977 -80.53 0.999977 -80.53 0.006094 -170.9
8.76030000 0.006095 -170.2 0.999977 -80.53 0.999977 -80.53 0.006095 -170.9
8.76032000 0.006096 -170.2 0.999977 -80.53 0.999977 -80.53 0.006096 -170.9
8.76034000 0.006097 -170.2 0.999977 -80.53 0.999977 -80.53 0.006097 -170.9
8.76036000 0.006098 -170.2 0.999977 -80.53 0.999977 -80.53 0.006098 -170.9
8.76038000 0.006099 -170.2 0.999977 -80.53 0.999977 -80.53 0.006099 -170.9
8.76040000 0.006101 -170.2 0.999977 -80.53 0.999977 -80.53 0.006101 -170.9
8.76042000 0.006102 -170.2 0.999977 -80.53 0.999977 -80.53 0.006102 -170.9
8.76044000 0.006103 -170.2 0.999977 -80.53 0.999977 -80.53 0.006103 -170.9
8.76046000 0.006104 -170.2 0.999977 -80.53 0.999977 -80.53 0.006104 -170.9
8.76048000 0.006105 -170.2 0.999977 -80.53 0.999977 -80.53 0.006105 -170.9
8.76050000 0.006106 -170.2 0.999977 -80.53 0.999977 -80.53 0.006106 -170.9
8.76052000 0.006108 -170.2 0.999977 -80.53 0.999977 -80.53 0.006108 -170.9
8.76054000 0.006109 -170.2 0.999977 -80.53 0.999977 -80.53 0.006109 -171.0
8.76056000 0.006110 -170.2 0.999977 -80.53 0.999977 -80.53 0.006110 -171.0
8.76058000 0.006111 -170.2 0.999977 -80.53 0.999977 -80.53 0.006111 -171.0
8.76060000 0.006112 -170.2 0.999977 -80.53 0.999977 -80.53 0.006112 -171.0
8.76062000 0.006113 -170.2 0.999977 -80.53 0.999977 -80.53 0.006113 -171.0
8.76064000 0.006115 -170.2 0.999977 -80.53 0.999977 -80.53 0.006115 -171.0
8.76066000 0.006116 -170.2 0.999977 -80.53 0.999977 -80.53 0.006116 -171.0
8.76068000 0.006117 -170.2 0.999977 -80.54 0.999977 -80.54 0.006117 -171.0
8.76070000 0.006118 -170.2 0.999977 -80.54 0.999977 -80.54 0.006118 -171.0
8.76072000 0.006119 -170.2 0.999977 -80.54 0.999977 -80.54 0.006119 -171.0
8.76074000 0.006120 -170.2 0.999977 -80.54 0.999977 -80.54 0.006120 -171.0
8.76076000 0.006122 -170.2 0.999977 -80.54 0.999977 -80.54 0.006122 -171.0
8.76078000 0.006123 -170.2 0.999977 -80.54 0.999977 -80.54 0.006123 -171.0
8.76080000 0.006124 -170.2 0.999977 -80.54 0.999977 -80.54 0.006124 -171.0
8.76082000 0.006125 -170.2 0.999977 -80.54 0.999977 -80.54 0.006125 -171.0
8.76084000 0.006126 -170.2 0.999977 -80.54 0.999977 -80.54 0.006126 -171.0
8.76086000 0.006128 -170.2 0.999977 -80.54 0.999977 -80.54 0.006128 -171.0
8.76088000 0.006129 -170.2 0.999977 -80.54 0.999977 -80.54 0.006129 -171.0
8.76090000 0.006130 -170.2 0.999977 -80.54 0.999977 -80.54 0.006130 -171.0
8.76092000 0.006131 -170.2 0.999977 -80.54 0.999977 -80.54 0.006131 -171.0
8.76094000 0.006132 -170.2 0.999977 -80.54 0.999977 -80.54 0.006132 -171.0
8.76096000 0.006134 -170.2 0.999977 -80.54 0.999977 -80.54 0.006134 -171.0
8.76098000 0.006135 -170.2 0.999977 -80.54 0.999977 -80.54 0.006135 -171.0
8.76100000 0.006136 -170.2 0.999977 -80.54 0.999977 -80.54 0.006136 -171.0
8.76102000 0.006137 -170.2 0.999977 -80.54 0.999977 -80.54 0.006137 -171.0
8.76104000 0.006138 -170.2 0.999977 -80.54 0.999977 -80.54 0.006138 -171.0
8.76106000 0.006140 -170.2 0.999977 -80.54 0.999977 -80.54 0.006139 -171.0
8.76108000 0.006141 -170.2 0.999977 -80.54 0.999977 -80.54 0.006141 -171.0
8.76110000 0.006142 -170.2 0.999977 -80.54 0.999977 -80.54 0.006142 -171.0
8.76112000 0.006143 -170.2 0.999977 -80.54 0.999977 -80.54 0.006143 -171.0
8.76114000 0.006144 -170.2 0.999977 -80.54 0.999977 -80.54 0.006144 -171.0
8.76116000 0.006146 -170.2 0.999977 -80.54 0.999977 -80.54 0.006146 -171.0
8.76118000 0.006147 -170.2 0.999977 -80.54 0.999977 -80.54 0.006147 -171.0
8.76120000 0.006148 -170.2 0.999977 -80.54 0.999977 -80.54 0.006148 -171.0
8.76122000 0.006149 -170.2 0.999976 -80.54 0.999976 -80.54 0.006149 -171.0
8.76124000 0.006150 -170.2 0.999976 -80.54 0.999976 -80.54 0.006150 -171.0
8.76126000 0.006152 -170.2 0.999976 -80.54 0.999976 -80.54 0.006152 -171.0
8.76128000 0.006153 -170.2 0.999976 -80.54 0.999976 -80.54 0.006153 -171.0
8.76130000 0.006154 -170.2 0.999976 -80.54 0.999976 -80.54 0.006154 -171.0
8.76132000 0.006155 -170.2 0.999976 -80.54 0.999976 -80.54 0.006155 -171.0
8.76134000 0.006156 -170.2 0.999976 -80.54 0.999976 -80.54 0.006156 -171.0
8.76136000 0.006158 -170.2 0.999976 -80.54 0.999976 -80.54 0.006158 -171.0
8.76138000 0.006159 -170.2 0.999976 -80.54 0.999976 -80.54 0.006159 -171.0
8.76140000 0.006160 -170.2 0.999976 -80.54 0.999976 -80.54 0.006160 -171.0
8.76142000 0.006161 -170.2 0.999976 -80.54 0.999976 -80.54 0.006161 -171.0
8.76144000 0.006163 -170.2 0.999976 -80.54 0.999976 -80.54 0.006163 -171.0
8.76146000 0.006164 -170.2 0.999976 -80.54 0.999976 -80.54 0.006164 -171.0
8.76148000 0.006165 -170.2 0.999976 -80.55 0.999976 -80.55 0.006165 -171.0
8.76150000 0.006166 -170.2 0.999976 -80.55 0.999976 -80.55 0.006166 -171.0
8.76152000 0.006168 -170.2 0.999976 -80.55 0.999976 -80.55 0.006167 -171.0
8.76154000 0.006169 -170.2 0.999976 -80.55 0.999976 -80.55 0.006169 -171.0
8.76156000 0.006170 -170.2 0.999976 -80.55 0.999976 -80.55 0.006170 -171.0
8.76158000 0.006171 -170.2 0.999976 -80.55 0.999976 -80.55 0.006171 -171.0
8.76160000 0.006172 -170.2 0.999976 -80.55 0.999976 -80.55 0.006172 -171.0
8.76162000 0.006174 -170.2 0.999976 -80.55 0.999976 -80.55 0.006174 -171.0
8.76164000 0.006175 -170.2 0.999976 -80.55 0.999976 -80.55 0.006175 -171.0
8.76166000 0.006176 -170.2 0.999976 -80.55 0.999976 -80.55 0.006176 -171.0
8.76168000 0.006177 -170.2 0.999976 -80.55 0.999976 -80.55 0.006177 -171.0
8.76170000 0.006179 -170.2 0.999976 -80.55 0.999976 -80.55 0.006179 -171.0
8.76172000 0.006180 -170.2 0.999976 -80.55 0.999976 -80.55 0.006180 -171.0
8.76174000 0.006181 -170.2 0.999976 -80.55 0.999976 -80.55 0.006181 -171.0
8.76176000 0.006182 -170.2 0.999976 -80.55 0.999976 -80.55 0.006182 -171.0
8.76178000 0.006184 -170.2 0.999976 -80.55 0.999976 -80.55 0.006184 -171.0
8.76180000 0.006185 -170.2 0.999976 -80.55 0.999976 -80.55 0.006185 -171.0
8.76182000 0.006186 -170.2 0.999976 -80.55 0.999976 -80.55 0.006186 -171.0
8.76184000 0.006187 -170.2 0.999976 -80.55 0.999976 -80.55 0.006187 -171.0
8.76186000 0.006189 -170.2 0.999976 -80.55 0.999976 -80.55 0.006189 -171.0
8.76188000 0.006190 -170.2 0.999976 -80.55 0.999976 -80.55 0.006190 -171.0
8.76190000 0.006191 -170.2 0.999976 -80.55 0.999976 -80.55 0.006191 -171.0
8.76192000 0.006192 -170.2 0.999976 -80.55 0.999976 -80.55 0.006192 -171.0
8.76194000 0.006194 -170.2 0.999976 -80.55 0.999976 -80.55 0.006194 -171.0
8.76196000 0.006195 -170.2 0.999976 -80.55 0.999976 -80.55 0.006195 -171.0
8.76198000 0.006196 -170.2 0.999976 -80.55 0.999976 -80.55 0.006196 -171.0
8.76200000 0.006198 -170.2 0.999976 -80.55 0.999976 -80.55 0.006197 -171.0
8.76202000 0.006199 -170.2 0.999976 -80.55 0.999976 -80.55 0.006199 -171.0
8.76204000 0.006200 -170.2 0.999976 -80.55 0.999976 -80.55 0.006200 -171.0
8.76206000 0.006201 -170.2 0.999976 -80.55 0.999976 -80.55 0.006201 -171.0
8.76208000 0.006203 -170.2 0.999976 -80.55 0.999976 -80.55 0.006203 -171.0
8.76210000 0.006204 -170.2 0.999976 -80.55 0.999976 -80.55 0.006204 -171.0
8.76212000 0.006205 -170.2 0.999976 -80.55 0.999976 -80.55 0.006205 -171.0
8.76214000 0.006206 -170.2 0.999976 -80.55 0.999976 -80.55 0.006206 -171.0
8.76216000 0.006208 -170.2 0.999976 -80.55 0.999976 -80.55 0.006208 -171.0
8.76218000 0.006209 -170.2 0.999976 -80.55 0.999976 -80.55 0.006209 -171.0
8.76220000 0.006210 -170.2 0.999976 -80.55 0.999976 -80.55 0.006210 -171.0
8.76222000 0.006212 -170.2 0.999976 -80.55 0.999976 -80.55 0.006212 -171.0
8.76224000 0.006213 -170.2 0.999976 -80.55 0.999976 -80.55 0.006213 -171.0
8.76226000 0.006214 -170.2 0.999976 -80.56 0.999976 -80.56 0.006214 -171.0
8.76228000 0.006215 -170.2 0.999976 -80.56 0.999976 -80.56 0.006215 -171.0
8.76230000 0.006217 -170.2 0.999976 -80.56 0.999976 -80.56 0.006217 -171.0
8.76232000 0.006218 -170.2 0.999976 -80.56 0.999976 -80.56 0.006218 -171.0
8.76234000 0.006219 -170.2 0.999976 -80.56 0.999976 -80.56 0.006219 -171.0
8.76236000 0.006221 -170.2 0.999976 -80.56 0.999976 -80.56 0.006221 -171.0
8.76238000 0.006222 -170.2 0.999976 -80.56 0.999976 -80.56 0.006222 -171.0
8.76240000 0.006223 -170.2 0.999976 -80.56 0.999976 -80.56 0.006223 -171.0
8.76242000 0.006225 -170.2 0.999976 -80.56 0.999976 -80.56 0.006224 -171.0
8.76244000 0.006226 -170.2 0.999976 -80.56 0.999976 -80.56 0.006226 -171.0
8.76246000 0.006227 -170.2 0.999976 -80.56 0.999976 -80.56 0.006227 -171.0
8.76248000 0.006228 -170.2 0.999976 -80.56 0.999976 -80.56 0.006228 -171.0
8.76250000 0.006230 -170.2 0.999976 -80.56 0.999976 -80.56 0.006230 -171.0
8.76252000 0.006231 -170.2 0.999976 -80.56 0.999976 -80.56 0.006231 -171.0
8.76254000 0.006232 -170.2 0.999976 -80.56 0.999976 -80.56 0.006232 -171.0
8.76256000 0.006234 -170.2 0.999976 -80.56 0.999976 -80.56 0.006234 -171.0
8.76258000 0.006235 -170.2 0.999976 -80.56 0.999976 -80.56 0.006235 -171.0
8.76260000 0.006236 -170.2 0.999976 -80.56 0.999976 -80.56 0.006236 -171.0
8.76262000 0.006238 -170.2 0.999976 -80.56 0.999976 -80.56 0.006238 -171.0
8.76264000 0.006239 -170.2 0.999976 -80.56 0.999976 -80.56 0.006239 -171.0
8.76266000 0.006240 -170.2 0.999976 -80.56 0.999976 -80.56 0.006240 -171.0
8.76268000 0.006242 -170.2 0.999976 -80.56 0.999976 -80.56 0.006242 -171.0
8.76270000 0.006243 -170.2 0.999976 -80.56 0.999976 -80.56 0.006243 -171.0
8.76272000 0.006244 -170.2 0.999975 -80.56 0.999975 -80.56 0.006244 -171.0
8.76274000 0.006246 -170.2 0.999975 -80.56 0.999975 -80.56 0.006245 -171.0
8.76276000 0.006247 -170.2 0.999975 -80.56 0.999975 -80.56 0.006247 -171.0
8.76278000 0.006248 -170.2 0.999975 -80.56 0.999975 -80.56 0.006248 -171.0
8.76280000 0.006250 -170.2 0.999975 -80.56 0.999975 -80.56 0.006249 -171.0
8.76282000 0.006251 -170.2 0.999975 -80.56 0.999975 -80.56 0.006251 -171.0
8.76284000 0.006252 -170.2 0.999975 -80.56 0.999975 -80.56 0.006252 -171.0
8.76286000 0.006254 -170.2 0.999975 -80.56 0.999975 -80.56 0.006253 -171.0
8.76288000 0.006255 -170.2 0.999975 -80.56 0.999975 -80.56 0.006255 -171.0
8.76290000 0.006256 -170.2 0.999975 -80.56 0.999975 -80.56 0.006256 -171.0
8.76292000 0.006258 -170.2 0.999975 -80.56 0.999975 -80.56 0.006257 -171.0
8.76294000 0.006259 -170.2 0.999975 -80.56 0.999975 -80.56 0.006259 -171.0
8.76296000 0.006260 -170.2 0.999975 -80.56 0.999975 -80.56 0.006260 -171.0
8.76298000 0.006262 -170.2 0.999975 -80.56 0.999975 -80.56 0.006262 -171.0
8.76300000 0.006263 -170.2 0.999975 -80.56 0.999975 -80.56 0.006263 -171.0
8.76302000 0.006264 -170.2 0.999975 -80.56 0.999975 -80.56 0.006264 -171.0
8.76304000 0.006266 -170.2 0.999975 -80.57 0.999975 -80.57 0.006266 -171.0
8.76306000 0.006267 -170.2 0.999975 -80.57 0.999975 -80.57 0.006267 -171.0
8.76308000 0.006268 -170.2 0.999975 -80.57 0.999975 -80.57 0.006268 -171.0
8.76310000 0.006270 -170.2 0.999975 -80.57 0.999975 -80.57 0.006270 -171.0
8.76312000 0.006271 -170.2 0.999975 -80.57 0.999975 -80.57 0.006271 -171.0
8.76314000 0.006272 -170.2 0.999975 -80.57 0.999975 -80.57 0.006272 -171.0
8.76316000 0.006274 -170.2 0.999975 -80.57 0.999975 -80.57 0.006274 -171.0
8.76318000 0.006275 -170.2 0.999975 -80.57 0.999975 -80.57 0.006275 -171.0
8.76320000 0.006277 -170.2 0.999975 -80.57 0.999975 -80.57 0.006276 -171.0
8.76322000 0.006278 -170.2 0.999975 -80.57 0.999975 -80.57 0.006278 -171.0
8.76324000 0.006279 -170.2 0.999975 -80.57 0.999975 -80.57 0.006279 -171.0
8.76326000 0.006281 -170.2 0.999975 -80.57 0.999975 -80.57 0.006281 -171.0
8.76328000 0.006282 -170.2 0.999975 -80.57 0.999975 -80.57 0.006282 -171.0
8.76330000 0.006283 -170.2 0.999975 -80.57 0.999975 -80.57 0.006283 -171.0
8.76332000 0.006285 -170.2 0.999975 -80.57 0.999975 -80.57 0.006285 -171.0
8.76334000 0.006286 -170.2 0.999975 -80.57 0.999975 -80.57 0.006286 -171.0
8.76336000 0.006287 -170.2 0.999975 -80.57 0.999975 -80.57 0.006287 -171.0
8.76338000 0.006289 -170.2 0.999975 -80.57 0.999975 -80.57 0.006289 -171.0
8.76340000 0.006290 -170.2 0.999975 -80.57 0.999975 -80.57 0.006290 -171.0
8.76342000 0.006292 -170.2 0.999975 -80.57 0.999975 -80.57 0.006292 -171.0
8.76344000 0.006293 -170.2 0.999975 -80.57 0.999975 -80.57 0.006293 -171.0
8.76346000 0.006294 -170.2 0.999975 -80.57 0.999975 -80.57 0.006294 -171.0
8.76348000 0.006296 -170.2 0.999975 -80.57 0.999975 -80.57 0.006296 -171.0
8.76350000 0.006297 -170.2 0.999975 -80.57 0.999975 -80.57 0.006297 -171.0
8.76352000 0.006299 -170.2 0.999975 -80.57 0.999975 -80.57 0.006298 -171.0
8.76354000 0.006300 -170.2 0.999975 -80.57 0.999975 -80.57 0.006300 -171.0
8.76356000 0.006301 -170.2 0.999975 -80.57 0.999975 -80.57 0.006301 -171.0
8.76358000 0.006303 -170.2 0.999975 -80.57 0.999975 -80.57 0.006303 -171.0
8.76360000 0.006304 -170.2 0.999975 -80.57 0.999975 -80.57 0.006304 -171.0
8.76362000 0.006306 -170.2 0.999975 -80.57 0.999975 -80.57 0.006305 -171.0
8.76364000 0.006307 -170.2 0.999975 -80.57 0.999975 -80.57 0.006307 -171.0
8.76366000 0.006308 -170.2 0.999975 -80.57 0.999975 -80.57 0.006308 -171.0
8.76368000 0.006310 -170.2 0.999975 -80.57 0.999975 -80.57 0.006310 -171.0
8.76370000 0.006311 -170.2 0.999975 -80.57 0.999975 -80.57 0.006311 -171.0
8.76372000 0.006313 -170.2 0.999975 -80.57 0.999975 -80.57 0.006312 -171.0
8.76374000 0.006314 -170.2 0.999975 -80.57 0.999975 -80.57 0.006314 -171.0
8.76376000 0.006315 -170.2 0.999975 -80.57 0.999975 -80.57 0.006315 -171.0
8.76378000 0.006317 -170.2 0.999975 -80.57 0.999975 -80.57 0.006317 -171.0
8.76380000 0.006318 -170.2 0.999975 -80.58 0.999975 -80.58 0.006318 -171.0
8.76382000 0.006320 -170.2 0.999975 -80.58 0.999975 -80.58 0.006320 -171.0
8.76384000 0.006321 -170.2 0.999975 -80.58 0.999975 -80.58 0.006321 -171.0
8.76386000 0.006323 -170.2 0.999975 -80.58 0.999975 -80.58 0.006322 -171.0
8.76388000 0.006324 -170.2 0.999975 -80.58 0.999975 -80.58 0.006324 -171.0
8.76390000 0.006325 -170.2 0.999975 -80.58 0.999975 -80.58 0.006325 -171.0
8.76392000 0.006327 -170.2 0.999975 -80.58 0.999975 -80.58 0.006327 -171.0
8.76394000 0.006328 -170.2 0.999975 -80.58 0.999975 -80.58 0.006328 -171.0
8.76396000 0.006330 -170.2 0.999975 -80.58 0.999975 -80.58 0.006330 -171.0
8.76398000 0.006331 -170.2 0.999975 -80.58 0.999975 -80.58 0.006331 -171.0
8.76400000 0.006333 -170.2 0.999975 -80.58 0.999975 -80.58 0.006332 -171.0
8.76402000 0.006334 -170.2 0.999975 -80.58 0.999975 -80.58 0.006334 -171.0
8.76404000 0.006335 -170.2 0.999975 -80.58 0.999975 -80.58 0.006335 -171.0
8.76406000 0.006337 -170.2 0.999975 -80.58 0.999975 -80.58 0.006337 -171.0
8.76408000 0.006338 -170.2 0.999975 -80.58 0.999975 -80.58 0.006338 -171.0
8.76410000 0.006340 -170.2 0.999975 -80.58 0.999975 -80.58 0.006340 -171.0
8.76412000 0.006341 -170.2 0.999975 -80.58 0.999975 -80.58 0.006341 -171.0
8.76414000 0.006343 -170.2 0.999975 -80.58 0.999975 -80.58 0.006342 -171.0
8.76416000 0.006344 -170.2 0.999974 -80.58 0.999974 -80.58 0.006344 -171.0
8.76418000 0.006345 -170.2 0.999974 -80.58 0.999974 -80.58 0.006345 -171.0
8.76420000 0.006347 -170.2 0.999974 -80.58 0.999974 -80.58 0.006347 -171.0
8.76422000 0.006348 -170.2 0.999974 -80.58 0.999974 -80.58 0.006348 -171.0
8.76424000 0.006350 -170.2 0.999974 -80.58 0.999974 -80.58 0.006350 -171.0
8.76426000 0.006351 -170.2 0.999974 -80.58 0.999974 -80.58 0.006351 -171.0
8.76428000 0.006353 -170.2 0.999974 -80.58 0.999974 -80.58 0.006353 -171.0
8.76430000 0.006354 -170.2 0.999974 -80.58 0.999974 -80.58 0.006354 -171.0
8.76432000 0.006356 -170.2 0.999974 -80.58 0.999974 -80.58 0.006356 -171.0
8.76434000 0.006357 -170.2 0.999974 -80.58 0.999974 -80.58 0.006357 -171.0
8.76436000 0.006359 -170.2 0.999974 -80.58 0.999974 -80.58 0.006359 -171.0
8.76438000 0.006360 -170.2 0.999974 -80.58 0.999974 -80.58 0.006360 -171.0
8.76440000 0.006362 -170.2 0.999974 -80.58 0.999974 -80.58 0.006361 -171.0
8.76442000 0.006363 -170.2 0.999974 -80.58 0.999974 -80.58 0.006363 -171.0
8.76444000 0.006365 -170.2 0.999974 -80.58 0.999974 -80.58 0.006364 -171.0
8.76446000 0.006366 -170.2 0.999974 -80.58 0.999974 -80.58 0.006366 -171.0
8.76448000 0.006367 -170.2 0.999974 -80.58 0.999974 -80.58 0.006367 -171.0
8.76450000 0.006369 -170.2 0.999974 -80.58 0.999974 -80.58 0.006369 -171.0
8.76452000 0.006370 -170.2 0.999974 -80.58 0.999974 -80.58 0.006370 -171.0
8.76454000 0.006372 -170.2 0.999974 -80.58 0.999974 -80.58 0.006372 -171.0
8.76456000 0.006373 -170.2 0.999974 -80.59 0.999974 -80.59 0.006373 -171.0
8.76458000 0.006375 -170.2 0.999974 -80.59 0.999974 -80.59 0.006375 -171.0
8.76460000 0.006376 -170.2 0.999974 -80.59 0.999974 -80.59 0.006376 -171.0
8.76462000 0.006378 -170.2 0.999974 -80.59 0.999974 -80.59 0.006378 -171.0
8.76464000 0.006379 -170.2 0.999974 -80.59 0.999974 -80.59 0.006379 -171.0
8.76466000 0.006381 -170.2 0.999974 -80.59 0.999974 -80.59 0.006381 -171.0
8.76468000 0.006382 -170.2 0.999974 -80.59 0.999974 -80.59 0.006382 -171.0
8.76470000 0.006384 -170.2 0.999974 -80.59 0.999974 -80.59 0.006384 -171.0
8.76472000 0.006385 -170.2 0.999974 -80.59 0.999974 -80.59 0.006385 -171.0
8.76474000 0.006387 -170.2 0.999974 -80.59 0.999974 -80.59 0.006387 -171.0
8.76476000 0.006388 -170.2 0.999974 -80.59 0.999974 -80.59 0.006388 -171.0
8.76478000 0.006390 -170.2 0.999974 -80.59 0.999974 -80.59 0.006390 -171.0
8.76480000 0.006391 -170.2 0.999974 -80.59 0.999974 -80.59 0.006391 -171.0
8.76482000 0.006393 -170.2 0.999974 -80.59 0.999974 -80.59 0.006393 -171.0
8.76484000 0.006394 -170.2 0.999974 -80.59 0.999974 -80.59 0.006394 -171.0
8.76486000 0.006396 -170.2 0.999974 -80.59 0.999974 -80.59 0.006396 -171.0
8.76488000 0.006397 -170.2 0.999974 -80.59 0.999974 -80.59 0.006397 -171.0
8.76490000 0.006399 -170.2 0.999974 -80.59 0.999974 -80.59 0.006399 -171.0
8.76492000 0.006400 -170.2 0.999974 -80.59 0.999974 -80.59 0.006400 -171.0
8.76494000 0.006402 -170.2 0.999974 -80.59 0.999974 -80.59 0.006402 -171.0
8.76496000 0.006404 -170.2 0.999974 -80.59 0.999974 -80.59 0.006403 -171.0
8.76498000 0.006405 -170.2 0.999974 -80.59 0.999974 -80.59 0.006405 -171.0
8.76500000 0.006407 -170.2 0.999974 -80.59 0.999974 -80.59 0.006406 -171.0
8.76502000 0.006408 -170.2 0.999974 -80.59 0.999974 -80.59 0.006408 -171.0
8.76504000 0.006410 -170.2 0.999974 -80.59 0.999974 -80.59 0.006410 -171.0
8.76506000 0.006411 -170.2 0.999974 -80.59 0.999974 -80.59 0.006411 -171.0
8.76508000 0.006413 -170.2 0.999974 -80.59 0.999974 -80.59 0.006413 -171.0
8.76510000 0.006414 -170.2 0.999974 -80.59 0.999974 -80.59 0.006414 -171.0
8.76512000 0.006416 -170.2 0.999974 -80.59 0.999974 -80.59 0.006416 -171.0
8.76514000 0.006417 -170.2 0.999974 -80.59 0.999974 -80.59 0.006417 -171.0
8.76516000 0.006419 -170.2 0.999974 -80.59 0.999974 -80.59 0.006419 -171.0
8.76518000 0.006420 -170.2 0.999974 -80.59 0.999974 -80.59 0.006420 -171.0
8.76520000 0.006422 -170.2 0.999974 -80.59 0.999974 -80.59 0.006422 -171.0
8.76522000 0.006424 -170.2 0.999974 -80.59 0.999974 -80.59 0.006423 -171.0
8.76524000 0.006425 -170.2 0.999974 -80.59 0.999974 -80.59 0.006425 -171.0
8.76526000 0.006427 -170.2 0.999974 -80.59 0.999974 -80.59 0.006427 -171.0
8.76528000 0.006428 -170.2 0.999974 -80.59 0.999974 -80.59 0.006428 -171.0
8.76530000 0.006430 -170.2 0.999974 -80.60 0.999974 -80.60 0.006430 -171.0
8.76532000 0.006431 -170.2 0.999974 -80.60 0.999974 -80.60 0.006431 -171.0
8.76534000 0.006433 -170.2 0.999974 -80.60 0.999974 -80.60 0.006433 -171.0
8.76536000 0.006434 -170.2 0.999974 -80.60 0.999974 -80.60 0.006434 -171.0
8.76538000 0.006436 -170.2 0.999974 -80.60 0.999974 -80.60 0.006436 -171.0
8.76540000 0.006438 -170.2 0.999974 -80.60 0.999974 -80.60 0.006437 -171.0
8.76542000 0.006439 -170.2 0.999974 -80.60 0.999974 -80.60 0.006439 -171.0
8.76544000 0.006441 -170.2 0.999974 -80.60 0.999974 -80.60 0.006441 -171.0
8.76546000 0.006442 -170.2 0.999974 -80.60 0.999974 -80.60 0.006442 -171.0
8.76548000 0.006444 -170.2 0.999973 -80.60 0.999973 -80.60 0.006444 -171.0
8.76550000 0.006445 -170.2 0.999973 -80.60 0.999973 -80.60 0.006445 -171.0
8.76552000 0.006447 -170.2 0.999973 -80.60 0.999973 -80.60 0.006447 -171.0
8.76554000 0.006449 -170.2 0.999973 -80.60 0.999973 -80.60 0.006449 -171.0
8.76556000 0.006450 -170.2 0.999973 -80.60 0.999973 -80.60 0.006450 -171.0
8.76558000 0.006452 -170.2 0.999973 -80.60 0.999973 -80.60 0.006452 -171.0
8.76560000 0.006453 -170.2 0.999973 -80.60 0.999973 -80.60 0.006453 -171.1
8.76562000 0.006455 -170.2 0.999973 -80.60 0.999973 -80.60 0.006455 -171.1
8.76564000 0.006457 -170.2 0.999973 -80.60 0.999973 -80.60 0.006456 -171.1
8.76566000 0.006458 -170.2 0.999973 -80.60 0.999973 -80.60 0.006458 -171.1
8.76568000 0.006460 -170.2 0.999973 -80.60 0.999973 -80.60 0.006460 -171.1
8.76570000 0.006461 -170.2 0.999973 -80.60 0.999973 -80.60 0.006461 -171.1
8.76572000 0.006463 -170.2 0.999973 -80.60 0.999973 -80.60 0.006463 -171.1
8.76574000 0.006465 -170.2 0.999973 -80.60 0.999973 -80.60 0.006464 -171.1
8.76576000 0.006466 -170.2 0.999973 -80.60 0.999973 -80.60 0.006466 -171.1
8.76578000 0.006468 -170.2 0.999973 -80.60 0.999973 -80.60 0.006468 -171.1
8.76580000 0.006469 -170.2 0.999973 -80.60 0.999973 -80.60 0.006469 -171.1
8.76582000 0.006471 -170.2 0.999973 -80.60 0.999973 -80.60 0.006471 -171.1
8.76584000 0.006473 -170.2 0.999973 -80.60 0.999973 -80.60 0.006473 -171.1
8.76586000 0.006474 -170.2 0.999973 -80.60 0.999973 -80.60 0.006474 -171.1
8.76588000 0.006476 -170.2 0.999973 -80.60 0.999973 -80.60 0.006476 -171.1
8.76590000 0.006478 -170.2 0.999973 -80.60 0.999973 -80.60 0.006477 -171.1
8.76592000 0.006479 -170.2 0.999973 -80.60 0.999973 -80.60 0.006479 -171.1
8.76594000 0.006481 -170.2 0.999973 -80.60 0.999973 -80.60 0.006481 -171.1
8.76596000 0.006482 -170.2 0.999973 -80.60 0.999973 -80.60 0.006482 -171.1
8.76598000 0.006484 -170.2 0.999973 -80.60 0.999973 -80.60 0.006484 -171.1
8.76600000 0.006486 -170.2 0.999973 -80.60 0.999973 -80.60 0.006486 -171.1
8.76602000 0.006487 -170.2 0.999973 -80.61 0.999973 -80.61 0.006487 -171.1
8.76604000 0.006489 -170.2 0.999973 -80.61 0.999973 -80.61 0.006489 -171.1
8.76606000 0.006491 -170.2 0.999973 -80.61 0.999973 -80.61 0.006490 -171.1
8.76608000 0.006492 -170.2 0.999973 -80.61 0.999973 -80.61 0.006492 -171.1
8.76610000 0.006494 -170.2 0.999973 -80.61 0.999973 -80.61 0.006494 -171.1
8.76612000 0.006496 -170.2 0.999973 -80.61 0.999973 -80.61 0.006495 -171.1
8.76614000 0.006497 -170.2 0.999973 -80.61 0.999973 -80.61 0.006497 -171.1
8.76616000 0.006499 -170.2 0.999973 -80.61 0.999973 -80.61 0.006499 -171.1
8.76618000 0.006501 -170.2 0.999973 -80.61 0.999973 -80.61 0.006500 -171.1
8.76620000 0.006502 -170.2 0.999973 -80.61 0.999973 -80.61 0.006502 -171.1
8.76622000 0.006504 -170.2 0.999973 -80.61 0.999973 -80.61 0.006504 -171.1
8.76624000 0.006506 -170.2 0.999973 -80.61 0.999973 -80.61 0.006505 -171.1
8.76626000 0.006507 -170.2 0.999973 -80.61 0.999973 -80.61 0.006507 -171.1
8.76628000 0.006509 -170.2 0.999973 -80.61 0.999973 -80.61 0.006509 -171.1
8.76630000 0.006510 -170.2 0.999973 -80.61 0.999973 -80.61 0.006510 -171.1
8.76632000 0.006512 -170.2 0.999973 -80.61 0.999973 -80.61 0.006512 -171.1
8.76634000 0.006514 -170.2 0.999973 -80.61 0.999973 -80.61 0.006514 -171.1
8.76636000 0.006516 -170.2 0.999973 -80.61 0.999973 -80.61 0.006515 -171.1
8.76638000 0.006517 -170.2 0.999973 -80.61 0.999973 -80.61 0.006517 -171.1
8.76640000 0.006519 -170.2 0.999973 -80.61 0.999973 -80.61 0.006519 -171.1
8.76642000 0.006521 -170.2 0.999973 -80.61 0.999973 -80.61 0.006520 -171.1
8.76644000 0.006522 -170.2 0.999973 -80.61 0.999973 -80.61 0.006522 -171.1
8.76646000 0.006524 -170.2 0.999973 -80.61 0.999973 -80.61 0.006524 -171.1
8.76648000 0.006526 -170.2 0.999973 -80.61 0.999973 -80.61 0.006525 -171.1
8.76650000 0.006527 -170.2 0.999973 -80.61 0.999973 -80.61 0.006527 -171.1
8.76652000 0.006529 -170.2 0.999973 -80.61 0.999973 -80.61 0.006529 -171.1
8.76654000 0.006531 -170.2 0.999973 -80.61 0.999973 -80.61 0.006531 -171.1
8.76656000 0.006532 -170.2 0.999973 -80.61 0.999973 -80.61 0.006532 -171.1
8.76658000 0.006534 -170.2 0.999973 -80.61 0.999973 -80.61 0.006534 -171.1
8.76660000 0.006536 -170.2 0.999973 -80.61 0.999973 -80.61 0.006536 -171.1
8.76662000 0.006538 -170.2 0.999973 -80.61 0.999973 -80.61 0.006537 -171.1
8.76664000 0.006539 -170.2 0.999973 -80.61 0.999973 -80.61 0.006539 -171.1
8.76666000 0.006541 -170.2 0.999973 -80.61 0.999973 -80.61 0.006541 -171.1
8.76668000 0.006543 -170.2 0.999973 -80.61 0.999973 -80.61 0.006542 -171.1
8.76670000 0.006544 -170.2 0.999973 -80.61 0.999973 -80.61 0.006544 -171.1
8.76672000 0.006546 -170.2 0.999973 -80.61 0.999973 -80.61 0.006546 -171.1
8.76674000 0.006548 -170.2 0.999972 -80.62 0.999972 -80.62 0.006548 -171.1
8.76676000 0.006550 -170.2 0.999972 -80.62 0.999972 -80.62 0.006549 -171.1
8.76678000 0.006551 -170.2 0.999972 -80.62 0.999972 -80.62 0.006551 -171.1
8.76680000 0.006553 -170.2 0.999972 -80.62 0.999972 -80.62 0.006553 -171.1
8.76682000 0.006555 -170.2 0.999972 -80.62 0.999972 -80.62 0.006555 -171.1
8.76684000 0.006556 -170.2 0.999972 -80.62 0.999972 -80.62 0.006556 -171.1
8.76686000 0.006558 -170.2 0.999972 -80.62 0.999972 -80.62 0.006558 -171.1
8.76688000 0.006560 -170.2 0.999972 -80.62 0.999972 -80.62 0.006560 -171.1
8.76690000 0.006562 -170.2 0.999972 -80.62 0.999972 -80.62 0.006561 -171.1
8.76692000 0.006563 -170.2 0.999972 -80.62 0.999972 -80.62 0.006563 -171.1
8.76694000 0.006565 -170.2 0.999972 -80.62 0.999972 -80.62 0.006565 -171.1
8.76696000 0.006567 -170.2 0.999972 -80.62 0.999972 -80.62 0.006567 -171.1
8.76698000 0.006569 -170.2 0.999972 -80.62 0.999972 -80.62 0.006568 -171.1
8.76700000 0.006570 -170.2 0.999972 -80.62 0.999972 -80.62 0.006570 -171.1
8.76702000 0.006572 -170.2 0.999972 -80.62 0.999972 -80.62 0.006572 -171.1
8.76704000 0.006574 -170.2 0.999972 -80.62 0.999972 -80.62 0.006574 -171.1
8.76706000 0.006576 -170.2 0.999972 -80.62 0.999972 -80.62 0.006575 -171.1
8.76708000 0.006577 -170.2 0.999972 -80.62 0.999972 -80.62 0.006577 -171.1
8.76710000 0.006579 -170.2 0.999972 -80.62 0.999972 -80.62 0.006579 -171.1
8.76712000 0.006581 -170.2 0.999972 -80.62 0.999972 -80.62 0.006581 -171.1
8.76714000 0.006583 -170.2 0.999972 -80.62 0.999972 -80.62 0.006583 -171.1
8.76716000 0.006584 -170.2 0.999972 -80.62 0.999972 -80.62 0.006584 -171.1
8.76718000 0.006586 -170.2 0.999972 -80.62 0.999972 -80.62 0.006586 -171.1
8.76720000 0.006588 -170.2 0.999972 -80.62 0.999972 -80.62 0.006588 -171.1
8.76722000 0.006590 -170.2 0.999972 -80.62 0.999972 -80.62 0.006590 -171.1
8.76724000 0.006592 -170.2 0.999972 -80.62 0.999972 -80.62 0.006591 -171.1
8.76726000 0.006593 -170.2 0.999972 -80.62 0.999972 -80.62 0.006593 -171.1
8.76728000 0.006595 -170.2 0.999972 -80.62 0.999972 -80.62 0.006595 -171.1
8.76730000 0.006597 -170.2 0.999972 -80.62 0.999972 -80.62 0.006597 -171.1
8.76732000 0.006599 -170.2 0.999972 -80.62 0.999972 -80.62 0.006599 -171.1
8.76734000 0.006601 -170.2 0.999972 -80.62 0.999972 -80.62 0.006600 -171.1
8.76736000 0.006602 -170.2 0.999972 -80.62 0.999972 -80.62 0.006602 -171.1
8.76738000 0.006604 -170.2 0.999972 -80.62 0.999972 -80.62 0.006604 -171.1
8.76740000 0.006606 -170.2 0.999972 -80.62 0.999972 -80.62 0.006606 -171.1
8.76742000 0.006608 -170.2 0.999972 -80.62 0.999972 -80.62 0.006608 -171.1
8.76744000 0.006610 -170.2 0.999972 -80.63 0.999972 -80.63 0.006609 -171.1
8.76746000 0.006611 -170.2 0.999972 -80.63 0.999972 -80.63 0.006611 -171.1
8.76748000 0.006613 -170.2 0.999972 -80.63 0.999972 -80.63 0.006613 -171.1
8.76750000 0.006615 -170.2 0.999972 -80.63 0.999972 -80.63 0.006615 -171.1
8.76752000 0.006617 -170.2 0.999972 -80.63 0.999972 -80.63 0.006617 -171.1
8.76754000 0.006619 -170.2 0.999972 -80.63 0.999972 -80.63 0.006618 -171.1
8.76756000 0.006620 -170.2 0.999972 -80.63 0.999972 -80.63 0.006620 -171.1
8.76758000 0.006622 -170.2 0.999972 -80.63 0.999972 -80.63 0.006622 -171.1
8.76760000 0.006624 -170.2 0.999972 -80.63 0.999972 -80.63 0.006624 -171.1
8.76762000 0.006626 -170.2 0.999972 -80.63 0.999972 -80.63 0.006626 -171.1
8.76764000 0.006628 -170.2 0.999972 -80.63 0.999972 -80.63 0.006628 -171.1
8.76766000 0.006630 -170.2 0.999972 -80.63 0.999972 -80.63 0.006629 -171.1
8.76768000 0.006631 -170.2 0.999972 -80.63 0.999972 -80.63 0.006631 -171.1
8.76770000 0.006633 -170.2 0.999972 -80.63 0.999972 -80.63 0.006633 -171.1
8.76772000 0.006635 -170.2 0.999972 -80.63 0.999972 -80.63 0.006635 -171.1
8.76774000 0.006637 -170.2 0.999972 -80.63 0.999972 -80.63 0.006637 -171.1
8.76776000 0.006639 -170.2 0.999972 -80.63 0.999972 -80.63 0.006639 -171.1
8.76778000 0.006641 -170.2 0.999972 -80.63 0.999972 -80.63 0.006640 -171.1
8.76780000 0.006642 -170.2 0.999972 -80.63 0.999972 -80.63 0.006642 -171.1
8.76782000 0.006644 -170.2 0.999972 -80.63 0.999972 -80.63 0.006644 -171.1