! Sonnet Data File
! From: emgraph Version : 16.52
! From Project: Qubit_Xmon2_brg_para
! Data is De-embedded 
! Data File Written: 10/25/2017 13:37:34
!< HDATE 10/25/2017 09:37:53
!< MDATE 10/25/2017 09:40:21
!< PARAMS
!< Lj = 11.0
!< Gap = 6.0
!< Pwid = 2000.0
!< Airgap = 6.0
!< Width = 10.0
!< Bwid = 8.0
!< Dis1 = 150.0
!< Dis2 = 156.0
!< END PARAMS
# GHZ S MA R 51.80000
8.68500000 0.010235 -170.4 0.999927 -80.03 0.999927 -80.03 0.010234 -169.9
!< P1 F=8.685 Eeff=(6.44683879 -2.9786e-5) Z0=(51.7993663 1.19075e-4) R=0.0 C=0.0 
!< P2 F=8.685 Eeff=(6.44683879 -2.9786e-5) Z0=(51.7993663 1.19075e-4) R=0.0 C=0.0 
8.68500500 0.010239 -170.4 0.999927 -80.03 0.999927 -80.03 0.010239 -169.9
8.68501000 0.010244 -170.4 0.999927 -80.03 0.999927 -80.03 0.010244 -169.9
8.68501500 0.010248 -170.4 0.999927 -80.03 0.999927 -80.03 0.010248 -169.9
8.68502000 0.010253 -170.4 0.999927 -80.03 0.999927 -80.03 0.010253 -169.9
8.68502500 0.010258 -170.4 0.999927 -80.03 0.999927 -80.03 0.010258 -169.9
8.68503000 0.010262 -170.4 0.999927 -80.03 0.999927 -80.03 0.010262 -169.9
8.68503500 0.010267 -170.4 0.999927 -80.03 0.999927 -80.03 0.010267 -169.9
8.68504000 0.010272 -170.4 0.999927 -80.03 0.999927 -80.03 0.010271 -169.9
8.68504500 0.010276 -170.4 0.999927 -80.03 0.999927 -80.03 0.010276 -169.9
8.68505000 0.010281 -170.4 0.999927 -80.03 0.999927 -80.03 0.010281 -169.9
8.68505500 0.010286 -170.4 0.999927 -80.03 0.999927 -80.03 0.010285 -169.9
8.68506000 0.010290 -170.4 0.999927 -80.03 0.999927 -80.03 0.010290 -169.9
8.68506500 0.010295 -170.4 0.999927 -80.03 0.999927 -80.03 0.010295 -169.9
8.68507000 0.010300 -170.4 0.999926 -80.04 0.999926 -80.04 0.010299 -169.9
8.68507500 0.010304 -170.4 0.999926 -80.04 0.999926 -80.04 0.010304 -169.9
8.68508000 0.010309 -170.4 0.999926 -80.04 0.999926 -80.04 0.010309 -169.9
8.68508500 0.010314 -170.4 0.999926 -80.04 0.999926 -80.04 0.010314 -169.9
8.68509000 0.010319 -170.4 0.999926 -80.04 0.999926 -80.04 0.010318 -169.9
8.68509500 0.010323 -170.4 0.999926 -80.04 0.999926 -80.04 0.010323 -169.9
8.68510000 0.010328 -170.4 0.999926 -80.04 0.999926 -80.04 0.010328 -169.9
8.68510500 0.010333 -170.4 0.999926 -80.04 0.999926 -80.04 0.010332 -169.9
8.68511000 0.010337 -170.4 0.999926 -80.04 0.999926 -80.04 0.010337 -169.9
8.68511500 0.010342 -170.4 0.999926 -80.04 0.999926 -80.04 0.010342 -169.9
8.68512000 0.010347 -170.4 0.999926 -80.04 0.999926 -80.04 0.010347 -169.9
8.68512500 0.010352 -170.4 0.999926 -80.04 0.999926 -80.04 0.010351 -169.9
8.68513000 0.010356 -170.4 0.999926 -80.04 0.999926 -80.04 0.010356 -169.9
8.68513500 0.010361 -170.4 0.999926 -80.04 0.999926 -80.04 0.010361 -169.9
8.68514000 0.010366 -170.4 0.999926 -80.04 0.999926 -80.04 0.010366 -169.9
8.68514500 0.010371 -170.4 0.999925 -80.04 0.999925 -80.04 0.010370 -169.9
8.68515000 0.010375 -170.4 0.999925 -80.04 0.999925 -80.04 0.010375 -169.9
8.68515500 0.010380 -170.4 0.999925 -80.04 0.999925 -80.04 0.010380 -169.9
8.68516000 0.010385 -170.4 0.999925 -80.04 0.999925 -80.04 0.010385 -169.9
8.68516500 0.010390 -170.4 0.999925 -80.04 0.999925 -80.04 0.010390 -169.9
8.68517000 0.010395 -170.4 0.999925 -80.04 0.999925 -80.04 0.010394 -169.9
8.68517500 0.010399 -170.4 0.999925 -80.04 0.999925 -80.04 0.010399 -169.9
8.68518000 0.010404 -170.4 0.999925 -80.04 0.999925 -80.04 0.010404 -169.9
8.68518500 0.010409 -170.4 0.999925 -80.04 0.999925 -80.04 0.010409 -169.9
8.68519000 0.010414 -170.4 0.999925 -80.04 0.999925 -80.04 0.010414 -169.9
8.68519500 0.010419 -170.4 0.999925 -80.04 0.999925 -80.04 0.010418 -169.9
8.68520000 0.010424 -170.4 0.999925 -80.04 0.999925 -80.04 0.010423 -169.9
8.68520500 0.010428 -170.4 0.999925 -80.04 0.999925 -80.04 0.010428 -169.9
8.68521000 0.010433 -170.4 0.999925 -80.04 0.999925 -80.04 0.010433 -169.9
8.68521500 0.010438 -170.4 0.999924 -80.04 0.999924 -80.04 0.010438 -169.9
8.68522000 0.010443 -170.4 0.999924 -80.04 0.999924 -80.04 0.010443 -169.9
8.68522500 0.010448 -170.4 0.999924 -80.05 0.999924 -80.05 0.010448 -169.9
8.68523000 0.010453 -170.4 0.999924 -80.05 0.999924 -80.05 0.010452 -169.9
8.68523500 0.010458 -170.4 0.999924 -80.05 0.999924 -80.05 0.010457 -169.9
8.68524000 0.010462 -170.4 0.999924 -80.05 0.999924 -80.05 0.010462 -169.9
8.68524500 0.010467 -170.4 0.999924 -80.05 0.999924 -80.05 0.010467 -169.9
8.68525000 0.010472 -170.4 0.999924 -80.05 0.999924 -80.05 0.010472 -169.9
8.68525500 0.010477 -170.4 0.999924 -80.05 0.999924 -80.05 0.010477 -169.9
8.68526000 0.010482 -170.4 0.999924 -80.05 0.999924 -80.05 0.010482 -169.9
8.68526500 0.010487 -170.4 0.999924 -80.05 0.999924 -80.05 0.010487 -169.9
8.68527000 0.010492 -170.4 0.999924 -80.05 0.999924 -80.05 0.010492 -169.9
8.68527500 0.010497 -170.4 0.999924 -80.05 0.999924 -80.05 0.010497 -169.9
8.68528000 0.010502 -170.4 0.999923 -80.05 0.999923 -80.05 0.010502 -169.9
8.68528500 0.010507 -170.4 0.999923 -80.05 0.999923 -80.05 0.010506 -169.9
8.68529000 0.010512 -170.4 0.999923 -80.05 0.999923 -80.05 0.010511 -169.9
8.68529500 0.010517 -170.4 0.999923 -80.05 0.999923 -80.05 0.010516 -169.9
8.68530000 0.010522 -170.4 0.999923 -80.05 0.999923 -80.05 0.010521 -169.9
8.68530500 0.010527 -170.4 0.999923 -80.05 0.999923 -80.05 0.010526 -169.9
8.68531000 0.010531 -170.4 0.999923 -80.05 0.999923 -80.05 0.010531 -169.9
8.68531500 0.010536 -170.4 0.999923 -80.05 0.999923 -80.05 0.010536 -169.9
8.68532000 0.010541 -170.4 0.999923 -80.05 0.999923 -80.05 0.010541 -169.9
8.68532500 0.010546 -170.4 0.999923 -80.05 0.999923 -80.05 0.010546 -169.9
8.68533000 0.010551 -170.4 0.999923 -80.05 0.999923 -80.05 0.010551 -169.9
8.68533500 0.010556 -170.4 0.999923 -80.05 0.999923 -80.05 0.010556 -169.9
8.68534000 0.010561 -170.4 0.999923 -80.05 0.999923 -80.05 0.010561 -169.9
8.68534500 0.010566 -170.4 0.999923 -80.05 0.999923 -80.05 0.010566 -169.9
8.68535000 0.010571 -170.4 0.999922 -80.05 0.999922 -80.05 0.010571 -169.9
8.68535500 0.010577 -170.4 0.999922 -80.05 0.999922 -80.05 0.010576 -169.9
8.68536000 0.010582 -170.4 0.999922 -80.05 0.999922 -80.05 0.010581 -169.9
8.68536500 0.010587 -170.4 0.999922 -80.05 0.999922 -80.05 0.010586 -169.9
8.68537000 0.010592 -170.4 0.999922 -80.05 0.999922 -80.05 0.010591 -169.9
8.68537500 0.010597 -170.4 0.999922 -80.05 0.999922 -80.05 0.010596 -169.9
8.68538000 0.010602 -170.4 0.999922 -80.06 0.999922 -80.06 0.010601 -169.9
8.68538500 0.010607 -170.4 0.999922 -80.06 0.999922 -80.06 0.010607 -169.9
8.68539000 0.010612 -170.4 0.999922 -80.06 0.999922 -80.06 0.010612 -169.9
8.68539500 0.010617 -170.4 0.999922 -80.06 0.999922 -80.06 0.010617 -169.9
8.68540000 0.010622 -170.4 0.999922 -80.06 0.999922 -80.06 0.010622 -169.9
8.68540500 0.010627 -170.4 0.999922 -80.06 0.999922 -80.06 0.010627 -169.9
8.68541000 0.010632 -170.4 0.999922 -80.06 0.999922 -80.06 0.010632 -169.9
8.68541500 0.010637 -170.4 0.999921 -80.06 0.999921 -80.06 0.010637 -169.9
8.68542000 0.010642 -170.4 0.999921 -80.06 0.999921 -80.06 0.010642 -169.9
8.68542500 0.010648 -170.4 0.999921 -80.06 0.999921 -80.06 0.010647 -169.9
8.68543000 0.010653 -170.4 0.999921 -80.06 0.999921 -80.06 0.010652 -169.9
8.68543500 0.010658 -170.4 0.999921 -80.06 0.999921 -80.06 0.010658 -169.9
8.68544000 0.010663 -170.4 0.999921 -80.06 0.999921 -80.06 0.010663 -169.9
8.68544500 0.010668 -170.4 0.999921 -80.06 0.999921 -80.06 0.010668 -169.9
8.68545000 0.010673 -170.4 0.999921 -80.06 0.999921 -80.06 0.010673 -169.9
8.68545500 0.010678 -170.4 0.999921 -80.06 0.999921 -80.06 0.010678 -169.9
8.68546000 0.010684 -170.4 0.999921 -80.06 0.999921 -80.06 0.010683 -169.9
8.68546500 0.010689 -170.4 0.999921 -80.06 0.999921 -80.06 0.010688 -169.9
8.68547000 0.010694 -170.4 0.999921 -80.06 0.999921 -80.06 0.010694 -169.9
8.68547500 0.010699 -170.4 0.999920 -80.06 0.999920 -80.06 0.010699 -169.9
8.68548000 0.010704 -170.4 0.999920 -80.06 0.999920 -80.06 0.010704 -169.9
8.68548500 0.010709 -170.4 0.999920 -80.06 0.999920 -80.06 0.010709 -169.9
8.68549000 0.010715 -170.4 0.999920 -80.06 0.999920 -80.06 0.010714 -169.9
8.68549500 0.010720 -170.4 0.999920 -80.06 0.999920 -80.06 0.010720 -169.9
8.68550000 0.010725 -170.4 0.999920 -80.06 0.999920 -80.06 0.010725 -169.9
8.68550500 0.010730 -170.4 0.999920 -80.06 0.999920 -80.06 0.010730 -169.9
8.68551000 0.010735 -170.4 0.999920 -80.06 0.999920 -80.06 0.010735 -169.9
8.68551500 0.010741 -170.4 0.999920 -80.06 0.999920 -80.06 0.010740 -169.9
8.68552000 0.010746 -170.4 0.999920 -80.06 0.999920 -80.06 0.010746 -169.9
8.68552500 0.010751 -170.4 0.999920 -80.07 0.999920 -80.07 0.010751 -169.9
8.68553000 0.010756 -170.4 0.999920 -80.07 0.999920 -80.07 0.010756 -169.9
8.68553500 0.010762 -170.4 0.999920 -80.07 0.999920 -80.07 0.010761 -169.9
8.68554000 0.010767 -170.4 0.999919 -80.07 0.999919 -80.07 0.010767 -169.9
8.68554500 0.010772 -170.4 0.999919 -80.07 0.999919 -80.07 0.010772 -169.9
8.68555000 0.010778 -170.4 0.999919 -80.07 0.999919 -80.07 0.010777 -169.9
8.68555500 0.010783 -170.4 0.999919 -80.07 0.999919 -80.07 0.010783 -169.9
8.68556000 0.010788 -170.4 0.999919 -80.07 0.999919 -80.07 0.010788 -169.9
8.68556500 0.010793 -170.4 0.999919 -80.07 0.999919 -80.07 0.010793 -169.9
8.68557000 0.010799 -170.4 0.999919 -80.07 0.999919 -80.07 0.010798 -169.9
8.68557500 0.010804 -170.4 0.999919 -80.07 0.999919 -80.07 0.010804 -169.9
8.68558000 0.010809 -170.4 0.999919 -80.07 0.999919 -80.07 0.010809 -169.9
8.68558500 0.010815 -170.4 0.999919 -80.07 0.999919 -80.07 0.010814 -169.9
8.68559000 0.010820 -170.4 0.999919 -80.07 0.999919 -80.07 0.010820 -169.9
8.68559500 0.010825 -170.4 0.999919 -80.07 0.999919 -80.07 0.010825 -169.9
8.68560000 0.010831 -170.4 0.999918 -80.07 0.999918 -80.07 0.010830 -169.9
8.68560500 0.010836 -170.4 0.999918 -80.07 0.999918 -80.07 0.010836 -169.9
8.68561000 0.010841 -170.4 0.999918 -80.07 0.999918 -80.07 0.010841 -169.9
8.68561500 0.010847 -170.4 0.999918 -80.07 0.999918 -80.07 0.010847 -169.9
8.68562000 0.010852 -170.4 0.999918 -80.07 0.999918 -80.07 0.010852 -169.9
8.68562500 0.010858 -170.4 0.999918 -80.07 0.999918 -80.07 0.010857 -169.9
8.68563000 0.010863 -170.4 0.999918 -80.07 0.999918 -80.07 0.010863 -169.9
8.68563500 0.010868 -170.4 0.999918 -80.07 0.999918 -80.07 0.010868 -169.9
8.68564000 0.010874 -170.4 0.999918 -80.07 0.999918 -80.07 0.010874 -169.9
8.68564500 0.010879 -170.4 0.999918 -80.07 0.999918 -80.07 0.010879 -169.9
8.68565000 0.010885 -170.4 0.999918 -80.07 0.999918 -80.07 0.010884 -169.9
8.68565500 0.010890 -170.4 0.999918 -80.07 0.999918 -80.07 0.010890 -169.9
8.68566000 0.010895 -170.4 0.999917 -80.07 0.999917 -80.07 0.010895 -169.9
8.68566500 0.010901 -170.4 0.999917 -80.08 0.999917 -80.08 0.010901 -169.9
8.68567000 0.010906 -170.4 0.999917 -80.08 0.999917 -80.08 0.010906 -169.9
8.68567500 0.010912 -170.4 0.999917 -80.08 0.999917 -80.08 0.010912 -169.9
8.68568000 0.010917 -170.4 0.999917 -80.08 0.999917 -80.08 0.010917 -170.0
8.68568500 0.010923 -170.4 0.999917 -80.08 0.999917 -80.08 0.010922 -170.0
8.68569000 0.010928 -170.4 0.999917 -80.08 0.999917 -80.08 0.010928 -170.0
8.68569500 0.010934 -170.4 0.999917 -80.08 0.999917 -80.08 0.010933 -170.0
8.68570000 0.010939 -170.4 0.999917 -80.08 0.999917 -80.08 0.010939 -170.0
8.68570500 0.010945 -170.4 0.999917 -80.08 0.999917 -80.08 0.010944 -170.0
8.68571000 0.010950 -170.4 0.999917 -80.08 0.999917 -80.08 0.010950 -170.0
8.68571500 0.010956 -170.4 0.999916 -80.08 0.999916 -80.08 0.010955 -170.0
8.68572000 0.010961 -170.4 0.999916 -80.08 0.999916 -80.08 0.010961 -170.0
8.68572500 0.010967 -170.4 0.999916 -80.08 0.999916 -80.08 0.010966 -170.0
8.68573000 0.010972 -170.4 0.999916 -80.08 0.999916 -80.08 0.010972 -170.0
8.68573500 0.010978 -170.4 0.999916 -80.08 0.999916 -80.08 0.010978 -170.0
8.68574000 0.010983 -170.4 0.999916 -80.08 0.999916 -80.08 0.010983 -170.0
8.68574500 0.010989 -170.4 0.999916 -80.08 0.999916 -80.08 0.010989 -170.0
8.68575000 0.010994 -170.4 0.999916 -80.08 0.999916 -80.08 0.010994 -170.0
8.68575500 0.011000 -170.4 0.999916 -80.08 0.999916 -80.08 0.011000 -170.0
8.68576000 0.011006 -170.4 0.999916 -80.08 0.999916 -80.08 0.011005 -170.0
8.68576500 0.011011 -170.4 0.999916 -80.08 0.999916 -80.08 0.011011 -170.0
8.68577000 0.011017 -170.4 0.999916 -80.08 0.999916 -80.08 0.011017 -170.0
8.68577500 0.011022 -170.4 0.999915 -80.08 0.999915 -80.08 0.011022 -170.0
8.68578000 0.011028 -170.4 0.999915 -80.08 0.999915 -80.08 0.011028 -170.0
8.68578500 0.011034 -170.4 0.999915 -80.08 0.999915 -80.08 0.011033 -170.0
8.68579000 0.011039 -170.4 0.999915 -80.08 0.999915 -80.08 0.011039 -170.0
8.68579500 0.011045 -170.4 0.999915 -80.08 0.999915 -80.08 0.011045 -170.0
8.68580000 0.011051 -170.4 0.999915 -80.08 0.999915 -80.08 0.011050 -170.0
8.68580500 0.011056 -170.4 0.999915 -80.09 0.999915 -80.09 0.011056 -170.0
8.68581000 0.011062 -170.4 0.999915 -80.09 0.999915 -80.09 0.011062 -170.0
8.68581500 0.011067 -170.4 0.999915 -80.09 0.999915 -80.09 0.011067 -170.0
8.68582000 0.011073 -170.4 0.999915 -80.09 0.999915 -80.09 0.011073 -170.0
8.68582500 0.011079 -170.4 0.999915 -80.09 0.999915 -80.09 0.011079 -170.0
8.68583000 0.011084 -170.4 0.999914 -80.09 0.999914 -80.09 0.011084 -170.0
8.68583500 0.011090 -170.4 0.999914 -80.09 0.999914 -80.09 0.011090 -170.0
8.68584000 0.011096 -170.4 0.999914 -80.09 0.999914 -80.09 0.011096 -170.0
8.68584500 0.011102 -170.4 0.999914 -80.09 0.999914 -80.09 0.011101 -170.0
8.68585000 0.011107 -170.4 0.999914 -80.09 0.999914 -80.09 0.011107 -170.0
8.68585500 0.011113 -170.4 0.999914 -80.09 0.999914 -80.09 0.011113 -170.0
8.68586000 0.011119 -170.4 0.999914 -80.09 0.999914 -80.09 0.011118 -170.0
8.68586500 0.011124 -170.4 0.999914 -80.09 0.999914 -80.09 0.011124 -170.0
8.68587000 0.011130 -170.4 0.999914 -80.09 0.999914 -80.09 0.011130 -170.0
8.68587500 0.011136 -170.4 0.999914 -80.09 0.999914 -80.09 0.011136 -170.0
8.68588000 0.011142 -170.4 0.999914 -80.09 0.999914 -80.09 0.011141 -170.0
8.68588500 0.011147 -170.4 0.999913 -80.09 0.999913 -80.09 0.011147 -170.0
8.68589000 0.011153 -170.4 0.999913 -80.09 0.999913 -80.09 0.011153 -170.0
8.68589500 0.011159 -170.4 0.999913 -80.09 0.999913 -80.09 0.011159 -170.0
8.68590000 0.011165 -170.4 0.999913 -80.09 0.999913 -80.09 0.011165 -170.0
8.68590500 0.011171 -170.4 0.999913 -80.09 0.999913 -80.09 0.011170 -170.0
8.68591000 0.011176 -170.5 0.999913 -80.09 0.999913 -80.09 0.011176 -170.0
8.68591500 0.011182 -170.5 0.999913 -80.09 0.999913 -80.09 0.011182 -170.0
8.68592000 0.011188 -170.5 0.999913 -80.09 0.999913 -80.09 0.011188 -170.0
8.68592500 0.011194 -170.5 0.999913 -80.09 0.999913 -80.09 0.011194 -170.0
8.68593000 0.011200 -170.5 0.999913 -80.09 0.999913 -80.09 0.011199 -170.0
8.68593500 0.011206 -170.5 0.999912 -80.09 0.999912 -80.09 0.011205 -170.0
8.68594000 0.011211 -170.5 0.999912 -80.10 0.999912 -80.10 0.011211 -170.0
8.68594500 0.011217 -170.5 0.999912 -80.10 0.999912 -80.10 0.011217 -170.0
8.68595000 0.011223 -170.5 0.999912 -80.10 0.999912 -80.10 0.011223 -170.0
8.68595500 0.011229 -170.5 0.999912 -80.10 0.999912 -80.10 0.011229 -170.0
8.68596000 0.011235 -170.5 0.999912 -80.10 0.999912 -80.10 0.011235 -170.0
8.68596500 0.011241 -170.5 0.999912 -80.10 0.999912 -80.10 0.011241 -170.0
8.68597000 0.011247 -170.5 0.999912 -80.10 0.999912 -80.10 0.011246 -170.0
8.68597500 0.011253 -170.5 0.999912 -80.10 0.999912 -80.10 0.011252 -170.0
8.68598000 0.011258 -170.5 0.999912 -80.10 0.999912 -80.10 0.011258 -170.0
8.68598500 0.011264 -170.5 0.999912 -80.10 0.999912 -80.10 0.011264 -170.0
8.68599000 0.011270 -170.5 0.999911 -80.10 0.999911 -80.10 0.011270 -170.0
8.68599500 0.011276 -170.5 0.999911 -80.10 0.999911 -80.10 0.011276 -170.0
8.68600000 0.011282 -170.5 0.999911 -80.10 0.999911 -80.10 0.011282 -170.0
8.68600500 0.011288 -170.5 0.999911 -80.10 0.999911 -80.10 0.011288 -170.0
8.68601000 0.011294 -170.5 0.999911 -80.10 0.999911 -80.10 0.011294 -170.0
8.68601500 0.011300 -170.5 0.999911 -80.10 0.999911 -80.10 0.011300 -170.0
8.68602000 0.011306 -170.5 0.999911 -80.10 0.999911 -80.10 0.011306 -170.0
8.68602500 0.011312 -170.5 0.999911 -80.10 0.999911 -80.10 0.011312 -170.0
8.68603000 0.011318 -170.5 0.999911 -80.10 0.999911 -80.10 0.011318 -170.0
8.68603500 0.011324 -170.5 0.999911 -80.10 0.999911 -80.10 0.011324 -170.0
8.68604000 0.011330 -170.5 0.999910 -80.10 0.999910 -80.10 0.011330 -170.0
8.68604500 0.011336 -170.5 0.999910 -80.10 0.999910 -80.10 0.011336 -170.0
8.68605000 0.011342 -170.5 0.999910 -80.10 0.999910 -80.10 0.011342 -170.0
8.68605500 0.011348 -170.5 0.999910 -80.10 0.999910 -80.10 0.011348 -170.0
8.68606000 0.011354 -170.5 0.999910 -80.10 0.999910 -80.10 0.011354 -170.0
8.68606500 0.011360 -170.5 0.999910 -80.11 0.999910 -80.11 0.011360 -170.0
8.68607000 0.011366 -170.5 0.999910 -80.11 0.999910 -80.11 0.011366 -170.0
8.68607500 0.011372 -170.5 0.999910 -80.11 0.999910 -80.11 0.011372 -170.0
8.68608000 0.011379 -170.5 0.999910 -80.11 0.999910 -80.11 0.011378 -170.0
8.68608500 0.011385 -170.5 0.999910 -80.11 0.999910 -80.11 0.011384 -170.0
8.68609000 0.011391 -170.5 0.999909 -80.11 0.999909 -80.11 0.011390 -170.0
8.68609500 0.011397 -170.5 0.999909 -80.11 0.999909 -80.11 0.011397 -170.0
8.68610000 0.011403 -170.5 0.999909 -80.11 0.999909 -80.11 0.011403 -170.0
8.68610500 0.011409 -170.5 0.999909 -80.11 0.999909 -80.11 0.011409 -170.0
8.68611000 0.011415 -170.5 0.999909 -80.11 0.999909 -80.11 0.011415 -170.0
8.68611500 0.011421 -170.5 0.999909 -80.11 0.999909 -80.11 0.011421 -170.0
8.68612000 0.011427 -170.5 0.999909 -80.11 0.999909 -80.11 0.011427 -170.0
8.68612500 0.011434 -170.5 0.999909 -80.11 0.999909 -80.11 0.011433 -170.0
8.68613000 0.011440 -170.5 0.999909 -80.11 0.999909 -80.11 0.011439 -170.0
8.68613500 0.011446 -170.5 0.999909 -80.11 0.999909 -80.11 0.011446 -170.0
8.68614000 0.011452 -170.5 0.999908 -80.11 0.999908 -80.11 0.011452 -170.0
8.68614500 0.011458 -170.5 0.999908 -80.11 0.999908 -80.11 0.011458 -170.0
8.68615000 0.011464 -170.5 0.999908 -80.11 0.999908 -80.11 0.011464 -170.0
8.68615500 0.011471 -170.5 0.999908 -80.11 0.999908 -80.11 0.011470 -170.0
8.68616000 0.011477 -170.5 0.999908 -80.11 0.999908 -80.11 0.011477 -170.0
8.68616500 0.011483 -170.5 0.999908 -80.11 0.999908 -80.11 0.011483 -170.0
8.68617000 0.011489 -170.5 0.999908 -80.11 0.999908 -80.11 0.011489 -170.0
8.68617500 0.011496 -170.5 0.999908 -80.11 0.999908 -80.11 0.011495 -170.0
8.68618000 0.011502 -170.5 0.999908 -80.11 0.999908 -80.11 0.011502 -170.0
8.68618500 0.011508 -170.5 0.999908 -80.11 0.999908 -80.11 0.011508 -170.0
8.68619000 0.011514 -170.5 0.999907 -80.12 0.999907 -80.12 0.011514 -170.0
8.68619500 0.011521 -170.5 0.999907 -80.12 0.999907 -80.12 0.011520 -170.0
8.68620000 0.011527 -170.5 0.999907 -80.12 0.999907 -80.12 0.011527 -170.0
8.68620500 0.011533 -170.5 0.999907 -80.12 0.999907 -80.12 0.011533 -170.0
8.68621000 0.011540 -170.5 0.999907 -80.12 0.999907 -80.12 0.011539 -170.0
8.68621500 0.011546 -170.5 0.999907 -80.12 0.999907 -80.12 0.011546 -170.0
8.68622000 0.011552 -170.5 0.999907 -80.12 0.999907 -80.12 0.011552 -170.0
8.68622500 0.011558 -170.5 0.999907 -80.12 0.999907 -80.12 0.011558 -170.0
8.68623000 0.011565 -170.5 0.999907 -80.12 0.999907 -80.12 0.011565 -170.0
8.68623500 0.011571 -170.5 0.999906 -80.12 0.999906 -80.12 0.011571 -170.0
8.68624000 0.011578 -170.5 0.999906 -80.12 0.999906 -80.12 0.011577 -170.0
8.68624500 0.011584 -170.5 0.999906 -80.12 0.999906 -80.12 0.011584 -170.0
8.68625000 0.011590 -170.5 0.999906 -80.12 0.999906 -80.12 0.011590 -170.0
8.68625500 0.011597 -170.5 0.999906 -80.12 0.999906 -80.12 0.011596 -170.0
8.68626000 0.011603 -170.5 0.999906 -80.12 0.999906 -80.12 0.011603 -170.0
8.68626500 0.011609 -170.5 0.999906 -80.12 0.999906 -80.12 0.011609 -170.0
8.68627000 0.011616 -170.5 0.999906 -80.12 0.999906 -80.12 0.011616 -170.0
8.68627500 0.011622 -170.5 0.999906 -80.12 0.999906 -80.12 0.011622 -170.0
8.68628000 0.011629 -170.5 0.999906 -80.12 0.999906 -80.12 0.011628 -170.0
8.68628500 0.011635 -170.5 0.999905 -80.12 0.999905 -80.12 0.011635 -170.0
8.68629000 0.011642 -170.5 0.999905 -80.12 0.999905 -80.12 0.011641 -170.0
8.68629500 0.011648 -170.5 0.999905 -80.12 0.999905 -80.12 0.011648 -170.0
8.68630000 0.011655 -170.5 0.999905 -80.12 0.999905 -80.12 0.011654 -170.0
8.68630500 0.011661 -170.5 0.999905 -80.12 0.999905 -80.12 0.011661 -170.0
8.68631000 0.011667 -170.5 0.999905 -80.12 0.999905 -80.12 0.011667 -170.0
8.68631500 0.011674 -170.5 0.999905 -80.13 0.999905 -80.13 0.011674 -170.0
8.68632000 0.011680 -170.5 0.999905 -80.13 0.999905 -80.13 0.011680 -170.0
8.68632500 0.011687 -170.5 0.999905 -80.13 0.999905 -80.13 0.011687 -170.0
8.68633000 0.011693 -170.5 0.999904 -80.13 0.999904 -80.13 0.011693 -170.0
8.68633500 0.011700 -170.5 0.999904 -80.13 0.999904 -80.13 0.011700 -170.0
8.68634000 0.011707 -170.5 0.999904 -80.13 0.999904 -80.13 0.011706 -170.0
8.68634500 0.011713 -170.5 0.999904 -80.13 0.999904 -80.13 0.011713 -170.0
8.68635000 0.011720 -170.5 0.999904 -80.13 0.999904 -80.13 0.011719 -170.0
8.68635500 0.011726 -170.5 0.999904 -80.13 0.999904 -80.13 0.011726 -170.0
8.68636000 0.011733 -170.5 0.999904 -80.13 0.999904 -80.13 0.011733 -170.0
8.68636500 0.011739 -170.5 0.999904 -80.13 0.999904 -80.13 0.011739 -170.0
8.68637000 0.011746 -170.5 0.999904 -80.13 0.999904 -80.13 0.011746 -170.0
8.68637500 0.011753 -170.5 0.999903 -80.13 0.999903 -80.13 0.011752 -170.0
8.68638000 0.011759 -170.5 0.999903 -80.13 0.999903 -80.13 0.011759 -170.0
8.68638500 0.011766 -170.5 0.999903 -80.13 0.999903 -80.13 0.011766 -170.0
8.68639000 0.011772 -170.5 0.999903 -80.13 0.999903 -80.13 0.011772 -170.0
8.68639500 0.011779 -170.5 0.999903 -80.13 0.999903 -80.13 0.011779 -170.0
8.68640000 0.011786 -170.5 0.999903 -80.13 0.999903 -80.13 0.011785 -170.0
8.68640500 0.011792 -170.5 0.999903 -80.13 0.999903 -80.13 0.011792 -170.0
8.68641000 0.011799 -170.5 0.999903 -80.13 0.999903 -80.13 0.011799 -170.0
8.68641500 0.011806 -170.5 0.999902 -80.13 0.999902 -80.13 0.011805 -170.0
8.68642000 0.011812 -170.5 0.999902 -80.13 0.999902 -80.13 0.011812 -170.0
8.68642500 0.011819 -170.5 0.999902 -80.13 0.999902 -80.13 0.011819 -170.0
8.68643000 0.011826 -170.5 0.999902 -80.14 0.999902 -80.14 0.011826 -170.0
8.68643500 0.011833 -170.5 0.999902 -80.14 0.999902 -80.14 0.011832 -170.0
8.68644000 0.011839 -170.5 0.999902 -80.14 0.999902 -80.14 0.011839 -170.0
8.68644500 0.011846 -170.5 0.999902 -80.14 0.999902 -80.14 0.011846 -170.0
8.68645000 0.011853 -170.5 0.999902 -80.14 0.999902 -80.14 0.011853 -170.1
8.68645500 0.011860 -170.5 0.999902 -80.14 0.999902 -80.14 0.011859 -170.1
8.68646000 0.011866 -170.5 0.999901 -80.14 0.999901 -80.14 0.011866 -170.1
8.68646500 0.011873 -170.5 0.999901 -80.14 0.999901 -80.14 0.011873 -170.1
8.68647000 0.011880 -170.5 0.999901 -80.14 0.999901 -80.14 0.011880 -170.1
8.68647500 0.011887 -170.5 0.999901 -80.14 0.999901 -80.14 0.011886 -170.1
8.68648000 0.011893 -170.5 0.999901 -80.14 0.999901 -80.14 0.011893 -170.1
8.68648500 0.011900 -170.5 0.999901 -80.14 0.999901 -80.14 0.011900 -170.1
8.68649000 0.011907 -170.5 0.999901 -80.14 0.999901 -80.14 0.011907 -170.1
8.68649500 0.011914 -170.5 0.999901 -80.14 0.999901 -80.14 0.011914 -170.1
8.68650000 0.011921 -170.5 0.999901 -80.14 0.999901 -80.14 0.011921 -170.1
8.68650500 0.011928 -170.5 0.999900 -80.14 0.999900 -80.14 0.011927 -170.1
8.68651000 0.011935 -170.5 0.999900 -80.14 0.999900 -80.14 0.011934 -170.1
8.68651500 0.011941 -170.5 0.999900 -80.14 0.999900 -80.14 0.011941 -170.1
8.68652000 0.011948 -170.5 0.999900 -80.14 0.999900 -80.14 0.011948 -170.1
8.68652500 0.011955 -170.5 0.999900 -80.14 0.999900 -80.14 0.011955 -170.1
8.68653000 0.011962 -170.5 0.999900 -80.14 0.999900 -80.14 0.011962 -170.1
8.68653500 0.011969 -170.5 0.999900 -80.14 0.999900 -80.14 0.011969 -170.1
8.68654000 0.011976 -170.5 0.999900 -80.14 0.999900 -80.14 0.011976 -170.1
8.68654500 0.011983 -170.5 0.999899 -80.15 0.999899 -80.15 0.011983 -170.1
8.68655000 0.011990 -170.5 0.999899 -80.15 0.999899 -80.15 0.011990 -170.1
8.68655500 0.011997 -170.5 0.999899 -80.15 0.999899 -80.15 0.011997 -170.1
8.68656000 0.012004 -170.5 0.999899 -80.15 0.999899 -80.15 0.012003 -170.1
8.68656500 0.012011 -170.5 0.999899 -80.15 0.999899 -80.15 0.012010 -170.1
8.68657000 0.012018 -170.5 0.999899 -80.15 0.999899 -80.15 0.012017 -170.1
8.68657500 0.012025 -170.5 0.999899 -80.15 0.999899 -80.15 0.012024 -170.1
8.68658000 0.012032 -170.5 0.999899 -80.15 0.999899 -80.15 0.012031 -170.1
8.68658500 0.012039 -170.5 0.999898 -80.15 0.999898 -80.15 0.012038 -170.1
8.68659000 0.012046 -170.5 0.999898 -80.15 0.999898 -80.15 0.012046 -170.1
8.68659500 0.012053 -170.5 0.999898 -80.15 0.999898 -80.15 0.012053 -170.1
8.68660000 0.012060 -170.5 0.999898 -80.15 0.999898 -80.15 0.012060 -170.1
8.68660500 0.012067 -170.5 0.999898 -80.15 0.999898 -80.15 0.012067 -170.1
8.68661000 0.012074 -170.5 0.999898 -80.15 0.999898 -80.15 0.012074 -170.1
8.68661500 0.012081 -170.5 0.999898 -80.15 0.999898 -80.15 0.012081 -170.1
8.68662000 0.012088 -170.5 0.999898 -80.15 0.999898 -80.15 0.012088 -170.1
8.68662500 0.012095 -170.5 0.999897 -80.15 0.999897 -80.15 0.012095 -170.1
8.68663000 0.012102 -170.5 0.999897 -80.15 0.999897 -80.15 0.012102 -170.1
8.68663500 0.012110 -170.5 0.999897 -80.15 0.999897 -80.15 0.012109 -170.1
8.68664000 0.012117 -170.5 0.999897 -80.15 0.999897 -80.15 0.012116 -170.1
8.68664500 0.012124 -170.5 0.999897 -80.15 0.999897 -80.15 0.012124 -170.1
8.68665000 0.012131 -170.5 0.999897 -80.15 0.999897 -80.15 0.012131 -170.1
8.68665500 0.012138 -170.5 0.999897 -80.16 0.999897 -80.16 0.012138 -170.1
8.68666000 0.012145 -170.5 0.999897 -80.16 0.999897 -80.16 0.012145 -170.1
8.68666500 0.012153 -170.5 0.999896 -80.16 0.999896 -80.16 0.012152 -170.1
8.68667000 0.012160 -170.5 0.999896 -80.16 0.999896 -80.16 0.012159 -170.1
8.68667500 0.012167 -170.5 0.999896 -80.16 0.999896 -80.16 0.012167 -170.1
8.68668000 0.012174 -170.5 0.999896 -80.16 0.999896 -80.16 0.012174 -170.1
8.68668500 0.012181 -170.5 0.999896 -80.16 0.999896 -80.16 0.012181 -170.1
8.68669000 0.012189 -170.5 0.999896 -80.16 0.999896 -80.16 0.012188 -170.1
8.68669500 0.012196 -170.5 0.999896 -80.16 0.999896 -80.16 0.012196 -170.1
8.68670000 0.012203 -170.5 0.999896 -80.16 0.999896 -80.16 0.012203 -170.1
8.68670500 0.012210 -170.5 0.999895 -80.16 0.999895 -80.16 0.012210 -170.1
8.68671000 0.012218 -170.5 0.999895 -80.16 0.999895 -80.16 0.012217 -170.1
8.68671500 0.012225 -170.5 0.999895 -80.16 0.999895 -80.16 0.012225 -170.1
8.68672000 0.012232 -170.5 0.999895 -80.16 0.999895 -80.16 0.012232 -170.1
8.68672500 0.012240 -170.5 0.999895 -80.16 0.999895 -80.16 0.012239 -170.1
8.68673000 0.012247 -170.5 0.999895 -80.16 0.999895 -80.16 0.012247 -170.1
8.68673500 0.012254 -170.5 0.999895 -80.16 0.999895 -80.16 0.012254 -170.1
8.68674000 0.012262 -170.5 0.999895 -80.16 0.999895 -80.16 0.012261 -170.1
8.68674500 0.012269 -170.5 0.999894 -80.16 0.999894 -80.16 0.012269 -170.1
8.68675000 0.012276 -170.5 0.999894 -80.16 0.999894 -80.16 0.012276 -170.1
8.68675500 0.012284 -170.5 0.999894 -80.16 0.999894 -80.16 0.012284 -170.1
8.68676000 0.012291 -170.5 0.999894 -80.16 0.999894 -80.16 0.012291 -170.1
8.68676500 0.012299 -170.5 0.999894 -80.17 0.999894 -80.17 0.012298 -170.1
8.68677000 0.012306 -170.5 0.999894 -80.17 0.999894 -80.17 0.012306 -170.1
8.68677500 0.012313 -170.5 0.999894 -80.17 0.999894 -80.17 0.012313 -170.1
8.68678000 0.012321 -170.5 0.999893 -80.17 0.999893 -80.17 0.012321 -170.1
8.68678500 0.012328 -170.5 0.999893 -80.17 0.999893 -80.17 0.012328 -170.1
8.68679000 0.012336 -170.5 0.999893 -80.17 0.999893 -80.17 0.012336 -170.1
8.68679500 0.012343 -170.5 0.999893 -80.17 0.999893 -80.17 0.012343 -170.1
8.68680000 0.012351 -170.5 0.999893 -80.17 0.999893 -80.17 0.012351 -170.1
8.68680500 0.012358 -170.5 0.999893 -80.17 0.999893 -80.17 0.012358 -170.1
8.68681000 0.012366 -170.5 0.999893 -80.17 0.999893 -80.17 0.012366 -170.1
8.68681500 0.012373 -170.5 0.999893 -80.17 0.999893 -80.17 0.012373 -170.1
8.68682000 0.012381 -170.5 0.999892 -80.17 0.999892 -80.17 0.012381 -170.1
8.68682500 0.012388 -170.5 0.999892 -80.17 0.999892 -80.17 0.012388 -170.1
8.68683000 0.012396 -170.5 0.999892 -80.17 0.999892 -80.17 0.012396 -170.1
8.68683500 0.012404 -170.5 0.999892 -80.17 0.999892 -80.17 0.012403 -170.1
8.68684000 0.012411 -170.5 0.999892 -80.17 0.999892 -80.17 0.012411 -170.1
8.68684500 0.012419 -170.5 0.999892 -80.17 0.999892 -80.17 0.012418 -170.1
8.68685000 0.012426 -170.5 0.999892 -80.17 0.999892 -80.17 0.012426 -170.1
8.68685500 0.012434 -170.5 0.999891 -80.17 0.999891 -80.17 0.012434 -170.1
8.68686000 0.012442 -170.5 0.999891 -80.17 0.999891 -80.17 0.012441 -170.1
8.68686500 0.012449 -170.5 0.999891 -80.17 0.999891 -80.17 0.012449 -170.1
8.68687000 0.012457 -170.5 0.999891 -80.18 0.999891 -80.18 0.012457 -170.1
8.68687500 0.012465 -170.5 0.999891 -80.18 0.999891 -80.18 0.012464 -170.1
8.68688000 0.012472 -170.5 0.999891 -80.18 0.999891 -80.18 0.012472 -170.1
8.68688500 0.012480 -170.5 0.999891 -80.18 0.999891 -80.18 0.012480 -170.1
8.68689000 0.012488 -170.5 0.999890 -80.18 0.999890 -80.18 0.012487 -170.1
8.68689500 0.012495 -170.5 0.999890 -80.18 0.999890 -80.18 0.012495 -170.1
8.68690000 0.012503 -170.5 0.999890 -80.18 0.999890 -80.18 0.012503 -170.1
8.68690500 0.012511 -170.5 0.999890 -80.18 0.999890 -80.18 0.012510 -170.1
8.68691000 0.012519 -170.5 0.999890 -80.18 0.999890 -80.18 0.012518 -170.1
8.68691500 0.012526 -170.5 0.999890 -80.18 0.999890 -80.18 0.012526 -170.1
8.68692000 0.012534 -170.5 0.999890 -80.18 0.999890 -80.18 0.012534 -170.1
8.68692500 0.012542 -170.5 0.999889 -80.18 0.999889 -80.18 0.012542 -170.1
8.68693000 0.012550 -170.5 0.999889 -80.18 0.999889 -80.18 0.012549 -170.1
8.68693500 0.012557 -170.5 0.999889 -80.18 0.999889 -80.18 0.012557 -170.1
8.68694000 0.012565 -170.5 0.999889 -80.18 0.999889 -80.18 0.012565 -170.1
8.68694500 0.012573 -170.5 0.999889 -80.18 0.999889 -80.18 0.012573 -170.1
8.68695000 0.012581 -170.5 0.999889 -80.18 0.999889 -80.18 0.012581 -170.1
8.68695500 0.012589 -170.5 0.999889 -80.18 0.999889 -80.18 0.012588 -170.1