! Sonnet Data File
! From: emgraph Version : 16.52
! From Project: Qubit_Xmon2_brg_para
! Data is De-embedded 
! Data File Written: 10/25/2017 13:37:34
!< HDATE 10/25/2017 09:37:53
!< MDATE 10/25/2017 09:40:21
!< PARAMS
!< Lj = 11.0
!< Gap = 6.0
!< Pwid = 2000.0
!< Airgap = 6.0
!< Width = 10.0
!< Bwid = 8.0
!< Dis1 = 250.0
!< Dis2 = 256.0
!< END PARAMS
# GHZ S MA R 51.80000
8.68500000 0.009695 -170.3 0.999935 -80.01 0.999935 -80.01 0.009695 -169.9
!< P1 F=8.685 Eeff=(6.44683879 -2.9786e-5) Z0=(51.7993663 1.19075e-4) R=0.0 C=0.0 
!< P2 F=8.685 Eeff=(6.44683879 -2.9786e-5) Z0=(51.7993663 1.19075e-4) R=0.0 C=0.0 
8.68500500 0.009699 -170.3 0.999935 -80.01 0.999935 -80.01 0.009699 -169.9
8.68501000 0.009703 -170.3 0.999935 -80.01 0.999935 -80.01 0.009703 -169.9
8.68501500 0.009707 -170.3 0.999935 -80.01 0.999935 -80.01 0.009707 -169.9
8.68502000 0.009711 -170.3 0.999935 -80.01 0.999935 -80.01 0.009711 -169.9
8.68502500 0.009715 -170.3 0.999935 -80.01 0.999935 -80.01 0.009715 -169.9
8.68503000 0.009719 -170.3 0.999934 -80.01 0.999934 -80.01 0.009719 -169.9
8.68503500 0.009724 -170.3 0.999934 -80.01 0.999934 -80.01 0.009723 -169.9
8.68504000 0.009728 -170.3 0.999934 -80.01 0.999934 -80.01 0.009728 -169.9
8.68504500 0.009732 -170.3 0.999934 -80.01 0.999934 -80.01 0.009732 -169.9
8.68505000 0.009736 -170.3 0.999934 -80.01 0.999934 -80.01 0.009736 -169.9
8.68505500 0.009740 -170.3 0.999934 -80.01 0.999934 -80.01 0.009740 -169.9
8.68506000 0.009744 -170.3 0.999934 -80.01 0.999934 -80.01 0.009744 -169.9
8.68506500 0.009748 -170.3 0.999934 -80.01 0.999934 -80.01 0.009748 -169.9
8.68507000 0.009752 -170.3 0.999934 -80.01 0.999934 -80.01 0.009752 -169.9
8.68507500 0.009757 -170.3 0.999934 -80.01 0.999934 -80.01 0.009756 -169.9
8.68508000 0.009761 -170.3 0.999934 -80.01 0.999934 -80.01 0.009761 -169.9
8.68508500 0.009765 -170.3 0.999934 -80.01 0.999934 -80.01 0.009765 -169.9
8.68509000 0.009769 -170.3 0.999934 -80.01 0.999934 -80.01 0.009769 -169.9
8.68509500 0.009773 -170.3 0.999934 -80.01 0.999934 -80.01 0.009773 -169.9
8.68510000 0.009777 -170.3 0.999934 -80.01 0.999934 -80.01 0.009777 -169.9
8.68510500 0.009781 -170.3 0.999934 -80.01 0.999934 -80.01 0.009781 -169.9
8.68511000 0.009786 -170.3 0.999934 -80.01 0.999934 -80.01 0.009785 -169.9
8.68511500 0.009790 -170.3 0.999933 -80.01 0.999933 -80.01 0.009790 -169.9
8.68512000 0.009794 -170.3 0.999933 -80.01 0.999933 -80.01 0.009794 -169.9
8.68512500 0.009798 -170.3 0.999933 -80.01 0.999933 -80.01 0.009798 -169.9
8.68513000 0.009802 -170.3 0.999933 -80.01 0.999933 -80.01 0.009802 -169.9
8.68513500 0.009807 -170.3 0.999933 -80.01 0.999933 -80.01 0.009806 -169.9
8.68514000 0.009811 -170.3 0.999933 -80.01 0.999933 -80.01 0.009811 -169.9
8.68514500 0.009815 -170.3 0.999933 -80.01 0.999933 -80.01 0.009815 -169.9
8.68515000 0.009819 -170.3 0.999933 -80.01 0.999933 -80.01 0.009819 -169.9
8.68515500 0.009823 -170.3 0.999933 -80.01 0.999933 -80.01 0.009823 -169.9
8.68516000 0.009828 -170.3 0.999933 -80.02 0.999933 -80.02 0.009827 -169.9
8.68516500 0.009832 -170.3 0.999933 -80.02 0.999933 -80.02 0.009832 -169.9
8.68517000 0.009836 -170.3 0.999933 -80.02 0.999933 -80.02 0.009836 -169.9
8.68517500 0.009840 -170.3 0.999933 -80.02 0.999933 -80.02 0.009840 -169.9
8.68518000 0.009844 -170.3 0.999933 -80.02 0.999933 -80.02 0.009844 -169.9
8.68518500 0.009849 -170.3 0.999933 -80.02 0.999933 -80.02 0.009849 -169.9
8.68519000 0.009853 -170.3 0.999933 -80.02 0.999933 -80.02 0.009853 -169.9
8.68519500 0.009857 -170.3 0.999933 -80.02 0.999933 -80.02 0.009857 -169.9
8.68520000 0.009861 -170.3 0.999932 -80.02 0.999932 -80.02 0.009861 -169.9
8.68520500 0.009866 -170.3 0.999932 -80.02 0.999932 -80.02 0.009866 -169.9
8.68521000 0.009870 -170.3 0.999932 -80.02 0.999932 -80.02 0.009870 -169.9
8.68521500 0.009874 -170.3 0.999932 -80.02 0.999932 -80.02 0.009874 -169.9
8.68522000 0.009879 -170.3 0.999932 -80.02 0.999932 -80.02 0.009878 -169.9
8.68522500 0.009883 -170.3 0.999932 -80.02 0.999932 -80.02 0.009883 -169.9
8.68523000 0.009887 -170.3 0.999932 -80.02 0.999932 -80.02 0.009887 -170.0
8.68523500 0.009891 -170.3 0.999932 -80.02 0.999932 -80.02 0.009891 -170.0
8.68524000 0.009896 -170.3 0.999932 -80.02 0.999932 -80.02 0.009896 -170.0
8.68524500 0.009900 -170.3 0.999932 -80.02 0.999932 -80.02 0.009900 -170.0
8.68525000 0.009904 -170.3 0.999932 -80.02 0.999932 -80.02 0.009904 -170.0
8.68525500 0.009909 -170.3 0.999932 -80.02 0.999932 -80.02 0.009908 -170.0
8.68526000 0.009913 -170.3 0.999932 -80.02 0.999932 -80.02 0.009913 -170.0
8.68526500 0.009917 -170.3 0.999932 -80.02 0.999932 -80.02 0.009917 -170.0
8.68527000 0.009922 -170.3 0.999932 -80.02 0.999932 -80.02 0.009921 -170.0
8.68527500 0.009926 -170.3 0.999932 -80.02 0.999932 -80.02 0.009926 -170.0
8.68528000 0.009930 -170.3 0.999932 -80.02 0.999932 -80.02 0.009930 -170.0
8.68528500 0.009935 -170.3 0.999931 -80.02 0.999931 -80.02 0.009934 -170.0
8.68529000 0.009939 -170.3 0.999931 -80.02 0.999931 -80.02 0.009939 -170.0
8.68529500 0.009943 -170.3 0.999931 -80.02 0.999931 -80.02 0.009943 -170.0
8.68530000 0.009948 -170.3 0.999931 -80.02 0.999931 -80.02 0.009947 -170.0
8.68530500 0.009952 -170.3 0.999931 -80.02 0.999931 -80.02 0.009952 -170.0
8.68531000 0.009956 -170.3 0.999931 -80.02 0.999931 -80.02 0.009956 -170.0
8.68531500 0.009961 -170.3 0.999931 -80.02 0.999931 -80.02 0.009961 -170.0
8.68532000 0.009965 -170.3 0.999931 -80.02 0.999931 -80.02 0.009965 -170.0
8.68532500 0.009969 -170.3 0.999931 -80.02 0.999931 -80.02 0.009969 -170.0
8.68533000 0.009974 -170.3 0.999931 -80.03 0.999931 -80.03 0.009974 -170.0
8.68533500 0.009978 -170.3 0.999931 -80.03 0.999931 -80.03 0.009978 -170.0
8.68534000 0.009983 -170.3 0.999931 -80.03 0.999931 -80.03 0.009982 -170.0
8.68534500 0.009987 -170.3 0.999931 -80.03 0.999931 -80.03 0.009987 -170.0
8.68535000 0.009991 -170.3 0.999931 -80.03 0.999931 -80.03 0.009991 -170.0
8.68535500 0.009996 -170.3 0.999931 -80.03 0.999931 -80.03 0.009996 -170.0
8.68536000 0.010000 -170.3 0.999931 -80.03 0.999931 -80.03 0.010000 -170.0
8.68536500 0.010005 -170.3 0.999930 -80.03 0.999930 -80.03 0.010005 -170.0
8.68537000 0.010009 -170.3 0.999930 -80.03 0.999930 -80.03 0.010009 -170.0
8.68537500 0.010014 -170.3 0.999930 -80.03 0.999930 -80.03 0.010013 -170.0
8.68538000 0.010018 -170.3 0.999930 -80.03 0.999930 -80.03 0.010018 -170.0
8.68538500 0.010022 -170.3 0.999930 -80.03 0.999930 -80.03 0.010022 -170.0
8.68539000 0.010027 -170.3 0.999930 -80.03 0.999930 -80.03 0.010027 -170.0
8.68539500 0.010031 -170.3 0.999930 -80.03 0.999930 -80.03 0.010031 -170.0
8.68540000 0.010036 -170.3 0.999930 -80.03 0.999930 -80.03 0.010036 -170.0
8.68540500 0.010040 -170.3 0.999930 -80.03 0.999930 -80.03 0.010040 -170.0
8.68541000 0.010045 -170.3 0.999930 -80.03 0.999930 -80.03 0.010045 -170.0
8.68541500 0.010049 -170.3 0.999930 -80.03 0.999930 -80.03 0.010049 -170.0
8.68542000 0.010054 -170.3 0.999930 -80.03 0.999930 -80.03 0.010054 -170.0
8.68542500 0.010058 -170.3 0.999930 -80.03 0.999930 -80.03 0.010058 -170.0
8.68543000 0.010063 -170.3 0.999930 -80.03 0.999930 -80.03 0.010062 -170.0
8.68543500 0.010067 -170.3 0.999930 -80.03 0.999930 -80.03 0.010067 -170.0
8.68544000 0.010072 -170.3 0.999929 -80.03 0.999929 -80.03 0.010071 -170.0
8.68544500 0.010076 -170.3 0.999929 -80.03 0.999929 -80.03 0.010076 -170.0
8.68545000 0.010081 -170.3 0.999929 -80.03 0.999929 -80.03 0.010081 -170.0
8.68545500 0.010085 -170.3 0.999929 -80.03 0.999929 -80.03 0.010085 -170.0
8.68546000 0.010090 -170.3 0.999929 -80.03 0.999929 -80.03 0.010090 -170.0
8.68546500 0.010094 -170.3 0.999929 -80.03 0.999929 -80.03 0.010094 -170.0
8.68547000 0.010099 -170.3 0.999929 -80.03 0.999929 -80.03 0.010099 -170.0
8.68547500 0.010103 -170.3 0.999929 -80.03 0.999929 -80.03 0.010103 -170.0
8.68548000 0.010108 -170.3 0.999929 -80.03 0.999929 -80.03 0.010108 -170.0
8.68548500 0.010112 -170.3 0.999929 -80.03 0.999929 -80.03 0.010112 -170.0
8.68549000 0.010117 -170.3 0.999929 -80.03 0.999929 -80.03 0.010117 -170.0
8.68549500 0.010121 -170.3 0.999929 -80.04 0.999929 -80.04 0.010121 -170.0
8.68550000 0.010126 -170.3 0.999929 -80.04 0.999929 -80.04 0.010126 -170.0
8.68550500 0.010131 -170.3 0.999929 -80.04 0.999929 -80.04 0.010130 -170.0
8.68551000 0.010135 -170.3 0.999929 -80.04 0.999929 -80.04 0.010135 -170.0
8.68551500 0.010140 -170.3 0.999929 -80.04 0.999929 -80.04 0.010140 -170.0
8.68552000 0.010144 -170.3 0.999928 -80.04 0.999928 -80.04 0.010144 -170.0
8.68552500 0.010149 -170.3 0.999928 -80.04 0.999928 -80.04 0.010149 -170.0
8.68553000 0.010154 -170.3 0.999928 -80.04 0.999928 -80.04 0.010153 -170.0
8.68553500 0.010158 -170.3 0.999928 -80.04 0.999928 -80.04 0.010158 -170.0
8.68554000 0.010163 -170.3 0.999928 -80.04 0.999928 -80.04 0.010163 -170.0
8.68554500 0.010167 -170.3 0.999928 -80.04 0.999928 -80.04 0.010167 -170.0
8.68555000 0.010172 -170.3 0.999928 -80.04 0.999928 -80.04 0.010172 -170.0
8.68555500 0.010177 -170.3 0.999928 -80.04 0.999928 -80.04 0.010176 -170.0
8.68556000 0.010181 -170.3 0.999928 -80.04 0.999928 -80.04 0.010181 -170.0
8.68556500 0.010186 -170.3 0.999928 -80.04 0.999928 -80.04 0.010186 -170.0
8.68557000 0.010191 -170.3 0.999928 -80.04 0.999928 -80.04 0.010190 -170.0
8.68557500 0.010195 -170.3 0.999928 -80.04 0.999928 -80.04 0.010195 -170.0
8.68558000 0.010200 -170.3 0.999928 -80.04 0.999928 -80.04 0.010200 -170.0
8.68558500 0.010204 -170.3 0.999928 -80.04 0.999928 -80.04 0.010204 -170.0
8.68559000 0.010209 -170.3 0.999927 -80.04 0.999927 -80.04 0.010209 -170.0
8.68559500 0.010214 -170.3 0.999927 -80.04 0.999927 -80.04 0.010214 -170.0
8.68560000 0.010218 -170.3 0.999927 -80.04 0.999927 -80.04 0.010218 -170.0
8.68560500 0.010223 -170.3 0.999927 -80.04 0.999927 -80.04 0.010223 -170.0
8.68561000 0.010228 -170.3 0.999927 -80.04 0.999927 -80.04 0.010228 -170.0
8.68561500 0.010233 -170.3 0.999927 -80.04 0.999927 -80.04 0.010232 -170.0
8.68562000 0.010237 -170.3 0.999927 -80.04 0.999927 -80.04 0.010237 -170.0
8.68562500 0.010242 -170.3 0.999927 -80.04 0.999927 -80.04 0.010242 -170.0
8.68563000 0.010247 -170.3 0.999927 -80.04 0.999927 -80.04 0.010247 -170.0
8.68563500 0.010251 -170.3 0.999927 -80.04 0.999927 -80.04 0.010251 -170.0
8.68564000 0.010256 -170.3 0.999927 -80.04 0.999927 -80.04 0.010256 -170.0
8.68564500 0.010261 -170.3 0.999927 -80.04 0.999927 -80.04 0.010261 -170.0
8.68565000 0.010266 -170.3 0.999927 -80.04 0.999927 -80.04 0.010265 -170.0
8.68565500 0.010270 -170.3 0.999927 -80.05 0.999927 -80.05 0.010270 -170.0
8.68566000 0.010275 -170.3 0.999927 -80.05 0.999927 -80.05 0.010275 -170.0
8.68566500 0.010280 -170.3 0.999926 -80.05 0.999926 -80.05 0.010280 -170.0
8.68567000 0.010285 -170.3 0.999926 -80.05 0.999926 -80.05 0.010284 -170.0
8.68567500 0.010289 -170.3 0.999926 -80.05 0.999926 -80.05 0.010289 -170.0
8.68568000 0.010294 -170.3 0.999926 -80.05 0.999926 -80.05 0.010294 -170.0
8.68568500 0.010299 -170.3 0.999926 -80.05 0.999926 -80.05 0.010299 -170.0
8.68569000 0.010304 -170.3 0.999926 -80.05 0.999926 -80.05 0.010303 -170.0
8.68569500 0.010308 -170.3 0.999926 -80.05 0.999926 -80.05 0.010308 -170.0
8.68570000 0.010313 -170.3 0.999926 -80.05 0.999926 -80.05 0.010313 -170.0
8.68570500 0.010318 -170.3 0.999926 -80.05 0.999926 -80.05 0.010318 -170.0
8.68571000 0.010323 -170.3 0.999926 -80.05 0.999926 -80.05 0.010323 -170.0
8.68571500 0.010328 -170.3 0.999926 -80.05 0.999926 -80.05 0.010327 -170.0
8.68572000 0.010332 -170.3 0.999926 -80.05 0.999926 -80.05 0.010332 -170.0
8.68572500 0.010337 -170.3 0.999926 -80.05 0.999926 -80.05 0.010337 -170.0
8.68573000 0.010342 -170.3 0.999926 -80.05 0.999926 -80.05 0.010342 -170.0
8.68573500 0.010347 -170.3 0.999925 -80.05 0.999925 -80.05 0.010347 -170.0
8.68574000 0.010352 -170.3 0.999925 -80.05 0.999925 -80.05 0.010352 -170.0
8.68574500 0.010357 -170.3 0.999925 -80.05 0.999925 -80.05 0.010356 -170.0
8.68575000 0.010361 -170.3 0.999925 -80.05 0.999925 -80.05 0.010361 -170.0
8.68575500 0.010366 -170.3 0.999925 -80.05 0.999925 -80.05 0.010366 -170.0
8.68576000 0.010371 -170.3 0.999925 -80.05 0.999925 -80.05 0.010371 -170.0
8.68576500 0.010376 -170.3 0.999925 -80.05 0.999925 -80.05 0.010376 -170.0
8.68577000 0.010381 -170.3 0.999925 -80.05 0.999925 -80.05 0.010381 -170.0
8.68577500 0.010386 -170.3 0.999925 -80.05 0.999925 -80.05 0.010386 -170.0
8.68578000 0.010391 -170.3 0.999925 -80.05 0.999925 -80.05 0.010390 -170.0
8.68578500 0.010396 -170.3 0.999925 -80.05 0.999925 -80.05 0.010395 -170.0
8.68579000 0.010400 -170.3 0.999925 -80.05 0.999925 -80.05 0.010400 -170.0
8.68579500 0.010405 -170.3 0.999925 -80.05 0.999925 -80.05 0.010405 -170.0
8.68580000 0.010410 -170.3 0.999925 -80.05 0.999925 -80.05 0.010410 -170.0
8.68580500 0.010415 -170.3 0.999924 -80.05 0.999924 -80.05 0.010415 -170.0
8.68581000 0.010420 -170.3 0.999924 -80.06 0.999924 -80.06 0.010420 -170.0
8.68581500 0.010425 -170.3 0.999924 -80.06 0.999924 -80.06 0.010425 -170.0
8.68582000 0.010430 -170.3 0.999924 -80.06 0.999924 -80.06 0.010430 -170.0
8.68582500 0.010435 -170.3 0.999924 -80.06 0.999924 -80.06 0.010435 -170.0
8.68583000 0.010440 -170.3 0.999924 -80.06 0.999924 -80.06 0.010440 -170.0
8.68583500 0.010445 -170.3 0.999924 -80.06 0.999924 -80.06 0.010445 -170.0
8.68584000 0.010450 -170.3 0.999924 -80.06 0.999924 -80.06 0.010450 -170.0
8.68584500 0.010455 -170.3 0.999924 -80.06 0.999924 -80.06 0.010454 -170.0
8.68585000 0.010460 -170.3 0.999924 -80.06 0.999924 -80.06 0.010459 -170.0
8.68585500 0.010465 -170.3 0.999924 -80.06 0.999924 -80.06 0.010464 -170.0
8.68586000 0.010470 -170.3 0.999924 -80.06 0.999924 -80.06 0.010469 -170.0
8.68586500 0.010475 -170.3 0.999924 -80.06 0.999924 -80.06 0.010474 -170.0
8.68587000 0.010480 -170.3 0.999923 -80.06 0.999923 -80.06 0.010479 -170.0
8.68587500 0.010485 -170.3 0.999923 -80.06 0.999923 -80.06 0.010484 -170.0
8.68588000 0.010490 -170.3 0.999923 -80.06 0.999923 -80.06 0.010489 -170.0
8.68588500 0.010495 -170.3 0.999923 -80.06 0.999923 -80.06 0.010494 -170.0
8.68589000 0.010500 -170.3 0.999923 -80.06 0.999923 -80.06 0.010499 -170.0
8.68589500 0.010505 -170.3 0.999923 -80.06 0.999923 -80.06 0.010504 -170.0
8.68590000 0.010510 -170.3 0.999923 -80.06 0.999923 -80.06 0.010509 -170.0
8.68590500 0.010515 -170.3 0.999923 -80.06 0.999923 -80.06 0.010515 -170.0
8.68591000 0.010520 -170.3 0.999923 -80.06 0.999923 -80.06 0.010520 -170.0
8.68591500 0.010525 -170.3 0.999923 -80.06 0.999923 -80.06 0.010525 -170.0
8.68592000 0.010530 -170.3 0.999923 -80.06 0.999923 -80.06 0.010530 -170.0
8.68592500 0.010535 -170.3 0.999923 -80.06 0.999923 -80.06 0.010535 -170.0
8.68593000 0.010540 -170.3 0.999923 -80.06 0.999923 -80.06 0.010540 -170.0
8.68593500 0.010545 -170.3 0.999922 -80.06 0.999922 -80.06 0.010545 -170.0
8.68594000 0.010550 -170.3 0.999922 -80.06 0.999922 -80.06 0.010550 -170.0
8.68594500 0.010555 -170.3 0.999922 -80.06 0.999922 -80.06 0.010555 -170.0
8.68595000 0.010560 -170.3 0.999922 -80.06 0.999922 -80.06 0.010560 -170.0
8.68595500 0.010565 -170.3 0.999922 -80.06 0.999922 -80.06 0.010565 -170.0
8.68596000 0.010571 -170.3 0.999922 -80.07 0.999922 -80.07 0.010570 -170.0
8.68596500 0.010576 -170.3 0.999922 -80.07 0.999922 -80.07 0.010575 -170.0
8.68597000 0.010581 -170.3 0.999922 -80.07 0.999922 -80.07 0.010581 -170.0
8.68597500 0.010586 -170.3 0.999922 -80.07 0.999922 -80.07 0.010586 -170.0
8.68598000 0.010591 -170.3 0.999922 -80.07 0.999922 -80.07 0.010591 -170.0
8.68598500 0.010596 -170.3 0.999922 -80.07 0.999922 -80.07 0.010596 -170.0
8.68599000 0.010601 -170.3 0.999922 -80.07 0.999922 -80.07 0.010601 -170.0
8.68599500 0.010606 -170.3 0.999922 -80.07 0.999922 -80.07 0.010606 -170.0
8.68600000 0.010612 -170.3 0.999921 -80.07 0.999921 -80.07 0.010611 -170.0
8.68600500 0.010617 -170.3 0.999921 -80.07 0.999921 -80.07 0.010617 -170.0
8.68601000 0.010622 -170.3 0.999921 -80.07 0.999921 -80.07 0.010622 -170.0
8.68601500 0.010627 -170.3 0.999921 -80.07 0.999921 -80.07 0.010627 -170.0
8.68602000 0.010632 -170.3 0.999921 -80.07 0.999921 -80.07 0.010632 -170.0
8.68602500 0.010637 -170.3 0.999921 -80.07 0.999921 -80.07 0.010637 -170.0
8.68603000 0.010643 -170.3 0.999921 -80.07 0.999921 -80.07 0.010643 -170.0
8.68603500 0.010648 -170.3 0.999921 -80.07 0.999921 -80.07 0.010648 -170.0
8.68604000 0.010653 -170.3 0.999921 -80.07 0.999921 -80.07 0.010653 -170.0
8.68604500 0.010658 -170.3 0.999921 -80.07 0.999921 -80.07 0.010658 -170.0
8.68605000 0.010664 -170.3 0.999921 -80.07 0.999921 -80.07 0.010663 -170.0
8.68605500 0.010669 -170.3 0.999921 -80.07 0.999921 -80.07 0.010669 -170.0
8.68606000 0.010674 -170.3 0.999921 -80.07 0.999921 -80.07 0.010674 -170.0
8.68606500 0.010679 -170.3 0.999920 -80.07 0.999920 -80.07 0.010679 -170.0
8.68607000 0.010685 -170.3 0.999920 -80.07 0.999920 -80.07 0.010684 -170.0
8.68607500 0.010690 -170.3 0.999920 -80.07 0.999920 -80.07 0.010690 -170.0
8.68608000 0.010695 -170.3 0.999920 -80.07 0.999920 -80.07 0.010695 -170.0
8.68608500 0.010700 -170.3 0.999920 -80.07 0.999920 -80.07 0.010700 -170.0
8.68609000 0.010706 -170.3 0.999920 -80.07 0.999920 -80.07 0.010705 -170.0
8.68609500 0.010711 -170.3 0.999920 -80.07 0.999920 -80.07 0.010711 -170.0
8.68610000 0.010716 -170.3 0.999920 -80.07 0.999920 -80.07 0.010716 -170.0
8.68610500 0.010721 -170.3 0.999920 -80.07 0.999920 -80.07 0.010721 -170.0
8.68611000 0.010727 -170.3 0.999920 -80.08 0.999920 -80.08 0.010727 -170.0
8.68611500 0.010732 -170.3 0.999920 -80.08 0.999920 -80.08 0.010732 -170.0
8.68612000 0.010737 -170.3 0.999920 -80.08 0.999920 -80.08 0.010737 -170.0
8.68612500 0.010743 -170.3 0.999919 -80.08 0.999919 -80.08 0.010743 -170.0
8.68613000 0.010748 -170.3 0.999919 -80.08 0.999919 -80.08 0.010748 -170.0
8.68613500 0.010753 -170.3 0.999919 -80.08 0.999919 -80.08 0.010753 -170.0
8.68614000 0.010759 -170.3 0.999919 -80.08 0.999919 -80.08 0.010759 -170.0
8.68614500 0.010764 -170.3 0.999919 -80.08 0.999919 -80.08 0.010764 -170.0
8.68615000 0.010769 -170.3 0.999919 -80.08 0.999919 -80.08 0.010769 -170.0
8.68615500 0.010775 -170.3 0.999919 -80.08 0.999919 -80.08 0.010775 -170.0
8.68616000 0.010780 -170.3 0.999919 -80.08 0.999919 -80.08 0.010780 -170.0
8.68616500 0.010786 -170.3 0.999919 -80.08 0.999919 -80.08 0.010785 -170.0
8.68617000 0.010791 -170.3 0.999919 -80.08 0.999919 -80.08 0.010791 -170.0
8.68617500 0.010796 -170.3 0.999919 -80.08 0.999919 -80.08 0.010796 -170.0
8.68618000 0.010802 -170.4 0.999919 -80.08 0.999919 -80.08 0.010802 -170.0
8.68618500 0.010807 -170.4 0.999918 -80.08 0.999918 -80.08 0.010807 -170.0
8.68619000 0.010813 -170.4 0.999918 -80.08 0.999918 -80.08 0.010812 -170.0
8.68619500 0.010818 -170.4 0.999918 -80.08 0.999918 -80.08 0.010818 -170.0
8.68620000 0.010823 -170.4 0.999918 -80.08 0.999918 -80.08 0.010823 -170.0
8.68620500 0.010829 -170.4 0.999918 -80.08 0.999918 -80.08 0.010829 -170.0
8.68621000 0.010834 -170.4 0.999918 -80.08 0.999918 -80.08 0.010834 -170.0
8.68621500 0.010840 -170.4 0.999918 -80.08 0.999918 -80.08 0.010840 -170.0
8.68622000 0.010845 -170.4 0.999918 -80.08 0.999918 -80.08 0.010845 -170.0
8.68622500 0.010851 -170.4 0.999918 -80.08 0.999918 -80.08 0.010851 -170.1
8.68623000 0.010856 -170.4 0.999918 -80.08 0.999918 -80.08 0.010856 -170.1
8.68623500 0.010862 -170.4 0.999918 -80.08 0.999918 -80.08 0.010861 -170.1
8.68624000 0.010867 -170.4 0.999918 -80.08 0.999918 -80.08 0.010867 -170.1
8.68624500 0.010873 -170.4 0.999917 -80.08 0.999917 -80.08 0.010872 -170.1
8.68625000 0.010878 -170.4 0.999917 -80.09 0.999917 -80.09 0.010878 -170.1
8.68625500 0.010884 -170.4 0.999917 -80.09 0.999917 -80.09 0.010883 -170.1
8.68626000 0.010889 -170.4 0.999917 -80.09 0.999917 -80.09 0.010889 -170.1
8.68626500 0.010895 -170.4 0.999917 -80.09 0.999917 -80.09 0.010895 -170.1
8.68627000 0.010900 -170.4 0.999917 -80.09 0.999917 -80.09 0.010900 -170.1
8.68627500 0.010906 -170.4 0.999917 -80.09 0.999917 -80.09 0.010906 -170.1
8.68628000 0.010911 -170.4 0.999917 -80.09 0.999917 -80.09 0.010911 -170.1
8.68628500 0.010917 -170.4 0.999917 -80.09 0.999917 -80.09 0.010917 -170.1
8.68629000 0.010922 -170.4 0.999917 -80.09 0.999917 -80.09 0.010922 -170.1
8.68629500 0.010928 -170.4 0.999917 -80.09 0.999917 -80.09 0.010928 -170.1
8.68630000 0.010934 -170.4 0.999916 -80.09 0.999916 -80.09 0.010933 -170.1
8.68630500 0.010939 -170.4 0.999916 -80.09 0.999916 -80.09 0.010939 -170.1
8.68631000 0.010945 -170.4 0.999916 -80.09 0.999916 -80.09 0.010945 -170.1
8.68631500 0.010950 -170.4 0.999916 -80.09 0.999916 -80.09 0.010950 -170.1
8.68632000 0.010956 -170.4 0.999916 -80.09 0.999916 -80.09 0.010956 -170.1
8.68632500 0.010962 -170.4 0.999916 -80.09 0.999916 -80.09 0.010961 -170.1
8.68633000 0.010967 -170.4 0.999916 -80.09 0.999916 -80.09 0.010967 -170.1
8.68633500 0.010973 -170.4 0.999916 -80.09 0.999916 -80.09 0.010973 -170.1
8.68634000 0.010978 -170.4 0.999916 -80.09 0.999916 -80.09 0.010978 -170.1
8.68634500 0.010984 -170.4 0.999916 -80.09 0.999916 -80.09 0.010984 -170.1
8.68635000 0.010990 -170.4 0.999916 -80.09 0.999916 -80.09 0.010989 -170.1
8.68635500 0.010995 -170.4 0.999916 -80.09 0.999916 -80.09 0.010995 -170.1
8.68636000 0.011001 -170.4 0.999915 -80.09 0.999915 -80.09 0.011001 -170.1
8.68636500 0.011007 -170.4 0.999915 -80.09 0.999915 -80.09 0.011006 -170.1
8.68637000 0.011012 -170.4 0.999915 -80.09 0.999915 -80.09 0.011012 -170.1
8.68637500 0.011018 -170.4 0.999915 -80.09 0.999915 -80.09 0.011018 -170.1
8.68638000 0.011024 -170.4 0.999915 -80.09 0.999915 -80.09 0.011024 -170.1
8.68638500 0.011029 -170.4 0.999915 -80.10 0.999915 -80.10 0.011029 -170.1
8.68639000 0.011035 -170.4 0.999915 -80.10 0.999915 -80.10 0.011035 -170.1
8.68639500 0.011041 -170.4 0.999915 -80.10 0.999915 -80.10 0.011041 -170.1
8.68640000 0.011047 -170.4 0.999915 -80.10 0.999915 -80.10 0.011046 -170.1
8.68640500 0.011052 -170.4 0.999915 -80.10 0.999915 -80.10 0.011052 -170.1
8.68641000 0.011058 -170.4 0.999915 -80.10 0.999915 -80.10 0.011058 -170.1
8.68641500 0.011064 -170.4 0.999914 -80.10 0.999914 -80.10 0.011064 -170.1
8.68642000 0.011070 -170.4 0.999914 -80.10 0.999914 -80.10 0.011069 -170.1
8.68642500 0.011075 -170.4 0.999914 -80.10 0.999914 -80.10 0.011075 -170.1
8.68643000 0.011081 -170.4 0.999914 -80.10 0.999914 -80.10 0.011081 -170.1
8.68643500 0.011087 -170.4 0.999914 -80.10 0.999914 -80.10 0.011087 -170.1
8.68644000 0.011093 -170.4 0.999914 -80.10 0.999914 -80.10 0.011092 -170.1
8.68644500 0.011098 -170.4 0.999914 -80.10 0.999914 -80.10 0.011098 -170.1
8.68645000 0.011104 -170.4 0.999914 -80.10 0.999914 -80.10 0.011104 -170.1
8.68645500 0.011110 -170.4 0.999914 -80.10 0.999914 -80.10 0.011110 -170.1
8.68646000 0.011116 -170.4 0.999914 -80.10 0.999914 -80.10 0.011116 -170.1
8.68646500 0.011122 -170.4 0.999913 -80.10 0.999913 -80.10 0.011121 -170.1
8.68647000 0.011127 -170.4 0.999913 -80.10 0.999913 -80.10 0.011127 -170.1
8.68647500 0.011133 -170.4 0.999913 -80.10 0.999913 -80.10 0.011133 -170.1
8.68648000 0.011139 -170.4 0.999913 -80.10 0.999913 -80.10 0.011139 -170.1
8.68648500 0.011145 -170.4 0.999913 -80.10 0.999913 -80.10 0.011145 -170.1
8.68649000 0.011151 -170.4 0.999913 -80.10 0.999913 -80.10 0.011151 -170.1
8.68649500 0.011157 -170.4 0.999913 -80.10 0.999913 -80.10 0.011157 -170.1
8.68650000 0.011163 -170.4 0.999913 -80.10 0.999913 -80.10 0.011162 -170.1
8.68650500 0.011169 -170.4 0.999913 -80.10 0.999913 -80.10 0.011168 -170.1
8.68651000 0.011174 -170.4 0.999913 -80.10 0.999913 -80.10 0.011174 -170.1
8.68651500 0.011180 -170.4 0.999913 -80.11 0.999913 -80.11 0.011180 -170.1
8.68652000 0.011186 -170.4 0.999912 -80.11 0.999912 -80.11 0.011186 -170.1
8.68652500 0.011192 -170.4 0.999912 -80.11 0.999912 -80.11 0.011192 -170.1
8.68653000 0.011198 -170.4 0.999912 -80.11 0.999912 -80.11 0.011198 -170.1
8.68653500 0.011204 -170.4 0.999912 -80.11 0.999912 -80.11 0.011204 -170.1
8.68654000 0.011210 -170.4 0.999912 -80.11 0.999912 -80.11 0.011210 -170.1
8.68654500 0.011216 -170.4 0.999912 -80.11 0.999912 -80.11 0.011216 -170.1
8.68655000 0.011222 -170.4 0.999912 -80.11 0.999912 -80.11 0.011222 -170.1
8.68655500 0.011228 -170.4 0.999912 -80.11 0.999912 -80.11 0.011228 -170.1
8.68656000 0.011234 -170.4 0.999912 -80.11 0.999912 -80.11 0.011234 -170.1
8.68656500 0.011240 -170.4 0.999912 -80.11 0.999912 -80.11 0.011240 -170.1
8.68657000 0.011246 -170.4 0.999911 -80.11 0.999911 -80.11 0.011246 -170.1
8.68657500 0.011252 -170.4 0.999911 -80.11 0.999911 -80.11 0.011252 -170.1
8.68658000 0.011258 -170.4 0.999911 -80.11 0.999911 -80.11 0.011258 -170.1
8.68658500 0.011264 -170.4 0.999911 -80.11 0.999911 -80.11 0.011264 -170.1
8.68659000 0.011270 -170.4 0.999911 -80.11 0.999911 -80.11 0.011270 -170.1
8.68659500 0.011276 -170.4 0.999911 -80.11 0.999911 -80.11 0.011276 -170.1
8.68660000 0.011282 -170.4 0.999911 -80.11 0.999911 -80.11 0.011282 -170.1
8.68660500 0.011288 -170.4 0.999911 -80.11 0.999911 -80.11 0.011288 -170.1
8.68661000 0.011294 -170.4 0.999911 -80.11 0.999911 -80.11 0.011294 -170.1
8.68661500 0.011300 -170.4 0.999911 -80.11 0.999911 -80.11 0.011300 -170.1
8.68662000 0.011306 -170.4 0.999911 -80.11 0.999911 -80.11 0.011306 -170.1
8.68662500 0.011312 -170.4 0.999910 -80.11 0.999910 -80.11 0.011312 -170.1
8.68663000 0.011318 -170.4 0.999910 -80.11 0.999910 -80.11 0.011318 -170.1
8.68663500 0.011324 -170.4 0.999910 -80.11 0.999910 -80.11 0.011324 -170.1
8.68664000 0.011330 -170.4 0.999910 -80.11 0.999910 -80.11 0.011330 -170.1
8.68664500 0.011337 -170.4 0.999910 -80.12 0.999910 -80.12 0.011336 -170.1
8.68665000 0.011343 -170.4 0.999910 -80.12 0.999910 -80.12 0.011343 -170.1
8.68665500 0.011349 -170.4 0.999910 -80.12 0.999910 -80.12 0.011349 -170.1
8.68666000 0.011355 -170.4 0.999910 -80.12 0.999910 -80.12 0.011355 -170.1
8.68666500 0.011361 -170.4 0.999910 -80.12 0.999910 -80.12 0.011361 -170.1
8.68667000 0.011367 -170.4 0.999909 -80.12 0.999909 -80.12 0.011367 -170.1
8.68667500 0.011373 -170.4 0.999909 -80.12 0.999909 -80.12 0.011373 -170.1
8.68668000 0.011380 -170.4 0.999909 -80.12 0.999909 -80.12 0.011379 -170.1
8.68668500 0.011386 -170.4 0.999909 -80.12 0.999909 -80.12 0.011386 -170.1
8.68669000 0.011392 -170.4 0.999909 -80.12 0.999909 -80.12 0.011392 -170.1
8.68669500 0.011398 -170.4 0.999909 -80.12 0.999909 -80.12 0.011398 -170.1
8.68670000 0.011404 -170.4 0.999909 -80.12 0.999909 -80.12 0.011404 -170.1
8.68670500 0.011411 -170.4 0.999909 -80.12 0.999909 -80.12 0.011410 -170.1
8.68671000 0.011417 -170.4 0.999909 -80.12 0.999909 -80.12 0.011417 -170.1
8.68671500 0.011423 -170.4 0.999909 -80.12 0.999909 -80.12 0.011423 -170.1
8.68672000 0.011429 -170.4 0.999908 -80.12 0.999908 -80.12 0.011429 -170.1
8.68672500 0.011436 -170.4 0.999908 -80.12 0.999908 -80.12 0.011435 -170.1
8.68673000 0.011442 -170.4 0.999908 -80.12 0.999908 -80.12 0.011442 -170.1
8.68673500 0.011448 -170.4 0.999908 -80.12 0.999908 -80.12 0.011448 -170.1
8.68674000 0.011454 -170.4 0.999908 -80.12 0.999908 -80.12 0.011454 -170.1
8.68674500 0.011461 -170.4 0.999908 -80.12 0.999908 -80.12 0.011460 -170.1
8.68675000 0.011467 -170.4 0.999908 -80.12 0.999908 -80.12 0.011467 -170.1
8.68675500 0.011473 -170.4 0.999908 -80.12 0.999908 -80.12 0.011473 -170.1
8.68676000 0.011480 -170.4 0.999908 -80.12 0.999908 -80.12 0.011479 -170.1
8.68676500 0.011486 -170.4 0.999908 -80.12 0.999908 -80.12 0.011486 -170.1
8.68677000 0.011492 -170.4 0.999907 -80.13 0.999907 -80.13 0.011492 -170.1
8.68677500 0.011499 -170.4 0.999907 -80.13 0.999907 -80.13 0.011498 -170.1
8.68678000 0.011505 -170.4 0.999907 -80.13 0.999907 -80.13 0.011505 -170.1
8.68678500 0.011511 -170.4 0.999907 -80.13 0.999907 -80.13 0.011511 -170.1
8.68679000 0.011518 -170.4 0.999907 -80.13 0.999907 -80.13 0.011517 -170.1
8.68679500 0.011524 -170.4 0.999907 -80.13 0.999907 -80.13 0.011524 -170.1
8.68680000 0.011530 -170.4 0.999907 -80.13 0.999907 -80.13 0.011530 -170.1
8.68680500 0.011537 -170.4 0.999907 -80.13 0.999907 -80.13 0.011537 -170.1
8.68681000 0.011543 -170.4 0.999907 -80.13 0.999907 -80.13 0.011543 -170.1
8.68681500 0.011550 -170.4 0.999906 -80.13 0.999906 -80.13 0.011549 -170.1
8.68682000 0.011556 -170.4 0.999906 -80.13 0.999906 -80.13 0.011556 -170.1
8.68682500 0.011562 -170.4 0.999906 -80.13 0.999906 -80.13 0.011562 -170.1
8.68683000 0.011569 -170.4 0.999906 -80.13 0.999906 -80.13 0.011569 -170.1
8.68683500 0.011575 -170.4 0.999906 -80.13 0.999906 -80.13 0.011575 -170.1
8.68684000 0.011582 -170.4 0.999906 -80.13 0.999906 -80.13 0.011582 -170.1
8.68684500 0.011588 -170.4 0.999906 -80.13 0.999906 -80.13 0.011588 -170.1
8.68685000 0.011595 -170.4 0.999906 -80.13 0.999906 -80.13 0.011595 -170.1
8.68685500 0.011601 -170.4 0.999906 -80.13 0.999906 -80.13 0.011601 -170.1
8.68686000 0.011608 -170.4 0.999905 -80.13 0.999905 -80.13 0.011608 -170.1
8.68686500 0.011614 -170.4 0.999905 -80.13 0.999905 -80.13 0.011614 -170.1
8.68687000 0.011621 -170.4 0.999905 -80.13 0.999905 -80.13 0.011621 -170.1
8.68687500 0.011627 -170.4 0.999905 -80.13 0.999905 -80.13 0.011627 -170.1
8.68688000 0.011634 -170.4 0.999905 -80.13 0.999905 -80.13 0.011634 -170.1
8.68688500 0.011640 -170.4 0.999905 -80.13 0.999905 -80.13 0.011640 -170.1
8.68689000 0.011647 -170.4 0.999905 -80.14 0.999905 -80.14 0.011647 -170.1
8.68689500 0.011653 -170.4 0.999905 -80.14 0.999905 -80.14 0.011653 -170.1
8.68690000 0.011660 -170.4 0.999905 -80.14 0.999905 -80.14 0.011660 -170.1
8.68690500 0.011667 -170.4 0.999905 -80.14 0.999905 -80.14 0.011666 -170.1
8.68691000 0.011673 -170.4 0.999904 -80.14 0.999904 -80.14 0.011673 -170.1
8.68691500 0.011680 -170.4 0.999904 -80.14 0.999904 -80.14 0.011680 -170.1
8.68692000 0.011686 -170.4 0.999904 -80.14 0.999904 -80.14 0.011686 -170.1
8.68692500 0.011693 -170.4 0.999904 -80.14 0.999904 -80.14 0.011693 -170.1
8.68693000 0.011700 -170.4 0.999904 -80.14 0.999904 -80.14 0.011699 -170.1
8.68693500 0.011706 -170.4 0.999904 -80.14 0.999904 -80.14 0.011706 -170.1
8.68694000 0.011713 -170.4 0.999904 -80.14 0.999904 -80.14 0.011713 -170.1
8.68694500 0.011720 -170.4 0.999904 -80.14 0.999904 -80.14 0.011719 -170.1
8.68695000 0.011726 -170.4 0.999903 -80.14 0.999903 -80.14 0.011726 -170.1
8.68695500 0.011733 -170.4 0.999903 -80.14 0.999903 -80.14 0.011733 -170.1