! Sonnet Data File
! From: emgraph Version : 16.52
! From Project: Qubit_Xmon2_brg_para
! Data is De-embedded 
! Data File Written: 10/25/2017 15:52:26
!< HDATE 10/25/2017 13:56:11
!< MDATE 10/25/2017 13:56:11
!< PARAMS
!< Lj = 11.0
!< Gap = 6.0
!< Pwid = 2000.0
!< Airgap = 6.0
!< Width = 10.0
!< Bwid = 8.0
!< Dis1 = 750.0
!< Dis2 = 756.0
!< END PARAMS
# GHZ S MA R 51.80000
8.76000000 0.004903 -169.4 0.999982 -80.47 0.999982 -80.47 0.004903 -171.6
!< P1 F=8.76 Eeff=(6.44679147 -2.9786e-5) Z0=(51.7991429 1.19067e-4) R=0.0 C=0.0 
!< P2 F=8.76 Eeff=(6.44679147 -2.9786e-5) Z0=(51.7991429 1.19067e-4) R=0.0 C=0.0 
8.76002000 0.004906 -169.4 0.999982 -80.47 0.999982 -80.47 0.004906 -171.6
8.76004000 0.004909 -169.4 0.999982 -80.47 0.999982 -80.47 0.004909 -171.6
8.76006000 0.004912 -169.4 0.999982 -80.47 0.999982 -80.47 0.004912 -171.6
8.76008000 0.004915 -169.4 0.999982 -80.47 0.999982 -80.47 0.004915 -171.6
8.76010000 0.004918 -169.4 0.999982 -80.47 0.999982 -80.47 0.004918 -171.6
8.76012000 0.004921 -169.4 0.999982 -80.47 0.999982 -80.47 0.004921 -171.6
8.76014000 0.004924 -169.4 0.999982 -80.47 0.999982 -80.47 0.004924 -171.6
8.76016000 0.004927 -169.4 0.999982 -80.47 0.999982 -80.47 0.004927 -171.6
8.76018000 0.004930 -169.4 0.999982 -80.47 0.999982 -80.47 0.004931 -171.6
8.76020000 0.004933 -169.4 0.999982 -80.47 0.999982 -80.47 0.004934 -171.6
8.76022000 0.004937 -169.4 0.999982 -80.47 0.999982 -80.47 0.004937 -171.6
8.76024000 0.004940 -169.4 0.999982 -80.47 0.999982 -80.47 0.004940 -171.7
8.76026000 0.004943 -169.4 0.999982 -80.47 0.999982 -80.47 0.004943 -171.7
8.76028000 0.004946 -169.4 0.999982 -80.47 0.999982 -80.47 0.004946 -171.7
8.76030000 0.004949 -169.4 0.999982 -80.47 0.999982 -80.47 0.004949 -171.7
8.76032000 0.004952 -169.4 0.999982 -80.47 0.999982 -80.47 0.004952 -171.7
8.76034000 0.004955 -169.4 0.999982 -80.47 0.999982 -80.47 0.004955 -171.7
8.76036000 0.004958 -169.4 0.999982 -80.47 0.999982 -80.47 0.004958 -171.7
8.76038000 0.004961 -169.4 0.999982 -80.47 0.999982 -80.47 0.004961 -171.7
8.76040000 0.004964 -169.4 0.999982 -80.47 0.999982 -80.47 0.004964 -171.7
8.76042000 0.004967 -169.4 0.999982 -80.47 0.999982 -80.47 0.004967 -171.7
8.76044000 0.004970 -169.4 0.999982 -80.47 0.999982 -80.47 0.004970 -171.7
8.76046000 0.004973 -169.4 0.999982 -80.47 0.999982 -80.47 0.004973 -171.7
8.76048000 0.004977 -169.4 0.999982 -80.47 0.999982 -80.47 0.004977 -171.7
8.76050000 0.004980 -169.4 0.999981 -80.47 0.999981 -80.47 0.004980 -171.7
8.76052000 0.004983 -169.4 0.999981 -80.48 0.999981 -80.48 0.004983 -171.7
8.76054000 0.004986 -169.4 0.999981 -80.48 0.999981 -80.48 0.004986 -171.7
8.76056000 0.004989 -169.4 0.999981 -80.48 0.999981 -80.48 0.004989 -171.7
8.76058000 0.004992 -169.4 0.999981 -80.48 0.999981 -80.48 0.004992 -171.7
8.76060000 0.004995 -169.4 0.999981 -80.48 0.999981 -80.48 0.004995 -171.7
8.76062000 0.004999 -169.4 0.999981 -80.48 0.999981 -80.48 0.004999 -171.7
8.76064000 0.005002 -169.4 0.999981 -80.48 0.999981 -80.48 0.005002 -171.7
8.76066000 0.005005 -169.4 0.999981 -80.48 0.999981 -80.48 0.005005 -171.7
8.76068000 0.005008 -169.4 0.999981 -80.48 0.999981 -80.48 0.005008 -171.7
8.76070000 0.005011 -169.4 0.999981 -80.48 0.999981 -80.48 0.005011 -171.7
8.76072000 0.005014 -169.4 0.999981 -80.48 0.999981 -80.48 0.005014 -171.7
8.76074000 0.005018 -169.4 0.999981 -80.48 0.999981 -80.48 0.005018 -171.7
8.76076000 0.005021 -169.4 0.999981 -80.48 0.999981 -80.48 0.005021 -171.7
8.76078000 0.005024 -169.4 0.999981 -80.48 0.999981 -80.48 0.005024 -171.7
8.76080000 0.005027 -169.4 0.999981 -80.48 0.999981 -80.48 0.005027 -171.7
8.76082000 0.005030 -169.4 0.999981 -80.48 0.999981 -80.48 0.005030 -171.7
8.76084000 0.005034 -169.4 0.999981 -80.48 0.999981 -80.48 0.005034 -171.7
8.76086000 0.005037 -169.4 0.999981 -80.48 0.999981 -80.48 0.005037 -171.7
8.76088000 0.005040 -169.4 0.999981 -80.48 0.999981 -80.48 0.005040 -171.7
8.76090000 0.005043 -169.4 0.999981 -80.48 0.999981 -80.48 0.005043 -171.7
8.76092000 0.005047 -169.4 0.999981 -80.48 0.999981 -80.48 0.005047 -171.7
8.76094000 0.005050 -169.4 0.999981 -80.48 0.999981 -80.48 0.005050 -171.7
8.76096000 0.005053 -169.4 0.999981 -80.48 0.999981 -80.48 0.005053 -171.7
8.76098000 0.005056 -169.4 0.999981 -80.48 0.999981 -80.48 0.005056 -171.7
8.76100000 0.005060 -169.4 0.999981 -80.48 0.999981 -80.48 0.005060 -171.7
8.76102000 0.005063 -169.4 0.999981 -80.48 0.999981 -80.48 0.005063 -171.7
8.76104000 0.005066 -169.4 0.999981 -80.48 0.999981 -80.48 0.005066 -171.7
8.76106000 0.005069 -169.4 0.999981 -80.49 0.999981 -80.49 0.005070 -171.7
8.76108000 0.005073 -169.4 0.999981 -80.49 0.999981 -80.49 0.005073 -171.7
8.76110000 0.005076 -169.4 0.999981 -80.49 0.999981 -80.49 0.005076 -171.7
8.76112000 0.005079 -169.4 0.999981 -80.49 0.999981 -80.49 0.005079 -171.7
8.76114000 0.005083 -169.4 0.999981 -80.49 0.999981 -80.49 0.005083 -171.7
8.76116000 0.005086 -169.4 0.999981 -80.49 0.999981 -80.49 0.005086 -171.7
8.76118000 0.005089 -169.4 0.999981 -80.49 0.999981 -80.49 0.005089 -171.7
8.76120000 0.005093 -169.4 0.999981 -80.49 0.999981 -80.49 0.005093 -171.7
8.76122000 0.005096 -169.4 0.999981 -80.49 0.999981 -80.49 0.005096 -171.7
8.76124000 0.005099 -169.4 0.999981 -80.49 0.999981 -80.49 0.005099 -171.7
8.76126000 0.005103 -169.4 0.999981 -80.49 0.999981 -80.49 0.005103 -171.7
8.76128000 0.005106 -169.4 0.999981 -80.49 0.999981 -80.49 0.005106 -171.7
8.76130000 0.005109 -169.4 0.999981 -80.49 0.999981 -80.49 0.005110 -171.7
8.76132000 0.005113 -169.4 0.999981 -80.49 0.999981 -80.49 0.005113 -171.7
8.76134000 0.005116 -169.4 0.999981 -80.49 0.999981 -80.49 0.005116 -171.7
8.76136000 0.005120 -169.4 0.999981 -80.49 0.999981 -80.49 0.005120 -171.7
8.76138000 0.005123 -169.4 0.999981 -80.49 0.999981 -80.49 0.005123 -171.7
8.76140000 0.005126 -169.4 0.999980 -80.49 0.999980 -80.49 0.005126 -171.7
8.76142000 0.005130 -169.4 0.999980 -80.49 0.999980 -80.49 0.005130 -171.7
8.76144000 0.005133 -169.4 0.999980 -80.49 0.999980 -80.49 0.005133 -171.7
8.76146000 0.005137 -169.4 0.999980 -80.49 0.999980 -80.49 0.005137 -171.7
8.76148000 0.005140 -169.4 0.999980 -80.49 0.999980 -80.49 0.005140 -171.7
8.76150000 0.005144 -169.4 0.999980 -80.49 0.999980 -80.49 0.005144 -171.7
8.76152000 0.005147 -169.4 0.999980 -80.49 0.999980 -80.49 0.005147 -171.7
8.76154000 0.005150 -169.4 0.999980 -80.49 0.999980 -80.49 0.005151 -171.7
8.76156000 0.005154 -169.4 0.999980 -80.49 0.999980 -80.49 0.005154 -171.7
8.76158000 0.005157 -169.4 0.999980 -80.49 0.999980 -80.49 0.005157 -171.7
8.76160000 0.005161 -169.4 0.999980 -80.50 0.999980 -80.50 0.005161 -171.7
8.76162000 0.005164 -169.4 0.999980 -80.50 0.999980 -80.50 0.005164 -171.7
8.76164000 0.005168 -169.4 0.999980 -80.50 0.999980 -80.50 0.005168 -171.7
8.76166000 0.005171 -169.4 0.999980 -80.50 0.999980 -80.50 0.005171 -171.7
8.76168000 0.005175 -169.4 0.999980 -80.50 0.999980 -80.50 0.005175 -171.7
8.76170000 0.005178 -169.4 0.999980 -80.50 0.999980 -80.50 0.005178 -171.7
8.76172000 0.005182 -169.4 0.999980 -80.50 0.999980 -80.50 0.005182 -171.7
8.76174000 0.005185 -169.4 0.999980 -80.50 0.999980 -80.50 0.005185 -171.7
8.76176000 0.005189 -169.4 0.999980 -80.50 0.999980 -80.50 0.005189 -171.7
8.76178000 0.005192 -169.4 0.999980 -80.50 0.999980 -80.50 0.005192 -171.7
8.76180000 0.005196 -169.4 0.999980 -80.50 0.999980 -80.50 0.005196 -171.7
8.76182000 0.005200 -169.4 0.999980 -80.50 0.999980 -80.50 0.005200 -171.7
8.76184000 0.005203 -169.4 0.999980 -80.50 0.999980 -80.50 0.005203 -171.7
8.76186000 0.005207 -169.4 0.999980 -80.50 0.999980 -80.50 0.005207 -171.7
8.76188000 0.005210 -169.4 0.999980 -80.50 0.999980 -80.50 0.005210 -171.7
8.76190000 0.005214 -169.4 0.999980 -80.50 0.999980 -80.50 0.005214 -171.7
8.76192000 0.005217 -169.4 0.999980 -80.50 0.999980 -80.50 0.005217 -171.7
8.76194000 0.005221 -169.4 0.999980 -80.50 0.999980 -80.50 0.005221 -171.7
8.76196000 0.005225 -169.4 0.999980 -80.50 0.999980 -80.50 0.005225 -171.7
8.76198000 0.005228 -169.4 0.999980 -80.50 0.999980 -80.50 0.005228 -171.7
8.76200000 0.005232 -169.4 0.999980 -80.50 0.999980 -80.50 0.005232 -171.7
8.76202000 0.005235 -169.4 0.999980 -80.50 0.999980 -80.50 0.005235 -171.7
8.76204000 0.005239 -169.4 0.999980 -80.50 0.999980 -80.50 0.005239 -171.7
8.76206000 0.005243 -169.4 0.999980 -80.50 0.999980 -80.50 0.005243 -171.7
8.76208000 0.005246 -169.4 0.999980 -80.50 0.999980 -80.50 0.005246 -171.7
8.76210000 0.005250 -169.4 0.999980 -80.50 0.999980 -80.50 0.005250 -171.7
8.76212000 0.005254 -169.4 0.999980 -80.51 0.999980 -80.51 0.005254 -171.7
8.76214000 0.005257 -169.4 0.999980 -80.51 0.999980 -80.51 0.005257 -171.7
8.76216000 0.005261 -169.4 0.999980 -80.51 0.999980 -80.51 0.005261 -171.7
8.76218000 0.005265 -169.4 0.999980 -80.51 0.999980 -80.51 0.005265 -171.7
8.76220000 0.005268 -169.4 0.999979 -80.51 0.999979 -80.51 0.005268 -171.7
8.76222000 0.005272 -169.4 0.999979 -80.51 0.999979 -80.51 0.005272 -171.7
8.76224000 0.005276 -169.4 0.999979 -80.51 0.999979 -80.51 0.005276 -171.7
8.76226000 0.005279 -169.4 0.999979 -80.51 0.999979 -80.51 0.005280 -171.7
8.76228000 0.005283 -169.4 0.999979 -80.51 0.999979 -80.51 0.005283 -171.7
8.76230000 0.005287 -169.4 0.999979 -80.51 0.999979 -80.51 0.005287 -171.7
8.76232000 0.005291 -169.4 0.999979 -80.51 0.999979 -80.51 0.005291 -171.7
8.76234000 0.005294 -169.4 0.999979 -80.51 0.999979 -80.51 0.005294 -171.7
8.76236000 0.005298 -169.4 0.999979 -80.51 0.999979 -80.51 0.005298 -171.7
8.76238000 0.005302 -169.4 0.999979 -80.51 0.999979 -80.51 0.005302 -171.7
8.76240000 0.005306 -169.4 0.999979 -80.51 0.999979 -80.51 0.005306 -171.7
8.76242000 0.005309 -169.4 0.999979 -80.51 0.999979 -80.51 0.005310 -171.7
8.76244000 0.005313 -169.4 0.999979 -80.51 0.999979 -80.51 0.005313 -171.7
8.76246000 0.005317 -169.4 0.999979 -80.51 0.999979 -80.51 0.005317 -171.7
8.76248000 0.005321 -169.4 0.999979 -80.51 0.999979 -80.51 0.005321 -171.7
8.76250000 0.005325 -169.4 0.999979 -80.51 0.999979 -80.51 0.005325 -171.7
8.76252000 0.005328 -169.4 0.999979 -80.51 0.999979 -80.51 0.005329 -171.7
8.76254000 0.005332 -169.4 0.999979 -80.51 0.999979 -80.51 0.005332 -171.7
8.76256000 0.005336 -169.4 0.999979 -80.51 0.999979 -80.51 0.005336 -171.7
8.76258000 0.005340 -169.4 0.999979 -80.51 0.999979 -80.51 0.005340 -171.7
8.76260000 0.005344 -169.4 0.999979 -80.51 0.999979 -80.51 0.005344 -171.7
8.76262000 0.005348 -169.4 0.999979 -80.52 0.999979 -80.52 0.005348 -171.7
8.76264000 0.005352 -169.4 0.999979 -80.52 0.999979 -80.52 0.005352 -171.7
8.76266000 0.005355 -169.4 0.999979 -80.52 0.999979 -80.52 0.005355 -171.7
8.76268000 0.005359 -169.4 0.999979 -80.52 0.999979 -80.52 0.005359 -171.7
8.76270000 0.005363 -169.4 0.999979 -80.52 0.999979 -80.52 0.005363 -171.7
8.76272000 0.005367 -169.4 0.999979 -80.52 0.999979 -80.52 0.005367 -171.7
8.76274000 0.005371 -169.4 0.999979 -80.52 0.999979 -80.52 0.005371 -171.7
8.76276000 0.005375 -169.4 0.999979 -80.52 0.999979 -80.52 0.005375 -171.7
8.76278000 0.005379 -169.4 0.999979 -80.52 0.999979 -80.52 0.005379 -171.7
8.76280000 0.005383 -169.4 0.999979 -80.52 0.999979 -80.52 0.005383 -171.7
8.76282000 0.005387 -169.4 0.999979 -80.52 0.999979 -80.52 0.005387 -171.7
8.76284000 0.005391 -169.4 0.999979 -80.52 0.999979 -80.52 0.005391 -171.7
8.76286000 0.005395 -169.4 0.999979 -80.52 0.999979 -80.52 0.005395 -171.7
8.76288000 0.005399 -169.4 0.999979 -80.52 0.999979 -80.52 0.005399 -171.7
8.76290000 0.005403 -169.4 0.999978 -80.52 0.999978 -80.52 0.005403 -171.7
8.76292000 0.005406 -169.4 0.999978 -80.52 0.999978 -80.52 0.005407 -171.7
8.76294000 0.005410 -169.4 0.999978 -80.52 0.999978 -80.52 0.005411 -171.7
8.76296000 0.005414 -169.4 0.999978 -80.52 0.999978 -80.52 0.005415 -171.7
8.76298000 0.005418 -169.4 0.999978 -80.52 0.999978 -80.52 0.005419 -171.7
8.76300000 0.005422 -169.4 0.999978 -80.52 0.999978 -80.52 0.005423 -171.7
8.76302000 0.005427 -169.4 0.999978 -80.52 0.999978 -80.52 0.005427 -171.7
8.76304000 0.005431 -169.4 0.999978 -80.52 0.999978 -80.52 0.005431 -171.7
8.76306000 0.005435 -169.4 0.999978 -80.52 0.999978 -80.52 0.005435 -171.7
8.76308000 0.005439 -169.4 0.999978 -80.52 0.999978 -80.52 0.005439 -171.7
8.76310000 0.005443 -169.4 0.999978 -80.53 0.999978 -80.53 0.005443 -171.7
8.76312000 0.005447 -169.4 0.999978 -80.53 0.999978 -80.53 0.005447 -171.7
8.76314000 0.005451 -169.4 0.999978 -80.53 0.999978 -80.53 0.005451 -171.7
8.76316000 0.005455 -169.4 0.999978 -80.53 0.999978 -80.53 0.005455 -171.7
8.76318000 0.005459 -169.4 0.999978 -80.53 0.999978 -80.53 0.005459 -171.7
8.76320000 0.005463 -169.4 0.999978 -80.53 0.999978 -80.53 0.005463 -171.7
8.76322000 0.005467 -169.4 0.999978 -80.53 0.999978 -80.53 0.005467 -171.8
8.76324000 0.005471 -169.4 0.999978 -80.53 0.999978 -80.53 0.005471 -171.8
8.76326000 0.005475 -169.4 0.999978 -80.53 0.999978 -80.53 0.005476 -171.8
8.76328000 0.005480 -169.4 0.999978 -80.53 0.999978 -80.53 0.005480 -171.8
8.76330000 0.005484 -169.4 0.999978 -80.53 0.999978 -80.53 0.005484 -171.8
8.76332000 0.005488 -169.4 0.999978 -80.53 0.999978 -80.53 0.005488 -171.8
8.76334000 0.005492 -169.4 0.999978 -80.53 0.999978 -80.53 0.005492 -171.8
8.76336000 0.005496 -169.4 0.999978 -80.53 0.999978 -80.53 0.005496 -171.8
8.76338000 0.005500 -169.4 0.999978 -80.53 0.999978 -80.53 0.005501 -171.8
8.76340000 0.005505 -169.4 0.999978 -80.53 0.999978 -80.53 0.005505 -171.8
8.76342000 0.005509 -169.4 0.999978 -80.53 0.999978 -80.53 0.005509 -171.8
8.76344000 0.005513 -169.4 0.999978 -80.53 0.999978 -80.53 0.005513 -171.8
8.76346000 0.005517 -169.4 0.999978 -80.53 0.999978 -80.53 0.005517 -171.8
8.76348000 0.005522 -169.4 0.999978 -80.53 0.999978 -80.53 0.005522 -171.8
8.76350000 0.005526 -169.4 0.999978 -80.53 0.999978 -80.53 0.005526 -171.8
8.76352000 0.005530 -169.4 0.999978 -80.53 0.999978 -80.53 0.005530 -171.8
8.76354000 0.005534 -169.4 0.999978 -80.53 0.999978 -80.53 0.005534 -171.8
8.76356000 0.005539 -169.4 0.999977 -80.53 0.999977 -80.53 0.005539 -171.8
8.76358000 0.005543 -169.4 0.999977 -80.54 0.999977 -80.54 0.005543 -171.8
8.76360000 0.005547 -169.4 0.999977 -80.54 0.999977 -80.54 0.005547 -171.8
8.76362000 0.005551 -169.4 0.999977 -80.54 0.999977 -80.54 0.005551 -171.8
8.76364000 0.005556 -169.4 0.999977 -80.54 0.999977 -80.54 0.005556 -171.8
8.76366000 0.005560 -169.4 0.999977 -80.54 0.999977 -80.54 0.005560 -171.8
8.76368000 0.005564 -169.4 0.999977 -80.54 0.999977 -80.54 0.005564 -171.8
8.76370000 0.005569 -169.4 0.999977 -80.54 0.999977 -80.54 0.005569 -171.8
8.76372000 0.005573 -169.4 0.999977 -80.54 0.999977 -80.54 0.005573 -171.8
8.76374000 0.005577 -169.4 0.999977 -80.54 0.999977 -80.54 0.005577 -171.8
8.76376000 0.005582 -169.4 0.999977 -80.54 0.999977 -80.54 0.005582 -171.8
8.76378000 0.005586 -169.4 0.999977 -80.54 0.999977 -80.54 0.005586 -171.8
8.76380000 0.005591 -169.4 0.999977 -80.54 0.999977 -80.54 0.005591 -171.8
8.76382000 0.005595 -169.4 0.999977 -80.54 0.999977 -80.54 0.005595 -171.8
8.76384000 0.005599 -169.4 0.999977 -80.54 0.999977 -80.54 0.005599 -171.8
8.76386000 0.005604 -169.4 0.999977 -80.54 0.999977 -80.54 0.005604 -171.8
8.76388000 0.005608 -169.4 0.999977 -80.54 0.999977 -80.54 0.005608 -171.8
8.76390000 0.005613 -169.4 0.999977 -80.54 0.999977 -80.54 0.005613 -171.8
8.76392000 0.005617 -169.4 0.999977 -80.54 0.999977 -80.54 0.005617 -171.8
8.76394000 0.005621 -169.4 0.999977 -80.54 0.999977 -80.54 0.005622 -171.8
8.76396000 0.005626 -169.4 0.999977 -80.54 0.999977 -80.54 0.005626 -171.8
8.76398000 0.005630 -169.4 0.999977 -80.54 0.999977 -80.54 0.005630 -171.8
8.76400000 0.005635 -169.4 0.999977 -80.54 0.999977 -80.54 0.005635 -171.8
8.76402000 0.005639 -169.4 0.999977 -80.54 0.999977 -80.54 0.005639 -171.8
8.76404000 0.005644 -169.4 0.999977 -80.55 0.999977 -80.55 0.005644 -171.8
8.76406000 0.005648 -169.4 0.999977 -80.55 0.999977 -80.55 0.005648 -171.8
8.76408000 0.005653 -169.4 0.999977 -80.55 0.999977 -80.55 0.005653 -171.8
8.76410000 0.005657 -169.4 0.999977 -80.55 0.999977 -80.55 0.005658 -171.8
8.76412000 0.005662 -169.4 0.999977 -80.55 0.999977 -80.55 0.005662 -171.8
8.76414000 0.005667 -169.4 0.999976 -80.55 0.999976 -80.55 0.005667 -171.8
8.76416000 0.005671 -169.4 0.999976 -80.55 0.999976 -80.55 0.005671 -171.8
8.76418000 0.005676 -169.4 0.999976 -80.55 0.999976 -80.55 0.005676 -171.8
8.76420000 0.005680 -169.4 0.999976 -80.55 0.999976 -80.55 0.005680 -171.8
8.76422000 0.005685 -169.4 0.999976 -80.55 0.999976 -80.55 0.005685 -171.8
8.76424000 0.005690 -169.4 0.999976 -80.55 0.999976 -80.55 0.005690 -171.8
8.76426000 0.005694 -169.4 0.999976 -80.55 0.999976 -80.55 0.005694 -171.8
8.76428000 0.005699 -169.4 0.999976 -80.55 0.999976 -80.55 0.005699 -171.8
8.76430000 0.005703 -169.4 0.999976 -80.55 0.999976 -80.55 0.005703 -171.8
8.76432000 0.005708 -169.4 0.999976 -80.55 0.999976 -80.55 0.005708 -171.8
8.76434000 0.005713 -169.4 0.999976 -80.55 0.999976 -80.55 0.005713 -171.8
8.76436000 0.005717 -169.4 0.999976 -80.55 0.999976 -80.55 0.005717 -171.8
8.76438000 0.005722 -169.4 0.999976 -80.55 0.999976 -80.55 0.005722 -171.8
8.76440000 0.005727 -169.4 0.999976 -80.55 0.999976 -80.55 0.005727 -171.8
8.76442000 0.005732 -169.4 0.999976 -80.55 0.999976 -80.55 0.005732 -171.8
8.76444000 0.005736 -169.4 0.999976 -80.55 0.999976 -80.55 0.005736 -171.8
8.76446000 0.005741 -169.4 0.999976 -80.55 0.999976 -80.55 0.005741 -171.8
8.76448000 0.005746 -169.4 0.999976 -80.56 0.999976 -80.56 0.005746 -171.8
8.76450000 0.005750 -169.4 0.999976 -80.56 0.999976 -80.56 0.005750 -171.8
8.76452000 0.005755 -169.4 0.999976 -80.56 0.999976 -80.56 0.005755 -171.8
8.76454000 0.005760 -169.4 0.999976 -80.56 0.999976 -80.56 0.005760 -171.8
8.76456000 0.005765 -169.4 0.999976 -80.56 0.999976 -80.56 0.005765 -171.8
8.76458000 0.005770 -169.4 0.999976 -80.56 0.999976 -80.56 0.005770 -171.8
8.76460000 0.005774 -169.4 0.999976 -80.56 0.999976 -80.56 0.005774 -171.8
8.76462000 0.005779 -169.4 0.999976 -80.56 0.999976 -80.56 0.005779 -171.8
8.76464000 0.005784 -169.4 0.999976 -80.56 0.999976 -80.56 0.005784 -171.8
8.76466000 0.005789 -169.4 0.999976 -80.56 0.999976 -80.56 0.005789 -171.8
8.76468000 0.005794 -169.4 0.999975 -80.56 0.999975 -80.56 0.005794 -171.8
8.76470000 0.005799 -169.4 0.999975 -80.56 0.999975 -80.56 0.005799 -171.8
8.76472000 0.005803 -169.4 0.999975 -80.56 0.999975 -80.56 0.005803 -171.8
8.76474000 0.005808 -169.4 0.999975 -80.56 0.999975 -80.56 0.005808 -171.8
8.76476000 0.005813 -169.4 0.999975 -80.56 0.999975 -80.56 0.005813 -171.8
8.76478000 0.005818 -169.4 0.999975 -80.56 0.999975 -80.56 0.005818 -171.8
8.76480000 0.005823 -169.4 0.999975 -80.56 0.999975 -80.56 0.005823 -171.8
8.76482000 0.005828 -169.4 0.999975 -80.56 0.999975 -80.56 0.005828 -171.8
8.76484000 0.005833 -169.4 0.999975 -80.56 0.999975 -80.56 0.005833 -171.8
8.76486000 0.005838 -169.4 0.999975 -80.56 0.999975 -80.56 0.005838 -171.8
8.76488000 0.005843 -169.4 0.999975 -80.56 0.999975 -80.56 0.005843 -171.8
8.76490000 0.005848 -169.5 0.999975 -80.56 0.999975 -80.56 0.005848 -171.8
8.76492000 0.005853 -169.5 0.999975 -80.57 0.999975 -80.57 0.005853 -171.8
8.76494000 0.005858 -169.5 0.999975 -80.57 0.999975 -80.57 0.005858 -171.8
8.76496000 0.005863 -169.5 0.999975 -80.57 0.999975 -80.57 0.005863 -171.8
8.76498000 0.005868 -169.5 0.999975 -80.57 0.999975 -80.57 0.005868 -171.8
8.76500000 0.005873 -169.5 0.999975 -80.57 0.999975 -80.57 0.005873 -171.8
8.76502000 0.005878 -169.5 0.999975 -80.57 0.999975 -80.57 0.005878 -171.8
8.76504000 0.005883 -169.5 0.999975 -80.57 0.999975 -80.57 0.005883 -171.8
8.76506000 0.005888 -169.5 0.999975 -80.57 0.999975 -80.57 0.005888 -171.8
8.76508000 0.005893 -169.5 0.999975 -80.57 0.999975 -80.57 0.005893 -171.8
8.76510000 0.005898 -169.5 0.999975 -80.57 0.999975 -80.57 0.005898 -171.8
8.76512000 0.005903 -169.5 0.999975 -80.57 0.999975 -80.57 0.005904 -171.8
8.76514000 0.005909 -169.5 0.999975 -80.57 0.999975 -80.57 0.005909 -171.8
8.76516000 0.005914 -169.5 0.999975 -80.57 0.999975 -80.57 0.005914 -171.8
8.76518000 0.005919 -169.5 0.999974 -80.57 0.999974 -80.57 0.005919 -171.8
8.76520000 0.005924 -169.5 0.999974 -80.57 0.999974 -80.57 0.005924 -171.8
8.76522000 0.005929 -169.5 0.999974 -80.57 0.999974 -80.57 0.005929 -171.8
8.76524000 0.005934 -169.5 0.999974 -80.57 0.999974 -80.57 0.005934 -171.8
8.76526000 0.005940 -169.5 0.999974 -80.57 0.999974 -80.57 0.005940 -171.8
8.76528000 0.005945 -169.5 0.999974 -80.57 0.999974 -80.57 0.005945 -171.8
8.76530000 0.005950 -169.5 0.999974 -80.57 0.999974 -80.57 0.005950 -171.8
8.76532000 0.005955 -169.5 0.999974 -80.57 0.999974 -80.57 0.005955 -171.8
8.76534000 0.005961 -169.5 0.999974 -80.58 0.999974 -80.58 0.005961 -171.8
8.76536000 0.005966 -169.5 0.999974 -80.58 0.999974 -80.58 0.005966 -171.8
8.76538000 0.005971 -169.5 0.999974 -80.58 0.999974 -80.58 0.005971 -171.8
8.76540000 0.005976 -169.5 0.999974 -80.58 0.999974 -80.58 0.005976 -171.8
8.76542000 0.005982 -169.5 0.999974 -80.58 0.999974 -80.58 0.005982 -171.8
8.76544000 0.005987 -169.5 0.999974 -80.58 0.999974 -80.58 0.005987 -171.8
8.76546000 0.005992 -169.5 0.999974 -80.58 0.999974 -80.58 0.005992 -171.8
8.76548000 0.005998 -169.5 0.999974 -80.58 0.999974 -80.58 0.005998 -171.8
8.76550000 0.006003 -169.5 0.999974 -80.58 0.999974 -80.58 0.006003 -171.8
8.76552000 0.006008 -169.5 0.999974 -80.58 0.999974 -80.58 0.006008 -171.8
8.76554000 0.006014 -169.5 0.999974 -80.58 0.999974 -80.58 0.006014 -171.8
8.76556000 0.006019 -169.5 0.999974 -80.58 0.999974 -80.58 0.006019 -171.8
8.76558000 0.006025 -169.5 0.999974 -80.58 0.999974 -80.58 0.006025 -171.8
8.76560000 0.006030 -169.5 0.999974 -80.58 0.999974 -80.58 0.006030 -171.8
8.76562000 0.006036 -169.5 0.999974 -80.58 0.999974 -80.58 0.006036 -171.8
8.76564000 0.006041 -169.5 0.999973 -80.58 0.999973 -80.58 0.006041 -171.8
8.76566000 0.006046 -169.5 0.999973 -80.58 0.999973 -80.58 0.006046 -171.8
8.76568000 0.006052 -169.5 0.999973 -80.58 0.999973 -80.58 0.006052 -171.8
8.76570000 0.006057 -169.5 0.999973 -80.58 0.999973 -80.58 0.006057 -171.8
8.76572000 0.006063 -169.5 0.999973 -80.58 0.999973 -80.58 0.006063 -171.8
8.76574000 0.006068 -169.5 0.999973 -80.59 0.999973 -80.59 0.006069 -171.8
8.76576000 0.006074 -169.5 0.999973 -80.59 0.999973 -80.59 0.006074 -171.8
8.76578000 0.006080 -169.5 0.999973 -80.59 0.999973 -80.59 0.006080 -171.9
8.76580000 0.006085 -169.5 0.999973 -80.59 0.999973 -80.59 0.006085 -171.9
8.76582000 0.006091 -169.5 0.999973 -80.59 0.999973 -80.59 0.006091 -171.9
8.76584000 0.006096 -169.5 0.999973 -80.59 0.999973 -80.59 0.006096 -171.9
8.76586000 0.006102 -169.5 0.999973 -80.59 0.999973 -80.59 0.006102 -171.9
8.76588000 0.006108 -169.5 0.999973 -80.59 0.999973 -80.59 0.006108 -171.9
8.76590000 0.006113 -169.5 0.999973 -80.59 0.999973 -80.59 0.006113 -171.9
8.76592000 0.006119 -169.5 0.999973 -80.59 0.999973 -80.59 0.006119 -171.9
8.76594000 0.006124 -169.5 0.999973 -80.59 0.999973 -80.59 0.006125 -171.9
8.76596000 0.006130 -169.5 0.999973 -80.59 0.999973 -80.59 0.006130 -171.9
8.76598000 0.006136 -169.5 0.999973 -80.59 0.999973 -80.59 0.006136 -171.9
8.76600000 0.006142 -169.5 0.999973 -80.59 0.999973 -80.59 0.006142 -171.9
8.76602000 0.006147 -169.5 0.999973 -80.59 0.999973 -80.59 0.006147 -171.9
8.76604000 0.006153 -169.5 0.999973 -80.59 0.999973 -80.59 0.006153 -171.9
8.76606000 0.006159 -169.5 0.999972 -80.59 0.999972 -80.59 0.006159 -171.9
8.76608000 0.006165 -169.5 0.999972 -80.59 0.999972 -80.59 0.006165 -171.9
8.76610000 0.006170 -169.5 0.999972 -80.59 0.999972 -80.59 0.006170 -171.9
8.76612000 0.006176 -169.5 0.999972 -80.59 0.999972 -80.59 0.006176 -171.9
8.76614000 0.006182 -169.5 0.999972 -80.60 0.999972 -80.60 0.006182 -171.9
8.76616000 0.006188 -169.5 0.999972 -80.60 0.999972 -80.60 0.006188 -171.9
8.76618000 0.006194 -169.5 0.999972 -80.60 0.999972 -80.60 0.006194 -171.9
8.76620000 0.006199 -169.5 0.999972 -80.60 0.999972 -80.60 0.006200 -171.9
8.76622000 0.006205 -169.5 0.999972 -80.60 0.999972 -80.60 0.006205 -171.9
8.76624000 0.006211 -169.5 0.999972 -80.60 0.999972 -80.60 0.006211 -171.9
8.76626000 0.006217 -169.5 0.999972 -80.60 0.999972 -80.60 0.006217 -171.9
8.76628000 0.006223 -169.5 0.999972 -80.60 0.999972 -80.60 0.006223 -171.9
8.76630000 0.006229 -169.5 0.999972 -80.60 0.999972 -80.60 0.006229 -171.9
8.76632000 0.006235 -169.5 0.999972 -80.60 0.999972 -80.60 0.006235 -171.9
8.76634000 0.006241 -169.5 0.999972 -80.60 0.999972 -80.60 0.006241 -171.9
8.76636000 0.006247 -169.5 0.999972 -80.60 0.999972 -80.60 0.006247 -171.9
8.76638000 0.006253 -169.5 0.999972 -80.60 0.999972 -80.60 0.006253 -171.9
8.76640000 0.006259 -169.5 0.999972 -80.60 0.999972 -80.60 0.006259 -171.9
8.76642000 0.006265 -169.5 0.999972 -80.60 0.999972 -80.60 0.006265 -171.9
8.76644000 0.006271 -169.5 0.999972 -80.60 0.999972 -80.60 0.006271 -171.9
8.76646000 0.006277 -169.5 0.999971 -80.60 0.999971 -80.60 0.006277 -171.9
8.76648000 0.006283 -169.5 0.999971 -80.60 0.999971 -80.60 0.006283 -171.9
8.76650000 0.006289 -169.5 0.999971 -80.60 0.999971 -80.60 0.006289 -171.9
8.76652000 0.006295 -169.5 0.999971 -80.61 0.999971 -80.61 0.006295 -171.9
8.76654000 0.006301 -169.5 0.999971 -80.61 0.999971 -80.61 0.006302 -171.9
8.76656000 0.006308 -169.5 0.999971 -80.61 0.999971 -80.61 0.006308 -171.9
8.76658000 0.006314 -169.5 0.999971 -80.61 0.999971 -80.61 0.006314 -171.9
8.76660000 0.006320 -169.5 0.999971 -80.61 0.999971 -80.61 0.006320 -171.9
8.76662000 0.006326 -169.5 0.999971 -80.61 0.999971 -80.61 0.006326 -171.9
8.76664000 0.006332 -169.5 0.999971 -80.61 0.999971 -80.61 0.006332 -171.9
8.76666000 0.006339 -169.5 0.999971 -80.61 0.999971 -80.61 0.006339 -171.9
8.76668000 0.006345 -169.5 0.999971 -80.61 0.999971 -80.61 0.006345 -171.9
8.76670000 0.006351 -169.5 0.999971 -80.61 0.999971 -80.61 0.006351 -171.9
8.76672000 0.006357 -169.5 0.999971 -80.61 0.999971 -80.61 0.006357 -171.9
8.76674000 0.006364 -169.5 0.999971 -80.61 0.999971 -80.61 0.006364 -171.9
8.76676000 0.006370 -169.5 0.999971 -80.61 0.999971 -80.61 0.006370 -171.9
8.76678000 0.006376 -169.5 0.999971 -80.61 0.999971 -80.61 0.006376 -171.9
8.76680000 0.006383 -169.5 0.999971 -80.61 0.999971 -80.61 0.006383 -171.9
8.76682000 0.006389 -169.5 0.999970 -80.61 0.999970 -80.61 0.006389 -171.9
8.76684000 0.006395 -169.5 0.999970 -80.61 0.999970 -80.61 0.006395 -171.9
8.76686000 0.006402 -169.5 0.999970 -80.61 0.999970 -80.61 0.006402 -171.9
8.76688000 0.006408 -169.5 0.999970 -80.62 0.999970 -80.62 0.006408 -171.9
8.76690000 0.006415 -169.5 0.999970 -80.62 0.999970 -80.62 0.006415 -171.9
8.76692000 0.006421 -169.5 0.999970 -80.62 0.999970 -80.62 0.006421 -171.9
8.76694000 0.006428 -169.5 0.999970 -80.62 0.999970 -80.62 0.006428 -171.9
8.76696000 0.006434 -169.5 0.999970 -80.62 0.999970 -80.62 0.006434 -171.9
8.76698000 0.006441 -169.5 0.999970 -80.62 0.999970 -80.62 0.006441 -171.9
8.76700000 0.006447 -169.5 0.999970 -80.62 0.999970 -80.62 0.006447 -171.9
8.76702000 0.006454 -169.5 0.999970 -80.62 0.999970 -80.62 0.006454 -171.9
8.76704000 0.006460 -169.5 0.999970 -80.62 0.999970 -80.62 0.006460 -171.9
8.76706000 0.006467 -169.5 0.999970 -80.62 0.999970 -80.62 0.006467 -171.9
8.76708000 0.006473 -169.5 0.999970 -80.62 0.999970 -80.62 0.006473 -171.9
8.76710000 0.006480 -169.5 0.999970 -80.62 0.999970 -80.62 0.006480 -171.9
8.76712000 0.006487 -169.5 0.999970 -80.62 0.999970 -80.62 0.006487 -171.9
8.76714000 0.006493 -169.5 0.999970 -80.62 0.999970 -80.62 0.006493 -171.9
8.76716000 0.006500 -169.5 0.999969 -80.62 0.999969 -80.62 0.006500 -171.9
8.76718000 0.006507 -169.5 0.999969 -80.62 0.999969 -80.62 0.006507 -171.9
8.76720000 0.006513 -169.5 0.999969 -80.62 0.999969 -80.62 0.006513 -171.9
8.76722000 0.006520 -169.5 0.999969 -80.62 0.999969 -80.62 0.006520 -171.9
8.76724000 0.006527 -169.5 0.999969 -80.63 0.999969 -80.63 0.006527 -171.9
8.76726000 0.006533 -169.5 0.999969 -80.63 0.999969 -80.63 0.006534 -171.9
8.76728000 0.006540 -169.5 0.999969 -80.63 0.999969 -80.63 0.006540 -171.9
8.76730000 0.006547 -169.5 0.999969 -80.63 0.999969 -80.63 0.006547 -171.9
8.76732000 0.006554 -169.5 0.999969 -80.63 0.999969 -80.63 0.006554 -171.9
8.76734000 0.006561 -169.5 0.999969 -80.63 0.999969 -80.63 0.006561 -171.9
8.76736000 0.006568 -169.5 0.999969 -80.63 0.999969 -80.63 0.006568 -171.9
8.76738000 0.006574 -169.5 0.999969 -80.63 0.999969 -80.63 0.006574 -171.9
8.76740000 0.006581 -169.5 0.999969 -80.63 0.999969 -80.63 0.006581 -171.9
8.76742000 0.006588 -169.5 0.999969 -80.63 0.999969 -80.63 0.006588 -171.9
8.76744000 0.006595 -169.5 0.999969 -80.63 0.999969 -80.63 0.006595 -171.9
8.76746000 0.006602 -169.5 0.999969 -80.63 0.999969 -80.63 0.006602 -171.9
8.76748000 0.006609 -169.5 0.999968 -80.63 0.999968 -80.63 0.006609 -171.9
8.76750000 0.006616 -169.5 0.999968 -80.63 0.999968 -80.63 0.006616 -171.9
8.76752000 0.006623 -169.5 0.999968 -80.63 0.999968 -80.63 0.006623 -171.9
8.76754000 0.006630 -169.5 0.999968 -80.63 0.999968 -80.63 0.006630 -171.9
8.76756000 0.006637 -169.5 0.999968 -80.63 0.999968 -80.63 0.006637 -171.9
8.76758000 0.006644 -169.5 0.999968 -80.64 0.999968 -80.64 0.006644 -171.9
8.76760000 0.006651 -169.5 0.999968 -80.64 0.999968 -80.64 0.006651 -171.9
8.76762000 0.006658 -169.5 0.999968 -80.64 0.999968 -80.64 0.006658 -171.9
8.76764000 0.006666 -169.5 0.999968 -80.64 0.999968 -80.64 0.006666 -171.9
8.76766000 0.006673 -169.5 0.999968 -80.64 0.999968 -80.64 0.006673 -171.9
8.76768000 0.006680 -169.5 0.999968 -80.64 0.999968 -80.64 0.006680 -171.9
8.76770000 0.006687 -169.5 0.999968 -80.64 0.999968 -80.64 0.006687 -171.9
8.76772000 0.006694 -169.5 0.999968 -80.64 0.999968 -80.64 0.006694 -171.9
8.76774000 0.006702 -169.5 0.999968 -80.64 0.999968 -80.64 0.006702 -171.9
8.76776000 0.006709 -169.5 0.999968 -80.64 0.999968 -80.64 0.006709 -171.9
8.76778000 0.006716 -169.5 0.999967 -80.64 0.999967 -80.64 0.006716 -171.9
8.76780000 0.006723 -169.5 0.999967 -80.64 0.999967 -80.64 0.006723 -171.9
8.76782000 0.006731 -169.5 0.999967 -80.64 0.999967 -80.64 0.006731 -171.9