! Sonnet Data File
! From: emgraph Version : 16.52
! From Project: Qubit_Xmon2_brg_para
! Data is De-embedded 
! Data File Written: 10/25/2017 15:52:26
!< HDATE 10/25/2017 13:56:11
!< MDATE 10/25/2017 13:56:11
!< PARAMS
!< Lj = 11.0
!< Gap = 6.0
!< Pwid = 2000.0
!< Airgap = 6.0
!< Width = 10.0
!< Bwid = 8.0
!< Dis1 = 650.0
!< Dis2 = 656.0
!< END PARAMS
# GHZ S MA R 51.80000
8.76000000 0.003880 -169.8 0.999988 -80.40 0.999988 -80.40 0.003880 -171.0
!< P1 F=8.76 Eeff=(6.44679147 -2.9786e-5) Z0=(51.7991429 1.19067e-4) R=0.0 C=0.0 
!< P2 F=8.76 Eeff=(6.44679147 -2.9786e-5) Z0=(51.7991429 1.19067e-4) R=0.0 C=0.0 
8.76002000 0.003881 -169.8 0.999988 -80.40 0.999988 -80.40 0.003881 -171.0
8.76004000 0.003882 -169.8 0.999988 -80.40 0.999988 -80.40 0.003882 -171.0
8.76006000 0.003884 -169.8 0.999988 -80.40 0.999988 -80.40 0.003884 -171.0
8.76008000 0.003885 -169.8 0.999988 -80.40 0.999988 -80.40 0.003885 -171.0
8.76010000 0.003886 -169.8 0.999988 -80.40 0.999988 -80.40 0.003886 -171.0
8.76012000 0.003887 -169.8 0.999988 -80.40 0.999988 -80.40 0.003887 -171.0
8.76014000 0.003888 -169.8 0.999988 -80.40 0.999988 -80.40 0.003888 -171.0
8.76016000 0.003889 -169.8 0.999988 -80.40 0.999988 -80.40 0.003889 -171.0
8.76018000 0.003890 -169.8 0.999988 -80.40 0.999988 -80.40 0.003890 -171.0
8.76020000 0.003892 -169.8 0.999988 -80.40 0.999988 -80.40 0.003892 -171.0
8.76022000 0.003893 -169.8 0.999988 -80.40 0.999988 -80.40 0.003893 -171.0
8.76024000 0.003894 -169.8 0.999988 -80.40 0.999988 -80.40 0.003894 -171.0
8.76026000 0.003895 -169.8 0.999988 -80.40 0.999988 -80.40 0.003895 -171.0
8.76028000 0.003896 -169.8 0.999988 -80.40 0.999988 -80.40 0.003896 -171.0
8.76030000 0.003897 -169.8 0.999988 -80.40 0.999988 -80.40 0.003897 -171.0
8.76032000 0.003898 -169.8 0.999988 -80.40 0.999988 -80.40 0.003898 -171.0
8.76034000 0.003900 -169.8 0.999988 -80.40 0.999988 -80.40 0.003900 -171.0
8.76036000 0.003901 -169.8 0.999988 -80.40 0.999988 -80.40 0.003901 -171.1
8.76038000 0.003902 -169.8 0.999988 -80.40 0.999988 -80.40 0.003902 -171.1
8.76040000 0.003903 -169.8 0.999988 -80.40 0.999988 -80.40 0.003903 -171.1
8.76042000 0.003904 -169.8 0.999988 -80.40 0.999988 -80.40 0.003904 -171.1
8.76044000 0.003905 -169.8 0.999988 -80.40 0.999988 -80.40 0.003905 -171.1
8.76046000 0.003906 -169.8 0.999988 -80.40 0.999988 -80.40 0.003907 -171.1
8.76048000 0.003908 -169.8 0.999988 -80.40 0.999988 -80.40 0.003908 -171.1
8.76050000 0.003909 -169.8 0.999988 -80.40 0.999988 -80.40 0.003909 -171.1
8.76052000 0.003910 -169.8 0.999988 -80.40 0.999988 -80.40 0.003910 -171.1
8.76054000 0.003911 -169.8 0.999988 -80.40 0.999988 -80.40 0.003911 -171.1
8.76056000 0.003912 -169.8 0.999988 -80.40 0.999988 -80.40 0.003912 -171.1
8.76058000 0.003913 -169.8 0.999988 -80.40 0.999988 -80.40 0.003913 -171.1
8.76060000 0.003915 -169.8 0.999988 -80.40 0.999988 -80.40 0.003915 -171.1
8.76062000 0.003916 -169.8 0.999988 -80.40 0.999988 -80.40 0.003916 -171.1
8.76064000 0.003917 -169.9 0.999988 -80.40 0.999988 -80.40 0.003917 -171.1
8.76066000 0.003918 -169.9 0.999988 -80.40 0.999988 -80.40 0.003918 -171.1
8.76068000 0.003919 -169.9 0.999988 -80.40 0.999988 -80.40 0.003919 -171.1
8.76070000 0.003920 -169.9 0.999988 -80.40 0.999988 -80.40 0.003921 -171.1
8.76072000 0.003922 -169.9 0.999988 -80.40 0.999988 -80.40 0.003922 -171.1
8.76074000 0.003923 -169.9 0.999988 -80.40 0.999988 -80.40 0.003923 -171.1
8.76076000 0.003924 -169.9 0.999988 -80.41 0.999988 -80.41 0.003924 -171.1
8.76078000 0.003925 -169.9 0.999988 -80.41 0.999988 -80.41 0.003925 -171.1
8.76080000 0.003926 -169.9 0.999988 -80.41 0.999988 -80.41 0.003926 -171.1
8.76082000 0.003928 -169.9 0.999988 -80.41 0.999988 -80.41 0.003928 -171.1
8.76084000 0.003929 -169.9 0.999988 -80.41 0.999988 -80.41 0.003929 -171.1
8.76086000 0.003930 -169.9 0.999988 -80.41 0.999988 -80.41 0.003930 -171.1
8.76088000 0.003931 -169.9 0.999988 -80.41 0.999988 -80.41 0.003931 -171.1
8.76090000 0.003932 -169.9 0.999988 -80.41 0.999988 -80.41 0.003932 -171.1
8.76092000 0.003933 -169.9 0.999988 -80.41 0.999988 -80.41 0.003934 -171.1
8.76094000 0.003935 -169.9 0.999988 -80.41 0.999988 -80.41 0.003935 -171.1
8.76096000 0.003936 -169.9 0.999988 -80.41 0.999988 -80.41 0.003936 -171.1
8.76098000 0.003937 -169.9 0.999988 -80.41 0.999988 -80.41 0.003937 -171.1
8.76100000 0.003938 -169.9 0.999988 -80.41 0.999988 -80.41 0.003938 -171.1
8.76102000 0.003939 -169.9 0.999988 -80.41 0.999988 -80.41 0.003939 -171.1
8.76104000 0.003941 -169.9 0.999988 -80.41 0.999988 -80.41 0.003941 -171.1
8.76106000 0.003942 -169.9 0.999988 -80.41 0.999988 -80.41 0.003942 -171.1
8.76108000 0.003943 -169.9 0.999988 -80.41 0.999988 -80.41 0.003943 -171.1
8.76110000 0.003944 -169.9 0.999988 -80.41 0.999988 -80.41 0.003944 -171.1
8.76112000 0.003945 -169.9 0.999988 -80.41 0.999988 -80.41 0.003945 -171.1
8.76114000 0.003947 -169.9 0.999988 -80.41 0.999988 -80.41 0.003947 -171.1
8.76116000 0.003948 -169.9 0.999988 -80.41 0.999988 -80.41 0.003948 -171.1
8.76118000 0.003949 -169.9 0.999988 -80.41 0.999988 -80.41 0.003949 -171.1
8.76120000 0.003950 -169.9 0.999988 -80.41 0.999988 -80.41 0.003950 -171.1
8.76122000 0.003951 -169.9 0.999988 -80.41 0.999988 -80.41 0.003952 -171.1
8.76124000 0.003953 -169.9 0.999988 -80.41 0.999988 -80.41 0.003953 -171.1
8.76126000 0.003954 -169.9 0.999988 -80.41 0.999988 -80.41 0.003954 -171.1
8.76128000 0.003955 -169.9 0.999988 -80.41 0.999988 -80.41 0.003955 -171.1
8.76130000 0.003956 -169.9 0.999988 -80.41 0.999988 -80.41 0.003956 -171.1
8.76132000 0.003958 -169.9 0.999988 -80.41 0.999988 -80.41 0.003958 -171.1
8.76134000 0.003959 -169.9 0.999988 -80.41 0.999988 -80.41 0.003959 -171.1
8.76136000 0.003960 -169.9 0.999988 -80.41 0.999988 -80.41 0.003960 -171.1
8.76138000 0.003961 -169.9 0.999988 -80.41 0.999988 -80.41 0.003961 -171.1
8.76140000 0.003962 -169.9 0.999988 -80.41 0.999988 -80.41 0.003962 -171.1
8.76142000 0.003964 -169.9 0.999988 -80.41 0.999988 -80.41 0.003964 -171.1
8.76144000 0.003965 -169.9 0.999988 -80.41 0.999988 -80.41 0.003965 -171.1
8.76146000 0.003966 -169.9 0.999988 -80.41 0.999988 -80.41 0.003966 -171.1
8.76148000 0.003967 -169.9 0.999988 -80.41 0.999988 -80.41 0.003967 -171.1
8.76150000 0.003969 -169.9 0.999988 -80.41 0.999988 -80.41 0.003969 -171.1
8.76152000 0.003970 -169.9 0.999988 -80.41 0.999988 -80.41 0.003970 -171.1
8.76154000 0.003971 -169.9 0.999988 -80.41 0.999988 -80.41 0.003971 -171.1
8.76156000 0.003972 -169.9 0.999988 -80.42 0.999988 -80.42 0.003972 -171.1
8.76158000 0.003973 -169.9 0.999988 -80.42 0.999988 -80.42 0.003974 -171.1
8.76160000 0.003975 -169.9 0.999988 -80.42 0.999988 -80.42 0.003975 -171.1
8.76162000 0.003976 -169.9 0.999988 -80.42 0.999988 -80.42 0.003976 -171.1
8.76164000 0.003977 -169.9 0.999988 -80.42 0.999988 -80.42 0.003977 -171.1
8.76166000 0.003978 -169.9 0.999988 -80.42 0.999988 -80.42 0.003978 -171.1
8.76168000 0.003980 -169.9 0.999988 -80.42 0.999988 -80.42 0.003980 -171.1
8.76170000 0.003981 -169.9 0.999988 -80.42 0.999988 -80.42 0.003981 -171.1
8.76172000 0.003982 -169.9 0.999988 -80.42 0.999988 -80.42 0.003982 -171.1
8.76174000 0.003983 -169.9 0.999988 -80.42 0.999988 -80.42 0.003983 -171.1
8.76176000 0.003985 -169.9 0.999988 -80.42 0.999988 -80.42 0.003985 -171.1
8.76178000 0.003986 -169.9 0.999988 -80.42 0.999988 -80.42 0.003986 -171.1
8.76180000 0.003987 -169.9 0.999988 -80.42 0.999988 -80.42 0.003987 -171.1
8.76182000 0.003988 -169.9 0.999988 -80.42 0.999988 -80.42 0.003988 -171.1
8.76184000 0.003990 -169.9 0.999988 -80.42 0.999988 -80.42 0.003990 -171.1
8.76186000 0.003991 -169.9 0.999988 -80.42 0.999988 -80.42 0.003991 -171.1
8.76188000 0.003992 -169.9 0.999988 -80.42 0.999988 -80.42 0.003992 -171.1
8.76190000 0.003993 -169.9 0.999988 -80.42 0.999988 -80.42 0.003993 -171.1
8.76192000 0.003995 -169.9 0.999988 -80.42 0.999988 -80.42 0.003995 -171.1
8.76194000 0.003996 -169.9 0.999988 -80.42 0.999988 -80.42 0.003996 -171.1
8.76196000 0.003997 -169.9 0.999988 -80.42 0.999988 -80.42 0.003997 -171.1
8.76198000 0.003998 -169.9 0.999988 -80.42 0.999988 -80.42 0.003999 -171.1
8.76200000 0.004000 -169.9 0.999988 -80.42 0.999988 -80.42 0.004000 -171.1
8.76202000 0.004001 -169.9 0.999988 -80.42 0.999988 -80.42 0.004001 -171.1
8.76204000 0.004002 -169.9 0.999988 -80.42 0.999988 -80.42 0.004002 -171.1
8.76206000 0.004004 -169.9 0.999988 -80.42 0.999988 -80.42 0.004004 -171.1
8.76208000 0.004005 -169.9 0.999988 -80.42 0.999988 -80.42 0.004005 -171.1
8.76210000 0.004006 -169.9 0.999988 -80.42 0.999988 -80.42 0.004006 -171.1
8.76212000 0.004007 -169.9 0.999988 -80.42 0.999988 -80.42 0.004007 -171.1
8.76214000 0.004009 -169.9 0.999988 -80.42 0.999988 -80.42 0.004009 -171.1
8.76216000 0.004010 -169.9 0.999988 -80.42 0.999988 -80.42 0.004010 -171.1
8.76218000 0.004011 -169.9 0.999988 -80.42 0.999988 -80.42 0.004011 -171.1
8.76220000 0.004012 -169.9 0.999988 -80.42 0.999988 -80.42 0.004013 -171.1
8.76222000 0.004014 -169.9 0.999988 -80.42 0.999988 -80.42 0.004014 -171.1
8.76224000 0.004015 -169.9 0.999988 -80.42 0.999988 -80.42 0.004015 -171.1
8.76226000 0.004016 -169.9 0.999987 -80.42 0.999987 -80.42 0.004016 -171.1
8.76228000 0.004018 -169.9 0.999987 -80.42 0.999987 -80.42 0.004018 -171.1
8.76230000 0.004019 -169.9 0.999987 -80.42 0.999987 -80.42 0.004019 -171.1
8.76232000 0.004020 -169.9 0.999987 -80.42 0.999987 -80.42 0.004020 -171.1
8.76234000 0.004021 -169.9 0.999987 -80.43 0.999987 -80.43 0.004022 -171.1
8.76236000 0.004023 -169.9 0.999987 -80.43 0.999987 -80.43 0.004023 -171.1
8.76238000 0.004024 -169.9 0.999987 -80.43 0.999987 -80.43 0.004024 -171.1
8.76240000 0.004025 -169.9 0.999987 -80.43 0.999987 -80.43 0.004025 -171.1
8.76242000 0.004027 -169.9 0.999987 -80.43 0.999987 -80.43 0.004027 -171.1
8.76244000 0.004028 -169.9 0.999987 -80.43 0.999987 -80.43 0.004028 -171.1
8.76246000 0.004029 -169.9 0.999987 -80.43 0.999987 -80.43 0.004029 -171.1
8.76248000 0.004031 -169.9 0.999987 -80.43 0.999987 -80.43 0.004031 -171.1
8.76250000 0.004032 -169.9 0.999987 -80.43 0.999987 -80.43 0.004032 -171.1
8.76252000 0.004033 -169.9 0.999987 -80.43 0.999987 -80.43 0.004033 -171.1
8.76254000 0.004034 -169.9 0.999987 -80.43 0.999987 -80.43 0.004035 -171.1
8.76256000 0.004036 -169.9 0.999987 -80.43 0.999987 -80.43 0.004036 -171.1
8.76258000 0.004037 -169.9 0.999987 -80.43 0.999987 -80.43 0.004037 -171.1
8.76260000 0.004038 -169.9 0.999987 -80.43 0.999987 -80.43 0.004038 -171.1
8.76262000 0.004040 -169.9 0.999987 -80.43 0.999987 -80.43 0.004040 -171.1
8.76264000 0.004041 -169.9 0.999987 -80.43 0.999987 -80.43 0.004041 -171.1
8.76266000 0.004042 -169.9 0.999987 -80.43 0.999987 -80.43 0.004042 -171.1
8.76268000 0.004044 -169.9 0.999987 -80.43 0.999987 -80.43 0.004044 -171.1
8.76270000 0.004045 -169.9 0.999987 -80.43 0.999987 -80.43 0.004045 -171.1
8.76272000 0.004046 -169.9 0.999987 -80.43 0.999987 -80.43 0.004046 -171.1
8.76274000 0.004048 -169.9 0.999987 -80.43 0.999987 -80.43 0.004048 -171.1
8.76276000 0.004049 -169.9 0.999987 -80.43 0.999987 -80.43 0.004049 -171.1
8.76278000 0.004050 -169.9 0.999987 -80.43 0.999987 -80.43 0.004050 -171.1
8.76280000 0.004052 -169.9 0.999987 -80.43 0.999987 -80.43 0.004052 -171.1
8.76282000 0.004053 -169.9 0.999987 -80.43 0.999987 -80.43 0.004053 -171.1
8.76284000 0.004054 -169.9 0.999987 -80.43 0.999987 -80.43 0.004054 -171.1
8.76286000 0.004056 -169.9 0.999987 -80.43 0.999987 -80.43 0.004056 -171.1
8.76288000 0.004057 -169.9 0.999987 -80.43 0.999987 -80.43 0.004057 -171.1
8.76290000 0.004058 -169.9 0.999987 -80.43 0.999987 -80.43 0.004058 -171.1
8.76292000 0.004060 -169.9 0.999987 -80.43 0.999987 -80.43 0.004060 -171.1
8.76294000 0.004061 -169.9 0.999987 -80.43 0.999987 -80.43 0.004061 -171.1
8.76296000 0.004062 -169.9 0.999987 -80.43 0.999987 -80.43 0.004062 -171.1
8.76298000 0.004064 -169.9 0.999987 -80.43 0.999987 -80.43 0.004064 -171.1
8.76300000 0.004065 -169.9 0.999987 -80.43 0.999987 -80.43 0.004065 -171.1
8.76302000 0.004066 -169.9 0.999987 -80.43 0.999987 -80.43 0.004066 -171.1
8.76304000 0.004068 -169.9 0.999987 -80.43 0.999987 -80.43 0.004068 -171.1
8.76306000 0.004069 -169.9 0.999987 -80.43 0.999987 -80.43 0.004069 -171.1
8.76308000 0.004070 -169.9 0.999987 -80.43 0.999987 -80.43 0.004070 -171.1
8.76310000 0.004072 -169.9 0.999987 -80.43 0.999987 -80.43 0.004072 -171.1
8.76312000 0.004073 -169.9 0.999987 -80.44 0.999987 -80.44 0.004073 -171.1
8.76314000 0.004074 -169.9 0.999987 -80.44 0.999987 -80.44 0.004074 -171.1
8.76316000 0.004076 -169.9 0.999987 -80.44 0.999987 -80.44 0.004076 -171.1
8.76318000 0.004077 -169.9 0.999987 -80.44 0.999987 -80.44 0.004077 -171.1
8.76320000 0.004079 -169.9 0.999987 -80.44 0.999987 -80.44 0.004079 -171.1
8.76322000 0.004080 -169.9 0.999987 -80.44 0.999987 -80.44 0.004080 -171.1
8.76324000 0.004081 -169.9 0.999987 -80.44 0.999987 -80.44 0.004081 -171.1
8.76326000 0.004083 -169.9 0.999987 -80.44 0.999987 -80.44 0.004083 -171.1
8.76328000 0.004084 -169.9 0.999987 -80.44 0.999987 -80.44 0.004084 -171.1
8.76330000 0.004085 -169.9 0.999987 -80.44 0.999987 -80.44 0.004085 -171.1
8.76332000 0.004087 -169.9 0.999987 -80.44 0.999987 -80.44 0.004087 -171.1
8.76334000 0.004088 -169.9 0.999987 -80.44 0.999987 -80.44 0.004088 -171.1
8.76336000 0.004089 -169.9 0.999987 -80.44 0.999987 -80.44 0.004090 -171.1
8.76338000 0.004091 -169.9 0.999987 -80.44 0.999987 -80.44 0.004091 -171.1
8.76340000 0.004092 -169.9 0.999987 -80.44 0.999987 -80.44 0.004092 -171.1
8.76342000 0.004094 -169.9 0.999987 -80.44 0.999987 -80.44 0.004094 -171.1
8.76344000 0.004095 -169.9 0.999987 -80.44 0.999987 -80.44 0.004095 -171.1
8.76346000 0.004096 -169.9 0.999987 -80.44 0.999987 -80.44 0.004096 -171.1
8.76348000 0.004098 -169.9 0.999987 -80.44 0.999987 -80.44 0.004098 -171.1
8.76350000 0.004099 -169.9 0.999987 -80.44 0.999987 -80.44 0.004099 -171.1
8.76352000 0.004101 -169.9 0.999987 -80.44 0.999987 -80.44 0.004101 -171.1
8.76354000 0.004102 -169.9 0.999987 -80.44 0.999987 -80.44 0.004102 -171.1
8.76356000 0.004103 -169.9 0.999987 -80.44 0.999987 -80.44 0.004103 -171.1
8.76358000 0.004105 -169.9 0.999987 -80.44 0.999987 -80.44 0.004105 -171.1
8.76360000 0.004106 -169.9 0.999987 -80.44 0.999987 -80.44 0.004106 -171.1
8.76362000 0.004107 -169.9 0.999987 -80.44 0.999987 -80.44 0.004108 -171.1
8.76364000 0.004109 -169.9 0.999987 -80.44 0.999987 -80.44 0.004109 -171.1
8.76366000 0.004110 -169.9 0.999987 -80.44 0.999987 -80.44 0.004110 -171.1
8.76368000 0.004112 -169.9 0.999987 -80.44 0.999987 -80.44 0.004112 -171.1
8.76370000 0.004113 -169.9 0.999987 -80.44 0.999987 -80.44 0.004113 -171.1
8.76372000 0.004115 -169.9 0.999987 -80.44 0.999987 -80.44 0.004115 -171.1
8.76374000 0.004116 -169.9 0.999987 -80.44 0.999987 -80.44 0.004116 -171.1
8.76376000 0.004117 -169.9 0.999987 -80.44 0.999987 -80.44 0.004117 -171.1
8.76378000 0.004119 -169.9 0.999987 -80.44 0.999987 -80.44 0.004119 -171.1
8.76380000 0.004120 -169.9 0.999987 -80.44 0.999987 -80.44 0.004120 -171.1
8.76382000 0.004122 -169.9 0.999987 -80.44 0.999987 -80.44 0.004122 -171.1
8.76384000 0.004123 -169.9 0.999987 -80.44 0.999987 -80.44 0.004123 -171.1
8.76386000 0.004124 -169.9 0.999987 -80.44 0.999987 -80.44 0.004124 -171.1
8.76388000 0.004126 -169.9 0.999987 -80.45 0.999987 -80.45 0.004126 -171.1
8.76390000 0.004127 -169.9 0.999987 -80.45 0.999987 -80.45 0.004127 -171.1
8.76392000 0.004129 -169.9 0.999987 -80.45 0.999987 -80.45 0.004129 -171.1
8.76394000 0.004130 -169.9 0.999987 -80.45 0.999987 -80.45 0.004130 -171.1
8.76396000 0.004132 -169.9 0.999987 -80.45 0.999987 -80.45 0.004132 -171.1
8.76398000 0.004133 -169.9 0.999987 -80.45 0.999987 -80.45 0.004133 -171.1
8.76400000 0.004134 -169.9 0.999987 -80.45 0.999987 -80.45 0.004134 -171.1
8.76402000 0.004136 -169.9 0.999987 -80.45 0.999987 -80.45 0.004136 -171.1
8.76404000 0.004137 -169.9 0.999987 -80.45 0.999987 -80.45 0.004137 -171.1
8.76406000 0.004139 -169.9 0.999987 -80.45 0.999987 -80.45 0.004139 -171.1
8.76408000 0.004140 -169.9 0.999987 -80.45 0.999987 -80.45 0.004140 -171.1
8.76410000 0.004142 -169.9 0.999987 -80.45 0.999987 -80.45 0.004142 -171.1
8.76412000 0.004143 -169.9 0.999987 -80.45 0.999987 -80.45 0.004143 -171.1
8.76414000 0.004144 -169.9 0.999987 -80.45 0.999987 -80.45 0.004144 -171.1
8.76416000 0.004146 -169.9 0.999987 -80.45 0.999987 -80.45 0.004146 -171.1
8.76418000 0.004147 -169.9 0.999987 -80.45 0.999987 -80.45 0.004147 -171.1
8.76420000 0.004149 -169.9 0.999987 -80.45 0.999987 -80.45 0.004149 -171.1
8.76422000 0.004150 -169.9 0.999987 -80.45 0.999987 -80.45 0.004150 -171.1
8.76424000 0.004152 -169.9 0.999987 -80.45 0.999987 -80.45 0.004152 -171.1
8.76426000 0.004153 -169.9 0.999987 -80.45 0.999987 -80.45 0.004153 -171.1
8.76428000 0.004155 -169.9 0.999987 -80.45 0.999987 -80.45 0.004155 -171.1
8.76430000 0.004156 -169.9 0.999987 -80.45 0.999987 -80.45 0.004156 -171.1
8.76432000 0.004157 -169.9 0.999987 -80.45 0.999987 -80.45 0.004158 -171.1
8.76434000 0.004159 -169.9 0.999987 -80.45 0.999987 -80.45 0.004159 -171.1
8.76436000 0.004160 -169.9 0.999987 -80.45 0.999987 -80.45 0.004160 -171.1
8.76438000 0.004162 -169.9 0.999987 -80.45 0.999987 -80.45 0.004162 -171.1
8.76440000 0.004163 -169.9 0.999987 -80.45 0.999987 -80.45 0.004163 -171.1
8.76442000 0.004165 -169.9 0.999987 -80.45 0.999987 -80.45 0.004165 -171.1
8.76444000 0.004166 -169.9 0.999987 -80.45 0.999987 -80.45 0.004166 -171.1
8.76446000 0.004168 -169.9 0.999987 -80.45 0.999987 -80.45 0.004168 -171.1
8.76448000 0.004169 -169.9 0.999987 -80.45 0.999987 -80.45 0.004169 -171.1
8.76450000 0.004171 -169.9 0.999987 -80.45 0.999987 -80.45 0.004171 -171.1
8.76452000 0.004172 -169.9 0.999987 -80.45 0.999987 -80.45 0.004172 -171.1
8.76454000 0.004174 -169.9 0.999987 -80.45 0.999987 -80.45 0.004174 -171.1
8.76456000 0.004175 -169.9 0.999987 -80.45 0.999987 -80.45 0.004175 -171.1
8.76458000 0.004177 -169.9 0.999987 -80.45 0.999987 -80.45 0.004177 -171.1
8.76460000 0.004178 -169.9 0.999987 -80.45 0.999987 -80.45 0.004178 -171.1
8.76462000 0.004180 -169.9 0.999987 -80.46 0.999987 -80.46 0.004180 -171.1
8.76464000 0.004181 -169.9 0.999987 -80.46 0.999987 -80.46 0.004181 -171.1
8.76466000 0.004183 -169.9 0.999987 -80.46 0.999987 -80.46 0.004183 -171.1
8.76468000 0.004184 -169.9 0.999987 -80.46 0.999987 -80.46 0.004184 -171.1
8.76470000 0.004186 -169.9 0.999987 -80.46 0.999987 -80.46 0.004186 -171.1
8.76472000 0.004187 -169.9 0.999987 -80.46 0.999987 -80.46 0.004187 -171.1
8.76474000 0.004189 -169.9 0.999987 -80.46 0.999987 -80.46 0.004189 -171.1
8.76476000 0.004190 -169.9 0.999987 -80.46 0.999987 -80.46 0.004190 -171.1
8.76478000 0.004192 -169.9 0.999987 -80.46 0.999987 -80.46 0.004192 -171.1
8.76480000 0.004193 -169.9 0.999987 -80.46 0.999987 -80.46 0.004193 -171.1
8.76482000 0.004195 -169.9 0.999987 -80.46 0.999987 -80.46 0.004195 -171.1
8.76484000 0.004196 -169.9 0.999987 -80.46 0.999987 -80.46 0.004196 -171.1
8.76486000 0.004198 -169.9 0.999987 -80.46 0.999987 -80.46 0.004198 -171.1
8.76488000 0.004199 -169.9 0.999987 -80.46 0.999987 -80.46 0.004199 -171.1
8.76490000 0.004201 -169.9 0.999986 -80.46 0.999986 -80.46 0.004201 -171.1
8.76492000 0.004202 -169.9 0.999986 -80.46 0.999986 -80.46 0.004202 -171.1
8.76494000 0.004204 -169.9 0.999986 -80.46 0.999986 -80.46 0.004204 -171.1
8.76496000 0.004205 -169.9 0.999986 -80.46 0.999986 -80.46 0.004205 -171.1
8.76498000 0.004207 -169.9 0.999986 -80.46 0.999986 -80.46 0.004207 -171.1
8.76500000 0.004208 -169.9 0.999986 -80.46 0.999986 -80.46 0.004208 -171.1
8.76502000 0.004210 -169.9 0.999986 -80.46 0.999986 -80.46 0.004210 -171.1
8.76504000 0.004211 -169.9 0.999986 -80.46 0.999986 -80.46 0.004211 -171.1
8.76506000 0.004213 -169.9 0.999986 -80.46 0.999986 -80.46 0.004213 -171.1
8.76508000 0.004214 -169.9 0.999986 -80.46 0.999986 -80.46 0.004214 -171.1
8.76510000 0.004216 -169.9 0.999986 -80.46 0.999986 -80.46 0.004216 -171.1
8.76512000 0.004217 -169.9 0.999986 -80.46 0.999986 -80.46 0.004217 -171.1
8.76514000 0.004219 -169.9 0.999986 -80.46 0.999986 -80.46 0.004219 -171.1
8.76516000 0.004221 -169.9 0.999986 -80.46 0.999986 -80.46 0.004221 -171.1
8.76518000 0.004222 -169.9 0.999986 -80.46 0.999986 -80.46 0.004222 -171.1
8.76520000 0.004224 -169.9 0.999986 -80.46 0.999986 -80.46 0.004224 -171.1
8.76522000 0.004225 -169.9 0.999986 -80.46 0.999986 -80.46 0.004225 -171.1
8.76524000 0.004227 -169.9 0.999986 -80.46 0.999986 -80.46 0.004227 -171.1
8.76526000 0.004228 -169.9 0.999986 -80.46 0.999986 -80.46 0.004228 -171.1
8.76528000 0.004230 -169.9 0.999986 -80.46 0.999986 -80.46 0.004230 -171.1
8.76530000 0.004231 -169.9 0.999986 -80.46 0.999986 -80.46 0.004231 -171.1
8.76532000 0.004233 -169.9 0.999986 -80.46 0.999986 -80.46 0.004233 -171.1
8.76534000 0.004234 -169.9 0.999986 -80.46 0.999986 -80.46 0.004235 -171.1
8.76536000 0.004236 -169.9 0.999986 -80.47 0.999986 -80.47 0.004236 -171.1
8.76538000 0.004238 -169.9 0.999986 -80.47 0.999986 -80.47 0.004238 -171.1
8.76540000 0.004239 -169.9 0.999986 -80.47 0.999986 -80.47 0.004239 -171.1
8.76542000 0.004241 -169.9 0.999986 -80.47 0.999986 -80.47 0.004241 -171.1
8.76544000 0.004242 -169.9 0.999986 -80.47 0.999986 -80.47 0.004242 -171.1
8.76546000 0.004244 -169.9 0.999986 -80.47 0.999986 -80.47 0.004244 -171.1
8.76548000 0.004245 -169.9 0.999986 -80.47 0.999986 -80.47 0.004245 -171.2
8.76550000 0.004247 -169.9 0.999986 -80.47 0.999986 -80.47 0.004247 -171.2
8.76552000 0.004249 -169.9 0.999986 -80.47 0.999986 -80.47 0.004249 -171.2
8.76554000 0.004250 -169.9 0.999986 -80.47 0.999986 -80.47 0.004250 -171.2
8.76556000 0.004252 -169.9 0.999986 -80.47 0.999986 -80.47 0.004252 -171.2
8.76558000 0.004253 -169.9 0.999986 -80.47 0.999986 -80.47 0.004253 -171.2
8.76560000 0.004255 -169.9 0.999986 -80.47 0.999986 -80.47 0.004255 -171.2
8.76562000 0.004257 -169.9 0.999986 -80.47 0.999986 -80.47 0.004257 -171.2
8.76564000 0.004258 -169.9 0.999986 -80.47 0.999986 -80.47 0.004258 -171.2
8.76566000 0.004260 -169.9 0.999986 -80.47 0.999986 -80.47 0.004260 -171.2
8.76568000 0.004261 -169.9 0.999986 -80.47 0.999986 -80.47 0.004261 -171.2
8.76570000 0.004263 -169.9 0.999986 -80.47 0.999986 -80.47 0.004263 -171.2
8.76572000 0.004265 -169.9 0.999986 -80.47 0.999986 -80.47 0.004265 -171.2
8.76574000 0.004266 -169.9 0.999986 -80.47 0.999986 -80.47 0.004266 -171.2
8.76576000 0.004268 -169.9 0.999986 -80.47 0.999986 -80.47 0.004268 -171.2
8.76578000 0.004269 -169.9 0.999986 -80.47 0.999986 -80.47 0.004269 -171.2
8.76580000 0.004271 -169.9 0.999986 -80.47 0.999986 -80.47 0.004271 -171.2
8.76582000 0.004273 -169.9 0.999986 -80.47 0.999986 -80.47 0.004273 -171.2
8.76584000 0.004274 -169.9 0.999986 -80.47 0.999986 -80.47 0.004274 -171.2
8.76586000 0.004276 -169.9 0.999986 -80.47 0.999986 -80.47 0.004276 -171.2
8.76588000 0.004277 -169.9 0.999986 -80.47 0.999986 -80.47 0.004277 -171.2
8.76590000 0.004279 -169.9 0.999986 -80.47 0.999986 -80.47 0.004279 -171.2
8.76592000 0.004281 -169.9 0.999986 -80.47 0.999986 -80.47 0.004281 -171.2
8.76594000 0.004282 -169.9 0.999986 -80.47 0.999986 -80.47 0.004282 -171.2
8.76596000 0.004284 -169.9 0.999986 -80.47 0.999986 -80.47 0.004284 -171.2
8.76598000 0.004285 -169.9 0.999986 -80.47 0.999986 -80.47 0.004286 -171.2
8.76600000 0.004287 -169.9 0.999986 -80.47 0.999986 -80.47 0.004287 -171.2
8.76602000 0.004289 -169.9 0.999986 -80.47 0.999986 -80.47 0.004289 -171.2
8.76604000 0.004290 -169.9 0.999986 -80.47 0.999986 -80.47 0.004290 -171.2
8.76606000 0.004292 -169.9 0.999986 -80.47 0.999986 -80.47 0.004292 -171.2
8.76608000 0.004294 -169.9 0.999986 -80.47 0.999986 -80.47 0.004294 -171.2
8.76610000 0.004295 -169.9 0.999986 -80.48 0.999986 -80.48 0.004295 -171.2
8.76612000 0.004297 -169.9 0.999986 -80.48 0.999986 -80.48 0.004297 -171.2
8.76614000 0.004299 -169.9 0.999986 -80.48 0.999986 -80.48 0.004299 -171.2
8.76616000 0.004300 -169.9 0.999986 -80.48 0.999986 -80.48 0.004300 -171.2
8.76618000 0.004302 -169.9 0.999986 -80.48 0.999986 -80.48 0.004302 -171.2
8.76620000 0.004304 -169.9 0.999986 -80.48 0.999986 -80.48 0.004304 -171.2
8.76622000 0.004305 -169.9 0.999986 -80.48 0.999986 -80.48 0.004305 -171.2
8.76624000 0.004307 -169.9 0.999986 -80.48 0.999986 -80.48 0.004307 -171.2
8.76626000 0.004309 -169.9 0.999986 -80.48 0.999986 -80.48 0.004309 -171.2
8.76628000 0.004310 -169.9 0.999986 -80.48 0.999986 -80.48 0.004310 -171.2
8.76630000 0.004312 -169.9 0.999986 -80.48 0.999986 -80.48 0.004312 -171.2
8.76632000 0.004314 -169.9 0.999986 -80.48 0.999986 -80.48 0.004314 -171.2
8.76634000 0.004315 -169.9 0.999986 -80.48 0.999986 -80.48 0.004315 -171.2
8.76636000 0.004317 -169.9 0.999986 -80.48 0.999986 -80.48 0.004317 -171.2
8.76638000 0.004319 -169.9 0.999986 -80.48 0.999986 -80.48 0.004319 -171.2
8.76640000 0.004320 -169.9 0.999986 -80.48 0.999986 -80.48 0.004320 -171.2
8.76642000 0.004322 -169.9 0.999986 -80.48 0.999986 -80.48 0.004322 -171.2
8.76644000 0.004324 -169.9 0.999986 -80.48 0.999986 -80.48 0.004324 -171.2
8.76646000 0.004325 -169.9 0.999986 -80.48 0.999986 -80.48 0.004325 -171.2
8.76648000 0.004327 -169.9 0.999986 -80.48 0.999986 -80.48 0.004327 -171.2
8.76650000 0.004329 -169.9 0.999986 -80.48 0.999986 -80.48 0.004329 -171.2
8.76652000 0.004330 -169.9 0.999986 -80.48 0.999986 -80.48 0.004330 -171.2
8.76654000 0.004332 -169.9 0.999986 -80.48 0.999986 -80.48 0.004332 -171.2
8.76656000 0.004334 -169.9 0.999986 -80.48 0.999986 -80.48 0.004334 -171.2
8.76658000 0.004335 -169.9 0.999986 -80.48 0.999986 -80.48 0.004335 -171.2
8.76660000 0.004337 -169.9 0.999986 -80.48 0.999986 -80.48 0.004337 -171.2
8.76662000 0.004339 -169.9 0.999986 -80.48 0.999986 -80.48 0.004339 -171.2
8.76664000 0.004340 -169.9 0.999986 -80.48 0.999986 -80.48 0.004340 -171.2
8.76666000 0.004342 -169.9 0.999986 -80.48 0.999986 -80.48 0.004342 -171.2
8.76668000 0.004344 -169.9 0.999986 -80.48 0.999986 -80.48 0.004344 -171.2
8.76670000 0.004346 -169.9 0.999986 -80.48 0.999986 -80.48 0.004346 -171.2
8.76672000 0.004347 -169.9 0.999986 -80.48 0.999986 -80.48 0.004347 -171.2
8.76674000 0.004349 -169.9 0.999986 -80.48 0.999986 -80.48 0.004349 -171.2
8.76676000 0.004351 -169.9 0.999986 -80.48 0.999986 -80.48 0.004351 -171.2
8.76678000 0.004352 -169.9 0.999986 -80.48 0.999986 -80.48 0.004352 -171.2
8.76680000 0.004354 -169.9 0.999986 -80.48 0.999986 -80.48 0.004354 -171.2
8.76682000 0.004356 -169.9 0.999986 -80.49 0.999986 -80.49 0.004356 -171.2
8.76684000 0.004358 -169.9 0.999986 -80.49 0.999986 -80.49 0.004358 -171.2
8.76686000 0.004359 -169.9 0.999986 -80.49 0.999986 -80.49 0.004359 -171.2
8.76688000 0.004361 -169.9 0.999986 -80.49 0.999986 -80.49 0.004361 -171.2
8.76690000 0.004363 -169.9 0.999986 -80.49 0.999986 -80.49 0.004363 -171.2
8.76692000 0.004365 -169.9 0.999986 -80.49 0.999986 -80.49 0.004365 -171.2
8.76694000 0.004366 -169.9 0.999986 -80.49 0.999986 -80.49 0.004366 -171.2
8.76696000 0.004368 -169.9 0.999986 -80.49 0.999986 -80.49 0.004368 -171.2
8.76698000 0.004370 -169.9 0.999986 -80.49 0.999986 -80.49 0.004370 -171.2
8.76700000 0.004372 -169.9 0.999986 -80.49 0.999986 -80.49 0.004372 -171.2
8.76702000 0.004373 -169.9 0.999986 -80.49 0.999986 -80.49 0.004373 -171.2
8.76704000 0.004375 -169.9 0.999985 -80.49 0.999985 -80.49 0.004375 -171.2
8.76706000 0.004377 -169.9 0.999985 -80.49 0.999985 -80.49 0.004377 -171.2
8.76708000 0.004379 -169.9 0.999985 -80.49 0.999985 -80.49 0.004379 -171.2
8.76710000 0.004380 -169.9 0.999985 -80.49 0.999985 -80.49 0.004380 -171.2
8.76712000 0.004382 -169.9 0.999985 -80.49 0.999985 -80.49 0.004382 -171.2
8.76714000 0.004384 -169.9 0.999985 -80.49 0.999985 -80.49 0.004384 -171.2
8.76716000 0.004386 -169.9 0.999985 -80.49 0.999985 -80.49 0.004386 -171.2
8.76718000 0.004387 -169.9 0.999985 -80.49 0.999985 -80.49 0.004387 -171.2
8.76720000 0.004389 -169.9 0.999985 -80.49 0.999985 -80.49 0.004389 -171.2
8.76722000 0.004391 -169.9 0.999985 -80.49 0.999985 -80.49 0.004391 -171.2
8.76724000 0.004393 -169.9 0.999985 -80.49 0.999985 -80.49 0.004393 -171.2
8.76726000 0.004394 -169.9 0.999985 -80.49 0.999985 -80.49 0.004394 -171.2
8.76728000 0.004396 -169.9 0.999985 -80.49 0.999985 -80.49 0.004396 -171.2
8.76730000 0.004398 -169.9 0.999985 -80.49 0.999985 -80.49 0.004398 -171.2
8.76732000 0.004400 -169.9 0.999985 -80.49 0.999985 -80.49 0.004400 -171.2
8.76734000 0.004402 -169.9 0.999985 -80.49 0.999985 -80.49 0.004402 -171.2
8.76736000 0.004403 -169.9 0.999985 -80.49 0.999985 -80.49 0.004403 -171.2
8.76738000 0.004405 -169.9 0.999985 -80.49 0.999985 -80.49 0.004405 -171.2
8.76740000 0.004407 -169.9 0.999985 -80.49 0.999985 -80.49 0.004407 -171.2
8.76742000 0.004409 -169.9 0.999985 -80.49 0.999985 -80.49 0.004409 -171.2
8.76744000 0.004411 -169.9 0.999985 -80.49 0.999985 -80.49 0.004411 -171.2
8.76746000 0.004412 -169.9 0.999985 -80.49 0.999985 -80.49 0.004412 -171.2
8.76748000 0.004414 -169.9 0.999985 -80.49 0.999985 -80.49 0.004414 -171.2
8.76750000 0.004416 -169.9 0.999985 -80.49 0.999985 -80.49 0.004416 -171.2
8.76752000 0.004418 -169.9 0.999985 -80.50 0.999985 -80.50 0.004418 -171.2
8.76754000 0.004420 -169.9 0.999985 -80.50 0.999985 -80.50 0.004420 -171.2
8.76756000 0.004421 -169.9 0.999985 -80.50 0.999985 -80.50 0.004421 -171.2
8.76758000 0.004423 -169.9 0.999985 -80.50 0.999985 -80.50 0.004423 -171.2
8.76760000 0.004425 -169.9 0.999985 -80.50 0.999985 -80.50 0.004425 -171.2
8.76762000 0.004427 -169.9 0.999985 -80.50 0.999985 -80.50 0.004427 -171.2
8.76764000 0.004429 -169.9 0.999985 -80.50 0.999985 -80.50 0.004429 -171.2
8.76766000 0.004431 -169.9 0.999985 -80.50 0.999985 -80.50 0.004431 -171.2
8.76768000 0.004432 -169.9 0.999985 -80.50 0.999985 -80.50 0.004432 -171.2
8.76770000 0.004434 -169.9 0.999985 -80.50 0.999985 -80.50 0.004434 -171.2
8.76772000 0.004436 -169.9 0.999985 -80.50 0.999985 -80.50 0.004436 -171.2
8.76774000 0.004438 -169.9 0.999985 -80.50 0.999985 -80.50 0.004438 -171.2
8.76776000 0.004440 -169.9 0.999985 -80.50 0.999985 -80.50 0.004440 -171.2
8.76778000 0.004442 -169.9 0.999985 -80.50 0.999985 -80.50 0.004442 -171.2
8.76780000 0.004443 -169.9 0.999985 -80.50 0.999985 -80.50 0.004443 -171.2
8.76782000 0.004445 -169.9 0.999985 -80.50 0.999985 -80.50 0.004445 -171.2