! Sonnet Data File
! From: emgraph Version : 16.52
! From Project: Qubit_Xmon2_brg_para
! Data is De-embedded 
! Data File Written: 11/12/2017 17:09:26
!< HDATE 11/12/2017 00:17:19
!< MDATE 11/12/2017 00:17:19
!< PARAMS
!< Lj = 11.0
!< Gap = 6.0
!< Pwid = 2000.0
!< Airgap = 6.0
!< Width = 10.0
!< Bwid = 8.0
!< Dis1 = 350.0
!< Dis2 = 356.0
!< END PARAMS
# GHZ S MA R 51.80000
8.68500000 0.012278 -170.3 0.999906 -80.15 0.999906 -80.15 0.012278 -170.1
!< P1 F=8.685 Eeff=(6.4468387 -2.9786e-5) Z0=(51.799366 1.19075e-4) R=0.0 C=0.0 
!< P2 F=8.685 Eeff=(6.4468387 -2.9786e-5) Z0=(51.799366 1.19075e-4) R=0.0 C=0.0 
8.68500500 0.012283 -170.3 0.999906 -80.15 0.999906 -80.15 0.012282 -170.1
8.68501000 0.012287 -170.3 0.999906 -80.15 0.999906 -80.15 0.012287 -170.1
8.68501500 0.012291 -170.3 0.999905 -80.15 0.999905 -80.15 0.012291 -170.1
8.68502000 0.012295 -170.3 0.999905 -80.15 0.999905 -80.15 0.012295 -170.1
8.68502500 0.012300 -170.3 0.999905 -80.15 0.999905 -80.15 0.012300 -170.1
8.68503000 0.012304 -170.3 0.999905 -80.15 0.999905 -80.15 0.012304 -170.1
8.68503500 0.012308 -170.3 0.999905 -80.15 0.999905 -80.15 0.012308 -170.1
8.68504000 0.012313 -170.3 0.999905 -80.15 0.999905 -80.15 0.012313 -170.1
8.68504500 0.012317 -170.3 0.999905 -80.15 0.999905 -80.15 0.012317 -170.1
8.68505000 0.012321 -170.3 0.999905 -80.15 0.999905 -80.15 0.012321 -170.1
8.68505500 0.012326 -170.3 0.999905 -80.15 0.999905 -80.15 0.012326 -170.1
8.68506000 0.012330 -170.3 0.999905 -80.15 0.999905 -80.15 0.012330 -170.1
8.68506500 0.012334 -170.3 0.999905 -80.15 0.999905 -80.15 0.012334 -170.1
8.68507000 0.012339 -170.3 0.999905 -80.15 0.999905 -80.15 0.012339 -170.1
8.68507500 0.012343 -170.3 0.999905 -80.15 0.999905 -80.15 0.012343 -170.1
8.68508000 0.012348 -170.3 0.999904 -80.15 0.999904 -80.15 0.012347 -170.1
8.68508500 0.012352 -170.3 0.999904 -80.15 0.999904 -80.15 0.012352 -170.1
8.68509000 0.012356 -170.3 0.999904 -80.15 0.999904 -80.15 0.012356 -170.1
8.68509500 0.012361 -170.3 0.999904 -80.16 0.999904 -80.16 0.012360 -170.1
8.68510000 0.012365 -170.3 0.999904 -80.16 0.999904 -80.16 0.012365 -170.1
8.68510500 0.012369 -170.3 0.999904 -80.16 0.999904 -80.16 0.012369 -170.1
8.68511000 0.012374 -170.3 0.999904 -80.16 0.999904 -80.16 0.012374 -170.1
8.68511500 0.012378 -170.3 0.999904 -80.16 0.999904 -80.16 0.012378 -170.2
8.68512000 0.012383 -170.3 0.999904 -80.16 0.999904 -80.16 0.012382 -170.2
8.68512500 0.012387 -170.3 0.999904 -80.16 0.999904 -80.16 0.012387 -170.2
8.68513000 0.012391 -170.3 0.999904 -80.16 0.999904 -80.16 0.012391 -170.2
8.68513500 0.012396 -170.3 0.999904 -80.16 0.999904 -80.16 0.012396 -170.2
8.68514000 0.012400 -170.3 0.999904 -80.16 0.999904 -80.16 0.012400 -170.2
8.68514500 0.012405 -170.3 0.999904 -80.16 0.999904 -80.16 0.012405 -170.2
8.68515000 0.012409 -170.3 0.999903 -80.16 0.999903 -80.16 0.012409 -170.2
8.68515500 0.012414 -170.3 0.999903 -80.16 0.999903 -80.16 0.012413 -170.2
8.68516000 0.012418 -170.3 0.999903 -80.16 0.999903 -80.16 0.012418 -170.2
8.68516500 0.012423 -170.3 0.999903 -80.16 0.999903 -80.16 0.012422 -170.2
8.68517000 0.012427 -170.3 0.999903 -80.16 0.999903 -80.16 0.012427 -170.2
8.68517500 0.012431 -170.3 0.999903 -80.16 0.999903 -80.16 0.012431 -170.2
8.68518000 0.012436 -170.3 0.999903 -80.16 0.999903 -80.16 0.012436 -170.2
8.68518500 0.012440 -170.3 0.999903 -80.16 0.999903 -80.16 0.012440 -170.2
8.68519000 0.012445 -170.3 0.999903 -80.16 0.999903 -80.16 0.012445 -170.2
8.68519500 0.012449 -170.3 0.999903 -80.16 0.999903 -80.16 0.012449 -170.2
8.68520000 0.012454 -170.3 0.999903 -80.16 0.999903 -80.16 0.012454 -170.2
8.68520500 0.012458 -170.3 0.999903 -80.16 0.999903 -80.16 0.012458 -170.2
8.68521000 0.012463 -170.3 0.999903 -80.16 0.999903 -80.16 0.012463 -170.2
8.68521500 0.012467 -170.3 0.999902 -80.16 0.999902 -80.16 0.012467 -170.2
8.68522000 0.012472 -170.3 0.999902 -80.16 0.999902 -80.16 0.012472 -170.2
8.68522500 0.012476 -170.3 0.999902 -80.16 0.999902 -80.16 0.012476 -170.2
8.68523000 0.012481 -170.3 0.999902 -80.16 0.999902 -80.16 0.012481 -170.2
8.68523500 0.012485 -170.3 0.999902 -80.16 0.999902 -80.16 0.012485 -170.2
8.68524000 0.012490 -170.3 0.999902 -80.16 0.999902 -80.16 0.012490 -170.2
8.68524500 0.012494 -170.3 0.999902 -80.16 0.999902 -80.16 0.012494 -170.2
8.68525000 0.012499 -170.3 0.999902 -80.16 0.999902 -80.16 0.012499 -170.2
8.68525500 0.012504 -170.3 0.999902 -80.16 0.999902 -80.16 0.012503 -170.2
8.68526000 0.012508 -170.3 0.999902 -80.17 0.999902 -80.17 0.012508 -170.2
8.68526500 0.012513 -170.3 0.999902 -80.17 0.999902 -80.17 0.012512 -170.2
8.68527000 0.012517 -170.3 0.999902 -80.17 0.999902 -80.17 0.012517 -170.2
8.68527500 0.012522 -170.3 0.999902 -80.17 0.999902 -80.17 0.012522 -170.2
8.68528000 0.012526 -170.3 0.999901 -80.17 0.999901 -80.17 0.012526 -170.2
8.68528500 0.012531 -170.3 0.999901 -80.17 0.999901 -80.17 0.012531 -170.2
8.68529000 0.012536 -170.3 0.999901 -80.17 0.999901 -80.17 0.012535 -170.2
8.68529500 0.012540 -170.3 0.999901 -80.17 0.999901 -80.17 0.012540 -170.2
8.68530000 0.012545 -170.3 0.999901 -80.17 0.999901 -80.17 0.012545 -170.2
8.68530500 0.012549 -170.3 0.999901 -80.17 0.999901 -80.17 0.012549 -170.2
8.68531000 0.012554 -170.3 0.999901 -80.17 0.999901 -80.17 0.012554 -170.2
8.68531500 0.012559 -170.3 0.999901 -80.17 0.999901 -80.17 0.012558 -170.2
8.68532000 0.012563 -170.3 0.999901 -80.17 0.999901 -80.17 0.012563 -170.2
8.68532500 0.012568 -170.3 0.999901 -80.17 0.999901 -80.17 0.012568 -170.2
8.68533000 0.012572 -170.3 0.999901 -80.17 0.999901 -80.17 0.012572 -170.2
8.68533500 0.012577 -170.3 0.999901 -80.17 0.999901 -80.17 0.012577 -170.2
8.68534000 0.012582 -170.3 0.999901 -80.17 0.999901 -80.17 0.012582 -170.2
8.68534500 0.012586 -170.3 0.999900 -80.17 0.999900 -80.17 0.012586 -170.2
8.68535000 0.012591 -170.3 0.999900 -80.17 0.999900 -80.17 0.012591 -170.2
8.68535500 0.012596 -170.3 0.999900 -80.17 0.999900 -80.17 0.012595 -170.2
8.68536000 0.012600 -170.3 0.999900 -80.17 0.999900 -80.17 0.012600 -170.2
8.68536500 0.012605 -170.3 0.999900 -80.17 0.999900 -80.17 0.012605 -170.2
8.68537000 0.012610 -170.3 0.999900 -80.17 0.999900 -80.17 0.012609 -170.2
8.68537500 0.012614 -170.3 0.999900 -80.17 0.999900 -80.17 0.012614 -170.2
8.68538000 0.012619 -170.3 0.999900 -80.17 0.999900 -80.17 0.012619 -170.2
8.68538500 0.012624 -170.3 0.999900 -80.17 0.999900 -80.17 0.012624 -170.2
8.68539000 0.012628 -170.3 0.999900 -80.17 0.999900 -80.17 0.012628 -170.2
8.68539500 0.012633 -170.3 0.999900 -80.17 0.999900 -80.17 0.012633 -170.2
8.68540000 0.012638 -170.3 0.999900 -80.17 0.999900 -80.17 0.012638 -170.2
8.68540500 0.012643 -170.3 0.999900 -80.17 0.999900 -80.17 0.012642 -170.2
8.68541000 0.012647 -170.3 0.999899 -80.17 0.999899 -80.17 0.012647 -170.2
8.68541500 0.012652 -170.3 0.999899 -80.17 0.999899 -80.17 0.012652 -170.2
8.68542000 0.012657 -170.3 0.999899 -80.18 0.999899 -80.18 0.012657 -170.2
8.68542500 0.012662 -170.3 0.999899 -80.18 0.999899 -80.18 0.012661 -170.2
8.68543000 0.012666 -170.3 0.999899 -80.18 0.999899 -80.18 0.012666 -170.2
8.68543500 0.012671 -170.3 0.999899 -80.18 0.999899 -80.18 0.012671 -170.2
8.68544000 0.012676 -170.3 0.999899 -80.18 0.999899 -80.18 0.012676 -170.2
8.68544500 0.012681 -170.3 0.999899 -80.18 0.999899 -80.18 0.012680 -170.2
8.68545000 0.012685 -170.3 0.999899 -80.18 0.999899 -80.18 0.012685 -170.2
8.68545500 0.012690 -170.3 0.999899 -80.18 0.999899 -80.18 0.012690 -170.2
8.68546000 0.012695 -170.3 0.999899 -80.18 0.999899 -80.18 0.012695 -170.2
8.68546500 0.012700 -170.3 0.999899 -80.18 0.999899 -80.18 0.012699 -170.2
8.68547000 0.012704 -170.4 0.999898 -80.18 0.999898 -80.18 0.012704 -170.2
8.68547500 0.012709 -170.4 0.999898 -80.18 0.999898 -80.18 0.012709 -170.2
8.68548000 0.012714 -170.4 0.999898 -80.18 0.999898 -80.18 0.012714 -170.2
8.68548500 0.012719 -170.4 0.999898 -80.18 0.999898 -80.18 0.012719 -170.2
8.68549000 0.012724 -170.4 0.999898 -80.18 0.999898 -80.18 0.012723 -170.2
8.68549500 0.012728 -170.4 0.999898 -80.18 0.999898 -80.18 0.012728 -170.2
8.68550000 0.012733 -170.4 0.999898 -80.18 0.999898 -80.18 0.012733 -170.2
8.68550500 0.012738 -170.4 0.999898 -80.18 0.999898 -80.18 0.012738 -170.2
8.68551000 0.012743 -170.4 0.999898 -80.18 0.999898 -80.18 0.012743 -170.2
8.68551500 0.012748 -170.4 0.999898 -80.18 0.999898 -80.18 0.012748 -170.2
8.68552000 0.012753 -170.4 0.999898 -80.18 0.999898 -80.18 0.012752 -170.2
8.68552500 0.012757 -170.4 0.999898 -80.18 0.999898 -80.18 0.012757 -170.2
8.68553000 0.012762 -170.4 0.999897 -80.18 0.999897 -80.18 0.012762 -170.2
8.68553500 0.012767 -170.4 0.999897 -80.18 0.999897 -80.18 0.012767 -170.2
8.68554000 0.012772 -170.4 0.999897 -80.18 0.999897 -80.18 0.012772 -170.2
8.68554500 0.012777 -170.4 0.999897 -80.18 0.999897 -80.18 0.012777 -170.2
8.68555000 0.012782 -170.4 0.999897 -80.18 0.999897 -80.18 0.012782 -170.2
8.68555500 0.012787 -170.4 0.999897 -80.18 0.999897 -80.18 0.012787 -170.2
8.68556000 0.012792 -170.4 0.999897 -80.18 0.999897 -80.18 0.012791 -170.2
8.68556500 0.012797 -170.4 0.999897 -80.18 0.999897 -80.18 0.012796 -170.2
8.68557000 0.012801 -170.4 0.999897 -80.18 0.999897 -80.18 0.012801 -170.2
8.68557500 0.012806 -170.4 0.999897 -80.19 0.999897 -80.19 0.012806 -170.2
8.68558000 0.012811 -170.4 0.999897 -80.19 0.999897 -80.19 0.012811 -170.2
8.68558500 0.012816 -170.4 0.999897 -80.19 0.999897 -80.19 0.012816 -170.2
8.68559000 0.012821 -170.4 0.999896 -80.19 0.999896 -80.19 0.012821 -170.2
8.68559500 0.012826 -170.4 0.999896 -80.19 0.999896 -80.19 0.012826 -170.2
8.68560000 0.012831 -170.4 0.999896 -80.19 0.999896 -80.19 0.012831 -170.2
8.68560500 0.012836 -170.4 0.999896 -80.19 0.999896 -80.19 0.012836 -170.2
8.68561000 0.012841 -170.4 0.999896 -80.19 0.999896 -80.19 0.012841 -170.2
8.68561500 0.012846 -170.4 0.999896 -80.19 0.999896 -80.19 0.012846 -170.2
8.68562000 0.012851 -170.4 0.999896 -80.19 0.999896 -80.19 0.012851 -170.2
8.68562500 0.012856 -170.4 0.999896 -80.19 0.999896 -80.19 0.012856 -170.2
8.68563000 0.012861 -170.4 0.999896 -80.19 0.999896 -80.19 0.012861 -170.2
8.68563500 0.012866 -170.4 0.999896 -80.19 0.999896 -80.19 0.012866 -170.2
8.68564000 0.012871 -170.4 0.999896 -80.19 0.999896 -80.19 0.012871 -170.2
8.68564500 0.012876 -170.4 0.999895 -80.19 0.999895 -80.19 0.012876 -170.2
8.68565000 0.012881 -170.4 0.999895 -80.19 0.999895 -80.19 0.012881 -170.2
8.68565500 0.012886 -170.4 0.999895 -80.19 0.999895 -80.19 0.012886 -170.2
8.68566000 0.012891 -170.4 0.999895 -80.19 0.999895 -80.19 0.012891 -170.2
8.68566500 0.012896 -170.4 0.999895 -80.19 0.999895 -80.19 0.012896 -170.2
8.68567000 0.012901 -170.4 0.999895 -80.19 0.999895 -80.19 0.012901 -170.2
8.68567500 0.012906 -170.4 0.999895 -80.19 0.999895 -80.19 0.012906 -170.2
8.68568000 0.012911 -170.4 0.999895 -80.19 0.999895 -80.19 0.012911 -170.2
8.68568500 0.012916 -170.4 0.999895 -80.19 0.999895 -80.19 0.012916 -170.2
8.68569000 0.012921 -170.4 0.999895 -80.19 0.999895 -80.19 0.012921 -170.2
8.68569500 0.012926 -170.4 0.999895 -80.19 0.999895 -80.19 0.012926 -170.2
8.68570000 0.012931 -170.4 0.999895 -80.19 0.999895 -80.19 0.012931 -170.2
8.68570500 0.012936 -170.4 0.999894 -80.19 0.999894 -80.19 0.012936 -170.2
8.68571000 0.012941 -170.4 0.999894 -80.19 0.999894 -80.19 0.012941 -170.2
8.68571500 0.012946 -170.4 0.999894 -80.19 0.999894 -80.19 0.012946 -170.2
8.68572000 0.012952 -170.4 0.999894 -80.19 0.999894 -80.19 0.012951 -170.2
8.68572500 0.012957 -170.4 0.999894 -80.20 0.999894 -80.20 0.012956 -170.2
8.68573000 0.012962 -170.4 0.999894 -80.20 0.999894 -80.20 0.012962 -170.2
8.68573500 0.012967 -170.4 0.999894 -80.20 0.999894 -80.20 0.012967 -170.2
8.68574000 0.012972 -170.4 0.999894 -80.20 0.999894 -80.20 0.012972 -170.2
8.68574500 0.012977 -170.4 0.999894 -80.20 0.999894 -80.20 0.012977 -170.2
8.68575000 0.012982 -170.4 0.999894 -80.20 0.999894 -80.20 0.012982 -170.2
8.68575500 0.012987 -170.4 0.999894 -80.20 0.999894 -80.20 0.012987 -170.2
8.68576000 0.012993 -170.4 0.999893 -80.20 0.999893 -80.20 0.012992 -170.2
8.68576500 0.012998 -170.4 0.999893 -80.20 0.999893 -80.20 0.012997 -170.2
8.68577000 0.013003 -170.4 0.999893 -80.20 0.999893 -80.20 0.013003 -170.2
8.68577500 0.013008 -170.4 0.999893 -80.20 0.999893 -80.20 0.013008 -170.2
8.68578000 0.013013 -170.4 0.999893 -80.20 0.999893 -80.20 0.013013 -170.2
8.68578500 0.013018 -170.4 0.999893 -80.20 0.999893 -80.20 0.013018 -170.2
8.68579000 0.013024 -170.4 0.999893 -80.20 0.999893 -80.20 0.013023 -170.2
8.68579500 0.013029 -170.4 0.999893 -80.20 0.999893 -80.20 0.013029 -170.2
8.68580000 0.013034 -170.4 0.999893 -80.20 0.999893 -80.20 0.013034 -170.2
8.68580500 0.013039 -170.4 0.999893 -80.20 0.999893 -80.20 0.013039 -170.2
8.68581000 0.013044 -170.4 0.999893 -80.20 0.999893 -80.20 0.013044 -170.2
8.68581500 0.013050 -170.4 0.999892 -80.20 0.999892 -80.20 0.013049 -170.2
8.68582000 0.013055 -170.4 0.999892 -80.20 0.999892 -80.20 0.013055 -170.2
8.68582500 0.013060 -170.4 0.999892 -80.20 0.999892 -80.20 0.013060 -170.2
8.68583000 0.013065 -170.4 0.999892 -80.20 0.999892 -80.20 0.013065 -170.2
8.68583500 0.013071 -170.4 0.999892 -80.20 0.999892 -80.20 0.013070 -170.2
8.68584000 0.013076 -170.4 0.999892 -80.20 0.999892 -80.20 0.013076 -170.2
8.68584500 0.013081 -170.4 0.999892 -80.20 0.999892 -80.20 0.013081 -170.2
8.68585000 0.013086 -170.4 0.999892 -80.20 0.999892 -80.20 0.013086 -170.2
8.68585500 0.013092 -170.4 0.999892 -80.20 0.999892 -80.20 0.013091 -170.2
8.68586000 0.013097 -170.4 0.999892 -80.20 0.999892 -80.20 0.013097 -170.2
8.68586500 0.013102 -170.4 0.999891 -80.20 0.999891 -80.20 0.013102 -170.2
8.68587000 0.013107 -170.4 0.999891 -80.20 0.999891 -80.20 0.013107 -170.2
8.68587500 0.013113 -170.4 0.999891 -80.21 0.999891 -80.21 0.013113 -170.2
8.68588000 0.013118 -170.4 0.999891 -80.21 0.999891 -80.21 0.013118 -170.2
8.68588500 0.013123 -170.4 0.999891 -80.21 0.999891 -80.21 0.013123 -170.2
8.68589000 0.013129 -170.4 0.999891 -80.21 0.999891 -80.21 0.013128 -170.2
8.68589500 0.013134 -170.4 0.999891 -80.21 0.999891 -80.21 0.013134 -170.2
8.68590000 0.013139 -170.4 0.999891 -80.21 0.999891 -80.21 0.013139 -170.2
8.68590500 0.013145 -170.4 0.999891 -80.21 0.999891 -80.21 0.013144 -170.2
8.68591000 0.013150 -170.4 0.999891 -80.21 0.999891 -80.21 0.013150 -170.2
8.68591500 0.013155 -170.4 0.999891 -80.21 0.999891 -80.21 0.013155 -170.2
8.68592000 0.013161 -170.4 0.999890 -80.21 0.999890 -80.21 0.013161 -170.2
8.68592500 0.013166 -170.4 0.999890 -80.21 0.999890 -80.21 0.013166 -170.2
8.68593000 0.013172 -170.4 0.999890 -80.21 0.999890 -80.21 0.013171 -170.2
8.68593500 0.013177 -170.4 0.999890 -80.21 0.999890 -80.21 0.013177 -170.2
8.68594000 0.013182 -170.4 0.999890 -80.21 0.999890 -80.21 0.013182 -170.2
8.68594500 0.013188 -170.4 0.999890 -80.21 0.999890 -80.21 0.013187 -170.2
8.68595000 0.013193 -170.4 0.999890 -80.21 0.999890 -80.21 0.013193 -170.2
8.68595500 0.013199 -170.4 0.999890 -80.21 0.999890 -80.21 0.013198 -170.2
8.68596000 0.013204 -170.4 0.999890 -80.21 0.999890 -80.21 0.013204 -170.2
8.68596500 0.013209 -170.4 0.999890 -80.21 0.999890 -80.21 0.013209 -170.2
8.68597000 0.013215 -170.4 0.999889 -80.21 0.999889 -80.21 0.013215 -170.2
8.68597500 0.013220 -170.4 0.999889 -80.21 0.999889 -80.21 0.013220 -170.2
8.68598000 0.013226 -170.4 0.999889 -80.21 0.999889 -80.21 0.013225 -170.2
8.68598500 0.013231 -170.4 0.999889 -80.21 0.999889 -80.21 0.013231 -170.2
8.68599000 0.013237 -170.4 0.999889 -80.21 0.999889 -80.21 0.013236 -170.2
8.68599500 0.013242 -170.4 0.999889 -80.21 0.999889 -80.21 0.013242 -170.2
8.68600000 0.013248 -170.4 0.999889 -80.21 0.999889 -80.21 0.013247 -170.2
8.68600500 0.013253 -170.4 0.999889 -80.21 0.999889 -80.21 0.013253 -170.2
8.68601000 0.013258 -170.4 0.999889 -80.21 0.999889 -80.21 0.013258 -170.2
8.68601500 0.013264 -170.4 0.999889 -80.22 0.999889 -80.22 0.013264 -170.2
8.68602000 0.013269 -170.4 0.999888 -80.22 0.999888 -80.22 0.013269 -170.2
8.68602500 0.013275 -170.4 0.999888 -80.22 0.999888 -80.22 0.013275 -170.2
8.68603000 0.013281 -170.4 0.999888 -80.22 0.999888 -80.22 0.013280 -170.2
8.68603500 0.013286 -170.4 0.999888 -80.22 0.999888 -80.22 0.013286 -170.2
8.68604000 0.013292 -170.4 0.999888 -80.22 0.999888 -80.22 0.013291 -170.2
8.68604500 0.013297 -170.4 0.999888 -80.22 0.999888 -80.22 0.013297 -170.2
8.68605000 0.013303 -170.4 0.999888 -80.22 0.999888 -80.22 0.013302 -170.2
8.68605500 0.013308 -170.4 0.999888 -80.22 0.999888 -80.22 0.013308 -170.2
8.68606000 0.013314 -170.4 0.999888 -80.22 0.999888 -80.22 0.013314 -170.3
8.68606500 0.013319 -170.4 0.999888 -80.22 0.999888 -80.22 0.013319 -170.3
8.68607000 0.013325 -170.4 0.999887 -80.22 0.999887 -80.22 0.013325 -170.3
8.68607500 0.013330 -170.4 0.999887 -80.22 0.999887 -80.22 0.013330 -170.3
8.68608000 0.013336 -170.4 0.999887 -80.22 0.999887 -80.22 0.013336 -170.3
8.68608500 0.013342 -170.4 0.999887 -80.22 0.999887 -80.22 0.013341 -170.3
8.68609000 0.013347 -170.4 0.999887 -80.22 0.999887 -80.22 0.013347 -170.3
8.68609500 0.013353 -170.4 0.999887 -80.22 0.999887 -80.22 0.013353 -170.3
8.68610000 0.013359 -170.4 0.999887 -80.22 0.999887 -80.22 0.013358 -170.3
8.68610500 0.013364 -170.4 0.999887 -80.22 0.999887 -80.22 0.013364 -170.3
8.68611000 0.013370 -170.4 0.999887 -80.22 0.999887 -80.22 0.013370 -170.3
8.68611500 0.013375 -170.4 0.999887 -80.22 0.999887 -80.22 0.013375 -170.3
8.68612000 0.013381 -170.4 0.999886 -80.22 0.999886 -80.22 0.013381 -170.3
8.68612500 0.013387 -170.4 0.999886 -80.22 0.999886 -80.22 0.013386 -170.3
8.68613000 0.013392 -170.4 0.999886 -80.22 0.999886 -80.22 0.013392 -170.3
8.68613500 0.013398 -170.4 0.999886 -80.22 0.999886 -80.22 0.013398 -170.3
8.68614000 0.013404 -170.4 0.999886 -80.22 0.999886 -80.22 0.013403 -170.3
8.68614500 0.013409 -170.4 0.999886 -80.22 0.999886 -80.22 0.013409 -170.3
8.68615000 0.013415 -170.4 0.999886 -80.23 0.999886 -80.23 0.013415 -170.3
8.68615500 0.013421 -170.4 0.999886 -80.23 0.999886 -80.23 0.013421 -170.3
8.68616000 0.013427 -170.4 0.999886 -80.23 0.999886 -80.23 0.013426 -170.3
8.68616500 0.013432 -170.4 0.999886 -80.23 0.999886 -80.23 0.013432 -170.3
8.68617000 0.013438 -170.4 0.999885 -80.23 0.999885 -80.23 0.013438 -170.3
8.68617500 0.013444 -170.4 0.999885 -80.23 0.999885 -80.23 0.013443 -170.3
8.68618000 0.013449 -170.4 0.999885 -80.23 0.999885 -80.23 0.013449 -170.3
8.68618500 0.013455 -170.4 0.999885 -80.23 0.999885 -80.23 0.013455 -170.3
8.68619000 0.013461 -170.4 0.999885 -80.23 0.999885 -80.23 0.013461 -170.3
8.68619500 0.013467 -170.4 0.999885 -80.23 0.999885 -80.23 0.013466 -170.3
8.68620000 0.013472 -170.4 0.999885 -80.23 0.999885 -80.23 0.013472 -170.3
8.68620500 0.013478 -170.4 0.999885 -80.23 0.999885 -80.23 0.013478 -170.3
8.68621000 0.013484 -170.4 0.999885 -80.23 0.999885 -80.23 0.013484 -170.3
8.68621500 0.013490 -170.4 0.999884 -80.23 0.999884 -80.23 0.013490 -170.3
8.68622000 0.013496 -170.4 0.999884 -80.23 0.999884 -80.23 0.013495 -170.3
8.68622500 0.013501 -170.4 0.999884 -80.23 0.999884 -80.23 0.013501 -170.3
8.68623000 0.013507 -170.4 0.999884 -80.23 0.999884 -80.23 0.013507 -170.3
8.68623500 0.013513 -170.4 0.999884 -80.23 0.999884 -80.23 0.013513 -170.3
8.68624000 0.013519 -170.4 0.999884 -80.23 0.999884 -80.23 0.013519 -170.3
8.68624500 0.013525 -170.4 0.999884 -80.23 0.999884 -80.23 0.013525 -170.3
8.68625000 0.013531 -170.4 0.999884 -80.23 0.999884 -80.23 0.013530 -170.3
8.68625500 0.013536 -170.4 0.999884 -80.23 0.999884 -80.23 0.013536 -170.3
8.68626000 0.013542 -170.4 0.999884 -80.23 0.999884 -80.23 0.013542 -170.3
8.68626500 0.013548 -170.4 0.999883 -80.23 0.999883 -80.23 0.013548 -170.3
8.68627000 0.013554 -170.4 0.999883 -80.23 0.999883 -80.23 0.013554 -170.3
8.68627500 0.013560 -170.4 0.999883 -80.23 0.999883 -80.23 0.013560 -170.3
8.68628000 0.013566 -170.4 0.999883 -80.24 0.999883 -80.24 0.013566 -170.3
8.68628500 0.013572 -170.4 0.999883 -80.24 0.999883 -80.24 0.013572 -170.3
8.68629000 0.013578 -170.4 0.999883 -80.24 0.999883 -80.24 0.013577 -170.3
8.68629500 0.013584 -170.4 0.999883 -80.24 0.999883 -80.24 0.013583 -170.3
8.68630000 0.013590 -170.4 0.999883 -80.24 0.999883 -80.24 0.013589 -170.3
8.68630500 0.013595 -170.4 0.999883 -80.24 0.999883 -80.24 0.013595 -170.3
8.68631000 0.013601 -170.4 0.999882 -80.24 0.999882 -80.24 0.013601 -170.3
8.68631500 0.013607 -170.4 0.999882 -80.24 0.999882 -80.24 0.013607 -170.3
8.68632000 0.013613 -170.4 0.999882 -80.24 0.999882 -80.24 0.013613 -170.3
8.68632500 0.013619 -170.4 0.999882 -80.24 0.999882 -80.24 0.013619 -170.3
8.68633000 0.013625 -170.4 0.999882 -80.24 0.999882 -80.24 0.013625 -170.3
8.68633500 0.013631 -170.4 0.999882 -80.24 0.999882 -80.24 0.013631 -170.3
8.68634000 0.013637 -170.4 0.999882 -80.24 0.999882 -80.24 0.013637 -170.3
8.68634500 0.013643 -170.4 0.999882 -80.24 0.999882 -80.24 0.013643 -170.3
8.68635000 0.013649 -170.4 0.999882 -80.24 0.999882 -80.24 0.013649 -170.3
8.68635500 0.013655 -170.4 0.999881 -80.24 0.999881 -80.24 0.013655 -170.3
8.68636000 0.013661 -170.4 0.999881 -80.24 0.999881 -80.24 0.013661 -170.3
8.68636500 0.013667 -170.4 0.999881 -80.24 0.999881 -80.24 0.013667 -170.3
8.68637000 0.013673 -170.4 0.999881 -80.24 0.999881 -80.24 0.013673 -170.3
8.68637500 0.013679 -170.4 0.999881 -80.24 0.999881 -80.24 0.013679 -170.3
8.68638000 0.013685 -170.4 0.999881 -80.24 0.999881 -80.24 0.013685 -170.3
8.68638500 0.013692 -170.4 0.999881 -80.24 0.999881 -80.24 0.013691 -170.3
8.68639000 0.013698 -170.4 0.999881 -80.24 0.999881 -80.24 0.013697 -170.3
8.68639500 0.013704 -170.4 0.999880 -80.24 0.999880 -80.24 0.013703 -170.3
8.68640000 0.013710 -170.4 0.999880 -80.24 0.999880 -80.24 0.013710 -170.3
8.68640500 0.013716 -170.4 0.999880 -80.24 0.999880 -80.24 0.013716 -170.3
8.68641000 0.013722 -170.4 0.999880 -80.25 0.999880 -80.25 0.013722 -170.3
8.68641500 0.013728 -170.4 0.999880 -80.25 0.999880 -80.25 0.013728 -170.3
8.68642000 0.013734 -170.4 0.999880 -80.25 0.999880 -80.25 0.013734 -170.3
8.68642500 0.013740 -170.4 0.999880 -80.25 0.999880 -80.25 0.013740 -170.3
8.68643000 0.013747 -170.4 0.999880 -80.25 0.999880 -80.25 0.013746 -170.3
8.68643500 0.013753 -170.4 0.999880 -80.25 0.999880 -80.25 0.013752 -170.3
8.68644000 0.013759 -170.4 0.999879 -80.25 0.999879 -80.25 0.013759 -170.3
8.68644500 0.013765 -170.4 0.999879 -80.25 0.999879 -80.25 0.013765 -170.3
8.68645000 0.013771 -170.4 0.999879 -80.25 0.999879 -80.25 0.013771 -170.3
8.68645500 0.013777 -170.4 0.999879 -80.25 0.999879 -80.25 0.013777 -170.3
8.68646000 0.013784 -170.4 0.999879 -80.25 0.999879 -80.25 0.013783 -170.3
8.68646500 0.013790 -170.4 0.999879 -80.25 0.999879 -80.25 0.013789 -170.3
8.68647000 0.013796 -170.4 0.999879 -80.25 0.999879 -80.25 0.013796 -170.3
8.68647500 0.013802 -170.4 0.999879 -80.25 0.999879 -80.25 0.013802 -170.3
8.68648000 0.013808 -170.4 0.999879 -80.25 0.999879 -80.25 0.013808 -170.3
8.68648500 0.013815 -170.4 0.999878 -80.25 0.999878 -80.25 0.013814 -170.3
8.68649000 0.013821 -170.4 0.999878 -80.25 0.999878 -80.25 0.013821 -170.3
8.68649500 0.013827 -170.4 0.999878 -80.25 0.999878 -80.25 0.013827 -170.3
8.68650000 0.013833 -170.4 0.999878 -80.25 0.999878 -80.25 0.013833 -170.3
8.68650500 0.013840 -170.4 0.999878 -80.25 0.999878 -80.25 0.013839 -170.3
8.68651000 0.013846 -170.4 0.999878 -80.25 0.999878 -80.25 0.013846 -170.3
8.68651500 0.013852 -170.4 0.999878 -80.25 0.999878 -80.25 0.013852 -170.3
8.68652000 0.013859 -170.4 0.999878 -80.25 0.999878 -80.25 0.013858 -170.3
8.68652500 0.013865 -170.4 0.999877 -80.25 0.999877 -80.25 0.013865 -170.3
8.68653000 0.013871 -170.4 0.999877 -80.25 0.999877 -80.25 0.013871 -170.3
8.68653500 0.013877 -170.4 0.999877 -80.26 0.999877 -80.26 0.013877 -170.3
8.68654000 0.013884 -170.4 0.999877 -80.26 0.999877 -80.26 0.013884 -170.3
8.68654500 0.013890 -170.4 0.999877 -80.26 0.999877 -80.26 0.013890 -170.3
8.68655000 0.013897 -170.4 0.999877 -80.26 0.999877 -80.26 0.013896 -170.3
8.68655500 0.013903 -170.4 0.999877 -80.26 0.999877 -80.26 0.013903 -170.3
8.68656000 0.013909 -170.4 0.999877 -80.26 0.999877 -80.26 0.013909 -170.3
8.68656500 0.013916 -170.4 0.999876 -80.26 0.999876 -80.26 0.013915 -170.3
8.68657000 0.013922 -170.4 0.999876 -80.26 0.999876 -80.26 0.013922 -170.3
8.68657500 0.013928 -170.4 0.999876 -80.26 0.999876 -80.26 0.013928 -170.3
8.68658000 0.013935 -170.4 0.999876 -80.26 0.999876 -80.26 0.013935 -170.3
8.68658500 0.013941 -170.4 0.999876 -80.26 0.999876 -80.26 0.013941 -170.3
8.68659000 0.013948 -170.4 0.999876 -80.26 0.999876 -80.26 0.013947 -170.3
8.68659500 0.013954 -170.4 0.999876 -80.26 0.999876 -80.26 0.013954 -170.3
8.68660000 0.013961 -170.4 0.999876 -80.26 0.999876 -80.26 0.013960 -170.3
8.68660500 0.013967 -170.4 0.999875 -80.26 0.999875 -80.26 0.013967 -170.3
8.68661000 0.013973 -170.4 0.999875 -80.26 0.999875 -80.26 0.013973 -170.3
8.68661500 0.013980 -170.4 0.999875 -80.26 0.999875 -80.26 0.013980 -170.3
8.68662000 0.013986 -170.4 0.999875 -80.26 0.999875 -80.26 0.013986 -170.3
8.68662500 0.013993 -170.4 0.999875 -80.26 0.999875 -80.26 0.013993 -170.3
8.68663000 0.013999 -170.4 0.999875 -80.26 0.999875 -80.26 0.013999 -170.3
8.68663500 0.014006 -170.4 0.999875 -80.26 0.999875 -80.26 0.014006 -170.3
8.68664000 0.014012 -170.4 0.999875 -80.26 0.999875 -80.26 0.014012 -170.3
8.68664500 0.014019 -170.4 0.999875 -80.26 0.999875 -80.26 0.014019 -170.3
8.68665000 0.014025 -170.4 0.999874 -80.26 0.999874 -80.26 0.014025 -170.3
8.68665500 0.014032 -170.4 0.999874 -80.27 0.999874 -80.27 0.014032 -170.3
8.68666000 0.014039 -170.4 0.999874 -80.27 0.999874 -80.27 0.014038 -170.3
8.68666500 0.014045 -170.4 0.999874 -80.27 0.999874 -80.27 0.014045 -170.3
8.68667000 0.014052 -170.4 0.999874 -80.27 0.999874 -80.27 0.014051 -170.3
8.68667500 0.014058 -170.4 0.999874 -80.27 0.999874 -80.27 0.014058 -170.3
8.68668000 0.014065 -170.4 0.999874 -80.27 0.999874 -80.27 0.014065 -170.3
8.68668500 0.014071 -170.4 0.999873 -80.27 0.999873 -80.27 0.014071 -170.3
8.68669000 0.014078 -170.4 0.999873 -80.27 0.999873 -80.27 0.014078 -170.3
8.68669500 0.014085 -170.4 0.999873 -80.27 0.999873 -80.27 0.014084 -170.3
8.68670000 0.014091 -170.4 0.999873 -80.27 0.999873 -80.27 0.014091 -170.3
8.68670500 0.014098 -170.4 0.999873 -80.27 0.999873 -80.27 0.014098 -170.3
8.68671000 0.014105 -170.4 0.999873 -80.27 0.999873 -80.27 0.014104 -170.3
8.68671500 0.014111 -170.4 0.999873 -80.27 0.999873 -80.27 0.014111 -170.3
8.68672000 0.014118 -170.4 0.999873 -80.27 0.999873 -80.27 0.014118 -170.3
8.68672500 0.014125 -170.4 0.999872 -80.27 0.999872 -80.27 0.014124 -170.3
8.68673000 0.014131 -170.4 0.999872 -80.27 0.999872 -80.27 0.014131 -170.3
8.68673500 0.014138 -170.4 0.999872 -80.27 0.999872 -80.27 0.014138 -170.3
8.68674000 0.014145 -170.4 0.999872 -80.27 0.999872 -80.27 0.014144 -170.3
8.68674500 0.014151 -170.4 0.999872 -80.27 0.999872 -80.27 0.014151 -170.3
8.68675000 0.014158 -170.4 0.999872 -80.27 0.999872 -80.27 0.014158 -170.3
8.68675500 0.014165 -170.4 0.999872 -80.27 0.999872 -80.27 0.014165 -170.3
8.68676000 0.014172 -170.4 0.999872 -80.27 0.999872 -80.27 0.014171 -170.3
8.68676500 0.014178 -170.4 0.999871 -80.27 0.999871 -80.27 0.014178 -170.3
8.68677000 0.014185 -170.4 0.999871 -80.27 0.999871 -80.27 0.014185 -170.3
8.68677500 0.014192 -170.4 0.999871 -80.28 0.999871 -80.28 0.014192 -170.3
8.68678000 0.014199 -170.4 0.999871 -80.28 0.999871 -80.28 0.014198 -170.3
8.68678500 0.014205 -170.4 0.999871 -80.28 0.999871 -80.28 0.014205 -170.3
8.68679000 0.014212 -170.4 0.999871 -80.28 0.999871 -80.28 0.014212 -170.3
8.68679500 0.014219 -170.4 0.999871 -80.28 0.999871 -80.28 0.014219 -170.3
8.68680000 0.014226 -170.4 0.999870 -80.28 0.999870 -80.28 0.014226 -170.3
8.68680500 0.014233 -170.4 0.999870 -80.28 0.999870 -80.28 0.014232 -170.3
8.68681000 0.014240 -170.4 0.999870 -80.28 0.999870 -80.28 0.014239 -170.3
8.68681500 0.014246 -170.4 0.999870 -80.28 0.999870 -80.28 0.014246 -170.3
8.68682000 0.014253 -170.4 0.999870 -80.28 0.999870 -80.28 0.014253 -170.3
8.68682500 0.014260 -170.4 0.999870 -80.28 0.999870 -80.28 0.014260 -170.3
8.68683000 0.014267 -170.4 0.999870 -80.28 0.999870 -80.28 0.014267 -170.3
8.68683500 0.014274 -170.4 0.999870 -80.28 0.999870 -80.28 0.014274 -170.3
8.68684000 0.014281 -170.4 0.999869 -80.28 0.999869 -80.28 0.014280 -170.3
8.68684500 0.014288 -170.4 0.999869 -80.28 0.999869 -80.28 0.014287 -170.3
8.68685000 0.014295 -170.4 0.999869 -80.28 0.999869 -80.28 0.014294 -170.4
8.68685500 0.014302 -170.4 0.999869 -80.28 0.999869 -80.28 0.014301 -170.4
8.68686000 0.014308 -170.4 0.999869 -80.28 0.999869 -80.28 0.014308 -170.4
8.68686500 0.014315 -170.4 0.999869 -80.28 0.999869 -80.28 0.014315 -170.4
8.68687000 0.014322 -170.4 0.999869 -80.28 0.999869 -80.28 0.014322 -170.4
8.68687500 0.014329 -170.4 0.999868 -80.28 0.999868 -80.28 0.014329 -170.4
8.68688000 0.014336 -170.4 0.999868 -80.28 0.999868 -80.28 0.014336 -170.4
8.68688500 0.014343 -170.4 0.999868 -80.29 0.999868 -80.29 0.014343 -170.4
8.68689000 0.014350 -170.4 0.999868 -80.29 0.999868 -80.29 0.014350 -170.4
8.68689500 0.014357 -170.4 0.999868 -80.29 0.999868 -80.29 0.014357 -170.4
8.68690000 0.014364 -170.4 0.999868 -80.29 0.999868 -80.29 0.014364 -170.4
8.68690500 0.014371 -170.4 0.999868 -80.29 0.999868 -80.29 0.014371 -170.4
8.68691000 0.014378 -170.4 0.999867 -80.29 0.999867 -80.29 0.014378 -170.4
8.68691500 0.014386 -170.4 0.999867 -80.29 0.999867 -80.29 0.014385 -170.4
8.68692000 0.014393 -170.4 0.999867 -80.29 0.999867 -80.29 0.014392 -170.4
8.68692500 0.014400 -170.4 0.999867 -80.29 0.999867 -80.29 0.014399 -170.4
8.68693000 0.014407 -170.4 0.999867 -80.29 0.999867 -80.29 0.014406 -170.4
8.68693500 0.014414 -170.4 0.999867 -80.29 0.999867 -80.29 0.014414 -170.4
8.68694000 0.014421 -170.4 0.999867 -80.29 0.999867 -80.29 0.014421 -170.4
8.68694500 0.014428 -170.4 0.999866 -80.29 0.999866 -80.29 0.014428 -170.4
8.68695000 0.014435 -170.4 0.999866 -80.29 0.999866 -80.29 0.014435 -170.4
8.68695500 0.014442 -170.4 0.999866 -80.29 0.999866 -80.29 0.014442 -170.4