! Sonnet Data File
! From: emgraph Version : 16.52
! From Project: Qubit_Xmon2_brg_para
! Data is De-embedded 
! Data File Written: 11/12/2017 19:09:19
!< HDATE 11/12/2017 17:12:30
!< MDATE 11/12/2017 17:12:30
!< PARAMS
!< Lj = 11.0
!< Gap = 6.0
!< Pwid = 2000.0
!< Airgap = 6.0
!< Width = 10.0
!< Bwid = 8.0
!< Dis1 = 750.0
!< Dis2 = 756.0
!< END PARAMS
# GHZ S MA R 51.80000
8.76000000 0.006948 -169.8 0.999970 -80.60 0.999970 -80.60 0.006948 -171.4
!< P1 F=8.76 Eeff=(6.44679139 -2.9786e-5) Z0=(51.7991425 1.19067e-4) R=0.0 C=0.0 
!< P2 F=8.76 Eeff=(6.44679139 -2.9786e-5) Z0=(51.7991425 1.19067e-4) R=0.0 C=0.0 
8.76002000 0.006951 -169.8 0.999970 -80.60 0.999970 -80.60 0.006951 -171.4
8.76004000 0.006954 -169.8 0.999970 -80.60 0.999970 -80.60 0.006954 -171.4
8.76006000 0.006957 -169.8 0.999970 -80.60 0.999970 -80.60 0.006957 -171.4
8.76008000 0.006960 -169.8 0.999970 -80.60 0.999970 -80.60 0.006960 -171.4
8.76010000 0.006963 -169.8 0.999970 -80.60 0.999970 -80.60 0.006963 -171.4
8.76012000 0.006966 -169.8 0.999970 -80.60 0.999970 -80.60 0.006966 -171.4
8.76014000 0.006969 -169.8 0.999970 -80.60 0.999970 -80.60 0.006969 -171.4
8.76016000 0.006972 -169.8 0.999970 -80.60 0.999970 -80.60 0.006972 -171.4
8.76018000 0.006975 -169.8 0.999970 -80.60 0.999970 -80.60 0.006975 -171.4
8.76020000 0.006978 -169.8 0.999970 -80.60 0.999970 -80.60 0.006978 -171.4
8.76022000 0.006981 -169.8 0.999970 -80.60 0.999970 -80.60 0.006981 -171.4
8.76024000 0.006985 -169.8 0.999970 -80.60 0.999970 -80.60 0.006985 -171.4
8.76026000 0.006988 -169.8 0.999970 -80.60 0.999970 -80.60 0.006988 -171.4
8.76028000 0.006991 -169.8 0.999970 -80.60 0.999970 -80.60 0.006991 -171.4
8.76030000 0.006994 -169.8 0.999969 -80.60 0.999969 -80.60 0.006994 -171.4
8.76032000 0.006997 -169.8 0.999969 -80.60 0.999969 -80.60 0.006997 -171.4
8.76034000 0.007000 -169.8 0.999969 -80.60 0.999969 -80.60 0.007000 -171.4
8.76036000 0.007003 -169.8 0.999969 -80.60 0.999969 -80.60 0.007003 -171.4
8.76038000 0.007006 -169.8 0.999969 -80.60 0.999969 -80.60 0.007006 -171.4
8.76040000 0.007009 -169.8 0.999969 -80.60 0.999969 -80.60 0.007009 -171.4
8.76042000 0.007012 -169.8 0.999969 -80.60 0.999969 -80.60 0.007012 -171.4
8.76044000 0.007015 -169.8 0.999969 -80.60 0.999969 -80.60 0.007015 -171.4
8.76046000 0.007019 -169.8 0.999969 -80.61 0.999969 -80.61 0.007018 -171.4
8.76048000 0.007022 -169.8 0.999969 -80.61 0.999969 -80.61 0.007022 -171.4
8.76050000 0.007025 -169.8 0.999969 -80.61 0.999969 -80.61 0.007025 -171.4
8.76052000 0.007028 -169.8 0.999969 -80.61 0.999969 -80.61 0.007028 -171.4
8.76054000 0.007031 -169.8 0.999969 -80.61 0.999969 -80.61 0.007031 -171.4
8.76056000 0.007034 -169.8 0.999969 -80.61 0.999969 -80.61 0.007034 -171.4
8.76058000 0.007037 -169.8 0.999969 -80.61 0.999969 -80.61 0.007037 -171.4
8.76060000 0.007041 -169.8 0.999969 -80.61 0.999969 -80.61 0.007041 -171.4
8.76062000 0.007044 -169.8 0.999969 -80.61 0.999969 -80.61 0.007044 -171.5
8.76064000 0.007047 -169.8 0.999969 -80.61 0.999969 -80.61 0.007047 -171.5
8.76066000 0.007050 -169.8 0.999969 -80.61 0.999969 -80.61 0.007050 -171.5
8.76068000 0.007053 -169.9 0.999969 -80.61 0.999969 -80.61 0.007053 -171.5
8.76070000 0.007056 -169.9 0.999969 -80.61 0.999969 -80.61 0.007056 -171.5
8.76072000 0.007060 -169.9 0.999969 -80.61 0.999969 -80.61 0.007060 -171.5
8.76074000 0.007063 -169.9 0.999969 -80.61 0.999969 -80.61 0.007063 -171.5
8.76076000 0.007066 -169.9 0.999969 -80.61 0.999969 -80.61 0.007066 -171.5
8.76078000 0.007069 -169.9 0.999969 -80.61 0.999969 -80.61 0.007069 -171.5
8.76080000 0.007072 -169.9 0.999969 -80.61 0.999969 -80.61 0.007072 -171.5
8.76082000 0.007076 -169.9 0.999969 -80.61 0.999969 -80.61 0.007076 -171.5
8.76084000 0.007079 -169.9 0.999969 -80.61 0.999969 -80.61 0.007079 -171.5
8.76086000 0.007082 -169.9 0.999969 -80.61 0.999969 -80.61 0.007082 -171.5
8.76088000 0.007085 -169.9 0.999969 -80.61 0.999969 -80.61 0.007085 -171.5
8.76090000 0.007089 -169.9 0.999969 -80.61 0.999969 -80.61 0.007089 -171.5
8.76092000 0.007092 -169.9 0.999969 -80.61 0.999969 -80.61 0.007092 -171.5
8.76094000 0.007095 -169.9 0.999969 -80.61 0.999969 -80.61 0.007095 -171.5
8.76096000 0.007098 -169.9 0.999969 -80.61 0.999969 -80.61 0.007098 -171.5
8.76098000 0.007102 -169.9 0.999969 -80.61 0.999969 -80.61 0.007102 -171.5
8.76100000 0.007105 -169.9 0.999968 -80.62 0.999968 -80.62 0.007105 -171.5
8.76102000 0.007108 -169.9 0.999968 -80.62 0.999968 -80.62 0.007108 -171.5
8.76104000 0.007112 -169.9 0.999968 -80.62 0.999968 -80.62 0.007112 -171.5
8.76106000 0.007115 -169.9 0.999968 -80.62 0.999968 -80.62 0.007115 -171.5
8.76108000 0.007118 -169.9 0.999968 -80.62 0.999968 -80.62 0.007118 -171.5
8.76110000 0.007122 -169.9 0.999968 -80.62 0.999968 -80.62 0.007122 -171.5
8.76112000 0.007125 -169.9 0.999968 -80.62 0.999968 -80.62 0.007125 -171.5
8.76114000 0.007128 -169.9 0.999968 -80.62 0.999968 -80.62 0.007128 -171.5
8.76116000 0.007132 -169.9 0.999968 -80.62 0.999968 -80.62 0.007132 -171.5
8.76118000 0.007135 -169.9 0.999968 -80.62 0.999968 -80.62 0.007135 -171.5
8.76120000 0.007138 -169.9 0.999968 -80.62 0.999968 -80.62 0.007138 -171.5
8.76122000 0.007142 -169.9 0.999968 -80.62 0.999968 -80.62 0.007142 -171.5
8.76124000 0.007145 -169.9 0.999968 -80.62 0.999968 -80.62 0.007145 -171.5
8.76126000 0.007148 -169.9 0.999968 -80.62 0.999968 -80.62 0.007148 -171.5
8.76128000 0.007152 -169.9 0.999968 -80.62 0.999968 -80.62 0.007152 -171.5
8.76130000 0.007155 -169.9 0.999968 -80.62 0.999968 -80.62 0.007155 -171.5
8.76132000 0.007159 -169.9 0.999968 -80.62 0.999968 -80.62 0.007158 -171.5
8.76134000 0.007162 -169.9 0.999968 -80.62 0.999968 -80.62 0.007162 -171.5
8.76136000 0.007165 -169.9 0.999968 -80.62 0.999968 -80.62 0.007165 -171.5
8.76138000 0.007169 -169.9 0.999968 -80.62 0.999968 -80.62 0.007169 -171.5
8.76140000 0.007172 -169.9 0.999968 -80.62 0.999968 -80.62 0.007172 -171.5
8.76142000 0.007176 -169.9 0.999968 -80.62 0.999968 -80.62 0.007176 -171.5
8.76144000 0.007179 -169.9 0.999968 -80.62 0.999968 -80.62 0.007179 -171.5
8.76146000 0.007182 -169.9 0.999968 -80.62 0.999968 -80.62 0.007182 -171.5
8.76148000 0.007186 -169.9 0.999968 -80.62 0.999968 -80.62 0.007186 -171.5
8.76150000 0.007189 -169.9 0.999968 -80.62 0.999968 -80.62 0.007189 -171.5
8.76152000 0.007193 -169.9 0.999968 -80.62 0.999968 -80.62 0.007193 -171.5
8.76154000 0.007196 -169.9 0.999968 -80.63 0.999968 -80.63 0.007196 -171.5
8.76156000 0.007200 -169.9 0.999968 -80.63 0.999968 -80.63 0.007200 -171.5
8.76158000 0.007203 -169.9 0.999968 -80.63 0.999968 -80.63 0.007203 -171.5
8.76160000 0.007207 -169.9 0.999968 -80.63 0.999968 -80.63 0.007207 -171.5
8.76162000 0.007210 -169.9 0.999968 -80.63 0.999968 -80.63 0.007210 -171.5
8.76164000 0.007214 -169.9 0.999968 -80.63 0.999968 -80.63 0.007214 -171.5
8.76166000 0.007217 -169.9 0.999967 -80.63 0.999967 -80.63 0.007217 -171.5
8.76168000 0.007221 -169.9 0.999967 -80.63 0.999967 -80.63 0.007221 -171.5
8.76170000 0.007224 -169.9 0.999967 -80.63 0.999967 -80.63 0.007224 -171.5
8.76172000 0.007228 -169.9 0.999967 -80.63 0.999967 -80.63 0.007228 -171.5
8.76174000 0.007231 -169.9 0.999967 -80.63 0.999967 -80.63 0.007231 -171.5
8.76176000 0.007235 -169.9 0.999967 -80.63 0.999967 -80.63 0.007235 -171.5
8.76178000 0.007238 -169.9 0.999967 -80.63 0.999967 -80.63 0.007238 -171.5
8.76180000 0.007242 -169.9 0.999967 -80.63 0.999967 -80.63 0.007242 -171.5
8.76182000 0.007246 -169.9 0.999967 -80.63 0.999967 -80.63 0.007245 -171.5
8.76184000 0.007249 -169.9 0.999967 -80.63 0.999967 -80.63 0.007249 -171.5
8.76186000 0.007253 -169.9 0.999967 -80.63 0.999967 -80.63 0.007253 -171.5
8.76188000 0.007256 -169.9 0.999967 -80.63 0.999967 -80.63 0.007256 -171.5
8.76190000 0.007260 -169.9 0.999967 -80.63 0.999967 -80.63 0.007260 -171.5
8.76192000 0.007263 -169.9 0.999967 -80.63 0.999967 -80.63 0.007263 -171.5
8.76194000 0.007267 -169.9 0.999967 -80.63 0.999967 -80.63 0.007267 -171.5
8.76196000 0.007271 -169.9 0.999967 -80.63 0.999967 -80.63 0.007271 -171.5
8.76198000 0.007274 -169.9 0.999967 -80.63 0.999967 -80.63 0.007274 -171.5
8.76200000 0.007278 -169.9 0.999967 -80.63 0.999967 -80.63 0.007278 -171.5
8.76202000 0.007282 -169.9 0.999967 -80.63 0.999967 -80.63 0.007282 -171.5
8.76204000 0.007285 -169.9 0.999967 -80.63 0.999967 -80.63 0.007285 -171.5
8.76206000 0.007289 -169.9 0.999967 -80.64 0.999967 -80.64 0.007289 -171.5
8.76208000 0.007293 -169.9 0.999967 -80.64 0.999967 -80.64 0.007293 -171.5
8.76210000 0.007296 -169.9 0.999967 -80.64 0.999967 -80.64 0.007296 -171.5
8.76212000 0.007300 -169.9 0.999967 -80.64 0.999967 -80.64 0.007300 -171.5
8.76214000 0.007304 -169.9 0.999967 -80.64 0.999967 -80.64 0.007304 -171.5
8.76216000 0.007307 -169.9 0.999967 -80.64 0.999967 -80.64 0.007307 -171.5
8.76218000 0.007311 -169.9 0.999967 -80.64 0.999967 -80.64 0.007311 -171.5
8.76220000 0.007315 -169.9 0.999967 -80.64 0.999967 -80.64 0.007315 -171.5
8.76222000 0.007318 -169.9 0.999967 -80.64 0.999967 -80.64 0.007318 -171.5
8.76224000 0.007322 -169.9 0.999967 -80.64 0.999967 -80.64 0.007322 -171.5
8.76226000 0.007326 -169.9 0.999966 -80.64 0.999966 -80.64 0.007326 -171.5
8.76228000 0.007330 -169.9 0.999966 -80.64 0.999966 -80.64 0.007330 -171.5
8.76230000 0.007333 -169.9 0.999966 -80.64 0.999966 -80.64 0.007333 -171.5
8.76232000 0.007337 -169.9 0.999966 -80.64 0.999966 -80.64 0.007337 -171.5
8.76234000 0.007341 -169.9 0.999966 -80.64 0.999966 -80.64 0.007341 -171.5
8.76236000 0.007345 -169.9 0.999966 -80.64 0.999966 -80.64 0.007345 -171.5
8.76238000 0.007348 -169.9 0.999966 -80.64 0.999966 -80.64 0.007348 -171.5
8.76240000 0.007352 -169.9 0.999966 -80.64 0.999966 -80.64 0.007352 -171.5
8.76242000 0.007356 -169.9 0.999966 -80.64 0.999966 -80.64 0.007356 -171.5
8.76244000 0.007360 -169.9 0.999966 -80.64 0.999966 -80.64 0.007360 -171.5
8.76246000 0.007364 -169.9 0.999966 -80.64 0.999966 -80.64 0.007364 -171.5
8.76248000 0.007367 -169.9 0.999966 -80.64 0.999966 -80.64 0.007367 -171.5
8.76250000 0.007371 -169.9 0.999966 -80.64 0.999966 -80.64 0.007371 -171.5
8.76252000 0.007375 -169.9 0.999966 -80.64 0.999966 -80.64 0.007375 -171.5
8.76254000 0.007379 -169.9 0.999966 -80.64 0.999966 -80.64 0.007379 -171.5
8.76256000 0.007383 -169.9 0.999966 -80.65 0.999966 -80.65 0.007383 -171.5
8.76258000 0.007387 -169.9 0.999966 -80.65 0.999966 -80.65 0.007387 -171.5
8.76260000 0.007390 -169.9 0.999966 -80.65 0.999966 -80.65 0.007390 -171.5
8.76262000 0.007394 -169.9 0.999966 -80.65 0.999966 -80.65 0.007394 -171.5
8.76264000 0.007398 -169.9 0.999966 -80.65 0.999966 -80.65 0.007398 -171.5
8.76266000 0.007402 -169.9 0.999966 -80.65 0.999966 -80.65 0.007402 -171.5
8.76268000 0.007406 -169.9 0.999966 -80.65 0.999966 -80.65 0.007406 -171.5
8.76270000 0.007410 -169.9 0.999966 -80.65 0.999966 -80.65 0.007410 -171.5
8.76272000 0.007414 -169.9 0.999966 -80.65 0.999966 -80.65 0.007414 -171.5
8.76274000 0.007418 -169.9 0.999966 -80.65 0.999966 -80.65 0.007418 -171.5
8.76276000 0.007422 -169.9 0.999966 -80.65 0.999966 -80.65 0.007422 -171.5
8.76278000 0.007426 -169.9 0.999966 -80.65 0.999966 -80.65 0.007426 -171.5
8.76280000 0.007430 -169.9 0.999966 -80.65 0.999966 -80.65 0.007429 -171.5
8.76282000 0.007433 -169.9 0.999965 -80.65 0.999965 -80.65 0.007433 -171.5
8.76284000 0.007437 -169.9 0.999965 -80.65 0.999965 -80.65 0.007437 -171.5
8.76286000 0.007441 -169.9 0.999965 -80.65 0.999965 -80.65 0.007441 -171.5
8.76288000 0.007445 -169.9 0.999965 -80.65 0.999965 -80.65 0.007445 -171.5
8.76290000 0.007449 -169.9 0.999965 -80.65 0.999965 -80.65 0.007449 -171.5
8.76292000 0.007453 -169.9 0.999965 -80.65 0.999965 -80.65 0.007453 -171.5
8.76294000 0.007457 -169.9 0.999965 -80.65 0.999965 -80.65 0.007457 -171.5
8.76296000 0.007461 -169.9 0.999965 -80.65 0.999965 -80.65 0.007461 -171.5
8.76298000 0.007465 -169.9 0.999965 -80.65 0.999965 -80.65 0.007465 -171.5
8.76300000 0.007469 -169.9 0.999965 -80.65 0.999965 -80.65 0.007469 -171.5
8.76302000 0.007474 -169.9 0.999965 -80.65 0.999965 -80.65 0.007473 -171.5
8.76304000 0.007478 -169.9 0.999965 -80.66 0.999965 -80.66 0.007478 -171.5
8.76306000 0.007482 -169.9 0.999965 -80.66 0.999965 -80.66 0.007482 -171.5
8.76308000 0.007486 -169.9 0.999965 -80.66 0.999965 -80.66 0.007486 -171.5
8.76310000 0.007490 -169.9 0.999965 -80.66 0.999965 -80.66 0.007490 -171.5
8.76312000 0.007494 -169.9 0.999965 -80.66 0.999965 -80.66 0.007494 -171.5
8.76314000 0.007498 -169.9 0.999965 -80.66 0.999965 -80.66 0.007498 -171.5
8.76316000 0.007502 -169.9 0.999965 -80.66 0.999965 -80.66 0.007502 -171.5
8.76318000 0.007506 -169.9 0.999965 -80.66 0.999965 -80.66 0.007506 -171.5
8.76320000 0.007510 -169.9 0.999965 -80.66 0.999965 -80.66 0.007510 -171.5
8.76322000 0.007514 -169.9 0.999965 -80.66 0.999965 -80.66 0.007514 -171.6
8.76324000 0.007519 -169.9 0.999965 -80.66 0.999965 -80.66 0.007519 -171.6
8.76326000 0.007523 -169.9 0.999965 -80.66 0.999965 -80.66 0.007523 -171.6
8.76328000 0.007527 -169.9 0.999965 -80.66 0.999965 -80.66 0.007527 -171.6
8.76330000 0.007531 -169.9 0.999965 -80.66 0.999965 -80.66 0.007531 -171.6
8.76332000 0.007535 -169.9 0.999965 -80.66 0.999965 -80.66 0.007535 -171.6
8.76334000 0.007539 -169.9 0.999964 -80.66 0.999964 -80.66 0.007539 -171.6
8.76336000 0.007544 -169.9 0.999964 -80.66 0.999964 -80.66 0.007544 -171.6
8.76338000 0.007548 -169.9 0.999964 -80.66 0.999964 -80.66 0.007548 -171.6
8.76340000 0.007552 -169.9 0.999964 -80.66 0.999964 -80.66 0.007552 -171.6
8.76342000 0.007556 -169.9 0.999964 -80.66 0.999964 -80.66 0.007556 -171.6
8.76344000 0.007560 -169.9 0.999964 -80.66 0.999964 -80.66 0.007560 -171.6
8.76346000 0.007565 -169.9 0.999964 -80.66 0.999964 -80.66 0.007565 -171.6
8.76348000 0.007569 -169.9 0.999964 -80.66 0.999964 -80.66 0.007569 -171.6
8.76350000 0.007573 -169.9 0.999964 -80.66 0.999964 -80.66 0.007573 -171.6
8.76352000 0.007577 -169.9 0.999964 -80.67 0.999964 -80.67 0.007577 -171.6
8.76354000 0.007582 -169.9 0.999964 -80.67 0.999964 -80.67 0.007582 -171.6
8.76356000 0.007586 -169.9 0.999964 -80.67 0.999964 -80.67 0.007586 -171.6
8.76358000 0.007590 -169.9 0.999964 -80.67 0.999964 -80.67 0.007590 -171.6
8.76360000 0.007595 -169.9 0.999964 -80.67 0.999964 -80.67 0.007595 -171.6
8.76362000 0.007599 -169.9 0.999964 -80.67 0.999964 -80.67 0.007599 -171.6
8.76364000 0.007603 -169.9 0.999964 -80.67 0.999964 -80.67 0.007603 -171.6
8.76366000 0.007608 -169.9 0.999964 -80.67 0.999964 -80.67 0.007608 -171.6
8.76368000 0.007612 -169.9 0.999964 -80.67 0.999964 -80.67 0.007612 -171.6
8.76370000 0.007616 -169.9 0.999964 -80.67 0.999964 -80.67 0.007616 -171.6
8.76372000 0.007621 -169.9 0.999964 -80.67 0.999964 -80.67 0.007621 -171.6
8.76374000 0.007625 -169.9 0.999964 -80.67 0.999964 -80.67 0.007625 -171.6
8.76376000 0.007629 -169.9 0.999964 -80.67 0.999964 -80.67 0.007629 -171.6
8.76378000 0.007634 -169.9 0.999964 -80.67 0.999964 -80.67 0.007634 -171.6
8.76380000 0.007638 -169.9 0.999964 -80.67 0.999964 -80.67 0.007638 -171.6
8.76382000 0.007643 -169.9 0.999963 -80.67 0.999963 -80.67 0.007643 -171.6
8.76384000 0.007647 -169.9 0.999963 -80.67 0.999963 -80.67 0.007647 -171.6
8.76386000 0.007652 -169.9 0.999963 -80.67 0.999963 -80.67 0.007652 -171.6
8.76388000 0.007656 -169.9 0.999963 -80.67 0.999963 -80.67 0.007656 -171.6
8.76390000 0.007660 -169.9 0.999963 -80.67 0.999963 -80.67 0.007660 -171.6
8.76392000 0.007665 -169.9 0.999963 -80.67 0.999963 -80.67 0.007665 -171.6
8.76394000 0.007669 -169.9 0.999963 -80.67 0.999963 -80.67 0.007669 -171.6
8.76396000 0.007674 -169.9 0.999963 -80.67 0.999963 -80.67 0.007674 -171.6
8.76398000 0.007678 -169.9 0.999963 -80.68 0.999963 -80.68 0.007678 -171.6
8.76400000 0.007683 -169.9 0.999963 -80.68 0.999963 -80.68 0.007683 -171.6
8.76402000 0.007687 -169.9 0.999963 -80.68 0.999963 -80.68 0.007687 -171.6
8.76404000 0.007692 -169.9 0.999963 -80.68 0.999963 -80.68 0.007692 -171.6
8.76406000 0.007696 -169.9 0.999963 -80.68 0.999963 -80.68 0.007696 -171.6
8.76408000 0.007701 -169.9 0.999963 -80.68 0.999963 -80.68 0.007701 -171.6
8.76410000 0.007706 -169.9 0.999963 -80.68 0.999963 -80.68 0.007706 -171.6
8.76412000 0.007710 -169.9 0.999963 -80.68 0.999963 -80.68 0.007710 -171.6
8.76414000 0.007715 -169.9 0.999963 -80.68 0.999963 -80.68 0.007715 -171.6
8.76416000 0.007719 -169.9 0.999963 -80.68 0.999963 -80.68 0.007719 -171.6
8.76418000 0.007724 -169.9 0.999963 -80.68 0.999963 -80.68 0.007724 -171.6
8.76420000 0.007728 -169.9 0.999963 -80.68 0.999963 -80.68 0.007728 -171.6
8.76422000 0.007733 -169.9 0.999963 -80.68 0.999963 -80.68 0.007733 -171.6
8.76424000 0.007738 -169.9 0.999963 -80.68 0.999963 -80.68 0.007738 -171.6
8.76426000 0.007742 -169.9 0.999963 -80.68 0.999963 -80.68 0.007742 -171.6
8.76428000 0.007747 -169.9 0.999962 -80.68 0.999962 -80.68 0.007747 -171.6
8.76430000 0.007752 -169.9 0.999962 -80.68 0.999962 -80.68 0.007752 -171.6
8.76432000 0.007756 -169.9 0.999962 -80.68 0.999962 -80.68 0.007756 -171.6
8.76434000 0.007761 -169.9 0.999962 -80.68 0.999962 -80.68 0.007761 -171.6
8.76436000 0.007766 -169.9 0.999962 -80.68 0.999962 -80.68 0.007766 -171.6
8.76438000 0.007770 -169.9 0.999962 -80.68 0.999962 -80.68 0.007770 -171.6
8.76440000 0.007775 -169.9 0.999962 -80.68 0.999962 -80.68 0.007775 -171.6
8.76442000 0.007780 -169.9 0.999962 -80.69 0.999962 -80.69 0.007780 -171.6
8.76444000 0.007785 -169.9 0.999962 -80.69 0.999962 -80.69 0.007785 -171.6
8.76446000 0.007789 -169.9 0.999962 -80.69 0.999962 -80.69 0.007789 -171.6
8.76448000 0.007794 -169.9 0.999962 -80.69 0.999962 -80.69 0.007794 -171.6
8.76450000 0.007799 -169.9 0.999962 -80.69 0.999962 -80.69 0.007799 -171.6
8.76452000 0.007804 -169.9 0.999962 -80.69 0.999962 -80.69 0.007804 -171.6
8.76454000 0.007809 -169.9 0.999962 -80.69 0.999962 -80.69 0.007809 -171.6
8.76456000 0.007813 -169.9 0.999962 -80.69 0.999962 -80.69 0.007813 -171.6
8.76458000 0.007818 -169.9 0.999962 -80.69 0.999962 -80.69 0.007818 -171.6
8.76460000 0.007823 -169.9 0.999962 -80.69 0.999962 -80.69 0.007823 -171.6
8.76462000 0.007828 -169.9 0.999962 -80.69 0.999962 -80.69 0.007828 -171.6
8.76464000 0.007833 -169.9 0.999962 -80.69 0.999962 -80.69 0.007833 -171.6
8.76466000 0.007838 -169.9 0.999962 -80.69 0.999962 -80.69 0.007838 -171.6
8.76468000 0.007842 -169.9 0.999962 -80.69 0.999962 -80.69 0.007842 -171.6
8.76470000 0.007847 -169.9 0.999961 -80.69 0.999961 -80.69 0.007847 -171.6
8.76472000 0.007852 -169.9 0.999961 -80.69 0.999961 -80.69 0.007852 -171.6
8.76474000 0.007857 -169.9 0.999961 -80.69 0.999961 -80.69 0.007857 -171.6
8.76476000 0.007862 -169.9 0.999961 -80.69 0.999961 -80.69 0.007862 -171.6
8.76478000 0.007867 -169.9 0.999961 -80.69 0.999961 -80.69 0.007867 -171.6
8.76480000 0.007872 -169.9 0.999961 -80.69 0.999961 -80.69 0.007872 -171.6
8.76482000 0.007877 -169.9 0.999961 -80.69 0.999961 -80.69 0.007877 -171.6
8.76484000 0.007882 -169.9 0.999961 -80.69 0.999961 -80.69 0.007882 -171.6
8.76486000 0.007887 -169.9 0.999961 -80.70 0.999961 -80.70 0.007887 -171.6
8.76488000 0.007892 -169.9 0.999961 -80.70 0.999961 -80.70 0.007892 -171.6
8.76490000 0.007897 -169.9 0.999961 -80.70 0.999961 -80.70 0.007897 -171.6
8.76492000 0.007902 -169.9 0.999961 -80.70 0.999961 -80.70 0.007902 -171.6
8.76494000 0.007907 -169.9 0.999961 -80.70 0.999961 -80.70 0.007907 -171.6
8.76496000 0.007912 -169.9 0.999961 -80.70 0.999961 -80.70 0.007912 -171.6
8.76498000 0.007917 -169.9 0.999961 -80.70 0.999961 -80.70 0.007917 -171.6
8.76500000 0.007922 -169.9 0.999961 -80.70 0.999961 -80.70 0.007922 -171.6
8.76502000 0.007927 -169.9 0.999961 -80.70 0.999961 -80.70 0.007927 -171.6
8.76504000 0.007932 -169.9 0.999961 -80.70 0.999961 -80.70 0.007932 -171.6
8.76506000 0.007937 -169.9 0.999961 -80.70 0.999961 -80.70 0.007937 -171.6
8.76508000 0.007942 -169.9 0.999960 -80.70 0.999960 -80.70 0.007942 -171.6
8.76510000 0.007948 -169.9 0.999960 -80.70 0.999960 -80.70 0.007948 -171.6
8.76512000 0.007953 -169.9 0.999960 -80.70 0.999960 -80.70 0.007953 -171.6
8.76514000 0.007958 -169.9 0.999960 -80.70 0.999960 -80.70 0.007958 -171.6
8.76516000 0.007963 -169.9 0.999960 -80.70 0.999960 -80.70 0.007963 -171.6
8.76518000 0.007968 -169.9 0.999960 -80.70 0.999960 -80.70 0.007968 -171.6
8.76520000 0.007973 -169.9 0.999960 -80.70 0.999960 -80.70 0.007973 -171.6
8.76522000 0.007979 -169.9 0.999960 -80.70 0.999960 -80.70 0.007979 -171.6
8.76524000 0.007984 -169.9 0.999960 -80.70 0.999960 -80.70 0.007984 -171.6
8.76526000 0.007989 -169.9 0.999960 -80.70 0.999960 -80.70 0.007989 -171.6
8.76528000 0.007994 -169.9 0.999960 -80.71 0.999960 -80.71 0.007994 -171.6
8.76530000 0.008000 -169.9 0.999960 -80.71 0.999960 -80.71 0.008000 -171.6
8.76532000 0.008005 -169.9 0.999960 -80.71 0.999960 -80.71 0.008005 -171.6
8.76534000 0.008010 -169.9 0.999960 -80.71 0.999960 -80.71 0.008010 -171.6
8.76536000 0.008015 -169.9 0.999960 -80.71 0.999960 -80.71 0.008015 -171.6
8.76538000 0.008021 -169.9 0.999960 -80.71 0.999960 -80.71 0.008021 -171.6
8.76540000 0.008026 -169.9 0.999960 -80.71 0.999960 -80.71 0.008026 -171.6
8.76542000 0.008031 -169.9 0.999960 -80.71 0.999960 -80.71 0.008031 -171.6
8.76544000 0.008037 -169.9 0.999960 -80.71 0.999960 -80.71 0.008037 -171.6
8.76546000 0.008042 -169.9 0.999959 -80.71 0.999959 -80.71 0.008042 -171.7
8.76548000 0.008048 -169.9 0.999959 -80.71 0.999959 -80.71 0.008047 -171.7
8.76550000 0.008053 -169.9 0.999959 -80.71 0.999959 -80.71 0.008053 -171.7
8.76552000 0.008058 -169.9 0.999959 -80.71 0.999959 -80.71 0.008058 -171.7
8.76554000 0.008064 -169.9 0.999959 -80.71 0.999959 -80.71 0.008064 -171.7
8.76556000 0.008069 -169.9 0.999959 -80.71 0.999959 -80.71 0.008069 -171.7
8.76558000 0.008075 -169.9 0.999959 -80.71 0.999959 -80.71 0.008075 -171.7
8.76560000 0.008080 -169.9 0.999959 -80.71 0.999959 -80.71 0.008080 -171.7
8.76562000 0.008086 -169.9 0.999959 -80.71 0.999959 -80.71 0.008085 -171.7
8.76564000 0.008091 -169.9 0.999959 -80.71 0.999959 -80.71 0.008091 -171.7
8.76566000 0.008096 -169.9 0.999959 -80.71 0.999959 -80.71 0.008096 -171.7
8.76568000 0.008102 -169.9 0.999959 -80.72 0.999959 -80.72 0.008102 -171.7
8.76570000 0.008108 -169.9 0.999959 -80.72 0.999959 -80.72 0.008107 -171.7
8.76572000 0.008113 -169.9 0.999959 -80.72 0.999959 -80.72 0.008113 -171.7
8.76574000 0.008119 -169.9 0.999959 -80.72 0.999959 -80.72 0.008119 -171.7
8.76576000 0.008124 -169.9 0.999959 -80.72 0.999959 -80.72 0.008124 -171.7
8.76578000 0.008130 -169.9 0.999959 -80.72 0.999959 -80.72 0.008130 -171.7
8.76580000 0.008135 -169.9 0.999958 -80.72 0.999958 -80.72 0.008135 -171.7
8.76582000 0.008141 -169.9 0.999958 -80.72 0.999958 -80.72 0.008141 -171.7
8.76584000 0.008147 -169.9 0.999958 -80.72 0.999958 -80.72 0.008147 -171.7
8.76586000 0.008152 -169.9 0.999958 -80.72 0.999958 -80.72 0.008152 -171.7
8.76588000 0.008158 -169.9 0.999958 -80.72 0.999958 -80.72 0.008158 -171.7
8.76590000 0.008164 -169.9 0.999958 -80.72 0.999958 -80.72 0.008164 -171.7
8.76592000 0.008169 -169.9 0.999958 -80.72 0.999958 -80.72 0.008169 -171.7
8.76594000 0.008175 -169.9 0.999958 -80.72 0.999958 -80.72 0.008175 -171.7
8.76596000 0.008181 -169.9 0.999958 -80.72 0.999958 -80.72 0.008181 -171.7
8.76598000 0.008186 -169.9 0.999958 -80.72 0.999958 -80.72 0.008186 -171.7
8.76600000 0.008192 -169.9 0.999958 -80.72 0.999958 -80.72 0.008192 -171.7
8.76602000 0.008198 -169.9 0.999958 -80.72 0.999958 -80.72 0.008198 -171.7
8.76604000 0.008204 -169.9 0.999958 -80.72 0.999958 -80.72 0.008204 -171.7
8.76606000 0.008209 -169.9 0.999958 -80.72 0.999958 -80.72 0.008209 -171.7
8.76608000 0.008215 -169.9 0.999958 -80.73 0.999958 -80.73 0.008215 -171.7
8.76610000 0.008221 -169.9 0.999958 -80.73 0.999958 -80.73 0.008221 -171.7
8.76612000 0.008227 -169.9 0.999958 -80.73 0.999958 -80.73 0.008227 -171.7
8.76614000 0.008233 -169.9 0.999957 -80.73 0.999957 -80.73 0.008233 -171.7
8.76616000 0.008239 -169.9 0.999957 -80.73 0.999957 -80.73 0.008239 -171.7
8.76618000 0.008244 -169.9 0.999957 -80.73 0.999957 -80.73 0.008244 -171.7
8.76620000 0.008250 -169.9 0.999957 -80.73 0.999957 -80.73 0.008250 -171.7
8.76622000 0.008256 -169.9 0.999957 -80.73 0.999957 -80.73 0.008256 -171.7
8.76624000 0.008262 -169.9 0.999957 -80.73 0.999957 -80.73 0.008262 -171.7
8.76626000 0.008268 -169.9 0.999957 -80.73 0.999957 -80.73 0.008268 -171.7
8.76628000 0.008274 -169.9 0.999957 -80.73 0.999957 -80.73 0.008274 -171.7
8.76630000 0.008280 -169.9 0.999957 -80.73 0.999957 -80.73 0.008280 -171.7
8.76632000 0.008286 -169.9 0.999957 -80.73 0.999957 -80.73 0.008286 -171.7
8.76634000 0.008292 -169.9 0.999957 -80.73 0.999957 -80.73 0.008292 -171.7
8.76636000 0.008298 -169.9 0.999957 -80.73 0.999957 -80.73 0.008298 -171.7
8.76638000 0.008304 -169.9 0.999957 -80.73 0.999957 -80.73 0.008304 -171.7
8.76640000 0.008310 -169.9 0.999957 -80.73 0.999957 -80.73 0.008310 -171.7
8.76642000 0.008316 -169.9 0.999957 -80.73 0.999957 -80.73 0.008316 -171.7
8.76644000 0.008322 -169.9 0.999957 -80.73 0.999957 -80.73 0.008322 -171.7
8.76646000 0.008328 -169.9 0.999956 -80.74 0.999956 -80.74 0.008328 -171.7
8.76648000 0.008335 -169.9 0.999956 -80.74 0.999956 -80.74 0.008334 -171.7
8.76650000 0.008341 -169.9 0.999956 -80.74 0.999956 -80.74 0.008341 -171.7
8.76652000 0.008347 -169.9 0.999956 -80.74 0.999956 -80.74 0.008347 -171.7
8.76654000 0.008353 -169.9 0.999956 -80.74 0.999956 -80.74 0.008353 -171.7
8.76656000 0.008359 -169.9 0.999956 -80.74 0.999956 -80.74 0.008359 -171.7
8.76658000 0.008365 -169.9 0.999956 -80.74 0.999956 -80.74 0.008365 -171.7
8.76660000 0.008372 -169.9 0.999956 -80.74 0.999956 -80.74 0.008371 -171.7
8.76662000 0.008378 -169.9 0.999956 -80.74 0.999956 -80.74 0.008378 -171.7
8.76664000 0.008384 -169.9 0.999956 -80.74 0.999956 -80.74 0.008384 -171.7
8.76666000 0.008390 -169.9 0.999956 -80.74 0.999956 -80.74 0.008390 -171.7
8.76668000 0.008397 -169.9 0.999956 -80.74 0.999956 -80.74 0.008396 -171.7
8.76670000 0.008403 -169.9 0.999956 -80.74 0.999956 -80.74 0.008403 -171.7
8.76672000 0.008409 -169.9 0.999956 -80.74 0.999956 -80.74 0.008409 -171.7
8.76674000 0.008415 -169.9 0.999955 -80.74 0.999955 -80.74 0.008415 -171.7
8.76676000 0.008422 -169.9 0.999955 -80.74 0.999955 -80.74 0.008422 -171.7
8.76678000 0.008428 -169.9 0.999955 -80.74 0.999955 -80.74 0.008428 -171.7
8.76680000 0.008435 -169.9 0.999955 -80.74 0.999955 -80.74 0.008435 -171.7
8.76682000 0.008441 -169.9 0.999955 -80.75 0.999955 -80.75 0.008441 -171.7
8.76684000 0.008447 -169.9 0.999955 -80.75 0.999955 -80.75 0.008447 -171.7
8.76686000 0.008454 -169.9 0.999955 -80.75 0.999955 -80.75 0.008454 -171.7
8.76688000 0.008460 -169.9 0.999955 -80.75 0.999955 -80.75 0.008460 -171.7
8.76690000 0.008467 -169.9 0.999955 -80.75 0.999955 -80.75 0.008467 -171.7
8.76692000 0.008473 -169.9 0.999955 -80.75 0.999955 -80.75 0.008473 -171.7
8.76694000 0.008480 -169.9 0.999955 -80.75 0.999955 -80.75 0.008480 -171.7
8.76696000 0.008486 -169.9 0.999955 -80.75 0.999955 -80.75 0.008486 -171.7
8.76698000 0.008493 -169.9 0.999955 -80.75 0.999955 -80.75 0.008493 -171.7
8.76700000 0.008499 -169.9 0.999955 -80.75 0.999955 -80.75 0.008499 -171.7
8.76702000 0.008506 -169.9 0.999954 -80.75 0.999954 -80.75 0.008506 -171.7
8.76704000 0.008513 -169.9 0.999954 -80.75 0.999954 -80.75 0.008512 -171.7
8.76706000 0.008519 -169.9 0.999954 -80.75 0.999954 -80.75 0.008519 -171.7
8.76708000 0.008526 -169.9 0.999954 -80.75 0.999954 -80.75 0.008526 -171.7
8.76710000 0.008532 -169.9 0.999954 -80.75 0.999954 -80.75 0.008532 -171.7
8.76712000 0.008539 -169.9 0.999954 -80.75 0.999954 -80.75 0.008539 -171.7
8.76714000 0.008546 -169.9 0.999954 -80.75 0.999954 -80.75 0.008546 -171.7
8.76716000 0.008552 -169.9 0.999954 -80.75 0.999954 -80.75 0.008552 -171.7
8.76718000 0.008559 -169.9 0.999954 -80.76 0.999954 -80.76 0.008559 -171.7
8.76720000 0.008566 -169.9 0.999954 -80.76 0.999954 -80.76 0.008566 -171.7
8.76722000 0.008573 -169.9 0.999954 -80.76 0.999954 -80.76 0.008573 -171.7
8.76724000 0.008580 -169.9 0.999954 -80.76 0.999954 -80.76 0.008579 -171.7
8.76726000 0.008586 -169.9 0.999954 -80.76 0.999954 -80.76 0.008586 -171.7
8.76728000 0.008593 -169.9 0.999954 -80.76 0.999954 -80.76 0.008593 -171.7
8.76730000 0.008600 -169.9 0.999953 -80.76 0.999953 -80.76 0.008600 -171.7
8.76732000 0.008607 -169.9 0.999953 -80.76 0.999953 -80.76 0.008607 -171.7
8.76734000 0.008614 -169.9 0.999953 -80.76 0.999953 -80.76 0.008614 -171.7
8.76736000 0.008621 -169.9 0.999953 -80.76 0.999953 -80.76 0.008621 -171.7
8.76738000 0.008628 -169.9 0.999953 -80.76 0.999953 -80.76 0.008627 -171.7
8.76740000 0.008634 -169.9 0.999953 -80.76 0.999953 -80.76 0.008634 -171.8
8.76742000 0.008641 -169.9 0.999953 -80.76 0.999953 -80.76 0.008641 -171.8
8.76744000 0.008648 -169.9 0.999953 -80.76 0.999953 -80.76 0.008648 -171.8
8.76746000 0.008655 -169.9 0.999953 -80.76 0.999953 -80.76 0.008655 -171.8
8.76748000 0.008662 -169.9 0.999953 -80.76 0.999953 -80.76 0.008662 -171.8
8.76750000 0.008669 -169.9 0.999953 -80.76 0.999953 -80.76 0.008669 -171.8
8.76752000 0.008676 -169.9 0.999953 -80.76 0.999953 -80.76 0.008676 -171.8
8.76754000 0.008684 -169.9 0.999953 -80.77 0.999953 -80.77 0.008683 -171.8
8.76756000 0.008691 -169.9 0.999952 -80.77 0.999952 -80.77 0.008691 -171.8
8.76758000 0.008698 -169.9 0.999952 -80.77 0.999952 -80.77 0.008698 -171.8
8.76760000 0.008705 -169.9 0.999952 -80.77 0.999952 -80.77 0.008705 -171.8
8.76762000 0.008712 -169.9 0.999952 -80.77 0.999952 -80.77 0.008712 -171.8
8.76764000 0.008719 -169.9 0.999952 -80.77 0.999952 -80.77 0.008719 -171.8
8.76766000 0.008726 -169.9 0.999952 -80.77 0.999952 -80.77 0.008726 -171.8
8.76768000 0.008734 -169.9 0.999952 -80.77 0.999952 -80.77 0.008734 -171.8
8.76770000 0.008741 -169.9 0.999952 -80.77 0.999952 -80.77 0.008741 -171.8
8.76772000 0.008748 -169.9 0.999952 -80.77 0.999952 -80.77 0.008748 -171.8
8.76774000 0.008755 -169.9 0.999952 -80.77 0.999952 -80.77 0.008755 -171.8
8.76776000 0.008763 -169.9 0.999952 -80.77 0.999952 -80.77 0.008763 -171.8
8.76778000 0.008770 -169.9 0.999952 -80.77 0.999952 -80.77 0.008770 -171.8
8.76780000 0.008777 -169.9 0.999951 -80.77 0.999951 -80.77 0.008777 -171.8
8.76782000 0.008785 -169.9 0.999951 -80.77 0.999951 -80.77 0.008785 -171.8