! Sonnet Data File
! From: emgraph Version : 16.52
! From Project: Qubit_Xmon2_brg_para
! Data is De-embedded 
! Data File Written: 10/25/2017 20:11:04
!< HDATE 10/25/2017 15:55:44
!< MDATE 10/25/2017 15:55:44
!< PARAMS
!< Lj = 11.0
!< Gap = 6.0
!< Pwid = 2000.0
!< Airgap = 6.0
!< Width = 10.0
!< Bwid = 40.0
!< Dis1 = 350.0
!< Dis2 = 356.0
!< END PARAMS
# GHZ S MA R 51.80000
8.68500000 0.027311 -169.9 0.999609 -79.94 0.999609 -79.94 0.027311 -170.1
!< P1 F=8.685 Eeff=(6.44683879 -2.9786e-5) Z0=(51.7993663 1.19075e-4) R=0.0 C=0.0 
!< P2 F=8.685 Eeff=(6.44683879 -2.9786e-5) Z0=(51.7993663 1.19075e-4) R=0.0 C=0.0 
8.68500500 0.027315 -169.9 0.999608 -79.94 0.999608 -79.94 0.027315 -170.1
8.68501000 0.027320 -169.9 0.999608 -79.94 0.999608 -79.94 0.027320 -170.1
8.68501500 0.027324 -169.9 0.999608 -79.94 0.999608 -79.94 0.027324 -170.1
8.68502000 0.027328 -169.9 0.999608 -79.94 0.999608 -79.94 0.027328 -170.1
8.68502500 0.027332 -169.9 0.999608 -79.94 0.999608 -79.94 0.027332 -170.1
8.68503000 0.027336 -169.9 0.999608 -79.94 0.999608 -79.94 0.027336 -170.1
8.68503500 0.027341 -169.9 0.999608 -79.94 0.999608 -79.94 0.027340 -170.1
8.68504000 0.027345 -169.9 0.999607 -79.94 0.999607 -79.94 0.027345 -170.1
8.68504500 0.027349 -169.9 0.999607 -79.94 0.999607 -79.94 0.027349 -170.1
8.68505000 0.027353 -169.9 0.999607 -79.94 0.999607 -79.94 0.027353 -170.1
8.68505500 0.027357 -169.9 0.999607 -79.94 0.999607 -79.94 0.027357 -170.1
8.68506000 0.027362 -169.9 0.999607 -79.94 0.999607 -79.94 0.027362 -170.1
8.68506500 0.027366 -169.9 0.999607 -79.95 0.999607 -79.95 0.027366 -170.1
8.68507000 0.027370 -169.9 0.999607 -79.95 0.999607 -79.95 0.027370 -170.1
8.68507500 0.027374 -169.9 0.999606 -79.95 0.999606 -79.95 0.027374 -170.1
8.68508000 0.027379 -169.9 0.999606 -79.95 0.999606 -79.95 0.027378 -170.1
8.68508500 0.027383 -169.9 0.999606 -79.95 0.999606 -79.95 0.027383 -170.1
8.68509000 0.027387 -169.9 0.999606 -79.95 0.999606 -79.95 0.027387 -170.1
8.68509500 0.027391 -169.9 0.999606 -79.95 0.999606 -79.95 0.027391 -170.1
8.68510000 0.027396 -169.9 0.999606 -79.95 0.999606 -79.95 0.027395 -170.1
8.68510500 0.027400 -169.9 0.999606 -79.95 0.999606 -79.95 0.027400 -170.1
8.68511000 0.027404 -169.9 0.999606 -79.95 0.999606 -79.95 0.027404 -170.1
8.68511500 0.027408 -169.9 0.999605 -79.95 0.999605 -79.95 0.027408 -170.1
8.68512000 0.027413 -169.9 0.999605 -79.95 0.999605 -79.95 0.027413 -170.1
8.68512500 0.027417 -169.9 0.999605 -79.95 0.999605 -79.95 0.027417 -170.1
8.68513000 0.027421 -169.9 0.999605 -79.95 0.999605 -79.95 0.027421 -170.1
8.68513500 0.027425 -169.9 0.999605 -79.95 0.999605 -79.95 0.027425 -170.1
8.68514000 0.027430 -169.9 0.999605 -79.95 0.999605 -79.95 0.027430 -170.1
8.68514500 0.027434 -169.9 0.999605 -79.95 0.999605 -79.95 0.027434 -170.1
8.68515000 0.027438 -169.9 0.999604 -79.95 0.999604 -79.95 0.027438 -170.1
8.68515500 0.027443 -169.9 0.999604 -79.95 0.999604 -79.95 0.027443 -170.1
8.68516000 0.027447 -169.9 0.999604 -79.95 0.999604 -79.95 0.027447 -170.1
8.68516500 0.027451 -169.9 0.999604 -79.95 0.999604 -79.95 0.027451 -170.1
8.68517000 0.027456 -169.9 0.999604 -79.95 0.999604 -79.95 0.027456 -170.1
8.68517500 0.027460 -169.9 0.999604 -79.95 0.999604 -79.95 0.027460 -170.1
8.68518000 0.027464 -169.9 0.999604 -79.95 0.999604 -79.95 0.027464 -170.1
8.68518500 0.027469 -169.9 0.999604 -79.95 0.999604 -79.95 0.027469 -170.1
8.68519000 0.027473 -169.9 0.999603 -79.95 0.999603 -79.95 0.027473 -170.1
8.68519500 0.027477 -169.9 0.999603 -79.95 0.999603 -79.95 0.027477 -170.1
8.68520000 0.027482 -169.9 0.999603 -79.95 0.999603 -79.95 0.027482 -170.1
8.68520500 0.027486 -169.9 0.999603 -79.95 0.999603 -79.95 0.027486 -170.1
8.68521000 0.027490 -169.9 0.999603 -79.95 0.999603 -79.95 0.027490 -170.1
8.68521500 0.027495 -169.9 0.999603 -79.95 0.999603 -79.95 0.027495 -170.1
8.68522000 0.027499 -169.9 0.999603 -79.95 0.999603 -79.95 0.027499 -170.1
8.68522500 0.027504 -169.9 0.999602 -79.95 0.999602 -79.95 0.027503 -170.1
8.68523000 0.027508 -169.9 0.999602 -79.95 0.999602 -79.95 0.027508 -170.1
8.68523500 0.027512 -169.9 0.999602 -79.96 0.999602 -79.96 0.027512 -170.1
8.68524000 0.027517 -169.9 0.999602 -79.96 0.999602 -79.96 0.027517 -170.1
8.68524500 0.027521 -169.9 0.999602 -79.96 0.999602 -79.96 0.027521 -170.1
8.68525000 0.027526 -169.9 0.999602 -79.96 0.999602 -79.96 0.027525 -170.1
8.68525500 0.027530 -169.9 0.999602 -79.96 0.999602 -79.96 0.027530 -170.1
8.68526000 0.027534 -169.9 0.999601 -79.96 0.999601 -79.96 0.027534 -170.1
8.68526500 0.027539 -169.9 0.999601 -79.96 0.999601 -79.96 0.027539 -170.1
8.68527000 0.027543 -169.9 0.999601 -79.96 0.999601 -79.96 0.027543 -170.1
8.68527500 0.027548 -169.9 0.999601 -79.96 0.999601 -79.96 0.027548 -170.1
8.68528000 0.027552 -169.9 0.999601 -79.96 0.999601 -79.96 0.027552 -170.1
8.68528500 0.027557 -169.9 0.999601 -79.96 0.999601 -79.96 0.027556 -170.1
8.68529000 0.027561 -169.9 0.999601 -79.96 0.999601 -79.96 0.027561 -170.1
8.68529500 0.027565 -169.9 0.999600 -79.96 0.999600 -79.96 0.027565 -170.1
8.68530000 0.027570 -169.9 0.999600 -79.96 0.999600 -79.96 0.027570 -170.1
8.68530500 0.027574 -169.9 0.999600 -79.96 0.999600 -79.96 0.027574 -170.1
8.68531000 0.027579 -169.9 0.999600 -79.96 0.999600 -79.96 0.027579 -170.1
8.68531500 0.027583 -169.9 0.999600 -79.96 0.999600 -79.96 0.027583 -170.1
8.68532000 0.027588 -169.9 0.999600 -79.96 0.999600 -79.96 0.027588 -170.1
8.68532500 0.027592 -169.9 0.999600 -79.96 0.999600 -79.96 0.027592 -170.1
8.68533000 0.027597 -169.9 0.999599 -79.96 0.999599 -79.96 0.027597 -170.1
8.68533500 0.027601 -169.9 0.999599 -79.96 0.999599 -79.96 0.027601 -170.1
8.68534000 0.027606 -169.9 0.999599 -79.96 0.999599 -79.96 0.027606 -170.1
8.68534500 0.027610 -169.9 0.999599 -79.96 0.999599 -79.96 0.027610 -170.1
8.68535000 0.027615 -169.9 0.999599 -79.96 0.999599 -79.96 0.027615 -170.1
8.68535500 0.027619 -169.9 0.999599 -79.96 0.999599 -79.96 0.027619 -170.1
8.68536000 0.027624 -169.9 0.999599 -79.96 0.999599 -79.96 0.027624 -170.1
8.68536500 0.027628 -169.9 0.999598 -79.96 0.999598 -79.96 0.027628 -170.1
8.68537000 0.027633 -169.9 0.999598 -79.96 0.999598 -79.96 0.027633 -170.1
8.68537500 0.027637 -169.9 0.999598 -79.96 0.999598 -79.96 0.027637 -170.1
8.68538000 0.027642 -169.9 0.999598 -79.96 0.999598 -79.96 0.027642 -170.1
8.68538500 0.027647 -169.9 0.999598 -79.96 0.999598 -79.96 0.027646 -170.1
8.68539000 0.027651 -169.9 0.999598 -79.96 0.999598 -79.96 0.027651 -170.1
8.68539500 0.027656 -169.9 0.999598 -79.96 0.999598 -79.96 0.027656 -170.1
8.68540000 0.027660 -169.9 0.999597 -79.97 0.999597 -79.97 0.027660 -170.1
8.68540500 0.027665 -169.9 0.999597 -79.97 0.999597 -79.97 0.027665 -170.1
8.68541000 0.027669 -169.9 0.999597 -79.97 0.999597 -79.97 0.027669 -170.1
8.68541500 0.027674 -169.9 0.999597 -79.97 0.999597 -79.97 0.027674 -170.1
8.68542000 0.027679 -169.9 0.999597 -79.97 0.999597 -79.97 0.027678 -170.1
8.68542500 0.027683 -169.9 0.999597 -79.97 0.999597 -79.97 0.027683 -170.1
8.68543000 0.027688 -169.9 0.999597 -79.97 0.999597 -79.97 0.027688 -170.1
8.68543500 0.027692 -169.9 0.999596 -79.97 0.999596 -79.97 0.027692 -170.1
8.68544000 0.027697 -169.9 0.999596 -79.97 0.999596 -79.97 0.027697 -170.1
8.68544500 0.027702 -169.9 0.999596 -79.97 0.999596 -79.97 0.027701 -170.1
8.68545000 0.027706 -169.9 0.999596 -79.97 0.999596 -79.97 0.027706 -170.1
8.68545500 0.027711 -169.9 0.999596 -79.97 0.999596 -79.97 0.027711 -170.1
8.68546000 0.027715 -169.9 0.999596 -79.97 0.999596 -79.97 0.027715 -170.1
8.68546500 0.027720 -169.9 0.999595 -79.97 0.999595 -79.97 0.027720 -170.1
8.68547000 0.027725 -169.9 0.999595 -79.97 0.999595 -79.97 0.027725 -170.1
8.68547500 0.027729 -169.9 0.999595 -79.97 0.999595 -79.97 0.027729 -170.1
8.68548000 0.027734 -169.9 0.999595 -79.97 0.999595 -79.97 0.027734 -170.1
8.68548500 0.027739 -169.9 0.999595 -79.97 0.999595 -79.97 0.027739 -170.1
8.68549000 0.027743 -169.9 0.999595 -79.97 0.999595 -79.97 0.027743 -170.1
8.68549500 0.027748 -169.9 0.999595 -79.97 0.999595 -79.97 0.027748 -170.1
8.68550000 0.027753 -169.9 0.999594 -79.97 0.999594 -79.97 0.027753 -170.1
8.68550500 0.027757 -169.9 0.999594 -79.97 0.999594 -79.97 0.027757 -170.1
8.68551000 0.027762 -169.9 0.999594 -79.97 0.999594 -79.97 0.027762 -170.1
8.68551500 0.027767 -169.9 0.999594 -79.97 0.999594 -79.97 0.027767 -170.1
8.68552000 0.027771 -169.9 0.999594 -79.97 0.999594 -79.97 0.027771 -170.1
8.68552500 0.027776 -169.9 0.999594 -79.97 0.999594 -79.97 0.027776 -170.1
8.68553000 0.027781 -169.9 0.999594 -79.97 0.999594 -79.97 0.027781 -170.1
8.68553500 0.027786 -169.9 0.999593 -79.97 0.999593 -79.97 0.027785 -170.1
8.68554000 0.027790 -169.9 0.999593 -79.97 0.999593 -79.97 0.027790 -170.1
8.68554500 0.027795 -169.9 0.999593 -79.97 0.999593 -79.97 0.027795 -170.1
8.68555000 0.027800 -169.9 0.999593 -79.97 0.999593 -79.97 0.027800 -170.1
8.68555500 0.027804 -169.9 0.999593 -79.97 0.999593 -79.97 0.027804 -170.1
8.68556000 0.027809 -169.9 0.999593 -79.98 0.999593 -79.98 0.027809 -170.1
8.68556500 0.027814 -169.9 0.999592 -79.98 0.999592 -79.98 0.027814 -170.1
8.68557000 0.027819 -169.9 0.999592 -79.98 0.999592 -79.98 0.027819 -170.1
8.68557500 0.027823 -169.9 0.999592 -79.98 0.999592 -79.98 0.027823 -170.1
8.68558000 0.027828 -169.9 0.999592 -79.98 0.999592 -79.98 0.027828 -170.1
8.68558500 0.027833 -169.9 0.999592 -79.98 0.999592 -79.98 0.027833 -170.1
8.68559000 0.027838 -169.9 0.999592 -79.98 0.999592 -79.98 0.027838 -170.1
8.68559500 0.027843 -169.9 0.999592 -79.98 0.999592 -79.98 0.027843 -170.1
8.68560000 0.027847 -169.9 0.999591 -79.98 0.999591 -79.98 0.027847 -170.1
8.68560500 0.027852 -169.9 0.999591 -79.98 0.999591 -79.98 0.027852 -170.1
8.68561000 0.027857 -169.9 0.999591 -79.98 0.999591 -79.98 0.027857 -170.1
8.68561500 0.027862 -169.9 0.999591 -79.98 0.999591 -79.98 0.027862 -170.1
8.68562000 0.027867 -169.9 0.999591 -79.98 0.999591 -79.98 0.027867 -170.1
8.68562500 0.027871 -169.9 0.999591 -79.98 0.999591 -79.98 0.027871 -170.1
8.68563000 0.027876 -169.9 0.999590 -79.98 0.999590 -79.98 0.027876 -170.1
8.68563500 0.027881 -169.9 0.999590 -79.98 0.999590 -79.98 0.027881 -170.1
8.68564000 0.027886 -169.9 0.999590 -79.98 0.999590 -79.98 0.027886 -170.1
8.68564500 0.027891 -169.9 0.999590 -79.98 0.999590 -79.98 0.027891 -170.1
8.68565000 0.027896 -169.9 0.999590 -79.98 0.999590 -79.98 0.027896 -170.1
8.68565500 0.027900 -169.9 0.999590 -79.98 0.999590 -79.98 0.027900 -170.1
8.68566000 0.027905 -169.9 0.999589 -79.98 0.999589 -79.98 0.027905 -170.1
8.68566500 0.027910 -169.9 0.999589 -79.98 0.999589 -79.98 0.027910 -170.1
8.68567000 0.027915 -169.9 0.999589 -79.98 0.999589 -79.98 0.027915 -170.1
8.68567500 0.027920 -169.9 0.999589 -79.98 0.999589 -79.98 0.027920 -170.1
8.68568000 0.027925 -169.9 0.999589 -79.98 0.999589 -79.98 0.027925 -170.1
8.68568500 0.027930 -169.9 0.999589 -79.98 0.999589 -79.98 0.027930 -170.1
8.68569000 0.027935 -169.9 0.999589 -79.98 0.999589 -79.98 0.027935 -170.1
8.68569500 0.027940 -169.9 0.999588 -79.98 0.999588 -79.98 0.027939 -170.1
8.68570000 0.027944 -169.9 0.999588 -79.98 0.999588 -79.98 0.027944 -170.1
8.68570500 0.027949 -169.9 0.999588 -79.98 0.999588 -79.98 0.027949 -170.1
8.68571000 0.027954 -169.9 0.999588 -79.98 0.999588 -79.98 0.027954 -170.1
8.68571500 0.027959 -169.9 0.999588 -79.99 0.999588 -79.99 0.027959 -170.1
8.68572000 0.027964 -169.9 0.999588 -79.99 0.999588 -79.99 0.027964 -170.1
8.68572500 0.027969 -169.9 0.999587 -79.99 0.999587 -79.99 0.027969 -170.1
8.68573000 0.027974 -169.9 0.999587 -79.99 0.999587 -79.99 0.027974 -170.1
8.68573500 0.027979 -169.9 0.999587 -79.99 0.999587 -79.99 0.027979 -170.1
8.68574000 0.027984 -169.9 0.999587 -79.99 0.999587 -79.99 0.027984 -170.1
8.68574500 0.027989 -169.9 0.999587 -79.99 0.999587 -79.99 0.027989 -170.1
8.68575000 0.027994 -169.9 0.999587 -79.99 0.999587 -79.99 0.027994 -170.1
8.68575500 0.027999 -169.9 0.999586 -79.99 0.999586 -79.99 0.027999 -170.1
8.68576000 0.028004 -169.9 0.999586 -79.99 0.999586 -79.99 0.028004 -170.1
8.68576500 0.028009 -169.9 0.999586 -79.99 0.999586 -79.99 0.028009 -170.1
8.68577000 0.028014 -169.9 0.999586 -79.99 0.999586 -79.99 0.028014 -170.1
8.68577500 0.028019 -169.9 0.999586 -79.99 0.999586 -79.99 0.028019 -170.1
8.68578000 0.028024 -169.9 0.999586 -79.99 0.999586 -79.99 0.028024 -170.1
8.68578500 0.028029 -169.9 0.999585 -79.99 0.999585 -79.99 0.028029 -170.1
8.68579000 0.028034 -169.9 0.999585 -79.99 0.999585 -79.99 0.028034 -170.1
8.68579500 0.028039 -169.9 0.999585 -79.99 0.999585 -79.99 0.028039 -170.1
8.68580000 0.028044 -169.9 0.999585 -79.99 0.999585 -79.99 0.028044 -170.1
8.68580500 0.028049 -169.9 0.999585 -79.99 0.999585 -79.99 0.028049 -170.1
8.68581000 0.028054 -169.9 0.999585 -79.99 0.999585 -79.99 0.028054 -170.1
8.68581500 0.028059 -169.9 0.999584 -79.99 0.999584 -79.99 0.028059 -170.1
8.68582000 0.028064 -169.9 0.999584 -79.99 0.999584 -79.99 0.028064 -170.1
8.68582500 0.028069 -169.9 0.999584 -79.99 0.999584 -79.99 0.028069 -170.1
8.68583000 0.028074 -169.9 0.999584 -79.99 0.999584 -79.99 0.028074 -170.1
8.68583500 0.028079 -169.9 0.999584 -79.99 0.999584 -79.99 0.028079 -170.1
8.68584000 0.028084 -169.9 0.999584 -79.99 0.999584 -79.99 0.028084 -170.1
8.68584500 0.028090 -169.9 0.999583 -79.99 0.999583 -79.99 0.028089 -170.1
8.68585000 0.028095 -169.9 0.999583 -79.99 0.999583 -79.99 0.028095 -170.1
8.68585500 0.028100 -169.9 0.999583 -79.99 0.999583 -79.99 0.028100 -170.1
8.68586000 0.028105 -169.9 0.999583 -79.99 0.999583 -79.99 0.028105 -170.1
8.68586500 0.028110 -169.9 0.999583 -80.00 0.999583 -80.00 0.028110 -170.1
8.68587000 0.028115 -169.9 0.999583 -80.00 0.999583 -80.00 0.028115 -170.1
8.68587500 0.028120 -169.9 0.999582 -80.00 0.999582 -80.00 0.028120 -170.1
8.68588000 0.028125 -169.9 0.999582 -80.00 0.999582 -80.00 0.028125 -170.1
8.68588500 0.028131 -169.9 0.999582 -80.00 0.999582 -80.00 0.028130 -170.1
8.68589000 0.028136 -169.9 0.999582 -80.00 0.999582 -80.00 0.028136 -170.1
8.68589500 0.028141 -169.9 0.999582 -80.00 0.999582 -80.00 0.028141 -170.1
8.68590000 0.028146 -169.9 0.999582 -80.00 0.999582 -80.00 0.028146 -170.1
8.68590500 0.028151 -169.9 0.999581 -80.00 0.999581 -80.00 0.028151 -170.1
8.68591000 0.028156 -169.9 0.999581 -80.00 0.999581 -80.00 0.028156 -170.1
8.68591500 0.028161 -169.9 0.999581 -80.00 0.999581 -80.00 0.028161 -170.1
8.68592000 0.028167 -169.9 0.999581 -80.00 0.999581 -80.00 0.028167 -170.1
8.68592500 0.028172 -169.9 0.999581 -80.00 0.999581 -80.00 0.028172 -170.1
8.68593000 0.028177 -169.9 0.999581 -80.00 0.999581 -80.00 0.028177 -170.1
8.68593500 0.028182 -169.9 0.999580 -80.00 0.999580 -80.00 0.028182 -170.1
8.68594000 0.028188 -169.9 0.999580 -80.00 0.999580 -80.00 0.028187 -170.1
8.68594500 0.028193 -169.9 0.999580 -80.00 0.999580 -80.00 0.028193 -170.1
8.68595000 0.028198 -169.9 0.999580 -80.00 0.999580 -80.00 0.028198 -170.1
8.68595500 0.028203 -169.9 0.999580 -80.00 0.999580 -80.00 0.028203 -170.1
8.68596000 0.028208 -169.9 0.999580 -80.00 0.999580 -80.00 0.028208 -170.1
8.68596500 0.028214 -169.9 0.999579 -80.00 0.999579 -80.00 0.028214 -170.1
8.68597000 0.028219 -169.9 0.999579 -80.00 0.999579 -80.00 0.028219 -170.1
8.68597500 0.028224 -169.9 0.999579 -80.00 0.999579 -80.00 0.028224 -170.1
8.68598000 0.028229 -169.9 0.999579 -80.00 0.999579 -80.00 0.028229 -170.1
8.68598500 0.028235 -169.9 0.999579 -80.00 0.999579 -80.00 0.028235 -170.1
8.68599000 0.028240 -169.9 0.999579 -80.00 0.999579 -80.00 0.028240 -170.1
8.68599500 0.028245 -169.9 0.999578 -80.00 0.999578 -80.00 0.028245 -170.1
8.68600000 0.028251 -169.9 0.999578 -80.00 0.999578 -80.00 0.028250 -170.1
8.68600500 0.028256 -169.9 0.999578 -80.00 0.999578 -80.00 0.028256 -170.1
8.68601000 0.028261 -169.9 0.999578 -80.01 0.999578 -80.01 0.028261 -170.1
8.68601500 0.028267 -169.9 0.999578 -80.01 0.999578 -80.01 0.028266 -170.2
8.68602000 0.028272 -169.9 0.999577 -80.01 0.999577 -80.01 0.028272 -170.2
8.68602500 0.028277 -169.9 0.999577 -80.01 0.999577 -80.01 0.028277 -170.2
8.68603000 0.028283 -170.0 0.999577 -80.01 0.999577 -80.01 0.028282 -170.2
8.68603500 0.028288 -170.0 0.999577 -80.01 0.999577 -80.01 0.028288 -170.2
8.68604000 0.028293 -170.0 0.999577 -80.01 0.999577 -80.01 0.028293 -170.2
8.68604500 0.028299 -170.0 0.999577 -80.01 0.999577 -80.01 0.028298 -170.2
8.68605000 0.028304 -170.0 0.999576 -80.01 0.999576 -80.01 0.028304 -170.2
8.68605500 0.028309 -170.0 0.999576 -80.01 0.999576 -80.01 0.028309 -170.2
8.68606000 0.028315 -170.0 0.999576 -80.01 0.999576 -80.01 0.028315 -170.2
8.68606500 0.028320 -170.0 0.999576 -80.01 0.999576 -80.01 0.028320 -170.2
8.68607000 0.028325 -170.0 0.999576 -80.01 0.999576 -80.01 0.028325 -170.2
8.68607500 0.028331 -170.0 0.999576 -80.01 0.999576 -80.01 0.028331 -170.2
8.68608000 0.028336 -170.0 0.999575 -80.01 0.999575 -80.01 0.028336 -170.2
8.68608500 0.028342 -170.0 0.999575 -80.01 0.999575 -80.01 0.028342 -170.2
8.68609000 0.028347 -170.0 0.999575 -80.01 0.999575 -80.01 0.028347 -170.2
8.68609500 0.028353 -170.0 0.999575 -80.01 0.999575 -80.01 0.028352 -170.2
8.68610000 0.028358 -170.0 0.999575 -80.01 0.999575 -80.01 0.028358 -170.2
8.68610500 0.028363 -170.0 0.999574 -80.01 0.999574 -80.01 0.028363 -170.2
8.68611000 0.028369 -170.0 0.999574 -80.01 0.999574 -80.01 0.028369 -170.2
8.68611500 0.028374 -170.0 0.999574 -80.01 0.999574 -80.01 0.028374 -170.2
8.68612000 0.028380 -170.0 0.999574 -80.01 0.999574 -80.01 0.028380 -170.2
8.68612500 0.028385 -170.0 0.999574 -80.01 0.999574 -80.01 0.028385 -170.2
8.68613000 0.028391 -170.0 0.999574 -80.01 0.999574 -80.01 0.028391 -170.2
8.68613500 0.028396 -170.0 0.999573 -80.01 0.999573 -80.01 0.028396 -170.2
8.68614000 0.028402 -170.0 0.999573 -80.01 0.999573 -80.01 0.028402 -170.2
8.68614500 0.028407 -170.0 0.999573 -80.01 0.999573 -80.01 0.028407 -170.2
8.68615000 0.028413 -170.0 0.999573 -80.01 0.999573 -80.01 0.028413 -170.2
8.68615500 0.028418 -170.0 0.999573 -80.02 0.999573 -80.02 0.028418 -170.2
8.68616000 0.028424 -170.0 0.999572 -80.02 0.999572 -80.02 0.028424 -170.2
8.68616500 0.028429 -170.0 0.999572 -80.02 0.999572 -80.02 0.028429 -170.2
8.68617000 0.028435 -170.0 0.999572 -80.02 0.999572 -80.02 0.028435 -170.2
8.68617500 0.028440 -170.0 0.999572 -80.02 0.999572 -80.02 0.028440 -170.2
8.68618000 0.028446 -170.0 0.999572 -80.02 0.999572 -80.02 0.028446 -170.2
8.68618500 0.028451 -170.0 0.999572 -80.02 0.999572 -80.02 0.028451 -170.2
8.68619000 0.028457 -170.0 0.999571 -80.02 0.999571 -80.02 0.028457 -170.2
8.68619500 0.028463 -170.0 0.999571 -80.02 0.999571 -80.02 0.028462 -170.2
8.68620000 0.028468 -170.0 0.999571 -80.02 0.999571 -80.02 0.028468 -170.2
8.68620500 0.028474 -170.0 0.999571 -80.02 0.999571 -80.02 0.028474 -170.2
8.68621000 0.028479 -170.0 0.999571 -80.02 0.999571 -80.02 0.028479 -170.2
8.68621500 0.028485 -170.0 0.999570 -80.02 0.999570 -80.02 0.028485 -170.2
8.68622000 0.028491 -170.0 0.999570 -80.02 0.999570 -80.02 0.028490 -170.2
8.68622500 0.028496 -170.0 0.999570 -80.02 0.999570 -80.02 0.028496 -170.2
8.68623000 0.028502 -170.0 0.999570 -80.02 0.999570 -80.02 0.028502 -170.2
8.68623500 0.028507 -170.0 0.999570 -80.02 0.999570 -80.02 0.028507 -170.2
8.68624000 0.028513 -170.0 0.999569 -80.02 0.999569 -80.02 0.028513 -170.2
8.68624500 0.028519 -170.0 0.999569 -80.02 0.999569 -80.02 0.028519 -170.2
8.68625000 0.028524 -170.0 0.999569 -80.02 0.999569 -80.02 0.028524 -170.2
8.68625500 0.028530 -170.0 0.999569 -80.02 0.999569 -80.02 0.028530 -170.2
8.68626000 0.028536 -170.0 0.999569 -80.02 0.999569 -80.02 0.028536 -170.2
8.68626500 0.028541 -170.0 0.999569 -80.02 0.999569 -80.02 0.028541 -170.2
8.68627000 0.028547 -170.0 0.999568 -80.02 0.999568 -80.02 0.028547 -170.2
8.68627500 0.028553 -170.0 0.999568 -80.02 0.999568 -80.02 0.028553 -170.2
8.68628000 0.028558 -170.0 0.999568 -80.02 0.999568 -80.02 0.028558 -170.2
8.68628500 0.028564 -170.0 0.999568 -80.02 0.999568 -80.02 0.028564 -170.2
8.68629000 0.028570 -170.0 0.999568 -80.03 0.999568 -80.03 0.028570 -170.2
8.68629500 0.028576 -170.0 0.999567 -80.03 0.999567 -80.03 0.028575 -170.2
8.68630000 0.028581 -170.0 0.999567 -80.03 0.999567 -80.03 0.028581 -170.2
8.68630500 0.028587 -170.0 0.999567 -80.03 0.999567 -80.03 0.028587 -170.2
8.68631000 0.028593 -170.0 0.999567 -80.03 0.999567 -80.03 0.028593 -170.2
8.68631500 0.028598 -170.0 0.999567 -80.03 0.999567 -80.03 0.028598 -170.2
8.68632000 0.028604 -170.0 0.999566 -80.03 0.999566 -80.03 0.028604 -170.2
8.68632500 0.028610 -170.0 0.999566 -80.03 0.999566 -80.03 0.028610 -170.2
8.68633000 0.028616 -170.0 0.999566 -80.03 0.999566 -80.03 0.028616 -170.2
8.68633500 0.028622 -170.0 0.999566 -80.03 0.999566 -80.03 0.028621 -170.2
8.68634000 0.028627 -170.0 0.999566 -80.03 0.999566 -80.03 0.028627 -170.2
8.68634500 0.028633 -170.0 0.999565 -80.03 0.999565 -80.03 0.028633 -170.2
8.68635000 0.028639 -170.0 0.999565 -80.03 0.999565 -80.03 0.028639 -170.2
8.68635500 0.028645 -170.0 0.999565 -80.03 0.999565 -80.03 0.028645 -170.2
8.68636000 0.028651 -170.0 0.999565 -80.03 0.999565 -80.03 0.028650 -170.2
8.68636500 0.028656 -170.0 0.999565 -80.03 0.999565 -80.03 0.028656 -170.2
8.68637000 0.028662 -170.0 0.999564 -80.03 0.999564 -80.03 0.028662 -170.2
8.68637500 0.028668 -170.0 0.999564 -80.03 0.999564 -80.03 0.028668 -170.2
8.68638000 0.028674 -170.0 0.999564 -80.03 0.999564 -80.03 0.028674 -170.2
8.68638500 0.028680 -170.0 0.999564 -80.03 0.999564 -80.03 0.028680 -170.2
8.68639000 0.028686 -170.0 0.999564 -80.03 0.999564 -80.03 0.028686 -170.2
8.68639500 0.028692 -170.0 0.999563 -80.03 0.999563 -80.03 0.028691 -170.2
8.68640000 0.028697 -170.0 0.999563 -80.03 0.999563 -80.03 0.028697 -170.2
8.68640500 0.028703 -170.0 0.999563 -80.03 0.999563 -80.03 0.028703 -170.2
8.68641000 0.028709 -170.0 0.999563 -80.03 0.999563 -80.03 0.028709 -170.2
8.68641500 0.028715 -170.0 0.999563 -80.03 0.999563 -80.03 0.028715 -170.2
8.68642000 0.028721 -170.0 0.999562 -80.04 0.999562 -80.04 0.028721 -170.2
8.68642500 0.028727 -170.0 0.999562 -80.04 0.999562 -80.04 0.028727 -170.2
8.68643000 0.028733 -170.0 0.999562 -80.04 0.999562 -80.04 0.028733 -170.2
8.68643500 0.028739 -170.0 0.999562 -80.04 0.999562 -80.04 0.028739 -170.2
8.68644000 0.028745 -170.0 0.999562 -80.04 0.999562 -80.04 0.028745 -170.2
8.68644500 0.028751 -170.0 0.999561 -80.04 0.999561 -80.04 0.028751 -170.2
8.68645000 0.028757 -170.0 0.999561 -80.04 0.999561 -80.04 0.028757 -170.2
8.68645500 0.028763 -170.0 0.999561 -80.04 0.999561 -80.04 0.028763 -170.2
8.68646000 0.028769 -170.0 0.999561 -80.04 0.999561 -80.04 0.028769 -170.2
8.68646500 0.028775 -170.0 0.999561 -80.04 0.999561 -80.04 0.028775 -170.2
8.68647000 0.028781 -170.0 0.999560 -80.04 0.999560 -80.04 0.028781 -170.2
8.68647500 0.028787 -170.0 0.999560 -80.04 0.999560 -80.04 0.028787 -170.2
8.68648000 0.028793 -170.0 0.999560 -80.04 0.999560 -80.04 0.028793 -170.2
8.68648500 0.028799 -170.0 0.999560 -80.04 0.999560 -80.04 0.028799 -170.2
8.68649000 0.028805 -170.0 0.999560 -80.04 0.999560 -80.04 0.028805 -170.2
8.68649500 0.028811 -170.0 0.999559 -80.04 0.999559 -80.04 0.028811 -170.2
8.68650000 0.028817 -170.0 0.999559 -80.04 0.999559 -80.04 0.028817 -170.2
8.68650500 0.028823 -170.0 0.999559 -80.04 0.999559 -80.04 0.028823 -170.2
8.68651000 0.028829 -170.0 0.999559 -80.04 0.999559 -80.04 0.028829 -170.2
8.68651500 0.028835 -170.0 0.999559 -80.04 0.999559 -80.04 0.028835 -170.2
8.68652000 0.028841 -170.0 0.999558 -80.04 0.999558 -80.04 0.028841 -170.2
8.68652500 0.028847 -170.0 0.999558 -80.04 0.999558 -80.04 0.028847 -170.2
8.68653000 0.028853 -170.0 0.999558 -80.04 0.999558 -80.04 0.028853 -170.2
8.68653500 0.028859 -170.0 0.999558 -80.04 0.999558 -80.04 0.028859 -170.2
8.68654000 0.028865 -170.0 0.999558 -80.04 0.999558 -80.04 0.028865 -170.2
8.68654500 0.028872 -170.0 0.999557 -80.04 0.999557 -80.04 0.028871 -170.2
8.68655000 0.028878 -170.0 0.999557 -80.05 0.999557 -80.05 0.028878 -170.2
8.68655500 0.028884 -170.0 0.999557 -80.05 0.999557 -80.05 0.028884 -170.2
8.68656000 0.028890 -170.0 0.999557 -80.05 0.999557 -80.05 0.028890 -170.2
8.68656500 0.028896 -170.0 0.999557 -80.05 0.999557 -80.05 0.028896 -170.2
8.68657000 0.028902 -170.0 0.999556 -80.05 0.999556 -80.05 0.028902 -170.2
8.68657500 0.028909 -170.0 0.999556 -80.05 0.999556 -80.05 0.028908 -170.2
8.68658000 0.028915 -170.0 0.999556 -80.05 0.999556 -80.05 0.028915 -170.2
8.68658500 0.028921 -170.0 0.999556 -80.05 0.999556 -80.05 0.028921 -170.2
8.68659000 0.028927 -170.0 0.999556 -80.05 0.999556 -80.05 0.028927 -170.2
8.68659500 0.028933 -170.0 0.999555 -80.05 0.999555 -80.05 0.028933 -170.2
8.68660000 0.028940 -170.0 0.999555 -80.05 0.999555 -80.05 0.028939 -170.2
8.68660500 0.028946 -170.0 0.999555 -80.05 0.999555 -80.05 0.028946 -170.2
8.68661000 0.028952 -170.0 0.999555 -80.05 0.999555 -80.05 0.028952 -170.2
8.68661500 0.028958 -170.0 0.999554 -80.05 0.999554 -80.05 0.028958 -170.2
8.68662000 0.028964 -170.0 0.999554 -80.05 0.999554 -80.05 0.028964 -170.2
8.68662500 0.028971 -170.0 0.999554 -80.05 0.999554 -80.05 0.028971 -170.2
8.68663000 0.028977 -170.0 0.999554 -80.05 0.999554 -80.05 0.028977 -170.2
8.68663500 0.028983 -170.0 0.999554 -80.05 0.999554 -80.05 0.028983 -170.2
8.68664000 0.028990 -170.0 0.999553 -80.05 0.999553 -80.05 0.028989 -170.2
8.68664500 0.028996 -170.0 0.999553 -80.05 0.999553 -80.05 0.028996 -170.2
8.68665000 0.029002 -170.0 0.999553 -80.05 0.999553 -80.05 0.029002 -170.2
8.68665500 0.029008 -170.0 0.999553 -80.05 0.999553 -80.05 0.029008 -170.2
8.68666000 0.029015 -170.0 0.999553 -80.05 0.999553 -80.05 0.029015 -170.2
8.68666500 0.029021 -170.0 0.999552 -80.05 0.999552 -80.05 0.029021 -170.2
8.68667000 0.029027 -170.0 0.999552 -80.05 0.999552 -80.05 0.029027 -170.2
8.68667500 0.029034 -170.0 0.999552 -80.06 0.999552 -80.06 0.029034 -170.2
8.68668000 0.029040 -170.0 0.999552 -80.06 0.999552 -80.06 0.029040 -170.2
8.68668500 0.029047 -170.0 0.999551 -80.06 0.999551 -80.06 0.029046 -170.2
8.68669000 0.029053 -170.0 0.999551 -80.06 0.999551 -80.06 0.029053 -170.2
8.68669500 0.029059 -170.0 0.999551 -80.06 0.999551 -80.06 0.029059 -170.2
8.68670000 0.029066 -170.0 0.999551 -80.06 0.999551 -80.06 0.029066 -170.2
8.68670500 0.029072 -170.0 0.999551 -80.06 0.999551 -80.06 0.029072 -170.2
8.68671000 0.029078 -170.0 0.999550 -80.06 0.999550 -80.06 0.029078 -170.2
8.68671500 0.029085 -170.0 0.999550 -80.06 0.999550 -80.06 0.029085 -170.2
8.68672000 0.029091 -170.0 0.999550 -80.06 0.999550 -80.06 0.029091 -170.2
8.68672500 0.029098 -170.0 0.999550 -80.06 0.999550 -80.06 0.029098 -170.2
8.68673000 0.029104 -170.0 0.999549 -80.06 0.999549 -80.06 0.029104 -170.2
8.68673500 0.029111 -170.0 0.999549 -80.06 0.999549 -80.06 0.029111 -170.2
8.68674000 0.029117 -170.0 0.999549 -80.06 0.999549 -80.06 0.029117 -170.2
8.68674500 0.029124 -170.0 0.999549 -80.06 0.999549 -80.06 0.029123 -170.2
8.68675000 0.029130 -170.0 0.999549 -80.06 0.999549 -80.06 0.029130 -170.2
8.68675500 0.029137 -170.0 0.999548 -80.06 0.999548 -80.06 0.029136 -170.2
8.68676000 0.029143 -170.0 0.999548 -80.06 0.999548 -80.06 0.029143 -170.2
8.68676500 0.029150 -170.0 0.999548 -80.06 0.999548 -80.06 0.029149 -170.2
8.68677000 0.029156 -170.0 0.999548 -80.06 0.999548 -80.06 0.029156 -170.2
8.68677500 0.029163 -170.0 0.999547 -80.06 0.999547 -80.06 0.029162 -170.2
8.68678000 0.029169 -170.0 0.999547 -80.06 0.999547 -80.06 0.029169 -170.2
8.68678500 0.029176 -170.0 0.999547 -80.06 0.999547 -80.06 0.029176 -170.2
8.68679000 0.029182 -170.0 0.999547 -80.06 0.999547 -80.06 0.029182 -170.2
8.68679500 0.029189 -170.0 0.999547 -80.07 0.999547 -80.07 0.029189 -170.2
8.68680000 0.029195 -170.0 0.999546 -80.07 0.999546 -80.07 0.029195 -170.2
8.68680500 0.029202 -170.0 0.999546 -80.07 0.999546 -80.07 0.029202 -170.2
8.68681000 0.029209 -170.0 0.999546 -80.07 0.999546 -80.07 0.029208 -170.2
8.68681500 0.029215 -170.0 0.999546 -80.07 0.999546 -80.07 0.029215 -170.2
8.68682000 0.029222 -170.0 0.999545 -80.07 0.999545 -80.07 0.029222 -170.2
8.68682500 0.029228 -170.0 0.999545 -80.07 0.999545 -80.07 0.029228 -170.2
8.68683000 0.029235 -170.0 0.999545 -80.07 0.999545 -80.07 0.029235 -170.2
8.68683500 0.029242 -170.0 0.999545 -80.07 0.999545 -80.07 0.029242 -170.2
8.68684000 0.029248 -170.0 0.999544 -80.07 0.999544 -80.07 0.029248 -170.2
8.68684500 0.029255 -170.0 0.999544 -80.07 0.999544 -80.07 0.029255 -170.2
8.68685000 0.029262 -170.0 0.999544 -80.07 0.999544 -80.07 0.029262 -170.2
8.68685500 0.029268 -170.0 0.999544 -80.07 0.999544 -80.07 0.029268 -170.2
8.68686000 0.029275 -170.0 0.999544 -80.07 0.999544 -80.07 0.029275 -170.2
8.68686500 0.029282 -170.0 0.999543 -80.07 0.999543 -80.07 0.029282 -170.2
8.68687000 0.029288 -170.0 0.999543 -80.07 0.999543 -80.07 0.029288 -170.2
8.68687500 0.029295 -170.0 0.999543 -80.07 0.999543 -80.07 0.029295 -170.2
8.68688000 0.029302 -170.0 0.999543 -80.07 0.999543 -80.07 0.029302 -170.2
8.68688500 0.029309 -170.0 0.999542 -80.07 0.999542 -80.07 0.029309 -170.2
8.68689000 0.029315 -170.0 0.999542 -80.07 0.999542 -80.07 0.029315 -170.2
8.68689500 0.029322 -170.0 0.999542 -80.07 0.999542 -80.07 0.029322 -170.2
8.68690000 0.029329 -170.0 0.999542 -80.07 0.999542 -80.07 0.029329 -170.2
8.68690500 0.029336 -170.0 0.999541 -80.07 0.999541 -80.07 0.029336 -170.2
8.68691000 0.029343 -170.0 0.999541 -80.08 0.999541 -80.08 0.029342 -170.2
8.68691500 0.029349 -170.0 0.999541 -80.08 0.999541 -80.08 0.029349 -170.2
8.68692000 0.029356 -170.0 0.999541 -80.08 0.999541 -80.08 0.029356 -170.2
8.68692500 0.029363 -170.0 0.999541 -80.08 0.999541 -80.08 0.029363 -170.2
8.68693000 0.029370 -170.0 0.999540 -80.08 0.999540 -80.08 0.029370 -170.2
8.68693500 0.029377 -170.0 0.999540 -80.08 0.999540 -80.08 0.029376 -170.2
8.68694000 0.029383 -170.0 0.999540 -80.08 0.999540 -80.08 0.029383 -170.2
8.68694500 0.029390 -170.0 0.999540 -80.08 0.999540 -80.08 0.029390 -170.2
8.68695000 0.029397 -170.0 0.999539 -80.08 0.999539 -80.08 0.029397 -170.2
8.68695500 0.029404 -170.0 0.999539 -80.08 0.999539 -80.08 0.029404 -170.2