! Sonnet Data File
! From: emgraph Version : 16.52
! From Project: Qubit_Xmon2_brg_para
! Data is De-embedded 
! Data File Written: 10/25/2017 15:52:25
!< HDATE 10/25/2017 13:56:11
!< MDATE 10/25/2017 13:56:11
!< PARAMS
!< Lj = 11.0
!< Gap = 6.0
!< Pwid = 2000.0
!< Airgap = 6.0
!< Width = 10.0
!< Bwid = 8.0
!< Dis1 = 450.0
!< Dis2 = 456.0
!< END PARAMS
# GHZ S MA R 51.80000
8.76000000 0.003879 -170.3 0.999988 -80.38 0.999988 -80.38 0.003879 -170.6
!< P1 F=8.76 Eeff=(6.44679147 -2.9786e-5) Z0=(51.7991429 1.19067e-4) R=0.0 C=0.0 
!< P2 F=8.76 Eeff=(6.44679147 -2.9786e-5) Z0=(51.7991429 1.19067e-4) R=0.0 C=0.0 
8.76002000 0.003880 -170.3 0.999988 -80.38 0.999988 -80.38 0.003880 -170.6
8.76004000 0.003881 -170.3 0.999988 -80.38 0.999988 -80.38 0.003881 -170.6
8.76006000 0.003881 -170.3 0.999988 -80.38 0.999988 -80.38 0.003881 -170.6
8.76008000 0.003882 -170.3 0.999988 -80.38 0.999988 -80.38 0.003882 -170.6
8.76010000 0.003883 -170.3 0.999988 -80.38 0.999988 -80.38 0.003883 -170.6
8.76012000 0.003884 -170.3 0.999988 -80.38 0.999988 -80.38 0.003884 -170.6
8.76014000 0.003885 -170.3 0.999988 -80.38 0.999988 -80.38 0.003885 -170.6
8.76016000 0.003886 -170.3 0.999988 -80.38 0.999988 -80.38 0.003886 -170.6
8.76018000 0.003887 -170.3 0.999988 -80.38 0.999988 -80.38 0.003887 -170.6
8.76020000 0.003888 -170.3 0.999988 -80.38 0.999988 -80.38 0.003888 -170.6
8.76022000 0.003889 -170.3 0.999988 -80.38 0.999988 -80.38 0.003889 -170.6
8.76024000 0.003890 -170.3 0.999988 -80.38 0.999988 -80.38 0.003890 -170.6
8.76026000 0.003890 -170.3 0.999988 -80.39 0.999988 -80.39 0.003890 -170.6
8.76028000 0.003891 -170.3 0.999988 -80.39 0.999988 -80.39 0.003891 -170.6
8.76030000 0.003892 -170.3 0.999988 -80.39 0.999988 -80.39 0.003892 -170.6
8.76032000 0.003893 -170.3 0.999988 -80.39 0.999988 -80.39 0.003893 -170.6
8.76034000 0.003894 -170.3 0.999988 -80.39 0.999988 -80.39 0.003894 -170.6
8.76036000 0.003895 -170.3 0.999988 -80.39 0.999988 -80.39 0.003895 -170.6
8.76038000 0.003896 -170.3 0.999988 -80.39 0.999988 -80.39 0.003896 -170.6
8.76040000 0.003897 -170.3 0.999988 -80.39 0.999988 -80.39 0.003897 -170.6
8.76042000 0.003898 -170.3 0.999988 -80.39 0.999988 -80.39 0.003898 -170.6
8.76044000 0.003899 -170.3 0.999988 -80.39 0.999988 -80.39 0.003899 -170.6
8.76046000 0.003899 -170.3 0.999988 -80.39 0.999988 -80.39 0.003899 -170.6
8.76048000 0.003900 -170.3 0.999988 -80.39 0.999988 -80.39 0.003900 -170.6
8.76050000 0.003901 -170.3 0.999988 -80.39 0.999988 -80.39 0.003901 -170.6
8.76052000 0.003902 -170.3 0.999988 -80.39 0.999988 -80.39 0.003902 -170.6
8.76054000 0.003903 -170.3 0.999988 -80.39 0.999988 -80.39 0.003903 -170.6
8.76056000 0.003904 -170.3 0.999988 -80.39 0.999988 -80.39 0.003904 -170.6
8.76058000 0.003905 -170.3 0.999988 -80.39 0.999988 -80.39 0.003905 -170.6
8.76060000 0.003906 -170.3 0.999988 -80.39 0.999988 -80.39 0.003906 -170.6
8.76062000 0.003907 -170.3 0.999988 -80.39 0.999988 -80.39 0.003907 -170.6
8.76064000 0.003908 -170.3 0.999988 -80.39 0.999988 -80.39 0.003908 -170.6
8.76066000 0.003909 -170.3 0.999988 -80.39 0.999988 -80.39 0.003909 -170.6
8.76068000 0.003909 -170.3 0.999988 -80.39 0.999988 -80.39 0.003909 -170.6
8.76070000 0.003910 -170.3 0.999988 -80.39 0.999988 -80.39 0.003910 -170.6
8.76072000 0.003911 -170.3 0.999988 -80.39 0.999988 -80.39 0.003911 -170.6
8.76074000 0.003912 -170.3 0.999988 -80.39 0.999988 -80.39 0.003912 -170.6
8.76076000 0.003913 -170.3 0.999988 -80.39 0.999988 -80.39 0.003913 -170.6
8.76078000 0.003914 -170.3 0.999988 -80.39 0.999988 -80.39 0.003914 -170.6
8.76080000 0.003915 -170.3 0.999988 -80.39 0.999988 -80.39 0.003915 -170.6
8.76082000 0.003916 -170.3 0.999988 -80.39 0.999988 -80.39 0.003916 -170.6
8.76084000 0.003917 -170.3 0.999988 -80.39 0.999988 -80.39 0.003917 -170.6
8.76086000 0.003918 -170.3 0.999988 -80.39 0.999988 -80.39 0.003918 -170.6
8.76088000 0.003919 -170.3 0.999988 -80.39 0.999988 -80.39 0.003919 -170.6
8.76090000 0.003920 -170.3 0.999988 -80.39 0.999988 -80.39 0.003920 -170.6
8.76092000 0.003921 -170.3 0.999988 -80.39 0.999988 -80.39 0.003921 -170.6
8.76094000 0.003922 -170.3 0.999988 -80.39 0.999988 -80.39 0.003921 -170.6
8.76096000 0.003922 -170.3 0.999988 -80.39 0.999988 -80.39 0.003922 -170.6
8.76098000 0.003923 -170.3 0.999988 -80.39 0.999988 -80.39 0.003923 -170.6
8.76100000 0.003924 -170.3 0.999988 -80.39 0.999988 -80.39 0.003924 -170.6
8.76102000 0.003925 -170.3 0.999988 -80.39 0.999988 -80.39 0.003925 -170.6
8.76104000 0.003926 -170.3 0.999988 -80.39 0.999988 -80.39 0.003926 -170.6
8.76106000 0.003927 -170.3 0.999988 -80.39 0.999988 -80.39 0.003927 -170.6
8.76108000 0.003928 -170.3 0.999988 -80.39 0.999988 -80.39 0.003928 -170.6
8.76110000 0.003929 -170.3 0.999988 -80.40 0.999988 -80.40 0.003929 -170.6
8.76112000 0.003930 -170.3 0.999988 -80.40 0.999988 -80.40 0.003930 -170.6
8.76114000 0.003931 -170.3 0.999988 -80.40 0.999988 -80.40 0.003931 -170.6
8.76116000 0.003932 -170.3 0.999988 -80.40 0.999988 -80.40 0.003932 -170.6
8.76118000 0.003933 -170.3 0.999988 -80.40 0.999988 -80.40 0.003933 -170.6
8.76120000 0.003934 -170.3 0.999988 -80.40 0.999988 -80.40 0.003934 -170.6
8.76122000 0.003935 -170.3 0.999988 -80.40 0.999988 -80.40 0.003935 -170.6
8.76124000 0.003936 -170.3 0.999988 -80.40 0.999988 -80.40 0.003936 -170.6
8.76126000 0.003937 -170.3 0.999988 -80.40 0.999988 -80.40 0.003937 -170.6
8.76128000 0.003937 -170.3 0.999988 -80.40 0.999988 -80.40 0.003937 -170.6
8.76130000 0.003938 -170.3 0.999988 -80.40 0.999988 -80.40 0.003938 -170.6
8.76132000 0.003939 -170.3 0.999988 -80.40 0.999988 -80.40 0.003939 -170.6
8.76134000 0.003940 -170.3 0.999988 -80.40 0.999988 -80.40 0.003940 -170.6
8.76136000 0.003941 -170.3 0.999988 -80.40 0.999988 -80.40 0.003941 -170.6
8.76138000 0.003942 -170.3 0.999988 -80.40 0.999988 -80.40 0.003942 -170.6
8.76140000 0.003943 -170.3 0.999988 -80.40 0.999988 -80.40 0.003943 -170.6
8.76142000 0.003944 -170.3 0.999988 -80.40 0.999988 -80.40 0.003944 -170.6
8.76144000 0.003945 -170.3 0.999988 -80.40 0.999988 -80.40 0.003945 -170.6
8.76146000 0.003946 -170.3 0.999988 -80.40 0.999988 -80.40 0.003946 -170.6
8.76148000 0.003947 -170.3 0.999988 -80.40 0.999988 -80.40 0.003947 -170.6
8.76150000 0.003948 -170.3 0.999988 -80.40 0.999988 -80.40 0.003948 -170.6
8.76152000 0.003949 -170.3 0.999988 -80.40 0.999988 -80.40 0.003949 -170.6
8.76154000 0.003950 -170.3 0.999988 -80.40 0.999988 -80.40 0.003950 -170.6
8.76156000 0.003951 -170.3 0.999988 -80.40 0.999988 -80.40 0.003951 -170.6
8.76158000 0.003952 -170.3 0.999988 -80.40 0.999988 -80.40 0.003952 -170.6
8.76160000 0.003953 -170.3 0.999988 -80.40 0.999988 -80.40 0.003953 -170.6
8.76162000 0.003954 -170.3 0.999988 -80.40 0.999988 -80.40 0.003954 -170.6
8.76164000 0.003955 -170.3 0.999988 -80.40 0.999988 -80.40 0.003955 -170.6
8.76166000 0.003956 -170.3 0.999988 -80.40 0.999988 -80.40 0.003956 -170.6
8.76168000 0.003957 -170.3 0.999988 -80.40 0.999988 -80.40 0.003957 -170.6
8.76170000 0.003958 -170.3 0.999988 -80.40 0.999988 -80.40 0.003958 -170.6
8.76172000 0.003959 -170.3 0.999988 -80.40 0.999988 -80.40 0.003959 -170.6
8.76174000 0.003959 -170.3 0.999988 -80.40 0.999988 -80.40 0.003959 -170.6
8.76176000 0.003960 -170.3 0.999988 -80.40 0.999988 -80.40 0.003960 -170.6
8.76178000 0.003961 -170.3 0.999988 -80.40 0.999988 -80.40 0.003961 -170.6
8.76180000 0.003962 -170.3 0.999988 -80.40 0.999988 -80.40 0.003962 -170.6
8.76182000 0.003963 -170.3 0.999988 -80.40 0.999988 -80.40 0.003963 -170.6
8.76184000 0.003964 -170.3 0.999988 -80.40 0.999988 -80.40 0.003964 -170.6
8.76186000 0.003965 -170.3 0.999988 -80.40 0.999988 -80.40 0.003965 -170.6
8.76188000 0.003966 -170.3 0.999988 -80.40 0.999988 -80.40 0.003966 -170.6
8.76190000 0.003967 -170.3 0.999988 -80.40 0.999988 -80.40 0.003967 -170.6
8.76192000 0.003968 -170.3 0.999988 -80.40 0.999988 -80.40 0.003968 -170.6
8.76194000 0.003969 -170.3 0.999988 -80.41 0.999988 -80.41 0.003969 -170.6
8.76196000 0.003970 -170.3 0.999988 -80.41 0.999988 -80.41 0.003970 -170.6
8.76198000 0.003971 -170.3 0.999988 -80.41 0.999988 -80.41 0.003971 -170.6
8.76200000 0.003972 -170.3 0.999988 -80.41 0.999988 -80.41 0.003972 -170.6
8.76202000 0.003973 -170.3 0.999988 -80.41 0.999988 -80.41 0.003973 -170.6
8.76204000 0.003974 -170.3 0.999988 -80.41 0.999988 -80.41 0.003974 -170.6
8.76206000 0.003975 -170.3 0.999988 -80.41 0.999988 -80.41 0.003975 -170.6
8.76208000 0.003976 -170.3 0.999988 -80.41 0.999988 -80.41 0.003976 -170.6
8.76210000 0.003977 -170.3 0.999988 -80.41 0.999988 -80.41 0.003977 -170.6
8.76212000 0.003978 -170.3 0.999988 -80.41 0.999988 -80.41 0.003978 -170.6
8.76214000 0.003979 -170.3 0.999988 -80.41 0.999988 -80.41 0.003979 -170.6
8.76216000 0.003980 -170.3 0.999988 -80.41 0.999988 -80.41 0.003980 -170.6
8.76218000 0.003981 -170.3 0.999988 -80.41 0.999988 -80.41 0.003981 -170.6
8.76220000 0.003982 -170.3 0.999988 -80.41 0.999988 -80.41 0.003982 -170.6
8.76222000 0.003983 -170.3 0.999988 -80.41 0.999988 -80.41 0.003983 -170.6
8.76224000 0.003984 -170.3 0.999988 -80.41 0.999988 -80.41 0.003984 -170.6
8.76226000 0.003985 -170.3 0.999988 -80.41 0.999988 -80.41 0.003985 -170.6
8.76228000 0.003986 -170.3 0.999988 -80.41 0.999988 -80.41 0.003986 -170.6
8.76230000 0.003987 -170.3 0.999988 -80.41 0.999988 -80.41 0.003987 -170.6
8.76232000 0.003988 -170.3 0.999988 -80.41 0.999988 -80.41 0.003988 -170.6
8.76234000 0.003989 -170.3 0.999988 -80.41 0.999988 -80.41 0.003989 -170.6
8.76236000 0.003990 -170.3 0.999988 -80.41 0.999988 -80.41 0.003990 -170.6
8.76238000 0.003991 -170.3 0.999988 -80.41 0.999988 -80.41 0.003991 -170.6
8.76240000 0.003992 -170.3 0.999988 -80.41 0.999988 -80.41 0.003992 -170.6
8.76242000 0.003993 -170.3 0.999988 -80.41 0.999988 -80.41 0.003993 -170.6
8.76244000 0.003994 -170.3 0.999988 -80.41 0.999988 -80.41 0.003994 -170.6
8.76246000 0.003995 -170.3 0.999988 -80.41 0.999988 -80.41 0.003995 -170.6
8.76248000 0.003996 -170.3 0.999988 -80.41 0.999988 -80.41 0.003996 -170.6
8.76250000 0.003997 -170.3 0.999988 -80.41 0.999988 -80.41 0.003997 -170.6
8.76252000 0.003998 -170.3 0.999988 -80.41 0.999988 -80.41 0.003998 -170.6
8.76254000 0.003999 -170.3 0.999988 -80.41 0.999988 -80.41 0.003999 -170.6
8.76256000 0.004000 -170.3 0.999988 -80.41 0.999988 -80.41 0.004000 -170.6
8.76258000 0.004001 -170.3 0.999988 -80.41 0.999988 -80.41 0.004001 -170.6
8.76260000 0.004002 -170.3 0.999988 -80.41 0.999988 -80.41 0.004002 -170.6
8.76262000 0.004003 -170.3 0.999988 -80.41 0.999988 -80.41 0.004003 -170.6
8.76264000 0.004004 -170.3 0.999988 -80.41 0.999988 -80.41 0.004004 -170.6
8.76266000 0.004005 -170.3 0.999988 -80.41 0.999988 -80.41 0.004005 -170.6
8.76268000 0.004006 -170.3 0.999988 -80.41 0.999988 -80.41 0.004006 -170.6
8.76270000 0.004007 -170.3 0.999988 -80.41 0.999988 -80.41 0.004007 -170.6
8.76272000 0.004008 -170.3 0.999988 -80.41 0.999988 -80.41 0.004008 -170.6
8.76274000 0.004009 -170.3 0.999988 -80.41 0.999988 -80.41 0.004009 -170.6
8.76276000 0.004010 -170.3 0.999988 -80.41 0.999988 -80.41 0.004010 -170.6
8.76278000 0.004011 -170.3 0.999988 -80.42 0.999988 -80.42 0.004011 -170.6
8.76280000 0.004012 -170.3 0.999988 -80.42 0.999988 -80.42 0.004012 -170.6
8.76282000 0.004013 -170.3 0.999988 -80.42 0.999988 -80.42 0.004013 -170.6
8.76284000 0.004014 -170.3 0.999988 -80.42 0.999988 -80.42 0.004014 -170.6
8.76286000 0.004015 -170.3 0.999988 -80.42 0.999988 -80.42 0.004015 -170.6
8.76288000 0.004016 -170.3 0.999988 -80.42 0.999988 -80.42 0.004016 -170.6
8.76290000 0.004017 -170.3 0.999988 -80.42 0.999988 -80.42 0.004017 -170.6
8.76292000 0.004018 -170.3 0.999988 -80.42 0.999988 -80.42 0.004018 -170.6
8.76294000 0.004020 -170.3 0.999988 -80.42 0.999988 -80.42 0.004019 -170.6
8.76296000 0.004021 -170.3 0.999988 -80.42 0.999988 -80.42 0.004021 -170.6
8.76298000 0.004022 -170.3 0.999988 -80.42 0.999988 -80.42 0.004022 -170.6
8.76300000 0.004023 -170.3 0.999988 -80.42 0.999988 -80.42 0.004023 -170.6
8.76302000 0.004024 -170.3 0.999988 -80.42 0.999988 -80.42 0.004024 -170.6
8.76304000 0.004025 -170.3 0.999988 -80.42 0.999988 -80.42 0.004025 -170.6
8.76306000 0.004026 -170.3 0.999988 -80.42 0.999988 -80.42 0.004026 -170.6
8.76308000 0.004027 -170.3 0.999988 -80.42 0.999988 -80.42 0.004027 -170.6
8.76310000 0.004028 -170.3 0.999988 -80.42 0.999988 -80.42 0.004028 -170.6
8.76312000 0.004029 -170.3 0.999988 -80.42 0.999988 -80.42 0.004029 -170.6
8.76314000 0.004030 -170.3 0.999988 -80.42 0.999988 -80.42 0.004030 -170.6
8.76316000 0.004031 -170.3 0.999988 -80.42 0.999988 -80.42 0.004031 -170.6
8.76318000 0.004032 -170.3 0.999988 -80.42 0.999988 -80.42 0.004032 -170.6
8.76320000 0.004033 -170.3 0.999988 -80.42 0.999988 -80.42 0.004033 -170.6
8.76322000 0.004034 -170.3 0.999988 -80.42 0.999988 -80.42 0.004034 -170.6
8.76324000 0.004035 -170.3 0.999988 -80.42 0.999988 -80.42 0.004035 -170.6
8.76326000 0.004036 -170.3 0.999988 -80.42 0.999988 -80.42 0.004036 -170.6
8.76328000 0.004037 -170.3 0.999988 -80.42 0.999988 -80.42 0.004037 -170.6
8.76330000 0.004038 -170.3 0.999988 -80.42 0.999988 -80.42 0.004038 -170.6
8.76332000 0.004039 -170.3 0.999988 -80.42 0.999988 -80.42 0.004039 -170.6
8.76334000 0.004040 -170.3 0.999988 -80.42 0.999988 -80.42 0.004040 -170.6
8.76336000 0.004041 -170.3 0.999988 -80.42 0.999988 -80.42 0.004041 -170.6
8.76338000 0.004042 -170.3 0.999988 -80.42 0.999988 -80.42 0.004042 -170.6
8.76340000 0.004044 -170.3 0.999988 -80.42 0.999988 -80.42 0.004044 -170.6
8.76342000 0.004045 -170.3 0.999988 -80.42 0.999988 -80.42 0.004045 -170.6
8.76344000 0.004046 -170.3 0.999988 -80.42 0.999988 -80.42 0.004046 -170.6
8.76346000 0.004047 -170.3 0.999988 -80.42 0.999988 -80.42 0.004047 -170.6
8.76348000 0.004048 -170.3 0.999988 -80.42 0.999988 -80.42 0.004048 -170.6
8.76350000 0.004049 -170.3 0.999988 -80.42 0.999988 -80.42 0.004049 -170.6
8.76352000 0.004050 -170.3 0.999988 -80.42 0.999988 -80.42 0.004050 -170.6
8.76354000 0.004051 -170.3 0.999988 -80.42 0.999988 -80.42 0.004051 -170.6
8.76356000 0.004052 -170.3 0.999988 -80.42 0.999988 -80.42 0.004052 -170.6
8.76358000 0.004053 -170.3 0.999988 -80.42 0.999988 -80.42 0.004053 -170.6
8.76360000 0.004054 -170.3 0.999988 -80.43 0.999988 -80.43 0.004054 -170.6
8.76362000 0.004055 -170.3 0.999988 -80.43 0.999988 -80.43 0.004055 -170.6
8.76364000 0.004056 -170.3 0.999988 -80.43 0.999988 -80.43 0.004056 -170.6
8.76366000 0.004057 -170.3 0.999988 -80.43 0.999988 -80.43 0.004057 -170.6
8.76368000 0.004058 -170.3 0.999988 -80.43 0.999988 -80.43 0.004058 -170.6
8.76370000 0.004060 -170.3 0.999988 -80.43 0.999988 -80.43 0.004060 -170.6
8.76372000 0.004061 -170.3 0.999988 -80.43 0.999988 -80.43 0.004061 -170.6
8.76374000 0.004062 -170.3 0.999988 -80.43 0.999988 -80.43 0.004062 -170.6
8.76376000 0.004063 -170.3 0.999988 -80.43 0.999988 -80.43 0.004063 -170.6
8.76378000 0.004064 -170.3 0.999988 -80.43 0.999988 -80.43 0.004064 -170.6
8.76380000 0.004065 -170.3 0.999988 -80.43 0.999988 -80.43 0.004065 -170.6
8.76382000 0.004066 -170.3 0.999988 -80.43 0.999988 -80.43 0.004066 -170.6
8.76384000 0.004067 -170.3 0.999988 -80.43 0.999988 -80.43 0.004067 -170.6
8.76386000 0.004068 -170.3 0.999987 -80.43 0.999987 -80.43 0.004068 -170.6
8.76388000 0.004069 -170.3 0.999987 -80.43 0.999987 -80.43 0.004069 -170.6
8.76390000 0.004070 -170.3 0.999987 -80.43 0.999987 -80.43 0.004070 -170.6
8.76392000 0.004071 -170.3 0.999987 -80.43 0.999987 -80.43 0.004071 -170.6
8.76394000 0.004073 -170.3 0.999987 -80.43 0.999987 -80.43 0.004073 -170.6
8.76396000 0.004074 -170.3 0.999987 -80.43 0.999987 -80.43 0.004074 -170.6
8.76398000 0.004075 -170.3 0.999987 -80.43 0.999987 -80.43 0.004075 -170.6
8.76400000 0.004076 -170.3 0.999987 -80.43 0.999987 -80.43 0.004076 -170.6
8.76402000 0.004077 -170.3 0.999987 -80.43 0.999987 -80.43 0.004077 -170.6
8.76404000 0.004078 -170.3 0.999987 -80.43 0.999987 -80.43 0.004078 -170.6
8.76406000 0.004079 -170.3 0.999987 -80.43 0.999987 -80.43 0.004079 -170.6
8.76408000 0.004080 -170.3 0.999987 -80.43 0.999987 -80.43 0.004080 -170.6
8.76410000 0.004081 -170.3 0.999987 -80.43 0.999987 -80.43 0.004081 -170.6
8.76412000 0.004082 -170.3 0.999987 -80.43 0.999987 -80.43 0.004082 -170.6
8.76414000 0.004084 -170.3 0.999987 -80.43 0.999987 -80.43 0.004084 -170.6
8.76416000 0.004085 -170.3 0.999987 -80.43 0.999987 -80.43 0.004085 -170.6
8.76418000 0.004086 -170.3 0.999987 -80.43 0.999987 -80.43 0.004086 -170.6
8.76420000 0.004087 -170.3 0.999987 -80.43 0.999987 -80.43 0.004087 -170.6
8.76422000 0.004088 -170.3 0.999987 -80.43 0.999987 -80.43 0.004088 -170.6
8.76424000 0.004089 -170.3 0.999987 -80.43 0.999987 -80.43 0.004089 -170.6
8.76426000 0.004090 -170.3 0.999987 -80.43 0.999987 -80.43 0.004090 -170.6
8.76428000 0.004091 -170.3 0.999987 -80.43 0.999987 -80.43 0.004091 -170.6
8.76430000 0.004092 -170.3 0.999987 -80.43 0.999987 -80.43 0.004092 -170.6
8.76432000 0.004093 -170.3 0.999987 -80.43 0.999987 -80.43 0.004093 -170.6
8.76434000 0.004095 -170.3 0.999987 -80.43 0.999987 -80.43 0.004095 -170.6
8.76436000 0.004096 -170.3 0.999987 -80.43 0.999987 -80.43 0.004096 -170.6
8.76438000 0.004097 -170.3 0.999987 -80.43 0.999987 -80.43 0.004097 -170.7
8.76440000 0.004098 -170.3 0.999987 -80.43 0.999987 -80.43 0.004098 -170.7
8.76442000 0.004099 -170.3 0.999987 -80.44 0.999987 -80.44 0.004099 -170.7
8.76444000 0.004100 -170.3 0.999987 -80.44 0.999987 -80.44 0.004100 -170.7
8.76446000 0.004101 -170.3 0.999987 -80.44 0.999987 -80.44 0.004101 -170.7
8.76448000 0.004102 -170.3 0.999987 -80.44 0.999987 -80.44 0.004102 -170.7
8.76450000 0.004104 -170.3 0.999987 -80.44 0.999987 -80.44 0.004104 -170.7
8.76452000 0.004105 -170.3 0.999987 -80.44 0.999987 -80.44 0.004105 -170.7
8.76454000 0.004106 -170.3 0.999987 -80.44 0.999987 -80.44 0.004106 -170.7
8.76456000 0.004107 -170.3 0.999987 -80.44 0.999987 -80.44 0.004107 -170.7
8.76458000 0.004108 -170.3 0.999987 -80.44 0.999987 -80.44 0.004108 -170.7
8.76460000 0.004109 -170.3 0.999987 -80.44 0.999987 -80.44 0.004109 -170.7
8.76462000 0.004110 -170.3 0.999987 -80.44 0.999987 -80.44 0.004110 -170.7
8.76464000 0.004111 -170.3 0.999987 -80.44 0.999987 -80.44 0.004111 -170.7
8.76466000 0.004113 -170.3 0.999987 -80.44 0.999987 -80.44 0.004113 -170.7
8.76468000 0.004114 -170.3 0.999987 -80.44 0.999987 -80.44 0.004114 -170.7
8.76470000 0.004115 -170.3 0.999987 -80.44 0.999987 -80.44 0.004115 -170.7
8.76472000 0.004116 -170.3 0.999987 -80.44 0.999987 -80.44 0.004116 -170.7
8.76474000 0.004117 -170.3 0.999987 -80.44 0.999987 -80.44 0.004117 -170.7
8.76476000 0.004118 -170.3 0.999987 -80.44 0.999987 -80.44 0.004118 -170.7
8.76478000 0.004119 -170.3 0.999987 -80.44 0.999987 -80.44 0.004119 -170.7
8.76480000 0.004121 -170.3 0.999987 -80.44 0.999987 -80.44 0.004121 -170.7
8.76482000 0.004122 -170.3 0.999987 -80.44 0.999987 -80.44 0.004122 -170.7
8.76484000 0.004123 -170.3 0.999987 -80.44 0.999987 -80.44 0.004123 -170.7
8.76486000 0.004124 -170.3 0.999987 -80.44 0.999987 -80.44 0.004124 -170.7
8.76488000 0.004125 -170.3 0.999987 -80.44 0.999987 -80.44 0.004125 -170.7
8.76490000 0.004126 -170.3 0.999987 -80.44 0.999987 -80.44 0.004126 -170.7
8.76492000 0.004127 -170.3 0.999987 -80.44 0.999987 -80.44 0.004127 -170.7
8.76494000 0.004129 -170.3 0.999987 -80.44 0.999987 -80.44 0.004129 -170.7
8.76496000 0.004130 -170.3 0.999987 -80.44 0.999987 -80.44 0.004130 -170.7
8.76498000 0.004131 -170.3 0.999987 -80.44 0.999987 -80.44 0.004131 -170.7
8.76500000 0.004132 -170.3 0.999987 -80.44 0.999987 -80.44 0.004132 -170.7
8.76502000 0.004133 -170.3 0.999987 -80.44 0.999987 -80.44 0.004133 -170.7
8.76504000 0.004134 -170.3 0.999987 -80.44 0.999987 -80.44 0.004134 -170.7
8.76506000 0.004136 -170.3 0.999987 -80.44 0.999987 -80.44 0.004136 -170.7
8.76508000 0.004137 -170.3 0.999987 -80.44 0.999987 -80.44 0.004137 -170.7
8.76510000 0.004138 -170.3 0.999987 -80.44 0.999987 -80.44 0.004138 -170.7
8.76512000 0.004139 -170.3 0.999987 -80.44 0.999987 -80.44 0.004139 -170.7
8.76514000 0.004140 -170.3 0.999987 -80.44 0.999987 -80.44 0.004140 -170.7
8.76516000 0.004141 -170.3 0.999987 -80.44 0.999987 -80.44 0.004141 -170.7
8.76518000 0.004143 -170.3 0.999987 -80.44 0.999987 -80.44 0.004143 -170.7
8.76520000 0.004144 -170.3 0.999987 -80.44 0.999987 -80.44 0.004144 -170.7
8.76522000 0.004145 -170.3 0.999987 -80.45 0.999987 -80.45 0.004145 -170.7
8.76524000 0.004146 -170.3 0.999987 -80.45 0.999987 -80.45 0.004146 -170.7
8.76526000 0.004147 -170.3 0.999987 -80.45 0.999987 -80.45 0.004147 -170.7
8.76528000 0.004148 -170.3 0.999987 -80.45 0.999987 -80.45 0.004148 -170.7
8.76530000 0.004150 -170.3 0.999987 -80.45 0.999987 -80.45 0.004150 -170.7
8.76532000 0.004151 -170.3 0.999987 -80.45 0.999987 -80.45 0.004151 -170.7
8.76534000 0.004152 -170.3 0.999987 -80.45 0.999987 -80.45 0.004152 -170.7
8.76536000 0.004153 -170.3 0.999987 -80.45 0.999987 -80.45 0.004153 -170.7
8.76538000 0.004154 -170.3 0.999987 -80.45 0.999987 -80.45 0.004154 -170.7
8.76540000 0.004155 -170.3 0.999987 -80.45 0.999987 -80.45 0.004155 -170.7
8.76542000 0.004157 -170.3 0.999987 -80.45 0.999987 -80.45 0.004157 -170.7
8.76544000 0.004158 -170.3 0.999987 -80.45 0.999987 -80.45 0.004158 -170.7
8.76546000 0.004159 -170.3 0.999987 -80.45 0.999987 -80.45 0.004159 -170.7
8.76548000 0.004160 -170.3 0.999987 -80.45 0.999987 -80.45 0.004160 -170.7
8.76550000 0.004161 -170.3 0.999987 -80.45 0.999987 -80.45 0.004161 -170.7
8.76552000 0.004163 -170.3 0.999987 -80.45 0.999987 -80.45 0.004163 -170.7
8.76554000 0.004164 -170.3 0.999987 -80.45 0.999987 -80.45 0.004164 -170.7
8.76556000 0.004165 -170.3 0.999987 -80.45 0.999987 -80.45 0.004165 -170.7
8.76558000 0.004166 -170.3 0.999987 -80.45 0.999987 -80.45 0.004166 -170.7
8.76560000 0.004167 -170.3 0.999987 -80.45 0.999987 -80.45 0.004167 -170.7
8.76562000 0.004169 -170.3 0.999987 -80.45 0.999987 -80.45 0.004169 -170.7
8.76564000 0.004170 -170.3 0.999987 -80.45 0.999987 -80.45 0.004170 -170.7
8.76566000 0.004171 -170.3 0.999987 -80.45 0.999987 -80.45 0.004171 -170.7
8.76568000 0.004172 -170.3 0.999987 -80.45 0.999987 -80.45 0.004172 -170.7
8.76570000 0.004173 -170.3 0.999987 -80.45 0.999987 -80.45 0.004173 -170.7
8.76572000 0.004175 -170.3 0.999987 -80.45 0.999987 -80.45 0.004175 -170.7
8.76574000 0.004176 -170.3 0.999987 -80.45 0.999987 -80.45 0.004176 -170.7
8.76576000 0.004177 -170.3 0.999987 -80.45 0.999987 -80.45 0.004177 -170.7
8.76578000 0.004178 -170.3 0.999987 -80.45 0.999987 -80.45 0.004178 -170.7
8.76580000 0.004179 -170.3 0.999987 -80.45 0.999987 -80.45 0.004179 -170.7
8.76582000 0.004181 -170.3 0.999987 -80.45 0.999987 -80.45 0.004181 -170.7
8.76584000 0.004182 -170.3 0.999987 -80.45 0.999987 -80.45 0.004182 -170.7
8.76586000 0.004183 -170.3 0.999987 -80.45 0.999987 -80.45 0.004183 -170.7
8.76588000 0.004184 -170.3 0.999987 -80.45 0.999987 -80.45 0.004184 -170.7
8.76590000 0.004186 -170.3 0.999987 -80.45 0.999987 -80.45 0.004186 -170.7
8.76592000 0.004187 -170.3 0.999987 -80.45 0.999987 -80.45 0.004187 -170.7
8.76594000 0.004188 -170.3 0.999987 -80.45 0.999987 -80.45 0.004188 -170.7
8.76596000 0.004189 -170.3 0.999987 -80.45 0.999987 -80.45 0.004189 -170.7
8.76598000 0.004190 -170.3 0.999987 -80.45 0.999987 -80.45 0.004190 -170.7
8.76600000 0.004192 -170.3 0.999987 -80.45 0.999987 -80.45 0.004192 -170.7
8.76602000 0.004193 -170.3 0.999987 -80.46 0.999987 -80.46 0.004193 -170.7
8.76604000 0.004194 -170.3 0.999987 -80.46 0.999987 -80.46 0.004194 -170.7
8.76606000 0.004195 -170.3 0.999987 -80.46 0.999987 -80.46 0.004195 -170.7
8.76608000 0.004197 -170.3 0.999987 -80.46 0.999987 -80.46 0.004197 -170.7
8.76610000 0.004198 -170.3 0.999987 -80.46 0.999987 -80.46 0.004198 -170.7
8.76612000 0.004199 -170.3 0.999987 -80.46 0.999987 -80.46 0.004199 -170.7
8.76614000 0.004200 -170.3 0.999987 -80.46 0.999987 -80.46 0.004200 -170.7
8.76616000 0.004201 -170.3 0.999987 -80.46 0.999987 -80.46 0.004201 -170.7
8.76618000 0.004203 -170.3 0.999987 -80.46 0.999987 -80.46 0.004203 -170.7
8.76620000 0.004204 -170.3 0.999987 -80.46 0.999987 -80.46 0.004204 -170.7
8.76622000 0.004205 -170.3 0.999987 -80.46 0.999987 -80.46 0.004205 -170.7
8.76624000 0.004206 -170.3 0.999987 -80.46 0.999987 -80.46 0.004206 -170.7
8.76626000 0.004208 -170.3 0.999987 -80.46 0.999987 -80.46 0.004208 -170.7
8.76628000 0.004209 -170.3 0.999987 -80.46 0.999987 -80.46 0.004209 -170.7
8.76630000 0.004210 -170.3 0.999987 -80.46 0.999987 -80.46 0.004210 -170.7
8.76632000 0.004211 -170.3 0.999987 -80.46 0.999987 -80.46 0.004211 -170.7
8.76634000 0.004213 -170.3 0.999987 -80.46 0.999987 -80.46 0.004213 -170.7
8.76636000 0.004214 -170.3 0.999987 -80.46 0.999987 -80.46 0.004214 -170.7
8.76638000 0.004215 -170.3 0.999987 -80.46 0.999987 -80.46 0.004215 -170.7
8.76640000 0.004216 -170.3 0.999987 -80.46 0.999987 -80.46 0.004216 -170.7
8.76642000 0.004218 -170.3 0.999987 -80.46 0.999987 -80.46 0.004218 -170.7
8.76644000 0.004219 -170.3 0.999987 -80.46 0.999987 -80.46 0.004219 -170.7
8.76646000 0.004220 -170.3 0.999987 -80.46 0.999987 -80.46 0.004220 -170.7
8.76648000 0.004221 -170.3 0.999987 -80.46 0.999987 -80.46 0.004221 -170.7
8.76650000 0.004223 -170.3 0.999987 -80.46 0.999987 -80.46 0.004223 -170.7
8.76652000 0.004224 -170.3 0.999987 -80.46 0.999987 -80.46 0.004224 -170.7
8.76654000 0.004225 -170.3 0.999987 -80.46 0.999987 -80.46 0.004225 -170.7
8.76656000 0.004227 -170.3 0.999987 -80.46 0.999987 -80.46 0.004226 -170.7
8.76658000 0.004228 -170.3 0.999987 -80.46 0.999987 -80.46 0.004228 -170.7
8.76660000 0.004229 -170.3 0.999987 -80.46 0.999987 -80.46 0.004229 -170.7
8.76662000 0.004230 -170.3 0.999987 -80.46 0.999987 -80.46 0.004230 -170.7
8.76664000 0.004232 -170.3 0.999987 -80.46 0.999987 -80.46 0.004232 -170.7
8.76666000 0.004233 -170.3 0.999987 -80.46 0.999987 -80.46 0.004233 -170.7
8.76668000 0.004234 -170.3 0.999987 -80.46 0.999987 -80.46 0.004234 -170.7
8.76670000 0.004235 -170.3 0.999987 -80.46 0.999987 -80.46 0.004235 -170.7
8.76672000 0.004237 -170.3 0.999987 -80.46 0.999987 -80.46 0.004237 -170.7
8.76674000 0.004238 -170.3 0.999987 -80.46 0.999987 -80.46 0.004238 -170.7
8.76676000 0.004239 -170.3 0.999987 -80.46 0.999987 -80.46 0.004239 -170.7
8.76678000 0.004241 -170.3 0.999987 -80.46 0.999987 -80.46 0.004241 -170.7
8.76680000 0.004242 -170.3 0.999987 -80.47 0.999987 -80.47 0.004242 -170.7
8.76682000 0.004243 -170.3 0.999987 -80.47 0.999987 -80.47 0.004243 -170.7
8.76684000 0.004244 -170.3 0.999987 -80.47 0.999987 -80.47 0.004244 -170.7
8.76686000 0.004246 -170.3 0.999987 -80.47 0.999987 -80.47 0.004246 -170.7
8.76688000 0.004247 -170.3 0.999987 -80.47 0.999987 -80.47 0.004247 -170.7
8.76690000 0.004248 -170.3 0.999987 -80.47 0.999987 -80.47 0.004248 -170.7
8.76692000 0.004250 -170.3 0.999987 -80.47 0.999987 -80.47 0.004250 -170.7
8.76694000 0.004251 -170.3 0.999987 -80.47 0.999987 -80.47 0.004251 -170.7
8.76696000 0.004252 -170.3 0.999987 -80.47 0.999987 -80.47 0.004252 -170.7
8.76698000 0.004253 -170.3 0.999987 -80.47 0.999987 -80.47 0.004253 -170.7
8.76700000 0.004255 -170.3 0.999987 -80.47 0.999987 -80.47 0.004255 -170.7
8.76702000 0.004256 -170.3 0.999987 -80.47 0.999987 -80.47 0.004256 -170.7
8.76704000 0.004257 -170.3 0.999987 -80.47 0.999987 -80.47 0.004257 -170.7
8.76706000 0.004259 -170.3 0.999987 -80.47 0.999987 -80.47 0.004259 -170.7
8.76708000 0.004260 -170.3 0.999986 -80.47 0.999986 -80.47 0.004260 -170.7
8.76710000 0.004261 -170.3 0.999986 -80.47 0.999986 -80.47 0.004261 -170.7
8.76712000 0.004263 -170.3 0.999986 -80.47 0.999986 -80.47 0.004263 -170.7
8.76714000 0.004264 -170.3 0.999986 -80.47 0.999986 -80.47 0.004264 -170.7
8.76716000 0.004265 -170.3 0.999986 -80.47 0.999986 -80.47 0.004265 -170.7
8.76718000 0.004267 -170.3 0.999986 -80.47 0.999986 -80.47 0.004267 -170.7
8.76720000 0.004268 -170.3 0.999986 -80.47 0.999986 -80.47 0.004268 -170.7
8.76722000 0.004269 -170.3 0.999986 -80.47 0.999986 -80.47 0.004269 -170.7
8.76724000 0.004270 -170.3 0.999986 -80.47 0.999986 -80.47 0.004270 -170.7
8.76726000 0.004272 -170.3 0.999986 -80.47 0.999986 -80.47 0.004272 -170.7
8.76728000 0.004273 -170.3 0.999986 -80.47 0.999986 -80.47 0.004273 -170.7
8.76730000 0.004274 -170.3 0.999986 -80.47 0.999986 -80.47 0.004274 -170.7
8.76732000 0.004276 -170.3 0.999986 -80.47 0.999986 -80.47 0.004276 -170.7
8.76734000 0.004277 -170.3 0.999986 -80.47 0.999986 -80.47 0.004277 -170.7
8.76736000 0.004278 -170.3 0.999986 -80.47 0.999986 -80.47 0.004278 -170.7
8.76738000 0.004280 -170.3 0.999986 -80.47 0.999986 -80.47 0.004280 -170.7
8.76740000 0.004281 -170.3 0.999986 -80.47 0.999986 -80.47 0.004281 -170.7
8.76742000 0.004282 -170.3 0.999986 -80.47 0.999986 -80.47 0.004282 -170.7
8.76744000 0.004284 -170.3 0.999986 -80.47 0.999986 -80.47 0.004284 -170.7
8.76746000 0.004285 -170.3 0.999986 -80.47 0.999986 -80.47 0.004285 -170.7
8.76748000 0.004286 -170.3 0.999986 -80.47 0.999986 -80.47 0.004286 -170.7
8.76750000 0.004288 -170.3 0.999986 -80.47 0.999986 -80.47 0.004288 -170.7
8.76752000 0.004289 -170.3 0.999986 -80.47 0.999986 -80.47 0.004289 -170.7
8.76754000 0.004290 -170.3 0.999986 -80.47 0.999986 -80.47 0.004290 -170.7
8.76756000 0.004292 -170.3 0.999986 -80.47 0.999986 -80.47 0.004292 -170.7
8.76758000 0.004293 -170.3 0.999986 -80.48 0.999986 -80.48 0.004293 -170.7
8.76760000 0.004294 -170.3 0.999986 -80.48 0.999986 -80.48 0.004294 -170.7
8.76762000 0.004296 -170.3 0.999986 -80.48 0.999986 -80.48 0.004296 -170.7
8.76764000 0.004297 -170.3 0.999986 -80.48 0.999986 -80.48 0.004297 -170.7
8.76766000 0.004299 -170.3 0.999986 -80.48 0.999986 -80.48 0.004299 -170.7
8.76768000 0.004300 -170.3 0.999986 -80.48 0.999986 -80.48 0.004300 -170.7
8.76770000 0.004301 -170.3 0.999986 -80.48 0.999986 -80.48 0.004301 -170.7
8.76772000 0.004303 -170.3 0.999986 -80.48 0.999986 -80.48 0.004303 -170.7
8.76774000 0.004304 -170.3 0.999986 -80.48 0.999986 -80.48 0.004304 -170.7
8.76776000 0.004305 -170.3 0.999986 -80.48 0.999986 -80.48 0.004305 -170.7
8.76778000 0.004307 -170.3 0.999986 -80.48 0.999986 -80.48 0.004307 -170.7
8.76780000 0.004308 -170.3 0.999986 -80.48 0.999986 -80.48 0.004308 -170.7
8.76782000 0.004309 -170.3 0.999986 -80.48 0.999986 -80.48 0.004309 -170.7