! Sonnet Data File
! From: emgraph Version : 16.52
! From Emgraph Data: Qubit_Xmon2_brgDb
! Data File Written: 10/26/2017 13:09:46
!< HDATE 10/25/2017 23:47:25
!< MDATE 10/25/2017 23:47:25
!< PARAMS
!< Lj = 11.0
!< Gap = 6.0
!< Pwid = 2000.0
!< Width = 10.0
!< Bwid = 8.0
!< Dis1 = 350.0
!< END PARAMS
# GHZ S MA R 51.80000
8.74000000 0.015087 -170.5 0.999856 -80.78 0.999856 -80.78 0.015087 -171.3
!< P1 F=8.74 Eeff=(6.44680411 -2.9786e-5) Z0=(51.7992029 1.19069e-4) R=0.0 C=0.0 
!< P2 F=8.74 Eeff=(6.44680411 -2.9786e-5) Z0=(51.7992029 1.19069e-4) R=0.0 C=0.0 
8.74001000 0.015101 -170.5 0.999856 -80.78 0.999856 -80.78 0.015101 -171.3
8.74002000 0.015116 -170.5 0.999856 -80.78 0.999856 -80.78 0.015116 -171.3
8.74003000 0.015130 -170.5 0.999855 -80.78 0.999855 -80.78 0.015130 -171.3
8.74004000 0.015145 -170.5 0.999855 -80.78 0.999855 -80.78 0.015145 -171.3
8.74005000 0.015160 -170.5 0.999855 -80.78 0.999855 -80.78 0.015159 -171.3
8.74006000 0.015174 -170.5 0.999854 -80.78 0.999854 -80.78 0.015174 -171.3
8.74007000 0.015189 -170.5 0.999854 -80.78 0.999854 -80.78 0.015189 -171.3
8.74008000 0.015204 -170.5 0.999854 -80.78 0.999854 -80.78 0.015204 -171.3
8.74009000 0.015219 -170.5 0.999854 -80.79 0.999854 -80.79 0.015219 -171.3
8.74010000 0.015234 -170.5 0.999853 -80.79 0.999853 -80.79 0.015233 -171.3
8.74011000 0.015248 -170.5 0.999853 -80.79 0.999853 -80.79 0.015248 -171.3
8.74012000 0.015263 -170.5 0.999853 -80.79 0.999853 -80.79 0.015263 -171.3
8.74013000 0.015278 -170.5 0.999852 -80.79 0.999852 -80.79 0.015278 -171.3
8.74014000 0.015293 -170.5 0.999852 -80.79 0.999852 -80.79 0.015293 -171.3
8.74015000 0.015309 -170.5 0.999852 -80.79 0.999852 -80.79 0.015308 -171.3
8.74016000 0.015324 -170.5 0.999851 -80.79 0.999851 -80.79 0.015324 -171.3
8.74017000 0.015339 -170.5 0.999851 -80.79 0.999851 -80.79 0.015339 -171.3
8.74018000 0.015354 -170.5 0.999851 -80.79 0.999851 -80.79 0.015354 -171.3
8.74019000 0.015369 -170.5 0.999850 -80.79 0.999850 -80.79 0.015369 -171.3
8.74020000 0.015385 -170.5 0.999850 -80.80 0.999850 -80.80 0.015385 -171.3
8.74021000 0.015400 -170.5 0.999850 -80.80 0.999850 -80.80 0.015400 -171.3
8.74022000 0.015416 -170.5 0.999849 -80.80 0.999849 -80.80 0.015415 -171.3
8.74023000 0.015431 -170.5 0.999849 -80.80 0.999849 -80.80 0.015431 -171.3
8.74024000 0.015447 -170.5 0.999849 -80.80 0.999849 -80.80 0.015446 -171.3
8.74025000 0.015462 -170.5 0.999848 -80.80 0.999848 -80.80 0.015462 -171.3
8.74026000 0.015478 -170.5 0.999848 -80.80 0.999848 -80.80 0.015478 -171.3
8.74027000 0.015493 -170.5 0.999848 -80.80 0.999848 -80.80 0.015493 -171.3
8.74028000 0.015509 -170.5 0.999847 -80.80 0.999847 -80.80 0.015509 -171.3
8.74029000 0.015525 -170.5 0.999847 -80.80 0.999847 -80.80 0.015525 -171.3
8.74030000 0.015541 -170.5 0.999847 -80.81 0.999847 -80.81 0.015540 -171.3
8.74031000 0.015556 -170.5 0.999846 -80.81 0.999846 -80.81 0.015556 -171.3
8.74032000 0.015572 -170.5 0.999846 -80.81 0.999846 -80.81 0.015572 -171.3
8.74033000 0.015588 -170.5 0.999846 -80.81 0.999846 -80.81 0.015588 -171.3
8.74034000 0.015604 -170.5 0.999845 -80.81 0.999845 -80.81 0.015604 -171.4
8.74035000 0.015620 -170.5 0.999845 -80.81 0.999845 -80.81 0.015620 -171.4
8.74036000 0.015636 -170.5 0.999845 -80.81 0.999845 -80.81 0.015636 -171.4
8.74037000 0.015653 -170.5 0.999844 -80.81 0.999844 -80.81 0.015652 -171.4
8.74038000 0.015669 -170.5 0.999844 -80.81 0.999844 -80.81 0.015669 -171.4
8.74039000 0.015685 -170.5 0.999844 -80.81 0.999844 -80.81 0.015685 -171.4
8.74040000 0.015701 -170.5 0.999843 -80.82 0.999843 -80.82 0.015701 -171.4
8.74041000 0.015718 -170.5 0.999843 -80.82 0.999843 -80.82 0.015717 -171.4
8.74042000 0.015734 -170.5 0.999843 -80.82 0.999843 -80.82 0.015734 -171.4
8.74043000 0.015750 -170.5 0.999842 -80.82 0.999842 -80.82 0.015750 -171.4
8.74044000 0.015767 -170.5 0.999842 -80.82 0.999842 -80.82 0.015767 -171.4
8.74045000 0.015784 -170.5 0.999842 -80.82 0.999842 -80.82 0.015783 -171.4
8.74046000 0.015800 -170.5 0.999841 -80.82 0.999841 -80.82 0.015800 -171.4
8.74047000 0.015817 -170.5 0.999841 -80.82 0.999841 -80.82 0.015817 -171.4
8.74048000 0.015833 -170.5 0.999841 -80.82 0.999841 -80.82 0.015833 -171.4
8.74049000 0.015850 -170.5 0.999840 -80.83 0.999840 -80.83 0.015850 -171.4
8.74050000 0.015867 -170.5 0.999840 -80.83 0.999840 -80.83 0.015867 -171.4
8.74051000 0.015884 -170.5 0.999839 -80.83 0.999839 -80.83 0.015884 -171.4
8.74052000 0.015901 -170.5 0.999839 -80.83 0.999839 -80.83 0.015901 -171.4
8.74053000 0.015918 -170.5 0.999839 -80.83 0.999839 -80.83 0.015918 -171.4
8.74054000 0.015935 -170.5 0.999838 -80.83 0.999838 -80.83 0.015935 -171.4
8.74055000 0.015952 -170.5 0.999838 -80.83 0.999838 -80.83 0.015952 -171.4
8.74056000 0.015969 -170.5 0.999838 -80.83 0.999838 -80.83 0.015969 -171.4
8.74057000 0.015986 -170.5 0.999837 -80.83 0.999837 -80.83 0.015986 -171.4
8.74058000 0.016003 -170.5 0.999837 -80.83 0.999837 -80.83 0.016003 -171.4
8.74059000 0.016021 -170.5 0.999836 -80.84 0.999836 -80.84 0.016021 -171.4
8.74060000 0.016038 -170.5 0.999836 -80.84 0.999836 -80.84 0.016038 -171.4
8.74061000 0.016056 -170.5 0.999836 -80.84 0.999836 -80.84 0.016055 -171.4
8.74062000 0.016073 -170.5 0.999835 -80.84 0.999835 -80.84 0.016073 -171.4
8.74063000 0.016091 -170.5 0.999835 -80.84 0.999835 -80.84 0.016090 -171.4
8.74064000 0.016108 -170.5 0.999835 -80.84 0.999835 -80.84 0.016108 -171.4
8.74065000 0.016126 -170.5 0.999834 -80.84 0.999834 -80.84 0.016126 -171.4
8.74066000 0.016143 -170.5 0.999834 -80.84 0.999834 -80.84 0.016143 -171.4
8.74067000 0.016161 -170.5 0.999833 -80.84 0.999833 -80.84 0.016161 -171.4
8.74068000 0.016179 -170.5 0.999833 -80.85 0.999833 -80.85 0.016179 -171.4
8.74069000 0.016197 -170.5 0.999833 -80.85 0.999833 -80.85 0.016197 -171.4
8.74070000 0.016215 -170.5 0.999832 -80.85 0.999832 -80.85 0.016215 -171.4
8.74071000 0.016233 -170.5 0.999832 -80.85 0.999832 -80.85 0.016233 -171.4
8.74072000 0.016251 -170.5 0.999831 -80.85 0.999831 -80.85 0.016251 -171.4
8.74073000 0.016269 -170.5 0.999831 -80.85 0.999831 -80.85 0.016269 -171.4
8.74074000 0.016287 -170.5 0.999831 -80.85 0.999831 -80.85 0.016287 -171.4
8.74075000 0.016305 -170.5 0.999830 -80.85 0.999830 -80.85 0.016305 -171.4
8.74076000 0.016324 -170.5 0.999830 -80.85 0.999830 -80.85 0.016323 -171.4
8.74077000 0.016342 -170.6 0.999829 -80.86 0.999829 -80.86 0.016342 -171.4
8.74078000 0.016360 -170.6 0.999829 -80.86 0.999829 -80.86 0.016360 -171.4
8.74079000 0.016379 -170.6 0.999828 -80.86 0.999828 -80.86 0.016379 -171.4
8.74080000 0.016397 -170.6 0.999828 -80.86 0.999828 -80.86 0.016397 -171.4
8.74081000 0.016416 -170.6 0.999828 -80.86 0.999828 -80.86 0.016416 -171.4
8.74082000 0.016435 -170.6 0.999827 -80.86 0.999827 -80.86 0.016434 -171.4
8.74083000 0.016453 -170.6 0.999827 -80.86 0.999827 -80.86 0.016453 -171.4
8.74084000 0.016472 -170.6 0.999826 -80.86 0.999826 -80.86 0.016472 -171.4
8.74085000 0.016491 -170.6 0.999826 -80.87 0.999826 -80.87 0.016491 -171.4
8.74086000 0.016510 -170.6 0.999826 -80.87 0.999826 -80.87 0.016510 -171.4
8.74087000 0.016529 -170.6 0.999825 -80.87 0.999825 -80.87 0.016529 -171.4
8.74088000 0.016548 -170.6 0.999825 -80.87 0.999825 -80.87 0.016548 -171.4
8.74089000 0.016567 -170.6 0.999824 -80.87 0.999824 -80.87 0.016567 -171.4
8.74090000 0.016586 -170.6 0.999824 -80.87 0.999824 -80.87 0.016586 -171.4
8.74091000 0.016605 -170.6 0.999823 -80.87 0.999823 -80.87 0.016605 -171.4
8.74092000 0.016625 -170.6 0.999823 -80.87 0.999823 -80.87 0.016624 -171.4
8.74093000 0.016644 -170.6 0.999822 -80.87 0.999822 -80.87 0.016644 -171.4
8.74094000 0.016663 -170.6 0.999822 -80.88 0.999822 -80.88 0.016663 -171.4
8.74095000 0.016683 -170.6 0.999822 -80.88 0.999822 -80.88 0.016683 -171.4
8.74096000 0.016702 -170.6 0.999821 -80.88 0.999821 -80.88 0.016702 -171.4
8.74097000 0.016722 -170.6 0.999821 -80.88 0.999821 -80.88 0.016722 -171.4
8.74098000 0.016742 -170.6 0.999820 -80.88 0.999820 -80.88 0.016741 -171.4
8.74099000 0.016761 -170.6 0.999820 -80.88 0.999820 -80.88 0.016761 -171.5
8.74100000 0.016781 -170.6 0.999819 -80.88 0.999819 -80.88 0.016781 -171.5
8.74101000 0.016801 -170.6 0.999819 -80.88 0.999819 -80.88 0.016801 -171.5
8.74102000 0.016821 -170.6 0.999818 -80.89 0.999818 -80.89 0.016821 -171.5
8.74103000 0.016841 -170.6 0.999818 -80.89 0.999818 -80.89 0.016841 -171.5
8.74104000 0.016861 -170.6 0.999817 -80.89 0.999817 -80.89 0.016861 -171.5
8.74105000 0.016881 -170.6 0.999817 -80.89 0.999817 -80.89 0.016881 -171.5
8.74106000 0.016902 -170.6 0.999817 -80.89 0.999817 -80.89 0.016901 -171.5
8.74107000 0.016922 -170.6 0.999816 -80.89 0.999816 -80.89 0.016922 -171.5
8.74108000 0.016942 -170.6 0.999816 -80.89 0.999816 -80.89 0.016942 -171.5
8.74109000 0.016963 -170.6 0.999815 -80.89 0.999815 -80.89 0.016963 -171.5
8.74110000 0.016983 -170.6 0.999815 -80.90 0.999815 -80.90 0.016983 -171.5
8.74111000 0.017004 -170.6 0.999814 -80.90 0.999814 -80.90 0.017004 -171.5
8.74112000 0.017024 -170.6 0.999814 -80.90 0.999814 -80.90 0.017024 -171.5
8.74113000 0.017045 -170.6 0.999813 -80.90 0.999813 -80.90 0.017045 -171.5
8.74114000 0.017066 -170.6 0.999813 -80.90 0.999813 -80.90 0.017066 -171.5
8.74115000 0.017087 -170.6 0.999812 -80.90 0.999812 -80.90 0.017087 -171.5
8.74116000 0.017108 -170.6 0.999812 -80.90 0.999812 -80.90 0.017108 -171.5
8.74117000 0.017129 -170.6 0.999811 -80.90 0.999811 -80.90 0.017129 -171.5
8.74118000 0.017150 -170.6 0.999811 -80.91 0.999811 -80.91 0.017150 -171.5
8.74119000 0.017171 -170.6 0.999810 -80.91 0.999810 -80.91 0.017171 -171.5
8.74120000 0.017192 -170.6 0.999810 -80.91 0.999810 -80.91 0.017192 -171.5
8.74121000 0.017214 -170.6 0.999809 -80.91 0.999809 -80.91 0.017214 -171.5
8.74122000 0.017235 -170.6 0.999809 -80.91 0.999809 -80.91 0.017235 -171.5
8.74123000 0.017257 -170.6 0.999808 -80.91 0.999808 -80.91 0.017256 -171.5
8.74124000 0.017278 -170.6 0.999808 -80.91 0.999808 -80.91 0.017278 -171.5
8.74125000 0.017300 -170.6 0.999807 -80.92 0.999807 -80.92 0.017300 -171.5
8.74126000 0.017321 -170.6 0.999807 -80.92 0.999807 -80.92 0.017321 -171.5
8.74127000 0.017343 -170.6 0.999806 -80.92 0.999806 -80.92 0.017343 -171.5
8.74128000 0.017365 -170.6 0.999806 -80.92 0.999806 -80.92 0.017365 -171.5
8.74129000 0.017387 -170.6 0.999805 -80.92 0.999805 -80.92 0.017387 -171.5
8.74130000 0.017409 -170.6 0.999804 -80.92 0.999804 -80.92 0.017409 -171.5
8.74131000 0.017431 -170.6 0.999804 -80.92 0.999804 -80.92 0.017431 -171.5
8.74132000 0.017453 -170.6 0.999803 -80.92 0.999803 -80.92 0.017453 -171.5
8.74133000 0.017476 -170.6 0.999803 -80.93 0.999803 -80.93 0.017475 -171.5
8.74134000 0.017498 -170.6 0.999802 -80.93 0.999802 -80.93 0.017498 -171.5
8.74135000 0.017520 -170.6 0.999802 -80.93 0.999802 -80.93 0.017520 -171.5
8.74136000 0.017543 -170.6 0.999801 -80.93 0.999801 -80.93 0.017543 -171.5
8.74137000 0.017566 -170.6 0.999801 -80.93 0.999801 -80.93 0.017565 -171.5
8.74138000 0.017588 -170.6 0.999800 -80.93 0.999800 -80.93 0.017588 -171.5
8.74139000 0.017611 -170.6 0.999800 -80.93 0.999800 -80.93 0.017611 -171.5
8.74140000 0.017634 -170.6 0.999799 -80.94 0.999799 -80.94 0.017634 -171.5
8.74141000 0.017657 -170.6 0.999798 -80.94 0.999798 -80.94 0.017657 -171.5
8.74142000 0.017680 -170.6 0.999798 -80.94 0.999798 -80.94 0.017680 -171.5
8.74143000 0.017703 -170.6 0.999797 -80.94 0.999797 -80.94 0.017703 -171.5
8.74144000 0.017726 -170.6 0.999797 -80.94 0.999797 -80.94 0.017726 -171.5
8.74145000 0.017749 -170.6 0.999796 -80.94 0.999796 -80.94 0.017749 -171.5
8.74146000 0.017773 -170.6 0.999796 -80.94 0.999796 -80.94 0.017772 -171.5
8.74147000 0.017796 -170.6 0.999795 -80.95 0.999795 -80.95 0.017796 -171.5
8.74148000 0.017820 -170.6 0.999794 -80.95 0.999794 -80.95 0.017819 -171.5
8.74149000 0.017843 -170.7 0.999794 -80.95 0.999794 -80.95 0.017843 -171.5
8.74150000 0.017867 -170.7 0.999793 -80.95 0.999793 -80.95 0.017867 -171.5
8.74151000 0.017891 -170.7 0.999793 -80.95 0.999793 -80.95 0.017891 -171.5
8.74152000 0.017915 -170.7 0.999792 -80.95 0.999792 -80.95 0.017914 -171.5
8.74153000 0.017939 -170.7 0.999792 -80.95 0.999792 -80.95 0.017938 -171.5
8.74154000 0.017963 -170.7 0.999791 -80.96 0.999791 -80.96 0.017962 -171.6
8.74155000 0.017987 -170.7 0.999790 -80.96 0.999790 -80.96 0.017987 -171.6
8.74156000 0.018011 -170.7 0.999790 -80.96 0.999790 -80.96 0.018011 -171.6
8.74157000 0.018035 -170.7 0.999789 -80.96 0.999789 -80.96 0.018035 -171.6
8.74158000 0.018060 -170.7 0.999788 -80.96 0.999788 -80.96 0.018060 -171.6
8.74159000 0.018084 -170.7 0.999788 -80.96 0.999788 -80.96 0.018084 -171.6
8.74160000 0.018109 -170.7 0.999787 -80.96 0.999787 -80.96 0.018109 -171.6
8.74161000 0.018134 -170.7 0.999787 -80.97 0.999787 -80.97 0.018134 -171.6
8.74162000 0.018159 -170.7 0.999786 -80.97 0.999786 -80.97 0.018158 -171.6
8.74163000 0.018183 -170.7 0.999785 -80.97 0.999785 -80.97 0.018183 -171.6
8.74164000 0.018208 -170.7 0.999785 -80.97 0.999785 -80.97 0.018208 -171.6
8.74165000 0.018234 -170.7 0.999784 -80.97 0.999784 -80.97 0.018233 -171.6
8.74166000 0.018259 -170.7 0.999783 -80.97 0.999783 -80.97 0.018259 -171.6
8.74167000 0.018284 -170.7 0.999783 -80.98 0.999783 -80.98 0.018284 -171.6
8.74168000 0.018309 -170.7 0.999782 -80.98 0.999782 -80.98 0.018309 -171.6
8.74169000 0.018335 -170.7 0.999782 -80.98 0.999782 -80.98 0.018335 -171.6
8.74170000 0.018361 -170.7 0.999781 -80.98 0.999781 -80.98 0.018360 -171.6
8.74171000 0.018386 -170.7 0.999780 -80.98 0.999780 -80.98 0.018386 -171.6
8.74172000 0.018412 -170.7 0.999780 -80.98 0.999780 -80.98 0.018412 -171.6
8.74173000 0.018438 -170.7 0.999779 -80.98 0.999779 -80.98 0.018438 -171.6
8.74174000 0.018464 -170.7 0.999778 -80.99 0.999778 -80.99 0.018464 -171.6
8.74175000 0.018490 -170.7 0.999778 -80.99 0.999778 -80.99 0.018490 -171.6
8.74176000 0.018516 -170.7 0.999777 -80.99 0.999777 -80.99 0.018516 -171.6
8.74177000 0.018542 -170.7 0.999776 -80.99 0.999776 -80.99 0.018542 -171.6
8.74178000 0.018569 -170.7 0.999776 -80.99 0.999776 -80.99 0.018569 -171.6
8.74179000 0.018595 -170.7 0.999775 -80.99 0.999775 -80.99 0.018595 -171.6
8.74180000 0.018622 -170.7 0.999774 -81.00 0.999774 -81.00 0.018622 -171.6
8.74181000 0.018649 -170.7 0.999773 -81.00 0.999773 -81.00 0.018649 -171.6
8.74182000 0.018676 -170.7 0.999773 -81.00 0.999773 -81.00 0.018675 -171.6
8.74183000 0.018703 -170.7 0.999772 -81.00 0.999772 -81.00 0.018702 -171.6
8.74184000 0.018730 -170.7 0.999771 -81.00 0.999771 -81.00 0.018729 -171.6
8.74185000 0.018757 -170.7 0.999771 -81.00 0.999771 -81.00 0.018757 -171.6
8.74186000 0.018784 -170.7 0.999770 -81.01 0.999770 -81.01 0.018784 -171.6
8.74187000 0.018811 -170.7 0.999769 -81.01 0.999769 -81.01 0.018811 -171.6
8.74188000 0.018839 -170.7 0.999768 -81.01 0.999768 -81.01 0.018839 -171.6
8.74189000 0.018866 -170.7 0.999768 -81.01 0.999768 -81.01 0.018866 -171.6
8.74190000 0.018894 -170.7 0.999767 -81.01 0.999767 -81.01 0.018894 -171.6
8.74191000 0.018922 -170.7 0.999766 -81.01 0.999766 -81.01 0.018922 -171.6
8.74192000 0.018950 -170.7 0.999766 -81.02 0.999766 -81.02 0.018950 -171.6
8.74193000 0.018978 -170.7 0.999765 -81.02 0.999765 -81.02 0.018978 -171.6
8.74194000 0.019006 -170.7 0.999764 -81.02 0.999764 -81.02 0.019006 -171.6
8.74195000 0.019034 -170.7 0.999763 -81.02 0.999763 -81.02 0.019034 -171.6
8.74196000 0.019063 -170.7 0.999763 -81.02 0.999763 -81.02 0.019063 -171.6
8.74197000 0.019091 -170.7 0.999762 -81.02 0.999762 -81.02 0.019091 -171.6
8.74198000 0.019120 -170.7 0.999761 -81.03 0.999761 -81.03 0.019120 -171.6
8.74199000 0.019149 -170.7 0.999760 -81.03 0.999760 -81.03 0.019148 -171.6
8.74200000 0.019178 -170.7 0.999759 -81.03 0.999759 -81.03 0.019177 -171.7
8.74201000 0.019207 -170.7 0.999759 -81.03 0.999759 -81.03 0.019206 -171.7
8.74202000 0.019236 -170.7 0.999758 -81.03 0.999758 -81.03 0.019235 -171.7
8.74203000 0.019265 -170.7 0.999757 -81.03 0.999757 -81.03 0.019265 -171.7
8.74204000 0.019294 -170.7 0.999756 -81.04 0.999756 -81.04 0.019294 -171.7
8.74205000 0.019324 -170.7 0.999756 -81.04 0.999756 -81.04 0.019323 -171.7
8.74206000 0.019353 -170.8 0.999755 -81.04 0.999755 -81.04 0.019353 -171.7
8.74207000 0.019383 -170.8 0.999754 -81.04 0.999754 -81.04 0.019383 -171.7
8.74208000 0.019413 -170.8 0.999753 -81.04 0.999753 -81.04 0.019413 -171.7
8.74209000 0.019443 -170.8 0.999752 -81.05 0.999752 -81.05 0.019443 -171.7
8.74210000 0.019473 -170.8 0.999751 -81.05 0.999751 -81.05 0.019473 -171.7
8.74211000 0.019503 -170.8 0.999751 -81.05 0.999751 -81.05 0.019503 -171.7
8.74212000 0.019534 -170.8 0.999750 -81.05 0.999750 -81.05 0.019533 -171.7
8.74213000 0.019564 -170.8 0.999749 -81.05 0.999749 -81.05 0.019564 -171.7
8.74214000 0.019595 -170.8 0.999748 -81.05 0.999748 -81.05 0.019594 -171.7
8.74215000 0.019625 -170.8 0.999747 -81.06 0.999747 -81.06 0.019625 -171.7
8.74216000 0.019656 -170.8 0.999746 -81.06 0.999746 -81.06 0.019656 -171.7
8.74217000 0.019687 -170.8 0.999746 -81.06 0.999746 -81.06 0.019687 -171.7
8.74218000 0.019718 -170.8 0.999745 -81.06 0.999745 -81.06 0.019718 -171.7
8.74219000 0.019750 -170.8 0.999744 -81.06 0.999744 -81.06 0.019749 -171.7
8.74220000 0.019781 -170.8 0.999743 -81.07 0.999743 -81.07 0.019781 -171.7
8.74221000 0.019813 -170.8 0.999742 -81.07 0.999742 -81.07 0.019812 -171.7
8.74222000 0.019844 -170.8 0.999741 -81.07 0.999741 -81.07 0.019844 -171.7
8.74223000 0.019876 -170.8 0.999740 -81.07 0.999740 -81.07 0.019876 -171.7
8.74224000 0.019908 -170.8 0.999739 -81.07 0.999739 -81.07 0.019908 -171.7
8.74225000 0.019940 -170.8 0.999739 -81.08 0.999739 -81.08 0.019940 -171.7
8.74226000 0.019972 -170.8 0.999738 -81.08 0.999738 -81.08 0.019972 -171.7
8.74227000 0.020005 -170.8 0.999737 -81.08 0.999737 -81.08 0.020005 -171.7
8.74228000 0.020037 -170.8 0.999736 -81.08 0.999736 -81.08 0.020037 -171.7
8.74229000 0.020070 -170.8 0.999735 -81.08 0.999735 -81.08 0.020070 -171.7
8.74230000 0.020103 -170.8 0.999734 -81.09 0.999734 -81.09 0.020103 -171.7
8.74231000 0.020136 -170.8 0.999733 -81.09 0.999733 -81.09 0.020136 -171.7
8.74232000 0.020169 -170.8 0.999732 -81.09 0.999732 -81.09 0.020169 -171.7
8.74233000 0.020202 -170.8 0.999731 -81.09 0.999731 -81.09 0.020202 -171.7
8.74234000 0.020236 -170.8 0.999730 -81.09 0.999730 -81.09 0.020235 -171.7
8.74235000 0.020269 -170.8 0.999729 -81.10 0.999729 -81.10 0.020269 -171.7
8.74236000 0.020303 -170.8 0.999728 -81.10 0.999728 -81.10 0.020303 -171.7
8.74237000 0.020337 -170.8 0.999727 -81.10 0.999727 -81.10 0.020336 -171.7
8.74238000 0.020371 -170.8 0.999726 -81.10 0.999726 -81.10 0.020370 -171.7
8.74239000 0.020405 -170.8 0.999725 -81.10 0.999725 -81.10 0.020405 -171.8
8.74240000 0.020439 -170.8 0.999724 -81.11 0.999724 -81.11 0.020439 -171.8
8.74241000 0.020474 -170.8 0.999723 -81.11 0.999723 -81.11 0.020473 -171.8
8.74242000 0.020508 -170.8 0.999722 -81.11 0.999722 -81.11 0.020508 -171.8
8.74243000 0.020543 -170.8 0.999721 -81.11 0.999721 -81.11 0.020543 -171.8
8.74244000 0.020578 -170.8 0.999720 -81.11 0.999720 -81.11 0.020578 -171.8
8.74245000 0.020613 -170.8 0.999719 -81.12 0.999719 -81.12 0.020613 -171.8
8.74246000 0.020648 -170.8 0.999718 -81.12 0.999718 -81.12 0.020648 -171.8
8.74247000 0.020684 -170.8 0.999717 -81.12 0.999717 -81.12 0.020683 -171.8
8.74248000 0.020719 -170.8 0.999716 -81.12 0.999716 -81.12 0.020719 -171.8
8.74249000 0.020755 -170.8 0.999715 -81.12 0.999715 -81.12 0.020755 -171.8
8.74250000 0.020791 -170.8 0.999714 -81.13 0.999714 -81.13 0.020791 -171.8
8.74251000 0.020827 -170.9 0.999713 -81.13 0.999713 -81.13 0.020827 -171.8
8.74252000 0.020863 -170.9 0.999712 -81.13 0.999712 -81.13 0.020863 -171.8
8.74253000 0.020900 -170.9 0.999711 -81.13 0.999711 -81.13 0.020899 -171.8
8.74254000 0.020936 -170.9 0.999710 -81.14 0.999710 -81.14 0.020936 -171.8
8.74255000 0.020973 -170.9 0.999709 -81.14 0.999709 -81.14 0.020973 -171.8
8.74256000 0.021010 -170.9 0.999708 -81.14 0.999708 -81.14 0.021010 -171.8
8.74257000 0.021047 -170.9 0.999707 -81.14 0.999707 -81.14 0.021047 -171.8
8.74258000 0.021084 -170.9 0.999705 -81.14 0.999705 -81.14 0.021084 -171.8
8.74259000 0.021122 -170.9 0.999704 -81.15 0.999704 -81.15 0.021121 -171.8
8.74260000 0.021159 -170.9 0.999703 -81.15 0.999703 -81.15 0.021159 -171.8
8.74261000 0.021197 -170.9 0.999702 -81.15 0.999702 -81.15 0.021197 -171.8
8.74262000 0.021235 -170.9 0.999701 -81.15 0.999701 -81.15 0.021235 -171.8
8.74263000 0.021273 -170.9 0.999700 -81.16 0.999700 -81.16 0.021273 -171.8
8.74264000 0.021312 -170.9 0.999699 -81.16 0.999699 -81.16 0.021311 -171.8
8.74265000 0.021350 -170.9 0.999697 -81.16 0.999697 -81.16 0.021350 -171.8
8.74266000 0.021389 -170.9 0.999696 -81.16 0.999696 -81.16 0.021389 -171.8
8.74267000 0.021428 -170.9 0.999695 -81.16 0.999695 -81.16 0.021428 -171.8
8.74268000 0.021467 -170.9 0.999694 -81.17 0.999694 -81.17 0.021467 -171.8
8.74269000 0.021506 -170.9 0.999693 -81.17 0.999693 -81.17 0.021506 -171.8
8.74270000 0.021546 -170.9 0.999692 -81.17 0.999692 -81.17 0.021545 -171.8
8.74271000 0.021585 -170.9 0.999690 -81.17 0.999690 -81.17 0.021585 -171.8
8.74272000 0.021625 -170.9 0.999689 -81.18 0.999689 -81.18 0.021625 -171.9
8.74273000 0.021665 -170.9 0.999688 -81.18 0.999688 -81.18 0.021665 -171.9
8.74274000 0.021706 -170.9 0.999687 -81.18 0.999687 -81.18 0.021705 -171.9
8.74275000 0.021746 -170.9 0.999685 -81.18 0.999685 -81.18 0.021746 -171.9
8.74276000 0.021787 -170.9 0.999684 -81.19 0.999684 -81.19 0.021786 -171.9
8.74277000 0.021827 -170.9 0.999683 -81.19 0.999683 -81.19 0.021827 -171.9
8.74278000 0.021868 -170.9 0.999682 -81.19 0.999682 -81.19 0.021868 -171.9
8.74279000 0.021910 -170.9 0.999680 -81.19 0.999680 -81.19 0.021909 -171.9
8.74280000 0.021951 -170.9 0.999679 -81.20 0.999679 -81.20 0.021951 -171.9
8.74281000 0.021993 -170.9 0.999678 -81.20 0.999678 -81.20 0.021993 -171.9
8.74282000 0.022035 -170.9 0.999676 -81.20 0.999676 -81.20 0.022034 -171.9
8.74283000 0.022077 -170.9 0.999675 -81.20 0.999675 -81.20 0.022076 -171.9
8.74284000 0.022119 -170.9 0.999674 -81.21 0.999674 -81.21 0.022119 -171.9
8.74285000 0.022162 -170.9 0.999672 -81.21 0.999672 -81.21 0.022161 -171.9
8.74286000 0.022204 -170.9 0.999671 -81.21 0.999671 -81.21 0.022204 -171.9
8.74287000 0.022247 -170.9 0.999670 -81.21 0.999670 -81.21 0.022247 -171.9
8.74288000 0.022290 -171.0 0.999668 -81.22 0.999668 -81.22 0.022290 -171.9
8.74289000 0.022334 -171.0 0.999667 -81.22 0.999667 -81.22 0.022333 -171.9
8.74290000 0.022377 -171.0 0.999666 -81.22 0.999666 -81.22 0.022377 -171.9
8.74291000 0.022421 -171.0 0.999664 -81.22 0.999664 -81.22 0.022421 -171.9
8.74292000 0.022465 -171.0 0.999663 -81.23 0.999663 -81.23 0.022465 -171.9
8.74293000 0.022509 -171.0 0.999661 -81.23 0.999661 -81.23 0.022509 -171.9
8.74294000 0.022554 -171.0 0.999660 -81.23 0.999660 -81.23 0.022554 -171.9
8.74295000 0.022599 -171.0 0.999659 -81.23 0.999659 -81.23 0.022598 -171.9
8.74296000 0.022644 -171.0 0.999657 -81.24 0.999657 -81.24 0.022643 -171.9
8.74297000 0.022689 -171.0 0.999656 -81.24 0.999656 -81.24 0.022688 -171.9
8.74298000 0.022734 -171.0 0.999654 -81.24 0.999654 -81.24 0.022734 -171.9
8.74299000 0.022780 -171.0 0.999653 -81.25 0.999653 -81.25 0.022780 -171.9
8.74300000 0.022826 -171.0 0.999651 -81.25 0.999651 -81.25 0.022825 -171.9
8.74301000 0.022872 -171.0 0.999650 -81.25 0.999650 -81.25 0.022872 -171.9
8.74302000 0.022918 -171.0 0.999648 -81.25 0.999648 -81.25 0.022918 -172.0
8.74303000 0.022965 -171.0 0.999647 -81.26 0.999647 -81.26 0.022965 -172.0
8.74304000 0.023012 -171.0 0.999645 -81.26 0.999645 -81.26 0.023011 -172.0
8.74305000 0.023059 -171.0 0.999644 -81.26 0.999644 -81.26 0.023058 -172.0
8.74306000 0.023106 -171.0 0.999642 -81.26 0.999642 -81.26 0.023106 -172.0
8.74307000 0.023154 -171.0 0.999641 -81.27 0.999641 -81.27 0.023153 -172.0
8.74308000 0.023202 -171.0 0.999639 -81.27 0.999639 -81.27 0.023201 -172.0
8.74309000 0.023250 -171.0 0.999637 -81.27 0.999637 -81.27 0.023249 -172.0
8.74310000 0.023298 -171.0 0.999636 -81.28 0.999636 -81.28 0.023298 -172.0
8.74311000 0.023347 -171.0 0.999634 -81.28 0.999634 -81.28 0.023346 -172.0
8.74312000 0.023396 -171.0 0.999632 -81.28 0.999632 -81.28 0.023395 -172.0
8.74313000 0.023445 -171.0 0.999631 -81.28 0.999631 -81.28 0.023445 -172.0
8.74314000 0.023494 -171.0 0.999629 -81.29 0.999629 -81.29 0.023494 -172.0
8.74315000 0.023544 -171.0 0.999628 -81.29 0.999628 -81.29 0.023544 -172.0
8.74316000 0.023594 -171.0 0.999626 -81.29 0.999626 -81.29 0.023594 -172.0
8.74317000 0.023644 -171.0 0.999624 -81.30 0.999624 -81.30 0.023644 -172.0
8.74318000 0.023695 -171.0 0.999622 -81.30 0.999622 -81.30 0.023694 -172.0
8.74319000 0.023746 -171.1 0.999621 -81.30 0.999621 -81.30 0.023745 -172.0
8.74320000 0.023797 -171.1 0.999619 -81.31 0.999619 -81.31 0.023796 -172.0
8.74321000 0.023848 -171.1 0.999617 -81.31 0.999617 -81.31 0.023848 -172.0
8.74322000 0.023900 -171.1 0.999615 -81.31 0.999615 -81.31 0.023899 -172.0
8.74323000 0.023952 -171.1 0.999614 -81.31 0.999614 -81.31 0.023951 -172.0
8.74324000 0.024004 -171.1 0.999612 -81.32 0.999612 -81.32 0.024003 -172.0
8.74325000 0.024056 -171.1 0.999610 -81.32 0.999610 -81.32 0.024056 -172.0
8.74326000 0.024109 -171.1 0.999608 -81.32 0.999608 -81.32 0.024109 -172.0
8.74327000 0.024162 -171.1 0.999606 -81.33 0.999606 -81.33 0.024162 -172.1
8.74328000 0.024216 -171.1 0.999605 -81.33 0.999605 -81.33 0.024215 -172.1
8.74329000 0.024269 -171.1 0.999603 -81.33 0.999603 -81.33 0.024269 -172.1
8.74330000 0.024323 -171.1 0.999601 -81.34 0.999601 -81.34 0.024323 -172.1
8.74331000 0.024378 -171.1 0.999599 -81.34 0.999599 -81.34 0.024377 -172.1
8.74332000 0.024432 -171.1 0.999597 -81.34 0.999597 -81.34 0.024432 -172.1
8.74333000 0.024487 -171.1 0.999595 -81.35 0.999595 -81.35 0.024487 -172.1
8.74334000 0.024543 -171.1 0.999593 -81.35 0.999593 -81.35 0.024542 -172.1
8.74335000 0.024598 -171.1 0.999591 -81.35 0.999591 -81.35 0.024598 -172.1
8.74336000 0.024654 -171.1 0.999589 -81.36 0.999589 -81.36 0.024654 -172.1
8.74337000 0.024710 -171.1 0.999587 -81.36 0.999587 -81.36 0.024710 -172.1
8.74338000 0.024767 -171.1 0.999585 -81.36 0.999585 -81.36 0.024766 -172.1
8.74339000 0.024824 -171.1 0.999583 -81.37 0.999583 -81.37 0.024823 -172.1
8.74340000 0.024881 -171.1 0.999581 -81.37 0.999581 -81.37 0.024880 -172.1
8.74341000 0.024938 -171.1 0.999579 -81.37 0.999579 -81.37 0.024938 -172.1
8.74342000 0.024996 -171.1 0.999577 -81.38 0.999577 -81.38 0.024996 -172.1
8.74343000 0.025054 -171.1 0.999575 -81.38 0.999575 -81.38 0.025054 -172.1
8.74344000 0.025113 -171.1 0.999573 -81.38 0.999573 -81.38 0.025113 -172.1
8.74345000 0.025172 -171.2 0.999571 -81.39 0.999571 -81.39 0.025172 -172.1
8.74346000 0.025231 -171.2 0.999569 -81.39 0.999569 -81.39 0.025231 -172.1
8.74347000 0.025291 -171.2 0.999566 -81.39 0.999566 -81.39 0.025290 -172.1
8.74348000 0.025351 -171.2 0.999564 -81.40 0.999564 -81.40 0.025350 -172.1
8.74349000 0.025411 -171.2 0.999562 -81.40 0.999562 -81.40 0.025411 -172.1
8.74350000 0.025472 -171.2 0.999560 -81.40 0.999560 -81.40 0.025471 -172.2
8.74351000 0.025533 -171.2 0.999558 -81.41 0.999558 -81.41 0.025532 -172.2
8.74352000 0.025594 -171.2 0.999555 -81.41 0.999555 -81.41 0.025594 -172.2
8.74353000 0.025656 -171.2 0.999553 -81.41 0.999553 -81.41 0.025656 -172.2
8.74354000 0.025718 -171.2 0.999551 -81.42 0.999551 -81.42 0.025718 -172.2
8.74355000 0.025781 -171.2 0.999548 -81.42 0.999548 -81.42 0.025780 -172.2
8.74356000 0.025844 -171.2 0.999546 -81.43 0.999546 -81.43 0.025843 -172.2
8.74357000 0.025907 -171.2 0.999544 -81.43 0.999544 -81.43 0.025907 -172.2
8.74358000 0.025971 -171.2 0.999541 -81.43 0.999541 -81.43 0.025970 -172.2
8.74359000 0.026035 -171.2 0.999539 -81.44 0.999539 -81.44 0.026034 -172.2
8.74360000 0.026099 -171.2 0.999537 -81.44 0.999537 -81.44 0.026099 -172.2
8.74361000 0.026164 -171.2 0.999534 -81.44 0.999534 -81.44 0.026164 -172.2
8.74362000 0.026230 -171.2 0.999532 -81.45 0.999532 -81.45 0.026229 -172.2
8.74363000 0.026295 -171.2 0.999529 -81.45 0.999529 -81.45 0.026295 -172.2
8.74364000 0.026361 -171.2 0.999527 -81.46 0.999527 -81.46 0.026361 -172.2
8.74365000 0.026428 -171.2 0.999524 -81.46 0.999524 -81.46 0.026428 -172.2
8.74366000 0.026495 -171.2 0.999522 -81.46 0.999522 -81.46 0.026495 -172.2
8.74367000 0.026562 -171.2 0.999519 -81.47 0.999519 -81.47 0.026562 -172.2
8.74368000 0.026630 -171.3 0.999516 -81.47 0.999516 -81.47 0.026630 -172.2
8.74369000 0.026698 -171.3 0.999514 -81.48 0.999514 -81.48 0.026698 -172.2
8.74370000 0.026767 -171.3 0.999511 -81.48 0.999511 -81.48 0.026767 -172.3
8.74371000 0.026836 -171.3 0.999508 -81.48 0.999508 -81.48 0.026836 -172.3
8.74372000 0.026906 -171.3 0.999506 -81.49 0.999506 -81.49 0.026905 -172.3
8.74373000 0.026976 -171.3 0.999503 -81.49 0.999503 -81.49 0.026975 -172.3
8.74374000 0.027046 -171.3 0.999500 -81.50 0.999500 -81.50 0.027046 -172.3
8.74375000 0.027117 -171.3 0.999498 -81.50 0.999498 -81.50 0.027117 -172.3
8.74376000 0.027189 -171.3 0.999495 -81.50 0.999495 -81.50 0.027188 -172.3
8.74377000 0.027260 -171.3 0.999492 -81.51 0.999492 -81.51 0.027260 -172.3
8.74378000 0.027333 -171.3 0.999489 -81.51 0.999489 -81.51 0.027332 -172.3
8.74379000 0.027406 -171.3 0.999486 -81.52 0.999486 -81.52 0.027405 -172.3
8.74380000 0.027479 -171.3 0.999483 -81.52 0.999483 -81.52 0.027478 -172.3
8.74381000 0.027553 -171.3 0.999480 -81.53 0.999480 -81.53 0.027552 -172.3
8.74382000 0.027627 -171.3 0.999477 -81.53 0.999477 -81.53 0.027626 -172.3
8.74383000 0.027702 -171.3 0.999474 -81.53 0.999474 -81.53 0.027701 -172.3
8.74384000 0.027777 -171.3 0.999471 -81.54 0.999471 -81.54 0.027776 -172.3
8.74385000 0.027853 -171.3 0.999468 -81.54 0.999468 -81.54 0.027852 -172.3
8.74386000 0.027929 -171.3 0.999465 -81.55 0.999465 -81.55 0.027928 -172.3
8.74387000 0.028006 -171.3 0.999462 -81.55 0.999462 -81.55 0.028005 -172.3
8.74388000 0.028083 -171.4 0.999459 -81.56 0.999459 -81.56 0.028082 -172.4
8.74389000 0.028161 -171.4 0.999456 -81.56 0.999456 -81.56 0.028160 -172.4
8.74390000 0.028239 -171.4 0.999453 -81.57 0.999453 -81.57 0.028239 -172.4
8.74391000 0.028318 -171.4 0.999449 -81.57 0.999449 -81.57 0.028318 -172.4
8.74392000 0.028397 -171.4 0.999446 -81.58 0.999446 -81.58 0.028397 -172.4