! Sonnet Data File
! From: emgraph Version : 16.52
! From Emgraph Data: Qubit_Xmon2_brg2
! Data File Written: 10/23/2017 21:19:42
!< HDATE 10/23/2017 20:52:05
!< MDATE 10/23/2017 20:52:05
!< PARAMS
!< Lj = 11.0
!< Gap = 6.0
!< Pwid = 2000.0
!< Width = 10.0
!< Dist = 256.0000835
!< END PARAMS
# GHZ S MA R 51.00000
8.68500000 0.004977 10.273 0.999967 -80.03 0.999967 -80.03 0.004977 10.111
!< P1 F=8.685 Eeff=(6.44683879 -2.9786e-5) Z0=(51.7993663 1.19075e-4) R=0.0 C=0.0 
!< P2 F=8.685 Eeff=(6.44683879 -2.9786e-5) Z0=(51.7993663 1.19075e-4) R=0.0 C=0.0 
8.68500500 0.004972 10.273 0.999967 -80.03 0.999967 -80.03 0.004972 10.111
8.68501000 0.004968 10.273 0.999967 -80.03 0.999967 -80.03 0.004968 10.111
8.68501500 0.004963 10.273 0.999967 -80.03 0.999967 -80.03 0.004963 10.111
8.68502000 0.004958 10.273 0.999967 -80.03 0.999967 -80.03 0.004958 10.112
8.68502500 0.004954 10.273 0.999967 -80.03 0.999967 -80.03 0.004954 10.112
8.68503000 0.004949 10.273 0.999967 -80.03 0.999967 -80.03 0.004949 10.112
8.68503500 0.004944 10.274 0.999967 -80.03 0.999967 -80.03 0.004944 10.112
8.68504000 0.004940 10.274 0.999967 -80.03 0.999967 -80.03 0.004940 10.112
8.68504500 0.004935 10.274 0.999967 -80.03 0.999967 -80.03 0.004935 10.112
8.68505000 0.004930 10.274 0.999967 -80.03 0.999967 -80.03 0.004930 10.113
8.68505500 0.004925 10.274 0.999967 -80.04 0.999967 -80.04 0.004925 10.113
8.68506000 0.004921 10.274 0.999967 -80.04 0.999967 -80.04 0.004921 10.113
8.68506500 0.004916 10.274 0.999967 -80.04 0.999967 -80.04 0.004916 10.113
8.68507000 0.004911 10.274 0.999967 -80.04 0.999967 -80.04 0.004911 10.113
8.68507500 0.004906 10.275 0.999967 -80.04 0.999967 -80.04 0.004906 10.113
8.68508000 0.004902 10.275 0.999967 -80.04 0.999967 -80.04 0.004902 10.114
8.68508500 0.004897 10.275 0.999967 -80.04 0.999967 -80.04 0.004897 10.114
8.68509000 0.004892 10.275 0.999967 -80.04 0.999967 -80.04 0.004892 10.114
8.68509500 0.004887 10.275 0.999967 -80.04 0.999967 -80.04 0.004887 10.114
8.68510000 0.004883 10.275 0.999967 -80.04 0.999967 -80.04 0.004883 10.114
8.68510500 0.004878 10.275 0.999967 -80.04 0.999967 -80.04 0.004878 10.114
8.68511000 0.004873 10.276 0.999967 -80.04 0.999967 -80.04 0.004873 10.115
8.68511500 0.004868 10.276 0.999967 -80.04 0.999967 -80.04 0.004868 10.115
8.68512000 0.004863 10.276 0.999967 -80.04 0.999967 -80.04 0.004863 10.115
8.68512500 0.004859 10.276 0.999967 -80.04 0.999967 -80.04 0.004859 10.115
8.68513000 0.004854 10.276 0.999967 -80.04 0.999967 -80.04 0.004854 10.115
8.68513500 0.004849 10.276 0.999967 -80.04 0.999967 -80.04 0.004849 10.116
8.68514000 0.004844 10.277 0.999967 -80.04 0.999967 -80.04 0.004844 10.116
8.68514500 0.004839 10.277 0.999967 -80.04 0.999967 -80.04 0.004839 10.116
8.68515000 0.004835 10.277 0.999967 -80.04 0.999967 -80.04 0.004835 10.116
8.68515500 0.004830 10.277 0.999967 -80.04 0.999967 -80.04 0.004830 10.116
8.68516000 0.004825 10.277 0.999967 -80.04 0.999967 -80.04 0.004825 10.117
8.68516500 0.004820 10.277 0.999967 -80.04 0.999967 -80.04 0.004820 10.117
8.68517000 0.004815 10.277 0.999967 -80.04 0.999967 -80.04 0.004815 10.117
8.68517500 0.004810 10.278 0.999967 -80.04 0.999967 -80.04 0.004810 10.117
8.68518000 0.004805 10.278 0.999967 -80.04 0.999967 -80.04 0.004805 10.117
8.68518500 0.004801 10.278 0.999967 -80.04 0.999967 -80.04 0.004801 10.117
8.68519000 0.004796 10.278 0.999967 -80.04 0.999967 -80.04 0.004796 10.118
8.68519500 0.004791 10.278 0.999967 -80.04 0.999967 -80.04 0.004791 10.118
8.68520000 0.004786 10.278 0.999967 -80.04 0.999967 -80.04 0.004786 10.118
8.68520500 0.004781 10.279 0.999967 -80.04 0.999967 -80.04 0.004781 10.118
8.68521000 0.004776 10.279 0.999967 -80.05 0.999967 -80.05 0.004776 10.119
8.68521500 0.004771 10.279 0.999967 -80.05 0.999967 -80.05 0.004771 10.119
8.68522000 0.004766 10.279 0.999967 -80.05 0.999967 -80.05 0.004766 10.119
8.68522500 0.004761 10.279 0.999967 -80.05 0.999967 -80.05 0.004761 10.119
8.68523000 0.004756 10.280 0.999967 -80.05 0.999967 -80.05 0.004756 10.119
8.68523500 0.004751 10.280 0.999967 -80.05 0.999967 -80.05 0.004751 10.120
8.68524000 0.004746 10.280 0.999967 -80.05 0.999967 -80.05 0.004746 10.120
8.68524500 0.004742 10.280 0.999967 -80.05 0.999967 -80.05 0.004742 10.120
8.68525000 0.004737 10.280 0.999967 -80.05 0.999967 -80.05 0.004737 10.120
8.68525500 0.004732 10.280 0.999967 -80.05 0.999967 -80.05 0.004732 10.120
8.68526000 0.004727 10.281 0.999967 -80.05 0.999967 -80.05 0.004727 10.121
8.68526500 0.004722 10.281 0.999967 -80.05 0.999967 -80.05 0.004722 10.121
8.68527000 0.004717 10.281 0.999967 -80.05 0.999967 -80.05 0.004717 10.121
8.68527500 0.004712 10.281 0.999967 -80.05 0.999967 -80.05 0.004712 10.121
8.68528000 0.004707 10.281 0.999967 -80.05 0.999967 -80.05 0.004707 10.122
8.68528500 0.004702 10.282 0.999967 -80.05 0.999967 -80.05 0.004702 10.122
8.68529000 0.004697 10.282 0.999967 -80.05 0.999967 -80.05 0.004697 10.122
8.68529500 0.004692 10.282 0.999967 -80.05 0.999967 -80.05 0.004692 10.122
8.68530000 0.004687 10.282 0.999967 -80.05 0.999967 -80.05 0.004687 10.123
8.68530500 0.004682 10.282 0.999967 -80.05 0.999967 -80.05 0.004682 10.123
8.68531000 0.004677 10.283 0.999967 -80.05 0.999967 -80.05 0.004677 10.123
8.68531500 0.004672 10.283 0.999967 -80.05 0.999967 -80.05 0.004672 10.123
8.68532000 0.004667 10.283 0.999967 -80.05 0.999967 -80.05 0.004667 10.124
8.68532500 0.004661 10.283 0.999967 -80.05 0.999967 -80.05 0.004661 10.124
8.68533000 0.004656 10.284 0.999967 -80.05 0.999967 -80.05 0.004656 10.124
8.68533500 0.004651 10.284 0.999967 -80.05 0.999967 -80.05 0.004651 10.124
8.68534000 0.004646 10.284 0.999967 -80.05 0.999967 -80.05 0.004646 10.125
8.68534500 0.004641 10.284 0.999967 -80.05 0.999967 -80.05 0.004641 10.125
8.68535000 0.004636 10.284 0.999967 -80.05 0.999967 -80.05 0.004636 10.125
8.68535500 0.004631 10.285 0.999967 -80.05 0.999967 -80.05 0.004631 10.125
8.68536000 0.004626 10.285 0.999967 -80.06 0.999967 -80.06 0.004626 10.126
8.68536500 0.004621 10.285 0.999967 -80.06 0.999967 -80.06 0.004621 10.126
8.68537000 0.004616 10.285 0.999967 -80.06 0.999967 -80.06 0.004616 10.126
8.68537500 0.004611 10.286 0.999967 -80.06 0.999967 -80.06 0.004611 10.126
8.68538000 0.004606 10.286 0.999967 -80.06 0.999967 -80.06 0.004606 10.127
8.68538500 0.004600 10.286 0.999967 -80.06 0.999967 -80.06 0.004600 10.127
8.68539000 0.004595 10.286 0.999967 -80.06 0.999967 -80.06 0.004595 10.127
8.68539500 0.004590 10.286 0.999967 -80.06 0.999967 -80.06 0.004590 10.127
8.68540000 0.004585 10.287 0.999967 -80.06 0.999967 -80.06 0.004585 10.128
8.68540500 0.004580 10.287 0.999967 -80.06 0.999967 -80.06 0.004580 10.128
8.68541000 0.004575 10.287 0.999967 -80.06 0.999967 -80.06 0.004575 10.128
8.68541500 0.004569 10.287 0.999967 -80.06 0.999967 -80.06 0.004569 10.129
8.68542000 0.004564 10.288 0.999967 -80.06 0.999967 -80.06 0.004564 10.129
8.68542500 0.004559 10.288 0.999967 -80.06 0.999967 -80.06 0.004559 10.129
8.68543000 0.004554 10.288 0.999967 -80.06 0.999967 -80.06 0.004554 10.129
8.68543500 0.004549 10.288 0.999967 -80.06 0.999967 -80.06 0.004549 10.130
8.68544000 0.004544 10.289 0.999967 -80.06 0.999967 -80.06 0.004544 10.130
8.68544500 0.004538 10.289 0.999967 -80.06 0.999967 -80.06 0.004538 10.130
8.68545000 0.004533 10.289 0.999967 -80.06 0.999967 -80.06 0.004533 10.131
8.68545500 0.004528 10.289 0.999967 -80.06 0.999967 -80.06 0.004528 10.131
8.68546000 0.004523 10.290 0.999967 -80.06 0.999967 -80.06 0.004523 10.131
8.68546500 0.004517 10.290 0.999967 -80.06 0.999967 -80.06 0.004517 10.131
8.68547000 0.004512 10.290 0.999967 -80.06 0.999967 -80.06 0.004512 10.132
8.68547500 0.004507 10.290 0.999967 -80.06 0.999967 -80.06 0.004507 10.132
8.68548000 0.004502 10.291 0.999967 -80.06 0.999967 -80.06 0.004502 10.132
8.68548500 0.004496 10.291 0.999967 -80.06 0.999967 -80.06 0.004496 10.133
8.68549000 0.004491 10.291 0.999967 -80.06 0.999967 -80.06 0.004491 10.133
8.68549500 0.004486 10.292 0.999967 -80.06 0.999967 -80.06 0.004486 10.133
8.68550000 0.004481 10.292 0.999967 -80.06 0.999967 -80.06 0.004481 10.134
8.68550500 0.004475 10.292 0.999967 -80.07 0.999967 -80.07 0.004475 10.134
8.68551000 0.004470 10.292 0.999967 -80.07 0.999967 -80.07 0.004470 10.134
8.68551500 0.004465 10.293 0.999967 -80.07 0.999967 -80.07 0.004465 10.135
8.68552000 0.004459 10.293 0.999967 -80.07 0.999967 -80.07 0.004459 10.135
8.68552500 0.004454 10.293 0.999967 -80.07 0.999967 -80.07 0.004454 10.135
8.68553000 0.004449 10.294 0.999967 -80.07 0.999967 -80.07 0.004449 10.136
8.68553500 0.004443 10.294 0.999967 -80.07 0.999967 -80.07 0.004444 10.136
8.68554000 0.004438 10.294 0.999967 -80.07 0.999967 -80.07 0.004438 10.136
8.68554500 0.004433 10.294 0.999967 -80.07 0.999967 -80.07 0.004433 10.137
8.68555000 0.004427 10.295 0.999967 -80.07 0.999967 -80.07 0.004427 10.137
8.68555500 0.004422 10.295 0.999967 -80.07 0.999967 -80.07 0.004422 10.137
8.68556000 0.004417 10.295 0.999967 -80.07 0.999967 -80.07 0.004417 10.138
8.68556500 0.004411 10.296 0.999967 -80.07 0.999967 -80.07 0.004411 10.138
8.68557000 0.004406 10.296 0.999967 -80.07 0.999967 -80.07 0.004406 10.138
8.68557500 0.004401 10.296 0.999967 -80.07 0.999967 -80.07 0.004401 10.139
8.68558000 0.004395 10.297 0.999967 -80.07 0.999967 -80.07 0.004395 10.139
8.68558500 0.004390 10.297 0.999967 -80.07 0.999967 -80.07 0.004390 10.139
8.68559000 0.004384 10.297 0.999967 -80.07 0.999967 -80.07 0.004384 10.140
8.68559500 0.004379 10.298 0.999967 -80.07 0.999967 -80.07 0.004379 10.140
8.68560000 0.004374 10.298 0.999967 -80.07 0.999967 -80.07 0.004374 10.140
8.68560500 0.004368 10.298 0.999967 -80.07 0.999967 -80.07 0.004368 10.141
8.68561000 0.004363 10.298 0.999967 -80.07 0.999967 -80.07 0.004363 10.141
8.68561500 0.004357 10.299 0.999967 -80.07 0.999967 -80.07 0.004357 10.142
8.68562000 0.004352 10.299 0.999967 -80.07 0.999967 -80.07 0.004352 10.142
8.68562500 0.004346 10.299 0.999967 -80.07 0.999967 -80.07 0.004346 10.142
8.68563000 0.004341 10.300 0.999967 -80.07 0.999967 -80.07 0.004341 10.143
8.68563500 0.004335 10.300 0.999967 -80.07 0.999967 -80.07 0.004335 10.143
8.68564000 0.004330 10.301 0.999967 -80.07 0.999967 -80.07 0.004330 10.144
8.68564500 0.004325 10.301 0.999967 -80.08 0.999967 -80.08 0.004325 10.144
8.68565000 0.004319 10.301 0.999967 -80.08 0.999967 -80.08 0.004319 10.144
8.68565500 0.004314 10.302 0.999967 -80.08 0.999967 -80.08 0.004314 10.145
8.68566000 0.004308 10.302 0.999967 -80.08 0.999967 -80.08 0.004308 10.145
8.68566500 0.004303 10.302 0.999967 -80.08 0.999967 -80.08 0.004303 10.145
8.68567000 0.004297 10.303 0.999967 -80.08 0.999967 -80.08 0.004297 10.146
8.68567500 0.004291 10.303 0.999967 -80.08 0.999967 -80.08 0.004291 10.146
8.68568000 0.004286 10.303 0.999967 -80.08 0.999967 -80.08 0.004286 10.147
8.68568500 0.004280 10.304 0.999967 -80.08 0.999967 -80.08 0.004280 10.147
8.68569000 0.004275 10.304 0.999967 -80.08 0.999967 -80.08 0.004275 10.148
8.68569500 0.004269 10.304 0.999967 -80.08 0.999967 -80.08 0.004269 10.148
8.68570000 0.004264 10.305 0.999967 -80.08 0.999967 -80.08 0.004264 10.148
8.68570500 0.004258 10.305 0.999967 -80.08 0.999967 -80.08 0.004258 10.149
8.68571000 0.004253 10.306 0.999967 -80.08 0.999967 -80.08 0.004253 10.149
8.68571500 0.004247 10.306 0.999967 -80.08 0.999967 -80.08 0.004247 10.150
8.68572000 0.004241 10.306 0.999967 -80.08 0.999967 -80.08 0.004241 10.150
8.68572500 0.004236 10.307 0.999967 -80.08 0.999967 -80.08 0.004236 10.150
8.68573000 0.004230 10.307 0.999967 -80.08 0.999967 -80.08 0.004230 10.151
8.68573500 0.004225 10.307 0.999967 -80.08 0.999967 -80.08 0.004225 10.151
8.68574000 0.004219 10.308 0.999967 -80.08 0.999967 -80.08 0.004219 10.152
8.68574500 0.004213 10.308 0.999967 -80.08 0.999967 -80.08 0.004213 10.152
8.68575000 0.004208 10.309 0.999967 -80.08 0.999967 -80.08 0.004208 10.153
8.68575500 0.004202 10.309 0.999967 -80.08 0.999967 -80.08 0.004202 10.153
8.68576000 0.004196 10.310 0.999967 -80.08 0.999967 -80.08 0.004196 10.154
8.68576500 0.004191 10.310 0.999967 -80.08 0.999967 -80.08 0.004191 10.154
8.68577000 0.004185 10.310 0.999967 -80.08 0.999967 -80.08 0.004185 10.155
8.68577500 0.004179 10.311 0.999967 -80.08 0.999967 -80.08 0.004179 10.155
8.68578000 0.004174 10.311 0.999967 -80.08 0.999967 -80.08 0.004174 10.155
8.68578500 0.004168 10.312 0.999967 -80.09 0.999967 -80.09 0.004168 10.156
8.68579000 0.004162 10.312 0.999967 -80.09 0.999967 -80.09 0.004162 10.156
8.68579500 0.004157 10.312 0.999967 -80.09 0.999967 -80.09 0.004157 10.157
8.68580000 0.004151 10.313 0.999967 -80.09 0.999967 -80.09 0.004151 10.157
8.68580500 0.004145 10.313 0.999967 -80.09 0.999967 -80.09 0.004145 10.158
8.68581000 0.004139 10.314 0.999967 -80.09 0.999967 -80.09 0.004139 10.158
8.68581500 0.004134 10.314 0.999967 -80.09 0.999967 -80.09 0.004134 10.159
8.68582000 0.004128 10.315 0.999967 -80.09 0.999967 -80.09 0.004128 10.159
8.68582500 0.004122 10.315 0.999967 -80.09 0.999967 -80.09 0.004122 10.160
8.68583000 0.004116 10.316 0.999967 -80.09 0.999967 -80.09 0.004117 10.160
8.68583500 0.004111 10.316 0.999967 -80.09 0.999967 -80.09 0.004111 10.161
8.68584000 0.004105 10.316 0.999967 -80.09 0.999967 -80.09 0.004105 10.161
8.68584500 0.004099 10.317 0.999967 -80.09 0.999967 -80.09 0.004099 10.162
8.68585000 0.004093 10.317 0.999967 -80.09 0.999967 -80.09 0.004093 10.162
8.68585500 0.004088 10.318 0.999967 -80.09 0.999967 -80.09 0.004088 10.163
8.68586000 0.004082 10.318 0.999967 -80.09 0.999967 -80.09 0.004082 10.163
8.68586500 0.004076 10.319 0.999967 -80.09 0.999967 -80.09 0.004076 10.164
8.68587000 0.004070 10.319 0.999967 -80.09 0.999967 -80.09 0.004070 10.164
8.68587500 0.004064 10.320 0.999967 -80.09 0.999967 -80.09 0.004064 10.165
8.68588000 0.004058 10.320 0.999967 -80.09 0.999967 -80.09 0.004058 10.166
8.68588500 0.004053 10.321 0.999967 -80.09 0.999967 -80.09 0.004053 10.166
8.68589000 0.004047 10.321 0.999967 -80.09 0.999967 -80.09 0.004047 10.167
8.68589500 0.004041 10.322 0.999967 -80.09 0.999967 -80.09 0.004041 10.167
8.68590000 0.004035 10.322 0.999967 -80.09 0.999967 -80.09 0.004035 10.168
8.68590500 0.004029 10.323 0.999967 -80.09 0.999967 -80.09 0.004029 10.168
8.68591000 0.004023 10.323 0.999967 -80.09 0.999967 -80.09 0.004023 10.169
8.68591500 0.004017 10.324 0.999967 -80.10 0.999967 -80.10 0.004017 10.169
8.68592000 0.004012 10.324 0.999967 -80.10 0.999967 -80.10 0.004012 10.170
8.68592500 0.004006 10.325 0.999967 -80.10 0.999967 -80.10 0.004006 10.171
8.68593000 0.004000 10.325 0.999967 -80.10 0.999967 -80.10 0.004000 10.171
8.68593500 0.003994 10.326 0.999967 -80.10 0.999967 -80.10 0.003994 10.172
8.68594000 0.003988 10.326 0.999967 -80.10 0.999967 -80.10 0.003988 10.172
8.68594500 0.003982 10.327 0.999967 -80.10 0.999967 -80.10 0.003982 10.173
8.68595000 0.003976 10.327 0.999967 -80.10 0.999967 -80.10 0.003976 10.173
8.68595500 0.003970 10.328 0.999967 -80.10 0.999967 -80.10 0.003970 10.174
8.68596000 0.003964 10.328 0.999967 -80.10 0.999967 -80.10 0.003964 10.175
8.68596500 0.003958 10.329 0.999967 -80.10 0.999967 -80.10 0.003958 10.175
8.68597000 0.003952 10.330 0.999967 -80.10 0.999967 -80.10 0.003952 10.176
8.68597500 0.003946 10.330 0.999967 -80.10 0.999967 -80.10 0.003946 10.177
8.68598000 0.003940 10.331 0.999967 -80.10 0.999967 -80.10 0.003940 10.177
8.68598500 0.003934 10.331 0.999967 -80.10 0.999967 -80.10 0.003934 10.178
8.68599000 0.003928 10.332 0.999967 -80.10 0.999967 -80.10 0.003928 10.178
8.68599500 0.003922 10.332 0.999967 -80.10 0.999967 -80.10 0.003922 10.179
8.68600000 0.003916 10.333 0.999967 -80.10 0.999967 -80.10 0.003916 10.180
8.68600500 0.003910 10.333 0.999967 -80.10 0.999967 -80.10 0.003910 10.180
8.68601000 0.003904 10.334 0.999967 -80.10 0.999967 -80.10 0.003904 10.181
8.68601500 0.003898 10.335 0.999967 -80.10 0.999967 -80.10 0.003898 10.182
8.68602000 0.003892 10.335 0.999967 -80.10 0.999967 -80.10 0.003892 10.182
8.68602500 0.003886 10.336 0.999967 -80.10 0.999967 -80.10 0.003886 10.183
8.68603000 0.003880 10.336 0.999967 -80.10 0.999967 -80.10 0.003880 10.184
8.68603500 0.003874 10.337 0.999967 -80.10 0.999967 -80.10 0.003874 10.184
8.68604000 0.003867 10.338 0.999967 -80.10 0.999967 -80.10 0.003867 10.185
8.68604500 0.003861 10.338 0.999967 -80.11 0.999967 -80.11 0.003861 10.186
8.68605000 0.003855 10.339 0.999967 -80.11 0.999967 -80.11 0.003855 10.186
8.68605500 0.003849 10.340 0.999967 -80.11 0.999967 -80.11 0.003849 10.187
8.68606000 0.003843 10.340 0.999967 -80.11 0.999967 -80.11 0.003843 10.188
8.68606500 0.003837 10.341 0.999967 -80.11 0.999967 -80.11 0.003837 10.188
8.68607000 0.003831 10.341 0.999967 -80.11 0.999967 -80.11 0.003831 10.189
8.68607500 0.003825 10.342 0.999967 -80.11 0.999967 -80.11 0.003825 10.190
8.68608000 0.003818 10.343 0.999967 -80.11 0.999967 -80.11 0.003818 10.190
8.68608500 0.003812 10.343 0.999967 -80.11 0.999967 -80.11 0.003812 10.191
8.68609000 0.003806 10.344 0.999967 -80.11 0.999967 -80.11 0.003806 10.192
8.68609500 0.003800 10.345 0.999967 -80.11 0.999967 -80.11 0.003800 10.193
8.68610000 0.003794 10.345 0.999967 -80.11 0.999967 -80.11 0.003794 10.193
8.68610500 0.003787 10.346 0.999967 -80.11 0.999967 -80.11 0.003787 10.194
8.68611000 0.003781 10.347 0.999967 -80.11 0.999967 -80.11 0.003781 10.195
8.68611500 0.003775 10.347 0.999967 -80.11 0.999967 -80.11 0.003775 10.196
8.68612000 0.003769 10.348 0.999967 -80.11 0.999967 -80.11 0.003769 10.196
8.68612500 0.003763 10.349 0.999967 -80.11 0.999967 -80.11 0.003763 10.197
8.68613000 0.003756 10.349 0.999967 -80.11 0.999967 -80.11 0.003756 10.198
8.68613500 0.003750 10.350 0.999967 -80.11 0.999967 -80.11 0.003750 10.199
8.68614000 0.003744 10.351 0.999967 -80.11 0.999967 -80.11 0.003744 10.199
8.68614500 0.003737 10.352 0.999967 -80.11 0.999967 -80.11 0.003737 10.200
8.68615000 0.003731 10.352 0.999967 -80.11 0.999967 -80.11 0.003731 10.201
8.68615500 0.003725 10.353 0.999967 -80.11 0.999967 -80.11 0.003725 10.202
8.68616000 0.003719 10.354 0.999967 -80.11 0.999967 -80.11 0.003719 10.202
8.68616500 0.003712 10.354 0.999967 -80.11 0.999967 -80.11 0.003712 10.203
8.68617000 0.003706 10.355 0.999967 -80.12 0.999967 -80.12 0.003706 10.204
8.68617500 0.003700 10.356 0.999967 -80.12 0.999967 -80.12 0.003700 10.205
8.68618000 0.003693 10.357 0.999967 -80.12 0.999967 -80.12 0.003693 10.206
8.68618500 0.003687 10.357 0.999967 -80.12 0.999967 -80.12 0.003687 10.207
8.68619000 0.003681 10.358 0.999967 -80.12 0.999967 -80.12 0.003681 10.207
8.68619500 0.003674 10.359 0.999967 -80.12 0.999967 -80.12 0.003674 10.208
8.68620000 0.003668 10.360 0.999967 -80.12 0.999967 -80.12 0.003668 10.209
8.68620500 0.003661 10.360 0.999967 -80.12 0.999967 -80.12 0.003661 10.210
8.68621000 0.003655 10.361 0.999967 -80.12 0.999967 -80.12 0.003655 10.211
8.68621500 0.003649 10.362 0.999967 -80.12 0.999967 -80.12 0.003649 10.212
8.68622000 0.003642 10.363 0.999967 -80.12 0.999967 -80.12 0.003642 10.212
8.68622500 0.003636 10.364 0.999967 -80.12 0.999967 -80.12 0.003636 10.213
8.68623000 0.003629 10.364 0.999967 -80.12 0.999967 -80.12 0.003629 10.214
8.68623500 0.003623 10.365 0.999967 -80.12 0.999967 -80.12 0.003623 10.215
8.68624000 0.003616 10.366 0.999967 -80.12 0.999967 -80.12 0.003616 10.216
8.68624500 0.003610 10.367 0.999966 -80.12 0.999966 -80.12 0.003610 10.217
8.68625000 0.003604 10.368 0.999966 -80.12 0.999966 -80.12 0.003604 10.218
8.68625500 0.003597 10.368 0.999966 -80.12 0.999966 -80.12 0.003597 10.219
8.68626000 0.003591 10.369 0.999966 -80.12 0.999966 -80.12 0.003591 10.220
8.68626500 0.003584 10.370 0.999966 -80.12 0.999966 -80.12 0.003584 10.221
8.68627000 0.003578 10.371 0.999966 -80.12 0.999966 -80.12 0.003578 10.221
8.68627500 0.003571 10.372 0.999966 -80.12 0.999966 -80.12 0.003571 10.222
8.68628000 0.003565 10.373 0.999966 -80.12 0.999966 -80.12 0.003565 10.223
8.68628500 0.003558 10.374 0.999966 -80.12 0.999966 -80.12 0.003558 10.224
8.68629000 0.003551 10.374 0.999966 -80.13 0.999966 -80.13 0.003551 10.225
8.68629500 0.003545 10.375 0.999966 -80.13 0.999966 -80.13 0.003545 10.226
8.68630000 0.003538 10.376 0.999966 -80.13 0.999966 -80.13 0.003538 10.227
8.68630500 0.003532 10.377 0.999966 -80.13 0.999966 -80.13 0.003532 10.228
8.68631000 0.003525 10.378 0.999966 -80.13 0.999966 -80.13 0.003525 10.229
8.68631500 0.003519 10.379 0.999966 -80.13 0.999966 -80.13 0.003519 10.230
8.68632000 0.003512 10.380 0.999966 -80.13 0.999966 -80.13 0.003512 10.231
8.68632500 0.003505 10.381 0.999966 -80.13 0.999966 -80.13 0.003505 10.232
8.68633000 0.003499 10.382 0.999966 -80.13 0.999966 -80.13 0.003499 10.233
8.68633500 0.003492 10.383 0.999966 -80.13 0.999966 -80.13 0.003492 10.234
8.68634000 0.003486 10.384 0.999966 -80.13 0.999966 -80.13 0.003486 10.235
8.68634500 0.003479 10.385 0.999966 -80.13 0.999966 -80.13 0.003479 10.236
8.68635000 0.003472 10.386 0.999966 -80.13 0.999966 -80.13 0.003472 10.237
8.68635500 0.003466 10.386 0.999966 -80.13 0.999966 -80.13 0.003466 10.238
8.68636000 0.003459 10.387 0.999966 -80.13 0.999966 -80.13 0.003459 10.239
8.68636500 0.003452 10.388 0.999966 -80.13 0.999966 -80.13 0.003452 10.240
8.68637000 0.003446 10.389 0.999966 -80.13 0.999966 -80.13 0.003446 10.242
8.68637500 0.003439 10.390 0.999966 -80.13 0.999966 -80.13 0.003439 10.243
8.68638000 0.003432 10.391 0.999966 -80.13 0.999966 -80.13 0.003432 10.244
8.68638500 0.003425 10.392 0.999966 -80.13 0.999966 -80.13 0.003425 10.245
8.68639000 0.003419 10.393 0.999966 -80.13 0.999966 -80.13 0.003419 10.246
8.68639500 0.003412 10.394 0.999966 -80.13 0.999966 -80.13 0.003412 10.247
8.68640000 0.003405 10.395 0.999966 -80.13 0.999966 -80.13 0.003405 10.248
8.68640500 0.003398 10.397 0.999966 -80.14 0.999966 -80.14 0.003398 10.249
8.68641000 0.003392 10.398 0.999966 -80.14 0.999966 -80.14 0.003392 10.250
8.68641500 0.003385 10.399 0.999966 -80.14 0.999966 -80.14 0.003385 10.252
8.68642000 0.003378 10.400 0.999966 -80.14 0.999966 -80.14 0.003378 10.253
8.68642500 0.003371 10.401 0.999966 -80.14 0.999966 -80.14 0.003371 10.254
8.68643000 0.003364 10.402 0.999966 -80.14 0.999966 -80.14 0.003364 10.255
8.68643500 0.003358 10.403 0.999966 -80.14 0.999966 -80.14 0.003358 10.256
8.68644000 0.003351 10.404 0.999966 -80.14 0.999966 -80.14 0.003351 10.257
8.68644500 0.003344 10.405 0.999966 -80.14 0.999966 -80.14 0.003344 10.259
8.68645000 0.003337 10.406 0.999966 -80.14 0.999966 -80.14 0.003337 10.260
8.68645500 0.003330 10.407 0.999966 -80.14 0.999966 -80.14 0.003330 10.261
8.68646000 0.003323 10.409 0.999966 -80.14 0.999966 -80.14 0.003323 10.262
8.68646500 0.003316 10.410 0.999966 -80.14 0.999966 -80.14 0.003317 10.264
8.68647000 0.003310 10.411 0.999966 -80.14 0.999966 -80.14 0.003310 10.265
8.68647500 0.003303 10.412 0.999966 -80.14 0.999966 -80.14 0.003303 10.266
8.68648000 0.003296 10.413 0.999966 -80.14 0.999966 -80.14 0.003296 10.267
8.68648500 0.003289 10.414 0.999966 -80.14 0.999966 -80.14 0.003289 10.269
8.68649000 0.003282 10.415 0.999966 -80.14 0.999966 -80.14 0.003282 10.270
8.68649500 0.003275 10.417 0.999966 -80.14 0.999966 -80.14 0.003275 10.271
8.68650000 0.003268 10.418 0.999966 -80.14 0.999966 -80.14 0.003268 10.272
8.68650500 0.003261 10.419 0.999966 -80.14 0.999966 -80.14 0.003261 10.274
8.68651000 0.003254 10.420 0.999966 -80.14 0.999966 -80.14 0.003254 10.275
8.68651500 0.003247 10.422 0.999966 -80.14 0.999966 -80.14 0.003247 10.276
8.68652000 0.003240 10.423 0.999966 -80.15 0.999966 -80.15 0.003240 10.278
8.68652500 0.003233 10.424 0.999966 -80.15 0.999966 -80.15 0.003233 10.279
8.68653000 0.003226 10.425 0.999966 -80.15 0.999966 -80.15 0.003226 10.280
8.68653500 0.003219 10.427 0.999966 -80.15 0.999966 -80.15 0.003219 10.282
8.68654000 0.003212 10.428 0.999966 -80.15 0.999966 -80.15 0.003212 10.283
8.68654500 0.003205 10.429 0.999966 -80.15 0.999966 -80.15 0.003205 10.285
8.68655000 0.003198 10.430 0.999966 -80.15 0.999966 -80.15 0.003198 10.286
8.68655500 0.003191 10.432 0.999966 -80.15 0.999966 -80.15 0.003191 10.287
8.68656000 0.003184 10.433 0.999966 -80.15 0.999966 -80.15 0.003184 10.289
8.68656500 0.003177 10.434 0.999966 -80.15 0.999966 -80.15 0.003177 10.290
8.68657000 0.003170 10.436 0.999966 -80.15 0.999966 -80.15 0.003170 10.292
8.68657500 0.003162 10.437 0.999966 -80.15 0.999966 -80.15 0.003163 10.293
8.68658000 0.003155 10.438 0.999966 -80.15 0.999966 -80.15 0.003155 10.295
8.68658500 0.003148 10.440 0.999966 -80.15 0.999966 -80.15 0.003148 10.296
8.68659000 0.003141 10.441 0.999966 -80.15 0.999966 -80.15 0.003141 10.298
8.68659500 0.003134 10.443 0.999966 -80.15 0.999966 -80.15 0.003134 10.299
8.68660000 0.003127 10.444 0.999966 -80.15 0.999966 -80.15 0.003127 10.301
8.68660500 0.003120 10.445 0.999966 -80.15 0.999966 -80.15 0.003120 10.302
8.68661000 0.003112 10.447 0.999965 -80.15 0.999965 -80.15 0.003112 10.304
8.68661500 0.003105 10.448 0.999965 -80.15 0.999965 -80.15 0.003105 10.305
8.68662000 0.003098 10.450 0.999965 -80.15 0.999965 -80.15 0.003098 10.307
8.68662500 0.003091 10.451 0.999965 -80.15 0.999965 -80.15 0.003091 10.309
8.68663000 0.003084 10.453 0.999965 -80.16 0.999965 -80.16 0.003084 10.310
8.68663500 0.003076 10.454 0.999965 -80.16 0.999965 -80.16 0.003076 10.312
8.68664000 0.003069 10.456 0.999965 -80.16 0.999965 -80.16 0.003069 10.313
8.68664500 0.003062 10.457 0.999965 -80.16 0.999965 -80.16 0.003062 10.315
8.68665000 0.003055 10.459 0.999965 -80.16 0.999965 -80.16 0.003055 10.317
8.68665500 0.003047 10.460 0.999965 -80.16 0.999965 -80.16 0.003047 10.318
8.68666000 0.003040 10.462 0.999965 -80.16 0.999965 -80.16 0.003040 10.320
8.68666500 0.003033 10.463 0.999965 -80.16 0.999965 -80.16 0.003033 10.322
8.68667000 0.003025 10.465 0.999965 -80.16 0.999965 -80.16 0.003025 10.323
8.68667500 0.003018 10.467 0.999965 -80.16 0.999965 -80.16 0.003018 10.325
8.68668000 0.003011 10.468 0.999965 -80.16 0.999965 -80.16 0.003011 10.327
8.68668500 0.003003 10.470 0.999965 -80.16 0.999965 -80.16 0.003003 10.329
8.68669000 0.002996 10.471 0.999965 -80.16 0.999965 -80.16 0.002996 10.330
8.68669500 0.002989 10.473 0.999965 -80.16 0.999965 -80.16 0.002989 10.332
8.68670000 0.002981 10.475 0.999965 -80.16 0.999965 -80.16 0.002981 10.334
8.68670500 0.002974 10.476 0.999965 -80.16 0.999965 -80.16 0.002974 10.336
8.68671000 0.002966 10.478 0.999965 -80.16 0.999965 -80.16 0.002966 10.337
8.68671500 0.002959 10.480 0.999965 -80.16 0.999965 -80.16 0.002959 10.339
8.68672000 0.002952 10.482 0.999965 -80.16 0.999965 -80.16 0.002952 10.341
8.68672500 0.002944 10.483 0.999965 -80.16 0.999965 -80.16 0.002944 10.343
8.68673000 0.002937 10.485 0.999965 -80.16 0.999965 -80.16 0.002937 10.345
8.68673500 0.002929 10.487 0.999965 -80.16 0.999965 -80.16 0.002929 10.347
8.68674000 0.002922 10.489 0.999965 -80.17 0.999965 -80.17 0.002922 10.349
8.68674500 0.002914 10.490 0.999965 -80.17 0.999965 -80.17 0.002914 10.351
8.68675000 0.002907 10.492 0.999965 -80.17 0.999965 -80.17 0.002907 10.353
8.68675500 0.002899 10.494 0.999965 -80.17 0.999965 -80.17 0.002899 10.354
8.68676000 0.002892 10.496 0.999965 -80.17 0.999965 -80.17 0.002892 10.356
8.68676500 0.002884 10.498 0.999965 -80.17 0.999965 -80.17 0.002884 10.358
8.68677000 0.002877 10.499 0.999965 -80.17 0.999965 -80.17 0.002877 10.360
8.68677500 0.002869 10.501 0.999965 -80.17 0.999965 -80.17 0.002869 10.362
8.68678000 0.002862 10.503 0.999965 -80.17 0.999965 -80.17 0.002862 10.365
8.68678500 0.002854 10.505 0.999965 -80.17 0.999965 -80.17 0.002854 10.367
8.68679000 0.002846 10.507 0.999965 -80.17 0.999965 -80.17 0.002846 10.369
8.68679500 0.002839 10.509 0.999965 -80.17 0.999965 -80.17 0.002839 10.371
8.68680000 0.002831 10.511 0.999965 -80.17 0.999965 -80.17 0.002831 10.373
8.68680500 0.002824 10.513 0.999965 -80.17 0.999965 -80.17 0.002824 10.375
8.68681000 0.002816 10.515 0.999965 -80.17 0.999965 -80.17 0.002816 10.377
8.68681500 0.002808 10.517 0.999965 -80.17 0.999965 -80.17 0.002808 10.379
8.68682000 0.002801 10.519 0.999965 -80.17 0.999965 -80.17 0.002801 10.381
8.68682500 0.002793 10.521 0.999965 -80.17 0.999965 -80.17 0.002793 10.384
8.68683000 0.002785 10.523 0.999965 -80.17 0.999965 -80.17 0.002785 10.386
8.68683500 0.002778 10.525 0.999965 -80.17 0.999965 -80.17 0.002778 10.388
8.68684000 0.002770 10.527 0.999965 -80.18 0.999965 -80.18 0.002770 10.390
8.68684500 0.002762 10.529 0.999965 -80.18 0.999965 -80.18 0.002762 10.393
8.68685000 0.002754 10.532 0.999965 -80.18 0.999965 -80.18 0.002754 10.395
8.68685500 0.002747 10.534 0.999964 -80.18 0.999964 -80.18 0.002747 10.397
8.68686000 0.002739 10.536 0.999964 -80.18 0.999964 -80.18 0.002739 10.400
8.68686500 0.002731 10.538 0.999964 -80.18 0.999964 -80.18 0.002731 10.402
8.68687000 0.002723 10.540 0.999964 -80.18 0.999964 -80.18 0.002723 10.404
8.68687500 0.002716 10.543 0.999964 -80.18 0.999964 -80.18 0.002716 10.407
8.68688000 0.002708 10.545 0.999964 -80.18 0.999964 -80.18 0.002708 10.409
8.68688500 0.002700 10.547 0.999964 -80.18 0.999964 -80.18 0.002700 10.412
8.68689000 0.002692 10.549 0.999964 -80.18 0.999964 -80.18 0.002692 10.414
8.68689500 0.002684 10.552 0.999964 -80.18 0.999964 -80.18 0.002684 10.417
8.68690000 0.002676 10.554 0.999964 -80.18 0.999964 -80.18 0.002677 10.419
8.68690500 0.002669 10.556 0.999964 -80.18 0.999964 -80.18 0.002669 10.422
8.68691000 0.002661 10.559 0.999964 -80.18 0.999964 -80.18 0.002661 10.424
8.68691500 0.002653 10.561 0.999964 -80.18 0.999964 -80.18 0.002653 10.427
8.68692000 0.002645 10.564 0.999964 -80.18 0.999964 -80.18 0.002645 10.429
8.68692500 0.002637 10.566 0.999964 -80.18 0.999964 -80.18 0.002637 10.432
8.68693000 0.002629 10.569 0.999964 -80.18 0.999964 -80.18 0.002629 10.435
8.68693500 0.002621 10.571 0.999964 -80.18 0.999964 -80.18 0.002621 10.437
8.68694000 0.002613 10.574 0.999964 -80.18 0.999964 -80.18 0.002613 10.440
8.68694500 0.002605 10.576 0.999964 -80.19 0.999964 -80.19 0.002605 10.443
8.68695000 0.002597 10.579 0.999964 -80.19 0.999964 -80.19 0.002597 10.445
8.68695500 0.002589 10.581 0.999964 -80.19 0.999964 -80.19 0.002589 10.448
8.68696000 0.002581 10.584 0.999964 -80.19 0.999964 -80.19 0.002581 10.451