! Sonnet Data File
! From: emgraph Version : 16.52
! From Project: Qubit_Xmon2_brg_para
! Data is De-embedded 
! Data File Written: 10/25/2017 20:11:04
!< HDATE 10/25/2017 15:55:44
!< MDATE 10/25/2017 15:55:44
!< PARAMS
!< Lj = 11.0
!< Gap = 6.0
!< Pwid = 2000.0
!< Airgap = 6.0
!< Width = 10.0
!< Bwid = 20.0
!< Dis1 = 350.0
!< Dis2 = 356.0
!< END PARAMS
# GHZ S MA R 51.80000
8.68500000 0.015998 -170.1 0.999853 -80.02 0.999853 -80.02 0.015998 -170.0
!< P1 F=8.685 Eeff=(6.44683879 -2.9786e-5) Z0=(51.7993663 1.19075e-4) R=0.0 C=0.0 
!< P2 F=8.685 Eeff=(6.44683879 -2.9786e-5) Z0=(51.7993663 1.19075e-4) R=0.0 C=0.0 
8.68500500 0.016002 -170.1 0.999853 -80.02 0.999853 -80.02 0.016002 -170.0
8.68501000 0.016006 -170.1 0.999853 -80.02 0.999853 -80.02 0.016006 -170.0
8.68501500 0.016010 -170.1 0.999853 -80.02 0.999853 -80.02 0.016010 -170.0
8.68502000 0.016015 -170.1 0.999853 -80.02 0.999853 -80.02 0.016015 -170.0
8.68502500 0.016019 -170.1 0.999853 -80.02 0.999853 -80.02 0.016019 -170.0
8.68503000 0.016023 -170.1 0.999853 -80.02 0.999853 -80.02 0.016023 -170.0
8.68503500 0.016027 -170.1 0.999853 -80.02 0.999853 -80.02 0.016027 -170.0
8.68504000 0.016032 -170.1 0.999853 -80.02 0.999853 -80.02 0.016031 -170.0
8.68504500 0.016036 -170.1 0.999853 -80.02 0.999853 -80.02 0.016036 -170.0
8.68505000 0.016040 -170.1 0.999852 -80.02 0.999852 -80.02 0.016040 -170.0
8.68505500 0.016044 -170.1 0.999852 -80.02 0.999852 -80.02 0.016044 -170.0
8.68506000 0.016049 -170.1 0.999852 -80.02 0.999852 -80.02 0.016048 -170.0
8.68506500 0.016053 -170.1 0.999852 -80.02 0.999852 -80.02 0.016053 -170.1
8.68507000 0.016057 -170.1 0.999852 -80.02 0.999852 -80.02 0.016057 -170.1
8.68507500 0.016061 -170.1 0.999852 -80.02 0.999852 -80.02 0.016061 -170.1
8.68508000 0.016066 -170.1 0.999852 -80.02 0.999852 -80.02 0.016066 -170.1
8.68508500 0.016070 -170.1 0.999852 -80.02 0.999852 -80.02 0.016070 -170.1
8.68509000 0.016074 -170.1 0.999852 -80.02 0.999852 -80.02 0.016074 -170.1
8.68509500 0.016079 -170.1 0.999852 -80.02 0.999852 -80.02 0.016078 -170.1
8.68510000 0.016083 -170.1 0.999852 -80.02 0.999852 -80.02 0.016083 -170.1
8.68510500 0.016087 -170.1 0.999852 -80.02 0.999852 -80.02 0.016087 -170.1
8.68511000 0.016092 -170.1 0.999851 -80.02 0.999851 -80.02 0.016091 -170.1
8.68511500 0.016096 -170.1 0.999851 -80.02 0.999851 -80.02 0.016096 -170.1
8.68512000 0.016100 -170.1 0.999851 -80.02 0.999851 -80.02 0.016100 -170.1
8.68512500 0.016105 -170.1 0.999851 -80.02 0.999851 -80.02 0.016104 -170.1
8.68513000 0.016109 -170.1 0.999851 -80.02 0.999851 -80.02 0.016109 -170.1
8.68513500 0.016113 -170.1 0.999851 -80.02 0.999851 -80.02 0.016113 -170.1
8.68514000 0.016118 -170.1 0.999851 -80.02 0.999851 -80.02 0.016117 -170.1
8.68514500 0.016122 -170.1 0.999851 -80.02 0.999851 -80.02 0.016122 -170.1
8.68515000 0.016126 -170.1 0.999851 -80.02 0.999851 -80.02 0.016126 -170.1
8.68515500 0.016131 -170.1 0.999851 -80.02 0.999851 -80.02 0.016130 -170.1
8.68516000 0.016135 -170.1 0.999851 -80.02 0.999851 -80.02 0.016135 -170.1
8.68516500 0.016139 -170.1 0.999850 -80.03 0.999850 -80.03 0.016139 -170.1
8.68517000 0.016144 -170.1 0.999850 -80.03 0.999850 -80.03 0.016144 -170.1
8.68517500 0.016148 -170.1 0.999850 -80.03 0.999850 -80.03 0.016148 -170.1
8.68518000 0.016153 -170.1 0.999850 -80.03 0.999850 -80.03 0.016152 -170.1
8.68518500 0.016157 -170.1 0.999850 -80.03 0.999850 -80.03 0.016157 -170.1
8.68519000 0.016161 -170.1 0.999850 -80.03 0.999850 -80.03 0.016161 -170.1
8.68519500 0.016166 -170.1 0.999850 -80.03 0.999850 -80.03 0.016166 -170.1
8.68520000 0.016170 -170.1 0.999850 -80.03 0.999850 -80.03 0.016170 -170.1
8.68520500 0.016175 -170.1 0.999850 -80.03 0.999850 -80.03 0.016174 -170.1
8.68521000 0.016179 -170.1 0.999850 -80.03 0.999850 -80.03 0.016179 -170.1
8.68521500 0.016183 -170.1 0.999850 -80.03 0.999850 -80.03 0.016183 -170.1
8.68522000 0.016188 -170.1 0.999849 -80.03 0.999849 -80.03 0.016188 -170.1
8.68522500 0.016192 -170.1 0.999849 -80.03 0.999849 -80.03 0.016192 -170.1
8.68523000 0.016197 -170.1 0.999849 -80.03 0.999849 -80.03 0.016196 -170.1
8.68523500 0.016201 -170.1 0.999849 -80.03 0.999849 -80.03 0.016201 -170.1
8.68524000 0.016206 -170.1 0.999849 -80.03 0.999849 -80.03 0.016205 -170.1
8.68524500 0.016210 -170.1 0.999849 -80.03 0.999849 -80.03 0.016210 -170.1
8.68525000 0.016214 -170.1 0.999849 -80.03 0.999849 -80.03 0.016214 -170.1
8.68525500 0.016219 -170.1 0.999849 -80.03 0.999849 -80.03 0.016219 -170.1
8.68526000 0.016223 -170.1 0.999849 -80.03 0.999849 -80.03 0.016223 -170.1
8.68526500 0.016228 -170.1 0.999849 -80.03 0.999849 -80.03 0.016228 -170.1
8.68527000 0.016232 -170.1 0.999849 -80.03 0.999849 -80.03 0.016232 -170.1
8.68527500 0.016237 -170.1 0.999848 -80.03 0.999848 -80.03 0.016237 -170.1
8.68528000 0.016241 -170.1 0.999848 -80.03 0.999848 -80.03 0.016241 -170.1
8.68528500 0.016246 -170.1 0.999848 -80.03 0.999848 -80.03 0.016246 -170.1
8.68529000 0.016250 -170.1 0.999848 -80.03 0.999848 -80.03 0.016250 -170.1
8.68529500 0.016255 -170.1 0.999848 -80.03 0.999848 -80.03 0.016255 -170.1
8.68530000 0.016259 -170.1 0.999848 -80.03 0.999848 -80.03 0.016259 -170.1
8.68530500 0.016264 -170.1 0.999848 -80.03 0.999848 -80.03 0.016264 -170.1
8.68531000 0.016268 -170.1 0.999848 -80.03 0.999848 -80.03 0.016268 -170.1
8.68531500 0.016273 -170.1 0.999848 -80.03 0.999848 -80.03 0.016273 -170.1
8.68532000 0.016277 -170.1 0.999848 -80.03 0.999848 -80.03 0.016277 -170.1
8.68532500 0.016282 -170.1 0.999848 -80.03 0.999848 -80.03 0.016282 -170.1
8.68533000 0.016287 -170.1 0.999847 -80.03 0.999847 -80.03 0.016286 -170.1
8.68533500 0.016291 -170.1 0.999847 -80.04 0.999847 -80.04 0.016291 -170.1
8.68534000 0.016296 -170.1 0.999847 -80.04 0.999847 -80.04 0.016295 -170.1
8.68534500 0.016300 -170.1 0.999847 -80.04 0.999847 -80.04 0.016300 -170.1
8.68535000 0.016305 -170.1 0.999847 -80.04 0.999847 -80.04 0.016305 -170.1
8.68535500 0.016309 -170.1 0.999847 -80.04 0.999847 -80.04 0.016309 -170.1
8.68536000 0.016314 -170.1 0.999847 -80.04 0.999847 -80.04 0.016314 -170.1
8.68536500 0.016318 -170.1 0.999847 -80.04 0.999847 -80.04 0.016318 -170.1
8.68537000 0.016323 -170.1 0.999847 -80.04 0.999847 -80.04 0.016323 -170.1
8.68537500 0.016328 -170.1 0.999847 -80.04 0.999847 -80.04 0.016327 -170.1
8.68538000 0.016332 -170.1 0.999847 -80.04 0.999847 -80.04 0.016332 -170.1
8.68538500 0.016337 -170.1 0.999846 -80.04 0.999846 -80.04 0.016337 -170.1
8.68539000 0.016341 -170.1 0.999846 -80.04 0.999846 -80.04 0.016341 -170.1
8.68539500 0.016346 -170.1 0.999846 -80.04 0.999846 -80.04 0.016346 -170.1
8.68540000 0.016351 -170.1 0.999846 -80.04 0.999846 -80.04 0.016350 -170.1
8.68540500 0.016355 -170.1 0.999846 -80.04 0.999846 -80.04 0.016355 -170.1
8.68541000 0.016360 -170.1 0.999846 -80.04 0.999846 -80.04 0.016360 -170.1
8.68541500 0.016365 -170.1 0.999846 -80.04 0.999846 -80.04 0.016364 -170.1
8.68542000 0.016369 -170.1 0.999846 -80.04 0.999846 -80.04 0.016369 -170.1
8.68542500 0.016374 -170.1 0.999846 -80.04 0.999846 -80.04 0.016374 -170.1
8.68543000 0.016379 -170.1 0.999846 -80.04 0.999846 -80.04 0.016378 -170.1
8.68543500 0.016383 -170.1 0.999845 -80.04 0.999845 -80.04 0.016383 -170.1
8.68544000 0.016388 -170.1 0.999845 -80.04 0.999845 -80.04 0.016388 -170.1
8.68544500 0.016393 -170.1 0.999845 -80.04 0.999845 -80.04 0.016392 -170.1
8.68545000 0.016397 -170.1 0.999845 -80.04 0.999845 -80.04 0.016397 -170.1
8.68545500 0.016402 -170.1 0.999845 -80.04 0.999845 -80.04 0.016402 -170.1
8.68546000 0.016407 -170.1 0.999845 -80.04 0.999845 -80.04 0.016406 -170.1
8.68546500 0.016411 -170.1 0.999845 -80.04 0.999845 -80.04 0.016411 -170.1
8.68547000 0.016416 -170.1 0.999845 -80.04 0.999845 -80.04 0.016416 -170.1
8.68547500 0.016421 -170.1 0.999845 -80.04 0.999845 -80.04 0.016420 -170.1
8.68548000 0.016425 -170.1 0.999845 -80.04 0.999845 -80.04 0.016425 -170.1
8.68548500 0.016430 -170.1 0.999844 -80.04 0.999844 -80.04 0.016430 -170.1
8.68549000 0.016435 -170.1 0.999844 -80.04 0.999844 -80.04 0.016435 -170.1
8.68549500 0.016440 -170.1 0.999844 -80.05 0.999844 -80.05 0.016439 -170.1
8.68550000 0.016444 -170.1 0.999844 -80.05 0.999844 -80.05 0.016444 -170.1
8.68550500 0.016449 -170.1 0.999844 -80.05 0.999844 -80.05 0.016449 -170.1
8.68551000 0.016454 -170.1 0.999844 -80.05 0.999844 -80.05 0.016454 -170.1
8.68551500 0.016458 -170.1 0.999844 -80.05 0.999844 -80.05 0.016458 -170.1
8.68552000 0.016463 -170.1 0.999844 -80.05 0.999844 -80.05 0.016463 -170.1
8.68552500 0.016468 -170.1 0.999844 -80.05 0.999844 -80.05 0.016468 -170.1
8.68553000 0.016473 -170.1 0.999844 -80.05 0.999844 -80.05 0.016473 -170.1
8.68553500 0.016478 -170.1 0.999843 -80.05 0.999843 -80.05 0.016477 -170.1
8.68554000 0.016482 -170.1 0.999843 -80.05 0.999843 -80.05 0.016482 -170.1
8.68554500 0.016487 -170.1 0.999843 -80.05 0.999843 -80.05 0.016487 -170.1
8.68555000 0.016492 -170.1 0.999843 -80.05 0.999843 -80.05 0.016492 -170.1
8.68555500 0.016497 -170.1 0.999843 -80.05 0.999843 -80.05 0.016496 -170.1
8.68556000 0.016501 -170.1 0.999843 -80.05 0.999843 -80.05 0.016501 -170.1
8.68556500 0.016506 -170.1 0.999843 -80.05 0.999843 -80.05 0.016506 -170.1
8.68557000 0.016511 -170.1 0.999843 -80.05 0.999843 -80.05 0.016511 -170.1
8.68557500 0.016516 -170.1 0.999843 -80.05 0.999843 -80.05 0.016516 -170.1
8.68558000 0.016521 -170.1 0.999843 -80.05 0.999843 -80.05 0.016521 -170.1
8.68558500 0.016526 -170.1 0.999842 -80.05 0.999842 -80.05 0.016525 -170.1
8.68559000 0.016530 -170.1 0.999842 -80.05 0.999842 -80.05 0.016530 -170.1
8.68559500 0.016535 -170.1 0.999842 -80.05 0.999842 -80.05 0.016535 -170.1
8.68560000 0.016540 -170.1 0.999842 -80.05 0.999842 -80.05 0.016540 -170.1
8.68560500 0.016545 -170.1 0.999842 -80.05 0.999842 -80.05 0.016545 -170.1
8.68561000 0.016550 -170.1 0.999842 -80.05 0.999842 -80.05 0.016550 -170.1
8.68561500 0.016555 -170.1 0.999842 -80.05 0.999842 -80.05 0.016554 -170.1
8.68562000 0.016560 -170.1 0.999842 -80.05 0.999842 -80.05 0.016559 -170.1
8.68562500 0.016564 -170.1 0.999842 -80.05 0.999842 -80.05 0.016564 -170.1
8.68563000 0.016569 -170.1 0.999842 -80.05 0.999842 -80.05 0.016569 -170.1
8.68563500 0.016574 -170.1 0.999841 -80.05 0.999841 -80.05 0.016574 -170.1
8.68564000 0.016579 -170.1 0.999841 -80.05 0.999841 -80.05 0.016579 -170.1
8.68564500 0.016584 -170.1 0.999841 -80.05 0.999841 -80.05 0.016584 -170.1
8.68565000 0.016589 -170.1 0.999841 -80.06 0.999841 -80.06 0.016589 -170.1
8.68565500 0.016594 -170.1 0.999841 -80.06 0.999841 -80.06 0.016594 -170.1
8.68566000 0.016599 -170.1 0.999841 -80.06 0.999841 -80.06 0.016599 -170.1
8.68566500 0.016604 -170.1 0.999841 -80.06 0.999841 -80.06 0.016603 -170.1
8.68567000 0.016609 -170.1 0.999841 -80.06 0.999841 -80.06 0.016608 -170.1
8.68567500 0.016614 -170.2 0.999841 -80.06 0.999841 -80.06 0.016613 -170.1
8.68568000 0.016618 -170.2 0.999841 -80.06 0.999841 -80.06 0.016618 -170.1
8.68568500 0.016623 -170.2 0.999840 -80.06 0.999840 -80.06 0.016623 -170.1
8.68569000 0.016628 -170.2 0.999840 -80.06 0.999840 -80.06 0.016628 -170.1
8.68569500 0.016633 -170.2 0.999840 -80.06 0.999840 -80.06 0.016633 -170.1
8.68570000 0.016638 -170.2 0.999840 -80.06 0.999840 -80.06 0.016638 -170.1
8.68570500 0.016643 -170.2 0.999840 -80.06 0.999840 -80.06 0.016643 -170.1
8.68571000 0.016648 -170.2 0.999840 -80.06 0.999840 -80.06 0.016648 -170.1
8.68571500 0.016653 -170.2 0.999840 -80.06 0.999840 -80.06 0.016653 -170.1
8.68572000 0.016658 -170.2 0.999840 -80.06 0.999840 -80.06 0.016658 -170.1
8.68572500 0.016663 -170.2 0.999840 -80.06 0.999840 -80.06 0.016663 -170.1
8.68573000 0.016668 -170.2 0.999839 -80.06 0.999839 -80.06 0.016668 -170.1
8.68573500 0.016673 -170.2 0.999839 -80.06 0.999839 -80.06 0.016673 -170.1
8.68574000 0.016678 -170.2 0.999839 -80.06 0.999839 -80.06 0.016678 -170.1
8.68574500 0.016683 -170.2 0.999839 -80.06 0.999839 -80.06 0.016683 -170.1
8.68575000 0.016688 -170.2 0.999839 -80.06 0.999839 -80.06 0.016688 -170.1
8.68575500 0.016693 -170.2 0.999839 -80.06 0.999839 -80.06 0.016693 -170.1
8.68576000 0.016698 -170.2 0.999839 -80.06 0.999839 -80.06 0.016698 -170.1
8.68576500 0.016704 -170.2 0.999839 -80.06 0.999839 -80.06 0.016703 -170.1
8.68577000 0.016709 -170.2 0.999839 -80.06 0.999839 -80.06 0.016708 -170.1
8.68577500 0.016714 -170.2 0.999838 -80.06 0.999838 -80.06 0.016713 -170.1
8.68578000 0.016719 -170.2 0.999838 -80.06 0.999838 -80.06 0.016719 -170.1
8.68578500 0.016724 -170.2 0.999838 -80.06 0.999838 -80.06 0.016724 -170.1
8.68579000 0.016729 -170.2 0.999838 -80.06 0.999838 -80.06 0.016729 -170.1
8.68579500 0.016734 -170.2 0.999838 -80.06 0.999838 -80.06 0.016734 -170.1
8.68580000 0.016739 -170.2 0.999838 -80.07 0.999838 -80.07 0.016739 -170.1
8.68580500 0.016744 -170.2 0.999838 -80.07 0.999838 -80.07 0.016744 -170.1
8.68581000 0.016749 -170.2 0.999838 -80.07 0.999838 -80.07 0.016749 -170.1
8.68581500 0.016754 -170.2 0.999838 -80.07 0.999838 -80.07 0.016754 -170.1
8.68582000 0.016759 -170.2 0.999838 -80.07 0.999838 -80.07 0.016759 -170.1
8.68582500 0.016765 -170.2 0.999837 -80.07 0.999837 -80.07 0.016764 -170.1
8.68583000 0.016770 -170.2 0.999837 -80.07 0.999837 -80.07 0.016770 -170.1
8.68583500 0.016775 -170.2 0.999837 -80.07 0.999837 -80.07 0.016775 -170.1
8.68584000 0.016780 -170.2 0.999837 -80.07 0.999837 -80.07 0.016780 -170.1
8.68584500 0.016785 -170.2 0.999837 -80.07 0.999837 -80.07 0.016785 -170.1
8.68585000 0.016790 -170.2 0.999837 -80.07 0.999837 -80.07 0.016790 -170.1
8.68585500 0.016796 -170.2 0.999837 -80.07 0.999837 -80.07 0.016795 -170.1
8.68586000 0.016801 -170.2 0.999837 -80.07 0.999837 -80.07 0.016800 -170.1
8.68586500 0.016806 -170.2 0.999837 -80.07 0.999837 -80.07 0.016806 -170.1
8.68587000 0.016811 -170.2 0.999836 -80.07 0.999836 -80.07 0.016811 -170.1
8.68587500 0.016816 -170.2 0.999836 -80.07 0.999836 -80.07 0.016816 -170.1
8.68588000 0.016821 -170.2 0.999836 -80.07 0.999836 -80.07 0.016821 -170.1
8.68588500 0.016827 -170.2 0.999836 -80.07 0.999836 -80.07 0.016826 -170.1
8.68589000 0.016832 -170.2 0.999836 -80.07 0.999836 -80.07 0.016832 -170.1
8.68589500 0.016837 -170.2 0.999836 -80.07 0.999836 -80.07 0.016837 -170.1
8.68590000 0.016842 -170.2 0.999836 -80.07 0.999836 -80.07 0.016842 -170.1
8.68590500 0.016848 -170.2 0.999836 -80.07 0.999836 -80.07 0.016847 -170.1
8.68591000 0.016853 -170.2 0.999835 -80.07 0.999835 -80.07 0.016853 -170.1
8.68591500 0.016858 -170.2 0.999835 -80.07 0.999835 -80.07 0.016858 -170.1
8.68592000 0.016863 -170.2 0.999835 -80.07 0.999835 -80.07 0.016863 -170.1
8.68592500 0.016869 -170.2 0.999835 -80.07 0.999835 -80.07 0.016868 -170.1
8.68593000 0.016874 -170.2 0.999835 -80.07 0.999835 -80.07 0.016874 -170.1
8.68593500 0.016879 -170.2 0.999835 -80.07 0.999835 -80.07 0.016879 -170.1
8.68594000 0.016884 -170.2 0.999835 -80.07 0.999835 -80.07 0.016884 -170.1
8.68594500 0.016890 -170.2 0.999835 -80.08 0.999835 -80.08 0.016889 -170.1
8.68595000 0.016895 -170.2 0.999835 -80.08 0.999835 -80.08 0.016895 -170.1
8.68595500 0.016900 -170.2 0.999834 -80.08 0.999834 -80.08 0.016900 -170.1
8.68596000 0.016906 -170.2 0.999834 -80.08 0.999834 -80.08 0.016905 -170.1
8.68596500 0.016911 -170.2 0.999834 -80.08 0.999834 -80.08 0.016911 -170.1
8.68597000 0.016916 -170.2 0.999834 -80.08 0.999834 -80.08 0.016916 -170.1
8.68597500 0.016922 -170.2 0.999834 -80.08 0.999834 -80.08 0.016921 -170.1
8.68598000 0.016927 -170.2 0.999834 -80.08 0.999834 -80.08 0.016927 -170.1
8.68598500 0.016932 -170.2 0.999834 -80.08 0.999834 -80.08 0.016932 -170.1
8.68599000 0.016938 -170.2 0.999834 -80.08 0.999834 -80.08 0.016937 -170.1
8.68599500 0.016943 -170.2 0.999834 -80.08 0.999834 -80.08 0.016943 -170.1
8.68600000 0.016948 -170.2 0.999833 -80.08 0.999833 -80.08 0.016948 -170.1
8.68600500 0.016954 -170.2 0.999833 -80.08 0.999833 -80.08 0.016953 -170.1
8.68601000 0.016959 -170.2 0.999833 -80.08 0.999833 -80.08 0.016959 -170.1
8.68601500 0.016964 -170.2 0.999833 -80.08 0.999833 -80.08 0.016964 -170.1
8.68602000 0.016970 -170.2 0.999833 -80.08 0.999833 -80.08 0.016970 -170.1
8.68602500 0.016975 -170.2 0.999833 -80.08 0.999833 -80.08 0.016975 -170.1
8.68603000 0.016981 -170.2 0.999833 -80.08 0.999833 -80.08 0.016980 -170.1
8.68603500 0.016986 -170.2 0.999833 -80.08 0.999833 -80.08 0.016986 -170.1
8.68604000 0.016991 -170.2 0.999832 -80.08 0.999832 -80.08 0.016991 -170.1
8.68604500 0.016997 -170.2 0.999832 -80.08 0.999832 -80.08 0.016997 -170.1
8.68605000 0.017002 -170.2 0.999832 -80.08 0.999832 -80.08 0.017002 -170.1
8.68605500 0.017008 -170.2 0.999832 -80.08 0.999832 -80.08 0.017007 -170.1
8.68606000 0.017013 -170.2 0.999832 -80.08 0.999832 -80.08 0.017013 -170.1
8.68606500 0.017019 -170.2 0.999832 -80.08 0.999832 -80.08 0.017018 -170.1
8.68607000 0.017024 -170.2 0.999832 -80.08 0.999832 -80.08 0.017024 -170.1
8.68607500 0.017030 -170.2 0.999832 -80.08 0.999832 -80.08 0.017029 -170.1
8.68608000 0.017035 -170.2 0.999832 -80.08 0.999832 -80.08 0.017035 -170.1
8.68608500 0.017040 -170.2 0.999831 -80.09 0.999831 -80.09 0.017040 -170.1
8.68609000 0.017046 -170.2 0.999831 -80.09 0.999831 -80.09 0.017046 -170.1
8.68609500 0.017051 -170.2 0.999831 -80.09 0.999831 -80.09 0.017051 -170.1
8.68610000 0.017057 -170.2 0.999831 -80.09 0.999831 -80.09 0.017057 -170.1
8.68610500 0.017062 -170.2 0.999831 -80.09 0.999831 -80.09 0.017062 -170.1
8.68611000 0.017068 -170.2 0.999831 -80.09 0.999831 -80.09 0.017068 -170.1
8.68611500 0.017074 -170.2 0.999831 -80.09 0.999831 -80.09 0.017073 -170.1
8.68612000 0.017079 -170.2 0.999831 -80.09 0.999831 -80.09 0.017079 -170.1
8.68612500 0.017085 -170.2 0.999830 -80.09 0.999830 -80.09 0.017084 -170.1
8.68613000 0.017090 -170.2 0.999830 -80.09 0.999830 -80.09 0.017090 -170.1
8.68613500 0.017096 -170.2 0.999830 -80.09 0.999830 -80.09 0.017095 -170.2
8.68614000 0.017101 -170.2 0.999830 -80.09 0.999830 -80.09 0.017101 -170.2
8.68614500 0.017107 -170.2 0.999830 -80.09 0.999830 -80.09 0.017107 -170.2
8.68615000 0.017112 -170.2 0.999830 -80.09 0.999830 -80.09 0.017112 -170.2
8.68615500 0.017118 -170.2 0.999830 -80.09 0.999830 -80.09 0.017118 -170.2
8.68616000 0.017124 -170.2 0.999830 -80.09 0.999830 -80.09 0.017123 -170.2
8.68616500 0.017129 -170.2 0.999829 -80.09 0.999829 -80.09 0.017129 -170.2
8.68617000 0.017135 -170.2 0.999829 -80.09 0.999829 -80.09 0.017135 -170.2
8.68617500 0.017140 -170.2 0.999829 -80.09 0.999829 -80.09 0.017140 -170.2
8.68618000 0.017146 -170.2 0.999829 -80.09 0.999829 -80.09 0.017146 -170.2
8.68618500 0.017152 -170.2 0.999829 -80.09 0.999829 -80.09 0.017151 -170.2
8.68619000 0.017157 -170.2 0.999829 -80.09 0.999829 -80.09 0.017157 -170.2
8.68619500 0.017163 -170.2 0.999829 -80.09 0.999829 -80.09 0.017163 -170.2
8.68620000 0.017169 -170.2 0.999829 -80.09 0.999829 -80.09 0.017168 -170.2
8.68620500 0.017174 -170.2 0.999828 -80.09 0.999828 -80.09 0.017174 -170.2
8.68621000 0.017180 -170.2 0.999828 -80.09 0.999828 -80.09 0.017180 -170.2
8.68621500 0.017186 -170.2 0.999828 -80.09 0.999828 -80.09 0.017185 -170.2
8.68622000 0.017191 -170.2 0.999828 -80.09 0.999828 -80.09 0.017191 -170.2
8.68622500 0.017197 -170.2 0.999828 -80.10 0.999828 -80.10 0.017197 -170.2
8.68623000 0.017203 -170.2 0.999828 -80.10 0.999828 -80.10 0.017202 -170.2
8.68623500 0.017208 -170.2 0.999828 -80.10 0.999828 -80.10 0.017208 -170.2
8.68624000 0.017214 -170.2 0.999828 -80.10 0.999828 -80.10 0.017214 -170.2
8.68624500 0.017220 -170.2 0.999827 -80.10 0.999827 -80.10 0.017220 -170.2
8.68625000 0.017225 -170.2 0.999827 -80.10 0.999827 -80.10 0.017225 -170.2
8.68625500 0.017231 -170.2 0.999827 -80.10 0.999827 -80.10 0.017231 -170.2
8.68626000 0.017237 -170.2 0.999827 -80.10 0.999827 -80.10 0.017237 -170.2
8.68626500 0.017243 -170.2 0.999827 -80.10 0.999827 -80.10 0.017242 -170.2
8.68627000 0.017248 -170.2 0.999827 -80.10 0.999827 -80.10 0.017248 -170.2
8.68627500 0.017254 -170.2 0.999827 -80.10 0.999827 -80.10 0.017254 -170.2
8.68628000 0.017260 -170.2 0.999827 -80.10 0.999827 -80.10 0.017260 -170.2
8.68628500 0.017266 -170.2 0.999826 -80.10 0.999826 -80.10 0.017266 -170.2
8.68629000 0.017272 -170.2 0.999826 -80.10 0.999826 -80.10 0.017271 -170.2
8.68629500 0.017277 -170.2 0.999826 -80.10 0.999826 -80.10 0.017277 -170.2
8.68630000 0.017283 -170.2 0.999826 -80.10 0.999826 -80.10 0.017283 -170.2
8.68630500 0.017289 -170.2 0.999826 -80.10 0.999826 -80.10 0.017289 -170.2
8.68631000 0.017295 -170.2 0.999826 -80.10 0.999826 -80.10 0.017295 -170.2
8.68631500 0.017301 -170.2 0.999826 -80.10 0.999826 -80.10 0.017300 -170.2
8.68632000 0.017306 -170.2 0.999826 -80.10 0.999826 -80.10 0.017306 -170.2
8.68632500 0.017312 -170.2 0.999825 -80.10 0.999825 -80.10 0.017312 -170.2
8.68633000 0.017318 -170.2 0.999825 -80.10 0.999825 -80.10 0.017318 -170.2
8.68633500 0.017324 -170.2 0.999825 -80.10 0.999825 -80.10 0.017324 -170.2
8.68634000 0.017330 -170.2 0.999825 -80.10 0.999825 -80.10 0.017330 -170.2
8.68634500 0.017336 -170.2 0.999825 -80.10 0.999825 -80.10 0.017335 -170.2
8.68635000 0.017342 -170.2 0.999825 -80.10 0.999825 -80.10 0.017341 -170.2
8.68635500 0.017347 -170.2 0.999825 -80.11 0.999825 -80.11 0.017347 -170.2
8.68636000 0.017353 -170.2 0.999825 -80.11 0.999825 -80.11 0.017353 -170.2
8.68636500 0.017359 -170.2 0.999824 -80.11 0.999824 -80.11 0.017359 -170.2
8.68637000 0.017365 -170.2 0.999824 -80.11 0.999824 -80.11 0.017365 -170.2
8.68637500 0.017371 -170.2 0.999824 -80.11 0.999824 -80.11 0.017371 -170.2
8.68638000 0.017377 -170.2 0.999824 -80.11 0.999824 -80.11 0.017377 -170.2
8.68638500 0.017383 -170.2 0.999824 -80.11 0.999824 -80.11 0.017383 -170.2
8.68639000 0.017389 -170.2 0.999824 -80.11 0.999824 -80.11 0.017389 -170.2
8.68639500 0.017395 -170.2 0.999824 -80.11 0.999824 -80.11 0.017395 -170.2
8.68640000 0.017401 -170.2 0.999823 -80.11 0.999823 -80.11 0.017401 -170.2
8.68640500 0.017407 -170.2 0.999823 -80.11 0.999823 -80.11 0.017407 -170.2
8.68641000 0.017413 -170.2 0.999823 -80.11 0.999823 -80.11 0.017413 -170.2
8.68641500 0.017419 -170.2 0.999823 -80.11 0.999823 -80.11 0.017419 -170.2
8.68642000 0.017425 -170.2 0.999823 -80.11 0.999823 -80.11 0.017425 -170.2
8.68642500 0.017431 -170.2 0.999823 -80.11 0.999823 -80.11 0.017431 -170.2
8.68643000 0.017437 -170.2 0.999823 -80.11 0.999823 -80.11 0.017437 -170.2
8.68643500 0.017443 -170.2 0.999823 -80.11 0.999823 -80.11 0.017443 -170.2
8.68644000 0.017449 -170.2 0.999822 -80.11 0.999822 -80.11 0.017449 -170.2
8.68644500 0.017455 -170.2 0.999822 -80.11 0.999822 -80.11 0.017455 -170.2
8.68645000 0.017461 -170.2 0.999822 -80.11 0.999822 -80.11 0.017461 -170.2
8.68645500 0.017467 -170.2 0.999822 -80.11 0.999822 -80.11 0.017467 -170.2
8.68646000 0.017473 -170.2 0.999822 -80.11 0.999822 -80.11 0.017473 -170.2
8.68646500 0.017479 -170.2 0.999822 -80.11 0.999822 -80.11 0.017479 -170.2
8.68647000 0.017485 -170.2 0.999822 -80.11 0.999822 -80.11 0.017485 -170.2
8.68647500 0.017491 -170.2 0.999821 -80.11 0.999821 -80.11 0.017491 -170.2
8.68648000 0.017497 -170.2 0.999821 -80.11 0.999821 -80.11 0.017497 -170.2
8.68648500 0.017503 -170.2 0.999821 -80.12 0.999821 -80.12 0.017503 -170.2
8.68649000 0.017510 -170.2 0.999821 -80.12 0.999821 -80.12 0.017509 -170.2
8.68649500 0.017516 -170.2 0.999821 -80.12 0.999821 -80.12 0.017515 -170.2
8.68650000 0.017522 -170.2 0.999821 -80.12 0.999821 -80.12 0.017522 -170.2
8.68650500 0.017528 -170.2 0.999821 -80.12 0.999821 -80.12 0.017528 -170.2
8.68651000 0.017534 -170.2 0.999820 -80.12 0.999820 -80.12 0.017534 -170.2
8.68651500 0.017540 -170.2 0.999820 -80.12 0.999820 -80.12 0.017540 -170.2
8.68652000 0.017546 -170.2 0.999820 -80.12 0.999820 -80.12 0.017546 -170.2
8.68652500 0.017553 -170.2 0.999820 -80.12 0.999820 -80.12 0.017552 -170.2
8.68653000 0.017559 -170.2 0.999820 -80.12 0.999820 -80.12 0.017558 -170.2
8.68653500 0.017565 -170.2 0.999820 -80.12 0.999820 -80.12 0.017565 -170.2
8.68654000 0.017571 -170.2 0.999820 -80.12 0.999820 -80.12 0.017571 -170.2
8.68654500 0.017577 -170.2 0.999819 -80.12 0.999819 -80.12 0.017577 -170.2
8.68655000 0.017583 -170.2 0.999819 -80.12 0.999819 -80.12 0.017583 -170.2
8.68655500 0.017590 -170.2 0.999819 -80.12 0.999819 -80.12 0.017589 -170.2
8.68656000 0.017596 -170.2 0.999819 -80.12 0.999819 -80.12 0.017596 -170.2
8.68656500 0.017602 -170.2 0.999819 -80.12 0.999819 -80.12 0.017602 -170.2
8.68657000 0.017608 -170.2 0.999819 -80.12 0.999819 -80.12 0.017608 -170.2
8.68657500 0.017615 -170.2 0.999819 -80.12 0.999819 -80.12 0.017614 -170.2
8.68658000 0.017621 -170.2 0.999818 -80.12 0.999818 -80.12 0.017621 -170.2
8.68658500 0.017627 -170.2 0.999818 -80.12 0.999818 -80.12 0.017627 -170.2
8.68659000 0.017633 -170.2 0.999818 -80.12 0.999818 -80.12 0.017633 -170.2
8.68659500 0.017640 -170.2 0.999818 -80.12 0.999818 -80.12 0.017640 -170.2
8.68660000 0.017646 -170.2 0.999818 -80.12 0.999818 -80.12 0.017646 -170.2
8.68660500 0.017652 -170.2 0.999818 -80.12 0.999818 -80.12 0.017652 -170.2
8.68661000 0.017659 -170.2 0.999818 -80.13 0.999818 -80.13 0.017658 -170.2
8.68661500 0.017665 -170.2 0.999817 -80.13 0.999817 -80.13 0.017665 -170.2
8.68662000 0.017671 -170.2 0.999817 -80.13 0.999817 -80.13 0.017671 -170.2
8.68662500 0.017678 -170.2 0.999817 -80.13 0.999817 -80.13 0.017677 -170.2
8.68663000 0.017684 -170.2 0.999817 -80.13 0.999817 -80.13 0.017684 -170.2
8.68663500 0.017690 -170.2 0.999817 -80.13 0.999817 -80.13 0.017690 -170.2
8.68664000 0.017697 -170.2 0.999817 -80.13 0.999817 -80.13 0.017697 -170.2
8.68664500 0.017703 -170.2 0.999817 -80.13 0.999817 -80.13 0.017703 -170.2
8.68665000 0.017710 -170.2 0.999816 -80.13 0.999816 -80.13 0.017709 -170.2
8.68665500 0.017716 -170.2 0.999816 -80.13 0.999816 -80.13 0.017716 -170.2
8.68666000 0.017722 -170.2 0.999816 -80.13 0.999816 -80.13 0.017722 -170.2
8.68666500 0.017729 -170.2 0.999816 -80.13 0.999816 -80.13 0.017729 -170.2
8.68667000 0.017735 -170.2 0.999816 -80.13 0.999816 -80.13 0.017735 -170.2
8.68667500 0.017742 -170.2 0.999816 -80.13 0.999816 -80.13 0.017741 -170.2
8.68668000 0.017748 -170.2 0.999816 -80.13 0.999816 -80.13 0.017748 -170.2
8.68668500 0.017755 -170.2 0.999815 -80.13 0.999815 -80.13 0.017754 -170.2
8.68669000 0.017761 -170.2 0.999815 -80.13 0.999815 -80.13 0.017761 -170.2
8.68669500 0.017767 -170.2 0.999815 -80.13 0.999815 -80.13 0.017767 -170.2
8.68670000 0.017774 -170.2 0.999815 -80.13 0.999815 -80.13 0.017774 -170.2
8.68670500 0.017780 -170.2 0.999815 -80.13 0.999815 -80.13 0.017780 -170.2
8.68671000 0.017787 -170.2 0.999815 -80.13 0.999815 -80.13 0.017787 -170.2
8.68671500 0.017793 -170.2 0.999815 -80.13 0.999815 -80.13 0.017793 -170.2
8.68672000 0.017800 -170.2 0.999814 -80.13 0.999814 -80.13 0.017800 -170.2
8.68672500 0.017806 -170.2 0.999814 -80.13 0.999814 -80.13 0.017806 -170.2
8.68673000 0.017813 -170.2 0.999814 -80.14 0.999814 -80.14 0.017813 -170.2
8.68673500 0.017820 -170.2 0.999814 -80.14 0.999814 -80.14 0.017819 -170.2
8.68674000 0.017826 -170.2 0.999814 -80.14 0.999814 -80.14 0.017826 -170.2
8.68674500 0.017833 -170.2 0.999814 -80.14 0.999814 -80.14 0.017832 -170.2
8.68675000 0.017839 -170.2 0.999813 -80.14 0.999813 -80.14 0.017839 -170.2
8.68675500 0.017846 -170.2 0.999813 -80.14 0.999813 -80.14 0.017846 -170.2
8.68676000 0.017852 -170.2 0.999813 -80.14 0.999813 -80.14 0.017852 -170.2
8.68676500 0.017859 -170.2 0.999813 -80.14 0.999813 -80.14 0.017859 -170.2
8.68677000 0.017866 -170.2 0.999813 -80.14 0.999813 -80.14 0.017865 -170.2
8.68677500 0.017872 -170.2 0.999813 -80.14 0.999813 -80.14 0.017872 -170.2
8.68678000 0.017879 -170.2 0.999813 -80.14 0.999813 -80.14 0.017879 -170.2
8.68678500 0.017885 -170.2 0.999812 -80.14 0.999812 -80.14 0.017885 -170.2
8.68679000 0.017892 -170.2 0.999812 -80.14 0.999812 -80.14 0.017892 -170.2
8.68679500 0.017899 -170.2 0.999812 -80.14 0.999812 -80.14 0.017899 -170.2
8.68680000 0.017905 -170.2 0.999812 -80.14 0.999812 -80.14 0.017905 -170.2
8.68680500 0.017912 -170.2 0.999812 -80.14 0.999812 -80.14 0.017912 -170.2
8.68681000 0.017919 -170.2 0.999812 -80.14 0.999812 -80.14 0.017919 -170.2
8.68681500 0.017925 -170.2 0.999811 -80.14 0.999811 -80.14 0.017925 -170.2
8.68682000 0.017932 -170.2 0.999811 -80.14 0.999811 -80.14 0.017932 -170.2
8.68682500 0.017939 -170.2 0.999811 -80.14 0.999811 -80.14 0.017939 -170.2
8.68683000 0.017946 -170.2 0.999811 -80.14 0.999811 -80.14 0.017945 -170.2
8.68683500 0.017952 -170.2 0.999811 -80.14 0.999811 -80.14 0.017952 -170.2
8.68684000 0.017959 -170.2 0.999811 -80.14 0.999811 -80.14 0.017959 -170.2
8.68684500 0.017966 -170.2 0.999811 -80.15 0.999811 -80.15 0.017966 -170.2
8.68685000 0.017973 -170.2 0.999810 -80.15 0.999810 -80.15 0.017972 -170.2
8.68685500 0.017979 -170.2 0.999810 -80.15 0.999810 -80.15 0.017979 -170.2
8.68686000 0.017986 -170.2 0.999810 -80.15 0.999810 -80.15 0.017986 -170.2
8.68686500 0.017993 -170.2 0.999810 -80.15 0.999810 -80.15 0.017993 -170.2
8.68687000 0.018000 -170.2 0.999810 -80.15 0.999810 -80.15 0.018000 -170.2
8.68687500 0.018007 -170.2 0.999810 -80.15 0.999810 -80.15 0.018006 -170.2
8.68688000 0.018013 -170.2 0.999809 -80.15 0.999809 -80.15 0.018013 -170.2
8.68688500 0.018020 -170.2 0.999809 -80.15 0.999809 -80.15 0.018020 -170.2
8.68689000 0.018027 -170.2 0.999809 -80.15 0.999809 -80.15 0.018027 -170.2
8.68689500 0.018034 -170.2 0.999809 -80.15 0.999809 -80.15 0.018034 -170.2
8.68690000 0.018041 -170.2 0.999809 -80.15 0.999809 -80.15 0.018041 -170.2
8.68690500 0.018048 -170.2 0.999809 -80.15 0.999809 -80.15 0.018047 -170.2
8.68691000 0.018055 -170.2 0.999808 -80.15 0.999808 -80.15 0.018054 -170.2
8.68691500 0.018061 -170.2 0.999808 -80.15 0.999808 -80.15 0.018061 -170.2
8.68692000 0.018068 -170.2 0.999808 -80.15 0.999808 -80.15 0.018068 -170.2
8.68692500 0.018075 -170.2 0.999808 -80.15 0.999808 -80.15 0.018075 -170.2
8.68693000 0.018082 -170.2 0.999808 -80.15 0.999808 -80.15 0.018082 -170.2
8.68693500 0.018089 -170.2 0.999808 -80.15 0.999808 -80.15 0.018089 -170.2
8.68694000 0.018096 -170.2 0.999807 -80.15 0.999807 -80.15 0.018096 -170.2
8.68694500 0.018103 -170.2 0.999807 -80.15 0.999807 -80.15 0.018103 -170.2
8.68695000 0.018110 -170.2 0.999807 -80.15 0.999807 -80.15 0.018110 -170.2
8.68695500 0.018117 -170.2 0.999807 -80.15 0.999807 -80.15 0.018117 -170.2