! Sonnet Data File
! From: emgraph Version : 16.52
! From Project: Qubit_Xmon2_brg_para
! Data is De-embedded 
! Data File Written: 11/12/2017 19:09:19
!< HDATE 11/12/2017 17:12:30
!< MDATE 11/12/2017 17:12:30
!< PARAMS
!< Lj = 11.0
!< Gap = 6.0
!< Pwid = 2000.0
!< Airgap = 6.0
!< Width = 10.0
!< Bwid = 8.0
!< Dis1 = 550.0
!< Dis2 = 556.0
!< END PARAMS
# GHZ S MA R 51.80000
8.76000000 0.012231 -170.2 0.999905 -80.86 0.999905 -80.86 0.012231 -171.7
!< P1 F=8.76 Eeff=(6.44679139 -2.9786e-5) Z0=(51.7991425 1.19067e-4) R=0.0 C=0.0 
!< P2 F=8.76 Eeff=(6.44679139 -2.9786e-5) Z0=(51.7991425 1.19067e-4) R=0.0 C=0.0 
8.76002000 0.012249 -170.2 0.999905 -80.86 0.999905 -80.86 0.012249 -171.7
8.76004000 0.012267 -170.2 0.999905 -80.86 0.999905 -80.86 0.012267 -171.7
8.76006000 0.012285 -170.2 0.999905 -80.87 0.999905 -80.87 0.012285 -171.7
8.76008000 0.012303 -170.2 0.999904 -80.87 0.999904 -80.87 0.012303 -171.7
8.76010000 0.012321 -170.2 0.999904 -80.87 0.999904 -80.87 0.012321 -171.7
8.76012000 0.012340 -170.2 0.999904 -80.87 0.999904 -80.87 0.012340 -171.7
8.76014000 0.012358 -170.2 0.999903 -80.87 0.999903 -80.87 0.012358 -171.7
8.76016000 0.012377 -170.2 0.999903 -80.87 0.999903 -80.87 0.012377 -171.7
8.76018000 0.012396 -170.2 0.999903 -80.87 0.999903 -80.87 0.012395 -171.7
8.76020000 0.012414 -170.2 0.999902 -80.87 0.999902 -80.87 0.012414 -171.7
8.76022000 0.012433 -170.2 0.999902 -80.88 0.999902 -80.88 0.012433 -171.7
8.76024000 0.012452 -170.2 0.999902 -80.88 0.999902 -80.88 0.012452 -171.7
8.76026000 0.012471 -170.2 0.999901 -80.88 0.999901 -80.88 0.012471 -171.7
8.76028000 0.012490 -170.2 0.999901 -80.88 0.999901 -80.88 0.012490 -171.7
8.76030000 0.012509 -170.2 0.999901 -80.88 0.999901 -80.88 0.012509 -171.7
8.76032000 0.012529 -170.2 0.999900 -80.88 0.999900 -80.88 0.012528 -171.7
8.76034000 0.012548 -170.2 0.999900 -80.88 0.999900 -80.88 0.012548 -171.7
8.76036000 0.012567 -170.2 0.999900 -80.89 0.999900 -80.89 0.012567 -171.7
8.76038000 0.012587 -170.2 0.999899 -80.89 0.999899 -80.89 0.012587 -171.7
8.76040000 0.012607 -170.2 0.999899 -80.89 0.999899 -80.89 0.012606 -171.7
8.76042000 0.012626 -170.2 0.999899 -80.89 0.999899 -80.89 0.012626 -171.7
8.76044000 0.012646 -170.2 0.999898 -80.89 0.999898 -80.89 0.012646 -171.7
8.76046000 0.012666 -170.2 0.999898 -80.89 0.999898 -80.89 0.012666 -171.7
8.76048000 0.012686 -170.2 0.999898 -80.89 0.999898 -80.89 0.012686 -171.7
8.76050000 0.012706 -170.2 0.999897 -80.89 0.999897 -80.89 0.012706 -171.7
8.76052000 0.012727 -170.2 0.999897 -80.90 0.999897 -80.90 0.012726 -171.7
8.76054000 0.012747 -170.2 0.999897 -80.90 0.999897 -80.90 0.012747 -171.7
8.76056000 0.012767 -170.2 0.999896 -80.90 0.999896 -80.90 0.012767 -171.7
8.76058000 0.012788 -170.3 0.999896 -80.90 0.999896 -80.90 0.012788 -171.7
8.76060000 0.012808 -170.3 0.999896 -80.90 0.999896 -80.90 0.012808 -171.7
8.76062000 0.012829 -170.3 0.999895 -80.90 0.999895 -80.90 0.012829 -171.7
8.76064000 0.012850 -170.3 0.999895 -80.90 0.999895 -80.90 0.012850 -171.7
8.76066000 0.012871 -170.3 0.999895 -80.91 0.999895 -80.91 0.012871 -171.7
8.76068000 0.012892 -170.3 0.999894 -80.91 0.999894 -80.91 0.012892 -171.8
8.76070000 0.012913 -170.3 0.999894 -80.91 0.999894 -80.91 0.012913 -171.8
8.76072000 0.012934 -170.3 0.999893 -80.91 0.999893 -80.91 0.012934 -171.8
8.76074000 0.012956 -170.3 0.999893 -80.91 0.999893 -80.91 0.012956 -171.8
8.76076000 0.012977 -170.3 0.999893 -80.91 0.999893 -80.91 0.012977 -171.8
8.76078000 0.012999 -170.3 0.999892 -80.91 0.999892 -80.91 0.012999 -171.8
8.76080000 0.013020 -170.3 0.999892 -80.92 0.999892 -80.92 0.013020 -171.8
8.76082000 0.013042 -170.3 0.999892 -80.92 0.999892 -80.92 0.013042 -171.8
8.76084000 0.013064 -170.3 0.999891 -80.92 0.999891 -80.92 0.013064 -171.8
8.76086000 0.013086 -170.3 0.999891 -80.92 0.999891 -80.92 0.013086 -171.8
8.76088000 0.013108 -170.3 0.999890 -80.92 0.999890 -80.92 0.013108 -171.8
8.76090000 0.013130 -170.3 0.999890 -80.92 0.999890 -80.92 0.013130 -171.8
8.76092000 0.013153 -170.3 0.999890 -80.92 0.999890 -80.92 0.013153 -171.8
8.76094000 0.013175 -170.3 0.999889 -80.93 0.999889 -80.93 0.013175 -171.8
8.76096000 0.013198 -170.3 0.999889 -80.93 0.999889 -80.93 0.013198 -171.8
8.76098000 0.013220 -170.3 0.999888 -80.93 0.999888 -80.93 0.013220 -171.8
8.76100000 0.013243 -170.3 0.999888 -80.93 0.999888 -80.93 0.013243 -171.8
8.76102000 0.013266 -170.3 0.999888 -80.93 0.999888 -80.93 0.013266 -171.8
8.76104000 0.013289 -170.3 0.999887 -80.93 0.999887 -80.93 0.013289 -171.8
8.76106000 0.013312 -170.3 0.999887 -80.93 0.999887 -80.93 0.013312 -171.8
8.76108000 0.013336 -170.3 0.999886 -80.94 0.999886 -80.94 0.013335 -171.8
8.76110000 0.013359 -170.3 0.999886 -80.94 0.999886 -80.94 0.013359 -171.8
8.76112000 0.013383 -170.3 0.999885 -80.94 0.999885 -80.94 0.013382 -171.8
8.76114000 0.013406 -170.3 0.999885 -80.94 0.999885 -80.94 0.013406 -171.8
8.76116000 0.013430 -170.3 0.999885 -80.94 0.999885 -80.94 0.013430 -171.8
8.76118000 0.013454 -170.3 0.999884 -80.94 0.999884 -80.94 0.013454 -171.8
8.76120000 0.013478 -170.3 0.999884 -80.94 0.999884 -80.94 0.013478 -171.8
8.76122000 0.013502 -170.3 0.999883 -80.95 0.999883 -80.95 0.013502 -171.8
8.76124000 0.013526 -170.3 0.999883 -80.95 0.999883 -80.95 0.013526 -171.8
8.76126000 0.013551 -170.3 0.999882 -80.95 0.999882 -80.95 0.013551 -171.8
8.76128000 0.013575 -170.3 0.999882 -80.95 0.999882 -80.95 0.013575 -171.8
8.76130000 0.013600 -170.3 0.999881 -80.95 0.999881 -80.95 0.013600 -171.8
8.76132000 0.013625 -170.3 0.999881 -80.95 0.999881 -80.95 0.013625 -171.8
8.76134000 0.013650 -170.3 0.999880 -80.96 0.999880 -80.96 0.013650 -171.8
8.76136000 0.013675 -170.3 0.999880 -80.96 0.999880 -80.96 0.013675 -171.8
8.76138000 0.013700 -170.3 0.999880 -80.96 0.999880 -80.96 0.013700 -171.8
8.76140000 0.013725 -170.3 0.999879 -80.96 0.999879 -80.96 0.013725 -171.8
8.76142000 0.013751 -170.3 0.999879 -80.96 0.999879 -80.96 0.013751 -171.8
8.76144000 0.013777 -170.3 0.999878 -80.96 0.999878 -80.96 0.013776 -171.8
8.76146000 0.013802 -170.3 0.999878 -80.97 0.999878 -80.97 0.013802 -171.8
8.76148000 0.013828 -170.3 0.999877 -80.97 0.999877 -80.97 0.013828 -171.8
8.76150000 0.013854 -170.3 0.999877 -80.97 0.999877 -80.97 0.013854 -171.8
8.76152000 0.013880 -170.3 0.999876 -80.97 0.999876 -80.97 0.013880 -171.8
8.76154000 0.013907 -170.3 0.999876 -80.97 0.999876 -80.97 0.013907 -171.9
8.76156000 0.013933 -170.3 0.999875 -80.97 0.999875 -80.97 0.013933 -171.9
8.76158000 0.013960 -170.3 0.999875 -80.98 0.999875 -80.98 0.013960 -171.9
8.76160000 0.013987 -170.3 0.999874 -80.98 0.999874 -80.98 0.013987 -171.9
8.76162000 0.014014 -170.3 0.999874 -80.98 0.999874 -80.98 0.014014 -171.9
8.76164000 0.014041 -170.3 0.999873 -80.98 0.999873 -80.98 0.014041 -171.9
8.76166000 0.014068 -170.3 0.999873 -80.98 0.999873 -80.98 0.014068 -171.9
8.76168000 0.014095 -170.3 0.999872 -80.98 0.999872 -80.98 0.014095 -171.9
8.76170000 0.014123 -170.3 0.999871 -80.99 0.999871 -80.99 0.014123 -171.9
8.76172000 0.014151 -170.3 0.999871 -80.99 0.999871 -80.99 0.014150 -171.9
8.76174000 0.014179 -170.3 0.999870 -80.99 0.999870 -80.99 0.014178 -171.9
8.76176000 0.014207 -170.3 0.999870 -80.99 0.999870 -80.99 0.014206 -171.9
8.76178000 0.014235 -170.3 0.999869 -80.99 0.999869 -80.99 0.014235 -171.9
8.76180000 0.014263 -170.3 0.999869 -81.00 0.999869 -81.00 0.014263 -171.9
8.76182000 0.014292 -170.3 0.999868 -81.00 0.999868 -81.00 0.014291 -171.9
8.76184000 0.014320 -170.3 0.999868 -81.00 0.999868 -81.00 0.014320 -171.9
8.76186000 0.014349 -170.3 0.999867 -81.00 0.999867 -81.00 0.014349 -171.9
8.76188000 0.014378 -170.3 0.999867 -81.00 0.999867 -81.00 0.014378 -171.9
8.76190000 0.014407 -170.3 0.999866 -81.00 0.999866 -81.00 0.014407 -171.9
8.76192000 0.014437 -170.3 0.999865 -81.01 0.999865 -81.01 0.014437 -171.9
8.76194000 0.014466 -170.3 0.999865 -81.01 0.999865 -81.01 0.014466 -171.9
8.76196000 0.014496 -170.3 0.999864 -81.01 0.999864 -81.01 0.014496 -171.9
8.76198000 0.014526 -170.3 0.999864 -81.01 0.999864 -81.01 0.014526 -171.9
8.76200000 0.014556 -170.4 0.999863 -81.01 0.999863 -81.01 0.014556 -171.9
8.76202000 0.014586 -170.4 0.999862 -81.02 0.999862 -81.02 0.014586 -171.9
8.76204000 0.014617 -170.4 0.999862 -81.02 0.999862 -81.02 0.014616 -171.9
8.76206000 0.014647 -170.4 0.999861 -81.02 0.999861 -81.02 0.014647 -171.9
8.76208000 0.014678 -170.4 0.999861 -81.02 0.999861 -81.02 0.014678 -171.9
8.76210000 0.014709 -170.4 0.999860 -81.02 0.999860 -81.02 0.014709 -171.9
8.76212000 0.014740 -170.4 0.999859 -81.03 0.999859 -81.03 0.014740 -171.9
8.76214000 0.014771 -170.4 0.999859 -81.03 0.999859 -81.03 0.014771 -171.9
8.76216000 0.014803 -170.4 0.999858 -81.03 0.999858 -81.03 0.014803 -171.9
8.76218000 0.014835 -170.4 0.999857 -81.03 0.999857 -81.03 0.014834 -171.9
8.76220000 0.014867 -170.4 0.999857 -81.03 0.999857 -81.03 0.014866 -171.9
8.76222000 0.014899 -170.4 0.999856 -81.04 0.999856 -81.04 0.014898 -171.9
8.76224000 0.014931 -170.4 0.999855 -81.04 0.999855 -81.04 0.014931 -172.0
8.76226000 0.014963 -170.4 0.999855 -81.04 0.999855 -81.04 0.014963 -172.0
8.76228000 0.014996 -170.4 0.999854 -81.04 0.999854 -81.04 0.014996 -172.0
8.76230000 0.015029 -170.4 0.999853 -81.04 0.999853 -81.04 0.015029 -172.0
8.76232000 0.015062 -170.4 0.999853 -81.05 0.999853 -81.05 0.015062 -172.0
8.76234000 0.015096 -170.4 0.999852 -81.05 0.999852 -81.05 0.015095 -172.0
8.76236000 0.015129 -170.4 0.999851 -81.05 0.999851 -81.05 0.015129 -172.0
8.76238000 0.015163 -170.4 0.999851 -81.05 0.999851 -81.05 0.015163 -172.0
8.76240000 0.015197 -170.4 0.999850 -81.05 0.999850 -81.05 0.015197 -172.0
8.76242000 0.015231 -170.4 0.999849 -81.06 0.999849 -81.06 0.015231 -172.0
8.76244000 0.015265 -170.4 0.999848 -81.06 0.999848 -81.06 0.015265 -172.0
8.76246000 0.015300 -170.4 0.999848 -81.06 0.999848 -81.06 0.015300 -172.0
8.76248000 0.015335 -170.4 0.999847 -81.06 0.999847 -81.06 0.015335 -172.0
8.76250000 0.015370 -170.4 0.999846 -81.07 0.999846 -81.07 0.015370 -172.0
8.76252000 0.015405 -170.4 0.999845 -81.07 0.999845 -81.07 0.015405 -172.0
8.76254000 0.015441 -170.4 0.999845 -81.07 0.999845 -81.07 0.015440 -172.0
8.76256000 0.015476 -170.4 0.999844 -81.07 0.999844 -81.07 0.015476 -172.0
8.76258000 0.015512 -170.4 0.999843 -81.07 0.999843 -81.07 0.015512 -172.0
8.76260000 0.015549 -170.4 0.999842 -81.08 0.999842 -81.08 0.015548 -172.0
8.76262000 0.015585 -170.4 0.999842 -81.08 0.999842 -81.08 0.015585 -172.0
8.76264000 0.015622 -170.4 0.999841 -81.08 0.999841 -81.08 0.015621 -172.0
8.76266000 0.015659 -170.4 0.999840 -81.08 0.999840 -81.08 0.015658 -172.0
8.76268000 0.015696 -170.4 0.999839 -81.09 0.999839 -81.09 0.015695 -172.0
8.76270000 0.015733 -170.4 0.999838 -81.09 0.999838 -81.09 0.015733 -172.0
8.76272000 0.015771 -170.4 0.999837 -81.09 0.999837 -81.09 0.015771 -172.0
8.76274000 0.015809 -170.4 0.999837 -81.09 0.999837 -81.09 0.015808 -172.0
8.76276000 0.015847 -170.4 0.999836 -81.10 0.999836 -81.10 0.015847 -172.0
8.76278000 0.015885 -170.4 0.999835 -81.10 0.999835 -81.10 0.015885 -172.0
8.76280000 0.015924 -170.4 0.999834 -81.10 0.999834 -81.10 0.015924 -172.0
8.76282000 0.015963 -170.4 0.999833 -81.10 0.999833 -81.10 0.015963 -172.0
8.76284000 0.016002 -170.4 0.999832 -81.10 0.999832 -81.10 0.016002 -172.0
8.76286000 0.016041 -170.4 0.999831 -81.11 0.999831 -81.11 0.016041 -172.1
8.76288000 0.016081 -170.4 0.999831 -81.11 0.999831 -81.11 0.016081 -172.1
8.76290000 0.016121 -170.4 0.999830 -81.11 0.999830 -81.11 0.016121 -172.1
8.76292000 0.016162 -170.4 0.999829 -81.11 0.999829 -81.11 0.016161 -172.1
8.76294000 0.016202 -170.4 0.999828 -81.12 0.999828 -81.12 0.016202 -172.1
8.76296000 0.016243 -170.5 0.999827 -81.12 0.999827 -81.12 0.016243 -172.1
8.76298000 0.016284 -170.5 0.999826 -81.12 0.999826 -81.12 0.016284 -172.1
8.76300000 0.016325 -170.5 0.999825 -81.12 0.999825 -81.12 0.016325 -172.1
8.76302000 0.016367 -170.5 0.999824 -81.13 0.999824 -81.13 0.016367 -172.1
8.76304000 0.016409 -170.5 0.999823 -81.13 0.999823 -81.13 0.016409 -172.1
8.76306000 0.016451 -170.5 0.999822 -81.13 0.999822 -81.13 0.016451 -172.1
8.76308000 0.016494 -170.5 0.999821 -81.14 0.999821 -81.14 0.016494 -172.1
8.76310000 0.016537 -170.5 0.999820 -81.14 0.999820 -81.14 0.016537 -172.1
8.76312000 0.016580 -170.5 0.999819 -81.14 0.999819 -81.14 0.016580 -172.1
8.76314000 0.016624 -170.5 0.999818 -81.14 0.999818 -81.14 0.016623 -172.1
8.76316000 0.016667 -170.5 0.999817 -81.15 0.999817 -81.15 0.016667 -172.1
8.76318000 0.016711 -170.5 0.999816 -81.15 0.999816 -81.15 0.016711 -172.1
8.76320000 0.016756 -170.5 0.999815 -81.15 0.999815 -81.15 0.016756 -172.1
8.76322000 0.016801 -170.5 0.999814 -81.15 0.999814 -81.15 0.016800 -172.1
8.76324000 0.016846 -170.5 0.999813 -81.16 0.999813 -81.16 0.016845 -172.1
8.76326000 0.016891 -170.5 0.999812 -81.16 0.999812 -81.16 0.016891 -172.1
8.76328000 0.016937 -170.5 0.999811 -81.16 0.999811 -81.16 0.016937 -172.1
8.76330000 0.016983 -170.5 0.999810 -81.17 0.999810 -81.17 0.016983 -172.1
8.76332000 0.017029 -170.5 0.999809 -81.17 0.999809 -81.17 0.017029 -172.1
8.76334000 0.017076 -170.5 0.999808 -81.17 0.999808 -81.17 0.017076 -172.1
8.76336000 0.017123 -170.5 0.999806 -81.17 0.999806 -81.17 0.017123 -172.2
8.76338000 0.017171 -170.5 0.999805 -81.18 0.999805 -81.18 0.017170 -172.2
8.76340000 0.017219 -170.5 0.999804 -81.18 0.999804 -81.18 0.017218 -172.2
8.76342000 0.017267 -170.5 0.999803 -81.18 0.999803 -81.18 0.017266 -172.2
8.76344000 0.017315 -170.5 0.999802 -81.19 0.999802 -81.19 0.017315 -172.2
8.76346000 0.017364 -170.5 0.999801 -81.19 0.999801 -81.19 0.017364 -172.2
8.76348000 0.017414 -170.5 0.999799 -81.19 0.999799 -81.19 0.017413 -172.2
8.76350000 0.017463 -170.5 0.999798 -81.19 0.999798 -81.19 0.017463 -172.2
8.76352000 0.017513 -170.5 0.999797 -81.20 0.999797 -81.20 0.017513 -172.2
8.76354000 0.017564 -170.5 0.999796 -81.20 0.999796 -81.20 0.017563 -172.2
8.76356000 0.017614 -170.5 0.999794 -81.20 0.999794 -81.20 0.017614 -172.2
8.76358000 0.017666 -170.5 0.999793 -81.21 0.999793 -81.21 0.017665 -172.2
8.76360000 0.017717 -170.5 0.999792 -81.21 0.999792 -81.21 0.017717 -172.2
8.76362000 0.017769 -170.5 0.999791 -81.21 0.999791 -81.21 0.017769 -172.2
8.76364000 0.017822 -170.5 0.999789 -81.22 0.999789 -81.22 0.017821 -172.2
8.76366000 0.017875 -170.6 0.999788 -81.22 0.999788 -81.22 0.017874 -172.2
8.76368000 0.017928 -170.6 0.999787 -81.22 0.999787 -81.22 0.017927 -172.2
8.76370000 0.017981 -170.6 0.999785 -81.23 0.999785 -81.23 0.017981 -172.2
8.76372000 0.018036 -170.6 0.999784 -81.23 0.999784 -81.23 0.018035 -172.2
8.76374000 0.018090 -170.6 0.999783 -81.23 0.999783 -81.23 0.018090 -172.2
8.76376000 0.018145 -170.6 0.999781 -81.24 0.999781 -81.24 0.018145 -172.2
8.76378000 0.018200 -170.6 0.999780 -81.24 0.999780 -81.24 0.018200 -172.2
8.76380000 0.018256 -170.6 0.999778 -81.24 0.999778 -81.24 0.018256 -172.3
8.76382000 0.018313 -170.6 0.999777 -81.25 0.999777 -81.25 0.018312 -172.3
8.76384000 0.018369 -170.6 0.999775 -81.25 0.999775 -81.25 0.018369 -172.3
8.76386000 0.018427 -170.6 0.999774 -81.25 0.999774 -81.25 0.018426 -172.3
8.76388000 0.018484 -170.6 0.999772 -81.26 0.999772 -81.26 0.018484 -172.3
8.76390000 0.018542 -170.6 0.999771 -81.26 0.999771 -81.26 0.018542 -172.3
8.76392000 0.018601 -170.6 0.999769 -81.26 0.999769 -81.26 0.018601 -172.3
8.76394000 0.018660 -170.6 0.999768 -81.27 0.999768 -81.27 0.018660 -172.3
8.76396000 0.018720 -170.6 0.999766 -81.27 0.999766 -81.27 0.018720 -172.3
8.76398000 0.018780 -170.6 0.999765 -81.27 0.999765 -81.27 0.018780 -172.3
8.76400000 0.018841 -170.6 0.999763 -81.28 0.999763 -81.28 0.018840 -172.3
8.76402000 0.018902 -170.6 0.999761 -81.28 0.999761 -81.28 0.018901 -172.3
8.76404000 0.018964 -170.6 0.999760 -81.29 0.999760 -81.29 0.018963 -172.3
8.76406000 0.019026 -170.6 0.999758 -81.29 0.999758 -81.29 0.019025 -172.3
8.76408000 0.019088 -170.6 0.999756 -81.29 0.999756 -81.29 0.019088 -172.3
8.76410000 0.019152 -170.6 0.999755 -81.30 0.999755 -81.30 0.019151 -172.3
8.76412000 0.019216 -170.6 0.999753 -81.30 0.999753 -81.30 0.019215 -172.3
8.76414000 0.019280 -170.6 0.999751 -81.30 0.999751 -81.30 0.019280 -172.3
8.76416000 0.019345 -170.6 0.999749 -81.31 0.999749 -81.31 0.019345 -172.3
8.76418000 0.019410 -170.6 0.999748 -81.31 0.999748 -81.31 0.019410 -172.3
8.76420000 0.019477 -170.7 0.999746 -81.32 0.999746 -81.32 0.019476 -172.4
8.76422000 0.019543 -170.7 0.999744 -81.32 0.999744 -81.32 0.019543 -172.4
8.76424000 0.019610 -170.7 0.999742 -81.32 0.999742 -81.32 0.019610 -172.4
8.76426000 0.019678 -170.7 0.999740 -81.33 0.999740 -81.33 0.019678 -172.4
8.76428000 0.019747 -170.7 0.999738 -81.33 0.999738 -81.33 0.019746 -172.4
8.76430000 0.019816 -170.7 0.999736 -81.34 0.999736 -81.34 0.019816 -172.4
8.76432000 0.019886 -170.7 0.999734 -81.34 0.999734 -81.34 0.019885 -172.4
8.76434000 0.019956 -170.7 0.999732 -81.34 0.999732 -81.34 0.019956 -172.4
8.76436000 0.020027 -170.7 0.999730 -81.35 0.999730 -81.35 0.020027 -172.4
8.76438000 0.020099 -170.7 0.999728 -81.35 0.999728 -81.35 0.020098 -172.4
8.76440000 0.020171 -170.7 0.999726 -81.36 0.999726 -81.36 0.020171 -172.4
8.76442000 0.020244 -170.7 0.999724 -81.36 0.999724 -81.36 0.020243 -172.4
8.76444000 0.020318 -170.7 0.999722 -81.37 0.999722 -81.37 0.020317 -172.4
8.76446000 0.020392 -170.7 0.999720 -81.37 0.999720 -81.37 0.020391 -172.4
8.76448000 0.020467 -170.7 0.999718 -81.38 0.999718 -81.38 0.020466 -172.4
8.76450000 0.020543 -170.7 0.999715 -81.38 0.999715 -81.38 0.020542 -172.4
8.76452000 0.020619 -170.7 0.999713 -81.38 0.999713 -81.38 0.020619 -172.5
8.76454000 0.020696 -170.7 0.999711 -81.39 0.999711 -81.39 0.020696 -172.5
8.76456000 0.020774 -170.7 0.999709 -81.39 0.999709 -81.39 0.020774 -172.5
8.76458000 0.020853 -170.7 0.999706 -81.40 0.999706 -81.40 0.020852 -172.5
8.76460000 0.020932 -170.7 0.999704 -81.40 0.999704 -81.40 0.020932 -172.5
8.76462000 0.021012 -170.8 0.999701 -81.41 0.999701 -81.41 0.021012 -172.5
8.76464000 0.021093 -170.8 0.999699 -81.41 0.999699 -81.41 0.021093 -172.5
8.76466000 0.021175 -170.8 0.999697 -81.42 0.999697 -81.42 0.021175 -172.5
8.76468000 0.021258 -170.8 0.999694 -81.42 0.999694 -81.42 0.021257 -172.5
8.76470000 0.021341 -170.8 0.999691 -81.43 0.999691 -81.43 0.021341 -172.5
8.76472000 0.021425 -170.8 0.999689 -81.43 0.999689 -81.43 0.021425 -172.5
8.76474000 0.021510 -170.8 0.999686 -81.44 0.999686 -81.44 0.021510 -172.5
8.76476000 0.021596 -170.8 0.999684 -81.44 0.999684 -81.44 0.021596 -172.5
8.76478000 0.021683 -170.8 0.999681 -81.45 0.999681 -81.45 0.021683 -172.5
8.76480000 0.021771 -170.8 0.999678 -81.45 0.999678 -81.45 0.021770 -172.5
8.76482000 0.021859 -170.8 0.999675 -81.46 0.999675 -81.46 0.021859 -172.6
8.76484000 0.021949 -170.8 0.999673 -81.46 0.999673 -81.46 0.021948 -172.6
8.76486000 0.022039 -170.8 0.999670 -81.47 0.999670 -81.47 0.022039 -172.6
8.76488000 0.022131 -170.8 0.999667 -81.47 0.999667 -81.47 0.022130 -172.6
8.76490000 0.022223 -170.8 0.999664 -81.48 0.999664 -81.48 0.022222 -172.6
8.76492000 0.022316 -170.8 0.999661 -81.49 0.999661 -81.49 0.022316 -172.6
8.76494000 0.022410 -170.8 0.999658 -81.49 0.999658 -81.49 0.022410 -172.6
8.76496000 0.022505 -170.8 0.999655 -81.50 0.999655 -81.50 0.022505 -172.6
8.76498000 0.022602 -170.9 0.999652 -81.50 0.999652 -81.50 0.022601 -172.6
8.76500000 0.022699 -170.9 0.999649 -81.51 0.999649 -81.51 0.022698 -172.6
8.76502000 0.022797 -170.9 0.999645 -81.51 0.999645 -81.51 0.022797 -172.6
8.76504000 0.022897 -170.9 0.999642 -81.52 0.999642 -81.52 0.022896 -172.6
8.76506000 0.022997 -170.9 0.999639 -81.53 0.999639 -81.53 0.022996 -172.6
8.76508000 0.023098 -170.9 0.999636 -81.53 0.999636 -81.53 0.023098 -172.7
8.76510000 0.023201 -170.9 0.999632 -81.54 0.999632 -81.54 0.023201 -172.7
8.76512000 0.023305 -170.9 0.999629 -81.54 0.999629 -81.54 0.023304 -172.7
8.76514000 0.023410 -170.9 0.999625 -81.55 0.999625 -81.55 0.023409 -172.7
8.76516000 0.023516 -170.9 0.999622 -81.56 0.999622 -81.56 0.023515 -172.7
8.76518000 0.023623 -170.9 0.999618 -81.56 0.999618 -81.56 0.023623 -172.7
8.76520000 0.023732 -170.9 0.999614 -81.57 0.999614 -81.57 0.023731 -172.7
8.76522000 0.023841 -170.9 0.999610 -81.58 0.999610 -81.58 0.023841 -172.7
8.76524000 0.023952 -170.9 0.999607 -81.58 0.999607 -81.58 0.023952 -172.7
8.76526000 0.024065 -171.0 0.999603 -81.59 0.999603 -81.59 0.024064 -172.7
8.76528000 0.024178 -171.0 0.999599 -81.60 0.999599 -81.60 0.024178 -172.7
8.76530000 0.024293 -171.0 0.999595 -81.60 0.999595 -81.60 0.024292 -172.8
8.76532000 0.024409 -171.0 0.999591 -81.61 0.999591 -81.61 0.024409 -172.8
8.76534000 0.024527 -171.0 0.999587 -81.62 0.999587 -81.62 0.024526 -172.8
8.76536000 0.024646 -171.0 0.999582 -81.62 0.999582 -81.62 0.024645 -172.8
8.76538000 0.024766 -171.0 0.999578 -81.63 0.999578 -81.63 0.024766 -172.8
8.76540000 0.024888 -171.0 0.999574 -81.64 0.999574 -81.64 0.024887 -172.8
8.76542000 0.025011 -171.0 0.999569 -81.64 0.999569 -81.64 0.025011 -172.8
8.76544000 0.025136 -171.0 0.999565 -81.65 0.999565 -81.65 0.025135 -172.8
8.76546000 0.025262 -171.0 0.999560 -81.66 0.999560 -81.66 0.025262 -172.8
8.76548000 0.025390 -171.0 0.999555 -81.67 0.999555 -81.67 0.025389 -172.8
8.76550000 0.025519 -171.0 0.999551 -81.67 0.999551 -81.67 0.025519 -172.9
8.76552000 0.025650 -171.1 0.999546 -81.68 0.999546 -81.68 0.025650 -172.9
8.76554000 0.025783 -171.1 0.999541 -81.69 0.999541 -81.69 0.025782 -172.9
8.76556000 0.025917 -171.1 0.999536 -81.70 0.999536 -81.70 0.025917 -172.9
8.76558000 0.026053 -171.1 0.999531 -81.71 0.999531 -81.71 0.026053 -172.9
8.76560000 0.026191 -171.1 0.999525 -81.71 0.999525 -81.71 0.026190 -172.9
8.76562000 0.026331 -171.1 0.999520 -81.72 0.999520 -81.72 0.026330 -172.9
8.76564000 0.026472 -171.1 0.999515 -81.73 0.999515 -81.73 0.026471 -172.9
8.76566000 0.026615 -171.1 0.999509 -81.74 0.999509 -81.74 0.026614 -172.9
8.76568000 0.026760 -171.1 0.999504 -81.75 0.999504 -81.75 0.026759 -172.9
8.76570000 0.026907 -171.1 0.999498 -81.76 0.999498 -81.76 0.026906 -173.0
8.76572000 0.027056 -171.2 0.999492 -81.76 0.999492 -81.76 0.027055 -173.0
8.76574000 0.027207 -171.2 0.999486 -81.77 0.999486 -81.77 0.027206 -173.0
8.76576000 0.027359 -171.2 0.999480 -81.78 0.999480 -81.78 0.027359 -173.0
8.76578000 0.027514 -171.2 0.999474 -81.79 0.999474 -81.79 0.027514 -173.0
8.76580000 0.027671 -171.2 0.999468 -81.80 0.999468 -81.80 0.027671 -173.0
8.76582000 0.027830 -171.2 0.999461 -81.81 0.999461 -81.81 0.027830 -173.0
8.76584000 0.027992 -171.2 0.999455 -81.82 0.999455 -81.82 0.027991 -173.0
8.76586000 0.028155 -171.2 0.999448 -81.83 0.999448 -81.83 0.028155 -173.1
8.76588000 0.028321 -171.2 0.999441 -81.84 0.999441 -81.84 0.028320 -173.1
8.76590000 0.028489 -171.3 0.999434 -81.85 0.999434 -81.85 0.028489 -173.1
8.76592000 0.028660 -171.3 0.999427 -81.86 0.999427 -81.86 0.028659 -173.1
8.76594000 0.028833 -171.3 0.999420 -81.87 0.999420 -81.87 0.028832 -173.1
8.76596000 0.029008 -171.3 0.999412 -81.88 0.999412 -81.88 0.029008 -173.1
8.76598000 0.029186 -171.3 0.999405 -81.89 0.999405 -81.89 0.029186 -173.1
8.76600000 0.029367 -171.3 0.999397 -81.90 0.999397 -81.90 0.029366 -173.2
8.76602000 0.029550 -171.3 0.999389 -81.91 0.999389 -81.91 0.029549 -173.2
8.76604000 0.029736 -171.3 0.999381 -81.92 0.999381 -81.92 0.029735 -173.2
8.76606000 0.029925 -171.4 0.999373 -81.93 0.999373 -81.93 0.029924 -173.2
8.76608000 0.030116 -171.4 0.999364 -81.94 0.999364 -81.94 0.030116 -173.2
8.76610000 0.030311 -171.4 0.999356 -81.95 0.999356 -81.95 0.030310 -173.2
8.76612000 0.030508 -171.4 0.999347 -81.97 0.999347 -81.97 0.030507 -173.2
8.76614000 0.030709 -171.4 0.999338 -81.98 0.999338 -81.98 0.030708 -173.3
8.76616000 0.030912 -171.4 0.999329 -81.99 0.999329 -81.99 0.030911 -173.3
8.76618000 0.031119 -171.4 0.999320 -82.00 0.999320 -82.00 0.031118 -173.3
8.76620000 0.031329 -171.4 0.999310 -82.01 0.999310 -82.01 0.031328 -173.3
8.76622000 0.031542 -171.5 0.999300 -82.03 0.999300 -82.03 0.031541 -173.3
8.76624000 0.031759 -171.5 0.999290 -82.04 0.999290 -82.04 0.031758 -173.3
8.76626000 0.031979 -171.5 0.999280 -82.05 0.999280 -82.05 0.031978 -173.4
8.76628000 0.032203 -171.5 0.999269 -82.06 0.999269 -82.06 0.032202 -173.4
8.76630000 0.032430 -171.5 0.999258 -82.08 0.999258 -82.08 0.032429 -173.4
8.76632000 0.032661 -171.5 0.999247 -82.09 0.999247 -82.09 0.032660 -173.4
8.76634000 0.032896 -171.6 0.999236 -82.10 0.999236 -82.10 0.032895 -173.4
8.76636000 0.033135 -171.6 0.999224 -82.12 0.999224 -82.12 0.033134 -173.4
8.76638000 0.033378 -171.6 0.999213 -82.13 0.999213 -82.13 0.033377 -173.5
8.76640000 0.033625 -171.6 0.999200 -82.15 0.999200 -82.15 0.033624 -173.5
8.76642000 0.033876 -171.6 0.999188 -82.16 0.999188 -82.16 0.033876 -173.5
8.76644000 0.034132 -171.6 0.999175 -82.18 0.999175 -82.18 0.034131 -173.5
8.76646000 0.034392 -171.7 0.999162 -82.19 0.999162 -82.19 0.034391 -173.5
8.76648000 0.034657 -171.7 0.999149 -82.21 0.999149 -82.21 0.034656 -173.6
8.76650000 0.034926 -171.7 0.999135 -82.22 0.999135 -82.22 0.034926 -173.6
8.76652000 0.035201 -171.7 0.999121 -82.24 0.999121 -82.24 0.035200 -173.6
8.76654000 0.035480 -171.7 0.999106 -82.25 0.999106 -82.25 0.035479 -173.6
8.76656000 0.035764 -171.8 0.999091 -82.27 0.999091 -82.27 0.035763 -173.6
8.76658000 0.036054 -171.8 0.999076 -82.29 0.999076 -82.29 0.036053 -173.7
8.76660000 0.036349 -171.8 0.999060 -82.31 0.999060 -82.31 0.036348 -173.7
8.76662000 0.036650 -171.8 0.999044 -82.32 0.999044 -82.32 0.036649 -173.7
8.76664000 0.036956 -171.8 0.999027 -82.34 0.999027 -82.34 0.036955 -173.7
8.76666000 0.037268 -171.9 0.999010 -82.36 0.999010 -82.36 0.037267 -173.8
8.76668000 0.037586 -171.9 0.998992 -82.38 0.998992 -82.38 0.037585 -173.8
8.76670000 0.037910 -171.9 0.998974 -82.40 0.998974 -82.40 0.037909 -173.8
8.76672000 0.038241 -171.9 0.998956 -82.41 0.998956 -82.41 0.038240 -173.8
8.76674000 0.038579 -172.0 0.998937 -82.43 0.998937 -82.43 0.038577 -173.9
8.76676000 0.038923 -172.0 0.998917 -82.45 0.998917 -82.45 0.038922 -173.9
8.76678000 0.039274 -172.0 0.998896 -82.47 0.998896 -82.47 0.039273 -173.9
8.76680000 0.039632 -172.0 0.998876 -82.50 0.998876 -82.50 0.039631 -173.9
8.76682000 0.039998 -172.1 0.998854 -82.52 0.998854 -82.52 0.039997 -174.0
8.76684000 0.040371 -172.1 0.998832 -82.54 0.998832 -82.54 0.040370 -174.0
8.76686000 0.040753 -172.1 0.998809 -82.56 0.998809 -82.56 0.040752 -174.0
8.76688000 0.041142 -172.1 0.998785 -82.58 0.998785 -82.58 0.041141 -174.1
8.76690000 0.041540 -172.2 0.998761 -82.61 0.998761 -82.61 0.041539 -174.1
8.76692000 0.041947 -172.2 0.998735 -82.63 0.998735 -82.63 0.041946 -174.1
8.76694000 0.042362 -172.2 0.998709 -82.65 0.998709 -82.65 0.042361 -174.1
8.76696000 0.042787 -172.3 0.998683 -82.68 0.998683 -82.68 0.042786 -174.2
8.76698000 0.043222 -172.3 0.998655 -82.70 0.998655 -82.70 0.043221 -174.2
8.76700000 0.043666 -172.3 0.998626 -82.73 0.998626 -82.73 0.043665 -174.2
8.76702000 0.044121 -172.3 0.998596 -82.75 0.998596 -82.75 0.044120 -174.3
8.76704000 0.044586 -172.4 0.998566 -82.78 0.998566 -82.78 0.044585 -174.3
8.76706000 0.045063 -172.4 0.998534 -82.81 0.998534 -82.81 0.045061 -174.3
8.76708000 0.045551 -172.4 0.998501 -82.84 0.998501 -82.84 0.045549 -174.4
8.76710000 0.046050 -172.5 0.998467 -82.87 0.998467 -82.87 0.046049 -174.4
8.76712000 0.046562 -172.5 0.998431 -82.90 0.998431 -82.90 0.046561 -174.5
8.76714000 0.047087 -172.6 0.998395 -82.93 0.998395 -82.93 0.047085 -174.5
8.76716000 0.047625 -172.6 0.998357 -82.96 0.998357 -82.96 0.047623 -174.5
8.76718000 0.048176 -172.6 0.998317 -82.99 0.998317 -82.99 0.048175 -174.6
8.76720000 0.048742 -172.7 0.998276 -83.02 0.998276 -83.02 0.048740 -174.6
8.76722000 0.049322 -172.7 0.998234 -83.05 0.998234 -83.05 0.049321 -174.7
8.76724000 0.049918 -172.8 0.998190 -83.09 0.998190 -83.09 0.049917 -174.7
8.76726000 0.050530 -172.8 0.998144 -83.12 0.998144 -83.12 0.050529 -174.8
8.76728000 0.051159 -172.8 0.998096 -83.16 0.998096 -83.16 0.051157 -174.8
8.76730000 0.051805 -172.9 0.998046 -83.20 0.998046 -83.20 0.051803 -174.9
8.76732000 0.052469 -172.9 0.997994 -83.24 0.997994 -83.24 0.052467 -174.9
8.76734000 0.053151 -173.0 0.997940 -83.28 0.997940 -83.28 0.053150 -175.0
8.76736000 0.053854 -173.0 0.997884 -83.32 0.997884 -83.32 0.053852 -175.0
8.76738000 0.054577 -173.1 0.997825 -83.36 0.997825 -83.36 0.054575 -175.1
8.76740000 0.055321 -173.1 0.997764 -83.40 0.997764 -83.40 0.055319 -175.1
8.76742000 0.056087 -173.2 0.997700 -83.44 0.997700 -83.44 0.056086 -175.2
8.76744000 0.056878 -173.3 0.997633 -83.49 0.997633 -83.49 0.056876 -175.2
8.76746000 0.057692 -173.3 0.997562 -83.54 0.997562 -83.54 0.057690 -175.3
8.76748000 0.058532 -173.4 0.997489 -83.59 0.997489 -83.59 0.058530 -175.4
8.76750000 0.059399 -173.4 0.997412 -83.64 0.997412 -83.64 0.059397 -175.4
8.76752000 0.060294 -173.5 0.997332 -83.69 0.997332 -83.69 0.060292 -175.5
8.76754000 0.061219 -173.6 0.997247 -83.74 0.997247 -83.74 0.061217 -175.6
8.76756000 0.062174 -173.6 0.997158 -83.80 0.997158 -83.80 0.062172 -175.6
8.76758000 0.063163 -173.7 0.997065 -83.85 0.997065 -83.85 0.063161 -175.7
8.76760000 0.064185 -173.8 0.996967 -83.91 0.996967 -83.91 0.064183 -175.8
8.76762000 0.065244 -173.9 0.996863 -83.97 0.996863 -83.97 0.065242 -175.9
8.76764000 0.066341 -173.9 0.996755 -84.04 0.996755 -84.04 0.066339 -175.9
8.76766000 0.067477 -174.0 0.996640 -84.10 0.996640 -84.10 0.067475 -176.0
8.76768000 0.068657 -174.1 0.996518 -84.17 0.996518 -84.17 0.068654 -176.1
8.76770000 0.069881 -174.2 0.996390 -84.24 0.996390 -84.24 0.069878 -176.2
8.76772000 0.071152 -174.3 0.996255 -84.31 0.996255 -84.31 0.071150 -176.3
8.76774000 0.072473 -174.4 0.996111 -84.39 0.996111 -84.39 0.072471 -176.4
8.76776000 0.073848 -174.5 0.995959 -84.47 0.995959 -84.47 0.073846 -176.5
8.76778000 0.075279 -174.6 0.995797 -84.55 0.995797 -84.55 0.075277 -176.6
8.76780000 0.076770 -174.7 0.995625 -84.64 0.995625 -84.64 0.076768 -176.7
8.76782000 0.078325 -174.8 0.995443 -84.72 0.995443 -84.72 0.078322 -176.8