! Sonnet Data File
! From: emgraph Version : 16.52
! From Project: Qubit_Xmon2_brg_para2
! Data is De-embedded 
! Data File Written: 11/12/2017 21:29:58
!< HDATE 11/12/2017 19:10:47
!< MDATE 11/12/2017 19:10:47
!< PARAMS
!< Lj = 11.0
!< Gap = 6.0
!< Pwid = 2000.0
!< Airgap = 6.0
!< Width = 10.0
!< Bwid = 8.0
!< Dis1 = 450.0
!< Dis2 = 456.0
!< END PARAMS
# GHZ S MA R 34.65000
8.76500000 0.989766 113.68 0.142671 23.607 0.142671 23.607 0.989766 113.53
!< P1 F=8.765 Eeff=(5.13709823 -5.6953e-5) Z0=(34.64455 -9.67e-5) R=0.0 C=0.0 
!< P2 F=8.765 Eeff=(5.13709823 -5.6953e-5) Z0=(34.64455 -9.67e-5) R=0.0 C=0.0 
8.76502000 0.989766 113.68 0.142671 23.606 0.142671 23.606 0.989766 113.53
8.76504000 0.989766 113.68 0.142672 23.606 0.142672 23.606 0.989766 113.53
8.76506000 0.989766 113.68 0.142673 23.606 0.142673 23.606 0.989766 113.53
8.76508000 0.989766 113.68 0.142673 23.606 0.142673 23.606 0.989766 113.53
8.76510000 0.989766 113.68 0.142674 23.606 0.142674 23.606 0.989766 113.53
8.76512000 0.989766 113.68 0.142675 23.605 0.142675 23.605 0.989766 113.53
8.76514000 0.989765 113.68 0.142676 23.605 0.142676 23.605 0.989766 113.53
8.76516000 0.989765 113.68 0.142676 23.605 0.142676 23.605 0.989765 113.53
8.76518000 0.989765 113.68 0.142677 23.605 0.142677 23.605 0.989765 113.53
8.76520000 0.989765 113.68 0.142678 23.605 0.142678 23.605 0.989765 113.53
8.76522000 0.989765 113.68 0.142678 23.605 0.142678 23.605 0.989765 113.53
8.76524000 0.989765 113.68 0.142679 23.604 0.142679 23.604 0.989765 113.53
8.76526000 0.989765 113.68 0.142680 23.604 0.142680 23.604 0.989765 113.53
8.76528000 0.989765 113.68 0.142681 23.604 0.142681 23.604 0.989765 113.53
8.76530000 0.989765 113.68 0.142681 23.604 0.142681 23.604 0.989765 113.53
8.76532000 0.989765 113.68 0.142682 23.604 0.142682 23.604 0.989765 113.53
8.76534000 0.989764 113.68 0.142683 23.604 0.142683 23.604 0.989764 113.53
8.76536000 0.989764 113.68 0.142684 23.603 0.142684 23.603 0.989764 113.53
8.76538000 0.989764 113.68 0.142684 23.603 0.142684 23.603 0.989764 113.53
8.76540000 0.989764 113.68 0.142685 23.603 0.142685 23.603 0.989764 113.53
8.76542000 0.989764 113.68 0.142686 23.603 0.142686 23.603 0.989764 113.53
8.76544000 0.989764 113.68 0.142686 23.603 0.142686 23.603 0.989764 113.53
8.76546000 0.989764 113.68 0.142687 23.603 0.142687 23.603 0.989764 113.53
8.76548000 0.989764 113.68 0.142688 23.602 0.142688 23.602 0.989764 113.53
8.76550000 0.989764 113.68 0.142689 23.602 0.142689 23.602 0.989764 113.53
8.76552000 0.989764 113.68 0.142689 23.602 0.142689 23.602 0.989764 113.53
8.76554000 0.989763 113.68 0.142690 23.602 0.142690 23.602 0.989763 113.53
8.76556000 0.989763 113.68 0.142691 23.602 0.142691 23.602 0.989763 113.53
8.76558000 0.989763 113.68 0.142691 23.601 0.142691 23.601 0.989763 113.53
8.76560000 0.989763 113.68 0.142692 23.601 0.142692 23.601 0.989763 113.53
8.76562000 0.989763 113.68 0.142693 23.601 0.142693 23.601 0.989763 113.52
8.76564000 0.989763 113.68 0.142694 23.601 0.142694 23.601 0.989763 113.52
8.76566000 0.989763 113.68 0.142694 23.601 0.142694 23.601 0.989763 113.52
8.76568000 0.989763 113.67 0.142695 23.601 0.142695 23.601 0.989763 113.52
8.76570000 0.989763 113.67 0.142696 23.600 0.142696 23.600 0.989763 113.52
8.76572000 0.989762 113.67 0.142697 23.600 0.142697 23.600 0.989762 113.52
8.76574000 0.989762 113.67 0.142697 23.600 0.142697 23.600 0.989762 113.52
8.76576000 0.989762 113.67 0.142698 23.600 0.142698 23.600 0.989762 113.52
8.76578000 0.989762 113.67 0.142699 23.600 0.142699 23.600 0.989762 113.52
8.76580000 0.989762 113.67 0.142700 23.600 0.142700 23.600 0.989762 113.52
8.76582000 0.989762 113.67 0.142700 23.599 0.142700 23.599 0.989762 113.52
8.76584000 0.989762 113.67 0.142701 23.599 0.142701 23.599 0.989762 113.52
8.76586000 0.989762 113.67 0.142702 23.599 0.142702 23.599 0.989762 113.52
8.76588000 0.989762 113.67 0.142702 23.599 0.142702 23.599 0.989762 113.52
8.76590000 0.989762 113.67 0.142703 23.599 0.142703 23.599 0.989762 113.52
8.76592000 0.989761 113.67 0.142704 23.599 0.142704 23.599 0.989761 113.52
8.76594000 0.989761 113.67 0.142705 23.598 0.142705 23.598 0.989761 113.52
8.76596000 0.989761 113.67 0.142705 23.598 0.142705 23.598 0.989761 113.52
8.76598000 0.989761 113.67 0.142706 23.598 0.142706 23.598 0.989761 113.52
8.76600000 0.989761 113.67 0.142707 23.598 0.142707 23.598 0.989761 113.52
8.76602000 0.989761 113.67 0.142708 23.598 0.142708 23.598 0.989761 113.52
8.76604000 0.989761 113.67 0.142708 23.597 0.142708 23.597 0.989761 113.52
8.76606000 0.989761 113.67 0.142709 23.597 0.142709 23.597 0.989761 113.52
8.76608000 0.989761 113.67 0.142710 23.597 0.142710 23.597 0.989761 113.52
8.76610000 0.989760 113.67 0.142711 23.597 0.142711 23.597 0.989760 113.52
8.76612000 0.989760 113.67 0.142711 23.597 0.142711 23.597 0.989760 113.52
8.76614000 0.989760 113.67 0.142712 23.597 0.142712 23.597 0.989760 113.52
8.76616000 0.989760 113.67 0.142713 23.596 0.142713 23.596 0.989760 113.52
8.76618000 0.989760 113.67 0.142713 23.596 0.142713 23.596 0.989760 113.52
8.76620000 0.989760 113.67 0.142714 23.596 0.142714 23.596 0.989760 113.52
8.76622000 0.989760 113.67 0.142715 23.596 0.142715 23.596 0.989760 113.52
8.76624000 0.989760 113.67 0.142716 23.596 0.142716 23.596 0.989760 113.52
8.76626000 0.989760 113.67 0.142716 23.596 0.142716 23.596 0.989760 113.52
8.76628000 0.989759 113.67 0.142717 23.595 0.142717 23.595 0.989759 113.52
8.76630000 0.989759 113.67 0.142718 23.595 0.142718 23.595 0.989759 113.52
8.76632000 0.989759 113.67 0.142719 23.595 0.142719 23.595 0.989759 113.52
8.76634000 0.989759 113.67 0.142719 23.595 0.142719 23.595 0.989759 113.52
8.76636000 0.989759 113.67 0.142720 23.595 0.142720 23.595 0.989759 113.52
8.76638000 0.989759 113.67 0.142721 23.594 0.142721 23.594 0.989759 113.52
8.76640000 0.989759 113.67 0.142722 23.594 0.142722 23.594 0.989759 113.52
8.76642000 0.989759 113.67 0.142722 23.594 0.142722 23.594 0.989759 113.52
8.76644000 0.989759 113.67 0.142723 23.594 0.142723 23.594 0.989759 113.52
8.76646000 0.989759 113.67 0.142724 23.594 0.142724 23.594 0.989759 113.52
8.76648000 0.989758 113.67 0.142725 23.594 0.142725 23.594 0.989758 113.52
8.76650000 0.989758 113.67 0.142725 23.593 0.142725 23.593 0.989758 113.52
8.76652000 0.989758 113.67 0.142726 23.593 0.142726 23.593 0.989758 113.52
8.76654000 0.989758 113.67 0.142727 23.593 0.142727 23.593 0.989758 113.52
8.76656000 0.989758 113.67 0.142728 23.593 0.142728 23.593 0.989758 113.52
8.76658000 0.989758 113.67 0.142728 23.593 0.142728 23.593 0.989758 113.52
8.76660000 0.989758 113.67 0.142729 23.593 0.142729 23.593 0.989758 113.52
8.76662000 0.989758 113.67 0.142730 23.592 0.142730 23.592 0.989758 113.52
8.76664000 0.989758 113.67 0.142731 23.592 0.142731 23.592 0.989758 113.52
8.76666000 0.989757 113.67 0.142731 23.592 0.142731 23.592 0.989757 113.52
8.76668000 0.989757 113.67 0.142732 23.592 0.142732 23.592 0.989757 113.52
8.76670000 0.989757 113.67 0.142733 23.592 0.142733 23.592 0.989757 113.52
8.76672000 0.989757 113.67 0.142734 23.591 0.142734 23.591 0.989757 113.52
8.76674000 0.989757 113.67 0.142734 23.591 0.142734 23.591 0.989757 113.52
8.76676000 0.989757 113.67 0.142735 23.591 0.142735 23.591 0.989757 113.51
8.76678000 0.989757 113.67 0.142736 23.591 0.142736 23.591 0.989757 113.51
8.76680000 0.989757 113.66 0.142737 23.591 0.142737 23.591 0.989757 113.51
8.76682000 0.989757 113.66 0.142737 23.591 0.142737 23.591 0.989757 113.51
8.76684000 0.989756 113.66 0.142738 23.590 0.142738 23.590 0.989756 113.51
8.76686000 0.989756 113.66 0.142739 23.590 0.142739 23.590 0.989756 113.51
8.76688000 0.989756 113.66 0.142740 23.590 0.142740 23.590 0.989756 113.51
8.76690000 0.989756 113.66 0.142740 23.590 0.142740 23.590 0.989756 113.51
8.76692000 0.989756 113.66 0.142741 23.590 0.142741 23.590 0.989756 113.51
8.76694000 0.989756 113.66 0.142742 23.590 0.142742 23.590 0.989756 113.51
8.76696000 0.989756 113.66 0.142743 23.589 0.142743 23.589 0.989756 113.51
8.76698000 0.989756 113.66 0.142743 23.589 0.142743 23.589 0.989756 113.51
8.76700000 0.989756 113.66 0.142744 23.589 0.142744 23.589 0.989756 113.51
8.76702000 0.989755 113.66 0.142745 23.589 0.142745 23.589 0.989755 113.51
8.76704000 0.989755 113.66 0.142746 23.589 0.142746 23.589 0.989755 113.51
8.76706000 0.989755 113.66 0.142747 23.588 0.142747 23.588 0.989755 113.51
8.76708000 0.989755 113.66 0.142747 23.588 0.142747 23.588 0.989755 113.51
8.76710000 0.989755 113.66 0.142748 23.588 0.142748 23.588 0.989755 113.51
8.76712000 0.989755 113.66 0.142749 23.588 0.142749 23.588 0.989755 113.51
8.76714000 0.989755 113.66 0.142750 23.588 0.142750 23.588 0.989755 113.51
8.76716000 0.989755 113.66 0.142750 23.588 0.142750 23.588 0.989755 113.51
8.76718000 0.989755 113.66 0.142751 23.587 0.142751 23.587 0.989755 113.51
8.76720000 0.989754 113.66 0.142752 23.587 0.142752 23.587 0.989754 113.51
8.76722000 0.989754 113.66 0.142753 23.587 0.142753 23.587 0.989754 113.51
8.76724000 0.989754 113.66 0.142753 23.587 0.142753 23.587 0.989754 113.51
8.76726000 0.989754 113.66 0.142754 23.587 0.142754 23.587 0.989754 113.51
8.76728000 0.989754 113.66 0.142755 23.587 0.142755 23.587 0.989754 113.51
8.76730000 0.989754 113.66 0.142756 23.586 0.142756 23.586 0.989754 113.51
8.76732000 0.989754 113.66 0.142756 23.586 0.142756 23.586 0.989754 113.51
8.76734000 0.989754 113.66 0.142757 23.586 0.142757 23.586 0.989754 113.51
8.76736000 0.989754 113.66 0.142758 23.586 0.142758 23.586 0.989754 113.51
8.76738000 0.989753 113.66 0.142759 23.586 0.142759 23.586 0.989753 113.51
8.76740000 0.989753 113.66 0.142760 23.585 0.142760 23.585 0.989753 113.51
8.76742000 0.989753 113.66 0.142760 23.585 0.142760 23.585 0.989753 113.51
8.76744000 0.989753 113.66 0.142761 23.585 0.142761 23.585 0.989753 113.51
8.76746000 0.989753 113.66 0.142762 23.585 0.142762 23.585 0.989753 113.51
8.76748000 0.989753 113.66 0.142763 23.585 0.142763 23.585 0.989753 113.51
8.76750000 0.989753 113.66 0.142763 23.585 0.142763 23.585 0.989753 113.51
8.76752000 0.989753 113.66 0.142764 23.584 0.142764 23.584 0.989753 113.51
8.76754000 0.989753 113.66 0.142765 23.584 0.142765 23.584 0.989753 113.51
8.76756000 0.989752 113.66 0.142766 23.584 0.142766 23.584 0.989752 113.51
8.76758000 0.989752 113.66 0.142766 23.584 0.142766 23.584 0.989752 113.51
8.76760000 0.989752 113.66 0.142767 23.584 0.142767 23.584 0.989752 113.51
8.76762000 0.989752 113.66 0.142768 23.584 0.142768 23.584 0.989752 113.51
8.76764000 0.989752 113.66 0.142769 23.583 0.142769 23.583 0.989752 113.51
8.76766000 0.989752 113.66 0.142770 23.583 0.142770 23.583 0.989752 113.51
8.76768000 0.989752 113.66 0.142770 23.583 0.142770 23.583 0.989752 113.51
8.76770000 0.989752 113.66 0.142771 23.583 0.142771 23.583 0.989752 113.51
8.76772000 0.989752 113.66 0.142772 23.583 0.142772 23.583 0.989752 113.51
8.76774000 0.989751 113.66 0.142773 23.582 0.142773 23.582 0.989751 113.51
8.76776000 0.989751 113.66 0.142773 23.582 0.142773 23.582 0.989751 113.51
8.76778000 0.989751 113.66 0.142774 23.582 0.142774 23.582 0.989751 113.51
8.76780000 0.989751 113.66 0.142775 23.582 0.142775 23.582 0.989751 113.51
8.76782000 0.989751 113.66 0.142776 23.582 0.142776 23.582 0.989751 113.51
8.76784000 0.989751 113.66 0.142777 23.582 0.142777 23.582 0.989751 113.51
8.76786000 0.989751 113.66 0.142777 23.581 0.142777 23.581 0.989751 113.51
8.76788000 0.989751 113.66 0.142778 23.581 0.142778 23.581 0.989751 113.51
8.76790000 0.989751 113.66 0.142779 23.581 0.142779 23.581 0.989751 113.50
8.76792000 0.989750 113.66 0.142780 23.581 0.142780 23.581 0.989750 113.50
8.76794000 0.989750 113.65 0.142780 23.581 0.142780 23.581 0.989750 113.50
8.76796000 0.989750 113.65 0.142781 23.581 0.142781 23.581 0.989750 113.50
8.76798000 0.989750 113.65 0.142782 23.580 0.142782 23.580 0.989750 113.50
8.76800000 0.989750 113.65 0.142783 23.580 0.142783 23.580 0.989750 113.50
8.76802000 0.989750 113.65 0.142784 23.580 0.142784 23.580 0.989750 113.50
8.76804000 0.989750 113.65 0.142784 23.580 0.142784 23.580 0.989750 113.50
8.76806000 0.989750 113.65 0.142785 23.580 0.142785 23.580 0.989750 113.50
8.76808000 0.989750 113.65 0.142786 23.579 0.142786 23.579 0.989750 113.50
8.76810000 0.989749 113.65 0.142787 23.579 0.142787 23.579 0.989749 113.50
8.76812000 0.989749 113.65 0.142788 23.579 0.142788 23.579 0.989749 113.50
8.76814000 0.989749 113.65 0.142788 23.579 0.142788 23.579 0.989749 113.50
8.76816000 0.989749 113.65 0.142789 23.579 0.142789 23.579 0.989749 113.50
8.76818000 0.989749 113.65 0.142790 23.579 0.142790 23.579 0.989749 113.50
8.76820000 0.989749 113.65 0.142791 23.578 0.142791 23.578 0.989749 113.50
8.76822000 0.989749 113.65 0.142792 23.578 0.142792 23.578 0.989749 113.50
8.76824000 0.989749 113.65 0.142792 23.578 0.142792 23.578 0.989749 113.50
8.76826000 0.989748 113.65 0.142793 23.578 0.142793 23.578 0.989748 113.50
8.76828000 0.989748 113.65 0.142794 23.578 0.142794 23.578 0.989748 113.50
8.76830000 0.989748 113.65 0.142795 23.578 0.142795 23.578 0.989748 113.50
8.76832000 0.989748 113.65 0.142795 23.577 0.142795 23.577 0.989748 113.50
8.76834000 0.989748 113.65 0.142796 23.577 0.142796 23.577 0.989748 113.50
8.76836000 0.989748 113.65 0.142797 23.577 0.142797 23.577 0.989748 113.50
8.76838000 0.989748 113.65 0.142798 23.577 0.142798 23.577 0.989748 113.50
8.76840000 0.989748 113.65 0.142799 23.577 0.142799 23.577 0.989748 113.50
8.76842000 0.989748 113.65 0.142799 23.576 0.142799 23.576 0.989748 113.50
8.76844000 0.989747 113.65 0.142800 23.576 0.142800 23.576 0.989747 113.50
8.76846000 0.989747 113.65 0.142801 23.576 0.142801 23.576 0.989747 113.50
8.76848000 0.989747 113.65 0.142802 23.576 0.142802 23.576 0.989747 113.50
8.76850000 0.989747 113.65 0.142803 23.576 0.142803 23.576 0.989747 113.50
8.76852000 0.989747 113.65 0.142803 23.576 0.142803 23.576 0.989747 113.50
8.76854000 0.989747 113.65 0.142804 23.575 0.142804 23.575 0.989747 113.50
8.76856000 0.989747 113.65 0.142805 23.575 0.142805 23.575 0.989747 113.50
8.76858000 0.989747 113.65 0.142806 23.575 0.142806 23.575 0.989747 113.50
8.76860000 0.989747 113.65 0.142807 23.575 0.142807 23.575 0.989747 113.50
8.76862000 0.989746 113.65 0.142807 23.575 0.142807 23.575 0.989746 113.50
8.76864000 0.989746 113.65 0.142808 23.574 0.142808 23.574 0.989746 113.50
8.76866000 0.989746 113.65 0.142809 23.574 0.142809 23.574 0.989746 113.50
8.76868000 0.989746 113.65 0.142810 23.574 0.142810 23.574 0.989746 113.50
8.76870000 0.989746 113.65 0.142811 23.574 0.142811 23.574 0.989746 113.50
8.76872000 0.989746 113.65 0.142811 23.574 0.142811 23.574 0.989746 113.50
8.76874000 0.989746 113.65 0.142812 23.574 0.142812 23.574 0.989746 113.50
8.76876000 0.989746 113.65 0.142813 23.573 0.142813 23.573 0.989746 113.50
8.76878000 0.989745 113.65 0.142814 23.573 0.142814 23.573 0.989745 113.50
8.76880000 0.989745 113.65 0.142815 23.573 0.142815 23.573 0.989745 113.50
8.76882000 0.989745 113.65 0.142816 23.573 0.142816 23.573 0.989745 113.50
8.76884000 0.989745 113.65 0.142816 23.573 0.142816 23.573 0.989745 113.50
8.76886000 0.989745 113.65 0.142817 23.572 0.142817 23.572 0.989745 113.50
8.76888000 0.989745 113.65 0.142818 23.572 0.142818 23.572 0.989745 113.50
8.76890000 0.989745 113.65 0.142819 23.572 0.142819 23.572 0.989745 113.50
8.76892000 0.989745 113.65 0.142820 23.572 0.142820 23.572 0.989745 113.50
8.76894000 0.989745 113.65 0.142820 23.572 0.142820 23.572 0.989745 113.50
8.76896000 0.989744 113.65 0.142821 23.572 0.142821 23.572 0.989744 113.50
8.76898000 0.989744 113.65 0.142822 23.571 0.142822 23.571 0.989744 113.50
8.76900000 0.989744 113.65 0.142823 23.571 0.142823 23.571 0.989744 113.50
8.76902000 0.989744 113.65 0.142824 23.571 0.142824 23.571 0.989744 113.49
8.76904000 0.989744 113.65 0.142824 23.571 0.142824 23.571 0.989744 113.49
8.76906000 0.989744 113.64 0.142825 23.571 0.142825 23.571 0.989744 113.49
8.76908000 0.989744 113.64 0.142826 23.571 0.142826 23.571 0.989744 113.49
8.76910000 0.989744 113.64 0.142827 23.570 0.142827 23.570 0.989744 113.49
8.76912000 0.989743 113.64 0.142828 23.570 0.142828 23.570 0.989743 113.49
8.76914000 0.989743 113.64 0.142829 23.570 0.142829 23.570 0.989743 113.49
8.76916000 0.989743 113.64 0.142829 23.570 0.142829 23.570 0.989743 113.49
8.76918000 0.989743 113.64 0.142830 23.570 0.142830 23.570 0.989743 113.49
8.76920000 0.989743 113.64 0.142831 23.569 0.142831 23.569 0.989743 113.49
8.76922000 0.989743 113.64 0.142832 23.569 0.142832 23.569 0.989743 113.49
8.76924000 0.989743 113.64 0.142833 23.569 0.142833 23.569 0.989743 113.49
8.76926000 0.989743 113.64 0.142833 23.569 0.142833 23.569 0.989743 113.49
8.76928000 0.989743 113.64 0.142834 23.569 0.142834 23.569 0.989743 113.49
8.76930000 0.989742 113.64 0.142835 23.569 0.142835 23.569 0.989742 113.49
8.76932000 0.989742 113.64 0.142836 23.568 0.142836 23.568 0.989742 113.49
8.76934000 0.989742 113.64 0.142837 23.568 0.142837 23.568 0.989742 113.49
8.76936000 0.989742 113.64 0.142838 23.568 0.142838 23.568 0.989742 113.49
8.76938000 0.989742 113.64 0.142838 23.568 0.142838 23.568 0.989742 113.49
8.76940000 0.989742 113.64 0.142839 23.568 0.142839 23.568 0.989742 113.49
8.76942000 0.989742 113.64 0.142840 23.567 0.142840 23.567 0.989742 113.49
8.76944000 0.989742 113.64 0.142841 23.567 0.142841 23.567 0.989742 113.49
8.76946000 0.989741 113.64 0.142842 23.567 0.142842 23.567 0.989741 113.49
8.76948000 0.989741 113.64 0.142843 23.567 0.142843 23.567 0.989741 113.49
8.76950000 0.989741 113.64 0.142843 23.567 0.142843 23.567 0.989741 113.49
8.76952000 0.989741 113.64 0.142844 23.567 0.142844 23.567 0.989741 113.49
8.76954000 0.989741 113.64 0.142845 23.566 0.142845 23.566 0.989741 113.49
8.76956000 0.989741 113.64 0.142846 23.566 0.142846 23.566 0.989741 113.49
8.76958000 0.989741 113.64 0.142847 23.566 0.142847 23.566 0.989741 113.49
8.76960000 0.989741 113.64 0.142847 23.566 0.142847 23.566 0.989741 113.49
8.76962000 0.989740 113.64 0.142848 23.566 0.142848 23.566 0.989740 113.49
8.76964000 0.989740 113.64 0.142849 23.565 0.142849 23.565 0.989740 113.49
8.76966000 0.989740 113.64 0.142850 23.565 0.142850 23.565 0.989740 113.49
8.76968000 0.989740 113.64 0.142851 23.565 0.142851 23.565 0.989740 113.49
8.76970000 0.989740 113.64 0.142852 23.565 0.142852 23.565 0.989740 113.49
8.76972000 0.989740 113.64 0.142852 23.565 0.142852 23.565 0.989740 113.49
8.76974000 0.989740 113.64 0.142853 23.565 0.142853 23.565 0.989740 113.49
8.76976000 0.989740 113.64 0.142854 23.564 0.142854 23.564 0.989740 113.49
8.76978000 0.989739 113.64 0.142855 23.564 0.142855 23.564 0.989740 113.49
8.76980000 0.989739 113.64 0.142856 23.564 0.142856 23.564 0.989739 113.49
8.76982000 0.989739 113.64 0.142857 23.564 0.142857 23.564 0.989739 113.49
8.76984000 0.989739 113.64 0.142858 23.564 0.142858 23.564 0.989739 113.49
8.76986000 0.989739 113.64 0.142858 23.563 0.142858 23.563 0.989739 113.49
8.76988000 0.989739 113.64 0.142859 23.563 0.142859 23.563 0.989739 113.49
8.76990000 0.989739 113.64 0.142860 23.563 0.142860 23.563 0.989739 113.49
8.76992000 0.989739 113.64 0.142861 23.563 0.142861 23.563 0.989739 113.49
8.76994000 0.989739 113.64 0.142862 23.563 0.142862 23.563 0.989739 113.49
8.76996000 0.989738 113.64 0.142863 23.563 0.142863 23.563 0.989738 113.49
8.76998000 0.989738 113.64 0.142863 23.562 0.142863 23.562 0.989738 113.49
8.77000000 0.989738 113.64 0.142864 23.562 0.142864 23.562 0.989738 113.49
8.77002000 0.989738 113.64 0.142865 23.562 0.142865 23.562 0.989738 113.49
8.77004000 0.989738 113.64 0.142866 23.562 0.142866 23.562 0.989738 113.49
8.77006000 0.989738 113.64 0.142867 23.562 0.142867 23.562 0.989738 113.49
8.77008000 0.989738 113.64 0.142868 23.561 0.142868 23.561 0.989738 113.49
8.77010000 0.989738 113.64 0.142868 23.561 0.142868 23.561 0.989738 113.49
8.77012000 0.989737 113.64 0.142869 23.561 0.142869 23.561 0.989737 113.49
8.77014000 0.989737 113.64 0.142870 23.561 0.142870 23.561 0.989737 113.48
8.77016000 0.989737 113.63 0.142871 23.561 0.142871 23.561 0.989737 113.48
8.77018000 0.989737 113.63 0.142872 23.561 0.142872 23.561 0.989737 113.48
8.77020000 0.989737 113.63 0.142873 23.560 0.142873 23.560 0.989737 113.48
8.77022000 0.989737 113.63 0.142874 23.560 0.142874 23.560 0.989737 113.48
8.77024000 0.989737 113.63 0.142874 23.560 0.142874 23.560 0.989737 113.48
8.77026000 0.989737 113.63 0.142875 23.560 0.142875 23.560 0.989737 113.48
8.77028000 0.989736 113.63 0.142876 23.560 0.142876 23.560 0.989736 113.48
8.77030000 0.989736 113.63 0.142877 23.559 0.142877 23.559 0.989736 113.48
8.77032000 0.989736 113.63 0.142878 23.559 0.142878 23.559 0.989736 113.48
8.77034000 0.989736 113.63 0.142879 23.559 0.142879 23.559 0.989736 113.48
8.77036000 0.989736 113.63 0.142880 23.559 0.142880 23.559 0.989736 113.48
8.77038000 0.989736 113.63 0.142880 23.559 0.142880 23.559 0.989736 113.48
8.77040000 0.989736 113.63 0.142881 23.559 0.142881 23.559 0.989736 113.48
8.77042000 0.989736 113.63 0.142882 23.558 0.142882 23.558 0.989736 113.48
8.77044000 0.989735 113.63 0.142883 23.558 0.142883 23.558 0.989735 113.48
8.77046000 0.989735 113.63 0.142884 23.558 0.142884 23.558 0.989735 113.48
8.77048000 0.989735 113.63 0.142885 23.558 0.142885 23.558 0.989735 113.48
8.77050000 0.989735 113.63 0.142886 23.558 0.142886 23.558 0.989735 113.48
8.77052000 0.989735 113.63 0.142886 23.557 0.142886 23.557 0.989735 113.48
8.77054000 0.989735 113.63 0.142887 23.557 0.142887 23.557 0.989735 113.48
8.77056000 0.989735 113.63 0.142888 23.557 0.142888 23.557 0.989735 113.48
8.77058000 0.989735 113.63 0.142889 23.557 0.142889 23.557 0.989735 113.48
8.77060000 0.989734 113.63 0.142890 23.557 0.142890 23.557 0.989734 113.48
8.77062000 0.989734 113.63 0.142891 23.557 0.142891 23.557 0.989734 113.48
8.77064000 0.989734 113.63 0.142892 23.556 0.142892 23.556 0.989734 113.48
8.77066000 0.989734 113.63 0.142893 23.556 0.142893 23.556 0.989734 113.48
8.77068000 0.989734 113.63 0.142893 23.556 0.142893 23.556 0.989734 113.48
8.77070000 0.989734 113.63 0.142894 23.556 0.142894 23.556 0.989734 113.48
8.77072000 0.989734 113.63 0.142895 23.556 0.142895 23.556 0.989734 113.48
8.77074000 0.989734 113.63 0.142896 23.555 0.142896 23.555 0.989734 113.48
8.77076000 0.989733 113.63 0.142897 23.555 0.142897 23.555 0.989733 113.48
8.77078000 0.989733 113.63 0.142898 23.555 0.142898 23.555 0.989733 113.48
8.77080000 0.989733 113.63 0.142899 23.555 0.142899 23.555 0.989733 113.48
8.77082000 0.989733 113.63 0.142899 23.555 0.142899 23.555 0.989733 113.48
8.77084000 0.989733 113.63 0.142900 23.555 0.142900 23.555 0.989733 113.48
8.77086000 0.989733 113.63 0.142901 23.554 0.142901 23.554 0.989733 113.48
8.77088000 0.989733 113.63 0.142902 23.554 0.142902 23.554 0.989733 113.48
8.77090000 0.989733 113.63 0.142903 23.554 0.142903 23.554 0.989733 113.48
8.77092000 0.989732 113.63 0.142904 23.554 0.142904 23.554 0.989732 113.48
8.77094000 0.989732 113.63 0.142905 23.554 0.142905 23.554 0.989732 113.48
8.77096000 0.989732 113.63 0.142906 23.553 0.142906 23.553 0.989732 113.48
8.77098000 0.989732 113.63 0.142906 23.553 0.142906 23.553 0.989732 113.48
8.77100000 0.989732 113.63 0.142907 23.553 0.142907 23.553 0.989732 113.48
8.77102000 0.989732 113.63 0.142908 23.553 0.142908 23.553 0.989732 113.48
8.77104000 0.989732 113.63 0.142909 23.553 0.142909 23.553 0.989732 113.48
8.77106000 0.989732 113.63 0.142910 23.553 0.142910 23.553 0.989732 113.48
8.77108000 0.989731 113.63 0.142911 23.552 0.142911 23.552 0.989731 113.48
8.77110000 0.989731 113.63 0.142912 23.552 0.142912 23.552 0.989731 113.48
8.77112000 0.989731 113.63 0.142913 23.552 0.142913 23.552 0.989731 113.48
8.77114000 0.989731 113.63 0.142914 23.552 0.142914 23.552 0.989731 113.48
8.77116000 0.989731 113.63 0.142914 23.552 0.142914 23.552 0.989731 113.48
8.77118000 0.989731 113.63 0.142915 23.551 0.142915 23.551 0.989731 113.48
8.77120000 0.989731 113.63 0.142916 23.551 0.142916 23.551 0.989731 113.48
8.77122000 0.989730 113.63 0.142917 23.551 0.142917 23.551 0.989731 113.48
8.77124000 0.989730 113.63 0.142918 23.551 0.142918 23.551 0.989730 113.47
8.77126000 0.989730 113.62 0.142919 23.551 0.142919 23.551 0.989730 113.47
8.77128000 0.989730 113.62 0.142920 23.551 0.142920 23.551 0.989730 113.47
8.77130000 0.989730 113.62 0.142921 23.550 0.142921 23.550 0.989730 113.47
8.77132000 0.989730 113.62 0.142922 23.550 0.142922 23.550 0.989730 113.47
8.77134000 0.989730 113.62 0.142922 23.550 0.142922 23.550 0.989730 113.47
8.77136000 0.989730 113.62 0.142923 23.550 0.142923 23.550 0.989730 113.47
8.77138000 0.989729 113.62 0.142924 23.550 0.142924 23.550 0.989729 113.47
8.77140000 0.989729 113.62 0.142925 23.549 0.142925 23.549 0.989729 113.47
8.77142000 0.989729 113.62 0.142926 23.549 0.142926 23.549 0.989729 113.47
8.77144000 0.989729 113.62 0.142927 23.549 0.142927 23.549 0.989729 113.47
8.77146000 0.989729 113.62 0.142928 23.549 0.142928 23.549 0.989729 113.47
8.77148000 0.989729 113.62 0.142929 23.549 0.142929 23.549 0.989729 113.47
8.77150000 0.989729 113.62 0.142930 23.549 0.142930 23.549 0.989729 113.47
8.77152000 0.989729 113.62 0.142930 23.548 0.142930 23.548 0.989729 113.47
8.77154000 0.989728 113.62 0.142931 23.548 0.142931 23.548 0.989728 113.47
8.77156000 0.989728 113.62 0.142932 23.548 0.142932 23.548 0.989728 113.47
8.77158000 0.989728 113.62 0.142933 23.548 0.142933 23.548 0.989728 113.47
8.77160000 0.989728 113.62 0.142934 23.548 0.142934 23.548 0.989728 113.47
8.77162000 0.989728 113.62 0.142935 23.547 0.142935 23.547 0.989728 113.47
8.77164000 0.989728 113.62 0.142936 23.547 0.142936 23.547 0.989728 113.47
8.77166000 0.989728 113.62 0.142937 23.547 0.142937 23.547 0.989728 113.47
8.77168000 0.989727 113.62 0.142938 23.547 0.142938 23.547 0.989728 113.47
8.77170000 0.989727 113.62 0.142939 23.547 0.142939 23.547 0.989727 113.47
8.77172000 0.989727 113.62 0.142939 23.546 0.142939 23.546 0.989727 113.47
8.77174000 0.989727 113.62 0.142940 23.546 0.142940 23.546 0.989727 113.47
8.77176000 0.989727 113.62 0.142941 23.546 0.142941 23.546 0.989727 113.47
8.77178000 0.989727 113.62 0.142942 23.546 0.142942 23.546 0.989727 113.47
8.77180000 0.989727 113.62 0.142943 23.546 0.142943 23.546 0.989727 113.47
8.77182000 0.989727 113.62 0.142944 23.546 0.142944 23.546 0.989727 113.47
8.77184000 0.989726 113.62 0.142945 23.545 0.142945 23.545 0.989726 113.47
8.77186000 0.989726 113.62 0.142946 23.545 0.142946 23.545 0.989726 113.47
8.77188000 0.989726 113.62 0.142947 23.545 0.142947 23.545 0.989726 113.47
8.77190000 0.989726 113.62 0.142948 23.545 0.142948 23.545 0.989726 113.47
8.77192000 0.989726 113.62 0.142949 23.545 0.142949 23.545 0.989726 113.47
8.77194000 0.989726 113.62 0.142949 23.544 0.142949 23.544 0.989726 113.47
8.77196000 0.989726 113.62 0.142950 23.544 0.142950 23.544 0.989726 113.47
8.77198000 0.989726 113.62 0.142951 23.544 0.142951 23.544 0.989726 113.47
8.77200000 0.989725 113.62 0.142952 23.544 0.142952 23.544 0.989725 113.47
8.77202000 0.989725 113.62 0.142953 23.544 0.142953 23.544 0.989725 113.47
8.77204000 0.989725 113.62 0.142954 23.544 0.142954 23.544 0.989725 113.47
8.77206000 0.989725 113.62 0.142955 23.543 0.142955 23.543 0.989725 113.47
8.77208000 0.989725 113.62 0.142956 23.543 0.142956 23.543 0.989725 113.47
8.77210000 0.989725 113.62 0.142957 23.543 0.142957 23.543 0.989725 113.47
8.77212000 0.989725 113.62 0.142958 23.543 0.142958 23.543 0.989725 113.47
8.77214000 0.989724 113.62 0.142959 23.543 0.142959 23.543 0.989724 113.47
8.77216000 0.989724 113.62 0.142960 23.542 0.142960 23.542 0.989724 113.47
8.77218000 0.989724 113.62 0.142961 23.542 0.142961 23.542 0.989724 113.47
8.77220000 0.989724 113.62 0.142961 23.542 0.142961 23.542 0.989724 113.47
8.77222000 0.989724 113.62 0.142962 23.542 0.142962 23.542 0.989724 113.47
8.77224000 0.989724 113.62 0.142963 23.542 0.142963 23.542 0.989724 113.47
8.77226000 0.989724 113.62 0.142964 23.541 0.142964 23.541 0.989724 113.47
8.77228000 0.989724 113.62 0.142965 23.541 0.142965 23.541 0.989724 113.47
8.77230000 0.989723 113.62 0.142966 23.541 0.142966 23.541 0.989723 113.47
8.77232000 0.989723 113.61 0.142967 23.541 0.142967 23.541 0.989723 113.46
8.77234000 0.989723 113.61 0.142968 23.541 0.142968 23.541 0.989723 113.46
8.77236000 0.989723 113.61 0.142969 23.541 0.142969 23.541 0.989723 113.46
8.77238000 0.989723 113.61 0.142970 23.540 0.142970 23.540 0.989723 113.46
8.77240000 0.989723 113.61 0.142971 23.540 0.142971 23.540 0.989723 113.46
8.77242000 0.989723 113.61 0.142972 23.540 0.142972 23.540 0.989723 113.46
8.77244000 0.989722 113.61 0.142973 23.540 0.142973 23.540 0.989722 113.46
8.77246000 0.989722 113.61 0.142974 23.540 0.142974 23.540 0.989722 113.46
8.77248000 0.989722 113.61 0.142975 23.539 0.142975 23.539 0.989722 113.46
8.77250000 0.989722 113.61 0.142975 23.539 0.142975 23.539 0.989722 113.46
8.77252000 0.989722 113.61 0.142976 23.539 0.142976 23.539 0.989722 113.46
8.77254000 0.989722 113.61 0.142977 23.539 0.142977 23.539 0.989722 113.46
8.77256000 0.989722 113.61 0.142978 23.539 0.142978 23.539 0.989722 113.46
8.77258000 0.989721 113.61 0.142979 23.538 0.142979 23.538 0.989721 113.46
8.77260000 0.989721 113.61 0.142980 23.538 0.142980 23.538 0.989721 113.46
8.77262000 0.989721 113.61 0.142981 23.538 0.142981 23.538 0.989721 113.46
8.77264000 0.989721 113.61 0.142982 23.538 0.142982 23.538 0.989721 113.46
8.77266000 0.989721 113.61 0.142983 23.538 0.142983 23.538 0.989721 113.46
8.77268000 0.989721 113.61 0.142984 23.538 0.142984 23.538 0.989721 113.46
8.77270000 0.989721 113.61 0.142985 23.537 0.142985 23.537 0.989721 113.46
8.77272000 0.989721 113.61 0.142986 23.537 0.142986 23.537 0.989721 113.46
8.77274000 0.989720 113.61 0.142987 23.537 0.142987 23.537 0.989720 113.46
8.77276000 0.989720 113.61 0.142988 23.537 0.142988 23.537 0.989720 113.46
8.77278000 0.989720 113.61 0.142989 23.537 0.142989 23.537 0.989720 113.46
8.77280000 0.989720 113.61 0.142990 23.536 0.142990 23.536 0.989720 113.46
8.77282000 0.989720 113.61 0.142991 23.536 0.142991 23.536 0.989720 113.46