! Sonnet Data File
! From: emgraph Version : 16.52
! From Emgraph Data: Qubit_Xmon2_brg
! Data File Written: 10/24/2017 15:34:20
!< HDATE 10/24/2017 15:15:31
!< MDATE 10/24/2017 15:15:31
!< PARAMS
!< Lj = 11.0
!< Gap = 6.0
!< Pwid = 2000.0
!< Width = 10.0
!< Bwid = 50.0
!< Dis1 = 124.0
!< END PARAMS
# GHZ S MA R 34.70000
8.68500000 0.977504 100.96 0.210861 10.844 0.210861 10.844 0.977504 100.73
!< P1 F=8.685 Eeff=(5.13559215 -5.6621e-5) Z0=(34.6542042 -9.3986e-5) R=0.0 C=0.0 
!< P2 F=8.685 Eeff=(5.13559215 -5.6621e-5) Z0=(34.6542042 -9.3986e-5) R=0.0 C=0.0 
8.68500500 0.977503 100.96 0.210863 10.843 0.210863 10.843 0.977503 100.73
8.68501000 0.977503 100.96 0.210865 10.843 0.210865 10.843 0.977503 100.73
8.68501500 0.977502 100.96 0.210867 10.843 0.210867 10.843 0.977502 100.73
8.68502000 0.977502 100.96 0.210869 10.843 0.210869 10.843 0.977502 100.73
8.68502500 0.977501 100.96 0.210871 10.843 0.210871 10.843 0.977501 100.73
8.68503000 0.977501 100.96 0.210873 10.843 0.210873 10.843 0.977501 100.73
8.68503500 0.977500 100.96 0.210875 10.842 0.210875 10.842 0.977500 100.73
8.68504000 0.977500 100.96 0.210878 10.842 0.210878 10.842 0.977500 100.73
8.68504500 0.977499 100.96 0.210880 10.842 0.210880 10.842 0.977499 100.73
8.68505000 0.977499 100.96 0.210882 10.842 0.210882 10.842 0.977499 100.73
8.68505500 0.977499 100.96 0.210884 10.842 0.210884 10.842 0.977498 100.73
8.68506000 0.977498 100.96 0.210886 10.842 0.210886 10.842 0.977498 100.73
8.68506500 0.977498 100.96 0.210888 10.841 0.210888 10.841 0.977498 100.73
8.68507000 0.977497 100.96 0.210890 10.841 0.210890 10.841 0.977497 100.73
8.68507500 0.977497 100.96 0.210892 10.841 0.210892 10.841 0.977497 100.73
8.68508000 0.977496 100.96 0.210894 10.841 0.210894 10.841 0.977496 100.73
8.68508500 0.977496 100.96 0.210897 10.841 0.210897 10.841 0.977496 100.72
8.68509000 0.977495 100.96 0.210899 10.841 0.210899 10.841 0.977495 100.72
8.68509500 0.977495 100.96 0.210901 10.840 0.210901 10.840 0.977495 100.72
8.68510000 0.977494 100.96 0.210903 10.840 0.210903 10.840 0.977494 100.72
8.68510500 0.977494 100.96 0.210905 10.840 0.210905 10.840 0.977494 100.72
8.68511000 0.977493 100.96 0.210907 10.840 0.210907 10.840 0.977493 100.72
8.68511500 0.977493 100.96 0.210909 10.840 0.210909 10.840 0.977493 100.72
8.68512000 0.977492 100.96 0.210912 10.840 0.210912 10.840 0.977492 100.72
8.68512500 0.977492 100.96 0.210914 10.839 0.210914 10.839 0.977492 100.72
8.68513000 0.977491 100.96 0.210916 10.839 0.210916 10.839 0.977491 100.72
8.68513500 0.977491 100.96 0.210918 10.839 0.210918 10.839 0.977491 100.72
8.68514000 0.977491 100.96 0.210920 10.839 0.210920 10.839 0.977490 100.72
8.68514500 0.977490 100.96 0.210922 10.839 0.210922 10.839 0.977490 100.72
8.68515000 0.977490 100.96 0.210925 10.839 0.210925 10.839 0.977489 100.72
8.68515500 0.977489 100.96 0.210927 10.838 0.210927 10.838 0.977489 100.72
8.68516000 0.977489 100.96 0.210929 10.838 0.210929 10.838 0.977489 100.72
8.68516500 0.977488 100.96 0.210931 10.838 0.210931 10.838 0.977488 100.72
8.68517000 0.977488 100.96 0.210933 10.838 0.210933 10.838 0.977488 100.72
8.68517500 0.977487 100.96 0.210935 10.838 0.210935 10.838 0.977487 100.72
8.68518000 0.977487 100.96 0.210938 10.838 0.210938 10.838 0.977487 100.72
8.68518500 0.977486 100.96 0.210940 10.837 0.210940 10.837 0.977486 100.72
8.68519000 0.977486 100.96 0.210942 10.837 0.210942 10.837 0.977486 100.72
8.68519500 0.977485 100.96 0.210944 10.837 0.210944 10.837 0.977485 100.72
8.68520000 0.977485 100.96 0.210946 10.837 0.210946 10.837 0.977485 100.72
8.68520500 0.977484 100.96 0.210949 10.837 0.210949 10.837 0.977484 100.72
8.68521000 0.977484 100.95 0.210951 10.837 0.210951 10.837 0.977484 100.72
8.68521500 0.977483 100.95 0.210953 10.836 0.210953 10.836 0.977483 100.72
8.68522000 0.977483 100.95 0.210955 10.836 0.210955 10.836 0.977483 100.72
8.68522500 0.977482 100.95 0.210957 10.836 0.210957 10.836 0.977482 100.72
8.68523000 0.977482 100.95 0.210960 10.836 0.210960 10.836 0.977482 100.72
8.68523500 0.977481 100.95 0.210962 10.836 0.210962 10.836 0.977481 100.72
8.68524000 0.977481 100.95 0.210964 10.836 0.210964 10.836 0.977481 100.72
8.68524500 0.977480 100.95 0.210966 10.835 0.210966 10.835 0.977480 100.72
8.68525000 0.977480 100.95 0.210968 10.835 0.210968 10.835 0.977480 100.72
8.68525500 0.977479 100.95 0.210971 10.835 0.210971 10.835 0.977479 100.72
8.68526000 0.977479 100.95 0.210973 10.835 0.210973 10.835 0.977479 100.72
8.68526500 0.977478 100.95 0.210975 10.835 0.210975 10.835 0.977478 100.72
8.68527000 0.977478 100.95 0.210977 10.835 0.210977 10.835 0.977478 100.72
8.68527500 0.977477 100.95 0.210980 10.834 0.210980 10.834 0.977477 100.72
8.68528000 0.977477 100.95 0.210982 10.834 0.210982 10.834 0.977477 100.72
8.68528500 0.977476 100.95 0.210984 10.834 0.210984 10.834 0.977476 100.72
8.68529000 0.977476 100.95 0.210986 10.834 0.210986 10.834 0.977476 100.72
8.68529500 0.977475 100.95 0.210989 10.834 0.210989 10.834 0.977475 100.72
8.68530000 0.977475 100.95 0.210991 10.834 0.210991 10.834 0.977475 100.72
8.68530500 0.977475 100.95 0.210993 10.833 0.210993 10.833 0.977474 100.72
8.68531000 0.977474 100.95 0.210995 10.833 0.210995 10.833 0.977474 100.72
8.68531500 0.977474 100.95 0.210998 10.833 0.210998 10.833 0.977473 100.72
8.68532000 0.977473 100.95 0.211000 10.833 0.211000 10.833 0.977473 100.72
8.68532500 0.977473 100.95 0.211002 10.833 0.211002 10.833 0.977472 100.72
8.68533000 0.977472 100.95 0.211004 10.832 0.211004 10.832 0.977472 100.72
8.68533500 0.977472 100.95 0.211007 10.832 0.211007 10.832 0.977471 100.72
8.68534000 0.977471 100.95 0.211009 10.832 0.211009 10.832 0.977471 100.72
8.68534500 0.977471 100.95 0.211011 10.832 0.211011 10.832 0.977470 100.72
8.68535000 0.977470 100.95 0.211013 10.832 0.211013 10.832 0.977470 100.72
8.68535500 0.977470 100.95 0.211016 10.832 0.211016 10.832 0.977469 100.72
8.68536000 0.977469 100.95 0.211018 10.831 0.211018 10.831 0.977469 100.72
8.68536500 0.977469 100.95 0.211020 10.831 0.211020 10.831 0.977468 100.72
8.68537000 0.977468 100.95 0.211022 10.831 0.211022 10.831 0.977468 100.72
8.68537500 0.977468 100.95 0.211025 10.831 0.211025 10.831 0.977467 100.72
8.68538000 0.977467 100.95 0.211027 10.831 0.211027 10.831 0.977467 100.71
8.68538500 0.977467 100.95 0.211029 10.831 0.211029 10.831 0.977466 100.71
8.68539000 0.977466 100.95 0.211032 10.830 0.211032 10.830 0.977466 100.71
8.68539500 0.977465 100.95 0.211034 10.830 0.211034 10.830 0.977465 100.71
8.68540000 0.977465 100.95 0.211036 10.830 0.211036 10.830 0.977465 100.71
8.68540500 0.977464 100.95 0.211039 10.830 0.211039 10.830 0.977464 100.71
8.68541000 0.977464 100.95 0.211041 10.830 0.211041 10.830 0.977464 100.71
8.68541500 0.977463 100.95 0.211043 10.830 0.211043 10.830 0.977463 100.71
8.68542000 0.977463 100.95 0.211045 10.829 0.211045 10.829 0.977463 100.71
8.68542500 0.977462 100.95 0.211048 10.829 0.211048 10.829 0.977462 100.71
8.68543000 0.977462 100.95 0.211050 10.829 0.211050 10.829 0.977462 100.71
8.68543500 0.977461 100.95 0.211052 10.829 0.211052 10.829 0.977461 100.71
8.68544000 0.977461 100.95 0.211055 10.829 0.211055 10.829 0.977461 100.71
8.68544500 0.977460 100.95 0.211057 10.828 0.211057 10.828 0.977460 100.71
8.68545000 0.977460 100.95 0.211059 10.828 0.211059 10.828 0.977460 100.71
8.68545500 0.977459 100.95 0.211062 10.828 0.211062 10.828 0.977459 100.71
8.68546000 0.977459 100.95 0.211064 10.828 0.211064 10.828 0.977459 100.71
8.68546500 0.977458 100.95 0.211066 10.828 0.211066 10.828 0.977458 100.71
8.68547000 0.977458 100.95 0.211069 10.828 0.211069 10.828 0.977458 100.71
8.68547500 0.977457 100.95 0.211071 10.827 0.211071 10.827 0.977457 100.71
8.68548000 0.977457 100.95 0.211073 10.827 0.211073 10.827 0.977457 100.71
8.68548500 0.977456 100.95 0.211076 10.827 0.211076 10.827 0.977456 100.71
8.68549000 0.977456 100.95 0.211078 10.827 0.211078 10.827 0.977456 100.71
8.68549500 0.977455 100.95 0.211080 10.827 0.211080 10.827 0.977455 100.71
8.68550000 0.977455 100.94 0.211083 10.826 0.211083 10.826 0.977455 100.71
8.68550500 0.977454 100.94 0.211085 10.826 0.211085 10.826 0.977454 100.71
8.68551000 0.977454 100.94 0.211087 10.826 0.211087 10.826 0.977454 100.71
8.68551500 0.977453 100.94 0.211090 10.826 0.211090 10.826 0.977453 100.71
8.68552000 0.977453 100.94 0.211092 10.826 0.211092 10.826 0.977453 100.71
8.68552500 0.977452 100.94 0.211095 10.826 0.211095 10.826 0.977452 100.71
8.68553000 0.977452 100.94 0.211097 10.825 0.211097 10.825 0.977451 100.71
8.68553500 0.977451 100.94 0.211099 10.825 0.211099 10.825 0.977451 100.71
8.68554000 0.977451 100.94 0.211102 10.825 0.211102 10.825 0.977450 100.71
8.68554500 0.977450 100.94 0.211104 10.825 0.211104 10.825 0.977450 100.71
8.68555000 0.977449 100.94 0.211106 10.825 0.211106 10.825 0.977449 100.71
8.68555500 0.977449 100.94 0.211109 10.825 0.211109 10.825 0.977449 100.71
8.68556000 0.977448 100.94 0.211111 10.824 0.211111 10.824 0.977448 100.71
8.68556500 0.977448 100.94 0.211114 10.824 0.211114 10.824 0.977448 100.71
8.68557000 0.977447 100.94 0.211116 10.824 0.211116 10.824 0.977447 100.71
8.68557500 0.977447 100.94 0.211118 10.824 0.211118 10.824 0.977447 100.71
8.68558000 0.977446 100.94 0.211121 10.824 0.211121 10.824 0.977446 100.71
8.68558500 0.977446 100.94 0.211123 10.823 0.211123 10.823 0.977446 100.71
8.68559000 0.977445 100.94 0.211126 10.823 0.211126 10.823 0.977445 100.71
8.68559500 0.977445 100.94 0.211128 10.823 0.211128 10.823 0.977445 100.71
8.68560000 0.977444 100.94 0.211130 10.823 0.211130 10.823 0.977444 100.71
8.68560500 0.977444 100.94 0.211133 10.823 0.211133 10.823 0.977444 100.71
8.68561000 0.977443 100.94 0.211135 10.822 0.211135 10.822 0.977443 100.71
8.68561500 0.977443 100.94 0.211138 10.822 0.211138 10.822 0.977442 100.71
8.68562000 0.977442 100.94 0.211140 10.822 0.211140 10.822 0.977442 100.71
8.68562500 0.977442 100.94 0.211143 10.822 0.211143 10.822 0.977441 100.71
8.68563000 0.977441 100.94 0.211145 10.822 0.211145 10.822 0.977441 100.71
8.68563500 0.977440 100.94 0.211147 10.822 0.211147 10.822 0.977440 100.71
8.68564000 0.977440 100.94 0.211150 10.821 0.211150 10.821 0.977440 100.71
8.68564500 0.977439 100.94 0.211152 10.821 0.211152 10.821 0.977439 100.71
8.68565000 0.977439 100.94 0.211155 10.821 0.211155 10.821 0.977439 100.71
8.68565500 0.977438 100.94 0.211157 10.821 0.211157 10.821 0.977438 100.71
8.68566000 0.977438 100.94 0.211160 10.821 0.211160 10.821 0.977438 100.70
8.68566500 0.977437 100.94 0.211162 10.820 0.211162 10.820 0.977437 100.70
8.68567000 0.977437 100.94 0.211165 10.820 0.211165 10.820 0.977437 100.70
8.68567500 0.977436 100.94 0.211167 10.820 0.211167 10.820 0.977436 100.70
8.68568000 0.977436 100.94 0.211169 10.820 0.211169 10.820 0.977435 100.70
8.68568500 0.977435 100.94 0.211172 10.820 0.211172 10.820 0.977435 100.70
8.68569000 0.977435 100.94 0.211174 10.820 0.211174 10.820 0.977434 100.70
8.68569500 0.977434 100.94 0.211177 10.819 0.211177 10.819 0.977434 100.70
8.68570000 0.977433 100.94 0.211179 10.819 0.211179 10.819 0.977433 100.70
8.68570500 0.977433 100.94 0.211182 10.819 0.211182 10.819 0.977433 100.70
8.68571000 0.977432 100.94 0.211184 10.819 0.211184 10.819 0.977432 100.70
8.68571500 0.977432 100.94 0.211187 10.819 0.211187 10.819 0.977432 100.70
8.68572000 0.977431 100.94 0.211189 10.818 0.211189 10.818 0.977431 100.70
8.68572500 0.977431 100.94 0.211192 10.818 0.211192 10.818 0.977431 100.70
8.68573000 0.977430 100.94 0.211194 10.818 0.211194 10.818 0.977430 100.70
8.68573500 0.977430 100.94 0.211197 10.818 0.211197 10.818 0.977429 100.70
8.68574000 0.977429 100.94 0.211199 10.818 0.211199 10.818 0.977429 100.70
8.68574500 0.977428 100.94 0.211202 10.817 0.211202 10.817 0.977428 100.70
8.68575000 0.977428 100.94 0.211204 10.817 0.211204 10.817 0.977428 100.70
8.68575500 0.977427 100.94 0.211207 10.817 0.211207 10.817 0.977427 100.70
8.68576000 0.977427 100.94 0.211209 10.817 0.211209 10.817 0.977427 100.70
8.68576500 0.977426 100.94 0.211212 10.817 0.211212 10.817 0.977426 100.70
8.68577000 0.977426 100.94 0.211214 10.817 0.211214 10.817 0.977426 100.70
8.68577500 0.977425 100.93 0.211217 10.816 0.211217 10.816 0.977425 100.70
8.68578000 0.977425 100.93 0.211219 10.816 0.211219 10.816 0.977424 100.70
8.68578500 0.977424 100.93 0.211222 10.816 0.211222 10.816 0.977424 100.70
8.68579000 0.977423 100.93 0.211224 10.816 0.211224 10.816 0.977423 100.70
8.68579500 0.977423 100.93 0.211227 10.816 0.211227 10.816 0.977423 100.70
8.68580000 0.977422 100.93 0.211229 10.815 0.211229 10.815 0.977422 100.70
8.68580500 0.977422 100.93 0.211232 10.815 0.211232 10.815 0.977422 100.70
8.68581000 0.977421 100.93 0.211234 10.815 0.211234 10.815 0.977421 100.70
8.68581500 0.977421 100.93 0.211237 10.815 0.211237 10.815 0.977421 100.70
8.68582000 0.977420 100.93 0.211240 10.815 0.211240 10.815 0.977420 100.70
8.68582500 0.977420 100.93 0.211242 10.814 0.211242 10.814 0.977419 100.70
8.68583000 0.977419 100.93 0.211245 10.814 0.211245 10.814 0.977419 100.70
8.68583500 0.977418 100.93 0.211247 10.814 0.211247 10.814 0.977418 100.70
8.68584000 0.977418 100.93 0.211250 10.814 0.211250 10.814 0.977418 100.70
8.68584500 0.977417 100.93 0.211252 10.814 0.211252 10.814 0.977417 100.70
8.68585000 0.977417 100.93 0.211255 10.813 0.211255 10.813 0.977417 100.70
8.68585500 0.977416 100.93 0.211258 10.813 0.211258 10.813 0.977416 100.70
8.68586000 0.977416 100.93 0.211260 10.813 0.211260 10.813 0.977415 100.70
8.68586500 0.977415 100.93 0.211263 10.813 0.211263 10.813 0.977415 100.70
8.68587000 0.977414 100.93 0.211265 10.813 0.211265 10.813 0.977414 100.70
8.68587500 0.977414 100.93 0.211268 10.813 0.211268 10.813 0.977414 100.70
8.68588000 0.977413 100.93 0.211270 10.812 0.211270 10.812 0.977413 100.70
8.68588500 0.977413 100.93 0.211273 10.812 0.211273 10.812 0.977413 100.70
8.68589000 0.977412 100.93 0.211276 10.812 0.211276 10.812 0.977412 100.70
8.68589500 0.977412 100.93 0.211278 10.812 0.211278 10.812 0.977411 100.70
8.68590000 0.977411 100.93 0.211281 10.812 0.211281 10.812 0.977411 100.70
8.68590500 0.977410 100.93 0.211283 10.811 0.211283 10.811 0.977410 100.70
8.68591000 0.977410 100.93 0.211286 10.811 0.211286 10.811 0.977410 100.70
8.68591500 0.977409 100.93 0.211289 10.811 0.211289 10.811 0.977409 100.70
8.68592000 0.977409 100.93 0.211291 10.811 0.211291 10.811 0.977409 100.70
8.68592500 0.977408 100.93 0.211294 10.811 0.211294 10.811 0.977408 100.70
8.68593000 0.977408 100.93 0.211296 10.810 0.211296 10.810 0.977407 100.69
8.68593500 0.977407 100.93 0.211299 10.810 0.211299 10.810 0.977407 100.69
8.68594000 0.977406 100.93 0.211302 10.810 0.211302 10.810 0.977406 100.69
8.68594500 0.977406 100.93 0.211304 10.810 0.211304 10.810 0.977406 100.69
8.68595000 0.977405 100.93 0.211307 10.810 0.211307 10.810 0.977405 100.69
8.68595500 0.977405 100.93 0.211310 10.809 0.211310 10.809 0.977405 100.69
8.68596000 0.977404 100.93 0.211312 10.809 0.211312 10.809 0.977404 100.69
8.68596500 0.977403 100.93 0.211315 10.809 0.211315 10.809 0.977403 100.69
8.68597000 0.977403 100.93 0.211318 10.809 0.211318 10.809 0.977403 100.69
8.68597500 0.977402 100.93 0.211320 10.809 0.211320 10.809 0.977402 100.69
8.68598000 0.977402 100.93 0.211323 10.808 0.211323 10.808 0.977402 100.69
8.68598500 0.977401 100.93 0.211326 10.808 0.211326 10.808 0.977401 100.69
8.68599000 0.977401 100.93 0.211328 10.808 0.211328 10.808 0.977400 100.69
8.68599500 0.977400 100.93 0.211331 10.808 0.211331 10.808 0.977400 100.69
8.68600000 0.977399 100.93 0.211334 10.808 0.211334 10.808 0.977399 100.69
8.68600500 0.977399 100.93 0.211336 10.807 0.211336 10.807 0.977399 100.69
8.68601000 0.977398 100.93 0.211339 10.807 0.211339 10.807 0.977398 100.69
8.68601500 0.977398 100.93 0.211342 10.807 0.211342 10.807 0.977397 100.69
8.68602000 0.977397 100.93 0.211344 10.807 0.211344 10.807 0.977397 100.69
8.68602500 0.977396 100.93 0.211347 10.807 0.211347 10.807 0.977396 100.69
8.68603000 0.977396 100.93 0.211350 10.806 0.211350 10.806 0.977396 100.69
8.68603500 0.977395 100.93 0.211352 10.806 0.211352 10.806 0.977395 100.69
8.68604000 0.977395 100.92 0.211355 10.806 0.211355 10.806 0.977394 100.69
8.68604500 0.977394 100.92 0.211358 10.806 0.211358 10.806 0.977394 100.69
8.68605000 0.977393 100.92 0.211360 10.806 0.211360 10.806 0.977393 100.69
8.68605500 0.977393 100.92 0.211363 10.805 0.211363 10.805 0.977393 100.69
8.68606000 0.977392 100.92 0.211366 10.805 0.211366 10.805 0.977392 100.69
8.68606500 0.977392 100.92 0.211369 10.805 0.211369 10.805 0.977391 100.69
8.68607000 0.977391 100.92 0.211371 10.805 0.211371 10.805 0.977391 100.69
8.68607500 0.977390 100.92 0.211374 10.805 0.211374 10.805 0.977390 100.69
8.68608000 0.977390 100.92 0.211377 10.804 0.211377 10.804 0.977390 100.69
8.68608500 0.977389 100.92 0.211379 10.804 0.211379 10.804 0.977389 100.69
8.68609000 0.977389 100.92 0.211382 10.804 0.211382 10.804 0.977388 100.69
8.68609500 0.977388 100.92 0.211385 10.804 0.211385 10.804 0.977388 100.69
8.68610000 0.977387 100.92 0.211388 10.804 0.211388 10.804 0.977387 100.69
8.68610500 0.977387 100.92 0.211390 10.803 0.211390 10.803 0.977387 100.69
8.68611000 0.977386 100.92 0.211393 10.803 0.211393 10.803 0.977386 100.69
8.68611500 0.977386 100.92 0.211396 10.803 0.211396 10.803 0.977385 100.69
8.68612000 0.977385 100.92 0.211399 10.803 0.211399 10.803 0.977385 100.69
8.68612500 0.977384 100.92 0.211401 10.803 0.211401 10.803 0.977384 100.69
8.68613000 0.977384 100.92 0.211404 10.802 0.211404 10.802 0.977384 100.69
8.68613500 0.977383 100.92 0.211407 10.802 0.211407 10.802 0.977383 100.69
8.68614000 0.977382 100.92 0.211410 10.802 0.211410 10.802 0.977382 100.69
8.68614500 0.977382 100.92 0.211412 10.802 0.211412 10.802 0.977382 100.69
8.68615000 0.977381 100.92 0.211415 10.802 0.211415 10.802 0.977381 100.69
8.68615500 0.977381 100.92 0.211418 10.801 0.211418 10.801 0.977381 100.69
8.68616000 0.977380 100.92 0.211421 10.801 0.211421 10.801 0.977380 100.69
8.68616500 0.977379 100.92 0.211424 10.801 0.211424 10.801 0.977379 100.69
8.68617000 0.977379 100.92 0.211426 10.801 0.211426 10.801 0.977379 100.69
8.68617500 0.977378 100.92 0.211429 10.801 0.211429 10.801 0.977378 100.69
8.68618000 0.977378 100.92 0.211432 10.800 0.211432 10.800 0.977377 100.68
8.68618500 0.977377 100.92 0.211435 10.800 0.211435 10.800 0.977377 100.68
8.68619000 0.977376 100.92 0.211438 10.800 0.211438 10.800 0.977376 100.68
8.68619500 0.977376 100.92 0.211440 10.800 0.211440 10.800 0.977376 100.68
8.68620000 0.977375 100.92 0.211443 10.799 0.211443 10.799 0.977375 100.68
8.68620500 0.977374 100.92 0.211446 10.799 0.211446 10.799 0.977374 100.68
8.68621000 0.977374 100.92 0.211449 10.799 0.211449 10.799 0.977374 100.68
8.68621500 0.977373 100.92 0.211452 10.799 0.211452 10.799 0.977373 100.68
8.68622000 0.977373 100.92 0.211454 10.799 0.211454 10.799 0.977372 100.68
8.68622500 0.977372 100.92 0.211457 10.798 0.211457 10.798 0.977372 100.68
8.68623000 0.977371 100.92 0.211460 10.798 0.211460 10.798 0.977371 100.68
8.68623500 0.977371 100.92 0.211463 10.798 0.211463 10.798 0.977371 100.68
8.68624000 0.977370 100.92 0.211466 10.798 0.211466 10.798 0.977370 100.68
8.68624500 0.977369 100.92 0.211469 10.798 0.211469 10.798 0.977369 100.68
8.68625000 0.977369 100.92 0.211472 10.797 0.211472 10.797 0.977369 100.68
8.68625500 0.977368 100.92 0.211474 10.797 0.211474 10.797 0.977368 100.68
8.68626000 0.977368 100.92 0.211477 10.797 0.211477 10.797 0.977367 100.68
8.68626500 0.977367 100.92 0.211480 10.797 0.211480 10.797 0.977367 100.68
8.68627000 0.977366 100.92 0.211483 10.797 0.211483 10.797 0.977366 100.68
8.68627500 0.977366 100.92 0.211486 10.796 0.211486 10.796 0.977365 100.68
8.68628000 0.977365 100.92 0.211489 10.796 0.211489 10.796 0.977365 100.68
8.68628500 0.977364 100.92 0.211492 10.796 0.211492 10.796 0.977364 100.68
8.68629000 0.977364 100.91 0.211495 10.796 0.211495 10.796 0.977364 100.68
8.68629500 0.977363 100.91 0.211497 10.796 0.211497 10.796 0.977363 100.68
8.68630000 0.977362 100.91 0.211500 10.795 0.211500 10.795 0.977362 100.68
8.68630500 0.977362 100.91 0.211503 10.795 0.211503 10.795 0.977362 100.68
8.68631000 0.977361 100.91 0.211506 10.795 0.211506 10.795 0.977361 100.68
8.68631500 0.977360 100.91 0.211509 10.795 0.211509 10.795 0.977360 100.68
8.68632000 0.977360 100.91 0.211512 10.794 0.211512 10.794 0.977360 100.68
8.68632500 0.977359 100.91 0.211515 10.794 0.211515 10.794 0.977359 100.68
8.68633000 0.977359 100.91 0.211518 10.794 0.211518 10.794 0.977358 100.68
8.68633500 0.977358 100.91 0.211521 10.794 0.211521 10.794 0.977358 100.68
8.68634000 0.977357 100.91 0.211524 10.794 0.211524 10.794 0.977357 100.68
8.68634500 0.977357 100.91 0.211526 10.793 0.211526 10.793 0.977356 100.68
8.68635000 0.977356 100.91 0.211529 10.793 0.211529 10.793 0.977356 100.68
8.68635500 0.977355 100.91 0.211532 10.793 0.211532 10.793 0.977355 100.68
8.68636000 0.977355 100.91 0.211535 10.793 0.211535 10.793 0.977355 100.68
8.68636500 0.977354 100.91 0.211538 10.793 0.211538 10.793 0.977354 100.68
8.68637000 0.977353 100.91 0.211541 10.792 0.211541 10.792 0.977353 100.68
8.68637500 0.977353 100.91 0.211544 10.792 0.211544 10.792 0.977353 100.68
8.68638000 0.977352 100.91 0.211547 10.792 0.211547 10.792 0.977352 100.68
8.68638500 0.977351 100.91 0.211550 10.792 0.211550 10.792 0.977351 100.68
8.68639000 0.977351 100.91 0.211553 10.791 0.211553 10.791 0.977351 100.68
8.68639500 0.977350 100.91 0.211556 10.791 0.211556 10.791 0.977350 100.68
8.68640000 0.977349 100.91 0.211559 10.791 0.211559 10.791 0.977349 100.68
8.68640500 0.977349 100.91 0.211562 10.791 0.211562 10.791 0.977349 100.68
8.68641000 0.977348 100.91 0.211565 10.791 0.211565 10.791 0.977348 100.68
8.68641500 0.977347 100.91 0.211568 10.790 0.211568 10.790 0.977347 100.68
8.68642000 0.977347 100.91 0.211571 10.790 0.211571 10.790 0.977347 100.67
8.68642500 0.977346 100.91 0.211574 10.790 0.211574 10.790 0.977346 100.67
8.68643000 0.977345 100.91 0.211577 10.790 0.211577 10.790 0.977345 100.67
8.68643500 0.977345 100.91 0.211580 10.789 0.211580 10.789 0.977345 100.67
8.68644000 0.977344 100.91 0.211583 10.789 0.211583 10.789 0.977344 100.67
8.68644500 0.977343 100.91 0.211586 10.789 0.211586 10.789 0.977343 100.67
8.68645000 0.977343 100.91 0.211589 10.789 0.211589 10.789 0.977343 100.67
8.68645500 0.977342 100.91 0.211592 10.789 0.211592 10.789 0.977342 100.67
8.68646000 0.977341 100.91 0.211595 10.788 0.211595 10.788 0.977341 100.67
8.68646500 0.977341 100.91 0.211598 10.788 0.211598 10.788 0.977341 100.67
8.68647000 0.977340 100.91 0.211601 10.788 0.211601 10.788 0.977340 100.67
8.68647500 0.977339 100.91 0.211604 10.788 0.211604 10.788 0.977339 100.67
8.68648000 0.977339 100.91 0.211607 10.787 0.211607 10.787 0.977339 100.67
8.68648500 0.977338 100.91 0.211610 10.787 0.211610 10.787 0.977338 100.67
8.68649000 0.977337 100.91 0.211613 10.787 0.211613 10.787 0.977337 100.67
8.68649500 0.977337 100.91 0.211616 10.787 0.211616 10.787 0.977337 100.67
8.68650000 0.977336 100.91 0.211619 10.787 0.211619 10.787 0.977336 100.67
8.68650500 0.977335 100.91 0.211622 10.786 0.211622 10.786 0.977335 100.67
8.68651000 0.977335 100.91 0.211625 10.786 0.211625 10.786 0.977335 100.67
8.68651500 0.977334 100.91 0.211628 10.786 0.211628 10.786 0.977334 100.67
8.68652000 0.977333 100.91 0.211631 10.786 0.211631 10.786 0.977333 100.67
8.68652500 0.977333 100.90 0.211635 10.785 0.211635 10.785 0.977332 100.67
8.68653000 0.977332 100.90 0.211638 10.785 0.211638 10.785 0.977332 100.67
8.68653500 0.977331 100.90 0.211641 10.785 0.211641 10.785 0.977331 100.67
8.68654000 0.977331 100.90 0.211644 10.785 0.211644 10.785 0.977330 100.67
8.68654500 0.977330 100.90 0.211647 10.785 0.211647 10.785 0.977330 100.67
8.68655000 0.977329 100.90 0.211650 10.784 0.211650 10.784 0.977329 100.67
8.68655500 0.977328 100.90 0.211653 10.784 0.211653 10.784 0.977328 100.67
8.68656000 0.977328 100.90 0.211656 10.784 0.211656 10.784 0.977328 100.67
8.68656500 0.977327 100.90 0.211659 10.784 0.211659 10.784 0.977327 100.67
8.68657000 0.977326 100.90 0.211662 10.783 0.211662 10.783 0.977326 100.67
8.68657500 0.977326 100.90 0.211666 10.783 0.211666 10.783 0.977326 100.67
8.68658000 0.977325 100.90 0.211669 10.783 0.211669 10.783 0.977325 100.67
8.68658500 0.977324 100.90 0.211672 10.783 0.211672 10.783 0.977324 100.67
8.68659000 0.977324 100.90 0.211675 10.783 0.211675 10.783 0.977324 100.67
8.68659500 0.977323 100.90 0.211678 10.782 0.211678 10.782 0.977323 100.67
8.68660000 0.977322 100.90 0.211681 10.782 0.211681 10.782 0.977322 100.67
8.68660500 0.977322 100.90 0.211684 10.782 0.211684 10.782 0.977321 100.67
8.68661000 0.977321 100.90 0.211688 10.782 0.211688 10.782 0.977321 100.67
8.68661500 0.977320 100.90 0.211691 10.781 0.211691 10.781 0.977320 100.67
8.68662000 0.977319 100.90 0.211694 10.781 0.211694 10.781 0.977319 100.67
8.68662500 0.977319 100.90 0.211697 10.781 0.211697 10.781 0.977319 100.67
8.68663000 0.977318 100.90 0.211700 10.781 0.211700 10.781 0.977318 100.67
8.68663500 0.977317 100.90 0.211703 10.781 0.211703 10.781 0.977317 100.67
8.68664000 0.977317 100.90 0.211707 10.780 0.211707 10.780 0.977317 100.67
8.68664500 0.977316 100.90 0.211710 10.780 0.211710 10.780 0.977316 100.66
8.68665000 0.977315 100.90 0.211713 10.780 0.211713 10.780 0.977315 100.66
8.68665500 0.977315 100.90 0.211716 10.780 0.211716 10.780 0.977314 100.66
8.68666000 0.977314 100.90 0.211719 10.779 0.211719 10.779 0.977314 100.66
8.68666500 0.977313 100.90 0.211723 10.779 0.211723 10.779 0.977313 100.66
8.68667000 0.977312 100.90 0.211726 10.779 0.211726 10.779 0.977312 100.66
8.68667500 0.977312 100.90 0.211729 10.779 0.211729 10.779 0.977312 100.66
8.68668000 0.977311 100.90 0.211732 10.778 0.211732 10.778 0.977311 100.66
8.68668500 0.977310 100.90 0.211735 10.778 0.211735 10.778 0.977310 100.66
8.68669000 0.977310 100.90 0.211739 10.778 0.211739 10.778 0.977309 100.66
8.68669500 0.977309 100.90 0.211742 10.778 0.211742 10.778 0.977309 100.66
8.68670000 0.977308 100.90 0.211745 10.778 0.211745 10.778 0.977308 100.66
8.68670500 0.977307 100.90 0.211748 10.777 0.211748 10.777 0.977307 100.66
8.68671000 0.977307 100.90 0.211752 10.777 0.211752 10.777 0.977307 100.66
8.68671500 0.977306 100.90 0.211755 10.777 0.211755 10.777 0.977306 100.66
8.68672000 0.977305 100.90 0.211758 10.777 0.211758 10.777 0.977305 100.66
8.68672500 0.977304 100.90 0.211761 10.776 0.211761 10.776 0.977304 100.66
8.68673000 0.977304 100.90 0.211765 10.776 0.211765 10.776 0.977304 100.66
8.68673500 0.977303 100.90 0.211768 10.776 0.211768 10.776 0.977303 100.66
8.68674000 0.977302 100.90 0.211771 10.776 0.211771 10.776 0.977302 100.66
8.68674500 0.977302 100.89 0.211774 10.775 0.211774 10.775 0.977301 100.66
8.68675000 0.977301 100.89 0.211778 10.775 0.211778 10.775 0.977301 100.66
8.68675500 0.977300 100.89 0.211781 10.775 0.211781 10.775 0.977300 100.66
8.68676000 0.977299 100.89 0.211784 10.775 0.211784 10.775 0.977299 100.66
8.68676500 0.977299 100.89 0.211788 10.774 0.211788 10.774 0.977298 100.66
8.68677000 0.977298 100.89 0.211791 10.774 0.211791 10.774 0.977298 100.66
8.68677500 0.977297 100.89 0.211794 10.774 0.211794 10.774 0.977297 100.66
8.68678000 0.977296 100.89 0.211797 10.774 0.211797 10.774 0.977296 100.66
8.68678500 0.977296 100.89 0.211801 10.774 0.211801 10.774 0.977296 100.66
8.68679000 0.977295 100.89 0.211804 10.773 0.211804 10.773 0.977295 100.66
8.68679500 0.977294 100.89 0.211807 10.773 0.211807 10.773 0.977294 100.66
8.68680000 0.977293 100.89 0.211811 10.773 0.211811 10.773 0.977293 100.66
8.68680500 0.977293 100.89 0.211814 10.773 0.211814 10.773 0.977293 100.66
8.68681000 0.977292 100.89 0.211817 10.772 0.211817 10.772 0.977292 100.66
8.68681500 0.977291 100.89 0.211821 10.772 0.211821 10.772 0.977291 100.66
8.68682000 0.977290 100.89 0.211824 10.772 0.211824 10.772 0.977290 100.66
8.68682500 0.977290 100.89 0.211827 10.772 0.211827 10.772 0.977290 100.66
8.68683000 0.977289 100.89 0.211831 10.771 0.211831 10.771 0.977289 100.66
8.68683500 0.977288 100.89 0.211834 10.771 0.211834 10.771 0.977288 100.66
8.68684000 0.977288 100.89 0.211838 10.771 0.211838 10.771 0.977287 100.66
8.68684500 0.977287 100.89 0.211841 10.771 0.211841 10.771 0.977287 100.66
8.68685000 0.977286 100.89 0.211844 10.770 0.211844 10.770 0.977286 100.66
8.68685500 0.977285 100.89 0.211848 10.770 0.211848 10.770 0.977285 100.66
8.68686000 0.977284 100.89 0.211851 10.770 0.211851 10.770 0.977284 100.65
8.68686500 0.977284 100.89 0.211855 10.770 0.211855 10.770 0.977284 100.65
8.68687000 0.977283 100.89 0.211858 10.769 0.211858 10.769 0.977283 100.65
8.68687500 0.977282 100.89 0.211861 10.769 0.211861 10.769 0.977282 100.65
8.68688000 0.977281 100.89 0.211865 10.769 0.211865 10.769 0.977281 100.65
8.68688500 0.977281 100.89 0.211868 10.769 0.211868 10.769 0.977281 100.65
8.68689000 0.977280 100.89 0.211872 10.768 0.211872 10.768 0.977280 100.65
8.68689500 0.977279 100.89 0.211875 10.768 0.211875 10.768 0.977279 100.65
8.68690000 0.977278 100.89 0.211878 10.768 0.211878 10.768 0.977278 100.65
8.68690500 0.977278 100.89 0.211882 10.768 0.211882 10.768 0.977278 100.65
8.68691000 0.977277 100.89 0.211885 10.767 0.211885 10.767 0.977277 100.65
8.68691500 0.977276 100.89 0.211889 10.767 0.211889 10.767 0.977276 100.65
8.68692000 0.977275 100.89 0.211892 10.767 0.211892 10.767 0.977275 100.65
8.68692500 0.977275 100.89 0.211896 10.767 0.211896 10.767 0.977274 100.65
8.68693000 0.977274 100.89 0.211899 10.766 0.211899 10.766 0.977274 100.65
8.68693500 0.977273 100.89 0.211903 10.766 0.211903 10.766 0.977273 100.65
8.68694000 0.977272 100.89 0.211906 10.766 0.211906 10.766 0.977272 100.65
8.68694500 0.977271 100.89 0.211910 10.766 0.211910 10.766 0.977271 100.65
8.68695000 0.977271 100.89 0.211913 10.765 0.211913 10.765 0.977271 100.65
8.68695500 0.977270 100.89 0.211917 10.765 0.211917 10.765 0.977270 100.65
8.68696000 0.977269 100.88 0.211920 10.765 0.211920 10.765 0.977269 100.65