! Sonnet Data File
! From: emgraph Version : 16.52
! From Project: Qubit_Xmon2_brg
! Data is De-embedded 
! Data File Written: 10/25/2017 20:12:53
!< HDATE 10/25/2017 15:44:55
!< MDATE 10/25/2017 15:44:55
!< PARAMS
!< Lj = 11.0
!< Gap = 6.0
!< Pwid = 2000.0
!< Airgap = 6.0
!< Width = 10.0
!< Bwid = 40.0
!< Dis1 = 350.0
!< Dis2 = 356.0
!< END PARAMS
# GHZ S MA R 34.70000
8.68500000 0.988521 111.62 0.151030 21.515 0.151030 21.515 0.988521 111.41
!< P1 F=8.685 Eeff=(5.13559215 -5.6621e-5) Z0=(34.6542042 -9.3986e-5) R=0.0 C=0.0 
!< P2 F=8.685 Eeff=(5.13559215 -5.6621e-5) Z0=(34.6542042 -9.3986e-5) R=0.0 C=0.0 
8.68500500 0.988521 111.62 0.151031 21.515 0.151031 21.515 0.988521 111.41
8.68501000 0.988521 111.62 0.151032 21.515 0.151032 21.515 0.988521 111.41
8.68501500 0.988521 111.62 0.151033 21.515 0.151033 21.515 0.988521 111.41
8.68502000 0.988521 111.62 0.151034 21.515 0.151034 21.515 0.988521 111.41
8.68502500 0.988521 111.62 0.151035 21.515 0.151035 21.515 0.988520 111.41
8.68503000 0.988520 111.62 0.151036 21.515 0.151036 21.515 0.988520 111.41
8.68503500 0.988520 111.62 0.151038 21.514 0.151038 21.514 0.988520 111.41
8.68504000 0.988520 111.62 0.151039 21.514 0.151039 21.514 0.988520 111.41
8.68504500 0.988520 111.62 0.151040 21.514 0.151040 21.514 0.988520 111.41
8.68505000 0.988520 111.62 0.151041 21.514 0.151041 21.514 0.988520 111.41
8.68505500 0.988519 111.61 0.151042 21.514 0.151042 21.514 0.988519 111.41
8.68506000 0.988519 111.61 0.151043 21.514 0.151043 21.514 0.988519 111.41
8.68506500 0.988519 111.61 0.151045 21.514 0.151045 21.514 0.988519 111.41
8.68507000 0.988519 111.61 0.151046 21.514 0.151046 21.514 0.988519 111.41
8.68507500 0.988519 111.61 0.151047 21.514 0.151047 21.514 0.988519 111.41
8.68508000 0.988519 111.61 0.151048 21.513 0.151048 21.513 0.988518 111.41
8.68508500 0.988518 111.61 0.151049 21.513 0.151049 21.513 0.988518 111.41
8.68509000 0.988518 111.61 0.151051 21.513 0.151051 21.513 0.988518 111.41
8.68509500 0.988518 111.61 0.151052 21.513 0.151052 21.513 0.988518 111.41
8.68510000 0.988518 111.61 0.151053 21.513 0.151053 21.513 0.988518 111.41
8.68510500 0.988518 111.61 0.151054 21.513 0.151054 21.513 0.988517 111.41
8.68511000 0.988517 111.61 0.151055 21.513 0.151055 21.513 0.988517 111.41
8.68511500 0.988517 111.61 0.151056 21.513 0.151056 21.513 0.988517 111.41
8.68512000 0.988517 111.61 0.151058 21.513 0.151058 21.513 0.988517 111.41
8.68512500 0.988517 111.61 0.151059 21.513 0.151059 21.513 0.988517 111.41
8.68513000 0.988517 111.61 0.151060 21.512 0.151060 21.512 0.988517 111.41
8.68513500 0.988516 111.61 0.151061 21.512 0.151061 21.512 0.988516 111.41
8.68514000 0.988516 111.61 0.151062 21.512 0.151062 21.512 0.988516 111.41
8.68514500 0.988516 111.61 0.151064 21.512 0.151064 21.512 0.988516 111.41
8.68515000 0.988516 111.61 0.151065 21.512 0.151065 21.512 0.988516 111.41
8.68515500 0.988516 111.61 0.151066 21.512 0.151066 21.512 0.988516 111.41
8.68516000 0.988516 111.61 0.151067 21.512 0.151067 21.512 0.988515 111.41
8.68516500 0.988515 111.61 0.151068 21.512 0.151068 21.512 0.988515 111.41
8.68517000 0.988515 111.61 0.151070 21.512 0.151070 21.512 0.988515 111.41
8.68517500 0.988515 111.61 0.151071 21.511 0.151071 21.511 0.988515 111.41
8.68518000 0.988515 111.61 0.151072 21.511 0.151072 21.511 0.988515 111.41
8.68518500 0.988515 111.61 0.151073 21.511 0.151073 21.511 0.988514 111.41
8.68519000 0.988514 111.61 0.151074 21.511 0.151074 21.511 0.988514 111.41
8.68519500 0.988514 111.61 0.151076 21.511 0.151076 21.511 0.988514 111.41
8.68520000 0.988514 111.61 0.151077 21.511 0.151077 21.511 0.988514 111.41
8.68520500 0.988514 111.61 0.151078 21.511 0.151078 21.511 0.988514 111.41
8.68521000 0.988514 111.61 0.151079 21.511 0.151079 21.511 0.988514 111.41
8.68521500 0.988513 111.61 0.151080 21.511 0.151080 21.511 0.988513 111.41
8.68522000 0.988513 111.61 0.151082 21.511 0.151082 21.511 0.988513 111.41
8.68522500 0.988513 111.61 0.151083 21.510 0.151083 21.510 0.988513 111.41
8.68523000 0.988513 111.61 0.151084 21.510 0.151084 21.510 0.988513 111.41
8.68523500 0.988513 111.61 0.151085 21.510 0.151085 21.510 0.988513 111.41
8.68524000 0.988513 111.61 0.151086 21.510 0.151086 21.510 0.988512 111.41
8.68524500 0.988512 111.61 0.151088 21.510 0.151088 21.510 0.988512 111.41
8.68525000 0.988512 111.61 0.151089 21.510 0.151089 21.510 0.988512 111.41
8.68525500 0.988512 111.61 0.151090 21.510 0.151090 21.510 0.988512 111.41
8.68526000 0.988512 111.61 0.151091 21.510 0.151091 21.510 0.988512 111.41
8.68526500 0.988512 111.61 0.151093 21.510 0.151093 21.510 0.988511 111.41
8.68527000 0.988511 111.61 0.151094 21.509 0.151094 21.509 0.988511 111.41
8.68527500 0.988511 111.61 0.151095 21.509 0.151095 21.509 0.988511 111.41
8.68528000 0.988511 111.61 0.151096 21.509 0.151096 21.509 0.988511 111.41
8.68528500 0.988511 111.61 0.151097 21.509 0.151097 21.509 0.988511 111.41
8.68529000 0.988511 111.61 0.151099 21.509 0.151099 21.509 0.988510 111.41
8.68529500 0.988510 111.61 0.151100 21.509 0.151100 21.509 0.988510 111.41
8.68530000 0.988510 111.61 0.151101 21.509 0.151101 21.509 0.988510 111.41
8.68530500 0.988510 111.61 0.151102 21.509 0.151102 21.509 0.988510 111.41
8.68531000 0.988510 111.61 0.151104 21.509 0.151104 21.509 0.988510 111.41
8.68531500 0.988510 111.61 0.151105 21.508 0.151105 21.508 0.988510 111.41
8.68532000 0.988509 111.61 0.151106 21.508 0.151106 21.508 0.988509 111.41
8.68532500 0.988509 111.61 0.151107 21.508 0.151107 21.508 0.988509 111.41
8.68533000 0.988509 111.61 0.151109 21.508 0.151109 21.508 0.988509 111.41
8.68533500 0.988509 111.61 0.151110 21.508 0.151110 21.508 0.988509 111.41
8.68534000 0.988509 111.61 0.151111 21.508 0.151111 21.508 0.988509 111.41
8.68534500 0.988508 111.61 0.151112 21.508 0.151112 21.508 0.988508 111.41
8.68535000 0.988508 111.61 0.151113 21.508 0.151113 21.508 0.988508 111.41
8.68535500 0.988508 111.61 0.151115 21.508 0.151115 21.508 0.988508 111.41
8.68536000 0.988508 111.61 0.151116 21.508 0.151116 21.508 0.988508 111.41
8.68536500 0.988508 111.61 0.151117 21.507 0.151117 21.507 0.988508 111.41
8.68537000 0.988507 111.61 0.151118 21.507 0.151118 21.507 0.988507 111.41
8.68537500 0.988507 111.61 0.151120 21.507 0.151120 21.507 0.988507 111.41
8.68538000 0.988507 111.61 0.151121 21.507 0.151121 21.507 0.988507 111.41
8.68538500 0.988507 111.61 0.151122 21.507 0.151122 21.507 0.988507 111.41
8.68539000 0.988507 111.61 0.151123 21.507 0.151123 21.507 0.988507 111.41
8.68539500 0.988506 111.61 0.151125 21.507 0.151125 21.507 0.988506 111.41
8.68540000 0.988506 111.61 0.151126 21.507 0.151126 21.507 0.988506 111.41
8.68540500 0.988506 111.61 0.151127 21.507 0.151127 21.507 0.988506 111.41
8.68541000 0.988506 111.61 0.151129 21.506 0.151129 21.506 0.988506 111.41
8.68541500 0.988506 111.61 0.151130 21.506 0.151130 21.506 0.988506 111.41
8.68542000 0.988506 111.61 0.151131 21.506 0.151131 21.506 0.988505 111.41
8.68542500 0.988505 111.61 0.151132 21.506 0.151132 21.506 0.988505 111.41
8.68543000 0.988505 111.61 0.151134 21.506 0.151134 21.506 0.988505 111.41
8.68543500 0.988505 111.61 0.151135 21.506 0.151135 21.506 0.988505 111.41
8.68544000 0.988505 111.61 0.151136 21.506 0.151136 21.506 0.988505 111.41
8.68544500 0.988505 111.61 0.151137 21.506 0.151137 21.506 0.988504 111.41
8.68545000 0.988504 111.61 0.151139 21.506 0.151139 21.506 0.988504 111.41
8.68545500 0.988504 111.61 0.151140 21.505 0.151140 21.505 0.988504 111.41
8.68546000 0.988504 111.61 0.151141 21.505 0.151141 21.505 0.988504 111.41
8.68546500 0.988504 111.61 0.151143 21.505 0.151143 21.505 0.988504 111.41
8.68547000 0.988504 111.61 0.151144 21.505 0.151144 21.505 0.988503 111.41
8.68547500 0.988503 111.61 0.151145 21.505 0.151145 21.505 0.988503 111.40
8.68548000 0.988503 111.61 0.151146 21.505 0.151146 21.505 0.988503 111.40
8.68548500 0.988503 111.61 0.151148 21.505 0.151148 21.505 0.988503 111.40
8.68549000 0.988503 111.61 0.151149 21.505 0.151149 21.505 0.988503 111.40
8.68549500 0.988503 111.61 0.151150 21.505 0.151150 21.505 0.988502 111.40
8.68550000 0.988502 111.61 0.151151 21.504 0.151151 21.504 0.988502 111.40
8.68550500 0.988502 111.61 0.151153 21.504 0.151153 21.504 0.988502 111.40
8.68551000 0.988502 111.61 0.151154 21.504 0.151154 21.504 0.988502 111.40
8.68551500 0.988502 111.61 0.151155 21.504 0.151155 21.504 0.988502 111.40
8.68552000 0.988501 111.61 0.151157 21.504 0.151157 21.504 0.988501 111.40
8.68552500 0.988501 111.61 0.151158 21.504 0.151158 21.504 0.988501 111.40
8.68553000 0.988501 111.60 0.151159 21.504 0.151159 21.504 0.988501 111.40
8.68553500 0.988501 111.60 0.151161 21.504 0.151161 21.504 0.988501 111.40
8.68554000 0.988501 111.60 0.151162 21.504 0.151162 21.504 0.988501 111.40
8.68554500 0.988500 111.60 0.151163 21.503 0.151163 21.503 0.988500 111.40
8.68555000 0.988500 111.60 0.151164 21.503 0.151164 21.503 0.988500 111.40
8.68555500 0.988500 111.60 0.151166 21.503 0.151166 21.503 0.988500 111.40
8.68556000 0.988500 111.60 0.151167 21.503 0.151167 21.503 0.988500 111.40
8.68556500 0.988500 111.60 0.151168 21.503 0.151168 21.503 0.988500 111.40
8.68557000 0.988499 111.60 0.151170 21.503 0.151170 21.503 0.988499 111.40
8.68557500 0.988499 111.60 0.151171 21.503 0.151171 21.503 0.988499 111.40
8.68558000 0.988499 111.60 0.151172 21.503 0.151172 21.503 0.988499 111.40
8.68558500 0.988499 111.60 0.151174 21.503 0.151174 21.503 0.988499 111.40
8.68559000 0.988499 111.60 0.151175 21.502 0.151175 21.502 0.988499 111.40
8.68559500 0.988498 111.60 0.151176 21.502 0.151176 21.502 0.988498 111.40
8.68560000 0.988498 111.60 0.151178 21.502 0.151178 21.502 0.988498 111.40
8.68560500 0.988498 111.60 0.151179 21.502 0.151179 21.502 0.988498 111.40
8.68561000 0.988498 111.60 0.151180 21.502 0.151180 21.502 0.988498 111.40
8.68561500 0.988498 111.60 0.151181 21.502 0.151181 21.502 0.988497 111.40
8.68562000 0.988497 111.60 0.151183 21.502 0.151183 21.502 0.988497 111.40
8.68562500 0.988497 111.60 0.151184 21.502 0.151184 21.502 0.988497 111.40
8.68563000 0.988497 111.60 0.151185 21.502 0.151185 21.502 0.988497 111.40
8.68563500 0.988497 111.60 0.151187 21.501 0.151187 21.501 0.988497 111.40
8.68564000 0.988497 111.60 0.151188 21.501 0.151188 21.501 0.988496 111.40
8.68564500 0.988496 111.60 0.151189 21.501 0.151189 21.501 0.988496 111.40
8.68565000 0.988496 111.60 0.151191 21.501 0.151191 21.501 0.988496 111.40
8.68565500 0.988496 111.60 0.151192 21.501 0.151192 21.501 0.988496 111.40
8.68566000 0.988496 111.60 0.151193 21.501 0.151193 21.501 0.988496 111.40
8.68566500 0.988495 111.60 0.151195 21.501 0.151195 21.501 0.988495 111.40
8.68567000 0.988495 111.60 0.151196 21.501 0.151196 21.501 0.988495 111.40
8.68567500 0.988495 111.60 0.151197 21.501 0.151197 21.501 0.988495 111.40
8.68568000 0.988495 111.60 0.151199 21.500 0.151199 21.500 0.988495 111.40
8.68568500 0.988495 111.60 0.151200 21.500 0.151200 21.500 0.988495 111.40
8.68569000 0.988494 111.60 0.151201 21.500 0.151201 21.500 0.988494 111.40
8.68569500 0.988494 111.60 0.151203 21.500 0.151203 21.500 0.988494 111.40
8.68570000 0.988494 111.60 0.151204 21.500 0.151204 21.500 0.988494 111.40
8.68570500 0.988494 111.60 0.151205 21.500 0.151205 21.500 0.988494 111.40
8.68571000 0.988494 111.60 0.151207 21.500 0.151207 21.500 0.988493 111.40
8.68571500 0.988493 111.60 0.151208 21.500 0.151208 21.500 0.988493 111.40
8.68572000 0.988493 111.60 0.151210 21.499 0.151210 21.499 0.988493 111.40
8.68572500 0.988493 111.60 0.151211 21.499 0.151211 21.499 0.988493 111.40
8.68573000 0.988493 111.60 0.151212 21.499 0.151212 21.499 0.988493 111.40
8.68573500 0.988493 111.60 0.151214 21.499 0.151214 21.499 0.988492 111.40
8.68574000 0.988492 111.60 0.151215 21.499 0.151215 21.499 0.988492 111.40
8.68574500 0.988492 111.60 0.151216 21.499 0.151216 21.499 0.988492 111.40
8.68575000 0.988492 111.60 0.151218 21.499 0.151218 21.499 0.988492 111.40
8.68575500 0.988492 111.60 0.151219 21.499 0.151219 21.499 0.988492 111.40
8.68576000 0.988491 111.60 0.151220 21.499 0.151220 21.499 0.988491 111.40
8.68576500 0.988491 111.60 0.151222 21.498 0.151222 21.498 0.988491 111.40
8.68577000 0.988491 111.60 0.151223 21.498 0.151223 21.498 0.988491 111.40
8.68577500 0.988491 111.60 0.151225 21.498 0.151225 21.498 0.988491 111.40
8.68578000 0.988491 111.60 0.151226 21.498 0.151226 21.498 0.988490 111.40
8.68578500 0.988490 111.60 0.151227 21.498 0.151227 21.498 0.988490 111.40
8.68579000 0.988490 111.60 0.151229 21.498 0.151229 21.498 0.988490 111.40
8.68579500 0.988490 111.60 0.151230 21.498 0.151230 21.498 0.988490 111.40
8.68580000 0.988490 111.60 0.151231 21.498 0.151231 21.498 0.988490 111.40
8.68580500 0.988490 111.60 0.151233 21.498 0.151233 21.498 0.988489 111.40
8.68581000 0.988489 111.60 0.151234 21.497 0.151234 21.497 0.988489 111.40
8.68581500 0.988489 111.60 0.151236 21.497 0.151236 21.497 0.988489 111.40
8.68582000 0.988489 111.60 0.151237 21.497 0.151237 21.497 0.988489 111.40
8.68582500 0.988489 111.60 0.151238 21.497 0.151238 21.497 0.988489 111.40
8.68583000 0.988488 111.60 0.151240 21.497 0.151240 21.497 0.988488 111.40
8.68583500 0.988488 111.60 0.151241 21.497 0.151241 21.497 0.988488 111.40
8.68584000 0.988488 111.60 0.151242 21.497 0.151242 21.497 0.988488 111.40
8.68584500 0.988488 111.60 0.151244 21.497 0.151244 21.497 0.988488 111.40
8.68585000 0.988488 111.60 0.151245 21.496 0.151245 21.496 0.988487 111.40
8.68585500 0.988487 111.60 0.151247 21.496 0.151247 21.496 0.988487 111.40
8.68586000 0.988487 111.60 0.151248 21.496 0.151248 21.496 0.988487 111.40
8.68586500 0.988487 111.60 0.151249 21.496 0.151249 21.496 0.988487 111.40
8.68587000 0.988487 111.60 0.151251 21.496 0.151251 21.496 0.988487 111.40
8.68587500 0.988486 111.60 0.151252 21.496 0.151252 21.496 0.988486 111.40
8.68588000 0.988486 111.60 0.151254 21.496 0.151254 21.496 0.988486 111.40
8.68588500 0.988486 111.60 0.151255 21.496 0.151255 21.496 0.988486 111.40
8.68589000 0.988486 111.60 0.151256 21.496 0.151256 21.496 0.988486 111.40
8.68589500 0.988486 111.60 0.151258 21.495 0.151258 21.495 0.988485 111.40
8.68590000 0.988485 111.60 0.151259 21.495 0.151259 21.495 0.988485 111.40
8.68590500 0.988485 111.60 0.151261 21.495 0.151261 21.495 0.988485 111.40
8.68591000 0.988485 111.60 0.151262 21.495 0.151262 21.495 0.988485 111.40
8.68591500 0.988485 111.60 0.151264 21.495 0.151264 21.495 0.988485 111.39
8.68592000 0.988484 111.60 0.151265 21.495 0.151265 21.495 0.988484 111.39
8.68592500 0.988484 111.60 0.151266 21.495 0.151266 21.495 0.988484 111.39
8.68593000 0.988484 111.60 0.151268 21.495 0.151268 21.495 0.988484 111.39
8.68593500 0.988484 111.60 0.151269 21.494 0.151269 21.494 0.988484 111.39
8.68594000 0.988484 111.60 0.151271 21.494 0.151271 21.494 0.988483 111.39
8.68594500 0.988483 111.60 0.151272 21.494 0.151272 21.494 0.988483 111.39
8.68595000 0.988483 111.60 0.151273 21.494 0.151273 21.494 0.988483 111.39
8.68595500 0.988483 111.60 0.151275 21.494 0.151275 21.494 0.988483 111.39
8.68596000 0.988483 111.60 0.151276 21.494 0.151276 21.494 0.988483 111.39
8.68596500 0.988482 111.60 0.151278 21.494 0.151278 21.494 0.988482 111.39
8.68597000 0.988482 111.60 0.151279 21.494 0.151279 21.494 0.988482 111.39
8.68597500 0.988482 111.59 0.151281 21.493 0.151281 21.493 0.988482 111.39
8.68598000 0.988482 111.59 0.151282 21.493 0.151282 21.493 0.988482 111.39
8.68598500 0.988482 111.59 0.151284 21.493 0.151284 21.493 0.988481 111.39
8.68599000 0.988481 111.59 0.151285 21.493 0.151285 21.493 0.988481 111.39
8.68599500 0.988481 111.59 0.151286 21.493 0.151286 21.493 0.988481 111.39
8.68600000 0.988481 111.59 0.151288 21.493 0.151288 21.493 0.988481 111.39
8.68600500 0.988481 111.59 0.151289 21.493 0.151289 21.493 0.988481 111.39
8.68601000 0.988480 111.59 0.151291 21.493 0.151291 21.493 0.988480 111.39
8.68601500 0.988480 111.59 0.151292 21.493 0.151292 21.493 0.988480 111.39
8.68602000 0.988480 111.59 0.151294 21.492 0.151294 21.492 0.988480 111.39
8.68602500 0.988480 111.59 0.151295 21.492 0.151295 21.492 0.988480 111.39
8.68603000 0.988479 111.59 0.151297 21.492 0.151297 21.492 0.988479 111.39
8.68603500 0.988479 111.59 0.151298 21.492 0.151298 21.492 0.988479 111.39
8.68604000 0.988479 111.59 0.151299 21.492 0.151299 21.492 0.988479 111.39
8.68604500 0.988479 111.59 0.151301 21.492 0.151301 21.492 0.988479 111.39
8.68605000 0.988479 111.59 0.151302 21.492 0.151302 21.492 0.988478 111.39
8.68605500 0.988478 111.59 0.151304 21.492 0.151304 21.492 0.988478 111.39
8.68606000 0.988478 111.59 0.151305 21.491 0.151305 21.491 0.988478 111.39
8.68606500 0.988478 111.59 0.151307 21.491 0.151307 21.491 0.988478 111.39
8.68607000 0.988478 111.59 0.151308 21.491 0.151308 21.491 0.988478 111.39
8.68607500 0.988477 111.59 0.151310 21.491 0.151310 21.491 0.988477 111.39
8.68608000 0.988477 111.59 0.151311 21.491 0.151311 21.491 0.988477 111.39
8.68608500 0.988477 111.59 0.151313 21.491 0.151313 21.491 0.988477 111.39
8.68609000 0.988477 111.59 0.151314 21.491 0.151314 21.491 0.988477 111.39
8.68609500 0.988476 111.59 0.151316 21.491 0.151316 21.491 0.988476 111.39
8.68610000 0.988476 111.59 0.151317 21.490 0.151317 21.490 0.988476 111.39
8.68610500 0.988476 111.59 0.151319 21.490 0.151319 21.490 0.988476 111.39
8.68611000 0.988476 111.59 0.151320 21.490 0.151320 21.490 0.988476 111.39
8.68611500 0.988476 111.59 0.151322 21.490 0.151322 21.490 0.988475 111.39
8.68612000 0.988475 111.59 0.151323 21.490 0.151323 21.490 0.988475 111.39
8.68612500 0.988475 111.59 0.151325 21.490 0.151325 21.490 0.988475 111.39
8.68613000 0.988475 111.59 0.151326 21.490 0.151326 21.490 0.988475 111.39
8.68613500 0.988475 111.59 0.151328 21.490 0.151328 21.490 0.988474 111.39
8.68614000 0.988474 111.59 0.151329 21.489 0.151329 21.489 0.988474 111.39
8.68614500 0.988474 111.59 0.151331 21.489 0.151331 21.489 0.988474 111.39
8.68615000 0.988474 111.59 0.151332 21.489 0.151332 21.489 0.988474 111.39
8.68615500 0.988474 111.59 0.151334 21.489 0.151334 21.489 0.988474 111.39
8.68616000 0.988473 111.59 0.151335 21.489 0.151335 21.489 0.988473 111.39
8.68616500 0.988473 111.59 0.151337 21.489 0.151337 21.489 0.988473 111.39
8.68617000 0.988473 111.59 0.151338 21.489 0.151338 21.489 0.988473 111.39
8.68617500 0.988473 111.59 0.151340 21.489 0.151340 21.489 0.988473 111.39
8.68618000 0.988472 111.59 0.151341 21.488 0.151341 21.488 0.988472 111.39
8.68618500 0.988472 111.59 0.151343 21.488 0.151343 21.488 0.988472 111.39
8.68619000 0.988472 111.59 0.151344 21.488 0.151344 21.488 0.988472 111.39
8.68619500 0.988472 111.59 0.151346 21.488 0.151346 21.488 0.988472 111.39
8.68620000 0.988472 111.59 0.151347 21.488 0.151347 21.488 0.988471 111.39
8.68620500 0.988471 111.59 0.151349 21.488 0.151349 21.488 0.988471 111.39
8.68621000 0.988471 111.59 0.151350 21.488 0.151350 21.488 0.988471 111.39
8.68621500 0.988471 111.59 0.151352 21.488 0.151352 21.488 0.988471 111.39
8.68622000 0.988471 111.59 0.151353 21.487 0.151353 21.487 0.988470 111.39
8.68622500 0.988470 111.59 0.151355 21.487 0.151355 21.487 0.988470 111.39
8.68623000 0.988470 111.59 0.151356 21.487 0.151356 21.487 0.988470 111.39
8.68623500 0.988470 111.59 0.151358 21.487 0.151358 21.487 0.988470 111.39
8.68624000 0.988470 111.59 0.151359 21.487 0.151359 21.487 0.988469 111.39
8.68624500 0.988469 111.59 0.151361 21.487 0.151361 21.487 0.988469 111.39
8.68625000 0.988469 111.59 0.151362 21.487 0.151362 21.487 0.988469 111.39
8.68625500 0.988469 111.59 0.151364 21.487 0.151364 21.487 0.988469 111.39
8.68626000 0.988469 111.59 0.151365 21.486 0.151365 21.486 0.988468 111.39
8.68626500 0.988468 111.59 0.151367 21.486 0.151367 21.486 0.988468 111.39
8.68627000 0.988468 111.59 0.151369 21.486 0.151369 21.486 0.988468 111.39
8.68627500 0.988468 111.59 0.151370 21.486 0.151370 21.486 0.988468 111.39
8.68628000 0.988468 111.59 0.151372 21.486 0.151372 21.486 0.988468 111.39
8.68628500 0.988467 111.59 0.151373 21.486 0.151373 21.486 0.988467 111.39
8.68629000 0.988467 111.59 0.151375 21.486 0.151375 21.486 0.988467 111.39
8.68629500 0.988467 111.59 0.151376 21.486 0.151376 21.486 0.988467 111.39
8.68630000 0.988467 111.59 0.151378 21.485 0.151378 21.485 0.988467 111.39
8.68630500 0.988466 111.59 0.151379 21.485 0.151379 21.485 0.988466 111.39
8.68631000 0.988466 111.59 0.151381 21.485 0.151381 21.485 0.988466 111.39
8.68631500 0.988466 111.59 0.151382 21.485 0.151382 21.485 0.988466 111.39
8.68632000 0.988466 111.59 0.151384 21.485 0.151384 21.485 0.988466 111.39
8.68632500 0.988465 111.59 0.151386 21.485 0.151386 21.485 0.988465 111.39
8.68633000 0.988465 111.59 0.151387 21.485 0.151387 21.485 0.988465 111.38
8.68633500 0.988465 111.59 0.151389 21.485 0.151389 21.485 0.988465 111.38
8.68634000 0.988465 111.59 0.151390 21.484 0.151390 21.484 0.988465 111.38
8.68634500 0.988464 111.59 0.151392 21.484 0.151392 21.484 0.988464 111.38
8.68635000 0.988464 111.59 0.151393 21.484 0.151393 21.484 0.988464 111.38
8.68635500 0.988464 111.59 0.151395 21.484 0.151395 21.484 0.988464 111.38
8.68636000 0.988464 111.59 0.151397 21.484 0.151397 21.484 0.988464 111.38
8.68636500 0.988463 111.59 0.151398 21.484 0.151398 21.484 0.988463 111.38
8.68637000 0.988463 111.59 0.151400 21.484 0.151400 21.484 0.988463 111.38
8.68637500 0.988463 111.59 0.151401 21.484 0.151401 21.484 0.988463 111.38
8.68638000 0.988463 111.59 0.151403 21.483 0.151403 21.483 0.988463 111.38
8.68638500 0.988462 111.59 0.151405 21.483 0.151405 21.483 0.988462 111.38
8.68639000 0.988462 111.58 0.151406 21.483 0.151406 21.483 0.988462 111.38
8.68639500 0.988462 111.58 0.151408 21.483 0.151408 21.483 0.988462 111.38
8.68640000 0.988462 111.58 0.151409 21.483 0.151409 21.483 0.988462 111.38
8.68640500 0.988461 111.58 0.151411 21.483 0.151411 21.483 0.988461 111.38
8.68641000 0.988461 111.58 0.151412 21.483 0.151412 21.483 0.988461 111.38
8.68641500 0.988461 111.58 0.151414 21.483 0.151414 21.483 0.988461 111.38
8.68642000 0.988461 111.58 0.151416 21.482 0.151416 21.482 0.988461 111.38
8.68642500 0.988460 111.58 0.151417 21.482 0.151417 21.482 0.988460 111.38
8.68643000 0.988460 111.58 0.151419 21.482 0.151419 21.482 0.988460 111.38
8.68643500 0.988460 111.58 0.151421 21.482 0.151421 21.482 0.988460 111.38
8.68644000 0.988460 111.58 0.151422 21.482 0.151422 21.482 0.988460 111.38
8.68644500 0.988459 111.58 0.151424 21.482 0.151424 21.482 0.988459 111.38
8.68645000 0.988459 111.58 0.151425 21.482 0.151425 21.482 0.988459 111.38
8.68645500 0.988459 111.58 0.151427 21.481 0.151427 21.481 0.988459 111.38
8.68646000 0.988459 111.58 0.151429 21.481 0.151429 21.481 0.988459 111.38
8.68646500 0.988458 111.58 0.151430 21.481 0.151430 21.481 0.988458 111.38
8.68647000 0.988458 111.58 0.151432 21.481 0.151432 21.481 0.988458 111.38
8.68647500 0.988458 111.58 0.151433 21.481 0.151433 21.481 0.988458 111.38
8.68648000 0.988458 111.58 0.151435 21.481 0.151435 21.481 0.988457 111.38
8.68648500 0.988457 111.58 0.151437 21.481 0.151437 21.481 0.988457 111.38
8.68649000 0.988457 111.58 0.151438 21.481 0.151438 21.481 0.988457 111.38
8.68649500 0.988457 111.58 0.151440 21.480 0.151440 21.480 0.988457 111.38
8.68650000 0.988457 111.58 0.151442 21.480 0.151442 21.480 0.988456 111.38
8.68650500 0.988456 111.58 0.151443 21.480 0.151443 21.480 0.988456 111.38
8.68651000 0.988456 111.58 0.151445 21.480 0.151445 21.480 0.988456 111.38
8.68651500 0.988456 111.58 0.151447 21.480 0.151447 21.480 0.988456 111.38
8.68652000 0.988456 111.58 0.151448 21.480 0.151448 21.480 0.988455 111.38
8.68652500 0.988455 111.58 0.151450 21.480 0.151450 21.480 0.988455 111.38
8.68653000 0.988455 111.58 0.151451 21.479 0.151451 21.479 0.988455 111.38
8.68653500 0.988455 111.58 0.151453 21.479 0.151453 21.479 0.988455 111.38
8.68654000 0.988455 111.58 0.151455 21.479 0.151455 21.479 0.988454 111.38
8.68654500 0.988454 111.58 0.151456 21.479 0.151456 21.479 0.988454 111.38
8.68655000 0.988454 111.58 0.151458 21.479 0.151458 21.479 0.988454 111.38
8.68655500 0.988454 111.58 0.151460 21.479 0.151460 21.479 0.988454 111.38
8.68656000 0.988453 111.58 0.151461 21.479 0.151461 21.479 0.988453 111.38
8.68656500 0.988453 111.58 0.151463 21.479 0.151463 21.479 0.988453 111.38
8.68657000 0.988453 111.58 0.151465 21.478 0.151465 21.478 0.988453 111.38
8.68657500 0.988453 111.58 0.151466 21.478 0.151466 21.478 0.988453 111.38
8.68658000 0.988452 111.58 0.151468 21.478 0.151468 21.478 0.988452 111.38
8.68658500 0.988452 111.58 0.151470 21.478 0.151470 21.478 0.988452 111.38
8.68659000 0.988452 111.58 0.151471 21.478 0.151471 21.478 0.988452 111.38
8.68659500 0.988452 111.58 0.151473 21.478 0.151473 21.478 0.988451 111.38
8.68660000 0.988451 111.58 0.151475 21.478 0.151475 21.478 0.988451 111.38
8.68660500 0.988451 111.58 0.151476 21.477 0.151476 21.477 0.988451 111.38
8.68661000 0.988451 111.58 0.151478 21.477 0.151478 21.477 0.988451 111.38
8.68661500 0.988451 111.58 0.151480 21.477 0.151480 21.477 0.988450 111.38
8.68662000 0.988450 111.58 0.151481 21.477 0.151481 21.477 0.988450 111.38
8.68662500 0.988450 111.58 0.151483 21.477 0.151483 21.477 0.988450 111.38
8.68663000 0.988450 111.58 0.151485 21.477 0.151485 21.477 0.988450 111.38
8.68663500 0.988449 111.58 0.151487 21.477 0.151487 21.477 0.988449 111.38
8.68664000 0.988449 111.58 0.151488 21.477 0.151488 21.477 0.988449 111.38
8.68664500 0.988449 111.58 0.151490 21.476 0.151490 21.476 0.988449 111.38
8.68665000 0.988449 111.58 0.151492 21.476 0.151492 21.476 0.988449 111.38
8.68665500 0.988448 111.58 0.151493 21.476 0.151493 21.476 0.988448 111.38
8.68666000 0.988448 111.58 0.151495 21.476 0.151495 21.476 0.988448 111.38
8.68666500 0.988448 111.58 0.151497 21.476 0.151497 21.476 0.988448 111.38
8.68667000 0.988448 111.58 0.151498 21.476 0.151498 21.476 0.988447 111.38
8.68667500 0.988447 111.58 0.151500 21.476 0.151500 21.476 0.988447 111.38
8.68668000 0.988447 111.58 0.151502 21.475 0.151502 21.475 0.988447 111.38
8.68668500 0.988447 111.58 0.151504 21.475 0.151504 21.475 0.988447 111.38
8.68669000 0.988447 111.58 0.151505 21.475 0.151505 21.475 0.988446 111.38
8.68669500 0.988446 111.58 0.151507 21.475 0.151507 21.475 0.988446 111.38
8.68670000 0.988446 111.58 0.151509 21.475 0.151509 21.475 0.988446 111.38
8.68670500 0.988446 111.58 0.151511 21.475 0.151511 21.475 0.988446 111.38
8.68671000 0.988445 111.58 0.151512 21.475 0.151512 21.475 0.988445 111.37
8.68671500 0.988445 111.58 0.151514 21.474 0.151514 21.474 0.988445 111.37
8.68672000 0.988445 111.58 0.151516 21.474 0.151516 21.474 0.988445 111.37
8.68672500 0.988445 111.58 0.151517 21.474 0.151517 21.474 0.988444 111.37
8.68673000 0.988444 111.58 0.151519 21.474 0.151519 21.474 0.988444 111.37
8.68673500 0.988444 111.58 0.151521 21.474 0.151521 21.474 0.988444 111.37
8.68674000 0.988444 111.58 0.151523 21.474 0.151523 21.474 0.988444 111.37
8.68674500 0.988444 111.58 0.151524 21.474 0.151524 21.474 0.988443 111.37
8.68675000 0.988443 111.58 0.151526 21.474 0.151526 21.474 0.988443 111.37
8.68675500 0.988443 111.58 0.151528 21.473 0.151528 21.473 0.988443 111.37
8.68676000 0.988443 111.58 0.151530 21.473 0.151530 21.473 0.988443 111.37
8.68676500 0.988442 111.58 0.151531 21.473 0.151531 21.473 0.988442 111.37
8.68677000 0.988442 111.58 0.151533 21.473 0.151533 21.473 0.988442 111.37
8.68677500 0.988442 111.57 0.151535 21.473 0.151535 21.473 0.988442 111.37
8.68678000 0.988442 111.57 0.151537 21.473 0.151537 21.473 0.988441 111.37
8.68678500 0.988441 111.57 0.151538 21.473 0.151538 21.473 0.988441 111.37
8.68679000 0.988441 111.57 0.151540 21.472 0.151540 21.472 0.988441 111.37
8.68679500 0.988441 111.57 0.151542 21.472 0.151542 21.472 0.988441 111.37
8.68680000 0.988440 111.57 0.151544 21.472 0.151544 21.472 0.988440 111.37
8.68680500 0.988440 111.57 0.151545 21.472 0.151545 21.472 0.988440 111.37
8.68681000 0.988440 111.57 0.151547 21.472 0.151547 21.472 0.988440 111.37
8.68681500 0.988440 111.57 0.151549 21.472 0.151549 21.472 0.988439 111.37
8.68682000 0.988439 111.57 0.151551 21.472 0.151551 21.472 0.988439 111.37
8.68682500 0.988439 111.57 0.151553 21.471 0.151553 21.471 0.988439 111.37
8.68683000 0.988439 111.57 0.151554 21.471 0.151554 21.471 0.988439 111.37
8.68683500 0.988438 111.57 0.151556 21.471 0.151556 21.471 0.988438 111.37
8.68684000 0.988438 111.57 0.151558 21.471 0.151558 21.471 0.988438 111.37
8.68684500 0.988438 111.57 0.151560 21.471 0.151560 21.471 0.988438 111.37
8.68685000 0.988438 111.57 0.151562 21.471 0.151562 21.471 0.988437 111.37
8.68685500 0.988437 111.57 0.151563 21.471 0.151563 21.471 0.988437 111.37
8.68686000 0.988437 111.57 0.151565 21.470 0.151565 21.470 0.988437 111.37
8.68686500 0.988437 111.57 0.151567 21.470 0.151567 21.470 0.988437 111.37
8.68687000 0.988436 111.57 0.151569 21.470 0.151569 21.470 0.988436 111.37
8.68687500 0.988436 111.57 0.151571 21.470 0.151571 21.470 0.988436 111.37
8.68688000 0.988436 111.57 0.151572 21.470 0.151572 21.470 0.988436 111.37
8.68688500 0.988436 111.57 0.151574 21.470 0.151574 21.470 0.988435 111.37
8.68689000 0.988435 111.57 0.151576 21.470 0.151576 21.470 0.988435 111.37
8.68689500 0.988435 111.57 0.151578 21.469 0.151578 21.469 0.988435 111.37
8.68690000 0.988435 111.57 0.151580 21.469 0.151580 21.469 0.988435 111.37
8.68690500 0.988434 111.57 0.151581 21.469 0.151581 21.469 0.988434 111.37
8.68691000 0.988434 111.57 0.151583 21.469 0.151583 21.469 0.988434 111.37
8.68691500 0.988434 111.57 0.151585 21.469 0.151585 21.469 0.988434 111.37
8.68692000 0.988434 111.57 0.151587 21.469 0.151587 21.469 0.988433 111.37
8.68692500 0.988433 111.57 0.151589 21.469 0.151589 21.469 0.988433 111.37
8.68693000 0.988433 111.57 0.151591 21.468 0.151591 21.468 0.988433 111.37
8.68693500 0.988433 111.57 0.151592 21.468 0.151592 21.468 0.988433 111.37
8.68694000 0.988432 111.57 0.151594 21.468 0.151594 21.468 0.988432 111.37
8.68694500 0.988432 111.57 0.151596 21.468 0.151596 21.468 0.988432 111.37
8.68695000 0.988432 111.57 0.151598 21.468 0.151598 21.468 0.988432 111.37
8.68695500 0.988432 111.57 0.151600 21.468 0.151600 21.468 0.988431 111.37