! Sonnet Data File
! From: emgraph Version : 16.52
! From Emgraph Data: Qubit_Xmon2_brg
! Data File Written: 10/24/2017 15:59:08
!< HDATE 10/24/2017 15:36:22
!< MDATE 10/24/2017 15:36:22
!< PARAMS
!< Lj = 11.0
!< Gap = 6.0
!< Pwid = 2000.0
!< Width = 10.0
!< Bwid = 8.0
!< Dis1 = 50.0
!< END PARAMS
# GHZ S MA R 34.70000
8.68500000 0.963900 94.228 0.266198 4.1779 0.266198 4.1779 0.963900 94.132
!< P1 F=8.685 Eeff=(5.13559215 -5.6621e-5) Z0=(34.6542042 -9.3986e-5) R=0.0 C=0.0 
!< P2 F=8.685 Eeff=(5.13559215 -5.6621e-5) Z0=(34.6542042 -9.3986e-5) R=0.0 C=0.0 
8.68500500 0.963899 94.227 0.266202 4.1776 0.266202 4.1776 0.963899 94.132
8.68501000 0.963898 94.227 0.266205 4.1774 0.266205 4.1774 0.963898 94.131
8.68501500 0.963897 94.227 0.266208 4.1771 0.266208 4.1771 0.963897 94.131
8.68502000 0.963896 94.227 0.266212 4.1769 0.266212 4.1769 0.963896 94.131
8.68502500 0.963895 94.226 0.266215 4.1766 0.266215 4.1766 0.963895 94.131
8.68503000 0.963894 94.226 0.266219 4.1764 0.266219 4.1764 0.963894 94.130
8.68503500 0.963893 94.226 0.266222 4.1761 0.266222 4.1761 0.963893 94.130
8.68504000 0.963892 94.226 0.266226 4.1759 0.266226 4.1759 0.963892 94.130
8.68504500 0.963891 94.226 0.266229 4.1756 0.266229 4.1756 0.963891 94.130
8.68505000 0.963890 94.225 0.266233 4.1754 0.266233 4.1754 0.963890 94.129
8.68505500 0.963889 94.225 0.266236 4.1751 0.266236 4.1751 0.963889 94.129
8.68506000 0.963888 94.225 0.266240 4.1749 0.266240 4.1749 0.963888 94.129
8.68506500 0.963887 94.225 0.266243 4.1746 0.266243 4.1746 0.963887 94.129
8.68507000 0.963886 94.224 0.266246 4.1744 0.266246 4.1744 0.963886 94.128
8.68507500 0.963885 94.224 0.266250 4.1741 0.266250 4.1741 0.963885 94.128
8.68508000 0.963884 94.224 0.266253 4.1739 0.266253 4.1739 0.963884 94.128
8.68508500 0.963883 94.224 0.266257 4.1736 0.266257 4.1736 0.963883 94.128
8.68509000 0.963882 94.223 0.266260 4.1734 0.266260 4.1734 0.963882 94.127
8.68509500 0.963881 94.223 0.266264 4.1731 0.266264 4.1731 0.963881 94.127
8.68510000 0.963880 94.223 0.266267 4.1729 0.266267 4.1729 0.963880 94.127
8.68510500 0.963879 94.223 0.266271 4.1726 0.266271 4.1726 0.963879 94.127
8.68511000 0.963878 94.222 0.266274 4.1724 0.266274 4.1724 0.963878 94.126
8.68511500 0.963877 94.222 0.266278 4.1721 0.266278 4.1721 0.963877 94.126
8.68512000 0.963876 94.222 0.266281 4.1719 0.266281 4.1719 0.963876 94.126
8.68512500 0.963875 94.222 0.266285 4.1716 0.266285 4.1716 0.963875 94.126
8.68513000 0.963874 94.221 0.266288 4.1714 0.266288 4.1714 0.963874 94.125
8.68513500 0.963873 94.221 0.266292 4.1711 0.266292 4.1711 0.963873 94.125
8.68514000 0.963872 94.221 0.266296 4.1709 0.266296 4.1709 0.963872 94.125
8.68514500 0.963871 94.221 0.266299 4.1706 0.266299 4.1706 0.963871 94.125
8.68515000 0.963870 94.220 0.266303 4.1703 0.266303 4.1703 0.963870 94.124
8.68515500 0.963869 94.220 0.266306 4.1701 0.266306 4.1701 0.963869 94.124
8.68516000 0.963869 94.220 0.266310 4.1698 0.266310 4.1698 0.963868 94.124
8.68516500 0.963868 94.220 0.266313 4.1696 0.266313 4.1696 0.963867 94.124
8.68517000 0.963867 94.219 0.266317 4.1693 0.266317 4.1693 0.963866 94.123
8.68517500 0.963866 94.219 0.266320 4.1691 0.266320 4.1691 0.963866 94.123
8.68518000 0.963865 94.219 0.266324 4.1688 0.266324 4.1688 0.963865 94.123
8.68518500 0.963864 94.219 0.266327 4.1686 0.266327 4.1686 0.963864 94.123
8.68519000 0.963863 94.218 0.266331 4.1683 0.266331 4.1683 0.963863 94.122
8.68519500 0.963862 94.218 0.266335 4.1681 0.266335 4.1681 0.963861 94.122
8.68520000 0.963861 94.218 0.266338 4.1678 0.266338 4.1678 0.963860 94.122
8.68520500 0.963860 94.218 0.266342 4.1675 0.266342 4.1675 0.963859 94.122
8.68521000 0.963859 94.217 0.266345 4.1673 0.266345 4.1673 0.963858 94.121
8.68521500 0.963857 94.217 0.266349 4.1670 0.266349 4.1670 0.963857 94.121
8.68522000 0.963856 94.217 0.266353 4.1668 0.266353 4.1668 0.963856 94.121
8.68522500 0.963855 94.217 0.266356 4.1665 0.266356 4.1665 0.963855 94.121
8.68523000 0.963854 94.216 0.266360 4.1663 0.266360 4.1663 0.963854 94.120
8.68523500 0.963853 94.216 0.266363 4.1660 0.266363 4.1660 0.963853 94.120
8.68524000 0.963852 94.216 0.266367 4.1657 0.266367 4.1657 0.963852 94.120
8.68524500 0.963851 94.215 0.266371 4.1655 0.266371 4.1655 0.963851 94.120
8.68525000 0.963850 94.215 0.266374 4.1652 0.266374 4.1652 0.963850 94.119
8.68525500 0.963849 94.215 0.266378 4.1650 0.266378 4.1650 0.963849 94.119
8.68526000 0.963848 94.215 0.266381 4.1647 0.266381 4.1647 0.963848 94.119
8.68526500 0.963847 94.214 0.266385 4.1644 0.266385 4.1644 0.963847 94.119
8.68527000 0.963846 94.214 0.266389 4.1642 0.266389 4.1642 0.963846 94.118
8.68527500 0.963845 94.214 0.266392 4.1639 0.266392 4.1639 0.963845 94.118
8.68528000 0.963844 94.214 0.266396 4.1637 0.266396 4.1637 0.963844 94.118
8.68528500 0.963843 94.213 0.266400 4.1634 0.266400 4.1634 0.963843 94.118
8.68529000 0.963842 94.213 0.266403 4.1631 0.266403 4.1631 0.963842 94.117
8.68529500 0.963841 94.213 0.266407 4.1629 0.266407 4.1629 0.963841 94.117
8.68530000 0.963840 94.213 0.266410 4.1626 0.266410 4.1626 0.963840 94.117
8.68530500 0.963839 94.212 0.266414 4.1624 0.266414 4.1624 0.963839 94.117
8.68531000 0.963838 94.212 0.266418 4.1621 0.266418 4.1621 0.963838 94.116
8.68531500 0.963837 94.212 0.266421 4.1618 0.266421 4.1618 0.963837 94.116
8.68532000 0.963836 94.212 0.266425 4.1616 0.266425 4.1616 0.963836 94.116
8.68532500 0.963835 94.211 0.266429 4.1613 0.266429 4.1613 0.963835 94.116
8.68533000 0.963834 94.211 0.266432 4.1610 0.266432 4.1610 0.963834 94.115
8.68533500 0.963833 94.211 0.266436 4.1608 0.266436 4.1608 0.963833 94.115
8.68534000 0.963832 94.211 0.266440 4.1605 0.266440 4.1605 0.963832 94.115
8.68534500 0.963831 94.210 0.266444 4.1603 0.266444 4.1603 0.963831 94.114
8.68535000 0.963830 94.210 0.266447 4.1600 0.266447 4.1600 0.963830 94.114
8.68535500 0.963829 94.210 0.266451 4.1597 0.266451 4.1597 0.963829 94.114
8.68536000 0.963828 94.210 0.266455 4.1595 0.266455 4.1595 0.963828 94.114
8.68536500 0.963827 94.209 0.266458 4.1592 0.266458 4.1592 0.963827 94.113
8.68537000 0.963826 94.209 0.266462 4.1589 0.266462 4.1589 0.963826 94.113
8.68537500 0.963825 94.209 0.266466 4.1587 0.266466 4.1587 0.963825 94.113
8.68538000 0.963824 94.209 0.266469 4.1584 0.266469 4.1584 0.963824 94.113
8.68538500 0.963823 94.208 0.266473 4.1581 0.266473 4.1581 0.963823 94.112
8.68539000 0.963822 94.208 0.266477 4.1579 0.266477 4.1579 0.963822 94.112
8.68539500 0.963821 94.208 0.266481 4.1576 0.266481 4.1576 0.963820 94.112
8.68540000 0.963819 94.207 0.266484 4.1573 0.266484 4.1573 0.963819 94.112
8.68540500 0.963818 94.207 0.266488 4.1571 0.266488 4.1571 0.963818 94.111
8.68541000 0.963817 94.207 0.266492 4.1568 0.266492 4.1568 0.963817 94.111
8.68541500 0.963816 94.207 0.266496 4.1565 0.266496 4.1565 0.963816 94.111
8.68542000 0.963815 94.206 0.266499 4.1563 0.266499 4.1563 0.963815 94.111
8.68542500 0.963814 94.206 0.266503 4.1560 0.266503 4.1560 0.963814 94.110
8.68543000 0.963813 94.206 0.266507 4.1557 0.266507 4.1557 0.963813 94.110
8.68543500 0.963812 94.206 0.266511 4.1555 0.266511 4.1555 0.963812 94.110
8.68544000 0.963811 94.205 0.266514 4.1552 0.266514 4.1552 0.963811 94.110
8.68544500 0.963810 94.205 0.266518 4.1549 0.266518 4.1549 0.963810 94.109
8.68545000 0.963809 94.205 0.266522 4.1547 0.266522 4.1547 0.963809 94.109
8.68545500 0.963808 94.205 0.266526 4.1544 0.266526 4.1544 0.963808 94.109
8.68546000 0.963807 94.204 0.266530 4.1541 0.266530 4.1541 0.963807 94.108
8.68546500 0.963806 94.204 0.266533 4.1539 0.266533 4.1539 0.963806 94.108
8.68547000 0.963805 94.204 0.266537 4.1536 0.266537 4.1536 0.963805 94.108
8.68547500 0.963804 94.203 0.266541 4.1533 0.266541 4.1533 0.963804 94.108
8.68548000 0.963803 94.203 0.266545 4.1531 0.266545 4.1531 0.963802 94.107
8.68548500 0.963801 94.203 0.266549 4.1528 0.266549 4.1528 0.963801 94.107
8.68549000 0.963800 94.203 0.266552 4.1525 0.266552 4.1525 0.963800 94.107
8.68549500 0.963799 94.202 0.266556 4.1522 0.266556 4.1522 0.963799 94.107
8.68550000 0.963798 94.202 0.266560 4.1520 0.266560 4.1520 0.963798 94.106
8.68550500 0.963797 94.202 0.266564 4.1517 0.266564 4.1517 0.963797 94.106
8.68551000 0.963796 94.202 0.266568 4.1514 0.266568 4.1514 0.963796 94.106
8.68551500 0.963795 94.201 0.266571 4.1512 0.266571 4.1512 0.963795 94.106
8.68552000 0.963794 94.201 0.266575 4.1509 0.266575 4.1509 0.963794 94.105
8.68552500 0.963793 94.201 0.266579 4.1506 0.266579 4.1506 0.963793 94.105
8.68553000 0.963792 94.201 0.266583 4.1503 0.266583 4.1503 0.963792 94.105
8.68553500 0.963791 94.200 0.266587 4.1501 0.266587 4.1501 0.963791 94.104
8.68554000 0.963790 94.200 0.266591 4.1498 0.266591 4.1498 0.963790 94.104
8.68554500 0.963789 94.200 0.266595 4.1495 0.266595 4.1495 0.963788 94.104
8.68555000 0.963787 94.199 0.266598 4.1492 0.266598 4.1492 0.963787 94.104
8.68555500 0.963786 94.199 0.266602 4.1490 0.266602 4.1490 0.963786 94.103
8.68556000 0.963785 94.199 0.266606 4.1487 0.266606 4.1487 0.963785 94.103
8.68556500 0.963784 94.199 0.266610 4.1484 0.266610 4.1484 0.963784 94.103
8.68557000 0.963783 94.198 0.266614 4.1482 0.266614 4.1482 0.963783 94.103
8.68557500 0.963782 94.198 0.266618 4.1479 0.266618 4.1479 0.963782 94.102
8.68558000 0.963781 94.198 0.266622 4.1476 0.266622 4.1476 0.963781 94.102
8.68558500 0.963780 94.198 0.266626 4.1473 0.266626 4.1473 0.963780 94.102
8.68559000 0.963779 94.197 0.266629 4.1470 0.266629 4.1470 0.963779 94.101
8.68559500 0.963778 94.197 0.266633 4.1468 0.266633 4.1468 0.963778 94.101
8.68560000 0.963777 94.197 0.266637 4.1465 0.266637 4.1465 0.963776 94.101
8.68560500 0.963775 94.196 0.266641 4.1462 0.266641 4.1462 0.963775 94.101
8.68561000 0.963774 94.196 0.266645 4.1459 0.266645 4.1459 0.963774 94.100
8.68561500 0.963773 94.196 0.266649 4.1457 0.266649 4.1457 0.963773 94.100
8.68562000 0.963772 94.196 0.266653 4.1454 0.266653 4.1454 0.963772 94.100
8.68562500 0.963771 94.195 0.266657 4.1451 0.266657 4.1451 0.963771 94.100
8.68563000 0.963770 94.195 0.266661 4.1448 0.266661 4.1448 0.963770 94.099
8.68563500 0.963769 94.195 0.266665 4.1446 0.266665 4.1446 0.963769 94.099
8.68564000 0.963768 94.195 0.266669 4.1443 0.266669 4.1443 0.963768 94.099
8.68564500 0.963767 94.194 0.266673 4.1440 0.266673 4.1440 0.963767 94.098
8.68565000 0.963765 94.194 0.266677 4.1437 0.266677 4.1437 0.963765 94.098
8.68565500 0.963764 94.194 0.266681 4.1434 0.266681 4.1434 0.963764 94.098
8.68566000 0.963763 94.193 0.266684 4.1432 0.266684 4.1432 0.963763 94.098
8.68566500 0.963762 94.193 0.266688 4.1429 0.266688 4.1429 0.963762 94.097
8.68567000 0.963761 94.193 0.266692 4.1426 0.266692 4.1426 0.963761 94.097
8.68567500 0.963760 94.193 0.266696 4.1423 0.266696 4.1423 0.963760 94.097
8.68568000 0.963759 94.192 0.266700 4.1420 0.266700 4.1420 0.963759 94.097
8.68568500 0.963758 94.192 0.266704 4.1418 0.266704 4.1418 0.963758 94.096
8.68569000 0.963757 94.192 0.266708 4.1415 0.266708 4.1415 0.963757 94.096
8.68569500 0.963755 94.192 0.266712 4.1412 0.266712 4.1412 0.963755 94.096
8.68570000 0.963754 94.191 0.266716 4.1409 0.266716 4.1409 0.963754 94.095
8.68570500 0.963753 94.191 0.266720 4.1406 0.266720 4.1406 0.963753 94.095
8.68571000 0.963752 94.191 0.266724 4.1403 0.266724 4.1403 0.963752 94.095
8.68571500 0.963751 94.190 0.266728 4.1401 0.266728 4.1401 0.963751 94.095
8.68572000 0.963750 94.190 0.266732 4.1398 0.266732 4.1398 0.963750 94.094
8.68572500 0.963749 94.190 0.266736 4.1395 0.266736 4.1395 0.963749 94.094
8.68573000 0.963747 94.190 0.266740 4.1392 0.266740 4.1392 0.963747 94.094
8.68573500 0.963746 94.189 0.266744 4.1389 0.266744 4.1389 0.963746 94.093
8.68574000 0.963745 94.189 0.266748 4.1386 0.266748 4.1386 0.963745 94.093
8.68574500 0.963744 94.189 0.266752 4.1384 0.266752 4.1384 0.963744 94.093
8.68575000 0.963743 94.188 0.266757 4.1381 0.266757 4.1381 0.963743 94.093
8.68575500 0.963742 94.188 0.266761 4.1378 0.266761 4.1378 0.963742 94.092
8.68576000 0.963741 94.188 0.266765 4.1375 0.266765 4.1375 0.963741 94.092
8.68576500 0.963740 94.188 0.266769 4.1372 0.266769 4.1372 0.963740 94.092
8.68577000 0.963738 94.187 0.266773 4.1369 0.266773 4.1369 0.963738 94.091
8.68577500 0.963737 94.187 0.266777 4.1366 0.266777 4.1366 0.963737 94.091
8.68578000 0.963736 94.187 0.266781 4.1364 0.266781 4.1364 0.963736 94.091
8.68578500 0.963735 94.186 0.266785 4.1361 0.266785 4.1361 0.963735 94.091
8.68579000 0.963734 94.186 0.266789 4.1358 0.266789 4.1358 0.963734 94.090
8.68579500 0.963733 94.186 0.266793 4.1355 0.266793 4.1355 0.963733 94.090
8.68580000 0.963732 94.186 0.266797 4.1352 0.266797 4.1352 0.963731 94.090
8.68580500 0.963730 94.185 0.266801 4.1349 0.266801 4.1349 0.963730 94.089
8.68581000 0.963729 94.185 0.266805 4.1346 0.266805 4.1346 0.963729 94.089
8.68581500 0.963728 94.185 0.266810 4.1343 0.266810 4.1343 0.963728 94.089
8.68582000 0.963727 94.184 0.266814 4.1341 0.266814 4.1341 0.963727 94.089
8.68582500 0.963726 94.184 0.266818 4.1338 0.266818 4.1338 0.963726 94.088
8.68583000 0.963725 94.184 0.266822 4.1335 0.266822 4.1335 0.963725 94.088
8.68583500 0.963723 94.184 0.266826 4.1332 0.266826 4.1332 0.963723 94.088
8.68584000 0.963722 94.183 0.266830 4.1329 0.266830 4.1329 0.963722 94.087
8.68584500 0.963721 94.183 0.266834 4.1326 0.266834 4.1326 0.963721 94.087
8.68585000 0.963720 94.183 0.266838 4.1323 0.266838 4.1323 0.963720 94.087
8.68585500 0.963719 94.182 0.266843 4.1320 0.266843 4.1320 0.963719 94.087
8.68586000 0.963718 94.182 0.266847 4.1317 0.266847 4.1317 0.963718 94.086
8.68586500 0.963716 94.182 0.266851 4.1314 0.266851 4.1314 0.963716 94.086
8.68587000 0.963715 94.182 0.266855 4.1312 0.266855 4.1312 0.963715 94.086
8.68587500 0.963714 94.181 0.266859 4.1309 0.266859 4.1309 0.963714 94.085
8.68588000 0.963713 94.181 0.266863 4.1306 0.266863 4.1306 0.963713 94.085
8.68588500 0.963712 94.181 0.266867 4.1303 0.266867 4.1303 0.963712 94.085
8.68589000 0.963711 94.180 0.266872 4.1300 0.266872 4.1300 0.963711 94.085
8.68589500 0.963709 94.180 0.266876 4.1297 0.266876 4.1297 0.963709 94.084
8.68590000 0.963708 94.180 0.266880 4.1294 0.266880 4.1294 0.963708 94.084
8.68590500 0.963707 94.180 0.266884 4.1291 0.266884 4.1291 0.963707 94.084
8.68591000 0.963706 94.179 0.266888 4.1288 0.266888 4.1288 0.963706 94.083
8.68591500 0.963705 94.179 0.266893 4.1285 0.266893 4.1285 0.963705 94.083
8.68592000 0.963703 94.179 0.266897 4.1282 0.266897 4.1282 0.963703 94.083
8.68592500 0.963702 94.178 0.266901 4.1279 0.266901 4.1279 0.963702 94.083
8.68593000 0.963701 94.178 0.266905 4.1276 0.266905 4.1276 0.963701 94.082
8.68593500 0.963700 94.178 0.266909 4.1273 0.266909 4.1273 0.963700 94.082
8.68594000 0.963699 94.178 0.266914 4.1270 0.266914 4.1270 0.963699 94.082
8.68594500 0.963698 94.177 0.266918 4.1267 0.266918 4.1267 0.963697 94.081
8.68595000 0.963696 94.177 0.266922 4.1264 0.266922 4.1264 0.963696 94.081
8.68595500 0.963695 94.177 0.266926 4.1261 0.266926 4.1261 0.963695 94.081
8.68596000 0.963694 94.176 0.266931 4.1258 0.266931 4.1258 0.963694 94.081
8.68596500 0.963693 94.176 0.266935 4.1256 0.266935 4.1256 0.963693 94.080
8.68597000 0.963692 94.176 0.266939 4.1253 0.266939 4.1253 0.963692 94.080
8.68597500 0.963690 94.176 0.266943 4.1250 0.266943 4.1250 0.963690 94.080
8.68598000 0.963689 94.175 0.266948 4.1247 0.266948 4.1247 0.963689 94.079
8.68598500 0.963688 94.175 0.266952 4.1244 0.266952 4.1244 0.963688 94.079
8.68599000 0.963687 94.175 0.266956 4.1241 0.266956 4.1241 0.963687 94.079
8.68599500 0.963686 94.174 0.266961 4.1238 0.266961 4.1238 0.963685 94.078
8.68600000 0.963684 94.174 0.266965 4.1235 0.266965 4.1235 0.963684 94.078
8.68600500 0.963683 94.174 0.266969 4.1232 0.266969 4.1232 0.963683 94.078
8.68601000 0.963682 94.173 0.266973 4.1229 0.266973 4.1229 0.963682 94.078
8.68601500 0.963681 94.173 0.266978 4.1226 0.266978 4.1226 0.963681 94.077
8.68602000 0.963679 94.173 0.266982 4.1223 0.266982 4.1223 0.963679 94.077
8.68602500 0.963678 94.173 0.266986 4.1220 0.266986 4.1220 0.963678 94.077
8.68603000 0.963677 94.172 0.266991 4.1217 0.266991 4.1217 0.963677 94.076
8.68603500 0.963676 94.172 0.266995 4.1214 0.266995 4.1214 0.963676 94.076
8.68604000 0.963675 94.172 0.266999 4.1210 0.266999 4.1210 0.963675 94.076
8.68604500 0.963673 94.171 0.267004 4.1207 0.267004 4.1207 0.963673 94.076
8.68605000 0.963672 94.171 0.267008 4.1204 0.267008 4.1204 0.963672 94.075
8.68605500 0.963671 94.171 0.267012 4.1201 0.267012 4.1201 0.963671 94.075
8.68606000 0.963670 94.170 0.267017 4.1198 0.267017 4.1198 0.963670 94.075
8.68606500 0.963668 94.170 0.267021 4.1195 0.267021 4.1195 0.963668 94.074
8.68607000 0.963667 94.170 0.267025 4.1192 0.267025 4.1192 0.963667 94.074
8.68607500 0.963666 94.170 0.267030 4.1189 0.267030 4.1189 0.963666 94.074
8.68608000 0.963665 94.169 0.267034 4.1186 0.267034 4.1186 0.963665 94.073
8.68608500 0.963664 94.169 0.267038 4.1183 0.267038 4.1183 0.963664 94.073
8.68609000 0.963662 94.169 0.267043 4.1180 0.267043 4.1180 0.963662 94.073
8.68609500 0.963661 94.168 0.267047 4.1177 0.267047 4.1177 0.963661 94.073
8.68610000 0.963660 94.168 0.267052 4.1174 0.267052 4.1174 0.963660 94.072
8.68610500 0.963659 94.168 0.267056 4.1171 0.267056 4.1171 0.963659 94.072
8.68611000 0.963657 94.167 0.267060 4.1168 0.267060 4.1168 0.963657 94.072
8.68611500 0.963656 94.167 0.267065 4.1165 0.267065 4.1165 0.963656 94.071
8.68612000 0.963655 94.167 0.267069 4.1162 0.267069 4.1162 0.963655 94.071
8.68612500 0.963654 94.167 0.267074 4.1159 0.267074 4.1159 0.963654 94.071
8.68613000 0.963652 94.166 0.267078 4.1156 0.267078 4.1156 0.963652 94.070
8.68613500 0.963651 94.166 0.267083 4.1152 0.267083 4.1152 0.963651 94.070
8.68614000 0.963650 94.166 0.267087 4.1149 0.267087 4.1149 0.963650 94.070
8.68614500 0.963649 94.165 0.267091 4.1146 0.267091 4.1146 0.963649 94.069
8.68615000 0.963647 94.165 0.267096 4.1143 0.267096 4.1143 0.963647 94.069
8.68615500 0.963646 94.165 0.267100 4.1140 0.267100 4.1140 0.963646 94.069
8.68616000 0.963645 94.164 0.267105 4.1137 0.267105 4.1137 0.963645 94.069
8.68616500 0.963644 94.164 0.267109 4.1134 0.267109 4.1134 0.963644 94.068
8.68617000 0.963642 94.164 0.267114 4.1131 0.267114 4.1131 0.963642 94.068
8.68617500 0.963641 94.164 0.267118 4.1128 0.267118 4.1128 0.963641 94.068
8.68618000 0.963640 94.163 0.267123 4.1125 0.267123 4.1125 0.963640 94.067
8.68618500 0.963639 94.163 0.267127 4.1121 0.267127 4.1121 0.963639 94.067
8.68619000 0.963637 94.163 0.267132 4.1118 0.267132 4.1118 0.963637 94.067
8.68619500 0.963636 94.162 0.267136 4.1115 0.267136 4.1115 0.963636 94.066
8.68620000 0.963635 94.162 0.267141 4.1112 0.267141 4.1112 0.963635 94.066
8.68620500 0.963633 94.162 0.267145 4.1109 0.267145 4.1109 0.963633 94.066
8.68621000 0.963632 94.161 0.267150 4.1106 0.267150 4.1106 0.963632 94.065
8.68621500 0.963631 94.161 0.267154 4.1103 0.267154 4.1103 0.963631 94.065
8.68622000 0.963630 94.161 0.267159 4.1100 0.267159 4.1100 0.963630 94.065
8.68622500 0.963628 94.160 0.267163 4.1096 0.267163 4.1096 0.963628 94.065
8.68623000 0.963627 94.160 0.267168 4.1093 0.267168 4.1093 0.963627 94.064
8.68623500 0.963626 94.160 0.267172 4.1090 0.267172 4.1090 0.963626 94.064
8.68624000 0.963625 94.160 0.267177 4.1087 0.267177 4.1087 0.963625 94.064
8.68624500 0.963623 94.159 0.267181 4.1084 0.267181 4.1084 0.963623 94.063
8.68625000 0.963622 94.159 0.267186 4.1081 0.267186 4.1081 0.963622 94.063
8.68625500 0.963621 94.159 0.267190 4.1077 0.267190 4.1077 0.963621 94.063
8.68626000 0.963619 94.158 0.267195 4.1074 0.267195 4.1074 0.963619 94.062
8.68626500 0.963618 94.158 0.267200 4.1071 0.267200 4.1071 0.963618 94.062
8.68627000 0.963617 94.158 0.267204 4.1068 0.267204 4.1068 0.963617 94.062
8.68627500 0.963616 94.157 0.267209 4.1065 0.267209 4.1065 0.963615 94.061
8.68628000 0.963614 94.157 0.267213 4.1062 0.267213 4.1062 0.963614 94.061
8.68628500 0.963613 94.157 0.267218 4.1058 0.267218 4.1058 0.963613 94.061
8.68629000 0.963612 94.156 0.267223 4.1055 0.267223 4.1055 0.963612 94.061
8.68629500 0.963610 94.156 0.267227 4.1052 0.267227 4.1052 0.963610 94.060
8.68630000 0.963609 94.156 0.267232 4.1049 0.267232 4.1049 0.963609 94.060
8.68630500 0.963608 94.155 0.267236 4.1046 0.267236 4.1046 0.963608 94.060
8.68631000 0.963606 94.155 0.267241 4.1042 0.267241 4.1042 0.963606 94.059
8.68631500 0.963605 94.155 0.267246 4.1039 0.267246 4.1039 0.963605 94.059
8.68632000 0.963604 94.154 0.267250 4.1036 0.267250 4.1036 0.963604 94.059
8.68632500 0.963602 94.154 0.267255 4.1033 0.267255 4.1033 0.963602 94.058
8.68633000 0.963601 94.154 0.267260 4.1030 0.267260 4.1030 0.963601 94.058
8.68633500 0.963600 94.154 0.267264 4.1026 0.267264 4.1026 0.963600 94.058
8.68634000 0.963599 94.153 0.267269 4.1023 0.267269 4.1023 0.963599 94.057
8.68634500 0.963597 94.153 0.267274 4.1020 0.267274 4.1020 0.963597 94.057
8.68635000 0.963596 94.153 0.267278 4.1017 0.267278 4.1017 0.963596 94.057
8.68635500 0.963595 94.152 0.267283 4.1013 0.267283 4.1013 0.963595 94.056
8.68636000 0.963593 94.152 0.267288 4.1010 0.267288 4.1010 0.963593 94.056
8.68636500 0.963592 94.152 0.267292 4.1007 0.267292 4.1007 0.963592 94.056
8.68637000 0.963591 94.151 0.267297 4.1004 0.267297 4.1004 0.963591 94.055
8.68637500 0.963589 94.151 0.267302 4.1000 0.267302 4.1000 0.963589 94.055
8.68638000 0.963588 94.151 0.267306 4.0997 0.267306 4.0997 0.963588 94.055
8.68638500 0.963587 94.150 0.267311 4.0994 0.267311 4.0994 0.963587 94.054
8.68639000 0.963585 94.150 0.267316 4.0991 0.267316 4.0991 0.963585 94.054
8.68639500 0.963584 94.150 0.267321 4.0987 0.267321 4.0987 0.963584 94.054
8.68640000 0.963583 94.149 0.267325 4.0984 0.267325 4.0984 0.963583 94.054
8.68640500 0.963581 94.149 0.267330 4.0981 0.267330 4.0981 0.963581 94.053
8.68641000 0.963580 94.149 0.267335 4.0978 0.267335 4.0978 0.963580 94.053
8.68641500 0.963579 94.148 0.267340 4.0974 0.267340 4.0974 0.963579 94.053
8.68642000 0.963577 94.148 0.267344 4.0971 0.267344 4.0971 0.963577 94.052
8.68642500 0.963576 94.148 0.267349 4.0968 0.267349 4.0968 0.963576 94.052
8.68643000 0.963575 94.147 0.267354 4.0964 0.267354 4.0964 0.963575 94.052
8.68643500 0.963573 94.147 0.267359 4.0961 0.267359 4.0961 0.963573 94.051
8.68644000 0.963572 94.147 0.267363 4.0958 0.267363 4.0958 0.963572 94.051
8.68644500 0.963571 94.146 0.267368 4.0955 0.267368 4.0955 0.963570 94.051
8.68645000 0.963569 94.146 0.267373 4.0951 0.267373 4.0951 0.963569 94.050
8.68645500 0.963568 94.146 0.267378 4.0948 0.267378 4.0948 0.963568 94.050
8.68646000 0.963566 94.145 0.267383 4.0945 0.267383 4.0945 0.963566 94.050
8.68646500 0.963565 94.145 0.267387 4.0941 0.267387 4.0941 0.963565 94.049
8.68647000 0.963564 94.145 0.267392 4.0938 0.267392 4.0938 0.963564 94.049
8.68647500 0.963562 94.145 0.267397 4.0935 0.267397 4.0935 0.963562 94.049
8.68648000 0.963561 94.144 0.267402 4.0931 0.267402 4.0931 0.963561 94.048
8.68648500 0.963560 94.144 0.267407 4.0928 0.267407 4.0928 0.963560 94.048
8.68649000 0.963558 94.144 0.267411 4.0925 0.267411 4.0925 0.963558 94.048
8.68649500 0.963557 94.143 0.267416 4.0921 0.267416 4.0921 0.963557 94.047
8.68650000 0.963556 94.143 0.267421 4.0918 0.267421 4.0918 0.963556 94.047
8.68650500 0.963554 94.143 0.267426 4.0915 0.267426 4.0915 0.963554 94.047
8.68651000 0.963553 94.142 0.267431 4.0911 0.267431 4.0911 0.963553 94.046
8.68651500 0.963551 94.142 0.267436 4.0908 0.267436 4.0908 0.963551 94.046
8.68652000 0.963550 94.142 0.267441 4.0905 0.267441 4.0905 0.963550 94.046
8.68652500 0.963549 94.141 0.267446 4.0901 0.267446 4.0901 0.963549 94.045
8.68653000 0.963547 94.141 0.267450 4.0898 0.267450 4.0898 0.963547 94.045
8.68653500 0.963546 94.141 0.267455 4.0894 0.267455 4.0894 0.963546 94.045
8.68654000 0.963544 94.140 0.267460 4.0891 0.267460 4.0891 0.963544 94.044
8.68654500 0.963543 94.140 0.267465 4.0888 0.267465 4.0888 0.963543 94.044
8.68655000 0.963542 94.140 0.267470 4.0884 0.267470 4.0884 0.963542 94.044
8.68655500 0.963540 94.139 0.267475 4.0881 0.267475 4.0881 0.963540 94.043
8.68656000 0.963539 94.139 0.267480 4.0878 0.267480 4.0878 0.963539 94.043
8.68656500 0.963538 94.139 0.267485 4.0874 0.267485 4.0874 0.963538 94.043
8.68657000 0.963536 94.138 0.267490 4.0871 0.267490 4.0871 0.963536 94.042
8.68657500 0.963535 94.138 0.267495 4.0867 0.267495 4.0867 0.963535 94.042
8.68658000 0.963533 94.138 0.267500 4.0864 0.267500 4.0864 0.963533 94.042
8.68658500 0.963532 94.137 0.267505 4.0861 0.267505 4.0861 0.963532 94.041
8.68659000 0.963531 94.137 0.267510 4.0857 0.267510 4.0857 0.963531 94.041
8.68659500 0.963529 94.137 0.267515 4.0854 0.267515 4.0854 0.963529 94.041
8.68660000 0.963528 94.136 0.267520 4.0850 0.267520 4.0850 0.963528 94.040
8.68660500 0.963526 94.136 0.267525 4.0847 0.267525 4.0847 0.963526 94.040
8.68661000 0.963525 94.136 0.267529 4.0843 0.267529 4.0843 0.963525 94.040
8.68661500 0.963523 94.135 0.267534 4.0840 0.267534 4.0840 0.963523 94.039
8.68662000 0.963522 94.135 0.267540 4.0837 0.267540 4.0837 0.963522 94.039
8.68662500 0.963521 94.135 0.267545 4.0833 0.267545 4.0833 0.963521 94.039
8.68663000 0.963519 94.134 0.267550 4.0830 0.267550 4.0830 0.963519 94.038
8.68663500 0.963518 94.134 0.267555 4.0826 0.267555 4.0826 0.963518 94.038
8.68664000 0.963516 94.134 0.267560 4.0823 0.267560 4.0823 0.963516 94.038
8.68664500 0.963515 94.133 0.267565 4.0819 0.267565 4.0819 0.963515 94.037
8.68665000 0.963514 94.133 0.267570 4.0816 0.267570 4.0816 0.963514 94.037
8.68665500 0.963512 94.132 0.267575 4.0812 0.267575 4.0812 0.963512 94.037
8.68666000 0.963511 94.132 0.267580 4.0809 0.267580 4.0809 0.963511 94.036
8.68666500 0.963509 94.132 0.267585 4.0805 0.267585 4.0805 0.963509 94.036
8.68667000 0.963508 94.131 0.267590 4.0802 0.267590 4.0802 0.963508 94.036
8.68667500 0.963506 94.131 0.267595 4.0799 0.267595 4.0799 0.963506 94.035
8.68668000 0.963505 94.131 0.267600 4.0795 0.267600 4.0795 0.963505 94.035
8.68668500 0.963503 94.130 0.267605 4.0792 0.267605 4.0792 0.963503 94.035
8.68669000 0.963502 94.130 0.267610 4.0788 0.267610 4.0788 0.963502 94.034
8.68669500 0.963501 94.130 0.267615 4.0785 0.267615 4.0785 0.963501 94.034
8.68670000 0.963499 94.129 0.267620 4.0781 0.267620 4.0781 0.963499 94.034
8.68670500 0.963498 94.129 0.267626 4.0778 0.267626 4.0778 0.963498 94.033
8.68671000 0.963496 94.129 0.267631 4.0774 0.267631 4.0774 0.963496 94.033
8.68671500 0.963495 94.128 0.267636 4.0771 0.267636 4.0771 0.963495 94.032
8.68672000 0.963493 94.128 0.267641 4.0767 0.267641 4.0767 0.963493 94.032
8.68672500 0.963492 94.128 0.267646 4.0763 0.267646 4.0763 0.963492 94.032
8.68673000 0.963490 94.127 0.267651 4.0760 0.267651 4.0760 0.963490 94.031
8.68673500 0.963489 94.127 0.267656 4.0756 0.267656 4.0756 0.963489 94.031
8.68674000 0.963488 94.127 0.267662 4.0753 0.267662 4.0753 0.963487 94.031
8.68674500 0.963486 94.126 0.267667 4.0749 0.267667 4.0749 0.963486 94.030
8.68675000 0.963485 94.126 0.267672 4.0746 0.267672 4.0746 0.963485 94.030
8.68675500 0.963483 94.126 0.267677 4.0742 0.267677 4.0742 0.963483 94.030
8.68676000 0.963482 94.125 0.267682 4.0739 0.267682 4.0739 0.963482 94.029
8.68676500 0.963480 94.125 0.267688 4.0735 0.267688 4.0735 0.963480 94.029
8.68677000 0.963479 94.125 0.267693 4.0732 0.267693 4.0732 0.963479 94.029
8.68677500 0.963477 94.124 0.267698 4.0728 0.267698 4.0728 0.963477 94.028
8.68678000 0.963476 94.124 0.267703 4.0724 0.267703 4.0724 0.963476 94.028
8.68678500 0.963474 94.123 0.267708 4.0721 0.267708 4.0721 0.963474 94.028
8.68679000 0.963473 94.123 0.267714 4.0717 0.267714 4.0717 0.963473 94.027
8.68679500 0.963471 94.123 0.267719 4.0714 0.267719 4.0714 0.963471 94.027
8.68680000 0.963470 94.122 0.267724 4.0710 0.267724 4.0710 0.963470 94.027
8.68680500 0.963468 94.122 0.267729 4.0707 0.267729 4.0707 0.963468 94.026
8.68681000 0.963467 94.122 0.267735 4.0703 0.267735 4.0703 0.963467 94.026
8.68681500 0.963465 94.121 0.267740 4.0699 0.267740 4.0699 0.963465 94.025
8.68682000 0.963464 94.121 0.267745 4.0696 0.267745 4.0696 0.963464 94.025
8.68682500 0.963462 94.121 0.267750 4.0692 0.267750 4.0692 0.963462 94.025
8.68683000 0.963461 94.120 0.267756 4.0689 0.267756 4.0689 0.963461 94.024
8.68683500 0.963459 94.120 0.267761 4.0685 0.267761 4.0685 0.963459 94.024
8.68684000 0.963458 94.120 0.267766 4.0681 0.267766 4.0681 0.963458 94.024
8.68684500 0.963456 94.119 0.267772 4.0678 0.267772 4.0678 0.963456 94.023
8.68685000 0.963455 94.119 0.267777 4.0674 0.267777 4.0674 0.963455 94.023
8.68685500 0.963453 94.119 0.267782 4.0670 0.267782 4.0670 0.963453 94.023
8.68686000 0.963452 94.118 0.267788 4.0667 0.267788 4.0667 0.963452 94.022
8.68686500 0.963450 94.118 0.267793 4.0663 0.267793 4.0663 0.963450 94.022
8.68687000 0.963449 94.117 0.267798 4.0660 0.267798 4.0660 0.963449 94.022
8.68687500 0.963447 94.117 0.267804 4.0656 0.267804 4.0656 0.963447 94.021
8.68688000 0.963446 94.117 0.267809 4.0652 0.267809 4.0652 0.963446 94.021
8.68688500 0.963444 94.116 0.267814 4.0649 0.267814 4.0649 0.963444 94.020
8.68689000 0.963443 94.116 0.267820 4.0645 0.267820 4.0645 0.963443 94.020
8.68689500 0.963441 94.116 0.267825 4.0641 0.267825 4.0641 0.963441 94.020
8.68690000 0.963440 94.115 0.267831 4.0638 0.267831 4.0638 0.963440 94.019
8.68690500 0.963438 94.115 0.267836 4.0634 0.267836 4.0634 0.963438 94.019
8.68691000 0.963437 94.115 0.267841 4.0630 0.267841 4.0630 0.963437 94.019
8.68691500 0.963435 94.114 0.267847 4.0627 0.267847 4.0627 0.963435 94.018
8.68692000 0.963434 94.114 0.267852 4.0623 0.267852 4.0623 0.963434 94.018
8.68692500 0.963432 94.113 0.267858 4.0619 0.267858 4.0619 0.963432 94.018
8.68693000 0.963430 94.113 0.267863 4.0615 0.267863 4.0615 0.963430 94.017
8.68693500 0.963429 94.113 0.267869 4.0612 0.267869 4.0612 0.963429 94.017
8.68694000 0.963427 94.112 0.267874 4.0608 0.267874 4.0608 0.963427 94.016
8.68694500 0.963426 94.112 0.267879 4.0604 0.267879 4.0604 0.963426 94.016
8.68695000 0.963424 94.112 0.267885 4.0601 0.267885 4.0601 0.963424 94.016
8.68695500 0.963423 94.111 0.267890 4.0597 0.267890 4.0597 0.963423 94.015
8.68696000 0.963421 94.111 0.267896 4.0593 0.267896 4.0593 0.963421 94.015