! Sonnet Data File
! From: emgraph Version : 16.52
! From Project: Qubit_Xmon2_brg
! Data is De-embedded 
! Data File Written: 10/24/2017 23:45:54
!< HDATE 10/24/2017 16:04:25
!< MDATE 10/24/2017 16:04:25
!< PARAMS
!< Lj = 11.0
!< Gap = 6.0
!< Pwid = 2000.0
!< Airgap = 6.0
!< Width = 10.0
!< Bwid = 8.0
!< Dis1 = 450.0
!< Dis2 = 456.0
!< END PARAMS
# GHZ S MA R 34.70000
8.68500000 0.989973 114.32 0.141230 24.248 0.141230 24.248 0.989973 114.17
!< P1 F=8.685 Eeff=(5.13559215 -5.6621e-5) Z0=(34.6542042 -9.3986e-5) R=0.0 C=0.0 
!< P2 F=8.685 Eeff=(5.13559215 -5.6621e-5) Z0=(34.6542042 -9.3986e-5) R=0.0 C=0.0 
8.68500500 0.989973 114.32 0.141230 24.248 0.141230 24.248 0.989973 114.17
8.68501000 0.989973 114.32 0.141230 24.248 0.141230 24.248 0.989973 114.17
8.68501500 0.989973 114.32 0.141230 24.248 0.141230 24.248 0.989973 114.17
8.68502000 0.989973 114.32 0.141230 24.248 0.141230 24.248 0.989973 114.17
8.68502500 0.989973 114.32 0.141230 24.248 0.141230 24.248 0.989973 114.17
8.68503000 0.989973 114.32 0.141230 24.248 0.141230 24.248 0.989973 114.17
8.68503500 0.989973 114.32 0.141230 24.248 0.141230 24.248 0.989973 114.17
8.68504000 0.989973 114.32 0.141230 24.247 0.141230 24.247 0.989973 114.17
8.68504500 0.989973 114.32 0.141231 24.247 0.141231 24.247 0.989973 114.17
8.68505000 0.989973 114.32 0.141231 24.247 0.141231 24.247 0.989973 114.17
8.68505500 0.989973 114.32 0.141231 24.247 0.141231 24.247 0.989973 114.17
8.68506000 0.989973 114.32 0.141231 24.247 0.141231 24.247 0.989973 114.17
8.68506500 0.989973 114.32 0.141231 24.247 0.141231 24.247 0.989973 114.17
8.68507000 0.989973 114.32 0.141231 24.247 0.141231 24.247 0.989973 114.17
8.68507500 0.989973 114.32 0.141231 24.247 0.141231 24.247 0.989973 114.17
8.68508000 0.989973 114.32 0.141231 24.247 0.141231 24.247 0.989973 114.17
8.68508500 0.989973 114.32 0.141231 24.247 0.141231 24.247 0.989973 114.17
8.68509000 0.989973 114.32 0.141231 24.247 0.141231 24.247 0.989973 114.17
8.68509500 0.989973 114.32 0.141231 24.247 0.141231 24.247 0.989973 114.17
8.68510000 0.989973 114.32 0.141232 24.247 0.141232 24.247 0.989973 114.17
8.68510500 0.989973 114.32 0.141232 24.247 0.141232 24.247 0.989973 114.17
8.68511000 0.989973 114.32 0.141232 24.247 0.141232 24.247 0.989973 114.17
8.68511500 0.989973 114.32 0.141232 24.247 0.141232 24.247 0.989973 114.17
8.68512000 0.989973 114.32 0.141232 24.247 0.141232 24.247 0.989973 114.17
8.68512500 0.989973 114.32 0.141232 24.247 0.141232 24.247 0.989973 114.17
8.68513000 0.989973 114.32 0.141232 24.247 0.141232 24.247 0.989973 114.17
8.68513500 0.989973 114.32 0.141232 24.247 0.141232 24.247 0.989973 114.17
8.68514000 0.989973 114.32 0.141232 24.247 0.141232 24.247 0.989973 114.17
8.68514500 0.989973 114.32 0.141232 24.247 0.141232 24.247 0.989973 114.17
8.68515000 0.989973 114.32 0.141233 24.247 0.141233 24.247 0.989973 114.17
8.68515500 0.989973 114.32 0.141233 24.247 0.141233 24.247 0.989973 114.17
8.68516000 0.989973 114.32 0.141233 24.247 0.141233 24.247 0.989973 114.17
8.68516500 0.989973 114.32 0.141233 24.246 0.141233 24.246 0.989973 114.17
8.68517000 0.989973 114.32 0.141233 24.246 0.141233 24.246 0.989973 114.17
8.68517500 0.989973 114.32 0.141233 24.246 0.141233 24.246 0.989973 114.17
8.68518000 0.989973 114.32 0.141233 24.246 0.141233 24.246 0.989973 114.17
8.68518500 0.989973 114.32 0.141233 24.246 0.141233 24.246 0.989973 114.17
8.68519000 0.989973 114.32 0.141233 24.246 0.141233 24.246 0.989973 114.17
8.68519500 0.989973 114.32 0.141233 24.246 0.141233 24.246 0.989973 114.17
8.68520000 0.989973 114.32 0.141234 24.246 0.141234 24.246 0.989973 114.17
8.68520500 0.989973 114.32 0.141234 24.246 0.141234 24.246 0.989973 114.17
8.68521000 0.989973 114.32 0.141234 24.246 0.141234 24.246 0.989973 114.17
8.68521500 0.989973 114.32 0.141234 24.246 0.141234 24.246 0.989973 114.17
8.68522000 0.989973 114.32 0.141234 24.246 0.141234 24.246 0.989973 114.17
8.68522500 0.989973 114.32 0.141234 24.246 0.141234 24.246 0.989973 114.17
8.68523000 0.989973 114.32 0.141234 24.246 0.141234 24.246 0.989973 114.17
8.68523500 0.989973 114.32 0.141234 24.246 0.141234 24.246 0.989973 114.17
8.68524000 0.989973 114.32 0.141234 24.246 0.141234 24.246 0.989973 114.17
8.68524500 0.989973 114.32 0.141234 24.246 0.141234 24.246 0.989973 114.17
8.68525000 0.989973 114.32 0.141234 24.246 0.141234 24.246 0.989973 114.17
8.68525500 0.989973 114.32 0.141235 24.246 0.141235 24.246 0.989973 114.17
8.68526000 0.989973 114.32 0.141235 24.246 0.141235 24.246 0.989973 114.17
8.68526500 0.989973 114.32 0.141235 24.246 0.141235 24.246 0.989972 114.17
8.68527000 0.989972 114.32 0.141235 24.246 0.141235 24.246 0.989972 114.17
8.68527500 0.989972 114.32 0.141235 24.246 0.141235 24.246 0.989972 114.17
8.68528000 0.989972 114.32 0.141235 24.246 0.141235 24.246 0.989972 114.17
8.68528500 0.989972 114.32 0.141235 24.246 0.141235 24.246 0.989972 114.17
8.68529000 0.989972 114.32 0.141235 24.246 0.141235 24.246 0.989972 114.17
8.68529500 0.989972 114.32 0.141235 24.245 0.141235 24.245 0.989972 114.17
8.68530000 0.989972 114.32 0.141235 24.245 0.141235 24.245 0.989972 114.17
8.68530500 0.989972 114.32 0.141236 24.245 0.141236 24.245 0.989972 114.17
8.68531000 0.989972 114.32 0.141236 24.245 0.141236 24.245 0.989972 114.17
8.68531500 0.989972 114.32 0.141236 24.245 0.141236 24.245 0.989972 114.17
8.68532000 0.989972 114.32 0.141236 24.245 0.141236 24.245 0.989972 114.17
8.68532500 0.989972 114.32 0.141236 24.245 0.141236 24.245 0.989972 114.17
8.68533000 0.989972 114.32 0.141236 24.245 0.141236 24.245 0.989972 114.17
8.68533500 0.989972 114.32 0.141236 24.245 0.141236 24.245 0.989972 114.17
8.68534000 0.989972 114.32 0.141236 24.245 0.141236 24.245 0.989972 114.17
8.68534500 0.989972 114.32 0.141236 24.245 0.141236 24.245 0.989972 114.17
8.68535000 0.989972 114.32 0.141236 24.245 0.141236 24.245 0.989972 114.17
8.68535500 0.989972 114.32 0.141237 24.245 0.141237 24.245 0.989972 114.17
8.68536000 0.989972 114.32 0.141237 24.245 0.141237 24.245 0.989972 114.17
8.68536500 0.989972 114.32 0.141237 24.245 0.141237 24.245 0.989972 114.17
8.68537000 0.989972 114.32 0.141237 24.245 0.141237 24.245 0.989972 114.17
8.68537500 0.989972 114.32 0.141237 24.245 0.141237 24.245 0.989972 114.17
8.68538000 0.989972 114.32 0.141237 24.245 0.141237 24.245 0.989972 114.17
8.68538500 0.989972 114.32 0.141237 24.245 0.141237 24.245 0.989972 114.17
8.68539000 0.989972 114.32 0.141237 24.245 0.141237 24.245 0.989972 114.17
8.68539500 0.989972 114.32 0.141237 24.245 0.141237 24.245 0.989972 114.17
8.68540000 0.989972 114.32 0.141237 24.245 0.141237 24.245 0.989972 114.17
8.68540500 0.989972 114.32 0.141237 24.245 0.141237 24.245 0.989972 114.17
8.68541000 0.989972 114.32 0.141238 24.245 0.141238 24.245 0.989972 114.17
8.68541500 0.989972 114.32 0.141238 24.245 0.141238 24.245 0.989972 114.17
8.68542000 0.989972 114.32 0.141238 24.245 0.141238 24.245 0.989972 114.17
8.68542500 0.989972 114.32 0.141238 24.244 0.141238 24.244 0.989972 114.17
8.68543000 0.989972 114.32 0.141238 24.244 0.141238 24.244 0.989972 114.17
8.68543500 0.989972 114.32 0.141238 24.244 0.141238 24.244 0.989972 114.17
8.68544000 0.989972 114.32 0.141238 24.244 0.141238 24.244 0.989972 114.17
8.68544500 0.989972 114.32 0.141238 24.244 0.141238 24.244 0.989972 114.17
8.68545000 0.989972 114.32 0.141238 24.244 0.141238 24.244 0.989972 114.17
8.68545500 0.989972 114.32 0.141238 24.244 0.141238 24.244 0.989972 114.17
8.68546000 0.989972 114.32 0.141239 24.244 0.141239 24.244 0.989972 114.17
8.68546500 0.989972 114.32 0.141239 24.244 0.141239 24.244 0.989972 114.17
8.68547000 0.989972 114.32 0.141239 24.244 0.141239 24.244 0.989972 114.17
8.68547500 0.989972 114.32 0.141239 24.244 0.141239 24.244 0.989972 114.17
8.68548000 0.989972 114.32 0.141239 24.244 0.141239 24.244 0.989972 114.17
8.68548500 0.989972 114.32 0.141239 24.244 0.141239 24.244 0.989972 114.17
8.68549000 0.989972 114.32 0.141239 24.244 0.141239 24.244 0.989972 114.17
8.68549500 0.989972 114.32 0.141239 24.244 0.141239 24.244 0.989972 114.17
8.68550000 0.989972 114.32 0.141239 24.244 0.141239 24.244 0.989972 114.17
8.68550500 0.989972 114.32 0.141239 24.244 0.141239 24.244 0.989972 114.17
8.68551000 0.989972 114.32 0.141240 24.244 0.141240 24.244 0.989972 114.17
8.68551500 0.989972 114.32 0.141240 24.244 0.141240 24.244 0.989972 114.17
8.68552000 0.989972 114.32 0.141240 24.244 0.141240 24.244 0.989972 114.17
8.68552500 0.989972 114.32 0.141240 24.244 0.141240 24.244 0.989972 114.17
8.68553000 0.989972 114.32 0.141240 24.244 0.141240 24.244 0.989972 114.17
8.68553500 0.989972 114.32 0.141240 24.244 0.141240 24.244 0.989972 114.17
8.68554000 0.989972 114.32 0.141240 24.244 0.141240 24.244 0.989972 114.17
8.68554500 0.989972 114.32 0.141240 24.244 0.141240 24.244 0.989972 114.17
8.68555000 0.989972 114.32 0.141240 24.244 0.141240 24.244 0.989972 114.17
8.68555500 0.989972 114.32 0.141240 24.243 0.141240 24.243 0.989972 114.17
8.68556000 0.989972 114.32 0.141240 24.243 0.141240 24.243 0.989972 114.17
8.68556500 0.989972 114.32 0.141241 24.243 0.141241 24.243 0.989972 114.17
8.68557000 0.989972 114.32 0.141241 24.243 0.141241 24.243 0.989972 114.17
8.68557500 0.989972 114.32 0.141241 24.243 0.141241 24.243 0.989972 114.17
8.68558000 0.989972 114.32 0.141241 24.243 0.141241 24.243 0.989972 114.17
8.68558500 0.989972 114.32 0.141241 24.243 0.141241 24.243 0.989972 114.17
8.68559000 0.989972 114.32 0.141241 24.243 0.141241 24.243 0.989972 114.17
8.68559500 0.989972 114.32 0.141241 24.243 0.141241 24.243 0.989972 114.17
8.68560000 0.989972 114.32 0.141241 24.243 0.141241 24.243 0.989972 114.17
8.68560500 0.989972 114.32 0.141241 24.243 0.141241 24.243 0.989972 114.17
8.68561000 0.989972 114.32 0.141241 24.243 0.141241 24.243 0.989972 114.17
8.68561500 0.989972 114.32 0.141242 24.243 0.141242 24.243 0.989972 114.17
8.68562000 0.989972 114.32 0.141242 24.243 0.141242 24.243 0.989972 114.17
8.68562500 0.989972 114.32 0.141242 24.243 0.141242 24.243 0.989972 114.17
8.68563000 0.989972 114.32 0.141242 24.243 0.141242 24.243 0.989971 114.17
8.68563500 0.989971 114.32 0.141242 24.243 0.141242 24.243 0.989971 114.17
8.68564000 0.989971 114.32 0.141242 24.243 0.141242 24.243 0.989971 114.17
8.68564500 0.989971 114.32 0.141242 24.243 0.141242 24.243 0.989971 114.17
8.68565000 0.989971 114.32 0.141242 24.243 0.141242 24.243 0.989971 114.17
8.68565500 0.989971 114.32 0.141242 24.243 0.141242 24.243 0.989971 114.17
8.68566000 0.989971 114.32 0.141242 24.243 0.141242 24.243 0.989971 114.17
8.68566500 0.989971 114.32 0.141243 24.243 0.141243 24.243 0.989971 114.17
8.68567000 0.989971 114.32 0.141243 24.243 0.141243 24.243 0.989971 114.17
8.68567500 0.989971 114.32 0.141243 24.243 0.141243 24.243 0.989971 114.17
8.68568000 0.989971 114.32 0.141243 24.243 0.141243 24.243 0.989971 114.17
8.68568500 0.989971 114.32 0.141243 24.242 0.141243 24.242 0.989971 114.17
8.68569000 0.989971 114.32 0.141243 24.242 0.141243 24.242 0.989971 114.17
8.68569500 0.989971 114.32 0.141243 24.242 0.141243 24.242 0.989971 114.17
8.68570000 0.989971 114.32 0.141243 24.242 0.141243 24.242 0.989971 114.17
8.68570500 0.989971 114.32 0.141243 24.242 0.141243 24.242 0.989971 114.17
8.68571000 0.989971 114.32 0.141243 24.242 0.141243 24.242 0.989971 114.17
8.68571500 0.989971 114.32 0.141244 24.242 0.141244 24.242 0.989971 114.17
8.68572000 0.989971 114.32 0.141244 24.242 0.141244 24.242 0.989971 114.17
8.68572500 0.989971 114.32 0.141244 24.242 0.141244 24.242 0.989971 114.17
8.68573000 0.989971 114.32 0.141244 24.242 0.141244 24.242 0.989971 114.17
8.68573500 0.989971 114.32 0.141244 24.242 0.141244 24.242 0.989971 114.17
8.68574000 0.989971 114.32 0.141244 24.242 0.141244 24.242 0.989971 114.17
8.68574500 0.989971 114.32 0.141244 24.242 0.141244 24.242 0.989971 114.17
8.68575000 0.989971 114.32 0.141244 24.242 0.141244 24.242 0.989971 114.17
8.68575500 0.989971 114.32 0.141244 24.242 0.141244 24.242 0.989971 114.17
8.68576000 0.989971 114.32 0.141244 24.242 0.141244 24.242 0.989971 114.17
8.68576500 0.989971 114.32 0.141244 24.242 0.141244 24.242 0.989971 114.17
8.68577000 0.989971 114.32 0.141245 24.242 0.141245 24.242 0.989971 114.17
8.68577500 0.989971 114.32 0.141245 24.242 0.141245 24.242 0.989971 114.16
8.68578000 0.989971 114.32 0.141245 24.242 0.141245 24.242 0.989971 114.16
8.68578500 0.989971 114.32 0.141245 24.242 0.141245 24.242 0.989971 114.16
8.68579000 0.989971 114.32 0.141245 24.242 0.141245 24.242 0.989971 114.16
8.68579500 0.989971 114.32 0.141245 24.242 0.141245 24.242 0.989971 114.16
8.68580000 0.989971 114.32 0.141245 24.242 0.141245 24.242 0.989971 114.16
8.68580500 0.989971 114.32 0.141245 24.242 0.141245 24.242 0.989971 114.16
8.68581000 0.989971 114.32 0.141245 24.242 0.141245 24.242 0.989971 114.16
8.68581500 0.989971 114.32 0.141245 24.241 0.141245 24.241 0.989971 114.16
8.68582000 0.989971 114.32 0.141246 24.241 0.141246 24.241 0.989971 114.16
8.68582500 0.989971 114.32 0.141246 24.241 0.141246 24.241 0.989971 114.16
8.68583000 0.989971 114.32 0.141246 24.241 0.141246 24.241 0.989971 114.16
8.68583500 0.989971 114.32 0.141246 24.241 0.141246 24.241 0.989971 114.16
8.68584000 0.989971 114.32 0.141246 24.241 0.141246 24.241 0.989971 114.16
8.68584500 0.989971 114.32 0.141246 24.241 0.141246 24.241 0.989971 114.16
8.68585000 0.989971 114.32 0.141246 24.241 0.141246 24.241 0.989971 114.16
8.68585500 0.989971 114.32 0.141246 24.241 0.141246 24.241 0.989971 114.16
8.68586000 0.989971 114.32 0.141246 24.241 0.141246 24.241 0.989971 114.16
8.68586500 0.989971 114.32 0.141246 24.241 0.141246 24.241 0.989971 114.16
8.68587000 0.989971 114.32 0.141247 24.241 0.141247 24.241 0.989971 114.16
8.68587500 0.989971 114.32 0.141247 24.241 0.141247 24.241 0.989971 114.16
8.68588000 0.989971 114.32 0.141247 24.241 0.141247 24.241 0.989971 114.16
8.68588500 0.989971 114.32 0.141247 24.241 0.141247 24.241 0.989971 114.16
8.68589000 0.989971 114.32 0.141247 24.241 0.141247 24.241 0.989971 114.16
8.68589500 0.989971 114.32 0.141247 24.241 0.141247 24.241 0.989971 114.16
8.68590000 0.989971 114.32 0.141247 24.241 0.141247 24.241 0.989971 114.16
8.68590500 0.989971 114.32 0.141247 24.241 0.141247 24.241 0.989971 114.16
8.68591000 0.989971 114.32 0.141247 24.241 0.141247 24.241 0.989971 114.16
8.68591500 0.989971 114.32 0.141247 24.241 0.141247 24.241 0.989971 114.16
8.68592000 0.989971 114.32 0.141247 24.241 0.141247 24.241 0.989971 114.16
8.68592500 0.989971 114.32 0.141248 24.241 0.141248 24.241 0.989971 114.16
8.68593000 0.989971 114.32 0.141248 24.241 0.141248 24.241 0.989971 114.16
8.68593500 0.989971 114.32 0.141248 24.241 0.141248 24.241 0.989971 114.16
8.68594000 0.989971 114.32 0.141248 24.241 0.141248 24.241 0.989971 114.16
8.68594500 0.989971 114.31 0.141248 24.240 0.141248 24.240 0.989971 114.16
8.68595000 0.989971 114.31 0.141248 24.240 0.141248 24.240 0.989971 114.16
8.68595500 0.989971 114.31 0.141248 24.240 0.141248 24.240 0.989971 114.16
8.68596000 0.989971 114.31 0.141248 24.240 0.141248 24.240 0.989971 114.16
8.68596500 0.989971 114.31 0.141248 24.240 0.141248 24.240 0.989971 114.16
8.68597000 0.989971 114.31 0.141248 24.240 0.141248 24.240 0.989971 114.16
8.68597500 0.989971 114.31 0.141249 24.240 0.141249 24.240 0.989971 114.16
8.68598000 0.989971 114.31 0.141249 24.240 0.141249 24.240 0.989971 114.16
8.68598500 0.989971 114.31 0.141249 24.240 0.141249 24.240 0.989971 114.16
8.68599000 0.989971 114.31 0.141249 24.240 0.141249 24.240 0.989970 114.16
8.68599500 0.989970 114.31 0.141249 24.240 0.141249 24.240 0.989970 114.16
8.68600000 0.989970 114.31 0.141249 24.240 0.141249 24.240 0.989970 114.16
8.68600500 0.989970 114.31 0.141249 24.240 0.141249 24.240 0.989970 114.16
8.68601000 0.989970 114.31 0.141249 24.240 0.141249 24.240 0.989970 114.16
8.68601500 0.989970 114.31 0.141249 24.240 0.141249 24.240 0.989970 114.16
8.68602000 0.989970 114.31 0.141249 24.240 0.141249 24.240 0.989970 114.16
8.68602500 0.989970 114.31 0.141250 24.240 0.141250 24.240 0.989970 114.16
8.68603000 0.989970 114.31 0.141250 24.240 0.141250 24.240 0.989970 114.16
8.68603500 0.989970 114.31 0.141250 24.240 0.141250 24.240 0.989970 114.16
8.68604000 0.989970 114.31 0.141250 24.240 0.141250 24.240 0.989970 114.16
8.68604500 0.989970 114.31 0.141250 24.240 0.141250 24.240 0.989970 114.16
8.68605000 0.989970 114.31 0.141250 24.240 0.141250 24.240 0.989970 114.16
8.68605500 0.989970 114.31 0.141250 24.240 0.141250 24.240 0.989970 114.16
8.68606000 0.989970 114.31 0.141250 24.240 0.141250 24.240 0.989970 114.16
8.68606500 0.989970 114.31 0.141250 24.240 0.141250 24.240 0.989970 114.16
8.68607000 0.989970 114.31 0.141250 24.240 0.141250 24.240 0.989970 114.16
8.68607500 0.989970 114.31 0.141250 24.239 0.141250 24.239 0.989970 114.16
8.68608000 0.989970 114.31 0.141251 24.239 0.141251 24.239 0.989970 114.16
8.68608500 0.989970 114.31 0.141251 24.239 0.141251 24.239 0.989970 114.16
8.68609000 0.989970 114.31 0.141251 24.239 0.141251 24.239 0.989970 114.16
8.68609500 0.989970 114.31 0.141251 24.239 0.141251 24.239 0.989970 114.16
8.68610000 0.989970 114.31 0.141251 24.239 0.141251 24.239 0.989970 114.16
8.68610500 0.989970 114.31 0.141251 24.239 0.141251 24.239 0.989970 114.16
8.68611000 0.989970 114.31 0.141251 24.239 0.141251 24.239 0.989970 114.16
8.68611500 0.989970 114.31 0.141251 24.239 0.141251 24.239 0.989970 114.16
8.68612000 0.989970 114.31 0.141251 24.239 0.141251 24.239 0.989970 114.16
8.68612500 0.989970 114.31 0.141251 24.239 0.141251 24.239 0.989970 114.16
8.68613000 0.989970 114.31 0.141252 24.239 0.141252 24.239 0.989970 114.16
8.68613500 0.989970 114.31 0.141252 24.239 0.141252 24.239 0.989970 114.16
8.68614000 0.989970 114.31 0.141252 24.239 0.141252 24.239 0.989970 114.16
8.68614500 0.989970 114.31 0.141252 24.239 0.141252 24.239 0.989970 114.16
8.68615000 0.989970 114.31 0.141252 24.239 0.141252 24.239 0.989970 114.16
8.68615500 0.989970 114.31 0.141252 24.239 0.141252 24.239 0.989970 114.16
8.68616000 0.989970 114.31 0.141252 24.239 0.141252 24.239 0.989970 114.16
8.68616500 0.989970 114.31 0.141252 24.239 0.141252 24.239 0.989970 114.16
8.68617000 0.989970 114.31 0.141252 24.239 0.141252 24.239 0.989970 114.16
8.68617500 0.989970 114.31 0.141252 24.239 0.141252 24.239 0.989970 114.16
8.68618000 0.989970 114.31 0.141253 24.239 0.141253 24.239 0.989970 114.16
8.68618500 0.989970 114.31 0.141253 24.239 0.141253 24.239 0.989970 114.16
8.68619000 0.989970 114.31 0.141253 24.239 0.141253 24.239 0.989970 114.16
8.68619500 0.989970 114.31 0.141253 24.239 0.141253 24.239 0.989970 114.16
8.68620000 0.989970 114.31 0.141253 24.239 0.141253 24.239 0.989970 114.16
8.68620500 0.989970 114.31 0.141253 24.238 0.141253 24.238 0.989970 114.16
8.68621000 0.989970 114.31 0.141253 24.238 0.141253 24.238 0.989970 114.16
8.68621500 0.989970 114.31 0.141253 24.238 0.141253 24.238 0.989970 114.16
8.68622000 0.989970 114.31 0.141253 24.238 0.141253 24.238 0.989970 114.16
8.68622500 0.989970 114.31 0.141253 24.238 0.141253 24.238 0.989970 114.16
8.68623000 0.989970 114.31 0.141253 24.238 0.141253 24.238 0.989970 114.16
8.68623500 0.989970 114.31 0.141254 24.238 0.141254 24.238 0.989970 114.16
8.68624000 0.989970 114.31 0.141254 24.238 0.141254 24.238 0.989970 114.16
8.68624500 0.989970 114.31 0.141254 24.238 0.141254 24.238 0.989970 114.16
8.68625000 0.989970 114.31 0.141254 24.238 0.141254 24.238 0.989970 114.16
8.68625500 0.989970 114.31 0.141254 24.238 0.141254 24.238 0.989970 114.16
8.68626000 0.989970 114.31 0.141254 24.238 0.141254 24.238 0.989970 114.16
8.68626500 0.989970 114.31 0.141254 24.238 0.141254 24.238 0.989970 114.16
8.68627000 0.989970 114.31 0.141254 24.238 0.141254 24.238 0.989970 114.16
8.68627500 0.989970 114.31 0.141254 24.238 0.141254 24.238 0.989970 114.16
8.68628000 0.989970 114.31 0.141254 24.238 0.141254 24.238 0.989970 114.16
8.68628500 0.989970 114.31 0.141255 24.238 0.141255 24.238 0.989970 114.16
8.68629000 0.989970 114.31 0.141255 24.238 0.141255 24.238 0.989970 114.16
8.68629500 0.989970 114.31 0.141255 24.238 0.141255 24.238 0.989970 114.16
8.68630000 0.989970 114.31 0.141255 24.238 0.141255 24.238 0.989970 114.16
8.68630500 0.989970 114.31 0.141255 24.238 0.141255 24.238 0.989970 114.16
8.68631000 0.989970 114.31 0.141255 24.238 0.141255 24.238 0.989970 114.16
8.68631500 0.989970 114.31 0.141255 24.238 0.141255 24.238 0.989970 114.16
8.68632000 0.989970 114.31 0.141255 24.238 0.141255 24.238 0.989970 114.16
8.68632500 0.989970 114.31 0.141255 24.238 0.141255 24.238 0.989970 114.16
8.68633000 0.989970 114.31 0.141255 24.237 0.141255 24.237 0.989970 114.16
8.68633500 0.989970 114.31 0.141256 24.237 0.141256 24.237 0.989970 114.16
8.68634000 0.989970 114.31 0.141256 24.237 0.141256 24.237 0.989970 114.16
8.68634500 0.989970 114.31 0.141256 24.237 0.141256 24.237 0.989970 114.16
8.68635000 0.989970 114.31 0.141256 24.237 0.141256 24.237 0.989969 114.16
8.68635500 0.989969 114.31 0.141256 24.237 0.141256 24.237 0.989969 114.16
8.68636000 0.989969 114.31 0.141256 24.237 0.141256 24.237 0.989969 114.16
8.68636500 0.989969 114.31 0.141256 24.237 0.141256 24.237 0.989969 114.16
8.68637000 0.989969 114.31 0.141256 24.237 0.141256 24.237 0.989969 114.16
8.68637500 0.989969 114.31 0.141256 24.237 0.141256 24.237 0.989969 114.16
8.68638000 0.989969 114.31 0.141256 24.237 0.141256 24.237 0.989969 114.16
8.68638500 0.989969 114.31 0.141256 24.237 0.141256 24.237 0.989969 114.16
8.68639000 0.989969 114.31 0.141257 24.237 0.141257 24.237 0.989969 114.16
8.68639500 0.989969 114.31 0.141257 24.237 0.141257 24.237 0.989969 114.16
8.68640000 0.989969 114.31 0.141257 24.237 0.141257 24.237 0.989969 114.16
8.68640500 0.989969 114.31 0.141257 24.237 0.141257 24.237 0.989969 114.16
8.68641000 0.989969 114.31 0.141257 24.237 0.141257 24.237 0.989969 114.16
8.68641500 0.989969 114.31 0.141257 24.237 0.141257 24.237 0.989969 114.16
8.68642000 0.989969 114.31 0.141257 24.237 0.141257 24.237 0.989969 114.16
8.68642500 0.989969 114.31 0.141257 24.237 0.141257 24.237 0.989969 114.16
8.68643000 0.989969 114.31 0.141257 24.237 0.141257 24.237 0.989969 114.16
8.68643500 0.989969 114.31 0.141257 24.237 0.141257 24.237 0.989969 114.16
8.68644000 0.989969 114.31 0.141258 24.237 0.141258 24.237 0.989969 114.16
8.68644500 0.989969 114.31 0.141258 24.237 0.141258 24.237 0.989969 114.16
8.68645000 0.989969 114.31 0.141258 24.237 0.141258 24.237 0.989969 114.16
8.68645500 0.989969 114.31 0.141258 24.237 0.141258 24.237 0.989969 114.16
8.68646000 0.989969 114.31 0.141258 24.236 0.141258 24.236 0.989969 114.16
8.68646500 0.989969 114.31 0.141258 24.236 0.141258 24.236 0.989969 114.16
8.68647000 0.989969 114.31 0.141258 24.236 0.141258 24.236 0.989969 114.16
8.68647500 0.989969 114.31 0.141258 24.236 0.141258 24.236 0.989969 114.16
8.68648000 0.989969 114.31 0.141258 24.236 0.141258 24.236 0.989969 114.16
8.68648500 0.989969 114.31 0.141258 24.236 0.141258 24.236 0.989969 114.16
8.68649000 0.989969 114.31 0.141259 24.236 0.141259 24.236 0.989969 114.16
8.68649500 0.989969 114.31 0.141259 24.236 0.141259 24.236 0.989969 114.16
8.68650000 0.989969 114.31 0.141259 24.236 0.141259 24.236 0.989969 114.16
8.68650500 0.989969 114.31 0.141259 24.236 0.141259 24.236 0.989969 114.16
8.68651000 0.989969 114.31 0.141259 24.236 0.141259 24.236 0.989969 114.16
8.68651500 0.989969 114.31 0.141259 24.236 0.141259 24.236 0.989969 114.16
8.68652000 0.989969 114.31 0.141259 24.236 0.141259 24.236 0.989969 114.16
8.68652500 0.989969 114.31 0.141259 24.236 0.141259 24.236 0.989969 114.16
8.68653000 0.989969 114.31 0.141259 24.236 0.141259 24.236 0.989969 114.16
8.68653500 0.989969 114.31 0.141259 24.236 0.141259 24.236 0.989969 114.16
8.68654000 0.989969 114.31 0.141259 24.236 0.141259 24.236 0.989969 114.16
8.68654500 0.989969 114.31 0.141260 24.236 0.141260 24.236 0.989969 114.16
8.68655000 0.989969 114.31 0.141260 24.236 0.141260 24.236 0.989969 114.16
8.68655500 0.989969 114.31 0.141260 24.236 0.141260 24.236 0.989969 114.16
8.68656000 0.989969 114.31 0.141260 24.236 0.141260 24.236 0.989969 114.16
8.68656500 0.989969 114.31 0.141260 24.236 0.141260 24.236 0.989969 114.16
8.68657000 0.989969 114.31 0.141260 24.236 0.141260 24.236 0.989969 114.16
8.68657500 0.989969 114.31 0.141260 24.236 0.141260 24.236 0.989969 114.16
8.68658000 0.989969 114.31 0.141260 24.236 0.141260 24.236 0.989969 114.16
8.68658500 0.989969 114.31 0.141260 24.236 0.141260 24.236 0.989969 114.16
8.68659000 0.989969 114.31 0.141260 24.235 0.141260 24.235 0.989969 114.16
8.68659500 0.989969 114.31 0.141261 24.235 0.141261 24.235 0.989969 114.16
8.68660000 0.989969 114.31 0.141261 24.235 0.141261 24.235 0.989969 114.16
8.68660500 0.989969 114.31 0.141261 24.235 0.141261 24.235 0.989969 114.16
8.68661000 0.989969 114.31 0.141261 24.235 0.141261 24.235 0.989969 114.16
8.68661500 0.989969 114.31 0.141261 24.235 0.141261 24.235 0.989969 114.16
8.68662000 0.989969 114.31 0.141261 24.235 0.141261 24.235 0.989969 114.16
8.68662500 0.989969 114.31 0.141261 24.235 0.141261 24.235 0.989969 114.16
8.68663000 0.989969 114.31 0.141261 24.235 0.141261 24.235 0.989969 114.16
8.68663500 0.989969 114.31 0.141261 24.235 0.141261 24.235 0.989969 114.16
8.68664000 0.989969 114.31 0.141261 24.235 0.141261 24.235 0.989969 114.16
8.68664500 0.989969 114.31 0.141262 24.235 0.141262 24.235 0.989969 114.16
8.68665000 0.989969 114.31 0.141262 24.235 0.141262 24.235 0.989969 114.16
8.68665500 0.989969 114.31 0.141262 24.235 0.141262 24.235 0.989969 114.16
8.68666000 0.989969 114.31 0.141262 24.235 0.141262 24.235 0.989969 114.16
8.68666500 0.989969 114.31 0.141262 24.235 0.141262 24.235 0.989969 114.16
8.68667000 0.989969 114.31 0.141262 24.235 0.141262 24.235 0.989969 114.16
8.68667500 0.989969 114.31 0.141262 24.235 0.141262 24.235 0.989969 114.16
8.68668000 0.989969 114.31 0.141262 24.235 0.141262 24.235 0.989969 114.16
8.68668500 0.989969 114.31 0.141262 24.235 0.141262 24.235 0.989969 114.16
8.68669000 0.989969 114.31 0.141262 24.235 0.141262 24.235 0.989969 114.16
8.68669500 0.989969 114.31 0.141263 24.235 0.141263 24.235 0.989969 114.16
8.68670000 0.989969 114.31 0.141263 24.235 0.141263 24.235 0.989969 114.16
8.68670500 0.989969 114.31 0.141263 24.235 0.141263 24.235 0.989969 114.16
8.68671000 0.989969 114.31 0.141263 24.235 0.141263 24.235 0.989969 114.16
8.68671500 0.989969 114.31 0.141263 24.235 0.141263 24.235 0.989968 114.16
8.68672000 0.989968 114.31 0.141263 24.234 0.141263 24.234 0.989968 114.16
8.68672500 0.989968 114.31 0.141263 24.234 0.141263 24.234 0.989968 114.16
8.68673000 0.989968 114.31 0.141263 24.234 0.141263 24.234 0.989968 114.16
8.68673500 0.989968 114.31 0.141263 24.234 0.141263 24.234 0.989968 114.16
8.68674000 0.989968 114.31 0.141263 24.234 0.141263 24.234 0.989968 114.16
8.68674500 0.989968 114.31 0.141263 24.234 0.141263 24.234 0.989968 114.16
8.68675000 0.989968 114.31 0.141264 24.234 0.141264 24.234 0.989968 114.16
8.68675500 0.989968 114.31 0.141264 24.234 0.141264 24.234 0.989968 114.16
8.68676000 0.989968 114.31 0.141264 24.234 0.141264 24.234 0.989968 114.16
8.68676500 0.989968 114.31 0.141264 24.234 0.141264 24.234 0.989968 114.16
8.68677000 0.989968 114.31 0.141264 24.234 0.141264 24.234 0.989968 114.16
8.68677500 0.989968 114.31 0.141264 24.234 0.141264 24.234 0.989968 114.16
8.68678000 0.989968 114.31 0.141264 24.234 0.141264 24.234 0.989968 114.16
8.68678500 0.989968 114.31 0.141264 24.234 0.141264 24.234 0.989968 114.16
8.68679000 0.989968 114.31 0.141264 24.234 0.141264 24.234 0.989968 114.16
8.68679500 0.989968 114.31 0.141264 24.234 0.141264 24.234 0.989968 114.16
8.68680000 0.989968 114.31 0.141265 24.234 0.141265 24.234 0.989968 114.16
8.68680500 0.989968 114.31 0.141265 24.234 0.141265 24.234 0.989968 114.16
8.68681000 0.989968 114.31 0.141265 24.234 0.141265 24.234 0.989968 114.16
8.68681500 0.989968 114.31 0.141265 24.234 0.141265 24.234 0.989968 114.16
8.68682000 0.989968 114.31 0.141265 24.234 0.141265 24.234 0.989968 114.16
8.68682500 0.989968 114.31 0.141265 24.234 0.141265 24.234 0.989968 114.16
8.68683000 0.989968 114.31 0.141265 24.234 0.141265 24.234 0.989968 114.16
8.68683500 0.989968 114.31 0.141265 24.234 0.141265 24.234 0.989968 114.16
8.68684000 0.989968 114.31 0.141265 24.234 0.141265 24.234 0.989968 114.16
8.68684500 0.989968 114.31 0.141265 24.234 0.141265 24.234 0.989968 114.16
8.68685000 0.989968 114.31 0.141266 24.233 0.141266 24.233 0.989968 114.16
8.68685500 0.989968 114.31 0.141266 24.233 0.141266 24.233 0.989968 114.16
8.68686000 0.989968 114.31 0.141266 24.233 0.141266 24.233 0.989968 114.16
8.68686500 0.989968 114.31 0.141266 24.233 0.141266 24.233 0.989968 114.16
8.68687000 0.989968 114.31 0.141266 24.233 0.141266 24.233 0.989968 114.16
8.68687500 0.989968 114.31 0.141266 24.233 0.141266 24.233 0.989968 114.16
8.68688000 0.989968 114.31 0.141266 24.233 0.141266 24.233 0.989968 114.16
8.68688500 0.989968 114.31 0.141266 24.233 0.141266 24.233 0.989968 114.16
8.68689000 0.989968 114.31 0.141266 24.233 0.141266 24.233 0.989968 114.16
8.68689500 0.989968 114.31 0.141266 24.233 0.141266 24.233 0.989968 114.16
8.68690000 0.989968 114.31 0.141266 24.233 0.141266 24.233 0.989968 114.16
8.68690500 0.989968 114.31 0.141267 24.233 0.141267 24.233 0.989968 114.16
8.68691000 0.989968 114.31 0.141267 24.233 0.141267 24.233 0.989968 114.16
8.68691500 0.989968 114.31 0.141267 24.233 0.141267 24.233 0.989968 114.16
8.68692000 0.989968 114.31 0.141267 24.233 0.141267 24.233 0.989968 114.16
8.68692500 0.989968 114.31 0.141267 24.233 0.141267 24.233 0.989968 114.16
8.68693000 0.989968 114.31 0.141267 24.233 0.141267 24.233 0.989968 114.16
8.68693500 0.989968 114.31 0.141267 24.233 0.141267 24.233 0.989968 114.16
8.68694000 0.989968 114.31 0.141267 24.233 0.141267 24.233 0.989968 114.16
8.68694500 0.989968 114.31 0.141267 24.233 0.141267 24.233 0.989968 114.16
8.68695000 0.989968 114.31 0.141267 24.233 0.141267 24.233 0.989968 114.16
8.68695500 0.989968 114.31 0.141268 24.233 0.141268 24.233 0.989968 114.16