! Sonnet Data File
! From: emgraph Version : 16.52
! From Project: Qubit_Xmon2_brg
! Data is De-embedded 
! Data File Written: 10/25/2017 20:12:53
!< HDATE 10/25/2017 15:44:55
!< MDATE 10/25/2017 15:44:55
!< PARAMS
!< Lj = 11.0
!< Gap = 6.0
!< Pwid = 2000.0
!< Airgap = 6.0
!< Width = 10.0
!< Bwid = 50.0
!< Dis1 = 350.0
!< Dis2 = 356.0
!< END PARAMS
# GHZ S MA R 34.70000
8.68500000 0.989052 112.20 0.147514 22.117 0.147514 22.117 0.989052 112.04
!< P1 F=8.685 Eeff=(5.13559215 -5.6621e-5) Z0=(34.6542042 -9.3986e-5) R=0.0 C=0.0 
!< P2 F=8.685 Eeff=(5.13559215 -5.6621e-5) Z0=(34.6542042 -9.3986e-5) R=0.0 C=0.0 
8.68500500 0.989052 112.20 0.147515 22.117 0.147515 22.117 0.989052 112.04
8.68501000 0.989052 112.20 0.147516 22.117 0.147516 22.117 0.989052 112.04
8.68501500 0.989052 112.20 0.147517 22.117 0.147517 22.117 0.989052 112.04
8.68502000 0.989052 112.20 0.147518 22.117 0.147518 22.117 0.989052 112.04
8.68502500 0.989052 112.20 0.147519 22.116 0.147519 22.116 0.989052 112.04
8.68503000 0.989052 112.20 0.147520 22.116 0.147520 22.116 0.989051 112.04
8.68503500 0.989051 112.20 0.147521 22.116 0.147521 22.116 0.989051 112.04
8.68504000 0.989051 112.20 0.147522 22.116 0.147522 22.116 0.989051 112.04
8.68504500 0.989051 112.20 0.147524 22.116 0.147524 22.116 0.989051 112.04
8.68505000 0.989051 112.20 0.147525 22.116 0.147525 22.116 0.989051 112.04
8.68505500 0.989051 112.20 0.147526 22.116 0.147526 22.116 0.989051 112.04
8.68506000 0.989051 112.19 0.147527 22.116 0.147527 22.116 0.989050 112.04
8.68506500 0.989050 112.19 0.147528 22.116 0.147528 22.116 0.989050 112.04
8.68507000 0.989050 112.19 0.147529 22.116 0.147529 22.116 0.989050 112.04
8.68507500 0.989050 112.19 0.147530 22.115 0.147530 22.115 0.989050 112.04
8.68508000 0.989050 112.19 0.147531 22.115 0.147531 22.115 0.989050 112.04
8.68508500 0.989050 112.19 0.147532 22.115 0.147532 22.115 0.989050 112.04
8.68509000 0.989049 112.19 0.147533 22.115 0.147533 22.115 0.989049 112.04
8.68509500 0.989049 112.19 0.147534 22.115 0.147534 22.115 0.989049 112.04
8.68510000 0.989049 112.19 0.147536 22.115 0.147536 22.115 0.989049 112.04
8.68510500 0.989049 112.19 0.147537 22.115 0.147537 22.115 0.989049 112.04
8.68511000 0.989049 112.19 0.147538 22.115 0.147538 22.115 0.989049 112.04
8.68511500 0.989049 112.19 0.147539 22.115 0.147539 22.115 0.989049 112.04
8.68512000 0.989048 112.19 0.147540 22.115 0.147540 22.115 0.989048 112.04
8.68512500 0.989048 112.19 0.147541 22.114 0.147541 22.114 0.989048 112.04
8.68513000 0.989048 112.19 0.147542 22.114 0.147542 22.114 0.989048 112.04
8.68513500 0.989048 112.19 0.147543 22.114 0.147543 22.114 0.989048 112.04
8.68514000 0.989048 112.19 0.147544 22.114 0.147544 22.114 0.989048 112.04
8.68514500 0.989048 112.19 0.147546 22.114 0.147546 22.114 0.989048 112.04
8.68515000 0.989047 112.19 0.147547 22.114 0.147547 22.114 0.989047 112.04
8.68515500 0.989047 112.19 0.147548 22.114 0.147548 22.114 0.989047 112.04
8.68516000 0.989047 112.19 0.147549 22.114 0.147549 22.114 0.989047 112.04
8.68516500 0.989047 112.19 0.147550 22.114 0.147550 22.114 0.989047 112.04
8.68517000 0.989047 112.19 0.147551 22.114 0.147551 22.114 0.989047 112.03
8.68517500 0.989047 112.19 0.147552 22.113 0.147552 22.113 0.989047 112.03
8.68518000 0.989046 112.19 0.147553 22.113 0.147553 22.113 0.989046 112.03
8.68518500 0.989046 112.19 0.147555 22.113 0.147555 22.113 0.989046 112.03
8.68519000 0.989046 112.19 0.147556 22.113 0.147556 22.113 0.989046 112.03
8.68519500 0.989046 112.19 0.147557 22.113 0.147557 22.113 0.989046 112.03
8.68520000 0.989046 112.19 0.147558 22.113 0.147558 22.113 0.989046 112.03
8.68520500 0.989046 112.19 0.147559 22.113 0.147559 22.113 0.989046 112.03
8.68521000 0.989045 112.19 0.147560 22.113 0.147560 22.113 0.989045 112.03
8.68521500 0.989045 112.19 0.147561 22.113 0.147561 22.113 0.989045 112.03
8.68522000 0.989045 112.19 0.147562 22.113 0.147562 22.113 0.989045 112.03
8.68522500 0.989045 112.19 0.147564 22.112 0.147564 22.112 0.989045 112.03
8.68523000 0.989045 112.19 0.147565 22.112 0.147565 22.112 0.989045 112.03
8.68523500 0.989045 112.19 0.147566 22.112 0.147566 22.112 0.989044 112.03
8.68524000 0.989044 112.19 0.147567 22.112 0.147567 22.112 0.989044 112.03
8.68524500 0.989044 112.19 0.147568 22.112 0.147568 22.112 0.989044 112.03
8.68525000 0.989044 112.19 0.147569 22.112 0.147569 22.112 0.989044 112.03
8.68525500 0.989044 112.19 0.147570 22.112 0.147570 22.112 0.989044 112.03
8.68526000 0.989044 112.19 0.147571 22.112 0.147571 22.112 0.989044 112.03
8.68526500 0.989043 112.19 0.147573 22.112 0.147573 22.112 0.989043 112.03
8.68527000 0.989043 112.19 0.147574 22.112 0.147574 22.112 0.989043 112.03
8.68527500 0.989043 112.19 0.147575 22.111 0.147575 22.111 0.989043 112.03
8.68528000 0.989043 112.19 0.147576 22.111 0.147576 22.111 0.989043 112.03
8.68528500 0.989043 112.19 0.147577 22.111 0.147577 22.111 0.989043 112.03
8.68529000 0.989043 112.19 0.147578 22.111 0.147578 22.111 0.989043 112.03
8.68529500 0.989042 112.19 0.147579 22.111 0.147579 22.111 0.989042 112.03
8.68530000 0.989042 112.19 0.147581 22.111 0.147581 22.111 0.989042 112.03
8.68530500 0.989042 112.19 0.147582 22.111 0.147582 22.111 0.989042 112.03
8.68531000 0.989042 112.19 0.147583 22.111 0.147583 22.111 0.989042 112.03
8.68531500 0.989042 112.19 0.147584 22.111 0.147584 22.111 0.989042 112.03
8.68532000 0.989042 112.19 0.147585 22.111 0.147585 22.111 0.989041 112.03
8.68532500 0.989041 112.19 0.147586 22.110 0.147586 22.110 0.989041 112.03
8.68533000 0.989041 112.19 0.147588 22.110 0.147588 22.110 0.989041 112.03
8.68533500 0.989041 112.19 0.147589 22.110 0.147589 22.110 0.989041 112.03
8.68534000 0.989041 112.19 0.147590 22.110 0.147590 22.110 0.989041 112.03
8.68534500 0.989041 112.19 0.147591 22.110 0.147591 22.110 0.989041 112.03
8.68535000 0.989040 112.19 0.147592 22.110 0.147592 22.110 0.989040 112.03
8.68535500 0.989040 112.19 0.147593 22.110 0.147593 22.110 0.989040 112.03
8.68536000 0.989040 112.19 0.147595 22.110 0.147595 22.110 0.989040 112.03
8.68536500 0.989040 112.19 0.147596 22.110 0.147596 22.110 0.989040 112.03
8.68537000 0.989040 112.19 0.147597 22.109 0.147597 22.109 0.989040 112.03
8.68537500 0.989040 112.19 0.147598 22.109 0.147598 22.109 0.989040 112.03
8.68538000 0.989039 112.19 0.147599 22.109 0.147599 22.109 0.989039 112.03
8.68538500 0.989039 112.19 0.147600 22.109 0.147600 22.109 0.989039 112.03
8.68539000 0.989039 112.19 0.147602 22.109 0.147602 22.109 0.989039 112.03
8.68539500 0.989039 112.19 0.147603 22.109 0.147603 22.109 0.989039 112.03
8.68540000 0.989039 112.19 0.147604 22.109 0.147604 22.109 0.989039 112.03
8.68540500 0.989039 112.19 0.147605 22.109 0.147605 22.109 0.989038 112.03
8.68541000 0.989038 112.19 0.147606 22.109 0.147606 22.109 0.989038 112.03
8.68541500 0.989038 112.19 0.147607 22.109 0.147607 22.109 0.989038 112.03
8.68542000 0.989038 112.19 0.147609 22.108 0.147609 22.108 0.989038 112.03
8.68542500 0.989038 112.19 0.147610 22.108 0.147610 22.108 0.989038 112.03
8.68543000 0.989038 112.19 0.147611 22.108 0.147611 22.108 0.989038 112.03
8.68543500 0.989037 112.19 0.147612 22.108 0.147612 22.108 0.989037 112.03
8.68544000 0.989037 112.19 0.147613 22.108 0.147613 22.108 0.989037 112.03
8.68544500 0.989037 112.19 0.147614 22.108 0.147614 22.108 0.989037 112.03
8.68545000 0.989037 112.19 0.147616 22.108 0.147616 22.108 0.989037 112.03
8.68545500 0.989037 112.19 0.147617 22.108 0.147617 22.108 0.989037 112.03
8.68546000 0.989037 112.19 0.147618 22.108 0.147618 22.108 0.989036 112.03
8.68546500 0.989036 112.19 0.147619 22.107 0.147619 22.107 0.989036 112.03
8.68547000 0.989036 112.19 0.147620 22.107 0.147620 22.107 0.989036 112.03
8.68547500 0.989036 112.19 0.147622 22.107 0.147622 22.107 0.989036 112.03
8.68548000 0.989036 112.19 0.147623 22.107 0.147623 22.107 0.989036 112.03
8.68548500 0.989036 112.19 0.147624 22.107 0.147624 22.107 0.989036 112.03
8.68549000 0.989035 112.19 0.147625 22.107 0.147625 22.107 0.989035 112.03
8.68549500 0.989035 112.19 0.147626 22.107 0.147626 22.107 0.989035 112.03
8.68550000 0.989035 112.19 0.147628 22.107 0.147628 22.107 0.989035 112.03
8.68550500 0.989035 112.19 0.147629 22.107 0.147629 22.107 0.989035 112.03
8.68551000 0.989035 112.19 0.147630 22.107 0.147630 22.107 0.989035 112.03
8.68551500 0.989035 112.19 0.147631 22.106 0.147631 22.106 0.989034 112.03
8.68552000 0.989034 112.19 0.147632 22.106 0.147632 22.106 0.989034 112.03
8.68552500 0.989034 112.19 0.147634 22.106 0.147634 22.106 0.989034 112.03
8.68553000 0.989034 112.19 0.147635 22.106 0.147635 22.106 0.989034 112.03
8.68553500 0.989034 112.19 0.147636 22.106 0.147636 22.106 0.989034 112.03
8.68554000 0.989034 112.19 0.147637 22.106 0.147637 22.106 0.989034 112.03
8.68554500 0.989033 112.19 0.147638 22.106 0.147638 22.106 0.989033 112.03
8.68555000 0.989033 112.19 0.147640 22.106 0.147640 22.106 0.989033 112.03
8.68555500 0.989033 112.19 0.147641 22.106 0.147641 22.106 0.989033 112.03
8.68556000 0.989033 112.18 0.147642 22.105 0.147642 22.105 0.989033 112.03
8.68556500 0.989033 112.18 0.147643 22.105 0.147643 22.105 0.989033 112.03
8.68557000 0.989032 112.18 0.147645 22.105 0.147645 22.105 0.989032 112.03
8.68557500 0.989032 112.18 0.147646 22.105 0.147646 22.105 0.989032 112.03
8.68558000 0.989032 112.18 0.147647 22.105 0.147647 22.105 0.989032 112.03
8.68558500 0.989032 112.18 0.147648 22.105 0.147648 22.105 0.989032 112.03
8.68559000 0.989032 112.18 0.147649 22.105 0.147649 22.105 0.989032 112.03
8.68559500 0.989032 112.18 0.147651 22.105 0.147651 22.105 0.989031 112.03
8.68560000 0.989031 112.18 0.147652 22.105 0.147652 22.105 0.989031 112.03
8.68560500 0.989031 112.18 0.147653 22.105 0.147653 22.105 0.989031 112.03
8.68561000 0.989031 112.18 0.147654 22.104 0.147654 22.104 0.989031 112.03
8.68561500 0.989031 112.18 0.147656 22.104 0.147656 22.104 0.989031 112.03
8.68562000 0.989031 112.18 0.147657 22.104 0.147657 22.104 0.989031 112.03
8.68562500 0.989030 112.18 0.147658 22.104 0.147658 22.104 0.989030 112.03
8.68563000 0.989030 112.18 0.147659 22.104 0.147659 22.104 0.989030 112.03
8.68563500 0.989030 112.18 0.147661 22.104 0.147661 22.104 0.989030 112.03
8.68564000 0.989030 112.18 0.147662 22.104 0.147662 22.104 0.989030 112.03
8.68564500 0.989030 112.18 0.147663 22.104 0.147663 22.104 0.989030 112.03
8.68565000 0.989029 112.18 0.147664 22.104 0.147664 22.104 0.989029 112.03
8.68565500 0.989029 112.18 0.147666 22.103 0.147666 22.103 0.989029 112.02
8.68566000 0.989029 112.18 0.147667 22.103 0.147667 22.103 0.989029 112.02
8.68566500 0.989029 112.18 0.147668 22.103 0.147668 22.103 0.989029 112.02
8.68567000 0.989029 112.18 0.147669 22.103 0.147669 22.103 0.989029 112.02
8.68567500 0.989028 112.18 0.147671 22.103 0.147671 22.103 0.989028 112.02
8.68568000 0.989028 112.18 0.147672 22.103 0.147672 22.103 0.989028 112.02
8.68568500 0.989028 112.18 0.147673 22.103 0.147673 22.103 0.989028 112.02
8.68569000 0.989028 112.18 0.147674 22.103 0.147674 22.103 0.989028 112.02
8.68569500 0.989028 112.18 0.147676 22.103 0.147676 22.103 0.989028 112.02
8.68570000 0.989028 112.18 0.147677 22.102 0.147677 22.102 0.989027 112.02
8.68570500 0.989027 112.18 0.147678 22.102 0.147678 22.102 0.989027 112.02
8.68571000 0.989027 112.18 0.147679 22.102 0.147679 22.102 0.989027 112.02
8.68571500 0.989027 112.18 0.147681 22.102 0.147681 22.102 0.989027 112.02
8.68572000 0.989027 112.18 0.147682 22.102 0.147682 22.102 0.989027 112.02
8.68572500 0.989027 112.18 0.147683 22.102 0.147683 22.102 0.989026 112.02
8.68573000 0.989026 112.18 0.147684 22.102 0.147684 22.102 0.989026 112.02
8.68573500 0.989026 112.18 0.147686 22.102 0.147686 22.102 0.989026 112.02
8.68574000 0.989026 112.18 0.147687 22.102 0.147687 22.102 0.989026 112.02
8.68574500 0.989026 112.18 0.147688 22.101 0.147688 22.101 0.989026 112.02
8.68575000 0.989026 112.18 0.147689 22.101 0.147689 22.101 0.989026 112.02
8.68575500 0.989025 112.18 0.147691 22.101 0.147691 22.101 0.989025 112.02
8.68576000 0.989025 112.18 0.147692 22.101 0.147692 22.101 0.989025 112.02
8.68576500 0.989025 112.18 0.147693 22.101 0.147693 22.101 0.989025 112.02
8.68577000 0.989025 112.18 0.147695 22.101 0.147695 22.101 0.989025 112.02
8.68577500 0.989025 112.18 0.147696 22.101 0.147696 22.101 0.989025 112.02
8.68578000 0.989024 112.18 0.147697 22.101 0.147697 22.101 0.989024 112.02
8.68578500 0.989024 112.18 0.147698 22.101 0.147698 22.101 0.989024 112.02
8.68579000 0.989024 112.18 0.147700 22.100 0.147700 22.100 0.989024 112.02
8.68579500 0.989024 112.18 0.147701 22.100 0.147701 22.100 0.989024 112.02
8.68580000 0.989024 112.18 0.147702 22.100 0.147702 22.100 0.989024 112.02
8.68580500 0.989023 112.18 0.147703 22.100 0.147703 22.100 0.989023 112.02
8.68581000 0.989023 112.18 0.147705 22.100 0.147705 22.100 0.989023 112.02
8.68581500 0.989023 112.18 0.147706 22.100 0.147706 22.100 0.989023 112.02
8.68582000 0.989023 112.18 0.147707 22.100 0.147707 22.100 0.989023 112.02
8.68582500 0.989023 112.18 0.147709 22.100 0.147709 22.100 0.989023 112.02
8.68583000 0.989022 112.18 0.147710 22.100 0.147710 22.100 0.989022 112.02
8.68583500 0.989022 112.18 0.147711 22.099 0.147711 22.099 0.989022 112.02
8.68584000 0.989022 112.18 0.147713 22.099 0.147713 22.099 0.989022 112.02
8.68584500 0.989022 112.18 0.147714 22.099 0.147714 22.099 0.989022 112.02
8.68585000 0.989022 112.18 0.147715 22.099 0.147715 22.099 0.989022 112.02
8.68585500 0.989021 112.18 0.147716 22.099 0.147716 22.099 0.989021 112.02
8.68586000 0.989021 112.18 0.147718 22.099 0.147718 22.099 0.989021 112.02
8.68586500 0.989021 112.18 0.147719 22.099 0.147719 22.099 0.989021 112.02
8.68587000 0.989021 112.18 0.147720 22.099 0.147720 22.099 0.989021 112.02
8.68587500 0.989021 112.18 0.147722 22.099 0.147722 22.099 0.989021 112.02
8.68588000 0.989020 112.18 0.147723 22.098 0.147723 22.098 0.989020 112.02
8.68588500 0.989020 112.18 0.147724 22.098 0.147724 22.098 0.989020 112.02
8.68589000 0.989020 112.18 0.147726 22.098 0.147726 22.098 0.989020 112.02
8.68589500 0.989020 112.18 0.147727 22.098 0.147727 22.098 0.989020 112.02
8.68590000 0.989020 112.18 0.147728 22.098 0.147728 22.098 0.989020 112.02
8.68590500 0.989019 112.18 0.147730 22.098 0.147730 22.098 0.989019 112.02
8.68591000 0.989019 112.18 0.147731 22.098 0.147731 22.098 0.989019 112.02
8.68591500 0.989019 112.18 0.147732 22.098 0.147732 22.098 0.989019 112.02
8.68592000 0.989019 112.18 0.147733 22.098 0.147733 22.098 0.989019 112.02
8.68592500 0.989019 112.18 0.147735 22.097 0.147735 22.097 0.989019 112.02
8.68593000 0.989018 112.18 0.147736 22.097 0.147736 22.097 0.989018 112.02
8.68593500 0.989018 112.18 0.147737 22.097 0.147737 22.097 0.989018 112.02
8.68594000 0.989018 112.18 0.147739 22.097 0.147739 22.097 0.989018 112.02
8.68594500 0.989018 112.18 0.147740 22.097 0.147740 22.097 0.989018 112.02
8.68595000 0.989018 112.18 0.147741 22.097 0.147741 22.097 0.989017 112.02
8.68595500 0.989017 112.18 0.147743 22.097 0.147743 22.097 0.989017 112.02
8.68596000 0.989017 112.18 0.147744 22.097 0.147744 22.097 0.989017 112.02
8.68596500 0.989017 112.18 0.147745 22.097 0.147745 22.097 0.989017 112.02
8.68597000 0.989017 112.18 0.147747 22.096 0.147747 22.096 0.989017 112.02
8.68597500 0.989017 112.18 0.147748 22.096 0.147748 22.096 0.989016 112.02
8.68598000 0.989016 112.18 0.147749 22.096 0.147749 22.096 0.989016 112.02
8.68598500 0.989016 112.18 0.147751 22.096 0.147751 22.096 0.989016 112.02
8.68599000 0.989016 112.18 0.147752 22.096 0.147752 22.096 0.989016 112.02
8.68599500 0.989016 112.18 0.147753 22.096 0.147753 22.096 0.989016 112.02
8.68600000 0.989016 112.18 0.147755 22.096 0.147755 22.096 0.989015 112.02
8.68600500 0.989015 112.18 0.147756 22.096 0.147756 22.096 0.989015 112.02
8.68601000 0.989015 112.18 0.147758 22.096 0.147758 22.096 0.989015 112.02
8.68601500 0.989015 112.18 0.147759 22.095 0.147759 22.095 0.989015 112.02
8.68602000 0.989015 112.17 0.147760 22.095 0.147760 22.095 0.989015 112.02
8.68602500 0.989014 112.17 0.147762 22.095 0.147762 22.095 0.989014 112.02
8.68603000 0.989014 112.17 0.147763 22.095 0.147763 22.095 0.989014 112.02
8.68603500 0.989014 112.17 0.147764 22.095 0.147764 22.095 0.989014 112.02
8.68604000 0.989014 112.17 0.147766 22.095 0.147766 22.095 0.989014 112.02
8.68604500 0.989014 112.17 0.147767 22.095 0.147767 22.095 0.989014 112.02
8.68605000 0.989013 112.17 0.147768 22.095 0.147768 22.095 0.989013 112.02
8.68605500 0.989013 112.17 0.147770 22.095 0.147770 22.095 0.989013 112.02
8.68606000 0.989013 112.17 0.147771 22.094 0.147771 22.094 0.989013 112.02
8.68606500 0.989013 112.17 0.147772 22.094 0.147772 22.094 0.989013 112.02
8.68607000 0.989013 112.17 0.147774 22.094 0.147774 22.094 0.989013 112.02
8.68607500 0.989012 112.17 0.147775 22.094 0.147775 22.094 0.989012 112.02
8.68608000 0.989012 112.17 0.147777 22.094 0.147777 22.094 0.989012 112.02
8.68608500 0.989012 112.17 0.147778 22.094 0.147778 22.094 0.989012 112.02
8.68609000 0.989012 112.17 0.147779 22.094 0.147779 22.094 0.989012 112.02
8.68609500 0.989012 112.17 0.147781 22.094 0.147781 22.094 0.989011 112.02
8.68610000 0.989011 112.17 0.147782 22.093 0.147782 22.093 0.989011 112.02
8.68610500 0.989011 112.17 0.147784 22.093 0.147784 22.093 0.989011 112.02
8.68611000 0.989011 112.17 0.147785 22.093 0.147785 22.093 0.989011 112.01
8.68611500 0.989011 112.17 0.147786 22.093 0.147786 22.093 0.989011 112.01
8.68612000 0.989010 112.17 0.147788 22.093 0.147788 22.093 0.989010 112.01
8.68612500 0.989010 112.17 0.147789 22.093 0.147789 22.093 0.989010 112.01
8.68613000 0.989010 112.17 0.147790 22.093 0.147790 22.093 0.989010 112.01
8.68613500 0.989010 112.17 0.147792 22.093 0.147792 22.093 0.989010 112.01
8.68614000 0.989010 112.17 0.147793 22.093 0.147793 22.093 0.989010 112.01
8.68614500 0.989009 112.17 0.147795 22.092 0.147795 22.092 0.989009 112.01
8.68615000 0.989009 112.17 0.147796 22.092 0.147796 22.092 0.989009 112.01
8.68615500 0.989009 112.17 0.147797 22.092 0.147797 22.092 0.989009 112.01
8.68616000 0.989009 112.17 0.147799 22.092 0.147799 22.092 0.989009 112.01
8.68616500 0.989009 112.17 0.147800 22.092 0.147800 22.092 0.989008 112.01
8.68617000 0.989008 112.17 0.147802 22.092 0.147802 22.092 0.989008 112.01
8.68617500 0.989008 112.17 0.147803 22.092 0.147803 22.092 0.989008 112.01
8.68618000 0.989008 112.17 0.147804 22.092 0.147804 22.092 0.989008 112.01
8.68618500 0.989008 112.17 0.147806 22.091 0.147806 22.091 0.989008 112.01
8.68619000 0.989007 112.17 0.147807 22.091 0.147807 22.091 0.989007 112.01
8.68619500 0.989007 112.17 0.147809 22.091 0.147809 22.091 0.989007 112.01
8.68620000 0.989007 112.17 0.147810 22.091 0.147810 22.091 0.989007 112.01
8.68620500 0.989007 112.17 0.147811 22.091 0.147811 22.091 0.989007 112.01
8.68621000 0.989007 112.17 0.147813 22.091 0.147813 22.091 0.989006 112.01
8.68621500 0.989006 112.17 0.147814 22.091 0.147814 22.091 0.989006 112.01
8.68622000 0.989006 112.17 0.147816 22.091 0.147816 22.091 0.989006 112.01
8.68622500 0.989006 112.17 0.147817 22.091 0.147817 22.091 0.989006 112.01
8.68623000 0.989006 112.17 0.147819 22.090 0.147819 22.090 0.989006 112.01
8.68623500 0.989005 112.17 0.147820 22.090 0.147820 22.090 0.989005 112.01
8.68624000 0.989005 112.17 0.147821 22.090 0.147821 22.090 0.989005 112.01
8.68624500 0.989005 112.17 0.147823 22.090 0.147823 22.090 0.989005 112.01
8.68625000 0.989005 112.17 0.147824 22.090 0.147824 22.090 0.989005 112.01
8.68625500 0.989005 112.17 0.147826 22.090 0.147826 22.090 0.989005 112.01
8.68626000 0.989004 112.17 0.147827 22.090 0.147827 22.090 0.989004 112.01
8.68626500 0.989004 112.17 0.147829 22.090 0.147829 22.090 0.989004 112.01
8.68627000 0.989004 112.17 0.147830 22.089 0.147830 22.089 0.989004 112.01
8.68627500 0.989004 112.17 0.147831 22.089 0.147831 22.089 0.989004 112.01
8.68628000 0.989003 112.17 0.147833 22.089 0.147833 22.089 0.989003 112.01
8.68628500 0.989003 112.17 0.147834 22.089 0.147834 22.089 0.989003 112.01
8.68629000 0.989003 112.17 0.147836 22.089 0.147836 22.089 0.989003 112.01
8.68629500 0.989003 112.17 0.147837 22.089 0.147837 22.089 0.989003 112.01
8.68630000 0.989003 112.17 0.147839 22.089 0.147839 22.089 0.989003 112.01
8.68630500 0.989002 112.17 0.147840 22.089 0.147840 22.089 0.989002 112.01
8.68631000 0.989002 112.17 0.147842 22.088 0.147842 22.088 0.989002 112.01
8.68631500 0.989002 112.17 0.147843 22.088 0.147843 22.088 0.989002 112.01
8.68632000 0.989002 112.17 0.147845 22.088 0.147845 22.088 0.989002 112.01
8.68632500 0.989001 112.17 0.147846 22.088 0.147846 22.088 0.989001 112.01
8.68633000 0.989001 112.17 0.147847 22.088 0.147847 22.088 0.989001 112.01
8.68633500 0.989001 112.17 0.147849 22.088 0.147849 22.088 0.989001 112.01
8.68634000 0.989001 112.17 0.147850 22.088 0.147850 22.088 0.989001 112.01
8.68634500 0.989001 112.17 0.147852 22.088 0.147852 22.088 0.989000 112.01
8.68635000 0.989000 112.17 0.147853 22.088 0.147853 22.088 0.989000 112.01
8.68635500 0.989000 112.17 0.147855 22.087 0.147855 22.087 0.989000 112.01
8.68636000 0.989000 112.17 0.147856 22.087 0.147856 22.087 0.989000 112.01
8.68636500 0.989000 112.17 0.147858 22.087 0.147858 22.087 0.989000 112.01
8.68637000 0.988999 112.17 0.147859 22.087 0.147859 22.087 0.988999 112.01
8.68637500 0.988999 112.17 0.147861 22.087 0.147861 22.087 0.988999 112.01
8.68638000 0.988999 112.17 0.147862 22.087 0.147862 22.087 0.988999 112.01
8.68638500 0.988999 112.17 0.147864 22.087 0.147864 22.087 0.988999 112.01
8.68639000 0.988999 112.17 0.147865 22.087 0.147865 22.087 0.988998 112.01
8.68639500 0.988998 112.17 0.147867 22.086 0.147867 22.086 0.988998 112.01
8.68640000 0.988998 112.17 0.147868 22.086 0.147868 22.086 0.988998 112.01
8.68640500 0.988998 112.17 0.147870 22.086 0.147870 22.086 0.988998 112.01
8.68641000 0.988998 112.17 0.147871 22.086 0.147871 22.086 0.988998 112.01
8.68641500 0.988997 112.17 0.147873 22.086 0.147873 22.086 0.988997 112.01
8.68642000 0.988997 112.17 0.147874 22.086 0.147874 22.086 0.988997 112.01
8.68642500 0.988997 112.17 0.147876 22.086 0.147876 22.086 0.988997 112.01
8.68643000 0.988997 112.17 0.147877 22.086 0.147877 22.086 0.988997 112.01
8.68643500 0.988996 112.17 0.147879 22.085 0.147879 22.085 0.988996 112.01
8.68644000 0.988996 112.17 0.147880 22.085 0.147880 22.085 0.988996 112.01
8.68644500 0.988996 112.17 0.147882 22.085 0.147882 22.085 0.988996 112.01
8.68645000 0.988996 112.16 0.147883 22.085 0.147883 22.085 0.988996 112.01
8.68645500 0.988996 112.16 0.147885 22.085 0.147885 22.085 0.988995 112.01
8.68646000 0.988995 112.16 0.147886 22.085 0.147886 22.085 0.988995 112.01
8.68646500 0.988995 112.16 0.147888 22.085 0.147888 22.085 0.988995 112.01
8.68647000 0.988995 112.16 0.147889 22.085 0.147889 22.085 0.988995 112.01
8.68647500 0.988995 112.16 0.147891 22.084 0.147891 22.084 0.988995 112.01
8.68648000 0.988994 112.16 0.147892 22.084 0.147892 22.084 0.988994 112.01
8.68648500 0.988994 112.16 0.147894 22.084 0.147894 22.084 0.988994 112.01
8.68649000 0.988994 112.16 0.147895 22.084 0.147895 22.084 0.988994 112.01
8.68649500 0.988994 112.16 0.147897 22.084 0.147897 22.084 0.988994 112.01
8.68650000 0.988993 112.16 0.147898 22.084 0.147898 22.084 0.988993 112.01
8.68650500 0.988993 112.16 0.147900 22.084 0.147900 22.084 0.988993 112.01
8.68651000 0.988993 112.16 0.147901 22.084 0.147901 22.084 0.988993 112.01
8.68651500 0.988993 112.16 0.147903 22.083 0.147903 22.083 0.988993 112.01
8.68652000 0.988992 112.16 0.147904 22.083 0.147904 22.083 0.988992 112.01
8.68652500 0.988992 112.16 0.147906 22.083 0.147906 22.083 0.988992 112.01
8.68653000 0.988992 112.16 0.147907 22.083 0.147907 22.083 0.988992 112.00
8.68653500 0.988992 112.16 0.147909 22.083 0.147909 22.083 0.988992 112.00
8.68654000 0.988992 112.16 0.147910 22.083 0.147910 22.083 0.988991 112.00
8.68654500 0.988991 112.16 0.147912 22.083 0.147912 22.083 0.988991 112.00
8.68655000 0.988991 112.16 0.147914 22.083 0.147914 22.083 0.988991 112.00
8.68655500 0.988991 112.16 0.147915 22.082 0.147915 22.082 0.988991 112.00
8.68656000 0.988991 112.16 0.147917 22.082 0.147917 22.082 0.988990 112.00
8.68656500 0.988990 112.16 0.147918 22.082 0.147918 22.082 0.988990 112.00
8.68657000 0.988990 112.16 0.147920 22.082 0.147920 22.082 0.988990 112.00
8.68657500 0.988990 112.16 0.147921 22.082 0.147921 22.082 0.988990 112.00
8.68658000 0.988990 112.16 0.147923 22.082 0.147923 22.082 0.988990 112.00
8.68658500 0.988989 112.16 0.147924 22.082 0.147924 22.082 0.988989 112.00
8.68659000 0.988989 112.16 0.147926 22.082 0.147926 22.082 0.988989 112.00
8.68659500 0.988989 112.16 0.147927 22.081 0.147927 22.081 0.988989 112.00
8.68660000 0.988989 112.16 0.147929 22.081 0.147929 22.081 0.988989 112.00
8.68660500 0.988988 112.16 0.147931 22.081 0.147931 22.081 0.988988 112.00
8.68661000 0.988988 112.16 0.147932 22.081 0.147932 22.081 0.988988 112.00
8.68661500 0.988988 112.16 0.147934 22.081 0.147934 22.081 0.988988 112.00
8.68662000 0.988988 112.16 0.147935 22.081 0.147935 22.081 0.988988 112.00
8.68662500 0.988987 112.16 0.147937 22.081 0.147937 22.081 0.988987 112.00
8.68663000 0.988987 112.16 0.147938 22.081 0.147938 22.081 0.988987 112.00
8.68663500 0.988987 112.16 0.147940 22.080 0.147940 22.080 0.988987 112.00
8.68664000 0.988987 112.16 0.147942 22.080 0.147942 22.080 0.988987 112.00
8.68664500 0.988986 112.16 0.147943 22.080 0.147943 22.080 0.988986 112.00
8.68665000 0.988986 112.16 0.147945 22.080 0.147945 22.080 0.988986 112.00
8.68665500 0.988986 112.16 0.147946 22.080 0.147946 22.080 0.988986 112.00
8.68666000 0.988986 112.16 0.147948 22.080 0.147948 22.080 0.988986 112.00
8.68666500 0.988985 112.16 0.147950 22.080 0.147950 22.080 0.988985 112.00
8.68667000 0.988985 112.16 0.147951 22.079 0.147951 22.079 0.988985 112.00
8.68667500 0.988985 112.16 0.147953 22.079 0.147953 22.079 0.988985 112.00
8.68668000 0.988985 112.16 0.147954 22.079 0.147954 22.079 0.988985 112.00
8.68668500 0.988985 112.16 0.147956 22.079 0.147956 22.079 0.988984 112.00
8.68669000 0.988984 112.16 0.147958 22.079 0.147958 22.079 0.988984 112.00
8.68669500 0.988984 112.16 0.147959 22.079 0.147959 22.079 0.988984 112.00
8.68670000 0.988984 112.16 0.147961 22.079 0.147961 22.079 0.988984 112.00
8.68670500 0.988984 112.16 0.147962 22.079 0.147962 22.079 0.988983 112.00
8.68671000 0.988983 112.16 0.147964 22.078 0.147964 22.078 0.988983 112.00
8.68671500 0.988983 112.16 0.147966 22.078 0.147966 22.078 0.988983 112.00
8.68672000 0.988983 112.16 0.147967 22.078 0.147967 22.078 0.988983 112.00
8.68672500 0.988983 112.16 0.147969 22.078 0.147969 22.078 0.988982 112.00
8.68673000 0.988982 112.16 0.147970 22.078 0.147970 22.078 0.988982 112.00
8.68673500 0.988982 112.16 0.147972 22.078 0.147972 22.078 0.988982 112.00
8.68674000 0.988982 112.16 0.147974 22.078 0.147974 22.078 0.988982 112.00
8.68674500 0.988982 112.16 0.147975 22.078 0.147975 22.078 0.988981 112.00
8.68675000 0.988981 112.16 0.147977 22.077 0.147977 22.077 0.988981 112.00
8.68675500 0.988981 112.16 0.147979 22.077 0.147979 22.077 0.988981 112.00
8.68676000 0.988981 112.16 0.147980 22.077 0.147980 22.077 0.988981 112.00
8.68676500 0.988981 112.16 0.147982 22.077 0.147982 22.077 0.988980 112.00
8.68677000 0.988980 112.16 0.147983 22.077 0.147983 22.077 0.988980 112.00
8.68677500 0.988980 112.16 0.147985 22.077 0.147985 22.077 0.988980 112.00
8.68678000 0.988980 112.16 0.147987 22.077 0.147987 22.077 0.988980 112.00
8.68678500 0.988979 112.16 0.147988 22.076 0.147988 22.076 0.988979 112.00
8.68679000 0.988979 112.16 0.147990 22.076 0.147990 22.076 0.988979 112.00
8.68679500 0.988979 112.16 0.147992 22.076 0.147992 22.076 0.988979 112.00
8.68680000 0.988979 112.16 0.147993 22.076 0.147993 22.076 0.988979 112.00
8.68680500 0.988978 112.16 0.147995 22.076 0.147995 22.076 0.988978 112.00
8.68681000 0.988978 112.16 0.147997 22.076 0.147997 22.076 0.988978 112.00
8.68681500 0.988978 112.16 0.147998 22.076 0.147998 22.076 0.988978 112.00
8.68682000 0.988978 112.16 0.148000 22.076 0.148000 22.076 0.988978 112.00
8.68682500 0.988977 112.16 0.148002 22.075 0.148002 22.075 0.988977 112.00
8.68683000 0.988977 112.16 0.148003 22.075 0.148003 22.075 0.988977 112.00
8.68683500 0.988977 112.16 0.148005 22.075 0.148005 22.075 0.988977 112.00
8.68684000 0.988977 112.16 0.148007 22.075 0.148007 22.075 0.988977 112.00
8.68684500 0.988976 112.16 0.148008 22.075 0.148008 22.075 0.988976 112.00
8.68685000 0.988976 112.15 0.148010 22.075 0.148010 22.075 0.988976 112.00
8.68685500 0.988976 112.15 0.148012 22.075 0.148012 22.075 0.988976 112.00
8.68686000 0.988976 112.15 0.148013 22.074 0.148013 22.074 0.988976 112.00
8.68686500 0.988975 112.15 0.148015 22.074 0.148015 22.074 0.988975 112.00
8.68687000 0.988975 112.15 0.148017 22.074 0.148017 22.074 0.988975 112.00
8.68687500 0.988975 112.15 0.148018 22.074 0.148018 22.074 0.988975 112.00
8.68688000 0.988975 112.15 0.148020 22.074 0.148020 22.074 0.988975 112.00
8.68688500 0.988974 112.15 0.148022 22.074 0.148022 22.074 0.988974 112.00
8.68689000 0.988974 112.15 0.148023 22.074 0.148023 22.074 0.988974 112.00
8.68689500 0.988974 112.15 0.148025 22.074 0.148025 22.074 0.988974 112.00
8.68690000 0.988974 112.15 0.148027 22.073 0.148027 22.073 0.988973 112.00
8.68690500 0.988973 112.15 0.148028 22.073 0.148028 22.073 0.988973 112.00
8.68691000 0.988973 112.15 0.148030 22.073 0.148030 22.073 0.988973 112.00
8.68691500 0.988973 112.15 0.148032 22.073 0.148032 22.073 0.988973 112.00
8.68692000 0.988972 112.15 0.148034 22.073 0.148034 22.073 0.988972 111.99
8.68692500 0.988972 112.15 0.148035 22.073 0.148035 22.073 0.988972 111.99
8.68693000 0.988972 112.15 0.148037 22.073 0.148037 22.073 0.988972 111.99
8.68693500 0.988972 112.15 0.148039 22.072 0.148039 22.072 0.988972 111.99
8.68694000 0.988971 112.15 0.148040 22.072 0.148040 22.072 0.988971 111.99
8.68694500 0.988971 112.15 0.148042 22.072 0.148042 22.072 0.988971 111.99
8.68695000 0.988971 112.15 0.148044 22.072 0.148044 22.072 0.988971 111.99
8.68695500 0.988971 112.15 0.148046 22.072 0.148046 22.072 0.988971 111.99