! Sonnet Data File
! From: emgraph Version : 16.52
! From Project: Qubit_Xmon2_brg
! Data is De-embedded 
! Data File Written: 10/25/2017 15:28:40
!< HDATE 10/25/2017 13:50:25
!< MDATE 10/25/2017 13:50:25
!< PARAMS
!< Lj = 11.0
!< Gap = 6.0
!< Pwid = 2000.0
!< Airgap = 6.0
!< Width = 10.0
!< Bwid = 8.0
!< Dis1 = 750.0
!< Dis2 = 756.0
!< END PARAMS
# GHZ S MA R 34.70000
8.76000000 0.996048 128.78 0.088782 38.791 0.088782 38.791 0.996048 128.80
!< P1 F=8.76 Eeff=(5.13726025 -5.6937e-5) Z0=(34.6466742 -9.6556e-5) R=0.0 C=0.0 
!< P2 F=8.76 Eeff=(5.13726025 -5.6937e-5) Z0=(34.6466742 -9.6556e-5) R=0.0 C=0.0 
8.76002000 0.996048 128.77 0.088783 38.790 0.088783 38.790 0.996048 128.80
8.76004000 0.996048 128.77 0.088784 38.790 0.088784 38.790 0.996048 128.80
8.76006000 0.996048 128.77 0.088786 38.790 0.088786 38.790 0.996048 128.80
8.76008000 0.996048 128.77 0.088787 38.790 0.088787 38.790 0.996048 128.80
8.76010000 0.996047 128.77 0.088788 38.790 0.088788 38.790 0.996047 128.80
8.76012000 0.996047 128.77 0.088789 38.790 0.088789 38.790 0.996047 128.80
8.76014000 0.996047 128.77 0.088790 38.789 0.088790 38.789 0.996047 128.80
8.76016000 0.996047 128.77 0.088791 38.789 0.088791 38.789 0.996047 128.80
8.76018000 0.996047 128.77 0.088792 38.789 0.088792 38.789 0.996047 128.80
8.76020000 0.996047 128.77 0.088793 38.789 0.088793 38.789 0.996047 128.80
8.76022000 0.996047 128.77 0.088795 38.789 0.088795 38.789 0.996047 128.80
8.76024000 0.996047 128.77 0.088796 38.789 0.088796 38.789 0.996047 128.80
8.76026000 0.996047 128.77 0.088797 38.788 0.088797 38.788 0.996047 128.80
8.76028000 0.996047 128.77 0.088798 38.788 0.088798 38.788 0.996047 128.80
8.76030000 0.996046 128.77 0.088799 38.788 0.088799 38.788 0.996046 128.80
8.76032000 0.996046 128.77 0.088800 38.788 0.088800 38.788 0.996046 128.80
8.76034000 0.996046 128.77 0.088801 38.788 0.088801 38.788 0.996046 128.80
8.76036000 0.996046 128.77 0.088803 38.787 0.088803 38.787 0.996046 128.80
8.76038000 0.996046 128.77 0.088804 38.787 0.088804 38.787 0.996046 128.80
8.76040000 0.996046 128.77 0.088805 38.787 0.088805 38.787 0.996046 128.80
8.76042000 0.996046 128.77 0.088806 38.787 0.088806 38.787 0.996046 128.80
8.76044000 0.996046 128.77 0.088807 38.787 0.088807 38.787 0.996046 128.80
8.76046000 0.996046 128.77 0.088808 38.787 0.088808 38.787 0.996046 128.80
8.76048000 0.996045 128.77 0.088809 38.786 0.088809 38.786 0.996046 128.80
8.76050000 0.996045 128.77 0.088811 38.786 0.088811 38.786 0.996045 128.80
8.76052000 0.996045 128.77 0.088812 38.786 0.088812 38.786 0.996045 128.80
8.76054000 0.996045 128.77 0.088813 38.786 0.088813 38.786 0.996045 128.80
8.76056000 0.996045 128.77 0.088814 38.786 0.088814 38.786 0.996045 128.80
8.76058000 0.996045 128.77 0.088815 38.786 0.088815 38.786 0.996045 128.80
8.76060000 0.996045 128.77 0.088816 38.785 0.088816 38.785 0.996045 128.80
8.76062000 0.996045 128.77 0.088818 38.785 0.088818 38.785 0.996045 128.80
8.76064000 0.996045 128.77 0.088819 38.785 0.088819 38.785 0.996045 128.80
8.76066000 0.996045 128.77 0.088820 38.785 0.088820 38.785 0.996045 128.80
8.76068000 0.996044 128.77 0.088821 38.785 0.088821 38.785 0.996044 128.80
8.76070000 0.996044 128.77 0.088822 38.785 0.088822 38.785 0.996044 128.80
8.76072000 0.996044 128.77 0.088824 38.784 0.088824 38.784 0.996044 128.80
8.76074000 0.996044 128.77 0.088825 38.784 0.088825 38.784 0.996044 128.80
8.76076000 0.996044 128.77 0.088826 38.784 0.088826 38.784 0.996044 128.80
8.76078000 0.996044 128.77 0.088827 38.784 0.088827 38.784 0.996044 128.80
8.76080000 0.996044 128.77 0.088828 38.784 0.088828 38.784 0.996044 128.80
8.76082000 0.996044 128.77 0.088829 38.783 0.088829 38.783 0.996044 128.80
8.76084000 0.996044 128.77 0.088831 38.783 0.088831 38.783 0.996044 128.80
8.76086000 0.996043 128.77 0.088832 38.783 0.088832 38.783 0.996043 128.80
8.76088000 0.996043 128.77 0.088833 38.783 0.088833 38.783 0.996043 128.80
8.76090000 0.996043 128.77 0.088834 38.783 0.088834 38.783 0.996043 128.80
8.76092000 0.996043 128.77 0.088835 38.783 0.088835 38.783 0.996043 128.80
8.76094000 0.996043 128.77 0.088837 38.782 0.088837 38.782 0.996043 128.80
8.76096000 0.996043 128.77 0.088838 38.782 0.088838 38.782 0.996043 128.80
8.76098000 0.996043 128.77 0.088839 38.782 0.088839 38.782 0.996043 128.80
8.76100000 0.996043 128.77 0.088840 38.782 0.088840 38.782 0.996043 128.80
8.76102000 0.996043 128.77 0.088841 38.782 0.088841 38.782 0.996043 128.80
8.76104000 0.996042 128.77 0.088843 38.782 0.088843 38.782 0.996043 128.80
8.76106000 0.996042 128.77 0.088844 38.781 0.088844 38.781 0.996042 128.80
8.76108000 0.996042 128.77 0.088845 38.781 0.088845 38.781 0.996042 128.80
8.76110000 0.996042 128.77 0.088846 38.781 0.088846 38.781 0.996042 128.80
8.76112000 0.996042 128.77 0.088847 38.781 0.088847 38.781 0.996042 128.80
8.76114000 0.996042 128.77 0.088849 38.781 0.088849 38.781 0.996042 128.79
8.76116000 0.996042 128.77 0.088850 38.781 0.088850 38.781 0.996042 128.79
8.76118000 0.996042 128.76 0.088851 38.780 0.088851 38.780 0.996042 128.79
8.76120000 0.996042 128.76 0.088852 38.780 0.088852 38.780 0.996042 128.79
8.76122000 0.996041 128.76 0.088854 38.780 0.088854 38.780 0.996042 128.79
8.76124000 0.996041 128.76 0.088855 38.780 0.088855 38.780 0.996041 128.79
8.76126000 0.996041 128.76 0.088856 38.780 0.088856 38.780 0.996041 128.79
8.76128000 0.996041 128.76 0.088857 38.779 0.088857 38.779 0.996041 128.79
8.76130000 0.996041 128.76 0.088858 38.779 0.088858 38.779 0.996041 128.79
8.76132000 0.996041 128.76 0.088860 38.779 0.088860 38.779 0.996041 128.79
8.76134000 0.996041 128.76 0.088861 38.779 0.088861 38.779 0.996041 128.79
8.76136000 0.996041 128.76 0.088862 38.779 0.088862 38.779 0.996041 128.79
8.76138000 0.996041 128.76 0.088863 38.779 0.088863 38.779 0.996041 128.79
8.76140000 0.996040 128.76 0.088865 38.778 0.088865 38.778 0.996041 128.79
8.76142000 0.996040 128.76 0.088866 38.778 0.088866 38.778 0.996040 128.79
8.76144000 0.996040 128.76 0.088867 38.778 0.088867 38.778 0.996040 128.79
8.76146000 0.996040 128.76 0.088868 38.778 0.088868 38.778 0.996040 128.79
8.76148000 0.996040 128.76 0.088870 38.778 0.088870 38.778 0.996040 128.79
8.76150000 0.996040 128.76 0.088871 38.777 0.088871 38.777 0.996040 128.79
8.76152000 0.996040 128.76 0.088872 38.777 0.088872 38.777 0.996040 128.79
8.76154000 0.996040 128.76 0.088873 38.777 0.088873 38.777 0.996040 128.79
8.76156000 0.996040 128.76 0.088875 38.777 0.088875 38.777 0.996040 128.79
8.76158000 0.996039 128.76 0.088876 38.777 0.088876 38.777 0.996039 128.79
8.76160000 0.996039 128.76 0.088877 38.777 0.088877 38.777 0.996039 128.79
8.76162000 0.996039 128.76 0.088878 38.776 0.088878 38.776 0.996039 128.79
8.76164000 0.996039 128.76 0.088880 38.776 0.088880 38.776 0.996039 128.79
8.76166000 0.996039 128.76 0.088881 38.776 0.088881 38.776 0.996039 128.79
8.76168000 0.996039 128.76 0.088882 38.776 0.088882 38.776 0.996039 128.79
8.76170000 0.996039 128.76 0.088884 38.776 0.088884 38.776 0.996039 128.79
8.76172000 0.996039 128.76 0.088885 38.776 0.088885 38.776 0.996039 128.79
8.76174000 0.996039 128.76 0.088886 38.775 0.088886 38.775 0.996039 128.79
8.76176000 0.996038 128.76 0.088887 38.775 0.088887 38.775 0.996038 128.79
8.76178000 0.996038 128.76 0.088889 38.775 0.088889 38.775 0.996038 128.79
8.76180000 0.996038 128.76 0.088890 38.775 0.088890 38.775 0.996038 128.79
8.76182000 0.996038 128.76 0.088891 38.775 0.088891 38.775 0.996038 128.79
8.76184000 0.996038 128.76 0.088892 38.774 0.088892 38.774 0.996038 128.79
8.76186000 0.996038 128.76 0.088894 38.774 0.088894 38.774 0.996038 128.79
8.76188000 0.996038 128.76 0.088895 38.774 0.088895 38.774 0.996038 128.79
8.76190000 0.996038 128.76 0.088896 38.774 0.088896 38.774 0.996038 128.79
8.76192000 0.996037 128.76 0.088898 38.774 0.088898 38.774 0.996038 128.79
8.76194000 0.996037 128.76 0.088899 38.774 0.088899 38.774 0.996037 128.79
8.76196000 0.996037 128.76 0.088900 38.773 0.088900 38.773 0.996037 128.79
8.76198000 0.996037 128.76 0.088902 38.773 0.088902 38.773 0.996037 128.79
8.76200000 0.996037 128.76 0.088903 38.773 0.088903 38.773 0.996037 128.79
8.76202000 0.996037 128.76 0.088904 38.773 0.088904 38.773 0.996037 128.79
8.76204000 0.996037 128.76 0.088905 38.773 0.088905 38.773 0.996037 128.79
8.76206000 0.996037 128.76 0.088907 38.772 0.088907 38.772 0.996037 128.79
8.76208000 0.996037 128.76 0.088908 38.772 0.088908 38.772 0.996037 128.79
8.76210000 0.996036 128.76 0.088909 38.772 0.088909 38.772 0.996036 128.79
8.76212000 0.996036 128.76 0.088911 38.772 0.088911 38.772 0.996036 128.79
8.76214000 0.996036 128.76 0.088912 38.772 0.088912 38.772 0.996036 128.79
8.76216000 0.996036 128.76 0.088913 38.772 0.088913 38.772 0.996036 128.79
8.76218000 0.996036 128.76 0.088915 38.771 0.088915 38.771 0.996036 128.79
8.76220000 0.996036 128.76 0.088916 38.771 0.088916 38.771 0.996036 128.79
8.76222000 0.996036 128.76 0.088917 38.771 0.088917 38.771 0.996036 128.79
8.76224000 0.996036 128.76 0.088919 38.771 0.088919 38.771 0.996036 128.79
8.76226000 0.996035 128.76 0.088920 38.771 0.088920 38.771 0.996035 128.78
8.76228000 0.996035 128.75 0.088921 38.770 0.088921 38.770 0.996035 128.78
8.76230000 0.996035 128.75 0.088923 38.770 0.088923 38.770 0.996035 128.78
8.76232000 0.996035 128.75 0.088924 38.770 0.088924 38.770 0.996035 128.78
8.76234000 0.996035 128.75 0.088925 38.770 0.088925 38.770 0.996035 128.78
8.76236000 0.996035 128.75 0.088927 38.770 0.088927 38.770 0.996035 128.78
8.76238000 0.996035 128.75 0.088928 38.770 0.088928 38.770 0.996035 128.78
8.76240000 0.996035 128.75 0.088929 38.769 0.088929 38.769 0.996035 128.78
8.76242000 0.996034 128.75 0.088931 38.769 0.088931 38.769 0.996035 128.78
8.76244000 0.996034 128.75 0.088932 38.769 0.088932 38.769 0.996034 128.78
8.76246000 0.996034 128.75 0.088933 38.769 0.088933 38.769 0.996034 128.78
8.76248000 0.996034 128.75 0.088935 38.769 0.088935 38.769 0.996034 128.78
8.76250000 0.996034 128.75 0.088936 38.768 0.088936 38.768 0.996034 128.78
8.76252000 0.996034 128.75 0.088938 38.768 0.088938 38.768 0.996034 128.78
8.76254000 0.996034 128.75 0.088939 38.768 0.088939 38.768 0.996034 128.78
8.76256000 0.996034 128.75 0.088940 38.768 0.088940 38.768 0.996034 128.78
8.76258000 0.996033 128.75 0.088942 38.768 0.088942 38.768 0.996034 128.78
8.76260000 0.996033 128.75 0.088943 38.768 0.088943 38.768 0.996033 128.78
8.76262000 0.996033 128.75 0.088944 38.767 0.088944 38.767 0.996033 128.78
8.76264000 0.996033 128.75 0.088946 38.767 0.088946 38.767 0.996033 128.78
8.76266000 0.996033 128.75 0.088947 38.767 0.088947 38.767 0.996033 128.78
8.76268000 0.996033 128.75 0.088948 38.767 0.088948 38.767 0.996033 128.78
8.76270000 0.996033 128.75 0.088950 38.767 0.088950 38.767 0.996033 128.78
8.76272000 0.996033 128.75 0.088951 38.766 0.088951 38.766 0.996033 128.78
8.76274000 0.996032 128.75 0.088953 38.766 0.088953 38.766 0.996033 128.78
8.76276000 0.996032 128.75 0.088954 38.766 0.088954 38.766 0.996032 128.78
8.76278000 0.996032 128.75 0.088955 38.766 0.088955 38.766 0.996032 128.78
8.76280000 0.996032 128.75 0.088957 38.766 0.088957 38.766 0.996032 128.78
8.76282000 0.996032 128.75 0.088958 38.765 0.088958 38.765 0.996032 128.78
8.76284000 0.996032 128.75 0.088960 38.765 0.088960 38.765 0.996032 128.78
8.76286000 0.996032 128.75 0.088961 38.765 0.088961 38.765 0.996032 128.78
8.76288000 0.996032 128.75 0.088962 38.765 0.088962 38.765 0.996032 128.78
8.76290000 0.996031 128.75 0.088964 38.765 0.088964 38.765 0.996032 128.78
8.76292000 0.996031 128.75 0.088965 38.765 0.088965 38.765 0.996031 128.78
8.76294000 0.996031 128.75 0.088967 38.764 0.088967 38.764 0.996031 128.78
8.76296000 0.996031 128.75 0.088968 38.764 0.088968 38.764 0.996031 128.78
8.76298000 0.996031 128.75 0.088970 38.764 0.088970 38.764 0.996031 128.78
8.76300000 0.996031 128.75 0.088971 38.764 0.088971 38.764 0.996031 128.78
8.76302000 0.996031 128.75 0.088972 38.764 0.088972 38.764 0.996031 128.78
8.76304000 0.996031 128.75 0.088974 38.763 0.088974 38.763 0.996031 128.78
8.76306000 0.996030 128.75 0.088975 38.763 0.088975 38.763 0.996030 128.78
8.76308000 0.996030 128.75 0.088977 38.763 0.088977 38.763 0.996030 128.78
8.76310000 0.996030 128.75 0.088978 38.763 0.088978 38.763 0.996030 128.78
8.76312000 0.996030 128.75 0.088979 38.763 0.088979 38.763 0.996030 128.78
8.76314000 0.996030 128.75 0.088981 38.762 0.088981 38.762 0.996030 128.78
8.76316000 0.996030 128.75 0.088982 38.762 0.088982 38.762 0.996030 128.78
8.76318000 0.996030 128.75 0.088984 38.762 0.088984 38.762 0.996030 128.78
8.76320000 0.996029 128.75 0.088985 38.762 0.088985 38.762 0.996030 128.78
8.76322000 0.996029 128.75 0.088987 38.762 0.088987 38.762 0.996029 128.78
8.76324000 0.996029 128.75 0.088988 38.761 0.088988 38.761 0.996029 128.78
8.76326000 0.996029 128.75 0.088990 38.761 0.088990 38.761 0.996029 128.78
8.76328000 0.996029 128.75 0.088991 38.761 0.088991 38.761 0.996029 128.78
8.76330000 0.996029 128.75 0.088993 38.761 0.088993 38.761 0.996029 128.78
8.76332000 0.996029 128.75 0.088994 38.761 0.088994 38.761 0.996029 128.78
8.76334000 0.996029 128.75 0.088995 38.761 0.088995 38.761 0.996029 128.78
8.76336000 0.996028 128.74 0.088997 38.760 0.088997 38.760 0.996028 128.77
8.76338000 0.996028 128.74 0.088998 38.760 0.088998 38.760 0.996028 128.77
8.76340000 0.996028 128.74 0.089000 38.760 0.089000 38.760 0.996028 128.77
8.76342000 0.996028 128.74 0.089001 38.760 0.089001 38.760 0.996028 128.77
8.76344000 0.996028 128.74 0.089003 38.760 0.089003 38.760 0.996028 128.77
8.76346000 0.996028 128.74 0.089004 38.759 0.089004 38.759 0.996028 128.77
8.76348000 0.996028 128.74 0.089006 38.759 0.089006 38.759 0.996028 128.77
8.76350000 0.996027 128.74 0.089007 38.759 0.089007 38.759 0.996028 128.77
8.76352000 0.996027 128.74 0.089009 38.759 0.089009 38.759 0.996027 128.77
8.76354000 0.996027 128.74 0.089010 38.759 0.089010 38.759 0.996027 128.77
8.76356000 0.996027 128.74 0.089012 38.758 0.089012 38.758 0.996027 128.77
8.76358000 0.996027 128.74 0.089013 38.758 0.089013 38.758 0.996027 128.77
8.76360000 0.996027 128.74 0.089015 38.758 0.089015 38.758 0.996027 128.77
8.76362000 0.996027 128.74 0.089016 38.758 0.089016 38.758 0.996027 128.77
8.76364000 0.996027 128.74 0.089018 38.758 0.089018 38.758 0.996027 128.77
8.76366000 0.996026 128.74 0.089019 38.757 0.089019 38.757 0.996026 128.77
8.76368000 0.996026 128.74 0.089021 38.757 0.089021 38.757 0.996026 128.77
8.76370000 0.996026 128.74 0.089022 38.757 0.089022 38.757 0.996026 128.77
8.76372000 0.996026 128.74 0.089024 38.757 0.089024 38.757 0.996026 128.77
8.76374000 0.996026 128.74 0.089025 38.757 0.089025 38.757 0.996026 128.77
8.76376000 0.996026 128.74 0.089027 38.756 0.089027 38.756 0.996026 128.77
8.76378000 0.996026 128.74 0.089028 38.756 0.089028 38.756 0.996026 128.77
8.76380000 0.996025 128.74 0.089030 38.756 0.089030 38.756 0.996025 128.77
8.76382000 0.996025 128.74 0.089031 38.756 0.089031 38.756 0.996025 128.77
8.76384000 0.996025 128.74 0.089033 38.756 0.089033 38.756 0.996025 128.77
8.76386000 0.996025 128.74 0.089035 38.756 0.089035 38.756 0.996025 128.77
8.76388000 0.996025 128.74 0.089036 38.755 0.089036 38.755 0.996025 128.77
8.76390000 0.996025 128.74 0.089038 38.755 0.089038 38.755 0.996025 128.77
8.76392000 0.996025 128.74 0.089039 38.755 0.089039 38.755 0.996025 128.77
8.76394000 0.996024 128.74 0.089041 38.755 0.089041 38.755 0.996025 128.77
8.76396000 0.996024 128.74 0.089042 38.755 0.089042 38.755 0.996024 128.77
8.76398000 0.996024 128.74 0.089044 38.754 0.089044 38.754 0.996024 128.77
8.76400000 0.996024 128.74 0.089045 38.754 0.089045 38.754 0.996024 128.77
8.76402000 0.996024 128.74 0.089047 38.754 0.089047 38.754 0.996024 128.77
8.76404000 0.996024 128.74 0.089048 38.754 0.089048 38.754 0.996024 128.77
8.76406000 0.996024 128.74 0.089050 38.754 0.089050 38.754 0.996024 128.77
8.76408000 0.996023 128.74 0.089052 38.753 0.089052 38.753 0.996024 128.77
8.76410000 0.996023 128.74 0.089053 38.753 0.089053 38.753 0.996023 128.77
8.76412000 0.996023 128.74 0.089055 38.753 0.089055 38.753 0.996023 128.77
8.76414000 0.996023 128.74 0.089056 38.753 0.089056 38.753 0.996023 128.77
8.76416000 0.996023 128.74 0.089058 38.753 0.089058 38.753 0.996023 128.77
8.76418000 0.996023 128.74 0.089060 38.752 0.089060 38.752 0.996023 128.77
8.76420000 0.996023 128.74 0.089061 38.752 0.089061 38.752 0.996023 128.77
8.76422000 0.996022 128.74 0.089063 38.752 0.089063 38.752 0.996023 128.77
8.76424000 0.996022 128.74 0.089064 38.752 0.089064 38.752 0.996022 128.77
8.76426000 0.996022 128.74 0.089066 38.752 0.089066 38.752 0.996022 128.77
8.76428000 0.996022 128.74 0.089067 38.751 0.089067 38.751 0.996022 128.77
8.76430000 0.996022 128.74 0.089069 38.751 0.089069 38.751 0.996022 128.77
8.76432000 0.996022 128.74 0.089071 38.751 0.089071 38.751 0.996022 128.77
8.76434000 0.996022 128.74 0.089072 38.751 0.089072 38.751 0.996022 128.77
8.76436000 0.996021 128.74 0.089074 38.751 0.089074 38.751 0.996021 128.77
8.76438000 0.996021 128.73 0.089076 38.750 0.089076 38.750 0.996021 128.77
8.76440000 0.996021 128.73 0.089077 38.750 0.089077 38.750 0.996021 128.76
8.76442000 0.996021 128.73 0.089079 38.750 0.089079 38.750 0.996021 128.76
8.76444000 0.996021 128.73 0.089080 38.750 0.089080 38.750 0.996021 128.76
8.76446000 0.996021 128.73 0.089082 38.750 0.089082 38.750 0.996021 128.76
8.76448000 0.996021 128.73 0.089084 38.749 0.089084 38.749 0.996021 128.76
8.76450000 0.996020 128.73 0.089085 38.749 0.089085 38.749 0.996020 128.76
8.76452000 0.996020 128.73 0.089087 38.749 0.089087 38.749 0.996020 128.76
8.76454000 0.996020 128.73 0.089089 38.749 0.089089 38.749 0.996020 128.76
8.76456000 0.996020 128.73 0.089090 38.749 0.089090 38.749 0.996020 128.76
8.76458000 0.996020 128.73 0.089092 38.748 0.089092 38.748 0.996020 128.76
8.76460000 0.996020 128.73 0.089094 38.748 0.089094 38.748 0.996020 128.76
8.76462000 0.996019 128.73 0.089095 38.748 0.089095 38.748 0.996020 128.76
8.76464000 0.996019 128.73 0.089097 38.748 0.089097 38.748 0.996019 128.76
8.76466000 0.996019 128.73 0.089099 38.748 0.089099 38.748 0.996019 128.76
8.76468000 0.996019 128.73 0.089100 38.747 0.089100 38.747 0.996019 128.76
8.76470000 0.996019 128.73 0.089102 38.747 0.089102 38.747 0.996019 128.76
8.76472000 0.996019 128.73 0.089104 38.747 0.089104 38.747 0.996019 128.76
8.76474000 0.996019 128.73 0.089105 38.747 0.089105 38.747 0.996019 128.76
8.76476000 0.996018 128.73 0.089107 38.747 0.089107 38.747 0.996018 128.76
8.76478000 0.996018 128.73 0.089109 38.746 0.089109 38.746 0.996018 128.76
8.76480000 0.996018 128.73 0.089110 38.746 0.089110 38.746 0.996018 128.76
8.76482000 0.996018 128.73 0.089112 38.746 0.089112 38.746 0.996018 128.76
8.76484000 0.996018 128.73 0.089114 38.746 0.089114 38.746 0.996018 128.76
8.76486000 0.996018 128.73 0.089115 38.746 0.089115 38.746 0.996018 128.76
8.76488000 0.996017 128.73 0.089117 38.745 0.089117 38.745 0.996018 128.76
8.76490000 0.996017 128.73 0.089119 38.745 0.089119 38.745 0.996017 128.76
8.76492000 0.996017 128.73 0.089120 38.745 0.089120 38.745 0.996017 128.76
8.76494000 0.996017 128.73 0.089122 38.745 0.089122 38.745 0.996017 128.76
8.76496000 0.996017 128.73 0.089124 38.744 0.089124 38.744 0.996017 128.76
8.76498000 0.996017 128.73 0.089126 38.744 0.089126 38.744 0.996017 128.76
8.76500000 0.996017 128.73 0.089127 38.744 0.089127 38.744 0.996017 128.76
8.76502000 0.996016 128.73 0.089129 38.744 0.089129 38.744 0.996016 128.76
8.76504000 0.996016 128.73 0.089131 38.744 0.089131 38.744 0.996016 128.76
8.76506000 0.996016 128.73 0.089132 38.743 0.089132 38.743 0.996016 128.76
8.76508000 0.996016 128.73 0.089134 38.743 0.089134 38.743 0.996016 128.76
8.76510000 0.996016 128.73 0.089136 38.743 0.089136 38.743 0.996016 128.76
8.76512000 0.996016 128.73 0.089138 38.743 0.089138 38.743 0.996016 128.76
8.76514000 0.996015 128.73 0.089139 38.743 0.089139 38.743 0.996015 128.76
8.76516000 0.996015 128.73 0.089141 38.742 0.089141 38.742 0.996015 128.76
8.76518000 0.996015 128.73 0.089143 38.742 0.089143 38.742 0.996015 128.76
8.76520000 0.996015 128.73 0.089145 38.742 0.089145 38.742 0.996015 128.76
8.76522000 0.996015 128.73 0.089146 38.742 0.089146 38.742 0.996015 128.76
8.76524000 0.996015 128.73 0.089148 38.742 0.089148 38.742 0.996015 128.76
8.76526000 0.996014 128.73 0.089150 38.741 0.089150 38.741 0.996015 128.76
8.76528000 0.996014 128.73 0.089152 38.741 0.089152 38.741 0.996014 128.76
8.76530000 0.996014 128.73 0.089154 38.741 0.089154 38.741 0.996014 128.76
8.76532000 0.996014 128.73 0.089155 38.741 0.089155 38.741 0.996014 128.76
8.76534000 0.996014 128.73 0.089157 38.741 0.089157 38.741 0.996014 128.76
8.76536000 0.996014 128.72 0.089159 38.740 0.089159 38.740 0.996014 128.76
8.76538000 0.996013 128.72 0.089161 38.740 0.089161 38.740 0.996014 128.76
8.76540000 0.996013 128.72 0.089162 38.740 0.089162 38.740 0.996013 128.75
8.76542000 0.996013 128.72 0.089164 38.740 0.089164 38.740 0.996013 128.75
8.76544000 0.996013 128.72 0.089166 38.739 0.089166 38.739 0.996013 128.75
8.76546000 0.996013 128.72 0.089168 38.739 0.089168 38.739 0.996013 128.75
8.76548000 0.996013 128.72 0.089170 38.739 0.089170 38.739 0.996013 128.75
8.76550000 0.996012 128.72 0.089172 38.739 0.089172 38.739 0.996013 128.75
8.76552000 0.996012 128.72 0.089173 38.739 0.089173 38.739 0.996012 128.75
8.76554000 0.996012 128.72 0.089175 38.738 0.089175 38.738 0.996012 128.75
8.76556000 0.996012 128.72 0.089177 38.738 0.089177 38.738 0.996012 128.75
8.76558000 0.996012 128.72 0.089179 38.738 0.089179 38.738 0.996012 128.75
8.76560000 0.996012 128.72 0.089181 38.738 0.089181 38.738 0.996012 128.75
8.76562000 0.996011 128.72 0.089182 38.738 0.089182 38.738 0.996012 128.75
8.76564000 0.996011 128.72 0.089184 38.737 0.089184 38.737 0.996011 128.75
8.76566000 0.996011 128.72 0.089186 38.737 0.089186 38.737 0.996011 128.75
8.76568000 0.996011 128.72 0.089188 38.737 0.089188 38.737 0.996011 128.75
8.76570000 0.996011 128.72 0.089190 38.737 0.089190 38.737 0.996011 128.75
8.76572000 0.996011 128.72 0.089192 38.737 0.089192 38.737 0.996011 128.75
8.76574000 0.996010 128.72 0.089194 38.736 0.089194 38.736 0.996011 128.75
8.76576000 0.996010 128.72 0.089195 38.736 0.089195 38.736 0.996010 128.75
8.76578000 0.996010 128.72 0.089197 38.736 0.089197 38.736 0.996010 128.75
8.76580000 0.996010 128.72 0.089199 38.736 0.089199 38.736 0.996010 128.75
8.76582000 0.996010 128.72 0.089201 38.735 0.089201 38.735 0.996010 128.75
8.76584000 0.996010 128.72 0.089203 38.735 0.089203 38.735 0.996010 128.75
8.76586000 0.996009 128.72 0.089205 38.735 0.089205 38.735 0.996010 128.75
8.76588000 0.996009 128.72 0.089207 38.735 0.089207 38.735 0.996009 128.75
8.76590000 0.996009 128.72 0.089209 38.735 0.089209 38.735 0.996009 128.75
8.76592000 0.996009 128.72 0.089211 38.734 0.089211 38.734 0.996009 128.75
8.76594000 0.996009 128.72 0.089212 38.734 0.089212 38.734 0.996009 128.75
8.76596000 0.996009 128.72 0.089214 38.734 0.089214 38.734 0.996009 128.75
8.76598000 0.996008 128.72 0.089216 38.734 0.089216 38.734 0.996008 128.75
8.76600000 0.996008 128.72 0.089218 38.733 0.089218 38.733 0.996008 128.75
8.76602000 0.996008 128.72 0.089220 38.733 0.089220 38.733 0.996008 128.75
8.76604000 0.996008 128.72 0.089222 38.733 0.089222 38.733 0.996008 128.75
8.76606000 0.996008 128.72 0.089224 38.733 0.089224 38.733 0.996008 128.75
8.76608000 0.996007 128.72 0.089226 38.733 0.089226 38.733 0.996008 128.75
8.76610000 0.996007 128.72 0.089228 38.732 0.089228 38.732 0.996007 128.75
8.76612000 0.996007 128.72 0.089230 38.732 0.089230 38.732 0.996007 128.75
8.76614000 0.996007 128.72 0.089232 38.732 0.089232 38.732 0.996007 128.75
8.76616000 0.996007 128.72 0.089234 38.732 0.089234 38.732 0.996007 128.75
8.76618000 0.996007 128.72 0.089236 38.732 0.089236 38.732 0.996007 128.75
8.76620000 0.996006 128.72 0.089238 38.731 0.089238 38.731 0.996007 128.75
8.76622000 0.996006 128.72 0.089240 38.731 0.089240 38.731 0.996006 128.75
8.76624000 0.996006 128.72 0.089242 38.731 0.089242 38.731 0.996006 128.75
8.76626000 0.996006 128.72 0.089243 38.731 0.089243 38.731 0.996006 128.75
8.76628000 0.996006 128.71 0.089245 38.730 0.089245 38.730 0.996006 128.75
8.76630000 0.996006 128.71 0.089247 38.730 0.089247 38.730 0.996006 128.75
8.76632000 0.996005 128.71 0.089249 38.730 0.089249 38.730 0.996005 128.75
8.76634000 0.996005 128.71 0.089251 38.730 0.089251 38.730 0.996005 128.74
8.76636000 0.996005 128.71 0.089253 38.730 0.089253 38.730 0.996005 128.74
8.76638000 0.996005 128.71 0.089255 38.729 0.089255 38.729 0.996005 128.74
8.76640000 0.996005 128.71 0.089257 38.729 0.089257 38.729 0.996005 128.74
8.76642000 0.996004 128.71 0.089259 38.729 0.089259 38.729 0.996005 128.74
8.76644000 0.996004 128.71 0.089261 38.729 0.089261 38.729 0.996004 128.74
8.76646000 0.996004 128.71 0.089263 38.728 0.089263 38.728 0.996004 128.74
8.76648000 0.996004 128.71 0.089265 38.728 0.089265 38.728 0.996004 128.74
8.76650000 0.996004 128.71 0.089268 38.728 0.089268 38.728 0.996004 128.74
8.76652000 0.996003 128.71 0.089270 38.728 0.089270 38.728 0.996004 128.74
8.76654000 0.996003 128.71 0.089272 38.728 0.089272 38.728 0.996003 128.74
8.76656000 0.996003 128.71 0.089274 38.727 0.089274 38.727 0.996003 128.74
8.76658000 0.996003 128.71 0.089276 38.727 0.089276 38.727 0.996003 128.74
8.76660000 0.996003 128.71 0.089278 38.727 0.089278 38.727 0.996003 128.74
8.76662000 0.996003 128.71 0.089280 38.727 0.089280 38.727 0.996003 128.74
8.76664000 0.996002 128.71 0.089282 38.726 0.089282 38.726 0.996002 128.74
8.76666000 0.996002 128.71 0.089284 38.726 0.089284 38.726 0.996002 128.74
8.76668000 0.996002 128.71 0.089286 38.726 0.089286 38.726 0.996002 128.74
8.76670000 0.996002 128.71 0.089288 38.726 0.089288 38.726 0.996002 128.74
8.76672000 0.996002 128.71 0.089290 38.725 0.089290 38.725 0.996002 128.74
8.76674000 0.996001 128.71 0.089292 38.725 0.089292 38.725 0.996001 128.74
8.76676000 0.996001 128.71 0.089294 38.725 0.089294 38.725 0.996001 128.74
8.76678000 0.996001 128.71 0.089296 38.725 0.089296 38.725 0.996001 128.74
8.76680000 0.996001 128.71 0.089299 38.725 0.089299 38.725 0.996001 128.74
8.76682000 0.996001 128.71 0.089301 38.724 0.089301 38.724 0.996001 128.74
8.76684000 0.996000 128.71 0.089303 38.724 0.089303 38.724 0.996001 128.74
8.76686000 0.996000 128.71 0.089305 38.724 0.089305 38.724 0.996000 128.74
8.76688000 0.996000 128.71 0.089307 38.724 0.089307 38.724 0.996000 128.74
8.76690000 0.996000 128.71 0.089309 38.723 0.089309 38.723 0.996000 128.74
8.76692000 0.996000 128.71 0.089311 38.723 0.089311 38.723 0.996000 128.74
8.76694000 0.995999 128.71 0.089313 38.723 0.089313 38.723 0.996000 128.74
8.76696000 0.995999 128.71 0.089316 38.723 0.089316 38.723 0.995999 128.74
8.76698000 0.995999 128.71 0.089318 38.722 0.089318 38.722 0.995999 128.74
8.76700000 0.995999 128.71 0.089320 38.722 0.089320 38.722 0.995999 128.74
8.76702000 0.995999 128.71 0.089322 38.722 0.089322 38.722 0.995999 128.74
8.76704000 0.995998 128.71 0.089324 38.722 0.089324 38.722 0.995999 128.74
8.76706000 0.995998 128.71 0.089326 38.722 0.089326 38.722 0.995998 128.74
8.76708000 0.995998 128.71 0.089328 38.721 0.089328 38.721 0.995998 128.74
8.76710000 0.995998 128.71 0.089331 38.721 0.089331 38.721 0.995998 128.74
8.76712000 0.995998 128.71 0.089333 38.721 0.089333 38.721 0.995998 128.74
8.76714000 0.995997 128.71 0.089335 38.721 0.089335 38.721 0.995998 128.74
8.76716000 0.995997 128.70 0.089337 38.720 0.089337 38.720 0.995997 128.74
8.76718000 0.995997 128.70 0.089339 38.720 0.089339 38.720 0.995997 128.74
8.76720000 0.995997 128.70 0.089342 38.720 0.089342 38.720 0.995997 128.74
8.76722000 0.995997 128.70 0.089344 38.720 0.089344 38.720 0.995997 128.74
8.76724000 0.995996 128.70 0.089346 38.719 0.089346 38.719 0.995997 128.73
8.76726000 0.995996 128.70 0.089348 38.719 0.089348 38.719 0.995996 128.73
8.76728000 0.995996 128.70 0.089351 38.719 0.089351 38.719 0.995996 128.73
8.76730000 0.995996 128.70 0.089353 38.719 0.089353 38.719 0.995996 128.73
8.76732000 0.995996 128.70 0.089355 38.718 0.089355 38.718 0.995996 128.73
8.76734000 0.995995 128.70 0.089357 38.718 0.089357 38.718 0.995996 128.73
8.76736000 0.995995 128.70 0.089359 38.718 0.089359 38.718 0.995995 128.73
8.76738000 0.995995 128.70 0.089362 38.718 0.089362 38.718 0.995995 128.73
8.76740000 0.995995 128.70 0.089364 38.718 0.089364 38.718 0.995995 128.73
8.76742000 0.995995 128.70 0.089366 38.717 0.089366 38.717 0.995995 128.73
8.76744000 0.995994 128.70 0.089369 38.717 0.089369 38.717 0.995994 128.73
8.76746000 0.995994 128.70 0.089371 38.717 0.089371 38.717 0.995994 128.73
8.76748000 0.995994 128.70 0.089373 38.717 0.089373 38.717 0.995994 128.73
8.76750000 0.995994 128.70 0.089375 38.716 0.089375 38.716 0.995994 128.73
8.76752000 0.995994 128.70 0.089378 38.716 0.089378 38.716 0.995994 128.73
8.76754000 0.995993 128.70 0.089380 38.716 0.089380 38.716 0.995993 128.73
8.76756000 0.995993 128.70 0.089382 38.716 0.089382 38.716 0.995993 128.73
8.76758000 0.995993 128.70 0.089385 38.715 0.089385 38.715 0.995993 128.73
8.76760000 0.995993 128.70 0.089387 38.715 0.089387 38.715 0.995993 128.73
8.76762000 0.995992 128.70 0.089389 38.715 0.089389 38.715 0.995993 128.73
8.76764000 0.995992 128.70 0.089392 38.715 0.089392 38.715 0.995992 128.73
8.76766000 0.995992 128.70 0.089394 38.714 0.089394 38.714 0.995992 128.73
8.76768000 0.995992 128.70 0.089396 38.714 0.089396 38.714 0.995992 128.73
8.76770000 0.995992 128.70 0.089399 38.714 0.089399 38.714 0.995992 128.73
8.76772000 0.995991 128.70 0.089401 38.714 0.089401 38.714 0.995991 128.73
8.76774000 0.995991 128.70 0.089403 38.713 0.089403 38.713 0.995991 128.73
8.76776000 0.995991 128.70 0.089406 38.713 0.089406 38.713 0.995991 128.73
8.76778000 0.995991 128.70 0.089408 38.713 0.089408 38.713 0.995991 128.73
8.76780000 0.995991 128.70 0.089410 38.713 0.089410 38.713 0.995991 128.73
8.76782000 0.995990 128.70 0.089413 38.712 0.089413 38.712 0.995990 128.73