! Sonnet Data File
! From: emgraph Version : 16.52
! From Emgraph Data: Qubit_Xmon2_brg
! Data File Written: 10/25/2017 23:46:03
!< HDATE 10/25/2017 21:30:38
!< MDATE 10/25/2017 21:30:38
!< PARAMS
!< Lj = 11.0
!< Gap = 6.0
!< Pwid = 2000.0
!< Width = 10.0
!< Bwid = 8.0
!< Dis1 = 350.0
!< END PARAMS
# GHZ S MA R 34.70000
8.72000000 0.996470 127.24 0.083915 37.262 0.083915 37.262 0.996470 127.28
!< P1 F=8.72 Eeff=(5.13636875 -5.6768e-5) Z0=(34.6506961 -9.5188e-5) R=0.0 C=0.0 
!< P2 F=8.72 Eeff=(5.13636875 -5.6768e-5) Z0=(34.6506961 -9.5188e-5) R=0.0 C=0.0 
8.72002000 0.996470 127.24 0.083915 37.262 0.083915 37.262 0.996470 127.28
8.72004000 0.996470 127.24 0.083915 37.261 0.083915 37.261 0.996470 127.28
8.72006000 0.996470 127.24 0.083916 37.261 0.083916 37.261 0.996470 127.28
8.72008000 0.996470 127.24 0.083916 37.261 0.083916 37.261 0.996470 127.28
8.72010000 0.996470 127.24 0.083917 37.261 0.083917 37.261 0.996470 127.28
8.72012000 0.996470 127.24 0.083917 37.261 0.083917 37.261 0.996470 127.28
8.72014000 0.996470 127.24 0.083917 37.261 0.083917 37.261 0.996470 127.28
8.72016000 0.996470 127.24 0.083918 37.261 0.083918 37.261 0.996470 127.28
8.72018000 0.996470 127.24 0.083918 37.261 0.083918 37.261 0.996470 127.28
8.72020000 0.996470 127.24 0.083919 37.260 0.083919 37.260 0.996470 127.28
8.72022000 0.996470 127.24 0.083919 37.260 0.083919 37.260 0.996470 127.28
8.72024000 0.996470 127.24 0.083919 37.260 0.083919 37.260 0.996470 127.28
8.72026000 0.996470 127.24 0.083920 37.260 0.083920 37.260 0.996470 127.28
8.72028000 0.996470 127.24 0.083920 37.260 0.083920 37.260 0.996470 127.28
8.72030000 0.996470 127.24 0.083921 37.260 0.083921 37.260 0.996470 127.28
8.72032000 0.996470 127.24 0.083921 37.260 0.083921 37.260 0.996470 127.28
8.72034000 0.996470 127.24 0.083921 37.259 0.083921 37.259 0.996470 127.27
8.72036000 0.996470 127.24 0.083922 37.259 0.083922 37.259 0.996470 127.27
8.72038000 0.996470 127.24 0.083922 37.259 0.083922 37.259 0.996470 127.27
8.72040000 0.996470 127.24 0.083923 37.259 0.083923 37.259 0.996470 127.27
8.72042000 0.996470 127.24 0.083923 37.259 0.083923 37.259 0.996470 127.27
8.72044000 0.996470 127.24 0.083923 37.259 0.083923 37.259 0.996470 127.27
8.72046000 0.996470 127.24 0.083924 37.259 0.083924 37.259 0.996470 127.27
8.72048000 0.996470 127.24 0.083924 37.259 0.083924 37.259 0.996470 127.27
8.72050000 0.996469 127.24 0.083924 37.258 0.083924 37.258 0.996469 127.27
8.72052000 0.996469 127.24 0.083925 37.258 0.083925 37.258 0.996469 127.27
8.72054000 0.996469 127.24 0.083925 37.258 0.083925 37.258 0.996469 127.27
8.72056000 0.996469 127.24 0.083926 37.258 0.083926 37.258 0.996469 127.27
8.72058000 0.996469 127.24 0.083926 37.258 0.083926 37.258 0.996469 127.27
8.72060000 0.996469 127.24 0.083926 37.258 0.083926 37.258 0.996469 127.27
8.72062000 0.996469 127.24 0.083927 37.258 0.083927 37.258 0.996469 127.27
8.72064000 0.996469 127.24 0.083927 37.257 0.083927 37.257 0.996469 127.27
8.72066000 0.996469 127.24 0.083928 37.257 0.083928 37.257 0.996469 127.27
8.72068000 0.996469 127.24 0.083928 37.257 0.083928 37.257 0.996469 127.27
8.72070000 0.996469 127.24 0.083928 37.257 0.083928 37.257 0.996469 127.27
8.72072000 0.996469 127.24 0.083929 37.257 0.083929 37.257 0.996469 127.27
8.72074000 0.996469 127.24 0.083929 37.257 0.083929 37.257 0.996469 127.27
8.72076000 0.996469 127.24 0.083930 37.257 0.083930 37.257 0.996469 127.27
8.72078000 0.996469 127.24 0.083930 37.257 0.083930 37.257 0.996469 127.27
8.72080000 0.996469 127.24 0.083930 37.256 0.083930 37.256 0.996469 127.27
8.72082000 0.996469 127.24 0.083931 37.256 0.083931 37.256 0.996469 127.27
8.72084000 0.996469 127.24 0.083931 37.256 0.083931 37.256 0.996469 127.27
8.72086000 0.996469 127.24 0.083932 37.256 0.083932 37.256 0.996469 127.27
8.72088000 0.996469 127.24 0.083932 37.256 0.083932 37.256 0.996469 127.27
8.72090000 0.996469 127.24 0.083932 37.256 0.083932 37.256 0.996469 127.27
8.72092000 0.996469 127.24 0.083933 37.256 0.083933 37.256 0.996469 127.27
8.72094000 0.996469 127.24 0.083933 37.255 0.083933 37.255 0.996469 127.27
8.72096000 0.996469 127.24 0.083934 37.255 0.083934 37.255 0.996469 127.27
8.72098000 0.996469 127.24 0.083934 37.255 0.083934 37.255 0.996469 127.27
8.72100000 0.996469 127.24 0.083934 37.255 0.083934 37.255 0.996469 127.27
8.72102000 0.996469 127.24 0.083935 37.255 0.083935 37.255 0.996469 127.27
8.72104000 0.996469 127.24 0.083935 37.255 0.083935 37.255 0.996469 127.27
8.72106000 0.996469 127.24 0.083936 37.255 0.083936 37.255 0.996469 127.27
8.72108000 0.996468 127.24 0.083936 37.255 0.083936 37.255 0.996469 127.27
8.72110000 0.996468 127.24 0.083936 37.254 0.083936 37.254 0.996468 127.27
8.72112000 0.996468 127.24 0.083937 37.254 0.083937 37.254 0.996468 127.27
8.72114000 0.996468 127.24 0.083937 37.254 0.083937 37.254 0.996468 127.27
8.72116000 0.996468 127.24 0.083938 37.254 0.083938 37.254 0.996468 127.27
8.72118000 0.996468 127.24 0.083938 37.254 0.083938 37.254 0.996468 127.27
8.72120000 0.996468 127.24 0.083938 37.254 0.083938 37.254 0.996468 127.27
8.72122000 0.996468 127.24 0.083939 37.254 0.083939 37.254 0.996468 127.27
8.72124000 0.996468 127.24 0.083939 37.254 0.083939 37.254 0.996468 127.27
8.72126000 0.996468 127.24 0.083940 37.253 0.083940 37.253 0.996468 127.27
8.72128000 0.996468 127.24 0.083940 37.253 0.083940 37.253 0.996468 127.27
8.72130000 0.996468 127.24 0.083940 37.253 0.083940 37.253 0.996468 127.27
8.72132000 0.996468 127.23 0.083941 37.253 0.083941 37.253 0.996468 127.27
8.72134000 0.996468 127.23 0.083941 37.253 0.083941 37.253 0.996468 127.27
8.72136000 0.996468 127.23 0.083942 37.253 0.083942 37.253 0.996468 127.27
8.72138000 0.996468 127.23 0.083942 37.253 0.083942 37.253 0.996468 127.27
8.72140000 0.996468 127.23 0.083943 37.252 0.083943 37.252 0.996468 127.27
8.72142000 0.996468 127.23 0.083943 37.252 0.083943 37.252 0.996468 127.27
8.72144000 0.996468 127.23 0.083943 37.252 0.083943 37.252 0.996468 127.27
8.72146000 0.996468 127.23 0.083944 37.252 0.083944 37.252 0.996468 127.27
8.72148000 0.996468 127.23 0.083944 37.252 0.083944 37.252 0.996468 127.27
8.72150000 0.996468 127.23 0.083945 37.252 0.083945 37.252 0.996468 127.27
8.72152000 0.996468 127.23 0.083945 37.252 0.083945 37.252 0.996468 127.27
8.72154000 0.996468 127.23 0.083945 37.252 0.083945 37.252 0.996468 127.27
8.72156000 0.996468 127.23 0.083946 37.251 0.083946 37.251 0.996468 127.27
8.72158000 0.996468 127.23 0.083946 37.251 0.083946 37.251 0.996468 127.27
8.72160000 0.996468 127.23 0.083947 37.251 0.083947 37.251 0.996468 127.27
8.72162000 0.996468 127.23 0.083947 37.251 0.083947 37.251 0.996468 127.27
8.72164000 0.996468 127.23 0.083947 37.251 0.083947 37.251 0.996468 127.27
8.72166000 0.996467 127.23 0.083948 37.251 0.083948 37.251 0.996468 127.27
8.72168000 0.996467 127.23 0.083948 37.251 0.083948 37.251 0.996467 127.27
8.72170000 0.996467 127.23 0.083949 37.250 0.083949 37.250 0.996467 127.27
8.72172000 0.996467 127.23 0.083949 37.250 0.083949 37.250 0.996467 127.27
8.72174000 0.996467 127.23 0.083949 37.250 0.083949 37.250 0.996467 127.27
8.72176000 0.996467 127.23 0.083950 37.250 0.083950 37.250 0.996467 127.27
8.72178000 0.996467 127.23 0.083950 37.250 0.083950 37.250 0.996467 127.27
8.72180000 0.996467 127.23 0.083951 37.250 0.083951 37.250 0.996467 127.27
8.72182000 0.996467 127.23 0.083951 37.250 0.083951 37.250 0.996467 127.27
8.72184000 0.996467 127.23 0.083952 37.250 0.083952 37.250 0.996467 127.27
8.72186000 0.996467 127.23 0.083952 37.249 0.083952 37.249 0.996467 127.26
8.72188000 0.996467 127.23 0.083952 37.249 0.083952 37.249 0.996467 127.26
8.72190000 0.996467 127.23 0.083953 37.249 0.083953 37.249 0.996467 127.26
8.72192000 0.996467 127.23 0.083953 37.249 0.083953 37.249 0.996467 127.26
8.72194000 0.996467 127.23 0.083954 37.249 0.083954 37.249 0.996467 127.26
8.72196000 0.996467 127.23 0.083954 37.249 0.083954 37.249 0.996467 127.26
8.72198000 0.996467 127.23 0.083954 37.249 0.083954 37.249 0.996467 127.26
8.72200000 0.996467 127.23 0.083955 37.248 0.083955 37.248 0.996467 127.26
8.72202000 0.996467 127.23 0.083955 37.248 0.083955 37.248 0.996467 127.26
8.72204000 0.996467 127.23 0.083956 37.248 0.083956 37.248 0.996467 127.26
8.72206000 0.996467 127.23 0.083956 37.248 0.083956 37.248 0.996467 127.26
8.72208000 0.996467 127.23 0.083956 37.248 0.083956 37.248 0.996467 127.26
8.72210000 0.996467 127.23 0.083957 37.248 0.083957 37.248 0.996467 127.26
8.72212000 0.996467 127.23 0.083957 37.248 0.083957 37.248 0.996467 127.26
8.72214000 0.996467 127.23 0.083958 37.248 0.083958 37.248 0.996467 127.26
8.72216000 0.996467 127.23 0.083958 37.247 0.083958 37.247 0.996467 127.26
8.72218000 0.996467 127.23 0.083959 37.247 0.083959 37.247 0.996467 127.26
8.72220000 0.996467 127.23 0.083959 37.247 0.083959 37.247 0.996467 127.26
8.72222000 0.996467 127.23 0.083959 37.247 0.083959 37.247 0.996467 127.26
8.72224000 0.996466 127.23 0.083960 37.247 0.083960 37.247 0.996466 127.26
8.72226000 0.996466 127.23 0.083960 37.247 0.083960 37.247 0.996466 127.26
8.72228000 0.996466 127.23 0.083961 37.247 0.083961 37.247 0.996466 127.26
8.72230000 0.996466 127.23 0.083961 37.246 0.083961 37.246 0.996466 127.26
8.72232000 0.996466 127.23 0.083962 37.246 0.083962 37.246 0.996466 127.26
8.72234000 0.996466 127.23 0.083962 37.246 0.083962 37.246 0.996466 127.26
8.72236000 0.996466 127.23 0.083962 37.246 0.083962 37.246 0.996466 127.26
8.72238000 0.996466 127.23 0.083963 37.246 0.083963 37.246 0.996466 127.26
8.72240000 0.996466 127.23 0.083963 37.246 0.083963 37.246 0.996466 127.26
8.72242000 0.996466 127.23 0.083964 37.246 0.083964 37.246 0.996466 127.26
8.72244000 0.996466 127.23 0.083964 37.245 0.083964 37.245 0.996466 127.26
8.72246000 0.996466 127.23 0.083964 37.245 0.083964 37.245 0.996466 127.26
8.72248000 0.996466 127.23 0.083965 37.245 0.083965 37.245 0.996466 127.26
8.72250000 0.996466 127.23 0.083965 37.245 0.083965 37.245 0.996466 127.26
8.72252000 0.996466 127.23 0.083966 37.245 0.083966 37.245 0.996466 127.26
8.72254000 0.996466 127.23 0.083966 37.245 0.083966 37.245 0.996466 127.26
8.72256000 0.996466 127.23 0.083967 37.245 0.083967 37.245 0.996466 127.26
8.72258000 0.996466 127.23 0.083967 37.245 0.083967 37.245 0.996466 127.26
8.72260000 0.996466 127.23 0.083967 37.244 0.083967 37.244 0.996466 127.26
8.72262000 0.996466 127.23 0.083968 37.244 0.083968 37.244 0.996466 127.26
8.72264000 0.996466 127.23 0.083968 37.244 0.083968 37.244 0.996466 127.26
8.72266000 0.996466 127.23 0.083969 37.244 0.083969 37.244 0.996466 127.26
8.72268000 0.996466 127.23 0.083969 37.244 0.083969 37.244 0.996466 127.26
8.72270000 0.996466 127.23 0.083970 37.244 0.083970 37.244 0.996466 127.26
8.72272000 0.996466 127.23 0.083970 37.244 0.083970 37.244 0.996466 127.26
8.72274000 0.996466 127.23 0.083970 37.243 0.083970 37.243 0.996466 127.26
8.72276000 0.996466 127.23 0.083971 37.243 0.083971 37.243 0.996466 127.26
8.72278000 0.996466 127.23 0.083971 37.243 0.083971 37.243 0.996466 127.26
8.72280000 0.996465 127.23 0.083972 37.243 0.083972 37.243 0.996465 127.26
8.72282000 0.996465 127.22 0.083972 37.243 0.083972 37.243 0.996465 127.26
8.72284000 0.996465 127.22 0.083973 37.243 0.083973 37.243 0.996465 127.26
8.72286000 0.996465 127.22 0.083973 37.243 0.083973 37.243 0.996465 127.26
8.72288000 0.996465 127.22 0.083973 37.243 0.083973 37.243 0.996465 127.26
8.72290000 0.996465 127.22 0.083974 37.242 0.083974 37.242 0.996465 127.26
8.72292000 0.996465 127.22 0.083974 37.242 0.083974 37.242 0.996465 127.26
8.72294000 0.996465 127.22 0.083975 37.242 0.083975 37.242 0.996465 127.26
8.72296000 0.996465 127.22 0.083975 37.242 0.083975 37.242 0.996465 127.26
8.72298000 0.996465 127.22 0.083976 37.242 0.083976 37.242 0.996465 127.26
8.72300000 0.996465 127.22 0.083976 37.242 0.083976 37.242 0.996465 127.26
8.72302000 0.996465 127.22 0.083976 37.242 0.083976 37.242 0.996465 127.26
8.72304000 0.996465 127.22 0.083977 37.241 0.083977 37.241 0.996465 127.26
8.72306000 0.996465 127.22 0.083977 37.241 0.083977 37.241 0.996465 127.26
8.72308000 0.996465 127.22 0.083978 37.241 0.083978 37.241 0.996465 127.26
8.72310000 0.996465 127.22 0.083978 37.241 0.083978 37.241 0.996465 127.26
8.72312000 0.996465 127.22 0.083979 37.241 0.083979 37.241 0.996465 127.26
8.72314000 0.996465 127.22 0.083979 37.241 0.083979 37.241 0.996465 127.26
8.72316000 0.996465 127.22 0.083979 37.241 0.083979 37.241 0.996465 127.26
8.72318000 0.996465 127.22 0.083980 37.241 0.083980 37.241 0.996465 127.26
8.72320000 0.996465 127.22 0.083980 37.240 0.083980 37.240 0.996465 127.26
8.72322000 0.996465 127.22 0.083981 37.240 0.083981 37.240 0.996465 127.26
8.72324000 0.996465 127.22 0.083981 37.240 0.083981 37.240 0.996465 127.26
8.72326000 0.996465 127.22 0.083982 37.240 0.083982 37.240 0.996465 127.26
8.72328000 0.996465 127.22 0.083982 37.240 0.083982 37.240 0.996465 127.26
8.72330000 0.996465 127.22 0.083983 37.240 0.083983 37.240 0.996465 127.26
8.72332000 0.996465 127.22 0.083983 37.240 0.083983 37.240 0.996465 127.26
8.72334000 0.996464 127.22 0.083983 37.239 0.083983 37.239 0.996464 127.26
8.72336000 0.996464 127.22 0.083984 37.239 0.083984 37.239 0.996464 127.25
8.72338000 0.996464 127.22 0.083984 37.239 0.083984 37.239 0.996464 127.25
8.72340000 0.996464 127.22 0.083985 37.239 0.083985 37.239 0.996464 127.25
8.72342000 0.996464 127.22 0.083985 37.239 0.083985 37.239 0.996464 127.25
8.72344000 0.996464 127.22 0.083986 37.239 0.083986 37.239 0.996464 127.25
8.72346000 0.996464 127.22 0.083986 37.239 0.083986 37.239 0.996464 127.25
8.72348000 0.996464 127.22 0.083986 37.238 0.083986 37.238 0.996464 127.25
8.72350000 0.996464 127.22 0.083987 37.238 0.083987 37.238 0.996464 127.25
8.72352000 0.996464 127.22 0.083987 37.238 0.083987 37.238 0.996464 127.25
8.72354000 0.996464 127.22 0.083988 37.238 0.083988 37.238 0.996464 127.25
8.72356000 0.996464 127.22 0.083988 37.238 0.083988 37.238 0.996464 127.25
8.72358000 0.996464 127.22 0.083989 37.238 0.083989 37.238 0.996464 127.25
8.72360000 0.996464 127.22 0.083989 37.238 0.083989 37.238 0.996464 127.25
8.72362000 0.996464 127.22 0.083990 37.238 0.083990 37.238 0.996464 127.25
8.72364000 0.996464 127.22 0.083990 37.237 0.083990 37.237 0.996464 127.25
8.72366000 0.996464 127.22 0.083990 37.237 0.083990 37.237 0.996464 127.25
8.72368000 0.996464 127.22 0.083991 37.237 0.083991 37.237 0.996464 127.25
8.72370000 0.996464 127.22 0.083991 37.237 0.083991 37.237 0.996464 127.25
8.72372000 0.996464 127.22 0.083992 37.237 0.083992 37.237 0.996464 127.25
8.72374000 0.996464 127.22 0.083992 37.237 0.083992 37.237 0.996464 127.25
8.72376000 0.996464 127.22 0.083993 37.237 0.083993 37.237 0.996464 127.25
8.72378000 0.996464 127.22 0.083993 37.236 0.083993 37.236 0.996464 127.25
8.72380000 0.996464 127.22 0.083994 37.236 0.083994 37.236 0.996464 127.25
8.72382000 0.996464 127.22 0.083994 37.236 0.083994 37.236 0.996464 127.25
8.72384000 0.996464 127.22 0.083994 37.236 0.083994 37.236 0.996464 127.25
8.72386000 0.996463 127.22 0.083995 37.236 0.083995 37.236 0.996464 127.25
8.72388000 0.996463 127.22 0.083995 37.236 0.083995 37.236 0.996463 127.25
8.72390000 0.996463 127.22 0.083996 37.236 0.083996 37.236 0.996463 127.25
8.72392000 0.996463 127.22 0.083996 37.236 0.083996 37.236 0.996463 127.25
8.72394000 0.996463 127.22 0.083997 37.235 0.083997 37.235 0.996463 127.25
8.72396000 0.996463 127.22 0.083997 37.235 0.083997 37.235 0.996463 127.25
8.72398000 0.996463 127.22 0.083998 37.235 0.083998 37.235 0.996463 127.25
8.72400000 0.996463 127.22 0.083998 37.235 0.083998 37.235 0.996463 127.25
8.72402000 0.996463 127.22 0.083998 37.235 0.083998 37.235 0.996463 127.25
8.72404000 0.996463 127.22 0.083999 37.235 0.083999 37.235 0.996463 127.25
8.72406000 0.996463 127.22 0.083999 37.235 0.083999 37.235 0.996463 127.25
8.72408000 0.996463 127.22 0.084000 37.234 0.084000 37.234 0.996463 127.25
8.72410000 0.996463 127.22 0.084000 37.234 0.084000 37.234 0.996463 127.25
8.72412000 0.996463 127.22 0.084001 37.234 0.084001 37.234 0.996463 127.25
8.72414000 0.996463 127.22 0.084001 37.234 0.084001 37.234 0.996463 127.25
8.72416000 0.996463 127.22 0.084002 37.234 0.084002 37.234 0.996463 127.25
8.72418000 0.996463 127.22 0.084002 37.234 0.084002 37.234 0.996463 127.25
8.72420000 0.996463 127.22 0.084003 37.234 0.084003 37.234 0.996463 127.25
8.72422000 0.996463 127.22 0.084003 37.233 0.084003 37.233 0.996463 127.25
8.72424000 0.996463 127.22 0.084003 37.233 0.084003 37.233 0.996463 127.25
8.72426000 0.996463 127.22 0.084004 37.233 0.084004 37.233 0.996463 127.25
8.72428000 0.996463 127.21 0.084004 37.233 0.084004 37.233 0.996463 127.25
8.72430000 0.996463 127.21 0.084005 37.233 0.084005 37.233 0.996463 127.25
8.72432000 0.996463 127.21 0.084005 37.233 0.084005 37.233 0.996463 127.25
8.72434000 0.996463 127.21 0.084006 37.233 0.084006 37.233 0.996463 127.25
8.72436000 0.996463 127.21 0.084006 37.233 0.084006 37.233 0.996463 127.25
8.72438000 0.996462 127.21 0.084007 37.232 0.084007 37.232 0.996463 127.25
8.72440000 0.996462 127.21 0.084007 37.232 0.084007 37.232 0.996462 127.25
8.72442000 0.996462 127.21 0.084008 37.232 0.084008 37.232 0.996462 127.25
8.72444000 0.996462 127.21 0.084008 37.232 0.084008 37.232 0.996462 127.25
8.72446000 0.996462 127.21 0.084008 37.232 0.084008 37.232 0.996462 127.25
8.72448000 0.996462 127.21 0.084009 37.232 0.084009 37.232 0.996462 127.25
8.72450000 0.996462 127.21 0.084009 37.232 0.084009 37.232 0.996462 127.25
8.72452000 0.996462 127.21 0.084010 37.231 0.084010 37.231 0.996462 127.25
8.72454000 0.996462 127.21 0.084010 37.231 0.084010 37.231 0.996462 127.25
8.72456000 0.996462 127.21 0.084011 37.231 0.084011 37.231 0.996462 127.25
8.72458000 0.996462 127.21 0.084011 37.231 0.084011 37.231 0.996462 127.25
8.72460000 0.996462 127.21 0.084012 37.231 0.084012 37.231 0.996462 127.25
8.72462000 0.996462 127.21 0.084012 37.231 0.084012 37.231 0.996462 127.25
8.72464000 0.996462 127.21 0.084013 37.231 0.084013 37.231 0.996462 127.25
8.72466000 0.996462 127.21 0.084013 37.230 0.084013 37.230 0.996462 127.25
8.72468000 0.996462 127.21 0.084014 37.230 0.084014 37.230 0.996462 127.25
8.72470000 0.996462 127.21 0.084014 37.230 0.084014 37.230 0.996462 127.25
8.72472000 0.996462 127.21 0.084014 37.230 0.084014 37.230 0.996462 127.25
8.72474000 0.996462 127.21 0.084015 37.230 0.084015 37.230 0.996462 127.25
8.72476000 0.996462 127.21 0.084015 37.230 0.084015 37.230 0.996462 127.25
8.72478000 0.996462 127.21 0.084016 37.230 0.084016 37.230 0.996462 127.25
8.72480000 0.996462 127.21 0.084016 37.230 0.084016 37.230 0.996462 127.25
8.72482000 0.996462 127.21 0.084017 37.229 0.084017 37.229 0.996462 127.25
8.72484000 0.996462 127.21 0.084017 37.229 0.084017 37.229 0.996462 127.24
8.72486000 0.996462 127.21 0.084018 37.229 0.084018 37.229 0.996462 127.24
8.72488000 0.996462 127.21 0.084018 37.229 0.084018 37.229 0.996462 127.24
8.72490000 0.996461 127.21 0.084019 37.229 0.084019 37.229 0.996461 127.24
8.72492000 0.996461 127.21 0.084019 37.229 0.084019 37.229 0.996461 127.24
8.72494000 0.996461 127.21 0.084020 37.229 0.084020 37.229 0.996461 127.24
8.72496000 0.996461 127.21 0.084020 37.228 0.084020 37.228 0.996461 127.24
8.72498000 0.996461 127.21 0.084021 37.228 0.084021 37.228 0.996461 127.24
8.72500000 0.996461 127.21 0.084021 37.228 0.084021 37.228 0.996461 127.24
8.72502000 0.996461 127.21 0.084021 37.228 0.084021 37.228 0.996461 127.24
8.72504000 0.996461 127.21 0.084022 37.228 0.084022 37.228 0.996461 127.24
8.72506000 0.996461 127.21 0.084022 37.228 0.084022 37.228 0.996461 127.24
8.72508000 0.996461 127.21 0.084023 37.228 0.084023 37.228 0.996461 127.24
8.72510000 0.996461 127.21 0.084023 37.227 0.084023 37.227 0.996461 127.24
8.72512000 0.996461 127.21 0.084024 37.227 0.084024 37.227 0.996461 127.24
8.72514000 0.996461 127.21 0.084024 37.227 0.084024 37.227 0.996461 127.24
8.72516000 0.996461 127.21 0.084025 37.227 0.084025 37.227 0.996461 127.24
8.72518000 0.996461 127.21 0.084025 37.227 0.084025 37.227 0.996461 127.24
8.72520000 0.996461 127.21 0.084026 37.227 0.084026 37.227 0.996461 127.24
8.72522000 0.996461 127.21 0.084026 37.227 0.084026 37.227 0.996461 127.24
8.72524000 0.996461 127.21 0.084027 37.227 0.084027 37.227 0.996461 127.24
8.72526000 0.996461 127.21 0.084027 37.226 0.084027 37.226 0.996461 127.24
8.72528000 0.996461 127.21 0.084028 37.226 0.084028 37.226 0.996461 127.24
8.72530000 0.996461 127.21 0.084028 37.226 0.084028 37.226 0.996461 127.24
8.72532000 0.996461 127.21 0.084029 37.226 0.084029 37.226 0.996461 127.24
8.72534000 0.996461 127.21 0.084029 37.226 0.084029 37.226 0.996461 127.24
8.72536000 0.996461 127.21 0.084030 37.226 0.084030 37.226 0.996461 127.24
8.72538000 0.996460 127.21 0.084030 37.226 0.084030 37.226 0.996461 127.24
8.72540000 0.996460 127.21 0.084030 37.225 0.084030 37.225 0.996460 127.24
8.72542000 0.996460 127.21 0.084031 37.225 0.084031 37.225 0.996460 127.24
8.72544000 0.996460 127.21 0.084031 37.225 0.084031 37.225 0.996460 127.24
8.72546000 0.996460 127.21 0.084032 37.225 0.084032 37.225 0.996460 127.24
8.72548000 0.996460 127.21 0.084032 37.225 0.084032 37.225 0.996460 127.24
8.72550000 0.996460 127.21 0.084033 37.225 0.084033 37.225 0.996460 127.24
8.72552000 0.996460 127.21 0.084033 37.225 0.084033 37.225 0.996460 127.24
8.72554000 0.996460 127.21 0.084034 37.224 0.084034 37.224 0.996460 127.24
8.72556000 0.996460 127.21 0.084034 37.224 0.084034 37.224 0.996460 127.24
8.72558000 0.996460 127.21 0.084035 37.224 0.084035 37.224 0.996460 127.24
8.72560000 0.996460 127.21 0.084035 37.224 0.084035 37.224 0.996460 127.24
8.72562000 0.996460 127.21 0.084036 37.224 0.084036 37.224 0.996460 127.24
8.72564000 0.996460 127.21 0.084036 37.224 0.084036 37.224 0.996460 127.24
8.72566000 0.996460 127.21 0.084037 37.224 0.084037 37.224 0.996460 127.24
8.72568000 0.996460 127.21 0.084037 37.223 0.084037 37.223 0.996460 127.24
8.72570000 0.996460 127.21 0.084038 37.223 0.084038 37.223 0.996460 127.24
8.72572000 0.996460 127.21 0.084038 37.223 0.084038 37.223 0.996460 127.24
8.72574000 0.996460 127.20 0.084039 37.223 0.084039 37.223 0.996460 127.24
8.72576000 0.996460 127.20 0.084039 37.223 0.084039 37.223 0.996460 127.24
8.72578000 0.996460 127.20 0.084040 37.223 0.084040 37.223 0.996460 127.24
8.72580000 0.996460 127.20 0.084040 37.223 0.084040 37.223 0.996460 127.24
8.72582000 0.996460 127.20 0.084041 37.223 0.084041 37.223 0.996460 127.24
8.72584000 0.996460 127.20 0.084041 37.222 0.084041 37.222 0.996460 127.24
8.72586000 0.996460 127.20 0.084042 37.222 0.084042 37.222 0.996460 127.24
8.72588000 0.996459 127.20 0.084042 37.222 0.084042 37.222 0.996459 127.24
8.72590000 0.996459 127.20 0.084043 37.222 0.084043 37.222 0.996459 127.24
8.72592000 0.996459 127.20 0.084043 37.222 0.084043 37.222 0.996459 127.24
8.72594000 0.996459 127.20 0.084044 37.222 0.084044 37.222 0.996459 127.24
8.72596000 0.996459 127.20 0.084044 37.222 0.084044 37.222 0.996459 127.24
8.72598000 0.996459 127.20 0.084045 37.221 0.084045 37.221 0.996459 127.24
8.72600000 0.996459 127.20 0.084045 37.221 0.084045 37.221 0.996459 127.24
8.72602000 0.996459 127.20 0.084046 37.221 0.084046 37.221 0.996459 127.24
8.72604000 0.996459 127.20 0.084046 37.221 0.084046 37.221 0.996459 127.24
8.72606000 0.996459 127.20 0.084047 37.221 0.084047 37.221 0.996459 127.24
8.72608000 0.996459 127.20 0.084047 37.221 0.084047 37.221 0.996459 127.24
8.72610000 0.996459 127.20 0.084048 37.221 0.084048 37.221 0.996459 127.24
8.72612000 0.996459 127.20 0.084048 37.220 0.084048 37.220 0.996459 127.24
8.72614000 0.996459 127.20 0.084049 37.220 0.084049 37.220 0.996459 127.24
8.72616000 0.996459 127.20 0.084049 37.220 0.084049 37.220 0.996459 127.24
8.72618000 0.996459 127.20 0.084050 37.220 0.084050 37.220 0.996459 127.24
8.72620000 0.996459 127.20 0.084050 37.220 0.084050 37.220 0.996459 127.24
8.72622000 0.996459 127.20 0.084051 37.220 0.084051 37.220 0.996459 127.24
8.72624000 0.996459 127.20 0.084051 37.220 0.084051 37.220 0.996459 127.24
8.72626000 0.996459 127.20 0.084052 37.219 0.084052 37.219 0.996459 127.24
8.72628000 0.996459 127.20 0.084052 37.219 0.084052 37.219 0.996459 127.24
8.72630000 0.996459 127.20 0.084053 37.219 0.084053 37.219 0.996459 127.23
8.72632000 0.996459 127.20 0.084053 37.219 0.084053 37.219 0.996459 127.23
8.72634000 0.996458 127.20 0.084054 37.219 0.084054 37.219 0.996459 127.23
8.72636000 0.996458 127.20 0.084054 37.219 0.084054 37.219 0.996458 127.23
8.72638000 0.996458 127.20 0.084055 37.219 0.084055 37.219 0.996458 127.23
8.72640000 0.996458 127.20 0.084055 37.219 0.084055 37.219 0.996458 127.23
8.72642000 0.996458 127.20 0.084056 37.218 0.084056 37.218 0.996458 127.23
8.72644000 0.996458 127.20 0.084056 37.218 0.084056 37.218 0.996458 127.23
8.72646000 0.996458 127.20 0.084057 37.218 0.084057 37.218 0.996458 127.23
8.72648000 0.996458 127.20 0.084057 37.218 0.084057 37.218 0.996458 127.23
8.72650000 0.996458 127.20 0.084058 37.218 0.084058 37.218 0.996458 127.23
8.72652000 0.996458 127.20 0.084058 37.218 0.084058 37.218 0.996458 127.23
8.72654000 0.996458 127.20 0.084059 37.218 0.084059 37.218 0.996458 127.23
8.72656000 0.996458 127.20 0.084059 37.217 0.084059 37.217 0.996458 127.23
8.72658000 0.996458 127.20 0.084060 37.217 0.084060 37.217 0.996458 127.23
8.72660000 0.996458 127.20 0.084060 37.217 0.084060 37.217 0.996458 127.23
8.72662000 0.996458 127.20 0.084061 37.217 0.084061 37.217 0.996458 127.23
8.72664000 0.996458 127.20 0.084061 37.217 0.084061 37.217 0.996458 127.23
8.72666000 0.996458 127.20 0.084062 37.217 0.084062 37.217 0.996458 127.23
8.72668000 0.996458 127.20 0.084062 37.217 0.084062 37.217 0.996458 127.23
8.72670000 0.996458 127.20 0.084063 37.216 0.084063 37.216 0.996458 127.23
8.72672000 0.996458 127.20 0.084063 37.216 0.084063 37.216 0.996458 127.23
8.72674000 0.996458 127.20 0.084064 37.216 0.084064 37.216 0.996458 127.23
8.72676000 0.996458 127.20 0.084064 37.216 0.084064 37.216 0.996458 127.23
8.72678000 0.996458 127.20 0.084065 37.216 0.084065 37.216 0.996458 127.23
8.72680000 0.996457 127.20 0.084065 37.216 0.084065 37.216 0.996458 127.23
8.72682000 0.996457 127.20 0.084066 37.216 0.084066 37.216 0.996457 127.23
8.72684000 0.996457 127.20 0.084066 37.215 0.084066 37.215 0.996457 127.23
8.72686000 0.996457 127.20 0.084067 37.215 0.084067 37.215 0.996457 127.23
8.72688000 0.996457 127.20 0.084067 37.215 0.084067 37.215 0.996457 127.23
8.72690000 0.996457 127.20 0.084068 37.215 0.084068 37.215 0.996457 127.23
8.72692000 0.996457 127.20 0.084068 37.215 0.084068 37.215 0.996457 127.23
8.72694000 0.996457 127.20 0.084069 37.215 0.084069 37.215 0.996457 127.23
8.72696000 0.996457 127.20 0.084069 37.215 0.084069 37.215 0.996457 127.23
8.72698000 0.996457 127.20 0.084070 37.214 0.084070 37.214 0.996457 127.23
8.72700000 0.996457 127.20 0.084070 37.214 0.084070 37.214 0.996457 127.23
8.72702000 0.996457 127.20 0.084071 37.214 0.084071 37.214 0.996457 127.23
8.72704000 0.996457 127.20 0.084072 37.214 0.084072 37.214 0.996457 127.23
8.72706000 0.996457 127.20 0.084072 37.214 0.084072 37.214 0.996457 127.23
8.72708000 0.996457 127.20 0.084073 37.214 0.084073 37.214 0.996457 127.23
8.72710000 0.996457 127.20 0.084073 37.214 0.084073 37.214 0.996457 127.23
8.72712000 0.996457 127.20 0.084074 37.213 0.084074 37.213 0.996457 127.23
8.72714000 0.996457 127.20 0.084074 37.213 0.084074 37.213 0.996457 127.23
8.72716000 0.996457 127.20 0.084075 37.213 0.084075 37.213 0.996457 127.23
8.72718000 0.996457 127.19 0.084075 37.213 0.084075 37.213 0.996457 127.23
8.72720000 0.996457 127.19 0.084076 37.213 0.084076 37.213 0.996457 127.23
8.72722000 0.996457 127.19 0.084076 37.213 0.084076 37.213 0.996457 127.23
8.72724000 0.996456 127.19 0.084077 37.213 0.084077 37.213 0.996457 127.23
8.72726000 0.996456 127.19 0.084077 37.213 0.084077 37.213 0.996456 127.23
8.72728000 0.996456 127.19 0.084078 37.212 0.084078 37.212 0.996456 127.23
8.72730000 0.996456 127.19 0.084078 37.212 0.084078 37.212 0.996456 127.23
8.72732000 0.996456 127.19 0.084079 37.212 0.084079 37.212 0.996456 127.23
8.72734000 0.996456 127.19 0.084079 37.212 0.084079 37.212 0.996456 127.23
8.72736000 0.996456 127.19 0.084080 37.212 0.084080 37.212 0.996456 127.23
8.72738000 0.996456 127.19 0.084081 37.212 0.084081 37.212 0.996456 127.23
8.72740000 0.996456 127.19 0.084081 37.212 0.084081 37.212 0.996456 127.23
8.72742000 0.996456 127.19 0.084082 37.211 0.084082 37.211 0.996456 127.23
8.72744000 0.996456 127.19 0.084082 37.211 0.084082 37.211 0.996456 127.23
8.72746000 0.996456 127.19 0.084083 37.211 0.084083 37.211 0.996456 127.23
8.72748000 0.996456 127.19 0.084083 37.211 0.084083 37.211 0.996456 127.23
8.72750000 0.996456 127.19 0.084084 37.211 0.084084 37.211 0.996456 127.23
8.72752000 0.996456 127.19 0.084084 37.211 0.084084 37.211 0.996456 127.23
8.72754000 0.996456 127.19 0.084085 37.211 0.084085 37.211 0.996456 127.23
8.72756000 0.996456 127.19 0.084085 37.210 0.084085 37.210 0.996456 127.23
8.72758000 0.996456 127.19 0.084086 37.210 0.084086 37.210 0.996456 127.23
8.72760000 0.996456 127.19 0.084086 37.210 0.084086 37.210 0.996456 127.23
8.72762000 0.996456 127.19 0.084087 37.210 0.084087 37.210 0.996456 127.23
8.72764000 0.996456 127.19 0.084087 37.210 0.084087 37.210 0.996456 127.23
8.72766000 0.996456 127.19 0.084088 37.210 0.084088 37.210 0.996456 127.23
8.72768000 0.996455 127.19 0.084089 37.210 0.084089 37.210 0.996456 127.23
8.72770000 0.996455 127.19 0.084089 37.209 0.084089 37.209 0.996455 127.23
8.72772000 0.996455 127.19 0.084090 37.209 0.084090 37.209 0.996455 127.23
8.72774000 0.996455 127.19 0.084090 37.209 0.084090 37.209 0.996455 127.22
8.72776000 0.996455 127.19 0.084091 37.209 0.084091 37.209 0.996455 127.22
8.72778000 0.996455 127.19 0.084091 37.209 0.084091 37.209 0.996455 127.22
8.72780000 0.996455 127.19 0.084092 37.209 0.084092 37.209 0.996455 127.22
8.72782000 0.996455 127.19 0.084092 37.209 0.084092 37.209 0.996455 127.22
8.72784000 0.996455 127.19 0.084093 37.208 0.084093 37.208 0.996455 127.22