! Sonnet Data File
! From: emgraph Version : 16.52
! From Project: Qubit_Xmon2_brg_para2
! Data is De-embedded 
! Data File Written: 11/12/2017 19:07:08
!< HDATE 11/12/2017 17:14:45
!< MDATE 11/12/2017 17:15:37
!< PARAMS
!< Lj = 11.0
!< Gap = 6.0
!< Pwid = 2000.0
!< Airgap = 6.0
!< Width = 10.0
!< Bwid = 8.0
!< Dis1 = 350.0
!< Dis2 = 356.0
!< END PARAMS
# GHZ S MA R 34.65000
8.68500000 0.986050 109.29 0.166390 19.143 0.166390 19.143 0.986050 109.00
!< P1 F=8.685 Eeff=(5.13531798 -5.6615e-5) Z0=(34.6525852 -9.396e-5) R=0.0 C=0.0 
!< P2 F=8.685 Eeff=(5.13531798 -5.6615e-5) Z0=(34.6525852 -9.396e-5) R=0.0 C=0.0 
8.68500500 0.986050 109.29 0.166392 19.143 0.166392 19.143 0.986050 109.00
8.68501000 0.986050 109.29 0.166393 19.143 0.166393 19.143 0.986050 109.00
8.68501500 0.986050 109.29 0.166395 19.143 0.166395 19.143 0.986049 109.00
8.68502000 0.986049 109.29 0.166396 19.143 0.166396 19.143 0.986049 109.00
8.68502500 0.986049 109.29 0.166398 19.142 0.166398 19.142 0.986049 109.00
8.68503000 0.986049 109.29 0.166400 19.142 0.166400 19.142 0.986049 109.00
8.68503500 0.986049 109.29 0.166401 19.142 0.166401 19.142 0.986048 109.00
8.68504000 0.986048 109.29 0.166403 19.142 0.166403 19.142 0.986048 109.00
8.68504500 0.986048 109.29 0.166404 19.142 0.166404 19.142 0.986048 109.00
8.68505000 0.986048 109.29 0.166406 19.142 0.166406 19.142 0.986048 109.00
8.68505500 0.986047 109.29 0.166408 19.142 0.166408 19.142 0.986047 109.00
8.68506000 0.986047 109.28 0.166409 19.142 0.166409 19.142 0.986047 109.00
8.68506500 0.986047 109.28 0.166411 19.141 0.166411 19.141 0.986047 109.00
8.68507000 0.986047 109.28 0.166412 19.141 0.166412 19.141 0.986046 109.00
8.68507500 0.986046 109.28 0.166414 19.141 0.166414 19.141 0.986046 109.00
8.68508000 0.986046 109.28 0.166416 19.141 0.166416 19.141 0.986046 109.00
8.68508500 0.986046 109.28 0.166417 19.141 0.166417 19.141 0.986046 109.00
8.68509000 0.986045 109.28 0.166419 19.141 0.166419 19.141 0.986045 109.00
8.68509500 0.986045 109.28 0.166420 19.141 0.166420 19.141 0.986045 109.00
8.68510000 0.986045 109.28 0.166422 19.140 0.166422 19.140 0.986045 109.00
8.68510500 0.986045 109.28 0.166424 19.140 0.166424 19.140 0.986044 109.00
8.68511000 0.986044 109.28 0.166425 19.140 0.166425 19.140 0.986044 109.00
8.68511500 0.986044 109.28 0.166427 19.140 0.166427 19.140 0.986044 109.00
8.68512000 0.986044 109.28 0.166428 19.140 0.166428 19.140 0.986044 109.00
8.68512500 0.986044 109.28 0.166430 19.140 0.166430 19.140 0.986043 109.00
8.68513000 0.986043 109.28 0.166432 19.140 0.166432 19.140 0.986043 109.00
8.68513500 0.986043 109.28 0.166433 19.140 0.166433 19.140 0.986043 109.00
8.68514000 0.986043 109.28 0.166435 19.139 0.166435 19.139 0.986042 109.00
8.68514500 0.986042 109.28 0.166437 19.139 0.166437 19.139 0.986042 109.00
8.68515000 0.986042 109.28 0.166438 19.139 0.166438 19.139 0.986042 109.00
8.68515500 0.986042 109.28 0.166440 19.139 0.166440 19.139 0.986042 109.00
8.68516000 0.986042 109.28 0.166442 19.139 0.166442 19.139 0.986041 109.00
8.68516500 0.986041 109.28 0.166443 19.139 0.166443 19.139 0.986041 109.00
8.68517000 0.986041 109.28 0.166445 19.139 0.166445 19.139 0.986041 109.00
8.68517500 0.986041 109.28 0.166446 19.138 0.166446 19.138 0.986040 109.00
8.68518000 0.986040 109.28 0.166448 19.138 0.166448 19.138 0.986040 109.00
8.68518500 0.986040 109.28 0.166450 19.138 0.166450 19.138 0.986040 109.00
8.68519000 0.986040 109.28 0.166451 19.138 0.166451 19.138 0.986040 109.00
8.68519500 0.986040 109.28 0.166453 19.138 0.166453 19.138 0.986039 109.00
8.68520000 0.986039 109.28 0.166455 19.138 0.166455 19.138 0.986039 109.00
8.68520500 0.986039 109.28 0.166456 19.138 0.166456 19.138 0.986039 109.00
8.68521000 0.986039 109.28 0.166458 19.138 0.166458 19.138 0.986038 109.00
8.68521500 0.986038 109.28 0.166460 19.137 0.166460 19.137 0.986038 109.00
8.68522000 0.986038 109.28 0.166461 19.137 0.166461 19.137 0.986038 109.00
8.68522500 0.986038 109.28 0.166463 19.137 0.166463 19.137 0.986038 109.00
8.68523000 0.986038 109.28 0.166465 19.137 0.166465 19.137 0.986037 109.00
8.68523500 0.986037 109.28 0.166466 19.137 0.166466 19.137 0.986037 109.00
8.68524000 0.986037 109.28 0.166468 19.137 0.166468 19.137 0.986037 109.00
8.68524500 0.986037 109.28 0.166470 19.137 0.166470 19.137 0.986036 108.99
8.68525000 0.986036 109.28 0.166471 19.136 0.166471 19.136 0.986036 108.99
8.68525500 0.986036 109.28 0.166473 19.136 0.166473 19.136 0.986036 108.99
8.68526000 0.986036 109.28 0.166475 19.136 0.166475 19.136 0.986036 108.99
8.68526500 0.986036 109.28 0.166476 19.136 0.166476 19.136 0.986035 108.99
8.68527000 0.986035 109.28 0.166478 19.136 0.166478 19.136 0.986035 108.99
8.68527500 0.986035 109.28 0.166480 19.136 0.166480 19.136 0.986035 108.99
8.68528000 0.986035 109.28 0.166481 19.136 0.166481 19.136 0.986034 108.99
8.68528500 0.986034 109.28 0.166483 19.136 0.166483 19.136 0.986034 108.99
8.68529000 0.986034 109.28 0.166485 19.135 0.166485 19.135 0.986034 108.99
8.68529500 0.986034 109.28 0.166486 19.135 0.166486 19.135 0.986034 108.99
8.68530000 0.986033 109.28 0.166488 19.135 0.166488 19.135 0.986033 108.99
8.68530500 0.986033 109.28 0.166490 19.135 0.166490 19.135 0.986033 108.99
8.68531000 0.986033 109.28 0.166492 19.135 0.166492 19.135 0.986033 108.99
8.68531500 0.986033 109.28 0.166493 19.135 0.166493 19.135 0.986032 108.99
8.68532000 0.986032 109.28 0.166495 19.135 0.166495 19.135 0.986032 108.99
8.68532500 0.986032 109.28 0.166497 19.134 0.166497 19.134 0.986032 108.99
8.68533000 0.986032 109.28 0.166498 19.134 0.166498 19.134 0.986032 108.99
8.68533500 0.986031 109.28 0.166500 19.134 0.166500 19.134 0.986031 108.99
8.68534000 0.986031 109.28 0.166502 19.134 0.166502 19.134 0.986031 108.99
8.68534500 0.986031 109.28 0.166503 19.134 0.166503 19.134 0.986031 108.99
8.68535000 0.986031 109.28 0.166505 19.134 0.166505 19.134 0.986030 108.99
8.68535500 0.986030 109.28 0.166507 19.134 0.166507 19.134 0.986030 108.99
8.68536000 0.986030 109.28 0.166509 19.133 0.166509 19.133 0.986030 108.99
8.68536500 0.986030 109.28 0.166510 19.133 0.166510 19.133 0.986029 108.99
8.68537000 0.986029 109.28 0.166512 19.133 0.166512 19.133 0.986029 108.99
8.68537500 0.986029 109.28 0.166514 19.133 0.166514 19.133 0.986029 108.99
8.68538000 0.986029 109.28 0.166515 19.133 0.166515 19.133 0.986029 108.99
8.68538500 0.986028 109.28 0.166517 19.133 0.166517 19.133 0.986028 108.99
8.68539000 0.986028 109.28 0.166519 19.133 0.166519 19.133 0.986028 108.99
8.68539500 0.986028 109.28 0.166521 19.133 0.166521 19.133 0.986028 108.99
8.68540000 0.986028 109.28 0.166522 19.132 0.166522 19.132 0.986027 108.99
8.68540500 0.986027 109.28 0.166524 19.132 0.166524 19.132 0.986027 108.99
8.68541000 0.986027 109.28 0.166526 19.132 0.166526 19.132 0.986027 108.99
8.68541500 0.986027 109.28 0.166528 19.132 0.166528 19.132 0.986026 108.99
8.68542000 0.986026 109.28 0.166529 19.132 0.166529 19.132 0.986026 108.99
8.68542500 0.986026 109.28 0.166531 19.132 0.166531 19.132 0.986026 108.99
8.68543000 0.986026 109.28 0.166533 19.132 0.166533 19.132 0.986026 108.99
8.68543500 0.986025 109.28 0.166534 19.131 0.166534 19.131 0.986025 108.99
8.68544000 0.986025 109.27 0.166536 19.131 0.166536 19.131 0.986025 108.99
8.68544500 0.986025 109.27 0.166538 19.131 0.166538 19.131 0.986025 108.99
8.68545000 0.986025 109.27 0.166540 19.131 0.166540 19.131 0.986024 108.99
8.68545500 0.986024 109.27 0.166541 19.131 0.166541 19.131 0.986024 108.99
8.68546000 0.986024 109.27 0.166543 19.131 0.166543 19.131 0.986024 108.99
8.68546500 0.986024 109.27 0.166545 19.131 0.166545 19.131 0.986023 108.99
8.68547000 0.986023 109.27 0.166547 19.130 0.166547 19.130 0.986023 108.99
8.68547500 0.986023 109.27 0.166548 19.130 0.166548 19.130 0.986023 108.99
8.68548000 0.986023 109.27 0.166550 19.130 0.166550 19.130 0.986023 108.99
8.68548500 0.986022 109.27 0.166552 19.130 0.166552 19.130 0.986022 108.99
8.68549000 0.986022 109.27 0.166554 19.130 0.166554 19.130 0.986022 108.99
8.68549500 0.986022 109.27 0.166556 19.130 0.166556 19.130 0.986022 108.99
8.68550000 0.986021 109.27 0.166557 19.130 0.166557 19.130 0.986021 108.99
8.68550500 0.986021 109.27 0.166559 19.129 0.166559 19.129 0.986021 108.99
8.68551000 0.986021 109.27 0.166561 19.129 0.166561 19.129 0.986021 108.99
8.68551500 0.986021 109.27 0.166563 19.129 0.166563 19.129 0.986020 108.99
8.68552000 0.986020 109.27 0.166564 19.129 0.166564 19.129 0.986020 108.99
8.68552500 0.986020 109.27 0.166566 19.129 0.166566 19.129 0.986020 108.99
8.68553000 0.986020 109.27 0.166568 19.129 0.166568 19.129 0.986019 108.99
8.68553500 0.986019 109.27 0.166570 19.129 0.166570 19.129 0.986019 108.99
8.68554000 0.986019 109.27 0.166572 19.128 0.166572 19.128 0.986019 108.99
8.68554500 0.986019 109.27 0.166573 19.128 0.166573 19.128 0.986019 108.99
8.68555000 0.986018 109.27 0.166575 19.128 0.166575 19.128 0.986018 108.99
8.68555500 0.986018 109.27 0.166577 19.128 0.166577 19.128 0.986018 108.99
8.68556000 0.986018 109.27 0.166579 19.128 0.166579 19.128 0.986018 108.99
8.68556500 0.986017 109.27 0.166580 19.128 0.166580 19.128 0.986017 108.99
8.68557000 0.986017 109.27 0.166582 19.128 0.166582 19.128 0.986017 108.99
8.68557500 0.986017 109.27 0.166584 19.127 0.166584 19.127 0.986017 108.99
8.68558000 0.986017 109.27 0.166586 19.127 0.166586 19.127 0.986016 108.99
8.68558500 0.986016 109.27 0.166588 19.127 0.166588 19.127 0.986016 108.99
8.68559000 0.986016 109.27 0.166589 19.127 0.166589 19.127 0.986016 108.99
8.68559500 0.986016 109.27 0.166591 19.127 0.166591 19.127 0.986015 108.99
8.68560000 0.986015 109.27 0.166593 19.127 0.166593 19.127 0.986015 108.99
8.68560500 0.986015 109.27 0.166595 19.127 0.166595 19.127 0.986015 108.99
8.68561000 0.986015 109.27 0.166597 19.126 0.166597 19.126 0.986014 108.98
8.68561500 0.986014 109.27 0.166599 19.126 0.166599 19.126 0.986014 108.98
8.68562000 0.986014 109.27 0.166600 19.126 0.166600 19.126 0.986014 108.98
8.68562500 0.986014 109.27 0.166602 19.126 0.166602 19.126 0.986014 108.98
8.68563000 0.986013 109.27 0.166604 19.126 0.166604 19.126 0.986013 108.98
8.68563500 0.986013 109.27 0.166606 19.126 0.166606 19.126 0.986013 108.98
8.68564000 0.986013 109.27 0.166608 19.126 0.166608 19.126 0.986013 108.98
8.68564500 0.986012 109.27 0.166609 19.125 0.166609 19.125 0.986012 108.98
8.68565000 0.986012 109.27 0.166611 19.125 0.166611 19.125 0.986012 108.98
8.68565500 0.986012 109.27 0.166613 19.125 0.166613 19.125 0.986012 108.98
8.68566000 0.986011 109.27 0.166615 19.125 0.166615 19.125 0.986011 108.98
8.68566500 0.986011 109.27 0.166617 19.125 0.166617 19.125 0.986011 108.98
8.68567000 0.986011 109.27 0.166619 19.125 0.166619 19.125 0.986011 108.98
8.68567500 0.986011 109.27 0.166620 19.125 0.166620 19.125 0.986010 108.98
8.68568000 0.986010 109.27 0.166622 19.124 0.166622 19.124 0.986010 108.98
8.68568500 0.986010 109.27 0.166624 19.124 0.166624 19.124 0.986010 108.98
8.68569000 0.986010 109.27 0.166626 19.124 0.166626 19.124 0.986009 108.98
8.68569500 0.986009 109.27 0.166628 19.124 0.166628 19.124 0.986009 108.98
8.68570000 0.986009 109.27 0.166630 19.124 0.166630 19.124 0.986009 108.98
8.68570500 0.986009 109.27 0.166632 19.124 0.166632 19.124 0.986008 108.98
8.68571000 0.986008 109.27 0.166633 19.124 0.166633 19.124 0.986008 108.98
8.68571500 0.986008 109.27 0.166635 19.123 0.166635 19.123 0.986008 108.98
8.68572000 0.986008 109.27 0.166637 19.123 0.166637 19.123 0.986007 108.98
8.68572500 0.986007 109.27 0.166639 19.123 0.166639 19.123 0.986007 108.98
8.68573000 0.986007 109.27 0.166641 19.123 0.166641 19.123 0.986007 108.98
8.68573500 0.986007 109.27 0.166643 19.123 0.166643 19.123 0.986006 108.98
8.68574000 0.986006 109.27 0.166645 19.123 0.166645 19.123 0.986006 108.98
8.68574500 0.986006 109.27 0.166646 19.123 0.166646 19.123 0.986006 108.98
8.68575000 0.986006 109.27 0.166648 19.122 0.166648 19.122 0.986005 108.98
8.68575500 0.986005 109.27 0.166650 19.122 0.166650 19.122 0.986005 108.98
8.68576000 0.986005 109.27 0.166652 19.122 0.166652 19.122 0.986005 108.98
8.68576500 0.986005 109.27 0.166654 19.122 0.166654 19.122 0.986005 108.98
8.68577000 0.986004 109.27 0.166656 19.122 0.166656 19.122 0.986004 108.98
8.68577500 0.986004 109.27 0.166658 19.122 0.166658 19.122 0.986004 108.98
8.68578000 0.986004 109.27 0.166660 19.122 0.166660 19.122 0.986004 108.98
8.68578500 0.986003 109.27 0.166662 19.121 0.166662 19.121 0.986003 108.98
8.68579000 0.986003 109.27 0.166663 19.121 0.166663 19.121 0.986003 108.98
8.68579500 0.986003 109.27 0.166665 19.121 0.166665 19.121 0.986003 108.98
8.68580000 0.986002 109.26 0.166667 19.121 0.166667 19.121 0.986002 108.98
8.68580500 0.986002 109.26 0.166669 19.121 0.166669 19.121 0.986002 108.98
8.68581000 0.986002 109.26 0.166671 19.121 0.166671 19.121 0.986002 108.98
8.68581500 0.986001 109.26 0.166673 19.120 0.166673 19.120 0.986001 108.98
8.68582000 0.986001 109.26 0.166675 19.120 0.166675 19.120 0.986001 108.98
8.68582500 0.986001 109.26 0.166677 19.120 0.166677 19.120 0.986001 108.98
8.68583000 0.986000 109.26 0.166679 19.120 0.166679 19.120 0.986000 108.98
8.68583500 0.986000 109.26 0.166681 19.120 0.166681 19.120 0.986000 108.98
8.68584000 0.986000 109.26 0.166682 19.120 0.166682 19.120 0.986000 108.98
8.68584500 0.985999 109.26 0.166684 19.120 0.166684 19.120 0.985999 108.98
8.68585000 0.985999 109.26 0.166686 19.119 0.166686 19.119 0.985999 108.98
8.68585500 0.985999 109.26 0.166688 19.119 0.166688 19.119 0.985999 108.98
8.68586000 0.985998 109.26 0.166690 19.119 0.166690 19.119 0.985998 108.98
8.68586500 0.985998 109.26 0.166692 19.119 0.166692 19.119 0.985998 108.98
8.68587000 0.985998 109.26 0.166694 19.119 0.166694 19.119 0.985998 108.98
8.68587500 0.985997 109.26 0.166696 19.119 0.166696 19.119 0.985997 108.98
8.68588000 0.985997 109.26 0.166698 19.119 0.166698 19.119 0.985997 108.98
8.68588500 0.985997 109.26 0.166700 19.118 0.166700 19.118 0.985997 108.98
8.68589000 0.985996 109.26 0.166702 19.118 0.166702 19.118 0.985996 108.98
8.68589500 0.985996 109.26 0.166704 19.118 0.166704 19.118 0.985996 108.98
8.68590000 0.985996 109.26 0.166706 19.118 0.166706 19.118 0.985996 108.98
8.68590500 0.985995 109.26 0.166708 19.118 0.166708 19.118 0.985995 108.98
8.68591000 0.985995 109.26 0.166710 19.118 0.166710 19.118 0.985995 108.98
8.68591500 0.985995 109.26 0.166711 19.117 0.166711 19.117 0.985995 108.98
8.68592000 0.985994 109.26 0.166713 19.117 0.166713 19.117 0.985994 108.98
8.68592500 0.985994 109.26 0.166715 19.117 0.166715 19.117 0.985994 108.98
8.68593000 0.985994 109.26 0.166717 19.117 0.166717 19.117 0.985994 108.98
8.68593500 0.985993 109.26 0.166719 19.117 0.166719 19.117 0.985993 108.98
8.68594000 0.985993 109.26 0.166721 19.117 0.166721 19.117 0.985993 108.98
8.68594500 0.985993 109.26 0.166723 19.117 0.166723 19.117 0.985992 108.98
8.68595000 0.985992 109.26 0.166725 19.116 0.166725 19.116 0.985992 108.97
8.68595500 0.985992 109.26 0.166727 19.116 0.166727 19.116 0.985992 108.97
8.68596000 0.985992 109.26 0.166729 19.116 0.166729 19.116 0.985991 108.97
8.68596500 0.985991 109.26 0.166731 19.116 0.166731 19.116 0.985991 108.97
8.68597000 0.985991 109.26 0.166733 19.116 0.166733 19.116 0.985991 108.97
8.68597500 0.985991 109.26 0.166735 19.116 0.166735 19.116 0.985990 108.97
8.68598000 0.985990 109.26 0.166737 19.116 0.166737 19.116 0.985990 108.97
8.68598500 0.985990 109.26 0.166739 19.115 0.166739 19.115 0.985990 108.97
8.68599000 0.985990 109.26 0.166741 19.115 0.166741 19.115 0.985989 108.97
8.68599500 0.985989 109.26 0.166743 19.115 0.166743 19.115 0.985989 108.97
8.68600000 0.985989 109.26 0.166745 19.115 0.166745 19.115 0.985989 108.97
8.68600500 0.985989 109.26 0.166747 19.115 0.166747 19.115 0.985988 108.97
8.68601000 0.985988 109.26 0.166749 19.115 0.166749 19.115 0.985988 108.97
8.68601500 0.985988 109.26 0.166751 19.114 0.166751 19.114 0.985988 108.97
8.68602000 0.985988 109.26 0.166753 19.114 0.166753 19.114 0.985987 108.97
8.68602500 0.985987 109.26 0.166755 19.114 0.166755 19.114 0.985987 108.97
8.68603000 0.985987 109.26 0.166757 19.114 0.166757 19.114 0.985987 108.97
8.68603500 0.985986 109.26 0.166759 19.114 0.166759 19.114 0.985986 108.97
8.68604000 0.985986 109.26 0.166761 19.114 0.166761 19.114 0.985986 108.97
8.68604500 0.985986 109.26 0.166763 19.114 0.166763 19.114 0.985986 108.97
8.68605000 0.985985 109.26 0.166765 19.113 0.166765 19.113 0.985985 108.97
8.68605500 0.985985 109.26 0.166767 19.113 0.166767 19.113 0.985985 108.97
8.68606000 0.985985 109.26 0.166769 19.113 0.166769 19.113 0.985985 108.97
8.68606500 0.985984 109.26 0.166771 19.113 0.166771 19.113 0.985984 108.97
8.68607000 0.985984 109.26 0.166773 19.113 0.166773 19.113 0.985984 108.97
8.68607500 0.985984 109.26 0.166775 19.113 0.166775 19.113 0.985983 108.97
8.68608000 0.985983 109.26 0.166777 19.112 0.166777 19.112 0.985983 108.97
8.68608500 0.985983 109.26 0.166779 19.112 0.166779 19.112 0.985983 108.97
8.68609000 0.985983 109.26 0.166781 19.112 0.166781 19.112 0.985982 108.97
8.68609500 0.985982 109.26 0.166783 19.112 0.166783 19.112 0.985982 108.97
8.68610000 0.985982 109.26 0.166785 19.112 0.166785 19.112 0.985982 108.97
8.68610500 0.985982 109.26 0.166787 19.112 0.166787 19.112 0.985981 108.97
8.68611000 0.985981 109.26 0.166789 19.111 0.166789 19.111 0.985981 108.97
8.68611500 0.985981 109.26 0.166791 19.111 0.166791 19.111 0.985981 108.97
8.68612000 0.985980 109.26 0.166794 19.111 0.166794 19.111 0.985980 108.97
8.68612500 0.985980 109.26 0.166796 19.111 0.166796 19.111 0.985980 108.97
8.68613000 0.985980 109.26 0.166798 19.111 0.166798 19.111 0.985980 108.97
8.68613500 0.985979 109.25 0.166800 19.111 0.166800 19.111 0.985979 108.97
8.68614000 0.985979 109.25 0.166802 19.111 0.166802 19.111 0.985979 108.97
8.68614500 0.985979 109.25 0.166804 19.110 0.166804 19.110 0.985978 108.97
8.68615000 0.985978 109.25 0.166806 19.110 0.166806 19.110 0.985978 108.97
8.68615500 0.985978 109.25 0.166808 19.110 0.166808 19.110 0.985978 108.97
8.68616000 0.985978 109.25 0.166810 19.110 0.166810 19.110 0.985977 108.97
8.68616500 0.985977 109.25 0.166812 19.110 0.166812 19.110 0.985977 108.97
8.68617000 0.985977 109.25 0.166814 19.110 0.166814 19.110 0.985977 108.97
8.68617500 0.985977 109.25 0.166816 19.109 0.166816 19.109 0.985976 108.97
8.68618000 0.985976 109.25 0.166818 19.109 0.166818 19.109 0.985976 108.97
8.68618500 0.985976 109.25 0.166820 19.109 0.166820 19.109 0.985976 108.97
8.68619000 0.985975 109.25 0.166823 19.109 0.166823 19.109 0.985975 108.97
8.68619500 0.985975 109.25 0.166825 19.109 0.166825 19.109 0.985975 108.97
8.68620000 0.985975 109.25 0.166827 19.109 0.166827 19.109 0.985974 108.97
8.68620500 0.985974 109.25 0.166829 19.108 0.166829 19.108 0.985974 108.97
8.68621000 0.985974 109.25 0.166831 19.108 0.166831 19.108 0.985974 108.97
8.68621500 0.985974 109.25 0.166833 19.108 0.166833 19.108 0.985973 108.97
8.68622000 0.985973 109.25 0.166835 19.108 0.166835 19.108 0.985973 108.97
8.68622500 0.985973 109.25 0.166837 19.108 0.166837 19.108 0.985973 108.97
8.68623000 0.985973 109.25 0.166839 19.108 0.166839 19.108 0.985972 108.97
8.68623500 0.985972 109.25 0.166841 19.107 0.166841 19.107 0.985972 108.97
8.68624000 0.985972 109.25 0.166844 19.107 0.166844 19.107 0.985972 108.97
8.68624500 0.985971 109.25 0.166846 19.107 0.166846 19.107 0.985971 108.97
8.68625000 0.985971 109.25 0.166848 19.107 0.166848 19.107 0.985971 108.97
8.68625500 0.985971 109.25 0.166850 19.107 0.166850 19.107 0.985970 108.97
8.68626000 0.985970 109.25 0.166852 19.107 0.166852 19.107 0.985970 108.97
8.68626500 0.985970 109.25 0.166854 19.107 0.166854 19.107 0.985970 108.97
8.68627000 0.985970 109.25 0.166856 19.106 0.166856 19.106 0.985969 108.97
8.68627500 0.985969 109.25 0.166858 19.106 0.166858 19.106 0.985969 108.96
8.68628000 0.985969 109.25 0.166861 19.106 0.166861 19.106 0.985969 108.96
8.68628500 0.985968 109.25 0.166863 19.106 0.166863 19.106 0.985968 108.96
8.68629000 0.985968 109.25 0.166865 19.106 0.166865 19.106 0.985968 108.96
8.68629500 0.985968 109.25 0.166867 19.106 0.166867 19.106 0.985967 108.96
8.68630000 0.985967 109.25 0.166869 19.105 0.166869 19.105 0.985967 108.96
8.68630500 0.985967 109.25 0.166871 19.105 0.166871 19.105 0.985967 108.96
8.68631000 0.985967 109.25 0.166873 19.105 0.166873 19.105 0.985966 108.96
8.68631500 0.985966 109.25 0.166876 19.105 0.166876 19.105 0.985966 108.96
8.68632000 0.985966 109.25 0.166878 19.105 0.166878 19.105 0.985966 108.96
8.68632500 0.985965 109.25 0.166880 19.105 0.166880 19.105 0.985965 108.96
8.68633000 0.985965 109.25 0.166882 19.104 0.166882 19.104 0.985965 108.96
8.68633500 0.985965 109.25 0.166884 19.104 0.166884 19.104 0.985964 108.96
8.68634000 0.985964 109.25 0.166886 19.104 0.166886 19.104 0.985964 108.96
8.68634500 0.985964 109.25 0.166889 19.104 0.166889 19.104 0.985964 108.96
8.68635000 0.985964 109.25 0.166891 19.104 0.166891 19.104 0.985963 108.96
8.68635500 0.985963 109.25 0.166893 19.104 0.166893 19.104 0.985963 108.96
8.68636000 0.985963 109.25 0.166895 19.103 0.166895 19.103 0.985963 108.96
8.68636500 0.985962 109.25 0.166897 19.103 0.166897 19.103 0.985962 108.96
8.68637000 0.985962 109.25 0.166899 19.103 0.166899 19.103 0.985962 108.96
8.68637500 0.985962 109.25 0.166902 19.103 0.166902 19.103 0.985961 108.96
8.68638000 0.985961 109.25 0.166904 19.103 0.166904 19.103 0.985961 108.96
8.68638500 0.985961 109.25 0.166906 19.103 0.166906 19.103 0.985961 108.96
8.68639000 0.985961 109.25 0.166908 19.102 0.166908 19.102 0.985960 108.96
8.68639500 0.985960 109.25 0.166910 19.102 0.166910 19.102 0.985960 108.96
8.68640000 0.985960 109.25 0.166913 19.102 0.166913 19.102 0.985960 108.96
8.68640500 0.985959 109.25 0.166915 19.102 0.166915 19.102 0.985959 108.96
8.68641000 0.985959 109.25 0.166917 19.102 0.166917 19.102 0.985959 108.96
8.68641500 0.985959 109.25 0.166919 19.102 0.166919 19.102 0.985958 108.96
8.68642000 0.985958 109.25 0.166922 19.101 0.166922 19.101 0.985958 108.96
8.68642500 0.985958 109.25 0.166924 19.101 0.166924 19.101 0.985958 108.96
8.68643000 0.985957 109.25 0.166926 19.101 0.166926 19.101 0.985957 108.96
8.68643500 0.985957 109.25 0.166928 19.101 0.166928 19.101 0.985957 108.96
8.68644000 0.985957 109.25 0.166930 19.101 0.166930 19.101 0.985956 108.96
8.68644500 0.985956 109.25 0.166933 19.101 0.166933 19.101 0.985956 108.96
8.68645000 0.985956 109.25 0.166935 19.100 0.166935 19.100 0.985956 108.96
8.68645500 0.985956 109.24 0.166937 19.100 0.166937 19.100 0.985955 108.96
8.68646000 0.985955 109.24 0.166939 19.100 0.166939 19.100 0.985955 108.96
8.68646500 0.985955 109.24 0.166942 19.100 0.166942 19.100 0.985954 108.96
8.68647000 0.985954 109.24 0.166944 19.100 0.166944 19.100 0.985954 108.96
8.68647500 0.985954 109.24 0.166946 19.100 0.166946 19.100 0.985954 108.96
8.68648000 0.985954 109.24 0.166948 19.099 0.166948 19.099 0.985953 108.96
8.68648500 0.985953 109.24 0.166951 19.099 0.166951 19.099 0.985953 108.96
8.68649000 0.985953 109.24 0.166953 19.099 0.166953 19.099 0.985953 108.96
8.68649500 0.985952 109.24 0.166955 19.099 0.166955 19.099 0.985952 108.96
8.68650000 0.985952 109.24 0.166957 19.099 0.166957 19.099 0.985952 108.96
8.68650500 0.985952 109.24 0.166960 19.099 0.166960 19.099 0.985951 108.96
8.68651000 0.985951 109.24 0.166962 19.098 0.166962 19.098 0.985951 108.96
8.68651500 0.985951 109.24 0.166964 19.098 0.166964 19.098 0.985951 108.96
8.68652000 0.985950 109.24 0.166966 19.098 0.166966 19.098 0.985950 108.96
8.68652500 0.985950 109.24 0.166969 19.098 0.166969 19.098 0.985950 108.96
8.68653000 0.985950 109.24 0.166971 19.098 0.166971 19.098 0.985949 108.96
8.68653500 0.985949 109.24 0.166973 19.097 0.166973 19.097 0.985949 108.96
8.68654000 0.985949 109.24 0.166976 19.097 0.166976 19.097 0.985949 108.96
8.68654500 0.985948 109.24 0.166978 19.097 0.166978 19.097 0.985948 108.96
8.68655000 0.985948 109.24 0.166980 19.097 0.166980 19.097 0.985948 108.96
8.68655500 0.985948 109.24 0.166982 19.097 0.166982 19.097 0.985947 108.96
8.68656000 0.985947 109.24 0.166985 19.097 0.166985 19.097 0.985947 108.96
8.68656500 0.985947 109.24 0.166987 19.096 0.166987 19.096 0.985947 108.96
8.68657000 0.985946 109.24 0.166989 19.096 0.166989 19.096 0.985946 108.96
8.68657500 0.985946 109.24 0.166992 19.096 0.166992 19.096 0.985946 108.95
8.68658000 0.985946 109.24 0.166994 19.096 0.166994 19.096 0.985945 108.95
8.68658500 0.985945 109.24 0.166996 19.096 0.166996 19.096 0.985945 108.95
8.68659000 0.985945 109.24 0.166999 19.096 0.166999 19.096 0.985945 108.95
8.68659500 0.985944 109.24 0.167001 19.095 0.167001 19.095 0.985944 108.95
8.68660000 0.985944 109.24 0.167003 19.095 0.167003 19.095 0.985944 108.95
8.68660500 0.985944 109.24 0.167006 19.095 0.167006 19.095 0.985943 108.95
8.68661000 0.985943 109.24 0.167008 19.095 0.167008 19.095 0.985943 108.95
8.68661500 0.985943 109.24 0.167010 19.095 0.167010 19.095 0.985943 108.95
8.68662000 0.985942 109.24 0.167013 19.095 0.167013 19.095 0.985942 108.95
8.68662500 0.985942 109.24 0.167015 19.094 0.167015 19.094 0.985942 108.95
8.68663000 0.985942 109.24 0.167017 19.094 0.167017 19.094 0.985941 108.95
8.68663500 0.985941 109.24 0.167020 19.094 0.167020 19.094 0.985941 108.95
8.68664000 0.985941 109.24 0.167022 19.094 0.167022 19.094 0.985940 108.95
8.68664500 0.985940 109.24 0.167024 19.094 0.167024 19.094 0.985940 108.95
8.68665000 0.985940 109.24 0.167027 19.093 0.167027 19.093 0.985940 108.95
8.68665500 0.985939 109.24 0.167029 19.093 0.167029 19.093 0.985939 108.95
8.68666000 0.985939 109.24 0.167031 19.093 0.167031 19.093 0.985939 108.95
8.68666500 0.985939 109.24 0.167034 19.093 0.167034 19.093 0.985938 108.95
8.68667000 0.985938 109.24 0.167036 19.093 0.167036 19.093 0.985938 108.95
8.68667500 0.985938 109.24 0.167038 19.093 0.167038 19.093 0.985938 108.95
8.68668000 0.985937 109.24 0.167041 19.092 0.167041 19.092 0.985937 108.95
8.68668500 0.985937 109.24 0.167043 19.092 0.167043 19.092 0.985937 108.95
8.68669000 0.985937 109.24 0.167046 19.092 0.167046 19.092 0.985936 108.95
8.68669500 0.985936 109.24 0.167048 19.092 0.167048 19.092 0.985936 108.95
8.68670000 0.985936 109.24 0.167050 19.092 0.167050 19.092 0.985936 108.95
8.68670500 0.985935 109.24 0.167053 19.092 0.167053 19.092 0.985935 108.95
8.68671000 0.985935 109.24 0.167055 19.091 0.167055 19.091 0.985935 108.95
8.68671500 0.985935 109.24 0.167058 19.091 0.167058 19.091 0.985934 108.95
8.68672000 0.985934 109.24 0.167060 19.091 0.167060 19.091 0.985934 108.95
8.68672500 0.985934 109.24 0.167062 19.091 0.167062 19.091 0.985933 108.95
8.68673000 0.985933 109.24 0.167065 19.091 0.167065 19.091 0.985933 108.95
8.68673500 0.985933 109.24 0.167067 19.090 0.167067 19.090 0.985933 108.95
8.68674000 0.985932 109.24 0.167070 19.090 0.167070 19.090 0.985932 108.95
8.68674500 0.985932 109.24 0.167072 19.090 0.167072 19.090 0.985932 108.95
8.68675000 0.985932 109.23 0.167074 19.090 0.167074 19.090 0.985931 108.95
8.68675500 0.985931 109.23 0.167077 19.090 0.167077 19.090 0.985931 108.95
8.68676000 0.985931 109.23 0.167079 19.090 0.167079 19.090 0.985930 108.95
8.68676500 0.985930 109.23 0.167082 19.089 0.167082 19.089 0.985930 108.95
8.68677000 0.985930 109.23 0.167084 19.089 0.167084 19.089 0.985930 108.95
8.68677500 0.985929 109.23 0.167087 19.089 0.167087 19.089 0.985929 108.95
8.68678000 0.985929 109.23 0.167089 19.089 0.167089 19.089 0.985929 108.95
8.68678500 0.985929 109.23 0.167091 19.089 0.167091 19.089 0.985928 108.95
8.68679000 0.985928 109.23 0.167094 19.088 0.167094 19.088 0.985928 108.95
8.68679500 0.985928 109.23 0.167096 19.088 0.167096 19.088 0.985927 108.95
8.68680000 0.985927 109.23 0.167099 19.088 0.167099 19.088 0.985927 108.95
8.68680500 0.985927 109.23 0.167101 19.088 0.167101 19.088 0.985927 108.95
8.68681000 0.985926 109.23 0.167104 19.088 0.167104 19.088 0.985926 108.95
8.68681500 0.985926 109.23 0.167106 19.088 0.167106 19.088 0.985926 108.95
8.68682000 0.985926 109.23 0.167109 19.087 0.167109 19.087 0.985925 108.95
8.68682500 0.985925 109.23 0.167111 19.087 0.167111 19.087 0.985925 108.95
8.68683000 0.985925 109.23 0.167114 19.087 0.167114 19.087 0.985924 108.95
8.68683500 0.985924 109.23 0.167116 19.087 0.167116 19.087 0.985924 108.95
8.68684000 0.985924 109.23 0.167119 19.087 0.167119 19.087 0.985924 108.95
8.68684500 0.985923 109.23 0.167121 19.086 0.167121 19.086 0.985923 108.95
8.68685000 0.985923 109.23 0.167124 19.086 0.167124 19.086 0.985923 108.95
8.68685500 0.985923 109.23 0.167126 19.086 0.167126 19.086 0.985922 108.95
8.68686000 0.985922 109.23 0.167129 19.086 0.167129 19.086 0.985922 108.94
8.68686500 0.985922 109.23 0.167131 19.086 0.167131 19.086 0.985921 108.94
8.68687000 0.985921 109.23 0.167134 19.086 0.167134 19.086 0.985921 108.94
8.68687500 0.985921 109.23 0.167136 19.085 0.167136 19.085 0.985921 108.94
8.68688000 0.985920 109.23 0.167139 19.085 0.167139 19.085 0.985920 108.94
8.68688500 0.985920 109.23 0.167141 19.085 0.167141 19.085 0.985920 108.94
8.68689000 0.985919 109.23 0.167144 19.085 0.167144 19.085 0.985919 108.94
8.68689500 0.985919 109.23 0.167146 19.085 0.167146 19.085 0.985919 108.94
8.68690000 0.985919 109.23 0.167149 19.084 0.167149 19.084 0.985918 108.94
8.68690500 0.985918 109.23 0.167151 19.084 0.167151 19.084 0.985918 108.94
8.68691000 0.985918 109.23 0.167154 19.084 0.167154 19.084 0.985917 108.94
8.68691500 0.985917 109.23 0.167156 19.084 0.167156 19.084 0.985917 108.94
8.68692000 0.985917 109.23 0.167159 19.084 0.167159 19.084 0.985917 108.94
8.68692500 0.985916 109.23 0.167161 19.083 0.167161 19.083 0.985916 108.94
8.68693000 0.985916 109.23 0.167164 19.083 0.167164 19.083 0.985916 108.94
8.68693500 0.985916 109.23 0.167166 19.083 0.167166 19.083 0.985915 108.94
8.68694000 0.985915 109.23 0.167169 19.083 0.167169 19.083 0.985915 108.94
8.68694500 0.985915 109.23 0.167171 19.083 0.167171 19.083 0.985914 108.94
8.68695000 0.985914 109.23 0.167174 19.083 0.167174 19.083 0.985914 108.94
8.68695500 0.985914 109.23 0.167177 19.082 0.167177 19.082 0.985913 108.94