! Sonnet Data File
! From: emgraph Version : 16.52
! From Emgraph Data: Qubit_Xmon2_brg
! Data File Written: 10/23/2017 21:19:58
!< HDATE 10/23/2017 20:51:12
!< MDATE 10/23/2017 20:51:12
!< PARAMS
!< Lj = 11.0
!< Gap = 6.0
!< Pwid = 2000.0
!< Width = 10.0
!< Dist = 256.0000835
!< END PARAMS
# GHZ S MA R 34.70000
8.68500000 0.972260 98.072 0.233837 8.1117 0.233837 8.1117 0.972260 98.155
!< P1 F=8.685 Eeff=(5.13559215 -5.6621e-5) Z0=(34.6542042 -9.3986e-5) R=0.0 C=0.0 
!< P2 F=8.685 Eeff=(5.13559215 -5.6621e-5) Z0=(34.6542042 -9.3986e-5) R=0.0 C=0.0 
8.68500500 0.972259 98.072 0.233840 8.1115 0.233840 8.1115 0.972259 98.154
8.68501000 0.972258 98.072 0.233842 8.1113 0.233842 8.1113 0.972259 98.154
8.68501500 0.972258 98.072 0.233845 8.1111 0.233845 8.1111 0.972258 98.154
8.68502000 0.972257 98.071 0.233848 8.1109 0.233848 8.1109 0.972257 98.154
8.68502500 0.972256 98.071 0.233851 8.1107 0.233851 8.1107 0.972257 98.154
8.68503000 0.972256 98.071 0.233854 8.1104 0.233854 8.1104 0.972256 98.153
8.68503500 0.972255 98.071 0.233857 8.1102 0.233857 8.1102 0.972255 98.153
8.68504000 0.972254 98.070 0.233860 8.1100 0.233860 8.1100 0.972254 98.153
8.68504500 0.972253 98.070 0.233863 8.1098 0.233863 8.1098 0.972254 98.153
8.68505000 0.972253 98.070 0.233866 8.1096 0.233866 8.1096 0.972253 98.153
8.68505500 0.972252 98.070 0.233869 8.1094 0.233869 8.1094 0.972252 98.152
8.68506000 0.972251 98.070 0.233872 8.1091 0.233872 8.1091 0.972252 98.152
8.68506500 0.972250 98.069 0.233875 8.1089 0.233875 8.1089 0.972251 98.152
8.68507000 0.972250 98.069 0.233878 8.1087 0.233878 8.1087 0.972250 98.152
8.68507500 0.972249 98.069 0.233881 8.1085 0.233881 8.1085 0.972249 98.152
8.68508000 0.972248 98.069 0.233883 8.1083 0.233883 8.1083 0.972249 98.151
8.68508500 0.972248 98.069 0.233886 8.1081 0.233886 8.1081 0.972248 98.151
8.68509000 0.972247 98.068 0.233889 8.1078 0.233889 8.1078 0.972247 98.151
8.68509500 0.972246 98.068 0.233892 8.1076 0.233892 8.1076 0.972246 98.151
8.68510000 0.972245 98.068 0.233895 8.1074 0.233895 8.1074 0.972246 98.150
8.68510500 0.972245 98.068 0.233898 8.1072 0.233898 8.1072 0.972245 98.150
8.68511000 0.972244 98.067 0.233901 8.1070 0.233901 8.1070 0.972244 98.150
8.68511500 0.972243 98.067 0.233904 8.1068 0.233904 8.1068 0.972244 98.150
8.68512000 0.972242 98.067 0.233907 8.1065 0.233907 8.1065 0.972243 98.150
8.68512500 0.972242 98.067 0.233910 8.1063 0.233910 8.1063 0.972242 98.149
8.68513000 0.972241 98.067 0.233913 8.1061 0.233913 8.1061 0.972241 98.149
8.68513500 0.972240 98.066 0.233916 8.1059 0.233916 8.1059 0.972241 98.149
8.68514000 0.972240 98.066 0.233919 8.1057 0.233919 8.1057 0.972240 98.149
8.68514500 0.972239 98.066 0.233922 8.1054 0.233922 8.1054 0.972239 98.149
8.68515000 0.972238 98.066 0.233925 8.1052 0.233925 8.1052 0.972238 98.148
8.68515500 0.972237 98.065 0.233928 8.1050 0.233928 8.1050 0.972238 98.148
8.68516000 0.972237 98.065 0.233931 8.1048 0.233931 8.1048 0.972237 98.148
8.68516500 0.972236 98.065 0.233934 8.1046 0.233934 8.1046 0.972236 98.148
8.68517000 0.972235 98.065 0.233937 8.1043 0.233937 8.1043 0.972235 98.148
8.68517500 0.972234 98.065 0.233940 8.1041 0.233940 8.1041 0.972235 98.147
8.68518000 0.972234 98.064 0.233943 8.1039 0.233943 8.1039 0.972234 98.147
8.68518500 0.972233 98.064 0.233946 8.1037 0.233946 8.1037 0.972233 98.147
8.68519000 0.972232 98.064 0.233949 8.1035 0.233949 8.1035 0.972232 98.147
8.68519500 0.972231 98.064 0.233952 8.1032 0.233952 8.1032 0.972232 98.146
8.68520000 0.972231 98.063 0.233955 8.1030 0.233955 8.1030 0.972231 98.146
8.68520500 0.972230 98.063 0.233959 8.1028 0.233959 8.1028 0.972230 98.146
8.68521000 0.972229 98.063 0.233962 8.1026 0.233962 8.1026 0.972229 98.146
8.68521500 0.972228 98.063 0.233965 8.1023 0.233965 8.1023 0.972229 98.146
8.68522000 0.972228 98.063 0.233968 8.1021 0.233968 8.1021 0.972228 98.145
8.68522500 0.972227 98.062 0.233971 8.1019 0.233971 8.1019 0.972227 98.145
8.68523000 0.972226 98.062 0.233974 8.1017 0.233974 8.1017 0.972226 98.145
8.68523500 0.972225 98.062 0.233977 8.1015 0.233977 8.1015 0.972226 98.145
8.68524000 0.972225 98.062 0.233980 8.1012 0.233980 8.1012 0.972225 98.144
8.68524500 0.972224 98.061 0.233983 8.1010 0.233983 8.1010 0.972224 98.144
8.68525000 0.972223 98.061 0.233986 8.1008 0.233986 8.1008 0.972223 98.144
8.68525500 0.972222 98.061 0.233989 8.1006 0.233989 8.1006 0.972223 98.144
8.68526000 0.972222 98.061 0.233992 8.1003 0.233992 8.1003 0.972222 98.144
8.68526500 0.972221 98.061 0.233995 8.1001 0.233995 8.1001 0.972221 98.143
8.68527000 0.972220 98.060 0.233998 8.0999 0.233998 8.0999 0.972220 98.143
8.68527500 0.972219 98.060 0.234001 8.0997 0.234001 8.0997 0.972220 98.143
8.68528000 0.972219 98.060 0.234005 8.0994 0.234005 8.0994 0.972219 98.143
8.68528500 0.972218 98.060 0.234008 8.0992 0.234008 8.0992 0.972218 98.143
8.68529000 0.972217 98.059 0.234011 8.0990 0.234011 8.0990 0.972217 98.142
8.68529500 0.972216 98.059 0.234014 8.0988 0.234014 8.0988 0.972217 98.142
8.68530000 0.972216 98.059 0.234017 8.0985 0.234017 8.0985 0.972216 98.142
8.68530500 0.972215 98.059 0.234020 8.0983 0.234020 8.0983 0.972215 98.142
8.68531000 0.972214 98.059 0.234023 8.0981 0.234023 8.0981 0.972214 98.141
8.68531500 0.972213 98.058 0.234026 8.0978 0.234026 8.0978 0.972214 98.141
8.68532000 0.972212 98.058 0.234030 8.0976 0.234030 8.0976 0.972213 98.141
8.68532500 0.972212 98.058 0.234033 8.0974 0.234033 8.0974 0.972212 98.141
8.68533000 0.972211 98.058 0.234036 8.0972 0.234036 8.0972 0.972211 98.141
8.68533500 0.972210 98.057 0.234039 8.0969 0.234039 8.0969 0.972211 98.140
8.68534000 0.972209 98.057 0.234042 8.0967 0.234042 8.0967 0.972210 98.140
8.68534500 0.972209 98.057 0.234045 8.0965 0.234045 8.0965 0.972209 98.140
8.68535000 0.972208 98.057 0.234048 8.0963 0.234048 8.0963 0.972208 98.140
8.68535500 0.972207 98.057 0.234052 8.0960 0.234052 8.0960 0.972207 98.139
8.68536000 0.972206 98.056 0.234055 8.0958 0.234055 8.0958 0.972207 98.139
8.68536500 0.972206 98.056 0.234058 8.0956 0.234058 8.0956 0.972206 98.139
8.68537000 0.972205 98.056 0.234061 8.0953 0.234061 8.0953 0.972205 98.139
8.68537500 0.972204 98.056 0.234064 8.0951 0.234064 8.0951 0.972204 98.139
8.68538000 0.972203 98.055 0.234067 8.0949 0.234067 8.0949 0.972204 98.138
8.68538500 0.972202 98.055 0.234071 8.0946 0.234071 8.0946 0.972203 98.138
8.68539000 0.972202 98.055 0.234074 8.0944 0.234074 8.0944 0.972202 98.138
8.68539500 0.972201 98.055 0.234077 8.0942 0.234077 8.0942 0.972201 98.138
8.68540000 0.972200 98.054 0.234080 8.0940 0.234080 8.0940 0.972200 98.137
8.68540500 0.972199 98.054 0.234083 8.0937 0.234083 8.0937 0.972200 98.137
8.68541000 0.972199 98.054 0.234086 8.0935 0.234086 8.0935 0.972199 98.137
8.68541500 0.972198 98.054 0.234090 8.0933 0.234090 8.0933 0.972198 98.137
8.68542000 0.972197 98.054 0.234093 8.0930 0.234093 8.0930 0.972197 98.137
8.68542500 0.972196 98.053 0.234096 8.0928 0.234096 8.0928 0.972196 98.136
8.68543000 0.972195 98.053 0.234099 8.0926 0.234099 8.0926 0.972196 98.136
8.68543500 0.972195 98.053 0.234102 8.0923 0.234102 8.0923 0.972195 98.136
8.68544000 0.972194 98.053 0.234106 8.0921 0.234106 8.0921 0.972194 98.136
8.68544500 0.972193 98.052 0.234109 8.0919 0.234109 8.0919 0.972193 98.135
8.68545000 0.972192 98.052 0.234112 8.0916 0.234112 8.0916 0.972193 98.135
8.68545500 0.972191 98.052 0.234115 8.0914 0.234115 8.0914 0.972192 98.135
8.68546000 0.972191 98.052 0.234119 8.0912 0.234119 8.0912 0.972191 98.135
8.68546500 0.972190 98.051 0.234122 8.0909 0.234122 8.0909 0.972190 98.134
8.68547000 0.972189 98.051 0.234125 8.0907 0.234125 8.0907 0.972189 98.134
8.68547500 0.972188 98.051 0.234128 8.0905 0.234128 8.0905 0.972189 98.134
8.68548000 0.972187 98.051 0.234132 8.0902 0.234132 8.0902 0.972188 98.134
8.68548500 0.972187 98.051 0.234135 8.0900 0.234135 8.0900 0.972187 98.134
8.68549000 0.972186 98.050 0.234138 8.0898 0.234138 8.0898 0.972186 98.133
8.68549500 0.972185 98.050 0.234141 8.0895 0.234141 8.0895 0.972185 98.133
8.68550000 0.972184 98.050 0.234145 8.0893 0.234145 8.0893 0.972185 98.133
8.68550500 0.972183 98.050 0.234148 8.0891 0.234148 8.0891 0.972184 98.133
8.68551000 0.972183 98.049 0.234151 8.0888 0.234151 8.0888 0.972183 98.132
8.68551500 0.972182 98.049 0.234154 8.0886 0.234154 8.0886 0.972182 98.132
8.68552000 0.972181 98.049 0.234158 8.0883 0.234158 8.0883 0.972181 98.132
8.68552500 0.972180 98.049 0.234161 8.0881 0.234161 8.0881 0.972181 98.132
8.68553000 0.972179 98.048 0.234164 8.0879 0.234164 8.0879 0.972180 98.131
8.68553500 0.972179 98.048 0.234168 8.0876 0.234168 8.0876 0.972179 98.131
8.68554000 0.972178 98.048 0.234171 8.0874 0.234171 8.0874 0.972178 98.131
8.68554500 0.972177 98.048 0.234174 8.0872 0.234174 8.0872 0.972177 98.131
8.68555000 0.972176 98.047 0.234178 8.0869 0.234178 8.0869 0.972176 98.131
8.68555500 0.972175 98.047 0.234181 8.0867 0.234181 8.0867 0.972176 98.130
8.68556000 0.972174 98.047 0.234184 8.0864 0.234184 8.0864 0.972175 98.130
8.68556500 0.972174 98.047 0.234188 8.0862 0.234188 8.0862 0.972174 98.130
8.68557000 0.972173 98.046 0.234191 8.0860 0.234191 8.0860 0.972173 98.130
8.68557500 0.972172 98.046 0.234194 8.0857 0.234194 8.0857 0.972172 98.129
8.68558000 0.972171 98.046 0.234197 8.0855 0.234197 8.0855 0.972172 98.129
8.68558500 0.972170 98.046 0.234201 8.0852 0.234201 8.0852 0.972171 98.129
8.68559000 0.972170 98.046 0.234204 8.0850 0.234204 8.0850 0.972170 98.129
8.68559500 0.972169 98.045 0.234208 8.0848 0.234208 8.0848 0.972169 98.128
8.68560000 0.972168 98.045 0.234211 8.0845 0.234211 8.0845 0.972168 98.128
8.68560500 0.972167 98.045 0.234214 8.0843 0.234214 8.0843 0.972167 98.128
8.68561000 0.972166 98.045 0.234218 8.0840 0.234218 8.0840 0.972167 98.128
8.68561500 0.972165 98.044 0.234221 8.0838 0.234221 8.0838 0.972166 98.128
8.68562000 0.972165 98.044 0.234224 8.0836 0.234224 8.0836 0.972165 98.127
8.68562500 0.972164 98.044 0.234228 8.0833 0.234228 8.0833 0.972164 98.127
8.68563000 0.972163 98.044 0.234231 8.0831 0.234231 8.0831 0.972163 98.127
8.68563500 0.972162 98.043 0.234234 8.0828 0.234234 8.0828 0.972162 98.127
8.68564000 0.972161 98.043 0.234238 8.0826 0.234238 8.0826 0.972162 98.126
8.68564500 0.972160 98.043 0.234241 8.0823 0.234241 8.0823 0.972161 98.126
8.68565000 0.972160 98.043 0.234245 8.0821 0.234245 8.0821 0.972160 98.126
8.68565500 0.972159 98.042 0.234248 8.0819 0.234248 8.0819 0.972159 98.126
8.68566000 0.972158 98.042 0.234251 8.0816 0.234251 8.0816 0.972158 98.125
8.68566500 0.972157 98.042 0.234255 8.0814 0.234255 8.0814 0.972157 98.125
8.68567000 0.972156 98.042 0.234258 8.0811 0.234258 8.0811 0.972157 98.125
8.68567500 0.972155 98.041 0.234262 8.0809 0.234262 8.0809 0.972156 98.125
8.68568000 0.972155 98.041 0.234265 8.0806 0.234265 8.0806 0.972155 98.124
8.68568500 0.972154 98.041 0.234268 8.0804 0.234268 8.0804 0.972154 98.124
8.68569000 0.972153 98.041 0.234272 8.0801 0.234272 8.0801 0.972153 98.124
8.68569500 0.972152 98.040 0.234275 8.0799 0.234275 8.0799 0.972152 98.124
8.68570000 0.972151 98.040 0.234279 8.0797 0.234279 8.0797 0.972152 98.124
8.68570500 0.972150 98.040 0.234282 8.0794 0.234282 8.0794 0.972151 98.123
8.68571000 0.972150 98.040 0.234286 8.0792 0.234286 8.0792 0.972150 98.123
8.68571500 0.972149 98.039 0.234289 8.0789 0.234289 8.0789 0.972149 98.123
8.68572000 0.972148 98.039 0.234293 8.0787 0.234293 8.0787 0.972148 98.123
8.68572500 0.972147 98.039 0.234296 8.0784 0.234296 8.0784 0.972147 98.122
8.68573000 0.972146 98.039 0.234299 8.0782 0.234299 8.0782 0.972147 98.122
8.68573500 0.972145 98.039 0.234303 8.0779 0.234303 8.0779 0.972146 98.122
8.68574000 0.972144 98.038 0.234306 8.0777 0.234306 8.0777 0.972145 98.122
8.68574500 0.972144 98.038 0.234310 8.0774 0.234310 8.0774 0.972144 98.121
8.68575000 0.972143 98.038 0.234313 8.0772 0.234313 8.0772 0.972143 98.121
8.68575500 0.972142 98.038 0.234317 8.0769 0.234317 8.0769 0.972142 98.121
8.68576000 0.972141 98.037 0.234320 8.0767 0.234320 8.0767 0.972141 98.121
8.68576500 0.972140 98.037 0.234324 8.0764 0.234324 8.0764 0.972141 98.120
8.68577000 0.972139 98.037 0.234327 8.0762 0.234327 8.0762 0.972140 98.120
8.68577500 0.972138 98.037 0.234331 8.0759 0.234331 8.0759 0.972139 98.120
8.68578000 0.972138 98.036 0.234334 8.0757 0.234334 8.0757 0.972138 98.120
8.68578500 0.972137 98.036 0.234338 8.0754 0.234338 8.0754 0.972137 98.119
8.68579000 0.972136 98.036 0.234341 8.0752 0.234341 8.0752 0.972136 98.119
8.68579500 0.972135 98.036 0.234345 8.0749 0.234345 8.0749 0.972135 98.119
8.68580000 0.972134 98.035 0.234348 8.0747 0.234348 8.0747 0.972134 98.119
8.68580500 0.972133 98.035 0.234352 8.0744 0.234352 8.0744 0.972134 98.118
8.68581000 0.972132 98.035 0.234355 8.0742 0.234355 8.0742 0.972133 98.118
8.68581500 0.972132 98.035 0.234359 8.0739 0.234359 8.0739 0.972132 98.118
8.68582000 0.972131 98.034 0.234362 8.0737 0.234362 8.0737 0.972131 98.118
8.68582500 0.972130 98.034 0.234366 8.0734 0.234366 8.0734 0.972130 98.117
8.68583000 0.972129 98.034 0.234370 8.0732 0.234370 8.0732 0.972129 98.117
8.68583500 0.972128 98.034 0.234373 8.0729 0.234373 8.0729 0.972128 98.117
8.68584000 0.972127 98.033 0.234377 8.0727 0.234377 8.0727 0.972128 98.117
8.68584500 0.972126 98.033 0.234380 8.0724 0.234380 8.0724 0.972127 98.116
8.68585000 0.972125 98.033 0.234384 8.0722 0.234384 8.0722 0.972126 98.116
8.68585500 0.972124 98.033 0.234387 8.0719 0.234387 8.0719 0.972125 98.116
8.68586000 0.972124 98.032 0.234391 8.0716 0.234391 8.0716 0.972124 98.116
8.68586500 0.972123 98.032 0.234395 8.0714 0.234395 8.0714 0.972123 98.115
8.68587000 0.972122 98.032 0.234398 8.0711 0.234398 8.0711 0.972122 98.115
8.68587500 0.972121 98.031 0.234402 8.0709 0.234402 8.0709 0.972121 98.115
8.68588000 0.972120 98.031 0.234405 8.0706 0.234405 8.0706 0.972120 98.115
8.68588500 0.972119 98.031 0.234409 8.0704 0.234409 8.0704 0.972120 98.114
8.68589000 0.972118 98.031 0.234413 8.0701 0.234413 8.0701 0.972119 98.114
8.68589500 0.972117 98.030 0.234416 8.0699 0.234416 8.0699 0.972118 98.114
8.68590000 0.972117 98.030 0.234420 8.0696 0.234420 8.0696 0.972117 98.114
8.68590500 0.972116 98.030 0.234423 8.0693 0.234423 8.0693 0.972116 98.113
8.68591000 0.972115 98.030 0.234427 8.0691 0.234427 8.0691 0.972115 98.113
8.68591500 0.972114 98.029 0.234431 8.0688 0.234431 8.0688 0.972114 98.113
8.68592000 0.972113 98.029 0.234434 8.0686 0.234434 8.0686 0.972113 98.113
8.68592500 0.972112 98.029 0.234438 8.0683 0.234438 8.0683 0.972112 98.112
8.68593000 0.972111 98.029 0.234442 8.0681 0.234442 8.0681 0.972112 98.112
8.68593500 0.972110 98.028 0.234445 8.0678 0.234445 8.0678 0.972111 98.112
8.68594000 0.972109 98.028 0.234449 8.0675 0.234449 8.0675 0.972110 98.112
8.68594500 0.972108 98.028 0.234453 8.0673 0.234453 8.0673 0.972109 98.111
8.68595000 0.972108 98.028 0.234456 8.0670 0.234456 8.0670 0.972108 98.111
8.68595500 0.972107 98.027 0.234460 8.0668 0.234460 8.0668 0.972107 98.111
8.68596000 0.972106 98.027 0.234464 8.0665 0.234464 8.0665 0.972106 98.111
8.68596500 0.972105 98.027 0.234467 8.0662 0.234467 8.0662 0.972105 98.110
8.68597000 0.972104 98.027 0.234471 8.0660 0.234471 8.0660 0.972104 98.110
8.68597500 0.972103 98.026 0.234475 8.0657 0.234475 8.0657 0.972103 98.110
8.68598000 0.972102 98.026 0.234478 8.0654 0.234478 8.0654 0.972103 98.110
8.68598500 0.972101 98.026 0.234482 8.0652 0.234482 8.0652 0.972102 98.109
8.68599000 0.972100 98.026 0.234486 8.0649 0.234486 8.0649 0.972101 98.109
8.68599500 0.972099 98.025 0.234489 8.0647 0.234489 8.0647 0.972100 98.109
8.68600000 0.972098 98.025 0.234493 8.0644 0.234493 8.0644 0.972099 98.109
8.68600500 0.972098 98.025 0.234497 8.0641 0.234497 8.0641 0.972098 98.108
8.68601000 0.972097 98.025 0.234501 8.0639 0.234501 8.0639 0.972097 98.108
8.68601500 0.972096 98.024 0.234504 8.0636 0.234504 8.0636 0.972096 98.108
8.68602000 0.972095 98.024 0.234508 8.0633 0.234508 8.0633 0.972095 98.108
8.68602500 0.972094 98.024 0.234512 8.0631 0.234512 8.0631 0.972094 98.107
8.68603000 0.972093 98.023 0.234515 8.0628 0.234515 8.0628 0.972093 98.107
8.68603500 0.972092 98.023 0.234519 8.0626 0.234519 8.0626 0.972092 98.107
8.68604000 0.972091 98.023 0.234523 8.0623 0.234523 8.0623 0.972091 98.107
8.68604500 0.972090 98.023 0.234527 8.0620 0.234527 8.0620 0.972091 98.106
8.68605000 0.972089 98.022 0.234530 8.0618 0.234530 8.0618 0.972090 98.106
8.68605500 0.972088 98.022 0.234534 8.0615 0.234534 8.0615 0.972089 98.106
8.68606000 0.972087 98.022 0.234538 8.0612 0.234538 8.0612 0.972088 98.106
8.68606500 0.972086 98.022 0.234542 8.0610 0.234542 8.0610 0.972087 98.105
8.68607000 0.972086 98.021 0.234546 8.0607 0.234546 8.0607 0.972086 98.105
8.68607500 0.972085 98.021 0.234549 8.0604 0.234549 8.0604 0.972085 98.105
8.68608000 0.972084 98.021 0.234553 8.0602 0.234553 8.0602 0.972084 98.105
8.68608500 0.972083 98.021 0.234557 8.0599 0.234557 8.0599 0.972083 98.104
8.68609000 0.972082 98.020 0.234561 8.0596 0.234561 8.0596 0.972082 98.104
8.68609500 0.972081 98.020 0.234565 8.0594 0.234565 8.0594 0.972081 98.104
8.68610000 0.972080 98.020 0.234568 8.0591 0.234568 8.0591 0.972080 98.104
8.68610500 0.972079 98.019 0.234572 8.0588 0.234572 8.0588 0.972079 98.103
8.68611000 0.972078 98.019 0.234576 8.0585 0.234576 8.0585 0.972078 98.103
8.68611500 0.972077 98.019 0.234580 8.0583 0.234580 8.0583 0.972077 98.103
8.68612000 0.972076 98.019 0.234584 8.0580 0.234584 8.0580 0.972077 98.102
8.68612500 0.972075 98.018 0.234588 8.0577 0.234588 8.0577 0.972076 98.102
8.68613000 0.972074 98.018 0.234591 8.0575 0.234591 8.0575 0.972075 98.102
8.68613500 0.972073 98.018 0.234595 8.0572 0.234595 8.0572 0.972074 98.102
8.68614000 0.972072 98.018 0.234599 8.0569 0.234599 8.0569 0.972073 98.101
8.68614500 0.972071 98.017 0.234603 8.0566 0.234603 8.0566 0.972072 98.101
8.68615000 0.972070 98.017 0.234607 8.0564 0.234607 8.0564 0.972071 98.101
8.68615500 0.972069 98.017 0.234611 8.0561 0.234611 8.0561 0.972070 98.101
8.68616000 0.972069 98.017 0.234615 8.0558 0.234615 8.0558 0.972069 98.100
8.68616500 0.972068 98.016 0.234618 8.0556 0.234618 8.0556 0.972068 98.100
8.68617000 0.972067 98.016 0.234622 8.0553 0.234622 8.0553 0.972067 98.100
8.68617500 0.972066 98.016 0.234626 8.0550 0.234626 8.0550 0.972066 98.100
8.68618000 0.972065 98.015 0.234630 8.0547 0.234630 8.0547 0.972065 98.099
8.68618500 0.972064 98.015 0.234634 8.0545 0.234634 8.0545 0.972064 98.099
8.68619000 0.972063 98.015 0.234638 8.0542 0.234638 8.0542 0.972063 98.099
8.68619500 0.972062 98.015 0.234642 8.0539 0.234642 8.0539 0.972062 98.099
8.68620000 0.972061 98.014 0.234646 8.0536 0.234646 8.0536 0.972061 98.098
8.68620500 0.972060 98.014 0.234650 8.0534 0.234650 8.0534 0.972060 98.098
8.68621000 0.972059 98.014 0.234654 8.0531 0.234654 8.0531 0.972059 98.098
8.68621500 0.972058 98.014 0.234657 8.0528 0.234657 8.0528 0.972058 98.097
8.68622000 0.972057 98.013 0.234661 8.0525 0.234661 8.0525 0.972057 98.097
8.68622500 0.972056 98.013 0.234665 8.0523 0.234665 8.0523 0.972056 98.097
8.68623000 0.972055 98.013 0.234669 8.0520 0.234669 8.0520 0.972055 98.097
8.68623500 0.972054 98.012 0.234673 8.0517 0.234673 8.0517 0.972054 98.096
8.68624000 0.972053 98.012 0.234677 8.0514 0.234677 8.0514 0.972053 98.096
8.68624500 0.972052 98.012 0.234681 8.0511 0.234681 8.0511 0.972052 98.096
8.68625000 0.972051 98.012 0.234685 8.0509 0.234685 8.0509 0.972052 98.096
8.68625500 0.972050 98.011 0.234689 8.0506 0.234689 8.0506 0.972051 98.095
8.68626000 0.972049 98.011 0.234693 8.0503 0.234693 8.0503 0.972050 98.095
8.68626500 0.972048 98.011 0.234697 8.0500 0.234697 8.0500 0.972049 98.095
8.68627000 0.972047 98.010 0.234701 8.0498 0.234701 8.0498 0.972048 98.094
8.68627500 0.972046 98.010 0.234705 8.0495 0.234705 8.0495 0.972047 98.094
8.68628000 0.972045 98.010 0.234709 8.0492 0.234709 8.0492 0.972046 98.094
8.68628500 0.972044 98.010 0.234713 8.0489 0.234713 8.0489 0.972045 98.094
8.68629000 0.972043 98.009 0.234717 8.0486 0.234717 8.0486 0.972044 98.093
8.68629500 0.972042 98.009 0.234721 8.0483 0.234721 8.0483 0.972043 98.093
8.68630000 0.972041 98.009 0.234725 8.0481 0.234725 8.0481 0.972042 98.093
8.68630500 0.972040 98.009 0.234729 8.0478 0.234729 8.0478 0.972041 98.093
8.68631000 0.972039 98.008 0.234733 8.0475 0.234733 8.0475 0.972040 98.092
8.68631500 0.972038 98.008 0.234737 8.0472 0.234737 8.0472 0.972039 98.092
8.68632000 0.972037 98.008 0.234741 8.0469 0.234741 8.0469 0.972038 98.092
8.68632500 0.972036 98.007 0.234745 8.0467 0.234745 8.0467 0.972037 98.091
8.68633000 0.972035 98.007 0.234749 8.0464 0.234749 8.0464 0.972036 98.091
8.68633500 0.972034 98.007 0.234753 8.0461 0.234753 8.0461 0.972035 98.091
8.68634000 0.972033 98.007 0.234758 8.0458 0.234758 8.0458 0.972034 98.091
8.68634500 0.972032 98.006 0.234762 8.0455 0.234762 8.0455 0.972033 98.090
8.68635000 0.972031 98.006 0.234766 8.0452 0.234766 8.0452 0.972032 98.090
8.68635500 0.972030 98.006 0.234770 8.0449 0.234770 8.0449 0.972031 98.090
8.68636000 0.972029 98.005 0.234774 8.0447 0.234774 8.0447 0.972030 98.090
8.68636500 0.972028 98.005 0.234778 8.0444 0.234778 8.0444 0.972029 98.089
8.68637000 0.972027 98.005 0.234782 8.0441 0.234782 8.0441 0.972028 98.089
8.68637500 0.972026 98.005 0.234786 8.0438 0.234786 8.0438 0.972027 98.089
8.68638000 0.972025 98.004 0.234790 8.0435 0.234790 8.0435 0.972026 98.088
8.68638500 0.972024 98.004 0.234794 8.0432 0.234794 8.0432 0.972025 98.088
8.68639000 0.972023 98.004 0.234799 8.0429 0.234799 8.0429 0.972024 98.088
8.68639500 0.972022 98.003 0.234803 8.0426 0.234803 8.0426 0.972023 98.088
8.68640000 0.972021 98.003 0.234807 8.0424 0.234807 8.0424 0.972021 98.087
8.68640500 0.972020 98.003 0.234811 8.0421 0.234811 8.0421 0.972020 98.087
8.68641000 0.972019 98.003 0.234815 8.0418 0.234815 8.0418 0.972019 98.087
8.68641500 0.972018 98.002 0.234819 8.0415 0.234819 8.0415 0.972018 98.086
8.68642000 0.972017 98.002 0.234823 8.0412 0.234823 8.0412 0.972017 98.086
8.68642500 0.972016 98.002 0.234828 8.0409 0.234828 8.0409 0.972016 98.086
8.68643000 0.972015 98.001 0.234832 8.0406 0.234832 8.0406 0.972015 98.086
8.68643500 0.972014 98.001 0.234836 8.0403 0.234836 8.0403 0.972014 98.085
8.68644000 0.972013 98.001 0.234840 8.0400 0.234840 8.0400 0.972013 98.085
8.68644500 0.972012 98.001 0.234844 8.0397 0.234844 8.0397 0.972012 98.085
8.68645000 0.972011 98.000 0.234849 8.0395 0.234849 8.0395 0.972011 98.084
8.68645500 0.972010 98.000 0.234853 8.0392 0.234853 8.0392 0.972010 98.084
8.68646000 0.972009 98.000 0.234857 8.0389 0.234857 8.0389 0.972009 98.084
8.68646500 0.972008 97.999 0.234861 8.0386 0.234861 8.0386 0.972008 98.084
8.68647000 0.972007 97.999 0.234865 8.0383 0.234865 8.0383 0.972007 98.083
8.68647500 0.972006 97.999 0.234870 8.0380 0.234870 8.0380 0.972006 98.083
8.68648000 0.972004 97.999 0.234874 8.0377 0.234874 8.0377 0.972005 98.083
8.68648500 0.972003 97.998 0.234878 8.0374 0.234878 8.0374 0.972004 98.083
8.68649000 0.972002 97.998 0.234882 8.0371 0.234882 8.0371 0.972003 98.082
8.68649500 0.972001 97.998 0.234887 8.0368 0.234887 8.0368 0.972002 98.082
8.68650000 0.972000 97.997 0.234891 8.0365 0.234891 8.0365 0.972001 98.082
8.68650500 0.971999 97.997 0.234895 8.0362 0.234895 8.0362 0.972000 98.081
8.68651000 0.971998 97.997 0.234899 8.0359 0.234899 8.0359 0.971999 98.081
8.68651500 0.971997 97.996 0.234904 8.0356 0.234904 8.0356 0.971998 98.081
8.68652000 0.971996 97.996 0.234908 8.0353 0.234908 8.0353 0.971997 98.080
8.68652500 0.971995 97.996 0.234912 8.0350 0.234912 8.0350 0.971995 98.080
8.68653000 0.971994 97.996 0.234916 8.0347 0.234916 8.0347 0.971994 98.080
8.68653500 0.971993 97.995 0.234921 8.0344 0.234921 8.0344 0.971993 98.080
8.68654000 0.971992 97.995 0.234925 8.0341 0.234925 8.0341 0.971992 98.079
8.68654500 0.971991 97.995 0.234929 8.0338 0.234929 8.0338 0.971991 98.079
8.68655000 0.971990 97.994 0.234934 8.0335 0.234934 8.0335 0.971990 98.079
8.68655500 0.971989 97.994 0.234938 8.0332 0.234938 8.0332 0.971989 98.078
8.68656000 0.971988 97.994 0.234942 8.0329 0.234942 8.0329 0.971988 98.078
8.68656500 0.971986 97.993 0.234947 8.0326 0.234947 8.0326 0.971987 98.078
8.68657000 0.971985 97.993 0.234951 8.0323 0.234951 8.0323 0.971986 98.078
8.68657500 0.971984 97.993 0.234955 8.0320 0.234955 8.0320 0.971985 98.077
8.68658000 0.971983 97.993 0.234960 8.0317 0.234960 8.0317 0.971984 98.077
8.68658500 0.971982 97.992 0.234964 8.0314 0.234964 8.0314 0.971983 98.077
8.68659000 0.971981 97.992 0.234968 8.0311 0.234968 8.0311 0.971982 98.076
8.68659500 0.971980 97.992 0.234973 8.0308 0.234973 8.0308 0.971980 98.076
8.68660000 0.971979 97.991 0.234977 8.0305 0.234977 8.0305 0.971979 98.076
8.68660500 0.971978 97.991 0.234982 8.0302 0.234982 8.0302 0.971978 98.076
8.68661000 0.971977 97.991 0.234986 8.0299 0.234986 8.0299 0.971977 98.075
8.68661500 0.971976 97.990 0.234990 8.0296 0.234990 8.0296 0.971976 98.075
8.68662000 0.971975 97.990 0.234995 8.0293 0.234995 8.0293 0.971975 98.075
8.68662500 0.971973 97.990 0.234999 8.0290 0.234999 8.0290 0.971974 98.074
8.68663000 0.971972 97.990 0.235004 8.0287 0.235004 8.0287 0.971973 98.074
8.68663500 0.971971 97.989 0.235008 8.0284 0.235008 8.0284 0.971972 98.074
8.68664000 0.971970 97.989 0.235013 8.0281 0.235013 8.0281 0.971971 98.073
8.68664500 0.971969 97.989 0.235017 8.0278 0.235017 8.0278 0.971970 98.073
8.68665000 0.971968 97.988 0.235021 8.0275 0.235021 8.0275 0.971968 98.073
8.68665500 0.971967 97.988 0.235026 8.0271 0.235026 8.0271 0.971967 98.073
8.68666000 0.971966 97.988 0.235030 8.0268 0.235030 8.0268 0.971966 98.072
8.68666500 0.971965 97.987 0.235035 8.0265 0.235035 8.0265 0.971965 98.072
8.68667000 0.971964 97.987 0.235039 8.0262 0.235039 8.0262 0.971964 98.072
8.68667500 0.971962 97.987 0.235044 8.0259 0.235044 8.0259 0.971963 98.071
8.68668000 0.971961 97.987 0.235048 8.0256 0.235048 8.0256 0.971962 98.071
8.68668500 0.971960 97.986 0.235053 8.0253 0.235053 8.0253 0.971961 98.071
8.68669000 0.971959 97.986 0.235057 8.0250 0.235057 8.0250 0.971960 98.070
8.68669500 0.971958 97.986 0.235062 8.0247 0.235062 8.0247 0.971958 98.070
8.68670000 0.971957 97.985 0.235066 8.0244 0.235066 8.0244 0.971957 98.070
8.68670500 0.971956 97.985 0.235071 8.0240 0.235071 8.0240 0.971956 98.070
8.68671000 0.971955 97.985 0.235075 8.0237 0.235075 8.0237 0.971955 98.069
8.68671500 0.971954 97.984 0.235080 8.0234 0.235080 8.0234 0.971954 98.069
8.68672000 0.971952 97.984 0.235084 8.0231 0.235084 8.0231 0.971953 98.069
8.68672500 0.971951 97.984 0.235089 8.0228 0.235089 8.0228 0.971952 98.068
8.68673000 0.971950 97.983 0.235093 8.0225 0.235093 8.0225 0.971951 98.068
8.68673500 0.971949 97.983 0.235098 8.0222 0.235098 8.0222 0.971949 98.068
8.68674000 0.971948 97.983 0.235103 8.0219 0.235103 8.0219 0.971948 98.067
8.68674500 0.971947 97.982 0.235107 8.0215 0.235107 8.0215 0.971947 98.067
8.68675000 0.971946 97.982 0.235112 8.0212 0.235112 8.0212 0.971946 98.067
8.68675500 0.971944 97.982 0.235116 8.0209 0.235116 8.0209 0.971945 98.067
8.68676000 0.971943 97.982 0.235121 8.0206 0.235121 8.0206 0.971944 98.066
8.68676500 0.971942 97.981 0.235125 8.0203 0.235125 8.0203 0.971943 98.066
8.68677000 0.971941 97.981 0.235130 8.0200 0.235130 8.0200 0.971942 98.066
8.68677500 0.971940 97.981 0.235135 8.0196 0.235135 8.0196 0.971940 98.065
8.68678000 0.971939 97.980 0.235139 8.0193 0.235139 8.0193 0.971939 98.065
8.68678500 0.971938 97.980 0.235144 8.0190 0.235144 8.0190 0.971938 98.065
8.68679000 0.971936 97.980 0.235149 8.0187 0.235149 8.0187 0.971937 98.064
8.68679500 0.971935 97.979 0.235153 8.0184 0.235153 8.0184 0.971936 98.064
8.68680000 0.971934 97.979 0.235158 8.0180 0.235158 8.0180 0.971935 98.064
8.68680500 0.971933 97.979 0.235162 8.0177 0.235162 8.0177 0.971934 98.063
8.68681000 0.971932 97.978 0.235167 8.0174 0.235167 8.0174 0.971932 98.063
8.68681500 0.971931 97.978 0.235172 8.0171 0.235172 8.0171 0.971931 98.063
8.68682000 0.971930 97.978 0.235176 8.0168 0.235176 8.0168 0.971930 98.063
8.68682500 0.971928 97.977 0.235181 8.0164 0.235181 8.0164 0.971929 98.062
8.68683000 0.971927 97.977 0.235186 8.0161 0.235186 8.0161 0.971928 98.062
8.68683500 0.971926 97.977 0.235191 8.0158 0.235191 8.0158 0.971927 98.062
8.68684000 0.971925 97.976 0.235195 8.0155 0.235195 8.0155 0.971925 98.061
8.68684500 0.971924 97.976 0.235200 8.0151 0.235200 8.0151 0.971924 98.061
8.68685000 0.971923 97.976 0.235205 8.0148 0.235205 8.0148 0.971923 98.061
8.68685500 0.971921 97.976 0.235209 8.0145 0.235209 8.0145 0.971922 98.060
8.68686000 0.971920 97.975 0.235214 8.0142 0.235214 8.0142 0.971921 98.060
8.68686500 0.971919 97.975 0.235219 8.0138 0.235219 8.0138 0.971920 98.060
8.68687000 0.971918 97.975 0.235224 8.0135 0.235224 8.0135 0.971918 98.059
8.68687500 0.971917 97.974 0.235228 8.0132 0.235228 8.0132 0.971917 98.059
8.68688000 0.971916 97.974 0.235233 8.0129 0.235233 8.0129 0.971916 98.059
8.68688500 0.971914 97.974 0.235238 8.0125 0.235238 8.0125 0.971915 98.058
8.68689000 0.971913 97.973 0.235243 8.0122 0.235243 8.0122 0.971914 98.058
8.68689500 0.971912 97.973 0.235247 8.0119 0.235247 8.0119 0.971912 98.058
8.68690000 0.971911 97.973 0.235252 8.0116 0.235252 8.0116 0.971911 98.058
8.68690500 0.971910 97.972 0.235257 8.0112 0.235257 8.0112 0.971910 98.057
8.68691000 0.971908 97.972 0.235262 8.0109 0.235262 8.0109 0.971909 98.057
8.68691500 0.971907 97.972 0.235267 8.0106 0.235267 8.0106 0.971908 98.057
8.68692000 0.971906 97.971 0.235271 8.0102 0.235271 8.0102 0.971907 98.056
8.68692500 0.971905 97.971 0.235276 8.0099 0.235276 8.0099 0.971905 98.056
8.68693000 0.971904 97.971 0.235281 8.0096 0.235281 8.0096 0.971904 98.056
8.68693500 0.971902 97.970 0.235286 8.0092 0.235286 8.0092 0.971903 98.055
8.68694000 0.971901 97.970 0.235291 8.0089 0.235291 8.0089 0.971902 98.055
8.68694500 0.971900 97.970 0.235296 8.0086 0.235296 8.0086 0.971901 98.055
8.68695000 0.971899 97.969 0.235300 8.0083 0.235300 8.0083 0.971899 98.054
8.68695500 0.971898 97.969 0.235305 8.0079 0.235305 8.0079 0.971898 98.054
8.68696000 0.971896 97.969 0.235310 8.0076 0.235310 8.0076 0.971897 98.054