! Sonnet Data File
! From: emgraph Version : 16.52
! From Emgraph Data: Qubit_Xmon2_brg
! Data File Written: 10/23/2017 20:25:57
!< HDATE 10/23/2017 18:02:08
!< MDATE 10/23/2017 18:04:30
!< PARAMS
!< Lj = 11.0
!< Gap = 6.0
!< Pwid = 2000.0
!< Width = 10.0
!< Dist = 256.0000835
!< END PARAMS
# GHZ S MA R 34.70000
8.00000000 0.977227 104.73 0.212176 14.768 0.212176 14.768 0.977227 104.80
!< P1 F=8.0 Eeff=(5.12103945 -5.3706e-5) Z0=(34.7207096 -7.2038e-5) R=0.0 C=0.0 
!< P2 F=8.0 Eeff=(5.12103945 -5.3706e-5) Z0=(34.7207096 -7.2038e-5) R=0.0 C=0.0 
8.00050000 0.977225 104.73 0.212188 14.763 0.212188 14.763 0.977225 104.80
8.00100000 0.977222 104.72 0.212201 14.758 0.212201 14.758 0.977222 104.79
8.00150000 0.977219 104.72 0.212213 14.754 0.212213 14.754 0.977219 104.79
8.00200000 0.977216 104.71 0.212226 14.749 0.212226 14.749 0.977216 104.78
8.00250000 0.977214 104.71 0.212238 14.745 0.212238 14.745 0.977214 104.78
8.00300000 0.977211 104.70 0.212251 14.740 0.212251 14.740 0.977211 104.77
8.00350000 0.977208 104.70 0.212263 14.735 0.212263 14.735 0.977208 104.77
8.00400000 0.977206 104.70 0.212276 14.731 0.212276 14.731 0.977206 104.76
8.00450000 0.977203 104.69 0.212288 14.726 0.212288 14.726 0.977203 104.76
8.00500000 0.977200 104.69 0.212301 14.721 0.212301 14.721 0.977200 104.75
8.00550000 0.977197 104.68 0.212313 14.717 0.212313 14.717 0.977197 104.75
8.00600000 0.977195 104.68 0.212326 14.712 0.212326 14.712 0.977195 104.75
8.00650000 0.977192 104.67 0.212338 14.707 0.212338 14.707 0.977192 104.74
8.00700000 0.977189 104.67 0.212351 14.703 0.212351 14.703 0.977189 104.74
8.00750000 0.977187 104.66 0.212364 14.698 0.212364 14.698 0.977187 104.73
8.00800000 0.977184 104.66 0.212376 14.693 0.212376 14.693 0.977184 104.73
8.00850000 0.977181 104.65 0.212389 14.689 0.212389 14.689 0.977181 104.72
8.00900000 0.977179 104.65 0.212401 14.684 0.212401 14.684 0.977178 104.72
8.00950000 0.977176 104.64 0.212414 14.679 0.212414 14.679 0.977176 104.71
8.01000000 0.977173 104.64 0.212426 14.675 0.212426 14.675 0.977173 104.71
8.01050000 0.977170 104.63 0.212439 14.670 0.212439 14.670 0.977170 104.70
8.01100000 0.977168 104.63 0.212451 14.665 0.212451 14.665 0.977168 104.70
8.01150000 0.977165 104.63 0.212464 14.661 0.212464 14.661 0.977165 104.69
8.01200000 0.977162 104.62 0.212476 14.656 0.212476 14.656 0.977162 104.69
8.01250000 0.977160 104.62 0.212489 14.651 0.212489 14.651 0.977159 104.69
8.01300000 0.977157 104.61 0.212501 14.647 0.212501 14.647 0.977157 104.68
8.01350000 0.977154 104.61 0.212514 14.642 0.212514 14.642 0.977154 104.68
8.01400000 0.977151 104.60 0.212526 14.637 0.212526 14.637 0.977151 104.67
8.01450000 0.977149 104.60 0.212539 14.633 0.212539 14.633 0.977149 104.67
8.01500000 0.977146 104.59 0.212551 14.628 0.212551 14.628 0.977146 104.66
8.01550000 0.977143 104.59 0.212564 14.623 0.212564 14.623 0.977143 104.66
8.01600000 0.977141 104.58 0.212576 14.619 0.212576 14.619 0.977140 104.65
8.01650000 0.977138 104.58 0.212589 14.614 0.212589 14.614 0.977138 104.65
8.01700000 0.977135 104.57 0.212601 14.610 0.212601 14.610 0.977135 104.64
8.01750000 0.977133 104.57 0.212614 14.605 0.212614 14.605 0.977132 104.64
8.01800000 0.977130 104.56 0.212626 14.600 0.212626 14.600 0.977130 104.63
8.01850000 0.977127 104.56 0.212639 14.596 0.212639 14.596 0.977127 104.63
8.01900000 0.977124 104.56 0.212652 14.591 0.212652 14.591 0.977124 104.62
8.01950000 0.977122 104.55 0.212664 14.586 0.212664 14.586 0.977121 104.62
8.02000000 0.977119 104.55 0.212677 14.582 0.212677 14.582 0.977119 104.62
8.02050000 0.977116 104.54 0.212689 14.577 0.212689 14.577 0.977116 104.61
8.02100000 0.977114 104.54 0.212702 14.572 0.212702 14.572 0.977113 104.61
8.02150000 0.977111 104.53 0.212714 14.568 0.212714 14.568 0.977110 104.60
8.02200000 0.977108 104.53 0.212727 14.563 0.212727 14.563 0.977108 104.60
8.02250000 0.977105 104.52 0.212739 14.558 0.212739 14.558 0.977105 104.59
8.02300000 0.977103 104.52 0.212752 14.554 0.212752 14.554 0.977102 104.59
8.02350000 0.977100 104.51 0.212764 14.549 0.212764 14.549 0.977100 104.58
8.02400000 0.977097 104.51 0.212777 14.544 0.212777 14.544 0.977097 104.58
8.02450000 0.977095 104.50 0.212789 14.540 0.212789 14.540 0.977094 104.57
8.02500000 0.977092 104.50 0.212802 14.535 0.212802 14.535 0.977091 104.57
8.02550000 0.977089 104.49 0.212814 14.530 0.212814 14.530 0.977089 104.56
8.02600000 0.977086 104.49 0.212827 14.526 0.212827 14.526 0.977086 104.56
8.02650000 0.977084 104.49 0.212839 14.521 0.212839 14.521 0.977083 104.55
8.02700000 0.977081 104.48 0.212852 14.516 0.212852 14.516 0.977081 104.55
8.02750000 0.977078 104.48 0.212864 14.512 0.212864 14.512 0.977078 104.55
8.02800000 0.977076 104.47 0.212877 14.507 0.212877 14.507 0.977075 104.54
8.02850000 0.977073 104.47 0.212889 14.502 0.212889 14.502 0.977072 104.54
8.02900000 0.977070 104.46 0.212902 14.498 0.212902 14.498 0.977070 104.53
8.02950000 0.977067 104.46 0.212915 14.493 0.212915 14.493 0.977067 104.53
8.03000000 0.977065 104.45 0.212927 14.488 0.212927 14.488 0.977064 104.52
8.03050000 0.977062 104.45 0.212940 14.484 0.212940 14.484 0.977062 104.52
8.03100000 0.977059 104.44 0.212952 14.479 0.212952 14.479 0.977059 104.51
8.03150000 0.977057 104.44 0.212965 14.474 0.212965 14.474 0.977056 104.51
8.03200000 0.977054 104.43 0.212977 14.470 0.212977 14.470 0.977053 104.50
8.03250000 0.977051 104.43 0.212990 14.465 0.212990 14.465 0.977051 104.50
8.03300000 0.977048 104.42 0.213002 14.461 0.213002 14.461 0.977048 104.49
8.03350000 0.977046 104.42 0.213015 14.456 0.213015 14.456 0.977045 104.49
8.03400000 0.977043 104.42 0.213027 14.451 0.213027 14.451 0.977042 104.48
8.03450000 0.977040 104.41 0.213040 14.447 0.213040 14.447 0.977040 104.48
8.03500000 0.977038 104.41 0.213052 14.442 0.213052 14.442 0.977037 104.48
8.03550000 0.977035 104.40 0.213065 14.437 0.213065 14.437 0.977034 104.47
8.03600000 0.977032 104.40 0.213077 14.433 0.213077 14.433 0.977032 104.47
8.03650000 0.977029 104.39 0.213090 14.428 0.213090 14.428 0.977029 104.46
8.03700000 0.977027 104.39 0.213102 14.423 0.213102 14.423 0.977026 104.46
8.03750000 0.977024 104.38 0.213115 14.419 0.213115 14.419 0.977023 104.45
8.03800000 0.977021 104.38 0.213127 14.414 0.213127 14.414 0.977021 104.45
8.03850000 0.977019 104.37 0.213140 14.409 0.213140 14.409 0.977018 104.44
8.03900000 0.977016 104.37 0.213153 14.405 0.213153 14.405 0.977015 104.44
8.03950000 0.977013 104.36 0.213165 14.400 0.213165 14.400 0.977012 104.43
8.04000000 0.977010 104.36 0.213178 14.395 0.213178 14.395 0.977010 104.43
8.04050000 0.977008 104.35 0.213190 14.391 0.213190 14.391 0.977007 104.42
8.04100000 0.977005 104.35 0.213203 14.386 0.213203 14.386 0.977004 104.42
8.04150000 0.977002 104.35 0.213215 14.381 0.213215 14.381 0.977002 104.41
8.04200000 0.977000 104.34 0.213228 14.377 0.213228 14.377 0.976999 104.41
8.04250000 0.976997 104.34 0.213240 14.372 0.213240 14.372 0.976996 104.41
8.04300000 0.976994 104.33 0.213253 14.367 0.213253 14.367 0.976993 104.40
8.04350000 0.976991 104.33 0.213265 14.363 0.213265 14.363 0.976991 104.40
8.04400000 0.976989 104.32 0.213278 14.358 0.213278 14.358 0.976988 104.39
8.04450000 0.976986 104.32 0.213290 14.353 0.213290 14.353 0.976985 104.39
8.04500000 0.976983 104.31 0.213303 14.349 0.213303 14.349 0.976982 104.38
8.04550000 0.976980 104.31 0.213315 14.344 0.213315 14.344 0.976980 104.38
8.04600000 0.976978 104.30 0.213328 14.339 0.213328 14.339 0.976977 104.37
8.04650000 0.976975 104.30 0.213340 14.335 0.213340 14.335 0.976974 104.37
8.04700000 0.976972 104.29 0.213353 14.330 0.213353 14.330 0.976972 104.36
8.04750000 0.976970 104.29 0.213365 14.325 0.213365 14.325 0.976969 104.36
8.04800000 0.976967 104.28 0.213378 14.321 0.213378 14.321 0.976966 104.35
8.04850000 0.976964 104.28 0.213391 14.316 0.213391 14.316 0.976963 104.35
8.04900000 0.976961 104.28 0.213403 14.311 0.213403 14.311 0.976961 104.35
8.04950000 0.976959 104.27 0.213416 14.307 0.213416 14.307 0.976958 104.34
8.05000000 0.976956 104.27 0.213428 14.302 0.213428 14.302 0.976955 104.34
8.05050000 0.976953 104.26 0.213441 14.298 0.213441 14.298 0.976952 104.33
8.05100000 0.976951 104.26 0.213453 14.293 0.213453 14.293 0.976950 104.33
8.05150000 0.976948 104.25 0.213466 14.288 0.213466 14.288 0.976947 104.32
8.05200000 0.976945 104.25 0.213478 14.284 0.213478 14.284 0.976944 104.32
8.05250000 0.976942 104.24 0.213491 14.279 0.213491 14.279 0.976941 104.31
8.05300000 0.976940 104.24 0.213503 14.274 0.213503 14.274 0.976939 104.31
8.05350000 0.976937 104.23 0.213516 14.270 0.213516 14.270 0.976936 104.30
8.05400000 0.976934 104.23 0.213528 14.265 0.213528 14.265 0.976933 104.30
8.05450000 0.976931 104.22 0.213541 14.260 0.213541 14.260 0.976931 104.29
8.05500000 0.976929 104.22 0.213553 14.256 0.213553 14.256 0.976928 104.29
8.05550000 0.976926 104.21 0.213566 14.251 0.213566 14.251 0.976925 104.28
8.05600000 0.976923 104.21 0.213578 14.246 0.213578 14.246 0.976922 104.28
8.05650000 0.976921 104.21 0.213591 14.242 0.213591 14.242 0.976920 104.28
8.05700000 0.976918 104.20 0.213603 14.237 0.213603 14.237 0.976917 104.27
8.05750000 0.976915 104.20 0.213616 14.232 0.213616 14.232 0.976914 104.27
8.05800000 0.976912 104.19 0.213629 14.228 0.213629 14.228 0.976911 104.26
8.05850000 0.976910 104.19 0.213641 14.223 0.213641 14.223 0.976909 104.26
8.05900000 0.976907 104.18 0.213654 14.218 0.213654 14.218 0.976906 104.25
8.05950000 0.976904 104.18 0.213666 14.214 0.213666 14.214 0.976903 104.25
8.06000000 0.976901 104.17 0.213679 14.209 0.213679 14.209 0.976900 104.24
8.06050000 0.976899 104.17 0.213691 14.204 0.213691 14.204 0.976898 104.24
8.06100000 0.976896 104.16 0.213704 14.200 0.213704 14.200 0.976895 104.23
8.06150000 0.976893 104.16 0.213716 14.195 0.213716 14.195 0.976892 104.23
8.06200000 0.976891 104.15 0.213729 14.190 0.213729 14.190 0.976890 104.22
8.06250000 0.976888 104.15 0.213741 14.186 0.213741 14.186 0.976887 104.22
8.06300000 0.976885 104.14 0.213754 14.181 0.213754 14.181 0.976884 104.21
8.06350000 0.976882 104.14 0.213766 14.176 0.213766 14.176 0.976881 104.21
8.06400000 0.976880 104.14 0.213779 14.172 0.213779 14.172 0.976879 104.21
8.06450000 0.976877 104.13 0.213791 14.167 0.213791 14.167 0.976876 104.20
8.06500000 0.976874 104.13 0.213804 14.162 0.213804 14.162 0.976873 104.20
8.06550000 0.976871 104.12 0.213816 14.158 0.213816 14.158 0.976870 104.19
8.06600000 0.976869 104.12 0.213829 14.153 0.213829 14.153 0.976868 104.19
8.06650000 0.976866 104.11 0.213842 14.148 0.213842 14.148 0.976865 104.18
8.06700000 0.976863 104.11 0.213854 14.144 0.213854 14.144 0.976862 104.18
8.06750000 0.976861 104.10 0.213867 14.139 0.213867 14.139 0.976859 104.17
8.06800000 0.976858 104.10 0.213879 14.134 0.213879 14.134 0.976857 104.17
8.06850000 0.976855 104.09 0.213892 14.130 0.213892 14.130 0.976854 104.16
8.06900000 0.976852 104.09 0.213904 14.125 0.213904 14.125 0.976851 104.16
8.06950000 0.976850 104.08 0.213917 14.121 0.213917 14.121 0.976848 104.15
8.07000000 0.976847 104.08 0.213929 14.116 0.213929 14.116 0.976846 104.15
8.07050000 0.976844 104.07 0.213942 14.111 0.213942 14.111 0.976843 104.14
8.07100000 0.976841 104.07 0.213954 14.107 0.213954 14.107 0.976840 104.14
8.07150000 0.976839 104.07 0.213967 14.102 0.213967 14.102 0.976838 104.14
8.07200000 0.976836 104.06 0.213979 14.097 0.213979 14.097 0.976835 104.13
8.07250000 0.976833 104.06 0.213992 14.093 0.213992 14.093 0.976832 104.13
8.07300000 0.976830 104.05 0.214004 14.088 0.214004 14.088 0.976829 104.12
8.07350000 0.976828 104.05 0.214017 14.083 0.214017 14.083 0.976827 104.12
8.07400000 0.976825 104.04 0.214030 14.079 0.214030 14.079 0.976824 104.11
8.07450000 0.976822 104.04 0.214042 14.074 0.214042 14.074 0.976821 104.11
8.07500000 0.976820 104.03 0.214055 14.069 0.214055 14.069 0.976818 104.10
8.07550000 0.976817 104.03 0.214067 14.065 0.214067 14.065 0.976816 104.10
8.07600000 0.976814 104.02 0.214080 14.060 0.214080 14.060 0.976813 104.09
8.07650000 0.976811 104.02 0.214092 14.055 0.214092 14.055 0.976810 104.09
8.07700000 0.976809 104.01 0.214105 14.051 0.214105 14.051 0.976807 104.08
8.07750000 0.976806 104.01 0.214117 14.046 0.214117 14.046 0.976805 104.08
8.07800000 0.976803 104.00 0.214130 14.041 0.214130 14.041 0.976802 104.07
8.07850000 0.976800 104.00 0.214142 14.037 0.214142 14.037 0.976799 104.07
8.07900000 0.976798 104.00 0.214155 14.032 0.214155 14.032 0.976796 104.07
8.07950000 0.976795 103.99 0.214167 14.027 0.214167 14.027 0.976794 104.06
8.08000000 0.976792 103.99 0.214180 14.023 0.214180 14.023 0.976791 104.06
8.08050000 0.976789 103.98 0.214192 14.018 0.214192 14.018 0.976788 104.05
8.08100000 0.976787 103.98 0.214205 14.013 0.214205 14.013 0.976785 104.05
8.08150000 0.976784 103.97 0.214217 14.009 0.214217 14.009 0.976783 104.04
8.08200000 0.976781 103.97 0.214230 14.004 0.214230 14.004 0.976780 104.04
8.08250000 0.976778 103.96 0.214243 13.999 0.214243 13.999 0.976777 104.03
8.08300000 0.976776 103.96 0.214255 13.995 0.214255 13.995 0.976774 104.03
8.08350000 0.976773 103.95 0.214268 13.990 0.214268 13.990 0.976772 104.02
8.08400000 0.976770 103.95 0.214280 13.985 0.214280 13.985 0.976769 104.02
8.08450000 0.976768 103.94 0.214293 13.981 0.214293 13.981 0.976766 104.01
8.08500000 0.976765 103.94 0.214305 13.976 0.214305 13.976 0.976763 104.01
8.08550000 0.976762 103.93 0.214318 13.971 0.214318 13.971 0.976761 104.00
8.08600000 0.976759 103.93 0.214330 13.967 0.214330 13.967 0.976758 104.00
8.08650000 0.976757 103.93 0.214343 13.962 0.214343 13.962 0.976755 104.00
8.08700000 0.976754 103.92 0.214355 13.957 0.214355 13.957 0.976752 103.99
8.08750000 0.976751 103.92 0.214368 13.953 0.214368 13.953 0.976750 103.99
8.08800000 0.976748 103.91 0.214380 13.948 0.214380 13.948 0.976747 103.98
8.08850000 0.976746 103.91 0.214393 13.944 0.214393 13.944 0.976744 103.98
8.08900000 0.976743 103.90 0.214405 13.939 0.214405 13.939 0.976742 103.97
8.08950000 0.976740 103.90 0.214418 13.934 0.214418 13.934 0.976739 103.97
8.09000000 0.976737 103.89 0.214431 13.930 0.214431 13.930 0.976736 103.96
8.09050000 0.976735 103.89 0.214443 13.925 0.214443 13.925 0.976733 103.96
8.09100000 0.976732 103.88 0.214456 13.920 0.214456 13.920 0.976731 103.95
8.09150000 0.976729 103.88 0.214468 13.916 0.214468 13.916 0.976728 103.95
8.09200000 0.976726 103.87 0.214481 13.911 0.214481 13.911 0.976725 103.94
8.09250000 0.976724 103.87 0.214493 13.906 0.214493 13.906 0.976722 103.94
8.09300000 0.976721 103.86 0.214506 13.902 0.214506 13.902 0.976720 103.94
8.09350000 0.976718 103.86 0.214518 13.897 0.214518 13.897 0.976717 103.93
8.09400000 0.976715 103.86 0.214531 13.892 0.214531 13.892 0.976714 103.93
8.09450000 0.976713 103.85 0.214543 13.888 0.214543 13.888 0.976711 103.92
8.09500000 0.976710 103.85 0.214556 13.883 0.214556 13.883 0.976709 103.92
8.09550000 0.976707 103.84 0.214568 13.878 0.214568 13.878 0.976706 103.91
8.09600000 0.976704 103.84 0.214581 13.874 0.214581 13.874 0.976703 103.91
8.09650000 0.976702 103.83 0.214593 13.869 0.214593 13.869 0.976700 103.90
8.09700000 0.976699 103.83 0.214606 13.864 0.214606 13.864 0.976698 103.90
8.09750000 0.976696 103.82 0.214619 13.860 0.214619 13.860 0.976695 103.89
8.09800000 0.976694 103.82 0.214631 13.855 0.214631 13.855 0.976692 103.89
8.09850000 0.976691 103.81 0.214644 13.850 0.214644 13.850 0.976689 103.88
8.09900000 0.976688 103.81 0.214656 13.846 0.214656 13.846 0.976687 103.88
8.09950000 0.976685 103.80 0.214669 13.841 0.214669 13.841 0.976684 103.87
8.10000000 0.976683 103.80 0.214681 13.836 0.214681 13.836 0.976681 103.87
8.10050000 0.976680 103.79 0.214694 13.832 0.214694 13.832 0.976678 103.87
8.10100000 0.976677 103.79 0.214706 13.827 0.214706 13.827 0.976676 103.86
8.10150000 0.976674 103.79 0.214719 13.822 0.214719 13.822 0.976673 103.86
8.10200000 0.976672 103.78 0.214731 13.818 0.214731 13.818 0.976670 103.85
8.10250000 0.976669 103.78 0.214744 13.813 0.214744 13.813 0.976667 103.85
8.10300000 0.976666 103.77 0.214756 13.808 0.214756 13.808 0.976665 103.84
8.10350000 0.976663 103.77 0.214769 13.804 0.214769 13.804 0.976662 103.84
8.10400000 0.976661 103.76 0.214782 13.799 0.214782 13.799 0.976659 103.83
8.10450000 0.976658 103.76 0.214794 13.794 0.214794 13.794 0.976656 103.83
8.10500000 0.976655 103.75 0.214807 13.790 0.214807 13.790 0.976653 103.82
8.10550000 0.976652 103.75 0.214819 13.785 0.214819 13.785 0.976651 103.82
8.10600000 0.976650 103.74 0.214832 13.780 0.214832 13.780 0.976648 103.81
8.10650000 0.976647 103.74 0.214844 13.776 0.214844 13.776 0.976645 103.81
8.10700000 0.976644 103.73 0.214857 13.771 0.214857 13.771 0.976642 103.80
8.10750000 0.976641 103.73 0.214869 13.766 0.214869 13.766 0.976640 103.80
8.10800000 0.976639 103.73 0.214882 13.762 0.214882 13.762 0.976637 103.80
8.10850000 0.976636 103.72 0.214894 13.757 0.214894 13.757 0.976634 103.79
8.10900000 0.976633 103.72 0.214907 13.752 0.214907 13.752 0.976631 103.79
8.10950000 0.976630 103.71 0.214919 13.748 0.214919 13.748 0.976629 103.78
8.11000000 0.976628 103.71 0.214932 13.743 0.214932 13.743 0.976626 103.78
8.11050000 0.976625 103.70 0.214945 13.739 0.214945 13.739 0.976623 103.77
8.11100000 0.976622 103.70 0.214957 13.734 0.214957 13.734 0.976620 103.77
8.11150000 0.976619 103.69 0.214970 13.729 0.214970 13.729 0.976618 103.76
8.11200000 0.976617 103.69 0.214982 13.725 0.214982 13.725 0.976615 103.76
8.11250000 0.976614 103.68 0.214995 13.720 0.214995 13.720 0.976612 103.75
8.11300000 0.976611 103.68 0.215007 13.715 0.215007 13.715 0.976609 103.75
8.11350000 0.976608 103.67 0.215020 13.711 0.215020 13.711 0.976607 103.74
8.11400000 0.976606 103.67 0.215032 13.706 0.215032 13.706 0.976604 103.74
8.11450000 0.976603 103.66 0.215045 13.701 0.215045 13.701 0.976601 103.73
8.11500000 0.976600 103.66 0.215057 13.697 0.215057 13.697 0.976598 103.73
8.11550000 0.976597 103.66 0.215070 13.692 0.215070 13.692 0.976596 103.73
8.11600000 0.976595 103.65 0.215082 13.687 0.215082 13.687 0.976593 103.72
8.11650000 0.976592 103.65 0.215095 13.683 0.215095 13.683 0.976590 103.72
8.11700000 0.976589 103.64 0.215108 13.678 0.215108 13.678 0.976587 103.71
8.11750000 0.976586 103.64 0.215120 13.673 0.215120 13.673 0.976585 103.71
8.11800000 0.976584 103.63 0.215133 13.669 0.215133 13.669 0.976582 103.70
8.11850000 0.976581 103.63 0.215145 13.664 0.215145 13.664 0.976579 103.70
8.11900000 0.976578 103.62 0.215158 13.659 0.215158 13.659 0.976576 103.69
8.11950000 0.976575 103.62 0.215170 13.655 0.215170 13.655 0.976574 103.69
8.12000000 0.976573 103.61 0.215183 13.650 0.215183 13.650 0.976571 103.68
8.12050000 0.976570 103.61 0.215195 13.645 0.215195 13.645 0.976568 103.68
8.12100000 0.976567 103.60 0.215208 13.641 0.215208 13.641 0.976565 103.67
8.12150000 0.976564 103.60 0.215220 13.636 0.215220 13.636 0.976563 103.67
8.12200000 0.976562 103.59 0.215233 13.631 0.215233 13.631 0.976560 103.66
8.12250000 0.976559 103.59 0.215245 13.627 0.215245 13.627 0.976557 103.66
8.12300000 0.976556 103.59 0.215258 13.622 0.215258 13.622 0.976554 103.66
8.12350000 0.976553 103.58 0.215271 13.617 0.215271 13.617 0.976551 103.65
8.12400000 0.976550 103.58 0.215283 13.613 0.215283 13.613 0.976549 103.65
8.12450000 0.976548 103.57 0.215296 13.608 0.215296 13.608 0.976546 103.64
8.12500000 0.976545 103.57 0.215308 13.603 0.215308 13.603 0.976543 103.64
8.12550000 0.976542 103.56 0.215321 13.599 0.215321 13.599 0.976540 103.63
8.12600000 0.976539 103.56 0.215333 13.594 0.215333 13.594 0.976538 103.63
8.12650000 0.976537 103.55 0.215346 13.589 0.215346 13.589 0.976535 103.62
8.12700000 0.976534 103.55 0.215358 13.585 0.215358 13.585 0.976532 103.62
8.12750000 0.976531 103.54 0.215371 13.580 0.215371 13.580 0.976529 103.61
8.12800000 0.976528 103.54 0.215383 13.575 0.215383 13.575 0.976527 103.61
8.12850000 0.976526 103.53 0.215396 13.571 0.215396 13.571 0.976524 103.60
8.12900000 0.976523 103.53 0.215408 13.566 0.215408 13.566 0.976521 103.60
8.12950000 0.976520 103.52 0.215421 13.561 0.215421 13.561 0.976518 103.59
8.13000000 0.976517 103.52 0.215434 13.557 0.215434 13.557 0.976516 103.59
8.13050000 0.976515 103.52 0.215446 13.552 0.215446 13.552 0.976513 103.59
8.13100000 0.976512 103.51 0.215459 13.547 0.215459 13.547 0.976510 103.58
8.13150000 0.976509 103.51 0.215471 13.543 0.215471 13.543 0.976507 103.58
8.13200000 0.976506 103.50 0.215484 13.538 0.215484 13.538 0.976505 103.57
8.13250000 0.976504 103.50 0.215496 13.533 0.215496 13.533 0.976502 103.57
8.13300000 0.976501 103.49 0.215509 13.529 0.215509 13.529 0.976499 103.56
8.13350000 0.976498 103.49 0.215521 13.524 0.215521 13.524 0.976496 103.56
8.13400000 0.976495 103.48 0.215534 13.520 0.215534 13.520 0.976493 103.55
8.13450000 0.976493 103.48 0.215546 13.515 0.215546 13.515 0.976491 103.55
8.13500000 0.976490 103.47 0.215559 13.510 0.215559 13.510 0.976488 103.54
8.13550000 0.976487 103.47 0.215572 13.506 0.215572 13.506 0.976485 103.54
8.13600000 0.976484 103.46 0.215584 13.501 0.215584 13.501 0.976482 103.53
8.13650000 0.976482 103.46 0.215597 13.496 0.215597 13.496 0.976480 103.53
8.13700000 0.976479 103.45 0.215609 13.492 0.215609 13.492 0.976477 103.53
8.13750000 0.976476 103.45 0.215622 13.487 0.215622 13.487 0.976474 103.52
8.13800000 0.976473 103.45 0.215634 13.482 0.215634 13.482 0.976471 103.52
8.13850000 0.976470 103.44 0.215647 13.478 0.215647 13.478 0.976469 103.51
8.13900000 0.976468 103.44 0.215659 13.473 0.215659 13.473 0.976466 103.51
8.13950000 0.976465 103.43 0.215672 13.468 0.215672 13.468 0.976463 103.50
8.14000000 0.976462 103.43 0.215684 13.464 0.215684 13.464 0.976460 103.50
8.14050000 0.976459 103.42 0.215697 13.459 0.215697 13.459 0.976457 103.49
8.14100000 0.976457 103.42 0.215709 13.454 0.215709 13.454 0.976455 103.49
8.14150000 0.976454 103.41 0.215722 13.450 0.215722 13.450 0.976452 103.48
8.14200000 0.976451 103.41 0.215735 13.445 0.215735 13.445 0.976449 103.48
8.14250000 0.976448 103.40 0.215747 13.440 0.215747 13.440 0.976446 103.47
8.14300000 0.976446 103.40 0.215760 13.436 0.215760 13.436 0.976444 103.47
8.14350000 0.976443 103.39 0.215772 13.431 0.215772 13.431 0.976441 103.46
8.14400000 0.976440 103.39 0.215785 13.426 0.215785 13.426 0.976438 103.46
8.14450000 0.976437 103.38 0.215797 13.422 0.215797 13.422 0.976435 103.46
8.14500000 0.976435 103.38 0.215810 13.417 0.215810 13.417 0.976433 103.45
8.14550000 0.976432 103.38 0.215822 13.412 0.215822 13.412 0.976430 103.45
8.14600000 0.976429 103.37 0.215835 13.408 0.215835 13.408 0.976427 103.44
8.14650000 0.976426 103.37 0.215847 13.403 0.215847 13.403 0.976424 103.44
8.14700000 0.976423 103.36 0.215860 13.398 0.215860 13.398 0.976421 103.43
8.14750000 0.976421 103.36 0.215873 13.394 0.215873 13.394 0.976419 103.43
8.14800000 0.976418 103.35 0.215885 13.389 0.215885 13.389 0.976416 103.42
8.14850000 0.976415 103.35 0.215898 13.384 0.215898 13.384 0.976413 103.42
8.14900000 0.976412 103.34 0.215910 13.380 0.215910 13.380 0.976410 103.41
8.14950000 0.976410 103.34 0.215923 13.375 0.215923 13.375 0.976408 103.41
8.15000000 0.976407 103.33 0.215935 13.370 0.215935 13.370 0.976405 103.40
8.15050000 0.976404 103.33 0.215948 13.366 0.215948 13.366 0.976402 103.40
8.15100000 0.976401 103.32 0.215960 13.361 0.215960 13.361 0.976399 103.39
8.15150000 0.976399 103.32 0.215973 13.356 0.215973 13.356 0.976397 103.39
8.15200000 0.976396 103.31 0.215985 13.352 0.215985 13.352 0.976394 103.39
8.15250000 0.976393 103.31 0.215998 13.347 0.215998 13.347 0.976391 103.38
8.15300000 0.976390 103.31 0.216011 13.342 0.216011 13.342 0.976388 103.38
8.15350000 0.976387 103.30 0.216023 13.338 0.216023 13.338 0.976385 103.37
8.15400000 0.976385 103.30 0.216036 13.333 0.216036 13.333 0.976383 103.37
8.15450000 0.976382 103.29 0.216048 13.328 0.216048 13.328 0.976380 103.36
8.15500000 0.976379 103.29 0.216061 13.324 0.216061 13.324 0.976377 103.36
8.15550000 0.976376 103.28 0.216073 13.319 0.216073 13.319 0.976374 103.35
8.15600000 0.976374 103.28 0.216086 13.314 0.216086 13.314 0.976372 103.35
8.15650000 0.976371 103.27 0.216098 13.310 0.216098 13.310 0.976369 103.34
8.15700000 0.976368 103.27 0.216111 13.305 0.216111 13.305 0.976366 103.34
8.15750000 0.976365 103.26 0.216124 13.300 0.216124 13.300 0.976363 103.33
8.15800000 0.976363 103.26 0.216136 13.296 0.216136 13.296 0.976360 103.33
8.15850000 0.976360 103.25 0.216149 13.291 0.216149 13.291 0.976358 103.32
8.15900000 0.976357 103.25 0.216161 13.286 0.216161 13.286 0.976355 103.32
8.15950000 0.976354 103.24 0.216174 13.282 0.216174 13.282 0.976352 103.32
8.16000000 0.976351 103.24 0.216186 13.277 0.216186 13.277 0.976349 103.31
8.16050000 0.976349 103.24 0.216199 13.272 0.216199 13.272 0.976347 103.31
8.16100000 0.976346 103.23 0.216211 13.268 0.216211 13.268 0.976344 103.30
8.16150000 0.976343 103.23 0.216224 13.263 0.216224 13.263 0.976341 103.30
8.16200000 0.976340 103.22 0.216236 13.259 0.216236 13.259 0.976338 103.29
8.16250000 0.976338 103.22 0.216249 13.254 0.216249 13.254 0.976335 103.29
8.16300000 0.976335 103.21 0.216262 13.249 0.216262 13.249 0.976333 103.28
8.16350000 0.976332 103.21 0.216274 13.245 0.216274 13.245 0.976330 103.28
8.16400000 0.976329 103.20 0.216287 13.240 0.216287 13.240 0.976327 103.27
8.16450000 0.976327 103.20 0.216299 13.235 0.216299 13.235 0.976324 103.27
8.16500000 0.976324 103.19 0.216312 13.231 0.216312 13.231 0.976322 103.26
8.16550000 0.976321 103.19 0.216324 13.226 0.216324 13.226 0.976319 103.26
8.16600000 0.976318 103.18 0.216337 13.221 0.216337 13.221 0.976316 103.25
8.16650000 0.976315 103.18 0.216349 13.217 0.216349 13.217 0.976313 103.25
8.16700000 0.976313 103.17 0.216362 13.212 0.216362 13.212 0.976310 103.25
8.16750000 0.976310 103.17 0.216374 13.207 0.216374 13.207 0.976308 103.24
8.16800000 0.976307 103.17 0.216387 13.203 0.216387 13.203 0.976305 103.24
8.16850000 0.976304 103.16 0.216400 13.198 0.216400 13.198 0.976302 103.23
8.16900000 0.976302 103.16 0.216412 13.193 0.216412 13.193 0.976299 103.23
8.16950000 0.976299 103.15 0.216425 13.189 0.216425 13.189 0.976297 103.22
8.17000000 0.976296 103.15 0.216437 13.184 0.216437 13.184 0.976294 103.22
8.17050000 0.976293 103.14 0.216450 13.179 0.216450 13.179 0.976291 103.21
8.17100000 0.976290 103.14 0.216462 13.175 0.216462 13.175 0.976288 103.21
8.17150000 0.976288 103.13 0.216475 13.170 0.216475 13.170 0.976285 103.20
8.17200000 0.976285 103.13 0.216487 13.165 0.216487 13.165 0.976283 103.20
8.17250000 0.976282 103.12 0.216500 13.161 0.216500 13.161 0.976280 103.19
8.17300000 0.976279 103.12 0.216513 13.156 0.216513 13.156 0.976277 103.19
8.17350000 0.976277 103.11 0.216525 13.151 0.216525 13.151 0.976274 103.18
8.17400000 0.976274 103.11 0.216538 13.147 0.216538 13.147 0.976272 103.18
8.17450000 0.976271 103.10 0.216550 13.142 0.216550 13.142 0.976269 103.18
8.17500000 0.976268 103.10 0.216563 13.137 0.216563 13.137 0.976266 103.17
8.17550000 0.976265 103.10 0.216575 13.133 0.216575 13.133 0.976263 103.17
8.17600000 0.976263 103.09 0.216588 13.128 0.216588 13.128 0.976260 103.16
8.17650000 0.976260 103.09 0.216600 13.123 0.216600 13.123 0.976258 103.16
8.17700000 0.976257 103.08 0.216613 13.119 0.216613 13.119 0.976255 103.15
8.17750000 0.976254 103.08 0.216626 13.114 0.216626 13.114 0.976252 103.15
8.17800000 0.976252 103.07 0.216638 13.109 0.216638 13.109 0.976249 103.14
8.17850000 0.976249 103.07 0.216651 13.105 0.216651 13.105 0.976246 103.14
8.17900000 0.976246 103.06 0.216663 13.100 0.216663 13.100 0.976244 103.13
8.17950000 0.976243 103.06 0.216676 13.095 0.216676 13.095 0.976241 103.13
8.18000000 0.976240 103.05 0.216688 13.091 0.216688 13.091 0.976238 103.12
8.18050000 0.976238 103.05 0.216701 13.086 0.216701 13.086 0.976235 103.12
8.18100000 0.976235 103.04 0.216713 13.081 0.216713 13.081 0.976233 103.11
8.18150000 0.976232 103.04 0.216726 13.077 0.216726 13.077 0.976230 103.11
8.18200000 0.976229 103.03 0.216738 13.072 0.216738 13.072 0.976227 103.11
8.18250000 0.976227 103.03 0.216751 13.067 0.216751 13.067 0.976224 103.10
8.18300000 0.976224 103.03 0.216764 13.063 0.216764 13.063 0.976221 103.10
8.18350000 0.976221 103.02 0.216776 13.058 0.216776 13.058 0.976219 103.09
8.18400000 0.976218 103.02 0.216789 13.053 0.216789 13.053 0.976216 103.09
8.18450000 0.976215 103.01 0.216801 13.049 0.216801 13.049 0.976213 103.08
8.18500000 0.976213 103.01 0.216814 13.044 0.216814 13.044 0.976210 103.08
8.18550000 0.976210 103.00 0.216826 13.039 0.216826 13.039 0.976207 103.07
8.18600000 0.976207 103.00 0.216839 13.035 0.216839 13.035 0.976205 103.07
8.18650000 0.976204 102.99 0.216851 13.030 0.216851 13.030 0.976202 103.06
8.18700000 0.976201 102.99 0.216864 13.025 0.216864 13.025 0.976199 103.06
8.18750000 0.976199 102.98 0.216877 13.021 0.216877 13.021 0.976196 103.05
8.18800000 0.976196 102.98 0.216889 13.016 0.216889 13.016 0.976194 103.05
8.18850000 0.976193 102.97 0.216902 13.011 0.216902 13.011 0.976191 103.04
8.18900000 0.976190 102.97 0.216914 13.007 0.216914 13.007 0.976188 103.04
8.18950000 0.976188 102.96 0.216927 13.002 0.216927 13.002 0.976185 103.04
8.19000000 0.976185 102.96 0.216939 12.997 0.216939 12.997 0.976182 103.03
8.19050000 0.976182 102.96 0.216952 12.993 0.216952 12.993 0.976180 103.03
8.19100000 0.976179 102.95 0.216964 12.988 0.216964 12.988 0.976177 103.02
8.19150000 0.976176 102.95 0.216977 12.983 0.216977 12.983 0.976174 103.02
8.19200000 0.976174 102.94 0.216990 12.979 0.216990 12.979 0.976171 103.01
8.19250000 0.976171 102.94 0.217002 12.974 0.217002 12.974 0.976168 103.01
8.19300000 0.976168 102.93 0.217015 12.969 0.217015 12.969 0.976166 103.00
8.19350000 0.976165 102.93 0.217027 12.965 0.217027 12.965 0.976163 103.00
8.19400000 0.976162 102.92 0.217040 12.960 0.217040 12.960 0.976160 102.99
8.19450000 0.976160 102.92 0.217052 12.955 0.217052 12.955 0.976157 102.99
8.19500000 0.976157 102.91 0.217065 12.951 0.217065 12.951 0.976154 102.98
8.19550000 0.976154 102.91 0.217078 12.946 0.217078 12.946 0.976152 102.98
8.19600000 0.976151 102.90 0.217090 12.942 0.217090 12.942 0.976149 102.98