! Sonnet Data File
! From: emgraph Version : 16.52
! From Project: Qubit_Xmon2_brg_para2
! Data is De-embedded 
! Data File Written: 11/12/2017 21:29:58
!< HDATE 11/12/2017 19:10:47
!< MDATE 11/12/2017 19:10:47
!< PARAMS
!< Lj = 11.0
!< Gap = 6.0
!< Pwid = 2000.0
!< Airgap = 6.0
!< Width = 10.0
!< Bwid = 8.0
!< Dis1 = 750.0
!< Dis2 = 756.0
!< END PARAMS
# GHZ S MA R 34.65000
8.76500000 0.996051 128.74 0.088740 38.759 0.088740 38.759 0.996051 128.77
!< P1 F=8.765 Eeff=(5.13709823 -5.6953e-5) Z0=(34.64455 -9.67e-5) R=0.0 C=0.0 
!< P2 F=8.765 Eeff=(5.13709823 -5.6953e-5) Z0=(34.64455 -9.67e-5) R=0.0 C=0.0 
8.76502000 0.996051 128.74 0.088742 38.758 0.088742 38.758 0.996051 128.77
8.76504000 0.996051 128.74 0.088744 38.758 0.088744 38.758 0.996051 128.77
8.76506000 0.996051 128.74 0.088745 38.758 0.088745 38.758 0.996051 128.77
8.76508000 0.996050 128.74 0.088747 38.758 0.088747 38.758 0.996051 128.77
8.76510000 0.996050 128.74 0.088749 38.757 0.088749 38.757 0.996050 128.77
8.76512000 0.996050 128.74 0.088751 38.757 0.088751 38.757 0.996050 128.77
8.76514000 0.996050 128.74 0.088752 38.757 0.088752 38.757 0.996050 128.77
8.76516000 0.996050 128.74 0.088754 38.757 0.088754 38.757 0.996050 128.77
8.76518000 0.996050 128.74 0.088756 38.757 0.088756 38.757 0.996050 128.77
8.76520000 0.996050 128.74 0.088758 38.756 0.088758 38.756 0.996050 128.77
8.76522000 0.996049 128.74 0.088759 38.756 0.088759 38.756 0.996049 128.77
8.76524000 0.996049 128.74 0.088761 38.756 0.088761 38.756 0.996049 128.77
8.76526000 0.996049 128.74 0.088763 38.756 0.088763 38.756 0.996049 128.77
8.76528000 0.996049 128.74 0.088765 38.756 0.088765 38.756 0.996049 128.77
8.76530000 0.996049 128.74 0.088766 38.755 0.088766 38.755 0.996049 128.77
8.76532000 0.996049 128.74 0.088768 38.755 0.088768 38.755 0.996049 128.77
8.76534000 0.996048 128.74 0.088770 38.755 0.088770 38.755 0.996048 128.77
8.76536000 0.996048 128.74 0.088772 38.755 0.088772 38.755 0.996048 128.77
8.76538000 0.996048 128.74 0.088773 38.755 0.088773 38.755 0.996048 128.77
8.76540000 0.996048 128.74 0.088775 38.754 0.088775 38.754 0.996048 128.77
8.76542000 0.996048 128.74 0.088777 38.754 0.088777 38.754 0.996048 128.77
8.76544000 0.996048 128.74 0.088779 38.754 0.088779 38.754 0.996048 128.77
8.76546000 0.996047 128.74 0.088781 38.754 0.088781 38.754 0.996048 128.77
8.76548000 0.996047 128.74 0.088782 38.754 0.088782 38.754 0.996047 128.77
8.76550000 0.996047 128.74 0.088784 38.753 0.088784 38.753 0.996047 128.77
8.76552000 0.996047 128.74 0.088786 38.753 0.088786 38.753 0.996047 128.77
8.76554000 0.996047 128.74 0.088788 38.753 0.088788 38.753 0.996047 128.77
8.76556000 0.996047 128.74 0.088790 38.753 0.088790 38.753 0.996047 128.77
8.76558000 0.996046 128.74 0.088791 38.752 0.088791 38.752 0.996047 128.77
8.76560000 0.996046 128.74 0.088793 38.752 0.088793 38.752 0.996046 128.77
8.76562000 0.996046 128.74 0.088795 38.752 0.088795 38.752 0.996046 128.77
8.76564000 0.996046 128.74 0.088797 38.752 0.088797 38.752 0.996046 128.77
8.76566000 0.996046 128.74 0.088799 38.752 0.088799 38.752 0.996046 128.77
8.76568000 0.996046 128.74 0.088801 38.751 0.088801 38.751 0.996046 128.77
8.76570000 0.996045 128.74 0.088802 38.751 0.088802 38.751 0.996046 128.77
8.76572000 0.996045 128.74 0.088804 38.751 0.088804 38.751 0.996045 128.77
8.76574000 0.996045 128.73 0.088806 38.751 0.088806 38.751 0.996045 128.77
8.76576000 0.996045 128.73 0.088808 38.751 0.088808 38.751 0.996045 128.77
8.76578000 0.996045 128.73 0.088810 38.750 0.088810 38.750 0.996045 128.77
8.76580000 0.996045 128.73 0.088812 38.750 0.088812 38.750 0.996045 128.77
8.76582000 0.996044 128.73 0.088814 38.750 0.088814 38.750 0.996045 128.77
8.76584000 0.996044 128.73 0.088815 38.750 0.088815 38.750 0.996044 128.76
8.76586000 0.996044 128.73 0.088817 38.749 0.088817 38.749 0.996044 128.76
8.76588000 0.996044 128.73 0.088819 38.749 0.088819 38.749 0.996044 128.76
8.76590000 0.996044 128.73 0.088821 38.749 0.088821 38.749 0.996044 128.76
8.76592000 0.996044 128.73 0.088823 38.749 0.088823 38.749 0.996044 128.76
8.76594000 0.996043 128.73 0.088825 38.749 0.088825 38.749 0.996043 128.76
8.76596000 0.996043 128.73 0.088827 38.748 0.088827 38.748 0.996043 128.76
8.76598000 0.996043 128.73 0.088829 38.748 0.088829 38.748 0.996043 128.76
8.76600000 0.996043 128.73 0.088830 38.748 0.088830 38.748 0.996043 128.76
8.76602000 0.996043 128.73 0.088832 38.748 0.088832 38.748 0.996043 128.76
8.76604000 0.996043 128.73 0.088834 38.748 0.088834 38.748 0.996043 128.76
8.76606000 0.996042 128.73 0.088836 38.747 0.088836 38.747 0.996042 128.76
8.76608000 0.996042 128.73 0.088838 38.747 0.088838 38.747 0.996042 128.76
8.76610000 0.996042 128.73 0.088840 38.747 0.088840 38.747 0.996042 128.76
8.76612000 0.996042 128.73 0.088842 38.747 0.088842 38.747 0.996042 128.76
8.76614000 0.996042 128.73 0.088844 38.746 0.088844 38.746 0.996042 128.76
8.76616000 0.996041 128.73 0.088846 38.746 0.088846 38.746 0.996042 128.76
8.76618000 0.996041 128.73 0.088848 38.746 0.088848 38.746 0.996041 128.76
8.76620000 0.996041 128.73 0.088850 38.746 0.088850 38.746 0.996041 128.76
8.76622000 0.996041 128.73 0.088852 38.746 0.088852 38.746 0.996041 128.76
8.76624000 0.996041 128.73 0.088854 38.745 0.088854 38.745 0.996041 128.76
8.76626000 0.996041 128.73 0.088856 38.745 0.088856 38.745 0.996041 128.76
8.76628000 0.996040 128.73 0.088858 38.745 0.088858 38.745 0.996040 128.76
8.76630000 0.996040 128.73 0.088859 38.745 0.088859 38.745 0.996040 128.76
8.76632000 0.996040 128.73 0.088861 38.744 0.088861 38.744 0.996040 128.76
8.76634000 0.996040 128.73 0.088863 38.744 0.088863 38.744 0.996040 128.76
8.76636000 0.996040 128.73 0.088865 38.744 0.088865 38.744 0.996040 128.76
8.76638000 0.996040 128.73 0.088867 38.744 0.088867 38.744 0.996040 128.76
8.76640000 0.996039 128.73 0.088869 38.744 0.088869 38.744 0.996039 128.76
8.76642000 0.996039 128.73 0.088871 38.743 0.088871 38.743 0.996039 128.76
8.76644000 0.996039 128.73 0.088873 38.743 0.088873 38.743 0.996039 128.76
8.76646000 0.996039 128.73 0.088875 38.743 0.088875 38.743 0.996039 128.76
8.76648000 0.996039 128.73 0.088877 38.743 0.088877 38.743 0.996039 128.76
8.76650000 0.996038 128.73 0.088879 38.742 0.088879 38.742 0.996038 128.76
8.76652000 0.996038 128.73 0.088881 38.742 0.088881 38.742 0.996038 128.76
8.76654000 0.996038 128.73 0.088883 38.742 0.088883 38.742 0.996038 128.76
8.76656000 0.996038 128.73 0.088885 38.742 0.088885 38.742 0.996038 128.76
8.76658000 0.996038 128.73 0.088887 38.742 0.088887 38.742 0.996038 128.76
8.76660000 0.996037 128.73 0.088890 38.741 0.088890 38.741 0.996038 128.76
8.76662000 0.996037 128.73 0.088892 38.741 0.088892 38.741 0.996037 128.76
8.76664000 0.996037 128.73 0.088894 38.741 0.088894 38.741 0.996037 128.76
8.76666000 0.996037 128.72 0.088896 38.741 0.088896 38.741 0.996037 128.76
8.76668000 0.996037 128.72 0.088898 38.740 0.088898 38.740 0.996037 128.76
8.76670000 0.996037 128.72 0.088900 38.740 0.088900 38.740 0.996037 128.76
8.76672000 0.996036 128.72 0.088902 38.740 0.088902 38.740 0.996036 128.76
8.76674000 0.996036 128.72 0.088904 38.740 0.088904 38.740 0.996036 128.76
8.76676000 0.996036 128.72 0.088906 38.740 0.088906 38.740 0.996036 128.76
8.76678000 0.996036 128.72 0.088908 38.739 0.088908 38.739 0.996036 128.75
8.76680000 0.996036 128.72 0.088910 38.739 0.088910 38.739 0.996036 128.75
8.76682000 0.996035 128.72 0.088912 38.739 0.088912 38.739 0.996035 128.75
8.76684000 0.996035 128.72 0.088914 38.739 0.088914 38.739 0.996035 128.75
8.76686000 0.996035 128.72 0.088916 38.738 0.088916 38.738 0.996035 128.75
8.76688000 0.996035 128.72 0.088919 38.738 0.088919 38.738 0.996035 128.75
8.76690000 0.996035 128.72 0.088921 38.738 0.088921 38.738 0.996035 128.75
8.76692000 0.996034 128.72 0.088923 38.738 0.088923 38.738 0.996035 128.75
8.76694000 0.996034 128.72 0.088925 38.737 0.088925 38.737 0.996034 128.75
8.76696000 0.996034 128.72 0.088927 38.737 0.088927 38.737 0.996034 128.75
8.76698000 0.996034 128.72 0.088929 38.737 0.088929 38.737 0.996034 128.75
8.76700000 0.996034 128.72 0.088931 38.737 0.088931 38.737 0.996034 128.75
8.76702000 0.996033 128.72 0.088933 38.737 0.088933 38.737 0.996034 128.75
8.76704000 0.996033 128.72 0.088936 38.736 0.088936 38.736 0.996033 128.75
8.76706000 0.996033 128.72 0.088938 38.736 0.088938 38.736 0.996033 128.75
8.76708000 0.996033 128.72 0.088940 38.736 0.088940 38.736 0.996033 128.75
8.76710000 0.996033 128.72 0.088942 38.736 0.088942 38.736 0.996033 128.75
8.76712000 0.996032 128.72 0.088944 38.735 0.088944 38.735 0.996033 128.75
8.76714000 0.996032 128.72 0.088946 38.735 0.088946 38.735 0.996032 128.75
8.76716000 0.996032 128.72 0.088949 38.735 0.088949 38.735 0.996032 128.75
8.76718000 0.996032 128.72 0.088951 38.735 0.088951 38.735 0.996032 128.75
8.76720000 0.996032 128.72 0.088953 38.734 0.088953 38.734 0.996032 128.75
8.76722000 0.996031 128.72 0.088955 38.734 0.088955 38.734 0.996032 128.75
8.76724000 0.996031 128.72 0.088957 38.734 0.088957 38.734 0.996031 128.75
8.76726000 0.996031 128.72 0.088960 38.734 0.088960 38.734 0.996031 128.75
8.76728000 0.996031 128.72 0.088962 38.733 0.088962 38.733 0.996031 128.75
8.76730000 0.996031 128.72 0.088964 38.733 0.088964 38.733 0.996031 128.75
8.76732000 0.996030 128.72 0.088966 38.733 0.088966 38.733 0.996031 128.75
8.76734000 0.996030 128.72 0.088968 38.733 0.088968 38.733 0.996030 128.75
8.76736000 0.996030 128.72 0.088971 38.733 0.088971 38.733 0.996030 128.75
8.76738000 0.996030 128.72 0.088973 38.732 0.088973 38.732 0.996030 128.75
8.76740000 0.996030 128.72 0.088975 38.732 0.088975 38.732 0.996030 128.75
8.76742000 0.996029 128.72 0.088977 38.732 0.088977 38.732 0.996030 128.75
8.76744000 0.996029 128.72 0.088980 38.732 0.088980 38.732 0.996029 128.75
8.76746000 0.996029 128.72 0.088982 38.731 0.088982 38.731 0.996029 128.75
8.76748000 0.996029 128.72 0.088984 38.731 0.088984 38.731 0.996029 128.75
8.76750000 0.996029 128.72 0.088986 38.731 0.088986 38.731 0.996029 128.75
8.76752000 0.996028 128.71 0.088989 38.731 0.088989 38.731 0.996028 128.75
8.76754000 0.996028 128.71 0.088991 38.730 0.088991 38.730 0.996028 128.75
8.76756000 0.996028 128.71 0.088993 38.730 0.088993 38.730 0.996028 128.75
8.76758000 0.996028 128.71 0.088996 38.730 0.088996 38.730 0.996028 128.75
8.76760000 0.996028 128.71 0.088998 38.730 0.088998 38.730 0.996028 128.75
8.76762000 0.996027 128.71 0.089000 38.729 0.089000 38.729 0.996027 128.75
8.76764000 0.996027 128.71 0.089003 38.729 0.089003 38.729 0.996027 128.75
8.76766000 0.996027 128.71 0.089005 38.729 0.089005 38.729 0.996027 128.74
8.76768000 0.996027 128.71 0.089007 38.729 0.089007 38.729 0.996027 128.74
8.76770000 0.996026 128.71 0.089009 38.728 0.089009 38.728 0.996027 128.74
8.76772000 0.996026 128.71 0.089012 38.728 0.089012 38.728 0.996026 128.74
8.76774000 0.996026 128.71 0.089014 38.728 0.089014 38.728 0.996026 128.74
8.76776000 0.996026 128.71 0.089017 38.728 0.089017 38.728 0.996026 128.74
8.76778000 0.996026 128.71 0.089019 38.727 0.089019 38.727 0.996026 128.74
8.76780000 0.996025 128.71 0.089021 38.727 0.089021 38.727 0.996026 128.74
8.76782000 0.996025 128.71 0.089024 38.727 0.089024 38.727 0.996025 128.74
8.76784000 0.996025 128.71 0.089026 38.727 0.089026 38.727 0.996025 128.74
8.76786000 0.996025 128.71 0.089028 38.727 0.089028 38.727 0.996025 128.74
8.76788000 0.996025 128.71 0.089031 38.726 0.089031 38.726 0.996025 128.74
8.76790000 0.996024 128.71 0.089033 38.726 0.089033 38.726 0.996024 128.74
8.76792000 0.996024 128.71 0.089036 38.726 0.089036 38.726 0.996024 128.74
8.76794000 0.996024 128.71 0.089038 38.726 0.089038 38.726 0.996024 128.74
8.76796000 0.996024 128.71 0.089040 38.725 0.089040 38.725 0.996024 128.74
8.76798000 0.996023 128.71 0.089043 38.725 0.089043 38.725 0.996024 128.74
8.76800000 0.996023 128.71 0.089045 38.725 0.089045 38.725 0.996023 128.74
8.76802000 0.996023 128.71 0.089048 38.725 0.089048 38.725 0.996023 128.74
8.76804000 0.996023 128.71 0.089050 38.724 0.089050 38.724 0.996023 128.74
8.76806000 0.996023 128.71 0.089053 38.724 0.089053 38.724 0.996023 128.74
8.76808000 0.996022 128.71 0.089055 38.724 0.089055 38.724 0.996022 128.74
8.76810000 0.996022 128.71 0.089057 38.724 0.089057 38.724 0.996022 128.74
8.76812000 0.996022 128.71 0.089060 38.723 0.089060 38.723 0.996022 128.74
8.76814000 0.996022 128.71 0.089062 38.723 0.089062 38.723 0.996022 128.74
8.76816000 0.996021 128.71 0.089065 38.723 0.089065 38.723 0.996022 128.74
8.76818000 0.996021 128.71 0.089067 38.723 0.089067 38.723 0.996021 128.74
8.76820000 0.996021 128.71 0.089070 38.722 0.089070 38.722 0.996021 128.74
8.76822000 0.996021 128.71 0.089072 38.722 0.089072 38.722 0.996021 128.74
8.76824000 0.996020 128.71 0.089075 38.722 0.089075 38.722 0.996021 128.74
8.76826000 0.996020 128.71 0.089077 38.722 0.089077 38.722 0.996020 128.74
8.76828000 0.996020 128.71 0.089080 38.721 0.089080 38.721 0.996020 128.74
8.76830000 0.996020 128.71 0.089082 38.721 0.089082 38.721 0.996020 128.74
8.76832000 0.996020 128.71 0.089085 38.721 0.089085 38.721 0.996020 128.74
8.76834000 0.996019 128.70 0.089087 38.721 0.089087 38.721 0.996019 128.74
8.76836000 0.996019 128.70 0.089090 38.720 0.089090 38.720 0.996019 128.74
8.76838000 0.996019 128.70 0.089093 38.720 0.089093 38.720 0.996019 128.74
8.76840000 0.996019 128.70 0.089095 38.720 0.089095 38.720 0.996019 128.74
8.76842000 0.996018 128.70 0.089098 38.719 0.089098 38.719 0.996018 128.74
8.76844000 0.996018 128.70 0.089100 38.719 0.089100 38.719 0.996018 128.74
8.76846000 0.996018 128.70 0.089103 38.719 0.089103 38.719 0.996018 128.74
8.76848000 0.996018 128.70 0.089105 38.719 0.089105 38.719 0.996018 128.73
8.76850000 0.996017 128.70 0.089108 38.718 0.089108 38.718 0.996018 128.73
8.76852000 0.996017 128.70 0.089111 38.718 0.089111 38.718 0.996017 128.73
8.76854000 0.996017 128.70 0.089113 38.718 0.089113 38.718 0.996017 128.73
8.76856000 0.996017 128.70 0.089116 38.718 0.089116 38.718 0.996017 128.73
8.76858000 0.996016 128.70 0.089118 38.717 0.089118 38.717 0.996017 128.73
8.76860000 0.996016 128.70 0.089121 38.717 0.089121 38.717 0.996016 128.73
8.76862000 0.996016 128.70 0.089124 38.717 0.089124 38.717 0.996016 128.73
8.76864000 0.996016 128.70 0.089126 38.717 0.089126 38.717 0.996016 128.73
8.76866000 0.996015 128.70 0.089129 38.716 0.089129 38.716 0.996016 128.73
8.76868000 0.996015 128.70 0.089132 38.716 0.089132 38.716 0.996015 128.73
8.76870000 0.996015 128.70 0.089134 38.716 0.089134 38.716 0.996015 128.73
8.76872000 0.996015 128.70 0.089137 38.716 0.089137 38.716 0.996015 128.73
8.76874000 0.996014 128.70 0.089140 38.715 0.089140 38.715 0.996015 128.73
8.76876000 0.996014 128.70 0.089142 38.715 0.089142 38.715 0.996014 128.73
8.76878000 0.996014 128.70 0.089145 38.715 0.089145 38.715 0.996014 128.73
8.76880000 0.996014 128.70 0.089148 38.715 0.089148 38.715 0.996014 128.73
8.76882000 0.996013 128.70 0.089151 38.714 0.089151 38.714 0.996014 128.73
8.76884000 0.996013 128.70 0.089153 38.714 0.089153 38.714 0.996013 128.73
8.76886000 0.996013 128.70 0.089156 38.714 0.089156 38.714 0.996013 128.73
8.76888000 0.996013 128.70 0.089159 38.713 0.089159 38.713 0.996013 128.73
8.76890000 0.996012 128.70 0.089162 38.713 0.089162 38.713 0.996013 128.73
8.76892000 0.996012 128.70 0.089164 38.713 0.089164 38.713 0.996012 128.73
8.76894000 0.996012 128.70 0.089167 38.713 0.089167 38.713 0.996012 128.73
8.76896000 0.996012 128.70 0.089170 38.712 0.089170 38.712 0.996012 128.73
8.76898000 0.996011 128.70 0.089173 38.712 0.089173 38.712 0.996012 128.73
8.76900000 0.996011 128.70 0.089175 38.712 0.089175 38.712 0.996011 128.73
8.76902000 0.996011 128.70 0.089178 38.712 0.089178 38.712 0.996011 128.73
8.76904000 0.996011 128.70 0.089181 38.711 0.089181 38.711 0.996011 128.73
8.76906000 0.996010 128.70 0.089184 38.711 0.089184 38.711 0.996011 128.73
8.76908000 0.996010 128.70 0.089187 38.711 0.089187 38.711 0.996010 128.73
8.76910000 0.996010 128.69 0.089189 38.710 0.089189 38.710 0.996010 128.73
8.76912000 0.996010 128.69 0.089192 38.710 0.089192 38.710 0.996010 128.73
8.76914000 0.996009 128.69 0.089195 38.710 0.089195 38.710 0.996010 128.73
8.76916000 0.996009 128.69 0.089198 38.710 0.089198 38.710 0.996009 128.73
8.76918000 0.996009 128.69 0.089201 38.709 0.089201 38.709 0.996009 128.73
8.76920000 0.996009 128.69 0.089204 38.709 0.089204 38.709 0.996009 128.73
8.76922000 0.996008 128.69 0.089207 38.709 0.089207 38.709 0.996008 128.73
8.76924000 0.996008 128.69 0.089209 38.709 0.089209 38.709 0.996008 128.72
8.76926000 0.996008 128.69 0.089212 38.708 0.089212 38.708 0.996008 128.72
8.76928000 0.996008 128.69 0.089215 38.708 0.089215 38.708 0.996008 128.72
8.76930000 0.996007 128.69 0.089218 38.708 0.089218 38.708 0.996007 128.72
8.76932000 0.996007 128.69 0.089221 38.707 0.089221 38.707 0.996007 128.72
8.76934000 0.996007 128.69 0.089224 38.707 0.089224 38.707 0.996007 128.72
8.76936000 0.996006 128.69 0.089227 38.707 0.089227 38.707 0.996007 128.72
8.76938000 0.996006 128.69 0.089230 38.707 0.089230 38.707 0.996006 128.72
8.76940000 0.996006 128.69 0.089233 38.706 0.089233 38.706 0.996006 128.72
8.76942000 0.996006 128.69 0.089236 38.706 0.089236 38.706 0.996006 128.72
8.76944000 0.996005 128.69 0.089239 38.706 0.089239 38.706 0.996005 128.72
8.76946000 0.996005 128.69 0.089242 38.705 0.089242 38.705 0.996005 128.72
8.76948000 0.996005 128.69 0.089245 38.705 0.089245 38.705 0.996005 128.72
8.76950000 0.996005 128.69 0.089248 38.705 0.089248 38.705 0.996005 128.72
8.76952000 0.996004 128.69 0.089251 38.705 0.089251 38.705 0.996004 128.72
8.76954000 0.996004 128.69 0.089254 38.704 0.089254 38.704 0.996004 128.72
8.76956000 0.996004 128.69 0.089257 38.704 0.089257 38.704 0.996004 128.72
8.76958000 0.996003 128.69 0.089260 38.704 0.089260 38.704 0.996004 128.72
8.76960000 0.996003 128.69 0.089263 38.703 0.089263 38.703 0.996003 128.72
8.76962000 0.996003 128.69 0.089266 38.703 0.089266 38.703 0.996003 128.72
8.76964000 0.996003 128.69 0.089269 38.703 0.089269 38.703 0.996003 128.72
8.76966000 0.996002 128.69 0.089272 38.703 0.089272 38.703 0.996002 128.72
8.76968000 0.996002 128.69 0.089275 38.702 0.089275 38.702 0.996002 128.72
8.76970000 0.996002 128.69 0.089278 38.702 0.089278 38.702 0.996002 128.72
8.76972000 0.996001 128.69 0.089281 38.702 0.089281 38.702 0.996002 128.72
8.76974000 0.996001 128.69 0.089285 38.701 0.089285 38.701 0.996001 128.72
8.76976000 0.996001 128.69 0.089288 38.701 0.089288 38.701 0.996001 128.72
8.76978000 0.996001 128.69 0.089291 38.701 0.089291 38.701 0.996001 128.72
8.76980000 0.996000 128.68 0.089294 38.701 0.089294 38.701 0.996000 128.72
8.76982000 0.996000 128.68 0.089297 38.700 0.089297 38.700 0.996000 128.72
8.76984000 0.996000 128.68 0.089300 38.700 0.089300 38.700 0.996000 128.72
8.76986000 0.995999 128.68 0.089303 38.700 0.089303 38.700 0.996000 128.72
8.76988000 0.995999 128.68 0.089307 38.699 0.089307 38.699 0.995999 128.72
8.76990000 0.995999 128.68 0.089310 38.699 0.089310 38.699 0.995999 128.72
8.76992000 0.995998 128.68 0.089313 38.699 0.089313 38.699 0.995999 128.72
8.76994000 0.995998 128.68 0.089316 38.699 0.089316 38.699 0.995998 128.72
8.76996000 0.995998 128.68 0.089319 38.698 0.089319 38.698 0.995998 128.72
8.76998000 0.995998 128.68 0.089323 38.698 0.089323 38.698 0.995998 128.71
8.77000000 0.995997 128.68 0.089326 38.698 0.089326 38.698 0.995997 128.71
8.77002000 0.995997 128.68 0.089329 38.697 0.089329 38.697 0.995997 128.71
8.77004000 0.995997 128.68 0.089332 38.697 0.089332 38.697 0.995997 128.71
8.77006000 0.995996 128.68 0.089336 38.697 0.089336 38.697 0.995997 128.71
8.77008000 0.995996 128.68 0.089339 38.696 0.089339 38.696 0.995996 128.71
8.77010000 0.995996 128.68 0.089342 38.696 0.089342 38.696 0.995996 128.71
8.77012000 0.995995 128.68 0.089346 38.696 0.089346 38.696 0.995996 128.71
8.77014000 0.995995 128.68 0.089349 38.696 0.089349 38.696 0.995995 128.71
8.77016000 0.995995 128.68 0.089352 38.695 0.089352 38.695 0.995995 128.71
8.77018000 0.995995 128.68 0.089356 38.695 0.089356 38.695 0.995995 128.71
8.77020000 0.995994 128.68 0.089359 38.695 0.089359 38.695 0.995994 128.71
8.77022000 0.995994 128.68 0.089362 38.694 0.089362 38.694 0.995994 128.71
8.77024000 0.995994 128.68 0.089366 38.694 0.089366 38.694 0.995994 128.71
8.77026000 0.995993 128.68 0.089369 38.694 0.089369 38.694 0.995993 128.71
8.77028000 0.995993 128.68 0.089373 38.693 0.089373 38.693 0.995993 128.71
8.77030000 0.995993 128.68 0.089376 38.693 0.089376 38.693 0.995993 128.71
8.77032000 0.995992 128.68 0.089379 38.693 0.089379 38.693 0.995992 128.71
8.77034000 0.995992 128.68 0.089383 38.692 0.089383 38.692 0.995992 128.71
8.77036000 0.995992 128.68 0.089386 38.692 0.089386 38.692 0.995992 128.71
8.77038000 0.995991 128.68 0.089390 38.692 0.089390 38.692 0.995992 128.71
8.77040000 0.995991 128.68 0.089393 38.692 0.089393 38.692 0.995991 128.71
8.77042000 0.995991 128.68 0.089397 38.691 0.089397 38.691 0.995991 128.71
8.77044000 0.995990 128.68 0.089400 38.691 0.089400 38.691 0.995991 128.71
8.77046000 0.995990 128.67 0.089404 38.691 0.089404 38.691 0.995990 128.71
8.77048000 0.995990 128.67 0.089407 38.690 0.089407 38.690 0.995990 128.71
8.77050000 0.995989 128.67 0.089411 38.690 0.089411 38.690 0.995990 128.71
8.77052000 0.995989 128.67 0.089414 38.690 0.089414 38.690 0.995989 128.71
8.77054000 0.995989 128.67 0.089418 38.689 0.089418 38.689 0.995989 128.71
8.77056000 0.995988 128.67 0.089421 38.689 0.089421 38.689 0.995989 128.71
8.77058000 0.995988 128.67 0.089425 38.689 0.089425 38.689 0.995988 128.71
8.77060000 0.995988 128.67 0.089428 38.688 0.089428 38.688 0.995988 128.71
8.77062000 0.995987 128.67 0.089432 38.688 0.089432 38.688 0.995988 128.71
8.77064000 0.995987 128.67 0.089436 38.688 0.089436 38.688 0.995987 128.70
8.77066000 0.995987 128.67 0.089439 38.687 0.089439 38.687 0.995987 128.70
8.77068000 0.995986 128.67 0.089443 38.687 0.089443 38.687 0.995987 128.70
8.77070000 0.995986 128.67 0.089447 38.687 0.089447 38.687 0.995986 128.70
8.77072000 0.995986 128.67 0.089450 38.686 0.089450 38.686 0.995986 128.70
8.77074000 0.995985 128.67 0.089454 38.686 0.089454 38.686 0.995986 128.70
8.77076000 0.995985 128.67 0.089458 38.686 0.089458 38.686 0.995985 128.70
8.77078000 0.995985 128.67 0.089461 38.685 0.089461 38.685 0.995985 128.70
8.77080000 0.995984 128.67 0.089465 38.685 0.089465 38.685 0.995985 128.70
8.77082000 0.995984 128.67 0.089469 38.685 0.089469 38.685 0.995984 128.70
8.77084000 0.995984 128.67 0.089472 38.685 0.089472 38.685 0.995984 128.70
8.77086000 0.995983 128.67 0.089476 38.684 0.089476 38.684 0.995983 128.70
8.77088000 0.995983 128.67 0.089480 38.684 0.089480 38.684 0.995983 128.70
8.77090000 0.995983 128.67 0.089484 38.684 0.089484 38.684 0.995983 128.70
8.77092000 0.995982 128.67 0.089487 38.683 0.089487 38.683 0.995982 128.70
8.77094000 0.995982 128.67 0.089491 38.683 0.089491 38.683 0.995982 128.70
8.77096000 0.995982 128.67 0.089495 38.683 0.089495 38.683 0.995982 128.70
8.77098000 0.995981 128.67 0.089499 38.682 0.089499 38.682 0.995981 128.70
8.77100000 0.995981 128.67 0.089503 38.682 0.089503 38.682 0.995981 128.70
8.77102000 0.995980 128.67 0.089507 38.682 0.089507 38.682 0.995981 128.70
8.77104000 0.995980 128.67 0.089510 38.681 0.089510 38.681 0.995980 128.70
8.77106000 0.995980 128.67 0.089514 38.681 0.089514 38.681 0.995980 128.70
8.77108000 0.995979 128.66 0.089518 38.681 0.089518 38.681 0.995980 128.70
8.77110000 0.995979 128.66 0.089522 38.680 0.089522 38.680 0.995979 128.70
8.77112000 0.995979 128.66 0.089526 38.680 0.089526 38.680 0.995979 128.70
8.77114000 0.995978 128.66 0.089530 38.679 0.089530 38.679 0.995978 128.70
8.77116000 0.995978 128.66 0.089534 38.679 0.089534 38.679 0.995978 128.70
8.77118000 0.995978 128.66 0.089538 38.679 0.089538 38.679 0.995978 128.70
8.77120000 0.995977 128.66 0.089542 38.678 0.089542 38.678 0.995977 128.70
8.77122000 0.995977 128.66 0.089546 38.678 0.089546 38.678 0.995977 128.70
8.77124000 0.995976 128.66 0.089550 38.678 0.089550 38.678 0.995977 128.70
8.77126000 0.995976 128.66 0.089554 38.677 0.089554 38.677 0.995976 128.70
8.77128000 0.995976 128.66 0.089558 38.677 0.089558 38.677 0.995976 128.69
8.77130000 0.995975 128.66 0.089562 38.677 0.089562 38.677 0.995975 128.69
8.77132000 0.995975 128.66 0.089566 38.676 0.089566 38.676 0.995975 128.69
8.77134000 0.995975 128.66 0.089570 38.676 0.089570 38.676 0.995975 128.69
8.77136000 0.995974 128.66 0.089574 38.676 0.089574 38.676 0.995974 128.69
8.77138000 0.995974 128.66 0.089578 38.675 0.089578 38.675 0.995974 128.69
8.77140000 0.995973 128.66 0.089583 38.675 0.089583 38.675 0.995974 128.69
8.77142000 0.995973 128.66 0.089587 38.675 0.089587 38.675 0.995973 128.69
8.77144000 0.995973 128.66 0.089591 38.674 0.089591 38.674 0.995973 128.69
8.77146000 0.995972 128.66 0.089595 38.674 0.089595 38.674 0.995972 128.69
8.77148000 0.995972 128.66 0.089599 38.674 0.089599 38.674 0.995972 128.69
8.77150000 0.995971 128.66 0.089603 38.673 0.089603 38.673 0.995972 128.69
8.77152000 0.995971 128.66 0.089608 38.673 0.089608 38.673 0.995971 128.69
8.77154000 0.995971 128.66 0.089612 38.673 0.089612 38.673 0.995971 128.69
8.77156000 0.995970 128.66 0.089616 38.672 0.089616 38.672 0.995970 128.69
8.77158000 0.995970 128.66 0.089620 38.672 0.089620 38.672 0.995970 128.69
8.77160000 0.995969 128.66 0.089625 38.671 0.089625 38.671 0.995970 128.69
8.77162000 0.995969 128.66 0.089629 38.671 0.089629 38.671 0.995969 128.69
8.77164000 0.995969 128.66 0.089633 38.671 0.089633 38.671 0.995969 128.69
8.77166000 0.995968 128.65 0.089638 38.670 0.089638 38.670 0.995968 128.69
8.77168000 0.995968 128.65 0.089642 38.670 0.089642 38.670 0.995968 128.69
8.77170000 0.995967 128.65 0.089646 38.670 0.089646 38.670 0.995968 128.69
8.77172000 0.995967 128.65 0.089651 38.669 0.089651 38.669 0.995967 128.69
8.77174000 0.995967 128.65 0.089655 38.669 0.089655 38.669 0.995967 128.69
8.77176000 0.995966 128.65 0.089660 38.668 0.089660 38.668 0.995966 128.69
8.77178000 0.995966 128.65 0.089664 38.668 0.089664 38.668 0.995966 128.69
8.77180000 0.995965 128.65 0.089669 38.668 0.089669 38.668 0.995966 128.69
8.77182000 0.995965 128.65 0.089673 38.667 0.089673 38.667 0.995965 128.69
8.77184000 0.995964 128.65 0.089678 38.667 0.089678 38.667 0.995965 128.69
8.77186000 0.995964 128.65 0.089682 38.667 0.089682 38.667 0.995964 128.68
8.77188000 0.995964 128.65 0.089687 38.666 0.089687 38.666 0.995964 128.68
8.77190000 0.995963 128.65 0.089691 38.666 0.089691 38.666 0.995963 128.68
8.77192000 0.995963 128.65 0.089696 38.666 0.089696 38.666 0.995963 128.68
8.77194000 0.995962 128.65 0.089700 38.665 0.089700 38.665 0.995963 128.68
8.77196000 0.995962 128.65 0.089705 38.665 0.089705 38.665 0.995962 128.68
8.77198000 0.995961 128.65 0.089709 38.664 0.089709 38.664 0.995962 128.68
8.77200000 0.995961 128.65 0.089714 38.664 0.089714 38.664 0.995961 128.68
8.77202000 0.995961 128.65 0.089719 38.664 0.089719 38.664 0.995961 128.68
8.77204000 0.995960 128.65 0.089723 38.663 0.089723 38.663 0.995960 128.68
8.77206000 0.995960 128.65 0.089728 38.663 0.089728 38.663 0.995960 128.68
8.77208000 0.995959 128.65 0.089733 38.662 0.089733 38.662 0.995960 128.68
8.77210000 0.995959 128.65 0.089738 38.662 0.089738 38.662 0.995959 128.68
8.77212000 0.995958 128.65 0.089742 38.662 0.089742 38.662 0.995959 128.68
8.77214000 0.995958 128.65 0.089747 38.661 0.089747 38.661 0.995958 128.68
8.77216000 0.995958 128.65 0.089752 38.661 0.089752 38.661 0.995958 128.68
8.77218000 0.995957 128.65 0.089757 38.660 0.089757 38.660 0.995957 128.68
8.77220000 0.995957 128.64 0.089761 38.660 0.089761 38.660 0.995957 128.68
8.77222000 0.995956 128.64 0.089766 38.660 0.089766 38.660 0.995956 128.68
8.77224000 0.995956 128.64 0.089771 38.659 0.089771 38.659 0.995956 128.68
8.77226000 0.995955 128.64 0.089776 38.659 0.089776 38.659 0.995955 128.68
8.77228000 0.995955 128.64 0.089781 38.658 0.089781 38.658 0.995955 128.68
8.77230000 0.995954 128.64 0.089786 38.658 0.089786 38.658 0.995955 128.68
8.77232000 0.995954 128.64 0.089791 38.658 0.089791 38.658 0.995954 128.68
8.77234000 0.995953 128.64 0.089796 38.657 0.089796 38.657 0.995954 128.68
8.77236000 0.995953 128.64 0.089801 38.657 0.089801 38.657 0.995953 128.68
8.77238000 0.995952 128.64 0.089806 38.656 0.089806 38.656 0.995953 128.67
8.77240000 0.995952 128.64 0.089811 38.656 0.089811 38.656 0.995952 128.67
8.77242000 0.995951 128.64 0.089816 38.656 0.089816 38.656 0.995952 128.67
8.77244000 0.995951 128.64 0.089821 38.655 0.089821 38.655 0.995951 128.67
8.77246000 0.995951 128.64 0.089826 38.655 0.089826 38.655 0.995951 128.67
8.77248000 0.995950 128.64 0.089831 38.654 0.089831 38.654 0.995950 128.67
8.77250000 0.995950 128.64 0.089836 38.654 0.089836 38.654 0.995950 128.67
8.77252000 0.995949 128.64 0.089841 38.654 0.089841 38.654 0.995949 128.67
8.77254000 0.995949 128.64 0.089847 38.653 0.089847 38.653 0.995949 128.67
8.77256000 0.995948 128.64 0.089852 38.653 0.089852 38.653 0.995948 128.67
8.77258000 0.995948 128.64 0.089857 38.652 0.089857 38.652 0.995948 128.67
8.77260000 0.995947 128.64 0.089862 38.652 0.089862 38.652 0.995947 128.67
8.77262000 0.995947 128.64 0.089867 38.652 0.089867 38.652 0.995947 128.67
8.77264000 0.995946 128.64 0.089873 38.651 0.089873 38.651 0.995946 128.67
8.77266000 0.995946 128.64 0.089878 38.651 0.089878 38.651 0.995946 128.67
8.77268000 0.995945 128.64 0.089883 38.650 0.089883 38.650 0.995945 128.67
8.77270000 0.995945 128.63 0.089889 38.650 0.089889 38.650 0.995945 128.67
8.77272000 0.995944 128.63 0.089894 38.649 0.089894 38.649 0.995944 128.67
8.77274000 0.995944 128.63 0.089900 38.649 0.089900 38.649 0.995944 128.67
8.77276000 0.995943 128.63 0.089905 38.649 0.089905 38.649 0.995943 128.67
8.77278000 0.995943 128.63 0.089910 38.648 0.089910 38.648 0.995943 128.67
8.77280000 0.995942 128.63 0.089916 38.648 0.089916 38.648 0.995942 128.67
8.77282000 0.995942 128.63 0.089921 38.647 0.089921 38.647 0.995942 128.67