! Sonnet Data File
! From: emgraph Version : 16.52
! From Project: Qubit_Xmon2_brg
! Data is De-embedded 
! Data File Written: 10/25/2017 15:28:40
!< HDATE 10/25/2017 13:50:25
!< MDATE 10/25/2017 13:50:25
!< PARAMS
!< Lj = 11.0
!< Gap = 6.0
!< Pwid = 2000.0
!< Airgap = 6.0
!< Width = 10.0
!< Bwid = 8.0
!< Dis1 = 650.0
!< Dis2 = 656.0
!< END PARAMS
# GHZ S MA R 34.70000
8.76000000 0.994327 123.42 0.106333 33.440 0.106333 33.440 0.994328 123.46
!< P1 F=8.76 Eeff=(5.13726025 -5.6937e-5) Z0=(34.6466742 -9.6556e-5) R=0.0 C=0.0 
!< P2 F=8.76 Eeff=(5.13726025 -5.6937e-5) Z0=(34.6466742 -9.6556e-5) R=0.0 C=0.0 
8.76002000 0.994327 123.42 0.106334 33.440 0.106334 33.440 0.994327 123.46
8.76004000 0.994327 123.42 0.106334 33.440 0.106334 33.440 0.994327 123.46
8.76006000 0.994327 123.42 0.106335 33.440 0.106335 33.440 0.994327 123.46
8.76008000 0.994327 123.42 0.106336 33.440 0.106336 33.440 0.994327 123.46
8.76010000 0.994327 123.42 0.106336 33.440 0.106336 33.440 0.994327 123.46
8.76012000 0.994327 123.42 0.106337 33.439 0.106337 33.439 0.994327 123.46
8.76014000 0.994327 123.42 0.106337 33.439 0.106337 33.439 0.994327 123.46
8.76016000 0.994327 123.42 0.106338 33.439 0.106338 33.439 0.994327 123.46
8.76018000 0.994327 123.42 0.106339 33.439 0.106339 33.439 0.994327 123.46
8.76020000 0.994327 123.42 0.106339 33.439 0.106339 33.439 0.994327 123.46
8.76022000 0.994327 123.42 0.106340 33.439 0.106340 33.439 0.994327 123.46
8.76024000 0.994327 123.42 0.106341 33.438 0.106341 33.438 0.994327 123.46
8.76026000 0.994327 123.42 0.106341 33.438 0.106341 33.438 0.994327 123.46
8.76028000 0.994327 123.42 0.106342 33.438 0.106342 33.438 0.994327 123.46
8.76030000 0.994326 123.42 0.106343 33.438 0.106343 33.438 0.994326 123.46
8.76032000 0.994326 123.42 0.106343 33.438 0.106343 33.438 0.994326 123.46
8.76034000 0.994326 123.42 0.106344 33.438 0.106344 33.438 0.994326 123.46
8.76036000 0.994326 123.42 0.106344 33.438 0.106344 33.438 0.994326 123.46
8.76038000 0.994326 123.42 0.106345 33.437 0.106345 33.437 0.994326 123.46
8.76040000 0.994326 123.42 0.106346 33.437 0.106346 33.437 0.994326 123.46
8.76042000 0.994326 123.42 0.106346 33.437 0.106346 33.437 0.994326 123.46
8.76044000 0.994326 123.42 0.106347 33.437 0.106347 33.437 0.994326 123.46
8.76046000 0.994326 123.42 0.106348 33.437 0.106348 33.437 0.994326 123.46
8.76048000 0.994326 123.42 0.106348 33.437 0.106348 33.437 0.994326 123.46
8.76050000 0.994326 123.42 0.106349 33.437 0.106349 33.437 0.994326 123.45
8.76052000 0.994326 123.42 0.106350 33.436 0.106350 33.436 0.994326 123.45
8.76054000 0.994326 123.42 0.106350 33.436 0.106350 33.436 0.994326 123.45
8.76056000 0.994326 123.42 0.106351 33.436 0.106351 33.436 0.994326 123.45
8.76058000 0.994325 123.42 0.106352 33.436 0.106352 33.436 0.994326 123.45
8.76060000 0.994325 123.42 0.106352 33.436 0.106352 33.436 0.994325 123.45
8.76062000 0.994325 123.42 0.106353 33.436 0.106353 33.436 0.994325 123.45
8.76064000 0.994325 123.41 0.106353 33.435 0.106353 33.435 0.994325 123.45
8.76066000 0.994325 123.41 0.106354 33.435 0.106354 33.435 0.994325 123.45
8.76068000 0.994325 123.41 0.106355 33.435 0.106355 33.435 0.994325 123.45
8.76070000 0.994325 123.41 0.106355 33.435 0.106355 33.435 0.994325 123.45
8.76072000 0.994325 123.41 0.106356 33.435 0.106356 33.435 0.994325 123.45
8.76074000 0.994325 123.41 0.106357 33.435 0.106357 33.435 0.994325 123.45
8.76076000 0.994325 123.41 0.106357 33.435 0.106357 33.435 0.994325 123.45
8.76078000 0.994325 123.41 0.106358 33.434 0.106358 33.434 0.994325 123.45
8.76080000 0.994325 123.41 0.106359 33.434 0.106359 33.434 0.994325 123.45
8.76082000 0.994325 123.41 0.106359 33.434 0.106359 33.434 0.994325 123.45
8.76084000 0.994325 123.41 0.106360 33.434 0.106360 33.434 0.994325 123.45
8.76086000 0.994325 123.41 0.106361 33.434 0.106361 33.434 0.994325 123.45
8.76088000 0.994324 123.41 0.106361 33.434 0.106361 33.434 0.994324 123.45
8.76090000 0.994324 123.41 0.106362 33.433 0.106362 33.433 0.994324 123.45
8.76092000 0.994324 123.41 0.106362 33.433 0.106362 33.433 0.994324 123.45
8.76094000 0.994324 123.41 0.106363 33.433 0.106363 33.433 0.994324 123.45
8.76096000 0.994324 123.41 0.106364 33.433 0.106364 33.433 0.994324 123.45
8.76098000 0.994324 123.41 0.106364 33.433 0.106364 33.433 0.994324 123.45
8.76100000 0.994324 123.41 0.106365 33.433 0.106365 33.433 0.994324 123.45
8.76102000 0.994324 123.41 0.106366 33.433 0.106366 33.433 0.994324 123.45
8.76104000 0.994324 123.41 0.106366 33.432 0.106366 33.432 0.994324 123.45
8.76106000 0.994324 123.41 0.106367 33.432 0.106367 33.432 0.994324 123.45
8.76108000 0.994324 123.41 0.106368 33.432 0.106368 33.432 0.994324 123.45
8.76110000 0.994324 123.41 0.106368 33.432 0.106368 33.432 0.994324 123.45
8.76112000 0.994324 123.41 0.106369 33.432 0.106369 33.432 0.994324 123.45
8.76114000 0.994324 123.41 0.106370 33.432 0.106370 33.432 0.994324 123.45
8.76116000 0.994323 123.41 0.106370 33.431 0.106370 33.431 0.994324 123.45
8.76118000 0.994323 123.41 0.106371 33.431 0.106371 33.431 0.994323 123.45
8.76120000 0.994323 123.41 0.106372 33.431 0.106372 33.431 0.994323 123.45
8.76122000 0.994323 123.41 0.106372 33.431 0.106372 33.431 0.994323 123.45
8.76124000 0.994323 123.41 0.106373 33.431 0.106373 33.431 0.994323 123.45
8.76126000 0.994323 123.41 0.106374 33.431 0.106374 33.431 0.994323 123.45
8.76128000 0.994323 123.41 0.106374 33.431 0.106374 33.431 0.994323 123.45
8.76130000 0.994323 123.41 0.106375 33.430 0.106375 33.430 0.994323 123.45
8.76132000 0.994323 123.41 0.106376 33.430 0.106376 33.430 0.994323 123.45
8.76134000 0.994323 123.41 0.106376 33.430 0.106376 33.430 0.994323 123.45
8.76136000 0.994323 123.41 0.106377 33.430 0.106377 33.430 0.994323 123.45
8.76138000 0.994323 123.41 0.106377 33.430 0.106377 33.430 0.994323 123.45
8.76140000 0.994323 123.41 0.106378 33.430 0.106378 33.430 0.994323 123.45
8.76142000 0.994323 123.41 0.106379 33.429 0.106379 33.429 0.994323 123.45
8.76144000 0.994322 123.41 0.106379 33.429 0.106379 33.429 0.994323 123.45
8.76146000 0.994322 123.41 0.106380 33.429 0.106380 33.429 0.994322 123.45
8.76148000 0.994322 123.41 0.106381 33.429 0.106381 33.429 0.994322 123.45
8.76150000 0.994322 123.41 0.106381 33.429 0.106381 33.429 0.994322 123.45
8.76152000 0.994322 123.41 0.106382 33.429 0.106382 33.429 0.994322 123.45
8.76154000 0.994322 123.41 0.106383 33.429 0.106383 33.429 0.994322 123.45
8.76156000 0.994322 123.41 0.106383 33.428 0.106383 33.428 0.994322 123.45
8.76158000 0.994322 123.41 0.106384 33.428 0.106384 33.428 0.994322 123.45
8.76160000 0.994322 123.41 0.106385 33.428 0.106385 33.428 0.994322 123.45
8.76162000 0.994322 123.41 0.106385 33.428 0.106385 33.428 0.994322 123.45
8.76164000 0.994322 123.41 0.106386 33.428 0.106386 33.428 0.994322 123.45
8.76166000 0.994322 123.41 0.106387 33.428 0.106387 33.428 0.994322 123.45
8.76168000 0.994322 123.41 0.106387 33.428 0.106387 33.428 0.994322 123.45
8.76170000 0.994322 123.41 0.106388 33.427 0.106388 33.427 0.994322 123.45
8.76172000 0.994321 123.41 0.106389 33.427 0.106389 33.427 0.994322 123.45
8.76174000 0.994321 123.41 0.106389 33.427 0.106389 33.427 0.994321 123.45
8.76176000 0.994321 123.41 0.106390 33.427 0.106390 33.427 0.994321 123.45
8.76178000 0.994321 123.41 0.106391 33.427 0.106391 33.427 0.994321 123.45
8.76180000 0.994321 123.41 0.106391 33.427 0.106391 33.427 0.994321 123.45
8.76182000 0.994321 123.41 0.106392 33.426 0.106392 33.426 0.994321 123.44
8.76184000 0.994321 123.41 0.106393 33.426 0.106393 33.426 0.994321 123.44
8.76186000 0.994321 123.41 0.106393 33.426 0.106393 33.426 0.994321 123.44
8.76188000 0.994321 123.41 0.106394 33.426 0.106394 33.426 0.994321 123.44
8.76190000 0.994321 123.41 0.106395 33.426 0.106395 33.426 0.994321 123.44
8.76192000 0.994321 123.41 0.106395 33.426 0.106395 33.426 0.994321 123.44
8.76194000 0.994321 123.40 0.106396 33.426 0.106396 33.426 0.994321 123.44
8.76196000 0.994321 123.40 0.106397 33.425 0.106397 33.425 0.994321 123.44
8.76198000 0.994321 123.40 0.106397 33.425 0.106397 33.425 0.994321 123.44
8.76200000 0.994320 123.40 0.106398 33.425 0.106398 33.425 0.994321 123.44
8.76202000 0.994320 123.40 0.106399 33.425 0.106399 33.425 0.994320 123.44
8.76204000 0.994320 123.40 0.106399 33.425 0.106399 33.425 0.994320 123.44
8.76206000 0.994320 123.40 0.106400 33.425 0.106400 33.425 0.994320 123.44
8.76208000 0.994320 123.40 0.106401 33.424 0.106401 33.424 0.994320 123.44
8.76210000 0.994320 123.40 0.106401 33.424 0.106401 33.424 0.994320 123.44
8.76212000 0.994320 123.40 0.106402 33.424 0.106402 33.424 0.994320 123.44
8.76214000 0.994320 123.40 0.106403 33.424 0.106403 33.424 0.994320 123.44
8.76216000 0.994320 123.40 0.106404 33.424 0.106404 33.424 0.994320 123.44
8.76218000 0.994320 123.40 0.106404 33.424 0.106404 33.424 0.994320 123.44
8.76220000 0.994320 123.40 0.106405 33.424 0.106405 33.424 0.994320 123.44
8.76222000 0.994320 123.40 0.106406 33.423 0.106406 33.423 0.994320 123.44
8.76224000 0.994320 123.40 0.106406 33.423 0.106406 33.423 0.994320 123.44
8.76226000 0.994320 123.40 0.106407 33.423 0.106407 33.423 0.994320 123.44
8.76228000 0.994319 123.40 0.106408 33.423 0.106408 33.423 0.994319 123.44
8.76230000 0.994319 123.40 0.106408 33.423 0.106408 33.423 0.994319 123.44
8.76232000 0.994319 123.40 0.106409 33.423 0.106409 33.423 0.994319 123.44
8.76234000 0.994319 123.40 0.106410 33.422 0.106410 33.422 0.994319 123.44
8.76236000 0.994319 123.40 0.106410 33.422 0.106410 33.422 0.994319 123.44
8.76238000 0.994319 123.40 0.106411 33.422 0.106411 33.422 0.994319 123.44
8.76240000 0.994319 123.40 0.106412 33.422 0.106412 33.422 0.994319 123.44
8.76242000 0.994319 123.40 0.106412 33.422 0.106412 33.422 0.994319 123.44
8.76244000 0.994319 123.40 0.106413 33.422 0.106413 33.422 0.994319 123.44
8.76246000 0.994319 123.40 0.106414 33.422 0.106414 33.422 0.994319 123.44
8.76248000 0.994319 123.40 0.106414 33.421 0.106414 33.421 0.994319 123.44
8.76250000 0.994319 123.40 0.106415 33.421 0.106415 33.421 0.994319 123.44
8.76252000 0.994319 123.40 0.106416 33.421 0.106416 33.421 0.994319 123.44
8.76254000 0.994319 123.40 0.106416 33.421 0.106416 33.421 0.994319 123.44
8.76256000 0.994318 123.40 0.106417 33.421 0.106417 33.421 0.994318 123.44
8.76258000 0.994318 123.40 0.106418 33.421 0.106418 33.421 0.994318 123.44
8.76260000 0.994318 123.40 0.106419 33.420 0.106419 33.420 0.994318 123.44
8.76262000 0.994318 123.40 0.106419 33.420 0.106419 33.420 0.994318 123.44
8.76264000 0.994318 123.40 0.106420 33.420 0.106420 33.420 0.994318 123.44
8.76266000 0.994318 123.40 0.106421 33.420 0.106421 33.420 0.994318 123.44
8.76268000 0.994318 123.40 0.106421 33.420 0.106421 33.420 0.994318 123.44
8.76270000 0.994318 123.40 0.106422 33.420 0.106422 33.420 0.994318 123.44
8.76272000 0.994318 123.40 0.106423 33.419 0.106423 33.419 0.994318 123.44
8.76274000 0.994318 123.40 0.106423 33.419 0.106423 33.419 0.994318 123.44
8.76276000 0.994318 123.40 0.106424 33.419 0.106424 33.419 0.994318 123.44
8.76278000 0.994318 123.40 0.106425 33.419 0.106425 33.419 0.994318 123.44
8.76280000 0.994318 123.40 0.106425 33.419 0.106425 33.419 0.994318 123.44
8.76282000 0.994317 123.40 0.106426 33.419 0.106426 33.419 0.994317 123.44
8.76284000 0.994317 123.40 0.106427 33.419 0.106427 33.419 0.994317 123.44
8.76286000 0.994317 123.40 0.106427 33.418 0.106427 33.418 0.994317 123.44
8.76288000 0.994317 123.40 0.106428 33.418 0.106428 33.418 0.994317 123.44
8.76290000 0.994317 123.40 0.106429 33.418 0.106429 33.418 0.994317 123.44
8.76292000 0.994317 123.40 0.106430 33.418 0.106430 33.418 0.994317 123.44
8.76294000 0.994317 123.40 0.106430 33.418 0.106430 33.418 0.994317 123.44
8.76296000 0.994317 123.40 0.106431 33.418 0.106431 33.418 0.994317 123.44
8.76298000 0.994317 123.40 0.106432 33.417 0.106432 33.417 0.994317 123.44
8.76300000 0.994317 123.40 0.106432 33.417 0.106432 33.417 0.994317 123.44
8.76302000 0.994317 123.40 0.106433 33.417 0.106433 33.417 0.994317 123.44
8.76304000 0.994317 123.40 0.106434 33.417 0.106434 33.417 0.994317 123.44
8.76306000 0.994317 123.40 0.106434 33.417 0.106434 33.417 0.994317 123.44
8.76308000 0.994316 123.40 0.106435 33.417 0.106435 33.417 0.994317 123.44
8.76310000 0.994316 123.40 0.106436 33.417 0.106436 33.417 0.994316 123.44
8.76312000 0.994316 123.40 0.106437 33.416 0.106437 33.416 0.994316 123.43
8.76314000 0.994316 123.40 0.106437 33.416 0.106437 33.416 0.994316 123.43
8.76316000 0.994316 123.40 0.106438 33.416 0.106438 33.416 0.994316 123.43
8.76318000 0.994316 123.40 0.106439 33.416 0.106439 33.416 0.994316 123.43
8.76320000 0.994316 123.40 0.106439 33.416 0.106439 33.416 0.994316 123.43
8.76322000 0.994316 123.40 0.106440 33.416 0.106440 33.416 0.994316 123.43
8.76324000 0.994316 123.39 0.106441 33.415 0.106441 33.415 0.994316 123.43
8.76326000 0.994316 123.39 0.106441 33.415 0.106441 33.415 0.994316 123.43
8.76328000 0.994316 123.39 0.106442 33.415 0.106442 33.415 0.994316 123.43
8.76330000 0.994316 123.39 0.106443 33.415 0.106443 33.415 0.994316 123.43
8.76332000 0.994316 123.39 0.106444 33.415 0.106444 33.415 0.994316 123.43
8.76334000 0.994316 123.39 0.106444 33.415 0.106444 33.415 0.994316 123.43
8.76336000 0.994315 123.39 0.106445 33.415 0.106445 33.415 0.994315 123.43
8.76338000 0.994315 123.39 0.106446 33.414 0.106446 33.414 0.994315 123.43
8.76340000 0.994315 123.39 0.106446 33.414 0.106446 33.414 0.994315 123.43
8.76342000 0.994315 123.39 0.106447 33.414 0.106447 33.414 0.994315 123.43
8.76344000 0.994315 123.39 0.106448 33.414 0.106448 33.414 0.994315 123.43
8.76346000 0.994315 123.39 0.106449 33.414 0.106449 33.414 0.994315 123.43
8.76348000 0.994315 123.39 0.106449 33.414 0.106449 33.414 0.994315 123.43
8.76350000 0.994315 123.39 0.106450 33.413 0.106450 33.413 0.994315 123.43
8.76352000 0.994315 123.39 0.106451 33.413 0.106451 33.413 0.994315 123.43
8.76354000 0.994315 123.39 0.106451 33.413 0.106451 33.413 0.994315 123.43
8.76356000 0.994315 123.39 0.106452 33.413 0.106452 33.413 0.994315 123.43
8.76358000 0.994315 123.39 0.106453 33.413 0.106453 33.413 0.994315 123.43
8.76360000 0.994315 123.39 0.106453 33.413 0.106453 33.413 0.994315 123.43
8.76362000 0.994314 123.39 0.106454 33.413 0.106454 33.413 0.994314 123.43
8.76364000 0.994314 123.39 0.106455 33.412 0.106455 33.412 0.994314 123.43
8.76366000 0.994314 123.39 0.106456 33.412 0.106456 33.412 0.994314 123.43
8.76368000 0.994314 123.39 0.106456 33.412 0.106456 33.412 0.994314 123.43
8.76370000 0.994314 123.39 0.106457 33.412 0.106457 33.412 0.994314 123.43
8.76372000 0.994314 123.39 0.106458 33.412 0.106458 33.412 0.994314 123.43
8.76374000 0.994314 123.39 0.106458 33.412 0.106458 33.412 0.994314 123.43
8.76376000 0.994314 123.39 0.106459 33.411 0.106459 33.411 0.994314 123.43
8.76378000 0.994314 123.39 0.106460 33.411 0.106460 33.411 0.994314 123.43
8.76380000 0.994314 123.39 0.106461 33.411 0.106461 33.411 0.994314 123.43
8.76382000 0.994314 123.39 0.106461 33.411 0.106461 33.411 0.994314 123.43
8.76384000 0.994314 123.39 0.106462 33.411 0.106462 33.411 0.994314 123.43
8.76386000 0.994314 123.39 0.106463 33.411 0.106463 33.411 0.994314 123.43
8.76388000 0.994313 123.39 0.106464 33.410 0.106464 33.410 0.994313 123.43
8.76390000 0.994313 123.39 0.106464 33.410 0.106464 33.410 0.994313 123.43
8.76392000 0.994313 123.39 0.106465 33.410 0.106465 33.410 0.994313 123.43
8.76394000 0.994313 123.39 0.106466 33.410 0.106466 33.410 0.994313 123.43
8.76396000 0.994313 123.39 0.106466 33.410 0.106466 33.410 0.994313 123.43
8.76398000 0.994313 123.39 0.106467 33.410 0.106467 33.410 0.994313 123.43
8.76400000 0.994313 123.39 0.106468 33.410 0.106468 33.410 0.994313 123.43
8.76402000 0.994313 123.39 0.106469 33.409 0.106469 33.409 0.994313 123.43
8.76404000 0.994313 123.39 0.106469 33.409 0.106469 33.409 0.994313 123.43
8.76406000 0.994313 123.39 0.106470 33.409 0.106470 33.409 0.994313 123.43
8.76408000 0.994313 123.39 0.106471 33.409 0.106471 33.409 0.994313 123.43
8.76410000 0.994313 123.39 0.106471 33.409 0.106471 33.409 0.994313 123.43
8.76412000 0.994312 123.39 0.106472 33.409 0.106472 33.409 0.994313 123.43
8.76414000 0.994312 123.39 0.106473 33.408 0.106473 33.408 0.994312 123.43
8.76416000 0.994312 123.39 0.106474 33.408 0.106474 33.408 0.994312 123.43
8.76418000 0.994312 123.39 0.106474 33.408 0.106474 33.408 0.994312 123.43
8.76420000 0.994312 123.39 0.106475 33.408 0.106475 33.408 0.994312 123.43
8.76422000 0.994312 123.39 0.106476 33.408 0.106476 33.408 0.994312 123.43
8.76424000 0.994312 123.39 0.106477 33.408 0.106477 33.408 0.994312 123.43
8.76426000 0.994312 123.39 0.106477 33.407 0.106477 33.407 0.994312 123.43
8.76428000 0.994312 123.39 0.106478 33.407 0.106478 33.407 0.994312 123.43
8.76430000 0.994312 123.39 0.106479 33.407 0.106479 33.407 0.994312 123.43
8.76432000 0.994312 123.39 0.106480 33.407 0.106480 33.407 0.994312 123.43
8.76434000 0.994312 123.39 0.106480 33.407 0.106480 33.407 0.994312 123.43
8.76436000 0.994312 123.39 0.106481 33.407 0.106481 33.407 0.994312 123.43
8.76438000 0.994311 123.39 0.106482 33.407 0.106482 33.407 0.994311 123.43
8.76440000 0.994311 123.39 0.106482 33.406 0.106482 33.406 0.994311 123.43
8.76442000 0.994311 123.39 0.106483 33.406 0.106483 33.406 0.994311 123.42
8.76444000 0.994311 123.39 0.106484 33.406 0.106484 33.406 0.994311 123.42
8.76446000 0.994311 123.39 0.106485 33.406 0.106485 33.406 0.994311 123.42
8.76448000 0.994311 123.39 0.106485 33.406 0.106485 33.406 0.994311 123.42
8.76450000 0.994311 123.38 0.106486 33.406 0.106486 33.406 0.994311 123.42
8.76452000 0.994311 123.38 0.106487 33.405 0.106487 33.405 0.994311 123.42
8.76454000 0.994311 123.38 0.106488 33.405 0.106488 33.405 0.994311 123.42
8.76456000 0.994311 123.38 0.106488 33.405 0.106488 33.405 0.994311 123.42
8.76458000 0.994311 123.38 0.106489 33.405 0.106489 33.405 0.994311 123.42
8.76460000 0.994311 123.38 0.106490 33.405 0.106490 33.405 0.994311 123.42
8.76462000 0.994311 123.38 0.106491 33.405 0.106491 33.405 0.994311 123.42
8.76464000 0.994310 123.38 0.106491 33.404 0.106491 33.404 0.994310 123.42
8.76466000 0.994310 123.38 0.106492 33.404 0.106492 33.404 0.994310 123.42
8.76468000 0.994310 123.38 0.106493 33.404 0.106493 33.404 0.994310 123.42
8.76470000 0.994310 123.38 0.106494 33.404 0.106494 33.404 0.994310 123.42
8.76472000 0.994310 123.38 0.106494 33.404 0.106494 33.404 0.994310 123.42
8.76474000 0.994310 123.38 0.106495 33.404 0.106495 33.404 0.994310 123.42
8.76476000 0.994310 123.38 0.106496 33.404 0.106496 33.404 0.994310 123.42
8.76478000 0.994310 123.38 0.106497 33.403 0.106497 33.403 0.994310 123.42
8.76480000 0.994310 123.38 0.106497 33.403 0.106497 33.403 0.994310 123.42
8.76482000 0.994310 123.38 0.106498 33.403 0.106498 33.403 0.994310 123.42
8.76484000 0.994310 123.38 0.106499 33.403 0.106499 33.403 0.994310 123.42
8.76486000 0.994310 123.38 0.106500 33.403 0.106500 33.403 0.994310 123.42
8.76488000 0.994309 123.38 0.106500 33.403 0.106500 33.403 0.994309 123.42
8.76490000 0.994309 123.38 0.106501 33.402 0.106501 33.402 0.994309 123.42
8.76492000 0.994309 123.38 0.106502 33.402 0.106502 33.402 0.994309 123.42
8.76494000 0.994309 123.38 0.106503 33.402 0.106503 33.402 0.994309 123.42
8.76496000 0.994309 123.38 0.106503 33.402 0.106503 33.402 0.994309 123.42
8.76498000 0.994309 123.38 0.106504 33.402 0.106504 33.402 0.994309 123.42
8.76500000 0.994309 123.38 0.106505 33.402 0.106505 33.402 0.994309 123.42
8.76502000 0.994309 123.38 0.106506 33.401 0.106506 33.401 0.994309 123.42
8.76504000 0.994309 123.38 0.106506 33.401 0.106506 33.401 0.994309 123.42
8.76506000 0.994309 123.38 0.106507 33.401 0.106507 33.401 0.994309 123.42
8.76508000 0.994309 123.38 0.106508 33.401 0.106508 33.401 0.994309 123.42
8.76510000 0.994309 123.38 0.106509 33.401 0.106509 33.401 0.994309 123.42
8.76512000 0.994308 123.38 0.106509 33.401 0.106509 33.401 0.994309 123.42
8.76514000 0.994308 123.38 0.106510 33.401 0.106510 33.401 0.994308 123.42
8.76516000 0.994308 123.38 0.106511 33.400 0.106511 33.400 0.994308 123.42
8.76518000 0.994308 123.38 0.106512 33.400 0.106512 33.400 0.994308 123.42
8.76520000 0.994308 123.38 0.106512 33.400 0.106512 33.400 0.994308 123.42
8.76522000 0.994308 123.38 0.106513 33.400 0.106513 33.400 0.994308 123.42
8.76524000 0.994308 123.38 0.106514 33.400 0.106514 33.400 0.994308 123.42
8.76526000 0.994308 123.38 0.106515 33.400 0.106515 33.400 0.994308 123.42
8.76528000 0.994308 123.38 0.106515 33.399 0.106515 33.399 0.994308 123.42
8.76530000 0.994308 123.38 0.106516 33.399 0.106516 33.399 0.994308 123.42
8.76532000 0.994308 123.38 0.106517 33.399 0.106517 33.399 0.994308 123.42
8.76534000 0.994308 123.38 0.106518 33.399 0.106518 33.399 0.994308 123.42
8.76536000 0.994308 123.38 0.106518 33.399 0.106518 33.399 0.994308 123.42
8.76538000 0.994307 123.38 0.106519 33.399 0.106519 33.399 0.994307 123.42
8.76540000 0.994307 123.38 0.106520 33.398 0.106520 33.398 0.994307 123.42
8.76542000 0.994307 123.38 0.106521 33.398 0.106521 33.398 0.994307 123.42
8.76544000 0.994307 123.38 0.106521 33.398 0.106521 33.398 0.994307 123.42
8.76546000 0.994307 123.38 0.106522 33.398 0.106522 33.398 0.994307 123.42
8.76548000 0.994307 123.38 0.106523 33.398 0.106523 33.398 0.994307 123.42
8.76550000 0.994307 123.38 0.106524 33.398 0.106524 33.398 0.994307 123.42
8.76552000 0.994307 123.38 0.106525 33.398 0.106525 33.398 0.994307 123.42
8.76554000 0.994307 123.38 0.106525 33.397 0.106525 33.397 0.994307 123.42
8.76556000 0.994307 123.38 0.106526 33.397 0.106526 33.397 0.994307 123.42
8.76558000 0.994307 123.38 0.106527 33.397 0.106527 33.397 0.994307 123.42
8.76560000 0.994307 123.38 0.106528 33.397 0.106528 33.397 0.994307 123.42
8.76562000 0.994306 123.38 0.106528 33.397 0.106528 33.397 0.994306 123.42
8.76564000 0.994306 123.38 0.106529 33.397 0.106529 33.397 0.994306 123.42
8.76566000 0.994306 123.38 0.106530 33.396 0.106530 33.396 0.994306 123.42
8.76568000 0.994306 123.38 0.106531 33.396 0.106531 33.396 0.994306 123.41
8.76570000 0.994306 123.38 0.106532 33.396 0.106532 33.396 0.994306 123.41
8.76572000 0.994306 123.38 0.106532 33.396 0.106532 33.396 0.994306 123.41
8.76574000 0.994306 123.38 0.106533 33.396 0.106533 33.396 0.994306 123.41
8.76576000 0.994306 123.37 0.106534 33.396 0.106534 33.396 0.994306 123.41
8.76578000 0.994306 123.37 0.106535 33.395 0.106535 33.395 0.994306 123.41
8.76580000 0.994306 123.37 0.106535 33.395 0.106535 33.395 0.994306 123.41
8.76582000 0.994306 123.37 0.106536 33.395 0.106536 33.395 0.994306 123.41
8.76584000 0.994306 123.37 0.106537 33.395 0.106537 33.395 0.994306 123.41
8.76586000 0.994305 123.37 0.106538 33.395 0.106538 33.395 0.994305 123.41
8.76588000 0.994305 123.37 0.106539 33.395 0.106539 33.395 0.994305 123.41
8.76590000 0.994305 123.37 0.106539 33.394 0.106539 33.394 0.994305 123.41
8.76592000 0.994305 123.37 0.106540 33.394 0.106540 33.394 0.994305 123.41
8.76594000 0.994305 123.37 0.106541 33.394 0.106541 33.394 0.994305 123.41
8.76596000 0.994305 123.37 0.106542 33.394 0.106542 33.394 0.994305 123.41
8.76598000 0.994305 123.37 0.106542 33.394 0.106542 33.394 0.994305 123.41
8.76600000 0.994305 123.37 0.106543 33.394 0.106543 33.394 0.994305 123.41
8.76602000 0.994305 123.37 0.106544 33.394 0.106544 33.394 0.994305 123.41
8.76604000 0.994305 123.37 0.106545 33.393 0.106545 33.393 0.994305 123.41
8.76606000 0.994305 123.37 0.106546 33.393 0.106546 33.393 0.994305 123.41
8.76608000 0.994304 123.37 0.106546 33.393 0.106546 33.393 0.994305 123.41
8.76610000 0.994304 123.37 0.106547 33.393 0.106547 33.393 0.994304 123.41
8.76612000 0.994304 123.37 0.106548 33.393 0.106548 33.393 0.994304 123.41
8.76614000 0.994304 123.37 0.106549 33.393 0.106549 33.393 0.994304 123.41
8.76616000 0.994304 123.37 0.106550 33.392 0.106550 33.392 0.994304 123.41
8.76618000 0.994304 123.37 0.106550 33.392 0.106550 33.392 0.994304 123.41
8.76620000 0.994304 123.37 0.106551 33.392 0.106551 33.392 0.994304 123.41
8.76622000 0.994304 123.37 0.106552 33.392 0.106552 33.392 0.994304 123.41
8.76624000 0.994304 123.37 0.106553 33.392 0.106553 33.392 0.994304 123.41
8.76626000 0.994304 123.37 0.106553 33.392 0.106553 33.392 0.994304 123.41
8.76628000 0.994304 123.37 0.106554 33.391 0.106554 33.391 0.994304 123.41
8.76630000 0.994304 123.37 0.106555 33.391 0.106555 33.391 0.994304 123.41
8.76632000 0.994303 123.37 0.106556 33.391 0.106556 33.391 0.994303 123.41
8.76634000 0.994303 123.37 0.106557 33.391 0.106557 33.391 0.994303 123.41
8.76636000 0.994303 123.37 0.106557 33.391 0.106557 33.391 0.994303 123.41
8.76638000 0.994303 123.37 0.106558 33.391 0.106558 33.391 0.994303 123.41
8.76640000 0.994303 123.37 0.106559 33.390 0.106559 33.390 0.994303 123.41
8.76642000 0.994303 123.37 0.106560 33.390 0.106560 33.390 0.994303 123.41
8.76644000 0.994303 123.37 0.106561 33.390 0.106561 33.390 0.994303 123.41
8.76646000 0.994303 123.37 0.106561 33.390 0.106561 33.390 0.994303 123.41
8.76648000 0.994303 123.37 0.106562 33.390 0.106562 33.390 0.994303 123.41
8.76650000 0.994303 123.37 0.106563 33.390 0.106563 33.390 0.994303 123.41
8.76652000 0.994303 123.37 0.106564 33.389 0.106564 33.389 0.994303 123.41
8.76654000 0.994303 123.37 0.106565 33.389 0.106565 33.389 0.994303 123.41
8.76656000 0.994302 123.37 0.106565 33.389 0.106565 33.389 0.994302 123.41
8.76658000 0.994302 123.37 0.106566 33.389 0.106566 33.389 0.994302 123.41
8.76660000 0.994302 123.37 0.106567 33.389 0.106567 33.389 0.994302 123.41
8.76662000 0.994302 123.37 0.106568 33.389 0.106568 33.389 0.994302 123.41
8.76664000 0.994302 123.37 0.106569 33.389 0.106569 33.389 0.994302 123.41
8.76666000 0.994302 123.37 0.106570 33.388 0.106570 33.388 0.994302 123.41
8.76668000 0.994302 123.37 0.106570 33.388 0.106570 33.388 0.994302 123.41
8.76670000 0.994302 123.37 0.106571 33.388 0.106571 33.388 0.994302 123.41
8.76672000 0.994302 123.37 0.106572 33.388 0.106572 33.388 0.994302 123.41
8.76674000 0.994302 123.37 0.106573 33.388 0.106573 33.388 0.994302 123.41
8.76676000 0.994302 123.37 0.106574 33.388 0.106574 33.388 0.994302 123.41
8.76678000 0.994301 123.37 0.106574 33.387 0.106574 33.387 0.994301 123.41
8.76680000 0.994301 123.37 0.106575 33.387 0.106575 33.387 0.994301 123.41
8.76682000 0.994301 123.37 0.106576 33.387 0.106576 33.387 0.994301 123.41
8.76684000 0.994301 123.37 0.106577 33.387 0.106577 33.387 0.994301 123.41
8.76686000 0.994301 123.37 0.106578 33.387 0.106578 33.387 0.994301 123.41
8.76688000 0.994301 123.37 0.106578 33.387 0.106578 33.387 0.994301 123.41
8.76690000 0.994301 123.37 0.106579 33.386 0.106579 33.386 0.994301 123.41
8.76692000 0.994301 123.37 0.106580 33.386 0.106580 33.386 0.994301 123.41
8.76694000 0.994301 123.37 0.106581 33.386 0.106581 33.386 0.994301 123.40
8.76696000 0.994301 123.37 0.106582 33.386 0.106582 33.386 0.994301 123.40
8.76698000 0.994301 123.37 0.106583 33.386 0.106583 33.386 0.994301 123.40
8.76700000 0.994300 123.36 0.106583 33.386 0.106583 33.386 0.994301 123.40
8.76702000 0.994300 123.36 0.106584 33.385 0.106584 33.385 0.994300 123.40
8.76704000 0.994300 123.36 0.106585 33.385 0.106585 33.385 0.994300 123.40
8.76706000 0.994300 123.36 0.106586 33.385 0.106586 33.385 0.994300 123.40
8.76708000 0.994300 123.36 0.106587 33.385 0.106587 33.385 0.994300 123.40
8.76710000 0.994300 123.36 0.106587 33.385 0.106587 33.385 0.994300 123.40
8.76712000 0.994300 123.36 0.106588 33.385 0.106588 33.385 0.994300 123.40
8.76714000 0.994300 123.36 0.106589 33.384 0.106589 33.384 0.994300 123.40
8.76716000 0.994300 123.36 0.106590 33.384 0.106590 33.384 0.994300 123.40
8.76718000 0.994300 123.36 0.106591 33.384 0.106591 33.384 0.994300 123.40
8.76720000 0.994300 123.36 0.106592 33.384 0.106592 33.384 0.994300 123.40
8.76722000 0.994300 123.36 0.106592 33.384 0.106592 33.384 0.994300 123.40
8.76724000 0.994299 123.36 0.106593 33.384 0.106593 33.384 0.994299 123.40
8.76726000 0.994299 123.36 0.106594 33.383 0.106594 33.383 0.994299 123.40
8.76728000 0.994299 123.36 0.106595 33.383 0.106595 33.383 0.994299 123.40
8.76730000 0.994299 123.36 0.106596 33.383 0.106596 33.383 0.994299 123.40
8.76732000 0.994299 123.36 0.106597 33.383 0.106597 33.383 0.994299 123.40
8.76734000 0.994299 123.36 0.106597 33.383 0.106597 33.383 0.994299 123.40
8.76736000 0.994299 123.36 0.106598 33.383 0.106598 33.383 0.994299 123.40
8.76738000 0.994299 123.36 0.106599 33.383 0.106599 33.383 0.994299 123.40
8.76740000 0.994299 123.36 0.106600 33.382 0.106600 33.382 0.994299 123.40
8.76742000 0.994299 123.36 0.106601 33.382 0.106601 33.382 0.994299 123.40
8.76744000 0.994299 123.36 0.106602 33.382 0.106602 33.382 0.994299 123.40
8.76746000 0.994298 123.36 0.106602 33.382 0.106602 33.382 0.994298 123.40
8.76748000 0.994298 123.36 0.106603 33.382 0.106603 33.382 0.994298 123.40
8.76750000 0.994298 123.36 0.106604 33.382 0.106604 33.382 0.994298 123.40
8.76752000 0.994298 123.36 0.106605 33.381 0.106605 33.381 0.994298 123.40
8.76754000 0.994298 123.36 0.106606 33.381 0.106606 33.381 0.994298 123.40
8.76756000 0.994298 123.36 0.106607 33.381 0.106607 33.381 0.994298 123.40
8.76758000 0.994298 123.36 0.106608 33.381 0.106608 33.381 0.994298 123.40
8.76760000 0.994298 123.36 0.106608 33.381 0.106608 33.381 0.994298 123.40
8.76762000 0.994298 123.36 0.106609 33.381 0.106609 33.381 0.994298 123.40
8.76764000 0.994298 123.36 0.106610 33.380 0.106610 33.380 0.994298 123.40
8.76766000 0.994298 123.36 0.106611 33.380 0.106611 33.380 0.994298 123.40
8.76768000 0.994297 123.36 0.106612 33.380 0.106612 33.380 0.994297 123.40
8.76770000 0.994297 123.36 0.106613 33.380 0.106613 33.380 0.994297 123.40
8.76772000 0.994297 123.36 0.106613 33.380 0.106613 33.380 0.994297 123.40
8.76774000 0.994297 123.36 0.106614 33.380 0.106614 33.380 0.994297 123.40
8.76776000 0.994297 123.36 0.106615 33.379 0.106615 33.379 0.994297 123.40
8.76778000 0.994297 123.36 0.106616 33.379 0.106616 33.379 0.994297 123.40
8.76780000 0.994297 123.36 0.106617 33.379 0.106617 33.379 0.994297 123.40
8.76782000 0.994297 123.36 0.106618 33.379 0.106618 33.379 0.994297 123.40