! Sonnet Data File
! From: emgraph Version : 16.52
! From Project: Qubit_Xmon2_brg_para2
! Data is De-embedded 
! Data File Written: 11/12/2017 19:07:08
!< HDATE 11/12/2017 17:14:45
!< MDATE 11/12/2017 17:15:37
!< PARAMS
!< Lj = 11.0
!< Gap = 6.0
!< Pwid = 2000.0
!< Airgap = 6.0
!< Width = 10.0
!< Bwid = 8.0
!< Dis1 = 150.0
!< Dis2 = 156.0
!< END PARAMS
# GHZ S MA R 34.65000
8.68500000 0.974525 99.483 0.224216 9.3711 0.224216 9.3711 0.974525 99.262
!< P1 F=8.685 Eeff=(5.13531798 -5.6615e-5) Z0=(34.6525852 -9.396e-5) R=0.0 C=0.0 
!< P2 F=8.685 Eeff=(5.13531798 -5.6615e-5) Z0=(34.6525852 -9.396e-5) R=0.0 C=0.0 
8.68500500 0.974524 99.483 0.224219 9.3709 0.224219 9.3709 0.974524 99.262
8.68501000 0.974523 99.483 0.224222 9.3707 0.224222 9.3707 0.974523 99.262
8.68501500 0.974523 99.483 0.224224 9.3705 0.224224 9.3705 0.974523 99.261
8.68502000 0.974522 99.483 0.224227 9.3703 0.224227 9.3703 0.974522 99.261
8.68502500 0.974522 99.482 0.224230 9.3701 0.224230 9.3701 0.974521 99.261
8.68503000 0.974521 99.482 0.224232 9.3699 0.224232 9.3699 0.974521 99.261
8.68503500 0.974520 99.482 0.224235 9.3697 0.224235 9.3697 0.974520 99.261
8.68504000 0.974520 99.482 0.224238 9.3695 0.224238 9.3695 0.974520 99.260
8.68504500 0.974519 99.482 0.224240 9.3693 0.224240 9.3693 0.974519 99.260
8.68505000 0.974518 99.481 0.224243 9.3691 0.224243 9.3691 0.974518 99.260
8.68505500 0.974518 99.481 0.224246 9.3689 0.224246 9.3689 0.974518 99.260
8.68506000 0.974517 99.481 0.224248 9.3687 0.224248 9.3687 0.974517 99.260
8.68506500 0.974517 99.481 0.224251 9.3685 0.224251 9.3685 0.974516 99.259
8.68507000 0.974516 99.481 0.224254 9.3683 0.224254 9.3683 0.974516 99.259
8.68507500 0.974515 99.480 0.224256 9.3681 0.224256 9.3681 0.974515 99.259
8.68508000 0.974515 99.480 0.224259 9.3679 0.224259 9.3679 0.974515 99.259
8.68508500 0.974514 99.480 0.224262 9.3677 0.224262 9.3677 0.974514 99.259
8.68509000 0.974513 99.480 0.224264 9.3675 0.224264 9.3675 0.974513 99.258
8.68509500 0.974513 99.480 0.224267 9.3673 0.224267 9.3673 0.974513 99.258
8.68510000 0.974512 99.479 0.224270 9.3671 0.224270 9.3671 0.974512 99.258
8.68510500 0.974512 99.479 0.224272 9.3669 0.224272 9.3669 0.974511 99.258
8.68511000 0.974511 99.479 0.224275 9.3667 0.224275 9.3667 0.974511 99.258
8.68511500 0.974510 99.479 0.224278 9.3665 0.224278 9.3665 0.974510 99.257
8.68512000 0.974510 99.479 0.224280 9.3663 0.224280 9.3663 0.974510 99.257
8.68512500 0.974509 99.478 0.224283 9.3661 0.224283 9.3661 0.974509 99.257
8.68513000 0.974508 99.478 0.224286 9.3659 0.224286 9.3659 0.974508 99.257
8.68513500 0.974508 99.478 0.224289 9.3657 0.224289 9.3657 0.974508 99.257
8.68514000 0.974507 99.478 0.224291 9.3655 0.224291 9.3655 0.974507 99.256
8.68514500 0.974506 99.478 0.224294 9.3653 0.224294 9.3653 0.974506 99.256
8.68515000 0.974506 99.477 0.224297 9.3651 0.224297 9.3651 0.974506 99.256
8.68515500 0.974505 99.477 0.224300 9.3649 0.224300 9.3649 0.974505 99.256
8.68516000 0.974505 99.477 0.224302 9.3647 0.224302 9.3647 0.974504 99.256
8.68516500 0.974504 99.477 0.224305 9.3645 0.224305 9.3645 0.974504 99.255
8.68517000 0.974503 99.477 0.224308 9.3643 0.224308 9.3643 0.974503 99.255
8.68517500 0.974503 99.476 0.224310 9.3641 0.224310 9.3641 0.974503 99.255
8.68518000 0.974502 99.476 0.224313 9.3639 0.224313 9.3639 0.974502 99.255
8.68518500 0.974501 99.476 0.224316 9.3637 0.224316 9.3637 0.974501 99.255
8.68519000 0.974501 99.476 0.224319 9.3635 0.224319 9.3635 0.974501 99.254
8.68519500 0.974500 99.476 0.224321 9.3633 0.224321 9.3633 0.974500 99.254
8.68520000 0.974499 99.475 0.224324 9.3631 0.224324 9.3631 0.974499 99.254
8.68520500 0.974499 99.475 0.224327 9.3629 0.224327 9.3629 0.974499 99.254
8.68521000 0.974498 99.475 0.224330 9.3627 0.224330 9.3627 0.974498 99.254
8.68521500 0.974497 99.475 0.224332 9.3625 0.224332 9.3625 0.974497 99.253
8.68522000 0.974497 99.475 0.224335 9.3623 0.224335 9.3623 0.974497 99.253
8.68522500 0.974496 99.474 0.224338 9.3621 0.224338 9.3621 0.974496 99.253
8.68523000 0.974496 99.474 0.224341 9.3619 0.224341 9.3619 0.974495 99.253
8.68523500 0.974495 99.474 0.224344 9.3617 0.224344 9.3617 0.974495 99.253
8.68524000 0.974494 99.474 0.224346 9.3614 0.224346 9.3614 0.974494 99.252
8.68524500 0.974494 99.474 0.224349 9.3612 0.224349 9.3612 0.974493 99.252
8.68525000 0.974493 99.473 0.224352 9.3610 0.224352 9.3610 0.974493 99.252
8.68525500 0.974492 99.473 0.224355 9.3608 0.224355 9.3608 0.974492 99.252
8.68526000 0.974492 99.473 0.224358 9.3606 0.224358 9.3606 0.974491 99.252
8.68526500 0.974491 99.473 0.224360 9.3604 0.224360 9.3604 0.974491 99.251
8.68527000 0.974490 99.473 0.224363 9.3602 0.224363 9.3602 0.974490 99.251
8.68527500 0.974490 99.472 0.224366 9.3600 0.224366 9.3600 0.974490 99.251
8.68528000 0.974489 99.472 0.224369 9.3598 0.224369 9.3598 0.974489 99.251
8.68528500 0.974488 99.472 0.224372 9.3596 0.224372 9.3596 0.974488 99.251
8.68529000 0.974488 99.472 0.224374 9.3594 0.224374 9.3594 0.974488 99.250
8.68529500 0.974487 99.472 0.224377 9.3592 0.224377 9.3592 0.974487 99.250
8.68530000 0.974486 99.471 0.224380 9.3590 0.224380 9.3590 0.974486 99.250
8.68530500 0.974486 99.471 0.224383 9.3588 0.224383 9.3588 0.974486 99.250
8.68531000 0.974485 99.471 0.224386 9.3585 0.224386 9.3585 0.974485 99.250
8.68531500 0.974484 99.471 0.224388 9.3583 0.224388 9.3583 0.974484 99.249
8.68532000 0.974484 99.471 0.224391 9.3581 0.224391 9.3581 0.974484 99.249
8.68532500 0.974483 99.470 0.224394 9.3579 0.224394 9.3579 0.974483 99.249
8.68533000 0.974482 99.470 0.224397 9.3577 0.224397 9.3577 0.974482 99.249
8.68533500 0.974482 99.470 0.224400 9.3575 0.224400 9.3575 0.974482 99.248
8.68534000 0.974481 99.470 0.224403 9.3573 0.224403 9.3573 0.974481 99.248
8.68534500 0.974480 99.470 0.224406 9.3571 0.224406 9.3571 0.974480 99.248
8.68535000 0.974480 99.469 0.224408 9.3569 0.224408 9.3569 0.974480 99.248
8.68535500 0.974479 99.469 0.224411 9.3567 0.224411 9.3567 0.974479 99.248
8.68536000 0.974478 99.469 0.224414 9.3564 0.224414 9.3564 0.974478 99.247
8.68536500 0.974478 99.469 0.224417 9.3562 0.224417 9.3562 0.974478 99.247
8.68537000 0.974477 99.469 0.224420 9.3560 0.224420 9.3560 0.974477 99.247
8.68537500 0.974476 99.468 0.224423 9.3558 0.224423 9.3558 0.974476 99.247
8.68538000 0.974476 99.468 0.224426 9.3556 0.224426 9.3556 0.974475 99.247
8.68538500 0.974475 99.468 0.224428 9.3554 0.224428 9.3554 0.974475 99.246
8.68539000 0.974474 99.468 0.224431 9.3552 0.224431 9.3552 0.974474 99.246
8.68539500 0.974474 99.467 0.224434 9.3550 0.224434 9.3550 0.974473 99.246
8.68540000 0.974473 99.467 0.224437 9.3548 0.224437 9.3548 0.974473 99.246
8.68540500 0.974472 99.467 0.224440 9.3545 0.224440 9.3545 0.974472 99.246
8.68541000 0.974472 99.467 0.224443 9.3543 0.224443 9.3543 0.974471 99.245
8.68541500 0.974471 99.467 0.224446 9.3541 0.224446 9.3541 0.974471 99.245
8.68542000 0.974470 99.466 0.224449 9.3539 0.224449 9.3539 0.974470 99.245
8.68542500 0.974469 99.466 0.224452 9.3537 0.224452 9.3537 0.974469 99.245
8.68543000 0.974469 99.466 0.224455 9.3535 0.224455 9.3535 0.974469 99.245
8.68543500 0.974468 99.466 0.224457 9.3533 0.224457 9.3533 0.974468 99.244
8.68544000 0.974467 99.466 0.224460 9.3531 0.224460 9.3531 0.974467 99.244
8.68544500 0.974467 99.465 0.224463 9.3528 0.224463 9.3528 0.974467 99.244
8.68545000 0.974466 99.465 0.224466 9.3526 0.224466 9.3526 0.974466 99.244
8.68545500 0.974465 99.465 0.224469 9.3524 0.224469 9.3524 0.974465 99.243
8.68546000 0.974465 99.465 0.224472 9.3522 0.224472 9.3522 0.974465 99.243
8.68546500 0.974464 99.465 0.224475 9.3520 0.224475 9.3520 0.974464 99.243
8.68547000 0.974463 99.464 0.224478 9.3518 0.224478 9.3518 0.974463 99.243
8.68547500 0.974463 99.464 0.224481 9.3516 0.224481 9.3516 0.974462 99.243
8.68548000 0.974462 99.464 0.224484 9.3513 0.224484 9.3513 0.974462 99.242
8.68548500 0.974461 99.464 0.224487 9.3511 0.224487 9.3511 0.974461 99.242
8.68549000 0.974461 99.464 0.224490 9.3509 0.224490 9.3509 0.974460 99.242
8.68549500 0.974460 99.463 0.224493 9.3507 0.224493 9.3507 0.974460 99.242
8.68550000 0.974459 99.463 0.224496 9.3505 0.224496 9.3505 0.974459 99.242
8.68550500 0.974458 99.463 0.224499 9.3503 0.224499 9.3503 0.974458 99.241
8.68551000 0.974458 99.463 0.224502 9.3500 0.224502 9.3500 0.974458 99.241
8.68551500 0.974457 99.462 0.224505 9.3498 0.224505 9.3498 0.974457 99.241
8.68552000 0.974456 99.462 0.224508 9.3496 0.224508 9.3496 0.974456 99.241
8.68552500 0.974456 99.462 0.224511 9.3494 0.224511 9.3494 0.974456 99.240
8.68553000 0.974455 99.462 0.224513 9.3492 0.224513 9.3492 0.974455 99.240
8.68553500 0.974454 99.462 0.224516 9.3489 0.224516 9.3489 0.974454 99.240
8.68554000 0.974454 99.461 0.224519 9.3487 0.224519 9.3487 0.974453 99.240
8.68554500 0.974453 99.461 0.224522 9.3485 0.224522 9.3485 0.974453 99.240
8.68555000 0.974452 99.461 0.224525 9.3483 0.224525 9.3483 0.974452 99.239
8.68555500 0.974451 99.461 0.224528 9.3481 0.224528 9.3481 0.974451 99.239
8.68556000 0.974451 99.461 0.224531 9.3479 0.224531 9.3479 0.974451 99.239
8.68556500 0.974450 99.460 0.224534 9.3476 0.224534 9.3476 0.974450 99.239
8.68557000 0.974449 99.460 0.224537 9.3474 0.224537 9.3474 0.974449 99.239
8.68557500 0.974449 99.460 0.224540 9.3472 0.224540 9.3472 0.974448 99.238
8.68558000 0.974448 99.460 0.224544 9.3470 0.224544 9.3470 0.974448 99.238
8.68558500 0.974447 99.459 0.224547 9.3468 0.224547 9.3468 0.974447 99.238
8.68559000 0.974446 99.459 0.224550 9.3465 0.224550 9.3465 0.974446 99.238
8.68559500 0.974446 99.459 0.224553 9.3463 0.224553 9.3463 0.974446 99.237
8.68560000 0.974445 99.459 0.224556 9.3461 0.224556 9.3461 0.974445 99.237
8.68560500 0.974444 99.459 0.224559 9.3459 0.224559 9.3459 0.974444 99.237
8.68561000 0.974444 99.458 0.224562 9.3457 0.224562 9.3457 0.974443 99.237
8.68561500 0.974443 99.458 0.224565 9.3454 0.224565 9.3454 0.974443 99.237
8.68562000 0.974442 99.458 0.224568 9.3452 0.224568 9.3452 0.974442 99.236
8.68562500 0.974441 99.458 0.224571 9.3450 0.224571 9.3450 0.974441 99.236
8.68563000 0.974441 99.457 0.224574 9.3448 0.224574 9.3448 0.974441 99.236
8.68563500 0.974440 99.457 0.224577 9.3445 0.224577 9.3445 0.974440 99.236
8.68564000 0.974439 99.457 0.224580 9.3443 0.224580 9.3443 0.974439 99.235
8.68564500 0.974439 99.457 0.224583 9.3441 0.224583 9.3441 0.974438 99.235
8.68565000 0.974438 99.457 0.224586 9.3439 0.224586 9.3439 0.974438 99.235
8.68565500 0.974437 99.456 0.224589 9.3436 0.224589 9.3436 0.974437 99.235
8.68566000 0.974436 99.456 0.224592 9.3434 0.224592 9.3434 0.974436 99.235
8.68566500 0.974436 99.456 0.224595 9.3432 0.224595 9.3432 0.974436 99.234
8.68567000 0.974435 99.456 0.224599 9.3430 0.224599 9.3430 0.974435 99.234
8.68567500 0.974434 99.456 0.224602 9.3428 0.224602 9.3428 0.974434 99.234
8.68568000 0.974433 99.455 0.224605 9.3425 0.224605 9.3425 0.974433 99.234
8.68568500 0.974433 99.455 0.224608 9.3423 0.224608 9.3423 0.974433 99.233
8.68569000 0.974432 99.455 0.224611 9.3421 0.224611 9.3421 0.974432 99.233
8.68569500 0.974431 99.455 0.224614 9.3419 0.224614 9.3419 0.974431 99.233
8.68570000 0.974431 99.454 0.224617 9.3416 0.224617 9.3416 0.974430 99.233
8.68570500 0.974430 99.454 0.224620 9.3414 0.224620 9.3414 0.974430 99.233
8.68571000 0.974429 99.454 0.224623 9.3412 0.224623 9.3412 0.974429 99.232
8.68571500 0.974428 99.454 0.224626 9.3409 0.224626 9.3409 0.974428 99.232
8.68572000 0.974428 99.454 0.224630 9.3407 0.224630 9.3407 0.974427 99.232
8.68572500 0.974427 99.453 0.224633 9.3405 0.224633 9.3405 0.974427 99.232
8.68573000 0.974426 99.453 0.224636 9.3403 0.224636 9.3403 0.974426 99.231
8.68573500 0.974425 99.453 0.224639 9.3400 0.224639 9.3400 0.974425 99.231
8.68574000 0.974425 99.453 0.224642 9.3398 0.224642 9.3398 0.974425 99.231
8.68574500 0.974424 99.452 0.224645 9.3396 0.224645 9.3396 0.974424 99.231
8.68575000 0.974423 99.452 0.224648 9.3394 0.224648 9.3394 0.974423 99.231
8.68575500 0.974422 99.452 0.224652 9.3391 0.224652 9.3391 0.974422 99.230
8.68576000 0.974422 99.452 0.224655 9.3389 0.224655 9.3389 0.974422 99.230
8.68576500 0.974421 99.452 0.224658 9.3387 0.224658 9.3387 0.974421 99.230
8.68577000 0.974420 99.451 0.224661 9.3384 0.224661 9.3384 0.974420 99.230
8.68577500 0.974419 99.451 0.224664 9.3382 0.224664 9.3382 0.974419 99.229
8.68578000 0.974419 99.451 0.224667 9.3380 0.224667 9.3380 0.974419 99.229
8.68578500 0.974418 99.451 0.224671 9.3378 0.224671 9.3378 0.974418 99.229
8.68579000 0.974417 99.450 0.224674 9.3375 0.224674 9.3375 0.974417 99.229
8.68579500 0.974416 99.450 0.224677 9.3373 0.224677 9.3373 0.974416 99.229
8.68580000 0.974416 99.450 0.224680 9.3371 0.224680 9.3371 0.974416 99.228
8.68580500 0.974415 99.450 0.224683 9.3368 0.224683 9.3368 0.974415 99.228
8.68581000 0.974414 99.449 0.224687 9.3366 0.224687 9.3366 0.974414 99.228
8.68581500 0.974413 99.449 0.224690 9.3364 0.224690 9.3364 0.974413 99.228
8.68582000 0.974413 99.449 0.224693 9.3361 0.224693 9.3361 0.974413 99.227
8.68582500 0.974412 99.449 0.224696 9.3359 0.224696 9.3359 0.974412 99.227
8.68583000 0.974411 99.449 0.224699 9.3357 0.224699 9.3357 0.974411 99.227
8.68583500 0.974410 99.448 0.224703 9.3354 0.224703 9.3354 0.974410 99.227
8.68584000 0.974410 99.448 0.224706 9.3352 0.224706 9.3352 0.974410 99.226
8.68584500 0.974409 99.448 0.224709 9.3350 0.224709 9.3350 0.974409 99.226
8.68585000 0.974408 99.448 0.224712 9.3347 0.224712 9.3347 0.974408 99.226
8.68585500 0.974407 99.447 0.224716 9.3345 0.224716 9.3345 0.974407 99.226
8.68586000 0.974407 99.447 0.224719 9.3343 0.224719 9.3343 0.974406 99.226
8.68586500 0.974406 99.447 0.224722 9.3340 0.224722 9.3340 0.974406 99.225
8.68587000 0.974405 99.447 0.224725 9.3338 0.224725 9.3338 0.974405 99.225
8.68587500 0.974404 99.447 0.224729 9.3336 0.224729 9.3336 0.974404 99.225
8.68588000 0.974404 99.446 0.224732 9.3333 0.224732 9.3333 0.974403 99.225
8.68588500 0.974403 99.446 0.224735 9.3331 0.224735 9.3331 0.974403 99.224
8.68589000 0.974402 99.446 0.224738 9.3329 0.224738 9.3329 0.974402 99.224
8.68589500 0.974401 99.446 0.224742 9.3326 0.224742 9.3326 0.974401 99.224
8.68590000 0.974400 99.445 0.224745 9.3324 0.224745 9.3324 0.974400 99.224
8.68590500 0.974400 99.445 0.224748 9.3322 0.224748 9.3322 0.974400 99.223
8.68591000 0.974399 99.445 0.224751 9.3319 0.224751 9.3319 0.974399 99.223
8.68591500 0.974398 99.445 0.224755 9.3317 0.224755 9.3317 0.974398 99.223
8.68592000 0.974397 99.444 0.224758 9.3315 0.224758 9.3315 0.974397 99.223
8.68592500 0.974397 99.444 0.224761 9.3312 0.224761 9.3312 0.974396 99.223
8.68593000 0.974396 99.444 0.224765 9.3310 0.224765 9.3310 0.974396 99.222
8.68593500 0.974395 99.444 0.224768 9.3307 0.224768 9.3307 0.974395 99.222
8.68594000 0.974394 99.444 0.224771 9.3305 0.224771 9.3305 0.974394 99.222
8.68594500 0.974393 99.443 0.224775 9.3303 0.224775 9.3303 0.974393 99.222
8.68595000 0.974393 99.443 0.224778 9.3300 0.224778 9.3300 0.974393 99.221
8.68595500 0.974392 99.443 0.224781 9.3298 0.224781 9.3298 0.974392 99.221
8.68596000 0.974391 99.443 0.224784 9.3296 0.224784 9.3296 0.974391 99.221
8.68596500 0.974390 99.442 0.224788 9.3293 0.224788 9.3293 0.974390 99.221
8.68597000 0.974390 99.442 0.224791 9.3291 0.224791 9.3291 0.974389 99.220
8.68597500 0.974389 99.442 0.224794 9.3288 0.224794 9.3288 0.974389 99.220
8.68598000 0.974388 99.442 0.224798 9.3286 0.224798 9.3286 0.974388 99.220
8.68598500 0.974387 99.441 0.224801 9.3284 0.224801 9.3284 0.974387 99.220
8.68599000 0.974386 99.441 0.224805 9.3281 0.224805 9.3281 0.974386 99.219
8.68599500 0.974386 99.441 0.224808 9.3279 0.224808 9.3279 0.974385 99.219
8.68600000 0.974385 99.441 0.224811 9.3276 0.224811 9.3276 0.974385 99.219
8.68600500 0.974384 99.440 0.224815 9.3274 0.224815 9.3274 0.974384 99.219
8.68601000 0.974383 99.440 0.224818 9.3272 0.224818 9.3272 0.974383 99.219
8.68601500 0.974382 99.440 0.224821 9.3269 0.224821 9.3269 0.974382 99.218
8.68602000 0.974382 99.440 0.224825 9.3267 0.224825 9.3267 0.974382 99.218
8.68602500 0.974381 99.440 0.224828 9.3264 0.224828 9.3264 0.974381 99.218
8.68603000 0.974380 99.439 0.224832 9.3262 0.224832 9.3262 0.974380 99.218
8.68603500 0.974379 99.439 0.224835 9.3259 0.224835 9.3259 0.974379 99.217
8.68604000 0.974378 99.439 0.224838 9.3257 0.224838 9.3257 0.974378 99.217
8.68604500 0.974378 99.439 0.224842 9.3255 0.224842 9.3255 0.974378 99.217
8.68605000 0.974377 99.438 0.224845 9.3252 0.224845 9.3252 0.974377 99.217
8.68605500 0.974376 99.438 0.224849 9.3250 0.224849 9.3250 0.974376 99.216
8.68606000 0.974375 99.438 0.224852 9.3247 0.224852 9.3247 0.974375 99.216
8.68606500 0.974374 99.438 0.224855 9.3245 0.224855 9.3245 0.974374 99.216
8.68607000 0.974374 99.437 0.224859 9.3242 0.224859 9.3242 0.974373 99.216
8.68607500 0.974373 99.437 0.224862 9.3240 0.224862 9.3240 0.974373 99.215
8.68608000 0.974372 99.437 0.224866 9.3237 0.224866 9.3237 0.974372 99.215
8.68608500 0.974371 99.437 0.224869 9.3235 0.224869 9.3235 0.974371 99.215
8.68609000 0.974370 99.436 0.224873 9.3233 0.224873 9.3233 0.974370 99.215
8.68609500 0.974370 99.436 0.224876 9.3230 0.224876 9.3230 0.974369 99.214
8.68610000 0.974369 99.436 0.224879 9.3228 0.224879 9.3228 0.974369 99.214
8.68610500 0.974368 99.436 0.224883 9.3225 0.224883 9.3225 0.974368 99.214
8.68611000 0.974367 99.435 0.224886 9.3223 0.224886 9.3223 0.974367 99.214
8.68611500 0.974366 99.435 0.224890 9.3220 0.224890 9.3220 0.974366 99.213
8.68612000 0.974365 99.435 0.224893 9.3218 0.224893 9.3218 0.974365 99.213
8.68612500 0.974365 99.435 0.224897 9.3215 0.224897 9.3215 0.974365 99.213
8.68613000 0.974364 99.434 0.224900 9.3213 0.224900 9.3213 0.974364 99.213
8.68613500 0.974363 99.434 0.224904 9.3210 0.224904 9.3210 0.974363 99.213
8.68614000 0.974362 99.434 0.224907 9.3208 0.224907 9.3208 0.974362 99.212
8.68614500 0.974361 99.434 0.224911 9.3205 0.224911 9.3205 0.974361 99.212
8.68615000 0.974361 99.434 0.224914 9.3203 0.224914 9.3203 0.974360 99.212
8.68615500 0.974360 99.433 0.224918 9.3200 0.224918 9.3200 0.974360 99.212
8.68616000 0.974359 99.433 0.224921 9.3198 0.224921 9.3198 0.974359 99.211
8.68616500 0.974358 99.433 0.224925 9.3195 0.224925 9.3195 0.974358 99.211
8.68617000 0.974357 99.433 0.224928 9.3193 0.224928 9.3193 0.974357 99.211
8.68617500 0.974356 99.432 0.224932 9.3190 0.224932 9.3190 0.974356 99.211
8.68618000 0.974356 99.432 0.224935 9.3188 0.224935 9.3188 0.974355 99.210
8.68618500 0.974355 99.432 0.224939 9.3185 0.224939 9.3185 0.974355 99.210
8.68619000 0.974354 99.432 0.224942 9.3183 0.224942 9.3183 0.974354 99.210
8.68619500 0.974353 99.431 0.224946 9.3180 0.224946 9.3180 0.974353 99.210
8.68620000 0.974352 99.431 0.224949 9.3178 0.224949 9.3178 0.974352 99.209
8.68620500 0.974351 99.431 0.224953 9.3175 0.224953 9.3175 0.974351 99.209
8.68621000 0.974351 99.431 0.224957 9.3173 0.224957 9.3173 0.974350 99.209
8.68621500 0.974350 99.430 0.224960 9.3170 0.224960 9.3170 0.974350 99.209
8.68622000 0.974349 99.430 0.224964 9.3168 0.224964 9.3168 0.974349 99.208
8.68622500 0.974348 99.430 0.224967 9.3165 0.224967 9.3165 0.974348 99.208
8.68623000 0.974347 99.430 0.224971 9.3163 0.224971 9.3163 0.974347 99.208
8.68623500 0.974346 99.429 0.224974 9.3160 0.224974 9.3160 0.974346 99.208
8.68624000 0.974345 99.429 0.224978 9.3157 0.224978 9.3157 0.974345 99.207
8.68624500 0.974345 99.429 0.224982 9.3155 0.224982 9.3155 0.974344 99.207
8.68625000 0.974344 99.429 0.224985 9.3152 0.224985 9.3152 0.974344 99.207
8.68625500 0.974343 99.428 0.224989 9.3150 0.224989 9.3150 0.974343 99.207
8.68626000 0.974342 99.428 0.224992 9.3147 0.224992 9.3147 0.974342 99.206
8.68626500 0.974341 99.428 0.224996 9.3145 0.224996 9.3145 0.974341 99.206
8.68627000 0.974340 99.428 0.225000 9.3142 0.225000 9.3142 0.974340 99.206
8.68627500 0.974340 99.427 0.225003 9.3140 0.225003 9.3140 0.974339 99.206
8.68628000 0.974339 99.427 0.225007 9.3137 0.225007 9.3137 0.974339 99.205
8.68628500 0.974338 99.427 0.225010 9.3134 0.225010 9.3134 0.974338 99.205
8.68629000 0.974337 99.427 0.225014 9.3132 0.225014 9.3132 0.974337 99.205
8.68629500 0.974336 99.426 0.225018 9.3129 0.225018 9.3129 0.974336 99.205
8.68630000 0.974335 99.426 0.225021 9.3127 0.225021 9.3127 0.974335 99.204
8.68630500 0.974334 99.426 0.225025 9.3124 0.225025 9.3124 0.974334 99.204
8.68631000 0.974333 99.426 0.225029 9.3122 0.225029 9.3122 0.974333 99.204
8.68631500 0.974333 99.425 0.225032 9.3119 0.225032 9.3119 0.974333 99.204
8.68632000 0.974332 99.425 0.225036 9.3116 0.225036 9.3116 0.974332 99.203
8.68632500 0.974331 99.425 0.225040 9.3114 0.225040 9.3114 0.974331 99.203
8.68633000 0.974330 99.425 0.225043 9.3111 0.225043 9.3111 0.974330 99.203
8.68633500 0.974329 99.424 0.225047 9.3109 0.225047 9.3109 0.974329 99.202
8.68634000 0.974328 99.424 0.225051 9.3106 0.225051 9.3106 0.974328 99.202
8.68634500 0.974327 99.424 0.225054 9.3103 0.225054 9.3103 0.974327 99.202
8.68635000 0.974327 99.424 0.225058 9.3101 0.225058 9.3101 0.974326 99.202
8.68635500 0.974326 99.423 0.225062 9.3098 0.225062 9.3098 0.974326 99.201
8.68636000 0.974325 99.423 0.225065 9.3096 0.225065 9.3096 0.974325 99.201
8.68636500 0.974324 99.423 0.225069 9.3093 0.225069 9.3093 0.974324 99.201
8.68637000 0.974323 99.423 0.225073 9.3090 0.225073 9.3090 0.974323 99.201
8.68637500 0.974322 99.422 0.225077 9.3088 0.225077 9.3088 0.974322 99.200
8.68638000 0.974321 99.422 0.225080 9.3085 0.225080 9.3085 0.974321 99.200
8.68638500 0.974320 99.422 0.225084 9.3082 0.225084 9.3082 0.974320 99.200
8.68639000 0.974320 99.421 0.225088 9.3080 0.225088 9.3080 0.974319 99.200
8.68639500 0.974319 99.421 0.225092 9.3077 0.225092 9.3077 0.974319 99.199
8.68640000 0.974318 99.421 0.225095 9.3074 0.225095 9.3074 0.974318 99.199
8.68640500 0.974317 99.421 0.225099 9.3072 0.225099 9.3072 0.974317 99.199
8.68641000 0.974316 99.420 0.225103 9.3069 0.225103 9.3069 0.974316 99.199
8.68641500 0.974315 99.420 0.225107 9.3067 0.225107 9.3067 0.974315 99.198
8.68642000 0.974314 99.420 0.225110 9.3064 0.225110 9.3064 0.974314 99.198
8.68642500 0.974313 99.420 0.225114 9.3061 0.225114 9.3061 0.974313 99.198
8.68643000 0.974312 99.419 0.225118 9.3059 0.225118 9.3059 0.974312 99.198
8.68643500 0.974312 99.419 0.225122 9.3056 0.225122 9.3056 0.974311 99.197
8.68644000 0.974311 99.419 0.225125 9.3053 0.225125 9.3053 0.974310 99.197
8.68644500 0.974310 99.419 0.225129 9.3051 0.225129 9.3051 0.974310 99.197
8.68645000 0.974309 99.418 0.225133 9.3048 0.225133 9.3048 0.974309 99.197
8.68645500 0.974308 99.418 0.225137 9.3045 0.225137 9.3045 0.974308 99.196
8.68646000 0.974307 99.418 0.225141 9.3043 0.225141 9.3043 0.974307 99.196
8.68646500 0.974306 99.418 0.225144 9.3040 0.225144 9.3040 0.974306 99.196
8.68647000 0.974305 99.417 0.225148 9.3037 0.225148 9.3037 0.974305 99.195
8.68647500 0.974304 99.417 0.225152 9.3034 0.225152 9.3034 0.974304 99.195
8.68648000 0.974303 99.417 0.225156 9.3032 0.225156 9.3032 0.974303 99.195
8.68648500 0.974303 99.417 0.225160 9.3029 0.225160 9.3029 0.974302 99.195
8.68649000 0.974302 99.416 0.225164 9.3026 0.225164 9.3026 0.974301 99.194
8.68649500 0.974301 99.416 0.225167 9.3024 0.225167 9.3024 0.974301 99.194
8.68650000 0.974300 99.416 0.225171 9.3021 0.225171 9.3021 0.974300 99.194
8.68650500 0.974299 99.415 0.225175 9.3018 0.225175 9.3018 0.974299 99.194
8.68651000 0.974298 99.415 0.225179 9.3016 0.225179 9.3016 0.974298 99.193
8.68651500 0.974297 99.415 0.225183 9.3013 0.225183 9.3013 0.974297 99.193
8.68652000 0.974296 99.415 0.225187 9.3010 0.225187 9.3010 0.974296 99.193
8.68652500 0.974295 99.414 0.225191 9.3007 0.225191 9.3007 0.974295 99.193
8.68653000 0.974294 99.414 0.225194 9.3005 0.225194 9.3005 0.974294 99.192
8.68653500 0.974293 99.414 0.225198 9.3002 0.225198 9.3002 0.974293 99.192
8.68654000 0.974292 99.414 0.225202 9.2999 0.225202 9.2999 0.974292 99.192
8.68654500 0.974292 99.413 0.225206 9.2996 0.225206 9.2996 0.974291 99.191
8.68655000 0.974291 99.413 0.225210 9.2994 0.225210 9.2994 0.974290 99.191
8.68655500 0.974290 99.413 0.225214 9.2991 0.225214 9.2991 0.974290 99.191
8.68656000 0.974289 99.413 0.225218 9.2988 0.225218 9.2988 0.974289 99.191
8.68656500 0.974288 99.412 0.225222 9.2985 0.225222 9.2985 0.974288 99.190
8.68657000 0.974287 99.412 0.225226 9.2983 0.225226 9.2983 0.974287 99.190
8.68657500 0.974286 99.412 0.225230 9.2980 0.225230 9.2980 0.974286 99.190
8.68658000 0.974285 99.411 0.225234 9.2977 0.225234 9.2977 0.974285 99.190
8.68658500 0.974284 99.411 0.225238 9.2974 0.225238 9.2974 0.974284 99.189
8.68659000 0.974283 99.411 0.225242 9.2972 0.225242 9.2972 0.974283 99.189
8.68659500 0.974282 99.411 0.225246 9.2969 0.225246 9.2969 0.974282 99.189
8.68660000 0.974281 99.410 0.225249 9.2966 0.225249 9.2966 0.974281 99.188
8.68660500 0.974280 99.410 0.225253 9.2963 0.225253 9.2963 0.974280 99.188
8.68661000 0.974279 99.410 0.225257 9.2961 0.225257 9.2961 0.974279 99.188
8.68661500 0.974278 99.410 0.225261 9.2958 0.225261 9.2958 0.974278 99.188
8.68662000 0.974277 99.409 0.225265 9.2955 0.225265 9.2955 0.974277 99.187
8.68662500 0.974277 99.409 0.225269 9.2952 0.225269 9.2952 0.974276 99.187
8.68663000 0.974276 99.409 0.225273 9.2949 0.225273 9.2949 0.974275 99.187
8.68663500 0.974275 99.408 0.225277 9.2947 0.225277 9.2947 0.974275 99.187
8.68664000 0.974274 99.408 0.225281 9.2944 0.225281 9.2944 0.974274 99.186
8.68664500 0.974273 99.408 0.225285 9.2941 0.225285 9.2941 0.974273 99.186
8.68665000 0.974272 99.408 0.225289 9.2938 0.225289 9.2938 0.974272 99.186
8.68665500 0.974271 99.407 0.225293 9.2935 0.225293 9.2935 0.974271 99.185
8.68666000 0.974270 99.407 0.225297 9.2933 0.225297 9.2933 0.974270 99.185
8.68666500 0.974269 99.407 0.225302 9.2930 0.225302 9.2930 0.974269 99.185
8.68667000 0.974268 99.407 0.225306 9.2927 0.225306 9.2927 0.974268 99.185
8.68667500 0.974267 99.406 0.225310 9.2924 0.225310 9.2924 0.974267 99.184
8.68668000 0.974266 99.406 0.225314 9.2921 0.225314 9.2921 0.974266 99.184
8.68668500 0.974265 99.406 0.225318 9.2918 0.225318 9.2918 0.974265 99.184
8.68669000 0.974264 99.405 0.225322 9.2916 0.225322 9.2916 0.974264 99.184
8.68669500 0.974263 99.405 0.225326 9.2913 0.225326 9.2913 0.974263 99.183
8.68670000 0.974262 99.405 0.225330 9.2910 0.225330 9.2910 0.974262 99.183
8.68670500 0.974261 99.405 0.225334 9.2907 0.225334 9.2907 0.974261 99.183
8.68671000 0.974260 99.404 0.225338 9.2904 0.225338 9.2904 0.974260 99.182
8.68671500 0.974259 99.404 0.225342 9.2901 0.225342 9.2901 0.974259 99.182
8.68672000 0.974258 99.404 0.225346 9.2898 0.225346 9.2898 0.974258 99.182
8.68672500 0.974257 99.403 0.225350 9.2896 0.225350 9.2896 0.974257 99.182
8.68673000 0.974256 99.403 0.225355 9.2893 0.225355 9.2893 0.974256 99.181
8.68673500 0.974255 99.403 0.225359 9.2890 0.225359 9.2890 0.974255 99.181
8.68674000 0.974254 99.403 0.225363 9.2887 0.225363 9.2887 0.974254 99.181
8.68674500 0.974253 99.402 0.225367 9.2884 0.225367 9.2884 0.974253 99.180
8.68675000 0.974252 99.402 0.225371 9.2881 0.225371 9.2881 0.974252 99.180
8.68675500 0.974251 99.402 0.225375 9.2878 0.225375 9.2878 0.974251 99.180
8.68676000 0.974250 99.402 0.225379 9.2875 0.225379 9.2875 0.974250 99.180
8.68676500 0.974249 99.401 0.225384 9.2872 0.225384 9.2872 0.974249 99.179
8.68677000 0.974249 99.401 0.225388 9.2870 0.225388 9.2870 0.974248 99.179
8.68677500 0.974248 99.401 0.225392 9.2867 0.225392 9.2867 0.974247 99.179
8.68678000 0.974247 99.400 0.225396 9.2864 0.225396 9.2864 0.974246 99.178
8.68678500 0.974246 99.400 0.225400 9.2861 0.225400 9.2861 0.974245 99.178
8.68679000 0.974245 99.400 0.225404 9.2858 0.225404 9.2858 0.974244 99.178
8.68679500 0.974244 99.400 0.225409 9.2855 0.225409 9.2855 0.974243 99.178
8.68680000 0.974243 99.399 0.225413 9.2852 0.225413 9.2852 0.974242 99.177
8.68680500 0.974242 99.399 0.225417 9.2849 0.225417 9.2849 0.974241 99.177
8.68681000 0.974241 99.399 0.225421 9.2846 0.225421 9.2846 0.974240 99.177
8.68681500 0.974240 99.398 0.225425 9.2843 0.225425 9.2843 0.974239 99.176
8.68682000 0.974239 99.398 0.225430 9.2840 0.225430 9.2840 0.974238 99.176
8.68682500 0.974238 99.398 0.225434 9.2837 0.225434 9.2837 0.974237 99.176
8.68683000 0.974237 99.398 0.225438 9.2835 0.225438 9.2835 0.974236 99.176
8.68683500 0.974236 99.397 0.225442 9.2832 0.225442 9.2832 0.974235 99.175
8.68684000 0.974235 99.397 0.225447 9.2829 0.225447 9.2829 0.974234 99.175
8.68684500 0.974234 99.397 0.225451 9.2826 0.225451 9.2826 0.974233 99.175
8.68685000 0.974233 99.396 0.225455 9.2823 0.225455 9.2823 0.974232 99.174
8.68685500 0.974231 99.396 0.225459 9.2820 0.225459 9.2820 0.974231 99.174
8.68686000 0.974230 99.396 0.225464 9.2817 0.225464 9.2817 0.974230 99.174
8.68686500 0.974229 99.396 0.225468 9.2814 0.225468 9.2814 0.974229 99.174
8.68687000 0.974228 99.395 0.225472 9.2811 0.225472 9.2811 0.974228 99.173
8.68687500 0.974227 99.395 0.225477 9.2808 0.225477 9.2808 0.974227 99.173
8.68688000 0.974226 99.395 0.225481 9.2805 0.225481 9.2805 0.974226 99.173
8.68688500 0.974225 99.394 0.225485 9.2802 0.225485 9.2802 0.974225 99.172
8.68689000 0.974224 99.394 0.225490 9.2799 0.225490 9.2799 0.974224 99.172
8.68689500 0.974223 99.394 0.225494 9.2796 0.225494 9.2796 0.974223 99.172
8.68690000 0.974222 99.393 0.225498 9.2793 0.225498 9.2793 0.974222 99.171
8.68690500 0.974221 99.393 0.225503 9.2790 0.225503 9.2790 0.974221 99.171
8.68691000 0.974220 99.393 0.225507 9.2787 0.225507 9.2787 0.974220 99.171
8.68691500 0.974219 99.393 0.225511 9.2784 0.225511 9.2784 0.974219 99.171
8.68692000 0.974218 99.392 0.225516 9.2781 0.225516 9.2781 0.974218 99.170
8.68692500 0.974217 99.392 0.225520 9.2778 0.225520 9.2778 0.974217 99.170
8.68693000 0.974216 99.392 0.225524 9.2775 0.225524 9.2775 0.974216 99.170
8.68693500 0.974215 99.391 0.225529 9.2772 0.225529 9.2772 0.974215 99.169
8.68694000 0.974214 99.391 0.225533 9.2769 0.225533 9.2769 0.974214 99.169
8.68694500 0.974213 99.391 0.225537 9.2766 0.225537 9.2766 0.974213 99.169
8.68695000 0.974212 99.391 0.225542 9.2763 0.225542 9.2763 0.974212 99.168
8.68695500 0.974211 99.390 0.225546 9.2760 0.225546 9.2760 0.974211 99.168