! Sonnet Data File
! From: emgraph Version : 16.52
! From Project: Qubit_Xmon2_brg
! Data is De-embedded 
! Data File Written: 10/24/2017 23:45:54
!< HDATE 10/24/2017 16:04:25
!< MDATE 10/24/2017 16:04:25
!< PARAMS
!< Lj = 11.0
!< Gap = 6.0
!< Pwid = 2000.0
!< Airgap = 6.0
!< Width = 10.0
!< Bwid = 8.0
!< Dis1 = 250.0
!< Dis2 = 256.0
!< END PARAMS
# GHZ S MA R 34.70000
8.68500000 0.981007 104.40 0.193916 14.217 0.193916 14.217 0.981007 104.03
!< P1 F=8.685 Eeff=(5.13559215 -5.6621e-5) Z0=(34.6542042 -9.3986e-5) R=0.0 C=0.0 
!< P2 F=8.685 Eeff=(5.13559215 -5.6621e-5) Z0=(34.6542042 -9.3986e-5) R=0.0 C=0.0 
8.68500500 0.981007 104.40 0.193918 14.217 0.193918 14.217 0.981007 104.03
8.68501000 0.981006 104.40 0.193920 14.217 0.193920 14.217 0.981006 104.03
8.68501500 0.981006 104.40 0.193921 14.216 0.193921 14.216 0.981006 104.03
8.68502000 0.981006 104.40 0.193923 14.216 0.193923 14.216 0.981005 104.03
8.68502500 0.981005 104.40 0.193925 14.216 0.193925 14.216 0.981005 104.03
8.68503000 0.981005 104.40 0.193927 14.216 0.193927 14.216 0.981005 104.03
8.68503500 0.981005 104.40 0.193929 14.216 0.193929 14.216 0.981004 104.03
8.68504000 0.981004 104.40 0.193931 14.216 0.193931 14.216 0.981004 104.03
8.68504500 0.981004 104.40 0.193933 14.215 0.193933 14.215 0.981004 104.03
8.68505000 0.981003 104.40 0.193934 14.215 0.193934 14.215 0.981003 104.03
8.68505500 0.981003 104.40 0.193936 14.215 0.193936 14.215 0.981003 104.03
8.68506000 0.981003 104.40 0.193938 14.215 0.193938 14.215 0.981002 104.03
8.68506500 0.981002 104.40 0.193940 14.215 0.193940 14.215 0.981002 104.03
8.68507000 0.981002 104.40 0.193942 14.215 0.193942 14.215 0.981002 104.03
8.68507500 0.981002 104.40 0.193944 14.215 0.193944 14.215 0.981001 104.03
8.68508000 0.981001 104.40 0.193945 14.214 0.193945 14.214 0.981001 104.03
8.68508500 0.981001 104.40 0.193947 14.214 0.193947 14.214 0.981001 104.03
8.68509000 0.981000 104.40 0.193949 14.214 0.193949 14.214 0.981000 104.03
8.68509500 0.981000 104.40 0.193951 14.214 0.193951 14.214 0.981000 104.03
8.68510000 0.981000 104.40 0.193953 14.214 0.193953 14.214 0.980999 104.03
8.68510500 0.980999 104.40 0.193955 14.214 0.193955 14.214 0.980999 104.03
8.68511000 0.980999 104.40 0.193957 14.214 0.193957 14.214 0.980999 104.03
8.68511500 0.980999 104.40 0.193958 14.213 0.193958 14.213 0.980998 104.03
8.68512000 0.980998 104.40 0.193960 14.213 0.193960 14.213 0.980998 104.03
8.68512500 0.980998 104.40 0.193962 14.213 0.193962 14.213 0.980998 104.03
8.68513000 0.980997 104.40 0.193964 14.213 0.193964 14.213 0.980997 104.03
8.68513500 0.980997 104.40 0.193966 14.213 0.193966 14.213 0.980997 104.03
8.68514000 0.980997 104.40 0.193968 14.213 0.193968 14.213 0.980996 104.03
8.68514500 0.980996 104.40 0.193970 14.213 0.193970 14.213 0.980996 104.03
8.68515000 0.980996 104.40 0.193972 14.212 0.193972 14.212 0.980996 104.03
8.68515500 0.980996 104.40 0.193973 14.212 0.193973 14.212 0.980995 104.03
8.68516000 0.980995 104.40 0.193975 14.212 0.193975 14.212 0.980995 104.03
8.68516500 0.980995 104.40 0.193977 14.212 0.193977 14.212 0.980995 104.03
8.68517000 0.980994 104.40 0.193979 14.212 0.193979 14.212 0.980994 104.03
8.68517500 0.980994 104.40 0.193981 14.212 0.193981 14.212 0.980994 104.03
8.68518000 0.980994 104.40 0.193983 14.211 0.193983 14.211 0.980993 104.03
8.68518500 0.980993 104.40 0.193985 14.211 0.193985 14.211 0.980993 104.03
8.68519000 0.980993 104.39 0.193987 14.211 0.193987 14.211 0.980993 104.03
8.68519500 0.980993 104.39 0.193989 14.211 0.193989 14.211 0.980992 104.03
8.68520000 0.980992 104.39 0.193991 14.211 0.193991 14.211 0.980992 104.03
8.68520500 0.980992 104.39 0.193992 14.211 0.193992 14.211 0.980991 104.03
8.68521000 0.980991 104.39 0.193994 14.211 0.193994 14.211 0.980991 104.03
8.68521500 0.980991 104.39 0.193996 14.210 0.193996 14.210 0.980991 104.03
8.68522000 0.980991 104.39 0.193998 14.210 0.193998 14.210 0.980990 104.03
8.68522500 0.980990 104.39 0.194000 14.210 0.194000 14.210 0.980990 104.03
8.68523000 0.980990 104.39 0.194002 14.210 0.194002 14.210 0.980990 104.03
8.68523500 0.980989 104.39 0.194004 14.210 0.194004 14.210 0.980989 104.03
8.68524000 0.980989 104.39 0.194006 14.210 0.194006 14.210 0.980989 104.03
8.68524500 0.980989 104.39 0.194008 14.210 0.194008 14.210 0.980988 104.03
8.68525000 0.980988 104.39 0.194010 14.209 0.194010 14.209 0.980988 104.03
8.68525500 0.980988 104.39 0.194012 14.209 0.194012 14.209 0.980988 104.03
8.68526000 0.980987 104.39 0.194014 14.209 0.194014 14.209 0.980987 104.03
8.68526500 0.980987 104.39 0.194015 14.209 0.194015 14.209 0.980987 104.03
8.68527000 0.980987 104.39 0.194017 14.209 0.194017 14.209 0.980986 104.03
8.68527500 0.980986 104.39 0.194019 14.209 0.194019 14.209 0.980986 104.03
8.68528000 0.980986 104.39 0.194021 14.208 0.194021 14.208 0.980986 104.03
8.68528500 0.980986 104.39 0.194023 14.208 0.194023 14.208 0.980985 104.03
8.68529000 0.980985 104.39 0.194025 14.208 0.194025 14.208 0.980985 104.03
8.68529500 0.980985 104.39 0.194027 14.208 0.194027 14.208 0.980984 104.03
8.68530000 0.980984 104.39 0.194029 14.208 0.194029 14.208 0.980984 104.03
8.68530500 0.980984 104.39 0.194031 14.208 0.194031 14.208 0.980984 104.03
8.68531000 0.980984 104.39 0.194033 14.208 0.194033 14.208 0.980983 104.03
8.68531500 0.980983 104.39 0.194035 14.207 0.194035 14.207 0.980983 104.03
8.68532000 0.980983 104.39 0.194037 14.207 0.194037 14.207 0.980983 104.03
8.68532500 0.980982 104.39 0.194039 14.207 0.194039 14.207 0.980982 104.03
8.68533000 0.980982 104.39 0.194041 14.207 0.194041 14.207 0.980982 104.03
8.68533500 0.980982 104.39 0.194043 14.207 0.194043 14.207 0.980981 104.02
8.68534000 0.980981 104.39 0.194045 14.207 0.194045 14.207 0.980981 104.02
8.68534500 0.980981 104.39 0.194047 14.206 0.194047 14.206 0.980981 104.02
8.68535000 0.980980 104.39 0.194049 14.206 0.194049 14.206 0.980980 104.02
8.68535500 0.980980 104.39 0.194051 14.206 0.194051 14.206 0.980980 104.02
8.68536000 0.980980 104.39 0.194053 14.206 0.194053 14.206 0.980979 104.02
8.68536500 0.980979 104.39 0.194054 14.206 0.194054 14.206 0.980979 104.02
8.68537000 0.980979 104.39 0.194056 14.206 0.194056 14.206 0.980979 104.02
8.68537500 0.980978 104.39 0.194058 14.206 0.194058 14.206 0.980978 104.02
8.68538000 0.980978 104.39 0.194060 14.205 0.194060 14.205 0.980978 104.02
8.68538500 0.980978 104.39 0.194062 14.205 0.194062 14.205 0.980977 104.02
8.68539000 0.980977 104.39 0.194064 14.205 0.194064 14.205 0.980977 104.02
8.68539500 0.980977 104.39 0.194066 14.205 0.194066 14.205 0.980977 104.02
8.68540000 0.980976 104.39 0.194068 14.205 0.194068 14.205 0.980976 104.02
8.68540500 0.980976 104.39 0.194070 14.205 0.194070 14.205 0.980976 104.02
8.68541000 0.980976 104.39 0.194072 14.204 0.194072 14.204 0.980975 104.02
8.68541500 0.980975 104.39 0.194074 14.204 0.194074 14.204 0.980975 104.02
8.68542000 0.980975 104.39 0.194076 14.204 0.194076 14.204 0.980975 104.02
8.68542500 0.980974 104.39 0.194078 14.204 0.194078 14.204 0.980974 104.02
8.68543000 0.980974 104.39 0.194080 14.204 0.194080 14.204 0.980974 104.02
8.68543500 0.980974 104.39 0.194082 14.204 0.194082 14.204 0.980973 104.02
8.68544000 0.980973 104.39 0.194084 14.203 0.194084 14.203 0.980973 104.02
8.68544500 0.980973 104.39 0.194086 14.203 0.194086 14.203 0.980973 104.02
8.68545000 0.980972 104.39 0.194088 14.203 0.194088 14.203 0.980972 104.02
8.68545500 0.980972 104.39 0.194090 14.203 0.194090 14.203 0.980972 104.02
8.68546000 0.980972 104.39 0.194092 14.203 0.194092 14.203 0.980971 104.02
8.68546500 0.980971 104.39 0.194094 14.203 0.194094 14.203 0.980971 104.02
8.68547000 0.980971 104.39 0.194096 14.203 0.194096 14.203 0.980970 104.02
8.68547500 0.980970 104.39 0.194098 14.202 0.194098 14.202 0.980970 104.02
8.68548000 0.980970 104.39 0.194100 14.202 0.194100 14.202 0.980970 104.02
8.68548500 0.980970 104.39 0.194102 14.202 0.194102 14.202 0.980969 104.02
8.68549000 0.980969 104.39 0.194104 14.202 0.194104 14.202 0.980969 104.02
8.68549500 0.980969 104.39 0.194107 14.202 0.194107 14.202 0.980968 104.02
8.68550000 0.980968 104.39 0.194109 14.202 0.194109 14.202 0.980968 104.02
8.68550500 0.980968 104.39 0.194111 14.201 0.194111 14.201 0.980968 104.02
8.68551000 0.980967 104.39 0.194113 14.201 0.194113 14.201 0.980967 104.02
8.68551500 0.980967 104.39 0.194115 14.201 0.194115 14.201 0.980967 104.02
8.68552000 0.980967 104.39 0.194117 14.201 0.194117 14.201 0.980966 104.02
8.68552500 0.980966 104.38 0.194119 14.201 0.194119 14.201 0.980966 104.02
8.68553000 0.980966 104.38 0.194121 14.201 0.194121 14.201 0.980966 104.02
8.68553500 0.980965 104.38 0.194123 14.200 0.194123 14.200 0.980965 104.02
8.68554000 0.980965 104.38 0.194125 14.200 0.194125 14.200 0.980965 104.02
8.68554500 0.980965 104.38 0.194127 14.200 0.194127 14.200 0.980964 104.02
8.68555000 0.980964 104.38 0.194129 14.200 0.194129 14.200 0.980964 104.02
8.68555500 0.980964 104.38 0.194131 14.200 0.194131 14.200 0.980963 104.02
8.68556000 0.980963 104.38 0.194133 14.200 0.194133 14.200 0.980963 104.02
8.68556500 0.980963 104.38 0.194135 14.200 0.194135 14.200 0.980963 104.02
8.68557000 0.980962 104.38 0.194137 14.199 0.194137 14.199 0.980962 104.02
8.68557500 0.980962 104.38 0.194139 14.199 0.194139 14.199 0.980962 104.02
8.68558000 0.980962 104.38 0.194141 14.199 0.194141 14.199 0.980961 104.02
8.68558500 0.980961 104.38 0.194143 14.199 0.194143 14.199 0.980961 104.02
8.68559000 0.980961 104.38 0.194146 14.199 0.194146 14.199 0.980961 104.02
8.68559500 0.980960 104.38 0.194148 14.199 0.194148 14.199 0.980960 104.02
8.68560000 0.980960 104.38 0.194150 14.198 0.194150 14.198 0.980960 104.02
8.68560500 0.980960 104.38 0.194152 14.198 0.194152 14.198 0.980959 104.02
8.68561000 0.980959 104.38 0.194154 14.198 0.194154 14.198 0.980959 104.02
8.68561500 0.980959 104.38 0.194156 14.198 0.194156 14.198 0.980958 104.02
8.68562000 0.980958 104.38 0.194158 14.198 0.194158 14.198 0.980958 104.02
8.68562500 0.980958 104.38 0.194160 14.198 0.194160 14.198 0.980958 104.02
8.68563000 0.980957 104.38 0.194162 14.197 0.194162 14.197 0.980957 104.02
8.68563500 0.980957 104.38 0.194164 14.197 0.194164 14.197 0.980957 104.02
8.68564000 0.980957 104.38 0.194166 14.197 0.194166 14.197 0.980956 104.02
8.68564500 0.980956 104.38 0.194168 14.197 0.194168 14.197 0.980956 104.02
8.68565000 0.980956 104.38 0.194171 14.197 0.194171 14.197 0.980955 104.01
8.68565500 0.980955 104.38 0.194173 14.197 0.194173 14.197 0.980955 104.01
8.68566000 0.980955 104.38 0.194175 14.196 0.194175 14.196 0.980955 104.01
8.68566500 0.980954 104.38 0.194177 14.196 0.194177 14.196 0.980954 104.01
8.68567000 0.980954 104.38 0.194179 14.196 0.194179 14.196 0.980954 104.01
8.68567500 0.980954 104.38 0.194181 14.196 0.194181 14.196 0.980953 104.01
8.68568000 0.980953 104.38 0.194183 14.196 0.194183 14.196 0.980953 104.01
8.68568500 0.980953 104.38 0.194185 14.196 0.194185 14.196 0.980952 104.01
8.68569000 0.980952 104.38 0.194187 14.195 0.194187 14.195 0.980952 104.01
8.68569500 0.980952 104.38 0.194190 14.195 0.194190 14.195 0.980952 104.01
8.68570000 0.980951 104.38 0.194192 14.195 0.194192 14.195 0.980951 104.01
8.68570500 0.980951 104.38 0.194194 14.195 0.194194 14.195 0.980951 104.01
8.68571000 0.980951 104.38 0.194196 14.195 0.194196 14.195 0.980950 104.01
8.68571500 0.980950 104.38 0.194198 14.195 0.194198 14.195 0.980950 104.01
8.68572000 0.980950 104.38 0.194200 14.195 0.194200 14.195 0.980949 104.01
8.68572500 0.980949 104.38 0.194202 14.194 0.194202 14.194 0.980949 104.01
8.68573000 0.980949 104.38 0.194205 14.194 0.194205 14.194 0.980949 104.01
8.68573500 0.980948 104.38 0.194207 14.194 0.194207 14.194 0.980948 104.01
8.68574000 0.980948 104.38 0.194209 14.194 0.194209 14.194 0.980948 104.01
8.68574500 0.980948 104.38 0.194211 14.194 0.194211 14.194 0.980947 104.01
8.68575000 0.980947 104.38 0.194213 14.194 0.194213 14.194 0.980947 104.01
8.68575500 0.980947 104.38 0.194215 14.193 0.194215 14.193 0.980946 104.01
8.68576000 0.980946 104.38 0.194217 14.193 0.194217 14.193 0.980946 104.01
8.68576500 0.980946 104.38 0.194220 14.193 0.194220 14.193 0.980946 104.01
8.68577000 0.980945 104.38 0.194222 14.193 0.194222 14.193 0.980945 104.01
8.68577500 0.980945 104.38 0.194224 14.193 0.194224 14.193 0.980945 104.01
8.68578000 0.980945 104.38 0.194226 14.193 0.194226 14.193 0.980944 104.01
8.68578500 0.980944 104.38 0.194228 14.192 0.194228 14.192 0.980944 104.01
8.68579000 0.980944 104.38 0.194230 14.192 0.194230 14.192 0.980943 104.01
8.68579500 0.980943 104.38 0.194233 14.192 0.194233 14.192 0.980943 104.01
8.68580000 0.980943 104.38 0.194235 14.192 0.194235 14.192 0.980942 104.01
8.68580500 0.980942 104.38 0.194237 14.192 0.194237 14.192 0.980942 104.01
8.68581000 0.980942 104.38 0.194239 14.192 0.194239 14.192 0.980942 104.01
8.68581500 0.980941 104.38 0.194241 14.191 0.194241 14.191 0.980941 104.01
8.68582000 0.980941 104.38 0.194243 14.191 0.194243 14.191 0.980941 104.01
8.68582500 0.980941 104.38 0.194246 14.191 0.194246 14.191 0.980940 104.01
8.68583000 0.980940 104.38 0.194248 14.191 0.194248 14.191 0.980940 104.01
8.68583500 0.980940 104.38 0.194250 14.191 0.194250 14.191 0.980939 104.01
8.68584000 0.980939 104.37 0.194252 14.191 0.194252 14.191 0.980939 104.01
8.68584500 0.980939 104.37 0.194254 14.190 0.194254 14.190 0.980938 104.01
8.68585000 0.980938 104.37 0.194257 14.190 0.194257 14.190 0.980938 104.01
8.68585500 0.980938 104.37 0.194259 14.190 0.194259 14.190 0.980938 104.01
8.68586000 0.980937 104.37 0.194261 14.190 0.194261 14.190 0.980937 104.01
8.68586500 0.980937 104.37 0.194263 14.190 0.194263 14.190 0.980937 104.01
8.68587000 0.980937 104.37 0.194265 14.189 0.194265 14.189 0.980936 104.01
8.68587500 0.980936 104.37 0.194268 14.189 0.194268 14.189 0.980936 104.01
8.68588000 0.980936 104.37 0.194270 14.189 0.194270 14.189 0.980935 104.01
8.68588500 0.980935 104.37 0.194272 14.189 0.194272 14.189 0.980935 104.01
8.68589000 0.980935 104.37 0.194274 14.189 0.194274 14.189 0.980934 104.01
8.68589500 0.980934 104.37 0.194277 14.189 0.194277 14.189 0.980934 104.01
8.68590000 0.980934 104.37 0.194279 14.188 0.194279 14.188 0.980934 104.01
8.68590500 0.980933 104.37 0.194281 14.188 0.194281 14.188 0.980933 104.01
8.68591000 0.980933 104.37 0.194283 14.188 0.194283 14.188 0.980933 104.01
8.68591500 0.980932 104.37 0.194286 14.188 0.194286 14.188 0.980932 104.01
8.68592000 0.980932 104.37 0.194288 14.188 0.194288 14.188 0.980932 104.01
8.68592500 0.980932 104.37 0.194290 14.188 0.194290 14.188 0.980931 104.01
8.68593000 0.980931 104.37 0.194292 14.187 0.194292 14.187 0.980931 104.01
8.68593500 0.980931 104.37 0.194294 14.187 0.194294 14.187 0.980930 104.01
8.68594000 0.980930 104.37 0.194297 14.187 0.194297 14.187 0.980930 104.01
8.68594500 0.980930 104.37 0.194299 14.187 0.194299 14.187 0.980929 104.01
8.68595000 0.980929 104.37 0.194301 14.187 0.194301 14.187 0.980929 104.01
8.68595500 0.980929 104.37 0.194303 14.187 0.194303 14.187 0.980929 104.00
8.68596000 0.980928 104.37 0.194306 14.186 0.194306 14.186 0.980928 104.00
8.68596500 0.980928 104.37 0.194308 14.186 0.194308 14.186 0.980928 104.00
8.68597000 0.980927 104.37 0.194310 14.186 0.194310 14.186 0.980927 104.00
8.68597500 0.980927 104.37 0.194313 14.186 0.194313 14.186 0.980927 104.00
8.68598000 0.980927 104.37 0.194315 14.186 0.194315 14.186 0.980926 104.00
8.68598500 0.980926 104.37 0.194317 14.186 0.194317 14.186 0.980926 104.00
8.68599000 0.980926 104.37 0.194319 14.185 0.194319 14.185 0.980925 104.00
8.68599500 0.980925 104.37 0.194322 14.185 0.194322 14.185 0.980925 104.00
8.68600000 0.980925 104.37 0.194324 14.185 0.194324 14.185 0.980924 104.00
8.68600500 0.980924 104.37 0.194326 14.185 0.194326 14.185 0.980924 104.00
8.68601000 0.980924 104.37 0.194328 14.185 0.194328 14.185 0.980923 104.00
8.68601500 0.980923 104.37 0.194331 14.185 0.194331 14.185 0.980923 104.00
8.68602000 0.980923 104.37 0.194333 14.184 0.194333 14.184 0.980923 104.00
8.68602500 0.980922 104.37 0.194335 14.184 0.194335 14.184 0.980922 104.00
8.68603000 0.980922 104.37 0.194338 14.184 0.194338 14.184 0.980922 104.00
8.68603500 0.980921 104.37 0.194340 14.184 0.194340 14.184 0.980921 104.00
8.68604000 0.980921 104.37 0.194342 14.184 0.194342 14.184 0.980921 104.00
8.68604500 0.980921 104.37 0.194345 14.183 0.194345 14.183 0.980920 104.00
8.68605000 0.980920 104.37 0.194347 14.183 0.194347 14.183 0.980920 104.00
8.68605500 0.980920 104.37 0.194349 14.183 0.194349 14.183 0.980919 104.00
8.68606000 0.980919 104.37 0.194351 14.183 0.194351 14.183 0.980919 104.00
8.68606500 0.980919 104.37 0.194354 14.183 0.194354 14.183 0.980918 104.00
8.68607000 0.980918 104.37 0.194356 14.183 0.194356 14.183 0.980918 104.00
8.68607500 0.980918 104.37 0.194358 14.182 0.194358 14.182 0.980917 104.00
8.68608000 0.980917 104.37 0.194361 14.182 0.194361 14.182 0.980917 104.00
8.68608500 0.980917 104.37 0.194363 14.182 0.194363 14.182 0.980916 104.00
8.68609000 0.980916 104.37 0.194365 14.182 0.194365 14.182 0.980916 104.00
8.68609500 0.980916 104.37 0.194368 14.182 0.194368 14.182 0.980916 104.00
8.68610000 0.980915 104.37 0.194370 14.182 0.194370 14.182 0.980915 104.00
8.68610500 0.980915 104.37 0.194372 14.181 0.194372 14.181 0.980915 104.00
8.68611000 0.980914 104.37 0.194375 14.181 0.194375 14.181 0.980914 104.00
8.68611500 0.980914 104.37 0.194377 14.181 0.194377 14.181 0.980914 104.00
8.68612000 0.980913 104.37 0.194379 14.181 0.194379 14.181 0.980913 104.00
8.68612500 0.980913 104.37 0.194382 14.181 0.194382 14.181 0.980913 104.00
8.68613000 0.980912 104.37 0.194384 14.180 0.194384 14.180 0.980912 104.00
8.68613500 0.980912 104.37 0.194387 14.180 0.194387 14.180 0.980912 104.00
8.68614000 0.980912 104.36 0.194389 14.180 0.194389 14.180 0.980911 104.00
8.68614500 0.980911 104.36 0.194391 14.180 0.194391 14.180 0.980911 104.00
8.68615000 0.980911 104.36 0.194394 14.180 0.194394 14.180 0.980910 104.00
8.68615500 0.980910 104.36 0.194396 14.180 0.194396 14.180 0.980910 104.00
8.68616000 0.980910 104.36 0.194398 14.179 0.194398 14.179 0.980909 104.00
8.68616500 0.980909 104.36 0.194401 14.179 0.194401 14.179 0.980909 104.00
8.68617000 0.980909 104.36 0.194403 14.179 0.194403 14.179 0.980908 104.00
8.68617500 0.980908 104.36 0.194405 14.179 0.194405 14.179 0.980908 104.00
8.68618000 0.980908 104.36 0.194408 14.179 0.194408 14.179 0.980907 104.00
8.68618500 0.980907 104.36 0.194410 14.179 0.194410 14.179 0.980907 104.00
8.68619000 0.980907 104.36 0.194413 14.178 0.194413 14.178 0.980906 104.00
8.68619500 0.980906 104.36 0.194415 14.178 0.194415 14.178 0.980906 104.00
8.68620000 0.980906 104.36 0.194417 14.178 0.194417 14.178 0.980905 104.00
8.68620500 0.980905 104.36 0.194420 14.178 0.194420 14.178 0.980905 104.00
8.68621000 0.980905 104.36 0.194422 14.178 0.194422 14.178 0.980904 104.00
8.68621500 0.980904 104.36 0.194425 14.177 0.194425 14.177 0.980904 104.00
8.68622000 0.980904 104.36 0.194427 14.177 0.194427 14.177 0.980904 104.00
8.68622500 0.980903 104.36 0.194429 14.177 0.194429 14.177 0.980903 104.00
8.68623000 0.980903 104.36 0.194432 14.177 0.194432 14.177 0.980903 104.00
8.68623500 0.980902 104.36 0.194434 14.177 0.194434 14.177 0.980902 104.00
8.68624000 0.980902 104.36 0.194437 14.177 0.194437 14.177 0.980902 103.99
8.68624500 0.980901 104.36 0.194439 14.176 0.194439 14.176 0.980901 103.99
8.68625000 0.980901 104.36 0.194442 14.176 0.194442 14.176 0.980901 103.99
8.68625500 0.980900 104.36 0.194444 14.176 0.194444 14.176 0.980900 103.99
8.68626000 0.980900 104.36 0.194446 14.176 0.194446 14.176 0.980900 103.99
8.68626500 0.980899 104.36 0.194449 14.176 0.194449 14.176 0.980899 103.99
8.68627000 0.980899 104.36 0.194451 14.175 0.194451 14.175 0.980899 103.99
8.68627500 0.980898 104.36 0.194454 14.175 0.194454 14.175 0.980898 103.99
8.68628000 0.980898 104.36 0.194456 14.175 0.194456 14.175 0.980898 103.99
8.68628500 0.980897 104.36 0.194459 14.175 0.194459 14.175 0.980897 103.99
8.68629000 0.980897 104.36 0.194461 14.175 0.194461 14.175 0.980897 103.99
8.68629500 0.980896 104.36 0.194463 14.175 0.194463 14.175 0.980896 103.99
8.68630000 0.980896 104.36 0.194466 14.174 0.194466 14.174 0.980896 103.99
8.68630500 0.980895 104.36 0.194468 14.174 0.194468 14.174 0.980895 103.99
8.68631000 0.980895 104.36 0.194471 14.174 0.194471 14.174 0.980895 103.99
8.68631500 0.980894 104.36 0.194473 14.174 0.194473 14.174 0.980894 103.99
8.68632000 0.980894 104.36 0.194476 14.174 0.194476 14.174 0.980894 103.99
8.68632500 0.980893 104.36 0.194478 14.173 0.194478 14.173 0.980893 103.99
8.68633000 0.980893 104.36 0.194481 14.173 0.194481 14.173 0.980893 103.99
8.68633500 0.980892 104.36 0.194483 14.173 0.194483 14.173 0.980892 103.99
8.68634000 0.980892 104.36 0.194486 14.173 0.194486 14.173 0.980892 103.99
8.68634500 0.980891 104.36 0.194488 14.173 0.194488 14.173 0.980891 103.99
8.68635000 0.980891 104.36 0.194491 14.172 0.194491 14.172 0.980891 103.99
8.68635500 0.980890 104.36 0.194493 14.172 0.194493 14.172 0.980890 103.99
8.68636000 0.980890 104.36 0.194496 14.172 0.194496 14.172 0.980890 103.99
8.68636500 0.980889 104.36 0.194498 14.172 0.194498 14.172 0.980889 103.99
8.68637000 0.980889 104.36 0.194501 14.172 0.194501 14.172 0.980889 103.99
8.68637500 0.980888 104.36 0.194503 14.172 0.194503 14.172 0.980888 103.99
8.68638000 0.980888 104.36 0.194506 14.171 0.194506 14.171 0.980888 103.99
8.68638500 0.980887 104.36 0.194508 14.171 0.194508 14.171 0.980887 103.99
8.68639000 0.980887 104.36 0.194511 14.171 0.194511 14.171 0.980887 103.99
8.68639500 0.980886 104.36 0.194513 14.171 0.194513 14.171 0.980886 103.99
8.68640000 0.980886 104.36 0.194516 14.171 0.194516 14.171 0.980886 103.99
8.68640500 0.980885 104.36 0.194518 14.170 0.194518 14.170 0.980885 103.99
8.68641000 0.980885 104.36 0.194521 14.170 0.194521 14.170 0.980884 103.99
8.68641500 0.980884 104.36 0.194523 14.170 0.194523 14.170 0.980884 103.99
8.68642000 0.980884 104.35 0.194526 14.170 0.194526 14.170 0.980883 103.99
8.68642500 0.980883 104.35 0.194528 14.170 0.194528 14.170 0.980883 103.99
8.68643000 0.980883 104.35 0.194531 14.169 0.194531 14.169 0.980882 103.99
8.68643500 0.980882 104.35 0.194533 14.169 0.194533 14.169 0.980882 103.99
8.68644000 0.980882 104.35 0.194536 14.169 0.194536 14.169 0.980881 103.99
8.68644500 0.980881 104.35 0.194538 14.169 0.194538 14.169 0.980881 103.99
8.68645000 0.980881 104.35 0.194541 14.169 0.194541 14.169 0.980880 103.99
8.68645500 0.980880 104.35 0.194544 14.169 0.194544 14.169 0.980880 103.99
8.68646000 0.980880 104.35 0.194546 14.168 0.194546 14.168 0.980879 103.99
8.68646500 0.980879 104.35 0.194549 14.168 0.194549 14.168 0.980879 103.99
8.68647000 0.980879 104.35 0.194551 14.168 0.194551 14.168 0.980878 103.99
8.68647500 0.980878 104.35 0.194554 14.168 0.194554 14.168 0.980878 103.99
8.68648000 0.980878 104.35 0.194556 14.168 0.194556 14.168 0.980877 103.99
8.68648500 0.980877 104.35 0.194559 14.167 0.194559 14.167 0.980877 103.99
8.68649000 0.980877 104.35 0.194561 14.167 0.194561 14.167 0.980876 103.99
8.68649500 0.980876 104.35 0.194564 14.167 0.194564 14.167 0.980876 103.99
8.68650000 0.980875 104.35 0.194567 14.167 0.194567 14.167 0.980875 103.99
8.68650500 0.980875 104.35 0.194569 14.167 0.194569 14.167 0.980875 103.98
8.68651000 0.980874 104.35 0.194572 14.166 0.194572 14.166 0.980874 103.98
8.68651500 0.980874 104.35 0.194574 14.166 0.194574 14.166 0.980874 103.98
8.68652000 0.980873 104.35 0.194577 14.166 0.194577 14.166 0.980873 103.98
8.68652500 0.980873 104.35 0.194580 14.166 0.194580 14.166 0.980873 103.98
8.68653000 0.980872 104.35 0.194582 14.166 0.194582 14.166 0.980872 103.98
8.68653500 0.980872 104.35 0.194585 14.165 0.194585 14.165 0.980871 103.98
8.68654000 0.980871 104.35 0.194587 14.165 0.194587 14.165 0.980871 103.98
8.68654500 0.980871 104.35 0.194590 14.165 0.194590 14.165 0.980870 103.98
8.68655000 0.980870 104.35 0.194593 14.165 0.194593 14.165 0.980870 103.98
8.68655500 0.980870 104.35 0.194595 14.165 0.194595 14.165 0.980869 103.98
8.68656000 0.980869 104.35 0.194598 14.165 0.194598 14.165 0.980869 103.98
8.68656500 0.980869 104.35 0.194601 14.164 0.194601 14.164 0.980868 103.98
8.68657000 0.980868 104.35 0.194603 14.164 0.194603 14.164 0.980868 103.98
8.68657500 0.980868 104.35 0.194606 14.164 0.194606 14.164 0.980867 103.98
8.68658000 0.980867 104.35 0.194608 14.164 0.194608 14.164 0.980867 103.98
8.68658500 0.980866 104.35 0.194611 14.164 0.194611 14.164 0.980866 103.98
8.68659000 0.980866 104.35 0.194614 14.163 0.194614 14.163 0.980866 103.98
8.68659500 0.980865 104.35 0.194616 14.163 0.194616 14.163 0.980865 103.98
8.68660000 0.980865 104.35 0.194619 14.163 0.194619 14.163 0.980864 103.98
8.68660500 0.980864 104.35 0.194622 14.163 0.194622 14.163 0.980864 103.98
8.68661000 0.980864 104.35 0.194624 14.163 0.194624 14.163 0.980863 103.98
8.68661500 0.980863 104.35 0.194627 14.162 0.194627 14.162 0.980863 103.98
8.68662000 0.980863 104.35 0.194630 14.162 0.194630 14.162 0.980862 103.98
8.68662500 0.980862 104.35 0.194632 14.162 0.194632 14.162 0.980862 103.98
8.68663000 0.980862 104.35 0.194635 14.162 0.194635 14.162 0.980861 103.98
8.68663500 0.980861 104.35 0.194638 14.162 0.194638 14.162 0.980861 103.98
8.68664000 0.980860 104.35 0.194640 14.161 0.194640 14.161 0.980860 103.98
8.68664500 0.980860 104.35 0.194643 14.161 0.194643 14.161 0.980860 103.98
8.68665000 0.980859 104.35 0.194646 14.161 0.194646 14.161 0.980859 103.98
8.68665500 0.980859 104.35 0.194648 14.161 0.194648 14.161 0.980859 103.98
8.68666000 0.980858 104.35 0.194651 14.161 0.194651 14.161 0.980858 103.98
8.68666500 0.980858 104.35 0.194654 14.160 0.194654 14.160 0.980857 103.98
8.68667000 0.980857 104.35 0.194656 14.160 0.194656 14.160 0.980857 103.98
8.68667500 0.980857 104.35 0.194659 14.160 0.194659 14.160 0.980856 103.98
8.68668000 0.980856 104.35 0.194662 14.160 0.194662 14.160 0.980856 103.98
8.68668500 0.980856 104.34 0.194665 14.160 0.194665 14.160 0.980855 103.98
8.68669000 0.980855 104.34 0.194667 14.159 0.194667 14.159 0.980855 103.98
8.68669500 0.980854 104.34 0.194670 14.159 0.194670 14.159 0.980854 103.98
8.68670000 0.980854 104.34 0.194673 14.159 0.194673 14.159 0.980854 103.98
8.68670500 0.980853 104.34 0.194675 14.159 0.194675 14.159 0.980853 103.98
8.68671000 0.980853 104.34 0.194678 14.159 0.194678 14.159 0.980852 103.98
8.68671500 0.980852 104.34 0.194681 14.158 0.194681 14.158 0.980852 103.98
8.68672000 0.980852 104.34 0.194684 14.158 0.194684 14.158 0.980851 103.98
8.68672500 0.980851 104.34 0.194686 14.158 0.194686 14.158 0.980851 103.98
8.68673000 0.980851 104.34 0.194689 14.158 0.194689 14.158 0.980850 103.98
8.68673500 0.980850 104.34 0.194692 14.158 0.194692 14.158 0.980850 103.98
8.68674000 0.980849 104.34 0.194695 14.157 0.194695 14.157 0.980849 103.98
8.68674500 0.980849 104.34 0.194697 14.157 0.194697 14.157 0.980849 103.98
8.68675000 0.980848 104.34 0.194700 14.157 0.194700 14.157 0.980848 103.98
8.68675500 0.980848 104.34 0.194703 14.157 0.194703 14.157 0.980847 103.98
8.68676000 0.980847 104.34 0.194706 14.157 0.194706 14.157 0.980847 103.98
8.68676500 0.980847 104.34 0.194708 14.156 0.194708 14.156 0.980846 103.97
8.68677000 0.980846 104.34 0.194711 14.156 0.194711 14.156 0.980846 103.97
8.68677500 0.980846 104.34 0.194714 14.156 0.194714 14.156 0.980845 103.97
8.68678000 0.980845 104.34 0.194717 14.156 0.194717 14.156 0.980845 103.97
8.68678500 0.980844 104.34 0.194719 14.156 0.194719 14.156 0.980844 103.97
8.68679000 0.980844 104.34 0.194722 14.155 0.194722 14.155 0.980843 103.97
8.68679500 0.980843 104.34 0.194725 14.155 0.194725 14.155 0.980843 103.97
8.68680000 0.980843 104.34 0.194728 14.155 0.194728 14.155 0.980842 103.97
8.68680500 0.980842 104.34 0.194731 14.155 0.194731 14.155 0.980842 103.97
8.68681000 0.980842 104.34 0.194733 14.155 0.194733 14.155 0.980841 103.97
8.68681500 0.980841 104.34 0.194736 14.154 0.194736 14.154 0.980841 103.97
8.68682000 0.980840 104.34 0.194739 14.154 0.194739 14.154 0.980840 103.97
8.68682500 0.980840 104.34 0.194742 14.154 0.194742 14.154 0.980839 103.97
8.68683000 0.980839 104.34 0.194745 14.154 0.194745 14.154 0.980839 103.97
8.68683500 0.980839 104.34 0.194747 14.154 0.194747 14.154 0.980838 103.97
8.68684000 0.980838 104.34 0.194750 14.153 0.194750 14.153 0.980838 103.97
8.68684500 0.980838 104.34 0.194753 14.153 0.194753 14.153 0.980837 103.97
8.68685000 0.980837 104.34 0.194756 14.153 0.194756 14.153 0.980837 103.97
8.68685500 0.980836 104.34 0.194759 14.153 0.194759 14.153 0.980836 103.97
8.68686000 0.980836 104.34 0.194762 14.152 0.194762 14.152 0.980835 103.97
8.68686500 0.980835 104.34 0.194764 14.152 0.194764 14.152 0.980835 103.97
8.68687000 0.980835 104.34 0.194767 14.152 0.194767 14.152 0.980834 103.97
8.68687500 0.980834 104.34 0.194770 14.152 0.194770 14.152 0.980834 103.97
8.68688000 0.980833 104.34 0.194773 14.152 0.194773 14.152 0.980833 103.97
8.68688500 0.980833 104.34 0.194776 14.151 0.194776 14.151 0.980833 103.97
8.68689000 0.980832 104.34 0.194779 14.151 0.194779 14.151 0.980832 103.97
8.68689500 0.980832 104.34 0.194782 14.151 0.194782 14.151 0.980831 103.97
8.68690000 0.980831 104.34 0.194784 14.151 0.194784 14.151 0.980831 103.97
8.68690500 0.980831 104.34 0.194787 14.151 0.194787 14.151 0.980830 103.97
8.68691000 0.980830 104.34 0.194790 14.150 0.194790 14.150 0.980830 103.97
8.68691500 0.980829 104.34 0.194793 14.150 0.194793 14.150 0.980829 103.97
8.68692000 0.980829 104.34 0.194796 14.150 0.194796 14.150 0.980828 103.97
8.68692500 0.980828 104.34 0.194799 14.150 0.194799 14.150 0.980828 103.97
8.68693000 0.980828 104.34 0.194802 14.150 0.194802 14.150 0.980827 103.97
8.68693500 0.980827 104.34 0.194805 14.149 0.194805 14.149 0.980827 103.97
8.68694000 0.980826 104.33 0.194808 14.149 0.194808 14.149 0.980826 103.97
8.68694500 0.980826 104.33 0.194810 14.149 0.194810 14.149 0.980825 103.97
8.68695000 0.980825 104.33 0.194813 14.149 0.194813 14.149 0.980825 103.97
8.68695500 0.980825 104.33 0.194816 14.148 0.194816 14.148 0.980824 103.97