! Sonnet Data File
! From: emgraph Version : 16.52
! From Project: Qubit_Xmon2_brg_para2
! Data is De-embedded 
! Data File Written: 11/12/2017 21:29:58
!< HDATE 11/12/2017 19:10:47
!< MDATE 11/12/2017 19:10:47
!< PARAMS
!< Lj = 11.0
!< Gap = 6.0
!< Pwid = 2000.0
!< Airgap = 6.0
!< Width = 10.0
!< Bwid = 8.0
!< Dis1 = 550.0
!< Dis2 = 556.0
!< END PARAMS
# GHZ S MA R 34.65000
8.76500000 0.991764 118.23 0.127841 28.237 0.127841 28.237 0.991765 118.27
!< P1 F=8.765 Eeff=(5.13709823 -5.6953e-5) Z0=(34.64455 -9.67e-5) R=0.0 C=0.0 
!< P2 F=8.765 Eeff=(5.13709823 -5.6953e-5) Z0=(34.64455 -9.67e-5) R=0.0 C=0.0 
8.76502000 0.991760 118.23 0.127870 28.235 0.127870 28.235 0.991761 118.27
8.76504000 0.991755 118.22 0.127900 28.233 0.127900 28.233 0.991757 118.26
8.76506000 0.991751 118.22 0.127930 28.231 0.127930 28.231 0.991753 118.26
8.76508000 0.991747 118.22 0.127960 28.229 0.127960 28.229 0.991748 118.26
8.76510000 0.991743 118.22 0.127991 28.227 0.127991 28.227 0.991744 118.26
8.76512000 0.991738 118.22 0.128022 28.225 0.128022 28.225 0.991740 118.26
8.76514000 0.991734 118.21 0.128053 28.223 0.128053 28.223 0.991736 118.26
8.76516000 0.991730 118.21 0.128085 28.221 0.128085 28.221 0.991731 118.25
8.76518000 0.991725 118.21 0.128117 28.218 0.128117 28.218 0.991727 118.25
8.76520000 0.991721 118.21 0.128149 28.216 0.128149 28.216 0.991722 118.25
8.76522000 0.991716 118.21 0.128182 28.214 0.128182 28.214 0.991718 118.25
8.76524000 0.991711 118.20 0.128215 28.212 0.128215 28.212 0.991713 118.25
8.76526000 0.991707 118.20 0.128248 28.210 0.128248 28.210 0.991708 118.24
8.76528000 0.991702 118.20 0.128282 28.208 0.128282 28.208 0.991704 118.24
8.76530000 0.991697 118.20 0.128316 28.205 0.128316 28.205 0.991699 118.24
8.76532000 0.991692 118.20 0.128351 28.203 0.128351 28.203 0.991694 118.24
8.76534000 0.991687 118.19 0.128386 28.201 0.128386 28.201 0.991689 118.24
8.76536000 0.991683 118.19 0.128421 28.198 0.128421 28.198 0.991684 118.23
8.76538000 0.991677 118.19 0.128457 28.196 0.128457 28.196 0.991679 118.23
8.76540000 0.991672 118.19 0.128493 28.194 0.128493 28.194 0.991674 118.23
8.76542000 0.991667 118.18 0.128530 28.191 0.128530 28.191 0.991669 118.23
8.76544000 0.991662 118.18 0.128567 28.189 0.128567 28.189 0.991664 118.22
8.76546000 0.991657 118.18 0.128605 28.186 0.128605 28.186 0.991658 118.22
8.76548000 0.991651 118.18 0.128642 28.184 0.128642 28.184 0.991653 118.22
8.76550000 0.991646 118.17 0.128681 28.181 0.128681 28.181 0.991648 118.22
8.76552000 0.991640 118.17 0.128720 28.179 0.128720 28.179 0.991642 118.22
8.76554000 0.991635 118.17 0.128759 28.176 0.128759 28.176 0.991637 118.21
8.76556000 0.991629 118.17 0.128799 28.173 0.128799 28.173 0.991631 118.21
8.76558000 0.991623 118.16 0.128839 28.171 0.128839 28.171 0.991625 118.21
8.76560000 0.991618 118.16 0.128880 28.168 0.128880 28.168 0.991620 118.21
8.76562000 0.991612 118.16 0.128921 28.165 0.128921 28.165 0.991614 118.20
8.76564000 0.991606 118.16 0.128963 28.163 0.128963 28.163 0.991608 118.20
8.76566000 0.991600 118.15 0.129006 28.160 0.129006 28.160 0.991602 118.20
8.76568000 0.991594 118.15 0.129049 28.157 0.129049 28.157 0.991596 118.20
8.76570000 0.991588 118.15 0.129092 28.154 0.129092 28.154 0.991590 118.19
8.76572000 0.991581 118.15 0.129136 28.151 0.129136 28.151 0.991583 118.19
8.76574000 0.991575 118.14 0.129181 28.148 0.129181 28.148 0.991577 118.19
8.76576000 0.991568 118.14 0.129226 28.145 0.129226 28.145 0.991571 118.19
8.76578000 0.991562 118.14 0.129272 28.142 0.129272 28.142 0.991564 118.18
8.76580000 0.991555 118.13 0.129318 28.139 0.129318 28.139 0.991557 118.18
8.76582000 0.991548 118.13 0.129365 28.136 0.129365 28.136 0.991551 118.18
8.76584000 0.991542 118.13 0.129413 28.133 0.129413 28.133 0.991544 118.17
8.76586000 0.991535 118.13 0.129461 28.130 0.129461 28.130 0.991537 118.17
8.76588000 0.991528 118.12 0.129510 28.127 0.129510 28.127 0.991530 118.17
8.76590000 0.991520 118.12 0.129560 28.123 0.129560 28.123 0.991523 118.17
8.76592000 0.991513 118.12 0.129610 28.120 0.129610 28.120 0.991516 118.16
8.76594000 0.991506 118.11 0.129661 28.117 0.129661 28.117 0.991508 118.16
8.76596000 0.991498 118.11 0.129713 28.113 0.129713 28.113 0.991501 118.16
8.76598000 0.991491 118.11 0.129766 28.110 0.129766 28.110 0.991493 118.15
8.76600000 0.991483 118.10 0.129819 28.106 0.129819 28.106 0.991486 118.15
8.76602000 0.991475 118.10 0.129873 28.103 0.129873 28.103 0.991478 118.15
8.76604000 0.991467 118.10 0.129928 28.099 0.129928 28.099 0.991470 118.14
8.76606000 0.991459 118.09 0.129983 28.095 0.129983 28.095 0.991462 118.14
8.76608000 0.991451 118.09 0.130040 28.092 0.130040 28.092 0.991454 118.14
8.76610000 0.991443 118.09 0.130097 28.088 0.130097 28.088 0.991445 118.13
8.76612000 0.991434 118.08 0.130155 28.084 0.130155 28.084 0.991437 118.13
8.76614000 0.991426 118.08 0.130214 28.080 0.130214 28.080 0.991429 118.13
8.76616000 0.991417 118.08 0.130274 28.076 0.130274 28.076 0.991420 118.12
8.76618000 0.991408 118.07 0.130334 28.072 0.130334 28.072 0.991411 118.12
8.76620000 0.991399 118.07 0.130396 28.068 0.130396 28.068 0.991402 118.12
8.76622000 0.991390 118.06 0.130459 28.064 0.130459 28.064 0.991393 118.11
8.76624000 0.991381 118.06 0.130522 28.060 0.130522 28.060 0.991384 118.11
8.76626000 0.991371 118.06 0.130587 28.056 0.130587 28.056 0.991374 118.11
8.76628000 0.991361 118.05 0.130653 28.051 0.130653 28.051 0.991365 118.10
8.76630000 0.991352 118.05 0.130719 28.047 0.130719 28.047 0.991355 118.10
8.76632000 0.991342 118.04 0.130787 28.042 0.130787 28.042 0.991345 118.09
8.76634000 0.991332 118.04 0.130856 28.038 0.130856 28.038 0.991335 118.09
8.76636000 0.991321 118.04 0.130926 28.033 0.130926 28.033 0.991324 118.09
8.76638000 0.991311 118.03 0.130997 28.029 0.130997 28.029 0.991314 118.08
8.76640000 0.991300 118.03 0.131069 28.024 0.131069 28.024 0.991303 118.08
8.76642000 0.991289 118.02 0.131143 28.019 0.131143 28.019 0.991292 118.07
8.76644000 0.991278 118.02 0.131218 28.014 0.131218 28.014 0.991281 118.07
8.76646000 0.991267 118.01 0.131294 28.009 0.131294 28.009 0.991270 118.06
8.76648000 0.991255 118.01 0.131371 28.004 0.131371 28.004 0.991259 118.06
8.76650000 0.991243 118.00 0.131450 27.999 0.131450 27.999 0.991247 118.06
8.76652000 0.991231 118.00 0.131530 27.993 0.131530 27.993 0.991235 118.05
8.76654000 0.991219 117.99 0.131611 27.988 0.131611 27.988 0.991223 118.05
8.76656000 0.991207 117.99 0.131694 27.982 0.131694 27.982 0.991211 118.04
8.76658000 0.991194 117.98 0.131779 27.977 0.131779 27.977 0.991198 118.04
8.76660000 0.991181 117.98 0.131865 27.971 0.131865 27.971 0.991185 118.03
8.76662000 0.991168 117.97 0.131953 27.965 0.131953 27.965 0.991172 118.03
8.76664000 0.991154 117.97 0.132042 27.959 0.132042 27.959 0.991159 118.02
8.76666000 0.991141 117.96 0.132133 27.953 0.132133 27.953 0.991145 118.02
8.76668000 0.991127 117.96 0.132225 27.947 0.132225 27.947 0.991131 118.01
8.76670000 0.991112 117.95 0.132320 27.941 0.132320 27.941 0.991117 118.01
8.76672000 0.991098 117.95 0.132416 27.934 0.132416 27.934 0.991102 118.00
8.76674000 0.991083 117.94 0.132514 27.928 0.132514 27.928 0.991087 117.99
8.76676000 0.991067 117.93 0.132614 27.921 0.132614 27.921 0.991072 117.99
8.76678000 0.991052 117.93 0.132716 27.914 0.132716 27.914 0.991057 117.98
8.76680000 0.991036 117.92 0.132820 27.907 0.132820 27.907 0.991041 117.98
8.76682000 0.991020 117.91 0.132926 27.900 0.132926 27.900 0.991025 117.97
8.76684000 0.991003 117.91 0.133034 27.893 0.133034 27.893 0.991008 117.96
8.76686000 0.990986 117.90 0.133145 27.886 0.133145 27.886 0.990991 117.96
8.76688000 0.990968 117.89 0.133257 27.878 0.133257 27.878 0.990974 117.95
8.76690000 0.990951 117.89 0.133373 27.870 0.133373 27.870 0.990956 117.94
8.76692000 0.990932 117.88 0.133490 27.862 0.133490 27.862 0.990938 117.94
8.76694000 0.990914 117.87 0.133610 27.854 0.133610 27.854 0.990919 117.93
8.76696000 0.990894 117.87 0.133733 27.846 0.133733 27.846 0.990900 117.92
8.76698000 0.990875 117.86 0.133859 27.838 0.133859 27.838 0.990881 117.92
8.76700000 0.990855 117.85 0.133987 27.829 0.133987 27.829 0.990861 117.91
8.76702000 0.990834 117.84 0.134118 27.820 0.134118 27.820 0.990840 117.90
8.76704000 0.990813 117.83 0.134252 27.811 0.134252 27.811 0.990819 117.89
8.76706000 0.990791 117.83 0.134390 27.802 0.134390 27.802 0.990798 117.89
8.76708000 0.990769 117.82 0.134530 27.792 0.134530 27.792 0.990776 117.88
8.76710000 0.990746 117.81 0.134674 27.783 0.134674 27.783 0.990753 117.87
8.76712000 0.990723 117.80 0.134821 27.773 0.134821 27.773 0.990730 117.86
8.76714000 0.990699 117.79 0.134972 27.762 0.134972 27.762 0.990706 117.85
8.76716000 0.990674 117.78 0.135126 27.752 0.135126 27.752 0.990682 117.84
8.76718000 0.990649 117.77 0.135285 27.741 0.135285 27.741 0.990656 117.84
8.76720000 0.990623 117.76 0.135447 27.730 0.135447 27.730 0.990630 117.83
8.76722000 0.990596 117.75 0.135613 27.719 0.135613 27.719 0.990604 117.82
8.76724000 0.990568 117.74 0.135784 27.707 0.135784 27.707 0.990576 117.81
8.76726000 0.990540 117.73 0.135959 27.695 0.135959 27.695 0.990548 117.80
8.76728000 0.990511 117.72 0.136139 27.683 0.136139 27.683 0.990519 117.79
8.76730000 0.990480 117.71 0.136323 27.670 0.136323 27.670 0.990489 117.78
8.76732000 0.990449 117.70 0.136513 27.657 0.136513 27.657 0.990458 117.77
8.76734000 0.990417 117.69 0.136708 27.644 0.136708 27.644 0.990427 117.75
8.76736000 0.990384 117.68 0.136908 27.630 0.136908 27.630 0.990394 117.74
8.76738000 0.990350 117.66 0.137114 27.616 0.137114 27.616 0.990360 117.73
8.76740000 0.990315 117.65 0.137325 27.601 0.137325 27.601 0.990325 117.72
8.76742000 0.990279 117.64 0.137543 27.586 0.137543 27.586 0.990289 117.71
8.76744000 0.990241 117.62 0.137768 27.570 0.137768 27.570 0.990252 117.69
8.76746000 0.990202 117.61 0.137999 27.554 0.137999 27.554 0.990213 117.68
8.76748000 0.990162 117.60 0.138237 27.538 0.138237 27.538 0.990173 117.67
8.76750000 0.990120 117.58 0.138482 27.521 0.138482 27.521 0.990132 117.65
8.76752000 0.990077 117.57 0.138735 27.503 0.138735 27.503 0.990089 117.64
8.76754000 0.990033 117.55 0.138997 27.485 0.138997 27.485 0.990045 117.62
8.76756000 0.989986 117.53 0.139266 27.466 0.139266 27.466 0.989999 117.61
8.76758000 0.989938 117.52 0.139545 27.446 0.139545 27.446 0.989951 117.59
8.76760000 0.989888 117.50 0.139833 27.426 0.139833 27.426 0.989902 117.58
8.76762000 0.989836 117.48 0.140131 27.405 0.140131 27.405 0.989851 117.56
8.76764000 0.989782 117.46 0.140439 27.383 0.140439 27.383 0.989797 117.54
8.76766000 0.989726 117.44 0.140758 27.360 0.140758 27.360 0.989741 117.52
8.76768000 0.989668 117.43 0.141088 27.337 0.141088 27.337 0.989683 117.50
8.76770000 0.989607 117.40 0.141431 27.312 0.141431 27.312 0.989623 117.49
8.76772000 0.989543 117.38 0.141786 27.287 0.141786 27.287 0.989560 117.47
8.76774000 0.989476 117.36 0.142155 27.260 0.142155 27.260 0.989494 117.44
8.76776000 0.989407 117.34 0.142538 27.233 0.142538 27.233 0.989425 117.42
8.76778000 0.989334 117.31 0.142936 27.204 0.142936 27.204 0.989354 117.40
8.76780000 0.989258 117.29 0.143350 27.174 0.143350 27.174 0.989278 117.38
8.76782000 0.989179 117.26 0.143781 27.143 0.143781 27.143 0.989199 117.35
8.76784000 0.989095 117.24 0.144231 27.110 0.144231 27.110 0.989117 117.33
8.76786000 0.989007 117.21 0.144699 27.076 0.144699 27.076 0.989030 117.30
8.76788000 0.988915 117.18 0.145188 27.040 0.145188 27.040 0.988938 117.27
8.76790000 0.988817 117.15 0.145699 27.003 0.145699 27.003 0.988842 117.24
8.76792000 0.988715 117.12 0.146233 26.963 0.146233 26.963 0.988741 117.21
8.76794000 0.988607 117.08 0.146793 26.922 0.146793 26.922 0.988634 117.18
8.76796000 0.988492 117.05 0.147379 26.878 0.147379 26.878 0.988521 117.15
8.76798000 0.988371 117.01 0.147994 26.832 0.147994 26.832 0.988401 117.11
8.76800000 0.988242 116.97 0.148640 26.784 0.148640 26.784 0.988274 117.08
8.76802000 0.988106 116.93 0.149319 26.733 0.149319 26.733 0.988139 117.04
8.76804000 0.987961 116.89 0.150035 26.678 0.150035 26.678 0.987996 117.00
8.76806000 0.987806 116.85 0.150789 26.621 0.150789 26.621 0.987843 116.95
8.76808000 0.987641 116.80 0.151586 26.560 0.151586 26.560 0.987680 116.91
8.76810000 0.987464 116.75 0.152428 26.496 0.152428 26.496 0.987505 116.86
8.76812000 0.987274 116.70 0.153321 26.427 0.153321 26.427 0.987318 116.81
8.76814000 0.987070 116.64 0.154268 26.353 0.154268 26.353 0.987117 116.76
8.76816000 0.986851 116.58 0.155274 26.275 0.155274 26.275 0.986900 116.70
8.76818000 0.986613 116.52 0.156347 26.190 0.156347 26.190 0.986666 116.64
8.76820000 0.986356 116.45 0.157491 26.100 0.157491 26.100 0.986413 116.58
8.76822000 0.986077 116.37 0.158715 26.003 0.158715 26.003 0.986137 116.51
8.76824000 0.985772 116.30 0.160027 25.898 0.160027 25.898 0.985837 116.43
8.76826000 0.985439 116.21 0.161438 25.784 0.161438 25.784 0.985509 116.35
8.76828000 0.985074 116.12 0.162957 25.660 0.162957 25.660 0.985150 116.27
8.76830000 0.984671 116.02 0.164600 25.526 0.164600 25.526 0.984753 116.17
8.76832000 0.984225 115.92 0.166380 25.379 0.166380 25.379 0.984314 116.07
8.76834000 0.983728 115.80 0.168317 25.218 0.168317 25.218 0.983826 115.96
8.76836000 0.983174 115.68 0.170431 25.040 0.170431 25.040 0.983280 115.84
8.76838000 0.982550 115.54 0.172749 24.843 0.172749 24.843 0.982667 115.71
8.76840000 0.981844 115.38 0.175300 24.625 0.175300 24.625 0.981974 115.57
8.76842000 0.981039 115.22 0.178121 24.380 0.178121 24.380 0.981184 115.41
8.76844000 0.980116 115.03 0.181258 24.106 0.181258 24.106 0.980278 115.23
8.76846000 0.979047 114.82 0.184767 23.795 0.184767 23.795 0.979229 115.03
8.76848000 0.977797 114.58 0.188716 23.440 0.188716 23.440 0.978003 114.81
8.76850000 0.976320 114.32 0.193194 23.032 0.193194 23.032 0.976556 114.55
8.76852000 0.974553 114.01 0.198313 22.559 0.198313 22.559 0.974825 114.26
8.76854000 0.972410 113.66 0.204218 22.004 0.204218 22.004 0.972727 113.93
8.76856000 0.969766 113.24 0.211103 21.346 0.211103 21.346 0.970142 113.54
8.76858000 0.966444 112.76 0.219229 20.553 0.219229 20.553 0.966895 113.08
8.76860000 0.962175 112.17 0.228952 19.585 0.228952 19.585 0.962725 112.52
8.76862000 0.956540 111.46 0.240781 18.377 0.240781 18.377 0.957226 111.85
8.76864000 0.948859 110.58 0.255447 16.836 0.255447 16.836 0.949739 111.02
8.76866000 0.937969 109.47 0.274041 14.816 0.274041 14.816 0.939136 109.97
8.76868000 0.921759 108.03 0.298232 12.072 0.298232 12.072 0.923376 108.62
8.76870000 0.896130 106.11 0.330595 8.1851 0.330595 8.1851 0.898503 106.83
8.76872000 0.852559 103.57 0.374952 2.3783 0.374952 2.3783 0.856327 104.47
8.76874000 0.772738 100.48 0.435502 -6.836 0.435502 -6.836 0.779411 101.68
8.76876000 0.625230 99.330 0.507684 -22.14 0.507684 -22.14 0.638735 100.94
8.76878000 0.456647 115.56 0.542733 -46.09 0.542733 -46.09 0.482357 116.25
8.76880000 0.574207 141.47 0.461962 -73.62 0.461962 -73.62 0.593220 139.87
8.76882000 0.773359 141.70 0.325025 -94.10 0.325025 -94.10 0.782609 140.40
8.76884000 0.879574 137.14 0.216502 -106.1 0.216502 -106.1 0.884517 136.19
8.76886000 0.930308 133.44 0.143557 -112.4 0.143557 -112.4 0.933278 132.71
8.76888000 0.956104 130.79 0.094398 -115.0 0.094398 -115.0 0.958056 130.21
8.76890000 0.970312 128.88 0.060105 -114.1 0.060105 -114.1 0.971684 128.39
8.76892000 0.978695 127.45 0.035599 -107.9 0.035599 -107.9 0.979709 127.04
8.76894000 0.983920 126.36 0.018884 -87.99 0.018884 -87.99 0.984698 126.00
8.76896000 0.987321 125.50 0.013003 -36.48 0.013003 -36.48 0.987936 125.18
8.76898000 0.989611 124.80 0.018772 2.4523 0.018772 2.4523 0.990109 124.52
8.76900000 0.991194 124.23 0.026906 16.216 0.026906 16.216 0.991606 123.98
8.76902000 0.992312 123.75 0.034436 22.013 0.034436 22.013 0.992658 123.52
8.76904000 0.993114 123.35 0.041042 24.967 0.041042 24.967 0.993408 123.14
8.76906000 0.993695 123.00 0.046798 26.661 0.046798 26.661 0.993949 122.81
8.76908000 0.994121 122.70 0.051830 27.708 0.051830 27.708 0.994341 122.52
8.76910000 0.994432 122.43 0.056253 28.388 0.056253 28.388 0.994626 122.27
8.76912000 0.994661 122.20 0.060168 28.846 0.060168 28.846 0.994832 122.05
8.76914000 0.994827 122.00 0.063652 29.162 0.063652 29.162 0.994980 121.85
8.76916000 0.994947 121.81 0.066773 29.383 0.066773 29.383 0.995084 121.67
8.76918000 0.995031 121.64 0.069583 29.538 0.069583 29.538 0.995155 121.52
8.76920000 0.995088 121.49 0.072126 29.648 0.072126 29.648 0.995200 121.37
8.76922000 0.995124 121.36 0.074437 29.725 0.074437 29.725 0.995226 121.24
8.76924000 0.995144 121.23 0.076547 29.778 0.076547 29.778 0.995237 121.12
8.76926000 0.995151 121.12 0.078480 29.814 0.078480 29.814 0.995237 121.02
8.76928000 0.995149 121.01 0.080258 29.836 0.080258 29.836 0.995227 120.92
8.76930000 0.995138 120.92 0.081898 29.848 0.081898 29.848 0.995211 120.82
8.76932000 0.995122 120.83 0.083417 29.852 0.083417 29.852 0.995189 120.74
8.76934000 0.995101 120.74 0.084826 29.851 0.084826 29.851 0.995164 120.66
8.76936000 0.995077 120.67 0.086137 29.846 0.086137 29.846 0.995135 120.59
8.76938000 0.995049 120.59 0.087360 29.837 0.087360 29.837 0.995104 120.52
8.76940000 0.995020 120.53 0.088504 29.826 0.088504 29.826 0.995071 120.45
8.76942000 0.994989 120.46 0.089576 29.812 0.089576 29.812 0.995037 120.39
8.76944000 0.994958 120.40 0.090582 29.798 0.090582 29.798 0.995003 120.34
8.76946000 0.994925 120.35 0.091529 29.782 0.091529 29.782 0.994968 120.28
8.76948000 0.994892 120.29 0.092422 29.766 0.092422 29.766 0.994932 120.23
8.76950000 0.994859 120.24 0.093264 29.749 0.093264 29.749 0.994897 120.18
8.76952000 0.994826 120.20 0.094061 29.731 0.094061 29.731 0.994862 120.14
8.76954000 0.994793 120.15 0.094815 29.714 0.094815 29.714 0.994827 120.10
8.76956000 0.994760 120.11 0.095530 29.697 0.095530 29.697 0.994792 120.06
8.76958000 0.994727 120.07 0.096210 29.679 0.096210 29.679 0.994758 120.02
8.76960000 0.994695 120.03 0.096856 29.662 0.096856 29.662 0.994724 119.98
8.76962000 0.994664 120.00 0.097471 29.645 0.097471 29.645 0.994691 119.95
8.76964000 0.994632 119.96 0.098057 29.628 0.098057 29.628 0.994659 119.91
8.76966000 0.994602 119.93 0.098616 29.611 0.098616 29.611 0.994627 119.88
8.76968000 0.994572 119.90 0.099150 29.595 0.099150 29.595 0.994596 119.85
8.76970000 0.994542 119.87 0.099661 29.579 0.099661 29.579 0.994565 119.82
8.76972000 0.994513 119.84 0.100150 29.563 0.100150 29.563 0.994535 119.80
8.76974000 0.994485 119.81 0.100619 29.548 0.100619 29.548 0.994506 119.77
8.76976000 0.994457 119.78 0.101068 29.533 0.101068 29.533 0.994477 119.74
8.76978000 0.994430 119.76 0.101500 29.518 0.101500 29.518 0.994449 119.72
8.76980000 0.994403 119.73 0.101914 29.503 0.101914 29.503 0.994422 119.70
8.76982000 0.994377 119.71 0.102312 29.489 0.102312 29.489 0.994395 119.67
8.76984000 0.994351 119.69 0.102695 29.475 0.102695 29.475 0.994369 119.65
8.76986000 0.994326 119.66 0.103064 29.462 0.103064 29.462 0.994343 119.63
8.76988000 0.994302 119.64 0.103419 29.448 0.103419 29.448 0.994318 119.61
8.76990000 0.994278 119.62 0.103762 29.436 0.103762 29.436 0.994294 119.59
8.76992000 0.994255 119.60 0.104092 29.423 0.104092 29.423 0.994270 119.57
8.76994000 0.994232 119.58 0.104411 29.411 0.104411 29.411 0.994247 119.56
8.76996000 0.994210 119.56 0.104719 29.399 0.104719 29.399 0.994224 119.54
8.76998000 0.994188 119.55 0.105017 29.387 0.105017 29.387 0.994201 119.52
8.77000000 0.994167 119.53 0.105305 29.375 0.105305 29.375 0.994180 119.50
8.77002000 0.994146 119.51 0.105584 29.364 0.105584 29.364 0.994158 119.49
8.77004000 0.994125 119.50 0.105854 29.353 0.105854 29.353 0.994138 119.47
8.77006000 0.994105 119.48 0.106115 29.342 0.106115 29.342 0.994117 119.46
8.77008000 0.994086 119.47 0.106368 29.332 0.106368 29.332 0.994097 119.44
8.77010000 0.994067 119.45 0.106614 29.322 0.106614 29.322 0.994078 119.43
8.77012000 0.994048 119.44 0.106852 29.312 0.106852 29.312 0.994059 119.42
8.77014000 0.994030 119.42 0.107083 29.302 0.107083 29.302 0.994040 119.40
8.77016000 0.994012 119.41 0.107307 29.292 0.107307 29.292 0.994022 119.39
8.77018000 0.993994 119.40 0.107525 29.283 0.107525 29.283 0.994004 119.38
8.77020000 0.993977 119.38 0.107737 29.274 0.107737 29.274 0.993987 119.37
8.77022000 0.993960 119.37 0.107943 29.265 0.107943 29.265 0.993970 119.36
8.77024000 0.993944 119.36 0.108143 29.256 0.108143 29.256 0.993953 119.34
8.77026000 0.993928 119.35 0.108338 29.248 0.108338 29.248 0.993936 119.33
8.77028000 0.993912 119.34 0.108527 29.239 0.108527 29.239 0.993920 119.32
8.77030000 0.993896 119.33 0.108712 29.231 0.108712 29.231 0.993905 119.31
8.77032000 0.993881 119.32 0.108892 29.223 0.108892 29.223 0.993889 119.30
8.77034000 0.993866 119.31 0.109067 29.215 0.109067 29.215 0.993874 119.29
8.77036000 0.993852 119.30 0.109238 29.208 0.109238 29.208 0.993859 119.28
8.77038000 0.993837 119.29 0.109404 29.200 0.109404 29.200 0.993845 119.27
8.77040000 0.993823 119.28 0.109566 29.193 0.109566 29.193 0.993831 119.26
8.77042000 0.993810 119.27 0.109725 29.185 0.109725 29.185 0.993817 119.25
8.77044000 0.993796 119.26 0.109879 29.178 0.109879 29.178 0.993803 119.25
8.77046000 0.993783 119.25 0.110030 29.171 0.110030 29.171 0.993790 119.24
8.77048000 0.993770 119.24 0.110177 29.164 0.110177 29.164 0.993777 119.23
8.77050000 0.993757 119.23 0.110321 29.158 0.110321 29.158 0.993764 119.22
8.77052000 0.993745 119.22 0.110461 29.151 0.110461 29.151 0.993751 119.21
8.77054000 0.993732 119.21 0.110599 29.145 0.110599 29.145 0.993739 119.20
8.77056000 0.993720 119.21 0.110733 29.138 0.110733 29.138 0.993727 119.20
8.77058000 0.993709 119.20 0.110864 29.132 0.110864 29.132 0.993715 119.19
8.77060000 0.993697 119.19 0.110992 29.126 0.110992 29.126 0.993703 119.18
8.77062000 0.993686 119.18 0.111118 29.120 0.111118 29.120 0.993691 119.17
8.77064000 0.993674 119.18 0.111241 29.114 0.111241 29.114 0.993680 119.17
8.77066000 0.993663 119.17 0.111361 29.109 0.111361 29.109 0.993669 119.16
8.77068000 0.993653 119.16 0.111478 29.103 0.111478 29.103 0.993658 119.15
8.77070000 0.993642 119.15 0.111594 29.097 0.111594 29.097 0.993647 119.15
8.77072000 0.993631 119.15 0.111707 29.092 0.111707 29.092 0.993637 119.14
8.77074000 0.993621 119.14 0.111817 29.087 0.111817 29.087 0.993626 119.13
8.77076000 0.993611 119.13 0.111925 29.081 0.111925 29.081 0.993616 119.13
8.77078000 0.993601 119.13 0.112031 29.076 0.112031 29.076 0.993606 119.12
8.77080000 0.993591 119.12 0.112135 29.071 0.112135 29.071 0.993596 119.12
8.77082000 0.993582 119.12 0.112237 29.066 0.112237 29.066 0.993587 119.11
8.77084000 0.993572 119.11 0.112337 29.061 0.112337 29.061 0.993577 119.10
8.77086000 0.993563 119.10 0.112435 29.056 0.112435 29.056 0.993568 119.10
8.77088000 0.993554 119.10 0.112532 29.051 0.112532 29.051 0.993558 119.09
8.77090000 0.993545 119.09 0.112626 29.047 0.112626 29.047 0.993549 119.09
8.77092000 0.993536 119.09 0.112719 29.042 0.112719 29.042 0.993540 119.08
8.77094000 0.993527 119.08 0.112810 29.038 0.112810 29.038 0.993532 119.08
8.77096000 0.993519 119.08 0.112899 29.033 0.112899 29.033 0.993523 119.07
8.77098000 0.993511 119.07 0.112986 29.029 0.112986 29.029 0.993515 119.07
8.77100000 0.993502 119.06 0.113072 29.024 0.113072 29.024 0.993506 119.06
8.77102000 0.993494 119.06 0.113157 29.020 0.113157 29.020 0.993498 119.06
8.77104000 0.993486 119.05 0.113240 29.016 0.113240 29.016 0.993490 119.05
8.77106000 0.993478 119.05 0.113321 29.012 0.113321 29.012 0.993482 119.05
8.77108000 0.993470 119.04 0.113402 29.008 0.113402 29.008 0.993474 119.04
8.77110000 0.993463 119.04 0.113480 29.004 0.113480 29.004 0.993466 119.04
8.77112000 0.993455 119.04 0.113558 29.000 0.113558 29.000 0.993459 119.03
8.77114000 0.993448 119.03 0.113634 28.996 0.113634 28.996 0.993451 119.03
8.77116000 0.993440 119.03 0.113709 28.992 0.113709 28.992 0.993444 119.03
8.77118000 0.993433 119.02 0.113782 28.988 0.113782 28.988 0.993436 119.02
8.77120000 0.993426 119.02 0.113854 28.985 0.113854 28.985 0.993429 119.02
8.77122000 0.993419 119.01 0.113926 28.981 0.113926 28.981 0.993422 119.01
8.77124000 0.993412 119.01 0.113996 28.977 0.113996 28.977 0.993415 119.01
8.77126000 0.993405 119.00 0.114064 28.974 0.114064 28.974 0.993408 119.00
8.77128000 0.993398 119.00 0.114132 28.970 0.114132 28.970 0.993401 119.00
8.77130000 0.993392 119.00 0.114199 28.967 0.114199 28.967 0.993395 119.00
8.77132000 0.993385 118.99 0.114265 28.964 0.114265 28.964 0.993388 118.99
8.77134000 0.993379 118.99 0.114329 28.960 0.114329 28.960 0.993382 118.99
8.77136000 0.993372 118.98 0.114393 28.957 0.114393 28.957 0.993375 118.99
8.77138000 0.993366 118.98 0.114455 28.954 0.114455 28.954 0.993369 118.98
8.77140000 0.993360 118.98 0.114517 28.950 0.114517 28.950 0.993363 118.98
8.77142000 0.993354 118.97 0.114578 28.947 0.114578 28.947 0.993356 118.97
8.77144000 0.993348 118.97 0.114638 28.944 0.114638 28.944 0.993350 118.97
8.77146000 0.993342 118.97 0.114697 28.941 0.114697 28.941 0.993344 118.97
8.77148000 0.993336 118.96 0.114755 28.938 0.114755 28.938 0.993338 118.96
8.77150000 0.993330 118.96 0.114812 28.935 0.114812 28.935 0.993333 118.96
8.77152000 0.993324 118.96 0.114868 28.932 0.114868 28.932 0.993327 118.96
8.77154000 0.993319 118.95 0.114924 28.929 0.114924 28.929 0.993321 118.95
8.77156000 0.993313 118.95 0.114979 28.926 0.114979 28.926 0.993315 118.95
8.77158000 0.993307 118.95 0.115033 28.923 0.115033 28.923 0.993310 118.95
8.77160000 0.993302 118.94 0.115086 28.920 0.115086 28.920 0.993304 118.95
8.77162000 0.993297 118.94 0.115138 28.918 0.115138 28.918 0.993299 118.94
8.77164000 0.993291 118.94 0.115190 28.915 0.115190 28.915 0.993294 118.94
8.77166000 0.993286 118.93 0.115241 28.912 0.115241 28.912 0.993288 118.94
8.77168000 0.993281 118.93 0.115292 28.909 0.115292 28.909 0.993283 118.93
8.77170000 0.993276 118.93 0.115341 28.907 0.115341 28.907 0.993278 118.93
8.77172000 0.993271 118.92 0.115390 28.904 0.115390 28.904 0.993273 118.93
8.77174000 0.993266 118.92 0.115439 28.901 0.115439 28.901 0.993268 118.92
8.77176000 0.993261 118.92 0.115486 28.899 0.115486 28.899 0.993263 118.92
8.77178000 0.993256 118.91 0.115533 28.896 0.115533 28.896 0.993258 118.92
8.77180000 0.993251 118.91 0.115580 28.894 0.115580 28.894 0.993253 118.92
8.77182000 0.993246 118.91 0.115626 28.891 0.115626 28.891 0.993248 118.91
8.77184000 0.993242 118.91 0.115671 28.889 0.115671 28.889 0.993244 118.91
8.77186000 0.993237 118.90 0.115715 28.886 0.115715 28.886 0.993239 118.91
8.77188000 0.993232 118.90 0.115759 28.884 0.115759 28.884 0.993234 118.91
8.77190000 0.993228 118.90 0.115803 28.882 0.115803 28.882 0.993230 118.90
8.77192000 0.993223 118.89 0.115846 28.879 0.115846 28.879 0.993225 118.90
8.77194000 0.993219 118.89 0.115888 28.877 0.115888 28.877 0.993221 118.90
8.77196000 0.993215 118.89 0.115930 28.875 0.115930 28.875 0.993216 118.90
8.77198000 0.993210 118.89 0.115971 28.872 0.115971 28.872 0.993212 118.89
8.77200000 0.993206 118.88 0.116012 28.870 0.116012 28.870 0.993208 118.89
8.77202000 0.993202 118.88 0.116053 28.868 0.116053 28.868 0.993204 118.89
8.77204000 0.993198 118.88 0.116092 28.866 0.116092 28.866 0.993199 118.89
8.77206000 0.993193 118.88 0.116132 28.864 0.116132 28.864 0.993195 118.88
8.77208000 0.993189 118.87 0.116171 28.862 0.116171 28.862 0.993191 118.88
8.77210000 0.993185 118.87 0.116209 28.859 0.116209 28.859 0.993187 118.88
8.77212000 0.993181 118.87 0.116247 28.857 0.116247 28.857 0.993183 118.88
8.77214000 0.993177 118.87 0.116285 28.855 0.116285 28.855 0.993179 118.87
8.77216000 0.993173 118.87 0.116322 28.853 0.116322 28.853 0.993175 118.87
8.77218000 0.993169 118.86 0.116358 28.851 0.116358 28.851 0.993171 118.87
8.77220000 0.993166 118.86 0.116395 28.849 0.116395 28.849 0.993167 118.87
8.77222000 0.993162 118.86 0.116430 28.847 0.116430 28.847 0.993163 118.87
8.77224000 0.993158 118.86 0.116466 28.845 0.116466 28.845 0.993160 118.86
8.77226000 0.993154 118.85 0.116501 28.843 0.116501 28.843 0.993156 118.86
8.77228000 0.993151 118.85 0.116535 28.841 0.116535 28.841 0.993152 118.86
8.77230000 0.993147 118.85 0.116569 28.839 0.116569 28.839 0.993149 118.86
8.77232000 0.993143 118.85 0.116603 28.837 0.116603 28.837 0.993145 118.86
8.77234000 0.993140 118.85 0.116637 28.836 0.116637 28.836 0.993141 118.85
8.77236000 0.993136 118.84 0.116670 28.834 0.116670 28.834 0.993138 118.85
8.77238000 0.993133 118.84 0.116702 28.832 0.116702 28.832 0.993134 118.85
8.77240000 0.993129 118.84 0.116735 28.830 0.116735 28.830 0.993131 118.85
8.77242000 0.993126 118.84 0.116767 28.828 0.116767 28.828 0.993127 118.85
8.77244000 0.993123 118.84 0.116798 28.826 0.116798 28.826 0.993124 118.84
8.77246000 0.993119 118.83 0.116830 28.825 0.116830 28.825 0.993121 118.84
8.77248000 0.993116 118.83 0.116861 28.823 0.116861 28.823 0.993117 118.84
8.77250000 0.993113 118.83 0.116891 28.821 0.116891 28.821 0.993114 118.84
8.77252000 0.993109 118.83 0.116922 28.819 0.116922 28.819 0.993111 118.84
8.77254000 0.993106 118.83 0.116952 28.818 0.116952 28.818 0.993107 118.83
8.77256000 0.993103 118.82 0.116981 28.816 0.116981 28.816 0.993104 118.83
8.77258000 0.993100 118.82 0.117011 28.814 0.117011 28.814 0.993101 118.83
8.77260000 0.993097 118.82 0.117040 28.813 0.117040 28.813 0.993098 118.83
8.77262000 0.993094 118.82 0.117068 28.811 0.117068 28.811 0.993095 118.83
8.77264000 0.993090 118.82 0.117097 28.809 0.117097 28.809 0.993092 118.83
8.77266000 0.993087 118.81 0.117125 28.808 0.117125 28.808 0.993089 118.82
8.77268000 0.993084 118.81 0.117153 28.806 0.117153 28.806 0.993086 118.82
8.77270000 0.993081 118.81 0.117181 28.805 0.117181 28.805 0.993083 118.82
8.77272000 0.993078 118.81 0.117208 28.803 0.117208 28.803 0.993080 118.82
8.77274000 0.993075 118.81 0.117235 28.802 0.117235 28.802 0.993077 118.82
8.77276000 0.993073 118.81 0.117262 28.800 0.117262 28.800 0.993074 118.82
8.77278000 0.993070 118.80 0.117288 28.798 0.117288 28.798 0.993071 118.81
8.77280000 0.993067 118.80 0.117314 28.797 0.117314 28.797 0.993068 118.81
8.77282000 0.993064 118.80 0.117340 28.795 0.117340 28.795 0.993065 118.81