! Sonnet Data File
! From: emgraph Version : 16.52
! From Project: Qubit_Xmon2_brg
! Data is De-embedded 
! Data File Written: 10/24/2017 23:45:54
!< HDATE 10/24/2017 16:04:25
!< MDATE 10/24/2017 16:04:25
!< PARAMS
!< Lj = 11.0
!< Gap = 6.0
!< Pwid = 2000.0
!< Airgap = 6.0
!< Width = 10.0
!< Bwid = 8.0
!< Dis1 = 150.0
!< Dis2 = 156.0
!< END PARAMS
# GHZ S MA R 34.70000
8.68500000 0.974408 99.503 0.224724 9.3905 0.224724 9.3905 0.974408 99.281
!< P1 F=8.685 Eeff=(5.13559215 -5.6621e-5) Z0=(34.6542042 -9.3986e-5) R=0.0 C=0.0 
!< P2 F=8.685 Eeff=(5.13559215 -5.6621e-5) Z0=(34.6542042 -9.3986e-5) R=0.0 C=0.0 
8.68500500 0.974407 99.502 0.224727 9.3903 0.224727 9.3903 0.974407 99.281
8.68501000 0.974407 99.502 0.224729 9.3901 0.224729 9.3901 0.974406 99.281
8.68501500 0.974406 99.502 0.224732 9.3899 0.224732 9.3899 0.974406 99.281
8.68502000 0.974405 99.502 0.224735 9.3897 0.224735 9.3897 0.974405 99.281
8.68502500 0.974405 99.502 0.224737 9.3896 0.224737 9.3896 0.974405 99.281
8.68503000 0.974404 99.501 0.224740 9.3894 0.224740 9.3894 0.974404 99.280
8.68503500 0.974403 99.501 0.224743 9.3892 0.224743 9.3892 0.974403 99.280
8.68504000 0.974403 99.501 0.224745 9.3890 0.224745 9.3890 0.974403 99.280
8.68504500 0.974402 99.501 0.224748 9.3888 0.224748 9.3888 0.974402 99.280
8.68505000 0.974402 99.501 0.224750 9.3886 0.224750 9.3886 0.974401 99.280
8.68505500 0.974401 99.500 0.224753 9.3884 0.224753 9.3884 0.974401 99.279
8.68506000 0.974400 99.500 0.224756 9.3882 0.224756 9.3882 0.974400 99.279
8.68506500 0.974400 99.500 0.224758 9.3880 0.224758 9.3880 0.974400 99.279
8.68507000 0.974399 99.500 0.224761 9.3878 0.224761 9.3878 0.974399 99.279
8.68507500 0.974398 99.500 0.224764 9.3876 0.224764 9.3876 0.974398 99.279
8.68508000 0.974398 99.499 0.224766 9.3874 0.224766 9.3874 0.974398 99.278
8.68508500 0.974397 99.499 0.224769 9.3872 0.224769 9.3872 0.974397 99.278
8.68509000 0.974397 99.499 0.224772 9.3870 0.224772 9.3870 0.974396 99.278
8.68509500 0.974396 99.499 0.224775 9.3868 0.224775 9.3868 0.974396 99.278
8.68510000 0.974395 99.499 0.224777 9.3866 0.224777 9.3866 0.974395 99.278
8.68510500 0.974395 99.499 0.224780 9.3864 0.224780 9.3864 0.974395 99.277
8.68511000 0.974394 99.498 0.224783 9.3862 0.224783 9.3862 0.974394 99.277
8.68511500 0.974393 99.498 0.224785 9.3860 0.224785 9.3860 0.974393 99.277
8.68512000 0.974393 99.498 0.224788 9.3858 0.224788 9.3858 0.974393 99.277
8.68512500 0.974392 99.498 0.224791 9.3856 0.224791 9.3856 0.974392 99.277
8.68513000 0.974391 99.498 0.224793 9.3854 0.224793 9.3854 0.974391 99.276
8.68513500 0.974391 99.497 0.224796 9.3852 0.224796 9.3852 0.974391 99.276
8.68514000 0.974390 99.497 0.224799 9.3850 0.224799 9.3850 0.974390 99.276
8.68514500 0.974390 99.497 0.224802 9.3848 0.224802 9.3848 0.974389 99.276
8.68515000 0.974389 99.497 0.224804 9.3846 0.224804 9.3846 0.974389 99.276
8.68515500 0.974388 99.497 0.224807 9.3844 0.224807 9.3844 0.974388 99.275
8.68516000 0.974388 99.496 0.224810 9.3842 0.224810 9.3842 0.974388 99.275
8.68516500 0.974387 99.496 0.224812 9.3840 0.224812 9.3840 0.974387 99.275
8.68517000 0.974386 99.496 0.224815 9.3838 0.224815 9.3838 0.974386 99.275
8.68517500 0.974386 99.496 0.224818 9.3836 0.224818 9.3836 0.974386 99.275
8.68518000 0.974385 99.496 0.224821 9.3834 0.224821 9.3834 0.974385 99.274
8.68518500 0.974384 99.495 0.224823 9.3831 0.224823 9.3831 0.974384 99.274
8.68519000 0.974384 99.495 0.224826 9.3829 0.224826 9.3829 0.974384 99.274
8.68519500 0.974383 99.495 0.224829 9.3827 0.224829 9.3827 0.974383 99.274
8.68520000 0.974382 99.495 0.224832 9.3825 0.224832 9.3825 0.974382 99.274
8.68520500 0.974382 99.495 0.224834 9.3823 0.224834 9.3823 0.974382 99.273
8.68521000 0.974381 99.494 0.224837 9.3821 0.224837 9.3821 0.974381 99.273
8.68521500 0.974381 99.494 0.224840 9.3819 0.224840 9.3819 0.974380 99.273
8.68522000 0.974380 99.494 0.224843 9.3817 0.224843 9.3817 0.974380 99.273
8.68522500 0.974379 99.494 0.224845 9.3815 0.224845 9.3815 0.974379 99.273
8.68523000 0.974379 99.494 0.224848 9.3813 0.224848 9.3813 0.974378 99.272
8.68523500 0.974378 99.493 0.224851 9.3811 0.224851 9.3811 0.974378 99.272
8.68524000 0.974377 99.493 0.224854 9.3809 0.224854 9.3809 0.974377 99.272
8.68524500 0.974377 99.493 0.224856 9.3807 0.224856 9.3807 0.974377 99.272
8.68525000 0.974376 99.493 0.224859 9.3805 0.224859 9.3805 0.974376 99.272
8.68525500 0.974375 99.493 0.224862 9.3803 0.224862 9.3803 0.974375 99.271
8.68526000 0.974375 99.492 0.224865 9.3801 0.224865 9.3801 0.974375 99.271
8.68526500 0.974374 99.492 0.224868 9.3799 0.224868 9.3799 0.974374 99.271
8.68527000 0.974373 99.492 0.224870 9.3797 0.224870 9.3797 0.974373 99.271
8.68527500 0.974373 99.492 0.224873 9.3795 0.224873 9.3795 0.974373 99.271
8.68528000 0.974372 99.492 0.224876 9.3793 0.224876 9.3793 0.974372 99.270
8.68528500 0.974371 99.491 0.224879 9.3790 0.224879 9.3790 0.974371 99.270
8.68529000 0.974371 99.491 0.224882 9.3788 0.224882 9.3788 0.974371 99.270
8.68529500 0.974370 99.491 0.224884 9.3786 0.224884 9.3786 0.974370 99.270
8.68530000 0.974369 99.491 0.224887 9.3784 0.224887 9.3784 0.974369 99.270
8.68530500 0.974369 99.490 0.224890 9.3782 0.224890 9.3782 0.974369 99.269
8.68531000 0.974368 99.490 0.224893 9.3780 0.224893 9.3780 0.974368 99.269
8.68531500 0.974367 99.490 0.224896 9.3778 0.224896 9.3778 0.974367 99.269
8.68532000 0.974367 99.490 0.224899 9.3776 0.224899 9.3776 0.974367 99.269
8.68532500 0.974366 99.490 0.224901 9.3774 0.224901 9.3774 0.974366 99.268
8.68533000 0.974365 99.489 0.224904 9.3772 0.224904 9.3772 0.974365 99.268
8.68533500 0.974365 99.489 0.224907 9.3770 0.224907 9.3770 0.974365 99.268
8.68534000 0.974364 99.489 0.224910 9.3768 0.224910 9.3768 0.974364 99.268
8.68534500 0.974363 99.489 0.224913 9.3765 0.224913 9.3765 0.974363 99.268
8.68535000 0.974363 99.489 0.224916 9.3763 0.224916 9.3763 0.974363 99.267
8.68535500 0.974362 99.488 0.224918 9.3761 0.224918 9.3761 0.974362 99.267
8.68536000 0.974361 99.488 0.224921 9.3759 0.224921 9.3759 0.974361 99.267
8.68536500 0.974361 99.488 0.224924 9.3757 0.224924 9.3757 0.974361 99.267
8.68537000 0.974360 99.488 0.224927 9.3755 0.224927 9.3755 0.974360 99.267
8.68537500 0.974359 99.488 0.224930 9.3753 0.224930 9.3753 0.974359 99.266
8.68538000 0.974359 99.487 0.224933 9.3751 0.224933 9.3751 0.974359 99.266
8.68538500 0.974358 99.487 0.224936 9.3749 0.224936 9.3749 0.974358 99.266
8.68539000 0.974357 99.487 0.224938 9.3747 0.224938 9.3747 0.974357 99.266
8.68539500 0.974357 99.487 0.224941 9.3744 0.224941 9.3744 0.974357 99.266
8.68540000 0.974356 99.487 0.224944 9.3742 0.224944 9.3742 0.974356 99.265
8.68540500 0.974355 99.486 0.224947 9.3740 0.224947 9.3740 0.974355 99.265
8.68541000 0.974355 99.486 0.224950 9.3738 0.224950 9.3738 0.974355 99.265
8.68541500 0.974354 99.486 0.224953 9.3736 0.224953 9.3736 0.974354 99.265
8.68542000 0.974353 99.486 0.224956 9.3734 0.224956 9.3734 0.974353 99.265
8.68542500 0.974353 99.486 0.224959 9.3732 0.224959 9.3732 0.974352 99.264
8.68543000 0.974352 99.485 0.224962 9.3730 0.224962 9.3730 0.974352 99.264
8.68543500 0.974351 99.485 0.224965 9.3727 0.224965 9.3727 0.974351 99.264
8.68544000 0.974351 99.485 0.224967 9.3725 0.224967 9.3725 0.974350 99.264
8.68544500 0.974350 99.485 0.224970 9.3723 0.224970 9.3723 0.974350 99.263
8.68545000 0.974349 99.485 0.224973 9.3721 0.224973 9.3721 0.974349 99.263
8.68545500 0.974348 99.484 0.224976 9.3719 0.224976 9.3719 0.974348 99.263
8.68546000 0.974348 99.484 0.224979 9.3717 0.224979 9.3717 0.974348 99.263
8.68546500 0.974347 99.484 0.224982 9.3715 0.224982 9.3715 0.974347 99.263
8.68547000 0.974346 99.484 0.224985 9.3712 0.224985 9.3712 0.974346 99.262
8.68547500 0.974346 99.483 0.224988 9.3710 0.224988 9.3710 0.974346 99.262
8.68548000 0.974345 99.483 0.224991 9.3708 0.224991 9.3708 0.974345 99.262
8.68548500 0.974344 99.483 0.224994 9.3706 0.224994 9.3706 0.974344 99.262
8.68549000 0.974344 99.483 0.224997 9.3704 0.224997 9.3704 0.974344 99.262
8.68549500 0.974343 99.483 0.225000 9.3702 0.225000 9.3702 0.974343 99.261
8.68550000 0.974342 99.482 0.225003 9.3700 0.225003 9.3700 0.974342 99.261
8.68550500 0.974342 99.482 0.225006 9.3697 0.225006 9.3697 0.974341 99.261
8.68551000 0.974341 99.482 0.225009 9.3695 0.225009 9.3695 0.974341 99.261
8.68551500 0.974340 99.482 0.225011 9.3693 0.225011 9.3693 0.974340 99.261
8.68552000 0.974339 99.482 0.225014 9.3691 0.225014 9.3691 0.974339 99.260
8.68552500 0.974339 99.481 0.225017 9.3689 0.225017 9.3689 0.974339 99.260
8.68553000 0.974338 99.481 0.225020 9.3686 0.225020 9.3686 0.974338 99.260
8.68553500 0.974337 99.481 0.225023 9.3684 0.225023 9.3684 0.974337 99.260
8.68554000 0.974337 99.481 0.225026 9.3682 0.225026 9.3682 0.974337 99.259
8.68554500 0.974336 99.480 0.225029 9.3680 0.225029 9.3680 0.974336 99.259
8.68555000 0.974335 99.480 0.225032 9.3678 0.225032 9.3678 0.974335 99.259
8.68555500 0.974335 99.480 0.225035 9.3676 0.225035 9.3676 0.974334 99.259
8.68556000 0.974334 99.480 0.225038 9.3673 0.225038 9.3673 0.974334 99.259
8.68556500 0.974333 99.480 0.225041 9.3671 0.225041 9.3671 0.974333 99.258
8.68557000 0.974332 99.479 0.225044 9.3669 0.225044 9.3669 0.974332 99.258
8.68557500 0.974332 99.479 0.225047 9.3667 0.225047 9.3667 0.974332 99.258
8.68558000 0.974331 99.479 0.225050 9.3665 0.225050 9.3665 0.974331 99.258
8.68558500 0.974330 99.479 0.225053 9.3662 0.225053 9.3662 0.974330 99.258
8.68559000 0.974330 99.479 0.225056 9.3660 0.225056 9.3660 0.974329 99.257
8.68559500 0.974329 99.478 0.225059 9.3658 0.225059 9.3658 0.974329 99.257
8.68560000 0.974328 99.478 0.225062 9.3656 0.225062 9.3656 0.974328 99.257
8.68560500 0.974327 99.478 0.225065 9.3654 0.225065 9.3654 0.974327 99.257
8.68561000 0.974327 99.478 0.225068 9.3651 0.225068 9.3651 0.974327 99.256
8.68561500 0.974326 99.477 0.225072 9.3649 0.225072 9.3649 0.974326 99.256
8.68562000 0.974325 99.477 0.225075 9.3647 0.225075 9.3647 0.974325 99.256
8.68562500 0.974325 99.477 0.225078 9.3645 0.225078 9.3645 0.974324 99.256
8.68563000 0.974324 99.477 0.225081 9.3643 0.225081 9.3643 0.974324 99.256
8.68563500 0.974323 99.477 0.225084 9.3640 0.225084 9.3640 0.974323 99.255
8.68564000 0.974322 99.476 0.225087 9.3638 0.225087 9.3638 0.974322 99.255
8.68564500 0.974322 99.476 0.225090 9.3636 0.225090 9.3636 0.974322 99.255
8.68565000 0.974321 99.476 0.225093 9.3634 0.225093 9.3634 0.974321 99.255
8.68565500 0.974320 99.476 0.225096 9.3631 0.225096 9.3631 0.974320 99.254
8.68566000 0.974319 99.476 0.225099 9.3629 0.225099 9.3629 0.974319 99.254
8.68566500 0.974319 99.475 0.225102 9.3627 0.225102 9.3627 0.974319 99.254
8.68567000 0.974318 99.475 0.225105 9.3625 0.225105 9.3625 0.974318 99.254
8.68567500 0.974317 99.475 0.225108 9.3623 0.225108 9.3623 0.974317 99.254
8.68568000 0.974317 99.475 0.225111 9.3620 0.225111 9.3620 0.974316 99.253
8.68568500 0.974316 99.474 0.225114 9.3618 0.225114 9.3618 0.974316 99.253
8.68569000 0.974315 99.474 0.225118 9.3616 0.225118 9.3616 0.974315 99.253
8.68569500 0.974314 99.474 0.225121 9.3614 0.225121 9.3614 0.974314 99.253
8.68570000 0.974314 99.474 0.225124 9.3611 0.225124 9.3611 0.974314 99.252
8.68570500 0.974313 99.474 0.225127 9.3609 0.225127 9.3609 0.974313 99.252
8.68571000 0.974312 99.473 0.225130 9.3607 0.225130 9.3607 0.974312 99.252
8.68571500 0.974311 99.473 0.225133 9.3605 0.225133 9.3605 0.974311 99.252
8.68572000 0.974311 99.473 0.225136 9.3602 0.225136 9.3602 0.974311 99.252
8.68572500 0.974310 99.473 0.225139 9.3600 0.225139 9.3600 0.974310 99.251
8.68573000 0.974309 99.472 0.225142 9.3598 0.225142 9.3598 0.974309 99.251
8.68573500 0.974309 99.472 0.225146 9.3595 0.225146 9.3595 0.974308 99.251
8.68574000 0.974308 99.472 0.225149 9.3593 0.225149 9.3593 0.974308 99.251
8.68574500 0.974307 99.472 0.225152 9.3591 0.225152 9.3591 0.974307 99.250
8.68575000 0.974306 99.472 0.225155 9.3589 0.225155 9.3589 0.974306 99.250
8.68575500 0.974306 99.471 0.225158 9.3586 0.225158 9.3586 0.974305 99.250
8.68576000 0.974305 99.471 0.225161 9.3584 0.225161 9.3584 0.974305 99.250
8.68576500 0.974304 99.471 0.225164 9.3582 0.225164 9.3582 0.974304 99.250
8.68577000 0.974303 99.471 0.225168 9.3580 0.225168 9.3580 0.974303 99.249
8.68577500 0.974303 99.470 0.225171 9.3577 0.225171 9.3577 0.974302 99.249
8.68578000 0.974302 99.470 0.225174 9.3575 0.225174 9.3575 0.974302 99.249
8.68578500 0.974301 99.470 0.225177 9.3573 0.225177 9.3573 0.974301 99.249
8.68579000 0.974300 99.470 0.225180 9.3570 0.225180 9.3570 0.974300 99.248
8.68579500 0.974300 99.470 0.225183 9.3568 0.225183 9.3568 0.974299 99.248
8.68580000 0.974299 99.469 0.225187 9.3566 0.225187 9.3566 0.974299 99.248
8.68580500 0.974298 99.469 0.225190 9.3563 0.225190 9.3563 0.974298 99.248
8.68581000 0.974297 99.469 0.225193 9.3561 0.225193 9.3561 0.974297 99.248
8.68581500 0.974297 99.469 0.225196 9.3559 0.225196 9.3559 0.974296 99.247
8.68582000 0.974296 99.468 0.225199 9.3557 0.225199 9.3557 0.974296 99.247
8.68582500 0.974295 99.468 0.225203 9.3554 0.225203 9.3554 0.974295 99.247
8.68583000 0.974294 99.468 0.225206 9.3552 0.225206 9.3552 0.974294 99.247
8.68583500 0.974294 99.468 0.225209 9.3550 0.225209 9.3550 0.974293 99.246
8.68584000 0.974293 99.467 0.225212 9.3547 0.225212 9.3547 0.974293 99.246
8.68584500 0.974292 99.467 0.225215 9.3545 0.225215 9.3545 0.974292 99.246
8.68585000 0.974291 99.467 0.225219 9.3543 0.225219 9.3543 0.974291 99.246
8.68585500 0.974291 99.467 0.225222 9.3540 0.225222 9.3540 0.974290 99.245
8.68586000 0.974290 99.467 0.225225 9.3538 0.225225 9.3538 0.974290 99.245
8.68586500 0.974289 99.466 0.225228 9.3536 0.225228 9.3536 0.974289 99.245
8.68587000 0.974288 99.466 0.225232 9.3533 0.225232 9.3533 0.974288 99.245
8.68587500 0.974287 99.466 0.225235 9.3531 0.225235 9.3531 0.974287 99.245
8.68588000 0.974287 99.466 0.225238 9.3529 0.225238 9.3529 0.974287 99.244
8.68588500 0.974286 99.465 0.225241 9.3526 0.225241 9.3526 0.974286 99.244
8.68589000 0.974285 99.465 0.225245 9.3524 0.225245 9.3524 0.974285 99.244
8.68589500 0.974284 99.465 0.225248 9.3522 0.225248 9.3522 0.974284 99.244
8.68590000 0.974284 99.465 0.225251 9.3519 0.225251 9.3519 0.974283 99.243
8.68590500 0.974283 99.465 0.225254 9.3517 0.225254 9.3517 0.974283 99.243
8.68591000 0.974282 99.464 0.225258 9.3515 0.225258 9.3515 0.974282 99.243
8.68591500 0.974281 99.464 0.225261 9.3512 0.225261 9.3512 0.974281 99.243
8.68592000 0.974281 99.464 0.225264 9.3510 0.225264 9.3510 0.974280 99.242
8.68592500 0.974280 99.464 0.225267 9.3507 0.225267 9.3507 0.974280 99.242
8.68593000 0.974279 99.463 0.225271 9.3505 0.225271 9.3505 0.974279 99.242
8.68593500 0.974278 99.463 0.225274 9.3503 0.225274 9.3503 0.974278 99.242
8.68594000 0.974277 99.463 0.225277 9.3500 0.225277 9.3500 0.974277 99.242
8.68594500 0.974277 99.463 0.225281 9.3498 0.225281 9.3498 0.974277 99.241
8.68595000 0.974276 99.462 0.225284 9.3496 0.225284 9.3496 0.974276 99.241
8.68595500 0.974275 99.462 0.225287 9.3493 0.225287 9.3493 0.974275 99.241
8.68596000 0.974274 99.462 0.225291 9.3491 0.225291 9.3491 0.974274 99.241
8.68596500 0.974274 99.462 0.225294 9.3489 0.225294 9.3489 0.974273 99.240
8.68597000 0.974273 99.461 0.225297 9.3486 0.225297 9.3486 0.974273 99.240
8.68597500 0.974272 99.461 0.225300 9.3484 0.225300 9.3484 0.974272 99.240
8.68598000 0.974271 99.461 0.225304 9.3481 0.225304 9.3481 0.974271 99.240
8.68598500 0.974270 99.461 0.225307 9.3479 0.225307 9.3479 0.974270 99.239
8.68599000 0.974270 99.461 0.225311 9.3477 0.225311 9.3477 0.974269 99.239
8.68599500 0.974269 99.460 0.225314 9.3474 0.225314 9.3474 0.974269 99.239
8.68600000 0.974268 99.460 0.225317 9.3472 0.225317 9.3472 0.974268 99.239
8.68600500 0.974267 99.460 0.225321 9.3469 0.225321 9.3469 0.974267 99.238
8.68601000 0.974266 99.460 0.225324 9.3467 0.225324 9.3467 0.974266 99.238
8.68601500 0.974266 99.459 0.225327 9.3465 0.225327 9.3465 0.974265 99.238
8.68602000 0.974265 99.459 0.225331 9.3462 0.225331 9.3462 0.974265 99.238
8.68602500 0.974264 99.459 0.225334 9.3460 0.225334 9.3460 0.974264 99.238
8.68603000 0.974263 99.459 0.225337 9.3457 0.225337 9.3457 0.974263 99.237
8.68603500 0.974262 99.458 0.225341 9.3455 0.225341 9.3455 0.974262 99.237
8.68604000 0.974262 99.458 0.225344 9.3452 0.225344 9.3452 0.974261 99.237
8.68604500 0.974261 99.458 0.225348 9.3450 0.225348 9.3450 0.974261 99.237
8.68605000 0.974260 99.458 0.225351 9.3448 0.225351 9.3448 0.974260 99.236
8.68605500 0.974259 99.457 0.225354 9.3445 0.225354 9.3445 0.974259 99.236
8.68606000 0.974258 99.457 0.225358 9.3443 0.225358 9.3443 0.974258 99.236
8.68606500 0.974258 99.457 0.225361 9.3440 0.225361 9.3440 0.974257 99.236
8.68607000 0.974257 99.457 0.225365 9.3438 0.225365 9.3438 0.974257 99.235
8.68607500 0.974256 99.457 0.225368 9.3435 0.225368 9.3435 0.974256 99.235
8.68608000 0.974255 99.456 0.225371 9.3433 0.225371 9.3433 0.974255 99.235
8.68608500 0.974254 99.456 0.225375 9.3431 0.225375 9.3431 0.974254 99.235
8.68609000 0.974254 99.456 0.225378 9.3428 0.225378 9.3428 0.974253 99.234
8.68609500 0.974253 99.456 0.225382 9.3426 0.225382 9.3426 0.974253 99.234
8.68610000 0.974252 99.455 0.225385 9.3423 0.225385 9.3423 0.974252 99.234
8.68610500 0.974251 99.455 0.225389 9.3421 0.225389 9.3421 0.974251 99.234
8.68611000 0.974250 99.455 0.225392 9.3418 0.225392 9.3418 0.974250 99.233
8.68611500 0.974249 99.455 0.225395 9.3416 0.225395 9.3416 0.974249 99.233
8.68612000 0.974249 99.454 0.225399 9.3413 0.225399 9.3413 0.974249 99.233
8.68612500 0.974248 99.454 0.225402 9.3411 0.225402 9.3411 0.974248 99.233
8.68613000 0.974247 99.454 0.225406 9.3408 0.225406 9.3408 0.974247 99.232
8.68613500 0.974246 99.454 0.225409 9.3406 0.225409 9.3406 0.974246 99.232
8.68614000 0.974245 99.453 0.225413 9.3403 0.225413 9.3403 0.974245 99.232
8.68614500 0.974245 99.453 0.225416 9.3401 0.225416 9.3401 0.974244 99.232
8.68615000 0.974244 99.453 0.225420 9.3398 0.225420 9.3398 0.974244 99.231
8.68615500 0.974243 99.453 0.225423 9.3396 0.225423 9.3396 0.974243 99.231
8.68616000 0.974242 99.452 0.225427 9.3394 0.225427 9.3394 0.974242 99.231
8.68616500 0.974241 99.452 0.225430 9.3391 0.225430 9.3391 0.974241 99.231
8.68617000 0.974240 99.452 0.225434 9.3389 0.225434 9.3389 0.974240 99.230
8.68617500 0.974240 99.452 0.225437 9.3386 0.225437 9.3386 0.974239 99.230
8.68618000 0.974239 99.451 0.225441 9.3384 0.225441 9.3384 0.974239 99.230
8.68618500 0.974238 99.451 0.225444 9.3381 0.225444 9.3381 0.974238 99.230
8.68619000 0.974237 99.451 0.225448 9.3379 0.225448 9.3379 0.974237 99.230
8.68619500 0.974236 99.451 0.225451 9.3376 0.225451 9.3376 0.974236 99.229
8.68620000 0.974235 99.450 0.225455 9.3373 0.225455 9.3373 0.974235 99.229
8.68620500 0.974235 99.450 0.225458 9.3371 0.225458 9.3371 0.974234 99.229
8.68621000 0.974234 99.450 0.225462 9.3368 0.225462 9.3368 0.974234 99.229
8.68621500 0.974233 99.450 0.225465 9.3366 0.225465 9.3366 0.974233 99.228
8.68622000 0.974232 99.449 0.225469 9.3363 0.225469 9.3363 0.974232 99.228
8.68622500 0.974231 99.449 0.225473 9.3361 0.225473 9.3361 0.974231 99.228
8.68623000 0.974230 99.449 0.225476 9.3358 0.225476 9.3358 0.974230 99.228
8.68623500 0.974230 99.449 0.225480 9.3356 0.225480 9.3356 0.974229 99.227
8.68624000 0.974229 99.448 0.225483 9.3353 0.225483 9.3353 0.974229 99.227
8.68624500 0.974228 99.448 0.225487 9.3351 0.225487 9.3351 0.974228 99.227
8.68625000 0.974227 99.448 0.225490 9.3348 0.225490 9.3348 0.974227 99.227
8.68625500 0.974226 99.448 0.225494 9.3346 0.225494 9.3346 0.974226 99.226
8.68626000 0.974225 99.448 0.225498 9.3343 0.225498 9.3343 0.974225 99.226
8.68626500 0.974224 99.447 0.225501 9.3341 0.225501 9.3341 0.974224 99.226
8.68627000 0.974224 99.447 0.225505 9.3338 0.225505 9.3338 0.974224 99.226
8.68627500 0.974223 99.447 0.225508 9.3335 0.225508 9.3335 0.974223 99.225
8.68628000 0.974222 99.447 0.225512 9.3333 0.225512 9.3333 0.974222 99.225
8.68628500 0.974221 99.446 0.225516 9.3330 0.225516 9.3330 0.974221 99.225
8.68629000 0.974220 99.446 0.225519 9.3328 0.225519 9.3328 0.974220 99.225
8.68629500 0.974219 99.446 0.225523 9.3325 0.225523 9.3325 0.974219 99.224
8.68630000 0.974218 99.445 0.225526 9.3323 0.225526 9.3323 0.974218 99.224
8.68630500 0.974218 99.445 0.225530 9.3320 0.225530 9.3320 0.974218 99.224
8.68631000 0.974217 99.445 0.225534 9.3318 0.225534 9.3318 0.974217 99.224
8.68631500 0.974216 99.445 0.225537 9.3315 0.225537 9.3315 0.974216 99.223
8.68632000 0.974215 99.444 0.225541 9.3312 0.225541 9.3312 0.974215 99.223
8.68632500 0.974214 99.444 0.225545 9.3310 0.225545 9.3310 0.974214 99.223
8.68633000 0.974213 99.444 0.225548 9.3307 0.225548 9.3307 0.974213 99.222
8.68633500 0.974212 99.444 0.225552 9.3305 0.225552 9.3305 0.974212 99.222
8.68634000 0.974212 99.443 0.225556 9.3302 0.225556 9.3302 0.974211 99.222
8.68634500 0.974211 99.443 0.225559 9.3299 0.225559 9.3299 0.974211 99.222
8.68635000 0.974210 99.443 0.225563 9.3297 0.225563 9.3297 0.974210 99.221
8.68635500 0.974209 99.443 0.225567 9.3294 0.225567 9.3294 0.974209 99.221
8.68636000 0.974208 99.442 0.225570 9.3292 0.225570 9.3292 0.974208 99.221
8.68636500 0.974207 99.442 0.225574 9.3289 0.225574 9.3289 0.974207 99.221
8.68637000 0.974206 99.442 0.225578 9.3286 0.225578 9.3286 0.974206 99.220
8.68637500 0.974205 99.442 0.225581 9.3284 0.225581 9.3284 0.974205 99.220
8.68638000 0.974205 99.441 0.225585 9.3281 0.225585 9.3281 0.974204 99.220
8.68638500 0.974204 99.441 0.225589 9.3278 0.225589 9.3278 0.974204 99.220
8.68639000 0.974203 99.441 0.225593 9.3276 0.225593 9.3276 0.974203 99.219
8.68639500 0.974202 99.441 0.225596 9.3273 0.225596 9.3273 0.974202 99.219
8.68640000 0.974201 99.440 0.225600 9.3271 0.225600 9.3271 0.974201 99.219
8.68640500 0.974200 99.440 0.225604 9.3268 0.225604 9.3268 0.974200 99.219
8.68641000 0.974199 99.440 0.225608 9.3265 0.225608 9.3265 0.974199 99.218
8.68641500 0.974198 99.440 0.225611 9.3263 0.225611 9.3263 0.974198 99.218
8.68642000 0.974198 99.439 0.225615 9.3260 0.225615 9.3260 0.974197 99.218
8.68642500 0.974197 99.439 0.225619 9.3257 0.225619 9.3257 0.974196 99.218
8.68643000 0.974196 99.439 0.225623 9.3255 0.225623 9.3255 0.974196 99.217
8.68643500 0.974195 99.439 0.225626 9.3252 0.225626 9.3252 0.974195 99.217
8.68644000 0.974194 99.438 0.225630 9.3249 0.225630 9.3249 0.974194 99.217
8.68644500 0.974193 99.438 0.225634 9.3247 0.225634 9.3247 0.974193 99.217
8.68645000 0.974192 99.438 0.225638 9.3244 0.225638 9.3244 0.974192 99.216
8.68645500 0.974191 99.438 0.225641 9.3241 0.225641 9.3241 0.974191 99.216
8.68646000 0.974190 99.437 0.225645 9.3239 0.225645 9.3239 0.974190 99.216
8.68646500 0.974189 99.437 0.225649 9.3236 0.225649 9.3236 0.974189 99.215
8.68647000 0.974189 99.437 0.225653 9.3233 0.225653 9.3233 0.974188 99.215
8.68647500 0.974188 99.437 0.225657 9.3231 0.225657 9.3231 0.974188 99.215
8.68648000 0.974187 99.436 0.225660 9.3228 0.225660 9.3228 0.974187 99.215
8.68648500 0.974186 99.436 0.225664 9.3225 0.225664 9.3225 0.974186 99.214
8.68649000 0.974185 99.436 0.225668 9.3223 0.225668 9.3223 0.974185 99.214
8.68649500 0.974184 99.435 0.225672 9.3220 0.225672 9.3220 0.974184 99.214
8.68650000 0.974183 99.435 0.225676 9.3217 0.225676 9.3217 0.974183 99.214
8.68650500 0.974182 99.435 0.225680 9.3215 0.225680 9.3215 0.974182 99.213
8.68651000 0.974181 99.435 0.225683 9.3212 0.225683 9.3212 0.974181 99.213
8.68651500 0.974180 99.434 0.225687 9.3209 0.225687 9.3209 0.974180 99.213
8.68652000 0.974179 99.434 0.225691 9.3206 0.225691 9.3206 0.974179 99.213
8.68652500 0.974179 99.434 0.225695 9.3204 0.225695 9.3204 0.974178 99.212
8.68653000 0.974178 99.434 0.225699 9.3201 0.225699 9.3201 0.974178 99.212
8.68653500 0.974177 99.433 0.225703 9.3198 0.225703 9.3198 0.974177 99.212
8.68654000 0.974176 99.433 0.225707 9.3196 0.225707 9.3196 0.974176 99.212
8.68654500 0.974175 99.433 0.225710 9.3193 0.225710 9.3193 0.974175 99.211
8.68655000 0.974174 99.433 0.225714 9.3190 0.225714 9.3190 0.974174 99.211
8.68655500 0.974173 99.432 0.225718 9.3187 0.225718 9.3187 0.974173 99.211
8.68656000 0.974172 99.432 0.225722 9.3185 0.225722 9.3185 0.974172 99.210
8.68656500 0.974171 99.432 0.225726 9.3182 0.225726 9.3182 0.974171 99.210
8.68657000 0.974170 99.431 0.225730 9.3179 0.225730 9.3179 0.974170 99.210
8.68657500 0.974169 99.431 0.225734 9.3176 0.225734 9.3176 0.974169 99.210
8.68658000 0.974168 99.431 0.225738 9.3174 0.225738 9.3174 0.974168 99.209
8.68658500 0.974167 99.431 0.225742 9.3171 0.225742 9.3171 0.974167 99.209
8.68659000 0.974167 99.430 0.225746 9.3168 0.225746 9.3168 0.974166 99.209
8.68659500 0.974166 99.430 0.225750 9.3165 0.225750 9.3165 0.974165 99.209
8.68660000 0.974165 99.430 0.225754 9.3163 0.225754 9.3163 0.974165 99.208
8.68660500 0.974164 99.430 0.225757 9.3160 0.225757 9.3160 0.974164 99.208
8.68661000 0.974163 99.429 0.225761 9.3157 0.225761 9.3157 0.974163 99.208
8.68661500 0.974162 99.429 0.225765 9.3154 0.225765 9.3154 0.974162 99.207
8.68662000 0.974161 99.429 0.225769 9.3152 0.225769 9.3152 0.974161 99.207
8.68662500 0.974160 99.429 0.225773 9.3149 0.225773 9.3149 0.974160 99.207
8.68663000 0.974159 99.428 0.225777 9.3146 0.225777 9.3146 0.974159 99.207
8.68663500 0.974158 99.428 0.225781 9.3143 0.225781 9.3143 0.974158 99.206
8.68664000 0.974157 99.428 0.225785 9.3140 0.225785 9.3140 0.974157 99.206
8.68664500 0.974156 99.427 0.225789 9.3138 0.225789 9.3138 0.974156 99.206
8.68665000 0.974155 99.427 0.225793 9.3135 0.225793 9.3135 0.974155 99.206
8.68665500 0.974154 99.427 0.225797 9.3132 0.225797 9.3132 0.974154 99.205
8.68666000 0.974153 99.427 0.225801 9.3129 0.225801 9.3129 0.974153 99.205
8.68666500 0.974152 99.426 0.225805 9.3126 0.225805 9.3126 0.974152 99.205
8.68667000 0.974151 99.426 0.225809 9.3124 0.225809 9.3124 0.974151 99.204
8.68667500 0.974150 99.426 0.225813 9.3121 0.225813 9.3121 0.974150 99.204
8.68668000 0.974150 99.426 0.225817 9.3118 0.225817 9.3118 0.974149 99.204
8.68668500 0.974149 99.425 0.225821 9.3115 0.225821 9.3115 0.974148 99.204
8.68669000 0.974148 99.425 0.225825 9.3112 0.225825 9.3112 0.974147 99.203
8.68669500 0.974147 99.425 0.225830 9.3110 0.225830 9.3110 0.974146 99.203
8.68670000 0.974146 99.424 0.225834 9.3107 0.225834 9.3107 0.974146 99.203
8.68670500 0.974145 99.424 0.225838 9.3104 0.225838 9.3104 0.974145 99.202
8.68671000 0.974144 99.424 0.225842 9.3101 0.225842 9.3101 0.974144 99.202
8.68671500 0.974143 99.424 0.225846 9.3098 0.225846 9.3098 0.974143 99.202
8.68672000 0.974142 99.423 0.225850 9.3095 0.225850 9.3095 0.974142 99.202
8.68672500 0.974141 99.423 0.225854 9.3092 0.225854 9.3092 0.974141 99.201
8.68673000 0.974140 99.423 0.225858 9.3090 0.225858 9.3090 0.974140 99.201
8.68673500 0.974139 99.422 0.225862 9.3087 0.225862 9.3087 0.974139 99.201
8.68674000 0.974138 99.422 0.225866 9.3084 0.225866 9.3084 0.974138 99.201
8.68674500 0.974137 99.422 0.225870 9.3081 0.225870 9.3081 0.974137 99.200
8.68675000 0.974136 99.422 0.225875 9.3078 0.225875 9.3078 0.974136 99.200
8.68675500 0.974135 99.421 0.225879 9.3075 0.225879 9.3075 0.974135 99.200
8.68676000 0.974134 99.421 0.225883 9.3072 0.225883 9.3072 0.974134 99.199
8.68676500 0.974133 99.421 0.225887 9.3070 0.225887 9.3070 0.974133 99.199
8.68677000 0.974132 99.420 0.225891 9.3067 0.225891 9.3067 0.974132 99.199
8.68677500 0.974131 99.420 0.225895 9.3064 0.225895 9.3064 0.974131 99.199
8.68678000 0.974130 99.420 0.225899 9.3061 0.225899 9.3061 0.974130 99.198
8.68678500 0.974129 99.420 0.225904 9.3058 0.225904 9.3058 0.974129 99.198
8.68679000 0.974128 99.419 0.225908 9.3055 0.225908 9.3055 0.974128 99.198
8.68679500 0.974127 99.419 0.225912 9.3052 0.225912 9.3052 0.974127 99.197
8.68680000 0.974126 99.419 0.225916 9.3049 0.225916 9.3049 0.974126 99.197
8.68680500 0.974125 99.419 0.225920 9.3046 0.225920 9.3046 0.974125 99.197
8.68681000 0.974124 99.418 0.225924 9.3043 0.225924 9.3043 0.974124 99.197
8.68681500 0.974123 99.418 0.225929 9.3041 0.225929 9.3041 0.974123 99.196
8.68682000 0.974122 99.418 0.225933 9.3038 0.225933 9.3038 0.974122 99.196
8.68682500 0.974121 99.417 0.225937 9.3035 0.225937 9.3035 0.974121 99.196
8.68683000 0.974120 99.417 0.225941 9.3032 0.225941 9.3032 0.974120 99.195
8.68683500 0.974119 99.417 0.225945 9.3029 0.225945 9.3029 0.974119 99.195
8.68684000 0.974118 99.417 0.225950 9.3026 0.225950 9.3026 0.974118 99.195
8.68684500 0.974117 99.416 0.225954 9.3023 0.225954 9.3023 0.974117 99.195
8.68685000 0.974116 99.416 0.225958 9.3020 0.225958 9.3020 0.974116 99.194
8.68685500 0.974115 99.416 0.225962 9.3017 0.225962 9.3017 0.974115 99.194
8.68686000 0.974114 99.415 0.225967 9.3014 0.225967 9.3014 0.974114 99.194
8.68686500 0.974113 99.415 0.225971 9.3011 0.225971 9.3011 0.974113 99.193
8.68687000 0.974112 99.415 0.225975 9.3008 0.225975 9.3008 0.974112 99.193
8.68687500 0.974111 99.414 0.225979 9.3005 0.225979 9.3005 0.974111 99.193
8.68688000 0.974110 99.414 0.225984 9.3002 0.225984 9.3002 0.974110 99.192
8.68688500 0.974109 99.414 0.225988 9.2999 0.225988 9.2999 0.974109 99.192
8.68689000 0.974108 99.414 0.225992 9.2996 0.225992 9.2996 0.974108 99.192
8.68689500 0.974107 99.413 0.225997 9.2993 0.225997 9.2993 0.974107 99.192
8.68690000 0.974106 99.413 0.226001 9.2990 0.226001 9.2990 0.974106 99.191
8.68690500 0.974105 99.413 0.226005 9.2987 0.226005 9.2987 0.974105 99.191
8.68691000 0.974104 99.412 0.226010 9.2984 0.226010 9.2984 0.974104 99.191
8.68691500 0.974103 99.412 0.226014 9.2981 0.226014 9.2981 0.974103 99.190
8.68692000 0.974102 99.412 0.226018 9.2978 0.226018 9.2978 0.974102 99.190
8.68692500 0.974101 99.412 0.226023 9.2975 0.226023 9.2975 0.974101 99.190
8.68693000 0.974100 99.411 0.226027 9.2972 0.226027 9.2972 0.974100 99.190
8.68693500 0.974099 99.411 0.226031 9.2969 0.226031 9.2969 0.974099 99.189
8.68694000 0.974098 99.411 0.226036 9.2966 0.226036 9.2966 0.974097 99.189
8.68694500 0.974097 99.410 0.226040 9.2963 0.226040 9.2963 0.974096 99.189
8.68695000 0.974096 99.410 0.226044 9.2960 0.226044 9.2960 0.974095 99.188
8.68695500 0.974095 99.410 0.226049 9.2957 0.226049 9.2957 0.974094 99.188