! Sonnet Data File
! From: emgraph Version : 16.52
! From Project: Qubit_Xmon2_brg_para2
! Data is De-embedded 
! Data File Written: 11/12/2017 19:07:08
!< HDATE 11/12/2017 17:14:45
!< MDATE 11/12/2017 17:15:37
!< PARAMS
!< Lj = 11.0
!< Gap = 6.0
!< Pwid = 2000.0
!< Airgap = 6.0
!< Width = 10.0
!< Bwid = 8.0
!< Dis1 = 50.0
!< Dis2 = 56.0
!< END PARAMS
# GHZ S MA R 34.65000
8.68500000 0.964054 94.204 0.265640 4.1536 0.265640 4.1536 0.964054 94.107
!< P1 F=8.685 Eeff=(5.13531798 -5.6615e-5) Z0=(34.6525852 -9.396e-5) R=0.0 C=0.0 
!< P2 F=8.685 Eeff=(5.13531798 -5.6615e-5) Z0=(34.6525852 -9.396e-5) R=0.0 C=0.0 
8.68500500 0.964053 94.204 0.265644 4.1533 0.265644 4.1533 0.964053 94.107
8.68501000 0.964052 94.203 0.265647 4.1531 0.265647 4.1531 0.964052 94.107
8.68501500 0.964051 94.203 0.265651 4.1528 0.265651 4.1528 0.964051 94.107
8.68502000 0.964050 94.203 0.265654 4.1526 0.265654 4.1526 0.964050 94.106
8.68502500 0.964049 94.203 0.265658 4.1523 0.265658 4.1523 0.964049 94.106
8.68503000 0.964048 94.202 0.265661 4.1521 0.265661 4.1521 0.964048 94.106
8.68503500 0.964047 94.202 0.265665 4.1518 0.265665 4.1518 0.964047 94.106
8.68504000 0.964046 94.202 0.265668 4.1516 0.265668 4.1516 0.964046 94.105
8.68504500 0.964045 94.202 0.265671 4.1513 0.265671 4.1513 0.964045 94.105
8.68505000 0.964044 94.201 0.265675 4.1511 0.265675 4.1511 0.964044 94.105
8.68505500 0.964043 94.201 0.265678 4.1508 0.265678 4.1508 0.964043 94.105
8.68506000 0.964042 94.201 0.265682 4.1506 0.265682 4.1506 0.964042 94.104
8.68506500 0.964041 94.201 0.265685 4.1503 0.265685 4.1503 0.964041 94.104
8.68507000 0.964040 94.200 0.265689 4.1501 0.265689 4.1501 0.964040 94.104
8.68507500 0.964039 94.200 0.265692 4.1498 0.265692 4.1498 0.964039 94.104
8.68508000 0.964038 94.200 0.265696 4.1496 0.265696 4.1496 0.964038 94.103
8.68508500 0.964037 94.200 0.265699 4.1493 0.265699 4.1493 0.964037 94.103
8.68509000 0.964036 94.199 0.265703 4.1491 0.265703 4.1491 0.964036 94.103
8.68509500 0.964035 94.199 0.265706 4.1488 0.265706 4.1488 0.964035 94.103
8.68510000 0.964034 94.199 0.265710 4.1486 0.265710 4.1486 0.964034 94.102
8.68510500 0.964033 94.199 0.265713 4.1483 0.265713 4.1483 0.964033 94.102
8.68511000 0.964032 94.198 0.265717 4.1481 0.265717 4.1481 0.964032 94.102
8.68511500 0.964031 94.198 0.265720 4.1478 0.265720 4.1478 0.964031 94.102
8.68512000 0.964030 94.198 0.265724 4.1476 0.265724 4.1476 0.964030 94.101
8.68512500 0.964029 94.198 0.265727 4.1473 0.265727 4.1473 0.964029 94.101
8.68513000 0.964028 94.197 0.265731 4.1470 0.265731 4.1470 0.964028 94.101
8.68513500 0.964027 94.197 0.265735 4.1468 0.265735 4.1468 0.964027 94.101
8.68514000 0.964026 94.197 0.265738 4.1465 0.265738 4.1465 0.964026 94.100
8.68514500 0.964025 94.197 0.265742 4.1463 0.265742 4.1463 0.964025 94.100
8.68515000 0.964024 94.196 0.265745 4.1460 0.265745 4.1460 0.964024 94.100
8.68515500 0.964023 94.196 0.265749 4.1458 0.265749 4.1458 0.964023 94.100
8.68516000 0.964022 94.196 0.265752 4.1455 0.265752 4.1455 0.964022 94.099
8.68516500 0.964021 94.196 0.265756 4.1453 0.265756 4.1453 0.964021 94.099
8.68517000 0.964020 94.195 0.265759 4.1450 0.265759 4.1450 0.964020 94.099
8.68517500 0.964019 94.195 0.265763 4.1448 0.265763 4.1448 0.964019 94.099
8.68518000 0.964018 94.195 0.265767 4.1445 0.265767 4.1445 0.964018 94.098
8.68518500 0.964017 94.195 0.265770 4.1442 0.265770 4.1442 0.964017 94.098
8.68519000 0.964016 94.194 0.265774 4.1440 0.265774 4.1440 0.964016 94.098
8.68519500 0.964015 94.194 0.265777 4.1437 0.265777 4.1437 0.964015 94.098
8.68520000 0.964014 94.194 0.265781 4.1435 0.265781 4.1435 0.964014 94.097
8.68520500 0.964013 94.194 0.265784 4.1432 0.265784 4.1432 0.964013 94.097
8.68521000 0.964012 94.193 0.265788 4.1430 0.265788 4.1430 0.964012 94.097
8.68521500 0.964011 94.193 0.265792 4.1427 0.265792 4.1427 0.964011 94.097
8.68522000 0.964010 94.193 0.265795 4.1424 0.265795 4.1424 0.964010 94.096
8.68522500 0.964009 94.193 0.265799 4.1422 0.265799 4.1422 0.964009 94.096
8.68523000 0.964008 94.192 0.265802 4.1419 0.265802 4.1419 0.964008 94.096
8.68523500 0.964007 94.192 0.265806 4.1417 0.265806 4.1417 0.964007 94.096
8.68524000 0.964006 94.192 0.265810 4.1414 0.265810 4.1414 0.964006 94.095
8.68524500 0.964005 94.191 0.265813 4.1411 0.265813 4.1411 0.964005 94.095
8.68525000 0.964004 94.191 0.265817 4.1409 0.265817 4.1409 0.964004 94.095
8.68525500 0.964003 94.191 0.265821 4.1406 0.265821 4.1406 0.964003 94.094
8.68526000 0.964002 94.191 0.265824 4.1404 0.265824 4.1404 0.964002 94.094
8.68526500 0.964001 94.190 0.265828 4.1401 0.265828 4.1401 0.964001 94.094
8.68527000 0.964000 94.190 0.265831 4.1398 0.265831 4.1398 0.964000 94.094
8.68527500 0.963999 94.190 0.265835 4.1396 0.265835 4.1396 0.963999 94.093
8.68528000 0.963998 94.190 0.265839 4.1393 0.265839 4.1393 0.963998 94.093
8.68528500 0.963997 94.189 0.265842 4.1391 0.265842 4.1391 0.963997 94.093
8.68529000 0.963996 94.189 0.265846 4.1388 0.265846 4.1388 0.963996 94.093
8.68529500 0.963995 94.189 0.265850 4.1385 0.265850 4.1385 0.963995 94.092
8.68530000 0.963994 94.189 0.265853 4.1383 0.265853 4.1383 0.963994 94.092
8.68530500 0.963993 94.188 0.265857 4.1380 0.265857 4.1380 0.963993 94.092
8.68531000 0.963992 94.188 0.265861 4.1378 0.265861 4.1378 0.963992 94.092
8.68531500 0.963991 94.188 0.265864 4.1375 0.265864 4.1375 0.963991 94.091
8.68532000 0.963990 94.188 0.265868 4.1372 0.265868 4.1372 0.963990 94.091
8.68532500 0.963989 94.187 0.265872 4.1370 0.265872 4.1370 0.963989 94.091
8.68533000 0.963988 94.187 0.265875 4.1367 0.265875 4.1367 0.963988 94.091
8.68533500 0.963987 94.187 0.265879 4.1364 0.265879 4.1364 0.963987 94.090
8.68534000 0.963986 94.187 0.265883 4.1362 0.265883 4.1362 0.963986 94.090
8.68534500 0.963985 94.186 0.265887 4.1359 0.265887 4.1359 0.963985 94.090
8.68535000 0.963984 94.186 0.265890 4.1356 0.265890 4.1356 0.963984 94.090
8.68535500 0.963983 94.186 0.265894 4.1354 0.265894 4.1354 0.963983 94.089
8.68536000 0.963982 94.186 0.265898 4.1351 0.265898 4.1351 0.963982 94.089
8.68536500 0.963981 94.185 0.265901 4.1349 0.265901 4.1349 0.963981 94.089
8.68537000 0.963979 94.185 0.265905 4.1346 0.265905 4.1346 0.963979 94.089
8.68537500 0.963978 94.185 0.265909 4.1343 0.265909 4.1343 0.963978 94.088
8.68538000 0.963977 94.184 0.265913 4.1341 0.265913 4.1341 0.963977 94.088
8.68538500 0.963976 94.184 0.265916 4.1338 0.265916 4.1338 0.963976 94.088
8.68539000 0.963975 94.184 0.265920 4.1335 0.265920 4.1335 0.963975 94.087
8.68539500 0.963974 94.184 0.265924 4.1333 0.265924 4.1333 0.963974 94.087
8.68540000 0.963973 94.183 0.265928 4.1330 0.265928 4.1330 0.963973 94.087
8.68540500 0.963972 94.183 0.265931 4.1327 0.265931 4.1327 0.963972 94.087
8.68541000 0.963971 94.183 0.265935 4.1325 0.265935 4.1325 0.963971 94.086
8.68541500 0.963970 94.183 0.265939 4.1322 0.265939 4.1322 0.963970 94.086
8.68542000 0.963969 94.182 0.265943 4.1319 0.265943 4.1319 0.963969 94.086
8.68542500 0.963968 94.182 0.265946 4.1317 0.265946 4.1317 0.963968 94.086
8.68543000 0.963967 94.182 0.265950 4.1314 0.265950 4.1314 0.963967 94.085
8.68543500 0.963966 94.182 0.265954 4.1311 0.265954 4.1311 0.963966 94.085
8.68544000 0.963965 94.181 0.265958 4.1308 0.265958 4.1308 0.963965 94.085
8.68544500 0.963964 94.181 0.265961 4.1306 0.265961 4.1306 0.963964 94.085
8.68545000 0.963963 94.181 0.265965 4.1303 0.265965 4.1303 0.963963 94.084
8.68545500 0.963962 94.181 0.265969 4.1300 0.265969 4.1300 0.963962 94.084
8.68546000 0.963961 94.180 0.265973 4.1298 0.265973 4.1298 0.963960 94.084
8.68546500 0.963959 94.180 0.265977 4.1295 0.265977 4.1295 0.963959 94.084
8.68547000 0.963958 94.180 0.265980 4.1292 0.265980 4.1292 0.963958 94.083
8.68547500 0.963957 94.179 0.265984 4.1290 0.265984 4.1290 0.963957 94.083
8.68548000 0.963956 94.179 0.265988 4.1287 0.265988 4.1287 0.963956 94.083
8.68548500 0.963955 94.179 0.265992 4.1284 0.265992 4.1284 0.963955 94.082
8.68549000 0.963954 94.179 0.265996 4.1281 0.265996 4.1281 0.963954 94.082
8.68549500 0.963953 94.178 0.266000 4.1279 0.266000 4.1279 0.963953 94.082
8.68550000 0.963952 94.178 0.266003 4.1276 0.266003 4.1276 0.963952 94.082
8.68550500 0.963951 94.178 0.266007 4.1273 0.266007 4.1273 0.963951 94.081
8.68551000 0.963950 94.178 0.266011 4.1271 0.266011 4.1271 0.963950 94.081
8.68551500 0.963949 94.177 0.266015 4.1268 0.266015 4.1268 0.963949 94.081
8.68552000 0.963948 94.177 0.266019 4.1265 0.266019 4.1265 0.963948 94.081
8.68552500 0.963947 94.177 0.266023 4.1262 0.266023 4.1262 0.963947 94.080
8.68553000 0.963945 94.177 0.266026 4.1260 0.266026 4.1260 0.963945 94.080
8.68553500 0.963944 94.176 0.266030 4.1257 0.266030 4.1257 0.963944 94.080
8.68554000 0.963943 94.176 0.266034 4.1254 0.266034 4.1254 0.963943 94.079
8.68554500 0.963942 94.176 0.266038 4.1251 0.266038 4.1251 0.963942 94.079
8.68555000 0.963941 94.175 0.266042 4.1249 0.266042 4.1249 0.963941 94.079
8.68555500 0.963940 94.175 0.266046 4.1246 0.266046 4.1246 0.963940 94.079
8.68556000 0.963939 94.175 0.266050 4.1243 0.266050 4.1243 0.963939 94.078
8.68556500 0.963938 94.175 0.266054 4.1240 0.266054 4.1240 0.963938 94.078
8.68557000 0.963937 94.174 0.266057 4.1238 0.266057 4.1238 0.963937 94.078
8.68557500 0.963936 94.174 0.266061 4.1235 0.266061 4.1235 0.963936 94.078
8.68558000 0.963935 94.174 0.266065 4.1232 0.266065 4.1232 0.963935 94.077
8.68558500 0.963933 94.174 0.266069 4.1229 0.266069 4.1229 0.963933 94.077
8.68559000 0.963932 94.173 0.266073 4.1227 0.266073 4.1227 0.963932 94.077
8.68559500 0.963931 94.173 0.266077 4.1224 0.266077 4.1224 0.963931 94.076
8.68560000 0.963930 94.173 0.266081 4.1221 0.266081 4.1221 0.963930 94.076
8.68560500 0.963929 94.172 0.266085 4.1218 0.266085 4.1218 0.963929 94.076
8.68561000 0.963928 94.172 0.266089 4.1216 0.266089 4.1216 0.963928 94.076
8.68561500 0.963927 94.172 0.266093 4.1213 0.266093 4.1213 0.963927 94.075
8.68562000 0.963926 94.172 0.266097 4.1210 0.266097 4.1210 0.963926 94.075
8.68562500 0.963925 94.171 0.266101 4.1207 0.266101 4.1207 0.963925 94.075
8.68563000 0.963924 94.171 0.266105 4.1204 0.266105 4.1204 0.963924 94.075
8.68563500 0.963922 94.171 0.266109 4.1202 0.266109 4.1202 0.963922 94.074
8.68564000 0.963921 94.171 0.266112 4.1199 0.266112 4.1199 0.963921 94.074
8.68564500 0.963920 94.170 0.266116 4.1196 0.266116 4.1196 0.963920 94.074
8.68565000 0.963919 94.170 0.266120 4.1193 0.266120 4.1193 0.963919 94.073
8.68565500 0.963918 94.170 0.266124 4.1190 0.266124 4.1190 0.963918 94.073
8.68566000 0.963917 94.169 0.266128 4.1188 0.266128 4.1188 0.963917 94.073
8.68566500 0.963916 94.169 0.266132 4.1185 0.266132 4.1185 0.963916 94.073
8.68567000 0.963915 94.169 0.266136 4.1182 0.266136 4.1182 0.963915 94.072
8.68567500 0.963914 94.169 0.266140 4.1179 0.266140 4.1179 0.963914 94.072
8.68568000 0.963912 94.168 0.266144 4.1176 0.266144 4.1176 0.963912 94.072
8.68568500 0.963911 94.168 0.266148 4.1173 0.266148 4.1173 0.963911 94.072
8.68569000 0.963910 94.168 0.266152 4.1171 0.266152 4.1171 0.963910 94.071
8.68569500 0.963909 94.167 0.266156 4.1168 0.266156 4.1168 0.963909 94.071
8.68570000 0.963908 94.167 0.266160 4.1165 0.266160 4.1165 0.963908 94.071
8.68570500 0.963907 94.167 0.266164 4.1162 0.266164 4.1162 0.963907 94.070
8.68571000 0.963906 94.167 0.266168 4.1159 0.266168 4.1159 0.963906 94.070
8.68571500 0.963905 94.166 0.266172 4.1157 0.266172 4.1157 0.963905 94.070
8.68572000 0.963903 94.166 0.266176 4.1154 0.266176 4.1154 0.963903 94.070
8.68572500 0.963902 94.166 0.266180 4.1151 0.266180 4.1151 0.963902 94.069
8.68573000 0.963901 94.166 0.266184 4.1148 0.266184 4.1148 0.963901 94.069
8.68573500 0.963900 94.165 0.266189 4.1145 0.266189 4.1145 0.963900 94.069
8.68574000 0.963899 94.165 0.266193 4.1142 0.266193 4.1142 0.963899 94.068
8.68574500 0.963898 94.165 0.266197 4.1139 0.266197 4.1139 0.963898 94.068
8.68575000 0.963897 94.164 0.266201 4.1137 0.266201 4.1137 0.963897 94.068
8.68575500 0.963895 94.164 0.266205 4.1134 0.266205 4.1134 0.963895 94.068
8.68576000 0.963894 94.164 0.266209 4.1131 0.266209 4.1131 0.963894 94.067
8.68576500 0.963893 94.164 0.266213 4.1128 0.266213 4.1128 0.963893 94.067
8.68577000 0.963892 94.163 0.266217 4.1125 0.266217 4.1125 0.963892 94.067
8.68577500 0.963891 94.163 0.266221 4.1122 0.266221 4.1122 0.963891 94.066
8.68578000 0.963890 94.163 0.266225 4.1119 0.266225 4.1119 0.963890 94.066
8.68578500 0.963889 94.162 0.266229 4.1116 0.266229 4.1116 0.963889 94.066
8.68579000 0.963887 94.162 0.266233 4.1114 0.266233 4.1114 0.963887 94.066
8.68579500 0.963886 94.162 0.266237 4.1111 0.266237 4.1111 0.963886 94.065
8.68580000 0.963885 94.162 0.266242 4.1108 0.266242 4.1108 0.963885 94.065
8.68580500 0.963884 94.161 0.266246 4.1105 0.266246 4.1105 0.963884 94.065
8.68581000 0.963883 94.161 0.266250 4.1102 0.266250 4.1102 0.963883 94.064
8.68581500 0.963882 94.161 0.266254 4.1099 0.266254 4.1099 0.963882 94.064
8.68582000 0.963880 94.160 0.266258 4.1096 0.266258 4.1096 0.963880 94.064
8.68582500 0.963879 94.160 0.266262 4.1093 0.266262 4.1093 0.963879 94.064
8.68583000 0.963878 94.160 0.266266 4.1090 0.266266 4.1090 0.963878 94.063
8.68583500 0.963877 94.160 0.266270 4.1088 0.266270 4.1088 0.963877 94.063
8.68584000 0.963876 94.159 0.266275 4.1085 0.266275 4.1085 0.963876 94.063
8.68584500 0.963875 94.159 0.266279 4.1082 0.266279 4.1082 0.963875 94.062
8.68585000 0.963874 94.159 0.266283 4.1079 0.266283 4.1079 0.963873 94.062
8.68585500 0.963872 94.158 0.266287 4.1076 0.266287 4.1076 0.963872 94.062
8.68586000 0.963871 94.158 0.266291 4.1073 0.266291 4.1073 0.963871 94.062
8.68586500 0.963870 94.158 0.266295 4.1070 0.266295 4.1070 0.963870 94.061
8.68587000 0.963869 94.158 0.266300 4.1067 0.266300 4.1067 0.963869 94.061
8.68587500 0.963868 94.157 0.266304 4.1064 0.266304 4.1064 0.963868 94.061
8.68588000 0.963866 94.157 0.266308 4.1061 0.266308 4.1061 0.963866 94.060
8.68588500 0.963865 94.157 0.266312 4.1058 0.266312 4.1058 0.963865 94.060
8.68589000 0.963864 94.156 0.266316 4.1055 0.266316 4.1055 0.963864 94.060
8.68589500 0.963863 94.156 0.266320 4.1052 0.266320 4.1052 0.963863 94.060
8.68590000 0.963862 94.156 0.266325 4.1049 0.266325 4.1049 0.963862 94.059
8.68590500 0.963861 94.156 0.266329 4.1047 0.266329 4.1047 0.963861 94.059
8.68591000 0.963859 94.155 0.266333 4.1044 0.266333 4.1044 0.963859 94.059
8.68591500 0.963858 94.155 0.266337 4.1041 0.266337 4.1041 0.963858 94.058
8.68592000 0.963857 94.155 0.266342 4.1038 0.266342 4.1038 0.963857 94.058
8.68592500 0.963856 94.154 0.266346 4.1035 0.266346 4.1035 0.963856 94.058
8.68593000 0.963855 94.154 0.266350 4.1032 0.266350 4.1032 0.963855 94.058
8.68593500 0.963853 94.154 0.266354 4.1029 0.266354 4.1029 0.963853 94.057
8.68594000 0.963852 94.153 0.266359 4.1026 0.266359 4.1026 0.963852 94.057
8.68594500 0.963851 94.153 0.266363 4.1023 0.266363 4.1023 0.963851 94.057
8.68595000 0.963850 94.153 0.266367 4.1020 0.266367 4.1020 0.963850 94.056
8.68595500 0.963849 94.153 0.266371 4.1017 0.266371 4.1017 0.963849 94.056
8.68596000 0.963847 94.152 0.266376 4.1014 0.266376 4.1014 0.963847 94.056
8.68596500 0.963846 94.152 0.266380 4.1011 0.266380 4.1011 0.963846 94.055
8.68597000 0.963845 94.152 0.266384 4.1008 0.266384 4.1008 0.963845 94.055
8.68597500 0.963844 94.151 0.266388 4.1005 0.266388 4.1005 0.963844 94.055
8.68598000 0.963843 94.151 0.266393 4.1002 0.266393 4.1002 0.963843 94.055
8.68598500 0.963841 94.151 0.266397 4.0999 0.266397 4.0999 0.963841 94.054
8.68599000 0.963840 94.151 0.266401 4.0996 0.266401 4.0996 0.963840 94.054
8.68599500 0.963839 94.150 0.266406 4.0993 0.266406 4.0993 0.963839 94.054
8.68600000 0.963838 94.150 0.266410 4.0990 0.266410 4.0990 0.963838 94.053
8.68600500 0.963837 94.150 0.266414 4.0987 0.266414 4.0987 0.963837 94.053
8.68601000 0.963835 94.149 0.266418 4.0984 0.266418 4.0984 0.963835 94.053
8.68601500 0.963834 94.149 0.266423 4.0981 0.266423 4.0981 0.963834 94.053
8.68602000 0.963833 94.149 0.266427 4.0978 0.266427 4.0978 0.963833 94.052
8.68602500 0.963832 94.148 0.266431 4.0975 0.266431 4.0975 0.963832 94.052
8.68603000 0.963831 94.148 0.266436 4.0972 0.266436 4.0972 0.963831 94.052
8.68603500 0.963829 94.148 0.266440 4.0969 0.266440 4.0969 0.963829 94.051
8.68604000 0.963828 94.148 0.266444 4.0966 0.266444 4.0966 0.963828 94.051
8.68604500 0.963827 94.147 0.266449 4.0963 0.266449 4.0963 0.963827 94.051
8.68605000 0.963826 94.147 0.266453 4.0960 0.266453 4.0960 0.963826 94.050
8.68605500 0.963824 94.147 0.266458 4.0957 0.266458 4.0957 0.963824 94.050
8.68606000 0.963823 94.146 0.266462 4.0954 0.266462 4.0954 0.963823 94.050
8.68606500 0.963822 94.146 0.266466 4.0950 0.266466 4.0950 0.963822 94.050
8.68607000 0.963821 94.146 0.266471 4.0947 0.266471 4.0947 0.963821 94.049
8.68607500 0.963819 94.145 0.266475 4.0944 0.266475 4.0944 0.963819 94.049
8.68608000 0.963818 94.145 0.266479 4.0941 0.266479 4.0941 0.963818 94.049
8.68608500 0.963817 94.145 0.266484 4.0938 0.266484 4.0938 0.963817 94.048
8.68609000 0.963816 94.145 0.266488 4.0935 0.266488 4.0935 0.963816 94.048
8.68609500 0.963815 94.144 0.266493 4.0932 0.266493 4.0932 0.963815 94.048
8.68610000 0.963813 94.144 0.266497 4.0929 0.266497 4.0929 0.963813 94.047
8.68610500 0.963812 94.144 0.266501 4.0926 0.266501 4.0926 0.963812 94.047
8.68611000 0.963811 94.143 0.266506 4.0923 0.266506 4.0923 0.963811 94.047
8.68611500 0.963810 94.143 0.266510 4.0920 0.266510 4.0920 0.963810 94.046
8.68612000 0.963808 94.143 0.266515 4.0917 0.266515 4.0917 0.963808 94.046
8.68612500 0.963807 94.142 0.266519 4.0914 0.266519 4.0914 0.963807 94.046
8.68613000 0.963806 94.142 0.266524 4.0911 0.266524 4.0911 0.963806 94.046
8.68613500 0.963805 94.142 0.266528 4.0907 0.266528 4.0907 0.963805 94.045
8.68614000 0.963803 94.141 0.266533 4.0904 0.266533 4.0904 0.963803 94.045
8.68614500 0.963802 94.141 0.266537 4.0901 0.266537 4.0901 0.963802 94.045
8.68615000 0.963801 94.141 0.266541 4.0898 0.266541 4.0898 0.963801 94.044
8.68615500 0.963800 94.141 0.266546 4.0895 0.266546 4.0895 0.963800 94.044
8.68616000 0.963798 94.140 0.266550 4.0892 0.266550 4.0892 0.963798 94.044
8.68616500 0.963797 94.140 0.266555 4.0889 0.266555 4.0889 0.963797 94.043
8.68617000 0.963796 94.140 0.266559 4.0886 0.266559 4.0886 0.963796 94.043
8.68617500 0.963794 94.139 0.266564 4.0883 0.266564 4.0883 0.963794 94.043
8.68618000 0.963793 94.139 0.266568 4.0879 0.266568 4.0879 0.963793 94.043
8.68618500 0.963792 94.139 0.266573 4.0876 0.266573 4.0876 0.963792 94.042
8.68619000 0.963791 94.138 0.266577 4.0873 0.266577 4.0873 0.963791 94.042
8.68619500 0.963789 94.138 0.266582 4.0870 0.266582 4.0870 0.963789 94.042
8.68620000 0.963788 94.138 0.266586 4.0867 0.266586 4.0867 0.963788 94.041
8.68620500 0.963787 94.137 0.266591 4.0864 0.266591 4.0864 0.963787 94.041
8.68621000 0.963786 94.137 0.266596 4.0861 0.266596 4.0861 0.963786 94.041
8.68621500 0.963784 94.137 0.266600 4.0857 0.266600 4.0857 0.963784 94.040
8.68622000 0.963783 94.137 0.266605 4.0854 0.266605 4.0854 0.963783 94.040
8.68622500 0.963782 94.136 0.266609 4.0851 0.266609 4.0851 0.963782 94.040
8.68623000 0.963780 94.136 0.266614 4.0848 0.266614 4.0848 0.963780 94.039
8.68623500 0.963779 94.136 0.266618 4.0845 0.266618 4.0845 0.963779 94.039
8.68624000 0.963778 94.135 0.266623 4.0842 0.266623 4.0842 0.963778 94.039
8.68624500 0.963777 94.135 0.266627 4.0838 0.266627 4.0838 0.963777 94.038
8.68625000 0.963775 94.135 0.266632 4.0835 0.266632 4.0835 0.963775 94.038
8.68625500 0.963774 94.134 0.266637 4.0832 0.266637 4.0832 0.963774 94.038
8.68626000 0.963773 94.134 0.266641 4.0829 0.266641 4.0829 0.963773 94.038
8.68626500 0.963771 94.134 0.266646 4.0826 0.266646 4.0826 0.963771 94.037
8.68627000 0.963770 94.133 0.266650 4.0823 0.266650 4.0823 0.963770 94.037
8.68627500 0.963769 94.133 0.266655 4.0819 0.266655 4.0819 0.963769 94.037
8.68628000 0.963768 94.133 0.266660 4.0816 0.266660 4.0816 0.963768 94.036
8.68628500 0.963766 94.133 0.266664 4.0813 0.266664 4.0813 0.963766 94.036
8.68629000 0.963765 94.132 0.266669 4.0810 0.266669 4.0810 0.963765 94.036
8.68629500 0.963764 94.132 0.266673 4.0807 0.266673 4.0807 0.963764 94.035
8.68630000 0.963762 94.132 0.266678 4.0803 0.266678 4.0803 0.963762 94.035
8.68630500 0.963761 94.131 0.266683 4.0800 0.266683 4.0800 0.963761 94.035
8.68631000 0.963760 94.131 0.266687 4.0797 0.266687 4.0797 0.963760 94.034
8.68631500 0.963758 94.131 0.266692 4.0794 0.266692 4.0794 0.963758 94.034
8.68632000 0.963757 94.130 0.266697 4.0790 0.266697 4.0790 0.963757 94.034
8.68632500 0.963756 94.130 0.266701 4.0787 0.266701 4.0787 0.963756 94.033
8.68633000 0.963754 94.130 0.266706 4.0784 0.266706 4.0784 0.963754 94.033
8.68633500 0.963753 94.129 0.266711 4.0781 0.266711 4.0781 0.963753 94.033
8.68634000 0.963752 94.129 0.266715 4.0778 0.266715 4.0778 0.963752 94.032
8.68634500 0.963750 94.129 0.266720 4.0774 0.266720 4.0774 0.963750 94.032
8.68635000 0.963749 94.128 0.266725 4.0771 0.266725 4.0771 0.963749 94.032
8.68635500 0.963748 94.128 0.266729 4.0768 0.266729 4.0768 0.963748 94.032
8.68636000 0.963747 94.128 0.266734 4.0765 0.266734 4.0765 0.963747 94.031
8.68636500 0.963745 94.127 0.266739 4.0761 0.266739 4.0761 0.963745 94.031
8.68637000 0.963744 94.127 0.266744 4.0758 0.266744 4.0758 0.963744 94.031
8.68637500 0.963743 94.127 0.266748 4.0755 0.266748 4.0755 0.963743 94.030
8.68638000 0.963741 94.126 0.266753 4.0751 0.266753 4.0751 0.963741 94.030
8.68638500 0.963740 94.126 0.266758 4.0748 0.266758 4.0748 0.963740 94.030
8.68639000 0.963739 94.126 0.266763 4.0745 0.266763 4.0745 0.963739 94.029
8.68639500 0.963737 94.125 0.266767 4.0742 0.266767 4.0742 0.963737 94.029
8.68640000 0.963736 94.125 0.266772 4.0738 0.266772 4.0738 0.963736 94.029
8.68640500 0.963735 94.125 0.266777 4.0735 0.266777 4.0735 0.963734 94.028
8.68641000 0.963733 94.125 0.266782 4.0732 0.266782 4.0732 0.963733 94.028
8.68641500 0.963732 94.124 0.266786 4.0728 0.266786 4.0728 0.963732 94.028
8.68642000 0.963730 94.124 0.266791 4.0725 0.266791 4.0725 0.963730 94.027
8.68642500 0.963729 94.124 0.266796 4.0722 0.266796 4.0722 0.963729 94.027
8.68643000 0.963728 94.123 0.266801 4.0719 0.266801 4.0719 0.963728 94.027
8.68643500 0.963726 94.123 0.266805 4.0715 0.266805 4.0715 0.963726 94.026
8.68644000 0.963725 94.123 0.266810 4.0712 0.266810 4.0712 0.963725 94.026
8.68644500 0.963724 94.122 0.266815 4.0709 0.266815 4.0709 0.963724 94.026
8.68645000 0.963722 94.122 0.266820 4.0705 0.266820 4.0705 0.963722 94.025
8.68645500 0.963721 94.122 0.266825 4.0702 0.266825 4.0702 0.963721 94.025
8.68646000 0.963720 94.121 0.266830 4.0699 0.266830 4.0699 0.963720 94.025
8.68646500 0.963718 94.121 0.266834 4.0695 0.266834 4.0695 0.963718 94.024
8.68647000 0.963717 94.121 0.266839 4.0692 0.266839 4.0692 0.963717 94.024
8.68647500 0.963716 94.120 0.266844 4.0689 0.266844 4.0689 0.963716 94.024
8.68648000 0.963714 94.120 0.266849 4.0685 0.266849 4.0685 0.963714 94.023
8.68648500 0.963713 94.120 0.266854 4.0682 0.266854 4.0682 0.963713 94.023
8.68649000 0.963711 94.119 0.266859 4.0679 0.266859 4.0679 0.963711 94.023
8.68649500 0.963710 94.119 0.266864 4.0675 0.266864 4.0675 0.963710 94.022
8.68650000 0.963709 94.119 0.266868 4.0672 0.266868 4.0672 0.963709 94.022
8.68650500 0.963707 94.118 0.266873 4.0669 0.266873 4.0669 0.963707 94.022
8.68651000 0.963706 94.118 0.266878 4.0665 0.266878 4.0665 0.963706 94.021
8.68651500 0.963705 94.118 0.266883 4.0662 0.266883 4.0662 0.963705 94.021
8.68652000 0.963703 94.117 0.266888 4.0658 0.266888 4.0658 0.963703 94.021
8.68652500 0.963702 94.117 0.266893 4.0655 0.266893 4.0655 0.963702 94.020
8.68653000 0.963700 94.117 0.266898 4.0652 0.266898 4.0652 0.963700 94.020
8.68653500 0.963699 94.116 0.266903 4.0648 0.266903 4.0648 0.963699 94.020
8.68654000 0.963698 94.116 0.266908 4.0645 0.266908 4.0645 0.963698 94.019
8.68654500 0.963696 94.116 0.266913 4.0642 0.266913 4.0642 0.963696 94.019
8.68655000 0.963695 94.115 0.266918 4.0638 0.266918 4.0638 0.963695 94.019
8.68655500 0.963693 94.115 0.266922 4.0635 0.266922 4.0635 0.963693 94.018
8.68656000 0.963692 94.115 0.266927 4.0631 0.266927 4.0631 0.963692 94.018
8.68656500 0.963691 94.114 0.266932 4.0628 0.266932 4.0628 0.963691 94.018
8.68657000 0.963689 94.114 0.266937 4.0625 0.266937 4.0625 0.963689 94.017
8.68657500 0.963688 94.114 0.266942 4.0621 0.266942 4.0621 0.963688 94.017
8.68658000 0.963686 94.113 0.266947 4.0618 0.266947 4.0618 0.963686 94.017
8.68658500 0.963685 94.113 0.266952 4.0614 0.266952 4.0614 0.963685 94.016
8.68659000 0.963684 94.113 0.266957 4.0611 0.266957 4.0611 0.963684 94.016
8.68659500 0.963682 94.112 0.266962 4.0607 0.266962 4.0607 0.963682 94.016
8.68660000 0.963681 94.112 0.266967 4.0604 0.266967 4.0604 0.963681 94.015
8.68660500 0.963679 94.112 0.266972 4.0601 0.266972 4.0601 0.963679 94.015
8.68661000 0.963678 94.111 0.266977 4.0597 0.266977 4.0597 0.963678 94.015
8.68661500 0.963677 94.111 0.266982 4.0594 0.266982 4.0594 0.963677 94.014
8.68662000 0.963675 94.111 0.266987 4.0590 0.266987 4.0590 0.963675 94.014
8.68662500 0.963674 94.110 0.266992 4.0587 0.266992 4.0587 0.963674 94.014
8.68663000 0.963672 94.110 0.266997 4.0583 0.266997 4.0583 0.963672 94.013
8.68663500 0.963671 94.110 0.267002 4.0580 0.267002 4.0580 0.963671 94.013
8.68664000 0.963669 94.109 0.267008 4.0576 0.267008 4.0576 0.963669 94.013
8.68664500 0.963668 94.109 0.267013 4.0573 0.267013 4.0573 0.963668 94.012
8.68665000 0.963667 94.109 0.267018 4.0569 0.267018 4.0569 0.963667 94.012
8.68665500 0.963665 94.108 0.267023 4.0566 0.267023 4.0566 0.963665 94.012
8.68666000 0.963664 94.108 0.267028 4.0562 0.267028 4.0562 0.963664 94.011
8.68666500 0.963662 94.108 0.267033 4.0559 0.267033 4.0559 0.963662 94.011
8.68667000 0.963661 94.107 0.267038 4.0555 0.267038 4.0555 0.963661 94.011
8.68667500 0.963659 94.107 0.267043 4.0552 0.267043 4.0552 0.963659 94.010
8.68668000 0.963658 94.106 0.267048 4.0548 0.267048 4.0548 0.963658 94.010
8.68668500 0.963656 94.106 0.267053 4.0545 0.267053 4.0545 0.963656 94.010
8.68669000 0.963655 94.106 0.267059 4.0541 0.267059 4.0541 0.963655 94.009
8.68669500 0.963654 94.105 0.267064 4.0538 0.267064 4.0538 0.963654 94.009
8.68670000 0.963652 94.105 0.267069 4.0534 0.267069 4.0534 0.963652 94.009
8.68670500 0.963651 94.105 0.267074 4.0531 0.267074 4.0531 0.963651 94.008
8.68671000 0.963649 94.104 0.267079 4.0527 0.267079 4.0527 0.963649 94.008
8.68671500 0.963648 94.104 0.267084 4.0524 0.267084 4.0524 0.963648 94.008
8.68672000 0.963646 94.104 0.267089 4.0520 0.267089 4.0520 0.963646 94.007
8.68672500 0.963645 94.103 0.267095 4.0517 0.267095 4.0517 0.963645 94.007
8.68673000 0.963643 94.103 0.267100 4.0513 0.267100 4.0513 0.963643 94.006
8.68673500 0.963642 94.103 0.267105 4.0510 0.267105 4.0510 0.963642 94.006
8.68674000 0.963640 94.102 0.267110 4.0506 0.267110 4.0506 0.963640 94.006
8.68674500 0.963639 94.102 0.267115 4.0503 0.267115 4.0503 0.963639 94.005
8.68675000 0.963638 94.102 0.267121 4.0499 0.267121 4.0499 0.963637 94.005
8.68675500 0.963636 94.101 0.267126 4.0495 0.267126 4.0495 0.963636 94.005
8.68676000 0.963635 94.101 0.267131 4.0492 0.267131 4.0492 0.963635 94.004
8.68676500 0.963633 94.101 0.267136 4.0488 0.267136 4.0488 0.963633 94.004
8.68677000 0.963632 94.100 0.267141 4.0485 0.267141 4.0485 0.963632 94.004
8.68677500 0.963630 94.100 0.267147 4.0481 0.267147 4.0481 0.963630 94.003
8.68678000 0.963629 94.100 0.267152 4.0477 0.267152 4.0477 0.963629 94.003
8.68678500 0.963627 94.099 0.267157 4.0474 0.267157 4.0474 0.963627 94.003
8.68679000 0.963626 94.099 0.267162 4.0470 0.267162 4.0470 0.963626 94.002
8.68679500 0.963624 94.098 0.267168 4.0467 0.267168 4.0467 0.963624 94.002
8.68680000 0.963623 94.098 0.267173 4.0463 0.267173 4.0463 0.963623 94.002
8.68680500 0.963621 94.098 0.267178 4.0460 0.267178 4.0460 0.963621 94.001
8.68681000 0.963620 94.097 0.267184 4.0456 0.267184 4.0456 0.963620 94.001
8.68681500 0.963618 94.097 0.267189 4.0452 0.267189 4.0452 0.963618 94.000
8.68682000 0.963617 94.097 0.267194 4.0449 0.267194 4.0449 0.963617 94.000
8.68682500 0.963615 94.096 0.267200 4.0445 0.267200 4.0445 0.963615 94.000
8.68683000 0.963614 94.096 0.267205 4.0441 0.267205 4.0441 0.963614 93.999
8.68683500 0.963612 94.096 0.267210 4.0438 0.267210 4.0438 0.963612 93.999
8.68684000 0.963611 94.095 0.267215 4.0434 0.267215 4.0434 0.963611 93.999
8.68684500 0.963609 94.095 0.267221 4.0430 0.267221 4.0430 0.963609 93.998
8.68685000 0.963608 94.095 0.267226 4.0427 0.267226 4.0427 0.963608 93.998
8.68685500 0.963606 94.094 0.267232 4.0423 0.267232 4.0423 0.963606 93.998
8.68686000 0.963605 94.094 0.267237 4.0420 0.267237 4.0420 0.963605 93.997
8.68686500 0.963603 94.093 0.267242 4.0416 0.267242 4.0416 0.963603 93.997
8.68687000 0.963602 94.093 0.267248 4.0412 0.267248 4.0412 0.963602 93.997
8.68687500 0.963600 94.093 0.267253 4.0409 0.267253 4.0409 0.963600 93.996
8.68688000 0.963599 94.092 0.267258 4.0405 0.267258 4.0405 0.963599 93.996
8.68688500 0.963597 94.092 0.267264 4.0401 0.267264 4.0401 0.963597 93.995
8.68689000 0.963595 94.092 0.267269 4.0397 0.267269 4.0397 0.963595 93.995
8.68689500 0.963594 94.091 0.267275 4.0394 0.267275 4.0394 0.963594 93.995
8.68690000 0.963592 94.091 0.267280 4.0390 0.267280 4.0390 0.963592 93.994
8.68690500 0.963591 94.091 0.267286 4.0386 0.267286 4.0386 0.963591 93.994
8.68691000 0.963589 94.090 0.267291 4.0383 0.267291 4.0383 0.963589 93.994
8.68691500 0.963588 94.090 0.267296 4.0379 0.267296 4.0379 0.963588 93.993
8.68692000 0.963586 94.089 0.267302 4.0375 0.267302 4.0375 0.963586 93.993
8.68692500 0.963585 94.089 0.267307 4.0372 0.267307 4.0372 0.963585 93.993
8.68693000 0.963583 94.089 0.267313 4.0368 0.267313 4.0368 0.963583 93.992
8.68693500 0.963582 94.088 0.267318 4.0364 0.267318 4.0364 0.963582 93.992
8.68694000 0.963580 94.088 0.267324 4.0360 0.267324 4.0360 0.963580 93.991
8.68694500 0.963579 94.088 0.267329 4.0357 0.267329 4.0357 0.963578 93.991
8.68695000 0.963577 94.087 0.267335 4.0353 0.267335 4.0353 0.963577 93.991
8.68695500 0.963575 94.087 0.267340 4.0349 0.267340 4.0349 0.963575 93.990