! Sonnet Data File
! From: emgraph Version : 16.52
! From Project: Qubit_Xmon2_brg_para2
! Data is De-embedded 
! Data File Written: 11/12/2017 21:29:59
!< HDATE 11/12/2017 19:10:47
!< MDATE 11/12/2017 19:10:47
!< PARAMS
!< Lj = 11.0
!< Gap = 6.0
!< Pwid = 2000.0
!< Airgap = 6.0
!< Width = 10.0
!< Bwid = 8.0
!< Dis1 = 850.0
!< Dis2 = 856.0
!< END PARAMS
# GHZ S MA R 34.65000
8.76500000 0.997194 133.79 0.074833 43.792 0.074833 43.792 0.997194 133.79
!< P1 F=8.765 Eeff=(5.13709823 -5.6953e-5) Z0=(34.64455 -9.67e-5) R=0.0 C=0.0 
!< P2 F=8.765 Eeff=(5.13709823 -5.6953e-5) Z0=(34.64455 -9.67e-5) R=0.0 C=0.0 
8.76502000 0.997194 133.79 0.074834 43.792 0.074834 43.792 0.997194 133.79
8.76504000 0.997194 133.79 0.074835 43.792 0.074835 43.792 0.997194 133.79
8.76506000 0.997194 133.79 0.074835 43.792 0.074835 43.792 0.997194 133.79
8.76508000 0.997194 133.79 0.074836 43.791 0.074836 43.791 0.997194 133.79
8.76510000 0.997194 133.79 0.074836 43.791 0.074836 43.791 0.997194 133.79
8.76512000 0.997194 133.79 0.074837 43.791 0.074837 43.791 0.997194 133.79
8.76514000 0.997193 133.79 0.074838 43.791 0.074838 43.791 0.997193 133.79
8.76516000 0.997193 133.79 0.074838 43.791 0.074838 43.791 0.997193 133.79
8.76518000 0.997193 133.79 0.074839 43.791 0.074839 43.791 0.997193 133.79
8.76520000 0.997193 133.79 0.074839 43.791 0.074839 43.791 0.997193 133.79
8.76522000 0.997193 133.79 0.074840 43.791 0.074840 43.791 0.997193 133.79
8.76524000 0.997193 133.79 0.074841 43.790 0.074841 43.790 0.997193 133.79
8.76526000 0.997193 133.79 0.074841 43.790 0.074841 43.790 0.997193 133.79
8.76528000 0.997193 133.79 0.074842 43.790 0.074842 43.790 0.997193 133.79
8.76530000 0.997193 133.79 0.074842 43.790 0.074842 43.790 0.997193 133.79
8.76532000 0.997193 133.79 0.074843 43.790 0.074843 43.790 0.997193 133.79
8.76534000 0.997193 133.79 0.074844 43.790 0.074844 43.790 0.997193 133.79
8.76536000 0.997193 133.79 0.074844 43.790 0.074844 43.790 0.997193 133.79
8.76538000 0.997193 133.79 0.074845 43.789 0.074845 43.789 0.997193 133.79
8.76540000 0.997193 133.79 0.074845 43.789 0.074845 43.789 0.997193 133.79
8.76542000 0.997193 133.79 0.074846 43.789 0.074846 43.789 0.997193 133.79
8.76544000 0.997193 133.79 0.074847 43.789 0.074847 43.789 0.997193 133.79
8.76546000 0.997193 133.79 0.074847 43.789 0.074847 43.789 0.997193 133.79
8.76548000 0.997193 133.79 0.074848 43.789 0.074848 43.789 0.997193 133.79
8.76550000 0.997193 133.79 0.074848 43.789 0.074848 43.789 0.997193 133.79
8.76552000 0.997193 133.79 0.074849 43.789 0.074849 43.789 0.997193 133.79
8.76554000 0.997193 133.79 0.074850 43.788 0.074850 43.788 0.997193 133.79
8.76556000 0.997193 133.79 0.074850 43.788 0.074850 43.788 0.997193 133.79
8.76558000 0.997192 133.79 0.074851 43.788 0.074851 43.788 0.997192 133.79
8.76560000 0.997192 133.79 0.074851 43.788 0.074851 43.788 0.997192 133.79
8.76562000 0.997192 133.79 0.074852 43.788 0.074852 43.788 0.997192 133.79
8.76564000 0.997192 133.79 0.074853 43.788 0.074853 43.788 0.997192 133.79
8.76566000 0.997192 133.79 0.074853 43.788 0.074853 43.788 0.997192 133.79
8.76568000 0.997192 133.79 0.074854 43.787 0.074854 43.787 0.997192 133.79
8.76570000 0.997192 133.79 0.074855 43.787 0.074855 43.787 0.997192 133.79
8.76572000 0.997192 133.79 0.074855 43.787 0.074855 43.787 0.997192 133.79
8.76574000 0.997192 133.79 0.074856 43.787 0.074856 43.787 0.997192 133.79
8.76576000 0.997192 133.79 0.074856 43.787 0.074856 43.787 0.997192 133.79
8.76578000 0.997192 133.79 0.074857 43.787 0.074857 43.787 0.997192 133.79
8.76580000 0.997192 133.79 0.074858 43.787 0.074858 43.787 0.997192 133.79
8.76582000 0.997192 133.79 0.074858 43.787 0.074858 43.787 0.997192 133.79
8.76584000 0.997192 133.79 0.074859 43.786 0.074859 43.786 0.997192 133.79
8.76586000 0.997192 133.79 0.074860 43.786 0.074860 43.786 0.997192 133.79
8.76588000 0.997192 133.79 0.074860 43.786 0.074860 43.786 0.997192 133.79
8.76590000 0.997192 133.79 0.074861 43.786 0.074861 43.786 0.997192 133.79
8.76592000 0.997192 133.78 0.074861 43.786 0.074861 43.786 0.997192 133.78
8.76594000 0.997192 133.78 0.074862 43.786 0.074862 43.786 0.997192 133.78
8.76596000 0.997192 133.78 0.074863 43.786 0.074863 43.786 0.997192 133.78
8.76598000 0.997192 133.78 0.074863 43.786 0.074863 43.786 0.997192 133.78
8.76600000 0.997191 133.78 0.074864 43.785 0.074864 43.785 0.997192 133.78
8.76602000 0.997191 133.78 0.074864 43.785 0.074864 43.785 0.997191 133.78
8.76604000 0.997191 133.78 0.074865 43.785 0.074865 43.785 0.997191 133.78
8.76606000 0.997191 133.78 0.074866 43.785 0.074866 43.785 0.997191 133.78
8.76608000 0.997191 133.78 0.074866 43.785 0.074866 43.785 0.997191 133.78
8.76610000 0.997191 133.78 0.074867 43.785 0.074867 43.785 0.997191 133.78
8.76612000 0.997191 133.78 0.074868 43.785 0.074868 43.785 0.997191 133.78
8.76614000 0.997191 133.78 0.074868 43.784 0.074868 43.784 0.997191 133.78
8.76616000 0.997191 133.78 0.074869 43.784 0.074869 43.784 0.997191 133.78
8.76618000 0.997191 133.78 0.074869 43.784 0.074869 43.784 0.997191 133.78
8.76620000 0.997191 133.78 0.074870 43.784 0.074870 43.784 0.997191 133.78
8.76622000 0.997191 133.78 0.074871 43.784 0.074871 43.784 0.997191 133.78
8.76624000 0.997191 133.78 0.074871 43.784 0.074871 43.784 0.997191 133.78
8.76626000 0.997191 133.78 0.074872 43.784 0.074872 43.784 0.997191 133.78
8.76628000 0.997191 133.78 0.074873 43.784 0.074873 43.784 0.997191 133.78
8.76630000 0.997191 133.78 0.074873 43.783 0.074873 43.783 0.997191 133.78
8.76632000 0.997191 133.78 0.074874 43.783 0.074874 43.783 0.997191 133.78
8.76634000 0.997191 133.78 0.074875 43.783 0.074875 43.783 0.997191 133.78
8.76636000 0.997191 133.78 0.074875 43.783 0.074875 43.783 0.997191 133.78
8.76638000 0.997191 133.78 0.074876 43.783 0.074876 43.783 0.997191 133.78
8.76640000 0.997191 133.78 0.074876 43.783 0.074876 43.783 0.997191 133.78
8.76642000 0.997190 133.78 0.074877 43.783 0.074877 43.783 0.997191 133.78
8.76644000 0.997190 133.78 0.074878 43.782 0.074878 43.782 0.997190 133.78
8.76646000 0.997190 133.78 0.074878 43.782 0.074878 43.782 0.997190 133.78
8.76648000 0.997190 133.78 0.074879 43.782 0.074879 43.782 0.997190 133.78
8.76650000 0.997190 133.78 0.074880 43.782 0.074880 43.782 0.997190 133.78
8.76652000 0.997190 133.78 0.074880 43.782 0.074880 43.782 0.997190 133.78
8.76654000 0.997190 133.78 0.074881 43.782 0.074881 43.782 0.997190 133.78
8.76656000 0.997190 133.78 0.074882 43.782 0.074882 43.782 0.997190 133.78
8.76658000 0.997190 133.78 0.074882 43.782 0.074882 43.782 0.997190 133.78
8.76660000 0.997190 133.78 0.074883 43.781 0.074883 43.781 0.997190 133.78
8.76662000 0.997190 133.78 0.074883 43.781 0.074883 43.781 0.997190 133.78
8.76664000 0.997190 133.78 0.074884 43.781 0.074884 43.781 0.997190 133.78
8.76666000 0.997190 133.78 0.074885 43.781 0.074885 43.781 0.997190 133.78
8.76668000 0.997190 133.78 0.074885 43.781 0.074885 43.781 0.997190 133.78
8.76670000 0.997190 133.78 0.074886 43.781 0.074886 43.781 0.997190 133.78
8.76672000 0.997190 133.78 0.074887 43.781 0.074887 43.781 0.997190 133.78
8.76674000 0.997190 133.78 0.074887 43.780 0.074887 43.780 0.997190 133.78
8.76676000 0.997190 133.78 0.074888 43.780 0.074888 43.780 0.997190 133.78
8.76678000 0.997190 133.78 0.074889 43.780 0.074889 43.780 0.997190 133.78
8.76680000 0.997190 133.78 0.074889 43.780 0.074889 43.780 0.997190 133.78
8.76682000 0.997190 133.78 0.074890 43.780 0.074890 43.780 0.997190 133.78
8.76684000 0.997189 133.78 0.074890 43.780 0.074890 43.780 0.997189 133.78
8.76686000 0.997189 133.78 0.074891 43.780 0.074891 43.780 0.997189 133.78
8.76688000 0.997189 133.78 0.074892 43.780 0.074892 43.780 0.997189 133.78
8.76690000 0.997189 133.78 0.074892 43.779 0.074892 43.779 0.997189 133.78
8.76692000 0.997189 133.78 0.074893 43.779 0.074893 43.779 0.997189 133.78
8.76694000 0.997189 133.78 0.074894 43.779 0.074894 43.779 0.997189 133.78
8.76696000 0.997189 133.78 0.074894 43.779 0.074894 43.779 0.997189 133.78
8.76698000 0.997189 133.78 0.074895 43.779 0.074895 43.779 0.997189 133.78
8.76700000 0.997189 133.78 0.074896 43.779 0.074896 43.779 0.997189 133.78
8.76702000 0.997189 133.78 0.074896 43.779 0.074896 43.779 0.997189 133.78
8.76704000 0.997189 133.78 0.074897 43.778 0.074897 43.778 0.997189 133.78
8.76706000 0.997189 133.78 0.074898 43.778 0.074898 43.778 0.997189 133.78
8.76708000 0.997189 133.78 0.074898 43.778 0.074898 43.778 0.997189 133.78
8.76710000 0.997189 133.78 0.074899 43.778 0.074899 43.778 0.997189 133.78
8.76712000 0.997189 133.78 0.074900 43.778 0.074900 43.778 0.997189 133.78
8.76714000 0.997189 133.78 0.074900 43.778 0.074900 43.778 0.997189 133.78
8.76716000 0.997189 133.78 0.074901 43.778 0.074901 43.778 0.997189 133.78
8.76718000 0.997189 133.78 0.074902 43.778 0.074902 43.778 0.997189 133.78
8.76720000 0.997189 133.78 0.074902 43.777 0.074902 43.777 0.997189 133.78
8.76722000 0.997189 133.78 0.074903 43.777 0.074903 43.777 0.997189 133.78
8.76724000 0.997188 133.78 0.074904 43.777 0.074904 43.777 0.997188 133.78
8.76726000 0.997188 133.78 0.074904 43.777 0.074904 43.777 0.997188 133.78
8.76728000 0.997188 133.78 0.074905 43.777 0.074905 43.777 0.997188 133.78
8.76730000 0.997188 133.78 0.074905 43.777 0.074905 43.777 0.997188 133.78
8.76732000 0.997188 133.78 0.074906 43.777 0.074906 43.777 0.997188 133.78
8.76734000 0.997188 133.78 0.074907 43.776 0.074907 43.776 0.997188 133.78
8.76736000 0.997188 133.78 0.074907 43.776 0.074907 43.776 0.997188 133.78
8.76738000 0.997188 133.78 0.074908 43.776 0.074908 43.776 0.997188 133.78
8.76740000 0.997188 133.78 0.074909 43.776 0.074909 43.776 0.997188 133.78
8.76742000 0.997188 133.78 0.074909 43.776 0.074909 43.776 0.997188 133.78
8.76744000 0.997188 133.77 0.074910 43.776 0.074910 43.776 0.997188 133.77
8.76746000 0.997188 133.77 0.074911 43.776 0.074911 43.776 0.997188 133.77
8.76748000 0.997188 133.77 0.074911 43.776 0.074911 43.776 0.997188 133.77
8.76750000 0.997188 133.77 0.074912 43.775 0.074912 43.775 0.997188 133.77
8.76752000 0.997188 133.77 0.074913 43.775 0.074913 43.775 0.997188 133.77
8.76754000 0.997188 133.77 0.074913 43.775 0.074913 43.775 0.997188 133.77
8.76756000 0.997188 133.77 0.074914 43.775 0.074914 43.775 0.997188 133.77
8.76758000 0.997188 133.77 0.074915 43.775 0.074915 43.775 0.997188 133.77
8.76760000 0.997188 133.77 0.074915 43.775 0.074915 43.775 0.997188 133.77
8.76762000 0.997188 133.77 0.074916 43.775 0.074916 43.775 0.997188 133.77
8.76764000 0.997187 133.77 0.074917 43.774 0.074917 43.774 0.997187 133.77
8.76766000 0.997187 133.77 0.074917 43.774 0.074917 43.774 0.997187 133.77
8.76768000 0.997187 133.77 0.074918 43.774 0.074918 43.774 0.997187 133.77
8.76770000 0.997187 133.77 0.074919 43.774 0.074919 43.774 0.997187 133.77
8.76772000 0.997187 133.77 0.074919 43.774 0.074919 43.774 0.997187 133.77
8.76774000 0.997187 133.77 0.074920 43.774 0.074920 43.774 0.997187 133.77
8.76776000 0.997187 133.77 0.074921 43.774 0.074921 43.774 0.997187 133.77
8.76778000 0.997187 133.77 0.074921 43.774 0.074921 43.774 0.997187 133.77
8.76780000 0.997187 133.77 0.074922 43.773 0.074922 43.773 0.997187 133.77
8.76782000 0.997187 133.77 0.074923 43.773 0.074923 43.773 0.997187 133.77
8.76784000 0.997187 133.77 0.074923 43.773 0.074923 43.773 0.997187 133.77
8.76786000 0.997187 133.77 0.074924 43.773 0.074924 43.773 0.997187 133.77
8.76788000 0.997187 133.77 0.074925 43.773 0.074925 43.773 0.997187 133.77
8.76790000 0.997187 133.77 0.074925 43.773 0.074925 43.773 0.997187 133.77
8.76792000 0.997187 133.77 0.074926 43.773 0.074926 43.773 0.997187 133.77
8.76794000 0.997187 133.77 0.074927 43.772 0.074927 43.772 0.997187 133.77
8.76796000 0.997187 133.77 0.074928 43.772 0.074928 43.772 0.997187 133.77
8.76798000 0.997187 133.77 0.074928 43.772 0.074928 43.772 0.997187 133.77
8.76800000 0.997187 133.77 0.074929 43.772 0.074929 43.772 0.997187 133.77
8.76802000 0.997186 133.77 0.074930 43.772 0.074930 43.772 0.997187 133.77
8.76804000 0.997186 133.77 0.074930 43.772 0.074930 43.772 0.997186 133.77
8.76806000 0.997186 133.77 0.074931 43.772 0.074931 43.772 0.997186 133.77
8.76808000 0.997186 133.77 0.074932 43.772 0.074932 43.772 0.997186 133.77
8.76810000 0.997186 133.77 0.074932 43.771 0.074932 43.771 0.997186 133.77
8.76812000 0.997186 133.77 0.074933 43.771 0.074933 43.771 0.997186 133.77
8.76814000 0.997186 133.77 0.074934 43.771 0.074934 43.771 0.997186 133.77
8.76816000 0.997186 133.77 0.074934 43.771 0.074934 43.771 0.997186 133.77
8.76818000 0.997186 133.77 0.074935 43.771 0.074935 43.771 0.997186 133.77
8.76820000 0.997186 133.77 0.074936 43.771 0.074936 43.771 0.997186 133.77
8.76822000 0.997186 133.77 0.074936 43.771 0.074936 43.771 0.997186 133.77
8.76824000 0.997186 133.77 0.074937 43.770 0.074937 43.770 0.997186 133.77
8.76826000 0.997186 133.77 0.074938 43.770 0.074938 43.770 0.997186 133.77
8.76828000 0.997186 133.77 0.074938 43.770 0.074938 43.770 0.997186 133.77
8.76830000 0.997186 133.77 0.074939 43.770 0.074939 43.770 0.997186 133.77
8.76832000 0.997186 133.77 0.074940 43.770 0.074940 43.770 0.997186 133.77
8.76834000 0.997186 133.77 0.074941 43.770 0.074941 43.770 0.997186 133.77
8.76836000 0.997186 133.77 0.074941 43.770 0.074941 43.770 0.997186 133.77
8.76838000 0.997186 133.77 0.074942 43.769 0.074942 43.769 0.997186 133.77
8.76840000 0.997185 133.77 0.074943 43.769 0.074943 43.769 0.997186 133.77
8.76842000 0.997185 133.77 0.074943 43.769 0.074943 43.769 0.997185 133.77
8.76844000 0.997185 133.77 0.074944 43.769 0.074944 43.769 0.997185 133.77
8.76846000 0.997185 133.77 0.074945 43.769 0.074945 43.769 0.997185 133.77
8.76848000 0.997185 133.77 0.074945 43.769 0.074945 43.769 0.997185 133.77
8.76850000 0.997185 133.77 0.074946 43.769 0.074946 43.769 0.997185 133.77
8.76852000 0.997185 133.77 0.074947 43.769 0.074947 43.769 0.997185 133.77
8.76854000 0.997185 133.77 0.074947 43.768 0.074947 43.768 0.997185 133.77
8.76856000 0.997185 133.77 0.074948 43.768 0.074948 43.768 0.997185 133.77
8.76858000 0.997185 133.77 0.074949 43.768 0.074949 43.768 0.997185 133.77
8.76860000 0.997185 133.77 0.074950 43.768 0.074950 43.768 0.997185 133.77
8.76862000 0.997185 133.77 0.074950 43.768 0.074950 43.768 0.997185 133.77
8.76864000 0.997185 133.77 0.074951 43.768 0.074951 43.768 0.997185 133.77
8.76866000 0.997185 133.77 0.074952 43.768 0.074952 43.768 0.997185 133.77
8.76868000 0.997185 133.77 0.074952 43.767 0.074952 43.767 0.997185 133.77
8.76870000 0.997185 133.77 0.074953 43.767 0.074953 43.767 0.997185 133.77
8.76872000 0.997185 133.77 0.074954 43.767 0.074954 43.767 0.997185 133.77
8.76874000 0.997185 133.77 0.074954 43.767 0.074954 43.767 0.997185 133.77
8.76876000 0.997185 133.77 0.074955 43.767 0.074955 43.767 0.997185 133.77
8.76878000 0.997184 133.77 0.074956 43.767 0.074956 43.767 0.997185 133.77
8.76880000 0.997184 133.77 0.074957 43.767 0.074957 43.767 0.997184 133.77
8.76882000 0.997184 133.77 0.074957 43.766 0.074957 43.766 0.997184 133.77
8.76884000 0.997184 133.77 0.074958 43.766 0.074958 43.766 0.997184 133.77
8.76886000 0.997184 133.77 0.074959 43.766 0.074959 43.766 0.997184 133.77
8.76888000 0.997184 133.77 0.074959 43.766 0.074959 43.766 0.997184 133.77
8.76890000 0.997184 133.76 0.074960 43.766 0.074960 43.766 0.997184 133.77
8.76892000 0.997184 133.76 0.074961 43.766 0.074961 43.766 0.997184 133.77
8.76894000 0.997184 133.76 0.074961 43.766 0.074961 43.766 0.997184 133.76
8.76896000 0.997184 133.76 0.074962 43.766 0.074962 43.766 0.997184 133.76
8.76898000 0.997184 133.76 0.074963 43.765 0.074963 43.765 0.997184 133.76
8.76900000 0.997184 133.76 0.074964 43.765 0.074964 43.765 0.997184 133.76
8.76902000 0.997184 133.76 0.074964 43.765 0.074964 43.765 0.997184 133.76
8.76904000 0.997184 133.76 0.074965 43.765 0.074965 43.765 0.997184 133.76
8.76906000 0.997184 133.76 0.074966 43.765 0.074966 43.765 0.997184 133.76
8.76908000 0.997184 133.76 0.074966 43.765 0.074966 43.765 0.997184 133.76
8.76910000 0.997184 133.76 0.074967 43.765 0.074967 43.765 0.997184 133.76
8.76912000 0.997184 133.76 0.074968 43.764 0.074968 43.764 0.997184 133.76
8.76914000 0.997184 133.76 0.074969 43.764 0.074969 43.764 0.997184 133.76
8.76916000 0.997183 133.76 0.074969 43.764 0.074969 43.764 0.997183 133.76
8.76918000 0.997183 133.76 0.074970 43.764 0.074970 43.764 0.997183 133.76
8.76920000 0.997183 133.76 0.074971 43.764 0.074971 43.764 0.997183 133.76
8.76922000 0.997183 133.76 0.074971 43.764 0.074971 43.764 0.997183 133.76
8.76924000 0.997183 133.76 0.074972 43.764 0.074972 43.764 0.997183 133.76
8.76926000 0.997183 133.76 0.074973 43.763 0.074973 43.763 0.997183 133.76
8.76928000 0.997183 133.76 0.074974 43.763 0.074974 43.763 0.997183 133.76
8.76930000 0.997183 133.76 0.074974 43.763 0.074974 43.763 0.997183 133.76
8.76932000 0.997183 133.76 0.074975 43.763 0.074975 43.763 0.997183 133.76
8.76934000 0.997183 133.76 0.074976 43.763 0.074976 43.763 0.997183 133.76
8.76936000 0.997183 133.76 0.074977 43.763 0.074977 43.763 0.997183 133.76
8.76938000 0.997183 133.76 0.074977 43.763 0.074977 43.763 0.997183 133.76
8.76940000 0.997183 133.76 0.074978 43.763 0.074978 43.763 0.997183 133.76
8.76942000 0.997183 133.76 0.074979 43.762 0.074979 43.762 0.997183 133.76
8.76944000 0.997183 133.76 0.074979 43.762 0.074979 43.762 0.997183 133.76
8.76946000 0.997183 133.76 0.074980 43.762 0.074980 43.762 0.997183 133.76
8.76948000 0.997183 133.76 0.074981 43.762 0.074981 43.762 0.997183 133.76
8.76950000 0.997183 133.76 0.074982 43.762 0.074982 43.762 0.997183 133.76
8.76952000 0.997182 133.76 0.074982 43.762 0.074982 43.762 0.997183 133.76
8.76954000 0.997182 133.76 0.074983 43.762 0.074983 43.762 0.997182 133.76
8.76956000 0.997182 133.76 0.074984 43.761 0.074984 43.761 0.997182 133.76
8.76958000 0.997182 133.76 0.074985 43.761 0.074985 43.761 0.997182 133.76
8.76960000 0.997182 133.76 0.074985 43.761 0.074985 43.761 0.997182 133.76
8.76962000 0.997182 133.76 0.074986 43.761 0.074986 43.761 0.997182 133.76
8.76964000 0.997182 133.76 0.074987 43.761 0.074987 43.761 0.997182 133.76
8.76966000 0.997182 133.76 0.074987 43.761 0.074987 43.761 0.997182 133.76
8.76968000 0.997182 133.76 0.074988 43.761 0.074988 43.761 0.997182 133.76
8.76970000 0.997182 133.76 0.074989 43.760 0.074989 43.760 0.997182 133.76
8.76972000 0.997182 133.76 0.074990 43.760 0.074990 43.760 0.997182 133.76
8.76974000 0.997182 133.76 0.074990 43.760 0.074990 43.760 0.997182 133.76
8.76976000 0.997182 133.76 0.074991 43.760 0.074991 43.760 0.997182 133.76
8.76978000 0.997182 133.76 0.074992 43.760 0.074992 43.760 0.997182 133.76
8.76980000 0.997182 133.76 0.074993 43.760 0.074993 43.760 0.997182 133.76
8.76982000 0.997182 133.76 0.074993 43.760 0.074993 43.760 0.997182 133.76
8.76984000 0.997182 133.76 0.074994 43.759 0.074994 43.759 0.997182 133.76
8.76986000 0.997182 133.76 0.074995 43.759 0.074995 43.759 0.997182 133.76
8.76988000 0.997181 133.76 0.074996 43.759 0.074996 43.759 0.997181 133.76
8.76990000 0.997181 133.76 0.074996 43.759 0.074996 43.759 0.997181 133.76
8.76992000 0.997181 133.76 0.074997 43.759 0.074997 43.759 0.997181 133.76
8.76994000 0.997181 133.76 0.074998 43.759 0.074998 43.759 0.997181 133.76
8.76996000 0.997181 133.76 0.074999 43.759 0.074999 43.759 0.997181 133.76
8.76998000 0.997181 133.76 0.074999 43.758 0.074999 43.758 0.997181 133.76
8.77000000 0.997181 133.76 0.075000 43.758 0.075000 43.758 0.997181 133.76
8.77002000 0.997181 133.76 0.075001 43.758 0.075001 43.758 0.997181 133.76
8.77004000 0.997181 133.76 0.075002 43.758 0.075002 43.758 0.997181 133.76
8.77006000 0.997181 133.76 0.075002 43.758 0.075002 43.758 0.997181 133.76
8.77008000 0.997181 133.76 0.075003 43.758 0.075003 43.758 0.997181 133.76
8.77010000 0.997181 133.76 0.075004 43.758 0.075004 43.758 0.997181 133.76
8.77012000 0.997181 133.76 0.075005 43.758 0.075005 43.758 0.997181 133.76
8.77014000 0.997181 133.76 0.075005 43.757 0.075005 43.757 0.997181 133.76
8.77016000 0.997181 133.76 0.075006 43.757 0.075006 43.757 0.997181 133.76
8.77018000 0.997181 133.76 0.075007 43.757 0.075007 43.757 0.997181 133.76
8.77020000 0.997181 133.76 0.075008 43.757 0.075008 43.757 0.997181 133.76
8.77022000 0.997180 133.76 0.075008 43.757 0.075008 43.757 0.997181 133.76
8.77024000 0.997180 133.76 0.075009 43.757 0.075009 43.757 0.997180 133.76
8.77026000 0.997180 133.76 0.075010 43.757 0.075010 43.757 0.997180 133.76
8.77028000 0.997180 133.76 0.075011 43.756 0.075011 43.756 0.997180 133.76
8.77030000 0.997180 133.76 0.075011 43.756 0.075011 43.756 0.997180 133.76
8.77032000 0.997180 133.76 0.075012 43.756 0.075012 43.756 0.997180 133.76
8.77034000 0.997180 133.75 0.075013 43.756 0.075013 43.756 0.997180 133.76
8.77036000 0.997180 133.75 0.075014 43.756 0.075014 43.756 0.997180 133.76
8.77038000 0.997180 133.75 0.075014 43.756 0.075014 43.756 0.997180 133.76
8.77040000 0.997180 133.75 0.075015 43.756 0.075015 43.756 0.997180 133.75
8.77042000 0.997180 133.75 0.075016 43.755 0.075016 43.755 0.997180 133.75
8.77044000 0.997180 133.75 0.075017 43.755 0.075017 43.755 0.997180 133.75
8.77046000 0.997180 133.75 0.075017 43.755 0.075017 43.755 0.997180 133.75
8.77048000 0.997180 133.75 0.075018 43.755 0.075018 43.755 0.997180 133.75
8.77050000 0.997180 133.75 0.075019 43.755 0.075019 43.755 0.997180 133.75
8.77052000 0.997180 133.75 0.075020 43.755 0.075020 43.755 0.997180 133.75
8.77054000 0.997180 133.75 0.075021 43.755 0.075021 43.755 0.997180 133.75
8.77056000 0.997180 133.75 0.075021 43.754 0.075021 43.754 0.997180 133.75
8.77058000 0.997179 133.75 0.075022 43.754 0.075022 43.754 0.997179 133.75
8.77060000 0.997179 133.75 0.075023 43.754 0.075023 43.754 0.997179 133.75
8.77062000 0.997179 133.75 0.075024 43.754 0.075024 43.754 0.997179 133.75
8.77064000 0.997179 133.75 0.075024 43.754 0.075024 43.754 0.997179 133.75
8.77066000 0.997179 133.75 0.075025 43.754 0.075025 43.754 0.997179 133.75
8.77068000 0.997179 133.75 0.075026 43.754 0.075026 43.754 0.997179 133.75
8.77070000 0.997179 133.75 0.075027 43.753 0.075027 43.753 0.997179 133.75
8.77072000 0.997179 133.75 0.075027 43.753 0.075027 43.753 0.997179 133.75
8.77074000 0.997179 133.75 0.075028 43.753 0.075028 43.753 0.997179 133.75
8.77076000 0.997179 133.75 0.075029 43.753 0.075029 43.753 0.997179 133.75
8.77078000 0.997179 133.75 0.075030 43.753 0.075030 43.753 0.997179 133.75
8.77080000 0.997179 133.75 0.075031 43.753 0.075031 43.753 0.997179 133.75
8.77082000 0.997179 133.75 0.075031 43.753 0.075031 43.753 0.997179 133.75
8.77084000 0.997179 133.75 0.075032 43.752 0.075032 43.752 0.997179 133.75
8.77086000 0.997179 133.75 0.075033 43.752 0.075033 43.752 0.997179 133.75
8.77088000 0.997179 133.75 0.075034 43.752 0.075034 43.752 0.997179 133.75
8.77090000 0.997179 133.75 0.075034 43.752 0.075034 43.752 0.997179 133.75
8.77092000 0.997178 133.75 0.075035 43.752 0.075035 43.752 0.997178 133.75
8.77094000 0.997178 133.75 0.075036 43.752 0.075036 43.752 0.997178 133.75
8.77096000 0.997178 133.75 0.075037 43.752 0.075037 43.752 0.997178 133.75
8.77098000 0.997178 133.75 0.075038 43.751 0.075038 43.751 0.997178 133.75
8.77100000 0.997178 133.75 0.075038 43.751 0.075038 43.751 0.997178 133.75
8.77102000 0.997178 133.75 0.075039 43.751 0.075039 43.751 0.997178 133.75
8.77104000 0.997178 133.75 0.075040 43.751 0.075040 43.751 0.997178 133.75
8.77106000 0.997178 133.75 0.075041 43.751 0.075041 43.751 0.997178 133.75
8.77108000 0.997178 133.75 0.075042 43.751 0.075042 43.751 0.997178 133.75
8.77110000 0.997178 133.75 0.075042 43.751 0.075042 43.751 0.997178 133.75
8.77112000 0.997178 133.75 0.075043 43.751 0.075043 43.751 0.997178 133.75
8.77114000 0.997178 133.75 0.075044 43.750 0.075044 43.750 0.997178 133.75
8.77116000 0.997178 133.75 0.075045 43.750 0.075045 43.750 0.997178 133.75
8.77118000 0.997178 133.75 0.075045 43.750 0.075045 43.750 0.997178 133.75
8.77120000 0.997178 133.75 0.075046 43.750 0.075046 43.750 0.997178 133.75
8.77122000 0.997178 133.75 0.075047 43.750 0.075047 43.750 0.997178 133.75
8.77124000 0.997177 133.75 0.075048 43.750 0.075048 43.750 0.997178 133.75
8.77126000 0.997177 133.75 0.075049 43.750 0.075049 43.750 0.997177 133.75
8.77128000 0.997177 133.75 0.075049 43.749 0.075049 43.749 0.997177 133.75
8.77130000 0.997177 133.75 0.075050 43.749 0.075050 43.749 0.997177 133.75
8.77132000 0.997177 133.75 0.075051 43.749 0.075051 43.749 0.997177 133.75
8.77134000 0.997177 133.75 0.075052 43.749 0.075052 43.749 0.997177 133.75
8.77136000 0.997177 133.75 0.075053 43.749 0.075053 43.749 0.997177 133.75
8.77138000 0.997177 133.75 0.075053 43.749 0.075053 43.749 0.997177 133.75
8.77140000 0.997177 133.75 0.075054 43.749 0.075054 43.749 0.997177 133.75
8.77142000 0.997177 133.75 0.075055 43.748 0.075055 43.748 0.997177 133.75
8.77144000 0.997177 133.75 0.075056 43.748 0.075056 43.748 0.997177 133.75
8.77146000 0.997177 133.75 0.075057 43.748 0.075057 43.748 0.997177 133.75
8.77148000 0.997177 133.75 0.075058 43.748 0.075058 43.748 0.997177 133.75
8.77150000 0.997177 133.75 0.075058 43.748 0.075058 43.748 0.997177 133.75
8.77152000 0.997177 133.75 0.075059 43.748 0.075059 43.748 0.997177 133.75
8.77154000 0.997177 133.75 0.075060 43.748 0.075060 43.748 0.997177 133.75
8.77156000 0.997176 133.75 0.075061 43.747 0.075061 43.747 0.997177 133.75
8.77158000 0.997176 133.75 0.075062 43.747 0.075062 43.747 0.997176 133.75
8.77160000 0.997176 133.75 0.075062 43.747 0.075062 43.747 0.997176 133.75
8.77162000 0.997176 133.75 0.075063 43.747 0.075063 43.747 0.997176 133.75
8.77164000 0.997176 133.75 0.075064 43.747 0.075064 43.747 0.997176 133.75
8.77166000 0.997176 133.75 0.075065 43.747 0.075065 43.747 0.997176 133.75
8.77168000 0.997176 133.75 0.075066 43.747 0.075066 43.747 0.997176 133.75
8.77170000 0.997176 133.75 0.075066 43.746 0.075066 43.746 0.997176 133.75
8.77172000 0.997176 133.75 0.075067 43.746 0.075067 43.746 0.997176 133.75
8.77174000 0.997176 133.75 0.075068 43.746 0.075068 43.746 0.997176 133.75
8.77176000 0.997176 133.74 0.075069 43.746 0.075069 43.746 0.997176 133.75
8.77178000 0.997176 133.74 0.075070 43.746 0.075070 43.746 0.997176 133.75
8.77180000 0.997176 133.74 0.075071 43.746 0.075071 43.746 0.997176 133.75
8.77182000 0.997176 133.74 0.075071 43.746 0.075071 43.746 0.997176 133.74
8.77184000 0.997176 133.74 0.075072 43.745 0.075072 43.745 0.997176 133.74
8.77186000 0.997176 133.74 0.075073 43.745 0.075073 43.745 0.997176 133.74
8.77188000 0.997175 133.74 0.075074 43.745 0.075074 43.745 0.997176 133.74
8.77190000 0.997175 133.74 0.075075 43.745 0.075075 43.745 0.997175 133.74
8.77192000 0.997175 133.74 0.075075 43.745 0.075075 43.745 0.997175 133.74
8.77194000 0.997175 133.74 0.075076 43.745 0.075076 43.745 0.997175 133.74
8.77196000 0.997175 133.74 0.075077 43.745 0.075077 43.745 0.997175 133.74
8.77198000 0.997175 133.74 0.075078 43.744 0.075078 43.744 0.997175 133.74
8.77200000 0.997175 133.74 0.075079 43.744 0.075079 43.744 0.997175 133.74
8.77202000 0.997175 133.74 0.075080 43.744 0.075080 43.744 0.997175 133.74
8.77204000 0.997175 133.74 0.075080 43.744 0.075080 43.744 0.997175 133.74
8.77206000 0.997175 133.74 0.075081 43.744 0.075081 43.744 0.997175 133.74
8.77208000 0.997175 133.74 0.075082 43.744 0.075082 43.744 0.997175 133.74
8.77210000 0.997175 133.74 0.075083 43.743 0.075083 43.743 0.997175 133.74
8.77212000 0.997175 133.74 0.075084 43.743 0.075084 43.743 0.997175 133.74
8.77214000 0.997175 133.74 0.075085 43.743 0.075085 43.743 0.997175 133.74
8.77216000 0.997175 133.74 0.075085 43.743 0.075085 43.743 0.997175 133.74
8.77218000 0.997175 133.74 0.075086 43.743 0.075086 43.743 0.997175 133.74
8.77220000 0.997174 133.74 0.075087 43.743 0.075087 43.743 0.997175 133.74
8.77222000 0.997174 133.74 0.075088 43.743 0.075088 43.743 0.997174 133.74
8.77224000 0.997174 133.74 0.075089 43.742 0.075089 43.742 0.997174 133.74
8.77226000 0.997174 133.74 0.075090 43.742 0.075090 43.742 0.997174 133.74
8.77228000 0.997174 133.74 0.075091 43.742 0.075091 43.742 0.997174 133.74
8.77230000 0.997174 133.74 0.075091 43.742 0.075091 43.742 0.997174 133.74
8.77232000 0.997174 133.74 0.075092 43.742 0.075092 43.742 0.997174 133.74
8.77234000 0.997174 133.74 0.075093 43.742 0.075093 43.742 0.997174 133.74
8.77236000 0.997174 133.74 0.075094 43.742 0.075094 43.742 0.997174 133.74
8.77238000 0.997174 133.74 0.075095 43.741 0.075095 43.741 0.997174 133.74
8.77240000 0.997174 133.74 0.075096 43.741 0.075096 43.741 0.997174 133.74
8.77242000 0.997174 133.74 0.075096 43.741 0.075096 43.741 0.997174 133.74
8.77244000 0.997174 133.74 0.075097 43.741 0.075097 43.741 0.997174 133.74
8.77246000 0.997174 133.74 0.075098 43.741 0.075098 43.741 0.997174 133.74
8.77248000 0.997174 133.74 0.075099 43.741 0.075099 43.741 0.997174 133.74
8.77250000 0.997174 133.74 0.075100 43.741 0.075100 43.741 0.997174 133.74
8.77252000 0.997173 133.74 0.075101 43.740 0.075101 43.740 0.997173 133.74
8.77254000 0.997173 133.74 0.075102 43.740 0.075102 43.740 0.997173 133.74
8.77256000 0.997173 133.74 0.075102 43.740 0.075102 43.740 0.997173 133.74
8.77258000 0.997173 133.74 0.075103 43.740 0.075103 43.740 0.997173 133.74
8.77260000 0.997173 133.74 0.075104 43.740 0.075104 43.740 0.997173 133.74
8.77262000 0.997173 133.74 0.075105 43.740 0.075105 43.740 0.997173 133.74
8.77264000 0.997173 133.74 0.075106 43.740 0.075106 43.740 0.997173 133.74
8.77266000 0.997173 133.74 0.075107 43.739 0.075107 43.739 0.997173 133.74
8.77268000 0.997173 133.74 0.075108 43.739 0.075108 43.739 0.997173 133.74
8.77270000 0.997173 133.74 0.075108 43.739 0.075108 43.739 0.997173 133.74
8.77272000 0.997173 133.74 0.075109 43.739 0.075109 43.739 0.997173 133.74
8.77274000 0.997173 133.74 0.075110 43.739 0.075110 43.739 0.997173 133.74
8.77276000 0.997173 133.74 0.075111 43.739 0.075111 43.739 0.997173 133.74
8.77278000 0.997173 133.74 0.075112 43.739 0.075112 43.739 0.997173 133.74
8.77280000 0.997173 133.74 0.075113 43.738 0.075113 43.738 0.997173 133.74
8.77282000 0.997172 133.74 0.075114 43.738 0.075114 43.738 0.997172 133.74