! Sonnet Data File
! From: emgraph Version : 16.52
! From Project: Qubit_Xmon2_brg_para2
! Data is De-embedded 
! Data File Written: 11/12/2017 19:07:08
!< HDATE 11/12/2017 17:14:45
!< MDATE 11/12/2017 17:15:37
!< PARAMS
!< Lj = 11.0
!< Gap = 6.0
!< Pwid = 2000.0
!< Airgap = 6.0
!< Width = 10.0
!< Bwid = 8.0
!< Dis1 = 250.0
!< Dis2 = 256.0
!< END PARAMS
# GHZ S MA R 34.65000
8.68500000 0.981101 104.39 0.193440 14.202 0.193440 14.202 0.981101 104.02
!< P1 F=8.685 Eeff=(5.13531798 -5.6615e-5) Z0=(34.6525852 -9.396e-5) R=0.0 C=0.0 
!< P2 F=8.685 Eeff=(5.13531798 -5.6615e-5) Z0=(34.6525852 -9.396e-5) R=0.0 C=0.0 
8.68500500 0.981101 104.39 0.193442 14.202 0.193442 14.202 0.981100 104.02
8.68501000 0.981100 104.39 0.193444 14.202 0.193444 14.202 0.981100 104.02
8.68501500 0.981100 104.39 0.193446 14.201 0.193446 14.201 0.981100 104.02
8.68502000 0.981100 104.38 0.193448 14.201 0.193448 14.201 0.981099 104.02
8.68502500 0.981099 104.38 0.193449 14.201 0.193449 14.201 0.981099 104.02
8.68503000 0.981099 104.38 0.193451 14.201 0.193451 14.201 0.981099 104.02
8.68503500 0.981099 104.38 0.193453 14.201 0.193453 14.201 0.981098 104.02
8.68504000 0.981098 104.38 0.193455 14.201 0.193455 14.201 0.981098 104.02
8.68504500 0.981098 104.38 0.193457 14.201 0.193457 14.201 0.981098 104.02
8.68505000 0.981097 104.38 0.193459 14.200 0.193459 14.200 0.981097 104.02
8.68505500 0.981097 104.38 0.193460 14.200 0.193460 14.200 0.981097 104.02
8.68506000 0.981097 104.38 0.193462 14.200 0.193462 14.200 0.981096 104.02
8.68506500 0.981096 104.38 0.193464 14.200 0.193464 14.200 0.981096 104.02
8.68507000 0.981096 104.38 0.193466 14.200 0.193466 14.200 0.981096 104.02
8.68507500 0.981096 104.38 0.193468 14.200 0.193468 14.200 0.981095 104.02
8.68508000 0.981095 104.38 0.193470 14.200 0.193470 14.200 0.981095 104.02
8.68508500 0.981095 104.38 0.193472 14.199 0.193472 14.199 0.981095 104.02
8.68509000 0.981094 104.38 0.193473 14.199 0.193473 14.199 0.981094 104.02
8.68509500 0.981094 104.38 0.193475 14.199 0.193475 14.199 0.981094 104.02
8.68510000 0.981094 104.38 0.193477 14.199 0.193477 14.199 0.981093 104.02
8.68510500 0.981093 104.38 0.193479 14.199 0.193479 14.199 0.981093 104.02
8.68511000 0.981093 104.38 0.193481 14.199 0.193481 14.199 0.981093 104.02
8.68511500 0.981093 104.38 0.193483 14.199 0.193483 14.199 0.981092 104.02
8.68512000 0.981092 104.38 0.193485 14.198 0.193485 14.198 0.981092 104.02
8.68512500 0.981092 104.38 0.193486 14.198 0.193486 14.198 0.981092 104.02
8.68513000 0.981091 104.38 0.193488 14.198 0.193488 14.198 0.981091 104.02
8.68513500 0.981091 104.38 0.193490 14.198 0.193490 14.198 0.981091 104.02
8.68514000 0.981091 104.38 0.193492 14.198 0.193492 14.198 0.981090 104.02
8.68514500 0.981090 104.38 0.193494 14.198 0.193494 14.198 0.981090 104.02
8.68515000 0.981090 104.38 0.193496 14.197 0.193496 14.197 0.981090 104.02
8.68515500 0.981090 104.38 0.193498 14.197 0.193498 14.197 0.981089 104.02
8.68516000 0.981089 104.38 0.193500 14.197 0.193500 14.197 0.981089 104.02
8.68516500 0.981089 104.38 0.193501 14.197 0.193501 14.197 0.981089 104.02
8.68517000 0.981088 104.38 0.193503 14.197 0.193503 14.197 0.981088 104.02
8.68517500 0.981088 104.38 0.193505 14.197 0.193505 14.197 0.981088 104.01
8.68518000 0.981088 104.38 0.193507 14.197 0.193507 14.197 0.981087 104.01
8.68518500 0.981087 104.38 0.193509 14.196 0.193509 14.196 0.981087 104.01
8.68519000 0.981087 104.38 0.193511 14.196 0.193511 14.196 0.981087 104.01
8.68519500 0.981086 104.38 0.193513 14.196 0.193513 14.196 0.981086 104.01
8.68520000 0.981086 104.38 0.193515 14.196 0.193515 14.196 0.981086 104.01
8.68520500 0.981086 104.38 0.193517 14.196 0.193517 14.196 0.981085 104.01
8.68521000 0.981085 104.38 0.193519 14.196 0.193519 14.196 0.981085 104.01
8.68521500 0.981085 104.38 0.193520 14.196 0.193520 14.196 0.981085 104.01
8.68522000 0.981085 104.38 0.193522 14.195 0.193522 14.195 0.981084 104.01
8.68522500 0.981084 104.38 0.193524 14.195 0.193524 14.195 0.981084 104.01
8.68523000 0.981084 104.38 0.193526 14.195 0.193526 14.195 0.981084 104.01
8.68523500 0.981083 104.38 0.193528 14.195 0.193528 14.195 0.981083 104.01
8.68524000 0.981083 104.38 0.193530 14.195 0.193530 14.195 0.981083 104.01
8.68524500 0.981083 104.38 0.193532 14.195 0.193532 14.195 0.981082 104.01
8.68525000 0.981082 104.38 0.193534 14.194 0.193534 14.194 0.981082 104.01
8.68525500 0.981082 104.38 0.193536 14.194 0.193536 14.194 0.981082 104.01
8.68526000 0.981081 104.38 0.193538 14.194 0.193538 14.194 0.981081 104.01
8.68526500 0.981081 104.38 0.193540 14.194 0.193540 14.194 0.981081 104.01
8.68527000 0.981081 104.38 0.193542 14.194 0.193542 14.194 0.981080 104.01
8.68527500 0.981080 104.38 0.193544 14.194 0.193544 14.194 0.981080 104.01
8.68528000 0.981080 104.38 0.193545 14.194 0.193545 14.194 0.981080 104.01
8.68528500 0.981080 104.38 0.193547 14.193 0.193547 14.193 0.981079 104.01
8.68529000 0.981079 104.38 0.193549 14.193 0.193549 14.193 0.981079 104.01
8.68529500 0.981079 104.38 0.193551 14.193 0.193551 14.193 0.981078 104.01
8.68530000 0.981078 104.38 0.193553 14.193 0.193553 14.193 0.981078 104.01
8.68530500 0.981078 104.38 0.193555 14.193 0.193555 14.193 0.981078 104.01
8.68531000 0.981078 104.38 0.193557 14.193 0.193557 14.193 0.981077 104.01
8.68531500 0.981077 104.38 0.193559 14.192 0.193559 14.192 0.981077 104.01
8.68532000 0.981077 104.38 0.193561 14.192 0.193561 14.192 0.981077 104.01
8.68532500 0.981076 104.38 0.193563 14.192 0.193563 14.192 0.981076 104.01
8.68533000 0.981076 104.38 0.193565 14.192 0.193565 14.192 0.981076 104.01
8.68533500 0.981076 104.38 0.193567 14.192 0.193567 14.192 0.981075 104.01
8.68534000 0.981075 104.38 0.193569 14.192 0.193569 14.192 0.981075 104.01
8.68534500 0.981075 104.38 0.193571 14.192 0.193571 14.192 0.981075 104.01
8.68535000 0.981074 104.38 0.193573 14.191 0.193573 14.191 0.981074 104.01
8.68535500 0.981074 104.38 0.193575 14.191 0.193575 14.191 0.981074 104.01
8.68536000 0.981074 104.37 0.193577 14.191 0.193577 14.191 0.981073 104.01
8.68536500 0.981073 104.37 0.193579 14.191 0.193579 14.191 0.981073 104.01
8.68537000 0.981073 104.37 0.193581 14.191 0.193581 14.191 0.981073 104.01
8.68537500 0.981072 104.37 0.193583 14.191 0.193583 14.191 0.981072 104.01
8.68538000 0.981072 104.37 0.193585 14.190 0.193585 14.190 0.981072 104.01
8.68538500 0.981072 104.37 0.193587 14.190 0.193587 14.190 0.981071 104.01
8.68539000 0.981071 104.37 0.193589 14.190 0.193589 14.190 0.981071 104.01
8.68539500 0.981071 104.37 0.193591 14.190 0.193591 14.190 0.981071 104.01
8.68540000 0.981070 104.37 0.193593 14.190 0.193593 14.190 0.981070 104.01
8.68540500 0.981070 104.37 0.193595 14.190 0.193595 14.190 0.981070 104.01
8.68541000 0.981070 104.37 0.193597 14.190 0.193597 14.190 0.981069 104.01
8.68541500 0.981069 104.37 0.193599 14.189 0.193599 14.189 0.981069 104.01
8.68542000 0.981069 104.37 0.193601 14.189 0.193601 14.189 0.981069 104.01
8.68542500 0.981068 104.37 0.193603 14.189 0.193603 14.189 0.981068 104.01
8.68543000 0.981068 104.37 0.193605 14.189 0.193605 14.189 0.981068 104.01
8.68543500 0.981068 104.37 0.193607 14.189 0.193607 14.189 0.981067 104.01
8.68544000 0.981067 104.37 0.193609 14.189 0.193609 14.189 0.981067 104.01
8.68544500 0.981067 104.37 0.193611 14.188 0.193611 14.188 0.981067 104.01
8.68545000 0.981066 104.37 0.193613 14.188 0.193613 14.188 0.981066 104.01
8.68545500 0.981066 104.37 0.193615 14.188 0.193615 14.188 0.981066 104.01
8.68546000 0.981066 104.37 0.193617 14.188 0.193617 14.188 0.981065 104.01
8.68546500 0.981065 104.37 0.193619 14.188 0.193619 14.188 0.981065 104.01
8.68547000 0.981065 104.37 0.193621 14.188 0.193621 14.188 0.981065 104.01
8.68547500 0.981064 104.37 0.193623 14.187 0.193623 14.187 0.981064 104.01
8.68548000 0.981064 104.37 0.193625 14.187 0.193625 14.187 0.981064 104.01
8.68548500 0.981064 104.37 0.193627 14.187 0.193627 14.187 0.981063 104.01
8.68549000 0.981063 104.37 0.193629 14.187 0.193629 14.187 0.981063 104.01
8.68549500 0.981063 104.37 0.193631 14.187 0.193631 14.187 0.981062 104.01
8.68550000 0.981062 104.37 0.193633 14.187 0.193633 14.187 0.981062 104.00
8.68550500 0.981062 104.37 0.193635 14.187 0.193635 14.187 0.981062 104.00
8.68551000 0.981061 104.37 0.193637 14.186 0.193637 14.186 0.981061 104.00
8.68551500 0.981061 104.37 0.193639 14.186 0.193639 14.186 0.981061 104.00
8.68552000 0.981061 104.37 0.193641 14.186 0.193641 14.186 0.981060 104.00
8.68552500 0.981060 104.37 0.193643 14.186 0.193643 14.186 0.981060 104.00
8.68553000 0.981060 104.37 0.193645 14.186 0.193645 14.186 0.981060 104.00
8.68553500 0.981059 104.37 0.193647 14.186 0.193647 14.186 0.981059 104.00
8.68554000 0.981059 104.37 0.193649 14.185 0.193649 14.185 0.981059 104.00
8.68554500 0.981059 104.37 0.193651 14.185 0.193651 14.185 0.981058 104.00
8.68555000 0.981058 104.37 0.193653 14.185 0.193653 14.185 0.981058 104.00
8.68555500 0.981058 104.37 0.193655 14.185 0.193655 14.185 0.981058 104.00
8.68556000 0.981057 104.37 0.193657 14.185 0.193657 14.185 0.981057 104.00
8.68556500 0.981057 104.37 0.193659 14.185 0.193659 14.185 0.981057 104.00
8.68557000 0.981057 104.37 0.193661 14.184 0.193661 14.184 0.981056 104.00
8.68557500 0.981056 104.37 0.193664 14.184 0.193664 14.184 0.981056 104.00
8.68558000 0.981056 104.37 0.193666 14.184 0.193666 14.184 0.981055 104.00
8.68558500 0.981055 104.37 0.193668 14.184 0.193668 14.184 0.981055 104.00
8.68559000 0.981055 104.37 0.193670 14.184 0.193670 14.184 0.981055 104.00
8.68559500 0.981054 104.37 0.193672 14.184 0.193672 14.184 0.981054 104.00
8.68560000 0.981054 104.37 0.193674 14.184 0.193674 14.184 0.981054 104.00
8.68560500 0.981054 104.37 0.193676 14.183 0.193676 14.183 0.981053 104.00
8.68561000 0.981053 104.37 0.193678 14.183 0.193678 14.183 0.981053 104.00
8.68561500 0.981053 104.37 0.193680 14.183 0.193680 14.183 0.981052 104.00
8.68562000 0.981052 104.37 0.193682 14.183 0.193682 14.183 0.981052 104.00
8.68562500 0.981052 104.37 0.193684 14.183 0.193684 14.183 0.981052 104.00
8.68563000 0.981051 104.37 0.193686 14.183 0.193686 14.183 0.981051 104.00
8.68563500 0.981051 104.37 0.193689 14.182 0.193689 14.182 0.981051 104.00
8.68564000 0.981051 104.37 0.193691 14.182 0.193691 14.182 0.981050 104.00
8.68564500 0.981050 104.37 0.193693 14.182 0.193693 14.182 0.981050 104.00
8.68565000 0.981050 104.37 0.193695 14.182 0.193695 14.182 0.981050 104.00
8.68565500 0.981049 104.37 0.193697 14.182 0.193697 14.182 0.981049 104.00
8.68566000 0.981049 104.37 0.193699 14.182 0.193699 14.182 0.981049 104.00
8.68566500 0.981049 104.37 0.193701 14.181 0.193701 14.181 0.981048 104.00
8.68567000 0.981048 104.37 0.193703 14.181 0.193703 14.181 0.981048 104.00
8.68567500 0.981048 104.37 0.193705 14.181 0.193705 14.181 0.981047 104.00
8.68568000 0.981047 104.37 0.193708 14.181 0.193708 14.181 0.981047 104.00
8.68568500 0.981047 104.36 0.193710 14.181 0.193710 14.181 0.981047 104.00
8.68569000 0.981046 104.36 0.193712 14.181 0.193712 14.181 0.981046 104.00
8.68569500 0.981046 104.36 0.193714 14.180 0.193714 14.180 0.981046 104.00
8.68570000 0.981046 104.36 0.193716 14.180 0.193716 14.180 0.981045 104.00
8.68570500 0.981045 104.36 0.193718 14.180 0.193718 14.180 0.981045 104.00
8.68571000 0.981045 104.36 0.193720 14.180 0.193720 14.180 0.981044 104.00
8.68571500 0.981044 104.36 0.193722 14.180 0.193722 14.180 0.981044 104.00
8.68572000 0.981044 104.36 0.193725 14.180 0.193725 14.180 0.981044 104.00
8.68572500 0.981043 104.36 0.193727 14.179 0.193727 14.179 0.981043 104.00
8.68573000 0.981043 104.36 0.193729 14.179 0.193729 14.179 0.981043 104.00
8.68573500 0.981043 104.36 0.193731 14.179 0.193731 14.179 0.981042 104.00
8.68574000 0.981042 104.36 0.193733 14.179 0.193733 14.179 0.981042 104.00
8.68574500 0.981042 104.36 0.193735 14.179 0.193735 14.179 0.981041 104.00
8.68575000 0.981041 104.36 0.193737 14.179 0.193737 14.179 0.981041 104.00
8.68575500 0.981041 104.36 0.193740 14.178 0.193740 14.178 0.981040 104.00
8.68576000 0.981040 104.36 0.193742 14.178 0.193742 14.178 0.981040 104.00
8.68576500 0.981040 104.36 0.193744 14.178 0.193744 14.178 0.981040 104.00
8.68577000 0.981039 104.36 0.193746 14.178 0.193746 14.178 0.981039 104.00
8.68577500 0.981039 104.36 0.193748 14.178 0.193748 14.178 0.981039 104.00
8.68578000 0.981039 104.36 0.193750 14.178 0.193750 14.178 0.981038 104.00
8.68578500 0.981038 104.36 0.193753 14.177 0.193753 14.177 0.981038 104.00
8.68579000 0.981038 104.36 0.193755 14.177 0.193755 14.177 0.981037 104.00
8.68579500 0.981037 104.36 0.193757 14.177 0.193757 14.177 0.981037 104.00
8.68580000 0.981037 104.36 0.193759 14.177 0.193759 14.177 0.981037 104.00
8.68580500 0.981036 104.36 0.193761 14.177 0.193761 14.177 0.981036 104.00
8.68581000 0.981036 104.36 0.193763 14.177 0.193763 14.177 0.981036 103.99
8.68581500 0.981036 104.36 0.193766 14.176 0.193766 14.176 0.981035 103.99
8.68582000 0.981035 104.36 0.193768 14.176 0.193768 14.176 0.981035 103.99
8.68582500 0.981035 104.36 0.193770 14.176 0.193770 14.176 0.981034 103.99
8.68583000 0.981034 104.36 0.193772 14.176 0.193772 14.176 0.981034 103.99
8.68583500 0.981034 104.36 0.193774 14.176 0.193774 14.176 0.981033 103.99
8.68584000 0.981033 104.36 0.193777 14.176 0.193777 14.176 0.981033 103.99
8.68584500 0.981033 104.36 0.193779 14.175 0.193779 14.175 0.981033 103.99
8.68585000 0.981032 104.36 0.193781 14.175 0.193781 14.175 0.981032 103.99
8.68585500 0.981032 104.36 0.193783 14.175 0.193783 14.175 0.981032 103.99
8.68586000 0.981032 104.36 0.193785 14.175 0.193785 14.175 0.981031 103.99
8.68586500 0.981031 104.36 0.193788 14.175 0.193788 14.175 0.981031 103.99
8.68587000 0.981031 104.36 0.193790 14.175 0.193790 14.175 0.981030 103.99
8.68587500 0.981030 104.36 0.193792 14.174 0.193792 14.174 0.981030 103.99
8.68588000 0.981030 104.36 0.193794 14.174 0.193794 14.174 0.981029 103.99
8.68588500 0.981029 104.36 0.193796 14.174 0.193796 14.174 0.981029 103.99
8.68589000 0.981029 104.36 0.193799 14.174 0.193799 14.174 0.981029 103.99
8.68589500 0.981028 104.36 0.193801 14.174 0.193801 14.174 0.981028 103.99
8.68590000 0.981028 104.36 0.193803 14.174 0.193803 14.174 0.981028 103.99
8.68590500 0.981027 104.36 0.193805 14.173 0.193805 14.173 0.981027 103.99
8.68591000 0.981027 104.36 0.193808 14.173 0.193808 14.173 0.981027 103.99
8.68591500 0.981027 104.36 0.193810 14.173 0.193810 14.173 0.981026 103.99
8.68592000 0.981026 104.36 0.193812 14.173 0.193812 14.173 0.981026 103.99
8.68592500 0.981026 104.36 0.193814 14.173 0.193814 14.173 0.981025 103.99
8.68593000 0.981025 104.36 0.193817 14.173 0.193817 14.173 0.981025 103.99
8.68593500 0.981025 104.36 0.193819 14.172 0.193819 14.172 0.981024 103.99
8.68594000 0.981024 104.36 0.193821 14.172 0.193821 14.172 0.981024 103.99
8.68594500 0.981024 104.36 0.193823 14.172 0.193823 14.172 0.981024 103.99
8.68595000 0.981023 104.36 0.193826 14.172 0.193826 14.172 0.981023 103.99
8.68595500 0.981023 104.36 0.193828 14.172 0.193828 14.172 0.981023 103.99
8.68596000 0.981022 104.36 0.193830 14.172 0.193830 14.172 0.981022 103.99
8.68596500 0.981022 104.36 0.193832 14.171 0.193832 14.171 0.981022 103.99
8.68597000 0.981022 104.36 0.193835 14.171 0.193835 14.171 0.981021 103.99
8.68597500 0.981021 104.36 0.193837 14.171 0.193837 14.171 0.981021 103.99
8.68598000 0.981021 104.36 0.193839 14.171 0.193839 14.171 0.981020 103.99
8.68598500 0.981020 104.36 0.193841 14.171 0.193841 14.171 0.981020 103.99
8.68599000 0.981020 104.35 0.193844 14.170 0.193844 14.170 0.981019 103.99
8.68599500 0.981019 104.35 0.193846 14.170 0.193846 14.170 0.981019 103.99
8.68600000 0.981019 104.35 0.193848 14.170 0.193848 14.170 0.981019 103.99
8.68600500 0.981018 104.35 0.193851 14.170 0.193851 14.170 0.981018 103.99
8.68601000 0.981018 104.35 0.193853 14.170 0.193853 14.170 0.981018 103.99
8.68601500 0.981017 104.35 0.193855 14.170 0.193855 14.170 0.981017 103.99
8.68602000 0.981017 104.35 0.193857 14.169 0.193857 14.169 0.981017 103.99
8.68602500 0.981016 104.35 0.193860 14.169 0.193860 14.169 0.981016 103.99
8.68603000 0.981016 104.35 0.193862 14.169 0.193862 14.169 0.981016 103.99
8.68603500 0.981016 104.35 0.193864 14.169 0.193864 14.169 0.981015 103.99
8.68604000 0.981015 104.35 0.193867 14.169 0.193867 14.169 0.981015 103.99
8.68604500 0.981015 104.35 0.193869 14.169 0.193869 14.169 0.981014 103.99
8.68605000 0.981014 104.35 0.193871 14.168 0.193871 14.168 0.981014 103.99
8.68605500 0.981014 104.35 0.193874 14.168 0.193874 14.168 0.981013 103.99
8.68606000 0.981013 104.35 0.193876 14.168 0.193876 14.168 0.981013 103.99
8.68606500 0.981013 104.35 0.193878 14.168 0.193878 14.168 0.981012 103.99
8.68607000 0.981012 104.35 0.193881 14.168 0.193881 14.168 0.981012 103.99
8.68607500 0.981012 104.35 0.193883 14.167 0.193883 14.167 0.981012 103.99
8.68608000 0.981011 104.35 0.193885 14.167 0.193885 14.167 0.981011 103.99
8.68608500 0.981011 104.35 0.193888 14.167 0.193888 14.167 0.981011 103.99
8.68609000 0.981010 104.35 0.193890 14.167 0.193890 14.167 0.981010 103.99
8.68609500 0.981010 104.35 0.193892 14.167 0.193892 14.167 0.981010 103.99
8.68610000 0.981009 104.35 0.193895 14.167 0.193895 14.167 0.981009 103.98
8.68610500 0.981009 104.35 0.193897 14.166 0.193897 14.166 0.981009 103.98
8.68611000 0.981009 104.35 0.193899 14.166 0.193899 14.166 0.981008 103.98
8.68611500 0.981008 104.35 0.193902 14.166 0.193902 14.166 0.981008 103.98
8.68612000 0.981008 104.35 0.193904 14.166 0.193904 14.166 0.981007 103.98
8.68612500 0.981007 104.35 0.193906 14.166 0.193906 14.166 0.981007 103.98
8.68613000 0.981007 104.35 0.193909 14.166 0.193909 14.166 0.981006 103.98
8.68613500 0.981006 104.35 0.193911 14.165 0.193911 14.165 0.981006 103.98
8.68614000 0.981006 104.35 0.193913 14.165 0.193913 14.165 0.981005 103.98
8.68614500 0.981005 104.35 0.193916 14.165 0.193916 14.165 0.981005 103.98
8.68615000 0.981005 104.35 0.193918 14.165 0.193918 14.165 0.981004 103.98
8.68615500 0.981004 104.35 0.193921 14.165 0.193921 14.165 0.981004 103.98
8.68616000 0.981004 104.35 0.193923 14.164 0.193923 14.164 0.981003 103.98
8.68616500 0.981003 104.35 0.193925 14.164 0.193925 14.164 0.981003 103.98
8.68617000 0.981003 104.35 0.193928 14.164 0.193928 14.164 0.981002 103.98
8.68617500 0.981002 104.35 0.193930 14.164 0.193930 14.164 0.981002 103.98
8.68618000 0.981002 104.35 0.193932 14.164 0.193932 14.164 0.981001 103.98
8.68618500 0.981001 104.35 0.193935 14.164 0.193935 14.164 0.981001 103.98
8.68619000 0.981001 104.35 0.193937 14.163 0.193937 14.163 0.981001 103.98
8.68619500 0.981000 104.35 0.193940 14.163 0.193940 14.163 0.981000 103.98
8.68620000 0.981000 104.35 0.193942 14.163 0.193942 14.163 0.981000 103.98
8.68620500 0.980999 104.35 0.193944 14.163 0.193944 14.163 0.980999 103.98
8.68621000 0.980999 104.35 0.193947 14.163 0.193947 14.163 0.980999 103.98
8.68621500 0.980998 104.35 0.193949 14.162 0.193949 14.162 0.980998 103.98
8.68622000 0.980998 104.35 0.193952 14.162 0.193952 14.162 0.980998 103.98
8.68622500 0.980997 104.35 0.193954 14.162 0.193954 14.162 0.980997 103.98
8.68623000 0.980997 104.35 0.193956 14.162 0.193956 14.162 0.980997 103.98
8.68623500 0.980996 104.35 0.193959 14.162 0.193959 14.162 0.980996 103.98
8.68624000 0.980996 104.35 0.193961 14.162 0.193961 14.162 0.980996 103.98
8.68624500 0.980995 104.35 0.193964 14.161 0.193964 14.161 0.980995 103.98
8.68625000 0.980995 104.35 0.193966 14.161 0.193966 14.161 0.980995 103.98
8.68625500 0.980994 104.35 0.193969 14.161 0.193969 14.161 0.980994 103.98
8.68626000 0.980994 104.35 0.193971 14.161 0.193971 14.161 0.980994 103.98
8.68626500 0.980994 104.35 0.193973 14.161 0.193973 14.161 0.980993 103.98
8.68627000 0.980993 104.35 0.193976 14.160 0.193976 14.160 0.980993 103.98
8.68627500 0.980993 104.35 0.193978 14.160 0.193978 14.160 0.980992 103.98
8.68628000 0.980992 104.34 0.193981 14.160 0.193981 14.160 0.980992 103.98
8.68628500 0.980992 104.34 0.193983 14.160 0.193983 14.160 0.980991 103.98
8.68629000 0.980991 104.34 0.193986 14.160 0.193986 14.160 0.980991 103.98
8.68629500 0.980991 104.34 0.193988 14.160 0.193988 14.160 0.980990 103.98
8.68630000 0.980990 104.34 0.193991 14.159 0.193991 14.159 0.980990 103.98
8.68630500 0.980990 104.34 0.193993 14.159 0.193993 14.159 0.980989 103.98
8.68631000 0.980989 104.34 0.193995 14.159 0.193995 14.159 0.980989 103.98
8.68631500 0.980989 104.34 0.193998 14.159 0.193998 14.159 0.980988 103.98
8.68632000 0.980988 104.34 0.194000 14.159 0.194000 14.159 0.980988 103.98
8.68632500 0.980988 104.34 0.194003 14.158 0.194003 14.158 0.980987 103.98
8.68633000 0.980987 104.34 0.194005 14.158 0.194005 14.158 0.980987 103.98
8.68633500 0.980987 104.34 0.194008 14.158 0.194008 14.158 0.980986 103.98
8.68634000 0.980986 104.34 0.194010 14.158 0.194010 14.158 0.980986 103.98
8.68634500 0.980986 104.34 0.194013 14.158 0.194013 14.158 0.980985 103.98
8.68635000 0.980985 104.34 0.194015 14.158 0.194015 14.158 0.980985 103.98
8.68635500 0.980985 104.34 0.194018 14.157 0.194018 14.157 0.980984 103.98
8.68636000 0.980984 104.34 0.194020 14.157 0.194020 14.157 0.980984 103.98
8.68636500 0.980984 104.34 0.194023 14.157 0.194023 14.157 0.980983 103.98
8.68637000 0.980983 104.34 0.194025 14.157 0.194025 14.157 0.980983 103.98
8.68637500 0.980982 104.34 0.194028 14.157 0.194028 14.157 0.980982 103.98
8.68638000 0.980982 104.34 0.194030 14.156 0.194030 14.156 0.980982 103.97
8.68638500 0.980981 104.34 0.194033 14.156 0.194033 14.156 0.980981 103.97
8.68639000 0.980981 104.34 0.194035 14.156 0.194035 14.156 0.980981 103.97
8.68639500 0.980980 104.34 0.194038 14.156 0.194038 14.156 0.980980 103.97
8.68640000 0.980980 104.34 0.194040 14.156 0.194040 14.156 0.980980 103.97
8.68640500 0.980979 104.34 0.194043 14.155 0.194043 14.155 0.980979 103.97
8.68641000 0.980979 104.34 0.194045 14.155 0.194045 14.155 0.980979 103.97
8.68641500 0.980978 104.34 0.194048 14.155 0.194048 14.155 0.980978 103.97
8.68642000 0.980978 104.34 0.194050 14.155 0.194050 14.155 0.980978 103.97
8.68642500 0.980977 104.34 0.194053 14.155 0.194053 14.155 0.980977 103.97
8.68643000 0.980977 104.34 0.194056 14.155 0.194056 14.155 0.980977 103.97
8.68643500 0.980976 104.34 0.194058 14.154 0.194058 14.154 0.980976 103.97
8.68644000 0.980976 104.34 0.194061 14.154 0.194061 14.154 0.980976 103.97
8.68644500 0.980975 104.34 0.194063 14.154 0.194063 14.154 0.980975 103.97
8.68645000 0.980975 104.34 0.194066 14.154 0.194066 14.154 0.980974 103.97
8.68645500 0.980974 104.34 0.194068 14.154 0.194068 14.154 0.980974 103.97
8.68646000 0.980974 104.34 0.194071 14.153 0.194071 14.153 0.980973 103.97
8.68646500 0.980973 104.34 0.194073 14.153 0.194073 14.153 0.980973 103.97
8.68647000 0.980973 104.34 0.194076 14.153 0.194076 14.153 0.980972 103.97
8.68647500 0.980972 104.34 0.194079 14.153 0.194079 14.153 0.980972 103.97
8.68648000 0.980972 104.34 0.194081 14.153 0.194081 14.153 0.980971 103.97
8.68648500 0.980971 104.34 0.194084 14.152 0.194084 14.152 0.980971 103.97
8.68649000 0.980971 104.34 0.194086 14.152 0.194086 14.152 0.980970 103.97
8.68649500 0.980970 104.34 0.194089 14.152 0.194089 14.152 0.980970 103.97
8.68650000 0.980970 104.34 0.194091 14.152 0.194091 14.152 0.980969 103.97
8.68650500 0.980969 104.34 0.194094 14.152 0.194094 14.152 0.980969 103.97
8.68651000 0.980969 104.34 0.194097 14.151 0.194097 14.151 0.980968 103.97
8.68651500 0.980968 104.34 0.194099 14.151 0.194099 14.151 0.980968 103.97
8.68652000 0.980967 104.34 0.194102 14.151 0.194102 14.151 0.980967 103.97
8.68652500 0.980967 104.34 0.194104 14.151 0.194104 14.151 0.980967 103.97
8.68653000 0.980966 104.34 0.194107 14.151 0.194107 14.151 0.980966 103.97
8.68653500 0.980966 104.34 0.194110 14.151 0.194110 14.151 0.980966 103.97
8.68654000 0.980965 104.34 0.194112 14.150 0.194112 14.150 0.980965 103.97
8.68654500 0.980965 104.34 0.194115 14.150 0.194115 14.150 0.980965 103.97
8.68655000 0.980964 104.34 0.194118 14.150 0.194118 14.150 0.980964 103.97
8.68655500 0.980964 104.33 0.194120 14.150 0.194120 14.150 0.980963 103.97
8.68656000 0.980963 104.33 0.194123 14.150 0.194123 14.150 0.980963 103.97
8.68656500 0.980963 104.33 0.194125 14.149 0.194125 14.149 0.980962 103.97
8.68657000 0.980962 104.33 0.194128 14.149 0.194128 14.149 0.980962 103.97
8.68657500 0.980962 104.33 0.194131 14.149 0.194131 14.149 0.980961 103.97
8.68658000 0.980961 104.33 0.194133 14.149 0.194133 14.149 0.980961 103.97
8.68658500 0.980961 104.33 0.194136 14.149 0.194136 14.149 0.980960 103.97
8.68659000 0.980960 104.33 0.194139 14.148 0.194139 14.148 0.980960 103.97
8.68659500 0.980959 104.33 0.194141 14.148 0.194141 14.148 0.980959 103.97
8.68660000 0.980959 104.33 0.194144 14.148 0.194144 14.148 0.980959 103.97
8.68660500 0.980958 104.33 0.194147 14.148 0.194147 14.148 0.980958 103.97
8.68661000 0.980958 104.33 0.194149 14.148 0.194149 14.148 0.980958 103.97
8.68661500 0.980957 104.33 0.194152 14.147 0.194152 14.147 0.980957 103.97
8.68662000 0.980957 104.33 0.194155 14.147 0.194155 14.147 0.980956 103.97
8.68662500 0.980956 104.33 0.194157 14.147 0.194157 14.147 0.980956 103.97
8.68663000 0.980956 104.33 0.194160 14.147 0.194160 14.147 0.980955 103.97
8.68663500 0.980955 104.33 0.194163 14.147 0.194163 14.147 0.980955 103.97
8.68664000 0.980955 104.33 0.194165 14.146 0.194165 14.146 0.980954 103.96
8.68664500 0.980954 104.33 0.194168 14.146 0.194168 14.146 0.980954 103.96
8.68665000 0.980954 104.33 0.194171 14.146 0.194171 14.146 0.980953 103.96
8.68665500 0.980953 104.33 0.194173 14.146 0.194173 14.146 0.980953 103.96
8.68666000 0.980952 104.33 0.194176 14.146 0.194176 14.146 0.980952 103.96
8.68666500 0.980952 104.33 0.194179 14.145 0.194179 14.145 0.980952 103.96
8.68667000 0.980951 104.33 0.194181 14.145 0.194181 14.145 0.980951 103.96
8.68667500 0.980951 104.33 0.194184 14.145 0.194184 14.145 0.980950 103.96
8.68668000 0.980950 104.33 0.194187 14.145 0.194187 14.145 0.980950 103.96
8.68668500 0.980950 104.33 0.194190 14.145 0.194190 14.145 0.980949 103.96
8.68669000 0.980949 104.33 0.194192 14.144 0.194192 14.144 0.980949 103.96
8.68669500 0.980949 104.33 0.194195 14.144 0.194195 14.144 0.980948 103.96
8.68670000 0.980948 104.33 0.194198 14.144 0.194198 14.144 0.980948 103.96
8.68670500 0.980947 104.33 0.194200 14.144 0.194200 14.144 0.980947 103.96
8.68671000 0.980947 104.33 0.194203 14.144 0.194203 14.144 0.980947 103.96
8.68671500 0.980946 104.33 0.194206 14.143 0.194206 14.143 0.980946 103.96
8.68672000 0.980946 104.33 0.194209 14.143 0.194209 14.143 0.980945 103.96
8.68672500 0.980945 104.33 0.194211 14.143 0.194211 14.143 0.980945 103.96
8.68673000 0.980945 104.33 0.194214 14.143 0.194214 14.143 0.980944 103.96
8.68673500 0.980944 104.33 0.194217 14.143 0.194217 14.143 0.980944 103.96
8.68674000 0.980944 104.33 0.194220 14.142 0.194220 14.142 0.980943 103.96
8.68674500 0.980943 104.33 0.194222 14.142 0.194222 14.142 0.980943 103.96
8.68675000 0.980942 104.33 0.194225 14.142 0.194225 14.142 0.980942 103.96
8.68675500 0.980942 104.33 0.194228 14.142 0.194228 14.142 0.980942 103.96
8.68676000 0.980941 104.33 0.194231 14.142 0.194231 14.142 0.980941 103.96
8.68676500 0.980941 104.33 0.194234 14.141 0.194234 14.141 0.980940 103.96
8.68677000 0.980940 104.33 0.194236 14.141 0.194236 14.141 0.980940 103.96
8.68677500 0.980940 104.33 0.194239 14.141 0.194239 14.141 0.980939 103.96
8.68678000 0.980939 104.33 0.194242 14.141 0.194242 14.141 0.980939 103.96
8.68678500 0.980939 104.33 0.194245 14.141 0.194245 14.141 0.980938 103.96
8.68679000 0.980938 104.33 0.194247 14.140 0.194247 14.140 0.980938 103.96
8.68679500 0.980937 104.33 0.194250 14.140 0.194250 14.140 0.980937 103.96
8.68680000 0.980937 104.33 0.194253 14.140 0.194253 14.140 0.980936 103.96
8.68680500 0.980936 104.33 0.194256 14.140 0.194256 14.140 0.980936 103.96
8.68681000 0.980936 104.33 0.194259 14.140 0.194259 14.140 0.980935 103.96
8.68681500 0.980935 104.32 0.194261 14.139 0.194261 14.139 0.980935 103.96
8.68682000 0.980935 104.32 0.194264 14.139 0.194264 14.139 0.980934 103.96
8.68682500 0.980934 104.32 0.194267 14.139 0.194267 14.139 0.980934 103.96
8.68683000 0.980933 104.32 0.194270 14.139 0.194270 14.139 0.980933 103.96
8.68683500 0.980933 104.32 0.194273 14.139 0.194273 14.139 0.980932 103.96
8.68684000 0.980932 104.32 0.194276 14.138 0.194276 14.138 0.980932 103.96
8.68684500 0.980932 104.32 0.194278 14.138 0.194278 14.138 0.980931 103.96
8.68685000 0.980931 104.32 0.194281 14.138 0.194281 14.138 0.980931 103.96
8.68685500 0.980930 104.32 0.194284 14.138 0.194284 14.138 0.980930 103.96
8.68686000 0.980930 104.32 0.194287 14.137 0.194287 14.137 0.980930 103.96
8.68686500 0.980929 104.32 0.194290 14.137 0.194290 14.137 0.980929 103.96
8.68687000 0.980929 104.32 0.194293 14.137 0.194293 14.137 0.980928 103.96
8.68687500 0.980928 104.32 0.194296 14.137 0.194296 14.137 0.980928 103.96
8.68688000 0.980928 104.32 0.194298 14.137 0.194298 14.137 0.980927 103.96
8.68688500 0.980927 104.32 0.194301 14.136 0.194301 14.136 0.980927 103.96
8.68689000 0.980926 104.32 0.194304 14.136 0.194304 14.136 0.980926 103.95
8.68689500 0.980926 104.32 0.194307 14.136 0.194307 14.136 0.980925 103.95
8.68690000 0.980925 104.32 0.194310 14.136 0.194310 14.136 0.980925 103.95
8.68690500 0.980925 104.32 0.194313 14.136 0.194313 14.136 0.980924 103.95
8.68691000 0.980924 104.32 0.194316 14.135 0.194316 14.135 0.980924 103.95
8.68691500 0.980923 104.32 0.194319 14.135 0.194319 14.135 0.980923 103.95
8.68692000 0.980923 104.32 0.194321 14.135 0.194321 14.135 0.980923 103.95
8.68692500 0.980922 104.32 0.194324 14.135 0.194324 14.135 0.980922 103.95
8.68693000 0.980922 104.32 0.194327 14.135 0.194327 14.135 0.980921 103.95
8.68693500 0.980921 104.32 0.194330 14.134 0.194330 14.134 0.980921 103.95
8.68694000 0.980921 104.32 0.194333 14.134 0.194333 14.134 0.980920 103.95
8.68694500 0.980920 104.32 0.194336 14.134 0.194336 14.134 0.980920 103.95
8.68695000 0.980919 104.32 0.194339 14.134 0.194339 14.134 0.980919 103.95
8.68695500 0.980919 104.32 0.194342 14.133 0.194342 14.133 0.980918 103.95