! Sonnet Data File
! From: emgraph Version : 16.52
! From Project: Qubit_Xmon2_brg
! Data is De-embedded 
! Data File Written: 10/24/2017 23:45:54
!< HDATE 10/24/2017 16:04:25
!< MDATE 10/24/2017 16:04:25
!< PARAMS
!< Lj = 11.0
!< Gap = 6.0
!< Pwid = 2000.0
!< Airgap = 6.0
!< Width = 10.0
!< Bwid = 8.0
!< Dis1 = 350.0
!< Dis2 = 356.0
!< END PARAMS
# GHZ S MA R 34.70000
8.68500000 0.985974 109.30 0.166840 19.153 0.166840 19.153 0.985974 109.01
!< P1 F=8.685 Eeff=(5.13559215 -5.6621e-5) Z0=(34.6542042 -9.3986e-5) R=0.0 C=0.0 
!< P2 F=8.685 Eeff=(5.13559215 -5.6621e-5) Z0=(34.6542042 -9.3986e-5) R=0.0 C=0.0 
8.68500500 0.985974 109.30 0.166842 19.153 0.166842 19.153 0.985974 109.01
8.68501000 0.985974 109.30 0.166843 19.153 0.166843 19.153 0.985974 109.01
8.68501500 0.985974 109.30 0.166845 19.152 0.166845 19.152 0.985973 109.01
8.68502000 0.985973 109.30 0.166846 19.152 0.166846 19.152 0.985973 109.01
8.68502500 0.985973 109.30 0.166848 19.152 0.166848 19.152 0.985973 109.01
8.68503000 0.985973 109.30 0.166850 19.152 0.166850 19.152 0.985973 109.01
8.68503500 0.985972 109.30 0.166851 19.152 0.166851 19.152 0.985972 109.01
8.68504000 0.985972 109.30 0.166853 19.152 0.166853 19.152 0.985972 109.01
8.68504500 0.985972 109.30 0.166854 19.152 0.166854 19.152 0.985972 109.01
8.68505000 0.985972 109.30 0.166856 19.151 0.166856 19.151 0.985971 109.01
8.68505500 0.985971 109.30 0.166858 19.151 0.166858 19.151 0.985971 109.01
8.68506000 0.985971 109.30 0.166859 19.151 0.166859 19.151 0.985971 109.01
8.68506500 0.985971 109.29 0.166861 19.151 0.166861 19.151 0.985971 109.01
8.68507000 0.985971 109.29 0.166862 19.151 0.166862 19.151 0.985970 109.01
8.68507500 0.985970 109.29 0.166864 19.151 0.166864 19.151 0.985970 109.01
8.68508000 0.985970 109.29 0.166866 19.151 0.166866 19.151 0.985970 109.01
8.68508500 0.985970 109.29 0.166867 19.151 0.166867 19.151 0.985969 109.01
8.68509000 0.985969 109.29 0.166869 19.150 0.166869 19.150 0.985969 109.01
8.68509500 0.985969 109.29 0.166870 19.150 0.166870 19.150 0.985969 109.01
8.68510000 0.985969 109.29 0.166872 19.150 0.166872 19.150 0.985969 109.01
8.68510500 0.985969 109.29 0.166874 19.150 0.166874 19.150 0.985968 109.01
8.68511000 0.985968 109.29 0.166875 19.150 0.166875 19.150 0.985968 109.01
8.68511500 0.985968 109.29 0.166877 19.150 0.166877 19.150 0.985968 109.01
8.68512000 0.985968 109.29 0.166879 19.150 0.166879 19.150 0.985968 109.01
8.68512500 0.985967 109.29 0.166880 19.149 0.166880 19.149 0.985967 109.01
8.68513000 0.985967 109.29 0.166882 19.149 0.166882 19.149 0.985967 109.01
8.68513500 0.985967 109.29 0.166883 19.149 0.166883 19.149 0.985967 109.01
8.68514000 0.985967 109.29 0.166885 19.149 0.166885 19.149 0.985966 109.01
8.68514500 0.985966 109.29 0.166887 19.149 0.166887 19.149 0.985966 109.01
8.68515000 0.985966 109.29 0.166888 19.149 0.166888 19.149 0.985966 109.01
8.68515500 0.985966 109.29 0.166890 19.149 0.166890 19.149 0.985966 109.01
8.68516000 0.985965 109.29 0.166892 19.149 0.166892 19.149 0.985965 109.01
8.68516500 0.985965 109.29 0.166893 19.148 0.166893 19.148 0.985965 109.01
8.68517000 0.985965 109.29 0.166895 19.148 0.166895 19.148 0.985965 109.01
8.68517500 0.985965 109.29 0.166897 19.148 0.166897 19.148 0.985964 109.01
8.68518000 0.985964 109.29 0.166898 19.148 0.166898 19.148 0.985964 109.01
8.68518500 0.985964 109.29 0.166900 19.148 0.166900 19.148 0.985964 109.01
8.68519000 0.985964 109.29 0.166901 19.148 0.166901 19.148 0.985964 109.01
8.68519500 0.985963 109.29 0.166903 19.148 0.166903 19.148 0.985963 109.01
8.68520000 0.985963 109.29 0.166905 19.148 0.166905 19.148 0.985963 109.01
8.68520500 0.985963 109.29 0.166906 19.147 0.166906 19.147 0.985963 109.01
8.68521000 0.985963 109.29 0.166908 19.147 0.166908 19.147 0.985962 109.01
8.68521500 0.985962 109.29 0.166910 19.147 0.166910 19.147 0.985962 109.00
8.68522000 0.985962 109.29 0.166911 19.147 0.166911 19.147 0.985962 109.00
8.68522500 0.985962 109.29 0.166913 19.147 0.166913 19.147 0.985962 109.00
8.68523000 0.985961 109.29 0.166915 19.147 0.166915 19.147 0.985961 109.00
8.68523500 0.985961 109.29 0.166916 19.147 0.166916 19.147 0.985961 109.00
8.68524000 0.985961 109.29 0.166918 19.146 0.166918 19.146 0.985961 109.00
8.68524500 0.985961 109.29 0.166920 19.146 0.166920 19.146 0.985960 109.00
8.68525000 0.985960 109.29 0.166921 19.146 0.166921 19.146 0.985960 109.00
8.68525500 0.985960 109.29 0.166923 19.146 0.166923 19.146 0.985960 109.00
8.68526000 0.985960 109.29 0.166925 19.146 0.166925 19.146 0.985960 109.00
8.68526500 0.985959 109.29 0.166926 19.146 0.166926 19.146 0.985959 109.00
8.68527000 0.985959 109.29 0.166928 19.146 0.166928 19.146 0.985959 109.00
8.68527500 0.985959 109.29 0.166930 19.145 0.166930 19.145 0.985959 109.00
8.68528000 0.985959 109.29 0.166931 19.145 0.166931 19.145 0.985958 109.00
8.68528500 0.985958 109.29 0.166933 19.145 0.166933 19.145 0.985958 109.00
8.68529000 0.985958 109.29 0.166935 19.145 0.166935 19.145 0.985958 109.00
8.68529500 0.985958 109.29 0.166937 19.145 0.166937 19.145 0.985957 109.00
8.68530000 0.985957 109.29 0.166938 19.145 0.166938 19.145 0.985957 109.00
8.68530500 0.985957 109.29 0.166940 19.145 0.166940 19.145 0.985957 109.00
8.68531000 0.985957 109.29 0.166942 19.145 0.166942 19.145 0.985957 109.00
8.68531500 0.985956 109.29 0.166943 19.144 0.166943 19.144 0.985956 109.00
8.68532000 0.985956 109.29 0.166945 19.144 0.166945 19.144 0.985956 109.00
8.68532500 0.985956 109.29 0.166947 19.144 0.166947 19.144 0.985956 109.00
8.68533000 0.985956 109.29 0.166948 19.144 0.166948 19.144 0.985955 109.00
8.68533500 0.985955 109.29 0.166950 19.144 0.166950 19.144 0.985955 109.00
8.68534000 0.985955 109.29 0.166952 19.144 0.166952 19.144 0.985955 109.00
8.68534500 0.985955 109.29 0.166954 19.144 0.166954 19.144 0.985955 109.00
8.68535000 0.985954 109.29 0.166955 19.143 0.166955 19.143 0.985954 109.00
8.68535500 0.985954 109.29 0.166957 19.143 0.166957 19.143 0.985954 109.00
8.68536000 0.985954 109.29 0.166959 19.143 0.166959 19.143 0.985954 109.00
8.68536500 0.985954 109.29 0.166960 19.143 0.166960 19.143 0.985953 109.00
8.68537000 0.985953 109.29 0.166962 19.143 0.166962 19.143 0.985953 109.00
8.68537500 0.985953 109.29 0.166964 19.143 0.166964 19.143 0.985953 109.00
8.68538000 0.985953 109.29 0.166966 19.143 0.166966 19.143 0.985952 109.00
8.68538500 0.985952 109.29 0.166967 19.142 0.166967 19.142 0.985952 109.00
8.68539000 0.985952 109.29 0.166969 19.142 0.166969 19.142 0.985952 109.00
8.68539500 0.985952 109.29 0.166971 19.142 0.166971 19.142 0.985952 109.00
8.68540000 0.985951 109.29 0.166972 19.142 0.166972 19.142 0.985951 109.00
8.68540500 0.985951 109.29 0.166974 19.142 0.166974 19.142 0.985951 109.00
8.68541000 0.985951 109.29 0.166976 19.142 0.166976 19.142 0.985951 109.00
8.68541500 0.985951 109.29 0.166978 19.142 0.166978 19.142 0.985950 109.00
8.68542000 0.985950 109.29 0.166979 19.142 0.166979 19.142 0.985950 109.00
8.68542500 0.985950 109.29 0.166981 19.141 0.166981 19.141 0.985950 109.00
8.68543000 0.985950 109.29 0.166983 19.141 0.166983 19.141 0.985949 109.00
8.68543500 0.985949 109.29 0.166985 19.141 0.166985 19.141 0.985949 109.00
8.68544000 0.985949 109.29 0.166986 19.141 0.166986 19.141 0.985949 109.00
8.68544500 0.985949 109.29 0.166988 19.141 0.166988 19.141 0.985949 109.00
8.68545000 0.985948 109.28 0.166990 19.141 0.166990 19.141 0.985948 109.00
8.68545500 0.985948 109.28 0.166992 19.141 0.166992 19.141 0.985948 109.00
8.68546000 0.985948 109.28 0.166993 19.140 0.166993 19.140 0.985948 109.00
8.68546500 0.985947 109.28 0.166995 19.140 0.166995 19.140 0.985947 109.00
8.68547000 0.985947 109.28 0.166997 19.140 0.166997 19.140 0.985947 109.00
8.68547500 0.985947 109.28 0.166999 19.140 0.166999 19.140 0.985947 109.00
8.68548000 0.985947 109.28 0.167000 19.140 0.167000 19.140 0.985946 109.00
8.68548500 0.985946 109.28 0.167002 19.140 0.167002 19.140 0.985946 109.00
8.68549000 0.985946 109.28 0.167004 19.140 0.167004 19.140 0.985946 109.00
8.68549500 0.985946 109.28 0.167006 19.139 0.167006 19.139 0.985945 109.00
8.68550000 0.985945 109.28 0.167007 19.139 0.167007 19.139 0.985945 109.00
8.68550500 0.985945 109.28 0.167009 19.139 0.167009 19.139 0.985945 109.00
8.68551000 0.985945 109.28 0.167011 19.139 0.167011 19.139 0.985945 109.00
8.68551500 0.985944 109.28 0.167013 19.139 0.167013 19.139 0.985944 109.00
8.68552000 0.985944 109.28 0.167015 19.139 0.167015 19.139 0.985944 109.00
8.68552500 0.985944 109.28 0.167016 19.139 0.167016 19.139 0.985944 109.00
8.68553000 0.985943 109.28 0.167018 19.138 0.167018 19.138 0.985943 109.00
8.68553500 0.985943 109.28 0.167020 19.138 0.167020 19.138 0.985943 109.00
8.68554000 0.985943 109.28 0.167022 19.138 0.167022 19.138 0.985943 109.00
8.68554500 0.985943 109.28 0.167023 19.138 0.167023 19.138 0.985942 109.00
8.68555000 0.985942 109.28 0.167025 19.138 0.167025 19.138 0.985942 109.00
8.68555500 0.985942 109.28 0.167027 19.138 0.167027 19.138 0.985942 109.00
8.68556000 0.985942 109.28 0.167029 19.138 0.167029 19.138 0.985941 109.00
8.68556500 0.985941 109.28 0.167031 19.137 0.167031 19.137 0.985941 109.00
8.68557000 0.985941 109.28 0.167032 19.137 0.167032 19.137 0.985941 109.00
8.68557500 0.985941 109.28 0.167034 19.137 0.167034 19.137 0.985940 109.00
8.68558000 0.985940 109.28 0.167036 19.137 0.167036 19.137 0.985940 108.99
8.68558500 0.985940 109.28 0.167038 19.137 0.167038 19.137 0.985940 108.99
8.68559000 0.985940 109.28 0.167040 19.137 0.167040 19.137 0.985940 108.99
8.68559500 0.985939 109.28 0.167041 19.137 0.167041 19.137 0.985939 108.99
8.68560000 0.985939 109.28 0.167043 19.136 0.167043 19.136 0.985939 108.99
8.68560500 0.985939 109.28 0.167045 19.136 0.167045 19.136 0.985939 108.99
8.68561000 0.985938 109.28 0.167047 19.136 0.167047 19.136 0.985938 108.99
8.68561500 0.985938 109.28 0.167049 19.136 0.167049 19.136 0.985938 108.99
8.68562000 0.985938 109.28 0.167051 19.136 0.167051 19.136 0.985938 108.99
8.68562500 0.985938 109.28 0.167052 19.136 0.167052 19.136 0.985937 108.99
8.68563000 0.985937 109.28 0.167054 19.136 0.167054 19.136 0.985937 108.99
8.68563500 0.985937 109.28 0.167056 19.135 0.167056 19.135 0.985937 108.99
8.68564000 0.985937 109.28 0.167058 19.135 0.167058 19.135 0.985936 108.99
8.68564500 0.985936 109.28 0.167060 19.135 0.167060 19.135 0.985936 108.99
8.68565000 0.985936 109.28 0.167061 19.135 0.167061 19.135 0.985936 108.99
8.68565500 0.985936 109.28 0.167063 19.135 0.167063 19.135 0.985935 108.99
8.68566000 0.985935 109.28 0.167065 19.135 0.167065 19.135 0.985935 108.99
8.68566500 0.985935 109.28 0.167067 19.135 0.167067 19.135 0.985935 108.99
8.68567000 0.985935 109.28 0.167069 19.134 0.167069 19.134 0.985934 108.99
8.68567500 0.985934 109.28 0.167071 19.134 0.167071 19.134 0.985934 108.99
8.68568000 0.985934 109.28 0.167072 19.134 0.167072 19.134 0.985934 108.99
8.68568500 0.985934 109.28 0.167074 19.134 0.167074 19.134 0.985934 108.99
8.68569000 0.985933 109.28 0.167076 19.134 0.167076 19.134 0.985933 108.99
8.68569500 0.985933 109.28 0.167078 19.134 0.167078 19.134 0.985933 108.99
8.68570000 0.985933 109.28 0.167080 19.134 0.167080 19.134 0.985933 108.99
8.68570500 0.985932 109.28 0.167082 19.133 0.167082 19.133 0.985932 108.99
8.68571000 0.985932 109.28 0.167084 19.133 0.167084 19.133 0.985932 108.99
8.68571500 0.985932 109.28 0.167085 19.133 0.167085 19.133 0.985932 108.99
8.68572000 0.985931 109.28 0.167087 19.133 0.167087 19.133 0.985931 108.99
8.68572500 0.985931 109.28 0.167089 19.133 0.167089 19.133 0.985931 108.99
8.68573000 0.985931 109.28 0.167091 19.133 0.167091 19.133 0.985931 108.99
8.68573500 0.985930 109.28 0.167093 19.133 0.167093 19.133 0.985930 108.99
8.68574000 0.985930 109.28 0.167095 19.132 0.167095 19.132 0.985930 108.99
8.68574500 0.985930 109.28 0.167097 19.132 0.167097 19.132 0.985930 108.99
8.68575000 0.985930 109.28 0.167099 19.132 0.167099 19.132 0.985929 108.99
8.68575500 0.985929 109.28 0.167100 19.132 0.167100 19.132 0.985929 108.99
8.68576000 0.985929 109.28 0.167102 19.132 0.167102 19.132 0.985929 108.99
8.68576500 0.985929 109.28 0.167104 19.132 0.167104 19.132 0.985928 108.99
8.68577000 0.985928 109.28 0.167106 19.132 0.167106 19.132 0.985928 108.99
8.68577500 0.985928 109.28 0.167108 19.131 0.167108 19.131 0.985928 108.99
8.68578000 0.985928 109.28 0.167110 19.131 0.167110 19.131 0.985927 108.99
8.68578500 0.985927 109.28 0.167112 19.131 0.167112 19.131 0.985927 108.99
8.68579000 0.985927 109.28 0.167114 19.131 0.167114 19.131 0.985927 108.99
8.68579500 0.985927 109.28 0.167115 19.131 0.167115 19.131 0.985926 108.99
8.68580000 0.985926 109.28 0.167117 19.131 0.167117 19.131 0.985926 108.99
8.68580500 0.985926 109.27 0.167119 19.130 0.167119 19.130 0.985926 108.99
8.68581000 0.985926 109.27 0.167121 19.130 0.167121 19.130 0.985925 108.99
8.68581500 0.985925 109.27 0.167123 19.130 0.167123 19.130 0.985925 108.99
8.68582000 0.985925 109.27 0.167125 19.130 0.167125 19.130 0.985925 108.99
8.68582500 0.985925 109.27 0.167127 19.130 0.167127 19.130 0.985924 108.99
8.68583000 0.985924 109.27 0.167129 19.130 0.167129 19.130 0.985924 108.99
8.68583500 0.985924 109.27 0.167131 19.130 0.167131 19.130 0.985924 108.99
8.68584000 0.985924 109.27 0.167133 19.129 0.167133 19.129 0.985923 108.99
8.68584500 0.985923 109.27 0.167135 19.129 0.167135 19.129 0.985923 108.99
8.68585000 0.985923 109.27 0.167136 19.129 0.167136 19.129 0.985923 108.99
8.68585500 0.985923 109.27 0.167138 19.129 0.167138 19.129 0.985922 108.99
8.68586000 0.985922 109.27 0.167140 19.129 0.167140 19.129 0.985922 108.99
8.68586500 0.985922 109.27 0.167142 19.129 0.167142 19.129 0.985922 108.99
8.68587000 0.985922 109.27 0.167144 19.129 0.167144 19.129 0.985921 108.99
8.68587500 0.985921 109.27 0.167146 19.128 0.167146 19.128 0.985921 108.99
8.68588000 0.985921 109.27 0.167148 19.128 0.167148 19.128 0.985921 108.99
8.68588500 0.985921 109.27 0.167150 19.128 0.167150 19.128 0.985920 108.99
8.68589000 0.985920 109.27 0.167152 19.128 0.167152 19.128 0.985920 108.99
8.68589500 0.985920 109.27 0.167154 19.128 0.167154 19.128 0.985920 108.99
8.68590000 0.985920 109.27 0.167156 19.128 0.167156 19.128 0.985919 108.99
8.68590500 0.985919 109.27 0.167158 19.127 0.167158 19.127 0.985919 108.99
8.68591000 0.985919 109.27 0.167160 19.127 0.167160 19.127 0.985919 108.99
8.68591500 0.985919 109.27 0.167162 19.127 0.167162 19.127 0.985918 108.99
8.68592000 0.985918 109.27 0.167164 19.127 0.167164 19.127 0.985918 108.99
8.68592500 0.985918 109.27 0.167166 19.127 0.167166 19.127 0.985918 108.98
8.68593000 0.985918 109.27 0.167168 19.127 0.167168 19.127 0.985917 108.98
8.68593500 0.985917 109.27 0.167169 19.127 0.167169 19.127 0.985917 108.98
8.68594000 0.985917 109.27 0.167171 19.126 0.167171 19.126 0.985917 108.98
8.68594500 0.985916 109.27 0.167173 19.126 0.167173 19.126 0.985916 108.98
8.68595000 0.985916 109.27 0.167175 19.126 0.167175 19.126 0.985916 108.98
8.68595500 0.985916 109.27 0.167177 19.126 0.167177 19.126 0.985916 108.98
8.68596000 0.985915 109.27 0.167179 19.126 0.167179 19.126 0.985915 108.98
8.68596500 0.985915 109.27 0.167181 19.126 0.167181 19.126 0.985915 108.98
8.68597000 0.985915 109.27 0.167183 19.125 0.167183 19.125 0.985915 108.98
8.68597500 0.985914 109.27 0.167185 19.125 0.167185 19.125 0.985914 108.98
8.68598000 0.985914 109.27 0.167187 19.125 0.167187 19.125 0.985914 108.98
8.68598500 0.985914 109.27 0.167189 19.125 0.167189 19.125 0.985914 108.98
8.68599000 0.985913 109.27 0.167191 19.125 0.167191 19.125 0.985913 108.98
8.68599500 0.985913 109.27 0.167193 19.125 0.167193 19.125 0.985913 108.98
8.68600000 0.985913 109.27 0.167195 19.125 0.167195 19.125 0.985912 108.98
8.68600500 0.985912 109.27 0.167197 19.124 0.167197 19.124 0.985912 108.98
8.68601000 0.985912 109.27 0.167199 19.124 0.167199 19.124 0.985912 108.98
8.68601500 0.985912 109.27 0.167201 19.124 0.167201 19.124 0.985911 108.98
8.68602000 0.985911 109.27 0.167203 19.124 0.167203 19.124 0.985911 108.98
8.68602500 0.985911 109.27 0.167205 19.124 0.167205 19.124 0.985911 108.98
8.68603000 0.985911 109.27 0.167207 19.124 0.167207 19.124 0.985910 108.98
8.68603500 0.985910 109.27 0.167209 19.123 0.167209 19.123 0.985910 108.98
8.68604000 0.985910 109.27 0.167211 19.123 0.167211 19.123 0.985910 108.98
8.68604500 0.985910 109.27 0.167213 19.123 0.167213 19.123 0.985909 108.98
8.68605000 0.985909 109.27 0.167215 19.123 0.167215 19.123 0.985909 108.98
8.68605500 0.985909 109.27 0.167217 19.123 0.167217 19.123 0.985909 108.98
8.68606000 0.985909 109.27 0.167219 19.123 0.167219 19.123 0.985908 108.98
8.68606500 0.985908 109.27 0.167221 19.123 0.167221 19.123 0.985908 108.98
8.68607000 0.985908 109.27 0.167223 19.122 0.167223 19.122 0.985908 108.98
8.68607500 0.985907 109.27 0.167225 19.122 0.167225 19.122 0.985907 108.98
8.68608000 0.985907 109.27 0.167227 19.122 0.167227 19.122 0.985907 108.98
8.68608500 0.985907 109.27 0.167229 19.122 0.167229 19.122 0.985907 108.98
8.68609000 0.985906 109.27 0.167231 19.122 0.167231 19.122 0.985906 108.98
8.68609500 0.985906 109.27 0.167233 19.122 0.167233 19.122 0.985906 108.98
8.68610000 0.985906 109.27 0.167235 19.121 0.167235 19.121 0.985905 108.98
8.68610500 0.985905 109.27 0.167238 19.121 0.167238 19.121 0.985905 108.98
8.68611000 0.985905 109.27 0.167240 19.121 0.167240 19.121 0.985905 108.98
8.68611500 0.985905 109.27 0.167242 19.121 0.167242 19.121 0.985904 108.98
8.68612000 0.985904 109.27 0.167244 19.121 0.167244 19.121 0.985904 108.98
8.68612500 0.985904 109.27 0.167246 19.121 0.167246 19.121 0.985904 108.98
8.68613000 0.985904 109.27 0.167248 19.121 0.167248 19.121 0.985903 108.98
8.68613500 0.985903 109.27 0.167250 19.120 0.167250 19.120 0.985903 108.98
8.68614000 0.985903 109.27 0.167252 19.120 0.167252 19.120 0.985903 108.98
8.68614500 0.985902 109.26 0.167254 19.120 0.167254 19.120 0.985902 108.98
8.68615000 0.985902 109.26 0.167256 19.120 0.167256 19.120 0.985902 108.98
8.68615500 0.985902 109.26 0.167258 19.120 0.167258 19.120 0.985902 108.98
8.68616000 0.985901 109.26 0.167260 19.120 0.167260 19.120 0.985901 108.98
8.68616500 0.985901 109.26 0.167262 19.119 0.167262 19.119 0.985901 108.98
8.68617000 0.985901 109.26 0.167264 19.119 0.167264 19.119 0.985900 108.98
8.68617500 0.985900 109.26 0.167266 19.119 0.167266 19.119 0.985900 108.98
8.68618000 0.985900 109.26 0.167268 19.119 0.167268 19.119 0.985900 108.98
8.68618500 0.985900 109.26 0.167271 19.119 0.167271 19.119 0.985899 108.98
8.68619000 0.985899 109.26 0.167273 19.119 0.167273 19.119 0.985899 108.98
8.68619500 0.985899 109.26 0.167275 19.118 0.167275 19.118 0.985899 108.98
8.68620000 0.985898 109.26 0.167277 19.118 0.167277 19.118 0.985898 108.98
8.68620500 0.985898 109.26 0.167279 19.118 0.167279 19.118 0.985898 108.98
8.68621000 0.985898 109.26 0.167281 19.118 0.167281 19.118 0.985898 108.98
8.68621500 0.985897 109.26 0.167283 19.118 0.167283 19.118 0.985897 108.98
8.68622000 0.985897 109.26 0.167285 19.118 0.167285 19.118 0.985897 108.98
8.68622500 0.985897 109.26 0.167287 19.117 0.167287 19.117 0.985896 108.98
8.68623000 0.985896 109.26 0.167289 19.117 0.167289 19.117 0.985896 108.98
8.68623500 0.985896 109.26 0.167292 19.117 0.167292 19.117 0.985896 108.98
8.68624000 0.985896 109.26 0.167294 19.117 0.167294 19.117 0.985895 108.98
8.68624500 0.985895 109.26 0.167296 19.117 0.167296 19.117 0.985895 108.97
8.68625000 0.985895 109.26 0.167298 19.117 0.167298 19.117 0.985895 108.97
8.68625500 0.985894 109.26 0.167300 19.117 0.167300 19.117 0.985894 108.97
8.68626000 0.985894 109.26 0.167302 19.116 0.167302 19.116 0.985894 108.97
8.68626500 0.985894 109.26 0.167304 19.116 0.167304 19.116 0.985893 108.97
8.68627000 0.985893 109.26 0.167306 19.116 0.167306 19.116 0.985893 108.97
8.68627500 0.985893 109.26 0.167309 19.116 0.167309 19.116 0.985893 108.97
8.68628000 0.985893 109.26 0.167311 19.116 0.167311 19.116 0.985892 108.97
8.68628500 0.985892 109.26 0.167313 19.116 0.167313 19.116 0.985892 108.97
8.68629000 0.985892 109.26 0.167315 19.115 0.167315 19.115 0.985892 108.97
8.68629500 0.985891 109.26 0.167317 19.115 0.167317 19.115 0.985891 108.97
8.68630000 0.985891 109.26 0.167319 19.115 0.167319 19.115 0.985891 108.97
8.68630500 0.985891 109.26 0.167321 19.115 0.167321 19.115 0.985890 108.97
8.68631000 0.985890 109.26 0.167324 19.115 0.167324 19.115 0.985890 108.97
8.68631500 0.985890 109.26 0.167326 19.115 0.167326 19.115 0.985890 108.97
8.68632000 0.985890 109.26 0.167328 19.114 0.167328 19.114 0.985889 108.97
8.68632500 0.985889 109.26 0.167330 19.114 0.167330 19.114 0.985889 108.97
8.68633000 0.985889 109.26 0.167332 19.114 0.167332 19.114 0.985889 108.97
8.68633500 0.985888 109.26 0.167334 19.114 0.167334 19.114 0.985888 108.97
8.68634000 0.985888 109.26 0.167336 19.114 0.167336 19.114 0.985888 108.97
8.68634500 0.985888 109.26 0.167339 19.114 0.167339 19.114 0.985887 108.97
8.68635000 0.985887 109.26 0.167341 19.113 0.167341 19.113 0.985887 108.97
8.68635500 0.985887 109.26 0.167343 19.113 0.167343 19.113 0.985887 108.97
8.68636000 0.985887 109.26 0.167345 19.113 0.167345 19.113 0.985886 108.97
8.68636500 0.985886 109.26 0.167347 19.113 0.167347 19.113 0.985886 108.97
8.68637000 0.985886 109.26 0.167350 19.113 0.167350 19.113 0.985886 108.97
8.68637500 0.985885 109.26 0.167352 19.113 0.167352 19.113 0.985885 108.97
8.68638000 0.985885 109.26 0.167354 19.112 0.167354 19.112 0.985885 108.97
8.68638500 0.985885 109.26 0.167356 19.112 0.167356 19.112 0.985884 108.97
8.68639000 0.985884 109.26 0.167358 19.112 0.167358 19.112 0.985884 108.97
8.68639500 0.985884 109.26 0.167361 19.112 0.167361 19.112 0.985884 108.97
8.68640000 0.985883 109.26 0.167363 19.112 0.167363 19.112 0.985883 108.97
8.68640500 0.985883 109.26 0.167365 19.112 0.167365 19.112 0.985883 108.97
8.68641000 0.985883 109.26 0.167367 19.111 0.167367 19.111 0.985882 108.97
8.68641500 0.985882 109.26 0.167369 19.111 0.167369 19.111 0.985882 108.97
8.68642000 0.985882 109.26 0.167372 19.111 0.167372 19.111 0.985882 108.97
8.68642500 0.985882 109.26 0.167374 19.111 0.167374 19.111 0.985881 108.97
8.68643000 0.985881 109.26 0.167376 19.111 0.167376 19.111 0.985881 108.97
8.68643500 0.985881 109.26 0.167378 19.111 0.167378 19.111 0.985881 108.97
8.68644000 0.985880 109.26 0.167380 19.110 0.167380 19.110 0.985880 108.97
8.68644500 0.985880 109.26 0.167383 19.110 0.167383 19.110 0.985880 108.97
8.68645000 0.985880 109.26 0.167385 19.110 0.167385 19.110 0.985879 108.97
8.68645500 0.985879 109.26 0.167387 19.110 0.167387 19.110 0.985879 108.97
8.68646000 0.985879 109.25 0.167389 19.110 0.167389 19.110 0.985879 108.97
8.68646500 0.985878 109.25 0.167392 19.110 0.167392 19.110 0.985878 108.97
8.68647000 0.985878 109.25 0.167394 19.109 0.167394 19.109 0.985878 108.97
8.68647500 0.985878 109.25 0.167396 19.109 0.167396 19.109 0.985877 108.97
8.68648000 0.985877 109.25 0.167398 19.109 0.167398 19.109 0.985877 108.97
8.68648500 0.985877 109.25 0.167401 19.109 0.167401 19.109 0.985877 108.97
8.68649000 0.985876 109.25 0.167403 19.109 0.167403 19.109 0.985876 108.97
8.68649500 0.985876 109.25 0.167405 19.109 0.167405 19.109 0.985876 108.97
8.68650000 0.985876 109.25 0.167407 19.108 0.167407 19.108 0.985875 108.97
8.68650500 0.985875 109.25 0.167410 19.108 0.167410 19.108 0.985875 108.97
8.68651000 0.985875 109.25 0.167412 19.108 0.167412 19.108 0.985875 108.97
8.68651500 0.985875 109.25 0.167414 19.108 0.167414 19.108 0.985874 108.97
8.68652000 0.985874 109.25 0.167416 19.108 0.167416 19.108 0.985874 108.97
8.68652500 0.985874 109.25 0.167419 19.108 0.167419 19.108 0.985873 108.97
8.68653000 0.985873 109.25 0.167421 19.107 0.167421 19.107 0.985873 108.97
8.68653500 0.985873 109.25 0.167423 19.107 0.167423 19.107 0.985873 108.97
8.68654000 0.985873 109.25 0.167426 19.107 0.167426 19.107 0.985872 108.97
8.68654500 0.985872 109.25 0.167428 19.107 0.167428 19.107 0.985872 108.97
8.68655000 0.985872 109.25 0.167430 19.107 0.167430 19.107 0.985871 108.96
8.68655500 0.985871 109.25 0.167432 19.107 0.167432 19.107 0.985871 108.96
8.68656000 0.985871 109.25 0.167435 19.106 0.167435 19.106 0.985871 108.96
8.68656500 0.985871 109.25 0.167437 19.106 0.167437 19.106 0.985870 108.96
8.68657000 0.985870 109.25 0.167439 19.106 0.167439 19.106 0.985870 108.96
8.68657500 0.985870 109.25 0.167442 19.106 0.167442 19.106 0.985869 108.96
8.68658000 0.985869 109.25 0.167444 19.106 0.167444 19.106 0.985869 108.96
8.68658500 0.985869 109.25 0.167446 19.105 0.167446 19.105 0.985869 108.96
8.68659000 0.985868 109.25 0.167449 19.105 0.167449 19.105 0.985868 108.96
8.68659500 0.985868 109.25 0.167451 19.105 0.167451 19.105 0.985868 108.96
8.68660000 0.985868 109.25 0.167453 19.105 0.167453 19.105 0.985867 108.96
8.68660500 0.985867 109.25 0.167455 19.105 0.167455 19.105 0.985867 108.96
8.68661000 0.985867 109.25 0.167458 19.105 0.167458 19.105 0.985867 108.96
8.68661500 0.985866 109.25 0.167460 19.104 0.167460 19.104 0.985866 108.96
8.68662000 0.985866 109.25 0.167462 19.104 0.167462 19.104 0.985866 108.96
8.68662500 0.985866 109.25 0.167465 19.104 0.167465 19.104 0.985865 108.96
8.68663000 0.985865 109.25 0.167467 19.104 0.167467 19.104 0.985865 108.96
8.68663500 0.985865 109.25 0.167469 19.104 0.167469 19.104 0.985865 108.96
8.68664000 0.985864 109.25 0.167472 19.104 0.167472 19.104 0.985864 108.96
8.68664500 0.985864 109.25 0.167474 19.103 0.167474 19.103 0.985864 108.96
8.68665000 0.985864 109.25 0.167477 19.103 0.167477 19.103 0.985863 108.96
8.68665500 0.985863 109.25 0.167479 19.103 0.167479 19.103 0.985863 108.96
8.68666000 0.985863 109.25 0.167481 19.103 0.167481 19.103 0.985863 108.96
8.68666500 0.985862 109.25 0.167484 19.103 0.167484 19.103 0.985862 108.96
8.68667000 0.985862 109.25 0.167486 19.102 0.167486 19.102 0.985862 108.96
8.68667500 0.985862 109.25 0.167488 19.102 0.167488 19.102 0.985861 108.96
8.68668000 0.985861 109.25 0.167491 19.102 0.167491 19.102 0.985861 108.96
8.68668500 0.985861 109.25 0.167493 19.102 0.167493 19.102 0.985860 108.96
8.68669000 0.985860 109.25 0.167495 19.102 0.167495 19.102 0.985860 108.96
8.68669500 0.985860 109.25 0.167498 19.102 0.167498 19.102 0.985860 108.96
8.68670000 0.985859 109.25 0.167500 19.101 0.167500 19.101 0.985859 108.96
8.68670500 0.985859 109.25 0.167503 19.101 0.167503 19.101 0.985859 108.96
8.68671000 0.985859 109.25 0.167505 19.101 0.167505 19.101 0.985858 108.96
8.68671500 0.985858 109.25 0.167507 19.101 0.167507 19.101 0.985858 108.96
8.68672000 0.985858 109.25 0.167510 19.101 0.167510 19.101 0.985858 108.96
8.68672500 0.985857 109.25 0.167512 19.101 0.167512 19.101 0.985857 108.96
8.68673000 0.985857 109.25 0.167515 19.100 0.167515 19.100 0.985857 108.96
8.68673500 0.985857 109.25 0.167517 19.100 0.167517 19.100 0.985856 108.96
8.68674000 0.985856 109.25 0.167519 19.100 0.167519 19.100 0.985856 108.96
8.68674500 0.985856 109.25 0.167522 19.100 0.167522 19.100 0.985855 108.96
8.68675000 0.985855 109.25 0.167524 19.100 0.167524 19.100 0.985855 108.96
8.68675500 0.985855 109.24 0.167527 19.099 0.167527 19.099 0.985855 108.96
8.68676000 0.985854 109.24 0.167529 19.099 0.167529 19.099 0.985854 108.96
8.68676500 0.985854 109.24 0.167531 19.099 0.167531 19.099 0.985854 108.96
8.68677000 0.985854 109.24 0.167534 19.099 0.167534 19.099 0.985853 108.96
8.68677500 0.985853 109.24 0.167536 19.099 0.167536 19.099 0.985853 108.96
8.68678000 0.985853 109.24 0.167539 19.099 0.167539 19.099 0.985852 108.96
8.68678500 0.985852 109.24 0.167541 19.098 0.167541 19.098 0.985852 108.96
8.68679000 0.985852 109.24 0.167544 19.098 0.167544 19.098 0.985852 108.96
8.68679500 0.985851 109.24 0.167546 19.098 0.167546 19.098 0.985851 108.96
8.68680000 0.985851 109.24 0.167549 19.098 0.167549 19.098 0.985851 108.96
8.68680500 0.985851 109.24 0.167551 19.098 0.167551 19.098 0.985850 108.96
8.68681000 0.985850 109.24 0.167553 19.097 0.167553 19.097 0.985850 108.96
8.68681500 0.985850 109.24 0.167556 19.097 0.167556 19.097 0.985849 108.96
8.68682000 0.985849 109.24 0.167558 19.097 0.167558 19.097 0.985849 108.96
8.68682500 0.985849 109.24 0.167561 19.097 0.167561 19.097 0.985849 108.96
8.68683000 0.985848 109.24 0.167563 19.097 0.167563 19.097 0.985848 108.96
8.68683500 0.985848 109.24 0.167566 19.097 0.167566 19.097 0.985848 108.95
8.68684000 0.985848 109.24 0.167568 19.096 0.167568 19.096 0.985847 108.95
8.68684500 0.985847 109.24 0.167571 19.096 0.167571 19.096 0.985847 108.95
8.68685000 0.985847 109.24 0.167573 19.096 0.167573 19.096 0.985846 108.95
8.68685500 0.985846 109.24 0.167576 19.096 0.167576 19.096 0.985846 108.95
8.68686000 0.985846 109.24 0.167578 19.096 0.167578 19.096 0.985846 108.95
8.68686500 0.985845 109.24 0.167581 19.095 0.167581 19.095 0.985845 108.95
8.68687000 0.985845 109.24 0.167583 19.095 0.167583 19.095 0.985845 108.95
8.68687500 0.985844 109.24 0.167586 19.095 0.167586 19.095 0.985844 108.95
8.68688000 0.985844 109.24 0.167588 19.095 0.167588 19.095 0.985844 108.95
8.68688500 0.985844 109.24 0.167591 19.095 0.167591 19.095 0.985843 108.95
8.68689000 0.985843 109.24 0.167593 19.095 0.167593 19.095 0.985843 108.95
8.68689500 0.985843 109.24 0.167596 19.094 0.167596 19.094 0.985842 108.95
8.68690000 0.985842 109.24 0.167598 19.094 0.167598 19.094 0.985842 108.95
8.68690500 0.985842 109.24 0.167601 19.094 0.167601 19.094 0.985842 108.95
8.68691000 0.985841 109.24 0.167603 19.094 0.167603 19.094 0.985841 108.95
8.68691500 0.985841 109.24 0.167606 19.094 0.167606 19.094 0.985841 108.95
8.68692000 0.985841 109.24 0.167608 19.093 0.167608 19.093 0.985840 108.95
8.68692500 0.985840 109.24 0.167611 19.093 0.167611 19.093 0.985840 108.95
8.68693000 0.985840 109.24 0.167613 19.093 0.167613 19.093 0.985839 108.95
8.68693500 0.985839 109.24 0.167616 19.093 0.167616 19.093 0.985839 108.95
8.68694000 0.985839 109.24 0.167619 19.093 0.167619 19.093 0.985838 108.95
8.68694500 0.985838 109.24 0.167621 19.092 0.167621 19.092 0.985838 108.95
8.68695000 0.985838 109.24 0.167624 19.092 0.167624 19.092 0.985838 108.95
8.68695500 0.985837 109.24 0.167626 19.092 0.167626 19.092 0.985837 108.95