! Sonnet Data File
! From: emgraph Version : 16.52
! From Project: Qubit_Xmon2_brg
! Data is De-embedded 
! Data File Written: 10/25/2017 15:28:40
!< HDATE 10/25/2017 13:50:25
!< MDATE 10/25/2017 13:50:25
!< PARAMS
!< Lj = 11.0
!< Gap = 6.0
!< Pwid = 2000.0
!< Airgap = 6.0
!< Width = 10.0
!< Bwid = 8.0
!< Dis1 = 850.0
!< Dis2 = 856.0
!< END PARAMS
# GHZ S MA R 34.70000
8.76000000 0.997176 133.80 0.075070 43.803 0.075070 43.803 0.997176 133.80
!< P1 F=8.76 Eeff=(5.13726025 -5.6937e-5) Z0=(34.6466742 -9.6556e-5) R=0.0 C=0.0 
!< P2 F=8.76 Eeff=(5.13726025 -5.6937e-5) Z0=(34.6466742 -9.6556e-5) R=0.0 C=0.0 
8.76002000 0.997176 133.80 0.075071 43.803 0.075071 43.803 0.997176 133.80
8.76004000 0.997176 133.80 0.075071 43.802 0.075071 43.802 0.997176 133.80
8.76006000 0.997176 133.80 0.075072 43.802 0.075072 43.802 0.997176 133.80
8.76008000 0.997176 133.80 0.075072 43.802 0.075072 43.802 0.997176 133.80
8.76010000 0.997176 133.80 0.075073 43.802 0.075073 43.802 0.997176 133.80
8.76012000 0.997176 133.80 0.075073 43.802 0.075073 43.802 0.997176 133.80
8.76014000 0.997176 133.80 0.075074 43.802 0.075074 43.802 0.997176 133.80
8.76016000 0.997176 133.80 0.075074 43.802 0.075074 43.802 0.997176 133.80
8.76018000 0.997176 133.80 0.075075 43.802 0.075075 43.802 0.997176 133.80
8.76020000 0.997176 133.80 0.075075 43.801 0.075075 43.801 0.997176 133.80
8.76022000 0.997176 133.80 0.075076 43.801 0.075076 43.801 0.997176 133.80
8.76024000 0.997176 133.80 0.075076 43.801 0.075076 43.801 0.997176 133.80
8.76026000 0.997176 133.80 0.075077 43.801 0.075077 43.801 0.997176 133.80
8.76028000 0.997176 133.80 0.075077 43.801 0.075077 43.801 0.997176 133.80
8.76030000 0.997175 133.80 0.075078 43.801 0.075078 43.801 0.997176 133.80
8.76032000 0.997175 133.80 0.075078 43.801 0.075078 43.801 0.997175 133.80
8.76034000 0.997175 133.80 0.075079 43.801 0.075079 43.801 0.997175 133.80
8.76036000 0.997175 133.80 0.075079 43.800 0.075079 43.800 0.997175 133.80
8.76038000 0.997175 133.80 0.075080 43.800 0.075080 43.800 0.997175 133.80
8.76040000 0.997175 133.80 0.075080 43.800 0.075080 43.800 0.997175 133.80
8.76042000 0.997175 133.80 0.075081 43.800 0.075081 43.800 0.997175 133.80
8.76044000 0.997175 133.80 0.075081 43.800 0.075081 43.800 0.997175 133.80
8.76046000 0.997175 133.80 0.075082 43.800 0.075082 43.800 0.997175 133.80
8.76048000 0.997175 133.80 0.075082 43.800 0.075082 43.800 0.997175 133.80
8.76050000 0.997175 133.80 0.075083 43.800 0.075083 43.800 0.997175 133.80
8.76052000 0.997175 133.80 0.075084 43.799 0.075084 43.799 0.997175 133.80
8.76054000 0.997175 133.80 0.075084 43.799 0.075084 43.799 0.997175 133.80
8.76056000 0.997175 133.80 0.075085 43.799 0.075085 43.799 0.997175 133.80
8.76058000 0.997175 133.80 0.075085 43.799 0.075085 43.799 0.997175 133.80
8.76060000 0.997175 133.80 0.075086 43.799 0.075086 43.799 0.997175 133.80
8.76062000 0.997175 133.80 0.075086 43.799 0.075086 43.799 0.997175 133.80
8.76064000 0.997175 133.80 0.075087 43.799 0.075087 43.799 0.997175 133.80
8.76066000 0.997175 133.80 0.075087 43.799 0.075087 43.799 0.997175 133.80
8.76068000 0.997175 133.80 0.075088 43.798 0.075088 43.798 0.997175 133.80
8.76070000 0.997175 133.80 0.075088 43.798 0.075088 43.798 0.997175 133.80
8.76072000 0.997175 133.80 0.075089 43.798 0.075089 43.798 0.997175 133.80
8.76074000 0.997175 133.80 0.075089 43.798 0.075089 43.798 0.997175 133.80
8.76076000 0.997175 133.80 0.075090 43.798 0.075090 43.798 0.997175 133.80
8.76078000 0.997175 133.80 0.075090 43.798 0.075090 43.798 0.997175 133.80
8.76080000 0.997175 133.80 0.075091 43.798 0.075091 43.798 0.997175 133.80
8.76082000 0.997174 133.80 0.075091 43.798 0.075091 43.798 0.997174 133.80
8.76084000 0.997174 133.80 0.075092 43.797 0.075092 43.797 0.997174 133.80
8.76086000 0.997174 133.80 0.075092 43.797 0.075092 43.797 0.997174 133.80
8.76088000 0.997174 133.80 0.075093 43.797 0.075093 43.797 0.997174 133.80
8.76090000 0.997174 133.80 0.075093 43.797 0.075093 43.797 0.997174 133.80
8.76092000 0.997174 133.80 0.075094 43.797 0.075094 43.797 0.997174 133.80
8.76094000 0.997174 133.80 0.075094 43.797 0.075094 43.797 0.997174 133.80
8.76096000 0.997174 133.80 0.075095 43.797 0.075095 43.797 0.997174 133.80
8.76098000 0.997174 133.80 0.075096 43.797 0.075096 43.797 0.997174 133.80
8.76100000 0.997174 133.80 0.075096 43.796 0.075096 43.796 0.997174 133.79
8.76102000 0.997174 133.80 0.075097 43.796 0.075097 43.796 0.997174 133.79
8.76104000 0.997174 133.80 0.075097 43.796 0.075097 43.796 0.997174 133.79
8.76106000 0.997174 133.80 0.075098 43.796 0.075098 43.796 0.997174 133.79
8.76108000 0.997174 133.80 0.075098 43.796 0.075098 43.796 0.997174 133.79
8.76110000 0.997174 133.80 0.075099 43.796 0.075099 43.796 0.997174 133.79
8.76112000 0.997174 133.80 0.075099 43.796 0.075099 43.796 0.997174 133.79
8.76114000 0.997174 133.80 0.075100 43.796 0.075100 43.796 0.997174 133.79
8.76116000 0.997174 133.79 0.075100 43.795 0.075100 43.795 0.997174 133.79
8.76118000 0.997174 133.79 0.075101 43.795 0.075101 43.795 0.997174 133.79
8.76120000 0.997174 133.79 0.075101 43.795 0.075101 43.795 0.997174 133.79
8.76122000 0.997174 133.79 0.075102 43.795 0.075102 43.795 0.997174 133.79
8.76124000 0.997174 133.79 0.075102 43.795 0.075102 43.795 0.997174 133.79
8.76126000 0.997174 133.79 0.075103 43.795 0.075103 43.795 0.997174 133.79
8.76128000 0.997174 133.79 0.075103 43.795 0.075103 43.795 0.997174 133.79
8.76130000 0.997174 133.79 0.075104 43.795 0.075104 43.795 0.997174 133.79
8.76132000 0.997173 133.79 0.075105 43.794 0.075105 43.794 0.997173 133.79
8.76134000 0.997173 133.79 0.075105 43.794 0.075105 43.794 0.997173 133.79
8.76136000 0.997173 133.79 0.075106 43.794 0.075106 43.794 0.997173 133.79
8.76138000 0.997173 133.79 0.075106 43.794 0.075106 43.794 0.997173 133.79
8.76140000 0.997173 133.79 0.075107 43.794 0.075107 43.794 0.997173 133.79
8.76142000 0.997173 133.79 0.075107 43.794 0.075107 43.794 0.997173 133.79
8.76144000 0.997173 133.79 0.075108 43.794 0.075108 43.794 0.997173 133.79
8.76146000 0.997173 133.79 0.075108 43.794 0.075108 43.794 0.997173 133.79
8.76148000 0.997173 133.79 0.075109 43.793 0.075109 43.793 0.997173 133.79
8.76150000 0.997173 133.79 0.075109 43.793 0.075109 43.793 0.997173 133.79
8.76152000 0.997173 133.79 0.075110 43.793 0.075110 43.793 0.997173 133.79
8.76154000 0.997173 133.79 0.075110 43.793 0.075110 43.793 0.997173 133.79
8.76156000 0.997173 133.79 0.075111 43.793 0.075111 43.793 0.997173 133.79
8.76158000 0.997173 133.79 0.075111 43.793 0.075111 43.793 0.997173 133.79
8.76160000 0.997173 133.79 0.075112 43.793 0.075112 43.793 0.997173 133.79
8.76162000 0.997173 133.79 0.075113 43.793 0.075113 43.793 0.997173 133.79
8.76164000 0.997173 133.79 0.075113 43.792 0.075113 43.792 0.997173 133.79
8.76166000 0.997173 133.79 0.075114 43.792 0.075114 43.792 0.997173 133.79
8.76168000 0.997173 133.79 0.075114 43.792 0.075114 43.792 0.997173 133.79
8.76170000 0.997173 133.79 0.075115 43.792 0.075115 43.792 0.997173 133.79
8.76172000 0.997173 133.79 0.075115 43.792 0.075115 43.792 0.997173 133.79
8.76174000 0.997173 133.79 0.075116 43.792 0.075116 43.792 0.997173 133.79
8.76176000 0.997173 133.79 0.075116 43.792 0.075116 43.792 0.997173 133.79
8.76178000 0.997173 133.79 0.075117 43.791 0.075117 43.791 0.997173 133.79
8.76180000 0.997172 133.79 0.075117 43.791 0.075117 43.791 0.997173 133.79
8.76182000 0.997172 133.79 0.075118 43.791 0.075118 43.791 0.997172 133.79
8.76184000 0.997172 133.79 0.075118 43.791 0.075118 43.791 0.997172 133.79
8.76186000 0.997172 133.79 0.075119 43.791 0.075119 43.791 0.997172 133.79
8.76188000 0.997172 133.79 0.075120 43.791 0.075120 43.791 0.997172 133.79
8.76190000 0.997172 133.79 0.075120 43.791 0.075120 43.791 0.997172 133.79
8.76192000 0.997172 133.79 0.075121 43.791 0.075121 43.791 0.997172 133.79
8.76194000 0.997172 133.79 0.075121 43.790 0.075121 43.790 0.997172 133.79
8.76196000 0.997172 133.79 0.075122 43.790 0.075122 43.790 0.997172 133.79
8.76198000 0.997172 133.79 0.075122 43.790 0.075122 43.790 0.997172 133.79
8.76200000 0.997172 133.79 0.075123 43.790 0.075123 43.790 0.997172 133.79
8.76202000 0.997172 133.79 0.075123 43.790 0.075123 43.790 0.997172 133.79
8.76204000 0.997172 133.79 0.075124 43.790 0.075124 43.790 0.997172 133.79
8.76206000 0.997172 133.79 0.075124 43.790 0.075124 43.790 0.997172 133.79
8.76208000 0.997172 133.79 0.075125 43.790 0.075125 43.790 0.997172 133.79
8.76210000 0.997172 133.79 0.075125 43.789 0.075125 43.789 0.997172 133.79
8.76212000 0.997172 133.79 0.075126 43.789 0.075126 43.789 0.997172 133.79
8.76214000 0.997172 133.79 0.075127 43.789 0.075127 43.789 0.997172 133.79
8.76216000 0.997172 133.79 0.075127 43.789 0.075127 43.789 0.997172 133.79
8.76218000 0.997172 133.79 0.075128 43.789 0.075128 43.789 0.997172 133.79
8.76220000 0.997172 133.79 0.075128 43.789 0.075128 43.789 0.997172 133.79
8.76222000 0.997172 133.79 0.075129 43.789 0.075129 43.789 0.997172 133.79
8.76224000 0.997172 133.79 0.075129 43.789 0.075129 43.789 0.997172 133.79
8.76226000 0.997172 133.79 0.075130 43.788 0.075130 43.788 0.997172 133.79
8.76228000 0.997172 133.79 0.075130 43.788 0.075130 43.788 0.997172 133.79
8.76230000 0.997171 133.79 0.075131 43.788 0.075131 43.788 0.997171 133.79
8.76232000 0.997171 133.79 0.075132 43.788 0.075132 43.788 0.997171 133.79
8.76234000 0.997171 133.79 0.075132 43.788 0.075132 43.788 0.997171 133.79
8.76236000 0.997171 133.79 0.075133 43.788 0.075133 43.788 0.997171 133.79
8.76238000 0.997171 133.79 0.075133 43.788 0.075133 43.788 0.997171 133.79
8.76240000 0.997171 133.79 0.075134 43.788 0.075134 43.788 0.997171 133.79
8.76242000 0.997171 133.79 0.075134 43.787 0.075134 43.787 0.997171 133.79
8.76244000 0.997171 133.79 0.075135 43.787 0.075135 43.787 0.997171 133.79
8.76246000 0.997171 133.79 0.075135 43.787 0.075135 43.787 0.997171 133.79
8.76248000 0.997171 133.79 0.075136 43.787 0.075136 43.787 0.997171 133.79
8.76250000 0.997171 133.79 0.075136 43.787 0.075136 43.787 0.997171 133.79
8.76252000 0.997171 133.79 0.075137 43.787 0.075137 43.787 0.997171 133.79
8.76254000 0.997171 133.79 0.075138 43.787 0.075138 43.787 0.997171 133.79
8.76256000 0.997171 133.79 0.075138 43.787 0.075138 43.787 0.997171 133.79
8.76258000 0.997171 133.79 0.075139 43.786 0.075139 43.786 0.997171 133.79
8.76260000 0.997171 133.79 0.075139 43.786 0.075139 43.786 0.997171 133.78
8.76262000 0.997171 133.79 0.075140 43.786 0.075140 43.786 0.997171 133.78
8.76264000 0.997171 133.79 0.075140 43.786 0.075140 43.786 0.997171 133.78
8.76266000 0.997171 133.79 0.075141 43.786 0.075141 43.786 0.997171 133.78
8.76268000 0.997171 133.79 0.075141 43.786 0.075141 43.786 0.997171 133.78
8.76270000 0.997171 133.79 0.075142 43.786 0.075142 43.786 0.997171 133.78
8.76272000 0.997171 133.78 0.075143 43.786 0.075143 43.786 0.997171 133.78
8.76274000 0.997171 133.78 0.075143 43.785 0.075143 43.785 0.997171 133.78
8.76276000 0.997170 133.78 0.075144 43.785 0.075144 43.785 0.997171 133.78
8.76278000 0.997170 133.78 0.075144 43.785 0.075144 43.785 0.997170 133.78
8.76280000 0.997170 133.78 0.075145 43.785 0.075145 43.785 0.997170 133.78
8.76282000 0.997170 133.78 0.075145 43.785 0.075145 43.785 0.997170 133.78
8.76284000 0.997170 133.78 0.075146 43.785 0.075146 43.785 0.997170 133.78
8.76286000 0.997170 133.78 0.075146 43.785 0.075146 43.785 0.997170 133.78
8.76288000 0.997170 133.78 0.075147 43.784 0.075147 43.784 0.997170 133.78
8.76290000 0.997170 133.78 0.075148 43.784 0.075148 43.784 0.997170 133.78
8.76292000 0.997170 133.78 0.075148 43.784 0.075148 43.784 0.997170 133.78
8.76294000 0.997170 133.78 0.075149 43.784 0.075149 43.784 0.997170 133.78
8.76296000 0.997170 133.78 0.075149 43.784 0.075149 43.784 0.997170 133.78
8.76298000 0.997170 133.78 0.075150 43.784 0.075150 43.784 0.997170 133.78
8.76300000 0.997170 133.78 0.075150 43.784 0.075150 43.784 0.997170 133.78
8.76302000 0.997170 133.78 0.075151 43.784 0.075151 43.784 0.997170 133.78
8.76304000 0.997170 133.78 0.075152 43.783 0.075152 43.783 0.997170 133.78
8.76306000 0.997170 133.78 0.075152 43.783 0.075152 43.783 0.997170 133.78
8.76308000 0.997170 133.78 0.075153 43.783 0.075153 43.783 0.997170 133.78
8.76310000 0.997170 133.78 0.075153 43.783 0.075153 43.783 0.997170 133.78
8.76312000 0.997170 133.78 0.075154 43.783 0.075154 43.783 0.997170 133.78
8.76314000 0.997170 133.78 0.075154 43.783 0.075154 43.783 0.997170 133.78
8.76316000 0.997170 133.78 0.075155 43.783 0.075155 43.783 0.997170 133.78
8.76318000 0.997170 133.78 0.075155 43.783 0.075155 43.783 0.997170 133.78
8.76320000 0.997170 133.78 0.075156 43.782 0.075156 43.782 0.997170 133.78
8.76322000 0.997170 133.78 0.075157 43.782 0.075157 43.782 0.997170 133.78
8.76324000 0.997169 133.78 0.075157 43.782 0.075157 43.782 0.997169 133.78
8.76326000 0.997169 133.78 0.075158 43.782 0.075158 43.782 0.997169 133.78
8.76328000 0.997169 133.78 0.075158 43.782 0.075158 43.782 0.997169 133.78
8.76330000 0.997169 133.78 0.075159 43.782 0.075159 43.782 0.997169 133.78
8.76332000 0.997169 133.78 0.075159 43.782 0.075159 43.782 0.997169 133.78
8.76334000 0.997169 133.78 0.075160 43.782 0.075160 43.782 0.997169 133.78
8.76336000 0.997169 133.78 0.075161 43.781 0.075161 43.781 0.997169 133.78
8.76338000 0.997169 133.78 0.075161 43.781 0.075161 43.781 0.997169 133.78
8.76340000 0.997169 133.78 0.075162 43.781 0.075162 43.781 0.997169 133.78
8.76342000 0.997169 133.78 0.075162 43.781 0.075162 43.781 0.997169 133.78
8.76344000 0.997169 133.78 0.075163 43.781 0.075163 43.781 0.997169 133.78
8.76346000 0.997169 133.78 0.075163 43.781 0.075163 43.781 0.997169 133.78
8.76348000 0.997169 133.78 0.075164 43.781 0.075164 43.781 0.997169 133.78
8.76350000 0.997169 133.78 0.075165 43.781 0.075165 43.781 0.997169 133.78
8.76352000 0.997169 133.78 0.075165 43.780 0.075165 43.780 0.997169 133.78
8.76354000 0.997169 133.78 0.075166 43.780 0.075166 43.780 0.997169 133.78
8.76356000 0.997169 133.78 0.075166 43.780 0.075166 43.780 0.997169 133.78
8.76358000 0.997169 133.78 0.075167 43.780 0.075167 43.780 0.997169 133.78
8.76360000 0.997169 133.78 0.075167 43.780 0.075167 43.780 0.997169 133.78
8.76362000 0.997169 133.78 0.075168 43.780 0.075168 43.780 0.997169 133.78
8.76364000 0.997169 133.78 0.075169 43.780 0.075169 43.780 0.997169 133.78
8.76366000 0.997169 133.78 0.075169 43.779 0.075169 43.779 0.997169 133.78
8.76368000 0.997169 133.78 0.075170 43.779 0.075170 43.779 0.997169 133.78
8.76370000 0.997168 133.78 0.075170 43.779 0.075170 43.779 0.997168 133.78
8.76372000 0.997168 133.78 0.075171 43.779 0.075171 43.779 0.997168 133.78
8.76374000 0.997168 133.78 0.075171 43.779 0.075171 43.779 0.997168 133.78
8.76376000 0.997168 133.78 0.075172 43.779 0.075172 43.779 0.997168 133.78
8.76378000 0.997168 133.78 0.075173 43.779 0.075173 43.779 0.997168 133.78
8.76380000 0.997168 133.78 0.075173 43.779 0.075173 43.779 0.997168 133.78
8.76382000 0.997168 133.78 0.075174 43.778 0.075174 43.778 0.997168 133.78
8.76384000 0.997168 133.78 0.075174 43.778 0.075174 43.778 0.997168 133.78
8.76386000 0.997168 133.78 0.075175 43.778 0.075175 43.778 0.997168 133.78
8.76388000 0.997168 133.78 0.075176 43.778 0.075176 43.778 0.997168 133.78
8.76390000 0.997168 133.78 0.075176 43.778 0.075176 43.778 0.997168 133.78
8.76392000 0.997168 133.78 0.075177 43.778 0.075177 43.778 0.997168 133.78
8.76394000 0.997168 133.78 0.075177 43.778 0.075177 43.778 0.997168 133.78
8.76396000 0.997168 133.78 0.075178 43.778 0.075178 43.778 0.997168 133.78
8.76398000 0.997168 133.78 0.075178 43.777 0.075178 43.777 0.997168 133.78
8.76400000 0.997168 133.78 0.075179 43.777 0.075179 43.777 0.997168 133.78
8.76402000 0.997168 133.78 0.075180 43.777 0.075180 43.777 0.997168 133.78
8.76404000 0.997168 133.78 0.075180 43.777 0.075180 43.777 0.997168 133.78
8.76406000 0.997168 133.78 0.075181 43.777 0.075181 43.777 0.997168 133.78
8.76408000 0.997168 133.78 0.075181 43.777 0.075181 43.777 0.997168 133.78
8.76410000 0.997168 133.78 0.075182 43.777 0.075182 43.777 0.997168 133.78
8.76412000 0.997168 133.78 0.075183 43.777 0.075183 43.777 0.997168 133.78
8.76414000 0.997167 133.78 0.075183 43.776 0.075183 43.776 0.997168 133.78
8.76416000 0.997167 133.78 0.075184 43.776 0.075184 43.776 0.997167 133.77
8.76418000 0.997167 133.78 0.075184 43.776 0.075184 43.776 0.997167 133.77
8.76420000 0.997167 133.78 0.075185 43.776 0.075185 43.776 0.997167 133.77
8.76422000 0.997167 133.78 0.075185 43.776 0.075185 43.776 0.997167 133.77
8.76424000 0.997167 133.78 0.075186 43.776 0.075186 43.776 0.997167 133.77
8.76426000 0.997167 133.78 0.075187 43.776 0.075187 43.776 0.997167 133.77
8.76428000 0.997167 133.77 0.075187 43.775 0.075187 43.775 0.997167 133.77
8.76430000 0.997167 133.77 0.075188 43.775 0.075188 43.775 0.997167 133.77
8.76432000 0.997167 133.77 0.075188 43.775 0.075188 43.775 0.997167 133.77
8.76434000 0.997167 133.77 0.075189 43.775 0.075189 43.775 0.997167 133.77
8.76436000 0.997167 133.77 0.075190 43.775 0.075190 43.775 0.997167 133.77
8.76438000 0.997167 133.77 0.075190 43.775 0.075190 43.775 0.997167 133.77
8.76440000 0.997167 133.77 0.075191 43.775 0.075191 43.775 0.997167 133.77
8.76442000 0.997167 133.77 0.075191 43.775 0.075191 43.775 0.997167 133.77
8.76444000 0.997167 133.77 0.075192 43.774 0.075192 43.774 0.997167 133.77
8.76446000 0.997167 133.77 0.075193 43.774 0.075193 43.774 0.997167 133.77
8.76448000 0.997167 133.77 0.075193 43.774 0.075193 43.774 0.997167 133.77
8.76450000 0.997167 133.77 0.075194 43.774 0.075194 43.774 0.997167 133.77
8.76452000 0.997167 133.77 0.075194 43.774 0.075194 43.774 0.997167 133.77
8.76454000 0.997167 133.77 0.075195 43.774 0.075195 43.774 0.997167 133.77
8.76456000 0.997167 133.77 0.075196 43.774 0.075196 43.774 0.997167 133.77
8.76458000 0.997167 133.77 0.075196 43.774 0.075196 43.774 0.997167 133.77
8.76460000 0.997166 133.77 0.075197 43.773 0.075197 43.773 0.997166 133.77
8.76462000 0.997166 133.77 0.075197 43.773 0.075197 43.773 0.997166 133.77
8.76464000 0.997166 133.77 0.075198 43.773 0.075198 43.773 0.997166 133.77
8.76466000 0.997166 133.77 0.075198 43.773 0.075198 43.773 0.997166 133.77
8.76468000 0.997166 133.77 0.075199 43.773 0.075199 43.773 0.997166 133.77
8.76470000 0.997166 133.77 0.075200 43.773 0.075200 43.773 0.997166 133.77
8.76472000 0.997166 133.77 0.075200 43.773 0.075200 43.773 0.997166 133.77
8.76474000 0.997166 133.77 0.075201 43.772 0.075201 43.772 0.997166 133.77
8.76476000 0.997166 133.77 0.075201 43.772 0.075201 43.772 0.997166 133.77
8.76478000 0.997166 133.77 0.075202 43.772 0.075202 43.772 0.997166 133.77
8.76480000 0.997166 133.77 0.075203 43.772 0.075203 43.772 0.997166 133.77
8.76482000 0.997166 133.77 0.075203 43.772 0.075203 43.772 0.997166 133.77
8.76484000 0.997166 133.77 0.075204 43.772 0.075204 43.772 0.997166 133.77
8.76486000 0.997166 133.77 0.075204 43.772 0.075204 43.772 0.997166 133.77
8.76488000 0.997166 133.77 0.075205 43.772 0.075205 43.772 0.997166 133.77
8.76490000 0.997166 133.77 0.075206 43.771 0.075206 43.771 0.997166 133.77
8.76492000 0.997166 133.77 0.075206 43.771 0.075206 43.771 0.997166 133.77
8.76494000 0.997166 133.77 0.075207 43.771 0.075207 43.771 0.997166 133.77
8.76496000 0.997166 133.77 0.075207 43.771 0.075207 43.771 0.997166 133.77
8.76498000 0.997166 133.77 0.075208 43.771 0.075208 43.771 0.997166 133.77
8.76500000 0.997166 133.77 0.075209 43.771 0.075209 43.771 0.997166 133.77
8.76502000 0.997165 133.77 0.075209 43.771 0.075209 43.771 0.997166 133.77
8.76504000 0.997165 133.77 0.075210 43.771 0.075210 43.771 0.997165 133.77
8.76506000 0.997165 133.77 0.075211 43.770 0.075211 43.770 0.997165 133.77
8.76508000 0.997165 133.77 0.075211 43.770 0.075211 43.770 0.997165 133.77
8.76510000 0.997165 133.77 0.075212 43.770 0.075212 43.770 0.997165 133.77
8.76512000 0.997165 133.77 0.075212 43.770 0.075212 43.770 0.997165 133.77
8.76514000 0.997165 133.77 0.075213 43.770 0.075213 43.770 0.997165 133.77
8.76516000 0.997165 133.77 0.075214 43.770 0.075214 43.770 0.997165 133.77
8.76518000 0.997165 133.77 0.075214 43.770 0.075214 43.770 0.997165 133.77
8.76520000 0.997165 133.77 0.075215 43.769 0.075215 43.769 0.997165 133.77
8.76522000 0.997165 133.77 0.075215 43.769 0.075215 43.769 0.997165 133.77
8.76524000 0.997165 133.77 0.075216 43.769 0.075216 43.769 0.997165 133.77
8.76526000 0.997165 133.77 0.075217 43.769 0.075217 43.769 0.997165 133.77
8.76528000 0.997165 133.77 0.075217 43.769 0.075217 43.769 0.997165 133.77
8.76530000 0.997165 133.77 0.075218 43.769 0.075218 43.769 0.997165 133.77
8.76532000 0.997165 133.77 0.075218 43.769 0.075218 43.769 0.997165 133.77
8.76534000 0.997165 133.77 0.075219 43.769 0.075219 43.769 0.997165 133.77
8.76536000 0.997165 133.77 0.075220 43.768 0.075220 43.768 0.997165 133.77
8.76538000 0.997165 133.77 0.075220 43.768 0.075220 43.768 0.997165 133.77
8.76540000 0.997165 133.77 0.075221 43.768 0.075221 43.768 0.997165 133.77
8.76542000 0.997165 133.77 0.075222 43.768 0.075222 43.768 0.997165 133.77
8.76544000 0.997165 133.77 0.075222 43.768 0.075222 43.768 0.997165 133.77
8.76546000 0.997164 133.77 0.075223 43.768 0.075223 43.768 0.997164 133.77
8.76548000 0.997164 133.77 0.075223 43.768 0.075223 43.768 0.997164 133.77
8.76550000 0.997164 133.77 0.075224 43.768 0.075224 43.768 0.997164 133.77
8.76552000 0.997164 133.77 0.075225 43.767 0.075225 43.767 0.997164 133.77
8.76554000 0.997164 133.77 0.075225 43.767 0.075225 43.767 0.997164 133.77
8.76556000 0.997164 133.77 0.075226 43.767 0.075226 43.767 0.997164 133.77
8.76558000 0.997164 133.77 0.075226 43.767 0.075226 43.767 0.997164 133.77
8.76560000 0.997164 133.77 0.075227 43.767 0.075227 43.767 0.997164 133.77
8.76562000 0.997164 133.77 0.075228 43.767 0.075228 43.767 0.997164 133.77
8.76564000 0.997164 133.77 0.075228 43.767 0.075228 43.767 0.997164 133.77
8.76566000 0.997164 133.77 0.075229 43.766 0.075229 43.766 0.997164 133.77
8.76568000 0.997164 133.77 0.075230 43.766 0.075230 43.766 0.997164 133.77
8.76570000 0.997164 133.77 0.075230 43.766 0.075230 43.766 0.997164 133.76
8.76572000 0.997164 133.77 0.075231 43.766 0.075231 43.766 0.997164 133.76
8.76574000 0.997164 133.77 0.075231 43.766 0.075231 43.766 0.997164 133.76
8.76576000 0.997164 133.77 0.075232 43.766 0.075232 43.766 0.997164 133.76
8.76578000 0.997164 133.77 0.075233 43.766 0.075233 43.766 0.997164 133.76
8.76580000 0.997164 133.76 0.075233 43.766 0.075233 43.766 0.997164 133.76
8.76582000 0.997164 133.76 0.075234 43.765 0.075234 43.765 0.997164 133.76
8.76584000 0.997164 133.76 0.075235 43.765 0.075235 43.765 0.997164 133.76
8.76586000 0.997164 133.76 0.075235 43.765 0.075235 43.765 0.997164 133.76
8.76588000 0.997163 133.76 0.075236 43.765 0.075236 43.765 0.997164 133.76
8.76590000 0.997163 133.76 0.075236 43.765 0.075236 43.765 0.997163 133.76
8.76592000 0.997163 133.76 0.075237 43.765 0.075237 43.765 0.997163 133.76
8.76594000 0.997163 133.76 0.075238 43.765 0.075238 43.765 0.997163 133.76
8.76596000 0.997163 133.76 0.075238 43.764 0.075238 43.764 0.997163 133.76
8.76598000 0.997163 133.76 0.075239 43.764 0.075239 43.764 0.997163 133.76
8.76600000 0.997163 133.76 0.075240 43.764 0.075240 43.764 0.997163 133.76
8.76602000 0.997163 133.76 0.075240 43.764 0.075240 43.764 0.997163 133.76
8.76604000 0.997163 133.76 0.075241 43.764 0.075241 43.764 0.997163 133.76
8.76606000 0.997163 133.76 0.075241 43.764 0.075241 43.764 0.997163 133.76
8.76608000 0.997163 133.76 0.075242 43.764 0.075242 43.764 0.997163 133.76
8.76610000 0.997163 133.76 0.075243 43.764 0.075243 43.764 0.997163 133.76
8.76612000 0.997163 133.76 0.075243 43.763 0.075243 43.763 0.997163 133.76
8.76614000 0.997163 133.76 0.075244 43.763 0.075244 43.763 0.997163 133.76
8.76616000 0.997163 133.76 0.075245 43.763 0.075245 43.763 0.997163 133.76
8.76618000 0.997163 133.76 0.075245 43.763 0.075245 43.763 0.997163 133.76
8.76620000 0.997163 133.76 0.075246 43.763 0.075246 43.763 0.997163 133.76
8.76622000 0.997163 133.76 0.075247 43.763 0.075247 43.763 0.997163 133.76
8.76624000 0.997163 133.76 0.075247 43.763 0.075247 43.763 0.997163 133.76
8.76626000 0.997163 133.76 0.075248 43.762 0.075248 43.762 0.997163 133.76
8.76628000 0.997163 133.76 0.075248 43.762 0.075248 43.762 0.997163 133.76
8.76630000 0.997162 133.76 0.075249 43.762 0.075249 43.762 0.997162 133.76
8.76632000 0.997162 133.76 0.075250 43.762 0.075250 43.762 0.997162 133.76
8.76634000 0.997162 133.76 0.075250 43.762 0.075250 43.762 0.997162 133.76
8.76636000 0.997162 133.76 0.075251 43.762 0.075251 43.762 0.997162 133.76
8.76638000 0.997162 133.76 0.075252 43.762 0.075252 43.762 0.997162 133.76
8.76640000 0.997162 133.76 0.075252 43.762 0.075252 43.762 0.997162 133.76
8.76642000 0.997162 133.76 0.075253 43.761 0.075253 43.761 0.997162 133.76
8.76644000 0.997162 133.76 0.075254 43.761 0.075254 43.761 0.997162 133.76
8.76646000 0.997162 133.76 0.075254 43.761 0.075254 43.761 0.997162 133.76
8.76648000 0.997162 133.76 0.075255 43.761 0.075255 43.761 0.997162 133.76
8.76650000 0.997162 133.76 0.075255 43.761 0.075255 43.761 0.997162 133.76
8.76652000 0.997162 133.76 0.075256 43.761 0.075256 43.761 0.997162 133.76
8.76654000 0.997162 133.76 0.075257 43.761 0.075257 43.761 0.997162 133.76
8.76656000 0.997162 133.76 0.075257 43.760 0.075257 43.760 0.997162 133.76
8.76658000 0.997162 133.76 0.075258 43.760 0.075258 43.760 0.997162 133.76
8.76660000 0.997162 133.76 0.075259 43.760 0.075259 43.760 0.997162 133.76
8.76662000 0.997162 133.76 0.075259 43.760 0.075259 43.760 0.997162 133.76
8.76664000 0.997162 133.76 0.075260 43.760 0.075260 43.760 0.997162 133.76
8.76666000 0.997162 133.76 0.075261 43.760 0.075261 43.760 0.997162 133.76
8.76668000 0.997162 133.76 0.075261 43.760 0.075261 43.760 0.997162 133.76
8.76670000 0.997161 133.76 0.075262 43.760 0.075262 43.760 0.997162 133.76
8.76672000 0.997161 133.76 0.075263 43.759 0.075263 43.759 0.997161 133.76
8.76674000 0.997161 133.76 0.075263 43.759 0.075263 43.759 0.997161 133.76
8.76676000 0.997161 133.76 0.075264 43.759 0.075264 43.759 0.997161 133.76
8.76678000 0.997161 133.76 0.075265 43.759 0.075265 43.759 0.997161 133.76
8.76680000 0.997161 133.76 0.075265 43.759 0.075265 43.759 0.997161 133.76
8.76682000 0.997161 133.76 0.075266 43.759 0.075266 43.759 0.997161 133.76
8.76684000 0.997161 133.76 0.075266 43.759 0.075266 43.759 0.997161 133.76
8.76686000 0.997161 133.76 0.075267 43.758 0.075267 43.758 0.997161 133.76
8.76688000 0.997161 133.76 0.075268 43.758 0.075268 43.758 0.997161 133.76
8.76690000 0.997161 133.76 0.075268 43.758 0.075268 43.758 0.997161 133.76
8.76692000 0.997161 133.76 0.075269 43.758 0.075269 43.758 0.997161 133.76
8.76694000 0.997161 133.76 0.075270 43.758 0.075270 43.758 0.997161 133.76
8.76696000 0.997161 133.76 0.075270 43.758 0.075270 43.758 0.997161 133.76
8.76698000 0.997161 133.76 0.075271 43.758 0.075271 43.758 0.997161 133.76
8.76700000 0.997161 133.76 0.075272 43.758 0.075272 43.758 0.997161 133.76
8.76702000 0.997161 133.76 0.075272 43.757 0.075272 43.757 0.997161 133.76
8.76704000 0.997161 133.76 0.075273 43.757 0.075273 43.757 0.997161 133.76
8.76706000 0.997161 133.76 0.075274 43.757 0.075274 43.757 0.997161 133.76
8.76708000 0.997161 133.76 0.075274 43.757 0.075274 43.757 0.997161 133.76
8.76710000 0.997160 133.76 0.075275 43.757 0.075275 43.757 0.997161 133.76
8.76712000 0.997160 133.76 0.075276 43.757 0.075276 43.757 0.997160 133.76
8.76714000 0.997160 133.76 0.075276 43.757 0.075276 43.757 0.997160 133.76
8.76716000 0.997160 133.76 0.075277 43.756 0.075277 43.756 0.997160 133.76
8.76718000 0.997160 133.76 0.075278 43.756 0.075278 43.756 0.997160 133.76
8.76720000 0.997160 133.76 0.075278 43.756 0.075278 43.756 0.997160 133.76
8.76722000 0.997160 133.76 0.075279 43.756 0.075279 43.756 0.997160 133.75
8.76724000 0.997160 133.76 0.075280 43.756 0.075280 43.756 0.997160 133.75
8.76726000 0.997160 133.76 0.075280 43.756 0.075280 43.756 0.997160 133.75
8.76728000 0.997160 133.76 0.075281 43.756 0.075281 43.756 0.997160 133.75
8.76730000 0.997160 133.75 0.075282 43.756 0.075282 43.756 0.997160 133.75
8.76732000 0.997160 133.75 0.075282 43.755 0.075282 43.755 0.997160 133.75
8.76734000 0.997160 133.75 0.075283 43.755 0.075283 43.755 0.997160 133.75
8.76736000 0.997160 133.75 0.075284 43.755 0.075284 43.755 0.997160 133.75
8.76738000 0.997160 133.75 0.075284 43.755 0.075284 43.755 0.997160 133.75
8.76740000 0.997160 133.75 0.075285 43.755 0.075285 43.755 0.997160 133.75
8.76742000 0.997160 133.75 0.075286 43.755 0.075286 43.755 0.997160 133.75
8.76744000 0.997160 133.75 0.075286 43.755 0.075286 43.755 0.997160 133.75
8.76746000 0.997160 133.75 0.075287 43.754 0.075287 43.754 0.997160 133.75
8.76748000 0.997160 133.75 0.075288 43.754 0.075288 43.754 0.997160 133.75
8.76750000 0.997159 133.75 0.075288 43.754 0.075288 43.754 0.997160 133.75
8.76752000 0.997159 133.75 0.075289 43.754 0.075289 43.754 0.997159 133.75
8.76754000 0.997159 133.75 0.075290 43.754 0.075290 43.754 0.997159 133.75
8.76756000 0.997159 133.75 0.075290 43.754 0.075290 43.754 0.997159 133.75
8.76758000 0.997159 133.75 0.075291 43.754 0.075291 43.754 0.997159 133.75
8.76760000 0.997159 133.75 0.075292 43.754 0.075292 43.754 0.997159 133.75
8.76762000 0.997159 133.75 0.075292 43.753 0.075292 43.753 0.997159 133.75
8.76764000 0.997159 133.75 0.075293 43.753 0.075293 43.753 0.997159 133.75
8.76766000 0.997159 133.75 0.075294 43.753 0.075294 43.753 0.997159 133.75
8.76768000 0.997159 133.75 0.075294 43.753 0.075294 43.753 0.997159 133.75
8.76770000 0.997159 133.75 0.075295 43.753 0.075295 43.753 0.997159 133.75
8.76772000 0.997159 133.75 0.075296 43.753 0.075296 43.753 0.997159 133.75
8.76774000 0.997159 133.75 0.075296 43.753 0.075296 43.753 0.997159 133.75
8.76776000 0.997159 133.75 0.075297 43.752 0.075297 43.752 0.997159 133.75
8.76778000 0.997159 133.75 0.075298 43.752 0.075298 43.752 0.997159 133.75
8.76780000 0.997159 133.75 0.075298 43.752 0.075298 43.752 0.997159 133.75
8.76782000 0.997159 133.75 0.075299 43.752 0.075299 43.752 0.997159 133.75